/*--------------------------------*- C++ -*----------------------------------*\
| =========                 |                                                 |
| \\      /  F ield         | OpenFOAM: The Open Source CFD Toolbox           |
|  \\    /   O peration     | Version:  v2012                                 |
|   \\  /    A nd           | Website:  www.openfoam.com                      |
|    \\/     M anipulation  |                                                 |
\*---------------------------------------------------------------------------*/
FoamFile
{
    version     2.0;
    format      ascii;
    class       volScalarField;
    location    "350";
    object      ddt0(epsilon);
}
// * * * * * * * * * * * * * * * * * * * * * * * * * * * * * * * * * * * * * //

dimensions      [0 2 -4 0 0 0 0];


internalField   nonuniform List<scalar> 
14479
(
1.75013e-08
1.81391e-09
-3.25153e-11
4.61961e-06
-4.04055e-07
1.05239e-05
1.17046e-09
-4.37439e-11
-4.33555e-10
-2.06711e-05
4.37044e-07
4.61401e-06
1.02372e-05
1.69717e-05
5.02017e-06
-0.000147466
2.88644e-06
-5.09765e-05
0.000388076
-3.05797e-08
1.42609e-09
6.00499e-10
-0.000160085
6.44012e-07
-7.63011e-10
-1.74365e-08
2.38368e-09
-2.13637e-05
3.49131e-05
5.14507e-06
-0.000308605
1.13973e-06
0.00036703
1.19907e-11
-4.08363e-10
-1.38824e-10
1.5006e-09
-6.81864e-05
3.2569e-10
-5.53301e-07
4.30083e-06
6.24357e-10
-1.00265e-09
-4.55971e-11
-0.000327105
-5.26468e-09
-1.51311e-06
-1.9309e-05
8.73232e-10
-1.31588e-07
9.40648e-10
0.000268494
-1.17755e-06
2.62619e-08
4.02576e-10
5.2938e-10
1.59381e-08
-2.20179e-06
1.76534e-10
8.72115e-10
-2.58663e-10
-2.51508e-10
8.48657e-06
6.76023e-08
-0.000132988
-1.96017e-05
-3.74759e-10
-1.42968e-10
0.000174611
2.03954e-05
-1.6753e-05
-3.89918e-08
7.19001e-05
-0.000123538
1.05022e-09
-6.74983e-10
-1.90038e-05
5.38708e-06
0.000196416
-1.7892e-05
0.000105323
-4.19467e-11
-9.92549e-10
-3.88168e-08
-5.00815e-10
-2.50848e-09
-7.44968e-08
1.72247e-11
-1.92239e-05
-1.67901e-09
-1.48196e-05
-1.74911e-05
-1.68949e-06
2.12675e-05
-2.10761e-10
0.000360226
-4.85766e-10
-1.54094e-05
-5.50132e-10
-8.37326e-06
-0.000339425
-4.16539e-07
6.15853e-09
2.08893e-11
-6.1774e-10
4.84925e-11
-0.00018392
8.23051e-05
1.85542e-08
4.53533e-06
-3.84169e-11
2.62265e-10
-0.0003037
2.38749e-08
2.57715e-09
-2.40135e-11
-6.38742e-10
1.97284e-05
-9.79427e-10
-5.3165e-08
-8.55765e-10
-9.26316e-11
9.92653e-07
4.51318e-10
1.44112e-05
2.52011e-10
-7.93899e-11
1.14166e-09
-4.48124e-10
-2.41613e-06
1.47912e-10
-0.000152978
-9.75583e-05
6.29198e-10
-1.20481e-08
2.64023e-08
6.04676e-06
-1.49478e-10
0.000250813
4.55133e-06
8.49667e-10
2.15806e-05
-3.7113e-11
-8.19595e-06
3.56827e-08
3.09652e-11
7.23415e-05
2.06227e-09
3.76617e-09
-9.57419e-10
0.000341438
-2.38855e-10
4.52389e-10
-6.17219e-07
1.45938e-06
-3.30573e-10
-2.18521e-05
2.22386e-09
2.52228e-05
0.000224756
-2.23955e-05
0.000315452
0.00025233
-7.13026e-08
1.06331e-05
-7.60814e-06
-5.80136e-11
-0.000292998
4.66221e-10
-5.16008e-10
-2.52195e-10
-6.27399e-09
4.68531e-10
-5.17095e-08
6.13262e-10
8.75022e-07
1.95601e-10
-3.79598e-10
-1.19102e-06
-1.18017e-10
-1.06539e-05
4.90062e-10
-7.2966e-10
-3.79535e-06
1.35714e-10
1.04716e-08
-3.55745e-10
5.2269e-11
2.47227e-05
-9.31248e-06
-2.42976e-10
-8.83465e-06
-4.44423e-10
1.01887e-09
1.98422e-05
0.000222642
2.62374e-05
-3.28132e-05
6.6972e-10
7.79789e-10
1.45464e-10
-6.0612e-05
-0.000467771
2.61707e-07
1.49721e-05
1.31201e-10
-3.31787e-10
-5.03314e-08
-1.15261e-10
1.44522e-08
4.40587e-05
-3.3825e-05
-1.29759e-10
-3.20351e-11
-6.68185e-10
-5.53072e-09
-1.76052e-05
2.02402e-06
-3.56404e-11
-1.7659e-10
1.09084e-05
4.6931e-06
-4.20897e-06
-1.45239e-09
-4.19941e-05
3.50626e-06
-1.26562e-10
3.89766e-10
-9.11008e-08
-4.76328e-11
2.5992e-10
-5.08815e-09
1.39616e-09
1.46825e-05
2.19927e-10
1.84805e-10
1.45342e-08
-2.26099e-05
-9.54332e-11
6.86087e-10
3.82671e-06
-5.63507e-09
-1.3034e-11
1.46263e-07
-2.87194e-05
5.36194e-05
5.99768e-11
-7.18442e-10
-0.000252632
-2.41504e-05
-2.25465e-11
-1.46484e-08
9.80799e-12
3.83486e-10
-2.56019e-05
-7.96914e-07
-6.01206e-10
1.3927e-05
-2.04985e-08
3.09994e-07
0.000157783
0.000283684
1.55743e-05
-1.18878e-08
-1.815e-09
1.60589e-09
1.83245e-09
-9.62208e-07
1.56265e-05
0.000140118
8.50244e-05
8.638e-10
-3.96472e-05
-4.63998e-10
-1.05825e-10
-4.69011e-05
8.28648e-05
-5.85252e-10
-1.25041e-05
2.08267e-05
-4.72156e-05
-1.42741e-05
-2.36336e-05
0.000168417
2.99877e-10
5.37012e-10
2.40856e-05
-2.51e-10
3.81996e-05
1.42624e-05
-0.000236206
-4.11374e-05
2.28903e-08
1.59126e-05
-2.37388e-10
8.82713e-09
-8.70084e-10
7.58297e-09
1.52091e-10
6.69263e-10
-8.37428e-10
-1.25351e-06
-3.40695e-10
-3.8028e-09
-8.80157e-10
7.69239e-06
8.75969e-05
1.54637e-06
1.70353e-10
2.83828e-10
6.30733e-06
3.70709e-07
-3.53127e-08
5.53896e-10
4.07736e-10
-4.00596e-09
4.48851e-06
4.05031e-09
8.74948e-10
8.70551e-11
-1.3968e-10
1.14092e-09
-4.61875e-10
-7.51599e-05
-3.82894e-06
-9.24056e-05
0.000397304
1.04806e-06
-7.72391e-06
-2.36106e-08
-3.6867e-10
-5.39438e-09
-3.33699e-05
1.17024e-05
-1.04996e-05
-2.57754e-11
2.92789e-10
2.06501e-08
-6.84211e-07
3.6622e-09
0.00038363
-5.1782e-10
1.10401e-05
-1.01889e-10
1.8026e-05
2.01931e-10
-1.72787e-05
-1.20776e-05
2.42522e-10
2.30077e-09
1.82962e-05
-1.53723e-05
1.63253e-10
1.09246e-09
-4.00106e-05
7.57549e-10
-2.60966e-10
4.1893e-06
-2.01483e-10
4.24811e-10
-3.92294e-10
3.68695e-05
-1.91766e-06
-4.77092e-10
-1.41694e-05
-8.93813e-10
2.29382e-07
1.08513e-05
-9.17731e-06
0.000122423
-5.89212e-08
0.000221777
-1.08479e-08
-0.000151039
-0.000119961
0.000241449
-2.95502e-08
2.29933e-08
0.000179937
-6.30836e-10
-7.20371e-11
-4.18308e-10
7.04996e-07
-2.59736e-07
0.000198343
2.38854e-08
3.6171e-10
-1.07422e-07
-6.70697e-10
-1.68e-08
3.39798e-09
-2.01575e-09
-0.000116001
7.8293e-06
-0.000148941
-3.60102e-05
-4.22606e-06
-7.35802e-05
-3.21105e-09
-1.18239e-10
0.000304919
-4.57121e-05
1.48334e-05
-2.64304e-10
4.42647e-06
-5.87316e-12
2.51037e-06
-2.04039e-06
-5.22454e-08
2.56434e-10
-1.87386e-05
-1.51962e-05
-1.22919e-10
-5.60912e-10
9.94337e-05
2.58478e-10
-2.69654e-05
-1.52581e-06
1.97696e-11
5.95128e-10
1.68066e-10
1.73022e-09
-0.000270831
-3.27405e-08
0.000373022
1.49436e-09
5.94622e-06
1.02198e-09
1.51678e-10
-0.000104278
0.000288817
2.99898e-08
-4.50578e-07
1.10783e-10
1.41952e-09
1.75776e-05
-3.49001e-09
-4.00546e-05
-9.14284e-05
-4.07697e-07
-4.03761e-05
-1.82176e-05
7.47721e-06
9.45235e-10
1.74047e-08
4.31664e-10
-1.98855e-07
1.75083e-05
-2.3202e-10
-9.79554e-11
1.24587e-10
1.5984e-06
-1.50226e-08
-6.46198e-09
2.57581e-10
-2.26204e-07
-1.98961e-10
-1.50814e-08
6.49616e-05
1.23949e-05
4.48335e-10
-3.06992e-10
8.03566e-05
-2.76383e-07
-0.000163003
7.16094e-06
-5.61361e-12
7.26861e-05
1.49166e-05
-3.58225e-10
-3.45682e-12
-7.28369e-11
8.39618e-06
0.000162529
2.24497e-05
-2.96883e-05
7.89274e-06
6.7302e-06
-3.86742e-09
-3.98486e-07
-5.45649e-10
4.59459e-05
-8.68636e-09
-1.46317e-05
2.89048e-10
-1.0795e-07
-2.9677e-10
0.000158578
9.79404e-05
-3.10119e-05
-8.38072e-06
-8.47744e-10
2.62023e-10
-1.0173e-05
5.37656e-07
-6.42834e-10
-1.83467e-09
4.28567e-06
-2.59111e-07
-8.18612e-10
2.35481e-10
-3.97792e-07
1.08451e-09
-5.10344e-10
5.75798e-06
-5.49569e-05
0.000340754
-2.15122e-09
-4.15349e-10
5.50199e-06
1.4552e-09
-9.66678e-09
-2.97563e-10
-1.77189e-05
-6.24555e-11
-7.35817e-10
-2.68752e-09
1.16544e-09
-3.3415e-05
2.33063e-08
8.51329e-05
8.09946e-06
0.00010099
2.56384e-06
-3.15384e-05
1.52811e-05
4.88233e-10
4.01954e-10
-2.93506e-05
5.57874e-06
-9.74985e-10
5.98012e-08
-0.000371364
5.23655e-05
-3.71202e-09
-3.01821e-08
-4.52262e-07
-1.0423e-05
-9.8182e-05
0.000194765
2.02089e-05
0.000101399
-1.13111e-09
-1.16598e-05
8.14768e-10
5.52867e-10
0.000398695
1.45705e-10
2.93689e-11
-1.0656e-09
-1.53328e-09
-3.48635e-07
1.51246e-10
-2.9956e-10
3.238e-05
-3.08249e-10
-6.31524e-05
7.75552e-06
4.06737e-06
6.77835e-06
1.62805e-09
1.10547e-05
2.32339e-09
-3.77339e-05
-4.79717e-10
-2.12028e-07
-4.7239e-11
2.88509e-10
-3.77985e-10
-1.16934e-10
-7.9213e-09
3.83953e-10
-3.08085e-05
8.25563e-05
8.77731e-10
4.31031e-06
-2.67036e-05
-4.62524e-10
2.80106e-10
3.60067e-08
7.11101e-06
9.51377e-11
3.88274e-09
1.17045e-10
9.20461e-05
-5.44371e-10
-1.25322e-11
-6.52948e-06
-9.55622e-06
-1.00741e-05
-1.07929e-07
-9.86447e-10
8.66188e-10
0.00023283
2.35167e-05
-0.000580156
6.29934e-11
-1.40168e-09
7.36471e-11
-8.40692e-10
0.000142789
-7.06772e-10
2.60021e-05
8.25605e-05
3.80403e-05
6.22608e-10
1.2523e-05
1.26041e-05
1.77691e-10
9.39736e-09
-3.8189e-10
3.76412e-06
2.76702e-09
-3.44389e-10
6.85815e-10
1.02169e-09
-8.65572e-06
2.1879e-05
0.000276571
-7.16186e-10
7.26497e-11
-5.65489e-09
-5.1569e-10
-4.92558e-10
0.000135799
-1.46862e-05
-2.92592e-10
-5.6793e-10
-4.69238e-10
-1.42178e-05
-9.14689e-10
-1.36032e-09
-8.8008e-10
-2.99638e-06
2.56904e-09
-4.96892e-11
-2.58638e-10
-2.36652e-05
0.000586882
1.39333e-10
0.00032178
-1.08627e-06
2.46675e-10
8.26123e-06
-1.20405e-05
-5.70084e-10
1.45941e-10
7.51676e-10
-1.17774e-09
7.92155e-05
3.53507e-05
-7.34629e-08
-7.48394e-10
3.39877e-06
-1.63518e-05
0.000178365
0.000133668
3.20999e-09
-1.08966e-09
3.7116e-10
-4.1586e-05
-1.3042e-10
-6.23637e-10
1.13757e-05
2.95192e-05
-1.06989e-10
7.38808e-10
-1.89761e-06
0.00032209
-1.51451e-09
6.25966e-11
4.86702e-11
-1.50229e-06
4.80814e-06
-0.000264974
8.62557e-07
0.00013853
4.41551e-10
3.19088e-07
-8.65102e-09
7.51803e-09
1.6403e-10
-2.34101e-05
-1.78281e-11
-2.47756e-05
7.41054e-10
2.44038e-05
-3.79926e-05
7.5142e-11
-0.000223062
-2.03647e-10
2.61122e-09
6.95917e-05
-1.82421e-05
-2.7091e-07
0.000299119
0.000156633
0.000227833
1.88309e-10
8.41888e-07
2.16592e-05
5.42218e-05
1.51158e-05
-1.92818e-10
0.000144342
0.000380884
-6.57309e-07
0.000348163
2.77989e-10
0.000478966
-7.13882e-10
1.14584e-09
-1.15016e-05
-2.3203e-05
-1.96597e-05
1.23705e-09
-2.07355e-10
-2.47284e-05
-8.83778e-06
-5.35659e-08
9.40487e-06
2.08286e-05
6.02697e-12
0.000127018
-0.000521291
-6.77178e-10
-0.000234826
-1.62671e-05
0.000217029
2.93552e-10
-2.42429e-10
-2.68284e-05
4.75162e-10
-1.27281e-09
-4.52072e-10
-3.17618e-10
1.14926e-07
-2.10627e-07
2.70684e-10
-2.97798e-10
-4.28217e-10
7.77848e-11
1.34853e-11
-1.02178e-09
-4.73508e-10
6.21349e-06
-2.08683e-05
4.75436e-06
9.30457e-06
3.91022e-06
-3.50537e-07
1.16637e-09
-1.59559e-10
-4.72157e-10
7.3813e-07
-2.06666e-06
1.19961e-10
-7.07795e-06
2.69432e-09
3.19944e-10
6.17879e-06
6.51453e-10
-1.96184e-05
2.29373e-05
-5.21321e-10
0.000168832
-6.21617e-10
-8.28606e-06
-1.99056e-05
-1.16225e-08
8.01896e-07
-1.50461e-05
-1.8273e-05
1.47376e-09
-4.03959e-10
-3.94793e-05
8.61435e-06
3.64482e-06
-1.23574e-09
-2.28272e-05
0.000304257
-2.6536e-10
-0.000112175
-1.16173e-05
-3.89225e-10
2.41879e-09
5.39478e-06
-3.23262e-07
-1.07184e-10
0.000116203
2.61694e-09
-0.000361585
-3.34763e-05
-3.02371e-05
0.000293993
-0.000280437
3.60028e-06
-8.85349e-07
-3.58592e-06
9.54857e-08
0.00032347
-2.35996e-07
-1.01593e-08
3.35195e-09
5.61515e-10
-1.07928e-06
-0.000249578
-1.05888e-10
-2.51763e-05
-3.89732e-05
3.34975e-06
0.000346355
-3.90363e-10
1.53969e-09
1.47044e-05
-1.92776e-05
-2.621e-06
6.01787e-06
-7.5811e-09
-0.000272079
1.05502e-09
1.40495e-05
-5.11646e-10
-1.2782e-05
-4.94957e-10
-0.000210971
-3.97558e-08
-1.01365e-09
4.51886e-09
7.39172e-11
-6.34746e-09
0.000311691
0.000113916
0.00033293
1.27717e-05
5.56668e-09
1.34631e-05
9.09167e-10
-1.06736e-05
3.66261e-05
-4.43495e-05
1.33039e-10
1.79276e-10
4.64635e-09
-3.9228e-05
-1.24396e-09
0.000243832
-3.47462e-05
-1.92248e-10
4.42525e-09
-0.000383934
-3.18425e-08
2.24039e-05
7.4865e-06
5.43658e-06
-8.92228e-11
-2.7619e-05
-1.41478e-10
5.15819e-10
2.451e-09
-1.38495e-10
4.85057e-10
8.68153e-11
-2.06179e-05
-7.39484e-10
-1.03808e-05
9.78726e-10
-9.73743e-11
-1.16432e-09
5.622e-10
9.87006e-07
-1.95536e-06
5.21166e-05
-1.61655e-05
-1.34253e-06
2.06404e-05
4.59465e-09
0.000322005
3.89085e-05
-4.62267e-05
-5.58579e-05
6.98356e-06
6.26014e-07
1.55833e-09
-4.17237e-10
1.14943e-10
-5.95961e-10
-1.67616e-07
-2.19568e-08
2.81128e-10
-7.62516e-09
-8.68198e-09
-1.07208e-07
4.08618e-05
-1.65599e-10
2.18235e-11
-6.74357e-09
-5.84023e-05
3.77377e-05
-1.19448e-09
2.4454e-06
7.56215e-11
-8.88493e-09
2.33005e-10
-5.72911e-10
-8.22899e-10
5.92878e-10
3.30886e-08
-0.000570865
8.173e-05
-1.17438e-05
-0.000169085
7.24117e-11
-1.3877e-06
1.51963e-06
2.14567e-10
3.34747e-09
0.000360316
0.000228368
-1.97183e-05
-5.99739e-11
7.15833e-05
-1.72207e-05
4.29526e-06
9.24275e-11
-7.25815e-11
7.49622e-05
-2.34655e-06
5.05891e-06
2.88337e-10
-2.90275e-05
-1.47498e-05
-8.75526e-09
1.7222e-10
2.29134e-05
1.39925e-05
-0.00026361
0.000187951
4.0428e-05
3.19117e-05
-1.6842e-10
-0.000349919
2.07839e-11
1.70752e-09
7.0798e-11
3.29523e-10
0.000157862
-2.37679e-05
1.55413e-06
3.63618e-10
0.000130823
3.53366e-10
9.63029e-06
0.000300146
5.31411e-09
-9.71419e-11
7.22236e-09
-2.85201e-05
-1.77479e-10
1.34593e-10
-4.56981e-11
-4.08805e-06
-1.05893e-10
1.25206e-12
-5.1894e-05
-4.94044e-05
3.76471e-06
-1.10035e-09
2.15623e-11
2.02791e-09
-6.66769e-05
-1.85721e-05
1.76496e-05
-3.17476e-11
-1.29213e-06
1.27215e-05
7.12747e-10
-3.73066e-11
1.61061e-10
2.82476e-05
-4.93764e-09
4.92625e-08
2.29049e-10
5.24833e-06
-4.98147e-08
-1.81878e-09
1.48064e-06
-2.23213e-08
-5.08162e-10
2.7982e-06
-6.9163e-11
-3.80409e-11
-2.28713e-05
-2.25179e-05
-2.30579e-10
-1.34899e-05
-8.36996e-11
5.40218e-10
-9.08741e-10
4.30592e-10
-1.10542e-05
-8.45887e-10
0.000124301
-1.72302e-09
-1.05248e-05
-7.93465e-10
-8.75054e-09
-2.3234e-05
-6.66358e-10
1.55755e-10
-7.18644e-06
-3.86626e-05
1.54225e-07
8.77161e-05
7.89e-09
-0.00024878
-2.61385e-10
1.23522e-09
0.000138615
2.6537e-07
2.39514e-09
-9.50151e-11
-2.43908e-05
-3.34001e-10
-1.09694e-05
-0.000274985
1.14038e-08
1.56837e-08
-3.55486e-07
-7.01745e-05
0.000243774
2.72008e-10
-3.09418e-09
1.02327e-08
-1.72711e-09
6.99243e-10
-1.42691e-08
-0.000767336
-5.9622e-09
-5.89295e-07
9.18642e-11
5.50208e-06
-0.000331203
-1.72289e-05
-1.78911e-06
-1.95337e-05
8.62126e-10
5.97137e-08
2.63019e-09
-1.93197e-05
-1.33061e-05
3.13445e-10
6.45959e-06
1.06182e-05
9.56567e-09
2.4091e-05
7.50562e-07
2.22936e-05
-6.01172e-06
-4.08773e-10
-2.63141e-07
4.77976e-10
1.71768e-10
-2.52559e-10
3.3146e-10
0.000395015
-7.73627e-05
2.44887e-06
-6.54192e-06
0.000272195
-2.86664e-05
1.22037e-05
-3.6448e-05
8.5554e-09
1.89225e-09
0.000553292
-6.36404e-05
0.000466475
1.41426e-09
-2.11187e-09
2.72839e-05
2.82564e-10
1.71727e-10
-4.57486e-10
-2.34088e-08
-2.32705e-10
1.37985e-05
8.89711e-10
-1.77129e-07
5.09805e-10
-2.53039e-05
-9.44908e-07
5.71704e-05
5.44624e-09
5.13024e-10
5.60234e-09
-4.75274e-05
-6.0721e-11
-2.62049e-09
1.00462e-09
2.62377e-07
5.55855e-05
2.26027e-10
-1.01808e-09
-6.73314e-10
7.51247e-06
-9.46949e-11
3.48661e-09
-6.46807e-05
-0.000449783
5.50568e-06
8.94684e-10
0.000276309
2.63481e-10
-1.07094e-10
-2.93848e-07
1.39553e-07
1.38194e-08
-5.03601e-10
1.62848e-06
-2.79988e-06
1.0562e-05
-0.000236998
-6.06384e-12
-1.06127e-10
-0.000186476
3.15451e-05
-3.64537e-08
1.24067e-05
6.80801e-10
-1.02388e-08
9.73022e-10
-2.90598e-05
-5.76039e-10
9.72976e-06
-3.78412e-07
-4.26548e-10
4.87099e-05
1.08063e-05
6.30367e-05
-1.56913e-11
-1.1196e-10
4.23736e-05
-1.21401e-09
-8.17217e-06
1.59984e-05
8.63612e-06
9.091e-10
-4.72069e-08
-3.02398e-10
-1.33415e-05
7.14698e-10
2.30189e-11
2.52219e-06
2.50609e-09
-1.9e-05
1.17518e-11
-4.2334e-10
2.16263e-05
-1.93192e-05
-8.66596e-05
-1.86549e-06
-1.58058e-06
-2.91982e-10
4.62577e-09
3.40773e-10
5.23091e-10
-2.03826e-11
0.000111087
-2.93284e-06
-1.04819e-10
8.1395e-10
-2.80405e-09
-9.70815e-05
1.25122e-08
4.28391e-11
5.76331e-06
7.57919e-06
1.27618e-05
3.50877e-10
-5.11472e-10
-5.11543e-10
0.000243637
-6.50667e-05
9.8372e-05
1.13347e-05
-0.000183484
-3.98744e-08
9.93231e-10
-1.28671e-09
5.45653e-10
0.000218583
-0.000197445
5.00123e-06
-7.99053e-10
3.03489e-10
-1.01686e-09
-4.99636e-10
-2.60797e-10
-4.4637e-10
-8.71503e-10
-1.84246e-05
-2.09493e-05
3.00599e-08
-9.41893e-06
1.80663e-05
3.69194e-10
-4.98667e-10
-5.39798e-05
-1.92295e-10
-2.91047e-10
-1.79906e-05
-1.68372e-10
5.76066e-10
-6.45619e-10
8.10973e-07
-8.0931e-10
8.55817e-06
-4.88455e-06
-2.00595e-10
-1.67917e-09
-9.30392e-07
-0.000374489
3.4605e-05
6.78015e-10
-7.63995e-11
3.06525e-06
1.90024e-10
5.01735e-10
5.75635e-05
5.44701e-10
-3.58686e-05
-4.71575e-07
1.32147e-05
-2.68641e-09
0.000223112
-1.1782e-10
-2.08839e-10
-1.0947e-05
7.31539e-05
9.85494e-11
2.44348e-05
-1.27127e-08
-7.06268e-10
0.000306874
1.1284e-10
-5.14959e-10
5.53216e-06
-0.000149038
5.51244e-05
-1.07709e-05
-1.47642e-10
1.22551e-08
6.87486e-05
-8.65687e-05
0.00010219
1.10598e-09
5.43136e-10
1.48535e-08
-1.04669e-09
-8.2161e-11
5.84166e-10
9.45984e-11
3.22878e-06
1.88197e-11
-1.80662e-10
1.12678e-05
-2.01543e-05
1.83498e-05
1.64451e-05
-1.97705e-10
9.64039e-10
0.000143399
3.29079e-09
3.51915e-06
1.07952e-08
1.2477e-05
9.68801e-06
2.52917e-10
4.55398e-11
0.000127907
-0.000185514
4.75011e-10
-1.47638e-05
-1.95527e-05
5.67436e-05
-1.30073e-10
4.42878e-10
1.59834e-09
1.33422e-05
-1.74692e-05
-1.65189e-05
-0.000134716
6.66214e-10
1.16022e-11
4.83496e-05
-5.9742e-08
6.17737e-05
-3.10255e-06
5.7943e-10
0.000160185
-2.71628e-07
3.10815e-10
-1.58902e-05
4.20002e-10
1.3881e-07
9.08628e-10
-1.46862e-09
3.99752e-09
8.05065e-10
3.27579e-10
-4.38184e-07
0.00022445
2.10742e-06
6.2756e-09
-4.69285e-10
8.5853e-10
-8.09883e-11
2.58148e-05
-6.79017e-10
1.89953e-09
1.01866e-09
-9.53275e-05
-2.64587e-10
1.06756e-05
-1.28101e-08
1.34413e-06
5.92078e-06
2.75193e-05
-6.49117e-06
1.62676e-05
7.86681e-06
1.08502e-09
-2.87297e-11
1.14678e-05
4.22898e-10
0.000326149
-2.14823e-05
1.47746e-10
3.81361e-11
6.80926e-10
7.74423e-10
-2.00559e-05
-1.0722e-06
-2.42856e-05
-4.47741e-10
-1.06842e-08
-2.81503e-09
4.23812e-06
2.94487e-10
-6.2793e-10
0.000288157
-5.22111e-11
1.04904e-05
-1.8272e-06
-7.40106e-07
1.50644e-06
0.000121925
3.33137e-10
1.93382e-11
0.000328005
2.65529e-09
0.00061269
7.0697e-11
-2.57437e-05
7.67103e-10
0.000148146
-1.99174e-06
2.16946e-08
-2.23327e-06
1.18668e-05
4.83196e-05
2.35443e-10
0.000265762
6.02824e-07
9.49299e-06
-9.70676e-10
-3.48838e-11
4.77806e-09
1.70254e-07
-2.29413e-05
5.33477e-07
2.83302e-10
-2.75618e-06
3.23119e-10
1.28344e-09
1.99337e-05
2.30734e-09
6.79685e-10
4.08756e-06
-1.93791e-06
-0.000255201
5.25946e-09
-2.15513e-05
3.23848e-09
-4.61581e-06
4.23384e-09
-2.92642e-10
2.43423e-10
-9.32359e-05
4.75352e-09
-0.000186529
-2.10116e-05
2.71688e-08
4.48259e-10
-0.00011815
9.22873e-06
-4.16091e-09
6.78124e-10
4.31098e-06
2.87443e-05
7.81469e-10
-2.19437e-10
-1.79265e-05
1.78418e-05
4.52352e-08
-1.805e-05
3.79654e-07
2.14629e-10
-1.71256e-06
3.5826e-06
-2.7005e-05
0.000226279
-5.39591e-07
0.000350494
0.000166846
-4.05268e-11
-5.92865e-05
-3.27237e-06
-5.3848e-09
0.000252447
-1.25808e-11
0.000384587
5.81599e-06
-1.27042e-05
5.55119e-11
-2.67677e-10
4.35021e-09
4.46051e-10
-9.10892e-06
-3.03983e-09
-3.62596e-05
-8.75596e-10
-3.05869e-07
1.6658e-05
-8.28185e-10
7.42686e-11
-3.1508e-10
3.33344e-10
2.51626e-09
-3.80189e-05
-5.70404e-06
1.14639e-09
-8.95775e-12
-4.832e-10
-0.000213584
-6.89245e-05
-0.000283617
1.19307e-07
9.42753e-10
5.11499e-10
4.21983e-06
-1.80556e-06
-2.68218e-05
6.84576e-06
4.83256e-10
-1.97092e-05
8.53665e-05
3.04572e-05
-1.44389e-11
-1.66648e-10
-3.91924e-10
-5.76527e-10
-1.62039e-07
8.22067e-10
1.53907e-08
2.74478e-10
9.26381e-10
2.82858e-10
-2.41963e-05
-3.61875e-10
-2.03585e-05
9.13222e-10
2.62096e-10
-2.22067e-05
8.83458e-10
2.42273e-06
1.25981e-05
-1.49982e-08
-9.78775e-05
2.95505e-10
-1.67876e-05
6.68603e-05
5.67839e-06
4.85661e-05
-1.44271e-06
8.04002e-05
3.44324e-06
4.01349e-06
1.86671e-08
-0.000420116
-2.3679e-08
5.17088e-05
-9.4677e-08
-3.47352e-08
6.02085e-06
-7.31795e-05
6.37854e-05
1.57056e-08
-1.22542e-06
-0.000277814
-0.000359133
1.08216e-05
-0.00011018
1.56206e-05
-3.06509e-10
2.52566e-05
3.14137e-10
-1.41178e-05
2.70235e-05
1.06045e-09
-3.22075e-05
-5.82177e-06
1.99391e-10
0.000181138
-9.37176e-10
-5.50162e-07
1.82131e-05
-9.83696e-11
-0.000505989
-0.000279045
2.32077e-06
-2.30383e-05
1.40243e-10
2.65435e-08
-1.68209e-06
-3.54666e-10
-1.29323e-05
-4.00477e-08
4.68283e-10
-7.91539e-05
-3.15531e-05
-9.1064e-06
-5.58203e-05
1.20439e-07
-1.1488e-05
-2.35477e-05
1.15018e-07
0.00028457
0.000240924
4.11852e-09
-1.63859e-10
-4.42888e-10
1.6649e-06
4.17571e-06
-4.16158e-10
2.49072e-06
8.29023e-11
0.000119408
1.43129e-05
0.000153151
3.94668e-05
-1.86679e-10
1.10182e-05
-2.16517e-09
-0.000351781
-0.000317138
-1.48233e-05
1.19911e-09
3.61302e-05
-6.57397e-10
-2.22768e-09
0.000151796
1.22055e-06
4.15321e-05
1.77289e-08
-6.77631e-09
-8.23653e-06
-2.26284e-05
0.000509979
2.1968e-09
1.08781e-09
1.9216e-05
6.04799e-10
-1.25263e-09
2.73671e-11
-8.25076e-10
-0.000395787
0.000445836
1.70043e-10
2.34209e-05
-1.79373e-05
3.35684e-09
5.0071e-10
4.97407e-10
-1.0277e-07
-2.48965e-10
-7.54819e-10
7.30702e-10
4.46372e-05
-1.16817e-05
-2.58077e-06
5.62078e-10
4.02636e-05
-4.50146e-05
-0.000129274
-4.23198e-10
-1.11354e-10
5.18428e-10
-7.4811e-07
-1.92545e-07
-5.49e-05
-3.90064e-08
8.58778e-10
4.02724e-06
7.41621e-10
-4.41566e-11
-4.29872e-10
2.3409e-08
7.81915e-09
4.51769e-06
2.85188e-06
-3.33422e-10
-3.16481e-05
-2.25446e-09
-1.67936e-08
-1.11596e-07
-1.15997e-09
6.9483e-10
-1.25464e-05
5.64001e-10
9.28152e-12
-4.07999e-07
0.000328232
-5.06122e-09
-7.30778e-06
2.92265e-09
-1.01378e-05
1.75818e-07
-1.25372e-05
-6.0816e-07
-1.09754e-09
0.000250888
2.36634e-10
5.05876e-10
-8.78783e-05
1.4928e-05
1.70778e-09
5.40962e-05
0.000117928
2.42753e-08
-2.9436e-10
-2.8132e-06
3.6029e-05
2.69547e-08
3.49863e-06
4.78007e-06
-5.55719e-10
2.78303e-05
1.9395e-09
-1.50237e-06
-0.000223327
-3.75859e-10
3.6344e-08
9.38094e-10
-4.32002e-10
-7.81373e-11
-9.90119e-10
-3.71068e-05
-8.8745e-05
-5.33636e-10
8.1296e-08
-6.45164e-06
1.1602e-09
-3.12917e-11
6.37725e-06
1.07853e-11
-9.13703e-06
-0.000240197
4.009e-10
-4.28258e-09
-9.15173e-10
0.000127076
-3.74928e-10
-6.0612e-09
-9.19627e-10
-0.000461349
-2.93101e-05
6.69008e-05
-1.18075e-09
-7.41831e-05
-9.21697e-05
2.15041e-05
-1.03591e-11
-0.000105999
5.26506e-08
-1.16833e-05
8.87396e-11
-0.000212779
-2.22418e-06
2.96386e-05
3.15639e-08
3.69918e-10
5.18608e-11
-3.19419e-08
-2.79413e-05
8.34316e-12
-4.9528e-06
-9.17933e-11
-7.19535e-06
-1.78153e-10
1.7855e-05
9.82201e-07
-5.21852e-11
-4.03503e-11
-1.34546e-05
8.24219e-05
1.64575e-06
-6.10559e-05
-1.54469e-05
-1.53491e-05
-5.00546e-05
-3.21129e-09
2.46715e-10
-2.01826e-10
8.35367e-10
0.000492359
-1.36275e-05
-7.39211e-09
2.15029e-10
-0.000304684
2.51879e-05
-4.96373e-06
1.70598e-05
0.00012777
2.07029e-10
2.91719e-10
-1.00722e-09
1.28699e-08
3.87667e-06
4.49195e-10
-1.32766e-05
1.61632e-10
8.03912e-06
-1.31824e-05
7.04118e-10
6.24829e-05
-0.000362939
6.16835e-06
3.66932e-06
-5.36347e-10
7.65137e-08
2.63886e-10
-2.80264e-09
1.7195e-08
7.93405e-05
-2.20205e-07
-2.47176e-07
-9.97812e-10
-1.24107e-11
1.66772e-09
-0.00021594
-0.000114654
-3.95922e-07
7.98813e-10
2.72676e-10
-2.54572e-10
0.000224469
2.35511e-05
-1.71993e-10
3.72188e-09
-4.43264e-05
-0.000149158
-3.12506e-09
-0.000228192
-1.03435e-05
9.71855e-10
0.000160383
2.22717e-08
6.46933e-11
-4.50395e-10
3.36019e-10
2.27398e-10
9.84357e-05
3.27885e-10
-1.43375e-10
-1.27779e-10
-4.6625e-09
2.41446e-10
7.068e-10
6.21051e-06
2.39937e-11
5.90934e-06
0.000214264
5.93909e-11
-0.00025993
1.21279e-05
-4.68911e-05
-6.59442e-10
9.61053e-07
3.08544e-05
-3.48351e-05
-0.000287956
4.87205e-11
-5.57995e-08
1.33322e-06
-1.41825e-09
-2.63489e-08
8.36091e-10
-2.34784e-06
1.11245e-08
-3.72361e-10
3.45543e-09
-0.000125779
-1.43852e-06
-2.02575e-08
3.98682e-11
-2.29693e-05
1.47246e-09
6.49127e-05
4.86645e-06
-9.76457e-06
-0.000187507
-8.3575e-10
-2.6201e-10
-3.86054e-12
-5.01293e-05
1.1107e-10
2.04276e-09
4.70034e-09
-0.000290619
0.000254627
9.45428e-06
5.66917e-10
-2.36261e-05
-0.000605355
-5.05388e-10
3.99539e-06
-4.82114e-07
-1.09113e-05
-5.26556e-05
-4.73886e-11
4.26737e-10
-0.000635858
5.42e-06
6.84731e-06
3.99372e-06
-1.20459e-05
-6.58074e-10
1.9031e-05
-5.15443e-05
-9.3744e-05
-1.37502e-05
4.3716e-10
9.96994e-10
1.56957e-09
-4.21021e-10
-1.72049e-09
-9.14039e-05
1.42201e-08
3.44136e-10
-1.5333e-09
0.000234389
7.60367e-05
-5.18508e-08
-2.36466e-05
1.80471e-09
2.85266e-05
0.000139741
-3.95474e-11
0.000136407
3.46165e-06
-8.21095e-06
3.39923e-09
-0.000114304
1.57766e-10
-3.14886e-09
6.8248e-05
4.6958e-06
2.29467e-06
1.96287e-08
1.40835e-06
0.000287381
-2.08848e-05
-9.29234e-10
0.000359877
-0.000149005
2.76557e-06
-0.0005652
-4.13759e-10
-4.86211e-05
-6.41559e-10
1.68485e-10
8.30006e-10
7.90264e-09
-4.37916e-10
1.74596e-09
-1.88557e-08
-8.96105e-07
3.33966e-10
0.000194764
3.52135e-10
2.54116e-10
-2.0455e-10
-9.78277e-10
0.000183447
9.25499e-10
6.59939e-06
-2.19591e-05
2.72728e-08
4.36872e-10
6.33799e-06
2.89981e-05
-3.03397e-10
2.46663e-09
-1.12408e-09
-2.61582e-10
-0.000116901
-4.41408e-05
-1.70162e-05
-1.64422e-05
0.000205877
7.41543e-10
-6.36016e-05
-1.96195e-10
1.38667e-09
-9.29711e-06
5.45585e-06
4.00227e-10
-2.15392e-06
1.41897e-08
1.72548e-10
-2.00444e-07
6.65753e-10
0.000172307
2.37758e-10
-3.4677e-06
-4.12519e-05
-4.48614e-11
-1.82778e-06
1.99666e-10
-5.0946e-10
-7.72877e-05
-2.07574e-09
4.76809e-06
2.75354e-06
-2.01124e-05
2.80958e-10
1.90463e-08
6.70505e-08
3.19236e-10
-2.58181e-10
-0.000256208
2.4118e-09
-1.49938e-10
5.59444e-10
4.97689e-09
5.06325e-06
-0.000106126
-4.33329e-10
2.85514e-09
2.32355e-05
-2.34416e-05
3.35748e-09
5.86513e-05
-2.00189e-11
5.09948e-10
3.87053e-09
7.99461e-10
6.74624e-10
-1.00299e-10
-2.77277e-05
-9.05898e-08
0.000327651
2.10317e-05
-1.31699e-05
-1.74155e-05
-5.31561e-10
9.94046e-10
-1.89621e-09
-3.49518e-09
2.97606e-05
-1.9819e-05
7.24527e-05
1.53799e-10
3.3911e-05
3.55887e-10
-1.83905e-07
5.59399e-06
3.52782e-06
-1.68282e-06
2.09544e-06
-4.22324e-05
-0.000381186
-2.47594e-10
1.53811e-10
5.68107e-06
5.55001e-10
1.28255e-11
-4.90279e-10
6.43646e-07
-0.000120567
-2.64365e-08
-1.69575e-05
3.85716e-10
1.55837e-05
-5.63215e-09
-1.874e-05
1.61985e-05
-0.000503285
3.87778e-11
4.07076e-09
0.000379424
3.24765e-09
-4.7108e-07
6.33557e-08
6.80682e-10
1.64344e-07
-1.85672e-10
-5.63795e-05
-0.000230236
-1.18211e-05
-9.94248e-10
-6.33657e-10
-0.000161209
-3.54397e-05
-6.59775e-06
-1.11867e-09
4.41754e-05
-1.83158e-05
1.22346e-05
-3.01087e-05
-1.92943e-05
-1.96493e-10
-1.28599e-05
-2.28685e-05
-4.18043e-05
-8.15327e-10
-0.000113994
-8.01051e-11
7.8036e-06
-1.79962e-06
0.00028874
-2.07977e-05
1.00716e-09
8.73582e-11
8.82989e-09
-6.5465e-06
-6.18126e-11
2.10825e-05
6.24151e-10
4.83906e-07
-9.97852e-05
6.48296e-10
3.80857e-09
3.62266e-08
9.03147e-11
7.31526e-10
0.000291949
1.43018e-05
2.5584e-09
3.34792e-11
6.28241e-06
1.01963e-11
-5.33445e-10
1.65834e-10
1.78605e-06
3.82752e-06
3.21316e-06
8.6303e-10
0.000134247
-4.1228e-10
1.35482e-06
1.44175e-05
4.94261e-10
7.0382e-11
3.01785e-10
8.30617e-05
2.16342e-09
1.1223e-08
-0.000241038
-5.40357e-10
-0.000193035
-3.41275e-10
7.43762e-10
-1.0101e-09
-6.85603e-10
6.13525e-10
-4.33206e-10
-2.81856e-05
-1.95753e-05
-2.13647e-05
6.07418e-10
-5.26466e-08
-5.58263e-05
-4.70966e-05
4.67701e-06
-0.000106205
-2.15321e-10
0.000270474
-3.04805e-08
-0.000817268
1.2095e-10
-0.00061768
-1.53831e-10
-1.01752e-08
-2.95909e-11
-9.67686e-06
-2.25462e-10
5.39466e-06
0.00019592
-2.64093e-10
-3.06331e-07
6.85781e-06
1.16488e-08
-5.82886e-09
-3.5936e-10
0.000235419
-1.4064e-10
8.61918e-06
-2.06226e-10
-1.00019e-09
-4.24175e-06
-4.49555e-05
-1.75919e-05
-3.1435e-10
2.04796e-10
0.000341175
6.59262e-10
-9.21595e-10
-0.000126197
0.000378909
1.37483e-07
-2.98689e-11
7.76302e-10
-1.43517e-09
0.000111246
2.16862e-09
4.0876e-11
-6.16749e-05
-6.18022e-06
2.11456e-09
-2.19891e-05
6.83829e-07
-5.18597e-10
-3.97565e-10
-4.23023e-11
5.01236e-07
1.9987e-10
1.67068e-10
3.43305e-11
8.62438e-08
-7.86459e-11
2.62347e-10
-1.51898e-10
-0.00012259
-6.21447e-10
1.00705e-09
3.22663e-09
4.65733e-08
1.77056e-09
4.60138e-06
-1.09653e-05
2.55807e-10
1.08158e-09
6.93032e-08
-1.65177e-07
1.64815e-08
-0.000231252
-5.7285e-06
1.42325e-10
-1.53507e-06
-3.9092e-10
0.00027108
6.48606e-06
-1.3643e-05
-1.04948e-09
5.78829e-05
3.85883e-10
3.99976e-10
2.83602e-09
2.89803e-09
-4.92352e-10
-7.30154e-06
7.59907e-10
1.03367e-09
1.70281e-08
-7.96447e-05
2.45342e-10
-2.78967e-09
-0.000110041
-8.31622e-11
-4.48821e-05
-4.1772e-11
6.20983e-06
4.80098e-10
2.53776e-05
1.06806e-05
-1.33929e-07
-3.05618e-10
-4.12808e-10
-1.83881e-07
-3.61306e-05
-7.36998e-05
-2.05412e-10
-4.40176e-09
-0.00023278
1.92334e-09
-1.55208e-10
3.98188e-08
-7.53819e-10
1.76111e-10
3.79405e-08
-2.73478e-09
4.13895e-06
4.13239e-06
-0.000403302
-2.38213e-10
6.99712e-06
-1.61869e-05
-4.94393e-06
7.99877e-06
-1.31948e-11
4.20403e-10
1.83656e-10
-0.000164344
-9.40341e-06
1.68561e-09
0.000178738
-1.11357e-05
1.78957e-10
1.91154e-09
-4.06898e-06
-1.05942e-05
-4.80653e-10
0.000486131
5.63812e-13
-1.51421e-05
3.03049e-07
0.000610697
-6.08566e-10
3.08025e-09
-3.13504e-06
-3.967e-06
-2.52273e-05
-4.99386e-06
5.40898e-06
4.46046e-10
3.70142e-10
3.43093e-09
-8.83221e-11
1.35761e-09
-3.87928e-05
-9.54071e-05
-2.92088e-09
1.01329e-09
9.07603e-08
5.63993e-06
-9.72234e-05
-3.50965e-10
-1.92031e-05
1.21239e-10
-4.41004e-05
-1.46518e-05
5.5569e-05
5.63763e-10
7.48688e-10
6.2011e-06
-0.000520831
-8.8111e-05
-8.14109e-05
1.61343e-07
-9.84348e-06
-1.03638e-05
-6.42919e-10
5.28733e-06
-4.39941e-10
1.09455e-09
-4.62261e-10
1.1863e-05
2.74995e-05
2.71831e-10
1.22447e-10
0.000321874
-8.79113e-11
-1.1837e-05
-1.45391e-10
5.76636e-10
-5.79572e-06
-1.99706e-05
-2.76498e-10
8.23094e-06
-1.4358e-06
-1.05289e-09
1.6305e-09
7.88805e-08
4.05852e-08
-3.95486e-08
-8.1811e-05
-5.34006e-10
1.38002e-06
5.8017e-05
3.72765e-06
-1.5011e-10
4.6635e-05
7.79771e-10
1.48413e-08
-1.18712e-09
-1.74622e-05
-0.000196238
-2.24938e-10
-2.05576e-06
0.000317671
-8.44868e-11
-1.58478e-09
-1.98278e-10
-0.000159523
0.000385332
-1.55092e-05
-9.68655e-10
1.30159e-05
0.00024608
-2.68507e-06
4.84059e-10
-1.95559e-05
2.69874e-05
8.4356e-09
-1.20431e-05
3.31753e-06
-0.000376287
-1.42376e-05
-0.000456457
6.81987e-11
7.12789e-05
2.78762e-05
0.000521536
7.59443e-05
6.2155e-05
8.63623e-11
-5.49027e-10
-1.30294e-05
-3.64336e-05
-8.98622e-10
-1.773e-09
0.000166242
-1.31303e-09
4.89483e-06
-2.76254e-05
0.000149556
7.09215e-05
3.95111e-10
-3.63337e-05