/*--------------------------------*- C++ -*----------------------------------*\
| =========                 |                                                 |
| \\      /  F ield         | OpenFOAM: The Open Source CFD Toolbox           |
|  \\    /   O peration     | Version:  v2012                                 |
|   \\  /    A nd           | Website:  www.openfoam.com                      |
|    \\/     M anipulation  |                                                 |
\*---------------------------------------------------------------------------*/
FoamFile
{
    version     2.0;
    format      ascii;
    class       volScalarField;
    location    "350";
    object      ddt0(k);
}
// * * * * * * * * * * * * * * * * * * * * * * * * * * * * * * * * * * * * * //

dimensions      [0 2 -3 0 0 0 0];


internalField   nonuniform List<scalar> 
14479
(
-5.19672e-08
6.6632e-08
-1.90254e-08
2.76036e-05
-1.09546e-05
4.02937e-05
7.25394e-08
2.28061e-10
-3.74806e-08
-0.000117244
2.2918e-05
2.84595e-05
1.7609e-05
1.33416e-05
1.44269e-05
-8.43403e-05
5.52459e-05
-1.61639e-05
0.000357317
-9.90441e-07
6.94504e-08
5.45831e-08
-8.30215e-05
1.43969e-05
-3.58663e-08
1.25609e-06
4.66222e-08
-0.000120334
0.000107395
1.55302e-05
-0.000269049
4.31782e-05
0.000365495
3.084e-09
-4.26075e-08
-5.69862e-09
5.71083e-08
-4.63002e-05
2.52593e-08
-1.0592e-05
1.54942e-05
3.27433e-08
-2.19149e-08
1.38186e-08
-0.000147676
-1.34701e-07
-7.66912e-07
-6.27007e-05
3.26352e-08
4.54096e-06
7.13258e-08
-0.000190545
-1.87084e-05
5.47128e-07
-4.12078e-08
1.05198e-08
4.30905e-07
7.95053e-06
-5.45867e-10
3.87447e-08
-5.42062e-09
3.31632e-08
9.49964e-05
2.50774e-06
-0.000576998
-0.000114935
-2.1034e-08
-2.61262e-09
0.000248527
-0.000531705
-0.000179831
-1.16831e-06
0.000109721
-1.83794e-05
1.1678e-08
-2.69485e-08
-0.000184075
1.5702e-05
0.000213576
-0.000180397
0.000158888
-2.29267e-09
-5.79694e-08
-1.19722e-06
-3.13474e-08
-3.21004e-07
-2.06601e-06
5.84722e-10
-0.000181974
-8.90249e-08
-0.00012017
-0.000105429
2.67916e-05
4.14475e-05
-1.0773e-08
0.00033418
7.65381e-09
-0.000130913
-3.39689e-08
6.3537e-05
-0.000278866
2.78042e-05
1.23109e-07
2.39616e-09
-3.88434e-08
7.60517e-09
-0.000777901
0.000127094
4.97481e-07
1.43536e-05
1.26627e-08
1.15311e-09
-0.000346561
6.60381e-07
5.86678e-08
-6.97331e-09
-2.14706e-08
0.000164127
-3.57919e-08
-1.54137e-06
-6.616e-08
5.10371e-08
4.24377e-05
-1.15636e-08
5.02817e-05
2.38769e-08
-8.28346e-09
3.99109e-08
-3.68121e-08
2.80745e-06
3.33027e-08
-0.000407771
3.93378e-05
4.53548e-08
-3.49907e-07
6.57522e-07
0.000334837
-9.49104e-09
-0.000232504
2.87214e-05
1.60538e-07
3.52142e-05
1.0652e-08
-0.000138152
9.45928e-07
3.98311e-08
0.000156444
-3.2543e-08
3.26379e-07
-6.63778e-08
0.000331489
-2.4946e-08
1.02044e-07
-1.21129e-05
4.04708e-05
-9.91671e-09
-0.00015624
8.03139e-08
-7.09995e-05
0.000223819
-0.00015148
0.000342149
0.000243871
-2.05352e-06
0.00014501
-7.40317e-05
4.16945e-09
-0.000328103
2.79602e-08
-4.82117e-08
-3.54176e-08
-1.87151e-07
1.62769e-08
-1.53312e-06
-1.16051e-08
1.27007e-05
3.39598e-08
-5.25221e-08
-6.19835e-05
-2.80706e-09
0.000483615
-1.38325e-08
-1.83341e-08
2.90038e-05
-1.8421e-08
2.58275e-07
-3.04068e-08
1.61564e-08
0.000531652
-0.000165218
6.24976e-10
0.000141962
-8.87505e-09
5.76478e-08
3.55211e-05
0.000231052
0.000322506
0.00017053
2.96874e-08
1.29339e-08
5.28366e-09
-0.000167971
-0.00132411
1.9536e-05
3.8362e-05
2.6565e-08
-1.21764e-08
-1.43692e-06
-4.21559e-08
3.50129e-07
8.87352e-05
3.2614e-05
-8.93083e-09
-4.02685e-09
-3.80921e-08
-3.62107e-08
2.76103e-05
-7.80088e-07
-1.09573e-08
-4.63918e-08
0.000325018
5.43866e-05
0.000174268
-9.54855e-08
-9.45552e-05
3.65644e-05
-6.78219e-09
1.6699e-08
-5.60493e-06
2.00946e-09
-1.99608e-08
2.48922e-07
3.64766e-08
1.00124e-05
-1.05615e-08
3.45438e-08
3.95723e-07
-5.76384e-05
-5.91962e-08
3.58207e-08
3.60314e-05
-1.63048e-07
2.20578e-08
7.24647e-06
3.32597e-05
9.87971e-05
6.39828e-09
-4.87593e-08
-0.000198395
-0.000172843
-2.15322e-09
-3.46989e-07
-1.89271e-09
2.65983e-08
-0.000176816
-6.66897e-06
2.5811e-08
5.39546e-05
3.70325e-06
8.40095e-06
0.000218898
0.000297824
3.66226e-05
-3.39623e-07
-1.43399e-07
5.44201e-08
1.17907e-08
0.00017323
2.92036e-05
0.000222634
0.000165432
2.05521e-08
-0.000124233
-2.69536e-08
-1.06902e-08
-4.80796e-05
0.000132018
-2.41038e-08
-4.13845e-05
0.00010118
-0.000129216
-5.98927e-05
-0.00013868
0.000194297
1.52008e-07
2.49742e-08
3.31217e-05
-1.14258e-08
7.95716e-05
3.88464e-05
-0.000330355
-6.14841e-05
5.84526e-07
3.83642e-05
1.37278e-09
2.26147e-07
-4.13195e-08
-1.14859e-06
1.92288e-08
9.574e-09
-2.05368e-08
3.97028e-05
-8.49375e-09
-1.51574e-07
5.80477e-08
2.97545e-06
-9.48252e-05
3.2724e-05
3.49483e-08
2.09829e-08
6.07907e-05
1.7656e-05
-6.58167e-06
2.1356e-08
2.26714e-08
-9.06396e-08
2.93562e-05
1.31582e-07
4.82758e-08
4.60172e-09
-9.13093e-09
8.82658e-08
-4.43304e-08
-0.000149808
-4.75999e-05
-0.000135492
0.000360015
5.96174e-05
5.51157e-06
-1.11784e-07
-1.37065e-08
-2.30883e-07
0.000164494
1.15961e-05
-7.31559e-05
-2.22675e-09
6.73044e-09
6.8227e-07
-1.92851e-05
1.49853e-07
0.000363848
-2.61386e-08
4.14266e-05
-6.41325e-09
3.21467e-05
1.94425e-08
-9.52365e-05
0.000145028
1.5827e-08
1.1846e-07
3.63764e-05
-6.17392e-05
2.91691e-10
4.44887e-08
-5.7709e-05
9.75042e-08
-3.91303e-08
5.03953e-05
1.81034e-09
3.66888e-08
5.16859e-09
6.03021e-05
3.95606e-05
5.55387e-09
-4.94086e-05
-3.27009e-08
3.97144e-06
9.5904e-06
-3.7822e-07
0.000216646
-1.52259e-06
0.000290198
-2.99279e-07
-0.000243516
-5.65071e-05
0.000232856
-9.08563e-07
1.95424e-06
0.000283522
-2.86628e-08
-1.02363e-07
-1.17534e-08
4.35418e-05
2.12826e-06
0.000266634
7.09523e-07
-3.32516e-08
-6.98597e-06
-3.02512e-08
-4.60765e-07
5.15125e-08
-1.07646e-07
-8.18279e-05
-3.52418e-07
-0.000899639
6.09213e-05
0.000132022
-8.96111e-05
-3.89224e-07
4.38132e-09
0.000302115
-0.000124061
2.78275e-05
-6.18041e-09
3.24028e-05
8.98099e-09
-2.78529e-07
3.80376e-05
1.02673e-05
9.15755e-09
-0.000103057
-0.000175191
-2.91836e-08
-3.64512e-08
0.000119319
1.95403e-08
-4.89007e-05
-2.26975e-05
2.59022e-09
5.32606e-09
-2.24598e-08
6.28653e-08
-0.00119367
-8.95958e-07
0.000360727
5.37626e-08
5.88582e-05
2.47464e-08
5.13561e-09
-0.000208176
0.000210499
8.30864e-07
1.76587e-07
8.80304e-09
4.59019e-08
0.000172886
-1.3525e-07
4.50382e-05
-0.000129339
9.97652e-07
-0.000130408
-8.71368e-05
2.70226e-05
8.01063e-08
5.14461e-07
3.9736e-08
-1.11371e-05
3.07972e-05
-6.89922e-09
-4.22878e-09
-5.72081e-08
4.67023e-05
-4.60195e-07
-1.82673e-07
2.42143e-08
-6.13392e-06
-2.1415e-08
-3.6609e-07
0.000148756
4.99015e-05
4.20382e-08
-2.25227e-09
-0.000245806
-1.72178e-05
-0.000994263
-6.75286e-07
-3.94706e-08
0.000114179
1.27571e-05
-2.41645e-08
1.16535e-09
-6.42273e-09
1.26199e-05
0.000217666
3.85612e-05
-5.50041e-05
4.75966e-05
2.21568e-06
-3.66927e-07
1.65773e-06
-3.04888e-08
9.23092e-05
-2.82285e-07
-5.25331e-05
3.20513e-08
1.79931e-06
-1.00296e-10
0.000237356
0.000331681
4.22396e-05
5.97655e-05
-8.21564e-09
9.47574e-09
4.4968e-05
-2.35526e-06
-7.0206e-08
9.46682e-08
3.13294e-05
-4.5614e-06
-9.76044e-08
2.8465e-08
-4.94538e-06
4.0406e-08
-7.46861e-09
2.56328e-05
-0.000165529
0.000320919
-1.04085e-07
-4.48032e-09
1.649e-05
4.62253e-08
-3.01896e-07
-1.88538e-08
-4.88452e-06
5.68661e-10
3.8588e-09
-1.45972e-08
2.36866e-08
-4.74706e-05
-2.40094e-06
-3.11133e-05
4.35374e-05
-0.000128048
3.54515e-05
2.316e-05
0.000168458
3.50446e-08
2.63581e-08
-0.000593815
1.62464e-05
-2.18448e-08
-4.29591e-07
-0.00137094
0.000131307
-1.45233e-07
-9.35464e-07
-8.1253e-06
1.52025e-05
-0.000261501
0.000286745
3.72981e-05
0.000179322
-2.8931e-08
-8.45855e-05
-1.12242e-08
1.34759e-08
0.000360255
-2.99611e-08
1.34505e-08
-2.47045e-08
-6.01732e-08
3.0132e-07
4.13762e-09
-4.18072e-08
0.000112241
-4.49904e-09
-0.000146846
4.54825e-06
3.29296e-05
4.05057e-06
5.254e-08
6.31452e-05
-5.85895e-07
1.71289e-05
-4.93237e-08
-3.7054e-06
-4.14162e-07
1.87874e-08
-6.50302e-09
2.90933e-08
-3.54852e-07
2.8984e-08
-5.01714e-05
0.000120336
5.46941e-08
3.45051e-05
-7.85728e-05
-3.60864e-09
2.54282e-08
7.77562e-08
2.68073e-05
2.94902e-08
1.27232e-07
3.1668e-08
0.000169868
-3.9807e-08
1.87291e-08
0.000154607
-3.78112e-06
-9.37795e-05
-1.77985e-05
-4.73324e-08
4.1475e-08
0.000275719
1.95591e-05
-0.0015856
4.54119e-09
-2.45812e-08
2.38291e-08
-1.92229e-08
0.000193826
-1.99786e-08
3.14604e-06
3.95511e-05
7.5008e-05
4.85529e-08
2.64779e-05
6.43311e-05
-1.88037e-08
2.71191e-07
-1.55505e-08
3.73502e-05
9.88593e-08
-1.23882e-08
2.32915e-08
4.1477e-08
-1.65276e-06
0.000430762
0.000264962
-3.9429e-09
1.10872e-08
-2.42064e-07
-1.11055e-08
-8.27564e-08
0.00019377
-5.19777e-05
1.2972e-09
-4.91285e-09
-1.51894e-08
0.000131293
-7.21853e-08
-7.57593e-08
-3.97808e-08
-7.70363e-06
9.84936e-08
2.36531e-08
-1.85945e-08
-0.000142027
0.000373783
-2.11996e-08
0.000292092
-1.49999e-05
3.40687e-08
-0.000426671
1.49493e-05
-4.22216e-08
4.73851e-08
3.37707e-08
-7.51547e-08
0.000150708
0.000114368
-2.06747e-06
-2.75491e-08
3.75045e-05
-0.000175936
0.000209933
0.000190862
1.08408e-07
-3.99964e-08
1.82266e-08
-5.81743e-05
-6.63163e-09
-6.55597e-08
0.000164293
6.0878e-05
1.03895e-08
3.97842e-08
0.000123798
0.000352893
-8.90796e-08
4.14822e-09
1.14519e-08
4.02634e-05
1.41115e-05
-0.000374524
2.10929e-05
0.000189468
2.84246e-09
2.95456e-05
-2.81987e-07
9.25434e-08
2.79632e-08
-0.000166716
-1.58269e-08
-0.000171564
4.71897e-09
0.000108221
-0.000134858
-2.16815e-07
-0.000863148
-8.49882e-09
9.20302e-08
0.000171956
-5.42207e-05
9.76811e-08
0.000359451
0.000208358
0.000323786
4.30499e-09
6.80741e-06
0.000116551
8.13836e-05
-3.09625e-05
-6.97269e-08
0.000224635
0.000364641
-4.44738e-06
0.000364743
2.96538e-08
0.000375163
-3.40544e-08
3.19199e-08
-0.000162178
-0.000179534
-0.000186046
1.01102e-07
7.94318e-09
-0.000180279
-7.04467e-06
-1.30124e-06
0.000807195
3.49799e-05
2.39482e-08
0.000186966
-0.00122037
-7.64274e-09
-0.000216992
-7.01063e-05
0.000306137
-3.14925e-09
-1.61073e-08
-1.52466e-05
3.69859e-08
-6.66229e-08
-2.48713e-08
-5.52368e-08
1.2304e-05
-1.85911e-05
2.58103e-08
6.03608e-09
-1.86498e-08
2.008e-08
-4.66716e-09
-5.37224e-08
-2.0831e-09
4.10124e-05
-0.000112106
1.54288e-05
4.76108e-05
3.30093e-05
-1.05295e-05
3.0405e-08
7.84166e-09
-4.42932e-08
4.24326e-05
3.16912e-05
1.38114e-08
1.04705e-05
1.30906e-07
3.75065e-08
4.54379e-05
4.22782e-07
-1.50953e-06
0.000121601
-1.91338e-08
0.000256838
-6.21071e-08
5.23216e-06
-0.000184984
-3.47284e-07
5.21825e-05
-7.72705e-05
-0.000104488
-9.35234e-08
-2.39607e-08
-3.2308e-05
4.04404e-05
3.43995e-05
-4.05052e-08
-0.000182769
0.000357392
-3.43458e-09
-5.62804e-05
-6.4155e-05
-2.48404e-08
9.24864e-08
1.51564e-05
-6.71396e-06
-1.0685e-08
0.000184196
1.21306e-07
-0.000283374
-3.45446e-05
-6.36466e-05
0.000316701
-0.000385354
1.38123e-05
1.77376e-05
-4.6812e-06
3.47377e-06
0.000318646
-1.33044e-05
-3.8733e-07
1.11463e-07
3.95178e-08
9.67636e-06
-0.00114269
-1.30487e-08
-0.000130288
-2.36145e-05
1.39204e-05
0.000361037
-2.48398e-08
5.74399e-08
3.79078e-05
1.31025e-05
-0.000134427
7.36324e-07
-5.86638e-08
-0.000220851
3.13062e-08
3.73667e-05
-1.15533e-08
-0.000148108
5.33855e-07
-8.46751e-05
-1.12634e-06
-2.46656e-08
1.42702e-07
6.11599e-08
-1.92024e-07
0.000366463
-1.32204e-05
0.000371107
4.78123e-05
2.46829e-07
4.91312e-05
1.89287e-08
0.000106171
0.000327207
-0.00016175
1.61034e-08
7.29847e-10
1.4741e-07
-4.89521e-05
-8.07361e-08
0.000337636
-6.75226e-05
-6.19334e-09
1.21477e-07
-0.00103092
-8.97335e-07
0.000318188
-1.25986e-06
1.66948e-05
7.64093e-09
-3.58551e-05
2.14586e-08
1.35074e-08
1.29246e-07
-5.07386e-09
7.41561e-09
2.04514e-08
-0.000186817
-4.75684e-08
8.52101e-05
8.44969e-08
-3.46014e-09
-6.62016e-08
2.49686e-08
-9.6805e-08
7.7993e-07
-0.000313914
1.83218e-05
4.84611e-06
-0.000416805
1.48946e-07
0.00030507
0.000115905
0.000172176
-9.90712e-05
3.38086e-05
2.1809e-05
4.44496e-08
-9.82018e-09
-4.41566e-09
-1.43971e-08
-9.10556e-06
-6.63562e-07
5.67462e-08
-2.67595e-07
-4.24185e-08
7.46232e-06
6.44277e-05
-4.32428e-09
-5.57685e-10
-2.06825e-07
-0.000118483
0.000100016
-7.29013e-08
1.46864e-05
3.7072e-09
-2.60859e-07
-9.14012e-09
-5.35448e-08
-2.48833e-08
1.31989e-08
8.22535e-07
-0.00150597
0.000162248
-3.35139e-05
-0.000993998
-3.91016e-08
-6.98866e-05
1.58525e-05
2.08627e-08
8.92384e-08
0.000378497
0.000291949
5.29256e-06
1.64084e-08
0.000229466
-8.73885e-05
-0.000111983
4.96096e-09
4.5185e-08
0.000154147
-2.20685e-05
2.36292e-05
2.78392e-08
7.89771e-05
-8.22883e-05
-2.53559e-07
8.23724e-09
0.000161336
0.000111866
-0.00117651
-0.00028215
0.000104676
0.000704803
-4.51338e-09
-0.000139764
2.45669e-09
2.51253e-08
3.36777e-09
2.53892e-08
0.000232832
-3.03108e-05
3.05275e-05
2.79203e-08
-0.000416031
3.43321e-08
0.000148865
0.000285746
1.66702e-07
-7.75598e-09
2.12444e-07
-1.20614e-05
-1.37211e-08
-2.05159e-08
-2.43959e-08
-0.000486068
5.7903e-09
1.18791e-10
-0.000161556
-4.27369e-05
-0.000584923
-6.79315e-08
5.50457e-11
2.85812e-08
-0.000155662
6.29866e-06
-0.000157875
-9.09997e-10
-1.99943e-05
0.000103117
3.52837e-08
2.67877e-09
7.12058e-09
-3.3618e-05
-1.35586e-07
4.23414e-05
2.03679e-08
1.46859e-05
-1.48223e-06
-7.41211e-08
0.000124992
-6.79873e-07
-1.67468e-07
-2.18532e-05
1.55501e-08
-5.82264e-09
-0.000127783
-0.000101582
-1.85848e-09
-0.000255455
1.86986e-08
2.28438e-08
-3.28955e-08
2.3346e-08
-2.60849e-05
2.23141e-09
0.000178823
-1.01346e-07
-0.000155964
-4.73001e-08
-2.63684e-07
-0.000160443
2.52772e-08
3.29289e-09
0.000166871
6.99365e-05
3.5339e-06
0.000159836
3.97032e-07
-0.000182014
4.49975e-08
6.93281e-08
0.000194234
1.58291e-05
5.99993e-09
-1.14602e-08
-0.000133274
-4.28848e-08
6.73009e-05
-0.00031261
3.56107e-07
1.28155e-06
-2.23153e-06
-0.000113982
0.000248936
-3.64842e-08
-1.53169e-07
2.92474e-07
-8.90131e-08
5.65323e-08
-4.24774e-07
-0.00188261
-6.04155e-08
-1.01401e-07
3.2399e-08
2.55076e-05
-0.000281022
-6.74625e-05
-2.62546e-05
-9.54515e-05
1.99994e-08
1.51583e-06
-1.47507e-08
-0.000292732
-4.14868e-05
4.84202e-08
1.31513e-05
9.59103e-05
3.68677e-07
0.000112078
-9.28555e-07
2.78712e-05
-3.83807e-05
-4.09712e-09
-8.4321e-06
-3.56884e-08
-1.94502e-08
-1.86502e-08
4.17728e-08
0.000352621
0.000226461
3.73067e-05
1.50028e-05
5.67853e-05
-7.66193e-05
6.99192e-05
-0.000115199
2.56172e-07
6.92186e-08
0.000332942
0.000166919
0.000445558
2.79024e-08
-6.30173e-08
0.000185195
2.01985e-08
5.18e-07
-2.04541e-08
-7.54262e-07
-3.32808e-08
5.65644e-05
3.49061e-08
-4.13848e-06
8.83201e-09
-2.42381e-05
-2.71137e-05
0.000113686
2.70906e-07
1.77826e-08
1.5057e-07
-0.000495945
-1.02205e-08
3.27327e-07
4.07123e-08
1.04676e-05
0.000176906
2.28719e-08
-4.00583e-08
-6.06131e-08
2.20543e-06
-7.36004e-08
1.22964e-07
-0.000171148
-0.00135589
1.58837e-05
1.45447e-08
0.000305473
2.34038e-08
-1.12248e-09
-8.51221e-08
8.43968e-06
4.1186e-07
-3.01614e-08
0.000133021
1.95189e-05
6.61074e-05
-0.000596123
2.16771e-08
-4.34487e-09
-0.000374537
0.000117201
-1.10413e-06
6.67881e-05
-2.13012e-07
-3.72861e-07
4.31309e-08
-1.67297e-05
-4.73379e-08
0.000166012
-4.69469e-06
-3.21884e-08
7.98719e-05
0.00038715
9.32972e-05
-6.3325e-10
-3.25232e-08
0.000539238
3.43214e-08
8.43349e-05
6.60199e-05
2.07893e-06
1.81301e-08
-1.68005e-08
-3.84008e-08
-7.50642e-05
4.24673e-08
9.66823e-09
0.000148792
1.1684e-07
-0.000172121
-3.42731e-09
-2.21265e-08
0.000332878
-0.000168756
0.000243929
-9.12584e-07
-5.14842e-05
-1.07342e-08
6.0011e-08
-4.15282e-08
7.50096e-09
3.75695e-09
-0.000501525
-0.000149783
-3.79911e-08
1.3807e-08
-1.33775e-07
-0.000137896
2.07687e-07
1.02277e-08
1.59199e-05
1.24863e-05
0.000108327
7.18465e-09
-2.19945e-08
-4.86998e-08
0.000283325
-0.000285467
0.00017225
-0.000136436
-0.000253892
-1.19574e-06
-7.37586e-09
-4.76101e-08
7.48015e-08
0.000302654
-0.000146037
2.37948e-05
-5.5102e-08
9.29405e-09
1.33582e-09
-2.9902e-08
-1.37089e-08
-3.2261e-08
-5.21876e-08
-1.0547e-05
-0.000119228
1.59234e-06
-8.46275e-06
3.31258e-05
2.06023e-08
-2.21922e-08
-7.85079e-05
-9.72121e-09
-2.45206e-08
-3.17357e-05
5.88108e-09
2.22236e-08
-1.97565e-08
4.30166e-05
-7.94966e-08
3.55371e-05
-4.55531e-06
-1.71705e-08
-3.49189e-08
-0.000120358
-9.41347e-05
6.40067e-05
2.80782e-08
-1.5909e-08
4.28514e-05
5.65361e-08
1.1314e-08
0.000165509
5.15699e-08
-7.50271e-05
-2.43651e-05
5.44711e-05
-1.17947e-07
6.89247e-05
7.59504e-09
-1.64177e-08
-5.90321e-05
0.000113435
2.94204e-09
1.17687e-05
-4.1411e-07
-1.14274e-08
0.000304668
-2.76028e-08
-5.67248e-08
1.47707e-05
-6.41811e-05
9.23665e-05
-0.000143427
1.373e-08
3.39305e-07
-5.25724e-05
-7.22602e-05
0.000176189
3.75269e-08
1.92875e-08
4.27163e-07
-6.39221e-08
-4.68833e-08
1.64037e-08
1.89147e-08
-1.86406e-06
2.3496e-08
2.21907e-08
1.53926e-05
-0.000197783
0.000141673
2.86861e-05
6.63046e-09
3.08656e-08
0.000237231
1.18801e-07
-2.92897e-05
2.98294e-07
4.47797e-05
0.000192452
-9.09447e-09
-2.85639e-08
0.000217124
-9.18097e-05
2.79316e-09
-6.84678e-05
-0.000108116
-1.12239e-05
-4.20178e-09
3.90594e-08
1.60782e-08
0.000155478
-4.7703e-06
-0.000160106
-0.000150814
5.3097e-08
-9.06955e-10
0.000183109
-1.69445e-06
4.55139e-05
-2.96951e-05
5.89773e-08
2.38977e-05
-8.09776e-07
-2.16968e-09
-7.783e-05
3.56869e-08
3.26259e-06
3.05524e-09
-9.11423e-08
1.25809e-07
-4.39391e-08
3.13692e-08
1.26254e-05
0.000200524
0.000176768
1.91324e-07
-5.07515e-09
1.80774e-08
-2.91113e-08
7.54835e-05
9.64976e-09
-1.14251e-08
2.36569e-08
-0.000153346
-3.18252e-08
-7.70764e-05
-2.55942e-07
-1.04059e-07
6.83337e-05
5.44e-05
0.000154506
9.27385e-05
1.23212e-05
1.72879e-08
-1.10717e-08
8.2072e-05
2.06749e-08
0.000352559
-0.00018659
1.465e-08
-1.50035e-08
6.41458e-08
4.22863e-08
-0.00015492
-7.49324e-05
-0.000182994
-3.01352e-08
-2.98662e-07
-5.82132e-08
3.27081e-05
5.05612e-08
-1.59003e-08
0.000287703
3.08398e-09
6.43079e-05
-1.76612e-05
-4.86745e-05
3.54203e-05
0.000187691
5.70111e-08
2.36462e-09
0.000265639
8.43694e-08
0.000389559
1.99539e-09
-3.3911e-05
6.78306e-08
0.000200498
-0.000121488
6.49418e-07
3.695e-05
5.18733e-05
0.000110828
6.85308e-09
0.000268274
3.08201e-05
4.5554e-05
-8.44499e-08
-1.0467e-09
1.48819e-07
7.75577e-06
-0.000117523
1.66593e-05
2.67827e-08
-0.0001784
1.85228e-08
2.81414e-08
0.000103223
2.69544e-08
5.80253e-08
1.25948e-05
-1.86028e-05
-0.00012396
1.62302e-07
-3.50571e-05
1.23012e-07
2.09482e-05
8.76722e-08
-1.32896e-08
9.58562e-09
-8.99168e-05
1.49504e-07
-4.50199e-05
-0.000186742
7.35017e-07
1.77258e-08
-0.000138696
4.28438e-05
-1.12904e-07
6.70225e-08
3.03583e-05
0.000207557
1.80821e-08
-2.19378e-08
0.00013437
9.93406e-05
4.44076e-07
-0.000188048
-7.58755e-06
1.32528e-09
3.69351e-05
1.51665e-05
9.0413e-05
0.000267637
3.26478e-05
0.000329249
0.000153008
3.71692e-08
-0.00022963
4.14858e-05
-2.4053e-07
8.1406e-05
-7.10112e-10
0.000344602
5.09274e-06
-0.000163776
-6.9403e-09
-3.34567e-08
1.38044e-07
-6.28308e-08
-1.29014e-05
-8.57484e-08
-0.000328587
-6.28279e-08
-2.60194e-05
2.88895e-05
-4.27409e-08
-1.35464e-08
-2.33576e-08
1.2683e-08
1.04881e-07
-4.02524e-05
-4.01495e-05
4.48233e-08
6.86266e-09
-4.20618e-08
-0.000579384
-9.15824e-05
-0.000301758
-4.10395e-06
3.22155e-08
-4.10554e-09
-0.000174887
-5.75608e-05
0.000167103
6.3148e-05
4.37348e-08
-0.00040788
6.54279e-05
0.000186415
-9.41579e-10
2.62102e-08
-5.50468e-09
-3.97374e-08
2.14994e-05
5.82298e-08
3.58289e-07
4.0469e-08
7.17602e-08
4.57301e-09
-0.000134487
-3.97974e-08
-9.42145e-05
2.22927e-08
1.84187e-08
-0.000185257
3.51991e-08
3.1529e-05
6.16986e-05
-3.95836e-07
-0.000159874
5.54528e-08
-8.61707e-05
8.15651e-05
6.38167e-05
0.000179739
3.84849e-05
0.000115718
-6.10217e-07
1.37182e-05
6.31747e-07
-0.000178355
-6.97298e-07
-0.000615433
-2.16272e-06
-1.05918e-06
3.9148e-05
-0.000108841
0.000137762
4.21914e-07
4.0908e-05
-0.000342437
-0.000255833
3.55036e-05
-0.000147717
3.54113e-05
-3.44379e-08
0.000240789
3.2097e-08
-0.000158894
0.000110158
7.66416e-08
8.92995e-05
-9.4281e-05
-4.53655e-09
-0.000366597
-3.17995e-08
-3.27554e-06
4.23248e-05
-1.87767e-08
-0.000121138
-0.000206666
-4.37737e-05
0.000145518
1.75044e-08
5.58419e-06
-9.0539e-07
-1.62476e-08
-7.58235e-05
-1.2546e-06
2.36071e-08
-0.000180001
-0.000469395
1.86549e-05
-0.000127595
6.12505e-06
-0.000143953
-0.000136272
1.94802e-06
0.000309005
4.09312e-05
2.93589e-08
-8.94438e-09
-1.36184e-08
3.00621e-05
6.95132e-05
6.06139e-10
3.6536e-05
-1.27426e-08
0.000204558
2.61644e-05
0.000186671
0.000186978
-7.21077e-09
1.51348e-05
-1.05575e-07
-0.000252462
-0.000341106
-9.04217e-05
3.80291e-08
0.00018797
-4.01669e-08
-2.89973e-06
2.00293e-05
6.21649e-05
0.000177458
4.76546e-07
2.3926e-07
-0.000147198
0.00016013
0.00043473
7.13661e-08
2.34574e-08
4.40391e-05
-6.87498e-08
1.67618e-08
1.6871e-08
-3.33997e-08
-0.000157987
0.00033355
2.40184e-08
3.91647e-05
-0.000164414
1.1769e-07
1.51926e-08
4.3034e-08
-2.8699e-06
-7.14068e-09
-1.22528e-08
-1.95008e-08
0.000181949
-7.97183e-05
-5.58091e-06
1.9303e-08
7.87074e-05
-7.17639e-05
-0.000540557
-7.26261e-08
-5.62638e-09
4.42229e-08
1.32189e-05
-5.27387e-06
-9.3668e-05
-2.59634e-05
8.82284e-08
0.000103929
7.14214e-08
6.21434e-08
-3.33575e-08
6.37493e-07
2.29495e-07
5.15129e-05
-9.36951e-05
-1.23318e-08
-2.67876e-05
-1.30676e-07
-5.25175e-07
-5.50229e-06
-3.03632e-08
4.70741e-08
-3.37524e-05
5.87223e-08
2.19393e-10
3.37091e-05
0.000254966
-2.34974e-07
6.60273e-06
9.41188e-08
1.42929e-06
4.05926e-06
-9.44151e-05
1.09426e-05
-1.4356e-08
0.000333946
7.90479e-09
3.74975e-09
-5.00234e-05
0.000113424
-6.31648e-08
0.000179907
-0.000524091
6.83831e-07
8.5725e-09
-2.33745e-05
4.92001e-06
1.62587e-06
1.79503e-05
5.43799e-05
-4.14237e-08
5.4755e-05
6.80186e-08
5.56167e-06
-0.000259383
2.29187e-08
-2.22016e-06
2.8157e-08
-1.61359e-10
-1.28794e-08
-6.03902e-08
-0.000332089
-0.000101771
2.23321e-09
2.97329e-06
-0.000334039
3.32359e-08
9.75304e-10
6.15307e-05
5.05546e-10
3.93506e-06
-0.000284606
1.18463e-08
-1.73896e-07
-4.14895e-08
7.8203e-05
1.90517e-08
-2.77e-07
-4.25227e-08
-0.0015074
-0.000288733
0.000170023
-2.74354e-08
-0.00011074
-6.59571e-05
3.62776e-05
5.93112e-09
-0.000457829
2.0876e-06
-0.000150967
-2.01078e-08
-1.30123e-05
3.58844e-05
5.25141e-05
8.84336e-07
-4.42885e-08
3.81194e-09
-9.54306e-07
-4.12639e-05
3.09202e-11
7.80641e-06
-7.12916e-09
2.24343e-05
-2.75922e-08
0.000120739
5.10086e-05
-5.25409e-09
4.15893e-09
-0.000169266
-0.000455212
4.00884e-05
-3.7458e-05
-6.92584e-05
-3.19846e-05
-8.77988e-05
4.62564e-07
-1.87261e-09
-1.26442e-08
5.11701e-08
0.000315198
-8.24199e-05
-2.43687e-07
3.39153e-09
-0.000325238
0.000131947
2.54002e-05
3.24325e-05
0.000179554
2.30062e-08
2.23729e-08
-2.77608e-08
3.64559e-07
5.72589e-05
5.64953e-08
-0.000172679
-2.71485e-08
1.77215e-05
-8.82639e-05
1.20643e-08
0.000162691
-0.00133235
1.54544e-05
3.85903e-05
-6.11729e-08
2.88765e-06
1.14565e-08
-7.9381e-08
4.68714e-07
0.000135545
-5.6753e-06
-6.17094e-06
-5.01212e-08
-2.96566e-09
3.70733e-08
-0.000275812
-5.34678e-05
-2.30223e-05
2.69479e-08
4.68809e-09
-4.63383e-09
0.00027169
0.000234305
-1.94348e-08
9.43266e-08
-6.35191e-05
-0.000597843
7.52901e-07
-0.000105451
1.71869e-05
3.71204e-08
0.00021156
2.03606e-06
-9.82728e-09
-1.00818e-08
6.50584e-09
3.70037e-08
-5.35891e-06
2.48954e-08
-3.88519e-08
-1.33939e-08
-7.03769e-07
1.79828e-08
3.11683e-08
1.38589e-05
-9.8703e-09
7.62273e-05
0.000275513
2.46525e-08
-0.000342393
7.41155e-05
-3.5995e-05
-5.34444e-08
2.64636e-05
4.8443e-05
0.000114839
-0.000222231
3.65576e-09
-1.57397e-06
2.40833e-06
-2.92051e-08
-7.53636e-07
4.16624e-08
-2.69226e-05
3.16421e-07
-3.87623e-08
1.13661e-07
-0.000207178
9.12351e-05
-5.42657e-07
1.76236e-08
-0.000128337
4.26975e-08
0.00015857
3.31108e-05
-1.41507e-05
-0.000108364
-3.59468e-08
4.47586e-09
-5.50484e-08
-8.56511e-05
-1.63297e-08
6.47169e-08
1.31093e-07
-0.00013288
0.000333297
7.19426e-05
3.64876e-08
-0.000140921
-0.000241894
-5.29008e-09
3.37581e-06
-7.9381e-06
-1.84133e-05
-6.08064e-05
4.77181e-08
5.85798e-09
-0.00163871
1.99396e-05
6.37748e-06
3.39218e-05
-5.78263e-05
-2.21296e-08
0.000178841
0.000156774
-0.000324539
-7.45106e-05
2.69878e-08
2.46268e-08
4.42268e-08
-7.24993e-08
-4.89279e-08
3.15306e-06
3.75443e-07
2.22547e-08
-1.218e-07
0.000263151
-2.96013e-05
-4.81813e-06
-0.000185385
6.3322e-08
5.82848e-06
0.000271382
-3.16007e-08
0.000225258
4.69391e-05
2.08925e-05
1.34001e-07
-6.66439e-05
-3.47968e-08
-1.18279e-07
0.00011912
5.4774e-05
3.35302e-05
5.23423e-07
4.5589e-05
0.000309305
-8.50612e-05
-4.9019e-08
0.000132358
-0.000261265
-9.84964e-05
-0.00024772
-1.38859e-08
-0.000276227
-2.62224e-08
-6.92855e-09
-1.41131e-08
-1.30777e-06
-2.37829e-08
2.86526e-08
-5.71448e-07
-5.16468e-05
-1.4227e-08
0.000246699
2.69101e-08
2.11151e-08
8.77053e-09
-2.08952e-08
0.000257133
8.36096e-08
1.89815e-05
-0.000187298
7.49821e-07
7.21061e-09
1.6082e-05
6.5355e-05
-2.01314e-08
7.96098e-08
-8.37688e-08
-5.74113e-08
6.07588e-05
-0.000364591
-0.00014971
-0.000149246
0.000270052
3.88414e-08
-9.14792e-05
1.02774e-08
4.63475e-08
-0.000154172
1.69492e-05
1.75832e-08
-1.88357e-05
3.95071e-07
8.27324e-08
-4.1925e-06
4.05595e-08
-0.00029856
1.14706e-08
8.69492e-05
5.95341e-05
-8.01349e-10
-0.000126647
4.95506e-08
2.61632e-08
-0.00015816
-4.69061e-08
1.15727e-05
4.16104e-05
-0.000144936
3.71479e-08
-1.52975e-07
9.30073e-06
-8.92633e-09
-9.17581e-09
-0.000286089
1.08086e-07
-2.15455e-11
-2.64383e-08
1.47286e-07
2.14541e-05
-0.000765375
-1.55829e-08
6.14402e-08
5.43737e-05
-0.000549052
1.08956e-07
0.000157671
-4.04307e-08
4.22531e-09
1.16524e-07
6.68598e-08
3.56223e-08
-7.99174e-09
6.08785e-06
-1.03681e-06
0.000358688
3.26741e-05
-9.28007e-05
-0.000122398
-2.32658e-08
3.38788e-08
-2.47058e-08
-1.51099e-08
-0.000146829
-0.000129007
0.000117435
8.11274e-09
2.10914e-05
1.43758e-08
-3.56891e-06
1.85901e-05
3.98251e-05
4.00743e-06
7.9275e-07
-0.000110676
-0.000238336
5.26453e-08
-7.01331e-09
1.68271e-05
3.01947e-08
7.16499e-10
-2.5021e-08
-3.97034e-05
-0.000366617
-7.94926e-07
-0.000151181
8.66342e-08
0.000112203
2.69042e-06
-9.49791e-05
3.49494e-05
-0.00126951
1.28201e-08
1.35569e-07
0.000360353
1.03939e-07
-5.4261e-06
2.20979e-06
4.4431e-08
8.0586e-06
3.47604e-09
-9.27165e-05
-0.00109856
-5.92604e-05
-2.34861e-08
-4.06415e-08
-0.000189401
2.42754e-07
1.01145e-05
-8.0179e-09
7.80951e-05
-0.000144564
7.22712e-05
0.000140228
-0.000118548
-9.23315e-09
-2.19051e-07
-0.000186837
9.82665e-05
-4.01449e-08
-0.000768914
1.80131e-08
5.63578e-05
3.97639e-05
0.000306859
-0.000178959
4.27021e-08
-6.82675e-10
2.58156e-07
1.48111e-06
-8.1581e-10
6.61261e-05
2.70462e-08
1.19475e-05
-5.92792e-05
3.68591e-08
2.19163e-07
9.8914e-07
8.12342e-09
5.70708e-08
0.000347906
2.51849e-05
8.27996e-08
7.07412e-09
5.98841e-05
3.1064e-08
-4.99348e-08
6.91139e-09
4.1674e-05
4.66988e-05
3.84068e-05
4.05356e-08
9.41165e-05
-2.77607e-08
9.83656e-05
-2.38111e-06
8.52181e-10
-2.37946e-07
-1.4438e-08
0.0001119
5.71429e-08
3.18529e-07
-0.000282217
-4.67107e-08
-0.000177354
-2.1222e-08
4.79007e-08
-8.91977e-08
-4.68063e-08
5.72486e-08
-7.94068e-08
-0.00023563
-8.60858e-05
-0.000473026
1.20973e-08
-1.55591e-06
-7.64632e-05
-0.000205756
3.82198e-05
-0.000169918
-5.0488e-09
0.000343922
-9.61234e-07
-0.00193085
2.05907e-08
-0.00147307
4.23855e-08
-1.71712e-06
3.18405e-09
1.85595e-05
-2.58023e-08
1.47185e-05
9.74287e-05
3.29841e-10
-1.68788e-05
3.93291e-05
-3.62998e-07
-3.1028e-07
-4.83891e-09
0.000220881
-3.68237e-08
0.000201334
-2.86543e-08
-6.10317e-08
1.01592e-05
9.03606e-05
-0.000184662
-1.39892e-08
1.26854e-08
0.000372349
-4.87735e-09
-3.51095e-08
-0.000165219
0.000285657
4.23123e-05
-1.50185e-08
1.7901e-08
1.20405e-08
0.000181171
5.2706e-08
-9.16203e-09
0.000184961
-4.57036e-05
6.62512e-08
-0.000136074
1.9748e-05
-4.00933e-08
-4.56715e-08
-1.75534e-09
4.41449e-05
1.59492e-08
7.62089e-09
9.42217e-11
3.84025e-06
-4.95329e-10
2.05021e-08
7.6163e-09
-0.000217828
-1.56966e-08
2.27858e-08
1.16046e-07
1.63796e-06
5.6614e-08
1.23427e-05
0.000168092
1.42166e-08
-2.9402e-09
-2.24096e-06
-3.57983e-06
4.56458e-07
7.8445e-05
6.20365e-06
-1.26781e-08
1.40534e-06
-1.33583e-08
0.00032373
1.06932e-05
-9.21951e-05
-2.07782e-08
9.49422e-05
4.25215e-08
8.34895e-09
1.16172e-07
1.09166e-07
2.97007e-09
-0.000149498
6.90277e-08
8.9098e-08
4.62324e-07
0.000221569
2.767e-08
-4.08151e-07
-0.000177617
-4.11145e-09
-0.000272376
1.95587e-10
5.42421e-05
5.88819e-09
0.000432548
0.000127312
-3.05248e-06
-9.48138e-09
-5.6604e-08
4.21616e-05
-8.91177e-05
0.000191966
-2.43203e-09
-1.90512e-07
-0.000156217
5.73228e-08
-1.64262e-08
4.84666e-06
-2.11176e-08
-2.10226e-08
1.32674e-06
-7.65526e-08
3.16987e-05
0.000180145
-0.000243839
8.40697e-09
4.29084e-05
-0.000181849
8.96995e-05
4.05271e-05
-5.63612e-08
3.49507e-08
-6.14393e-10
-0.000217793
0.000153868
1.04753e-07
0.000263458
-4.02308e-05
7.45336e-09
6.21201e-08
2.59506e-05
-4.03038e-05
-2.89506e-08
0.000316335
-1.90111e-09
6.83853e-06
1.86794e-06
0.00012705
-2.31854e-08
9.90759e-08
-0.000127029
-8.84408e-05
-0.000165765
1.13231e-05
2.39402e-05
3.77444e-08
1.64137e-08
1.14905e-07
-2.9078e-09
5.56789e-08
-9.49206e-05
6.07916e-05
-5.06287e-08
6.51326e-08
2.38336e-06
1.37395e-05
-0.000360105
-8.66989e-09
-0.000185738
5.97602e-08
0.000153504
-0.000221662
9.09405e-05
3.46193e-08
4.00293e-08
4.1597e-05
-0.000252141
0.000314584
-0.000134283
4.44124e-06
-3.20284e-05
-0.000728979
-4.55823e-08
2.67718e-05
-2.54322e-08
2.64703e-08
-1.67173e-08
-1.69233e-05
9.91282e-05
1.76521e-08
-1.78178e-09
0.000340711
1.07785e-08
7.2173e-05
-2.93395e-09
1.75496e-08
-0.000421464
-9.95523e-06
-2.46779e-08
2.25865e-05
0.000166195
-5.22298e-08
5.89104e-08
-2.13809e-06
6.82814e-07
-1.22302e-06
-0.000215217
-6.34996e-08
-8.1264e-05
8.60091e-05
4.71936e-05
-5.56403e-08
0.000115233
6.29647e-08
4.30989e-07
3.63327e-08
5.54736e-05
-0.00063593
-3.1412e-08
7.3521e-05
0.000264578
2.82761e-08
-7.22722e-08
-1.13788e-08
7.89848e-05
0.000318839
-0.000112434
-3.71684e-09
0.000126055
0.000289932
-7.27328e-05
4.19508e-09
1.05531e-05
-3.72381e-05
2.40629e-07
-7.83509e-05
-8.28968e-05
-0.000345224
-8.50161e-05
-0.00127058
-3.88472e-08
0.000119647
3.05402e-05
0.000337295
0.00011301
0.000108434
-4.37191e-08
-2.0278e-08
-8.38343e-05
0.00015464
-1.72311e-08
-1.09062e-07
9.8979e-05
-8.70384e-08
3.96342e-05
5.16309e-05
-0.000106744
0.000154211
1.86371e-08
-0.000180613
0.000324782
-4.48036e-08
6.09637e-09
-1.09741e-07
2.51547e-06
4.41567e-05
0.000169755
2.28407e-05