/*--------------------------------*- C++ -*----------------------------------*\
| =========                 |                                                 |
| \\      /  F ield         | OpenFOAM: The Open Source CFD Toolbox           |
|  \\    /   O peration     | Version:  v2012                                 |
|   \\  /    A nd           | Website:  www.openfoam.com                      |
|    \\/     M anipulation  |                                                 |
\*---------------------------------------------------------------------------*/
FoamFile
{
    version     2.0;
    format      ascii;
    class       volScalarField;
    location    "350";
    object      epsilon;
}
// * * * * * * * * * * * * * * * * * * * * * * * * * * * * * * * * * * * * * //

dimensions      [0 2 -3 0 0 0 0];


internalField   nonuniform List<scalar> 
14479
(
2.56851e-06
2.60362e-06
2.20253e-06
0.00259424
2.39331e-05
0.00296156
4.07349e-06
2.24832e-06
2.44186e-06
0.00454521
1.00573e-05
0.00252358
0.00258639
0.00331936
0.00270458
0.0244112
0.000605405
0.0203311
0.0224699
3.31659e-06
2.87623e-06
2.33365e-06
0.0216267
1.76946e-05
2.43164e-06
4.71771e-06
3.68709e-06
0.00457809
0.00273754
0.00290351
0.0504067
0.0026096
0.0207723
2.23308e-06
1.97914e-06
1.7398e-06
3.22538e-06
0.0127599
2.22928e-06
2.8758e-05
0.00295158
2.23201e-06
2.46975e-06
2.05877e-06
0.0454406
3.22142e-06
0.00507091
0.00608714
2.09097e-06
6.52436e-06
2.74901e-06
0.0297728
3.64198e-05
5.85751e-06
2.08642e-06
2.74033e-06
4.543e-06
0.00426527
1.73132e-06
5.24382e-06
2.21732e-06
2.05083e-06
0.000165032
7.45136e-06
0.00138347
0.00318489
2.1311e-06
2.44309e-06
0.046832
0.0329805
0.00351406
3.73162e-06
0.00806257
0.0504802
2.9094e-06
2.46452e-06
0.00348001
0.00240879
0.0150393
0.00352954
0.0738112
3.60487e-06
2.0056e-06
3.70198e-06
1.74304e-06
3.03326e-06
5.18905e-06
2.9569e-06
0.00351666
2.65527e-06
0.00374296
0.00318419
0.00427551
0.0051883
1.95923e-06
0.0201271
1.85188e-06
0.00362525
1.96815e-06
0.0061175
0.0480276
0.00448871
5.26534e-06
2.54891e-06
1.97866e-06
1.80371e-06
0.00236895
0.00889404
4.97587e-06
0.00274365
2.01318e-06
2.05675e-06
0.0273015
6.09011e-06
3.60519e-06
2.41485e-06
2.47118e-06
0.000113222
2.47086e-06
4.20739e-06
1.98456e-06
3.27045e-06
0.00259709
2.2094e-06
0.00378558
1.8203e-06
1.90167e-06
2.76258e-06
1.78701e-06
0.00415467
1.82281e-06
0.00236887
0.0594745
1.84346e-06
3.25415e-06
6.00246e-06
0.000170557
2.61228e-06
0.0296546
0.00262605
2.00993e-06
0.00364022
2.05593e-06
0.000240732
6.48331e-06
1.73477e-06
0.00800661
2.21975e-06
2.4459e-06
2.28968e-06
0.0191522
2.19552e-06
2.84679e-06
3.28148e-05
0.000301798
1.96833e-06
0.00435335
4.10992e-06
0.0215432
0.0161901
0.00445273
0.0344882
0.0168272
4.96174e-06
0.00666656
0.00504257
1.70217e-06
0.0310852
2.77064e-06
1.85853e-06
1.81217e-06
2.97651e-06
2.75795e-06
4.15516e-06
2.80062e-06
3.0041e-05
3.03027e-06
1.84477e-06
8.44041e-06
2.45665e-06
0.000483452
2.93981e-06
2.4822e-06
0.00367431
3.11926e-06
4.37002e-06
2.46073e-06
2.41363e-06
0.000103613
0.00017971
3.21061e-06
0.00811646
2.01523e-06
4.11855e-06
0.00353
0.0156774
0.000110857
0.012785
2.1947e-06
2.81061e-06
2.41959e-06
0.000952415
0.0260536
4.09999e-05
0.00311387
2.42976e-06
2.63163e-06
4.22131e-06
1.83254e-06
4.9228e-06
0.00574572
0.0073362
2.45911e-06
2.44068e-06
2.69287e-06
6.45458e-06
0.00622021
0.0020158
3.26753e-06
2.45028e-06
7.70711e-05
0.00345848
0.00963126
2.04068e-06
0.00725758
0.00264361
2.29548e-06
2.0733e-06
5.13714e-06
2.97913e-06
2.50686e-06
3.94083e-06
2.4258e-06
0.00289543
2.41232e-06
2.42558e-06
4.37329e-06
0.00908569
3.25862e-06
2.37702e-06
0.00271535
5.31954e-06
2.0107e-06
4.97656e-06
0.00705571
0.00627999
2.03014e-06
2.63486e-06
0.0537052
0.00332615
2.26115e-06
4.58203e-06
2.82331e-06
1.81184e-06
0.00335626
4.65866e-05
3.17205e-06
0.00120252
4.77615e-06
2.07579e-05
0.073753
0.0412007
0.00314942
3.26694e-06
3.16303e-06
2.47199e-06
3.18718e-06
0.00920785
0.00395696
0.0444406
0.00874506
2.73872e-06
0.00373845
2.54243e-06
2.44517e-06
0.00516111
0.00931403
1.96519e-06
0.00306146
0.00460559
0.0040949
0.00310503
0.00466161
0.0766339
3.66435e-06
3.30839e-06
0.0167308
2.55947e-06
0.00781999
0.00323286
0.0128791
0.0107819
5.78731e-06
0.0035697
2.78241e-06
2.46889e-06
2.61659e-06
4.18186e-06
1.70712e-06
2.45165e-06
2.72416e-06
0.00284391
2.00204e-06
2.20165e-06
2.45987e-06
0.00260694
0.0218341
3.97308e-05
1.91765e-06
1.87961e-06
0.0035814
1.01753e-05
1.23866e-05
2.21703e-06
2.36628e-06
4.05879e-06
0.00255475
3.22015e-06
3.05988e-06
2.61871e-06
2.4541e-06
3.27236e-06
2.5009e-06
0.0053476
0.000108005
0.0153229
0.0236289
1.53279e-05
0.00292786
2.35339e-06
1.98236e-06
2.24269e-06
0.0134687
0.00259213
0.000243252
2.48476e-06
2.38895e-06
6.29885e-06
2.95161e-05
2.95696e-06
0.0239918
2.13133e-06
0.00309146
2.25051e-06
0.00416372
1.71607e-06
0.00317204
0.00845153
1.73582e-06
3.00978e-06
0.00484583
0.00308909
2.21525e-06
2.72483e-06
0.00436449
3.10028e-06
2.1284e-06
0.0034711
1.91031e-06
2.53484e-06
2.50574e-06
0.00536129
0.00271714
2.49226e-06
0.00306052
2.0356e-06
4.73735e-06
0.00261692
0.00292172
0.0299122
6.71854e-06
0.0164344
3.00748e-06
0.0369162
0.0249348
0.0424403
3.32007e-06
3.51881e-06
0.00766943
2.60241e-06
2.21352e-06
1.9708e-06
1.28686e-05
4.5483e-06
0.0151252
5.45258e-06
3.15094e-06
2.67755e-05
3.14388e-06
6.4164e-06
3.01554e-06
2.09745e-06
0.0152191
0.00257986
0.0302948
0.00785812
0.00193656
0.0677081
2.36624e-06
3.62846e-06
0.0380998
0.00400663
0.0039077
2.20791e-06
0.00767165
1.87608e-06
0.00201501
0.00280352
6.76443e-06
2.13897e-06
0.00451568
0.00354312
3.08712e-06
3.57939e-06
0.0329668
2.32509e-06
0.00814787
4.24023e-05
3.68035e-06
2.36024e-06
2.19126e-06
2.59936e-06
0.0243246
5.32968e-06
0.0215505
2.50658e-06
0.00358347
2.88358e-06
2.37441e-06
0.0116142
0.0939459
6.01432e-06
0.00209318
2.1372e-06
2.48841e-06
0.00761884
2.19532e-06
0.00776853
0.0145938
3.15364e-05
0.00378058
0.00465915
0.00239009
2.87954e-06
6.0263e-06
2.18864e-06
5.01052e-06
0.0041621
1.9987e-06
2.14366e-06
3.36805e-06
0.00290478
5.37585e-06
5.13498e-06
4.22871e-06
1.97626e-05
2.05572e-06
4.7119e-06
0.0261019
0.00363542
1.86009e-06
2.74206e-06
0.023762
1.62351e-05
0.025603
0.00230721
2.18962e-06
0.00838467
0.00279325
1.79315e-06
1.82414e-06
2.87196e-06
0.00230809
0.0113255
0.00374568
0.0050652
0.00327486
0.00238177
3.46774e-06
5.55011e-05
2.29521e-06
0.00853723
2.42934e-06
3.51975e-05
1.94713e-06
5.81256e-06
2.1911e-06
0.0422878
0.00208725
0.0073218
0.0247427
3.52426e-06
2.35434e-06
0.00591863
0.00374815
1.98601e-06
2.54946e-06
0.00266207
1.15524e-05
2.0684e-06
2.41234e-06
1.39465e-05
2.16834e-06
2.80257e-06
0.00235897
0.00441888
0.0192719
2.10776e-06
1.96958e-06
0.00235505
2.4535e-06
2.87769e-06
1.94848e-06
0.00356358
2.07045e-06
3.23442e-06
3.61007e-06
3.0313e-06
0.00761216
8.93133e-06
0.0206977
0.00325972
0.0227242
0.00887113
0.00707875
0.00747687
1.85845e-06
1.85023e-06
0.0333346
0.00267894
3.37548e-06
1.01124e-05
0.0245536
0.0230557
2.20614e-06
3.3165e-06
2.55484e-05
0.00506923
0.00673137
0.0195201
0.00383721
0.0140822
2.032e-06
0.00501971
2.20994e-06
3.1242e-06
0.024873
3.33466e-06
2.13482e-06
2.02992e-06
2.12758e-06
4.79892e-05
2.13027e-06
3.12182e-06
0.00238132
2.64146e-06
0.00552077
0.0024734
0.00266069
0.00234592
2.50403e-06
0.00362354
2.45373e-06
0.00732873
2.02207e-06
2.30599e-05
3.50894e-06
2.08291e-06
1.99661e-06
2.01675e-06
2.44882e-06
2.09557e-06
0.00620454
0.0256975
2.16392e-06
0.00248179
0.000214874
1.77134e-06
2.44521e-06
9.70336e-06
0.00237533
1.79118e-06
2.92267e-06
1.86815e-06
0.014475
2.03102e-06
2.07798e-06
0.0084718
0.00293431
0.00471486
4.61643e-06
3.65545e-06
2.92214e-06
0.0529979
0.00379921
0.0237526
2.52401e-06
3.32471e-06
2.40556e-06
2.76436e-06
0.0132946
3.12955e-06
0.0424118
0.0188016
0.0888699
1.83592e-06
0.00282306
0.00373328
2.51377e-06
3.86091e-06
2.56716e-06
0.00274753
2.78592e-06
2.77112e-06
3.09953e-06
2.94428e-06
0.0029511
8.94928e-05
0.0173692
2.8244e-06
2.06091e-06
2.25719e-06
1.9961e-06
2.06719e-06
0.0127045
0.00630797
2.17207e-06
2.97677e-06
1.93274e-06
0.00813013
2.62263e-06
2.00917e-06
3.66564e-06
0.000468773
2.73308e-06
3.00713e-06
1.97371e-06
0.000384476
0.0378234
3.19348e-06
0.0769636
5.50723e-05
3.03228e-06
0.0340197
0.00393841
1.76299e-06
2.3796e-06
2.51572e-06
2.01463e-06
0.0129831
0.0293879
5.13599e-06
2.96486e-06
0.00267786
0.00355612
0.0696268
0.0101251
3.0393e-06
2.91546e-06
1.86313e-06
0.011642
2.52062e-06
1.98113e-06
0.00755184
0.00650714
1.92477e-06
2.51539e-06
0.000187293
0.0203686
3.00682e-06
2.54692e-06
2.29785e-06
0.00270682
0.00268506
0.032844
7.71421e-05
0.0102274
2.61739e-06
0.00428465
2.40638e-06
2.38467e-06
1.8688e-06
0.0032979
2.81641e-06
0.00332389
2.20193e-06
0.004897
0.00501807
3.45223e-06
0.0304034
2.59106e-06
2.75384e-06
0.0124338
0.000214158
0.00222033
0.0267512
0.0109993
0.0256737
2.35757e-06
0.000166717
0.0049244
0.00642386
0.0207625
2.33356e-06
0.00689757
0.0226944
4.29661e-05
0.0218252
1.85843e-06
0.0574326
2.83099e-06
2.42284e-06
0.00360321
0.00335079
0.00344738
1.94137e-06
2.62299e-06
0.00336671
0.00297068
6.6723e-06
0.000172053
0.00393365
2.40842e-06
0.0130317
0.0220333
2.47749e-06
0.0294484
0.00468551
0.0207616
2.47188e-06
2.34862e-06
0.00776366
4.11684e-06
2.37421e-06
2.00274e-06
1.81519e-06
4.376e-06
4.58247e-06
2.38095e-06
3.17388e-06
2.67237e-06
2.07817e-06
4.17548e-06
4.15032e-06
2.46678e-06
0.00843775
0.000164146
0.00289789
0.00338381
0.00260491
2.16832e-05
2.39704e-06
2.51711e-06
2.26368e-06
4.70659e-06
0.00372565
1.87116e-06
0.00290957
2.68004e-06
1.8615e-06
0.000275624
2.61709e-06
0.00426463
0.00507653
2.43927e-06
0.0385378
3.07221e-06
0.00290599
0.00347946
6.14139e-06
8.68712e-06
0.00313972
0.0031724
2.54094e-06
2.6624e-06
0.00486594
0.0071196
0.00259981
2.47692e-06
0.0033715
0.0300988
2.84714e-06
0.178483
0.000100742
2.43713e-06
2.68901e-06
0.00256416
1.20503e-05
2.20464e-06
0.0102153
3.11852e-06
0.0455162
0.00425976
0.00601513
0.0377884
0.0368877
0.00278713
0.000219174
5.81329e-05
9.84368e-06
0.0183612
4.21714e-06
2.81102e-06
4.49131e-06
1.9995e-06
0.00357742
0.0239122
2.41326e-06
0.00324768
0.00971361
0.00280748
0.0208709
2.34434e-06
2.44183e-06
0.00338113
0.0061217
7.10483e-06
0.0022386
2.57976e-06
0.0517768
2.42577e-06
0.00320296
2.40903e-06
0.00412212
2.68255e-06
0.0121005
5.53586e-06
2.48717e-06
3.01125e-06
2.40583e-06
3.24839e-06
0.02415
0.139368
0.026804
0.00365118
6.03979e-06
0.00774409
2.43184e-06
0.00721739
0.000290296
0.00457686
1.71836e-06
2.56368e-06
4.4995e-06
0.00443037
2.28987e-06
0.0287229
0.000101098
2.45832e-06
3.1389e-06
0.0279769
5.54666e-06
0.000125219
0.00278275
0.00256097
2.63744e-06
0.00606694
1.99502e-06
2.42595e-06
2.74962e-06
1.79848e-06
2.39025e-06
2.15854e-06
0.00342635
1.99131e-06
0.00672706
1.93986e-06
2.48656e-06
2.39764e-06
2.25953e-06
0.00201916
0.00363648
0.0239434
0.0059604
0.00372277
0.0333293
3.00336e-06
0.0186261
0.0246264
0.0127944
0.00459284
0.00061733
0.00366638
2.70844e-06
2.78401e-06
2.3676e-06
2.68819e-06
7.84066e-06
3.29316e-06
1.83815e-06
2.39669e-06
2.58126e-06
6.1564e-06
0.00562535
1.77914e-06
4.00715e-06
3.24248e-06
0.00622629
0.00550567
2.00987e-06
0.0031599
2.62758e-06
5.00688e-06
2.53869e-06
2.26923e-06
3.13545e-06
2.1365e-06
2.48711e-06
0.0239904
0.0135048
0.00304424
0.0249832
2.92739e-06
8.63699e-06
0.00361835
1.72383e-06
3.46818e-06
0.0678669
0.0162327
0.00481388
2.37684e-06
0.00781382
0.00455363
0.00203691
2.58237e-06
3.24581e-06
0.0166907
8.5539e-05
0.00245828
2.45014e-06
0.00780882
0.000341677
3.26113e-06
1.79929e-06
0.00021743
0.00510232
0.0259984
0.0312713
0.00569412
0.000128568
2.42873e-06
0.132364
4.08715e-06
2.53714e-06
2.56932e-06
1.88495e-06
0.0489391
0.0058527
3.75417e-05
3.24772e-06
0.0317471
1.8586e-06
0.00692481
0.017978
3.10295e-06
2.27085e-06
3.67977e-06
0.0064269
3.31627e-06
2.50142e-06
1.81986e-06
0.0243446
2.05164e-06
4.11674e-06
0.00104156
0.00546314
7.31155e-05
2.58371e-06
2.52543e-06
2.23973e-06
0.0469678
0.00408538
0.0225251
3.96718e-06
2.39547e-05
0.00488845
1.85e-06
2.22666e-06
2.51531e-06
0.145825
3.2196e-06
0.00268804
2.36987e-06
0.00277455
4.15524e-06
2.12632e-06
7.07442e-05
3.30012e-06
3.49954e-06
8.01749e-05
2.86687e-06
2.29442e-06
0.0032083
0.00318481
2.92141e-06
0.00269627
2.39485e-06
1.83957e-06
2.67367e-06
2.15182e-06
0.00302585
2.77058e-06
0.00964062
2.03297e-06
0.00364574
2.70376e-06
2.70192e-06
0.00327558
3.06359e-06
2.36715e-06
0.00918694
0.00811399
4.08884e-06
0.0128738
3.48528e-06
0.0637256
2.04519e-06
2.39678e-06
0.010253
5.00062e-06
3.45693e-06
2.58269e-06
0.00479259
2.89646e-06
0.0321568
0.0314621
4.48189e-06
2.47821e-06
0.00341956
0.0113298
0.0161251
2.44895e-06
3.24246e-06
3.92367e-06
2.02986e-06
2.08927e-06
3.24493e-06
0.0172707
3.00214e-06
0.00225598
1.81606e-06
0.00237979
0.0384865
5.48365e-05
5.10266e-05
0.000467383
2.82026e-06
8.27651e-06
2.82362e-06
0.0230789
0.00304299
1.77288e-06
0.0022075
0.0048968
3.77177e-06
0.00148042
0.00210626
0.0195837
0.000223775
2.72425e-06
4.79368e-05
2.97366e-06
3.07408e-06
2.41406e-06
2.91248e-06
0.0263052
0.0195645
0.00370036
0.00289039
0.0229207
0.0092062
0.00374296
0.000616019
3.72147e-06
2.61606e-06
0.0677241
0.0198906
0.063492
2.79637e-06
4.15887e-06
0.00857357
2.04912e-06
2.77644e-06
3.12943e-06
3.2491e-06
2.53884e-06
0.00969412
2.37333e-06
8.62183e-06
2.44148e-06
0.00604666
2.90736e-05
0.0101138
4.00843e-06
2.59796e-06
5.19405e-06
0.00016653
2.39299e-06
2.63121e-06
2.38584e-06
2.42793e-05
0.011663
1.94239e-06
2.51952e-06
2.48698e-06
0.00264677
2.99846e-06
3.1747e-06
0.00131821
0.0260373
0.00295839
2.37877e-06
0.0426648
1.83048e-06
3.97983e-06
0.00234357
1.20739e-05
4.90792e-06
3.24635e-06
1.10414e-05
0.00464983
0.00361011
0.00370665
2.5551e-06
1.80034e-06
0.0191039
0.00539796
3.68632e-06
0.00373579
2.92662e-06
3.90501e-06
2.42775e-06
0.00786015
1.85284e-06
0.00777793
1.34251e-05
2.17783e-06
0.00695428
8.62259e-05
0.00688517
4.06962e-06
2.29288e-06
0.00105953
2.52317e-06
0.00653184
0.00396747
0.00276615
2.38765e-06
4.03267e-06
2.15513e-06
0.00011147
2.77006e-06
1.98408e-06
1.23379e-05
3.13629e-06
3.3151e-05
2.302e-06
1.89425e-06
0.000588306
0.00400144
0.0188868
0.00473461
0.00110682
1.95741e-06
2.94752e-06
3.46195e-06
2.39107e-06
2.04236e-06
0.029832
2.43673e-05
2.29253e-06
2.37844e-06
2.48246e-06
0.0065114
6.05283e-06
2.05288e-06
0.00298225
0.00224901
0.00509805
2.73646e-06
2.30724e-06
1.73522e-06
0.0539083
0.000443521
0.00932263
7.98419e-05
0.0212027
3.68723e-06
2.01745e-06
2.02704e-06
2.31395e-06
0.0190654
0.0226836
0.00248324
2.27288e-06
2.55853e-06
2.50702e-06
2.28735e-06
1.80233e-06
2.16682e-06
2.51777e-06
0.00509061
0.000232883
3.5691e-06
0.00295374
0.00413683
1.89237e-06
2.12561e-06
0.0123446
1.88534e-06
2.39851e-06
0.00703836
3.18026e-06
2.43754e-06
2.16837e-06
0.00273884
2.97654e-06
0.00432711
4.48991e-05
3.43816e-06
3.04373e-06
0.0037483
0.105016
0.0132568
2.36012e-06
3.30447e-06
5.65233e-05
2.27298e-06
2.46307e-06
0.00787237
2.68321e-06
0.000767813
1.15374e-05
0.00371237
2.46337e-06
0.0209278
2.19515e-06
1.65299e-06
9.50486e-05
0.0080594
2.53078e-06
0.0155883
3.08873e-06
2.02764e-06
0.017785
1.75874e-06
3.1982e-06
0.00266236
0.031496
0.00763215
0.00408282
2.03185e-06
4.03241e-06
0.00181383
0.00825655
0.00473159
2.3871e-06
2.22751e-06
5.17379e-06
2.01113e-06
2.28357e-06
2.15103e-06
1.82312e-06
0.00232322
2.28311e-06
3.13993e-06
0.00251793
0.000629152
0.000117117
0.00419329
2.05692e-06
4.06248e-06
0.0312197
3.07918e-06
0.0211087
5.4709e-06
0.00361967
0.00016655
2.53554e-06
2.31958e-06
0.0348232
0.0314342
2.3419e-06
0.00312255
0.004535
0.0171513
2.30327e-06
1.81735e-06
5.27376e-06
0.00691114
0.00599062
0.00377143
0.0203622
2.04188e-06
3.57691e-06
0.0107711
4.58016e-06
0.00328119
0.000122463
2.25261e-06
0.0203931
4.28197e-06
3.26109e-06
0.00312344
2.87923e-06
1.66795e-05
2.36423e-06
2.61998e-06
2.85355e-06
6.11761e-06
2.08754e-06
0.00369827
0.0430186
0.00940556
3.50242e-06
2.61135e-06
2.49168e-06
2.31351e-06
0.0102718
2.51345e-06
3.25737e-06
2.40823e-06
0.013377
3.15531e-06
9.56946e-05
2.47125e-06
0.00205892
0.00464324
0.00602468
0.0124088
0.000689752
0.00262812
2.07625e-06
3.27018e-06
0.00043468
2.37516e-06
0.0198982
0.00340796
3.18614e-06
2.3472e-06
2.12643e-06
3.26702e-06
0.00327442
8.20415e-06
0.00338493
1.85718e-06
3.08912e-06
3.45505e-06
0.00249492
1.84317e-06
2.1723e-06
0.0172415
1.73949e-06
0.00360161
3.16938e-05
1.23922e-05
0.0038037
0.0124784
2.30908e-06
2.22595e-06
0.0370933
2.74367e-06
0.0484389
2.4252e-06
0.00362952
3.58159e-06
0.01063
0.00376902
5.02208e-06
0.00282673
0.00360556
0.00321888
2.44326e-06
0.016632
0.000164872
0.00338359
3.22817e-06
2.51759e-06
3.04981e-06
0.000111864
0.00017796
1.1469e-05
2.31364e-06
8.81258e-06
2.04971e-06
2.52815e-06
0.00460425
3.08436e-06
2.64764e-06
0.00253213
3.19083e-05
0.035732
3.11684e-06
0.00648569
2.95111e-06
0.00293954
3.43241e-06
1.92113e-06
2.43216e-06
0.00813759
3.04716e-06
0.138544
0.00345649
5.57912e-06
2.80158e-06
0.0186444
0.00335394
3.12091e-06
2.86032e-06
0.00258307
0.000341428
2.19891e-06
2.14869e-06
0.00846719
0.00445823
8.36502e-06
0.000632408
9.11931e-06
1.92879e-06
0.00288927
0.000460441
0.00792754
0.0279092
0.00463635
0.0338966
0.0817743
2.27715e-06
0.000698514
0.000920198
2.26279e-06
0.0216775
4.06622e-06
0.0276721
0.00214348
0.00361533
3.05087e-06
1.90862e-06
2.99471e-06
2.41965e-06
0.00299033
2.65108e-06
0.000190655
2.01058e-06
9.90766e-06
0.00415087
2.45259e-06
1.86637e-06
2.27482e-06
2.47154e-06
2.86753e-06
0.00436143
0.0166238
2.47277e-06
2.19953e-06
1.98405e-06
0.0311007
0.00535654
0.0213732
1.17657e-05
3.03615e-06
2.20549e-06
0.0227159
1.83053e-05
0.0130134
0.00352771
2.66138e-06
5.51617e-05
0.0180023
0.00871419
4.14726e-06
2.99892e-06
2.4636e-06
3.28681e-06
0.00425799
1.71384e-06
5.18907e-06
2.42322e-06
2.10217e-06
2.0182e-06
0.00481545
3.02387e-06
0.00315383
2.08527e-06
2.12578e-06
0.0033901
2.92312e-06
0.00431872
0.00371108
5.23948e-06
0.0130194
2.28004e-06
0.00314164
0.00953624
0.00451888
0.00843019
0.00286894
0.00784339
0.00212927
0.00269481
5.76854e-06
0.126184
3.32091e-06
0.0269399
8.48871e-06
3.59507e-06
0.00374029
0.0133148
0.0152413
5.28653e-06
0.00492661
0.0205611
0.0552532
0.00271977
0.0177845
0.00455723
3.34333e-06
0.000126757
2.56338e-06
0.00371829
0.00505934
2.23088e-06
0.00816667
0.00115443
2.2329e-06
0.0292873
2.79898e-06
6.59691e-06
0.0053744
2.17422e-06
0.12317
0.0616373
5.6395e-05
0.0147456
2.46994e-06
4.25385e-06
0.00242063
3.99637e-06
0.000123451
3.69105e-06
2.53454e-06
0.0226008
6.17912e-05
0.00299564
0.00562184
1.06564e-05
0.00383685
0.0001948
1.13652e-05
0.0473874
0.0221393
3.50144e-06
3.49341e-06
2.47332e-06
0.00366373
0.0206682
2.39991e-06
0.00365212
2.93371e-06
0.00636293
0.00388773
0.0144757
0.0100871
1.91012e-06
0.00256018
2.45394e-06
0.0513907
0.0139409
0.00423961
2.48197e-06
0.0094128
1.99097e-06
4.63621e-06
0.0202587
1.04357e-05
0.011687
4.94077e-06
2.48905e-06
0.00367812
0.0135974
0.0564495
2.64703e-06
2.88087e-06
0.00558905
4.11135e-06
2.79726e-06
1.94694e-06
2.6415e-06
0.0573536
0.0509963
1.6957e-06
0.0045828
0.00372982
2.77146e-06
2.42949e-06
2.41428e-06
3.16624e-05
2.42272e-06
2.94463e-06
2.88797e-06
0.00896648
0.00394906
0.00372606
1.84439e-06
0.00550486
0.00443242
0.000838292
2.95171e-06
1.91796e-06
2.09421e-06
6.99555e-06
3.83091e-06
0.0113355
4.61074e-06
2.13432e-06
3.38276e-05
2.49184e-06
3.46569e-06
1.88558e-06
5.42249e-06
3.74156e-06
0.00361195
0.00169773
3.54191e-06
0.00436834
2.11425e-06
3.09005e-06
7.71285e-06
2.04421e-06
2.14096e-06
0.00302512
2.11896e-06
4.03619e-06
0.00374998
0.084738
2.22503e-06
0.00475345
2.79678e-06
0.00478756
1.31519e-05
0.00379751
0.00389114
3.25088e-06
0.022566
2.21864e-06
2.85499e-06
0.0102241
0.0158708
3.01077e-06
0.00875255
0.0295457
5.25547e-06
2.89264e-06
3.60385e-05
0.00983464
6.5458e-06
0.00350665
0.00358823
2.6945e-06
0.00473577
2.58486e-06
0.00359469
0.0340593
2.89774e-06
0.00358659
2.17656e-06
2.84261e-06
2.1677e-06
3.10283e-06
6.0507e-05
0.0141908
2.21304e-06
8.67537e-06
4.65069e-05
2.52619e-06
2.44102e-06
0.00353407
1.92808e-06
0.00486419
0.0345451
2.33394e-06
2.20236e-06
2.76768e-06
0.10424
3.47245e-06
2.31414e-06
2.4629e-06
0.024263
0.000570097
0.00852082
2.40881e-06
0.00671231
0.0190567
0.00470892
2.07387e-06
0.0328693
8.33567e-06
0.00374708
2.42726e-06
0.0405325
0.0031844
0.00488506
6.0247e-06
3.19343e-06
3.93359e-06
3.56033e-06
0.00425609
4.05774e-06
0.00422317
2.63102e-06
0.00283276
2.41542e-06
0.00507318
5.49265e-06
1.74154e-06
2.21795e-06
0.00357265
0.032424
0.00448388
0.0132895
0.00310626
0.00302229
0.0102555
3.57229e-06
2.33081e-06
1.92119e-06
2.41941e-06
0.0428347
0.000119118
2.65666e-06
2.35272e-06
0.0270779
0.00538966
0.00308969
0.00318723
0.00978428
1.91681e-06
2.25683e-06
2.03109e-06
4.81658e-06
0.00462917
2.67475e-06
0.00355234
3.3971e-06
0.00233296
0.00148525
1.79093e-06
0.00796102
0.0254964
0.00290078
0.0027748
2.50456e-06
8.5953e-06
2.42287e-06
2.38521e-06
4.59268e-06
0.0100428
2.50189e-05
2.20385e-05
2.8689e-06
3.01591e-06
2.68715e-06
0.0292794
0.0262484
1.4889e-05
3.02509e-06
1.71221e-06
2.64717e-06
0.04825
0.000198408
2.44222e-06
3.96556e-06
0.00451074
0.0328134
2.81578e-06
0.0459944
0.00344384
2.93311e-06
0.0112238
7.29012e-06
3.13783e-06
2.58727e-06
1.77492e-06
1.69726e-06
0.0201739
2.54948e-06
1.78428e-06
2.80562e-06
2.5646e-06
2.87099e-06
2.41875e-06
0.00222925
2.46972e-06
0.00490436
0.0151082
2.44591e-06
0.0200437
0.00379311
0.0052019
1.96578e-06
0.00357844
0.187609
0.0088061
0.0572336
4.06147e-06
4.32083e-06
0.00204266
3.42754e-06
4.63705e-06
2.41556e-06
2.84461e-05
3.87874e-06
1.91934e-06
3.28448e-06
0.0164847
7.77132e-06
4.65139e-06
1.8696e-06
0.000178311
2.6308e-06
0.00791939
0.00281852
0.00297194
0.0401339
4.12161e-06
2.05657e-06
2.9802e-06
0.00451316
2.22111e-06
3.99476e-06
3.21169e-06
0.11304
0.0343788
0.00372088
1.81131e-06
0.00468796
0.098681
2.32944e-06
0.00197948
1.29447e-05
0.00917323
0.00521943
2.33677e-06
2.48362e-06
0.00699259
0.0026771
0.00222938
0.00251333
0.00316207
3.18226e-06
0.00808013
0.0207416
0.00107868
0.00434396
1.84609e-06
2.14453e-06
2.52396e-06
2.28675e-06
5.38335e-06
0.0887122
6.00391e-06
2.43813e-06
3.43459e-06
0.0478559
0.00457671
1.88186e-05
0.00340306
2.5481e-06
0.00399194
0.00521843
2.24518e-06
0.0170633
0.00351961
0.00292195
2.80482e-06
0.0218501
2.97064e-06
2.18032e-06
0.00925625
0.00343754
3.65972e-05
4.9773e-06
0.00290052
0.0466221
0.00315205
2.59609e-06
0.0926385
0.016493
7.62517e-05
0.0875247
2.45669e-06
0.00144695
2.6164e-06
2.39695e-06
2.38326e-06
4.04691e-06
2.31659e-06
3.1666e-06
3.26562e-06
1.22048e-05
2.4705e-06
0.0127474
2.44416e-06
2.27958e-06
1.82849e-06
2.05335e-06
0.0439272
2.30232e-06
0.0033669
0.00343631
5.75848e-06
2.38348e-06
0.00290726
0.00481684
1.92187e-06
2.70524e-06
2.19727e-06
1.892e-06
0.023832
0.000810119
0.00369474
0.00429962
0.0150333
2.93904e-06
0.0125067
1.96021e-06
2.56157e-06
0.00363317
0.00260998
1.87296e-06
3.32642e-05
4.26124e-06
2.48509e-06
8.57276e-06
2.00604e-06
0.0306396
1.75231e-06
0.0609441
0.00801679
2.4212e-06
0.00371811
2.89988e-06
3.43618e-06
0.0169036
2.3191e-06
0.00234986
0.00277225
0.00453562
2.75575e-06
3.82863e-06
3.99857e-06
2.31949e-06
2.50628e-06
0.0393884
2.7718e-06
2.73425e-06
2.31462e-06
3.12788e-06
0.00252949
0.0307287
2.72496e-06
3.21212e-06
0.00632624
0.024126
2.84243e-06
0.00762764
1.97689e-06
2.40464e-06
3.62212e-06
3.39414e-06
1.85416e-06
2.61288e-06
0.00661398
5.145e-06
0.0210811
0.00359731
0.00396132
0.00322239
2.72847e-06
2.42347e-06
2.28073e-06
3.42209e-06
8.18507e-05
0.00433212
0.00871225
2.43126e-06
0.00364429
2.30686e-06
9.05397e-06
0.00331726
0.00279655
0.00398682
0.00196594
0.00385957
0.0662951
2.32092e-06
3.30645e-06
0.00272027
1.76313e-06
3.99452e-06
3.0104e-06
0.0155989
0.00556263
3.30436e-06
0.00363111
3.51237e-06
0.00491346
3.88034e-06
0.0031582
0.00317756
0.0245788
2.42307e-06
2.93158e-06
0.0251671
2.86319e-06
1.40692e-05
8.23412e-06
2.33853e-06
8.84664e-06
2.42631e-06
0.0111074
0.0235538
0.00434201
2.05675e-06
1.68717e-06
0.0256763
0.0135606
0.0052176
2.28686e-06
0.00572515
0.00446245
0.00377223
0.0153245
0.00319248
1.95221e-06
0.00529928
0.00341945
0.0087067
2.60196e-06
0.0310434
2.29335e-06
0.000116551
0.00272609
0.0454877
0.00335959
2.25283e-06
2.58021e-06
3.71913e-06
0.00301533
2.08507e-06
0.00938594
1.80127e-06
5.19901e-05
0.0181997
2.72938e-06
3.71348e-06
6.48529e-06
2.34993e-06
1.87781e-06
0.0335329
0.00289553
2.73886e-06
1.79593e-06
0.00379832
2.31387e-06
3.37841e-06
2.53921e-06
0.00267794
0.00361875
0.00270154
2.49472e-06
0.0385923
4.02084e-06
0.0167478
0.0134557
2.90871e-06
2.88809e-06
2.34966e-06
0.0153238
3.18806e-06
4.09378e-06
0.0302607
2.42537e-06
0.0285809
2.26592e-06
2.40552e-06
2.78583e-06
3.39223e-06
1.97788e-06
1.75402e-06
0.000449815
0.0031376
5.30789e-05
2.32979e-06
4.21708e-06
0.0131317
0.00901531
0.00377459
0.0146837
2.82519e-06
0.0231314
3.30115e-06
0.0135957
2.03598e-06
0.0220518
2.44126e-06
5.94303e-06
2.02629e-06
0.00421426
3.28847e-06
0.0028037
0.102978
2.49473e-06
5.98328e-06
0.00360774
2.407e-06
2.51322e-06
2.86982e-06
0.0403758
2.20035e-06
0.000149624
2.17362e-06
2.30229e-06
0.00441071
0.00859438
0.00346636
2.8389e-06
2.42837e-06
0.0271527
3.43515e-06
2.76826e-06
0.0193895
0.0313466
0.00297831
2.5814e-06
2.45836e-06
3.44051e-06
0.012802
2.93799e-06
2.53233e-06
0.0132444
0.000512473
2.66454e-06
0.00474181
6.56002e-06
2.35688e-06
2.18663e-06
3.7946e-06
0.00293194
3.23317e-06
2.25679e-06
3.7208e-06
9.47132e-06
3.61617e-06
3.2238e-06
2.50131e-06
0.0151718
2.16811e-06
1.80304e-06
2.78388e-06
7.55532e-06
2.56031e-06
0.00245592
0.00955694
1.87726e-06
3.58323e-06
4.13111e-06
8.94471e-06
4.60727e-06
0.0705235
0.00418269
2.53897e-06
0.00250815
2.79799e-06
0.0178032
0.00217077
0.0040503
2.29229e-06
0.007157
3.19462e-06
2.34888e-06
2.99648e-06
2.69436e-06
2.01231e-06
0.00364639
2.3469e-06
2.2151e-06
6.48573e-06
0.0129771
2.34189e-06
2.76519e-06
0.0151805
2.04447e-06
0.00124957
2.51163e-06
0.00263392
2.40111e-06
0.00104122
0.000242508
8.37374e-06
2.47595e-06
2.43094e-06
0.00271342
0.00911745
0.019254
2.47198e-06
2.68572e-06
0.0770402
2.63518e-06
1.89083e-06
3.81112e-06
2.48305e-06
2.52533e-06
6.36708e-06
2.85364e-06
0.00260118
0.0106702
0.060453
1.7728e-06
0.00285736
0.00349351
0.0172858
0.00273067
2.41862e-06
3.40724e-06
2.00892e-06
0.0210331
0.000248749
2.4751e-06
0.0377288
0.00457005
2.4438e-06
2.59038e-06
0.00397366
0.0031273
2.64568e-06
0.0766543
3.04283e-06
0.00395244
3.03368e-05
0.0587139
1.93231e-06
2.81206e-06
0.00374115
4.09205e-05
0.0033015
0.0202774
0.00274223
2.35568e-06
1.85983e-06
2.83486e-06
2.09365e-06
2.54238e-06
0.0038006
0.0219998
4.0659e-06
1.73012e-06
9.1627e-06
0.00230224
0.00313926
1.9729e-06
0.00341683
2.13997e-06
0.0151541
3.66058e-05
0.00635579
1.98069e-06
2.43245e-06
0.00264543
0.0737502
0.0192794
0.00739558
1.59647e-05
0.00310763
0.0307214
1.68179e-06
0.00277336
1.9482e-06
3.08072e-06
2.74362e-06
0.00277089
5.73114e-05
1.84675e-06
2.96585e-06
0.0335518
2.54198e-06
6.99534e-05
2.05438e-06
2.76068e-06
6.24996e-05
0.00638686
2.63143e-06
0.0023521
0.000455327
2.74052e-06
2.52319e-06
1.50603e-05
7.24742e-06
3.59851e-06
0.0105909
2.19531e-06
0.0015902
0.00668458
4.17194e-05
2.43798e-06
0.00612924
2.39043e-06
4.65913e-06
2.06521e-06
0.000296188
0.00167608
2.70424e-06
6.78175e-05
0.0194605
2.28161e-06
3.27221e-06
2.55459e-06
0.106688
0.0218522
0.00326278
4.51766e-06
0.000108125
0.0523647
0.00481245
2.07826e-06
0.0102142
0.000442843
4.31142e-06
0.00404223
0.000102121
0.00982237
0.00321038
0.00460795
2.29213e-06
0.00903231
0.100156
0.0788444
0.0101023
0.0131555
2.44115e-06
1.98424e-06
0.00324703
0.0145941
3.02711e-06
2.73928e-06
0.0398714
4.05361e-06
0.00293525
0.00727582
0.0227132
0.0098622
2.32393e-06
0.000458357
0.0229803
2.10785e-06
4.06565e-06
2.16427e-06
0.000183567
0.00283833
0.00904322
0.00487553
0.0042521
1.94653e-06
0.00306964
0.00287629
0.00288693
4.40916e-06
3.51893e-06
0.00322224
0.0462874
2.59348e-06
0.00451192
6.16755e-06
3.15094e-06
2.47858e-06
0.0253317
0.00657152
3.02944e-06
2.32157e-06
1.85897e-06
2.79164e-06
0.00141016
0.00423886
2.51754e-06
0.0150996
7.9079e-05
3.00455e-06
0.00537543
1.79362e-06
2.4454e-06
0.117617
3.53935e-06
2.43439e-06
0.0027494
2.26717e-06
5.38536e-06
2.39523e-06
2.41698e-06
0.00999632
2.70982e-06
0.0295927
0.00594975
0.012151
0.00451511
1.67982e-06
0.0237062
2.47653e-06
0.0039365
3.20423e-06
0.0304666
0.00367209
2.38172e-06
0.00844793
0.00396123
2.19717e-06
3.87419e-05
2.12356e-06
0.00530848
0.000130065
2.46728e-06
3.11066e-06
3.0777e-06
4.11142e-06
0.00265567
2.58515e-06
2.84282e-06
2.09609e-06
0.0245007
6.66723e-05
1.96324e-06
1.86037e-06
0.0611415
2.45348e-06
0.00578706
2.40551e-06
2.40972e-06
2.42973e-06
3.48644e-06
2.88181e-06
4.62728e-05
2.21992e-06
0.0041354
2.24994e-06
2.14597e-06
0.000725113
0.00358356
2.4955e-06
0.0232279
1.84008e-06
2.42238e-06
3.12526e-06
0.000282703
0.00029379
1.11297e-05
0.0122367
3.17197e-06
6.09592e-06
0.000126626
0.00106185
0.0094171
2.93659e-06
0.00831221
0.00530064
4.66658e-06
0.00355794
2.42729e-06
4.03124e-06
0.0690575
1.7593e-06
2.3626e-06
0.00181616
0.00307002
2.67045e-06
3.90357e-06
0.00388518
2.49778e-06
0.00268813
0.0030128
0.0036898
0.000732776
2.45151e-06
0.00200452
2.14312e-06
2.49334e-06
0.000224609
3.25368e-06
4.1036e-06
2.274e-06
2.10051e-06
2.18263e-06
2.84327e-06
2.67389e-06
2.34718e-06
2.28967e-06
2.77337e-06
1.88791e-06
2.8167e-06
0.000144601
0.00347865
2.21376e-06
1.73524e-06
3.02802e-06
0.00571445
1.93127e-06
1.88236e-06
2.19441e-06
0.00178392
1.7078e-06
0.0231811
1.87572e-06
3.44918e-06
2.47686e-06
3.05582e-06
6.25743e-06
1.95818e-06
4.66267e-06
1.97423e-06
0.0040576
0.0180377
3.36675e-06
3.4641e-06
1.90533e-06
0.00509325
0.00205545
0.0067998
9.51647e-06
3.72574e-05
2.30902e-06
2.3899e-06
0.000156041
0.00219033
0.00302443
3.73005e-06
0.0152447
2.48701e-06
7.72134e-05
2.35107e-06
7.50966e-05
3.91984e-06
0.0103609
2.48301e-06
3.05681e-06
3.03599e-06
3.44607e-05
0.0145628
1.93439e-06
0.00493563
0.0146837
0.00284473
0.000704187
2.29539e-06
2.28245e-06
3.56129e-06
0.00456328
1.96446e-06
4.53159e-06
0.00410219
2.67929e-06
1.9497e-06
2.43848e-06
1.9882e-06
0.00292948
2.42131e-06
2.33663e-06
0.00205063
2.95618e-06
2.01404e-06
3.27741e-06
1.9829e-06
1.21152e-05
2.77111e-06