/*--------------------------------*- C++ -*----------------------------------*\
| =========                 |                                                 |
| \\      /  F ield         | OpenFOAM: The Open Source CFD Toolbox           |
|  \\    /   O peration     | Version:  v2012                                 |
|   \\  /    A nd           | Website:  www.openfoam.com                      |
|    \\/     M anipulation  |                                                 |
\*---------------------------------------------------------------------------*/
FoamFile
{
    version     2.0;
    format      ascii;
    class       surfaceScalarField;
    location    "350";
    object      phi_0;
}
// * * * * * * * * * * * * * * * * * * * * * * * * * * * * * * * * * * * * * //

dimensions      [0 3 -1 0 0 0 0];
oriented        oriented;


internalField   nonuniform List<scalar> 
21458
(
0.22051
-0.214134
-0.00637633
-0.174843
0.200784
-0.0259409
0.279997
-0.294116
0.0141198
0.0109946
-0.0131618
0.00216718
-0.0698687
0.120775
-0.0509064
0.0137094
-0.0151469
0.00143759
-0.717564
0.475573
0.241991
-0.568895
0.698369
-0.129474
-0.0223711
-0.34181
0.364181
-0.014884
0.00443788
0.0104461
-0.132471
0.0837685
0.048702
0.0134446
-0.00244999
0.0103863
0.00234402
-0.0127303
0.0129443
-0.00255795
-0.00802538
0.0114057
-0.00338031
0.00313762
-0.0071214
0.00398378
0.0232593
-0.139799
0.11654
0.0209053
-0.0263701
0.00546481
-0.229676
0.234393
-0.00471679
-0.537347
0.408871
0.128477
-0.340056
0.0736595
0.266397
0.00413093
-0.000993313
0.157587
-0.0105022
-0.147085
-0.279849
0.257478
0.092598
-0.0259534
-0.0666446
-0.00272014
0.105587
-0.102867
-0.00717728
-0.00770667
-0.099522
0.151696
-0.0521737
-0.0115452
0.00351979
0.0225141
0.00439573
-0.0269098
0.00508028
-0.0115138
0.00643353
-0.00359668
0.0245019
-0.667298
0.330014
0.337284
0.0678271
0.290753
-0.35858
0.578915
-0.0406792
-0.538236
-0.3778
-0.0654097
0.44321
-0.00174658
-0.00537483
-0.174436
0.244878
-0.0704419
0.0541138
0.0256641
-0.0797779
-0.0111832
0.0102357
0.000947524
0.125018
-0.299454
-0.202081
0.111296
0.0907855
0.180417
0.141243
-0.32166
0.00603659
-0.00190566
0.033381
0.199804
-0.233185
0.010112
-0.010112
-0.000756975
-0.0111374
0.0118944
0.121864
0.143953
-0.265817
0.0509775
0.0391204
-0.0900979
-0.259296
-0.178315
0.437611
0.0679832
-0.0583484
-0.00963484
-0.133449
0.115029
0.0184199
0.152043
0.00659189
-0.158635
0.328928
-0.207065
-0.433883
0.21117
0.222713
-0.0500186
0.184216
-0.134197
0.00211053
0.00892734
-0.0110379
0.000242592
0.578673
-0.20868
0.205755
0.00292567
-0.0171124
-0.210808
0.22792
-0.240316
0.528167
-0.287851
-0.0390351
0.0210385
0.0179966
-0.00955567
0.153558
-0.144002
0.179625
-0.0072118
-0.172413
0.0139458
-0.0158218
0.001876
-0.264718
0.260565
0.00415341
-0.13089
0.18844
-0.0575503
-0.0394991
0.033429
0.00607007
0.023615
-0.0820592
0.0584442
0.0139752
-0.014907
0.000931809
0.228971
-0.0437165
-0.185255
0.00488224
-0.00386284
-0.00101939
-0.0265841
0.000121205
0.0264629
-0.399314
-0.138034
-0.462739
0.18289
-0.0142824
0.015171
-0.000888574
-0.0113643
0.000159651
0.0112046
-0.0113046
0.0158944
-0.00458985
0.0157872
-0.001812
-0.000336911
0.0484562
-0.0481193
-0.592736
0.617922
-0.0251857
0.233199
-0.328538
0.0953391
0.0106714
0.2183
0.186449
0.205387
-0.391836
0.222033
-0.188652
-0.197872
0.233966
-0.0360937
-0.605359
0.26501
0.340349
0.00150481
0.343448
0.087637
-0.431085
0.00103311
-0.0129085
0.0118754
0.0143956
-0.00044984
0.01328
-0.0143375
0.00105754
0.00595378
0.00262753
-0.0085813
-0.15211
0.329844
-0.177734
-0.0272004
0.0209913
0.00620914
-0.186459
-0.237718
0.424177
-0.0107943
0.0118274
-0.0596283
0.312396
-0.252768
-0.00736719
0.000469401
0.00689779
-0.0101513
0.0326654
-0.00994472
0.0120553
-0.1998
-0.00888021
0.639137
-0.31579
-0.323348
-0.270374
0.210746
-0.599101
0.594217
0.00488346
0.173383
0.00624164
0.00268806
0.00219417
-0.159715
0.109697
-0.0101492
-0.00103404
0.108348
0.192838
-0.301187
-0.201745
-0.141387
0.343131
0.0198149
0.0287302
-0.0485451
0.166601
-0.0145584
0.103377
-0.106097
-0.214563
0.025449
0.189114
-0.251917
-0.210822
-0.0161211
-0.022914
-0.229856
0.24037
-0.0105136
-0.00979555
-0.24856
0.258356
0.378113
-0.310285
0.412156
0.112017
-0.524173
0.0126944
-0.00761409
0.249098
-0.231862
-0.0172361
-0.0113948
0.011235
0.000159857
0.139114
-0.535299
0.396184
-0.374775
0.132228
0.242547
0.309786
0.0379235
-0.347709
-0.136882
-0.362693
0.499575
0.00993975
-0.00101241
0.375492
-0.516158
0.140666
0.0101898
-0.14272
0.132531
-0.026921
0.207214
0.252586
-0.4598
-0.215879
0.0111038
0.204776
-0.0852642
0.132891
-0.0476266
0.0477768
0.0228279
-0.0706047
-0.272009
0.010787
0.261222
0.0292724
0.0387108
0.0112953
-0.0132429
0.00194761
0.462499
-0.336748
-0.125751
0.0128806
-0.0147213
0.00184069
0.303503
-0.123086
0.0591757
-0.0523005
-0.00687513
0.1543
-0.163856
-0.292318
0.478766
0.00185661
0.00162728
-0.00348389
0.171841
0.202377
-0.374218
-0.205025
0.214671
-0.00964686
-0.229278
-0.0158739
0.245152
-0.00365751
-0.0235429
0.0407549
0.239242
-0.106932
0.515803
-0.130762
0.165252
-0.0344893
-0.128706
0.151965
-0.143316
-0.189897
-0.0111814
0.000194063
0.0109874
0.66285
-0.333062
-0.329788
0.0509383
-2.57678e-05
-0.0509125
-0.0175641
0.00625956
0.000852866
-0.0120343
-0.0282947
-0.0148122
0.0431069
0.014968
-0.0191627
0.00419467
-0.207668
-0.00567558
0.00642647
-0.000750883
-0.0131056
0.0123486
-0.134069
-0.358621
0.49269
0.0391655
-0.0193506
0.300742
-0.560038
0.16263
-0.349088
0.483037
-0.350552
-0.132486
0.0308387
0.191195
-0.330085
-0.103798
-0.0484535
-0.200106
-0.469518
0.308941
0.160576
0.0564244
0.0587442
-0.115169
-0.374211
0.539128
-0.164917
0.373627
-0.106507
-0.26712
0.0384952
-0.116521
0.0780254
0.145547
-0.299357
0.15381
0.0821742
-0.0343974
-0.529041
0.129727
0.0275088
-0.257365
0.0136102
-0.000330241
0.374816
-0.53567
0.160854
0.0939731
0.0516192
-0.145592
-0.0547292
-0.147352
-0.169278
0.0691046
0.100173
-0.0986361
0.0707118
0.0279243
0.0356517
0.023524
0.544971
-0.403967
-0.141003
-0.000519234
0.00171316
-0.00119392
-0.178443
-0.109438
0.287882
-0.42433
-0.293234
-0.0127235
0.0127077
1.57318e-05
-0.00259611
-0.0758082
-0.0135925
0.0172
-0.00360749
0.2871
-0.28553
-0.00157003
-0.178877
-0.290641
-0.238921
0.0243583
0.148021
-0.137831
-0.0195061
0.118579
-0.0990726
0.11628
-0.124403
0.00812323
0.000157108
0.274391
-0.108994
-0.165397
0.0595333
-0.331543
0.238626
-0.0809434
-0.157683
0.265943
0.107684
0.154912
-0.0609394
0.00118604
-0.00693638
0.00575033
0.000699543
0.00414939
-0.00484893
0.29926
-0.127092
-0.172167
-0.161283
0.0303929
-0.461899
0.0742185
0.387681
-0.186915
0.193615
-0.00669996
-0.00924825
0.00671632
0.00253193
-0.012603
0.0023888
0.0102142
0.175628
-0.553428
0.231381
-0.25337
0.0219888
0.033479
-0.0855591
0.0520801
-0.00955935
0.013191
-0.00363164
-0.00370077
0.00170564
0.00199513
0.316608
-0.222024
-0.0945834
-0.0132196
-0.014364
0.0275836
-0.0101474
0.0127811
-0.00263375
-0.00713622
-0.250588
0.257725
-0.360342
0.158597
-0.0752585
0.0545166
-0.280827
-0.324532
0.13284
-0.300266
0.167426
-0.676351
0.503617
0.172733
0.22639
0.00646407
-0.232854
0.0113989
-0.012276
0.000877118
-0.0680812
0.219449
-0.151368
0.101522
0.172869
0.0247223
0.159494
0.0334853
-0.0250587
-0.0084266
-0.497652
0.288361
0.209291
0.407841
-0.278037
-0.129804
-0.0129922
0.00284483
0.136104
-0.189272
0.0531681
-0.300315
0.121872
0.0323592
0.0602388
-0.00426646
-0.000850982
0.00511744
-0.00492136
0.0061074
0.0968792
-0.440358
0.343479
-0.025033
0.368481
0.0217013
-0.0220744
0.000373101
-0.0142653
0.0149696
-0.000704305
-0.0236873
-0.545208
-0.171605
0.194447
-0.0228419
-0.573921
-0.025676
0.599597
0.482036
-0.342922
-0.0163479
0.00208252
-0.12715
-0.051574
0.178724
-0.251889
-0.164942
0.41683
0.0458898
-0.145412
-0.0806994
0.0547461
0.147336
0.010251
0.00886485
0.0395913
0.0154295
0.0349448
-0.0503743
0.0110075
0.00170027
-0.00111685
-0.214763
-0.347262
-0.0813342
0.428597
0.00350133
-0.195701
0.1922
-0.510192
0.16293
-0.00240663
-0.00129414
-0.00895746
0.0102012
-0.00124371
-0.0363283
-0.0031708
0.00112391
0.0007327
0.0414708
0.268315
-0.0132851
-0.000234773
0.0135199
-0.0107192
0.199413
-0.15579
0.301337
-0.0129533
0.0134531
-0.000499833
-0.00403343
0.00178369
0.00224973
-0.126478
0.382468
-0.25599
-0.0153149
0.014574
0.000740846
0.00125624
-0.00959443
0.00833819
0.0135238
-0.0147055
0.00118173
0.0136558
-0.0138429
0.000187041
-0.0114875
0.0123403
-0.0282198
-0.0198994
0.507282
-0.621528
0.114245
-0.206924
-0.290729
0.00245382
-0.00671909
0.00426527
0.220676
-0.231395
-0.00303564
-0.00326542
0.00630107
0.0128087
-0.0135816
0.000772899
0.0527708
-0.028258
-0.0335755
0.027941
0.044107
-0.129371
0.0135483
0.000161027
-0.429951
0.0998663
0.0263564
-0.0546018
-0.289305
0.343907
0.0876674
-0.0126504
-0.0750169
-0.464594
0.330525
0.0405002
0.142397
-0.182897
-0.396613
-0.0652859
0.0108986
-0.0136896
0.00279101
-0.460391
0.129761
0.33063
0.23605
-0.302777
0.0667276
-0.237688
-0.0156815
-0.0120751
0.0114879
0.000587161
-0.00443438
-0.0450597
0.0494941
0.125263
-0.00898243
-0.169421
0.388777
-0.219355
0.130943
-0.353578
0.222635
-0.0130959
0.00353656
-0.0514888
-0.0809817
0.0830842
-0.13106
0.0479754
0.24157
-0.387278
0.145708
0.205842
0.201998
0.444292
0.218558
-0.00186649
-0.126869
0.173944
-0.0470754
-0.487906
0.113695
-0.53152
0.666051
-0.134532
0.194762
0.104498
0.291394
-0.511725
0.220331
0.25689
-0.12405
-0.000189484
0.0116806
-0.0114911
0.126177
0.0316913
-0.157868
0.0395565
-0.0161698
-0.0233867
0.0210812
-0.0266761
0.00559485
0.0467985
-0.116667
-0.0138657
0.0141548
-0.000289106
-0.476734
0.0933036
0.38343
0.0838771
-0.227193
-0.289396
0.229616
0.0597798
-0.0171952
0.00360269
0.0111898
0.000209111
-0.0488142
0.174991
-0.245892
-0.348381
0.594272
-0.0177767
0.164651
-0.146874
-0.132045
0.17413
-0.0420852
0.0612219
0.206172
-0.000325846
-0.205846
0.0292575
-0.00476192
-0.0244956
-0.0652052
-0.199513
0.0124943
0.00105404
-0.437334
-0.229964
-0.0100457
0.00108826
-0.419002
0.06729
0.351712
-0.0135016
0.0137471
-0.000245509
-0.00192531
0.00140608
-0.458828
0.0398251
0.176104
0.0300683
-0.0017703
0.00772408
-0.001737
0.0153928
0.202142
-0.219255
-0.420027
0.120016
0.300011
-0.0126758
-0.000277513
0.567377
-0.425957
-0.14142
-0.0800141
-0.274057
0.354071
0.0112947
-0.0133396
0.00204488
-0.273871
-0.100904
0.410934
-0.172023
-0.238911
0.483619
-0.197121
-0.286498
0.00989346
-0.00392576
-0.0059677
0.0163995
-0.0145007
-0.0018988
0.231703
-0.000170138
-0.0151447
0.323753
-0.229296
-0.094457
0.00736039
-0.0686618
0.0613014
0.000868401
-0.0114723
0.0106039
-0.0156228
0.00175711
0.0267123
-0.0212548
-0.00545749
-0.203114
0.0394815
0.163633
-0.00866517
0.00695729
0.00170788
0.000618002
0.19447
-0.195088
-0.0540069
-0.010824
0.0648309
-0.00596
0.00973473
-0.00377473
-0.0514843
0.0669138
-0.219005
-0.0444394
-0.0572259
0.101665
-0.15113
0.127776
0.0233538
0.144571
-0.199173
0.376984
-0.205143
0.0700831
-0.222194
0.130567
0.0394053
0.048262
-0.00736965
-0.00129552
-0.00912996
-0.151395
0.160525
0.402745
0.116279
-0.519024
0.131275
0.0135927
-0.144868
0.179529
0.224339
-0.403868
0.209173
-0.21126
0.00208719
-0.000427972
-0.180786
0.181214
-0.315602
0.220099
0.095503
-0.0349405
0.0636176
-0.0286771
0.00894862
-0.0113661
0.00241748
-0.0878917
0.0683855
-0.00173419
0.00243373
-0.0452214
0.0790009
-0.0337795
-0.0014766
-0.0388398
0.0403164
-0.396233
-0.0805009
0.441841
0.0720806
-0.513922
-0.046643
0.0183484
-0.0138956
0.000610509
-0.00773883
0.0109383
-0.00319948
0.254792
-0.258537
0.00374522
-0.000667659
0.00452981
-0.00386215
0.355713
-0.22477
-0.00486796
-0.00773502
0.013439
-0.00254038
-0.010119
0.0610965
0.304372
-0.384386
0.0109644
-0.0130289
0.0020645
0.0137757
-0.0142685
0.000492716
-0.165097
0.539913
-0.11026
0.552101
-0.0168174
0.00320765
0.0136098
-0.55028
0.429674
0.120606
-0.0677814
0.0328409
-0.111562
-0.0218867
-0.539831
-0.0529047
0.182753
0.0132242
-0.195977
-0.287057
-0.00286607
0.289923
0.00278359
-0.177627
-0.0836765
0.0940736
-0.0103972
0.188275
-0.186675
-0.00160036
-0.00528883
0.177013
-0.21241
0.0353977
-0.00180117
0.0786639
-0.418944
0.34028
0.181227
-0.199004
0.03093
0.0392299
-0.0701599
-0.0156472
0.0495356
-0.0338885
0.14517
0.00822065
0.00209434
-0.010315
0.372663
-0.201016
-0.171647
-0.0222771
0.19929
-0.00415492
0.0022325
0.00192243
0.208942
0.0271072
-0.000862683
0.00300975
0.011471
0.0280855
0.130565
-0.153917
0.0233516
-0.000371788
0.0119154
-0.000951045
-0.0143943
0.0114556
0.00293874
0.454342
-0.375678
0.0345562
0.0768913
0.210209
0.0585464
-0.0887401
0.0301937
0.00246234
-0.198045
0.306393
-0.285471
0.0891888
0.196282
0.509379
-0.258867
-0.058205
0.0129836
-0.0422376
-0.162645
0.204882
0.19482
-0.0587164
0.623289
-0.245289
-0.377999
-0.156016
0.0252534
0.168749
-0.409066
-0.190395
0.0187901
-0.0138626
0.00336372
0.0104989
-0.0008064
-0.0105884
0.382009
-0.303908
-0.0781004
-0.326554
0.253432
0.073122
-0.00132051
0.0606316
-0.0593111
-0.03748
0.120564
-0.0990826
0.0154062
0.0109299
-0.00198131
-0.217234
-0.0698231
-0.00134536
-0.00495281
-0.00732319
0.345155
-0.486906
-0.112194
-0.476748
-0.0971728
0.011277
-0.0104086
-0.00192162
-0.00316883
0.00509045
-0.00191259
0.0207826
-0.0340022
0.0123038
-0.0117012
-0.000602534
-0.0117795
0.00930919
0.00247033
0.0729265
-0.117366
-0.0308431
0.161409
0.0478577
-0.277136
0.00222452
-0.00526016
-0.216666
0.208847
0.0078197
0.0230015
0.0432153
-0.0662168
0.223185
0.0990093
-0.322194
0.0484273
0.317052
-0.460995
0.143943
-0.00490086
0.0383299
0.0299429
-0.0589149
0.028972
-0.00529445
0.00102799
0.00596947
0.00499135
-0.0109608
-0.420225
-0.0843047
0.50453
-0.0456547
-0.504625
-0.000659637
-0.00670755
0.00909148
0.00102056
-0.211632
0.482166
-0.270534
0.0550506
0.165459
-0.012488
0.0119301
0.000557893
-0.156039
0.180847
-0.0248083
-0.249103
0.292326
-0.0432231
0.0131413
-0.182419
-0.00797327
-0.148065
-0.168701
-0.0980701
0.266771
-0.343143
-0.0868078
0.00262823
-0.0153845
0.0127563
-0.0109022
0.0107127
-0.0236629
0.0186411
0.0050217
-0.180566
-0.135035
0.251635
-0.000649858
-0.0107144
0.204113
0.200726
-0.200108
0.104334
0.22551
-0.00152831
0.0131873
-0.011659
-0.400253
0.478546
-0.0782935
-0.066784
0.47894
0.522365
-0.0150823
-0.362587
-0.0646362
0.427223
-0.0116053
0.0135507
-0.0019454
0.125527
-0.156145
0.0306175
-0.0292179
0.0247835
-0.0123941
0.0133852
-0.000991159
-0.0463802
-0.00428444
0.00361678
-0.00114506
-0.00239872
-0.0017562
0.500611
-0.367723
-0.132888
0.267206
0.114802
-0.0799903
0.070837
0.00915328
0.00905693
0.0030723
-0.0121292
0.496497
-0.252949
-0.243547
-0.0140575
0.139585
-0.0913217
-0.00587026
0.0971919
-0.0120456
-0.00181705
-0.161482
-0.141295
0.0303746
0.204019
0.0722244
-0.121913
0.049689
-0.00886363
-0.00276817
0.0116318
0.0705556
-0.0396256
0.0163553
-0.0133114
-0.00304392
-0.00108728
-0.00409055
0.000994616
0.00309594
0.313287
-0.236157
-0.0771308
0.0121476
-0.0118536
-0.000293994
0.443946
0.403073
0.021898
0.00735952
0.295759
0.249634
0.123029
0.228346
0.0849416
0.275465
-0.270805
-0.00466093
-0.0546912
0.111116
0.297638
-0.528137
0.230499
-0.171391
0.39573
0.0438175
0.107878
-0.399355
0.110049
0.000268343
-0.0117869
0.0115185
-0.00492423
-0.00715082
0.0128029
-0.011969
-0.000833885
0.0111366
0.000351275
0.17685
-0.173349
0.01159
-0.0107769
-0.00081305
-0.0504648
-0.0839228
0.134388
0.00342273
-0.363512
0.0381012
-0.149725
0.089629
0.0600963
0.0128298
-0.413083
0.250868
-0.107476
-0.145704
0.0952389
0.453278
-0.15564
0.00850207
-0.000551469
-0.0079506
-0.0123587
-0.00445878
0.0929265
-0.261628
0.0139036
-0.0128346
-0.00106899
-0.159407
0.17686
-0.0174525
0.519008
-0.242322
-0.276686
0.0404566
0.151525
-0.191982
0.000228858
-0.147749
0.14752
-0.0117661
-0.201378
0.526216
-0.324838
0.160147
0.00269365
-0.16284
0.216413
-0.316601
0.100187
-0.00437871
0.00165557
0.00272314
0.164655
-0.0808837
0.500673
-0.419789
0.00145411
0.000259041
-0.0132257
-0.00239712
0.000971413
0.0111762
-0.0802688
-0.000430625
-0.109614
0.516432
-0.406817
-0.449317
0.269931
0.179385
-0.00310191
-0.0579305
0.0610324
-0.00788959
-0.00274026
0.0106298
0.00276457
-0.0979999
0.0952354
-0.312927
0.511212
-0.198286
0.289573
-0.269416
0.119903
0.149513
-0.263058
-0.0634966
-0.0117563
0.00988781
0.00186852
0.119788
-0.411085
0.291297
-0.0532442
0.0517676
-0.0235768
-0.00804704
0.0316238
-0.030803
0.0151558
-0.328085
-0.0140225
0.00613289
0.00185397
0.009736
0.271387
-0.0981301
-0.173257
-0.052121
0.159217
-0.107096
-0.116223
0.289353
-0.173131
0.0119099
-0.0131987
0.00128879
-0.10491
0.158579
-0.0536687
-0.185547
0.370426
-0.184879
-0.380684
-0.107222
-0.305941
-0.143376
-0.0138641
0.000638452
0.0507615
-0.0181306
-0.0326309
0.0164018
-0.0197666
0.00336476
-0.431916
0.0887727
-0.444826
0.363943
-0.201812
-0.0875839
-0.138389
0.00925867
-0.258362
-0.0023292
-0.00942714
0.000991511
0.477322
-0.16027
-0.281004
0.624166
-0.343162
0.322427
-0.218093
-0.000393789
-0.00153152
0.0132278
-0.181609
0.168382
-0.070645
0.303844
0.389325
-0.49894
0.0198954
-0.163549
0.143654
0.159564
-0.127223
-0.0323407
-0.575908
0.294904
-0.16824
0.45272
-0.28448
-0.191239
0.0318312
0.0608741
-0.0961803
0.0353062
0.125129
-0.377018
0.0382202
-0.06644
0.118362
-0.152852
-0.389701
-0.186207
-0.0805657
0.000575394
-0.0124012
0.00353756
0.310978
0.20803
0.0729532
0.163179
-0.236132
-0.0889655
0.311193
-0.222228
-0.150749
0.321781
-0.171032
-0.00211096
-0.00226774
0.00683413
0.00932175
-0.0161559
0.104845
0.12912
0.371373
0.252793
-0.0010823
-0.00113126
0.018151
-0.0482406
0.0300896
-0.00188144
-4.01835e-05
0.0279121
-0.154781
-0.278955
-0.0539275
0.332883
0.123245
0.232468
-0.0334739
-0.000101534
0.393245
0.306955
0.175211
-0.000890149
-0.00260292
0.00349307
-0.00733326
0.00406784
-0.323267
0.153846
-0.297468
0.208502
-0.0273185
-0.0432862
0.019219
-0.0195465
0.000327488
0.364319
-0.566573
0.202254
0.182785
-0.495712
0.259938
-0.0362238
-0.223715
0.00644526
0.00995422
0.0104555
0.000950161
0.0761848
-0.0152666
-0.0609182
-0.0180764
-0.0342241
-0.00024689
0.00195143
-0.00170454
-0.154877
0.135457
0.0194194
0.0137358
-0.000125578
-0.201322
-0.0153446
-0.180272
-0.215961
0.318391
-0.101977
-0.0152887
0.0141312
0.00115746
0.214021
-0.399568
-0.000319013
0.216722
0.0323761
0.00739577
-0.00613954
-0.00212628
0.0135043
-0.011378
-0.0767988
-0.0626967
0.0863117
0.166445
-0.282667
0.0546536
0.00456512
0.00636305
-0.0109282
-0.169071
-0.0052281
0.174299
0.00975737
-0.00153673
-0.0162863
-0.00860916
0.0248955
0.00219789
-0.00244478
0.018556
0.00191039
-0.0204664
0.0104031
-0.201016
0.190613
0.136823
-0.116928
-0.00761649
0.00820652
-0.000590021
-0.00252488
-0.00457882
0.0071037
0.0516856
-0.000747267
0.124454
-0.491814
0.36736
-0.107313
-0.00477813
-0.0226417
0.0166775
0.00254155
0.354463
-0.231218
0.0990943
-0.366144
0.473684
-0.107541
-0.0350703
-0.118924
0.153994
-0.015179
0.0149077
0.000271276
0.0142356
-0.0145341
0.000298502
-0.0154278
0.0149691
0.000458633
-0.108931
-0.290508
0.399439
-0.240274
0.299807
-0.00211229
0.0132896
-0.0141157
0.000826017
-0.00706844
-0.196046
0.0552643
0.0154476
0.00788106
0.00297909
-0.0108602
-0.107343
-0.162073
-0.012202
0.00321652
0.00898548
-0.0248499
-0.0763808
0.101231
0.00634344
-0.189865
0.183521
0.0165591
0.0329527
-0.0495119
-0.0111743
0.011319
-0.000144764
0.00888934
0.00746597
0.259714
0.177099
-0.436813
0.423156
-0.217314
-0.00489475
-0.00182274
0.00671749
-0.486613
0.525531
-0.038918
-0.454809
0.331435
0.123374
-0.465341
0.297101
-0.105287
0.480779
0.0135985
0.0757422
-0.0893407
-0.066531
0.0738913
0.230321
-0.157367
0.164639
0.380332
0.511753
-0.282436
-0.229317
-0.449842
0.462671
0.198958
0.145123
-0.631736
-0.145406
0.151749
-0.00629826
0.00201382
0.168197
-0.164613
-0.00358414
0.000306324
0.0114974
0.000314907
0.140436
-0.0682115
0.193562
-0.187098
0.213813
-0.292412
0.316359
-0.0239473
-0.0544821
0.0680806
0.0128067
0.000929113
-0.115788
-0.223167
0.338955
-0.0147448
0.0132867
0.0014581
0.0644631
0.0513754
-0.115838
0.177037
0.141354
0.11766
-0.138719
0.0210595
0.0504954
0.0829498
-0.133445
0.0103203
-0.0118486
0.000711865
-0.00832836
0.395922
-0.419489
0.0235671
-0.0122582
-0.0264841
0.0387423
0.491724
-0.358172
-0.133551
-0.000590057
-0.000256823
0.166936
0.0712786
-0.0321582
0.0137071
-0.0144581
0.000750984
0.000894025
-0.000244524
-0.213889
0.315696
0.196056
0.0127395
-0.0130532
0.000313745
-0.00570923
-0.000589032
-0.0127922
0.000823159
-0.196349
0.223857
0.0142557
-0.0146591
0.000403443
-0.0310985
-0.340693
-0.0912232
0.00644642
-0.0199721
0.0135256
0.16742
0.000777218
0.507075
-0.456287
-0.0507881
-0.145853
0.0186304
0.0114162
-0.0112565
-0.189919
0.016635
0.173284
-0.0919739
-0.00209054
0.00368093
-0.00159039
-0.118864
0.521608
0.0283945
-0.0385458
0.000745463
0.011994
-0.000561603
0.00906367
-0.0116982
0.00458265
0.0716022
0.0119604
-0.00692319
-0.00503716
-0.109568
0.176392
-0.0668238
-0.0467175
-0.0461438
0.0928613
0.000315332
-0.137322
0.137007
-0.00267155
-0.0877252
0.1063
-0.0185747
-0.00207021
0.202797
-0.213443
0.0438754
0.169568
-0.324549
0.454309
0.0122829
-0.0135333
0.00125046
-0.0948336
0.0974626
-0.00262899
0.495461
0.0116142
-0.00659442
-0.00698996
0.0135844
-0.00743006
0.00253531
0.00620334
0.00575701
-0.0201719
0.0154099
0.267558
0.155599
0.00841157
0.0107386
-0.00285757
-0.00457146
-0.00467679
-0.0487159
-0.0366894
0.0854054
0.00720878
0.00372116
-0.264861
0.157235
0.107625
0.00551506
0.0161862
-0.18576
0.15069
-0.00907163
-0.00607531
-0.185016
0.116935
-0.0123682
0.00129847
0.0110698
0.114958
0.000116414
-0.00959384
0.00947743
0.181206
0.0624604
-0.258809
0.130367
-0.180092
0.0497249
0.21565
0.211777
-0.0119736
0.0140159
0.00456506
-0.018581
-0.0359465
0.0117188
0.0242276
0.0300591
-0.0160432
-6.53591e-05
0.0113003
-0.0343996
-0.152515
0.00357539
0.00255272
-0.0061281
0.18093
-0.220131
0.0392007
-0.000809459
0.00422794
-0.00341848
0.0318269
0.0686194
-0.100446
0.0111491
-0.0108808
0.167811
0.26727
-0.43508
-0.0183766
-0.1365
-0.0467415
-0.166702
0.0111949
0.00225821
0.229998
-0.245872
-0.0069003
0.0254563
-0.0407307
0.0251965
0.0155342
-0.286839
-0.169448
0.166384
-0.166812
-0.0875466
-0.196118
0.00944331
-0.0344846
0.0183635
0.0102215
-0.00301267
0.0122704
-0.00321344
0.0701349
-0.310409
0.000747893
0.00717266
-0.00792055
0.106511
-0.304556
-0.162555
0.503549
-0.340994
0.201475
-0.206751
0.00527617
0.281659
0.236282
-0.188749
-0.0475333
0.392279
-0.181516
-0.210763
-0.0140425
0.0138087
0.000233799
-0.298562
0.0281879
0.00558998
-0.00639944
0.262812
-0.371743
0.224373
-0.121442
-0.333367
0.342166
-0.480459
0.138293
0.00883531
-0.00939264
0.00055733
-0.0116843
0.0127184
-0.0010341
-0.000422261
0.0610539
-0.00164332
0.00835964
0.000178296
-0.0118626
-0.0112222
-0.00989271
-0.157777
0.167669
-0.0208779
0.0169542
0.00392375
-0.00521147
0.00355525
0.0136447
-0.0132241
-0.000267085
0.0134912
0.0119873
0.000295549
-0.146762
0.166655
-0.0198937
-0.359562
0.0965041
-0.110169
-0.274913
0.385082
0.0872834
-0.36972
0.128871
-0.0903756
0.188336
0.0183382
-0.206674
-0.175014
-0.341145
0.0181853
-0.271647
-0.111306
-0.153555
-0.0919105
0.0431946
0.00736858
0.283894
-0.590116
0.597947
-0.00783136
0.198855
0.0129224
0.00961476
-0.011741
-0.00625977
0.00646508
-0.000205313
-0.126146
-0.202392
0.000175467
0.00602787
0.0388973
-0.570417
0.0321757
-0.0641804
-0.233287
-0.0487256
-0.243686
-0.344544
0.464332
0.341133
-0.138639
-0.202494
0.245617
-0.190567
0.111754
0.00682502
0.014456
-0.00989085
-0.0139219
0.012966
0.000955828
-0.000760016
-0.0100529
-0.408891
-0.0977821
-0.0187386
-0.00771739
0.00789285
-0.397304
0.249649
-0.494607
0.0658215
-0.0476705
0.00802818
-0.00918533
0.00115715
0.00927789
-0.0123188
0.00304096
0.0482201
-0.2334
0.18518
0.0553947
-0.0254517
0.000741149
-0.114105
0.0782247
0.0358799
0.150202
-0.465991
0.401057
-0.00615748
0.00359319
0.00256429
-0.161142
0.00395746
-0.0145082
0.0105507
-0.0919775
0.132434
0.00284274
-0.00122716
-0.00161557
0.00778892
-0.0125895
0.211444
-0.51049
0.147796
-0.125385
0.0427433
0.0826417
0.00577134
-0.00915845
0.00338712
-0.0874581
-0.00386358
-0.0534482
-0.0104957
0.0639439
0.0010705
-0.00733027
0.0124521
0.0383094
0.0905203
-0.242864
0.152344
0.0163431
0.000551489
-0.0168946
-0.0104975
-0.487053
0.497551
-0.101962
0.121861
-0.019899
0.342704
0.215106
-0.330894
-0.0394302
-0.00624223
0.00793387
-0.00169164
0.0635628
0.0616998
-0.470751
0.0114193
-0.0648675
-0.126871
-0.00656573
-0.0202474
0.0161623
0.00408506
-0.16643
0.156538
-0.0985273
0.301949
-0.203421
-0.121696
0.170778
-0.0490829
0.00613635
-0.00538845
0.666848
-0.511157
-0.155691
0.105282
0.166105
-0.455838
0.0741603
-0.0745826
-0.157913
0.504239
-0.346326
-0.547299
0.547299
-0.104468
-0.0353168
0.139785
0.0137267
-0.00253185
-0.0328621
-0.0414025
0.0742646
0.177661
-0.164434
-0.510044
0.161664
0.450137
-0.316315
-0.133822
-0.0541183
0.000111454
0.0125362
-0.00325827
0.0609165
-0.0609423
0.156906
-0.517846
0.36094
-0.176003
0.175956
4.75176e-05
0.00958788
-0.00381654
0.328445
-0.231501
-0.0969444
0.401764
0.296605
0.141324
-0.141222
-0.000102679
-0.0175213
-0.0184252
-0.142867
-0.090318
0.00203789
-0.0116148
0.00957687
0.211399
-0.00932781
-0.00221736
0.19491
0.0734572
0.202008
0.086245
-0.052766
0.191607
-0.0032717
0.545982
-0.298511
-0.247471
-0.0270173
-0.00746724
-0.431969
0.0912765
0.107632
0.152307
0.0071335
-0.0137279
0.0153379
-0.014919
-0.00041883
0.15058
0.293569
-0.444149
-0.0962163
-0.0178883
-0.0554721
0.365819
-0.310347
0.101459
0.226986
-0.26063
0.347913
0.191263
-0.013262
0.000153814
0.0131082
-0.328147
-0.0449758
0.373122
0.00227596
-0.000587107
-0.00168885
0.165859
-0.00109847
-0.0140806
0.597356
-0.342734
-0.254622
-0.201923
0.199853
0.000317122
-0.0138088
0.0134917
0.177054
0.390323
0.19163
0.00315976
0.000828107
-0.0025623
-0.0538703
0.0619579
-0.00808754
-0.00243498
-0.117149
0.121601
-0.00445226
0.0186814
-0.0196782
0.000996763
-0.427561
-0.0127976
0.00660436
-0.200494
0.19389
0.00220037
7.55843e-05
-0.0563809
0.377015
0.168967
0.391649
-0.137086
-0.254562
-0.0116507
0.000163224
0.36132
-0.0130617
0.0190311
-0.00405753
0.0432231
-0.00982695
0.167438
-0.157611
0.118382
0.127235
-0.00772323
0.00665818
-0.0371399
-0.00276085
-0.391863
-0.0276265
0.027684
-0.144833
0.0179325
-0.15657
0.138637
-0.292669
0.0488199
-0.498661
0.00134398
-0.194567
0.193223
-0.115242
0.118007
0.219044
-0.0431099
-0.175934
0.00775056
0.00200682
0.126036
-0.409842
0.283805
-0.011427
0.0449536
-0.0416698
0.0646713
-0.141269
0.17296
-0.153282
0.234875
-0.414013
0.179139
0.153873
0.201149
-0.00212097
-0.0723293
0.0744503
0.000652154
0.229604
0.126926
-0.35653
-0.00139129
-0.0102293
0.0116206
0.00780267
0.00149125
-0.00929391
-0.100107
0.0462363
-0.00673159
0.11461
0.00996186
-0.00112655
0.00210397
0.000349852
-0.0356132
0.0244411
0.011172
0.317006
-0.0635735
0.11142
0.00360885
-0.501829
0.195888
0.132022
-0.494609
0.0818828
0.137566
-0.274142
0.424722
-0.0318807
0.00738514
0.0433077
-0.0523674
0.00905972
0.0116134
-0.0123181
0.000704642
0.000637887
-0.0132891
0.0126512
0.0331696
0.00526288
-0.0384325
0.0191213
0.00947503
0.00193121
-0.0114062
0.13991
0.00811137
-0.127913
0.0757918
0.0874365
0.113348
-0.0481387
-0.0295033
0.077642
-0.00022562
0.0514496
-0.0512239
-0.0665927
0.0754576
0.396239
-0.161365
0.384973
-0.573373
0.1884
0.000512174
0.00140977
-0.00192194
-0.207454
0.348698
0.0441679
-0.116656
0.0724886
0.121635
-0.502319
-0.179032
-0.0236431
0.202675
0.231912
-0.296093
0.00393794
-0.000362551
-0.187825
-0.00708326
0.194908
-0.185589
0.0238742
0.161715
-0.162844
0.203344
-0.00763219
0.00138996
0.0303181
-0.124526
0.0942079
0.00257538
-0.000350868
-0.230664
-0.445686
0.598688
-0.598688
-0.155925
-0.093621
0.0558537
0.0377673
-0.286723
0.231251
0.0943761
-0.198025
0.0042574
0.193768
-0.0631692
-0.00395643
0.0103195
-0.113934
0.337118
0.12307
0.32201
-0.44508
-0.199058
0.179435
0.0196232
-0.000642906
-0.314694
-0.187135
-0.145652
0.0110457
0.134606
0.0547709
0.0847353
-0.139506
0.0137537
-0.0112214
0.00189358
0.164659
-0.204853
0.040194
0.0776684
0.00365041
-0.0813188
0.369404
-0.51644
0.147035
0.399285
-0.242379
0.00964885
-0.0018983
0.015508
0.0952923
-0.1108
-0.161089
0.151262
0.463989
0.054343
-0.0555023
0.00115933
0.00112446
0.0102146
-0.011339
0.0116022
-0.00212721
-0.141129
-0.00159142
0.381388
-0.146455
-0.234934
0.0827681
0.341964
-0.424732
-0.0768873
0.0616207
-0.000726686
-0.00623858
0.00696526
0.208411
-0.188707
-0.0197043
-0.01082
4.30421e-05
0.0303914
0.455426
0.0481913
0.181667
-0.000737023
0.00225277
0.00510525
-0.00735802
-0.139955
-0.285835
0.425789
0.0009209
-0.00352382
-0.00907177
0.365306
-0.244469
-0.120837
0.00591848
-0.0043449
-0.00157358
-0.0106716
-0.0748875
0.00225624
-0.00683506
-0.0451915
-0.544924
0.00261182
0.20663
-0.209242
-0.0650236
0.0968505
0.0244083
-0.12637
0.00605938
-0.00111723
-0.00908112
0.0101983
-0.00205691
0.211876
-0.0472168
-0.0791814
-0.267112
-0.0183587
-0.170873
0.00171399
0.169159
-0.0496014
0.217613
-0.14753
0.0413302
0.0130128
-0.54482
0.0796897
-0.0364744
0.206954
-0.21409
0.317853
-0.453012
0.135159
-0.0409103
0.105982
-0.0650722
-0.0059429
0.0148107
-0.00886778
0.0528629
-0.00955517
0.00909148
-0.0108142
-0.0253898
0.0362041
0.102209
0.210187
-0.00468278
0.292132
-0.519244
0.227112
0.106185
0.130097
-0.505239
-0.0477791
0.553018
0.0633247
-0.0340523
0.0746332
0.0461419
-0.243582
0.0346797
0.208902
-0.0221008
-0.189639
-0.00534159
0.194981
-0.0109229
0.0110394
-0.00299525
-0.159262
0.162257
0.34276
0.00205917
0.00926471
-0.0113239
0.00988572
-0.00135579
0.420758
0.469625
-0.336039
-0.133585
0.369817
-0.16443
0.00316007
-0.0610906
0.141429
0.0101653
-0.151594
-0.000966628
0.0228631
-0.0485995
0.0257364
0.0229918
-0.0376229
0.0146311
-0.241336
0.192882
0.0941744
-0.430923
0.197607
0.246012
-0.0248652
-0.221147
0.00565958
-0.0126574
0.00699784
-0.0203606
0.0533133
-0.00568142
-0.00882679
0.131471
0.122948
-0.0820111
0.317804
-0.235793
0.565509
-0.404816
-0.160693
0.478952
0.344957
-0.51127
0.166313
-0.321542
0.444613
0.0234556
-0.0051708
-0.0182848
-0.181512
0.1743
-0.0246249
-0.0754818
-0.000574489
0.00135218
0.0088108
-0.010163
-0.22135
0.0690133
0.191551
0.0102812
-0.0317697
0.0214884
0.441973
-0.124121
-0.180941
0.119908