/*--------------------------------*- C++ -*----------------------------------*\
| =========                 |                                                 |
| \\      /  F ield         | OpenFOAM: The Open Source CFD Toolbox           |
|  \\    /   O peration     | Version:  v2012                                 |
|   \\  /    A nd           | Website:  www.openfoam.com                      |
|    \\/     M anipulation  |                                                 |
\*---------------------------------------------------------------------------*/
FoamFile
{
    version     2.0;
    format      ascii;
    class       volVectorField;
    location    "350";
    object      U;
}
// * * * * * * * * * * * * * * * * * * * * * * * * * * * * * * * * * * * * * //

dimensions      [0 1 -1 0 0 0 0];


internalField   nonuniform List<vector> 
14479
(
(1.17907 -0.155489 0)
(1.0488 -0.221786 -1.45939e-20)
(1.08363 -0.12307 -2.47252e-20)
(-0.216148 -0.0426403 7.75089e-21)
(0.955801 -0.474555 0)
(-0.255656 -0.0472283 1.05913e-20)
(0.99999 -0.00426714 -3.74965e-21)
(1.03219 -0.00530126 -2.04969e-20)
(1.02802 -0.0591692 0)
(-0.171701 -0.0312855 0)
(0.957617 -0.417453 2.03085e-21)
(-0.220239 -0.0431189 3.64368e-20)
(-0.241427 -0.0440787 -1.42002e-19)
(-0.244498 -0.0433933 1.50188e-19)
(-0.183426 -0.0420706 0)
(-0.0493625 -0.0412129 -6.75883e-20)
(1.33044 -0.169456 7.42744e-20)
(0.421531 0.0773157 2.32955e-21)
(0.281443 -0.0163647 -2.10722e-19)
(1.25765 -0.0104424 8.79558e-20)
(1.0124 -0.0209175 0)
(1.03086 -0.0987772 4.85563e-21)
(-0.0721693 -0.0352292 3.94927e-20)
(1.28374 -0.204717 1.01103e-19)
(1.02742 -0.0605428 4.56458e-21)
(0.74177 0.0994308 5.3961e-20)
(0.927358 -0.299287 -3.49323e-20)
(-0.17087 -0.0314959 3.53943e-20)
(1.30237 -0.322367 2.37276e-20)
(-0.177435 -0.0417133 1.54444e-20)
(0.522425 0.0681115 4.34584e-21)
(-0.244207 -0.0447476 0)
(0.248247 -0.0129331 2.51341e-19)
(1.03445 -0.0115555 2.74701e-20)
(1.08425 -0.0442311 0)
(1.05363 -0.000777168 5.65802e-21)
(0.993553 -0.0190449 5.70864e-21)
(-0.0906182 -0.0328357 1.18619e-21)
(1.06979 -0.128625 7.06868e-22)
(0.867722 0.280844 0)
(-0.17256 -0.041757 1.31334e-19)
(1.06745 -0.12584 0)
(0.869751 -0.0813524 3.18584e-20)
(1.10906 -0.0791881 0)
(0.00118805 -0.0550682 4.28297e-20)
(1.24311 -0.102369 0)
(-0.148312 -0.0281176 0)
(-0.273016 -0.0473916 -8.49146e-20)
(1.07808 -0.0629979 2.21068e-20)
(0.725816 0.143375 -1.20219e-19)
(1.01502 -0.0337929 0)
(0.598447 -0.0189753 -8.69654e-20)
(1.13333 -0.441943 0)
(1.26094 -0.168348 -7.25466e-20)
(1.07798 -0.0610007 -2.46651e-20)
(0.982926 -0.0447617 2.76045e-22)
(1.15635 -0.278462 -8.29105e-20)
(-0.175197 -0.0359618 0)
(1.05352 -0.00061181 0)
(1.26715 -0.127217 0)
(1.07701 -0.128128 -4.64431e-21)
(1.06068 -0.0332005 0)
(0.390414 -0.152972 1.15473e-19)
(1.23509 -0.245914 3.92176e-20)
(1.29996 -0.00422427 -1.24778e-19)
(-0.251455 -0.0459254 0)
(1.15661 -0.0940159 0)
(0.886974 -0.0842972 -4.05325e-20)
(0.478377 -0.0820755 6.93717e-20)
(0.772152 -0.0482128 0)
(-0.25536 -0.0437642 -1.41685e-19)
(1.26728 -0.0168066 0)
(-0.0505278 -0.0303341 1.93522e-19)
(0.284973 -0.0952215 -8.00043e-20)
(1.01143 -0.0204965 0)
(1.02577 -0.0604381 -5.69908e-21)
(-0.255592 -0.0443938 9.46355e-20)
(-0.209677 -0.0428359 -3.88132e-20)
(0.171108 -0.0100082 1.63413e-19)
(-0.258151 -0.0446243 1.09054e-19)
(0.539584 -0.161717 0)
(1.00201 -0.00263684 1.8116e-21)
(1.1628 -0.0467928 -2.6709e-20)
(1.26531 -0.013625 0)
(1.09382 -0.00827501 3.22615e-20)
(1.23799 -0.100143 0)
(1.28244 0.00561961 -9.22847e-20)
(1.00733 -0.0316646 -2.40687e-21)
(-0.258444 -0.0447392 -1.07084e-19)
(1.01499 -0.0471413 3.94671e-22)
(-0.210746 -0.0388917 3.79488e-20)
(-0.247751 -0.0454994 2.48466e-20)
(-0.267647 -0.0486425 0)
(-0.121217 -0.0380397 5.86593e-20)
(1.16614 -0.024274 5.18914e-20)
(0.253551 -0.0149257 6.79575e-20)
(1.0903 -0.0241111 1.48157e-20)
(-0.218312 -0.0400061 -6.16944e-20)
(1.14839 -0.0483973 0)
(-0.0956599 -0.0247047 -3.13564e-20)
(0.580871 0.0754634 0)
(-0.164052 -0.0346919 0)
(1.26893 -0.132063 0)
(1.0202 -0.00398857 0)
(1.15143 -0.050087 5.3611e-20)
(1.05165 -0.00108842 1.78305e-20)
(1.27405 0.000312551 9.93308e-20)
(-0.0350207 -0.0307306 -1.58834e-19)
(1.15947 -0.286537 -3.11009e-21)
(-0.179368 -0.0418227 -2.10927e-19)
(1.14203 -0.0648979 1.80149e-20)
(1.08647 -0.0648458 0)
(0.789319 0.114138 8.68948e-21)
(1.26561 -0.166417 9.18437e-20)
(0.934273 -0.293657 0)
(0.947797 -0.106086 -5.60508e-20)
(1.02433 -0.0593057 0)
(0.415938 -0.135156 1.57669e-19)
(0.93736 -0.053594 1.10984e-21)
(1.27375 0.00257398 -8.80235e-20)
(1.08259 -0.042355 1.32139e-20)
(1.00454 -0.0178495 0)
(-0.239752 -0.0444483 0)
(1.1073 -0.13272 -1.92596e-20)
(-0.171813 -0.0370624 4.89498e-20)
(1.06304 -0.0113433 2.50105e-20)
(1.12768 -0.0376884 3.12828e-20)
(0.975935 -0.0329477 3.08388e-20)
(1.0611 -0.00835515 0)
(-0.179577 -0.0367719 0)
(1.07044 -0.0146777 1.87904e-20)
(1.30399 -0.11843 -1.37177e-19)
(0.339834 -0.109709 0)
(1.06363 -0.0133534 -3.15574e-20)
(1.25029 -0.0777127 -8.18546e-20)
(1.1228 -0.33247 -3.80329e-21)
(0.688841 -0.564269 1.81274e-20)
(0.965421 -0.0459126 5.26486e-21)
(0.614743 -0.0198111 -7.5355e-23)
(-0.215804 -0.042431 -1.31817e-19)
(1.07128 -0.0378646 3.34214e-20)
(-0.25435 -0.045664 -9.50885e-20)
(1.11243 -0.0803796 0)
(0.658753 0.352845 3.02548e-20)
(1.22873 -0.242226 6.97717e-20)
(1.09163 -0.00739491 -5.29114e-20)
(-0.0276034 -0.0236594 0)
(1.05152 -0.0514972 1.73496e-20)
(1.16443 -0.15259 0)
(1.04406 -0.0971697 -1.91763e-21)
(0.231504 -0.0149533 -1.29335e-19)
(1.08622 -0.120973 2.73021e-20)
(1.01296 -0.0221716 1.01175e-21)
(1.29671 -0.182734 -5.27108e-20)
(1.32325 -0.167597 0)
(1.1765 0.0056784 1.3775e-20)
(-0.184924 -0.0313963 4.0206e-20)
(0.999935 -0.00277317 -2.39253e-20)
(0.493226 0.0118948 -6.09606e-20)
(0.197734 -0.0104984 -9.81767e-20)
(-0.18065 -0.0304122 -1.26397e-19)
(0.421397 -0.0437041 -1.12233e-19)
(0.207661 -0.0105217 -7.60245e-20)
(1.2798 0.00251856 1.13978e-19)
(-0.0698869 -0.0240932 8.02789e-20)
(-0.270016 -0.0459267 7.25546e-20)
(1.06538 -0.00415619 1.60058e-20)
(0.725574 0.100085 0)
(1.0143 -0.0340253 0)
(1.09181 -0.0254035 1.38664e-20)
(1.07578 -0.0153997 -4.35052e-20)
(1.23714 -0.0957978 0)
(0.983463 -0.0427012 1.92139e-20)
(1.27163 -0.00161589 1.14414e-19)
(0.995556 -0.0455187 1.22635e-20)
(1.07856 -0.464457 -2.64053e-20)
(1.00532 -0.0293728 6.28559e-22)
(1.10018 -0.0248242 -1.19825e-20)
(0.904815 -0.402495 0)
(0.988128 -0.0904352 1.44869e-20)
(0.679242 -0.604561 9.0795e-21)
(1.01083 -0.019325 0)
(0.940741 -0.0542745 0)
(-0.265569 -0.048179 -4.28382e-20)
(1.00645 -0.0219599 0)
(1.05433 -0.324184 -2.24614e-20)
(0.87513 -0.0803474 -2.77094e-20)
(0.896843 -0.0536778 2.63802e-20)
(0.757779 -0.551365 4.30347e-20)
(0.702937 0.373765 -5.3238e-20)
(1.00472 -0.0203394 -1.47347e-21)
(-0.0166886 -0.0167826 2.5576e-20)
(1.1506 -0.0615332 0)
(0.99998 -0.00311439 7.69239e-21)
(-0.254225 -0.0453082 -2.40257e-19)
(0.181228 -0.0109395 1.09292e-19)
(0.731466 -0.541935 -4.63605e-20)
(0.157528 0.000763625 8.79298e-20)
(1.12752 -0.1252 -6.10584e-21)
(0.995944 -0.0442029 -1.13869e-20)
(0.946496 -0.101373 4.42382e-20)
(1.32338 -0.121263 -1.1522e-19)
(0.938783 -0.05346 -5.08185e-20)
(1.22994 -0.348533 3.54036e-20)
(-0.253242 -0.046007 1.84861e-19)
(0.946431 -0.0904157 1.64828e-20)
(0.967763 -0.0455788 0)
(1.27349 -0.0203892 -1.09597e-19)
(1.10021 -0.0228943 0)
(1.06034 -0.333283 2.49156e-20)
(-0.103707 -0.0301525 7.34491e-20)
(-0.0504971 -0.0149414 0)
(0.970527 -0.0884045 0)
(0.888344 -0.0787964 5.56686e-20)
(1.01768 -0.0338571 -4.79068e-21)
(1.27884 -0.122869 7.95473e-20)
(-0.0941404 -0.0234657 -1.38027e-20)
(-0.203228 -0.0397224 0)
(0.993674 -0.017875 0)
(1.15796 -0.158192 6.01436e-20)
(0.838128 -0.559448 0)
(-0.200126 -0.0410945 -1.09015e-20)
(0.0388783 -0.0127722 0)
(1.17348 -0.0470429 -6.41057e-20)
(0.263849 -0.46777 7.60518e-20)
(-0.221577 -0.0430417 0)
(1.03776 -0.103549 -1.28507e-21)
(1.08374 -0.0635939 0)
(0.786775 0.163801 0)
(1.00674 -0.0305103 2.24029e-21)
(0.959179 -0.0673067 -2.41084e-20)
(1.00045 -0.00485776 -8.85904e-22)
(1.0411 -0.194532 0)
(-0.239015 -0.0441769 -2.73328e-20)
(0.901124 -0.0436849 -4.91656e-20)
(0.945268 -0.0933336 2.27175e-20)
(1.16221 -0.272175 -2.09371e-21)
(0.215148 -0.417098 -1.08561e-21)
(0.99333 -0.0162543 -1.2255e-20)
(1.02976 -0.0780223 -4.81732e-21)
(-0.217477 -0.0422612 -5.94198e-20)
(1.27363 -0.112199 3.99599e-20)
(1.14705 -0.0618634 -2.44248e-20)
(0.741727 0.118012 -1.19325e-19)
(-0.0607989 -0.0172531 2.41003e-20)
(-0.0876611 -0.0287114 -6.75906e-20)
(1.06556 -0.0345521 0)
(1.01541 -0.0491364 0)
(0.387184 0.0486454 7.90049e-21)
(-0.25539 -0.0455642 -1.25969e-19)
(1.03115 -0.00453318 2.05058e-20)
(1.26951 -0.0908833 3.00237e-20)
(1.01281 -0.00180499 -3.40268e-22)
(1.06179 -0.0103404 -1.37959e-20)
(-0.25859 -0.0458182 1.05848e-19)
(1.30157 -0.173656 -2.65545e-20)
(0.994448 -0.0235101 1.12946e-20)
(1.30265 -0.327001 8.67232e-20)
(0.727487 0.091038 0)
(1.28833 -0.20138 -1.14191e-19)
(0.622842 -0.17473 -4.17423e-20)
(0.545671 -0.0639272 2.69835e-20)
(-0.252244 -0.045047 2.38009e-19)
(1.25205 -0.081647 1.0121e-19)
(1.00199 -0.0265173 0)
(1.05727 -0.203209 2.15321e-20)
(1.00144 -0.0259477 0)
(0.0251536 -0.0142834 4.78832e-20)
(-0.159305 -0.0378134 -1.56402e-19)
(0.42637 -0.0764272 7.01768e-20)
(-0.00612937 -0.0215201 0)
(0.974311 -0.0330958 -3.9874e-20)
(-0.272512 -0.0487905 0)
(0.954102 -0.0259797 0)
(0.99119 -0.0918169 5.20844e-21)
(-0.278209 -0.0484028 2.68326e-20)
(-0.0278037 -0.031433 2.22802e-20)
(1.08229 -0.0388062 -1.50841e-20)
(-0.245175 -0.0453681 1.2485e-19)
(-0.145113 -0.0347311 -2.36614e-23)
(-0.275589 -0.0490301 -2.35813e-20)
(-0.245558 -0.0456081 0)
(-0.169852 -0.0288964 0)
(0.591741 -0.17632 0)
(1.00156 -0.00919039 -3.14174e-22)
(0.994101 -0.0154734 -1.19633e-20)
(0.0925714 -0.0171454 -1.1666e-19)
(0.95456 -0.0275715 2.76134e-20)
(-0.0636494 -0.0369483 -7.94851e-20)
(-0.253644 -0.0452914 -1.73443e-19)
(0.882638 0.132426 -1.55219e-20)
(0.665496 0.11097 1.18659e-20)
(1.11525 -0.328103 -5.02726e-23)
(-0.257901 -0.0463348 -4.61129e-20)
(0.985183 -0.0421372 0)
(1.16336 -0.157724 2.64497e-20)
(1.00166 -0.0614759 0)
(0.714154 -0.0249193 -2.88789e-20)
(1.06674 -0.00474197 6.52782e-23)
(0.987385 -0.188633 1.03531e-20)
(1.01658 -0.0333495 4.10323e-21)
(-0.231256 -0.044171 -1.71323e-19)
(1.06547 -0.0314419 4.71437e-23)
(1.20426 -0.034777 -1.01053e-19)
(1.15649 -0.162579 -8.59637e-20)
(-0.228067 -0.0422643 -5.50513e-20)
(0.461869 0.0062993 -6.65763e-20)
(1.22937 -0.341937 0)
(1.11156 -0.0412184 -2.35692e-20)
(1.12551 -0.0332597 1.57014e-20)
(-0.195299 -0.0400911 0)
(0.938559 -0.414778 0)
(1.10421 -0.398742 3.25744e-21)
(1.05305 -0.0554808 -1.6284e-20)
(1.03194 -0.0793186 7.23817e-22)
(0.999795 -0.00374791 6.67574e-21)
(-0.219976 -0.0428301 7.82295e-20)
(1.03203 -0.277903 0)
(1.0053 -0.0281959 1.17126e-21)
(1.0186 -0.00263289 -1.41824e-20)
(0.970015 -0.0912927 0)
(0.992978 -0.0133891 1.57961e-20)
(0.960852 -0.0699209 2.74948e-20)
(-0.281324 -0.0489493 0)
(1.31582 -0.14651 0)
(0.626438 0.103793 6.88883e-22)
(0.299932 -0.018278 0)
(0.948765 -0.454402 0)
(-0.242104 -0.0454884 0)
(1.03739 -0.0442598 4.4194e-21)
(1.18012 0.00476995 0)
(1.20928 -0.0210082 0)
(0.179783 0.00125324 -4.00482e-20)
(-0.236752 -0.0440517 9.43954e-20)
(1.32216 -0.144283 3.02754e-20)
(1.02276 -0.00229436 0)
(0.99486 -0.167587 0)
(1.26987 -0.158365 5.42667e-21)
(0.876718 0.271954 3.24997e-20)
(1.18924 -0.181013 -1.76564e-20)
(0.294001 -0.0216257 0)
(1.15331 -0.0950623 0)
(-0.25434 -0.0454949 1.19301e-19)
(1.03329 -0.0117641 0)
(-0.15296 -0.0371782 9.66341e-20)
(1.06838 -0.00611189 -1.0137e-20)
(-0.246876 -0.0453785 0)
(-0.00441301 -0.0153889 9.32467e-20)
(1.06889 -0.00702814 2.2113e-20)
(1.19512 -0.179017 -3.73429e-20)
(-0.129656 -0.0384741 -6.44708e-20)
(-0.248643 -0.0461759 0)
(1.07623 -0.124709 -6.12648e-21)
(1.01426 -0.0366376 0)
(-0.27672 -0.0487614 0)
(1.00748 -0.0170189 -1.83723e-21)
(1.05153 -0.0344602 1.53868e-20)
(-0.200967 -0.040391 -8.65148e-20)
(1.12736 -0.0400328 0)
(1.01842 -0.0586352 3.6706e-22)
(1.02137 -0.058969 3.5308e-22)
(-0.11638 -0.0330236 0)
(-0.24295 -0.0449823 -1.22252e-19)
(1.02286 -0.0602968 0)
(-0.248551 -0.0456238 -8.22397e-20)
(1.16524 -0.05619 0)
(0.696913 -0.0669686 -3.7554e-20)
(-0.23549 -0.0432474 5.44894e-20)
(-0.245916 -0.0456821 -2.83825e-20)
(0.246867 -0.049274 1.20865e-19)
(1.28822 -0.0753951 0)
(0.117203 -0.0251176 9.24847e-21)
(1.24429 -0.0735349 8.90738e-20)
(0.751679 -0.893072 0)
(0.0865338 -0.0623197 2.05287e-19)
(0.657567 -0.0783587 2.5864e-20)
(1.26026 -0.0138556 -8.92297e-20)
(0.830524 -0.237344 -2.94184e-20)
(1.26252 -0.296528 4.65708e-20)
(1.00011 -0.0618119 1.03585e-20)
(1.0518 -0.049993 0)
(1.16897 -0.0256999 -2.01744e-20)
(0.9632 -0.437955 -2.01798e-21)
(0.700146 -0.0168001 0)
(0.0946818 -0.0261474 0)
(1.22434 -0.229195 -4.94985e-20)
(1.00681 -0.0144418 5.08094e-22)
(1.28058 -0.236832 -7.51252e-20)
(0.990327 -0.0155972 -1.49914e-20)
(1.28206 -0.109492 9.46854e-21)
(1.20133 -0.171108 1.18676e-20)
(1.18067 -0.0558063 3.46884e-20)
(0.968852 0.175591 -5.70437e-21)
(-0.223811 -0.0415223 -8.62083e-20)
(0.823742 -0.0423882 -1.64548e-19)
(-0.0295146 -0.0126721 9.34429e-20)
(0.709164 -0.684662 -9.6201e-21)
(0.458132 -1.14071 0)
(1.03598 -0.0442893 -4.01729e-21)
(1.00188 -0.00628581 1.13085e-21)
(0.492553 -0.0543432 1.08177e-19)
(-0.275105 -0.0491069 -1.2201e-20)
(-0.159555 -0.0381396 9.09285e-20)
(1.15167 -0.116561 2.63013e-20)
(-0.0726476 -0.0431451 -2.40696e-19)
(1.12292 -0.0316548 -2.89284e-20)
(-0.202552 -0.0394715 -1.17206e-19)
(-0.235031 -0.0447355 1.33094e-19)
(0.740368 0.150563 0)
(1.0506 -0.0335602 0)
(-0.171642 -0.0315365 0)
(-0.254556 -0.0432347 5.24881e-20)
(1.00664 -0.0232123 3.70104e-22)
(1.00221 -0.00703976 -7.77023e-22)
(0.0770256 0.263278 1.55011e-19)
(1.02967 -0.0101346 -1.15891e-20)
(0.996231 0.189326 1.18578e-20)
(1.12584 -0.453138 0)
(1.00167 -0.0026193 -1.79595e-21)
(1.08508 -0.176906 4.76261e-21)
(1.10196 -0.126057 -3.07827e-20)
(1.04216 -0.224034 1.55302e-20)
(0.86723 -0.0138829 7.97025e-20)
(1.27812 -0.0810742 -6.79677e-20)
(0.25965 -0.0163759 0)
(1.03773 -0.209704 4.32384e-21)
(-0.195631 -0.0402686 8.14243e-20)
(1.01161 -0.0250655 6.66679e-22)
(0.998575 -0.16392 -7.08514e-21)
(1.00845 0.299466 9.69306e-22)
(0.622351 -0.236901 0)
(1.22981 -0.234548 -9.20498e-20)
(-0.191584 -0.0332376 6.9409e-21)
(1.07745 -0.0822063 3.43989e-20)
(1.04376 -0.207921 -2.47253e-21)
(-0.0352823 -0.0203441 0)
(1.20226 -0.0325099 1.14408e-19)
(-0.0361734 -0.00915516 0)
(0.62178 0.101698 -7.8457e-22)
(1.28727 -0.226747 -1.04752e-19)
(-0.273065 -0.0488672 -5.17182e-20)
(-0.164698 -0.0311808 0)
(-0.236238 -0.043505 0)
(1.01191 -0.0243173 -6.02459e-22)
(1.26589 -0.159614 0)
(1.12916 -0.121865 0)
(0.760694 0.135919 -4.35457e-20)
(-0.152439 -0.0371466 -7.91132e-20)
(1.13983 -0.0619885 -2.38151e-20)
(1.08911 -0.099186 -1.34117e-20)
(0.994634 -0.0111552 0)
(0.669472 -0.702748 9.18977e-21)
(1.27539 -0.103869 8.69429e-20)
(1.27071 -0.109889 -1.76324e-20)
(1.00001 -0.00122614 -4.54767e-21)
(1.29174 -0.185116 3.05431e-20)
(1.06123 -0.034707 0)
(1.27167 -0.0945513 0)
(0.180869 -0.050783 1.63306e-19)
(-0.178202 -0.037879 0)
(1.14729 -0.0132413 -2.15194e-20)
(0.977536 -0.0385991 7.26589e-21)
(0.564227 0.0063278 -6.66908e-20)
(1.1152 -0.405042 -1.91838e-20)
(0.813572 -0.015209 -2.95001e-20)
(-0.221917 -0.0420293 9.34388e-20)
(1.09781 -0.124616 0)
(-0.0461873 -0.0312598 0)
(-0.238571 -0.0443357 -2.60646e-20)
(1.06219 -0.0092447 -1.90592e-22)
(1.05167 -0.00149521 -2.89443e-20)
(1.01201 -0.00221801 -2.79182e-21)
(-0.230384 -0.0433516 0)
(0.0495347 -0.0189627 8.90692e-20)
(-0.254856 -0.0459585 1.45782e-19)
(0.290816 -0.459908 -1.90784e-19)
(-0.194733 -0.0396378 2.64399e-20)
(-0.223579 -0.0415222 0)
(0.841337 -0.236423 2.95348e-20)
(1.29358 -0.224671 1.20396e-19)
(1.04137 -0.0973408 0)
(-0.0509812 -0.0361947 9.45196e-20)
(1.22448 -0.005212 3.65163e-20)
(0.61659 -0.384451 -1.4986e-19)
(1.11897 -0.0492248 -4.32113e-20)
(0.752845 0.14506 0)
(1.04765 -0.0350977 5.61999e-21)
(0.413007 -0.0710982 -7.42179e-20)
(0.758347 0.440268 2.51348e-20)
(-0.0506216 -0.0159025 0)
(0.139998 -0.0542028 9.74586e-20)
(1.00194 -0.0133184 -4.2823e-21)
(1.02869 -0.0105057 0)
(-0.104242 -0.0255589 -3.29996e-20)
(-0.208952 -0.0384329 -5.49172e-20)
(1.07152 -0.0346461 1.13639e-20)
(1.18029 -0.151447 -1.73956e-20)
(-0.216344 -0.0422559 6.65246e-20)
(1.29889 -0.0711782 4.8817e-20)
(1.13105 -0.0852373 -4.94783e-20)
(0.900879 -0.0543962 1.58859e-21)
(1.30096 -0.0738614 -3.31856e-21)
(1.11888 -0.119146 -2.01754e-20)
(0.985558 -0.0400391 -1.81063e-20)
(-0.22777 -0.0433278 -6.99011e-20)
(-0.277903 -0.0484426 0)
(0.241924 -0.0135029 -1.26901e-19)
(1.17975 -0.0590425 0)
(1.08376 -0.040588 3.13199e-20)
(-0.214256 -0.04295 6.07226e-20)
(1.04565 -0.199849 -9.11313e-21)
(1.23978 -0.072377 0)
(1.16621 -0.0210177 0)
(-0.26862 -0.0480226 1.05762e-19)
(1.05293 -0.0261749 1.0338e-20)
(1.00478 -0.0190013 -4.64685e-22)
(1.00171 -0.0101477 -5.97701e-23)
(1.00183 -0.0318575 -1.44373e-21)
(-0.272093 -0.0465125 -2.54562e-20)
(1.22644 -0.273145 0)
(0.411074 0.00601597 -8.94602e-20)
(-0.193395 -0.0395086 0)
(0.497106 0.00634279 1.44975e-19)
(-0.0576143 -0.0423609 2.48132e-19)
(-0.0606298 -0.016486 0)
(-0.0390652 -0.0214938 0)
(1.07127 -0.0184163 9.39174e-21)
(1.14629 -0.0108148 0)
(0.813927 -0.0540556 4.68283e-20)
(-0.199351 -0.0420517 -1.31312e-19)
(0.995252 -0.0147138 0)
(1.23344 -0.271146 0)
(0.900137 -0.0239369 4.7704e-20)
(0.147048 -0.0495671 -1.81172e-19)
(1.20378 -0.0375268 -4.46977e-20)
(1.25983 -0.00651509 0)
(1.09793 -0.442675 -3.5854e-20)
(-0.271348 -0.0478192 2.42918e-19)
(1.00337 0.288973 0)
(0.14982 -0.0338546 1.4635e-19)
(-0.256483 -0.0451853 -1.11804e-19)
(0.0462498 -0.035388 -1.80829e-19)
(1.18547 -0.00991337 -2.20547e-20)
(-0.271473 -0.0462226 -2.09951e-20)
(1.05353 -0.0538155 1.06437e-22)
(0.989746 -0.0151501 -1.73115e-20)
(0.317898 -0.0215057 0)
(0.994008 -0.0116752 -2.90602e-20)
(1.08 -0.082152 0)
(1.18654 -0.00771072 4.37256e-20)
(1.17916 -0.0697327 -8.08236e-20)
(1.0921 -0.475037 2.30665e-20)
(1.04346 -0.0191716 1.72637e-20)
(0.989921 -0.0167153 3.31974e-20)
(1.30422 -0.317078 -2.57724e-20)
(1.00244 -0.0589328 8.45966e-21)
(-0.280532 -0.0499925 -4.76106e-20)
(-0.22747 -0.0424547 1.32725e-19)
(-0.217736 -0.0424682 1.51559e-19)
(-0.224845 -0.0420673 -9.21266e-20)
(1.05532 -0.209964 -2.08488e-20)
(-0.182927 -0.0384938 1.04223e-19)
(0.859965 -0.0136576 2.20725e-20)
(-0.0548127 -0.0112937 0)
(1.06439 -0.0327591 2.38145e-20)
(1.29547 -0.175645 5.03629e-20)
(0.855922 -0.253316 -1.22165e-20)
(1.05133 -0.025538 -1.53582e-20)
(1.0725 -0.0369548 -1.32068e-20)
(1.14566 -0.0649846 -2.60872e-20)
(0.85888 -0.0199584 0)
(1.04478 -0.0197848 -2.90775e-20)
(-0.101938 -0.0166037 -4.70003e-20)
(0.103387 0.216776 3.51622e-21)
(1.11454 -0.117339 6.57155e-20)
(-0.230286 -0.0436276 7.14805e-20)
(1.31931 0.00799569 4.07576e-20)
(1.07318 -0.0106035 0)
(0.929962 -0.147045 7.23854e-20)
(1.27205 -0.193001 5.76599e-22)
(-0.235052 -0.0438632 0)
(1.07433 -0.0129398 -4.12542e-20)
(1.1221 -0.23252 0)
(1.14079 -0.0212668 -1.8287e-20)
(0.0486912 -0.0358568 -9.58432e-20)
(1.06207 -0.032169 -1.46426e-20)
(1.04619 -0.0178766 -1.89148e-20)
(-0.00298154 -0.0161396 0)
(-0.246167 -0.0458924 0)
(-0.270436 -0.045868 -2.20351e-20)
(0.728041 0.0745896 -1.79131e-20)
(1.00172 -0.00665741 0)
(0.999067 -0.0381048 0)
(0.632852 -0.112619 -6.40314e-20)
(-0.250422 -0.043234 0)
(0.973176 -0.0486001 0)
(1.02202 -0.00980947 -4.53249e-21)
(0.994634 -0.0156442 0)
(0.971811 -0.113757 2.79025e-20)
(0.978557 -0.0365994 -2.06821e-20)
(0.129995 -0.011964 0)
(1.00261 -0.0267175 -7.52162e-21)
(0.510128 -0.932464 -3.5941e-21)
(0.338657 0.00379421 3.79519e-20)
(0.414283 -0.167855 -5.65221e-20)
(1.0625 -0.0124255 1.44277e-20)
(-0.246563 -0.043808 5.44681e-20)
(-0.177766 -0.0379307 -8.04852e-20)
(0.955768 -0.0620979 2.90986e-20)
(1.11544 -0.28558 9.53509e-21)
(0.981643 -0.0654292 0)
(-0.216992 -0.0422603 1.19797e-19)
(1.08176 -0.238501 0)
(1.0122 -0.0342797 -2.02215e-22)
(1.0046 -0.0268578 -5.44138e-21)
(0.999265 -0.0364948 -4.28233e-21)
(-0.243123 -0.045377 0)
(0.532993 -0.386531 -8.91762e-20)
(0.215513 -0.0105823 9.47893e-20)
(0.987105 -0.0394294 -3.80183e-21)
(1.04692 -0.0192005 1.12652e-20)
(1.21035 -0.0242788 2.95052e-20)
(1.18284 0.00608449 -5.34234e-20)
(1.12788 -0.0849173 5.05509e-20)
(0.112769 -0.0126096 -5.39658e-20)
(-0.271166 -0.0455931 2.03724e-20)
(1.04939 -0.0362699 0)
(1.00904 -0.0240513 3.97114e-22)
(1.16243 -0.0196037 7.91618e-20)
(-0.0162074 -0.0162016 -8.92704e-20)
(1.21664 -0.105622 8.02035e-20)
(1.16649 -0.045743 0)
(1.00165 -0.00680926 -9.12095e-23)
(1.29196 -0.312133 6.36098e-20)
(1.06963 -0.235173 -9.75311e-22)
(1.00859 -0.0245 2.42133e-22)
(1.04646 -0.0106151 0)
(1.31297 0.00549228 -7.08305e-20)
(1.07444 -0.343971 -4.19655e-21)
(0.994367 -0.0225058 7.16447e-21)
(0.739155 -0.230523 0)
(1.30304 -0.18651 0)
(1.00782 -0.0236658 -5.65286e-22)
(0.767578 -0.0531598 0)
(-0.270966 -0.0480672 -2.1395e-19)
(1.07365 -0.00976646 1.19628e-20)
(0.982182 -0.121803 -9.75501e-21)
(1.00644 -0.0729141 0)
(1.17072 -0.0410485 3.05899e-20)
(0.0274196 -0.0362836 1.31858e-20)
(0.204609 -0.0574375 1.65506e-19)
(1.28097 0.00836259 -6.95919e-20)
(1.00973 -0.0247614 2.34372e-22)
(-0.220943 -0.0427244 -6.58123e-20)
(-0.257668 -0.0441106 6.68252e-20)
(0.553424 -0.151518 7.80842e-20)
(0.0200457 -0.0206292 -1.81619e-20)
(1.02781 -0.269737 0)
(0.983002 -0.021574 1.72588e-20)
(1.12338 -0.029013 0)
(0.642241 0.108593 -1.14578e-20)
(1.02143 -0.00399869 8.23146e-21)
(1.07285 -0.0340016 1.37771e-20)
(-0.0365585 -0.0208764 2.74203e-20)
(-0.0914829 -0.037461 -5.43893e-20)
(1.11355 -0.0431228 2.85561e-20)
(1.0046 -0.0733746 0)
(0.665235 -0.543575 -2.97294e-21)
(0.214761 -0.0221 0)
(1.00942 -0.0175881 2.029e-21)
(1.02131 -0.00890545 0)
(1.04834 -0.151203 0)
(-0.240918 -0.0446826 9.88974e-20)
(-0.18268 -0.0417429 0)
(0.861332 -0.840658 3.78357e-20)
(0.656297 0.311838 9.19986e-20)
(0.0167713 -0.0212864 -1.90063e-20)
(0.868769 -0.145091 0)
(-0.267729 -0.0483035 2.49129e-20)
(1.22285 -0.00856865 3.79574e-20)
(1.03394 -0.0426445 4.09082e-21)
(1.14374 -0.0202859 -5.46445e-21)
(-0.255367 -0.0456505 0)
(1.01204 -0.0334065 2.37363e-23)
(-0.258219 -0.0460046 0)
(1.11005 -0.130002 0)
(-0.133663 -0.0335247 -3.97896e-20)
(-0.276493 -0.0475946 0)
(0.853868 -0.244101 3.55495e-20)
(0.871855 -0.0571306 -8.73486e-20)
(0.98368 -0.0651762 0)
(1.07763 -0.234153 0)
(0.121252 -0.0099257 -4.79214e-20)
(1.31869 0.0150873 0)
(-0.197801 -0.0330858 -7.16803e-21)
(0.282985 -0.0344981 0)
(0.0329543 -0.0207066 -1.70436e-20)
(0.240548 -0.0422737 -1.84168e-20)
(1.00806 -0.162167 -2.19509e-21)
(1.27811 -0.304498 7.09622e-20)
(-0.133865 -0.0333787 -4.52028e-20)
(-0.08632 -0.031183 -1.72547e-19)
(0.461151 0.011945 -3.54909e-20)
(1.03573 -0.0315477 1.63991e-20)
(1.27808 -0.307307 0)
(0.275883 -0.0194068 0)
(1.28754 -0.234897 1.38769e-19)
(0.24223 -0.0218161 1.19615e-19)
(1.12075 -0.0273634 -1.37581e-20)
(0.923373 -0.284468 0)
(1.01334 -0.0241668 -3.69401e-21)
(0.911248 -0.066348 -5.45707e-22)
(-0.253844 -0.0422269 -9.676e-20)
(-0.255966 -0.0452734 -8.01937e-20)
(-0.25585 -0.0445493 2.46678e-20)
(1.07408 -0.0295122 0)
(0.96886 -0.0480751 -1.74422e-20)
(-0.258677 -0.0458987 1.38813e-19)
(-0.243346 -0.0454732 5.37683e-20)
(1.28572 -0.0785741 0)
(0.761102 -0.578824 0)
(-0.256987 -0.0467468 3.17972e-20)
(0.971022 -0.110788 -1.26393e-20)
(0.126126 -0.0120986 0)
(1.04199 -0.0810017 2.18359e-20)
(0.939752 -0.0467929 -4.3405e-20)
(0.831807 0.122217 -3.79229e-21)
(-0.162338 -0.0314941 3.39238e-20)
(0.171116 -0.0329333 -3.58575e-22)
(1.02584 -0.0212845 6.54821e-21)
(1.03386 -0.0775404 0)
(-0.111122 -0.0377517 0)
(1.00027 -0.00265802 1.84987e-22)
(1.0329 -0.0303548 -8.63904e-21)
(1.04551 -0.010125 0)
(1.07224 -0.0144711 -1.99572e-20)
(0.766584 -0.221863 0)
(0.70005 -0.0496278 -9.90167e-20)
(0.978515 -0.123651 -1.12526e-20)
(1.00536 -0.0213041 -1.45022e-21)
(1.0123 -0.0478918 0)
(1.05061 -0.0240106 3.33524e-20)
(0.999993 -0.0023378 -1.51928e-20)
(1.00009 -0.00218125 1.3365e-21)
(0.938957 -0.0449945 -2.75016e-20)
(-0.0623287 -0.0419272 -1.33161e-20)
(1.32028 -0.0397582 1.73513e-21)
(-0.175209 -0.0419595 9.73099e-20)
(-0.189291 -0.0389943 -1.0593e-19)
(-0.220763 -0.042671 -3.56577e-20)
(1.10026 -0.428598 3.49033e-20)
(1.04372 -0.187378 -1.73868e-21)
(1.01992 -0.0601998 -4.92633e-22)
(1.04998 -0.105364 0)
(0.75257 -0.220153 -8.41473e-20)
(-0.265508 -0.0478073 0)
(1.13208 -0.0281797 6.82591e-20)
(-0.241762 -0.0453675 -1.06231e-19)
(0.814967 0.0111667 -6.90061e-20)
(1.14369 -0.0165738 4.13234e-20)
(1.27924 -0.323169 1.73349e-19)
(0.827112 0.0208641 9.30146e-20)
(-0.272303 -0.0483201 -2.48309e-20)
(-0.128495 -0.0328688 0)
(1.03141 -0.0406335 0)
(0.372541 -0.0598809 0)
(1.00642 -0.0247835 -1.97139e-21)
(-0.245203 -0.0457112 1.24136e-19)
(-0.258627 -0.045 1.39143e-20)
(1.28011 -0.105719 1.84367e-20)
(0.706859 0.152804 2.03732e-19)
(-0.246234 -0.0454276 0)
(-0.250531 -0.0458499 0)
(1.1739 -0.15635 0)
(1.01327 -0.0490428 1.39321e-21)
(-0.277019 -0.0497612 2.65384e-20)
(-0.0806406 -0.0400787 2.8642e-20)
(-0.22222 -0.0426546 -1.55803e-19)
(0.941447 -0.0579461 -3.73949e-20)
(-0.255915 -0.0451606 -1.00766e-19)
(0.337152 -0.038599 0)
(0.987473 -0.0376114 1.2752e-20)
(0.421564 0.0906764 0)
(1.31934 -0.0371157 2.40793e-20)
(1.02523 -0.0110968 3.34795e-21)
(1.06392 -0.2308 1.23142e-20)
(-0.201417 -0.0424354 3.66081e-20)
(1.29956 -0.0645001 4.70225e-21)
(1.07947 -0.121329 -1.28498e-20)
(0.034672 -0.0185466 3.31637e-20)
(1.0073 -0.0154596 0)
(0.680363 0.0893123 -1.54979e-20)
(-0.275469 -0.0494298 0)
(-0.109404 -0.0182885 0)
(0.473675 -0.0546128 0)
(0.884747 -0.806874 -4.91617e-20)
(-0.173174 -0.0418919 -3.82206e-20)
(1.31736 -0.176054 -5.45656e-20)
(0.903868 -0.529827 -5.11933e-21)
(1.24858 -0.24615 -5.20218e-20)
(0.218302 -0.0145873 9.64108e-20)
(0.752673 -0.190073 -4.86885e-20)
(1.23833 -0.0681746 0)
(1.26024 -0.1336 -3.25511e-20)
(1.06432 -0.0297249 -1.87633e-20)
(-0.204672 -0.0404359 2.22505e-20)
(0.861786 -0.0104627 0)
(1.02603 -0.01082 -2.00117e-22)
(-0.260025 -0.0472168 0)
(-0.0961777 -0.0386798 0)
(-0.172282 -0.0410411 -4.54603e-20)
(0.230606 -0.0202471 -1.23709e-19)
(1.03584 -0.0786632 0)
(1.0524 -0.198076 9.75759e-21)
(-0.257138 -0.0476053 -3.05573e-20)
(-0.0982603 -0.0237236 5.30015e-20)
(0.757421 -0.308998 1.30948e-20)
(-0.22134 -0.0409702 1.35891e-20)
(1.19858 -0.132878 -7.51288e-20)
(0.427048 0.0504048 -1.12198e-20)
(0.913766 -0.068848 -5.11059e-20)
(-0.255713 -0.0485628 0)
(0.902902 -0.0384447 -8.01098e-20)
(-0.204941 -0.0304933 8.10499e-20)
(0.817511 0.0180577 1.12446e-21)
(-0.279864 -0.0484864 -1.00566e-19)
(1.28088 -0.0777798 0)
(0.94462 -0.0584046 3.50924e-20)
(1.13523 -0.229591 -3.49179e-21)
(1.03297 -0.0416982 -7.33599e-21)
(1.24718 -0.100265 -3.02976e-21)
(0.249901 -0.0304887 0)
(0.409775 -0.24299 -2.55021e-19)
(0.299998 -0.0303859 6.31363e-20)
(-0.176868 -0.0375715 -5.08148e-20)
(1.27613 -0.125719 -4.43843e-20)
(-0.0706801 -0.0410321 -6.48702e-21)
(0.922594 -0.0792783 0)
(-0.0519215 -0.0200022 0)
(1.01879 -0.583566 -7.17563e-20)
(-0.277465 -0.0491858 4.62375e-20)
(1.07677 -0.00617387 2.39516e-20)
(0.875529 -0.14052 6.27204e-20)
(1.25723 -0.136587 6.72423e-20)
(-0.275911 -0.0484193 0)
(1.04437 -0.0940435 1.95854e-21)
(0.287082 -0.0400192 3.54429e-20)
(0.458907 0.109714 0)
(1.02404 -0.010502 -1.70277e-20)
(1.20609 -0.174497 -6.56233e-20)
(0.949603 -0.0688929 1.59725e-19)
(1.28008 -0.0849801 -1.75685e-20)
(0.408209 -0.103436 -5.98992e-20)
(-0.223367 -0.0407834 0)
(-0.204034 -0.0425358 1.61207e-19)
(0.971099 -0.0477211 4.21664e-20)
(-0.103448 -0.0213197 5.80035e-20)
(1.13623 -0.0620018 -2.13731e-20)
(1.02755 -0.0191598 6.41851e-21)
(1.17906 -0.176262 -3.29809e-20)
(1.07602 -0.0141187 3.56331e-20)
(0.978741 -0.154813 -1.30981e-20)
(1.07426 -0.0858707 1.58863e-20)
(-0.255767 -0.0446769 0)
(1.152 -0.0534366 -6.33741e-20)
(-0.0712652 -0.0219704 -2.5649e-20)
(1.07559 -0.031088 0)
(1.0233 -0.00993958 1.01719e-20)
(1.03166 -0.0305239 4.17823e-21)
(1.04144 -0.0335557 1.02976e-20)
(-0.197144 -0.0354439 -1.09925e-19)
(-0.203778 -0.0403725 -8.0876e-20)
(0.598967 0.0074229 1.36543e-19)
(-0.104124 -0.0246261 4.92426e-20)
(-0.199447 -0.0397539 4.09222e-20)
(0.744671 -0.0462208 -4.89312e-20)
(1.15844 -0.21471 0)
(0.233883 -0.0122264 0)
(0.156548 -0.0492722 -2.00718e-19)
(0.159227 0.000493766 -1.87388e-20)
(-0.278521 -0.0495951 -4.79032e-20)
(1.29194 -0.320808 -7.59613e-20)
(-0.199673 -0.040119 0)
(0.909477 -0.202045 -2.72061e-20)
(0.980156 -0.0364475 0)
(1.03658 -0.0563043 8.13228e-21)
(1.01078 -0.0476918 0)
(0.918268 -0.389195 0)
(1.25647 -0.0482394 -9.3071e-20)
(1.07009 -0.0158859 0)
(1.2204 0.0137601 0)
(1.19571 -0.134843 8.45059e-22)
(0.771245 -0.300711 0)
(-0.109262 -0.0325214 5.18395e-21)
(1.07471 -0.0118862 0)
(1.00027 -0.00279485 -2.80154e-22)
(1.24615 -0.0949993 -9.42755e-20)
(-0.279646 -0.0480811 0)
(-0.110162 -0.0309924 -9.01069e-20)
(1.16213 -0.0501221 -2.90231e-20)
(-0.162272 -0.0412791 0)
(1.01791 -0.0018277 1.46656e-20)
(1.27181 -0.106029 -1.06198e-19)
(1.00319 -0.0708745 0)
(1.04708 -0.102524 0)
(1.00303 -0.0267746 1.97555e-21)
(1.08513 -0.0899857 -2.03725e-20)
(1.17697 -0.146428 1.47576e-20)
(0.980286 -0.0553497 1.91031e-21)
(0.152825 -0.00709926 0)
(-0.244552 -0.0453178 -1.12799e-19)
(0.816499 -0.00967758 -7.01638e-20)
(1.01056 -0.0243824 0)
(0.887238 -0.396591 0)
(-0.151054 -0.0410351 0)
(1.06695 -0.00581526 -8.44801e-21)
(0.995913 -0.00980163 -1.21901e-20)
(0.734336 -0.200773 0)
(0.116068 -0.023396 0)
(-0.271707 -0.0492102 -1.67989e-19)
(0.989401 -0.122935 -7.02809e-21)
(0.769691 0.481627 1.71531e-20)
(-0.169385 -0.0320243 0)
(1.18176 -0.521445 -1.15266e-20)
(1.01942 -0.00476521 0)
(0.992495 -0.0131364 -2.98053e-23)
(0.0706129 -0.0400452 0)
(1.30856 -0.178707 -3.08008e-20)
(-0.218653 -0.0427277 2.17282e-23)
(0.923953 -0.14868 -4.16685e-20)
(-0.0291044 -0.0147022 0)
(1.31367 0.012032 4.48387e-20)
(1.24937 -0.0924702 1.31106e-19)
(1.05973 -0.00857337 -2.03668e-20)
(1.20626 -0.433441 3.96308e-20)
(-0.132484 -0.0322608 7.19611e-20)
(0.853836 -0.0244841 -1.885e-19)
(0.637371 -0.0250853 4.96765e-20)