/*--------------------------------*- C++ -*----------------------------------*\
| =========                 |                                                 |
| \\      /  F ield         | OpenFOAM: The Open Source CFD Toolbox           |
|  \\    /   O peration     | Version:  v2012                                 |
|   \\  /    A nd           | Website:  www.openfoam.com                      |
|    \\/     M anipulation  |                                                 |
\*---------------------------------------------------------------------------*/
FoamFile
{
    version     2.0;
    format      ascii;
    class       volScalarField;
    location    "300";
    object      ddt0(omega);
}
// * * * * * * * * * * * * * * * * * * * * * * * * * * * * * * * * * * * * * //

dimensions      [0 0 -2 0 0 0 0];


internalField   nonuniform List<scalar> 
14033
(
-0.0114238
-0.0621723
8.69283e-06
3.74746e-07
-3.82369e-08
-4.21708e-07
-0.00626851
0.00249581
6.1563e-07
-0.188084
-0.00564213
0.000351955
1.5553e-05
1.4914e-06
7.06408e-08
-0.000103644
-1.30738e-05
0.0890513
-1.12688e-06
-2.91928e-07
0.000107916
-0.000619334
-0.000158117
-1.58805e-08
-0.00363451
-7.99778e-09
0.00193695
-0.00485698
0.00230725
0.0152396
1.95414e-05
0.000813919
-0.0063174
2.20487e-05
0.0295971
1.50177e-05
0.000276019
-0.19232
1.04125e-06
1.09765e-05
0.153284
0.000121077
-1.93643e-05
-2.00716e-06
-0.00355502
-2.91899e-05
0.0222623
-1.07161e-07
-0.00550748
-0.00358457
1.10651e-05
-1.76721e-05
-0.107544
0.0148835
-9.4175e-06
2.70719e-05
-0.0219035
-0.0590818
-5.3866e-08
1.49641e-05
-0.000837417
0.0037721
0.00019825
-3.27164e-05
6.69412e-06
-2.93545e-06
-0.0103832
0.00114257
-0.00181127
8.17457e-05
1.09566e-06
-1.42302e-08
0.0224603
-1.39748e-05
-9.10762e-05
1.75629e-08
-3.47016e-07
6.94273e-05
0.0947263
-0.00998947
-0.000245609
0.0597423
-0.126172
2.13861e-06
3.98422e-06
-1.88534e-09
3.45652e-05
0.0184066
0.0205619
-5.70622e-06
-7.374e-08
2.54692e-05
-5.62231e-05
-1.83269
-0.0019298
-0.0012299
-3.02166e-07
2.34643e-05
-0.000196969
-3.90968e-07
-3.29649e-06
4.00007e-08
-0.00135482
5.0081e-05
0.0220188
0.000962279
0.0178487
1.70599e-06
0.00174063
2.54344e-05
0.0219323
-8.76811e-06
7.42635e-06
0.0163539
-1.18067e-05
-2.23312e-07
0.00458128
2.4712e-06
-0.565608
-0.00354124
5.03781e-09
3.3574e-05
-0.0128557
1.04947e-05
-0.100562
4.088e-06
-6.5299e-08
0.0294863
-0.00122725
-9.25096e-07
0.0225788
3.83843e-06
5.70917e-07
0.000866517
0.0222345
3.81557e-05
0.00388734
-1.49514e-05
-4.76695e-07
-0.000189902
0.000160428
0.0440848
0.00147584
-5.75191e-05
0.00264603
-0.00271272
1.12528e-08
-0.000267536
7.32278e-05
-0.0406348
-0.0224587
0.000118087
-2.51297e-06
0.000135107
3.45273e-07
-0.00122579
0.00115109
-7.1488e-07
0.000125155
-1.34197e-07
-2.47395e-05
0.00392377
-0.00157115
1.48122e-07
-7.46309e-05
-7.02745e-10
-3.27951e-05
0.000687181
-0.0777474
3.55482e-06
-0.000154532
0.00734764
0.000761224
0.0226241
1.65068e-07
3.86188e-06
0.00347771
-0.0232388
0.000814225
-8.17696e-05
-0.00107658
-0.0268045
-4.03849e-05
-0.000746595
4.80398e-06
0.0221854
0.0033189
1.38238e-06
-0.113523
0.0209743
0.0255189
-0.000152524
0.000167674
8.46913e-07
0.453871
0.0570368
0.000110454
-0.00685273
7.48371e-07
1.32894e-05
-2.89119e-06
-0.000137432
-7.2824e-06
-0.00342315
8.44487e-05
-1.49144e-05
-0.000205458
-0.0470471
0.000172024
0.171342
-0.0159227
-0.0318668
0.0117987
-0.645057
4.1362e-08
-2.48322e-06
3.40492e-07
-0.0576613
6.857e-05
0.000109235
0.000124064
8.61197e-05
-3.28211e-05
7.94338e-06
-8.05245e-08
0.00111367
-0.000695789
8.80821e-05
6.12976e-07
-0.000123039
6.2859e-07
0.00161279
1.42878e-07
-6.62593e-06
-0.0603774
0.00170847
-0.00723179
2.21585e-05
7.7075e-08
-3.53419e-07
-0.00187843
5.86876e-05
-2.15718e-07
3.52231e-06
-1.43837e-06
-4.56177e-05
0.000656829
-0.00576348
1.74465e-05
-0.000383961
5.85798e-07
-0.0296064
7.29935e-05
0.00959749
4.18043e-07
-0.116112
1.37062e-07
5.59498e-06
0.000236081
0.00402775
-2.50425e-06
0.235792
-0.0076857
-0.000110052
1.54599e-05
-0.0761346
9.53008e-08
-0.00853008
-0.0956428
-0.00220618
-1.25368e-05
0.00490265
-3.09903e-06
-0.000139033
-0.0410183
6.12717e-08
9.07861e-07
-0.0027166
1.71381e-05
-0.0704845
0.00216993
3.76774e-07
0.00537622
0.000189944
-0.111484
-0.0703854
0.0219715
0.000272974
-0.0117506
0.0234318
2.85366e-05
0.000788092
0.00208517
0.00564198
3.22718e-06
9.59474e-05
-0.000237041
1.50109e-07
-8.03971e-05
-7.64661e-06
7.42337e-05
0.0294815
-0.0977169
-1.57879e-05
2.79134e-05
-0.0256625
6.44481e-07
0.000231034
0.00164294
2.59408e-06
0.00452997
3.34716e-07
0.010543
0.00144806
-0.0088745
-0.0458812
-3.21887e-07
0.000236168
-0.000111504
-0.0226378
-0.0839053
0.000129382
0.000142453
-0.00172741
-0.0160753
0.0192242
-9.42493e-06
-0.00109951
0.0202357
-0.000670939
-0.000104828
0.07901
-0.000595457
-1.08517e-05
-3.43142e-08
-0.00223661
0.000693283
-1.31208e-05
0.011646
7.21445e-06
-0.0208339
-0.000252981
6.69079e-07
1.74395e-06
0.108231
-0.00298674
0.000263916
-4.74288e-09
0.0800282
-0.0105916
-0.000187255
1.53601e-06
0.0217385
-0.000432498
-4.27198e-06
-5.2163e-07
-1.12743e-07
-0.0103996
0.000456394
-0.00017555
-3.28249e-06
0.0175898
0.00414676
7.05501e-05
1.17694e-07
0.00052344
0.011583
1.60377e-05
7.82728e-07
4.61347e-05
0.00114069
-8.68913e-06
4.65141e-05
-1.25412e-06
0.0031521
0.0533419
-2.59083e-05
-9.51137e-06
0.129264
-3.24245e-07
0.00089294
0.00146039
6.01421e-06
0.175915
0.017271
1.82395e-07
0.0198757
6.29843e-05
0.000103049
0.000392611
0.000355842
-0.0280127
-3.5303e-05
2.0308e-05
-0.0118715
0.0704103
-0.00408283
-0.0448646
-0.0074257
1.96709e-07
-0.0418576
7.08964e-06
-3.41687e-07
0.00127391
0.0020725
3.34816e-07
2.06518e-05
9.6159e-07
6.1049e-06
-0.165135
0.00292629
0.00649944
1.58111e-05
-0.0389871
0.00120598
6.04807e-06
-0.00249429
-4.82405e-07
4.10616e-06
-0.0323032
0.000105738
-0.0514731
-0.000656475
-8.01659e-08
-4.89264e-07
3.76823e-07
1.72015e-05
-1.27073e-07
-8.31829e-05
2.37815e-05
0.000130426
1.72621e-06
-9.12473e-05
-3.00029e-06
0.00276651
-3.79047e-06
2.76046e-05
-8.74197e-08
-0.00434265
0.00810231
0.00349013
-1.36543e-05
2.89432e-06
3.33795e-05
7.91748e-05
-1.78295e-06
-0.000219121
-0.0174438
0.0119727
-3.21216e-07
-0.00235545
0.000609756
2.62767e-05
-0.212601
4.81633e-05
-0.00109538
-0.286968
-1.09003e-07
3.25797e-07
-0.000273022
-1.57899e-06
0.0220319
-0.0652078
-0.0491317
2.35367e-07
1.28636e-07
0.0920463
2.20447e-06
8.6054e-05
0.0344612
1.71448e-05
-5.60973e-05
2.28787e-06
-2.65568e-07
-0.00790647
-0.0590055
1.43834e-05
-0.0131217
2.18042e-05
-0.122014
-8.22871e-06
0.00852086
-1.20146e-07
0.0662838
0.0221391
-0.000164962
0.0795084
-2.74852e-06
0.00139887
-6.74087e-08
2.47341e-06
-0.115839
0.237496
0.000992243
1.21658e-06
-1.737e-05
-0.0028103
-0.104276
-3.90298e-05
-0.0129437
-8.33087e-07
0.000863916
0.00189749
0.0109311
0.00259394
-1.30453e-07
-9.36193e-08
0.12146
-2.27457e-07
0.0020122
3.88435e-07
2.52465e-07
0.00409326
-0.000168828
2.03568e-05
-5.13447e-07
-4.86683e-05
4.11338e-07
0.292388
0.071076
-1.22942e-05
0.0494688
7.40292e-06
4.26298e-06
-6.2372e-06
1.37194e-05
-7.11482e-05
9.37025e-07
4.49766e-06
-1.89321e-06
-8.66293e-05
3.46342e-05
-0.0133309
3.20398e-06
2.07793e-05
1.41221e-05
-1.56344e-06
1.7065e-08
1.22104e-08
0.00171397
-0.00047448
-0.00696872
2.46035e-07
-3.55083e-06
0.0888129
2.22537e-05
-0.0156955
8.22809e-06
-0.0269821
-0.000124674
0.000462383
0.00237671
-1.10669e-06
-1.21511e-05
0.00462326
0.00756703
2.84706e-06
-9.45066e-05
-0.000390774
0.00195967
0.000167254
0.0227625
-9.79743e-05
1.93504e-05
7.96874e-05
-1.3715e-07
-0.00234425
1.91893e-05
-1.2545e-07
5.45876e-07
-0.0112511
0.0341143
-0.131693
8.21683e-09
-0.0571031
-6.99677e-07
-0.0716075
0.0060221
-1.76441e-05
0.00586777
9.12357e-05
-1.58788e-05
2.34015e-05
-1.91326e-07
2.06531e-07
0.0128103
-2.7578e-05
-0.00625403
7.44929e-08
1.96883e-05
-0.0213654
-3.64902e-05
9.21387e-06
-0.000212195
7.57567e-06
-1.10791e-06
1.00262e-06
0.108799
1.08568e-05
-0.000117197
-5.21856e-07
-9.86738e-05
-0.00012054
0.28176
-3.54349e-05
-0.00492522
0.0120725
0.0177421
0.0016332
0.0985152
0.00518848
0.00617642
-2.07131e-05
-1.35942e-06
0.0966478
1.32246e-07
0.000980201
1.45636e-07
-0.0724713
-0.0273619
-0.0249043
6.36424e-08
1.60659e-05
5.68022e-05
-6.99253e-05
0.000296291
0.118562
2.33605e-05
-9.85856e-05
0.000185924
-2.28873e-06
-0.00238877
-2.31123e-06
-0.0122172
1.67371e-05
-0.304968
1.17265e-07
-2.12628e-05
-0.0037359
3.33162e-07
0.00191458
-6.92495e-07
-0.000840786
0.0612472
-0.00641271
0.0173817
0.00155585
-5.56193e-07
3.77572e-07
-0.000934467
-2.22406e-05
-0.000167963
-8.07658e-06
1.28575e-05
-5.19641e-05
-0.0175178
3.96458e-06
-1.76095e-07
-0.0450913
-6.75731e-06
-2.51477e-09
-0.000189373
-0.281389
0.0184922
-1.52371e-05
0.794608
-0.00342373
-0.00241513
-0.00114234
2.19172e-05
-0.00288908
0.0540061
0.00111478
1.29163e-05
-3.1973e-06
-4.80416e-07
-5.64755e-07
-0.00944016
0.000714235
1.13314e-07
-0.0877012
0.00433898
-1.36697e-07
0.183581
-0.213921
0.000658603
-6.36593e-07
0.127194
-0.00556503
6.49391e-06
-0.00138441
1.89941e-05
-0.00700887
-1.12629e-05
-0.0130992
-0.00273204
-0.0289762
-0.0165021
-3.95956e-07
1.03342e-07
0.0809587
0.000290369
0.00126821
8.7748e-06
-1.56163e-06
-4.94177e-06
3.53913e-07
-0.396466
4.55415e-05
-1.45337e-06
0.0298863
5.24833e-07
2.26497e-07
-1.65032e-07
0.818641
0.000267837
9.52939e-05
-1.07077e-07
-7.18664e-07
2.68361e-05
-0.000853098
-0.00363453
-2.16442e-05
-1.95365e-07
0.0101184
-1.25739e-05
-0.00497102
0.000496193
0.000655396
1.24253e-06
-4.63027e-08
0.0158977
0.00251801
0.000117393
1.17026e-05
9.40024e-05
-0.174177
3.8961e-07
-0.0419762
0.000213888
-0.00107258
-7.03743e-06
-0.00198278
0.0331611
-0.0176825
3.08119e-06
-0.000611169
2.39361e-07
-0.0246074
0.0450439
0.000344023
-0.000110928
3.97843e-07
-1.51621e-05
8.52803e-05
-0.0335463
8.90773e-06
0.00306578
0.00369724
0.00148662
-6.48801e-08
-0.00231412
-0.00872237
1.15088e-05
-6.83918e-05
3.93026e-07
0.0194685
-2.32082e-07
4.17808e-06
-0.00187437
1.33719e-06
0.00068292
-0.000111464
0.135478
0.000142162
-4.37496e-05
-0.0157978
-0.00221359
0.00668664
-2.61623e-06
-9.19945e-06
1.4073e-06
-0.0213761
5.69127e-06
-5.1686e-07
-1.44206e-07
0.0111247
1.09057e-06
0.0036512
7.33794e-05
-0.00598745
-0.000417538
0.000239261
-0.00336007
0.0024375
8.58475e-06
0.00329633
-0.161376
0.00419335
0.0136327
-0.00160814
-0.0324635
-1.6323e-05
0.0219059
-0.0033635
0.146609
-3.56088e-07
0.00549392
0.000115965
-1.57912e-05
-3.02874e-05
1.082e-05
-8.1303e-07
0.000315233
1.98224e-05
-0.000118134
1.87947e-06
0.000568624
0.0645337
-0.000425003
-0.00873919
-2.01591e-06
6.70068e-07
9.17031e-08
-0.0705109
0.000145692
-0.000122477
1.4357e-05
2.4038e-05
-0.00290704
5.75804e-07
5.57485e-05
-0.00537591
-1.17657e-06
-1.12305e-05
-0.00022035
-0.0295034
4.52224e-05
-0.00367892
1.42228e-07
1.91444e-05
1.09534e-07
-4.99416e-07
0.00751676
0.00203869
-0.000194162
-5.8202e-06
-5.58018e-06
-7.90235e-07
5.23451e-07
-3.06396e-05
-3.28067e-06
1.88763e-05
-0.0329994
6.95962e-08
1.5089e-05
-6.04468e-06
1.78384e-05
6.75995e-07
-0.00102933
3.31952e-06
-0.115946
1.30643e-07
0.000885312
9.17376e-06
-0.004776
5.67765e-06
-0.000990827
1.97585e-06
-0.0170286
1.05033e-05
2.72403e-06
5.25157e-07
0.0992157
-9.44577e-06
6.95903e-05
0.0158665
-0.000679473
0.155538
-0.00748554
-2.30147e-07
0.00021123
0.0166238
0.000279797
-6.30085e-05
-0.0325369
1.21642e-06
6.88089e-07
2.14967e-07
-1.96393e-05
9.99481e-08
-4.75553e-05
1.52786e-08
1.77591e-05
-0.000359043
1.46982e-06
2.50678e-05
5.19573e-08
0.00240389
7.18818e-07
-3.00016e-06
0.00741641
-0.00579803
-0.00341513
6.71994e-07
1.35083e-07
-0.52889
0.0128418
-2.29173e-05
6.03203e-07
-4.49416e-07
-0.000736414
0.0321497
-6.79106e-05
0.000134315
-0.000501631
0.00255518
7.90825e-07
0.124314
1.43316e-05
2.26864e-07
0.0654656
0.00340526
-1.42175e-06
-0.0155351
0.0203646
-4.00915e-05
-0.000517487
-0.0021168
0.000184715
2.99108e-07
2.41572e-06
0.101468
-1.45226e-06
0.0123953
-1.66614e-06
-0.00125268
1.98396e-07
-4.52009e-05
-7.28591e-07
-0.00277557
0.00234357
-0.020237
-4.44082e-05
2.22725e-05
0.0831354
0.000218108
4.70569e-05
-0.000587237
-3.93123e-05
0.0189201
5.58826e-05
-3.66276e-07
5.41014e-07
-4.98715e-05
-0.041857
5.69117e-06
0.00317397
-0.0477828
8.79274e-06
-0.0300825
3.53092e-07
2.57004e-05
-6.5572e-05
0.000109206
0.00695484
0.00599994
1.3833e-06
-4.65877e-07
-0.00298569
4.69084e-08
-0.000156903
-6.5069e-07
3.18094e-07
-1.68509e-06
-0.139951
0.168268
0.0513965
-0.140698
-0.196557
4.06976e-07
2.40809e-05
1.59425e-06
-5.05573e-07
-3.7419e-06
1.8942e-07
0.000738051
5.24682e-07
-9.02666e-05
-0.11856
0.000116635
-1.66506e-05
-4.45673e-06
-2.47605e-05
-0.00456491
-1.10552e-06
-0.000160883
-0.0322454
-4.20562e-06
-2.05959e-06
-3.57383e-08
6.46136e-05
6.43597e-07
1.58952e-07
-0.000109804
0.0341439
0.034347
2.04414e-07
-1.89219e-06
-0.00528663
-0.00368921
0.00154454
-0.000748714
7.38515e-07
-9.49351e-06
-2.9207e-06
4.9301e-08
-2.94066e-06
0.053805
-7.00853e-08
-4.35775e-05
0.00465874
-3.55198e-05
0.0141187
-0.250047
6.44089e-06
1.53684e-05
-0.000384016
6.13131e-06
-0.00829756
0.00777876
-3.50476e-06
-0.00604292
-1.63123e-06
-6.64813e-07
-0.0193992
0.017494
1.68244e-06
-0.000281501
1.43134e-08
0.00158485
3.01449e-05
-1.28827e-05
-0.000840483
-8.17113e-05
-0.221997
-0.000137901
-0.0153688
0.000549723
1.44348e-06
-8.86522e-07
1.23317e-05
-0.0228051
0.00233399
0.000134116
0.000726819
0.00637075
-0.00165032
0.000213937
0.0301799
0.0124476
-2.67391e-07
-6.61326e-07
5.04959e-05
6.88392e-07
8.29948e-07
1.05951e-06
-1.18916e-06
-0.0195703
0.0222543
0.140877
-5.61315e-05
-5.96477e-09
-0.177322
0.000212223
-1.66586e-05
-5.13617e-05
-3.78479e-07
-0.000203386
0.000336254
-0.000368829
-0.000375932
-0.00113775
-0.00492228
-2.81159e-05
-2.64339e-05
1.2869e-05
4.61876e-06
-0.113696
7.36414e-06
1.17657e-05
4.55289e-07
-0.000498729
0.00240713
-1.82445e-05
0.00398718
1.00474e-06
-1.51599e-07
0.0200054
-8.38706e-05
-1.98006e-06
-8.99541e-07
-0.464476
1.10365e-05
0.00115074
0.000739855
-5.2388e-06
1.75038e-05
7.71304e-06
0.0033692
0.00106657
0.271249
0.000367373
-0.0018897
-9.8706e-05
0.0215818
0.00233395
0.0630436
0.00019446
0.00011242
4.10309e-07
0.0249262
-0.0203663
-3.37986e-06
1.88627e-06
-1.03109e-08
-2.23756e-07
0.00533253
0.000844551
0.0647602
0.020284
-5.60352e-08
-0.000822392
7.56978e-07
1.81198e-05
0.00613392
-7.4784e-05
4.83174e-07
-1.13425e-07
0.000339574
4.47833e-08
-0.00126363
0.275715
7.34358e-08
-0.000171573
0.0905555
0.0426665
0.000319775
-0.000146342
1.22829e-06
-0.000403476
0.000349606
2.28089e-05
-0.0177713
9.56855e-07
-2.49808e-07
0.0409186
-1.16244e-05
0.184352
-1.16626e-05
-4.14153e-07
4.06773e-07
-3.51976e-06
-3.67517e-07
-0.0186621
7.11084e-07
9.07136e-08
-9.59574e-06
-0.577715
0.0603719
5.13441e-07
-5.78569e-07
3.45916e-07
0.0442062
-0.000187819
-9.88129e-08
-6.33125e-06
-0.224042
-0.00586585
-0.000768778
0.000260626
-0.000196465
0.000259522
1.25777e-07
-1.4302e-05
1.15854e-07
-0.32789
-2.70266e-07
0.0002202
0.0511462
0.000761793
-8.2376e-07
-0.000140398
0.000387599
-1.19073e-06
1.12264e-06
4.61217e-05
-0.288808
0.0225309
-1.58875e-05
0.0136856
-2.67604e-05
-0.00639672
0.000714859
0.0223118
-5.24053e-07
0.00389457
0.0275253
-2.43499e-07
2.743e-05
0.0225004
1.46288e-08
-0.0487124
-1.7402e-06
7.58766e-05
-0.0116706
-2.5228e-08
4.24982e-06
-2.20441e-07
0.00108663
-0.220443
0.0378294
0.0971259
-6.21943e-05
-0.000158313
2.53912e-05
-0.119317
0.0743347
0.275727
-0.676215
-4.2011e-06
-0.0867551
1.5502e-06
-2.48752e-05
1.42238e-07
-0.0148885
-1.13429e-06
3.68434e-05
-0.0259225
0.0200325
-7.3378e-05
-1.05779e-06
0.000736701
-2.01276e-05
-0.000290624
-4.85245e-07
7.38113e-07
5.58002e-08
6.65525e-07
5.20033e-06
-1.14292e-06
-0.00107796
6.96593e-08
-5.12294e-06
-0.0039616
6.78369e-07
0.000232211
4.47205e-05
-6.63113e-05
0.0924822
1.23148e-07
0.115865
-0.40997
1.17112e-05
-0.000136835
-0.202104
8.29847e-06
0.327704
-0.00365677
-0.00474332
0.0171843
0.000311607
-7.5548e-05
-0.194249
-2.91238e-06
-2.72862e-07
0.000564676
-2.1167e-09
0.00939213
0.0675999
-7.69734e-05
1.43635e-07
-5.96585e-05
1.17901e-07
-7.74447e-06
0.000461265
0.033897
7.85143e-07
-5.42559e-06
9.65591e-05
4.35444e-07
0.000229302
-0.00049096
-1.1908e-05
0.239204
3.35952e-07
0.313876
3.58044e-06
-0.00354326
0.00458138
0.00675571
-0.000852417
1.0031e-06
0.288457
-1.56687e-08
-0.0148224
0.0328147
-0.000401064
0.153683
4.8165e-07
0.00675114
-0.00517823
2.8798e-07
-0.00866933
-0.000875447
0.00134232
0.0103266
-0.000241441
6.51463e-07
2.56354e-06
-0.00224839
3.40343e-05
-0.00021809
-0.05919
0.000278146
-0.0202462
-0.0104231
-0.0486138
0.000483454
8.91631e-07
0.00189552
2.31003e-06
-1.02629e-07
-0.000659267
-0.000313875
-3.23334e-07
2.06631e-05
0.429032
5.00666e-08
0.0370815
0.0214062
-2.14055e-05
0.107319
5.64578e-05
0.125007
2.77057e-07
4.65148e-07
6.61011e-07
0.211659
4.43627e-06
4.05672e-05
-0.000585983
-0.0745027
0.000133277
0.264607
-0.0118258
-0.00156904
-0.00168458
2.222e-05
0.000283977
0.197185
0.444719
-1.95487e-08
0.0101703
0.00116154
0.0197001
-0.132041
-0.0781576
9.14207e-05
-0.00300291
0.000327433
-0.000343623
2.7667e-06
-0.0044139
-2.08678e-06
1.81995e-07
-0.00529481
-5.23459e-05
-1.63249e-05
-1.34439e-06
4.01762e-07
-0.00011869
-0.00215631
0.008974
0.0109195
0.230678
-0.000316721
7.86384e-06
-1.80595e-07
-2.28453e-07
0.00281639
1.03088e-06
-5.39554e-06
7.84628e-09
2.07792e-05
1.66585e-06
-4.16882e-06
-2.47977e-06
2.80883e-06
-2.54528e-06
-0.00211667
-0.000154538
0.434619
-0.000585915
0.0061371
-0.00159605
-0.000273909
0.00184514
-0.256018
-9.58758e-07
0.0849123
-6.6999e-05
0.0463409
-2.46673e-07
-3.13889e-05
-8.90574e-06
1.58127e-06
-3.39899e-06
0.00028283
0.0513224
0.00250886
0.217066
-0.252097
0.00119642
-0.000202795
-0.0104267
1.97551e-06
0.0216479
0.00221005
-0.0112855
3.2613e-07
-0.000109889
1.00615e-06
0.00196624
4.82138e-07
0.000472185
-4.50248e-08
0.0241598
6.62817e-07
0.0458888
0.00704749
3.35801e-06
0.029505
-0.0777898
8.6451e-07
-0.0686567
-0.00135031
1.3893e-07
1.02291e-05
-0.000180091
4.25685e-08
0.00314619
0.220577
-1.14532e-06
0.298303
-0.000305596
-1.38073e-06
0.0128189
1.55614e-06
0.0198555
-1.25987e-09
0.137769
6.85085e-06
-0.000267844
-5.11617e-07
-1.73819e-06
0.000323378
0.0236937
-0.0142936
-7.28168e-08
1.72262e-06
0.003692
-0.00525399
1.01352e-07
0.0153045
0.000113683
0.0105932
0.0644255
0.00054804
-0.0319854
5.89604e-07
1.93513e-06
-7.11472e-05
-2.06495e-06
0.0193353
0.566091
-6.30465e-07
-0.0119167
9.59716e-07
2.68131e-06
-0.0536997
1.64822e-07
-2.27149e-05
2.88513e-05
-0.129638
-0.116261
0.000150468
5.86698e-06
-0.00181915
-0.0443596
8.01568e-07
-0.000628756
-5.18773e-07
2.14437e-06
0.000758971
1.77345e-05
-2.34643e-05
-0.115153
-2.89673e-06
-0.010947
7.06699e-07
-3.95292e-05
-0.00591119
0.000115987
0.00042606
-0.17321
0.0182993
0.00246397
-3.41384e-07
-0.000265808
0.0130634
3.07952e-06
-4.07686e-06
6.36561e-05
-9.41984e-07
0.000129452
2.31152e-06
-0.079302
-1.38236e-07
-9.56016e-06
7.37389e-07
-0.0230272
4.64094e-07
0.000102349
0.00100775
5.03463e-07
-1.64526e-06
0.0140932
0.000166588
-0.0113941
0.000299853
-0.00185679
5.50772e-06
-0.0237295
0.0194753
8.24402e-07
0.00144055
-5.93822e-06
-1.79326e-06
0.00449342
2.26156e-06
-0.00463461
0.00747372
-2.49691e-06
0.00207748
0.000342896
-8.95489e-07
-6.32167e-07
-5.60366e-07
-2.21937e-08
-1.39735e-05
-2.79931e-08
-0.00397371
-8.16225e-07
0.0164923
5.65084e-07
0.00806852
0.0112483
0.0140695
-2.98785e-06
-0.00789701
-0.00056565
-0.00248178
0.0620965
-1.56506e-06
0.0142825
1.74134e-07
0.037599
0.057537
0.000587187
0.00154385
6.77309e-07
-0.0031409
3.5287e-06
-0.00708992
5.22083e-05
4.30796e-05
-0.00883233
4.83138e-07
-4.49301e-08
0.0211913
2.54595e-08
3.29278e-07
1.94522e-08
2.814e-06
-0.000395024
-2.18335e-05
1.00379e-05
0.00162258
1.33549e-06
0.00844692
-0.284544
-1.30967e-06
0.363062
6.93612e-06
-0.00744367
-0.0036327
6.69971e-07
1.96161e-05
-0.00436012
0.00780972
0.0199837
-0.068593
2.07098e-05
-2.40872e-05
-8.54534e-08
-0.00107571
-1.42102e-05
0.00398832
4.40236e-07
1.9296e-06
-0.000443168
0.00707622
1.6144e-06
0.0752649
0.000155621
0.0215775
1.93706e-06
-0.000183414
4.75216e-06
-3.12158e-06
-4.88498e-10
0.0176657
4.83667e-06
3.98039e-07
0.246847
-3.4923e-05
1.5757e-05
-7.02095e-07
-0.000188326
0.224013
0.0264723
-7.14076e-08
-0.00189479
3.27037e-05
-2.20791e-08
5.13485e-07
-1.1096e-05
0.0932472
0.0228076
1.7012e-06
-0.211678
-0.412844
6.48694e-05
0.000112255
-0.1436
0.0116586
0.000383127
1.94494e-06
6.98982e-06
-3.78633e-08
-9.45989e-07
-0.000927719
-0.475594
-4.64234e-07
5.04012e-05
-0.000182842
-0.00218136
0.0056768
-0.000108323
-0.0354498
0.0897174
-2.5278e-07
0.0652494
1.54187e-06
-0.00578984
-3.05266e-06
-0.000989397
-0.25855
0.0207398
-2.69795e-08
0.184249
-8.35778e-06
0.00239482
0.00108745
-0.000105589
-0.0020587
6.03854e-08
-0.000577912
0.00136922
-0.000635134
-6.30166e-08
0.00118707
0.105916
-0.0063179
0.001112
7.69144e-06
-0.0926727
0.00114408
-8.21152e-06
3.50734e-07
0.00481609
0.00120884
-0.000707836
0.000325443
0.0134372
0.007681
-3.00455e-05
0.00238222
-9.9511e-06
-3.7171e-06
0.000770409
-9.04268e-08
0.000178527
-0.0224251
0.0352669
0.000371552
-0.181027
0.0153948
0.0473372
-9.695e-07
-2.41214e-06
0.000235047
-0.0114516
-0.00240065
7.95917e-07
0.018706
-0.000167058
0.00026555
-2.6056e-05
4.32349e-07
0.0678384
-0.00560201
0.000499386
0.0115
0.00121636
-9.91557e-06
0.0660496
3.33098e-06
-1.13446e-05
-0.000623932
-1.85981e-07
0.42632
1.35007e-06
1.8257e-05
9.17627e-07
9.39051e-09
-0.0120437
6.94308e-07
-0.0448857
-0.000116398
-0.0314767
-6.4732e-08
-0.000977803
0.0106317
0.000194296
0.000105152
-1.63689e-06
1.6862e-06
1.80631e-05
-5.66178e-07
4.28593e-05
-0.0790926
0.011678
-0.0216501
2.02594e-07
3.49546e-09
0.0171327
1.55487e-08
3.9602e-07
1.4382e-06
8.1471e-06
2.5175e-06
1.4321e-07
-7.2953e-07
1.3083e-05
0.00768469
-9.56389e-08
-0.000727033
0.00179943
-0.0105661
-0.0114903
0.0164198
6.93981e-06
8.61421e-06
-2.88701e-08
0.0680055
-4.39798e-08
-0.0218078
-0.00152146
7.31165e-06
1.33796e-06
-1.36033e-07
2.01592e-07
-3.03265e-06
0.169648
-0.253176
1.94861e-07
-0.0776782
-0.000131304
0.0190489
3.6394e-05
0.173766
0.152339
0.000167624
9.83364e-08
1.0155e-06
0.143774
0.00142739
-3.75789e-05
-1.61593e-06
-7.43178e-05
-0.00572775
1.52905e-05
0.0123657
-6.54438e-05
-1.84205e-08
-2.06997e-05
-4.34251e-06
0.0177433
-0.000963394
2.20387e-07
-0.0071938
0.00135786
-2.50701e-05
0.0786249
-3.44138e-05
0.000319066
6.02744e-07
1.09003e-08
0.0844436
-2.77022e-06
-0.363533
-3.94667e-06
0.000169338
0.0106698
0.0826653
-8.18742e-06
-0.000209281
-5.97504e-05
-2.2772e-07
-0.00171099
1.94365e-06
0.0098393
-0.00851725
-0.00101706
9.86837e-07
4.86338e-07
0.00611037
0.217117
0.00210972
4.44786e-07
0.0090946
-0.00234676
0.000663359
4.73925e-06
-0.00336448
-0.0469144
-0.00307808
5.1893e-05
-1.50698e-06
-0.00050972
5.26539e-07
-0.000868587
-0.00250294
0.418501
0.0081074
-7.68539e-09
-0.11485
-9.27894e-05
1.85198e-06
-7.55233e-06
-4.29192e-08
-1.48665e-05
-8.61522e-05
0.00626069
-1.00316e-07
0.000526015
-0.000383452
-1.05093e-07
-0.00022499
-0.0145082
-3.08893e-06
-9.59882e-07
-1.21789e-05
-0.00182192
-4.96786e-06
2.39058e-07
3.44899e-06
0.00616639
2.16378e-06
4.98779e-06
1.23029e-05
6.94383e-07
0.00131915
1.66789e-05
-1.08437e-06
-0.00789172
-3.77955e-05
5.25986e-07
-1.61113e-08
0.00962076
0.0255241
1.53431e-07
-0.021129
0.000261141
-0.000813609
-0.000717842
-0.000655893
9.7123e-06
2.14262e-06
7.25118e-06
-7.73156e-06
-0.00769269
-0.00580021
-0.0001582
7.17276e-05
-0.0509274
7.8675e-06
-0.000205941
-2.75649e-06
-9.09662e-05
-0.0750923
-0.0031443
0.0103353
7.56945e-06
0.00108444
-0.00437097
-2.59959e-06
0.000123054
2.46437e-07
0.00128295
-0.021346
0.00762033
1.16626e-06
-1.80471e-06
-1.73325e-05
1.32209e-06
-0.0020571
5.41071e-07
4.76136e-07
-0.308032
-2.42338e-05
-0.000255546
-2.73623e-05
-5.92746e-07
0.00183434
0.00725346
-0.0103489
-0.00131897
0.0202285
0.0609744
0.00120387
0.0804938
1.02917e-06
-0.00238055
-0.00226818
-0.0765919
2.57065e-06
-7.10123e-05
0.0506234
-0.00877058
0.00948252
-0.032048
9.88064e-06
0.0198028
-4.24169e-07
0.0284004
0.00375369
0.00401706
1.42943e-05
-1.79374e-06
0.003051
-0.147363
-5.82867e-06
-3.93633e-05
-5.52749e-05
3.43333e-05
9.68724e-06
-0.0019822
0.00848505
0.00320753
-0.000107292
-0.0148342
-4.02954e-05
0.00342023
-0.000863169
-0.0310401
-3.46501e-05
0.000918587
-0.000212575
0.00145928
-1.78422e-06
-2.43942e-05
-1.74865e-05
0.00203935
-0.00892442
-2.91793e-08
-5.01102e-06
7.21902e-07
0.000279785
6.59498e-07
5.36037e-05
0.0020703
-0.000104981
-0.0504694
0.00755913
0.0160278
-0.00122464
1.11762e-05
6.84129e-06
0.000308908
-0.00265477
-1.57915e-06
-0.00820531
-9.99027e-08
4.37861e-06
3.15108e-05
-8.72507e-08
0.0134031
-1.36199e-05
2.3744e-07
-0.00077239
2.08269e-06
-3.57653e-06
1.22727e-07
-6.74564e-05
-3.5465e-06
-0.00011126
2.45849e-07
-9.19492e-08
0.00799689
-0.0302877
1.06515e-07
0.0315459
0.0193371
1.68764e-08
-0.00158841
-0.0172851
1.44044e-07
0.444309
0.00117033
0.00174773
3.9436e-06
-0.0145789
-0.00350506
-0.00154417
0.0501284
2.37396e-08
-0.0607102
-0.0008068
-3.13502e-08
-7.65078e-06
8.33617e-05
-4.50121e-06
0.0132048
-3.10016e-05
-0.000598839
0.00736394
2.40775e-07
-1.85113e-07
1.21712e-05
-0.0993701
1.99817e-06
-0.000680587
0.00188252
0.00183076
8.60731e-06
4.07591e-06
-0.0600752
1.43636e-05
-0.399243
0.00334454
0.00721824
0.000169428
-0.00137635
-8.93079e-07
8.98537e-06
0.00225948
0.00335614
-9.00815e-08
-0.000631529
0.00238875
6.02072e-05
1.95582e-05
6.81647e-07
-0.000367543
7.18307e-06
-0.00152517
0.0400787
-2.87311e-06
0.114526
-2.40593e-05
-0.000295814
0.00367275
2.82786e-07
-0.10971
0.00035506
-0.215033
-3.32788e-07
-0.162285
1.32136e-06
9.21083e-06
-0.00159161
1.26732e-06
-0.00153024
-3.66093e-07
-0.000643623
0.00550861
2.18023e-06
-2.9613e-05
0.0107773
-4.61253e-06
0.000859624
-4.72516e-06
-0.0222154
0.0338054
0.0119616
1.17792e-05
0.00351033
-4.95116e-05
1.64809e-07
-5.37622e-07
-5.89707e-07
2.09461e-07
0.000110572
0.0164685
-5.21056e-06
-2.90068e-07
-0.140687
0.0129695
-8.06804e-08
0.000202812
6.80699e-07
-0.000171775
-0.00090819
-2.84726e-07
0.151619
-0.273511
1.86772e-05
5.32023e-06
-3.41817e-08
-1.71459e-05
-0.00464351
-0.00468597
1.18531e-05
-0.00222154
-0.00185966
0.000227381
-1.04621e-06
-1.16006e-06
5.87237e-08
-0.0010487
0.241409
-0.111685
2.06592e-06
3.68842e-07
-0.0238262
3.78021e-05
-3.19083e-08
9.72002e-06
-4.06577e-05
0.0102801
8.39607e-07
-0.0765317
-0.00156579
6.92693e-07
0.0148961
-4.50899e-06
-3.59806e-06
-4.40448e-06
0.000263741
3.81326e-05
0.00453642
0.0200732
-0.0273829
-6.88878e-06
-0.00293286
0.00539168
0.0198864
5.3476e-05
-6.01881e-05
-0.281475
0.000996877
0.0210481
-1.79219e-07
5.35746e-07
-8.75436e-08
-5.09238e-06
0.0137293
0.00104953
-2.98604e-07
-0.00349761
0.030629
-0.197056
-0.101282
1.35671e-06
2.44062e-05
7.56235e-05
-2.90659e-05
1.69426e-06
-8.79984e-07
-3.29668e-07
-0.0953405
-0.0955967
7.75704e-06
-0.0017093
8.63698e-05
-0.0539771
0.000273871
-0.0151213
-1.34909e-07
-0.000155798
0.000506175
1.22827
0.00162452
0.000419737
5.30659e-05
-0.000989129
-0.00164349
-0.000932617
0.0140957
1.50404e-08
0.00534686
0.000213634
1.08949e-06
7.53703e-07
-3.81475e-07
-3.00304e-07
0.0833829
3.09634e-07
-4.92278e-06
0.356714
0.00297739
7.61381e-06
-2.6115e-06
2.77251e-05
0.150558
0.000108064
0.000228639
0.00430215
-2.69385e-07
0.00993268
0.00217682
0.0119798
0.00205208
-0.00828124
1.69197e-06
-0.0194775
4.16083e-07
0.0185386
-0.00105119
0.00597258
0.00459665
0.0341715
0.00150301
-0.00331113
0.0186192
0.000194446
0.0198555
0.000100501
-2.19992e-06
0.0700274
-0.000441096
0.00141008
0.000225551
1.77249e-05
4.8273e-07
0.000244503
-0.00369973
0.00596486
0.0151633
4.67196e-05
0.000458241
-1.96893e-07
2.14447e-05
-1.6134e-06
8.05555e-05
-6.90832e-05
-1.72732e-05
-0.004807
6.42443e-07
-0.000640329
4.77656e-05
-1.36703e-06
0.000155239
-0.001102
0.0280315
-0.00166607
-0.00656675
3.09237e-07
0.0100217
-0.00846274
5.44408e-05
-0.119505
-0.0116184
0.0011964
7.08038e-07
0.00726086
3.20129e-06
0.00242958
0.0183743
-2.07427e-06
-0.00181755
0.0039367
-1.80705e-07
-0.334823
0.00015373
-4.10596e-06
-0.000346027
-0.000380324
0.00632496
-2.04476e-06
0.000366
-0.0124283
-9.03871e-06
0.0123749
-0.00146316
-0.0211003
-0.000257233
-0.0044914
0.00144561
-7.81365e-06
-5.96385e-07
-3.72719e-07
5.24577e-06
4.0615e-08
0.00123563
-1.91688e-07
-0.0258902
-0.000609525
-8.44161e-06
-5.72076e-08
9.30142e-07
0.0003402
4.26046e-07
0.0710263
0.00107142
6.99028e-05
-0.00403518
-0.295678
2.81621e-05
-4.63992e-07
0.000847281
0.0025254
-0.106059
0.305094
-7.81838e-07
-1.1626e-07
-5.88126e-07
0.0205172
5.33307e-08
0.00374462
-2.18437e-08
-0.00102176
5.35353e-05
-1.64761e-06
1.93268e-07
1.41259e-05
-0.00177622
-5.27876e-05
2.60068e-07
1.55399e-06
0.00101363
0.0376553
0.00114197
4.51754e-07
0.0199364
0.00367626
0.00178071
-6.31266e-07
0.00185798
-0.0233831
0.110725
7.41081e-09
0.0466587
0.0048208
-0.00123072
-0.00789029
-2.18171e-07
0.00220017
-1.31469e-06
3.13609e-07
-0.00995324
0.0901236
2.28292e-05
-2.09603e-07
0.00382172
-0.468107
-0.00165331
0.00206886
1.01364e-06
-6.90398e-08
-4.09828e-07
-5.2741e-08
0.0168435
-7.80687e-07
0.00438541
-9.71266e-08
0.0539492
-6.93822e-07
5.61669e-05
-5.75885e-07
7.75828e-05
0.00419609
-0.00397284
0.0531167
-0.0281525
-3.94252e-06
9.8277e-05
-0.707352
0.024658
-0.00536319
0.0129579
-1.98467e-06
0.188607
0.0275593
-0.00150393
-0.000101424
0.103325
-0.0701734
0.140363
-4.29403e-08
5.4932e-06
-0.00118051
0.00912813
3.11137e-07
0.000239002
0.00122436
0.000914362
0.0217232
-0.000111947
0.00227328
-0.0184499
0.000482711
-9.00419e-07
-0.00421697
0.0208788
0.00138206
6.95069e-07
-0.00596685
-0.000147709
6.85343e-05
6.2185e-06
-2.1265e-05
-3.54637e-06
0.00226254
-0.000582432
0.00185251
-0.00232881
-0.000594169
0.00510879
5.70464e-05
0.0023074
-0.00344769
-0.00080893
0.00702706
0.000133539
1.01237e-07
3.10566e-07
-4.59136e-05
-4.91636e-07
-2.92182e-06
-0.150071
-0.222482
0.000144789
-0.0136901
0.0165563
0.00105381
-0.00105518
0.00145826
-0.168003
0.00192565
0.00353592
-1.02847e-06
-8.30173e-06
0.000338437
-0.000202123
-0.0165189
-1.46893e-06
-3.89899e-06
0.000457772
4.93668e-07
0.000158723
-2.11353e-07
0.090257
0.0132877
0.0153771
5.41413e-05
0.000503796
-0.00932007
4.62124e-06
-1.64618e-06
1.33232e-06
0.000259872
2.82815e-06