/*--------------------------------*- C++ -*----------------------------------*\
| =========                 |                                                 |
| \\      /  F ield         | OpenFOAM: The Open Source CFD Toolbox           |
|  \\    /   O peration     | Version:  v2012                                 |
|   \\  /    A nd           | Website:  www.openfoam.com                      |
|    \\/     M anipulation  |                                                 |
\*---------------------------------------------------------------------------*/
FoamFile
{
    version     2.0;
    format      ascii;
    class       volScalarField;
    location    "300";
    object      p;
}
// * * * * * * * * * * * * * * * * * * * * * * * * * * * * * * * * * * * * * //

dimensions      [0 2 -2 0 0 0 0];


internalField   nonuniform List<scalar> 
14033
(
-0.0366476
-0.00246047
0.000427475
0.00124863
2.10417e-05
-0.0021607
-0.000731794
0.00606609
0.00132006
0.0172124
-0.000173148
-0.0353797
-0.00290813
-0.0027863
6.57973e-06
-0.0248915
-0.00931796
-0.0448604
0.00131586
-0.0121225
-0.0217685
-0.0352402
-0.0345597
1.35518e-05
-0.000233491
0.00135087
-0.0416634
-0.0393855
-0.0467166
-0.0406963
-0.0134993
0.00565225
-0.0445749
-0.0121239
-0.022555
0.00131316
-0.0610597
0.0210932
6.42678e-05
-0.00696324
-0.041303
-0.0213825
0.000248514
0.000250898
-0.000232398
0.000174693
-0.0509918
-0.00208418
-0.0426771
-0.0601036
-0.00398304
0.00145988
-0.0600201
-0.0532262
-0.00960756
-0.00322705
-0.0433572
0.00404631
-0.0122921
-0.012993
-0.000231052
-0.0599421
-0.0273339
0.000331094
0.00133546
0.000560091
-0.0345589
-0.0397955
6.86211e-06
-0.00666326
0.00148909
-0.0001596
-0.0502889
-0.0105818
-0.0238178
0.000496471
-0.00302755
-0.00651889
0.0192165
-0.0412015
3.90867e-05
0.0159573
-0.0619208
0.00254685
0.000496311
-0.00027525
0.00407658
-0.0530402
-0.0461384
-0.0118156
-4.10059e-05
5.6177e-05
0.00455158
-0.0502586
4.73432e-06
0.00685908
-0.004148
0.000442971
-0.0616901
0.000791165
0.00056913
-0.00193992
9.21036e-05
0.00380936
-0.0495516
-0.0424552
-0.0467338
0.0026106
-0.0393679
0.00121179
-0.0544314
0.000927077
0.00051083
-0.000494432
0.000946292
-0.0028418
-0.0426677
2.65299e-05
-0.049844
-0.0442635
-0.000146712
-0.0315875
-0.0849186
0.00340766
-0.0532861
0.0046113
0.000702171
-0.000841271
-0.0408726
-0.00260131
-0.0531471
0.000617598
9.09741e-06
-0.0621239
-0.0530843
-0.00720659
-0.0398836
0.00128195
-0.00275038
0.00492149
-0.0148568
-0.048118
-0.0363803
-0.0252067
-0.045225
-0.000171866
-8.90173e-05
-0.032072
-0.0612911
0.00759686
0.00663198
-0.0143725
0.00145366
0.00503604
-0.0018783
-0.0717232
0.00398931
0.0015355
0.00383578
1.40005e-05
0.00326711
-0.042036
-0.0623017
0.00193701
-0.0223513
-0.000280553
-0.0133177
-0.0296207
-0.0624009
-0.000482619
-0.0252302
-0.040095
-0.0351027
-0.0972422
0.000478148
-0.000544534
-0.0440406
-0.0561044
-0.0346557
-0.0253001
-0.0326313
-0.0553466
-0.0131512
0.000865492
0.00124039
-0.0489876
-0.0676121
-0.00276387
-0.0622041
-0.0497565
-0.0517724
-0.013001
0.00476762
-0.00289753
-0.0541816
-0.031373
-0.0272812
-0.044401
0.00135432
0.0010826
0.00272029
-0.0131478
0.00126608
-0.034127
-0.0136948
0.00130331
-0.0310996
-0.0437255
-0.0216824
-0.00425994
-0.040631
-0.0429458
-0.048559
-0.0539245
7.53351e-05
0.00317703
0.00136202
0.00146732
0.00139246
-0.00975944
-0.021324
0.00115022
0.00113772
0.00354197
-0.00137038
0.00014226
-0.0338334
-0.0140259
0.00133397
0.00023201
0.000758727
-0.0421781
-0.00240827
2.47294e-05
0.00198654
-0.0668801
-0.0429342
0.000259685
0.00145784
0.00209575
-0.0847925
-0.00716923
0.000583946
0.00064064
-0.0138425
0.000250554
-0.0411928
-0.0827105
0.0034369
-9.76614e-05
-0.00150199
-0.0434926
0.000234343
-0.0484727
0.00139744
-0.00749415
0.00212437
0.000242821
0.00022964
-0.0490029
1.0683e-05
-0.0450498
-0.00102156
-0.00822637
-0.0142402
0.000655707
-0.00226838
-0.0408954
0.000540122
-0.044937
-0.0108664
-0.0653236
0.000240463
-0.0248716
-0.0528619
0.00145541
0.000779001
-0.0395394
0.00360666
-0.0501788
-0.0431428
0.00197056
0.00725326
-0.0239812
-0.0600787
0.00686912
-0.0498773
0.000233822
0.00524126
-0.0522598
0.00485515
-0.0344041
-0.035778
-0.0224319
-0.000813134
0.000146153
0.00106431
0.00139533
0.000175345
0.0039215
0.00108544
-0.0419668
-0.00541888
-0.0122757
-0.00278672
0.00106086
-0.00467046
0.00090648
-0.0411636
-0.00783178
-0.0397236
0.00208581
-0.0410554
-0.0368961
-0.0474217
9.86538e-07
2.84199e-05
-0.00502994
0.00148909
-0.0461489
-0.00559103
-0.0415755
-0.00969555
-0.000176161
0.0042888
-0.0540241
-0.0126995
0.000209379
-0.0489451
-0.0293353
0.00103858
0.026261
-0.0583995
-0.0223524
0.000112633
-0.0627347
-0.0399504
0.00392792
-0.0643653
-0.00959948
-0.0432121
-0.037129
0.00209972
-0.00923518
-0.000566975
-0.000201958
-0.0310591
-0.00168402
-0.0384329
-0.000520901
0.00096235
-0.00328012
-0.0447727
-0.0296489
0.00244303
6.62e-05
-0.00486275
-0.0679737
0.000185797
0.00391704
0.00248372
-3.02545e-05
-0.085329
0.0055782
-0.000311056
0.00447361
0.000147519
-2.46298e-05
-0.00945498
0.000266013
0.000316596
0.000309559
0.000448524
-0.00260193
-0.0396288
0.0283263
-0.0104821
-0.0173228
-0.0309205
0.000224378
0.000219776
0.00451961
4.71754e-05
-0.00080629
-0.053584
-7.97021e-05
-0.053946
0.000260046
-0.0243442
-0.038079
0.000958155
-0.0456383
-0.0161046
0.00365796
-0.00313407
0.0243857
-0.0183071
-0.0753082
-0.035912
-0.00263426
0.000547426
0.000384757
0.000615662
0.000302581
0.00414564
-0.00145117
-0.00276202
5.55384e-05
-4.2444e-05
-0.0541821
-0.0706676
-0.0429271
0.00100722
-0.00211738
0.000271366
-0.00222412
-0.000102964
-0.00505014
-0.000755918
-0.0838147
-0.0149917
0.00194236
-0.0298099
-6.64287e-05
0.000608843
-0.00281023
-0.00289025
1.46353e-05
-0.024308
0.00391571
0.004422
-0.00680465
-0.0124545
-0.00209402
-0.000154896
0.00223745
-0.00893896
-0.00155838
-0.0190212
0.000164493
-0.0494744
0.000262447
-0.00303041
0.000304451
0.00587332
0.00145545
-0.0307681
-0.0612144
-0.000196448
0.00189717
-0.0398274
0.00031335
0.00108957
0.0057283
0.000507495
-0.0502293
0.00738621
-2.74596e-05
2.9374e-06
-0.025788
-0.00676712
-0.053848
-0.0475897
-0.0423955
0.000218766
-3.59841e-05
-0.0306706
0.00152221
0.000242369
-0.050364
-0.00900591
-0.0246338
0.00295386
-0.00200989
-1.50154e-05
-0.0749588
0.00405735
-0.042082
0.0035455
-0.0513076
0.00315566
-0.0424749
-0.00185278
-0.034356
-0.0484436
0.000373253
-0.0616452
0.00133132
-0.0390744
0.00194541
-0.0067736
-0.059751
-0.0568868
-0.0346805
0.00289402
-0.01031
-0.0397707
0.0169741
-0.0133165
0.00480452
-0.00480735
0.00448437
-0.0507657
-0.000477283
-0.0350934
0.000715494
0.000778741
-0.0334122
-2.07933e-05
-0.0392424
0.000310657
0.00123481
-0.0414237
0.000244333
0.0039131
-0.00773726
-0.032742
0.00045781
-0.00568931
0.00800502
0.00047148
-0.00422331
0.000504739
0.00061371
0.00397887
-0.00903121
-0.00491931
-0.00182199
-0.0064662
-0.000565105
-0.0121374
0.00387164
-0.0693578
0.00283244
0.00097123
0.000601749
0.0028554
-0.000396907
-0.000314151
-0.0443345
-0.00643712
-0.0527823
0.000121165
0.00411807
-0.00234035
-0.0145283
0.00981988
0.000356581
-0.0476888
0.00186804
0.000373064
-0.0414238
1.33583e-05
0.000334889
0.00372011
-0.0419214
0.00277484
-0.0129079
-0.0294628
-0.0647253
-0.0104095
-0.0493104
-0.0236755
-0.0111271
-0.0217515
0.000230307
-0.0150471
-0.00769836
-0.000163665
0.00185788
-0.0487965
-0.0450304
-0.0573129
-0.000394001
-0.0561865
0.00146674
-0.0614506
-0.04165
-0.0166683
-0.064508
-0.0217375
-0.00625327
0.000244551
0.00060787
0.000483554
-0.0451604
-0.00482768
-0.0424076
0.000535594
0.00444496
-0.00455558
-0.0158079
0.000466527
0.00135705
0.000221977
0.00156008
2.20413e-05
-0.0412301
0.000522137
-0.00453188
-0.0013099
0.000207188
0.0023021
0.00160229
-0.021293
-0.0822333
-0.0541719
-0.0624936
-0.0383646
-0.00515524
0.0042893
0.00382734
-0.00486584
0.00290909
0.00530899
0.000668841
0.000324152
0.00119939
-0.0714899
-0.0488546
-0.0545489
0.0010366
0.00319442
-0.0216218
0.000408817
-0.029183
-0.0040048
-0.0203281
-0.00499244
-0.0325407
0.000325392
-8.30746e-05
0.0003261
-0.0413771
-0.00690991
0.0213143
0.000101611
-0.00593991
-0.0414353
0.000479186
-0.0388051
-0.00222611
-8.15943e-05
-0.042442
-0.0410878
-0.0544483
-0.0386589
0.000749885
0.00197558
0.00048776
-0.024428
-0.00180855
-0.0101582
0.00436377
0.00308071
0.0115422
0.000355407
-0.000643406
-0.0594402
0.000435291
6.73184e-05
0.000145417
0.019546
-0.0843939
-0.0106944
-0.0547679
0.000328632
-0.0202289
0.000244617
0.000170432
0.00023231
-0.0399468
-0.0107074
-0.00647428
0.0022693
-0.00140049
0.00129266
-0.0401559
-0.000128772
-0.00498751
-0.0532229
0.00611909
1.78553e-05
-0.00195038
-0.0489287
0.000222331
-0.00530338
-0.0415854
-0.0408414
0.000396629
-0.0383999
0.00326954
-0.0616994
-0.0239597
0.0127455
-0.0626081
-0.0514127
-0.0428301
0.00148642
0.000514
-0.0731857
0.0019309
-0.0379272
-0.00756836
-0.017872
-0.00329412
-0.00166443
0.013108
-0.000612385
0.00306261
-0.0521474
-0.00140892
0.00152805
0.00140806
-0.0544302
-0.0158119
-0.00979152
-0.000161266
0.00148747
-0.0216109
-0.000133107
-0.0305962
-0.032097
0.00140893
-0.0533429
0.00089413
-0.0321884
-0.0301795
0.000311288
-0.00407112
0.000972529
-0.0452924
0.000339075
-0.00238478
-0.0115785
-0.00415498
0.0242139
-0.000219536
-0.070339
-0.00362085
-0.0641798
-0.0160954
-0.000118992
-0.0406219
-0.0642364
0.00092265
0.000380304
0.000484103
-0.0486119
-0.0440137
-0.00478658
0.000227786
-0.000167601
-0.00614695
-0.0206719
-0.0516215
0.000618371
0.0117294
-0.0414551
-0.0653067
0.000585065
0.00355497
0.00630529
-0.00391804
0.000227646
-0.0016054
-0.0607084
0.00087863
-0.00735103
-0.0357927
0.00193226
-2.80154e-05
-0.0123167
-0.00446316
0.00150004
-0.0223506
-0.0468961
-0.0134358
3.92308e-06
0.00292706
-0.0181404
-0.00766567
-0.0654095
0.000435274
0.00135257
0.000576478
-0.0633359
0.00114476
0.00368785
0.00135839
-0.0621997
-0.0189222
0.00035545
-0.0200909
-0.0607499
-2.55457e-05
-0.0434291
-0.0598581
-0.0419794
-0.046277
-0.0371895
-0.0464839
-0.0206817
-0.0407508
-0.0172533
-0.0842315
-0.00051631
-0.072599
-0.000170753
-0.00588329
-0.0102899
0.000310969
0.000889045
-0.0350195
-0.00402833
0.000353134
-0.000342735
-0.0212133
-0.0317981
-0.0383997
0.000919558
0.00063122
0.00142213
-0.00397209
0.00127808
-0.00218273
-0.0232956
0.000541464
-0.00929704
-0.0180211
0.000414371
0.0031762
-0.0577836
0.00267464
0.000312671
0.00504929
-0.0867213
0.000307424
-0.0612197
7.8942e-05
0.00511849
4.56726e-05
0.000898428
-0.0585262
-0.0353691
-0.0230177
-0.00873734
0.00108289
0.00144503
0.000412949
-0.00992924
0.00133725
0.00355313
-0.0844958
9.57869e-05
0.00036696
-0.00302205
-0.0040311
0.000308196
-0.0389294
-0.000260636
0.00325574
6.41558e-05
-0.0344039
0.000640019
-5.47986e-06
-0.00203282
-0.0325139
-0.00972403
-0.0615868
-0.0101898
0.000789631
-0.00159887
-0.085314
-0.0111779
-0.0173991
-0.045092
-0.0694442
-0.0422719
-0.0439732
-0.000459485
-0.0238697
-0.062362
-0.0312732
-0.0252266
-0.0539119
-0.00281963
5.21146e-05
0.000477346
-0.0111926
-0.00451316
-0.0212719
-0.00050613
-0.00294687
-0.0250245
-0.00242395
0.00530126
-0.00371808
-0.0685
0.000210634
0.00291131
-0.0419501
-0.0391082
0.00013028
-0.00444358
1.9134e-05
0.0248102
-0.0448645
-0.00819998
-0.00150172
-0.00324054
0.000373901
0.000542344
-0.00490807
-0.0102185
-0.0113504
0.000551107
0.00296138
-0.00818352
0.000728701
0.000440697
-0.0493266
0.0150098
-0.00834071
-0.00470466
-0.0457428
-0.000439515
0.000169523
0.000319426
0.0021835
0.00133869
-0.00710315
0.00260781
0.00287016
-0.0419138
0.00272707
0.000193646
0.000434761
-1.05483e-05
0.00279386
-0.0434233
-0.0405326
-0.042495
-0.0203753
-0.0135477
-0.0280498
0.000297565
-0.00305923
-0.0287415
-0.00451481
-0.0521841
-0.031119
0.00148912
-0.00638448
1.20034e-05
-0.0562282
0.000718208
0.000342923
-0.0615419
0.00161899
-0.042609
0.000462242
0.000516505
0.00046855
0.000240469
-0.0423749
-0.0631023
-0.00816218
0.00211538
-0.0386363
0.00184753
0.000240026
0.00179816
0.000455932
0.00172659
0.026946
0.00780895
0.0140687
-0.0635103
-0.0566907
-0.00259837
-0.016208
0.000620309
-0.00066983
-0.00975636
-0.00419255
-0.029222
-0.00194974
-0.00443966
0.0121196
0.00540253
0.00314265
0.00310374
0.00308896
-0.000120468
0.0010229
-0.0376494
-0.0451999
0.00267111
0.000257113
0.0014729
0.000453192
-0.00106256
0.000325086
0.00267701
-0.0503656
-0.0484278
0.00117849
-1.17344e-05
-0.000636403
-0.0407386
-0.0448281
-0.0351084
-0.00432201
0.00162507
-0.009806
0.000315593
-2.82239e-05
-0.0756045
0.00145736
-0.0211739
-0.0401229
-0.0392323
-0.0461061
0.0212285
-0.0089218
-4.76155e-05
-0.0263394
-0.00609074
-0.0198371
-0.0452849
0.00309943
-0.0425884
0.0016568
0.00153661
-0.0562404
-0.0509603
0.000348204
-0.0187171
-0.000255646
-0.03337
0.000403591
-0.01169
0.0002755
-0.0114792
0.0142103
-0.0239481
-0.0427732
-0.027028
0.00195552
0.000740338
0.000920083
-0.0750588
-0.00946214
-0.0232287
-0.0417233
-0.0443648
-0.0450341
-0.0270213
-0.0450393
-0.000777073
0.000101968
-0.00234644
-3.10928e-05
-0.00728771
0.0010984
0.000204633
-0.00315566
-0.0598797
-0.0474281
-0.0444678
0.00349306
0.00180636
-0.0600601
-0.0095004
-0.012603
-0.0135086
-0.00363289
-0.00865897
-0.0234942
-0.0370917
0.00867292
-0.0374983
-0.0638176
-0.0266491
-0.000721381
-0.00854974
-0.00255064
0.00957158
-0.0144628
0.00500746
0.00139398
-0.0257931
-0.0329905
-0.00247788
0.00010087
0.000329376
5.72419e-05
-0.0621854
-0.00458309
0.00179185
2.21645e-05
0.0124925
0.000817117
-0.0430245
-0.0622837
0.00145347
0.000459413
0.004422
-0.0338266
0.000493723
-0.0532421
0.00377885
-0.0159553
-0.024323
-0.0444763
-0.0399627
-0.0191011
-0.00978727
0.00546406
-0.00468917
-0.0483022
-0.000478517
0.00128754
0.00190307
0.000111612
1.811e-05
-0.0477595
0.00030832
-0.0449052
-0.000557888
0.000532303
-0.0682719
0.00102994
0.00440503
-0.0540346
0.000591618
0.000444106
-0.00209038
-0.0669837
0.00059679
0.000391784
-0.0551873
0.000525644
-0.0421527
0.000677429
-0.0848239
-0.0232342
-0.0116988
0.00134445
-0.0250636
0.000245649
5.48976e-06
-0.0619471
0.00131235
0.000577784
0.00115917
0.00357172
-0.00561923
3.08542e-05
0.00103472
0.000313095
0.00305329
-0.000879814
-0.0483908
0.000135751
0.000376793
0.00142026
0.0269841
-0.047625
0.000819575
-0.00225699
0.00148946
-0.0492741
-0.00123706
0.00104101
3.1684e-05
0.00867421
-0.0664627
-0.0302394
-0.0113758
-0.0287688
-0.0316296
0.00188614
0.00304318
0.000365659
0.0132557
0.00148792
-0.0015966
-0.000284552
-0.0276341
0.00183831
-0.0092408
-0.00373081
0.000287582
0.00222632
0.00469861
0.0113463
0.00240427
0.00108796
-0.0425796
0.00487905
-0.0475494
0.000231056
-0.0487841
2.03231e-05
-0.060208
-0.000397804
0.00150498
0.00488861
-0.0473959
0.00188924
-0.0463488
0.00302455
0.00145284
0.0230044
0.00101333
0.000289152
0.000209976
-0.03139
0.00734435
0.00357935
0.0181154
-0.004742
-0.00827169
-0.0240552
-0.0795768
-0.035534
-0.0421284
0.0262169
-0.0013913
-0.0567525
0.000774853
0.00307729
0.000621536
0.00187672
0.00125994
-0.00935218
0.00881089
0.0217259
-0.00806853
0.00186188
0.000319446
-0.00556554
0.00429779
0.0014642
0.000139704
0.000328049
0.00127145
-0.0273343
0.00190436
-0.0659792
0.00102402
0.00158896
-9.39809e-05
-0.00424832
-0.01736
0.00127663
-0.01262
-0.00587632
0.000414025
-0.00481736
0.0217636
-0.0098071
0.00750503
0.00366382
-0.00275347
-0.0532866
-0.047899
0.00249886
-0.0481494
-0.0227171
-0.00218444
0.0223515
-0.00495956
0.000583421
-0.0366189
0.00175703
-0.0582826
-0.0486267
-0.00218271
-0.00130086
0.000238757
0.000401642
0.00128146
-0.034402
0.0243892
0.00112657
0.00160062
-0.00184582
0.00123909
-0.0233305
-0.0371029
-0.0158938
-0.00192141
0.000477652
-0.043108
-0.00213998
-0.0414669
-0.057549
-0.0590576
-0.0424211
-0.00524963
-0.0556321
0.00172729
-0.000638415
-0.044937
-0.0198475
-0.0763765
0.00145687
-0.0711824
0.00213998
-0.000688206
-0.0428543
0.00764051
-0.0326651
-0.0446655
0.000176382
0.00111508
1.36403e-05
-0.0541634
0.000398925
-0.0236065
0.000200295
-1.33552e-05
-0.0629997
-0.041832
0.00708901
-0.00838363
-0.00442607
-4.20813e-05
0.000344199
-0.000787988
-0.0298552
0.00176244
0.000648523
-0.00650323
-0.00135813
0.000998049
0.00645263
-0.0603426
-0.00231616
-0.0848603
-0.00361423
0.00114392
0.000642874
0.0001297
-0.00162597
-0.0371368
0.000424545
0.000289912
0.00528048
0.0117818
-0.0209607
-0.053414
-0.000833959
-0.0314775
-0.0375559
-0.0314206
-0.00582667
-0.000664289
-0.00543672
2.05547e-05
-0.0447788
0.000318831
0.00383064
-0.058028
-0.0781347
-0.024306
-0.0381333
-1.49061e-05
-0.019229
0.000350012
-0.0393954
2.10799e-05
0.000315119
-0.0597913
-0.00324715
0.00419574
0.0027333
-0.000805554
-0.00370415
-0.000411539
-0.0643755
-0.0532969
-0.00304557
-0.0297783
-0.0173074
0.000196859
0.00141581
-0.0463794
0.000328981
-0.0138833
0.00184293
0.00149638
0.00118771
0.00145289
-0.00630583
-0.00908428
0.000238018
-0.0383799
0.00481076
0.00201339
-0.026312
-0.0571724
-0.0363432
-0.0507084
-0.0369172
0.0205635
0.000173921
-0.0246987
-0.0292257
-0.0415481
0.000373316
-0.000476151
0.000435824
0.000340909
0.00216954
0.000223639
0.00482492
0.000484684
-0.0422101
-0.0696506
-0.0400552
-0.0278319
-0.0389721
0.00271084
-0.0471496
-0.0365487
0.000902201
0.00261126
-0.0111904
0.00237319
-0.0418816
0.00149264
-0.0464025
0.00049813
-0.0516783
0.000386283
-0.0459003
-0.0434938
-0.0120821
-0.000533279
-0.0592765
-0.004257
-0.0634949
-0.0356977
-0.00146574
-0.00448356
-0.00119004
1.34162e-05
-0.0443806
-0.00133037
2.08923e-05
-0.0470085
0.00409186
0.00180846
0.00282358
-0.00225114
-0.000604995
-0.000535955
-0.0336705
-0.0050823
-0.0186039
0.00268398
0.00146668
-0.00806942
-0.00526575
-0.0507491
-0.000496389
0.00135488
-0.0401738
-0.0459441
-0.00149309
-0.0455096
-0.0273902
-0.0524096
-0.0153828
-0.0214019
-0.0550651
0.000305922
-0.00092545
-0.00845703
-0.0069085
-0.0626997
-0.0407578
-0.0117421
-0.0398169
0.000307653
-0.00279183
-0.0513685
0.00124922
-0.020652
-0.00272659
0.00805917
0.015936
-0.0237101
-0.00638143
-0.0633886
-0.059224
-0.00489208
-0.0300994
0.00173065
0.000807463
-0.0319102
-0.0125029
-0.00115229
0.0108697
-0.0157557
-0.0415704
-0.00101291
-0.00749993
-0.0409687
-0.000213233
-0.0126563
-0.0568241
0.00394778
-0.0434071
0.00212259
0.00294482
-0.0442448
-0.00224281
-0.00819505
-7.72407e-06
-0.00422999
-0.0208399
-0.00183364
-0.000222026
0.00052469
0.00338245
0.00158435
-0.0440343
0.000306445
-0.0102047
-0.0297527
0.000301494
2.52581e-05
-0.0431424
-0.0215371
-0.0500608
-0.0220634
-0.0363866
-0.00726667
-0.0576673
-0.0566791
0.000316728
-0.0552994
-0.00669847
-0.00900422
-0.0409013
0.00287614
-0.00350287
-0.0408446
0.00322471
-0.0312191
-0.0299647
0.00233484
0.00141407
0.000156893
0.00105029
-0.0112356
0.00126033
-0.043955
-0.000605678
-0.0453981
-0.00150216
-0.000692562
-0.0419731
0.00262928
-0.0085592
-0.0504139
0.000312176
-0.0508878
-0.0581603
0.0046002
-0.0499724
0.00196169
0.0204339
-0.0793851
-0.0282537
0.00412428
-0.00253281
0.000262499
-0.00198104
-0.0599197
-0.0121563
0.0029358
-0.0450802
-0.000608353
0.00100768
-0.0479356
0.000541492
0.000327375
0.000897987
-0.00026664
0.00472048
0.000398945
-0.0142778
-0.00206709
0.00131896
-0.042112
-0.0416851
0.00128368
-0.00386792
-0.00777489
-0.0440384
-0.012296
0.00157588
-0.0112419
-0.0481718
-0.041276
-0.0512802
0.0171346
0.000294493
7.19505e-05
-0.00017383
-0.0273383
0.00451046
-0.0405075
-0.000843633
-0.00442063
0.000260447
-0.0396399
-0.0178263
-0.0579134
-0.0242757
-0.0512114
0.00171047
-0.0345252
-0.00755646
-0.00793281
5.34069e-05
-0.0613998
0.001103
0.000640401
-0.0542106
-0.0165376
-0.00883851
0.000324414
-0.0249316
-0.0430258
-0.0456929
0.002898
-0.0672975
-0.000312837
-0.00157043
-0.00235112
0.00369044
0.0192126
-0.0409994
0.00197835
-0.0426612
0.015369
-0.0203211
-0.0620058
-0.0532913
-0.0542078
-0.0226425
0.00256739
0.000891529
0.000331704
0.00143887
-0.0572665
-0.0413432
-0.00383839
-0.0394498
0.00146027
-0.00026769
-0.0402403
-0.00394053
0.00173075
-0.0472199
0.00303218
0.0255341
0.00135896
-6.25655e-06
-0.012149
-0.0354177
-0.0416662
-0.0409465
0.0017025
0.000531321
0.000333933
-0.00714298
-0.033749
-0.00183383
-0.0101815
-0.000290484
0.00569504
0.00152232
-0.00721694
0.000427991
-0.0355057
-0.0486079
0.00211004
-0.0307706
-0.00695343
0.000509172
-0.0412635
-0.0350214
-0.000325775
-0.0404004
-0.0411827
-0.0369863
0.000248571
-0.0434852
-0.0495599
-0.0128183
-0.0435261
0.00317294
0.00310315
-0.0575125
0.000972916
-0.0205938
-0.0394949
-0.050001
-3.21223e-05
0.0151205
0.00269052
-0.0845576
0.00157377
0.00191131
-0.0291746
0.00198764
0.000597702
0.002604
-0.0503105
0.00438594
0.000259128
-0.0129324
-0.0017918
-0.0862229
0.00228197
-0.0327093
0.000596194
-0.0363409
0.00434695
-0.0740094
-0.000671697
0.00088876
-0.0402144
0.00304741
-0.00381457
-0.000395941
-0.0147223
0.0010582
0.0017843
0.00318112
0.0025381
-0.000431642
-0.0311031
-0.0556669
0.00130926
-0.0350973
-0.0413986
0.000131134
-0.0202405
0.000871361
-0.00846075
-0.0121029
-0.00339771
-0.00675985
-0.0454036
0.0012425
-0.0608115
0.00144634
-0.000141859
0.000664069
0.000987152
0.00150178
-0.00873888
-0.00481855
0.00280697
0.000627434
-0.00446361
0.000817418
-0.0397722
0.00167687
0.00627573
-7.2552e-06
-0.0540602
-0.0853707
-0.0443682
-0.003662
0.000557252
-0.00185825
0.0177157
0.000623724
-0.057971
0.000723214
-0.00688481
-0.00319981
0.00276493
0.00031903
0.00205337
-0.0873579
0.00814285
0.00148688
-0.0567543
-0.00394384
-0.0462031
-1.1152e-05
-0.0715532
-0.0452956
-0.0213352
0.000596819
-0.00704835
-0.0413232
0.00208448
-0.0210911
0.000852602
0.00393229
0.0017609
-0.0116494
-0.0430879
-0.000384073
0.000648958
-0.00464034
-0.0065528
-0.0371886
0.0042633
-0.00445689
-0.0378019
-0.0341634
-0.000158459
-0.0489519
-0.0161088
-0.0332285
-0.00248736
-0.00224993
-0.00144642
0.00287258
0.00778447
0.00880271
-0.0290687
0.0199949
-0.0501045
-0.0101602
-0.023915
-0.020468
-0.00416151
0.000178123
0.000353793
-4.61772e-05
-0.0428882
0.000156038
-0.00569617
0.000302861
-0.000837312
-0.0866775
-0.058784
-0.000382383
-0.0430369
0.00181853
-0.0139896
0.000834319
-0.0471678
-0.0039657
0.00256979
0.00848985
0.00197215
-0.0405431
0.000291486
0.000213467
0.000353877
-0.0425578
0.00727479
0.00246366
-0.0480013
-0.0213786
0.00186484
-0.00865813
-0.000124763
0.00144363
-0.030224
-0.0425146
-0.00413577
-0.0347038
0.00814065
0.00104196
0.000201491
-0.0443479
0.000546045
0.0026115
0.00346443
0.000141631
-0.00303126
0.000303073
-0.000430007
-0.0442334
0.00263069
-0.0021095
0.000358701
0.00032171
0.00499828
0.000167732
0.000455651
-0.0428896
-0.00434696
0.00161249
-0.000525921
-0.0668134
-0.000562936
0.00144736
-0.0570801
-0.028881
-0.00168724
-0.0299318
0.000166752
-0.00452116
-0.00880419
-0.0109471
-0.00549734
-0.0474676
0.00170494
-0.0101949
-0.0226047
0.0150538
0.000884395
-0.0191893
0.00213455
-0.000731718
-0.0764277
5.62011e-05
-0.0430184
-0.00957455
0.00174654
0.00186264
0.00282194
-0.00141488
-0.00040833
0.000159683
-0.0603584
-0.0584691
0.00216533
-0.00549029
0.00396186
0.000339316
0.000101868
0.000290117
0.00159988
0.0107239
0.00474871
0.00347327
7.87531e-05
0.000182936
-0.0346948
-0.0451476
-0.0562646
0.000470398
-0.0587003
-0.0453512
0.00189283
-0.0570004
1.84622e-05
-0.037759
-0.0604011
-0.054975
-0.00332537
-0.0539313
0.0204965
-0.0440314
-0.0862325
-0.000227328
-0.00912098
0.00668298
0.000963861
-0.00114616
-0.0405104
-0.0439533
0.00044051
0.000228524
-0.0396652
-0.0582874
0.000316375
-0.012027
0.000460038
-0.011619
-0.00843828
0.000943272
-0.0530943
-0.0396171
-0.030427
-0.0587946
-0.0124968
-0.06339
-0.02917
-0.0517303
-0.020415
-0.043435
-0.018018
-0.0595866
-0.00818024
0.00141676
0.00144628
-4.91673e-05
-0.0438719
0.0014676
-0.00645121
-0.00576149
-0.0130497
0.00440114
-0.0145586
0.00212932
0.000698995
-2.86459e-05
0.0120999
-0.0735388
0.000636145
-0.00369032
-0.00762587
-0.00581704
0.00312583
0.00109456
-0.0430488
0.000972464
-0.0137809
0.00286394
0.00133536
-0.0659387
-0.00288391
-0.00026108
0.000180778
-0.0048164
-0.0053713
0.00105575
-0.00315263
0.000352879
-0.0104127
-0.0142831
-0.0020373
-0.00334168
-0.0526853
-0.000666915
-0.0512721
-0.000486324
-0.000193938
-0.041259
-0.0490262
-0.000266903
-0.0059599
0.000223791
0.00105608
-0.00550184
-0.00177499
0.000180759
0.00275625
-0.0589923
0.00177905
-0.0523722
-6.87542e-05
0.000874424
-0.0156793
-0.00749275
0.00236263
-0.0569388
-0.0134134
-0.0346507
-0.058668
0.00253476
0.000268167
-0.0080856
0.000246249
-0.000741195
-0.0355539
0.00417556
0.00750361
0.0008109
0.000591813
-0.0701298
0.000278335
-0.0570683
-0.0477603
-2.58822e-05
-0.00543563
-0.0345593
-0.00420023
0.00103227
-0.0344842
-0.0428737
2.12334e-05
0.010276
-0.00264911
-0.0280863
-0.00688447
0.000314134
-9.40624e-05
-0.0087417
0.000463758
0.0063519
0.0020811
-0.0776945
0.003137
0.00144325
-0.0412552
0.00203181
-0.040875
-0.0211383
-0.0586502
0.000657181
-0.0581953
-0.00379239
0.000186225
-0.0647738
-0.00211479
-0.0661429
6.71335e-05
-0.0247
-0.00977142
-0.000479279
0.00145074
-0.045985
-0.0165394
-5.52756e-05
-0.00901625
0.0140117
-0.0519239
-0.0523867
0.00211968
0.00651449
-0.0219416
0.000808544
-0.00131843
-0.00559235
0.00106966
1.93038e-05
-0.0523231
-0.00289386
-0.00399515
-0.0582531
-0.0431175
0.000993838
-0.000667385
-0.000399222
-0.0429062
-0.064517
-0.00244738
-0.0562702
-0.0677805
-0.00967096
-0.00917404
0.00176124
-0.0160724
0.000196066
-0.0571268
0.00348083
-0.0166446
-0.0352682
-0.0196038
-0.0029942
-0.00319905
-0.00157
0.00713327
-0.0464262
0.0212048
0.00170405
0.000270354
-0.0448809
-4.12955e-08
0.00150017
-0.00794679
0.0019697
-0.0572653
-0.000629543
-0.0599974
0.000450953
-0.00159185
-0.0474424
0.00274477
0.000816461
-0.00998617
-0.0067997
-0.0219271
0.00389009
-0.0572272
-0.0419035
-0.00771223
-0.0377256
-0.0561075
0.000567213
-0.0219085
-0.0290298
0.0218004
-0.0287637
-0.0575398
-0.00190275
-0.00196617
-0.00130125
0.00262686
-0.0425502
-0.060253
-0.00118388
-0.058869
0.00398328
-0.0535675
-0.0407087
0.00242731
6.12763e-05
-0.00730634
1.01661e-05
0.00162115
0.00114688
-0.00393754
-0.0540596
-0.0681258
-0.00816055
-0.0406752
0.000423872
-0.0593971
-0.0367458
-0.0543526
-0.00167569
-0.0232999
0.00325714
-0.052987
-0.010793
-0.0065149
4.97487e-05
0.000183181
0.008885
-0.037687
-0.0567752
-0.00130823
-0.00141217
-0.00715689
0.000336504
-0.00363212
0.000848886
0.000241818
-0.0234903
0.000278008
0.0025236
-0.0816425
-0.0407605
-0.0130164
0.0015621
-0.0150393
-0.0511945
-0.0205596
-0.022038
-0.0015194
-0.00122244
-0.0512764
-0.0422876
-0.0576347
-0.056216
0.0226209
0.00237752
-0.0489389
0.00173824
-0.0597551
-0.0344481
-0.0440074
-0.0672956
-0.0139306
-0.0374071
-0.0588862
-0.0517927
-0.0234735
-0.0524151
-0.00455191
-0.00172463
-0.0413257
-0.018235
-0.0336916
-0.00639262
0.00061977
0.00139206
-0.0203836
0.0003773
-0.057918
-0.00916412
0.000216801
-0.0339789
0.000329852
0.00145431
0.000402956
-0.0112671
-0.00396393
-0.00956863
0.0039837
0.000331975
-0.0384103
0.00366808
0.00207045
-0.0206757
-0.0339005
-0.0506567
-0.0155942
-0.0559526
0.00162587
-0.0505378
-0.0548138
-0.0270411
-0.0523452
-0.0409256
-0.00526996
0.00123145
-0.0390342
-0.00301443
-0.0391992
-0.0634945
0.00199934
0.00013077
-0.00278846
0.00139653
-0.0410242
-0.0201415
-0.00269427
-0.0341438
0.00337478
-0.0440006
-0.0016482
-0.0341138
0.0111647
-0.00967724
-0.0575245
-0.0364983
-0.0479791
-0.0262159
-0.0327379
-0.0233356
0.00354684
0.000320582
0.00255293
-0.00881174
-0.000442933
-0.0351069
-0.000162262
0.0199691
-0.0294364
-0.0153492
0.00165349
-0.00769213
-0.00812772
0.00149099
-0.0514229
-0.0100146
-0.00624953
-0.0381495
-0.0410931
-0.0207387
-0.00231608
-0.039202
-0.0516193
-0.0571486
-0.0500176
0.00168812
-0.00175818
-0.00159391
-0.048207
0.00219745
-0.0689761
0.0014841
-0.0353201
-0.00881752
-0.00803282
0.00127692
-0.0107122
-0.0328676
0.00204381
0.00107168
0.00259591
-0.0248518
-0.0540978
-0.0203679
0.00146575
-0.05542
-0.0130985
0.00270782
0.000242244
-0.0216406
-0.0588624
-0.0289693
-0.000593176
-0.0685842
-0.0425902
-0.0401794
0.000623375
-0.00362126
-0.0315397
-0.0086622
-0.0001356
-0.0438158
-0.0523622
0.00401364
0.000291197
-0.0296953
-0.0527872
-0.032033
-0.038147
0.00268685
0.00106271
-0.000982346
0.0010256
0.0070234
-0.00598757
-0.0518415
0.00113618
-0.0514905
0.000237384
0.00381239
-0.0023138
-0.0202183
-0.0546068
-0.0378387
-0.0562179
-0.0472541
-0.0103074
-0.0315245
0.0272237
0.0225447
0.000748116
-0.0442454
-0.00949395
-0.0827354
-0.0498634
-0.0307594
-0.00796651
-0.0467393
-0.0441149
-0.069376
0.00116154
-0.00807844
-0.0411855
-0.0563881
-0.000439212
2.42996e-05
-0.0431243
-0.037936
-0.0569655
0.00353052
-0.0419377
0.00316868
-0.00195326
0.000708255
-0.0437754
-0.0605334
-0.049031
-0.00420658
-0.0434698
0.00933261
-0.0168116
-0.00860628
-0.00984317
0.000916274
-0.0385866
-0.0398379
-0.0392404
-0.0403301
-0.0408115
-0.0411073
-0.0206136
-0.0102157
-0.0186527
-0.0372246
-0.0405836
0.00287603
-0.00021956
0.00196158
-0.0206311
-0.00432413
0.0011628
-0.053335
0.0232241
-0.0296735
0.000695134
-0.0569854
-0.0389613
-0.0177676
-0.0453134
-0.0580433
-0.0393346
-0.0530702
0.000416301
-0.00940254
-0.00648998
-0.00777759
-0.00160776
-0.00487177
0.00167351
-0.0300815
-0.00400151
-0.0413539
-0.000609295
-0.016323
-0.0559967
-0.0414494
-0.00539529
-0.00749028
-0.0420227
-0.0128038
0.00264362
-0.00261016
-0.00678201
-0.00759931
-0.0545172
-0.0629555
-0.00389987
-0.0466835
0.00310842
0.00346497
-0.0437336
-0.0137043
-0.0503412
-0.0115635
-0.0382651
-0.00914044
-0.0390525
0.00169213
-0.0188461
-0.0431805
-0.0398915
-0.0536843
0.000608022
-0.0404885
-0.0492646
-0.0391606
-0.0411626
-0.0661454
-0.0438271
-0.0404741
-0.0323718
-0.00223227
-0.0565285
-0.0298995
-0.0343212
-0.051288
0.000277835
-0.057431
0.013999
-0.0469195
-0.0566745
-0.0202041
-0.0466756
-0.0048431
-0.0608679
0.000259356
-0.0104256
-0.0540321
-0.00823056
-0.00127151
-0.00510294
-0.0558592
0.00118527
-0.0548111
-0.0414229
-0.0520143
0.000402805
-0.0540083
-0.0781533
-0.0228891
0.00112621
0.00255941
-0.00991607
-0.0476112
-0.0406476
-0.0477374
-0.0119858
-0.0110912
-0.00772269
-0.0484928
-0.00276712
-0.0107454
-0.019795
-0.0356198
-0.008321
-0.026213
-0.043902
-0.00929653
-0.0139556
-0.00314876
-0.00621746
-0.0447685
0.00634061
-0.00446342
-0.0482104
-0.0431158
-0.0422988
-0.0421236
-0.045665
-0.0383755
-0.0293338
-0.0840956