/*--------------------------------*- C++ -*----------------------------------*\
| =========                 |                                                 |
| \\      /  F ield         | OpenFOAM: The Open Source CFD Toolbox           |
|  \\    /   O peration     | Version:  v2012                                 |
|   \\  /    A nd           | Website:  www.openfoam.com                      |
|    \\/     M anipulation  |                                                 |
\*---------------------------------------------------------------------------*/
FoamFile
{
    version     2.0;
    format      ascii;
    class       volVectorField;
    location    "300";
    object      U_0;
}
// * * * * * * * * * * * * * * * * * * * * * * * * * * * * * * * * * * * * * //

dimensions      [0 1 -1 0 0 0 0];


internalField   nonuniform List<vector> 
14033
(
(1.06451 -0.0503501 0)
(0.719003 0.0189357 7.22421e-22)
(1.01487 -0.000122106 0)
(1.01986 -0.00141965 -2.80233e-22)
(1.01907 -8.23072e-05 0)
(1.02381 -0.00141932 1.64623e-21)
(0.827075 -0.0234398 2.26017e-22)
(1.02987 0.00357197 -6.84731e-22)
(1.0198 -0.00139422 5.72165e-22)
(0.847372 -0.063102 8.02661e-21)
(1.02719 -0.00229885 0)
(1.06232 -0.00296646 0)
(1.02846 -0.0086842 5.59192e-22)
(1.02824 -0.00831674 9.64199e-22)
(1.01828 -8.30544e-05 8.29308e-25)
(1.05181 -0.00290475 0)
(1.03428 -0.00256904 -1.97986e-21)
(0.525126 -0.0680653 0)
(1.02317 -0.00420819 0)
(1.03729 0.000777442 4.38838e-21)
(1.04834 -0.00256628 4.85949e-21)
(1.06226 -0.00267968 7.00084e-21)
(1.06207 -0.0257405 -1.77821e-20)
(1.01908 -7.12887e-05 6.34428e-25)
(1.02744 -0.00260041 0)
(1.02304 -0.00410732 0)
(1.06879 -0.0148626 -2.36366e-22)
(1.0662 -0.00294027 -1.38092e-20)
(1.07606 -0.0294549 6.44136e-21)
(1.06736 -0.00192172 0)
(1.03995 -0.0107729 -2.57737e-21)
(1.03048 0.00317113 5.19762e-22)
(1.07159 -0.0133809 0)
(1.03723 -0.0260567 3.25802e-21)
(1.04651 -0.0671273 4.50199e-21)
(1.0154 -0.000142841 7.80003e-23)
(0.933678 -0.0236982 -1.38755e-20)
(0.811824 -0.0593629 -9.24053e-21)
(1.02 -0.000130941 -3.89778e-23)
(1.03194 -0.00522288 6.0858e-21)
(0.816604 -0.0751021 7.95528e-21)
(1.04806 -0.00183817 -7.77488e-21)
(1.02753 -0.000668829 0)
(1.01726 -0.000183109 8.55304e-23)
(1.02865 -0.00427559 -8.25255e-23)
(1.02737 -0.000784166 0)
(0.769143 0.00207191 1.01487e-20)
(1.02377 -0.00151717 -7.11982e-22)
(1.07058 -0.0200303 2.41809e-20)
(1.00537 -0.0215064 1.19004e-20)
(1.0273 -0.00297535 2.1564e-21)
(1.01558 -0.000189535 0)
(0.666796 -0.0233389 -1.60194e-20)
(1.00866 -0.0356043 2.35509e-20)
(1.03455 -0.00225824 2.44143e-21)
(1.02881 -0.00847884 0)
(1.06945 -0.00170539 -2.71533e-20)
(0.688577 -0.0900686 -2.09052e-21)
(1.03732 -0.0264819 -3.00638e-21)
(1.0394 -0.0106589 -2.45913e-21)
(1.02675 -0.00381122 -1.65963e-23)
(0.998742 -0.0222173 -3.4721e-20)
(1.05444 -0.0227964 4.29417e-21)
(1.0273 0.000169325 -1.67812e-23)
(1.01754 -0.000169565 0)
(1.0234 -0.000384607 -2.64225e-22)
(1.06265 -0.0497633 0)
(1.06647 -0.0068081 -2.72171e-20)
(1.02572 -0.00377694 -4.93712e-24)
(1.0331 -0.0131924 -1.54224e-21)
(1.01737 -0.000191496 3.22619e-23)
(1.01928 0.000241975 -2.12912e-23)
(0.76142 0.00220466 -6.47742e-21)
(1.03537 0.00224695 0)
(1.05057 0.00144928 -1.02831e-20)
(1.02116 -0.000664536 9.29564e-23)
(1.02471 9.59033e-05 -6.31707e-22)
(1.03303 -0.0139233 -3.15498e-21)
(0.444327 -0.0790409 0)
(1.06777 -0.00269833 -1.03539e-20)
(1.02793 -0.00122679 -3.10068e-23)
(0.504341 -0.0817286 2.78842e-21)
(0.668208 -0.0236766 -3.37251e-20)
(1.02129 -0.00214154 -6.57256e-22)
(1.01787 -0.000277531 0)
(1.01896 7.46218e-05 9.9428e-23)
(1.02175 -0.00502172 0)
(1.00483 -0.0363358 -1.52328e-20)
(0.791674 -0.000226698 1.03214e-20)
(1.03695 0.00138978 -8.46861e-21)
(1.01818 -0.000233255 -1.35341e-22)
(1.02804 -0.00113338 0)
(1.01966 -0.0049388 0)
(1.07727 -0.0023483 -2.07232e-22)
(1.02522 -0.00427669 1.57366e-23)
(1.014 -0.0369039 0)
(1.02764 -0.00307619 0)
(1.01352 -0.000134996 1.30824e-22)
(0.814118 -0.0240212 0)
(1.01762 -0.000353011 2.28179e-22)
(1.02358 -0.000277475 3.54354e-22)
(1.02352 -0.00153902 3.7657e-22)
(1.02465 -0.00445796 1.16175e-23)
(1.02119 -0.000590262 0)
(0.762269 0.00198637 1.07602e-20)
(1.0691 -0.00845939 -1.39381e-20)
(0.828947 -2.80507e-06 0)
(1.0214 -0.00231174 0)
(1.06612 -0.00667163 8.80616e-23)
(1.01545 -0.000168097 -2.10121e-22)
(0.791801 0.00147264 0)
(1.00958 -4.79528e-05 0)
(1.01707 -0.000271353 -2.45419e-22)
(1.0499 0.0347484 0)
(1.00642 1.14885e-05 0)
(1.02436 0.000300213 -5.41557e-22)
(1.06901 -0.00260821 1.98994e-20)
(1.02057 -0.000143779 1.24999e-23)
(1.07556 -0.00306965 -3.92123e-20)
(1.07133 -0.0135138 0)
(1.01956 -0.000631266 0)
(1.05877 -0.00682635 3.4413e-21)
(-0.0189164 0.0525321 2.40696e-20)
(1.02207 -0.00577387 -2.94607e-21)
(1.07969 -0.00521233 -1.28031e-20)
(1.01934 -0.00467879 0)
(1.02161 -0.000196256 -2.53052e-22)
(1.05683 0.0275695 -3.44174e-22)
(0.564588 0.0104161 1.05286e-20)
(1.02446 -0.00115648 0)
(0.760077 0.00329283 5.75394e-21)
(1.01772 -0.000209239 1.038e-22)
(1.02002 -9.16178e-05 -1.34446e-25)
(0.943076 -0.0079625 -2.55239e-21)
(0.78318 0.00190471 0)
(1.03363 -0.0126164 -1.99154e-21)
(1.06664 -0.00342847 1.17157e-20)
(1.0169 -0.000129555 0)
(1.02461 -0.00111643 1.82774e-21)
(1.01784 -0.00467443 -7.91963e-23)
(1.04132 -0.0174587 0)
(1.07357 -0.0017482 1.66551e-20)
(1.06344 -0.0103739 -6.01808e-21)
(1.05218 -0.00448845 0)
(1.07462 -0.0313198 1.01532e-20)
(1.02792 -0.0040424 1.21196e-22)
(1.01946 -0.000622365 4.95653e-23)
(1.05937 -0.0138076 0)
(0.949012 -0.0225071 4.69802e-20)
(0.985142 -0.0549917 -1.36334e-21)
(1.01347 -0.046959 1.96911e-21)
(1.04087 -0.017054 2.51657e-21)
(1.01689 -0.000159337 -2.56125e-22)
(1.03161 0.00121089 1.44807e-21)
(1.02348 -0.001593 -7.23043e-22)
(0.724943 -0.00322311 1.64585e-20)
(1.02156 0.000407149 1.18478e-22)
(1.0214 0.000688764 6.12647e-22)
(1.02155 2.19549e-06 -1.2325e-21)
(1.01853 -7.27235e-05 0)
(1.02202 -0.0119167 0)
(1.06924 -0.0156649 -1.4081e-20)
(0.974378 -0.0106571 4.3827e-21)
(1.01977 0.00010688 0)
(1.04927 -0.00828462 2.62478e-21)
(1.01865 -0.000268309 0)
(1.0398 -0.0164104 2.60422e-21)
(1.05667 -0.00369307 0)
(0.237346 -0.01152 2.70676e-20)
(1.0242 -0.00429453 2.26998e-22)
(1.05211 -0.003249 4.56193e-22)
(1.06677 -0.00360338 -1.52891e-20)
(1.06209 -0.00323901 -7.84441e-21)
(0.494859 0.0221182 -8.7814e-22)
(1.02116 -0.000676978 -9.43616e-23)
(1.0241 -0.00409347 -2.56365e-22)
(1.07078 -0.00869291 9.93548e-21)
(0.610946 0.0144374 -1.04832e-20)
(1.06167 -0.0038773 0)
(1.05228 -0.00449119 -6.44396e-21)
(1.06012 -0.0474452 -5.91169e-22)
(0.593079 0.0156702 -5.33608e-21)
(1.0395 -0.00890251 4.25001e-21)
(1.0257 0.0032217 4.08814e-22)
(1.01539 -0.000154299 -1.84187e-22)
(0.798437 0.000235586 9.9555e-21)
(0.840157 -0.0136842 0)
(1.02457 -0.000700079 0)
(0.225456 -0.0103779 0)
(0.796407 0.00105011 -1.11768e-20)
(1.07858 -0.0141116 -1.18237e-20)
(1.03949 -0.0152422 4.61547e-21)
(1.03171 -0.00122016 -9.921e-22)
(1.02469 -0.000618191 1.24578e-21)
(1.08073 -0.00641824 0)
(0.905915 -0.0853712 -1.59642e-20)
(1.05441 -0.0222621 0)
(0.593384 0.0105572 -1.28017e-20)
(1.01979 -0.00134531 -5.37677e-22)
(1.01532 -7.96154e-05 5.48276e-22)
(1.02282 -0.00390555 -4.74661e-22)
(1.03963 -0.014535 -5.73942e-23)
(1.01704 -0.000155174 -5.01166e-22)
(1.06185 -0.0468505 0)
(1.04015 -0.0170919 2.49947e-21)
(1.01696 -0.000117294 3.82359e-22)
(1.05825 -0.00742162 3.26964e-21)
(1.06972 -0.00203052 3.89295e-20)
(1.04828 -0.0013634 4.50879e-21)
(1.04537 -0.0406028 0)
(0.539749 0.012255 -1.85553e-20)
(1.06911 -0.00188369 0)
(1.07359 -0.00331295 0)
(1.08066 -0.00659394 0)
(1.01942 -0.000134753 1.48474e-23)
(1.02197 -0.0116508 3.23981e-23)
(1.01711 -0.000279299 7.2888e-22)
(0.975697 0.00697383 5.44783e-22)
(1.01411 -0.000145353 5.7217e-22)
(1.0333 -0.030801 -1.18447e-21)
(1.04794 -0.000948759 8.29035e-21)
(1.02413 0.00146404 0)
(1.02412 0.00128557 -4.51888e-22)
(1.02207 -0.00571046 1.89527e-22)
(1.02176 -0.000441582 9.10195e-22)
(1.02367 -0.00423104 0)
(1.06129 -0.0246398 -3.39906e-21)
(1.04054 -0.0138384 -4.85905e-21)
(1.01964 -0.00125272 5.45791e-22)
(1.02328 -0.000574109 -1.8959e-23)
(1.01862 -0.000200943 -2.66639e-22)
(1.06887 -0.00895947 1.50381e-20)
(1.02357 0.000976055 0)
(1.02081 -0.000155077 4.32137e-24)
(0.967717 0.00348564 -8.43031e-22)
(0.857134 -0.0149362 1.77754e-20)
(1.0708 -0.0198896 1.4884e-20)
(1.02298 -0.000614 2.46786e-23)
(1.01944 -0.00113047 1.74634e-22)
(1.01998 -0.000259506 -3.31815e-23)
(-0.0272154 0.0418346 1.09913e-20)
(1.03364 -0.0130275 4.1049e-21)
(1.01827 -0.000415647 -1.92349e-22)
(1.01813 -0.000237165 -1.08409e-22)
(1.04035 -0.0145597 0)
(1.02299 -0.000633337 -1.21301e-22)
(0.757614 -0.000646658 -2.36361e-20)
(0.474287 0.0180295 2.56054e-20)
(1.02247 -0.00457374 -1.50627e-21)
(1.02656 -0.00326546 -7.05127e-23)
(1.0222 -0.000824772 -6.56014e-22)
(0.548299 0.0135756 9.66093e-22)
(1.02305 -0.000699509 1.27532e-22)
(1.07357 -0.00324748 -1.36589e-20)
(1.0196 -0.00121823 -6.0346e-22)
(0.712888 0.0870006 2.56377e-22)
(1.02005 -0.000160549 -8.96425e-22)
(1.02417 -0.00511822 0)
(1.02288 -0.00071373 0)
(1.0786 -0.0297052 0)
(1.01489 -8.61635e-05 6.72065e-24)
(0.643925 -0.0714275 0)
(0.99634 0.0670395 -1.9164e-23)
(1.0318 -0.0299369 -9.54831e-22)
(1.0405 -0.006923 2.00438e-21)
(1.0063 0.00271504 2.38677e-22)
(1.02333 0.000766903 2.07239e-22)
(1.06755 -0.00269472 0)
(1.01069 0.0080955 -1.56063e-22)
(0.606167 0.0102684 1.94114e-20)
(1.03564 0.00154951 -2.55358e-21)
(0.898386 -0.0130614 2.04447e-20)
(1.01742 -0.00018102 0)
(1.05192 -0.0176021 -1.40376e-22)
(1.08125 -0.0215783 -1.92891e-20)
(1.01933 -0.00104734 0)
(1.01855 -0.00019048 3.06809e-22)
(1.06634 -0.00309628 3.65731e-20)
(1.0225 -0.0043993 -7.41307e-22)
(1.08151 -0.0318529 0)
(1.06979 -0.00847801 7.62971e-21)
(1.01974 -2.82273e-06 -4.18806e-22)
(1.03442 -0.00539284 3.32704e-21)
(1.05076 -0.00117093 0)
(0.284987 -0.0163342 1.61583e-20)
(0.980381 -0.06374 0)
(0.750623 0.0021738 -3.61688e-20)
(1.02307 -0.00072665 0)
(0.595871 -0.090349 0)
(1.07873 -0.0126276 2.62695e-20)
(1.01819 -0.00534055 -1.87471e-21)
(1.06138 -0.00434151 1.95214e-20)
(1.06286 -0.0101808 -1.75248e-20)
(1.04727 -0.0618962 -3.74273e-22)
(1.02418 -0.00388119 0)
(1.02587 -0.00198373 4.86338e-23)
(1.02445 0.00196127 0)
(1.01947 -0.00114203 5.87923e-22)
(1.02565 -0.0018461 0)
(1.02332 -0.00348806 0)
(1.02447 0.00162534 0)
(1.07433 -0.047525 0)
(0.677933 0.103377 0)
(1.0376 0.000159857 0)
(1.02712 -0.0249368 5.09494e-22)
(1.02164 -0.00110802 -7.68634e-23)
(1.02736 0.000851166 0)
(1.02562 0.00241337 0)
(0.784613 -0.0013814 1.50072e-20)
(1.03246 -0.00299842 3.21843e-21)
(1.0664 -0.00381627 1.46752e-20)
(1.01997 -0.000108201 4.50389e-22)
(1.06904 -0.0235695 1.82915e-20)
(1.06395 -0.00986812 -2.19392e-21)
(1.07649 -0.0291108 2.39412e-20)
(1.02361 0.00282762 0)
(1.01726 -0.000259176 1.61975e-22)
(1.03121 -0.0198199 -3.37659e-21)
(1.02573 -0.0149133 -5.77314e-22)
(0.556718 0.0134615 0)
(0.71536 0.0176251 -2.09344e-21)
(1.06825 -0.00915073 2.82145e-20)
(1.03616 -0.0152363 4.58299e-21)
(1.02694 -0.00360169 -1.29847e-22)
(1.02727 -0.0356231 0)
(0.947396 -0.035472 0)
(1.03808 0.000314265 3.4449e-21)
(1.02414 -0.00402548 -6.04999e-23)
(0.808576 0.000585334 -1.07113e-20)
(1.05658 -0.0199587 0)
(1.02639 -0.0152395 2.15378e-22)
(0.465851 -0.0264834 8.90739e-21)
(0.714504 -0.0232925 1.91002e-20)
(1.04928 -0.00800942 -8.36413e-22)
(1.01826 -0.000149727 -3.64384e-23)
(0.953403 -0.00970295 -1.42923e-21)
(1.06672 -0.00324563 -1.62526e-20)
(1.02337 -0.00355832 -9.13634e-22)
(0.88955 -0.00875106 0)
(1.0343 -0.000130308 -6.58911e-21)
(0.562554 0.0125117 -1.7437e-20)
(1.06442 -0.0147411 8.43441e-21)
(1.02003 -3.1628e-05 0)
(1.03386 -0.000416687 6.04556e-21)
(1.03613 -0.0329113 -3.88338e-22)
(1.02732 -0.00322053 -3.38839e-23)
(1.058 -0.00309995 1.47963e-20)
(1.02299 -0.00139946 -3.7006e-22)
(0.859562 -0.0792428 0)
(0.828358 -0.028394 1.4719e-23)
(1.02491 0.00196289 0)
(1.02701 -0.0040279 0)
(0.790193 -0.000197028 -1.01097e-21)
(1.05687 -0.020664 9.79757e-21)
(1.02267 -0.00365786 6.72936e-22)
(1.01975 -0.000135457 0)
(1.02768 0.00109983 0)
(0.760545 -0.0189909 0)
(1.02433 -0.00494199 -5.67416e-24)
(1.02107 -0.000336219 1.40229e-21)
(1.02272 -0.00379588 0)
(1.02471 -0.00160703 -1.69701e-23)
(-0.0225818 0.0479503 1.03348e-20)
(1.02171 -0.00186442 -1.50157e-21)
(1.01844 7.69661e-05 -2.02772e-22)
(1.02761 -0.0147092 2.06105e-21)
(1.02515 0.000821436 -1.59254e-23)
(1.02334 -0.00083018 0)
(1.03505 -0.00641744 0)
(1.0254 -0.00133592 0)
(1.02278 -0.00313068 5.18313e-23)
(1.02511 -0.00118106 -1.2633e-22)
(1.00521 -5.33011e-05 1.57384e-22)
(1.02457 -0.00129674 0)
(1.06632 -0.00402425 -1.46239e-20)
(0.528436 -0.0353166 -9.43065e-21)
(1.036 -0.00567999 2.90574e-21)
(1.04329 0.00365041 0)
(1.03523 -0.0752071 6.82142e-21)
(1.01833 -0.000236251 -5.22944e-23)
(1.02374 -0.000536305 0)
(1.02762 -0.0306289 -1.82559e-21)
(1.02435 -0.0051493 -3.21879e-23)
(1.04198 -0.0350412 3.11614e-22)
(0.931828 -0.0366358 -1.49423e-20)
(1.02066 -0.00155796 1.36068e-23)
(0.824945 5.0424e-05 0)
(1.02271 -0.000728503 9.78778e-23)
(1.05117 -0.00196831 -2.6229e-21)
(1.06502 -0.00541263 -1.0555e-20)
(1.02488 0.00256618 -4.22464e-22)
(0.577967 0.0132913 0)
(1.04188 0.00194684 4.8773e-21)
(1.02139 -0.0108446 -1.18614e-21)
(1.00986 0.057979 0)
(0.417404 -0.011915 0)
(1.03945 -0.0555738 -2.27037e-21)
(0.610652 -0.00212936 2.15198e-20)
(1.06363 -0.0294897 -1.4171e-20)
(1.02397 0.00067359 0)
(1.02254 0.0474158 0)
(1.02416 -0.00529634 0)
(1.02201 -0.00034219 -2.28605e-22)
(1.02267 -0.000560294 5.83339e-23)
(1.02782 -0.0278064 1.8656e-21)
(1.02195 -0.000605421 -5.2119e-22)
(1.02948 -0.0190072 -1.68094e-22)
(1.02 -0.000132978 3.42901e-23)
(1.02453 -0.00542859 9.87419e-23)
(1.07963 -0.00401896 -2.6264e-22)
(0.748532 -0.00510962 -2.57552e-22)
(1.06921 -0.00266572 -1.01389e-20)
(1.01548 -0.000148071 6.4469e-22)
(0.699623 -0.0940455 -9.77518e-22)
(1.0232 -0.00393751 0)
(1.02683 -0.00600737 5.84631e-22)
(1.02642 -0.00165213 5.64218e-23)
(1.02786 0.00153161 3.6896e-22)
(1.02424 -0.00410819 0)
(-0.0180323 0.0468122 -4.29544e-20)
(1.04138 -0.0187987 -2.84271e-21)
(1.0475 0.0190905 0)
(1.05684 -0.00635248 5.13421e-21)
(1.01912 0.000260176 0)
(1.01781 -0.000376587 1.63804e-22)
(1.02428 0.000532522 0)
(1.02948 -0.0193154 -2.74171e-22)
(1.01828 -8.19162e-05 -7.17307e-24)
(1.05135 -0.0190353 0)
(1.02172 -0.00515884 0)
(1.03205 -0.00336941 9.4584e-22)
(1.03165 -0.00473888 1.02675e-21)
(1.03891 -0.0130782 4.00877e-21)
(1.02509 -0.00322958 2.6501e-22)
(1.02701 -0.00120039 -5.60706e-23)
(1.02256 -0.00352463 0)
(1.03511 -0.0099512 -2.72235e-21)
(1.02277 -0.00144056 0)
(1.04234 -0.046003 7.06052e-21)
(0.864192 0.0136969 1.36801e-22)
(1.07888 -0.0293549 -1.4357e-20)
(1.02272 -0.000742565 1.16971e-22)
(1.02667 -0.0040245 0)
(1.01205 -8.44003e-05 0)
(1.02144 -0.00107772 -2.97949e-21)
(1.01706 -0.000217288 4.71919e-22)
(1.05779 -0.00221357 -5.17872e-21)
(1.01749 -0.0123643 0)
(0.863652 0.0170159 -4.94574e-23)
(1.02115 -0.00221693 5.38614e-22)
(0.770141 -0.00196108 0)
(1.02293 -0.00224464 -1.19606e-22)
(1.01485 -0.000144318 -2.44452e-22)
(1.01591 0.034891 2.04886e-21)
(1.0058 2.61789e-06 1.56216e-22)
(1.07746 -0.0146685 0)
(1.01016 0.0366478 -9.46772e-22)
(1.02172 -0.00224419 -6.518e-23)
(1.01819 -7.15207e-05 0)
(1.05284 -0.011625 -1.30488e-20)
(1.03175 -0.00517072 -4.67171e-21)
(0.772314 0.00238375 -3.19302e-21)
(1.07967 -0.0359292 0)
(1.06869 -0.0017631 -9.04188e-21)
(1.01825 -0.000222658 1.52942e-22)
(1.02053 -0.00148479 0)
(1.05261 -0.0699735 -8.55202e-21)
(1.01439 -0.000171854 -1.66498e-22)
(1.02319 -0.000680535 -1.13214e-22)
(1.08174 -0.030641 0)
(1.03521 -0.0103979 0)
(1.0515 -0.0196775 -9.07319e-21)
(1.02114 -0.000679002 -1.65943e-21)
(1.02307 0.00228819 -3.86937e-22)
(1.02683 -0.00228414 0)
(0.637793 -0.00343713 0)
(1.02245 -0.00391038 0)
(1.06843 -0.00183105 1.46933e-20)
(1.02139 -0.0103979 -7.09979e-23)
(1.07941 -0.0329472 0)
(1.0209 -0.000310355 3.93196e-22)
(0.805443 -0.00158038 4.73539e-21)
(1.02281 0.00204291 0)
(0.8588 -0.0822169 1.80664e-20)
(0.784857 0.00154457 1.13238e-20)
(1.02685 0.000449853 9.21701e-23)
(0.535193 -0.0242493 5.41008e-22)
(1.01726 -0.000220662 -1.13774e-21)
(1.06588 -0.00709324 6.87652e-21)
(1.01982 0.000179749 2.72362e-22)
(1.03048 8.29448e-05 6.25003e-21)
(0.47088 -0.0262212 3.33242e-20)
(0.536751 -0.0260445 1.7961e-20)
(1.06169 -0.0041584 -2.09504e-20)
(1.02107 -0.000744985 -3.90515e-22)
(1.03584 -0.00519071 0)
(1.06661 -0.00304274 -7.96178e-21)
(0.924368 -0.0638112 1.31433e-21)
(1.0397 -0.00971798 0)
(1.02252 -0.0388183 1.8461e-21)
(1.0276 0.00129531 0)
(1.03087 -0.00581158 -1.69938e-21)
(1.07782 -0.0139029 0)
(0.973325 -0.0261517 2.83185e-23)
(1.06272 -0.0282718 0)
(1.02174 -0.000152024 1.61505e-22)
(1.01817 -0.000444589 1.3549e-22)
(1.02495 -0.0752815 9.54732e-21)
(1.02156 -0.00216566 0)
(1.06647 -0.0178299 1.62707e-20)
(1.02077 -0.000715854 0)
(1.01763 -0.000338238 7.75809e-22)
(0.796153 -0.00177648 0)
(1.02328 -0.000573538 2.05928e-22)
(1.02231 -0.00416223 1.64568e-21)
(1.03408 -0.0119738 0)
(1.06 -0.0148896 0)
(1.02096 -0.000698324 -8.5391e-23)
(0.90834 -0.0882919 6.41609e-22)
(0.962709 -0.0548626 4.52112e-21)
(1.02434 -0.000504691 1.84961e-22)
(1.05093 0.0153108 0)
(1.02404 -0.000457963 -2.03861e-22)
(1.02397 -0.00517854 1.18225e-22)
(1.02056 -0.00220015 0)
(1.03459 -0.00643835 0)
(1.03155 -0.0135596 0)
(1.02266 0.00165956 0)
(1.03005 -4.05197e-05 -4.22241e-21)
(1.02512 -0.00574304 0)
(1.03862 -0.0158322 0)
(1.02202 -0.00458094 3.80689e-22)
(0.74395 -0.0177681 0)
(1.02114 -0.00167355 -8.46986e-22)
(1.01361 -0.000100562 -6.12089e-22)
(1.02443 -0.00645016 -1.9824e-23)
(1.02093 -0.000151959 1.08434e-21)
(1.01931 -0.000305464 4.24844e-22)
(1.01929 -0.000331213 2.26752e-22)
(1.07105 -0.00823753 -3.25999e-20)
(1.02929 -0.0314972 -1.32335e-21)
(1.08164 -0.0229064 9.2124e-21)
(1.01819 -0.00015177 0)
(1.02022 -0.0018868 0)
(1.05917 -0.00102121 0)
(1.04075 -0.00655507 0)
(1.00337 -0.0425533 0)
(1.02485 -0.000900186 -1.67977e-23)
(1.07289 -0.00237961 -1.41584e-20)
(1.02564 -0.0159687 5.52641e-22)
(1.02256 -0.000107569 0)
(0.581081 0.00932964 -1.27301e-20)
(1.01989 -9.47088e-05 2.66247e-24)
(1.0251 -0.00110089 1.4061e-22)
(1.02778 -0.0121044 0)
(1.06987 -0.0223361 -3.17515e-20)
(1.02106 -0.00148224 1.35905e-23)
(1.03937 -0.0136261 0)
(1.05647 -0.00577533 0)
(0.919764 -0.0139339 -3.69184e-20)
(1.03601 -0.0229453 4.1781e-21)
(0.782061 0.00122472 9.72849e-22)
(1.05072 -0.0107877 -5.85677e-21)
(1.03593 0.00417281 -5.30048e-21)
(1.04859 -0.00624092 0)
(1.01957 0.00158693 -3.42957e-24)
(1.03387 -0.0517439 -4.46078e-21)
(1.03409 -0.0123997 0)
(1.01874 0.000134864 -1.67624e-22)
(1.02103 -0.00211188 -1.07373e-21)
(1.0746 -0.00207707 0)
(1.00746 -1.25134e-05 0)
(1.08106 -0.0185048 -2.85906e-22)
(1.01927 -0.000309857 -5.24453e-22)
(0.473434 -0.024254 -1.54718e-20)
(1.02117 -0.00223731 -4.46973e-22)
(0.305395 -0.0172371 -2.61458e-20)
(0.603855 0.00740704 0)
(1.04252 0.00290198 0)
(0.916416 -0.0116997 1.86199e-20)
(1.04861 -0.00625909 0)
(1.03235 -0.0102593 -2.66398e-21)
(1.0254 -0.00149539 8.71613e-23)
(1.02182 -0.000393491 3.05876e-22)
(1.02184 -0.000709133 0)
(1.0736 -0.024296 -1.36315e-20)
(1.03045 -0.0084853 0)
(1.07012 -0.0191072 6.44083e-21)
(1.02088 -0.000566604 9.37425e-23)
(1.02259 -0.00340982 0)
(0.790878 0.0160453 0)
(1.04172 0.00185735 0)
(1.01405 -8.26152e-05 0)
(1.02 -0.0263626 -3.07845e-22)
(1.02487 -0.00679936 0)
(1.02106 -0.00221128 4.33719e-22)
(1.02054 -0.000129936 -5.91705e-25)
(1.05011 0.000522565 0)
(1.01294 -7.16708e-05 0)
(1.03112 -0.0133676 9.4232e-22)
(1.02155 -0.000265839 0)
(1.02571 -0.00164955 5.25955e-24)
(1.02491 -0.0159663 0)
(0.920957 -0.0870067 6.80224e-22)
(1.04786 1.83072e-05 -8.11516e-21)
(0.448219 -0.00549014 -9.81948e-21)
(0.862842 -0.0353436 1.48369e-20)
(0.776298 0.000651052 -3.82799e-20)
(1.06528 -0.00734977 0)
(1.05957 -0.0109651 1.24137e-21)
(1.02615 -0.0146281 -5.20185e-22)
(1.03145 -0.0107027 0)
(1.0304 -0.00813746 0)
(1.02105 -0.000411704 -1.32563e-21)
(0.903642 -0.0861 1.82735e-21)
(1.02165 -0.000244656 0)
(1.02257 -0.000320481 0)
(1.02302 -0.00397729 4.33938e-22)
(0.698089 -0.0177068 -1.14362e-20)
(0.565578 0.0142284 -1.65499e-20)
(0.6023 0.0145816 4.59574e-21)
(1.01773 -0.000360817 0)
(1.02235 -0.00601945 2.00385e-21)
(1.04821 -0.000374895 4.44176e-21)
(1.02271 -0.00129036 -7.38828e-23)
(1.05621 -0.00307732 -1.94403e-20)
(1.05878 -0.0133984 -5.26542e-22)
(1.04585 -0.0309722 0)
(1.02813 -0.0293377 2.54763e-22)
(1.05958 -0.00263527 2.88688e-20)
(1.01787 -0.000233241 -1.25207e-22)
(1.02617 -0.00338252 0)
(1.01775 -0.000235157 0)
(1.0679 -0.00282568 1.23703e-20)
(1.03288 -0.00955158 -1.71828e-21)
(0.959498 0.00926759 0)
(1.01885 -0.000147629 2.21232e-23)
(1.03196 -0.00985152 9.26778e-23)
(1.06907 -0.019106 -2.69059e-20)
(1.02163 -0.000743295 -3.95218e-23)
(1.06615 -0.016896 -2.12766e-20)
(1.02521 -0.0032147 -9.64831e-22)
(1.02638 -0.00433358 1.1662e-23)
(1.07069 9.10268e-05 -7.80114e-21)
(1.06751 -0.00484274 9.33149e-21)
(0.846589 -0.000585114 0)
(1.06555 -0.00700793 -6.78238e-21)
(1.01754 -0.000340875 -2.5139e-22)
(1.01977 8.10142e-05 2.53873e-22)
(1.02231 -0.00159923 -7.31752e-23)
(1.05118 0.000371106 -5.72063e-21)
(1.02587 -0.0244186 -3.20105e-22)
(1.03486 0.00165301 0)
(1.02231 -0.00346293 0)
(1.02411 -0.0165495 -5.47156e-22)
(0.996769 -0.0380965 2.16843e-21)
(1.01593 -0.000173562 -1.15526e-22)
(1.02064 -0.000886578 2.2545e-23)
(0.675519 -0.0229184 -3.35966e-20)
(1.02445 -0.0006646 -1.71022e-22)
(1.01942 -0.000132699 -3.73385e-23)
(1.02479 -0.00245214 1.25355e-22)
(0.979076 0.00953901 0)
(-0.0338076 0.0356338 0)
(1.0354 0.00213282 -3.93314e-21)
(1.08155 -0.00778165 0)
(1.02419 0.00108968 1.04559e-22)
(1.04311 -0.0635382 6.45653e-22)
(1.02286 0.0010237 0)
(1.02461 -0.00232916 3.19121e-24)
(1.02448 0.000830677 -7.16735e-23)
(0.495101 -0.0716594 0)
(1.02946 -0.0525824 4.49613e-21)
(1.03239 -0.00928393 1.29136e-21)
(1.02263 -0.00364861 -6.13749e-22)
(1.02177 -0.000368695 5.05576e-22)
(1.02107 -0.00215973 3.47388e-22)
(1.07091 -0.0500351 3.90764e-21)
(1.0221 -0.0284886 -7.03501e-23)
(1.02773 0.00292853 3.67081e-22)
(1.07965 -0.00530684 2.80999e-20)
(1.03765 -0.0109772 -1.2937e-21)
(1.01862 -8.52595e-05 0)
(1.04283 -0.0434048 0)
(1.0808 -0.0336537 1.84425e-20)
(1.02369 -0.000599836 0)
(1.02811 0.00300434 -4.89148e-21)
(1.05645 0.000381305 0)
(1.06738 -0.0052621 -8.13919e-21)
(1.02477 -0.00074545 0)
(0.758921 -0.00191504 0)
(1.0272 -0.0196169 3.5476e-22)
(0.970964 -0.00843528 -5.21748e-21)
(1.05094 -0.0169421 -3.23715e-21)
(1.00542 0.0146917 0)
(0.978171 -0.0126964 1.92415e-20)
(0.582954 0.0140157 -3.49324e-20)
(1.06914 -0.00245662 0)
(1.0199 0.000349451 -9.28476e-22)
(1.02088 -0.000582343 0)
(0.0149989 0.00841693 2.53693e-21)
(1.0265 -0.0169191 -5.84289e-22)
(1.06491 -0.00728694 -1.21076e-20)
(1.03261 -0.004994 -2.86206e-21)
(1.04415 -0.000830925 -6.8758e-21)
(1.02784 -0.00566269 2.75096e-22)
(1.0224 -0.000669364 -1.15123e-21)
(0.892281 -0.0427916 4.95364e-21)
(1.02805 -0.0152511 -1.41055e-22)
(1.02362 -0.0164039 0)
(1.07831 -0.0113162 -2.63241e-20)
(1.02194 -0.000667528 9.96856e-22)
(1.01627 -0.000206611 -5.24368e-22)
(1.01969 0.000281659 1.4048e-22)
(1.08145 -0.0078507 0)
(1.04215 -0.018913 -1.05863e-20)
(1.0363 -0.0145363 0)
(1.01792 -0.000224596 -1.4758e-23)
(1.01724 -0.000182331 -1.29677e-21)
(1.04827 -0.00255777 0)
(1.02683 -0.00300447 1.0786e-22)
(1.05762 -0.0424211 8.60363e-21)
(1.05914 -0.0027099 -1.52572e-20)
(1.01955 0.000246359 0)
(0.900157 -0.0382355 -1.4693e-20)
(1.01406 -0.000122977 2.86429e-22)
(1.05961 -0.0435287 0)
(1.05718 -0.00303876 5.07467e-21)
(1.02283 -0.00178756 -6.24298e-23)
(1.02672 -0.00105259 0)
(1.01764 -0.000365973 1.46459e-24)
(1.07172 -0.00539217 -1.1594e-20)
(1.02336 0.000270173 1.85978e-22)
(1.02868 -0.0200804 9.98598e-23)
(1.03648 0.00389228 2.72621e-21)
(1.03055 -0.0194789 0)
(0.859066 0.00709546 -1.45689e-20)
(1.02092 -0.00160314 -1.30097e-22)
(0.711353 -0.0176521 0)
(1.02752 -0.0258144 0)
(0.821916 -0.0219602 8.19019e-21)
(1.04236 -0.0048286 0)
(1.02657 -0.00325665 2.27873e-23)
(1.05583 0.000482201 0)
(0.635399 0.0136037 -2.49174e-20)
(1.02397 -0.00574031 -2.91928e-22)
(1.02231 -0.00183077 1.47345e-23)
(1.01898 -0.000397246 8.97032e-23)
(0.595968 0.0127703 4.77311e-21)
(1.07504 -0.0496981 -1.99966e-20)
(1.02808 -0.0280996 7.38389e-22)
(1.02389 -0.00252763 -5.95408e-24)
(1.02075 -0.00152686 2.36576e-23)
(1.03121 -0.00601025 3.47913e-22)
(1.04635 -0.029386 0)
(0.575011 0.0149276 9.91124e-21)
(1.01701 -0.00018964 1.01467e-22)
(1.00922 0.00987181 -1.80603e-21)
(0.770173 -0.00109692 2.62097e-21)
(0.901101 -0.0153203 3.76757e-20)
(1.02304 -0.000332469 5.87429e-23)
(1.01597 -0.0282793 0)
(1.01907 -0.0386576 -1.9312e-21)
(1.03081 -0.014992 -2.74379e-21)
(1.02371 -0.00232596 -4.87683e-23)
(1.02232 0.00175631 0)
(0.773879 0.00131044 1.32655e-20)
(1.01766 -0.000358472 1.74645e-22)
(1.03241 -0.00499526 -1.34765e-21)
(1.063 -0.0132104 0)
(1.02097 -0.00205519 -4.68707e-22)
(1.02355 -0.00101677 1.05922e-23)
(1.03882 -0.0151898 0)
(1.04954 -0.0346605 -2.44235e-21)
(1.01082 -9.57877e-05 5.28678e-22)
(1.04933 -0.0114431 1.97994e-20)
(1.07612 -0.0279083 -3.77592e-20)
(1.03265 -0.0580629 1.34637e-20)
(1.02575 0.00095183 -8.83926e-24)
(1.02285 -0.00389901 6.0168e-22)
(1.04443 -0.000396529 -7.44448e-21)
(1.03219 -0.00247806 -1.3155e-21)
(0.621457 0.0158454 2.50265e-20)
(1.00772 -6.55913e-05 1.9763e-23)
(1.02112 -0.00219198 8.93291e-22)
(1.02163 -0.00049811 0)
(0.904602 -0.00797898 0)
(1.0225 0.000592565 2.31276e-22)
(1.03014 -0.0122932 0)
(1.01029 2.20372e-05 6.92988e-23)
(0.776338 -0.0228465 0)
(1.04041 -0.0492717 0)
(1.02298 -0.00032144 -1.37718e-22)
(1.04364 -0.0462115 7.07766e-21)
(0.835848 -0.0250703 2.48646e-20)
(1.02582 -0.0100614 0)
(1.07016 -0.0090542 -2.60872e-20)
(0.132091 0.00517661 0)
(1.0684 -0.0034218 -1.12394e-20)
(1.07484 -0.0244523 -1.5054e-20)
(1.06441 -0.0149741 -5.07428e-21)
(0.564766 0.0128494 0)
(1.0472 -2.58016e-05 7.98563e-21)
(1.06735 -0.00184767 0)
(1.03993 -0.0434448 -5.63645e-21)
(0.354536 -0.00216109 0)
(1.02055 -0.00101971 2.14205e-22)
(0.714785 -0.00437836 0)
(1.02778 -0.015413 1.19911e-22)
(1.03086 -0.00594475 0)
(1.03589 -0.00584308 4.7658e-23)
(1.0247 -0.00659738 7.94807e-24)
(1.02311 -0.00392321 -4.58205e-22)
(1.06213 -0.0116596 1.90903e-20)
(1.02986 -0.00951586 1.95337e-21)
(1.02271 -0.00100175 0)
(1.02493 -0.00571941 0)
(1.04664 -0.0337927 -1.11491e-20)
(0.973033 -0.0803317 7.98115e-21)
(1.0653 -0.00497884 2.27094e-20)
(1.03195 0.0127456 4.7077e-22)
(1.01486 -0.00015718 0)
(1.02175 0.000661757 -3.02001e-22)
(1.02664 -0.00109827 -3.03889e-21)
(1.04314 0.025743 3.55169e-22)
(1.02865 -0.0197868 0)
(1.05035 -0.0105456 0)
(1.02393 -0.000322488 -6.45448e-23)
(1.03538 -0.00924703 2.38255e-21)
(1.04017 -0.0490658 0)
(1.02141 -0.000871779 1.56893e-22)
(1.02777 -0.0195494 3.9135e-22)
(0.456997 -0.0240256 2.03402e-20)
(1.02087 0.000132326 0)
(1.01314 -0.00010761 6.66046e-23)
(1.02819 -0.0130678 -1.45491e-21)
(-0.0257701 0.0584137 -3.12778e-20)
(1.02255 0.000135947 0)
(0.951264 -0.00757409 -2.30591e-20)
(1.01923 -0.000138233 0)
(1.02146 -0.00325457 2.13994e-21)
(1.01997 -0.000125284 1.86031e-23)
(1.01725 -0.000339832 0)
(0.761129 -0.0243406 -3.97796e-20)
(1.06245 -0.0105487 1.6871e-20)
(1.05008 -0.0117398 -1.08581e-20)
(1.03356 -0.00262578 -6.02992e-21)
(1.01757 -0.000111239 -2.34666e-22)
(1.02315 -0.0042774 4.13361e-22)
(1.02164 -0.000883385 -1.26496e-22)
(1.03564 -0.0061865 0)
(1.01739 -0.000162216 2.65153e-22)
(1.02233 -0.00485485 1.12001e-21)
(-0.0165338 0.0523487 -2.7613e-20)
(1.01878 -0.000142473 0)
(1.02536 -0.00978803 0)
(1.02754 -0.00578344 -3.22057e-22)
(1.02978 -0.00921725 -9.28855e-22)
(1.02129 -0.000828207 1.17904e-22)
(1.06573 -0.00459065 4.40152e-21)
(1.02474 -0.0054585 0)
(1.01289 0.0486969 0)
(1.01985 0.00173644 0)
(1.06203 -0.0256886 1.81067e-20)
(1.02431 -0.00618661 -1.84409e-23)
(0.884417 -0.0318434 -2.18328e-23)
(1.02654 -0.0057656 -8.72168e-22)
(1.05978 -0.0317968 0)
(1.03536 -0.00655532 -5.70109e-21)
(0.754547 -0.0231266 -1.1569e-20)
(1.0355 -0.00371136 0)
(1.01843 -0.000185311 0)
(1.02222 0.00137592 5.82483e-22)
(-0.0277163 0.0366307 -1.5365e-20)
(1.03601 0.00307645 -4.91863e-21)
(1.04401 -0.0166683 4.54823e-21)
(1.07345 -0.0227013 0)
(0.784427 -0.014356 -2.22941e-20)
(1.06097 0.000216911 0)
(1.07375 -0.0328669 3.37369e-20)
(1.0205 -0.001036 -4.23564e-22)
(1.05084 -0.0163878 -7.29577e-21)
(0.768039 0.000676518 3.95885e-20)
(1.05853 -0.0142791 -3.21715e-21)
(1.05208 -0.00253271 7.27502e-21)
(0.578758 0.0158747 0)
(1.0247 -0.000835307 0)
(1.01992 -0.000121166 -3.36205e-23)
(1.02096 -0.000692597 0)
(1.03606 0.00280766 2.21496e-21)
(1.02818 -0.00305442 3.08802e-21)
(1.04801 -0.00466002 0)
(1.0195 -5.12436e-05 0)
(1.02828 -0.00787468 -9.61652e-22)
(1.05207 -0.0179023 7.826e-21)
(1.02509 -0.00261604 -2.05896e-21)
(1.02062 -0.00395539 -1.24834e-21)
(1.02627 -0.00130171 9.84756e-22)
(0.811497 -0.0126632 0)
(1.01824 -0.000214324 1.0792e-23)
(1.02213 -0.00310814 0)
(0.781651 -0.00133853 2.51511e-21)
(0.523523 0.0126671 6.90367e-21)
(1.02478 0.000717629 -3.35827e-23)
(1.02699 0.000471605 0)
(1.01936 -8.81703e-05 1.77097e-24)
(0.899199 -0.0423602 0)
(0.834679 -0.00110902 0)
(1.03452 -0.0117814 2.59231e-21)
(1.02211 0.00155534 -5.1151e-22)
(1.02749 -0.00505845 0)
(1.02277 -0.000400281 6.65442e-23)
(0.9887 -0.0270508 2.89982e-23)
(1.03157 -0.0137865 0)
(1.03664 -0.0156186 -7.85054e-21)
(1.03656 -0.0260065 -1.28322e-21)
(1.02158 -0.000834139 -3.24382e-22)
(1.02116 -0.000666704 2.1297e-21)
(0.868664 -0.0800195 7.05839e-22)
(1.02446 -0.00681606 1.0654e-22)
(1.01926 -0.000471226 8.71261e-23)
(1.07442 -0.00435775 3.29392e-21)
(0.9978 0.0208913 0)
(1.03307 -0.00268545 9.66521e-23)
(0.928137 0.0817795 1.68697e-21)
(1.07219 -0.00607459 5.91993e-21)
(1.02338 -0.025563 7.28622e-23)
(1.02338 0.00100053 0)
(1.02353 0.00119343 -2.04172e-22)
(1.0268 -0.0168313 9.24103e-22)
(1.01681 -0.000278969 1.62198e-22)
(1.03141 -0.00226832 -2.44562e-21)
(0.747788 -0.0803618 -1.45922e-22)
(1.02208 -0.00305163 0)
(1.06836 -0.0033053 -1.47074e-20)
(1.0209 0.000109826 0)
(1.02301 0.00119362 0)
(1.01943 -0.000505712 -8.40311e-23)