/*--------------------------------*- C++ -*----------------------------------*\
| =========                 |                                                 |
| \\      /  F ield         | OpenFOAM: The Open Source CFD Toolbox           |
|  \\    /   O peration     | Version:  v2012                                 |
|   \\  /    A nd           | Website:  www.openfoam.com                      |
|    \\/     M anipulation  |                                                 |
\*---------------------------------------------------------------------------*/
FoamFile
{
    version     2.0;
    format      ascii;
    class       volScalarField;
    location    "350";
    object      k_0;
}
// * * * * * * * * * * * * * * * * * * * * * * * * * * * * * * * * * * * * * //

dimensions      [0 2 -2 0 0 0 0];


internalField   nonuniform List<scalar> 
13917
(
0.000111705
0.000106821
0.0423718
9.18936e-05
0.000131318
0.00300036
0.0415363
0.0436002
0.0577014
0.000134847
0.000219965
0.000113598
9.16484e-05
0.0141335
0.00010868
0.000107474
0.000107661
0.000112268
0.000112695
0.000132304
0.000146504
0.0413873
0.000130293
0.0418255
0.000121301
0.0387601
0.000129859
0.000156458
0.0121174
0.000162214
0.000112407
0.000104989
0.00011933
0.000110506
0.00012183
0.00326731
0.000131039
0.0374917
9.25801e-05
0.0167453
0.000112846
0.000148511
9.56583e-05
0.000251909
0.000100916
0.00011103
0.000111454
0.000121233
0.0367988
0.000124962
9.81153e-05
0.000114301
0.035682
0.000110553
0.000107795
0.000100502
0.000216733
0.000114425
0.000100815
0.000101104
0.074217
0.00010653
0.0116761
0.000131253
0.00245278
0.0607094
0.000130911
0.00012292
0.000236003
0.000110938
0.000132193
0.0554556
0.0458057
0.000122217
0.0375705
0.000121701
0.0315838
9.93763e-05
0.0362142
0.000143532
0.00014023
0.000131657
0.00215417
0.0403549
0.10897
9.92693e-05
0.000138077
0.049534
9.79902e-05
9.50099e-05
0.0452358
0.00015443
0.000105622
0.000110242
0.0569913
0.00263542
0.000165934
0.000117609
0.000187858
0.000393533
0.000109754
0.000115591
0.000256024
9.79049e-05
0.000106745
0.0563611
0.00303961
0.000124158
0.00010727
0.000115363
0.0677622
0.0176762
0.000128756
0.057652
0.000112126
0.0371717
0.000122842
0.0263326
0.0223065
0.000110559
0.000147268
0.000229221
0.0247178
0.000150796
0.000120152
0.000110495
0.000102582
0.00012043
9.76506e-05
0.00309492
0.0333089
0.000112282
0.000101026
0.00014734
0.00513434
0.0410345
0.000112265
0.000411192
0.000130162
0.000110592
0.00129026
0.000101879
0.000112649
0.000335178
0.000122445
0.0442932
0.0135502
0.000114659
0.000101557
0.000105559
0.000110025
0.0373968
0.000131929
0.000119229
0.000102638
0.121796
0.000110235
0.00753147
0.0281149
0.00543319
0.000110136
0.000129819
0.000143512
0.000159758
0.000127365
0.0001836
9.79579e-05
0.00011324
0.000101765
0.000116141
0.000118049
0.0495244
0.000134993
0.000107063
0.0333633
0.00012576
0.0348489
0.0322256
0.0401179
0.000110329
0.000158104
0.000113168
0.000101445
0.000137219
0.000111
0.0386171
0.000633107
0.127471
0.000104291
0.00017094
0.00135529
0.115159
0.000601427
0.000131118
0.000437682
0.000127747
0.000108993
0.000105457
0.000979299
0.0458935
9.56835e-05
0.000125481
0.000110249
0.000109454
0.0411074
0.00281352
0.000122374
0.000113767
0.000116409
0.0400167
0.000113147
0.0421093
0.0323563
0.000171589
0.000107401
0.00537661
0.000111327
0.0435599
0.000118535
0.0578777
0.000110935
0.00014807
0.000113466
0.0408689
0.0578775
0.000107389
0.0313937
0.000102582
0.000107597
0.00265583
0.000133792
0.000103951
0.0402176
0.0279042
0.000107369
0.000105013
0.0489407
0.104028
0.000142656
0.000118965
0.0177173
0.000184777
0.000146558
0.0008399
0.000146871
0.000127689
0.00010872
0.000142681
0.000126977
0.0294747
9.37528e-05
0.000194707
0.000564397
0.000102497
0.000114848
0.000117008
0.0218907
0.000127538
0.000111171
0.00010856
0.000147108
0.0206213
0.048571
0.00153775
0.000108351
0.0479302
0.0227748
0.0120959
0.0357949
0.000126326
0.000141381
0.000117559
0.000111234
0.0375969
0.000167466
0.000100615
0.00357738
9.92645e-05
9.71173e-05
0.0250031
0.000130289
0.0360573
9.55136e-05
0.000146121
0.000107856
0.000119148
0.000129438
0.000936099
0.000111043
9.61216e-05
0.00120342
0.0398988
0.0558673
0.000118756
0.0142884
0.00013738
9.58189e-05
0.00012359
0.0267867
0.000131939
0.000154934
0.000108543
0.00010161
0.000110163
0.00010398
0.0355446
0.000123158
0.000145914
9.97963e-05
0.000115373
0.0662567
0.0237028
0.000122349
0.000115465
0.0227069
0.000109144
0.0483183
0.000100378
0.0429078
9.17716e-05
0.00207639
0.000100024
0.0392491
0.000110291
0.00309807
0.00173426
0.000107701
0.000184714
0.00507747
0.000110855
0.0342441
0.000433736
0.0257476
0.000110503
0.0181049
0.000104931
0.0958582
0.0013459
0.000318548
0.000308269
0.0432265
0.000141591
0.000119162
0.0735328
0.000113665
0.000107583
0.0232939
0.00136232
0.000106866
0.00083363
0.00730277
0.000112868
0.0202033
0.00154258
0.000129782
0.000114206
0.000138213
0.000101202
0.00105912
0.0372124
0.00603298
0.0722446
0.000122672
0.000213855
0.0561155
0.000103512
0.0419052
0.0410388
0.0591
0.000106208
0.00131018
0.000112746
0.0453052
0.000101462
0.0383863
0.000147172
9.36775e-05
0.000139886
0.00011433
0.00016749
0.000125351
0.0726874
0.0907184
0.037327
0.00013047
0.00013117
0.000119636
0.109424
0.04034
0.000112764
0.00236576
0.000125044
0.000565045
9.18649e-05
0.000142552
0.000104647
0.0327216
0.000104778
0.0239105
0.11633
0.000193285
0.00249995
0.000110555
0.00319317
0.00227212
0.000125716
0.00162505
0.000114192
0.000123144
0.000162873
0.00014599
0.000121591
0.00011248
0.000624381
0.000144589
0.019768
0.0338434
0.0702913
0.00061051
0.0281941
0.0407344
0.000103091
0.000123457
0.00024264
9.26332e-05
0.000105317
0.000130401
0.0421168
0.0405812
0.0330874
0.000108152
0.00015812
0.000110623
9.28011e-05
0.000124681
0.000106107
0.00159895
0.000107149
0.000130937
0.052489
0.0337517
0.0349891
0.00023639
0.0548938
0.0369719
0.0675588
0.0291888
9.92422e-05
0.000113527
0.000106061
0.000113951
0.00184374
0.000111932
9.1332e-05
0.00012068
0.000102547
0.0278641
0.000125363
0.000163366
0.120684
0.00907725
0.0231115
0.000145378
0.00011288
0.000107551
0.000110531
0.000106534
0.0371545
0.00356955
0.00011059
0.118108
0.000100231
0.000162849
0.0716919
0.0121272
0.000186698
0.00146715
0.00016285
0.00012095
0.000224281
0.000101205
0.000221751
0.00248293
0.000103124
0.000130122
0.000102165
0.00337593
9.87683e-05
9.3925e-05
0.000109642
9.89216e-05
0.0292232
0.0566064
0.000109586
9.72436e-05
0.0380521
0.0354444
0.000146043
0.0197281
9.49186e-05
0.000395447
0.000109769
0.0407392
0.00376265
0.000105419
0.000103094
0.0301642
0.000447006
0.055246
0.000146925
0.0329251
0.0340254
0.0254108
9.43797e-05
0.103284
0.0713398
0.000103075
0.000113687
0.000108678
0.00012172
0.000852651
9.11143e-05
0.000114844
0.000120304
0.000119731
0.0428847
0.00189044
0.00010296
0.000557839
0.000117284
0.000110325
0.000156327
0.0687408
0.00010373
0.000101222
0.000122823
0.000126591
0.0280705
0.11671
0.000137566
0.000126499
0.00100897
0.000101243
9.99901e-05
0.000113323
0.000105145
0.000105586
0.000128474
0.00236795
0.000626361
0.000247158
0.000146052
0.00295378
0.000143955
0.000119605
0.0333079
0.000127004
0.000107367
9.4869e-05
0.00329333
0.000190975
0.000109735
0.00766294
0.000177599
0.0819655
0.000147083
0.00011785
0.000103503
0.000139137
0.0607773
0.00266174
0.0446723
0.000107413
0.000101547
0.00059323
0.0428272
0.0161709
0.000120084
0.000269753
0.00010764
0.000102422
0.000112731
0.000150538
0.000273797
0.000116393
0.000110744
0.000560607
0.045203
0.0611805
0.000105196
0.000158062
0.0030582
0.000108082
0.00011335
0.055081
0.046119
0.0466742
0.000480147
9.83497e-05
0.0217828
0.000120691
0.000110545
0.000104438
0.000123251
0.000117655
0.000158474
0.0366771
0.00021798
9.91759e-05
0.0605549
9.97106e-05
0.025952
0.000143611
0.000136907
0.0161685
0.0482382
0.00502909
9.94773e-05
0.000107283
0.000126953
9.9661e-05
0.035942
0.00017311
0.000102345
0.000174809
0.000113403
0.000109255
0.0299403
0.000169044
0.00253242
0.000116756
0.000211192
9.92266e-05
0.123778
0.000136154
0.000188461
0.00010186
0.000114633
9.63798e-05
0.000102356
0.000335867
0.000111127
0.000515342
0.0951443
0.00011286
0.000113519
0.000212903
0.00663625
0.00459102
9.39926e-05
0.000110802
0.000115462
9.5007e-05
0.000100641
0.0720765
0.000142723
0.0426505
9.5333e-05
0.00021846
0.000158177
0.0465633
0.000191688
0.000108903
0.0364438
0.0238779
0.000110995
9.45636e-05
0.00417819
0.00038537
0.00016701
0.000143673
0.000102953
0.00105205
9.35565e-05
0.000124941
0.000114596
9.60881e-05
0.000109112
0.0423246
9.32542e-05
9.21496e-05
0.000121711
0.0228303
0.00014639
0.000108168
0.0517431
0.000108
0.0437715
0.000102855
0.000120488
0.000121029
0.000132165
0.000124336
0.000120671
0.000115032
0.000192481
9.49885e-05
0.11346
0.0642158
0.0693598
0.000108619
0.000140421
0.000138404
0.000116277
0.0268597
0.0640358
0.000112143
0.000122961
0.000582256
0.00704788
0.00207814
0.000432656
0.000109468
0.035204
0.000112097
9.83977e-05
0.000207248
0.000716139
0.000111793
0.0192281
0.000111887
9.31355e-05
0.000127164
0.000107588
9.47187e-05
9.50747e-05
0.000114972
0.000105496
0.000124709
0.000116162
0.000113195
9.63271e-05
0.000126063
0.000123665
0.000126313
0.000147243
0.0001056
9.24976e-05
0.000104616
0.000123167
0.040425
0.000112489
0.00188809
0.000108227
0.000144515
0.000142322
0.000121769
0.000112683
0.0358747
0.000162165
0.0308309
9.53138e-05
0.000176169
9.72747e-05
0.000146753
0.000118836
0.000104304
0.0473217
0.000145387
0.00625439
0.000104704
0.0629311
0.000135795
0.00016261
0.000214656
9.98248e-05
0.000149075
0.000113384
0.00012281
0.000111394
0.0240172
0.000107015
0.000138159
0.000102023
0.000118604
9.93354e-05
0.000105184
0.000111545
0.0219402
0.000108338
9.31495e-05
0.000112065
0.0458799
0.000331986
0.000110341
0.000107235
0.0278985
0.00354139
0.0410939
0.000117639
9.33113e-05
0.000108021
9.91421e-05
0.000103708
0.000108593
0.000557454
0.000110503
0.0322394
0.00010508
0.000109747
0.0389902
0.000125561
9.86572e-05
0.000112173
0.000129575
0.000114528
0.000133518
9.99444e-05
0.0458432
0.0206821
0.00015843
0.0001192
9.3969e-05
0.000167509
0.00574199
0.000145964
0.0022821
9.43198e-05
0.000112841
9.10372e-05
9.54785e-05
0.00104845
9.82418e-05
0.0196784
0.000108966
0.000147216
9.71901e-05
0.000119255
0.000113391
9.23012e-05
0.0683025
9.4157e-05
9.81923e-05
0.0552122
0.0491728
9.96769e-05
0.000115469
0.000121313
9.86147e-05
0.000102524
0.000111194
0.0387934
0.000200103
0.000133458
0.000103377
0.0629321
0.000102656
0.0801534
0.00014648
0.000112472
0.0209039
0.000101074
9.94653e-05
0.0490514
0.0291955
0.000113341
0.000191921
0.000118457
9.86892e-05
0.000107088
0.0511676
9.23168e-05
9.08198e-05
0.000102138
0.0229131
9.27416e-05
0.000389622
0.000191169
9.44818e-05
0.000115795
0.000137657
0.0748985
0.00011999
9.39451e-05
0.000138295
0.000173337
0.000137497
0.000217352
0.0172326
0.0386731
0.000110646
0.00160839
0.0588311
0.00011522
0.0190845
0.0880764
0.0637397
0.0284292
0.055062
0.0950355
0.000200913
0.000108296
0.036262
0.00010114
0.0403583
9.45503e-05
0.000105201
0.000110073
0.000136934
9.83107e-05
0.000112939
0.0270027
0.0001051
0.0001275
0.0591101
0.00122974
0.000119429
0.000122899
0.000102766
9.92257e-05
0.0671331
0.000127618
0.000110109
9.27716e-05
0.0176541
0.0444347
0.022339
9.12684e-05
0.000457467
0.000175804
0.0772681
0.0603798
0.000133696
0.000109216
9.73829e-05
0.000105378
9.08303e-05
0.00010518
9.90025e-05
0.000105417
0.000111562
0.119909
0.000181845
9.11182e-05
0.000171638
0.0677263
0.000112572
0.000113896
0.0279363
0.000101958
0.000111741
0.000122663
0.124586
0.000137617
0.000116585
0.0427048
0.00072236
0.00244166
0.00015552
0.00306061
0.000115086
0.000245248
0.000113565
0.000122236
0.000113699
0.0379038
0.0460298
9.70793e-05
9.67839e-05
0.000111785
0.00454389
0.000105613
0.000101281
0.000123322
0.000107213
0.000238808
9.42148e-05
0.000121205
0.00123539
0.0350768
0.000102677
0.000192841
0.000105079
0.044853
0.0653683
0.000122083
0.063242
0.000124726
0.0243068
0.000137428
0.0325851
0.000144415
0.000100543
0.000114517
0.000155529
0.0390929
0.00309001
0.000255667
0.049243
0.000113356
0.000506718
9.51809e-05
0.000107392
0.0433192
0.000113518
0.000145162
0.000103881
9.99162e-05
0.115976
9.99829e-05
0.000129454
0.000109828
0.000114106
0.000108248
0.00452767
0.000186683
0.0483853
0.000112608
0.000102341
9.78599e-05
0.0341948
0.000100338
0.0517669
0.0384948
9.59696e-05
9.36101e-05
0.0270719
0.00239667
0.00011447
0.000161759
0.000103722
9.3452e-05
9.8279e-05
9.94935e-05
0.000114209
0.000149273
0.000108733
0.000366581
0.000113309
0.000120808
9.79601e-05
0.000156828
0.000114486
0.000110582
0.000114536
9.6414e-05
9.65509e-05
9.74855e-05
0.0476491
0.000153482
0.0403276
0.000121091
0.000105985
0.000113745
0.000112642
0.000148176
0.000155249
9.35477e-05
0.000147058
9.79821e-05
0.0445144
0.00011478
9.88565e-05
0.0257473
0.000463844
0.000115341
0.000107003
0.0155847
0.000122647
0.00011629
0.0837277
0.055781
0.000110728
0.000239547
0.000131518
9.63016e-05
0.0379299
0.000104028
0.000100288
0.000684102
9.72001e-05
0.0042204
0.000139743
0.000100757
0.000110467
0.000189479
0.0272805
0.000114604
0.000111091
0.000115269
0.000108144
0.000129505
0.0141358
0.000118359
0.000146866
0.0392488
0.000136207
0.000581451
0.0382489
0.0497241
9.70041e-05
0.000114286
0.000111605
0.00934767
0.000108719
0.0273216
0.0544613
0.000110203
0.0429574
0.0364393
0.000108635
0.000213877
0.000170772
0.00226152
0.038834
0.00016539
0.0124075
0.0418898
0.000113209
0.000107992
0.0345919
0.00016061
9.50507e-05
9.79244e-05
0.0710026
0.000114881
0.000109421
0.000135362
0.00015614
0.000111238
0.0328898
0.000106015
0.0416022
9.85165e-05
0.00212124
0.000179895
0.000512528
0.000102341
9.82194e-05
0.000106951
0.0407359
0.000121757
0.00011001
0.000102615
0.000104896
0.000103925
0.000116184
0.000216728
0.0324149
0.000132877
0.000170848
0.0326593
0.00179304
0.000102637
0.00408193
0.0360049
0.000101171
0.00011564
0.000102685
0.0529988
0.000145408
0.000124975
0.00693951
0.000122924
0.000117909
9.37615e-05
9.65667e-05
0.000162376
0.000116759
0.000122426
0.103932
0.0356185
0.000123658
0.00264801
0.000113626
0.0355893
0.000108227
9.87396e-05
0.0337348
0.00349054
0.000134045
0.0482724
0.000104836
0.000147517
9.64988e-05
0.000106092
0.000120295
0.000112503
0.000133962
0.000116069
0.000172169
0.000118856
0.000102306
9.50403e-05
0.000160384
0.000171962
0.00838884
0.000115653
0.000500014
9.68944e-05
0.0330626
0.000124403
0.00011044
0.00013287
0.000392484
0.0433746
0.000200744
0.00011541
0.000182505
0.000109948
0.000105299
0.0512157
9.92535e-05
0.000113805
0.000112878
0.000104276
0.0424177
0.000116077
0.000109592
9.21499e-05
0.000125575
0.000114285
0.000107525
0.000105909
0.000110316
0.0310642
0.000102981
0.000878229
0.0450865
0.00011213
0.0285249
0.000103101
0.000106069
0.000110599
0.0335834
9.29896e-05
0.000113428
0.000102316
0.0411335
0.000112611
0.0727752
0.000121728
0.000125056
0.000100506
9.80782e-05
0.000245826
0.00011324
0.00014847
0.000116439
9.56686e-05
0.00011007
0.000104045
0.000118559
0.00176786
0.0404253
9.28148e-05
0.000122164
0.0160151
0.0145651
9.94351e-05
0.0013143
0.0542518
0.000104638
0.061162
0.000110982
0.0824576
0.0619117
9.32732e-05
0.000145982
0.000119215
9.41667e-05
0.000113246
9.44049e-05
0.000110881
0.000133562
0.000100108
0.000115865
0.0425053
0.000112481
9.75564e-05
0.0579502
9.9763e-05
0.019959
9.44985e-05
0.00015151
0.000111889
0.0344832
0.0497276
0.000109632
9.45953e-05
0.0330671
0.00011194
0.0595646
0.000124963
9.67715e-05
0.0446542
9.60419e-05
0.000133861
0.107276
0.000126828
0.000115103
0.000104885
9.76544e-05
0.000114992
0.0352305
0.0571405
0.000103935
9.76086e-05
0.00011426
0.000105001
0.000120901
0.0286534
0.000111236
0.046135
0.0138201
0.00214751
0.00436484
9.64354e-05
0.000172466
0.000806948
0.000111626
0.000126822
0.000111577
0.0416723
0.000110453
0.000138784
0.0429284
0.0427769
0.00145
0.000110577
0.000111218
0.000144501
0.000126792
0.0462661
0.000111134
9.59658e-05
9.4544e-05
0.000100704
0.000146823
0.000113037
0.000122709
0.000121132
9.78471e-05
0.0374103
0.000136255
0.0999645
0.0252043
0.000110149
0.000109351
0.000109304
0.000107918
0.0303615
0.000107096
0.000105754
0.000108672
0.000167
0.000157917
0.0326739
0.000799983
0.000102333
0.0353988
9.60517e-05
9.90356e-05
0.000132185
0.000147273
9.35068e-05
0.00023622
0.0378252
9.74111e-05
0.034685
0.000106233
9.6642e-05
0.000105694
0.0428423
0.000105344
9.42485e-05
0.0741941
0.00010373
0.000550436
0.0310094
0.000144571
0.000139366
0.000124041
0.0167426
0.000125769
0.000122321
0.0364366
0.00011164
0.000237616
0.000147776
0.0486122
0.000110964
0.00202065
9.25635e-05
0.000204657
0.0379459
9.78207e-05
0.0329052
0.000114971
0.000122086
0.000154212
0.000144456
0.095899
0.000107879
0.000164285
0.000117189
0.000339799
0.000120865
0.000127806
0.000111399
0.0426751
0.00011203
0.0176392
0.000111123
0.000114227
0.000103319
0.000112759
0.000117732
0.000115494
0.0392214
0.000106523
0.000106506
0.0368583
9.87615e-05
0.0190404
0.000100764
0.0360526
0.0025329
0.000108477
0.000121431
0.00011747
0.000131083
9.87328e-05
0.000154586
0.000151595
0.00012385
0.00010434
0.000129726
0.00363629
9.74752e-05
0.000108094
0.0129559
0.000118599
0.124917
0.000108907
9.49403e-05
0.0218475
0.0390224
0.00134099
0.036303
0.0178638
0.000112001
0.00147467
0.0696318
0.00236992
0.000137585
0.000115241
0.000161766
0.0362877
0.019979
0.00509754
9.13274e-05
0.000143883
0.000104759
0.0302737
0.0601948
0.000102606
0.000177449
0.000105804
0.000155718
0.000133731
0.000136798
0.000161745
0.0304751
0.000133501
0.00803158
0.000145212
9.8962e-05
0.0308877
0.0452251
0.000112038
9.14097e-05
0.000102706
9.78371e-05
0.000128371
0.000244733
9.38475e-05
0.000121902
0.000130858
0.000100149
0.000103944
0.000104211
0.00115153
0.000121372
0.0504198
0.0503488
0.0495173
0.000559176
0.000115078
0.00206685
0.000101796
0.0355464
0.00461361
0.0191308
0.000107544
0.0829651
0.0269849
0.000106971
0.000125207
0.00017019
0.0863036
0.0369056
9.38615e-05
0.000110467
0.0339085
0.0328963
0.0157915
0.000103431
0.000110784
0.0318674
0.000112056
0.0382986
0.126249
0.00393381
0.0169212
0.000117552
0.000114682
0.000114932
0.000110397
0.029687
0.0001015
9.56113e-05
0.000112987
0.00019751
0.0480821
0.000100049
0.0328149
0.0713622
0.0219115
0.0381885
0.000125729
0.000137485
0.0356622
9.97551e-05
9.52039e-05
0.000108495
0.0359253
0.000103313
0.129654
0.000194074
0.000124001
0.0656413
0.000108423
0.000104306
0.0631282
0.000693453
0.000110427
9.46112e-05
0.0813131
0.0778202
0.000138205
0.0380419
0.0156752
0.11551
0.0165992
0.000162083
0.000112141
0.000100617
0.0255414
0.000101139
0.0356211
0.00011016
0.0141446
0.000684161
0.000111574
0.000110398
0.000110166
0.000111387
0.0969791
0.0178338
0.000126919
0.0800241
0.000103057
0.000110635
0.000109573
0.000117013
0.000225601
0.000102793
0.035072
0.000145353
0.000111418
0.000113702
0.000284093
0.02435
0.000104808
0.000105657
0.000110623
0.000118318
0.000100225
9.77293e-05
0.0410896
0.0246398
0.0821655
0.000103287
0.000113681
0.000108115
0.000173672
0.000112675
0.000107729
0.0002385
0.000112688
0.00221261
9.32773e-05
0.0731192
0.0246059
0.000148316
0.0448826
0.000162822
9.94029e-05
0.0352718
0.000108173
0.114719
0.000110954
0.000109983
0.000110447
9.9552e-05
0.000769423
0.000110507
9.26572e-05
0.000114056
0.0243248
0.0284994
0.000144443
0.000123504
0.000102413
0.000103127
0.000191327
0.000113435
0.000140154
9.72221e-05
0.0400499
9.4266e-05
0.0441815
0.000103199
0.0707629
0.000101246
9.85756e-05
0.117515
0.00215784
0.000374153
0.00352876
0.000134444
0.000104308
0.000123367
0.0510253
0.000126495
0.00011314
0.000295671
0.000112078
0.128144
0.0807479
0.000176217
0.0421955
0.000192388
0.00303522
9.21774e-05
9.94289e-05
9.79854e-05
0.0545893
0.000110595
0.0624751
0.0252975
9.42178e-05
0.000118979
0.000111941
0.0216134
0.0418854
9.7656e-05
0.000131713
0.00010769
0.000104224
0.000103625
0.000775915
0.00107517
0.000128176
0.00546336
0.000146289
0.0285755
0.000126199
0.000105741
0.000101351
0.0653394
0.000115007
0.000145613
0.0406716
0.000109709
0.000104171
0.000245473
0.000484547
0.00011116
0.0213302
0.000100977
0.000497463
9.8762e-05
0.000110778
9.58749e-05
0.077013
0.000112541
0.00027207
0.0256495
0.0978575
0.000111878
0.000131126
9.58926e-05
0.000138563
0.000146431
0.101419
9.72987e-05
9.68835e-05
0.000101546
0.000130548
0.000146908
0.0358478
0.000127626
0.000138404
0.000112211
0.000181036
0.000115016
0.000107876
0.00012132
0.000424573
0.000176189
0.00014524
0.000952114
0.00297789
0.000358907
0.000147452
0.000111041
0.000217928
0.0379988
0.00542507
0.00014829
0.0204331
0.0358927
0.00014824
0.000101008
9.93596e-05
0.00540862
0.000173438
9.52172e-05
0.0249472
0.0583054
0.000108964
0.000115393
0.0328841
0.0268816
0.000113203
9.93436e-05
0.0288455
0.0278616
0.0415308
0.000124527
0.0549009
0.000127237
0.00019856
0.0819961
9.99509e-05
9.99338e-05
0.000102601
0.000298702
0.000101306
0.0352375
0.0734149
0.000106016
0.0390058
0.00542036
0.077051
0.000102774
0.000155954
0.00011473
0.000111639
0.0481978
0.0050657
0.000426989
0.00924209
0.00010958
0.000111981
0.00011262
0.0864701
0.0195192
0.000123853
0.000103717
0.000114285
9.36287e-05
0.00010911
0.0466949
0.0455008
0.000112224
0.000101079
9.40811e-05
0.0496801
0.00010949
0.000111109
0.000105181
0.000108358
0.00839415
0.00566696
0.00111399
0.052936
0.000137404
0.00050334
0.000110018
0.000138557
0.0580983
0.0550616
0.000128161
0.000149375
9.82339e-05
0.000110295
0.000115552
0.0501747
0.0573161
0.00010022
9.11104e-05
0.000139249
0.000120362
0.0585449
9.59639e-05
0.0338385
0.000153885
0.000111732
0.000103778
0.000122825
0.0767532
0.000101517
0.00392895
0.120758
0.000111456
0.0323755
0.00011602
0.000120684
0.00198902
0.0403608
0.0747843
0.000110239
0.000112714
0.000793239
9.63319e-05
0.000110492
0.000114706
0.0332091
0.000112211
0.010739
0.00149218
0.000110089
0.000133057
0.000570172
9.84826e-05
0.000147029
0.00160851
9.73692e-05
9.72919e-05
0.000103614
0.000115073
0.0457228
0.000107154
0.0041072
0.000110749
0.000117405
0.115361
0.0371381
0.000110307
0.000116249
0.000100107
0.000127968
0.000110429
9.55587e-05
0.00010813
9.90434e-05
0.000582233
0.000109835
0.0335685
0.000160525
0.00115021
0.000167193
9.65394e-05
0.0509597
9.80058e-05
0.0409179
0.000110678
0.075642
0.0115347
0.0179882
0.0152935
0.000578074
0.000217655
9.53008e-05
0.0461506
0.00024187
0.000122098
0.0418386
0.0434472
0.000110664
9.56421e-05
0.000105089
0.000105033
9.99747e-05
0.0382068
0.000148353
9.52145e-05
9.90401e-05
0.000111953
0.000136734
0.00013082
9.5852e-05
0.0345368
0.000109568
0.000198955
0.000104128
0.000104982
0.000226512
0.00543382
0.000148176
0.000107432
0.000799136
0.0434545
0.113914
9.54904e-05
0.033452
0.000100994
0.0314459
0.000126451
0.000108359
0.041908
0.00010507
0.0702009
0.0421846
0.000116163
0.0673205
0.000109027
9.50933e-05
0.0357729
0.000190377
0.000107879
0.0553717
0.000103892
0.000133585
0.000110035
0.000136
0.000103804
0.0326324
0.0415526
0.0531995
0.00045652
0.000100978
0.000126852
0.0683294
0.000107876
0.000112022
0.000160676
0.000100136
0.00163606
0.125331
0.0189214
0.0240698
0.000109536
9.55777e-05
0.0538314
9.6548e-05
0.000122574
0.000143408
0.119096
0.000105365
0.000133498
0.0311998
0.000172848
0.000125229
0.00011137
0.116384
0.000118557
0.00020082
0.000102714
0.0311672
0.0654741
0.00016127
0.000263131
0.000119238
0.000939582
0.000191672
0.000105216
0.000103118
9.43227e-05
0.000135107
0.000108806
0.000132946
0.000131568
0.000116865
0.000100723
0.0836757
0.000103043
0.000103642
9.5869e-05
0.000147354
0.0350336
0.000104704
0.00011016
0.0472544
0.000103155
0.0324239
0.000118238
0.0809189
0.000104551
0.0562147
0.000106039
0.00017592
9.32706e-05
0.000104691
0.000172024
0.000160016
0.00038075
0.0542099
0.000324519
0.0273188
0.000110732
0.000157437
0.00012267
0.00306339
0.000109808
9.31689e-05
0.000119258
0.000107432
0.000127811
0.00351149
0.000110845
0.0386887
0.0284268
0.000339367
0.00011136
0.0076133
0.000905286
0.000112981
0.000110059
0.000115794
0.0340016
0.000120657
0.016133
0.000103377
9.74292e-05
0.053217
0.000193474
0.000125044
0.000119579
0.0295175
0.000106119
0.00010817
9.92893e-05
0.000109308
0.000103271
0.000109069
0.000226542
0.000296744
0.00013123
0.000519881
0.0885538
0.033806
0.0379965
0.000104196
0.000116591
0.000297493
9.59082e-05
0.000139442
0.0332076
0.0345144
9.92623e-05
0.000123684
0.0308898
0.00129504
9.98738e-05
0.000107117
0.000110553
0.120916
0.0368394
0.000102867
0.000108338
0.000139958
0.000668875
0.000175501
0.000524864
0.000114343
0.000127093
0.00011391
0.000107279
0.000604132
0.000111939
0.000100323
0.000103357
0.0416028
0.000109089
0.0510531
0.000131641
0.040703
0.000113954
0.000111361
0.000107091
0.000116618
0.0123643
0.0260259
0.000167239
0.0201646
0.122814
0.000111059
0.0467248
0.000207302
0.000103282
0.0161274
0.00117844
0.000161907
0.000145302
0.0307562
0.0813225
9.63401e-05
0.000119206
0.0244278
0.000119
0.000112264
0.000101144
0.000101557
9.74015e-05
0.000140282
0.000541619
0.000250273
0.000139738
0.000100342
0.000111603
0.0363032
0.000104871
0.000120729
0.000110765
9.10232e-05
0.000112342
0.000124142
0.000108188
0.000534468
0.000122836
0.0597907
0.000123405
0.0719854
0.0370448
0.000147261
0.000109613
0.00014933
0.0578358
9.90011e-05
0.000103321
0.000113955
0.0010193
0.00377987
0.000103603
0.0372816
0.000125225
0.00246611
0.000113266
0.000119604
9.56163e-05
0.000134297
0.0766013
0.0371951
0.00930689
0.000103766
0.000121027
0.000120245
0.109691
0.0498257
0.000442557
0.000108888
9.64532e-05
0.0531093
9.98806e-05
0.000101249
0.000430029
0.000161009
0.000110361
0.000907198
0.000135292
0.000109901
0.000103456
0.067346
0.000100277
0.000122459
0.0539114
0.000133681
0.000100957
0.0272555
0.000125779
0.000131896
0.000224986
0.000292165
0.128062
0.000102044
0.000109695
0.000113896
0.0408536
0.000106873
0.00458718
0.010391
0.0350977
0.0253653
0.097821
0.000112872
0.0497571
0.0114466
0.000140966
0.000111151
0.000130748
0.0001127
0.0214166
0.0412589
0.0879276
0.03428
0.0343222
0.000112497
0.000153029
0.000126446
0.0835621
0.000101246
9.45898e-05
0.0001013
0.000101381
0.000108819
0.00015411
0.0855802
0.000103572
0.000101709
0.000113637
0.0407486
0.000101665
0.0779019
0.0320899
0.00977872
0.000130113
0.000108963
0.0321999
0.00218723
0.000134364
0.00113086
0.000142729
0.000247765
0.000792474
0.000146224
0.000108188
0.0246313
0.000104975
9.4717e-05
0.000453945
0.0273455
0.000104485
0.000122717
0.000112762
0.0146122
0.000121941
0.000118589
0.000102492
0.000116164
0.096212
0.0380658
0.00329986
0.00010955
0.0592871
0.00167761
9.99518e-05
9.9694e-05
0.000101194
0.021239
9.68144e-05
0.000108881
0.000118956
0.000116457
9.74494e-05
0.0603181
9.34792e-05
0.0287443
9.10512e-05
0.00011546
0.00010249
0.0273579
0.000126333
0.000100996
9.90175e-05
0.000153467
0.0980368
0.000115898
0.0266731
0.000135222
0.000127012
9.24455e-05
0.000117285
0.0286353
0.0324533
9.66966e-05
0.000101289
0.000457823
0.000491762
0.000123961
0.0441481
0.000109397
0.00155257
9.94426e-05
0.000102269
0.0345978
9.17144e-05
0.0370756
0.000120207
0.000102259
0.000132711
0.0355988
0.0340617
0.00010044
0.00112733
0.000407255
0.000127968
0.000101094
0.000111466
0.00120878
0.0472365
0.000130681
9.34918e-05
0.000108214
0.000124937
0.000115539
0.000101282
0.00012329
0.000256366
0.000116376
0.000113122
0.00499546
0.000107337
9.84228e-05
0.0311224
0.00012435
0.000125681
0.000151038
0.000100494
0.00299956
0.000110774
0.0841368
0.000118387
0.000110609
0.000148038
0.000145854
0.000100428
0.0769543
0.000110819
9.46665e-05
0.00371109
0.000110228
0.00030131
0.000278182
0.000251261
0.000117816
0.000113538
9.89269e-05
0.000116474
0.000108782
0.000108467
0.0303717
0.0797886
0.0326497
0.000146481
0.0344215
0.037396
0.0508111
0.000118413
0.00011012
0.00011031
0.0392883
0.000108407
0.000100371
0.102722
0.0328677
0.0807557
0.000397753
0.000234263
0.030142
0.00201622
9.55004e-05
0.0723686
0.000367625
0.000101745
9.68348e-05
0.000106506
0.0911863
0.000156911
0.0425806
0.000103675
0.016193
0.000103308
0.00224526
0.0272104
0.000111707
0.000100697
0.0549488
0.0364679
0.000118218
0.000101012
0.00010851
0.000113672
0.000724433
0.000172263
0.0155944
0.0498242
0.000101558
0.0727712
0.000294098
0.00746053
0.000125537
0.000136852
0.0129324
0.00131846
0.000113296
0.000114174
0.000209119
0.000125516
0.0338919
0.0431529
0.0816708
0.0511234
0.000108611
9.64992e-05
0.000207491
0.0231202
0.0345738
9.79278e-05
0.00153254
0.000300687
0.00309252
9.13902e-05
0.000145485
0.0225187
0.00645469
0.0106945
0.0309825
0.0205508
0.00011892
0.00124496
0.0509482
0.000114136
0.00018824
0.000158477
0.000100606
0.000227675
0.0517753
0.00145257
0.0001454
0.017492
0.000167922
0.107857
9.19908e-05
9.52073e-05
0.000107184
9.17763e-05
0.000107622
0.000123228
0.000121004
0.000128489
0.00185136
0.000100712
0.0395641
0.000109698
9.43111e-05
0.000105721
0.0370793
0.000171045
0.0674376
0.00010669
0.000110861
0.0305003
0.000338647
0.000117765
0.000126858
0.00698729
0.045302
0.000640392
0.000111012
0.000110696
0.000107987
0.00207425
0.000107579
0.0386975
0.0230074
0.0013236
0.000107188
0.00040209
0.0553493
0.000107714
0.0356824
0.000112503
0.000151702
0.000106699
9.74801e-05
0.000114278
0.0666388
0.000129539
0.0718648
0.00334882
0.000290011
0.000300264
0.000106506
0.000124715
0.00010077
9.33948e-05
0.106607
0.116656
0.000235201
0.0104705
0.000110026
0.000103587
0.000102731
0.000144432
0.0930242
9.72158e-05
0.0668485
0.000272053
9.10569e-05
0.00249206
0.0163847
0.0307111
0.0439147
9.79865e-05
9.48309e-05
0.00013354
9.21376e-05
0.00653622
0.00122589
0.0697362
0.000135784
9.47573e-05
0.000613033
0.000145911
0.000780278
0.000110546
0.000590476
0.000719904
0.00012307
0.000119189
0.000101342
0.000110262
0.000117174
0.000838707
0.000290136
0.000125628
0.00011316
0.000760716
0.000109859
0.0314089
0.0356816
0.0146717
0.000115141
0.000369372
0.000113163
0.000109805
0.000100599
9.33311e-05
0.00011111
0.0436358
0.0373325
0.000240546
0.000127896
0.000776283
0.000167092
0.0343098
0.0622569
0.00011032
0.0576631
0.00123356
0.000104542
0.000164565
0.05807
0.000299195
0.000143479
0.000116693
0.0408321
0.00119428
0.0239809
9.95308e-05
0.0018912
0.000130012
0.000113151
0.000100599
0.00141227
0.000146196