/*--------------------------------*- C++ -*----------------------------------*\
| =========                 |                                                 |
| \\      /  F ield         | OpenFOAM: The Open Source CFD Toolbox           |
|  \\    /   O peration     | Version:  v2012                                 |
|   \\  /    A nd           | Website:  www.openfoam.com                      |
|    \\/     M anipulation  |                                                 |
\*---------------------------------------------------------------------------*/
FoamFile
{
    version     2.0;
    format      ascii;
    class       surfaceScalarField;
    location    "350";
    object      phi;
}
// * * * * * * * * * * * * * * * * * * * * * * * * * * * * * * * * * * * * * //

dimensions      [0 3 -1 0 0 0 0];
oriented        oriented;


internalField   nonuniform List<scalar> 
20673
(
-0.167098
0.161356
0.00574126
0.368769
-0.306226
-0.0625428
0.0251823
-0.0624885
0.0373062
0.148834
-0.275167
0.126333
-0.361767
-0.116289
0.478056
-0.0215449
-0.00243649
0.0239814
0.0453546
-0.0428608
-0.00249376
0.0151935
0.0222652
-0.0374587
0.0266116
-0.0452775
0.0186658
-0.06026
0.155834
-0.0955736
-0.100913
0.103723
-0.00280976
0.15149
0.000813297
-0.152304
-0.0986525
0.0151426
-0.00164919
-0.0134934
0.203815
-0.035386
-0.168429
0.243552
-0.241567
-0.00198513
-0.10345
0.298759
-0.195309
0.135891
-0.157476
0.021585
0.148333
0.00315698
0.336975
0.263221
-0.600197
-0.373491
0.573246
-0.199755
0.0452235
0.000131011
-0.598143
0.334438
0.263705
0.0572508
-0.0420573
-0.308602
-0.0592851
0.367887
-0.00174908
0.041356
-0.0396069
-0.109011
0.0799976
0.0290136
-0.103301
0.0525996
0.050701
-0.0706064
0.0549748
0.0156317
-0.14145
0.101524
0.0399252
0.155624
-0.165725
0.0101008
0.195399
-0.20288
0.00748038
-0.0998043
0.141433
-0.0416287
0.176905
-0.0494413
-0.127464
-0.387734
0.362744
0.0249896
0.0887704
-0.104488
0.0157177
-0.365185
-0.232958
-0.00941019
-0.0150083
0.0244185
-0.183385
-0.0567672
-0.027753
0.0011533
0.0265997
-0.5799
0.589842
-0.00994187
0.685293
-0.386932
-0.298361
0.364368
-0.537098
0.17273
-0.0506241
-0.0204424
0.0710665
-0.170419
-0.153813
0.324233
0.0977365
0.0725768
-0.170313
0.142197
-0.00630644
-0.018565
-0.106519
0.125084
-0.00362942
0.0106112
-0.00698174
-0.680198
0.436468
0.24373
0.0429583
-0.162564
0.119605
-0.284492
0.0331653
0.251327
-0.00653009
0.00290067
0.0562683
0.120637
0.169043
-0.272493
0.208678
-0.22067
0.0119925
-0.110994
0.0100804
0.272172
-0.352684
0.0805115
0.0819762
0.160264
-0.24224
-0.330567
0.160148
-0.033781
-0.0299727
0.0637537
0.161649
0.207121
0.0151426
-0.165255
0.50223
0.016707
-0.0382519
-0.0863539
0.0876255
-0.00127169
-0.516037
0.32404
0.263973
-0.362458
-0.0986988
0.0998681
-0.00116925
-0.164947
0.180392
-0.0154455
-0.525525
0.163758
-0.0197565
0.0463681
0.00350324
0.0131907
-0.016694
0.142548
-0.451151
-0.00798662
-0.00712858
0.0151152
-0.0224314
0.145713
-0.123281
-0.0126086
-0.00429388
0.0169024
0.0711776
0.190002
-0.26118
0.0428098
-0.0427587
-5.10223e-05
-0.61202
0.326933
0.285087
-0.325045
0.600502
-0.275457
-0.257372
0.00874118
0.0259481
-0.0346893
0.0218414
-0.0312516
-0.00723375
-0.005059
0.0122928
-0.211667
0.282845
0.368252
0.204479
-0.572731
-0.0893261
0.00297225
0.209016
-0.166058
0.515133
-0.150765
-0.00857049
-0.0118837
0.0204542
0.120372
-0.0100538
-0.110319
-0.0499888
0.364216
-0.314227
-0.263403
0.0545929
0.20881
-0.0439916
-0.0453345
0.0262663
-0.0371742
0.0109078
0.0870367
-0.121092
0.0340548
0.125025
-0.00271143
-0.122314
-0.0611995
-0.0400703
0.10127
0.0547884
-0.0668264
0.012038
-0.455108
0.558958
-0.10385
0.124899
0.00841865
-0.133317
0.0207793
-0.0714034
-0.269455
0.0723895
0.197065
-0.482769
0.0885229
0.394246
0.0540534
-0.0451402
-0.00891322
-0.00745609
-0.0643647
0.0718207
0.0892624
-0.107827
0.101072
0.197687
0.156979
-0.150424
-0.00655527
-0.00726342
-0.00464762
0.011911
-0.00420468
-0.0235483
-0.106782
0.13032
-0.0235378
0.0525113
0.0015421
-0.276729
0.118143
0.158585
0.007902
-0.00821825
0.000316251
-0.36277
0.499954
-0.137183
0.0114451
-0.0125099
0.00106483
-0.021288
0.0249559
-0.00366788
-0.0782724
0.167839
-0.0895661
0.497928
0.187365
-0.0933384
-0.00536039
0.00375861
0.018485
-0.0222436
-0.0571884
-0.0461122
-0.608706
0.123165
0.48554
-0.246058
-0.0173449
0.0979718
0.218919
-0.316891
-0.534552
-0.0741541
-0.492245
0.586338
-0.0940927
0.0238298
0.0206637
-0.0287253
0.00806163
-0.0834313
-0.193297
0.148708
-0.302522
0.208341
-0.581832
-0.119631
0.0588099
0.0608216
0.0134671
0.0437837
-0.011894
-0.155204
0.0539312
0.000857183
-0.114068
0.438108
0.102844
-0.181117
-0.0964164
0.110305
-0.0138882
0.450191
-0.190384
-0.259808
-0.217844
0.278869
-0.0610252
-0.0750115
0.0267093
0.0483023
-0.0684912
0.332464
0.0572324
0.00306202
-0.0602945
0.0222276
0.0441357
-0.0663633
0.0182357
-0.302728
0.502805
-0.167014
-0.335791
0.220352
-0.214299
-0.00605269
0.153255
0.00153117
-0.154786
-0.000104511
0.00800651
0.026022
-0.115045
0.0890226
-0.077723
-0.0486915
0.126414
0.216819
-0.209631
-0.00718841
0.0146199
-0.0167791
0.00215915
-0.172312
0.00736488
0.0270025
-0.0855914
0.058589
0.00229804
-0.0149066
-0.0701783
-0.0494531
-0.150609
0.221214
-0.0706053
-0.0886231
-0.00580934
0.0944325
0.243449
0.356577
-0.600027
0.108701
-0.0216646
-0.134
0.0272175
0.0322832
-0.0934827
-0.200541
-0.0689139
-0.151727
0.150409
0.00131819
0.132541
0.22074
-0.35328
0.0254274
0.0994712
0.153327
-0.14079
-0.0125364
-0.0026508
0.00120748
0.00144332
0.110824
0.00186645
-0.112691
-0.00950205
0.237352
-0.22785
0.0678684
-0.0575061
-0.0103624
-0.0484177
-0.0666595
0.115077
0.0300128
-0.00934907
0.000372891
0.0110722
0.0713005
-0.014068
-0.25966
0.401518
-0.141859
0.0112045
0.109168
-0.00806165
0.163686
0.29755
0.152641
-0.0895731
0.457825
0.19276
-0.091144
-0.101616
0.0460322
-0.0477813
-0.0370154
0.124559
-0.0875433
0.0217298
-0.00710981
0.147125
-0.147681
0.00055591
-0.103128
0.0968612
0.00626724
-0.00492578
0.070363
-0.0654373
0.013229
-0.0204627
-0.11152
0.0867091
0.0248108
0.624881
-0.279295
-0.345587
-0.0329233
-0.0148382
0.0477615
-0.104994
-0.00401686
0.632218
-0.632218
-0.302747
0.252758
0.0108201
-0.0867577
0.0759377
-0.0921718
0.0844268
0.007745
0.0256999
0.1731
-0.1988
-0.339898
-0.3403
0.15714
0.000363614
-0.157504
0.149488
0.00376746
0.0143656
-0.0108624
-0.0709565
0.0961134
-0.025157
-0.280638
-0.107096
-0.0897958
0.361968
0.00969695
0.115328
0.0164518
0.0411747
-0.0576265
-0.288585
0.0707408
0.0505675
-0.0420017
-0.00856579
-0.00928271
-0.00242169
0.0117044
-0.0017409
-0.101388
-0.414164
-0.068605
-0.0624268
0.0441358
0.0182911
0.144998
-0.00682183
-0.138176
-0.00375182
-0.00369089
0.0074427
-0.49159
0.290513
0.201077
0.0517486
-0.0855296
-0.395756
0.136096
0.00292023
0.10853
-0.11145
-0.127937
-0.451963
-0.0170958
-0.0068759
0.0239717
0.0524057
-0.0433673
-0.00903837
0.0669723
0.17658
-0.125389
0.0280061
0.0973834
0.0396575
0.177162
-0.454749
0.0405852
0.00823299
0.0805374
0.121801
-0.0109768
-0.0109566
0.158081
-0.0672751
0.0216635
0.0456117
-0.0109759
0.00169315
-0.590646
0.48907
0.101576
0.19093
0.00446906
-0.0266881
0.0181176
0.00322246
0.00170843
-0.0049309
-0.303162
0.546611
-0.461302
0.441916
0.0193864
-0.0291076
0.0028955
-0.113518
0.0936391
0.0198793
0.399586
-0.602081
0.202495
-0.0803187
0.0900692
-0.00975047
-0.137861
0.134799
0.00306208
-0.106097
0.0174737
-0.168245
-0.00848061
0.176725
0.582381
-0.225803
0.145175
0.000603308
-0.145778
-0.0140859
0.0143562
-0.00027026
-0.285617
0.385045
-0.0994281
0.0589146
-0.131083
0.0721687
-0.0393108
-0.0113325
0.0506432
-0.238895
0.336866
-0.28307
-0.0696136
-0.0214749
-0.105967
0.127442
0.00223288
0.0213399
-0.0235728
0.105123
-0.0791013
0.122144
0.0706159
0.0106841
0.193131
0.241508
0.370683
-0.612191
-0.0150863
0.0188449
0.00493821
0.0556358
-0.060574
0.0601001
-0.0895837
0.0294835
-0.381373
-0.0733762
0.00534415
0.00993664
-0.0152808
-0.0171913
0.0170148
0.000176459
-0.0465868
0.0735893
0.0452304
-0.00242061
-0.124139
0.101707
0.257336
0.472737
-0.661271
0.188534
-0.137644
0.00295257
0.134691
-0.00162897
0.0186032
-0.0169742
0.113683
-0.127472
0.0137892
-0.169858
0.251835
-0.0996447
0.0286882
-0.145805
-0.0119527
-0.0926169
-0.453195
0.545812
-0.0869181
0.0800299
0.00688821
0.254906
0.281123
-0.536029
0.0667413
0.00112717
-0.20593
0.23163
-0.0723232
0.471909
0.0799052
0.115322
-0.195227
0.0533983
-0.131121
0.109201
-0.115011
0.018546
-0.0988647
-0.0083201
0.134284
-0.125964
0.374766
-0.0902766
-0.28449
0.0771086
-0.090707
0.0135984
-0.0287345
-0.0385407
0.0417356
-0.0367974
-0.226484
-0.265106
0.0790131
-0.0200072
-0.0590059
-0.483733
0.0152754
0.468457
0.18504
0.189726
-0.474562
0.111792
0.0681283
-0.0459007
-0.0586609
0.519927
-0.461266
-0.100605
0.103525
-0.176383
0.00813791
-0.264729
0.397269
0.00112851
0.156012
-0.242994
0.024931
0.218063
-0.00845682
0.00236215
0.00609467
0.0822171
-0.130635
0.118597
-0.128651
-0.275221
-0.106936
0.382156
0.0672264
-0.350297
-0.0036526
0.0094254
-0.0057728
0.0245797
-0.0192914
-0.00528834
0.288473
0.211481
-0.392208
0.625286
-0.233079
-0.0734561
-0.013462
-0.290042
-0.0663505
0.356392
-0.0054068
0.0185975
0.101788
-0.377008
-0.0237147
0.00661887
-0.329579
0.25416
0.0754189
0.109332
-0.0207702
-0.0885614
0.21235
-0.139829
-0.072521
0.0183479
-0.0125405
-0.00580743
0.0614292
-0.212038
-0.00217483
-0.0680035
-0.0553101
0.0121325
0.0431776
0.181602
-0.101697
-0.0569647
-0.0565537
-0.0131716
0.0784939
-0.0653224
0.0532203
-0.280155
0.226934
-0.00737049
-0.0192032
0.0265737
-0.0546616
0.0217382
0.000339004
-0.0175303
-0.190868
0.172348
0.0185198
-0.0250317
0.000150512
0.0248812
-0.160628
-0.053883
0.214511
0.00677852
-0.0194526
0.0126741
-0.0461097
-0.0092004
0.070071
-0.0963228
0.0262518
0.0974428
-0.0273718
0.0476613
-0.022479
-0.563501
0.336517
0.226983
0.141691
0.0116355
0.00987578
-0.0171392
-0.180591
0.295012
-0.114421
0.224857
-0.00456002
-0.220297
-0.0201886
0.0185394
-0.0670049
0.0778249
-0.215422
-0.0493418
0.264763
-0.0779307
0.0730049
-0.0390255
-0.0315809
-0.600998
0.32478
0.276219
-0.0248741
0.00358609
-0.107018
0.0294313
0.0775871
-0.266369
0.521274
0.507712
-0.359362
-0.148349
0.110073
-0.593805
0.235692
0.267113
-0.013138
0.0902466
-0.0508194
0.0683788
-0.0175594
-0.041017
0.0237047
0.0173123
-0.0134603
0.0098077
-0.373804
-0.00373348
0.377537
-0.0545525
0.113467
-0.0103614
0.0101992
0.000162247
0.123829
-0.16185
0.0380204
0.00770665
-0.0236356
0.0220066
0.00726548
0.210902
-0.479191
0.268289
0.0915658
-0.0314657
0.321547
-0.494653
0.173107
-0.0257253
0.0774739
-0.142379
-0.188188
0.0166979
0.00165003
-0.027033
-0.110828
0.178433
0.0880489
-0.266482
0.460954
-0.572381
0.111427
0.136294
-0.126597
-0.0864889
0.0976934
0.11988
-0.122935
0.00305423
-0.0152589
-0.0388901
0.054149
0.0140396
-0.00726111
-0.00516517
0.00141336
0.0107092
0.134466
0.0562608
-0.116521
0.0173073
-0.47861
0.00888014
-0.00565768
-0.032741
-0.00953414
0.0422751
-0.028548
0.288343
-0.259795
0.0841211
-0.086296
-0.305273
0.501521
-0.196248
0.0349185
0.069928
-0.104847
-0.0974802
-0.232099
-0.319322
-0.244178
-0.292032
0.108246
0.183787
-0.0340962
-0.00696158
0.0410578
-0.0746157
-0.217417
-0.028817
0.0310499
-0.00708009
-0.00299924
0.0100793
0.0813754
-0.0830439
0.00166854
0.028512
-0.0471402
0.0186282
-0.21608
0.269301
-0.0362736
-0.0261532
0.0406444
0.5889
-0.244542
-0.344358
-0.0744609
-0.297335
0.116744
0.214207
-0.339912
0.125705
-0.0694412
-0.0720085
-0.365214
0.606722
-0.39308
0.461885
-0.0688043
0.388669
-0.0671217
0.0840696
-0.0972076
-0.328324
-0.283696
-0.0231075
-0.00192414
0.000289305
0.0427666
-0.0430559
0.00583888
0.00192329
-0.00776218
-0.0738606
-0.0376593
-0.00767758
-0.0228136
0.0304912
-0.00522457
-0.00304395
0.00826852
0.162007
-0.0381782
-0.473196
0.0993926
0.104279
0.0127394
-0.117018
-0.26453
0.0811453
0.203162
-0.194633
-0.00852901
0.227264
0.397617
0.0204811
0.0472826
-0.0308308
-0.0551563
0.0554456
-0.19158
0.208166
-0.0165864
0.104395
0.0248057
-0.1292
-0.167649
-0.0232191
-0.258547
0.20178
0.00581194
0.114069
0.191995
-0.241736
0.0497406
-0.0766269
0.0853711
-0.00874421
-0.175847
0.276919
-0.438066
0.379405
0.0156514
-0.0210582
0.0258811
0.00413164
0.0312303
-0.00534922
0.0499527
0.0836566
-0.133609
0.00982699
-0.0039881
0.0249867
-0.0323572
-0.00647468
0.0186397
-0.012165
-0.0162442
-0.0011628
0.017407
0.147523
0.365365
-0.512888
-0.127565
0.00264769
0.124918
0.225056
-0.0330608
0.346951
-0.264978
-0.0819724
-0.103975
0.0276536
0.0763217
0.00455319
0.484591
-0.538599
0.0540088
0.0101495
-0.131458
0.121308
-0.00651844
-0.145003
0.151521
-0.0203008
0.0134378
0.00686297
0.34392
0.24498
0.114379
-0.00538527
-0.108993
-0.00118367
-0.0152367
0.0164204
0.0989171
-0.00870642
-0.0902106
0.00103562
-0.0229017
0.0218661
0.244922
-0.251029
0.222481
0.521744
0.110474
-0.151661
-0.0206508
0.508235
-0.297332
-0.0416893
-0.00796356
0.0496529
-0.0346609
-0.00635608
-0.158061
0.149741
-0.00634547
0.0129595
-0.00661402
0.021512
0.187166
0.0982592
0.0104422
-0.0222721
0.0157974
-0.0117909
0.0559265
-0.00744347
0.0888189
-0.00786645
-0.08855
0.101572
0.0128062
0.12048
-0.142344
0.0218639
0.0818304
0.0299148
-0.111745
-0.167108
0.175866
-0.00875836
0.0936972
-0.106624
0.0129266
0.0254482
-0.138164
-0.010826
0.148989
0.102741
0.00145318
-0.104195
-0.530227
0.543888
-0.0136602
0.0980989
-0.0266272
-0.0714717
0.211568
-0.0149659
-0.196602
-0.429988
0.303072
0.126916
-0.158453
0.0067924
-0.262195
0.182224
0.0799717
-0.00368522
-0.0166156
0.0216312
0.0308801
0.0888898
-0.378932
-0.516082
0.423466
-0.0447964
-0.00717717
0.0519735
-0.00675569
0.00153112
0.593909
-0.223226
-0.0210985
0.0221341
-0.310517
0.231012
0.0795048
0.122431
-0.0884585
-0.033972
0.00881918
0.323088
-0.331907
-0.0139132
0.00847161
0.00544161
0.0637375
-0.0915032
0.0277657
0.0397096
0.180642
0.303814
-0.190834
-0.11298
0.0301937
-0.0378713
-0.113276
0.0762603
-0.0105598
0.00989451
0.000665335
0.241266
-0.60648
-0.00189333
0.0127909
-0.0108976
-0.00808393
0.0958573
-0.0180121
-0.0778452
-0.352581
-0.077407
0.00358076
-0.00863977
0.0509572
-0.0214206
-0.0295365
-0.124789
0.162716
-0.0379278
0.125452
0.38226
-0.218597
0.264799
-0.0462021
-0.137142
-0.0595866
0.0945052
-0.043846
0.528437
-0.5176
0.158237
0.64981
-0.438724
-0.211085
0.407675
0.242135
-0.00525497
0.0105991
-0.0431458
-0.0608296
0.0372187
-0.0950964
0.114568
-0.0194714
0.572453
-0.0997164
-0.0482875
-0.406821
-0.00930336
0.113698
-0.0416171
0.0204154
0.0212017
0.148241
-0.163756
0.0155155
-0.113641
0.33438
0.452365
-0.238158
-0.287299
-0.0908169
0.378116
0.0224012
-0.0105011
0.0237301
0.396871
0.165439
-0.56231
-0.266247
-0.142696
0.408943
0.0149389
-0.0196094
-0.147499
0.104537
0.107813
0.0446871
-0.295716
-0.146197
0.260039
-0.113842
0.179623
-0.219832
0.0402097
-0.00192149
0.104663
0.0639378
-0.0771094
0.0294623
0.0939907
0.0102881
-0.142622
0.0565622
0.0860594
0.0162311
0.0798823
0.00227701
0.11632
0.452791
-0.293378
-0.159413
-0.012014
-0.00207189
-0.453273
0.249718
-0.0248611
0.250531
0.00454728
-0.255078
0.0703778
0.0277211
0.0796618
0.025559
-0.105221
-0.014393
0.399266
-0.384873
-0.00924437
0.108161
0.102832
-0.133883
0.0310512
-0.00530087
-0.00359784
0.00889871
-0.0771468
-0.0654749
0.00141329
0.0967999
-0.0982132
0.137231
-0.14375
0.32283
0.138124
0.0690926
-0.027357
0.100087
-0.0383287
0.0328144
0.00551426
0.167967
-0.343814
-0.152845
0.182978
-0.0301339
0.104353
0.0102147
-0.00545606
-0.0181795
-0.00823842
0.00823842
0.11348
-0.116191
-0.0584691
0.108422
-0.0341817
-0.207386
0.198198
-0.224771
0.0265725
-0.21117
0.255857
-0.0745692
-0.0187204
0.0932896
-0.0542322
0.0272376
0.141768
0.00322991
0.0146204
-0.0298796
-0.00844908
-0.00323831
-0.00732153
0.0235193
-0.219214
0.195695
-0.00584095
0.1041
0.0871417
-0.0234041
0.082074
0.0956166
-0.177691
-0.292511
0.0879394
0.204572
-0.0323614
0.00313331
0.0292281
0.0710116
-0.0498694
-0.0211422
-0.0623945
0.0509679
0.0114265
-0.0421466
-0.0603306
0.102477
-0.538436
0.0461907
-0.0207629
-0.00411125
0.00857115
-0.466971
0.452578
0.180896
-0.180829
-6.71873e-05
-0.0101651
-0.107812
0.117977
-0.127694
0.0278895
-0.0187061
0.120231
0.0466926
-0.00974618
-0.0369464
0.105196
-0.0233657
-0.023218
0.190942
-0.167724
0.0344275
0.0346651
0.262375
-0.19684
-0.0655344
-0.0174155
0.00117129
0.271746
-0.574908
-0.0117713
0.408642
0.0680539
0.0109592
0.0546631
0.0163485
0.034427
-0.00756309
-0.0268639
0.0955731
0.166802
0.255952
-0.265454
-0.448772
0.182525
0.00165299
-0.147458
0.00262454
0.115945
-0.0836618
0.218007
-0.0198089
0.100838
-0.108281
0.129472
-0.261112
0.269932
-0.0603274
-0.0650621
0.113202
0.00274264
-0.0779607
0.073745
0.00421573
-0.0466648
0.359187
-0.312522
-0.0799993
-0.0232047
0.103204
-0.0721933
-0.0229895
0.0159094
0.0375312
0.118302
0.112077
-0.0324156
-0.185497
0.0326525
-0.258673
0.536542
-0.277869
0.290792
0.0859083
-0.3767
-0.0898096
0.308729
-0.087046
-0.0153393
0.102385
0.157434
-0.0596972
-0.0550712
0.0981179
-0.0430466
-0.0417625
0.0265037
-0.136948
-0.014779
-0.222374
-0.378624
0.0267627
-0.0853565
0.0585939
0.0241917
0.0102353
-0.0983849
0.0850501
0.0133348
0.0584325
-0.344049
-0.183302
0.150361
0.0329408
-0.120124
-0.397476
-0.156337
-0.0435356
0.199873
-0.0507041
0.210968
0.010009
0.0409481
-0.287295
0.614228
-0.0641657
0.185234
-0.000557094
-0.184677
0.085592
0.0181312
0.145783
-0.0644049
-0.0813781
-0.0106094
-0.00534065
0.01595
-0.0270923
-0.087777
0.114869
0.0464812
-0.265078
-0.0161354
0.0200012
-0.00386589
-0.0057426
-0.00249582
0.353697
-0.266458
-0.0872394
0.218969
0.0315619
0.0992211
-0.0753105
-0.0239106
0.077048
-0.119195
0.112565
0.00111817
-0.34791
-0.242525
0.590435
0.0353714
0.268443
-0.107785
0.0870145
0.240904
-0.0624711
-0.108378
-0.0145572
-0.145806
0.124331
0.386836
-0.0960444
-0.143872
0.146216
-0.00234454
-0.040825
0.398683
-0.175815
-0.222868
-0.263495
-0.0328879
0.296383
0.672412
-0.39287
-0.279543
0.0165631
0.00801658
-0.413706
0.622047
-0.201423
0.00984388
-0.00192402
-0.000726777
0.00707095
0.203341
-0.210412
0.0620175
-0.00735443
-0.0240697
-0.185561
0.068704
0.072729
0.233688
0.126909
-0.0101712
-0.116738
-0.0983628
-0.376199
0.136345
-0.00848172
-0.127864
0.325014
-0.585491
0.260478
0.116277
-0.0999007
-0.0163765
-0.2178
-0.0927176
-0.0433641
0.0421804
0.0534399
-0.0484215
-0.00501835
-0.0170796
-0.0245375
-0.56011
-0.0721078
-0.235863
0.122924
-0.120647
-0.147662
0.158792
-0.0111296
0.00414846
-0.0201577
0.0160092
0.0407821
-0.0351658
-0.00561631
-0.130659
-0.0268164
-0.3328
-0.0130273
0.345827
0.099981
-0.0159115
-0.0281475
0.0205845
-0.0847962
0.00683548
0.0514872
-0.106558
0.138354
-0.000268441
-0.138086
-0.0393262
-0.0040957
0.0434219
-0.164563
0.147097
0.0174654
0.161286
-0.173239
0.000906803
0.0887517
-0.0896585
-0.0792755
-0.00748223
-0.14397
0.0133109
-0.00192481
0.0210956
-0.0191708
0.142939
-0.147793
0.00485432
-0.279041
0.0814469
0.197594
0.0938
-0.103965
0.0677753
0.113827
-0.403838
0.31633
0.0875083
-0.183734
0.027397
0.0104343
0.146545
-0.166318
-0.0479811
-0.382282
-0.0405952
0.422877
0.180245
0.142877
-0.0123832
-0.130494
-0.0628617
0.24035
-0.177488
-0.133099
0.0247216
0.00954713
-0.342347
-0.226666
0.463184
-0.236518
0.135246
-0.548952
0.214555
-0.160641
-0.0539138
0.22332
0.222976
-0.446296
0.0297369
0.182851
-0.212588
0.625471
-0.28333
-0.342141
-0.0129916
-0.000921588
-0.1485
0.143739
0.00476088
0.0419886
-0.0400175
0.237273
-0.515971
0.278699
-0.35449
-0.205146
0.559636
-0.0379916
0.0891304
-0.0511388
0.146704
-0.0262239
0.25215
-0.195954
-0.0561965
0.0502009
0.0235207
-0.0737216
0.137626
-0.0459809
-0.0916446
-0.0874871
0.0617618
0.00149996
0.0927363
-0.118479
0.0257423
-0.088237
0.258678
-0.170441
-0.633971
0.0245467
0.609425
0.598176
-0.190501
-0.255508
0.0125139
0.00205311
-0.00252995
0.00047684
-0.603349
0.248859
-0.0875742
0.0169793
0.0705948
-0.124181
0.153918
-0.00252654
-0.00783491
0.108798
-0.140126
0.0313277
0.108059
0.0295668
-0.00805114
0.0936432
-0.439512
0.10235
0.337162
0.28081
0.316205
-0.00016693
-0.43056
0.275816
0.154744
-0.301327
0.0827629
0.218564
-0.0565061
-0.0250286
0.0815347
0.250354
-0.0130013
0.097978
0.448733
-0.546711
-0.00579511
0.173754
-0.167959
-0.0582254
-0.417654
0.47588
0.324012
-0.473885
0.149873
-0.16317
0.0142218
-0.0126428
0.0167913
0.167063
-0.174095
0.00703209
0.250448
0.148236
0.46418
0.125663
0.0211149
-0.0265709
0.0103967
0.331297
-0.100097
-0.231201
-0.110315
0.278282
0.0781026
-0.0279017
-0.081534
0.0944337
-0.0128997
0.00322186
0.000802176
-0.00402404
-0.116413
0.117826
-0.0509895
-0.228051
-0.234662
-0.355984
0.504973
-0.180961
0.00592049
-0.144084
-0.0093192
0.0163889
-0.0862367
0.0698478
0.0509181
0.12143
-0.0300639
0.0108607
-0.284736
0.0855606
0.199176
0.036202
-0.218216
0.182014
-0.00265947
0.00266453
-5.05925e-06
0.145298
-0.450571
0.00211783
0.20945
0.274932
-0.35707
0.082138
0.335722
0.259921
-0.595643
0.000421402
-0.150845
0.0898692
0.0193322
0.204039
-0.274464
0.0704251
0.0590363
0.0029812
0.00145501
0.0232406
-0.0246956
0.0354643
0.226306
-0.309838
-0.119035
0.428873
-0.0936616
-0.00730605
0.100968
-0.071343
-0.325374
0.56664
-0.0788089
0.0944884
-0.0156794
-0.436714
0.126876
-0.155291
-0.278525
0.364021
-0.0854957
0.436663
-0.154177
-0.282486
-0.102732
-0.241004
-0.101645
0.342648
0.0252982
-0.0856956
0.139629
0.0429261
-0.182555
0.393105
-0.586432
0.193327
0.373741
-0.504018
0.130278
-0.0167699
-0.26766
0.28443
0.0290663
-0.319677
0.290611
-0.337533
0.0740384
-0.0339425
0.0467809
-0.0128384
0.287872
0.051569
-0.339441
-0.109375
0.399479
-0.290104
0.0392813
-0.00925561
-0.0300256
-0.0401673
0.0432293
-0.151087
0.127869
-0.155724
-0.000475347
-0.116254
0.116729
-0.0502415
-0.164199
0.214441
0.470697
-0.16217
-0.308526
0.127441
-0.0548639
0.0124723
0.113284
0.0029931
0.272823
-0.482381
0.209557
-0.300768
0.109934
-0.00261264
0.0433948
-0.050377
-0.0809775
0.131354
0.00609484
-0.0170866
0.0109918
0.528352
0.168719
0.00203908
-0.0213304
-0.178536
0.1523
0.0262356
-0.274925
0.0632576
0.00531897
-0.00546781
0.00014884
-0.0201039
0.0106796
0.0094243
0.352804
-0.323737
0.0970776
-0.0961708
0.491244
0.106932
-0.337331
0.0963275
0.428651
-0.191379
-0.00490469
0.0148413
0.471723
-0.248403
-0.327871
0.280313
-0.0510354
-0.271141
0.0720573
0.199084
0.0378033
0.0846272
-0.095611
0.0483699
0.303247
0.0742729
-0.37752
0.1004
-0.126464
0.0260643
0.372614
0.166544
-0.539159
-0.00736547
0.504413
-0.482301
-0.0221124
0.346304
0.36083
0.219297
-0.580126
0.00319967
0.458808
0.0251968
-0.0215488
0.0270409
-0.00549214
0.014876
-0.0598101
0.0449341
0.000184455
-0.183486
-0.0382079
-0.0688106
0.00267225
-0.00384887
0.00117662
-0.281842
0.349068
0.000548082
-0.0213109
-0.0517726
0.0218
0.00485404
-0.00218179
0.00181058
0.0254007
-0.0272113
0.00787843
0.0314028
-0.0266723
0.0213715
-0.0677359
0.0944986
0.180548
0.0842511
0.00393382
-0.150776
-0.0277596
0.00641389
-0.0391548
-0.411395
0.0588139
0.0895888
0.274627
0.278007
0.0532903
0.538053
0.161154
-0.227044
0.0658906
0.123875
-0.148978
0.0251024
-0.0137044
0.0201388
-0.0064344
0.370469
-0.28088
0.425772
-0.186232
-0.23954
-0.00317929
0.0105553
-0.00737602
0.014794
-0.0833978
0.0686037
-0.270459
0.253689
0.0241222
0.0202557
-0.171977
0.151722
-0.0717359
-0.205008
0.276744
0.0270372
0.0264026
0.0915289
-0.0674066
0.163827
-0.213299
0.0494714
-0.166149
-0.104993
0.0233968
-0.0219418
-0.00229813
-0.000361344
0.0035414
-0.0160513
-0.362459
0.0839343
-0.0793991
-0.0338766
-0.0120418
0.114874
0.000202238
0.00120402
-0.00140625
-0.04598
-0.122985
0.121453
0.00153149
0.256738
0.16841
-0.256647
-0.0745765
-0.21016
-0.508241
-0.114455
0.0683579
0.51137
-0.363847
0.169327
0.0102962
-0.0649743
-0.0995882
0.0148981
-0.00993874
-0.00495938
-0.12588
0.0306033
0.0952769
-0.0957632
-0.232108
0.117542
0.0189826
-0.0142848
-0.00469778
0.161778
0.328757
-0.246973
-0.0817838
0.0124381
0.000682352
-0.0131204
-0.35958
0.0948512
-0.305325
0.00399832
0.0764216
-0.111272
0.0348509
0.0159262
-0.0222717
0.482601
0.299819
-0.346484
-0.0381911
0.0476912
-0.00950008
-0.100791
0.0625832
-0.0232958
0.0872058
-0.06391
-0.131177
0.0339903
0.0971864
-0.0404363
-0.0640518
-0.487151
0.174334
0.312817
-0.0957507
0.094275
0.00147563
0.174217
0.154539
0.0117866
0.357221
-0.369008
-0.0799919
-0.212519
-0.0557677
0.0140783
-0.00149864
0.00472051
-0.367927
0.089501
0.278426
0.499691
-0.12595
-0.0719534
0.346886
0.0176871
0.0644152
-0.177647
-0.00624263
0.18389
-0.233249
-0.197311
-0.301839
0.0864176
-0.00175997
0.363043
-0.0597965
-0.00599873
-0.0721865
-0.0220469
0.0942334
-0.026277
-0.00592343
0.0322005
-0.325318
0.0864232
0.12105
-0.0317269
-0.0893233
0.18409
-0.160571
0.0151599
-0.00668833
0.0174219
0.00156062
-0.0086672
0.00401958
-0.116779
0.116304
-0.00548557
-0.0146183
0.464008
0.00496486
-0.0390611
-0.466527
0.479703
-0.0729659
-0.147704
0.167453
-0.156852
-0.0106005
-0.0746144
-0.051816
0.00701965
0.0503301
0.0258812
-0.0762112
0.094602
0.0127602
-0.107362
-0.0168329
0.0622961
-0.0454632
-0.285629
-0.273656
0.559285
-0.0569893
0.0952726
-0.0382833
0.106097
0.330566
-0.0875521
0.155327
0.0436634
-0.0357459
-0.00791749
0.231377
0.115574
0.174786
-0.641313
0.218666
-0.265111
0.0464444
0.101472
-0.254108
0.152636
0.0131321
0.00176603
0.46707
-0.102569
-0.364501
0.513002
-0.178563
0.00561607
-0.0239216
0.12983
-0.105909
0.142469
-0.143057
0.000588225
-0.0279509
-0.000196619
-0.102391
-0.00389139
0.106283
0.00345364
0.000539198
-0.00399284
-0.00540232
-0.129667
0.110712
-0.161089
0.00236658
-0.0172982
-0.170696
0.0165418
0.0611862
-0.0777281
-8.45586e-05
0.0414405
0.201762
-0.00533116
-0.196431
-0.305558
-0.058543
0.364101
0.00164719
0.03048
-0.0321272
-0.0344661
-0.248497
0.266732
-0.138556
0.0353148
0.103242
0.152181
-0.00394069
-0.342712
0.116307
0.226406
-0.0276567
0.18881
-0.141853
0.243325
0.155559
0.286116
0.310899
0.132491
0.00586318
-0.0266353
0.0533446
-0.369202
0.134383
-0.123189
-0.0111941
0.109483
0.207996
-0.317479
0.108897
-0.0975589
-0.0113383
-0.252137
0.577151
0.159113
0.00102605
-0.128591
-0.229369
0.166507
0.318578
-0.0816872
-0.23689
-0.295567
-0.0723607
0.0431401
-0.0410054
-0.00213462
-0.0843415
-0.0347132
0.119055
-0.0243748
0.0644576
-0.0400827
0.265056
0.196829
-0.323642
0.265464
0.0581783
0.00592858
-0.272125
-0.0849453
0.0202866
0.109835
-0.130121
-0.124094
0.0397527
-0.233897
-0.108816
0.0259589
0.10884
-0.257381
0.366864
-0.0220736
0.0697502
-0.0476765
-0.292113
0.0436163
0.00283245
0.18811
-0.0164086
-0.00378
-0.0736268
0.0952744
-0.0216476
-0.0924308
0.400048
-0.307617
-0.22478
0.190804
0.0339763
0.00319685
-0.0247456
0.354373
-0.342587
0.473769
-0.117802
-0.355967
0.00365466
-0.00345242
0.0130343
-0.017939
0.0309047
-0.198554
-0.00573893
-0.0886872
0.0944261
0.544185
-0.280963
0.228301
-0.00973549
0.236186
-0.211255
-0.353088
-0.0864231
-0.0881948
0.0182961
0.0698987
0.305406
-0.286198
-0.0192077
0.017767
0.0658357
-0.0836027
0.198423
0.402079
-0.445651
0.0925628
-0.296627
0.196531
0.00207293
-0.104464
0.0246384
0.00336189
-0.0280003
-0.22238
-0.0749545
-0.000918872
-0.236183
0.237102
-0.348036
-0.139115
0.197748
-0.187064
0.481784
-0.146062
0.0222668
0.131077
-0.120928
-0.584733
0.259359
0.016239
0.0521398
0.119508
-0.0903441
0.0333548
0.0300147
-0.00502808
-0.0226586
-0.00970281
0.394064
-0.304563
-0.302899
0.0559257
-0.259034
0.337799
-0.0787644
-0.0113885
-0.178727
0.143341
0.00071603
0.0256356
-0.0263516
0.00191435
0.0023357
-0.00425004
0.232432
-0.171003
0.00547227
0.00886342
-0.015992
-0.139306
0.140902
-0.00159571
-0.095458
0.0897191
-0.116705
0.0896122
-0.00200285
-0.0106413
0.111599
-0.00270154
0.0244576
0.0612385
-0.0856961
0.0286065
-0.00676506
0.130031
0.00717734
-0.137208
0.173984
0.016316
-0.0270325
0.0796321
-0.397744
-0.0136505
0.212698
-0.140309
0.064837
-0.0482952
-0.129387
0.142365
-0.0129784
0.372275
-0.283385
0.123314
0.00359498
-0.0933899
0.113676
-0.00810638
0.0181561
-4.53544e-05
-0.0181107
0.216151
-0.00489383
-0.211258
-0.0668611
0.0500282
0.0316577
0.12753
-0.159188
-0.0143337
0.0863454
-0.0720117
-0.048855
-0.0494877
0.0983427
0.118932
-0.0811282
-0.158051
0.178306
-0.366756
0.20661
0.0521822
0.306025
-0.431063
0.125038
-0.0448218
0.208649
-0.503497
-0.0267301
0.185423
-0.368382
0.111678
0.256704
0.0023886
0.113185
-0.115573
-0.0113581
0.105055
0.0126078
0.00597576
-0.0185836
0.0822009
0.0286339
-0.110835
-0.0329413
-0.0626697
-0.04767
-0.00748631
0.0787319
0.260413
-0.362322
0.10191
0.0029305
0.00601062
-0.048024
0.0420134
0.323636
-0.391116
0.06748
0.353646
-0.150144
-0.0089181
0.159062
-0.00079001
0.00284312
0.338109
-0.593844
0.255735
0.125013
-0.00734928
-0.117664
0.0821811
-0.0092138
-0.0729673
0.116856
-0.152753
0.0358977
0.374584
-0.269184
-0.105401
-0.284426
0.2289
0.0555252
-0.179223
0.321642
-0.14242
-0.0769995
-0.0615569
-0.149722
0.101031
0.232601
-0.000353063
-0.0430111
0.0441134
-0.0336553
-0.0104581
-0.123013
0.123616
-0.0919516
0.0131427
-0.0215017
0.151533
0.0943773
-0.0922825
-0.00209472
-0.214753
0.221824
-0.201449
0.151207
0.00879786
0.0479943
-0.0567922
-0.0653137
0.0906971
-0.0253834
-0.00118378
-0.00528146
0.0303016
-0.0433294
-0.590642
-0.413709
0.308347
0.105362
-0.148045
0.309693
0.346932
-0.0707392
-0.276193
0.118986
0.159883
-0.0626469
-0.072454
0.135101
0.370651
-0.0759752
-0.294676
0.00343112
0.0957663
-0.0991974
-0.501715
0.44349
-0.163846
-0.297741
0.130466
-0.0224075
-0.00181421
0.102652
-0.0653348
0.0897924
-0.3552
0.0733581
0.0395325
-0.174274
-0.239434
0.009635
0.0490154
-0.0586504
0.27426
0.227262
-0.187287
0.137846
0.458323
-0.1855
0.0149417
0.0764077
-0.0913494
0.00455055
0.0634649
-0.103535
0.27822
-0.0727768
-0.0531034
0.358377
-0.143266
-0.215111
0.149279
-0.0195003
0.0141597
0.233043
0.101639
-0.334682
0.19658
-0.276572
-0.137462
0.113541
0.169307
0.0115899
0.00568951
0.283212
0.12015
-0.178398
0.0582478
0.247772
-0.28066
0.119005
-0.501287
0.139704
-0.0158289
-0.0979006
-0.167554
-0.215163
-0.236606
0.451769
-0.165249
-0.0480501
0.00593726
0.00841893
-0.201705
-0.0115033
0.213208
-0.0664797
0.0828686
-0.0461554
-0.00103149
-0.00354855
0.028187
-0.219454
0.0177491
-0.447625
0.232462
0.0496333
0.129456
-0.179089
-0.00956932
0.000111658
0.00945766
-0.206399
0.287846
-0.137369
0.00798217
-0.00494645
-0.143179
0.148125