/*--------------------------------*- C++ -*----------------------------------*\
| =========                 |                                                 |
| \\      /  F ield         | OpenFOAM: The Open Source CFD Toolbox           |
|  \\    /   O peration     | Version:  v2012                                 |
|   \\  /    A nd           | Website:  www.openfoam.com                      |
|    \\/     M anipulation  |                                                 |
\*---------------------------------------------------------------------------*/
FoamFile
{
    version     2.0;
    format      ascii;
    class       volVectorField;
    location    "150";
    object      ddtCorrDdt0(U);
}
// * * * * * * * * * * * * * * * * * * * * * * * * * * * * * * * * * * * * * //

dimensions      [0 1 -2 0 0 0 0];


internalField   nonuniform List<vector> 
13726
(
(6.44846e-07 1.36682e-06 1.60281e-23)
(-2.75461e-05 2.93353e-05 1.05043e-21)
(-0.00180126 -0.000538188 1.0749e-21)
(-0.00186899 0.000455887 8.84071e-22)
(2.37941e-06 2.06597e-06 -2.84354e-21)
(-0.00279144 -0.00261982 -3.7481e-22)
(-0.000680059 0.00903098 0)
(-0.000140229 0.000220606 4.11713e-22)
(3.45279e-05 2.50997e-05 3.799e-21)
(-0.00522773 -0.00361363 -5.07747e-22)
(0.00584828 0.0022171 0)
(-0.00815215 -0.00124864 6.86068e-22)
(-0.000951132 0.000815982 -7.28377e-22)
(-0.000184026 -0.000158969 -1.72736e-22)
(-3.8137e-05 -0.000496712 5.67584e-22)
(-6.3293e-06 3.4267e-05 2.74724e-22)
(0.000676284 -0.000546746 0)
(-0.00661936 0.00597463 6.88811e-22)
(0.00467485 0.00175008 0)
(9.35417e-06 1.18161e-05 5.6786e-22)
(0.00022716 2.62656e-05 -4.93119e-22)
(7.25329e-06 8.62041e-06 7.06755e-22)
(6.70705e-06 2.49017e-06 -7.04949e-22)
(0.000697358 0.000648854 1.31872e-21)
(0.000200009 -0.000810168 -1.1915e-21)
(0.00529164 0.00172385 0)
(1.04839e-05 1.0692e-05 2.26766e-21)
(1.03454e-05 1.06203e-05 -1.76875e-21)
(-0.000280252 9.86608e-05 1.15376e-21)
(2.75441e-05 9.9745e-05 -2.70542e-21)
(-0.000125529 0.000215384 -3.85714e-22)
(1.276e-05 2.07919e-05 0)
(0.00454303 -0.000131333 -2.20835e-22)
(0.000123879 -2.87483e-05 -3.52397e-22)
(-2.04221e-05 -0.000123094 0)
(0.000206073 -0.000707286 3.07187e-22)
(2.26569e-06 2.22122e-06 7.86621e-22)
(1.17591e-06 7.27728e-06 1.28472e-21)
(3.51078e-05 2.41507e-05 -1.05638e-21)
(-0.00349731 0.0110384 -6.07546e-24)
(3.58227e-05 9.09331e-05 8.67289e-22)
(-3.44721e-05 -3.29955e-05 0)
(-0.000219576 0.000284803 8.32505e-22)
(1.83489e-06 3.05186e-06 7.35932e-22)
(1.72441e-05 3.46706e-06 -5.52705e-24)
(4.11812e-06 2.21162e-06 0)
(-2.38833e-05 2.9806e-05 -1.14666e-21)
(-0.000328515 0.000505856 2.07922e-21)
(2.31633e-05 2.91159e-05 0)
(4.6947e-05 -2.88586e-05 1.46415e-21)
(-0.000198271 0.000413067 3.59277e-23)
(-0.000754359 0.000775672 0)
(-0.000259689 0.00010693 -1.58333e-21)
(5.54764e-07 1.65619e-06 -1.95529e-21)
(3.9054e-05 -0.000132278 0)
(3.53337e-06 7.02303e-06 0)
(9.5156e-07 7.04658e-06 -1.07936e-21)
(6.92684e-06 8.77315e-06 6.17854e-22)
(4.71956e-06 5.75521e-06 0)
(5.30743e-06 1.06362e-05 1.62931e-21)
(2.21554e-06 2.83554e-07 -1.53218e-21)
(6.03789e-06 -6.43893e-07 -2.26714e-22)
(6.40438e-06 1.25551e-05 8.63397e-22)
(0.000625854 0.000600339 0)
(0.000245791 -6.40975e-05 -1.33151e-21)
(6.56263e-06 2.31052e-06 7.18232e-22)
(2.24921e-07 7.62575e-08 1.27786e-21)
(3.56941e-05 3.00099e-05 -1.51073e-21)
(0.000112952 -2.95244e-05 -9.42607e-22)
(2.21089e-05 3.16894e-05 0)
(8.96021e-07 8.27693e-06 0)
(-0.00215224 -0.000449519 -1.31271e-22)
(5.03091e-05 -2.80533e-05 -1.6091e-21)
(0.000692284 0.000114166 -5.5003e-22)
(7.83988e-05 -3.68068e-05 3.2158e-22)
(3.50118e-05 2.56641e-05 0)
(6.24632e-06 1.22515e-06 -1.74191e-22)
(-0.00335148 -0.00188304 -1.22481e-21)
(-7.59296e-05 -0.000568197 0)
(0.000744318 -0.00014266 0)
(-0.00405176 -0.000207809 7.29972e-22)
(-0.00011392 0.00089233 -1.24988e-21)
(1.34186e-05 -2.66464e-06 -2.40081e-21)
(2.09371e-06 7.22206e-06 -7.2228e-22)
(-0.000164349 0.000198295 -2.32566e-21)
(0.00822844 0.00492016 -1.38404e-21)
(3.81516e-05 2.77779e-05 1.07835e-21)
(0.00351588 -0.000615413 0)
(0.00030011 0.000981471 -1.82502e-21)
(-4.28236e-05 2.7921e-06 0)
(1.22772e-05 1.03517e-05 2.67941e-21)
(4.93442e-06 1.17713e-05 -3.01337e-21)
(8.5345e-06 -2.28172e-06 0)
(8.09453e-06 7.13361e-06 -1.53287e-21)
(1.83628e-07 1.25513e-06 0)
(-0.00292017 -4.07192e-05 0)
(4.48298e-06 1.48878e-05 2.80615e-21)
(1.59455e-05 9.79591e-05 -1.02191e-21)
(-0.0022151 0.000476942 1.71079e-21)
(0.00567287 0.00176654 0)
(6.57115e-06 1.49068e-05 9.13179e-22)
(-0.00478602 -0.00308193 1.1103e-21)
(-0.000156037 0.000211024 1.20662e-21)
(6.74319e-06 7.02081e-06 0)
(-3.45656e-05 -3.80648e-05 0)
(2.18487e-05 -4.37368e-05 0)
(-0.00376522 -0.00264081 -5.06345e-22)
(8.72821e-06 7.8941e-06 -6.29891e-22)
(3.52023e-06 2.90321e-08 0)
(-4.33023e-06 3.74631e-05 0)
(8.56794e-07 2.2482e-06 -2.04769e-21)
(1.76764e-05 3.80885e-06 -9.47606e-22)
(5.88346e-07 1.03524e-06 2.81644e-21)
(-0.000163657 -0.000164335 0)
(9.34297e-06 1.16831e-05 -4.92398e-22)
(0.000307826 -0.00052675 1.14273e-21)
(2.75008e-07 7.09263e-08 1.00458e-21)
(0.00214052 -0.000600588 0)
(9.73084e-06 1.35256e-05 0)
(0.000381479 0.0098868 0)
(0.000193629 1.52458e-05 1.09674e-21)
(-0.00181674 0.0050834 1.82763e-22)
(-0.000190027 0.000429361 -7.56826e-22)
(7.73677e-05 -3.57931e-05 6.69607e-22)
(2.14252e-06 2.1335e-06 0)
(2.17852e-06 2.51999e-07 1.55939e-21)
(1.16872e-05 -5.40617e-06 1.48745e-21)
(0.00106527 0.00160512 0)
(1.43312e-05 -2.70194e-06 1.34255e-21)
(-0.00517766 -0.000561908 0)
(7.88438e-07 2.31074e-06 -1.44347e-21)
(0.000387792 0.000997234 2.39544e-21)
(1.12284e-06 6.21539e-06 -7.65955e-22)
(-4.19802e-05 1.59417e-05 0)
(7.702e-05 -4.3096e-05 5.22366e-22)
(8.59611e-07 2.3559e-06 1.56843e-21)
(-0.000688114 0.000798862 1.05856e-21)
(1.2247e-05 -4.93771e-06 7.5684e-22)
(4.72697e-06 3.60388e-06 3.5586e-23)
(2.48958e-05 -2.22679e-05 1.4578e-21)
(1.02846e-05 2.32772e-08 1.49828e-21)
(1.75583e-06 2.86128e-06 0)
(0.00129584 -0.00385904 -9.2998e-23)
(2.48081e-06 7.6515e-06 -8.55901e-22)
(0.00858974 0.00451255 7.58874e-22)
(9.05003e-06 2.98444e-06 -1.58803e-21)
(-5.59346e-05 -0.00074546 -1.43214e-21)
(1.56451e-06 -0.000122649 1.00783e-21)
(0.000219071 -6.75253e-05 2.1095e-21)
(-2.88445e-06 1.96754e-05 -6.24595e-22)
(0.000365598 9.90617e-05 -4.47916e-22)
(5.97481e-07 8.76101e-07 -1.42454e-21)
(-0.000167181 3.48702e-05 -2.08686e-21)
(0.00181226 -0.00384642 1.52657e-21)
(1.85037e-06 2.79145e-06 -1.53366e-21)
(-1.48202e-05 -3.01939e-05 -6.58802e-22)
(7.11733e-05 2.18354e-05 -1.34213e-21)
(8.59684e-06 -2.13481e-06 5.27844e-22)
(-0.000151515 5.26727e-05 6.63266e-22)
(0.0003719 -0.00589326 6.73282e-22)
(-4.52488e-05 7.72806e-06 3.82588e-22)
(1.37951e-05 2.07716e-05 1.51457e-21)
(-0.00213365 -0.00391908 -2.67276e-22)
(0.00548539 0.00154448 -3.31612e-22)
(9.48752e-06 -5.33735e-05 0)
(9.32468e-06 -5.31698e-06 -1.18936e-21)
(3.78221e-06 7.06787e-07 0)
(6.06959e-06 5.45168e-06 -9.42332e-22)
(3.24712e-06 5.73007e-05 -1.59411e-21)
(2.54841e-06 2.13263e-06 2.42358e-21)
(3.35715e-06 1.10554e-05 0)
(8.69713e-05 6.50849e-05 9.20645e-22)
(-1.09111e-05 -6.25371e-05 -1.06165e-21)
(3.38561e-05 -0.000120613 6.01062e-22)
(-4.30726e-05 -6.06388e-06 -2.0736e-21)
(1.8617e-05 1.15014e-05 0)
(0.000706749 0.0100295 -7.3476e-22)
(0.0141987 -0.0117867 -1.71493e-21)
(1.05944e-05 6.55112e-06 0)
(0.00108592 0.00180847 0)
(1.01496e-05 8.9579e-05 1.94431e-21)
(0.000344291 0.000128716 0)
(0.000536402 -0.00120628 -9.7004e-22)
(0.00194717 -0.000625997 0)
(0.00262679 0.0010516 -5.70643e-22)
(4.38111e-05 -3.33224e-05 0)
(-0.00337313 -0.00264566 -6.11247e-22)
(2.54748e-05 -2.27243e-06 0)
(-0.006824 -0.00106863 -3.46491e-22)
(7.56659e-06 4.04915e-06 -3.04039e-21)
(-0.000225637 -0.000304397 -1.6349e-21)
(1.02606e-05 -8.32061e-07 0)
(5.82445e-06 3.89759e-06 -2.41911e-21)
(4.28833e-06 1.0867e-05 1.29761e-21)
(0.00262801 -0.00401856 -7.96249e-22)
(7.26469e-05 2.37396e-05 1.76164e-21)
(-4.38631e-06 1.97969e-05 0)
(0.00191112 -0.00457182 0)
(9.62043e-06 2.4707e-06 -8.67949e-22)
(2.01056e-05 -4.05259e-05 0)
(3.62481e-05 2.39045e-05 7.74496e-22)
(1.05715e-06 2.40688e-06 9.02613e-22)
(6.44296e-06 2.35908e-06 8.4545e-22)
(1.09693e-05 9.82567e-06 1.26837e-21)
(4.30855e-06 1.1264e-05 0)
(1.04238e-05 1.09661e-05 0)
(5.09595e-05 0.000764407 -3.12013e-22)
(0.00446503 0.00107397 6.36562e-22)
(2.34584e-06 6.27309e-06 1.97498e-21)
(0.00106451 -0.0051414 5.73608e-22)
(4.25088e-06 5.9682e-06 -9.90497e-22)
(-0.00139652 0.000666358 -1.94001e-21)
(1.34688e-05 -5.55385e-05 0)
(7.94023e-06 -1.48591e-06 9.01432e-22)
(8.1561e-07 2.65873e-06 2.03629e-21)
(0.00769526 0.00465978 -1.47581e-21)
(0.000199149 4.40899e-05 -1.41251e-23)
(9.8709e-06 -1.77105e-07 0)
(0.00184017 0.00228451 0)
(0.00172118 0.00342355 1.28551e-22)
(6.52801e-06 -7.27028e-07 0)
(4.40494e-06 1.11328e-05 8.98994e-22)
(-0.000128278 4.79227e-05 7.01999e-22)
(1.83616e-05 3.03847e-06 -9.67986e-23)
(-0.00731171 -0.000732847 -3.18881e-21)
(1.85564e-05 1.26446e-05 5.00059e-22)
(8.6315e-06 -1.81992e-06 0)
(-0.00183828 -0.00356022 1.10964e-21)
(4.81221e-06 3.45781e-06 1.87077e-22)
(3.97586e-05 0.000375537 4.18188e-22)
(0.000800275 -0.000827221 -2.49172e-22)
(-0.00520773 0.00216199 2.42849e-21)
(-0.00146573 0.00438434 -2.85511e-23)
(-0.00586468 0.00184622 -1.47303e-21)
(4.7374e-05 5.18469e-05 -1.48334e-21)
(0.0100103 -0.00189883 -5.20185e-22)
(1.2616e-07 5.33617e-08 -1.32836e-21)
(3.52581e-05 3.96593e-05 -1.69756e-21)
(7.51103e-06 4.2317e-06 2.46207e-21)
(0.00270923 -0.000868434 -2.20372e-22)
(1.74134e-07 1.89632e-06 -1.37019e-21)
(-0.000193815 9.57046e-05 6.57966e-22)
(-3.07201e-07 3.39452e-06 6.50251e-23)
(0.000703686 -7.85529e-05 0)
(-0.00614723 0.00145238 2.20205e-23)
(0.000403518 -4.43383e-05 -1.35123e-21)
(0.000205375 1.64502e-05 0)
(2.95031e-06 5.86546e-06 4.97308e-22)
(-0.000386466 0.000320366 0)
(1.74185e-05 2.92319e-06 -1.47929e-21)
(0.000713558 -0.000454259 0)
(0.001742 -0.00518943 5.71019e-22)
(1.80177e-06 6.94804e-06 -1.39177e-21)
(-4.63078e-05 -1.38995e-06 3.65305e-22)
(1.10345e-06 8.66173e-06 1.32667e-22)
(0.00219681 -0.00157173 -8.89551e-24)
(2.62973e-06 2.49848e-06 0)
(-0.000230274 -0.000275491 1.5739e-21)
(0.00298688 0.00132868 0)
(2.4903e-06 6.52812e-06 -1.27625e-21)
(0.00138739 5.23154e-05 -1.9538e-21)
(2.96126e-06 5.19358e-06 -1.2001e-21)
(8.92377e-06 7.78539e-06 2.35092e-21)
(9.50199e-06 -1.07382e-08 -5.18595e-23)
(1.28899e-06 6.17536e-06 -1.00756e-21)
(0.000711408 -0.00221844 -1.14851e-21)
(3.48939e-06 -5.50011e-06 -1.93002e-21)
(-0.000222021 2.48645e-05 6.33702e-22)
(-4.80897e-05 0.000254058 1.79235e-21)
(0.000452108 -0.000357885 -1.23763e-21)
(-1.92932e-05 0.000234025 9.29391e-22)
(1.03563e-07 4.05341e-06 -1.32725e-24)
(0.00050643 -0.000315706 -1.21779e-21)
(-0.00116584 0.000768742 -1.8061e-24)
(-9.96829e-05 -0.000687609 1.14112e-21)
(9.92561e-06 -5.228e-06 -6.15778e-22)
(0.000260329 -9.21897e-06 -1.22697e-21)
(2.48217e-05 -1.60813e-05 0)
(-0.000277399 0.00058213 0)
(7.63558e-06 5.22263e-05 -1.35348e-21)
(3.77278e-06 6.79771e-06 0)
(8.47504e-06 -1.77277e-06 0)
(7.90272e-05 -4.04036e-05 -3.20428e-22)
(-0.000362813 0.00026025 0)
(0.000268457 0.000263711 0)
(-0.000256388 0.000467485 1.29329e-21)
(3.32118e-05 3.94918e-05 1.57142e-24)
(7.31503e-05 -2.58846e-05 1.01431e-21)
(0.00187982 0.00246413 -8.96027e-22)
(-0.0102123 0.00601969 1.76776e-23)
(0.000563063 0.000313034 5.31031e-22)
(6.16774e-05 -7.3224e-05 0)
(-0.00967703 -0.00194672 0)
(8.69457e-06 -1.935e-06 -1.43384e-21)
(-2.969e-05 -0.000128656 6.66084e-23)
(-0.000249004 -0.000678428 0)
(2.3755e-07 8.15064e-08 -7.33601e-22)
(-0.00366603 0.00225972 0)
(1.29495e-05 -5.08076e-06 0)
(0.00494874 0.00127412 9.11338e-23)
(-0.000121405 -2.7823e-05 -1.16716e-21)
(0.00316229 0.00128286 -2.85981e-22)
(1.28356e-06 -5.26114e-05 0)
(-0.00168421 0.00410752 -5.26581e-22)
(-2.02814e-05 0.000207024 -2.11889e-21)
(-0.000191137 0.000179943 -2.08406e-21)
(1.72154e-06 2.5823e-06 1.39218e-21)
(8.01736e-07 2.01187e-06 0)
(0.000168781 0.000128122 0)
(6.05029e-06 -2.38725e-06 0)
(0.000316556 0.000202492 0)
(7.36207e-05 7.83208e-05 0)
(0.00345481 -0.00353119 4.0688e-22)
(5.11208e-05 -2.18965e-05 -1.51887e-21)
(0.000149978 0.0011347 0)
(0.000785061 -0.000690604 -7.52795e-22)
(-3.69792e-06 4.41198e-06 7.99956e-22)
(0.00937349 0.00560198 0)
(4.29589e-07 1.10182e-06 -8.72014e-22)
(0.00514345 0.000981896 0)
(1.62096e-06 1.28841e-05 3.16995e-21)
(0.000189221 0.00011876 -7.71674e-22)
(-0.00716445 -0.000386519 -1.3977e-21)
(7.65562e-05 -2.68686e-05 1.19402e-21)
(3.98254e-06 2.07873e-06 0)
(1.27275e-05 9.82528e-06 -1.95546e-21)
(0.000647346 1.29218e-06 8.36797e-22)
(-0.00910852 -0.001356 -9.02982e-23)
(0.00347541 0.00116551 1.44704e-21)
(4.4624e-06 3.26122e-06 1.20583e-21)
(8.71591e-06 7.14201e-06 -1.46615e-21)
(8.50083e-06 -4.847e-06 6.81218e-22)
(-0.000760847 -0.000469016 0)
(6.74304e-06 5.89064e-06 2.93948e-23)
(-7.44422e-06 -3.47611e-05 6.40963e-22)
(-0.000389088 0.000290958 -4.60057e-22)
(1.03875e-05 -4.91829e-07 -1.01882e-21)
(8.44492e-05 7.46249e-05 0)
(4.12949e-05 5.07192e-05 -1.49257e-21)
(0.00292376 -0.000129821 0)
(4.62111e-06 1.30025e-05 0)
(2.73669e-06 6.08553e-06 -5.52777e-22)
(0.000771681 -0.00129192 -2.36541e-21)
(-0.00305034 0.000158688 9.2053e-22)
(-0.000182273 8.47123e-05 6.27644e-22)
(0.0192764 -0.0114983 1.40681e-21)
(3.73169e-06 1.96368e-06 2.50305e-22)
(0.00130055 -0.00257274 1.34479e-21)
(1.04268e-05 1.29351e-07 -8.72713e-22)
(6.10624e-06 5.92134e-06 0)
(5.43212e-06 1.03601e-05 1.64925e-21)
(0.000537831 -0.001387 1.69244e-21)
(1.27368e-05 -1.6432e-05 0)
(1.68397e-06 8.06596e-06 0)
(1.12822e-05 6.53419e-06 0)
(-4.32968e-05 -0.000125792 2.13159e-21)
(-2.08506e-06 0.000407597 0)
(-0.00160562 0.00294837 8.60867e-22)
(-0.00657777 -0.00131791 -3.62268e-22)
(6.39344e-06 2.61505e-06 -1.19155e-21)
(-0.000285117 7.76253e-05 4.74088e-22)
(-0.000184891 0.000196113 2.30135e-21)
(0.00440932 0.00210104 1.03107e-21)
(0.000756022 0.000876345 1.39861e-21)
(6.33394e-07 2.39068e-06 -1.41478e-21)
(4.24065e-06 1.10385e-05 9.17685e-23)
(-0.00420789 0.00168124 0)
(0.000101923 5.90782e-05 -1.10631e-22)
(-2.80313e-06 1.21039e-05 -1.35332e-22)
(0.0049594 -0.00183609 0)
(9.88126e-06 1.12788e-05 2.34365e-24)
(-0.000464572 -0.000332985 1.25538e-21)
(4.03028e-06 -5.48502e-06 7.33888e-22)
(-0.000115511 -3.25171e-05 1.21408e-21)
(4.64864e-06 1.36861e-05 0)
(0.00253093 0.00353229 0)
(6.48016e-06 -2.73687e-06 8.14406e-22)
(0.0042289 -0.00048754 0)
(-0.00047329 -0.000298358 0)
(-0.00408166 -0.00147343 2.61486e-22)
(0.000355487 0.00018039 -4.53414e-22)
(-0.00109408 -0.000557807 9.61754e-22)
(-0.000271472 0.000164726 8.34843e-22)
(3.87398e-06 2.08487e-06 0)
(0.000613282 0.00014601 0)
(2.2979e-05 -0.000118948 -5.46958e-22)
(-0.00345454 0.00323256 0)
(0.00422802 -0.00366358 -1.73218e-22)
(1.84735e-05 1.72501e-06 9.94848e-22)
(7.66447e-07 1.36033e-06 -8.21124e-22)
(5.84194e-06 9.92549e-06 0)
(4.64418e-06 3.33392e-06 0)
(0.000250787 0.000157337 0)
(-4.21175e-05 -1.55495e-05 -1.88439e-21)
(-4.8794e-05 -0.000116676 -2.2075e-21)
(-9.41799e-05 -6.76149e-05 0)
(-0.0078221 -0.00194413 1.10778e-21)
(0.00422704 0.00235207 0)
(4.68098e-05 -3.25115e-05 0)
(-5.02018e-05 7.31281e-05 6.73228e-23)
(0.000650956 0.00079902 -1.87529e-21)
(6.30802e-06 -2.38813e-06 0)
(4.92661e-06 -5.59701e-05 0)
(2.40209e-05 7.46435e-06 6.62248e-22)
(2.41363e-05 -1.81343e-05 0)
(0.00483655 0.00301577 0)
(0.00636813 0.000189259 2.90812e-22)
(-0.000399183 -0.000689018 0)
(-0.000226405 0.000303701 -1.76191e-21)
(4.47443e-05 8.8597e-06 -1.32626e-21)
(0.00151176 0.00207879 0)
(-3.8186e-06 6.21832e-06 8.79047e-22)
(0.000352429 -4.2741e-05 2.83723e-21)
(1.76103e-05 1.49805e-05 -1.35049e-21)
(0.000131966 0.000362472 1.34577e-21)
(1.08777e-06 2.82393e-06 -1.36643e-21)
(-0.00314102 0.00222179 0)
(5.66802e-06 3.87608e-06 1.6631e-21)
(1.24858e-05 -1.51057e-05 -4.39651e-22)
(6.57762e-06 5.14388e-06 4.56103e-22)
(5.87163e-06 3.28652e-06 2.77744e-22)
(-8.78369e-05 -5.6806e-05 8.07045e-22)
(6.15113e-06 -1.73259e-06 0)
(2.4957e-07 1.24914e-06 -1.80089e-21)
(3.13263e-05 5.21576e-05 0)
(8.46864e-06 1.0423e-05 7.81336e-22)
(1.35561e-05 2.59358e-05 1.50891e-21)
(3.5295e-05 1.84291e-05 -7.51893e-24)
(-0.00743841 -0.0020241 -1.06395e-21)
(4.5287e-06 -6.43271e-07 -1.50681e-21)
(-4.80915e-05 -4.78934e-05 -5.39412e-23)
(6.11816e-06 -7.73881e-07 -7.03766e-22)
(-0.000116123 -7.48841e-06 2.02175e-21)
(3.19449e-06 1.01285e-07 1.19281e-21)
(0.00302151 -0.000182707 -2.8841e-22)
(2.21524e-07 3.22769e-06 0)
(5.93674e-06 9.08063e-06 -1.38916e-21)
(7.97758e-07 1.31683e-06 0)
(0.000906026 -0.0053503 -6.89493e-22)
(-0.00571344 -0.00130353 -3.02778e-22)
(8.21089e-06 9.96856e-06 0)
(1.94201e-05 1.15751e-05 7.18118e-22)
(5.66971e-06 9.52688e-06 0)
(0.000511816 -0.00277068 -1.2912e-21)
(9.08477e-06 1.29178e-05 0)
(1.35495e-05 -4.54564e-06 1.50722e-21)
(-0.000549707 0.0004882 -5.71283e-22)
(0.00263782 -0.000843184 1.58774e-22)
(-6.11264e-05 5.8176e-05 -1.37414e-21)
(-0.00478198 -0.000942669 0)
(1.33748e-05 5.80578e-06 1.6759e-22)
(0.00670244 0.0080092 -5.0319e-23)
(0.0214354 -0.00927978 0)
(5.92119e-06 3.63358e-06 -1.27145e-21)
(0.000317245 0.000251718 1.24034e-22)
(-0.000230667 0.00138111 -1.13455e-21)
(1.52239e-05 4.22788e-06 -1.39335e-21)
(2.10461e-05 7.63962e-07 -8.3021e-22)
(-5.22254e-05 6.69219e-05 7.2502e-22)
(5.57721e-05 -7.07742e-05 9.85292e-22)
(4.87993e-06 6.36907e-06 0)
(2.97598e-06 8.66766e-08 0)
(0.000626628 0.0106378 1.83389e-21)
(3.2739e-05 1.66494e-05 -2.42231e-21)
(0.000284912 0.000201894 0)
(0.00781339 0.00154317 0)
(1.11777e-06 1.56716e-06 0)
(0.000734085 -0.000459307 0)
(1.87077e-06 4.64391e-07 0)
(-0.00369806 -0.00171352 5.5311e-22)
(1.89981e-06 8.39875e-06 3.89556e-22)
(4.3409e-06 -1.09901e-06 -8.59708e-22)
(-0.000944467 0.000796304 -8.11814e-22)
(0.00624018 0.00124141 -5.50516e-22)
(0.000323011 -0.000623212 1.15252e-21)
(0.000270483 0.000438323 2.8979e-22)
(-0.000122204 0.0012048 1.57773e-21)
(1.7467e-05 4.22991e-06 -9.35317e-22)
(-9.70884e-06 -9.8073e-05 -9.75593e-22)
(-0.000231914 0.00026681 0)
(6.38604e-06 -1.37895e-06 1.12707e-21)
(3.36724e-06 4.96524e-06 2.0084e-23)
(2.48143e-05 -9.09609e-07 0)
(-0.0076767 -0.00190877 0)
(1.5466e-05 6.84189e-06 -8.776e-22)
(9.69253e-05 -2.30483e-05 0)
(6.40356e-06 -1.01826e-06 0)
(0.00913926 0.00118913 0)
(0.00107695 -0.000229933 4.95633e-22)
(-0.00240646 0.00335705 0)
(0.00473339 0.00198067 4.28656e-22)
(6.15268e-07 1.95835e-06 -2.27079e-21)
(9.4059e-05 5.71705e-05 -3.524e-22)
(-0.00922602 -0.00122989 0)
(0.000277238 0.000419736 1.36909e-21)
(9.00439e-06 1.20783e-05 0)
(5.03582e-06 -2.62837e-05 1.75994e-21)
(1.55221e-06 6.40825e-06 -5.0867e-22)
(3.90815e-06 -6.01785e-07 1.6068e-21)
(1.51349e-05 6.59844e-06 8.41426e-22)
(0.0029704 0.000707567 -1.25628e-23)
(0.000215445 -0.000115771 -1.2987e-21)
(-2.11851e-06 1.39576e-05 -7.72078e-22)
(1.31058e-05 -3.8176e-06 -1.18443e-21)
(4.66398e-06 6.42947e-06 8.13958e-22)
(0.00386875 0.000290297 0)
(7.53235e-06 3.07486e-06 0)
(7.951e-06 -1.57805e-06 -1.10754e-21)
(-0.000214285 0.000159092 8.39625e-22)
(0.00713015 0.000340874 4.87734e-22)
(1.29022e-05 -3.07922e-06 2.01731e-21)
(-8.48184e-06 1.4831e-05 5.05231e-22)
(3.05321e-06 4.94156e-09 -1.08195e-21)
(7.25715e-07 2.19045e-06 -2.14563e-22)
(3.57829e-06 7.16931e-06 8.43732e-22)
(2.39501e-05 5.75941e-06 3.40745e-22)
(3.46127e-06 2.69907e-08 -1.27204e-21)
(6.35659e-06 5.42971e-06 1.04512e-21)
(0.00179883 0.00112611 -5.70473e-22)
(3.46462e-06 6.54519e-06 0)
(5.18986e-05 -2.42869e-05 1.66695e-21)
(6.37092e-06 -1.13286e-06 1.18399e-21)
(0.00294256 0.00390272 0)
(2.99432e-06 5.65284e-06 6.26941e-22)
(5.81021e-06 9.31684e-06 -1.50281e-21)
(-0.000851573 0.00249632 0)
(4.0619e-06 1.18825e-05 0)
(0.000588205 -0.000556393 6.24058e-22)
(0.00115828 3.57425e-05 -7.91835e-22)
(1.61873e-05 2.3545e-05 -1.16118e-21)
(0.00442629 -0.001792 0)
(9.56228e-06 2.6741e-06 0)
(8.48105e-06 -1.56831e-06 0)
(-0.00477837 0.00253754 5.21559e-23)
(-0.00722901 -0.000874641 2.37256e-21)
(-0.00573154 -0.00212338 1.47791e-21)
(-0.00818864 -0.00108235 0)
(2.79935e-07 1.39639e-06 -1.74216e-21)
(-0.000123281 -1.39312e-05 -2.34488e-21)
(5.63839e-07 1.91128e-06 -1.1009e-22)
(2.32254e-06 8.48648e-06 0)
(0.00538373 0.00199073 0)
(-0.00338964 -0.00249005 0)
(-6.82376e-05 -0.000105819 5.08072e-22)
(1.24456e-07 1.73416e-06 1.5843e-21)
(3.70598e-06 1.08548e-06 0)
(4.3199e-06 5.61791e-06 1.46655e-21)
(-3.92057e-05 1.89076e-05 9.35568e-22)
(7.92057e-06 1.25106e-05 1.2569e-21)
(0.00368887 0.000128448 -8.62065e-22)
(8.88545e-06 3.1797e-06 -9.82837e-22)
(0.00443764 0.00118798 5.68877e-22)
(5.09875e-05 -0.000133338 6.7147e-22)
(-4.56409e-05 -0.000372009 -9.99593e-22)
(4.72308e-06 1.35081e-05 1.76091e-21)
(-6.0067e-05 6.45447e-05 6.06242e-22)
(9.95218e-06 1.42589e-05 -1.35649e-21)
(0.00689071 0.000232893 -2.85969e-23)
(7.26513e-07 2.1918e-06 -1.37355e-22)
(6.08496e-06 8.97061e-06 1.40252e-21)
(1.09681e-05 8.00222e-06 7.98308e-22)
(-0.00338992 -0.00286221 3.90078e-23)
(1.84671e-05 1.58029e-05 1.62276e-22)
(-0.000305635 0.000507864 -1.27484e-21)
(-4.32262e-05 -4.0449e-05 0)
(-0.00391533 -0.00135919 1.29327e-21)
(0.000107024 -1.85744e-05 9.22375e-22)
(1.06245e-05 -4.18564e-06 1.55889e-21)
(-0.000819684 0.00298144 2.16803e-22)
(0.00148458 0.000892955 -7.16342e-23)
(7.19977e-05 8.72668e-05 7.89374e-22)
(0.000899025 -0.00103654 1.82026e-21)
(1.13471e-05 7.53551e-06 1.6085e-21)
(-8.05151e-05 -5.1375e-05 2.30753e-22)
(-2.06412e-05 -0.000370091 0)
(9.45866e-05 0.000398631 -1.39211e-21)
(0.00108521 0.0021702 1.51893e-21)
(4.50067e-06 6.02243e-06 1.60388e-21)
(6.26443e-06 -7.52975e-07 0)
(5.72165e-07 4.30502e-07 -1.5883e-21)
(4.32502e-06 -6.61542e-07 6.78638e-22)
(6.20189e-06 9.1432e-06 1.54123e-21)
(0.00120103 -0.000786326 0)
(-1.14656e-05 1.34441e-05 7.21664e-22)
(2.92997e-06 -1.75466e-06 -1.24194e-21)
(4.98727e-06 7.81063e-06 0)
(3.22435e-07 7.84733e-08 1.6593e-21)
(1.74297e-05 -1.06343e-06 -3.79987e-22)
(0.0017474 0.0125251 -2.01667e-21)
(0.000565487 0.000233381 -1.24048e-24)
(-0.00333252 0.0135163 -2.20598e-21)
(4.80213e-05 9.96886e-06 0)
(-0.000115405 1.24721e-05 0)
(0.00659683 0.0061772 9.09636e-22)
(4.02684e-05 1.06386e-05 0)
(-0.0001161 2.55623e-05 0)
(1.02684e-05 9.15933e-06 0)
(1.18528e-05 1.07435e-05 0)
(-0.00348301 -0.00515619 9.96391e-22)
(5.03879e-07 1.4533e-06 -2.98426e-23)
(0.00313845 -0.000810918 0)
(2.2427e-07 6.36382e-08 -1.48888e-21)
(9.89258e-06 9.06988e-06 0)
(1.16668e-05 7.23427e-06 -8.87511e-22)
(-0.00610766 0.0015261 5.20024e-22)
(-0.00453723 0.0125689 5.97777e-22)
(1.8466e-05 6.21541e-05 -1.05428e-21)
(3.54249e-06 6.20413e-06 -8.70467e-23)
(0.00473681 0.0043095 1.98185e-21)
(1.53336e-07 3.78697e-06 -3.47434e-21)
(9.20005e-05 3.963e-06 -3.43136e-23)
(4.03148e-05 8.19395e-06 4.49641e-22)
(1.43489e-06 2.12647e-06 -1.92657e-21)
(5.75134e-06 1.23799e-05 6.57478e-22)
(2.60147e-07 1.83599e-06 0)
(1.29787e-05 -7.27591e-06 -1.30222e-21)
(2.00938e-07 5.27708e-07 1.5584e-21)
(-4.60173e-05 -1.12103e-05 1.54003e-21)
(-9.10612e-05 -0.000425115 2.29115e-24)
(3.76074e-06 6.32545e-07 4.11966e-22)
(3.62312e-06 1.03216e-05 7.37777e-22)
(2.02529e-05 -4.68792e-05 0)
(1.44663e-07 5.61636e-06 2.68082e-21)
(0.000107841 -0.000651051 5.46765e-22)
(-0.00651974 -0.0021305 -2.22517e-21)
(-0.00464892 0.00485757 0)
(-5.2758e-06 -6.04866e-05 -3.86405e-22)
(1.66989e-06 2.29649e-06 3.86091e-22)
(8.18781e-06 -5.48556e-06 7.31514e-22)
(-2.93002e-05 -3.06151e-05 -1.36749e-21)
(-8.43588e-05 -9.18083e-05 0)
(9.14562e-05 -1.82122e-05 0)
(-0.00732249 0.000149435 0)
(4.04642e-06 7.49433e-07 0)
(-0.0018656 0.00145581 1.31049e-21)
(-0.00252646 0.000258838 -9.18143e-22)
(5.76494e-06 1.37125e-05 -1.43914e-21)
(4.18925e-06 -5.92282e-07 1.96296e-21)
(6.85586e-06 7.06779e-06 0)
(0.00122303 0.00204891 -1.80963e-22)
(1.333e-07 2.92388e-06 -1.47501e-21)
(5.7464e-06 1.29738e-05 -3.13914e-23)
(1.35018e-07 2.88509e-06 0)
(4.21409e-06 2.12859e-06 2.39646e-21)
(3.63636e-06 1.00343e-05 -2.03309e-21)
(0.000621229 0.000126395 5.27677e-22)
(6.28354e-06 -9.82092e-07 0)
(-0.000237635 0.000474704 0)
(-0.000172893 -0.00289408 -7.57882e-22)
(5.27049e-07 1.50133e-06 2.75733e-21)
(2.81372e-06 2.16094e-06 2.10566e-22)
(4.91572e-06 6.62358e-06 0)
(0.00239218 0.00395581 -2.34412e-21)
(1.15789e-05 1.10642e-05 0)
(-0.00268367 -0.00648466 -2.73677e-21)
(0.00558895 0.00444586 2.03616e-22)
(6.71138e-07 2.09145e-06 1.1005e-21)
(0.00462923 -0.00196403 1.1894e-21)
(0.00647649 0.00094183 7.17106e-22)
(-0.00012216 5.19867e-06 2.75961e-22)
(2.01212e-06 -9.42841e-06 8.32095e-22)
(8.97074e-06 2.99495e-06 9.09029e-22)
(1.05917e-05 6.70069e-06 -1.22004e-21)
(2.3542e-06 -1.38815e-07 0)
(3.79602e-06 4.66715e-07 4.38985e-22)
(0.00114592 0.00146932 0)
(-0.00446726 -0.00279337 0)
(-0.00021073 0.000177514 8.56571e-22)
(-0.00052639 0.000744346 1.27609e-21)
(-0.000167536 9.16433e-05 -1.34966e-21)
(0.00354277 -0.000912553 3.81073e-22)
(1.76871e-06 5.14938e-06 -1.39732e-21)
(0.00443573 0.00211436 5.62465e-23)
(1.91242e-05 5.57725e-05 0)
(-0.00176461 0.00218909 1.04499e-21)
(2.44797e-06 7.89707e-06 0)
(3.7257e-06 1.5073e-05 0)
(-6.50015e-07 1.88996e-05 0)
(3.34794e-06 5.06728e-06 0)
(-0.000830752 0.00562018 -9.18981e-23)
(-4.564e-06 1.30373e-06 8.98683e-22)
(1.50757e-05 2.82325e-05 -8.63904e-22)
(1.33202e-05 1.13973e-05 -1.3612e-21)
(-0.000837095 0.000688442 -9.70431e-22)
(-0.000342078 0.000520497 1.05589e-22)
(4.71504e-06 1.07075e-05 0)
(-0.000723651 -0.000366474 9.97478e-22)
(-0.00289265 -0.00278655 6.28513e-22)
(-0.000567884 -0.00538951 1.75852e-21)
(-0.000536508 -0.000229843 1.19088e-21)
(0.000175877 -0.000137646 1.16374e-21)
(4.32542e-06 7.17289e-06 0)
(-0.00421224 0.000316268 0)
(4.13741e-06 1.67491e-06 -1.13811e-21)
(-7.39925e-05 0.000207492 6.93081e-22)
(7.9699e-07 1.41625e-06 1.11195e-22)
(2.31439e-06 -5.76578e-08 0)
(3.16715e-05 -0.000149735 -1.03668e-21)
(8.3594e-06 9.80809e-06 -1.70351e-21)
(1.12747e-05 -8.37935e-06 -7.06367e-24)
(0.00194938 -0.00191989 -1.6131e-21)
(-0.00466317 -0.0031113 0)
(1.09797e-06 3.29557e-06 -7.84984e-22)
(1.54651e-05 2.24974e-05 -1.83716e-21)
(6.3e-05 -0.000151037 0)
(1.34006e-05 -3.52399e-06 -2.11471e-21)
(5.29641e-05 -1.58765e-05 3.28826e-24)
(0.000998589 -0.000784139 0)
(5.98036e-06 2.5937e-06 1.32827e-21)
(3.86318e-06 1.23716e-05 0)
(-0.00621798 0.000708603 0)
(1.61458e-06 5.10017e-06 -2.2822e-21)
(2.02252e-07 1.79291e-06 -2.60283e-22)
(-4.38844e-05 -2.08138e-05 1.61259e-21)
(0.000782779 -0.00734248 5.85535e-22)
(6.97496e-08 3.21667e-06 3.25192e-21)
(-0.00157215 -0.00309885 0)
(3.455e-06 2.04781e-08 6.57123e-22)
(6.58689e-06 -1.43853e-06 -2.54168e-21)
(-0.000256832 0.000128087 4.45143e-22)
(3.25259e-06 1.1591e-05 -3.05724e-21)
(0.00182808 0.000861702 0)
(0.014033 -0.00445827 5.87503e-22)
(1.47321e-05 4.94721e-06 0)
(6.10076e-06 4.29871e-06 1.4424e-21)
(4.55905e-07 3.21086e-06 1.7662e-21)
(-3.91406e-05 -2.46743e-05 1.16592e-21)
(7.07232e-06 2.74429e-06 0)
(1.10945e-05 7.49066e-06 0)
(8.8364e-06 3.0417e-06 0)
(0.00449306 -0.00122964 -1.03828e-21)
(6.97603e-06 1.49982e-05 0)
(6.41301e-06 1.54015e-05 0)
(-0.000154202 8.25196e-05 0)
(-0.00344337 0.00255839 -3.2148e-21)
(0.000339699 0.00851407 1.51461e-22)
(9.81758e-06 7.15905e-06 0)
(1.12145e-05 1.0505e-05 -2.06813e-21)
(0.000172605 4.38399e-05 5.28697e-22)
(-0.000104437 0.000357068 6.20556e-22)
(-0.00592638 0.00170003 0)
(-0.000270095 -0.000229312 1.15691e-21)
(5.74591e-05 -0.000213943 -1.4671e-21)
(-2.82352e-06 -1.98534e-05 -6.68874e-22)
(-0.00279525 0.00218563 0)
(-0.00175991 -0.0029951 0)
(0.000753042 0.000163553 -8.1997e-22)
(-0.000103395 -9.20579e-05 0)
(1.29834e-06 1.82756e-06 -1.94714e-21)
(0.000508296 -0.00149309 0)
(7.84658e-06 9.73458e-06 -5.54234e-22)
(1.37522e-07 4.6602e-08 0)
(7.90208e-06 8.46782e-06 -3.10817e-21)
(6.21049e-06 -6.50763e-07 2.76552e-22)
(2.54895e-06 1.8e-07 0)
(-0.00617677 0.000560714 1.1946e-21)
(6.31242e-05 -0.000198286 1.13947e-21)
(5.34056e-08 1.11767e-06 1.52009e-21)
(6.33832e-06 -1.61682e-06 5.60455e-22)
(3.24981e-06 1.57808e-07 -8.10499e-23)
(1.78813e-05 1.24446e-05 1.64319e-21)
(3.948e-06 1.52286e-05 0)
(0.00384827 0.000845511 8.68301e-23)
(9.84354e-06 -4.03902e-07 0)
(-3.59553e-06 -1.8432e-05 -1.34598e-21)
(1.01613e-05 -4.38051e-06 3.1856e-22)
(1.02382e-06 1.30122e-06 1.99444e-22)
(5.64385e-06 6.83434e-06 0)
(0.00601228 0.00120321 -7.92495e-23)
(4.32585e-06 -1.16868e-06 5.06946e-22)
(0.00319851 -0.000455676 -1.85381e-21)
(-6.3746e-05 -0.000115866 0)
(4.05581e-06 1.80266e-06 0)
(3.95135e-07 1.61218e-06 0)
(4.55382e-06 1.19434e-05 0)
(9.86896e-06 6.88996e-06 -1.4595e-21)
(9.61149e-05 -1.67372e-05 -3.17609e-22)
(-0.0110794 0.00410381 1.49867e-21)
(7.76351e-05 -5.04768e-05 1.79335e-21)
(-0.00286935 0.0012316 -9.59372e-22)
(-0.000131804 -0.000187982 0)
(-0.000634576 -7.68493e-05 -1.00227e-21)
(5.41247e-05 8.38441e-06 -1.12836e-21)
(5.76608e-06 5.9088e-06 -9.33265e-22)
(0.00468584 -0.000956872 -3.13605e-22)
(-4.19285e-05 0.000183846 -1.41737e-21)
(-1.04188e-05 -3.47784e-05 -1.48951e-21)
(3.43268e-06 4.8929e-06 -2.0562e-23)
(2.25701e-05 -3.69222e-05 1.50654e-21)
(0.00654468 0.00324363 0)
(-0.00260284 0.00176738 0)
(6.60287e-07 5.00165e-07 1.11673e-22)
(5.95634e-06 1.2956e-05 -1.96947e-21)
(-0.0018256 -0.00282165 -6.5707e-22)
(3.50207e-05 1.94047e-05 1.01096e-22)
(0.00035013 -2.8615e-05 -1.94846e-21)
(-1.82798e-05 -1.58096e-06 -1.46474e-21)
(-0.00285991 0.00181118 1.4979e-21)
(2.56729e-05 -2.00348e-05 -1.35177e-21)
(1.16251e-07 1.49087e-06 1.18895e-21)
(2.26784e-05 -2.23748e-05 -2.37639e-21)
(0.00536628 -0.00152523 -1.07184e-21)
(1.64796e-06 1.3295e-05 -2.23924e-21)
(1.7379e-07 2.74695e-06 -3.28716e-21)
(0.00031877 -4.68437e-05 1.65349e-21)
(-3.03814e-05 5.96229e-05 6.99392e-22)
(1.25305e-06 1.75343e-06 1.57066e-21)
(-4.63513e-05 0.00109035 -2.69733e-21)
(1.97336e-07 2.66544e-06 0)
(3.33629e-07 2.05119e-06 0)
(-2.32791e-05 6.16318e-05 -4.76534e-22)
(0.000633005 0.000503491 0)
(9.4086e-06 1.08367e-05 1.06434e-21)
(-0.00201087 -0.00134836 -1.09996e-22)
(7.44694e-06 -9.72108e-05 0)
(5.89937e-06 6.50475e-06 0)
(9.04388e-06 -5.9587e-06 1.34559e-21)
(-9.8019e-06 -0.000107387 -2.1434e-21)
(3.09535e-06 8.81811e-06 0)
(5.72373e-07 2.0301e-06 0)
(1.31471e-06 5.73142e-06 1.41132e-21)
(6.19115e-06 7.89057e-06 7.39333e-22)
(7.23141e-05 -0.00312627 0)