/*--------------------------------*- C++ -*----------------------------------*\
| =========                 |                                                 |
| \\      /  F ield         | OpenFOAM: The Open Source CFD Toolbox           |
|  \\    /   O peration     | Version:  v2012                                 |
|   \\  /    A nd           | Website:  www.openfoam.com                      |
|    \\/     M anipulation  |                                                 |
\*---------------------------------------------------------------------------*/
FoamFile
{
    version     2.0;
    format      ascii;
    class       volScalarField;
    location    "300";
    object      epsilon;
}
// * * * * * * * * * * * * * * * * * * * * * * * * * * * * * * * * * * * * * //

dimensions      [0 2 -3 0 0 0 0];


internalField   nonuniform List<scalar> 
13917
(
2.32781e-06
2.24518e-06
0.0117568
1.67441e-06
3.34135e-06
0.000244943
0.0109837
0.0125313
0.0212549
3.03286e-06
5.91812e-06
2.26897e-06
1.6652e-06
0.0201449
2.29705e-06
2.25282e-06
2.2785e-06
2.29626e-06
2.24359e-06
3.3883e-06
4.1212e-06
0.0108718
3.29128e-06
0.0119365
2.8676e-06
0.00968296
2.93939e-06
3.84195e-06
0.00170805
3.89722e-06
2.34259e-06
2.14105e-06
2.61141e-06
2.37263e-06
2.89189e-06
0.000304181
3.32751e-06
0.0111966
1.69151e-06
0.0076687
2.49421e-06
4.22872e-06
1.81785e-06
7.55035e-06
2.01223e-06
2.37971e-06
2.27123e-06
2.54086e-06
0.0173044
3.03751e-06
1.88658e-06
2.55509e-06
0.0198433
2.37233e-06
2.28384e-06
1.97584e-06
5.80536e-06
2.56252e-06
1.99617e-06
2.0193e-06
0.0523652
2.23344e-06
0.0304213
3.33614e-06
0.00020003
0.0526396
3.32005e-06
2.94187e-06
6.65468e-06
2.31698e-06
3.38351e-06
0.0203176
0.0171064
2.91046e-06
0.0185932
2.48466e-06
0.0142658
1.95044e-06
0.00859117
3.96242e-06
3.79466e-06
3.35655e-06
0.000168681
0.0117981
0.0802412
1.94667e-06
3.67986e-06
0.0363501
1.88294e-06
1.79428e-06
0.0154871
3.64801e-06
2.19846e-06
2.37948e-06
0.0477049
0.000200801
3.93751e-06
2.4385e-06
4.61763e-06
1.42033e-05
2.36722e-06
2.50202e-06
7.74569e-06
1.89392e-06
2.24338e-06
0.0216419
0.000285649
2.63303e-06
2.26282e-06
2.43112e-06
0.0304073
0.00722519
2.70878e-06
0.0219609
2.45874e-06
0.0191016
2.93823e-06
0.00704609
0.00856874
2.37345e-06
4.16222e-06
6.40676e-06
0.00892644
3.6194e-06
2.81577e-06
2.38999e-06
2.07689e-06
2.82874e-06
1.89178e-06
0.000246802
0.00890326
2.46631e-06
2.01672e-06
4.16715e-06
0.000754486
0.0116297
2.34534e-06
1.50233e-05
3.28361e-06
2.37646e-06
7.40333e-05
2.0512e-06
2.48423e-06
1.1465e-05
2.91972e-06
0.0156547
0.00203074
2.57106e-06
2.03863e-06
2.1606e-06
2.2008e-06
0.0187932
2.83411e-06
2.57751e-06
2.05421e-06
0.142726
2.29937e-06
0.00113505
0.0152315
0.000844996
2.36705e-06
2.92508e-06
3.96086e-06
3.73976e-06
2.67097e-06
4.45302e-06
1.89615e-06
2.30238e-06
2.04616e-06
2.51784e-06
2.53826e-06
0.0271877
2.89168e-06
2.25303e-06
0.0104659
2.78246e-06
0.00915847
0.0106791
0.0137595
2.38969e-06
3.77694e-06
2.36301e-06
2.03494e-06
3.63645e-06
2.35867e-06
0.00968972
2.28394e-05
0.158191
2.07678e-06
4.03951e-06
7.12729e-05
0.0902216
2.11584e-05
3.32956e-06
1.59978e-05
2.87814e-06
2.31949e-06
2.19183e-06
5.28578e-05
0.029082
1.80005e-06
3.06189e-06
2.21355e-06
2.18577e-06
0.0162996
0.00030674
2.91823e-06
2.53498e-06
2.40497e-06
0.0104883
2.50626e-06
0.0112649
0.0165659
4.06194e-06
2.2702e-06
0.000554586
2.25572e-06
0.0225035
2.74428e-06
0.0372449
2.41516e-06
3.42629e-06
2.522e-06
0.0124752
0.0225977
2.25034e-06
0.0121224
2.05214e-06
2.27835e-06
0.000246587
2.85449e-06
2.06581e-06
0.0111822
0.0177142
2.26966e-06
2.14042e-06
0.0165438
0.0809485
3.91653e-06
2.76239e-06
0.00675047
4.56585e-06
4.12548e-06
3.5968e-05
3.36522e-06
2.87347e-06
2.23673e-06
3.91737e-06
2.82621e-06
0.0167366
1.74693e-06
5.08801e-06
2.33947e-05
2.07332e-06
2.58025e-06
2.38525e-06
0.00606556
2.69619e-06
2.36255e-06
2.29096e-06
4.15528e-06
0.0100297
0.0213634
9.07258e-05
2.30913e-06
0.0193539
0.0126451
0.00241833
0.00844283
2.62283e-06
3.84982e-06
2.70176e-06
2.26221e-06
0.0124447
4.03041e-06
1.98966e-06
0.000411754
1.86467e-06
1.87339e-06
0.00956987
3.29049e-06
0.0113939
1.79509e-06
4.10012e-06
2.25724e-06
2.5759e-06
2.93554e-06
4.02803e-05
2.33975e-06
1.83226e-06
6.35364e-05
0.0111308
0.0253759
2.75408e-06
0.0031679
3.64268e-06
1.82151e-06
2.97296e-06
0.00659054
3.37126e-06
3.63758e-06
2.23452e-06
2.04022e-06
2.2097e-06
2.12738e-06
0.0150767
2.69929e-06
3.37685e-06
1.9711e-06
2.60323e-06
0.0301101
0.009688
2.91579e-06
2.60849e-06
0.00824715
2.3414e-06
0.0176097
1.99322e-06
0.0130093
1.67418e-06
0.000150422
1.93175e-06
0.0202815
2.37715e-06
0.000313868
0.000123043
2.25182e-06
4.57589e-06
0.000560438
2.40999e-06
0.00965577
1.62927e-05
0.0116768
2.37942e-06
0.00885174
2.13249e-06
0.0551032
7.48228e-05
1.04329e-05
1.00145e-05
0.0119244
3.85932e-06
2.572e-06
0.033552
2.52977e-06
2.26894e-06
0.0118699
8.48495e-05
2.24427e-06
3.23609e-05
0.000861182
2.49699e-06
0.00922819
8.46114e-05
3.26555e-06
2.55525e-06
3.68092e-06
2.02503e-06
5.45138e-05
0.012339
0.000567943
0.0332172
2.93089e-06
5.82167e-06
0.056024
2.0238e-06
0.0111278
0.0130744
0.0229077
2.22266e-06
7.3154e-05
2.49382e-06
0.0263484
2.03311e-06
0.024977
3.374e-06
1.73349e-06
3.77583e-06
2.34242e-06
4.09775e-06
2.68023e-06
0.200578
0.0501452
0.0234911
2.93704e-06
2.92045e-06
2.79156e-06
0.0877285
0.0103803
2.49319e-06
0.00020567
3.04038e-06
1.84728e-05
1.67768e-06
3.91012e-06
2.15359e-06
0.00726605
2.15868e-06
0.00602046
0.177667
4.82965e-06
0.000210102
2.39686e-06
0.000272874
0.00017976
3.07321e-06
0.000106661
2.55263e-06
2.95175e-06
3.92328e-06
4.09356e-06
2.8821e-06
2.48064e-06
2.05693e-05
4.01892e-06
0.00818737
0.00774398
0.0821623
2.21238e-05
0.00683002
0.0210813
2.01083e-06
2.96657e-06
6.82943e-06
1.69445e-06
2.14611e-06
3.29636e-06
0.014495
0.0105887
0.0075816
2.28253e-06
3.71823e-06
2.38654e-06
1.69774e-06
2.66136e-06
2.21169e-06
0.0001131
2.2583e-06
3.32229e-06
0.0189251
0.00888263
0.00908422
6.75167e-06
0.0691774
0.010171
0.0282791
0.0131405
1.9515e-06
2.32555e-06
2.20947e-06
2.54336e-06
0.000138865
2.28376e-06
1.66152e-06
2.55909e-06
1.99864e-06
0.0127468
3.05638e-06
3.87475e-06
0.235945
0.00146387
0.00758295
4.06077e-06
2.49782e-06
2.26589e-06
2.30884e-06
2.23561e-06
0.00917249
0.000300782
2.32699e-06
0.108797
1.966e-06
3.83003e-06
0.030653
0.00186006
4.59625e-06
8.9025e-05
3.85554e-06
2.57138e-06
6.0624e-06
1.93756e-06
5.96711e-06
0.000198436
1.9832e-06
2.80795e-06
2.05997e-06
0.000388065
1.90764e-06
1.75462e-06
2.28539e-06
1.93307e-06
0.0128073
0.0214582
2.35945e-06
1.87576e-06
0.00977706
0.02216
4.09509e-06
0.00851892
1.78577e-06
1.46299e-05
2.36665e-06
0.0173451
0.000427504
2.15347e-06
2.09539e-06
0.00709673
1.62512e-05
0.0499188
4.14543e-06
0.0162657
0.0122226
0.0100978
1.77061e-06
0.0733393
0.0331374
2.00697e-06
2.53331e-06
2.32055e-06
2.48155e-06
3.94349e-05
1.65463e-06
2.58255e-06
2.82368e-06
2.79719e-06
0.018848
0.000151087
2.00512e-06
1.96357e-05
2.68594e-06
2.39084e-06
3.67019e-06
0.0281036
2.06859e-06
2.02503e-06
2.9387e-06
3.1124e-06
0.0111828
0.093753
3.65383e-06
3.10611e-06
4.72338e-05
1.93911e-06
1.93018e-06
2.51648e-06
2.17175e-06
2.17006e-06
2.75885e-06
0.000171269
2.19214e-05
7.11589e-06
3.31902e-06
0.00030664
3.32331e-06
2.79219e-06
0.0160059
3.13099e-06
2.25819e-06
1.77709e-06
0.000383048
5.03066e-06
2.36747e-06
0.00124531
4.43486e-06
0.240035
3.35739e-06
2.56198e-06
2.02623e-06
3.72883e-06
0.027738
0.000227258
0.0124781
2.26986e-06
2.004e-06
2.08865e-05
0.0136117
0.0453445
2.51456e-06
8.13103e-06
2.26214e-06
2.05948e-06
2.49143e-06
3.60573e-06
8.52058e-06
2.64501e-06
2.2368e-06
2.3092e-05
0.0127382
0.0505021
2.17007e-06
3.67853e-06
0.000315953
2.25903e-06
2.51546e-06
0.0294732
0.0181102
0.0160374
1.69476e-05
1.9178e-06
0.00905971
2.45951e-06
2.39867e-06
2.10375e-06
2.58647e-06
2.56181e-06
3.77138e-06
0.00878398
5.83596e-06
1.88367e-06
0.0274931
1.96136e-06
0.0139859
3.9672e-06
3.62181e-06
0.00364519
0.0189311
0.000492668
1.95296e-06
2.26152e-06
3.12616e-06
1.87718e-06
0.0210965
4.08204e-06
2.05636e-06
4.18547e-06
2.31662e-06
2.34564e-06
0.0121669
3.96323e-06
0.000231717
2.666e-06
5.5815e-06
1.9445e-06
0.210455
3.07699e-06
4.95235e-06
2.01424e-06
2.57312e-06
1.84368e-06
2.06782e-06
1.14285e-05
2.38145e-06
1.69131e-05
0.095585
2.29471e-06
2.52455e-06
5.65886e-06
0.000643997
0.000501045
1.75595e-06
2.3733e-06
2.60877e-06
1.76606e-06
1.98636e-06
0.0331439
3.92049e-06
0.023772
1.77861e-06
5.85512e-06
3.787e-06
0.0177535
5.0768e-06
2.33007e-06
0.0127878
0.0280779
2.41856e-06
1.76663e-06
0.000557315
1.38003e-05
4.01316e-06
3.96921e-06
2.08991e-06
5.03876e-05
1.72918e-06
2.67231e-06
2.31441e-06
1.83296e-06
2.17309e-06
0.011833
1.72917e-06
1.68494e-06
2.88641e-06
0.00961858
4.11565e-06
2.28442e-06
0.0278167
2.2886e-06
0.0167983
2.06402e-06
2.64668e-06
2.85628e-06
2.98302e-06
3.00733e-06
2.56602e-06
2.59166e-06
5.05909e-06
1.78848e-06
0.236317
0.0298227
0.0286098
2.31174e-06
3.80489e-06
3.12897e-06
2.4519e-06
0.0103879
0.0251426
2.29332e-06
2.94405e-06
1.9166e-05
0.000711664
0.000169257
1.5052e-05
2.20772e-06
0.00819503
2.34387e-06
1.84242e-06
5.46602e-06
3.4047e-05
2.28563e-06
0.00357941
2.29157e-06
1.71827e-06
2.70601e-06
2.24582e-06
1.78265e-06
1.76873e-06
2.41938e-06
2.15994e-06
3.02585e-06
2.63888e-06
2.30742e-06
1.83439e-06
2.70435e-06
2.97608e-06
3.10089e-06
4.16208e-06
2.19007e-06
1.70425e-06
2.13728e-06
2.95303e-06
0.0175322
2.23423e-06
0.000137388
2.30379e-06
4.01465e-06
3.34696e-06
2.59642e-06
2.48462e-06
0.0158421
3.95835e-06
0.0135376
1.77777e-06
4.35462e-06
1.87345e-06
4.13461e-06
2.75958e-06
2.14033e-06
0.0329023
4.06243e-06
0.00100125
2.13577e-06
0.058236
3.10872e-06
3.97057e-06
5.70033e-06
1.97276e-06
4.26317e-06
2.25946e-06
2.9369e-06
2.43214e-06
0.00895867
2.2506e-06
3.68345e-06
2.02914e-06
2.74813e-06
1.95475e-06
2.14926e-06
2.39358e-06
0.0121377
2.23191e-06
1.72534e-06
2.46258e-06
0.0144543
1.11201e-05
2.38836e-06
2.26173e-06
0.0112056
0.00040039
0.025015
2.55483e-06
1.72446e-06
2.29543e-06
1.94553e-06
2.00032e-06
2.23672e-06
1.79355e-05
2.37807e-06
0.0094775
2.17493e-06
2.35551e-06
0.0257615
3.06412e-06
1.90315e-06
2.46761e-06
3.25766e-06
2.40901e-06
3.05421e-06
1.97259e-06
0.0174967
0.00655875
3.79277e-06
2.77421e-06
1.75646e-06
3.92557e-06
0.000951962
4.0902e-06
0.000210685
1.76904e-06
2.35624e-06
1.65147e-06
1.81017e-06
5.53096e-05
1.91124e-06
0.00398168
2.23363e-06
4.16194e-06
1.87446e-06
2.77377e-06
2.52001e-06
1.69071e-06
0.0426811
1.76205e-06
1.91064e-06
0.0188336
0.0177333
1.89689e-06
2.43078e-06
2.55182e-06
1.91146e-06
2.07628e-06
2.38364e-06
0.0159569
5.3663e-06
3.44544e-06
2.10664e-06
0.0245964
2.0182e-06
0.0385377
4.11985e-06
2.47487e-06
0.0106029
1.96952e-06
1.95434e-06
0.0373129
0.00835884
2.51697e-06
4.92639e-06
2.74014e-06
1.92834e-06
2.25802e-06
0.0199854
1.6979e-06
1.64364e-06
2.06133e-06
0.00481249
1.70039e-06
1.47557e-05
5.09616e-06
1.77409e-06
2.50927e-06
3.65531e-06
0.0350522
2.80934e-06
1.7541e-06
3.68978e-06
4.10994e-06
3.6494e-06
5.79714e-06
0.00719823
0.0105677
2.37182e-06
0.00010143
0.0300341
2.59648e-06
0.00995154
0.0663304
0.0314931
0.00694688
0.0185941
0.315091
5.23298e-06
2.30477e-06
0.0086219
1.97206e-06
0.0103917
1.77704e-06
2.18128e-06
2.37799e-06
3.61998e-06
1.89782e-06
2.42232e-06
0.00964483
2.17761e-06
3.15776e-06
0.0530547
7.26551e-05
2.7827e-06
2.72524e-06
2.04871e-06
1.94728e-06
0.0307977
2.87042e-06
2.37051e-06
1.70186e-06
0.00741798
0.025249
0.00520417
1.65979e-06
1.6619e-05
4.36993e-06
0.0450821
0.0237703
2.84645e-06
2.3444e-06
1.87735e-06
2.18596e-06
1.64531e-06
2.17379e-06
1.94261e-06
2.1633e-06
2.32973e-06
0.109168
4.49691e-06
1.65373e-06
4.18851e-06
0.0281224
2.35115e-06
2.53946e-06
0.0143501
2.05397e-06
2.4464e-06
2.71469e-06
0.123828
3.65449e-06
2.65927e-06
0.0115521
2.40962e-05
0.000218036
3.62107e-06
0.000304476
2.59274e-06
7.02836e-06
2.52529e-06
2.91259e-06
2.53105e-06
0.00941279
0.0243324
1.8692e-06
1.85932e-06
2.45152e-06
0.000602353
2.19125e-06
1.99302e-06
2.95971e-06
2.25924e-06
6.63191e-06
1.76414e-06
2.58244e-06
7.49885e-05
0.0090075
2.0808e-06
5.1056e-06
2.1644e-06
0.0177405
0.0267902
2.90417e-06
0.028412
2.65864e-06
0.00599032
3.64356e-06
0.00724495
4.00906e-06
1.97813e-06
2.4127e-06
3.62724e-06
0.010112
0.000292809
7.07175e-06
0.0198756
2.51848e-06
1.67709e-05
1.79934e-06
2.23921e-06
0.0118346
2.52456e-06
4.05126e-06
2.1251e-06
1.97411e-06
0.10054
1.97885e-06
3.24986e-06
2.19236e-06
2.38439e-06
2.16445e-06
0.0004197
4.56043e-06
0.035157
2.22557e-06
2.01006e-06
1.82771e-06
0.0127807
1.91602e-06
0.0352194
0.00954266
1.8124e-06
1.74203e-06
0.00627634
0.00021261
2.56416e-06
3.84563e-06
2.06819e-06
1.73473e-06
1.89452e-06
1.95734e-06
2.40298e-06
4.27346e-06
2.18685e-06
1.28852e-05
2.51707e-06
2.56536e-06
1.90175e-06
3.80823e-06
2.56808e-06
2.37433e-06
2.35423e-06
1.83748e-06
1.84811e-06
1.88407e-06
0.017625
3.63462e-06
0.0147754
2.85923e-06
2.21165e-06
2.31951e-06
2.4866e-06
3.42197e-06
3.69366e-06
1.73815e-06
3.36798e-06
1.90254e-06
0.0241734
2.57735e-06
1.8734e-06
0.0113564
1.47729e-05
2.6029e-06
2.2443e-06
0.00785247
2.92971e-06
2.64481e-06
0.0492793
0.0214664
2.39125e-06
6.51161e-06
3.35011e-06
1.83895e-06
0.00947158
2.12922e-06
1.99023e-06
2.54232e-05
1.87309e-06
0.000484448
3.76733e-06
2.00818e-06
2.39435e-06
4.65986e-06
0.00738915
2.57025e-06
2.42212e-06
2.60063e-06
2.27864e-06
3.25209e-06
0.00226729
2.48686e-06
4.14192e-06
0.0130933
3.12364e-06
2.00973e-05
0.010409
0.028409
1.86659e-06
2.55624e-06
2.44344e-06
0.00122278
2.29639e-06
0.00750898
0.027328
2.3736e-06
0.01162
0.014235
2.18125e-06
5.58558e-06
4.29879e-06
0.000179762
0.0101104
4.12126e-06
0.00254387
0.0121436
2.26552e-06
2.27389e-06
0.0125592
3.95412e-06
1.79488e-06
1.89373e-06
0.0593018
2.44307e-06
2.35286e-06
3.08415e-06
3.66672e-06
2.31754e-06
0.0114719
2.20411e-06
0.0161352
1.85121e-06
0.000192467
4.49259e-06
1.85621e-05
2.03662e-06
1.9117e-06
2.24768e-06
0.0111914
2.889e-06
2.36479e-06
2.07939e-06
2.16294e-06
2.13083e-06
2.50554e-06
5.73418e-06
0.00997767
3.03198e-06
4.34533e-06
0.0075109
0.000119351
2.08078e-06
0.00052169
0.00867389
2.02373e-06
2.61673e-06
2.04072e-06
0.0331253
4.06216e-06
2.67664e-06
0.000949472
2.67826e-06
2.7156e-06
1.74229e-06
1.84971e-06
3.87002e-06
2.50203e-06
2.92026e-06
0.227368
0.00835737
2.72102e-06
0.000260922
2.27449e-06
0.0178507
2.2965e-06
1.91487e-06
0.00829827
0.000414564
2.85947e-06
0.0168818
2.13389e-06
4.17643e-06
1.8465e-06
2.21576e-06
2.82082e-06
2.47788e-06
3.03741e-06
2.63433e-06
4.12997e-06
2.75816e-06
2.03611e-06
1.79427e-06
3.88481e-06
4.09591e-06
0.00136274
2.61592e-06
1.79966e-05
1.86127e-06
0.00834212
3.01053e-06
2.37033e-06
3.4172e-06
1.15024e-05
0.0173266
5.08886e-06
2.60577e-06
4.52328e-06
2.37437e-06
2.14292e-06
0.0190056
1.94971e-06
2.5357e-06
2.34746e-06
2.09624e-06
0.0113639
2.63621e-06
2.30416e-06
1.68709e-06
3.06601e-06
2.46032e-06
2.27213e-06
2.2087e-06
2.38004e-06
0.0159823
2.07961e-06
3.73997e-05
0.0155042
2.29569e-06
0.00741515
2.0857e-06
2.21566e-06
2.33583e-06
0.0202396
1.71338e-06
2.40078e-06
1.98018e-06
0.0216951
2.48616e-06
0.125829
2.58826e-06
2.67609e-06
1.99853e-06
1.90731e-06
6.71386e-06
2.50993e-06
4.22676e-06
2.5275e-06
1.81743e-06
2.3649e-06
2.1005e-06
2.42995e-06
0.000102095
0.0104606
1.7011e-06
2.54599e-06
0.00308288
0.00877093
1.89397e-06
8.12284e-05
0.035535
2.07746e-06
0.0450048
2.40533e-06
0.116079
0.0781284
1.73127e-06
4.09277e-06
2.77566e-06
1.75885e-06
2.36199e-06
1.7712e-06
2.39758e-06
2.83987e-06
1.9756e-06
2.49481e-06
0.0149181
2.41146e-06
1.87617e-06
0.0215006
1.9655e-06
0.00852501
1.76332e-06
3.65308e-06
2.45602e-06
0.0184048
0.0261364
2.36173e-06
1.77418e-06
0.00738263
2.39685e-06
0.0459863
3.03535e-06
1.85732e-06
0.0124596
1.82653e-06
3.06688e-06
0.209324
3.12711e-06
2.3896e-06
2.13157e-06
1.89147e-06
2.58838e-06
0.00820254
0.0301185
2.12892e-06
1.88084e-06
2.55569e-06
2.14817e-06
2.65896e-06
0.0135263
2.4241e-06
0.0198514
0.00297424
0.000174738
0.000569319
1.841e-06
4.04683e-06
4.07149e-05
2.38891e-06
3.12645e-06
2.23099e-06
0.0139324
2.38726e-06
3.22963e-06
0.0125001
0.0274943
8.79878e-05
2.38006e-06
2.42547e-06
4.01322e-06
3.12617e-06
0.0264428
2.24729e-06
1.82022e-06
1.77256e-06
1.99381e-06
4.13836e-06
2.50395e-06
2.93261e-06
2.51533e-06
1.8332e-06
0.0121538
3.1399e-06
0.133964
0.00611645
2.32126e-06
2.20156e-06
2.34849e-06
2.25377e-06
0.0189145
2.2564e-06
2.19392e-06
2.17364e-06
4.01093e-06
3.9332e-06
0.00730805
3.16619e-05
2.06861e-06
0.0108994
1.83229e-06
1.93973e-06
3.00092e-06
4.16375e-06
1.73823e-06
6.69271e-06
0.0151751
1.88105e-06
0.00837733
2.22166e-06
1.85346e-06
2.191e-06
0.0186704
2.14724e-06
1.75475e-06
0.0602752
2.1182e-06
1.82127e-05
0.00720694
4.01879e-06
3.24281e-06
2.99364e-06
0.00741842
2.70077e-06
2.91552e-06
0.00875217
2.27016e-06
6.97085e-06
4.19081e-06
0.025806
2.36266e-06
0.000152457
1.69957e-06
5.60389e-06
0.019585
1.89686e-06
0.00869232
2.586e-06
2.60197e-06
3.76508e-06
4.01192e-06
0.0711383
2.28059e-06
3.91743e-06
2.4528e-06
1.09987e-05
2.63708e-06
2.8553e-06
2.43131e-06
0.0123595
2.3777e-06
0.00922044
2.36378e-06
2.30779e-06
2.10669e-06
2.34926e-06
2.70809e-06
2.3065e-06
0.0104442
2.23006e-06
2.23348e-06
0.0223976
1.92728e-06
0.00382675
2.00493e-06
0.00890357
0.00023667
2.23661e-06
2.87319e-06
2.69701e-06
3.32979e-06
1.93248e-06
3.59635e-06
3.64545e-06
2.74831e-06
2.12597e-06
3.26286e-06
0.000442412
1.87535e-06
2.22815e-06
0.00234137
2.74765e-06
0.223467
2.18321e-06
1.76013e-06
0.00495328
0.0138448
7.57664e-05
0.00928354
0.00532235
2.46088e-06
8.99493e-05
0.0393391
0.000178804
3.65357e-06
2.5971e-06
3.77882e-06
0.00864762
0.00823379
0.000652542
1.65901e-06
3.39202e-06
2.07883e-06
0.00719864
0.0888795
1.99095e-06
4.34692e-06
2.19481e-06
3.71327e-06
2.84431e-06
3.61252e-06
3.86224e-06
0.0122991
3.44801e-06
0.00139221
4.0533e-06
1.93834e-06
0.011414
0.0147814
2.46236e-06
1.66199e-06
2.08021e-06
1.89686e-06
2.85879e-06
7.05685e-06
1.74557e-06
2.89587e-06
3.31935e-06
1.90773e-06
2.10037e-06
2.11185e-06
6.24611e-05
2.87085e-06
0.0171513
0.0397576
0.0152516
2.3385e-05
2.39815e-06
0.00016908
1.99531e-06
0.00833716
0.000598642
0.00599029
2.2732e-06
0.0448209
0.00674952
2.25248e-06
3.04865e-06
4.19174e-06
0.0448962
0.0181498
1.75164e-06
2.39586e-06
0.00881329
0.01532
0.00456431
2.10012e-06
2.39646e-06
0.0101812
2.46119e-06
0.0103166
0.147304
0.000449904
0.00482902
2.69976e-06
2.57479e-06
2.5864e-06
2.36641e-06
0.00948706
1.95815e-06
1.79917e-06
2.49855e-06
5.27402e-06
0.0290954
1.90446e-06
0.0113636
0.0598594
0.00846238
0.0140784
3.07402e-06
3.64887e-06
0.0088402
1.97059e-06
1.80074e-06
2.30711e-06
0.0174601
2.03865e-06
0.156282
5.01e-06
2.99134e-06
0.0260058
2.21745e-06
2.14586e-06
0.0476741
3.21107e-05
2.37522e-06
1.77689e-06
0.114466
0.035905
3.68319e-06
0.0162955
0.00345271
0.0915509
0.00461313
3.94775e-06
2.46672e-06
1.99834e-06
0.00919407
2.00454e-06
0.00912139
2.26816e-06
0.00377854
2.60623e-05
2.43617e-06
2.34432e-06
2.38295e-06
2.42999e-06
0.0571603
0.00945364
3.13101e-06
0.0598967
2.00526e-06
2.40295e-06
2.34198e-06
2.67672e-06
6.14538e-06
2.08377e-06
0.0131979
3.44024e-06
2.43557e-06
2.53515e-06
9.89224e-06
0.0155344
2.08483e-06
2.18907e-06
2.27979e-06
2.7348e-06
1.98106e-06
1.87107e-06
0.028212
0.00751844
0.0402282
2.10646e-06
2.53294e-06
2.2971e-06
4.09122e-06
2.49006e-06
2.28089e-06
6.76787e-06
2.28705e-06
0.000168472
1.73109e-06
0.0318839
0.00739665
4.21882e-06
0.0309738
3.853e-06
1.89427e-06
0.0124778
2.29946e-06
0.100786
2.36043e-06
2.36958e-06
2.38376e-06
1.96264e-06
3.03029e-05
2.37969e-06
1.70406e-06
2.4587e-06
0.00620696
0.00752026
4.00982e-06
2.96972e-06
2.0627e-06
2.09854e-06
4.90327e-06
2.51872e-06
3.15854e-06
1.86622e-06
0.0134941
1.76283e-06
0.0122252
2.10342e-06
0.0302043
2.02419e-06
1.92584e-06
0.0987335
0.000145623
1.41324e-05
0.000385974
3.08614e-06
2.06031e-06
2.96282e-06
0.0232694
3.10599e-06
2.50996e-06
9.31458e-06
2.21966e-06
0.150042
0.044977
4.35704e-06
0.0177541
4.96728e-06
0.000314239
1.69127e-06
1.94337e-06
1.87776e-06
0.019605
2.38221e-06
0.0250286
0.00854434
1.76196e-06
2.76246e-06
2.45833e-06
0.00692658
0.0236108
1.88309e-06
3.36053e-06
2.25872e-06
2.1101e-06
2.04432e-06
2.86325e-05
5.93619e-05
3.18874e-06
0.000498692
3.38136e-06
0.018191
2.712e-06
2.19481e-06
2.02138e-06
0.0255425
2.59036e-06
3.34617e-06
0.0108552
2.36024e-06
2.12296e-06
7.08889e-06
2.01716e-05
2.42003e-06
0.011111
2.00391e-06
1.59985e-05
1.85569e-06
2.34634e-06
1.82034e-06
0.0356386
2.48378e-06
8.32306e-06
0.00667206
0.0575693
2.29699e-06
2.89807e-06
1.8086e-06
3.21542e-06
4.11869e-06
0.0624027
1.85757e-06
1.86078e-06
2.00211e-06
3.30273e-06
4.14487e-06
0.0174197
3.16197e-06
3.69588e-06
2.46875e-06
4.46212e-06
2.58719e-06
2.22535e-06
2.52363e-06
1.65848e-05
4.37599e-06
4.05626e-06
5.08727e-05
0.000279474
1.24604e-05
3.42013e-06
2.3799e-06
5.83101e-06
0.0104032
0.000737199
4.21667e-06
0.0069971
0.00868052
4.21383e-06
2.00767e-06
1.9552e-06
0.000472905
4.29618e-06
1.79939e-06
0.00620885
0.0223484
2.33572e-06
2.60364e-06
0.00733301
0.00840754
2.2513e-06
1.95555e-06
0.0131441
0.00633854
0.023364
3.0174e-06
0.0195249
2.65017e-06
5.35054e-06
0.0421979
1.95782e-06
1.97687e-06
2.0406e-06
9.50583e-06
1.98378e-06
0.00824305
0.031869
2.21382e-06
0.0150021
0.000571719
0.043303
2.0871e-06
3.80537e-06
2.5742e-06
2.44541e-06
0.0147295
0.000762914
1.3296e-05
0.00159683
2.30612e-06
2.2973e-06
2.47701e-06
0.043749
0.00893688
2.98414e-06
2.12004e-06
2.46535e-06
1.74304e-06
2.19193e-06
0.0135448
0.0206868
2.3014e-06
2.01686e-06
1.75733e-06
0.0156949
2.33649e-06
2.25592e-06
2.1815e-06
2.3029e-06
0.00130522
0.000916734
5.92881e-05
0.0239114
3.64371e-06
1.62774e-05
2.36903e-06
3.21207e-06
0.0354438
0.0376035
3.18712e-06
4.27868e-06
1.85667e-06
2.36417e-06
2.61085e-06
0.0155117
0.0213778
1.98732e-06
1.65606e-06
3.73681e-06
2.82618e-06
0.0262609
1.82836e-06
0.00771601
3.56837e-06
2.20716e-06
2.12475e-06
2.67461e-06
0.0343781
1.98403e-06
0.000362941
0.105553
2.43629e-06
0.0175017
2.51354e-06
2.65204e-06
0.000138206
0.0218039
0.0414411
2.17481e-06
2.49067e-06
3.78491e-05
1.84179e-06
2.376e-06
2.57405e-06
0.0075101
2.38683e-06
0.00220142
8.91531e-05
2.23706e-06
3.42572e-06
2.04381e-05
1.89868e-06
4.15038e-06
9.27432e-05
1.88102e-06
1.81299e-06
2.06095e-06
2.59001e-06
0.0245803
2.2514e-06
0.000380285
2.40215e-06
2.69394e-06
0.0894868
0.0100922
2.37624e-06
2.52178e-06
1.91174e-06
2.81534e-06
2.19913e-06
1.79513e-06
2.27607e-06
1.92702e-06
1.84819e-05
2.34778e-06
0.00776811
3.95786e-06
5.33759e-05
3.88791e-06
1.84486e-06
0.0159098
1.90493e-06
0.010861
2.38919e-06
0.0350788
0.0025388
0.00562659
0.00416322
1.9754e-05
6.11301e-06
1.80259e-06
0.0132666
6.98037e-06
2.90568e-06
0.0264557
0.0146449
2.39668e-06
1.80895e-06
2.13189e-06
2.12947e-06
1.93252e-06
0.016243
4.22021e-06
1.76946e-06
1.88826e-06
2.37996e-06
3.6101e-06
2.79035e-06
1.82509e-06
0.00818891
2.34599e-06
5.19478e-06
2.0889e-06
2.08761e-06
6.35119e-06
0.000790491
3.43546e-06
2.2715e-06
3.82407e-05
0.0118666
0.171597
1.80751e-06
0.00800812
1.98554e-06
0.0097037
3.10797e-06
2.29418e-06
0.0120259
2.03322e-06
0.0431241
0.0232688
2.51744e-06
0.0267949
2.33654e-06
1.79712e-06
0.0224115
4.58719e-06
2.27482e-06
0.019287
2.10474e-06
3.05033e-06
2.3282e-06
3.05655e-06
2.12401e-06
0.0105597
0.0126541
0.0515472
1.42046e-05
1.99852e-06
2.78329e-06
0.0400582
2.27507e-06
2.45869e-06
3.88532e-06
1.98363e-06
0.000109085
0.127347
0.00964639
0.0102543
2.18112e-06
1.8108e-06
0.0184586
1.85054e-06
2.56062e-06
3.95589e-06
0.209617
2.17788e-06
3.03506e-06
0.00879802
4.24648e-06
3.04923e-06
2.36042e-06
0.207931
2.74374e-06
5.16426e-06
2.08382e-06
0.0138409
0.0270631
3.7958e-06
7.29466e-06
2.77718e-06
4.61474e-05
4.78054e-06
2.09681e-06
2.09977e-06
1.76503e-06
3.52877e-06
2.1614e-06
3.4196e-06
2.81387e-06
2.67086e-06
2.00619e-06
0.0446955
2.09638e-06
2.09392e-06
1.81016e-06
4.16856e-06
0.00943917
2.16198e-06
2.30153e-06
0.014819
1.98007e-06
0.00735167
2.73067e-06
0.0387512
2.01787e-06
0.0194307
2.20474e-06
4.25276e-06
1.72885e-06
2.07258e-06
4.11178e-06
3.698e-06
1.2868e-05
0.0196863
1.10937e-05
0.00978419
2.37323e-06
3.64464e-06
2.69454e-06
0.000307604
2.34986e-06
1.7251e-06
2.77572e-06
2.12365e-06
2.84839e-06
0.000399957
2.24265e-06
0.0103342
0.0102554
1.14932e-05
2.43388e-06
0.00131761
4.64518e-05
2.49921e-06
2.36694e-06
2.62169e-06
0.00950957
2.83901e-06
0.0113673
2.10963e-06
1.86074e-06
0.0239705
5.11862e-06
3.03676e-06
2.79015e-06
0.0169743
2.21852e-06
2.28888e-06
1.93679e-06
2.27927e-06
2.07483e-06
2.33673e-06
6.10873e-06
8.14028e-06
2.97827e-06
1.74157e-05
0.0510107
0.00916063
0.0190479
2.14277e-06
2.6578e-06
9.58576e-06
1.82251e-06
3.25085e-06
0.00784805
0.0100082
1.95172e-06
2.97982e-06
0.00711989
7.25093e-05
1.97524e-06
2.25841e-06
2.36806e-06
0.147921
0.00886713
2.06513e-06
2.236e-06
3.77549e-06
2.35291e-05
4.2139e-06
2.18167e-05
2.46675e-06
2.8318e-06
2.53757e-06
2.17788e-06
2.08784e-05
2.45281e-06
1.9897e-06
2.08685e-06
0.0111801
2.31779e-06
0.0310129
3.35473e-06
0.0117581
2.41915e-06
2.38738e-06
2.25811e-06
2.65937e-06
0.0023051
0.00961451
4.37356e-06
0.0062039
0.130305
2.41557e-06
0.015314
5.3397e-06
2.10256e-06
0.00379273
5.83929e-05
3.82139e-06
4.05739e-06
0.00768511
0.0470198
1.84075e-06
2.58453e-06
0.00785671
2.55489e-06
2.47101e-06
2.02243e-06
2.03592e-06
1.87049e-06
3.16928e-06
1.8492e-05
7.11766e-06
3.16063e-06
1.99291e-06
2.44176e-06
0.00959939
2.16755e-06
2.6001e-06
2.37628e-06
1.64919e-06
2.30764e-06
2.99921e-06
2.28984e-06
1.71638e-05
2.9388e-06
0.0260802
2.96453e-06
0.0831008
0.0094678
3.38075e-06
2.35848e-06
4.27562e-06
0.021171
1.94207e-06
2.09426e-06
2.54186e-06
5.09617e-05
0.000439771
2.0624e-06
0.00991639
2.77767e-06
0.000209163
2.51057e-06
2.47751e-06
1.81507e-06
3.48958e-06
0.0562577
0.01049
0.00189704
2.1152e-06
2.53114e-06
2.5032e-06
0.0866067
0.0163387
1.38307e-05
2.23321e-06
1.84685e-06
0.0197783
1.97341e-06
2.02571e-06
1.33949e-05
3.74228e-06
2.34716e-06
4.76019e-05
3.10098e-06
2.30616e-06
2.08423e-06
0.0269423
1.97706e-06
2.92222e-06
0.0370228
3.05378e-06
2.01584e-06
0.00681574
3.0757e-06
3.36876e-06
6.10111e-06
9.16574e-06
0.174391
2.05738e-06
2.34626e-06
2.54141e-06
0.0149446
2.2495e-06
0.000422747
0.00193314
0.00891945
0.00629836
0.23358
2.42606e-06
0.0198755
0.00157325
3.82509e-06
2.3606e-06
2.96165e-06
2.41688e-06
0.00472672
0.0140525
0.0474555
0.00827227
0.0121919
2.47973e-06
3.51308e-06
3.10536e-06
0.0655213
1.99645e-06
1.77171e-06
2.01764e-06
2.02705e-06
2.32784e-06
3.5658e-06
0.0447392
2.11779e-06
2.03589e-06
2.53146e-06
0.015513
2.03346e-06
0.0362029
0.00714045
0.00186625
3.28183e-06
2.33385e-06
0.0112856
0.000164745
3.49079e-06
6.51752e-05
3.91973e-06
7.16641e-06
3.88676e-05
3.33836e-06
2.15398e-06
0.0100248
2.17318e-06
1.78297e-06
1.26054e-05
0.00645938
2.11322e-06
2.67362e-06
2.49297e-06
0.0095015
2.8973e-06
2.74468e-06
2.06665e-06
2.63859e-06
0.140702
0.0122947
0.000361313
2.14673e-06
0.0221386
0.000114481
1.97789e-06
1.92736e-06
2.02516e-06
0.00460929
1.85838e-06
2.31405e-06
2.76286e-06
2.65268e-06
1.88269e-06
0.0315957
1.7335e-06
0.00784862
1.65288e-06
2.49674e-06
2.05871e-06
0.00752285
3.10174e-06
1.97307e-06
1.88709e-06
3.66647e-06
0.0627921
2.62875e-06
0.00870309
3.0342e-06
2.82365e-06
1.69987e-06
2.68975e-06
0.00723684
0.0348988
1.85368e-06
2.02782e-06
1.40919e-05
1.51287e-05
2.75555e-06
0.0128245
2.34879e-06
9.59885e-05
1.9171e-06
2.06698e-06
0.0108224
1.66983e-06
0.00895331
2.81802e-06
2.06173e-06
3.40715e-06
0.0121321
0.0087453
1.99682e-06
6.36783e-05
1.20087e-05
3.17794e-06
2.02048e-06
2.43519e-06
7.59329e-05
0.0149723
2.88692e-06
1.7283e-06
2.20852e-06
3.03583e-06
2.61106e-06
2.01853e-06
2.96031e-06
7.56962e-06
2.6462e-06
2.26595e-06
0.000620017
2.18946e-06
1.92085e-06
0.00712247
2.62835e-06
3.07134e-06
3.54611e-06
1.95912e-06
0.000306089
2.39068e-06
0.0643518
2.49397e-06
2.40219e-06
3.42814e-06
3.36197e-06
1.98275e-06
0.0363642
2.20024e-06
1.74991e-06
0.00039452
2.38601e-06
9.62919e-06
8.75451e-06
7.38975e-06
2.71282e-06
2.52466e-06
1.93885e-06
2.52815e-06
2.15085e-06
2.14882e-06
0.0107582
0.0491436
0.00732765
4.12289e-06
0.0119853
0.00935869
0.0162134
2.73842e-06
2.38107e-06
2.22097e-06
0.00992162
2.29793e-06
1.93566e-06
0.257619
0.0135009
0.11043
1.47625e-05
6.4914e-06
0.00702185
0.000151277
1.81203e-06
0.0811864
1.14699e-05
2.04411e-06
1.85727e-06
2.22878e-06
0.049247
3.7117e-06
0.0131242
2.10978e-06
0.00451587
2.10493e-06
0.000197994
0.0077553
2.44744e-06
1.95313e-06
0.0214294
0.0097918
2.4927e-06
2.01163e-06
2.30477e-06
2.5284e-06
3.43842e-05
4.09311e-06
0.0041983
0.0158893
2.03914e-06
0.0564138
9.15313e-06
0.00109534
3.06425e-06
3.61544e-06
0.00230411
8.38652e-05
2.51533e-06
2.37538e-06
6.21295e-06
2.80407e-06
0.00795443
0.0118479
0.0388236
0.0170606
2.29792e-06
1.84812e-06
5.52055e-06
0.00788599
0.016398
1.89985e-06
9.40436e-05
9.6543e-06
0.000259685
1.66013e-06
4.06637e-06
0.0045926
0.00102443
0.00224783
0.00856104
0.00632735
2.76131e-06
7.91362e-05
0.0171614
2.54981e-06
4.89618e-06
3.73578e-06
2.0026e-06
6.25758e-06
0.0166104
8.82159e-05
4.06288e-06
0.00678551
4.04806e-06
0.194365
1.68614e-06
1.79207e-06
2.25984e-06
1.67349e-06
2.27774e-06
2.66679e-06
2.64203e-06
2.88892e-06
0.000136267
1.95356e-06
0.0136725
2.34289e-06
1.74026e-06
2.16749e-06
0.0237234
4.313e-06
0.0363515
2.20477e-06
2.36975e-06
0.0372904
1.08293e-05
2.70967e-06
2.83587e-06
0.00129277
0.0143272
2.24423e-05
2.41883e-06
2.40516e-06
2.29452e-06
0.000161112
2.27055e-06
0.015784
0.00549506
7.51593e-05
2.20215e-06
1.42377e-05
0.0305389
2.28109e-06
0.0147948
2.38836e-06
3.66998e-06
2.24083e-06
1.88328e-06
2.36633e-06
0.027121
3.25379e-06
0.0426198
0.000356462
9.94331e-06
9.58972e-06
2.23415e-06
3.0247e-06
1.97153e-06
1.72969e-06
0.174413
0.222101
6.88892e-06
0.00192362
2.37767e-06
2.11629e-06
2.08217e-06
4.01016e-06
0.0605784
1.86746e-06
0.0316442
8.53717e-06
1.64874e-06
0.000192197
0.00461499
0.00750659
0.0292744
1.89422e-06
1.78657e-06
3.44963e-06
1.68241e-06
0.000609843
7.74891e-05
0.0301142
3.56174e-06
1.7808e-06
2.70356e-05
4.08824e-06
2.9314e-05
2.38946e-06
2.50024e-05
3.41484e-05
2.70834e-06
2.58236e-06
2.03031e-06
2.24797e-06
2.52309e-06
4.24845e-05
7.95002e-06
2.78989e-06
2.50969e-06
3.68903e-05
2.3713e-06
0.013133
0.00861209
0.00235222
2.59317e-06
1.3273e-05
2.51044e-06
2.22288e-06