/*--------------------------------*- C++ -*----------------------------------*\
| =========                 |                                                 |
| \\      /  F ield         | OpenFOAM: The Open Source CFD Toolbox           |
|  \\    /   O peration     | Version:  v2012                                 |
|   \\  /    A nd           | Website:  www.openfoam.com                      |
|    \\/     M anipulation  |                                                 |
\*---------------------------------------------------------------------------*/
FoamFile
{
    version     2.0;
    format      ascii;
    class       surfaceScalarField;
    location    "300";
    object      phi_0;
}
// * * * * * * * * * * * * * * * * * * * * * * * * * * * * * * * * * * * * * //

dimensions      [0 3 -1 0 0 0 0];
oriented        oriented;


internalField   nonuniform List<scalar> 
20673
(
-0.167202
0.161444
0.0057573
0.368854
-0.306295
-0.0625583
0.0254578
-0.0629038
0.037446
0.148886
-0.275122
0.126236
-0.361732
-0.116333
0.478065
-0.021435
-0.00255355
0.0239886
0.0457427
-0.0431557
-0.00258705
0.0151499
0.0224896
-0.0376395
0.0265432
-0.0452856
0.0187424
-0.0602859
0.155915
-0.0956293
-0.101115
0.103766
-0.0026511
0.151354
0.00102411
-0.152378
-0.0985792
0.0152753
-0.00167408
-0.0136012
0.20393
-0.0354648
-0.168465
0.243624
-0.241682
-0.00194226
-0.103477
0.298832
-0.195355
0.135942
-0.157618
0.0216761
0.148441
0.00291353
0.33698
0.263246
-0.600225
-0.373522
0.573249
-0.199727
0.0455573
0.00018541
-0.598175
0.334453
0.263722
0.0574954
-0.0423456
-0.308555
-0.0593531
0.367908
-0.0017902
0.0417066
-0.0399164
-0.108976
0.0800741
0.0289016
-0.103362
0.0527076
0.050654
-0.0707536
0.0551328
0.0156208
-0.14154
0.10162
0.0399203
0.155713
-0.165826
0.0101136
0.195482
-0.202987
0.00750434
-0.0997429
0.141486
-0.0417436
0.176924
-0.0495119
-0.127412
-0.387782
0.362719
0.0250623
0.0887621
-0.104595
0.0158328
-0.365219
-0.232956
-0.00952268
-0.0150562
0.0245788
-0.183433
-0.0566386
-0.0281339
0.00116703
0.0269669
-0.579933
0.589875
-0.00994153
0.685293
-0.38694
-0.298353
0.364404
-0.5371
0.172697
-0.0507706
-0.0203499
0.0711205
-0.170463
-0.153827
0.32429
0.0978346
0.0724921
-0.170327
0.142346
-0.0064044
-0.0184368
-0.106714
0.125151
-0.00373405
0.0107088
-0.00697479
-0.680221
0.436483
0.243738
0.0428365
-0.16257
0.119733
-0.284448
0.0330838
0.251364
-0.00665136
0.00291731
0.0563414
0.120583
0.169081
-0.272558
0.208732
-0.220795
0.0120632
-0.111009
0.0098939
0.272162
-0.352749
0.0805869
0.0819628
0.16037
-0.242333
-0.330627
0.160165
-0.0338668
-0.0300731
0.0639398
0.161688
0.207166
0.0152753
-0.165275
0.502254
0.0168373
-0.0382723
-0.0866089
0.0877869
-0.00117796
-0.516037
0.324062
0.264035
-0.362453
-0.0989774
0.0999922
-0.00101477
-0.165018
0.180498
-0.01548
-0.525535
0.163803
-0.0198601
0.0464033
0.00348903
0.013113
-0.0166021
0.142627
-0.451182
-0.00808618
-0.0071295
0.0152157
-0.0221403
0.14563
-0.123489
-0.0125408
-0.00429453
0.0168353
0.071129
0.190111
-0.26124
0.0431721
-0.0431269
-4.51648e-05
-0.612027
0.326863
0.285164
-0.32514
0.600533
-0.275392
-0.257334
0.00862935
0.0260701
-0.0346994
0.0219165
-0.0314392
-0.00738133
-0.00510312
0.0124845
-0.211761
0.28289
0.368192
0.204553
-0.572745
-0.0895069
0.00289797
0.209035
-0.166199
0.515138
-0.150734
-0.00858527
-0.0118187
0.0204039
0.120424
-0.0100402
-0.110383
-0.0499891
0.364266
-0.314277
-0.263447
0.0545705
0.208877
-0.0441316
-0.0453753
0.0263621
-0.0371443
0.0107822
0.0869427
-0.121185
0.0342419
0.125091
-0.00259231
-0.122499
-0.0614198
-0.0399793
0.101399
0.0547302
-0.066917
0.0121868
-0.455146
0.558987
-0.103841
0.124834
0.00853219
-0.133366
0.0206976
-0.0714682
-0.269563
0.0724994
0.197064
-0.482796
0.0885115
0.394285
0.0540939
-0.0451074
-0.00898655
-0.00740256
-0.0645286
0.0719312
0.0894678
-0.107905
0.101101
0.197731
0.157075
-0.150506
-0.00656879
-0.00723544
-0.00475698
0.0119924
-0.00425298
-0.023881
-0.107023
0.130411
-0.0233874
0.052499
0.00159487
-0.276748
0.118198
0.15855
0.00778647
-0.00814325
0.000356785
-0.362769
0.499998
-0.137229
0.0114406
-0.012612
0.00117135
-0.0215866
0.0253128
-0.00372611
-0.0783507
0.167866
-0.0895149
0.497955
0.187338
-0.0934347
-0.00554274
0.00381844
0.018702
-0.0225204
-0.0573213
-0.0460404
-0.608728
0.123167
0.485561
-0.246129
-0.0173181
0.0979938
0.218961
-0.316954
-0.534572
-0.074156
-0.492246
0.586356
-0.0941099
0.0238086
0.020857
-0.0290282
0.00817118
-0.0834933
-0.193255
0.148755
-0.302582
0.208311
-0.581833
-0.11988
0.0590368
0.0608429
0.0134076
0.0440878
-0.0119147
-0.155287
0.0539864
0.000743815
-0.114046
0.438108
0.102787
-0.181137
-0.0963166
0.110346
-0.0140294
0.450233
-0.190401
-0.259832
-0.217796
0.278896
-0.0611
-0.0750544
0.0266231
0.0484313
-0.068429
0.332464
0.0572285
0.00320335
-0.0604318
0.0222289
0.0442678
-0.0664966
0.0183283
-0.302776
0.502846
-0.167025
-0.33582
0.220475
-0.214391
-0.00608366
0.153209
0.00169233
-0.154901
-0.000163788
0.00795025
0.0258097
-0.115027
0.0892174
-0.0778123
-0.0486839
0.126496
0.216931
-0.209725
-0.00720617
0.0146651
-0.0168762
0.00221104
-0.172419
0.00740074
0.0273316
-0.0858671
0.0585355
0.00229539
-0.0148362
-0.0702215
-0.0496582
-0.150588
0.221259
-0.0706711
-0.0887021
-0.00568016
0.0943823
0.243383
0.356655
-0.600038
0.10882
-0.0218773
-0.134039
0.0270158
0.0321596
-0.0935794
-0.20055
-0.0690129
-0.151939
0.150476
0.00146269
0.132556
0.22078
-0.353336
0.0253193
0.0995147
0.153409
-0.140896
-0.0125125
-0.00286218
0.00128076
0.00158142
0.110776
0.0020634
-0.112839
-0.0094904
0.237408
-0.227918
0.0681419
-0.0575438
-0.010598
-0.0484128
-0.066742
0.115155
0.0303344
-0.00947744
0.000271081
0.0111696
0.0714761
-0.0142477
-0.259715
0.401582
-0.141867
0.0111874
0.109236
-0.00807452
0.163787
0.297583
0.15265
-0.0896571
0.457849
0.192846
-0.0912482
-0.101598
0.046349
-0.0481392
-0.0369672
0.124522
-0.0875549
0.0218718
-0.00720672
0.147185
-0.147796
0.000611262
-0.103306
0.0969265
0.00637954
-0.00516681
0.0705245
-0.0653577
0.0133134
-0.0206947
-0.111509
0.0867035
0.0248051
0.624909
-0.279284
-0.345625
-0.0330515
-0.0147156
0.0477671
-0.105063
-0.00391298
0.632246
-0.632246
-0.302788
0.252799
0.0107882
-0.0868717
0.0760835
-0.0923972
0.0845629
0.00783429
0.0255484
0.173233
-0.198781
-0.339909
-0.340312
0.157393
0.000193635
-0.157586
0.149615
0.00359388
0.0142723
-0.0107833
-0.0711651
0.0964202
-0.0252551
-0.280621
-0.10716
-0.0898631
0.362025
0.00957328
0.115518
0.0166367
0.0414022
-0.0580389
-0.288616
0.0708193
0.0509792
-0.0422755
-0.0087037
-0.00919933
-0.00240802
0.0116074
-0.00190698
-0.101399
-0.414207
-0.0685892
-0.0625627
0.0442905
0.0182722
0.145054
-0.00669225
-0.138362
-0.00380766
-0.00367858
0.00748624
-0.491637
0.29059
0.201047
0.0518432
-0.08571
-0.395813
0.136099
0.0028974
0.108634
-0.111532
-0.127945
-0.451988
-0.0172133
-0.00685135
0.0240646
0.0524153
-0.043328
-0.00908731
0.0669481
0.176676
-0.125629
0.028139
0.0974905
0.0396947
0.177236
-0.454768
0.0405615
0.00813668
0.0806254
0.121967
-0.0111906
-0.0110244
0.158209
-0.0676776
0.0219046
0.045773
-0.0108772
0.00167782
-0.590669
0.489096
0.101573
0.19103
0.00445218
-0.0266324
0.0180472
0.00324154
0.00179007
-0.00503161
-0.303234
0.546617
-0.46131
0.44196
0.0193492
-0.0294903
0.00293791
-0.113688
0.0936219
0.020066
0.399589
-0.602082
0.202493
-0.0802356
0.090102
-0.00986644
-0.13803
0.135011
0.00301884
-0.10607
0.0173674
-0.16833
-0.00849584
0.176826
0.582392
-0.225736
0.145252
0.000660294
-0.145913
-0.0139871
0.0142501
-0.00026308
-0.285679
0.385036
-0.0993562
0.0589127
-0.131128
0.0722149
-0.0394597
-0.0112173
0.050677
-0.238937
0.336931
-0.283057
-0.0696926
-0.0216965
-0.105901
0.127598
0.00227111
0.0216012
-0.0238723
0.105104
-0.0792942
0.122251
0.0705951
0.0107402
0.193189
0.241503
0.370689
-0.612192
-0.0152879
0.0191064
0.0048157
0.0556559
-0.0604716
0.0600869
-0.0896379
0.029551
-0.381411
-0.0733574
0.00529796
0.00989625
-0.0151942
-0.0173056
0.0171165
0.000189081
-0.0465201
0.0738517
0.0456231
-0.00245097
-0.124112
0.101971
0.257251
0.472763
-0.661301
0.188538
-0.137715
0.00286252
0.134852
-0.00168276
0.0186539
-0.0169712
0.11376
-0.127695
0.0139349
-0.169956
0.251919
-0.099947
0.0287819
-0.14563
-0.0121842
-0.0926304
-0.453199
0.545829
-0.0868019
0.0800642
0.00673769
0.254917
0.281137
-0.536054
0.0668467
0.00129521
-0.206039
0.231587
-0.0723211
0.47191
0.0799997
0.115341
-0.195341
0.0534051
-0.131217
0.109262
-0.114942
0.0186297
-0.0988653
-0.00826429
0.134336
-0.126072
0.374788
-0.0902017
-0.284586
0.0773252
-0.0908159
0.0134907
-0.0290021
-0.0386755
0.0416217
-0.036806
-0.226562
-0.265075
0.0793834
-0.0203337
-0.0590497
-0.483847
0.0154052
0.468442
0.184967
0.18982
-0.4746
0.111831
0.0682648
-0.046036
-0.0586671
0.519947
-0.46128
-0.100705
0.103603
-0.176485
0.00815471
-0.26477
0.397326
0.00127988
0.156113
-0.243091
0.0249646
0.218127
-0.00845661
0.00230411
0.0061525
0.082301
-0.130714
0.118669
-0.128709
-0.275274
-0.106928
0.382202
0.0673068
-0.350363
-0.00360548
0.00949828
-0.00589279
0.0248775
-0.0195119
-0.00536561
0.28846
0.211538
-0.392226
0.62532
-0.233094
-0.0735198
-0.0132821
-0.290104
-0.0663321
0.356436
-0.00539173
0.0185048
0.101775
-0.377049
-0.0237961
0.00658286
-0.329582
0.254114
0.0754675
0.109451
-0.0208708
-0.0885802
0.212436
-0.140014
-0.0724223
0.0184423
-0.0126429
-0.00579936
0.0614993
-0.212087
-0.00201284
-0.0682087
-0.0553688
0.0120695
0.0432993
0.181697
-0.101697
-0.0571779
-0.0565099
-0.0131727
0.0786366
-0.0654639
0.0532432
-0.280218
0.226975
-0.00748454
-0.0193548
0.0268393
-0.0547054
0.021654
0.000319723
-0.0176253
-0.190912
0.172324
0.0185872
-0.0254075
0.000152134
0.0252553
-0.160697
-0.0539248
0.214621
0.00679637
-0.0196225
0.0128261
-0.0462599
-0.00910886
0.070208
-0.0964589
0.0262509
0.0975696
-0.0273616
0.0479995
-0.0225417
-0.563514
0.336438
0.227076
0.141795
0.0116136
0.00999174
-0.0172272
-0.180551
0.29504
-0.114489
0.22491
-0.0045302
-0.22038
-0.0203427
0.0186687
-0.067157
0.0779452
-0.215468
-0.049371
0.264839
-0.0780544
0.0728876
-0.0391556
-0.031598
-0.601038
0.324806
0.276233
-0.0252307
0.00364409
-0.107072
0.0295932
0.0774786
-0.266382
0.521299
0.507764
-0.359384
-0.14838
0.109953
-0.593801
0.235718
0.267128
-0.0130568
0.090382
-0.0508157
0.068574
-0.0177583
-0.0408933
0.0235581
0.0173351
-0.0135526
0.00994715
-0.373795
-0.00378942
0.377584
-0.0545869
0.1135
-0.0104216
0.0102535
0.000168108
0.123745
-0.161936
0.0381912
0.00782346
-0.0236853
0.0220025
0.0073079
0.210899
-0.479209
0.26831
0.091624
-0.0315371
0.321573
-0.4947
0.173127
-0.0257333
0.0775765
-0.1424
-0.188228
0.0168003
0.00164194
-0.0270358
-0.110994
0.17854
0.0879249
-0.266465
0.460896
-0.572412
0.111516
0.136356
-0.126782
-0.0865425
0.0977299
0.119965
-0.123094
0.00312883
-0.0152681
-0.0390025
0.0542707
0.014208
-0.0074116
-0.00522407
0.0014164
0.010664
0.134588
0.0562991
-0.116585
0.0173358
-0.478645
0.00901023
-0.00576868
-0.0329752
-0.00965601
0.0426312
-0.0285873
0.288405
-0.259817
0.0843806
-0.0863934
-0.305311
0.501552
-0.196241
0.0350081
0.0700994
-0.105108
-0.0975273
-0.232054
-0.31925
-0.244264
-0.292136
0.1083
0.183836
-0.0344062
-0.00700314
0.0414094
-0.0746632
-0.217473
-0.0291505
0.0314217
-0.00710058
-0.00300677
0.0101073
0.0813127
-0.0830793
0.00176661
0.0286648
-0.0472739
0.0186091
-0.216117
0.26936
-0.0362847
-0.0262779
0.0407343
0.588933
-0.244558
-0.344376
-0.0745596
-0.297377
0.116826
0.21427
-0.339936
0.125667
-0.0695066
-0.0720336
-0.365222
0.606725
-0.393046
0.461937
-0.0688915
0.388705
-0.0671327
0.0842876
-0.0973444
-0.328378
-0.283649
-0.0234574
-0.00195006
0.000309781
0.0430708
-0.0433805
0.0058742
0.00194261
-0.00781681
-0.0738469
-0.0376617
-0.0077539
-0.0230991
0.030853
-0.00523604
-0.00301713
0.00825317
0.1621
-0.0383552
-0.473235
0.09944
0.104449
0.0127741
-0.117223
-0.264485
0.0810522
0.203274
-0.194722
-0.00855199
0.227267
0.397643
0.0206604
0.0476466
-0.03101
-0.055505
0.0558148
-0.191625
0.208265
-0.0166394
0.104515
0.0248959
-0.129411
-0.167615
-0.0232961
-0.258452
0.201813
0.0057265
0.114239
0.192078
-0.24181
0.0497318
-0.076727
0.0854538
-0.00872683
-0.175887
0.276988
-0.438085
0.379418
0.0155782
-0.0209699
0.0261348
0.00419962
0.0315675
-0.00543273
0.0499934
0.0836785
-0.133672
0.00988951
-0.00401532
0.0251699
-0.0326544
-0.00640259
0.0185964
-0.0121938
-0.0162158
-0.00118948
0.0174053
0.147519
0.365387
-0.512905
-0.127634
0.00254324
0.125091
0.225125
-0.0330462
0.347017
-0.264977
-0.0820403
-0.104281
0.027736
0.0765455
0.00463129
0.484583
-0.538587
0.054004
0.0101325
-0.131563
0.12143
-0.00636002
-0.145169
0.151529
-0.0203144
0.0134319
0.00688246
0.343944
0.244989
0.114652
-0.00556187
-0.10909
-0.00118146
-0.0152582
0.0164396
0.0989315
-0.0086001
-0.0903314
0.00105121
-0.0232229
0.0221717
0.244871
-0.251091
0.222504
0.521765
0.110481
-0.151728
-0.0206908
0.508256
-0.297357
-0.0419733
-0.00803546
0.0500088
-0.0346555
-0.00623773
-0.158116
0.149851
-0.00647787
0.0131314
-0.00665355
0.0214419
0.18729
0.0982007
0.0106192
-0.0222286
0.015826
-0.0117813
0.056049
-0.00762061
0.0889333
-0.00773407
-0.0885825
0.101663
0.0129885
0.120584
-0.142454
0.02187
0.0819545
0.0299989
-0.111953
-0.167269
0.175857
-0.00858756
0.0936524
-0.106702
0.01305
0.0254667
-0.138087
-0.0110248
0.149112
0.102763
0.0015942
-0.104357
-0.530245
0.543906
-0.0136616
0.0983864
-0.02678
-0.0716064
0.211745
-0.0151034
-0.196641
-0.429961
0.303106
0.126855
-0.158557
0.00682912
-0.262266
0.1822
0.0800665
-0.00371278
-0.0166016
0.0215722
0.0309268
0.0888762
-0.37898
-0.516099
0.423468
-0.0450515
-0.00727867
0.0523301
-0.00675679
0.00152075
0.59391
-0.223222
-0.0214209
0.0224721
-0.310567
0.230968
0.079599
0.122432
-0.0884688
-0.0339636
0.00884767
0.323124
-0.331972
-0.0138151
0.00841629
0.00539884
0.0636684
-0.0916918
0.0280234
0.0397551
0.18072
0.30389
-0.190873
-0.113017
0.0305361
-0.03829
-0.113264
0.0762972
-0.010574
0.00989515
0.000678882
0.241259
-0.606481
-0.00188711
0.0126923
-0.0108052
-0.00818553
0.0957593
-0.0178404
-0.0779189
-0.352609
-0.0773516
0.00369883
-0.00880195
0.0508276
-0.02129
-0.0295376
-0.125023
0.162822
-0.0377995
0.12547
0.382295
-0.218647
0.264862
-0.0462143
-0.137383
-0.059757
0.0947651
-0.0438406
0.528423
-0.517656
0.158272
0.649835
-0.438748
-0.211087
0.407699
0.242136
-0.00522873
0.0105267
-0.0432582
-0.0610233
0.0370768
-0.0951134
0.114522
-0.0194087
0.572483
-0.0997197
-0.0483037
-0.406843
-0.00938154
0.113896
-0.0415356
0.0203958
0.0211398
0.148358
-0.163839
0.0154813
-0.113654
0.334434
0.452399
-0.238129
-0.287309
-0.0908054
0.378115
0.0222394
-0.0106527
0.0239661
0.396828
0.165506
-0.562334
-0.26624
-0.142709
0.408949
0.014897
-0.0198052
-0.147464
0.10448
0.107956
0.0446471
-0.295738
-0.146271
0.260133
-0.113862
0.179732
-0.219929
0.0401976
-0.00207667
0.10484
0.0640621
-0.0772347
0.0294086
0.0941629
0.0102857
-0.142837
0.0567288
0.0861083
0.0163133
0.0801069
0.00229423
0.116374
0.452848
-0.293358
-0.15949
-0.011918
-0.00206906
-0.453273
0.249811
-0.0249001
0.250456
0.00466749
-0.255123
0.0705299
0.0278565
0.0797682
0.0255592
-0.105327
-0.0143968
0.399288
-0.384891
-0.0093383
0.10827
0.102933
-0.133969
0.0310364
-0.00526211
-0.00360286
0.00886497
-0.0773278
-0.0655093
0.00152079
0.0968036
-0.0983244
0.137428
-0.143788
0.322889
0.138006
0.0689998
-0.0273781
0.100113
-0.0386305
0.0329987
0.00563179
0.168005
-0.343892
-0.152876
0.183086
-0.0302106
0.104372
0.01015
-0.00552448
-0.0181608
-0.00816072
0.00816072
0.113666
-0.116258
-0.0584701
0.108464
-0.0342435
-0.207438
0.198276
-0.224861
0.0265849
-0.211235
0.255882
-0.0746994
-0.0186611
0.0933605
-0.0543568
0.0273393
0.14196
0.00309357
0.0145267
-0.0300264
-0.00860402
-0.00326307
-0.00731096
0.0234906
-0.219276
0.195785
-0.00602609
0.104227
0.0873603
-0.0236919
0.0821695
0.0956215
-0.177791
-0.292567
0.0880222
0.204545
-0.0324944
0.00317818
0.0293163
0.0710192
-0.0498455
-0.0211738
-0.0625751
0.0509893
0.0115857
-0.0420776
-0.0604083
0.102486
-0.538454
0.0462078
-0.0210559
-0.00417482
0.00824663
-0.466996
0.452599
0.180986
-0.18093
-5.59297e-05
-0.00997559
-0.108001
0.117976
-0.127754
0.0280111
-0.0186891
0.120309
0.0470918
-0.00982464
-0.0372671
0.105399
-0.0234446
-0.0230144
0.190873
-0.167859
0.0344501
0.0345497
0.262445
-0.196936
-0.0655088
-0.0173959
0.00118003
0.27168
-0.574913
-0.0118355
0.408664
0.0681789
0.0112045
0.0546532
0.016366
0.0345592
-0.00769424
-0.026865
0.0955507
0.166894
0.256028
-0.265519
-0.448779
0.182539
0.00188249
-0.147512
0.00262266
0.115992
-0.083832
0.218093
-0.0198176
0.100806
-0.108427
0.129663
-0.261138
0.269986
-0.0604776
-0.0651519
0.113434
0.00255803
-0.0781229
0.0738777
0.00424515
-0.0467423
0.359255
-0.312513
-0.0801139
-0.0232923
0.103406
-0.0721548
-0.0230505
0.01595
0.0375438
0.118371
0.112188
-0.0324195
-0.185595
0.0327195
-0.258694
0.536575
-0.277881
0.290857
0.0858463
-0.376703
-0.089831
0.308792
-0.0871863
-0.0153264
0.102513
0.157463
-0.059628
-0.0550089
0.0982007
-0.0431918
-0.0418677
0.0265996
-0.137009
-0.0149298
-0.222387
-0.378651
0.0267893
-0.0855025
0.0587132
0.0242217
0.0103375
-0.0985385
0.0850479
0.0134906
0.0583575
-0.344037
-0.183271
0.150406
0.0328656
-0.120164
-0.397492
-0.156478
-0.0433921
0.199871
-0.0506864
0.211056
0.00991844
0.0409092
-0.287374
0.614237
-0.0642582
0.18534
-0.000709032
-0.184631
0.085488
0.0182784
0.145848
-0.0644255
-0.0814225
-0.0105432
-0.00531087
0.015854
-0.0270998
-0.0878788
0.114979
0.0464894
-0.265137
-0.016107
0.0200109
-0.00390392
-0.00568944
-0.00247128
0.35376
-0.266502
-0.0872579
0.219021
0.0314346
0.0995933
-0.0754318
-0.0241615
0.0771219
-0.1192
0.112767
0.000992382
-0.347921
-0.242519
0.590439
0.0353738
0.268516
-0.107894
0.0870236
0.240901
-0.0623612
-0.108442
-0.0146522
-0.145984
0.124287
0.386845
-0.0959877
-0.143829
0.146363
-0.00253334
-0.0409992
0.39868
-0.175759
-0.222921
-0.263533
-0.0328015
0.296334
0.672437
-0.392889
-0.279548
0.0167491
0.00812837
-0.41374
0.622051
-0.201516
0.00989106
-0.00196
-0.000902184
0.00710048
0.203388
-0.210488
0.0620627
-0.00740953
-0.0240723
-0.185653
0.0686491
0.0728374
0.233689
0.126987
-0.0101451
-0.116842
-0.0983876
-0.376213
0.136451
-0.00849426
-0.127956
0.325029
-0.585524
0.260496
0.116377
-0.0999852
-0.016392
-0.217756
-0.092811
-0.0434461
0.0422647
0.0535887
-0.0485251
-0.00506364
-0.0170643
-0.0244713
-0.560138
-0.0721081
-0.235974
0.123002
-0.120707
-0.147744
0.158886
-0.0111418
0.00420249
-0.0203284
0.0161259
0.0407331
-0.0351438
-0.00558924
-0.130837
-0.0267804
-0.33278
-0.0130882
0.345868
0.100144
-0.0158567
-0.0282714
0.0205771
-0.0849361
0.00681329
0.0516254
-0.106634
0.13842
-0.00016392
-0.138257
-0.0396659
-0.00411286
0.0437788
-0.164654
0.147193
0.0174604
0.161089
-0.173273
0.000928289
0.0888742
-0.0898025
-0.0794283
-0.0074434
-0.144086
0.0132489
-0.00184392
0.0211434
-0.0192995
0.143114
-0.147904
0.00479062
-0.278985
0.0813466
0.197638
0.0940116
-0.103987
0.0678506
0.113846
-0.403826
0.316385
0.0874408
-0.183712
0.027234
0.0104492
0.146626
-0.166417
-0.0479744
-0.382296
-0.0406158
0.422912
0.180257
0.143081
-0.0125388
-0.130542
-0.0627603
0.240361
-0.1776
-0.133253
0.0248112
0.00959239
-0.342372
-0.226668
0.463203
-0.236535
0.135212
-0.548952
0.214626
-0.160666
-0.0539591
0.223292
0.222993
-0.446285
0.029722
0.182949
-0.212671
0.625494
-0.283338
-0.342156
-0.0128991
-0.00091604
-0.148391
0.143878
0.00451372
0.0419461
-0.0398811
0.237304
-0.516002
0.278698
-0.354456
-0.205185
0.559641
-0.0378954
0.0891608
-0.0512653
0.146826
-0.0262419
0.252174
-0.195914
-0.0562599
0.0503489
0.0233403
-0.0736892
0.137704
-0.0460103
-0.0916942
-0.0875225
0.0617892
0.00162723
0.0928536
-0.11868
0.0258264
-0.0881624
0.258698
-0.170536
-0.633956
0.0245163
0.60944
0.598201
-0.190501
-0.255589
0.0124972
0.00182872
-0.00230085
0.000472128
-0.60335
0.248894
-0.0878351
0.0170696
0.0707655
-0.124261
0.153983
-0.00255137
-0.00787027
0.108927
-0.140234
0.0313072
0.108115
0.0295892
-0.00822064
0.0937086
-0.439531
0.102338
0.337193
0.280809
0.316206
4.91262e-05
-0.43057
0.275762
0.154807
-0.30137
0.0827496
0.218621
-0.0566544
-0.0248495
0.081504
0.250431
-0.0130225
0.0981025
0.448624
-0.546726
-0.00576559
0.173824
-0.168058
-0.058264
-0.417655
0.475919
0.324027
-0.473902
0.149875
-0.163232
0.0143017
-0.012752
0.0169545
0.167146
-0.174197
0.00705174
0.250404
0.148276
0.464205
0.12567
0.0211
-0.0266245
0.0103833
0.331368
-0.100122
-0.231245
-0.110341
0.278345
0.0780734
-0.0277245
-0.081683
0.0948136
-0.0131305
0.0033304
0.000801606
-0.00413201
-0.116411
0.117932
-0.0508886
-0.228096
-0.234663
-0.356006
0.50499
-0.180963
0.006124
-0.144211
-0.00933885
0.0166144
-0.0863809
0.0697664
0.0508567
0.121468
-0.0303512
0.0109964
-0.284811
0.0855931
0.199218
0.0361667
-0.218248
0.182081
-0.00274922
0.00278037
-3.11425e-05
0.145281
-0.450592
0.00223237
0.209512
0.274972
-0.357133
0.082161
0.335735
0.259931
-0.595666
0.000432946
-0.150939
0.0898185
0.0194438
0.20412
-0.274523
0.0704026
0.0590443
0.00301839
0.00146892
0.0235502
-0.0250191
0.0354646
0.226286
-0.30987
-0.118993
0.428863
-0.0936071
-0.00748573
0.101093
-0.0715217
-0.325383
0.566642
-0.0790192
0.094803
-0.0157838
-0.436707
0.126836
-0.155377
-0.278536
0.364001
-0.085465
0.436653
-0.154104
-0.282549
-0.103015
-0.241096
-0.101606
0.342702
0.0254232
-0.0860567
0.139708
0.0429553
-0.182664
0.393142
-0.586432
0.19329
0.373775
-0.504027
0.130252
-0.0168883
-0.267582
0.284471
0.0290828
-0.319726
0.290644
-0.337492
0.0739593
-0.0340259
0.0469313
-0.0129055
0.287928
0.0514951
-0.339423
-0.109329
0.399491
-0.290162
0.0394001
-0.0093869
-0.0300132
-0.0401528
0.0433562
-0.151031
0.128017
-0.155818
-0.000380145
-0.116422
0.116802
-0.0501573
-0.164321
0.214478
0.470744
-0.162191
-0.308554
0.12742
-0.0549283
0.0123852
0.113373
0.00300413
0.272881
-0.482396
0.209515
-0.300844
0.10997
-0.00264427
0.0433773
-0.0505255
-0.0809578
0.131483
0.00606027
-0.0171741
0.0111138
0.528354
0.168681
0.00207321
-0.0215851
-0.178722
0.152348
0.026374
-0.27498
0.0632185
0.00512475
-0.00529047
0.000165721
-0.020205
0.0106752
0.00952988
0.352851
-0.323768
0.0972236
-0.0962953
0.491272
0.106928
-0.337379
0.0962832
0.428678
-0.191374
-0.00486197
0.0147582
0.471708
-0.248415
-0.327839
0.280343
-0.0512811
-0.271121
0.0721239
0.198997
0.0377831
0.0846493
-0.0955465
0.0484425
0.303297
0.0742046
-0.377502
0.100338
-0.126513
0.0261744
0.372565
0.166607
-0.539172
-0.00749236
0.504462
-0.482315
-0.022147
0.346285
0.360712
0.219411
-0.580123
0.00331933
0.458815
0.0252852
-0.0218447
0.0274014
-0.00555667
0.0150882
-0.0601899
0.0451017
0.000262033
-0.183533
-0.0383433
-0.0687285
0.00285922
-0.00404511
0.00118589
-0.28183
0.349136
0.000560378
-0.0216163
-0.0519707
0.0218976
0.00504451
-0.00218529
0.00184251
0.025705
-0.0275475
0.00799348
0.0314066
-0.0266848
0.0214227
-0.0678592
0.0946486
0.180589
0.0842724
0.00396481
-0.150822
-0.0279007
0.00651012
-0.0394853
-0.411359
0.0587498
0.0895987
0.274667
0.278066
0.0533018
0.538071
0.161306
-0.22713
0.0658236
0.123851
-0.149054
0.0252028
-0.0138646
0.0203536
-0.00648895
0.370519
-0.28092
0.425781
-0.186242
-0.239539
-0.00320872
0.0106025
-0.00739383
0.0148007
-0.0835229
0.0687222
-0.270512
0.253624
0.0242369
0.0202247
-0.172053
0.151828
-0.0716911
-0.205085
0.276776
0.0270857
0.026503
0.0915642
-0.0673273
0.163825
-0.213356
0.0495306
-0.166064
-0.105057
0.0237248
-0.0222559
-0.00241799
-0.000331234
0.00343739
-0.0160494
-0.36244
0.0839039
-0.0794194
-0.033845
-0.0120174
0.11495
0.000309489
0.00128742
-0.00159691
-0.0459722
-0.122935
0.121632
0.00130365
0.256792
0.168509
-0.256671
-0.0746058
-0.210205
-0.508233
-0.114447
0.0683545
0.511383
-0.363864
0.1694
0.010332
-0.0650004
-0.0996531
0.0150986
-0.0100184
-0.00508022
-0.126115
0.0308252
0.0952897
-0.0957205
-0.232119
0.11775
0.0189185
-0.014293
-0.00462555
0.161877
0.328805
-0.246938
-0.0818664
0.0124157
0.000659507
-0.0130752
-0.359631
0.0948616
-0.305395
0.00402448
0.0763507
-0.111324
0.0349729
0.0160046
-0.0224824
0.482596
0.299809
-0.346551
-0.0384227
0.0480707
-0.00964805
-0.100786
0.0624427
-0.0235604
0.0874403
-0.0638799
-0.131399
0.034139
0.0972601
-0.0405418
-0.0640531
-0.487201
0.17433
0.312872
-0.0959274
0.0944524
0.00147501
0.174185
0.15462
0.0118134
0.357227
-0.36904
-0.0800809
-0.212487
-0.0561773
0.0142039
-0.00148606
0.00481646
-0.36793
0.08944
0.27849
0.499694
-0.12592
-0.0719737
0.346946
0.0179102
0.0644581
-0.177686
-0.00632647
0.184013
-0.2333
-0.197269
-0.301917
0.0864493
-0.00176452
0.363026
-0.0597285
-0.00600291
-0.0722629
-0.0221072
0.09437
-0.0265384
-0.0060141
0.0325525
-0.32538
0.0864424
0.121157
-0.0317503
-0.0894066
0.18415
-0.16066
0.0150614
-0.00664508
0.0173995
0.00151904
-0.00877847
0.00402149
-0.116864
0.116484
-0.00559223
-0.0146128
0.464029
0.00499368
-0.0393999
-0.466459
0.479711
-0.0730534
-0.147742
0.167558
-0.156937
-0.0106211
-0.0746702
-0.0521741
0.00712263
0.0503915
0.0259475
-0.076339
0.0946486
0.0128794
-0.107528
-0.0168329
0.0622702
-0.0454373
-0.285647
-0.273671
0.559319
-0.0570558
0.0955258
-0.03847
0.106026
0.330627
-0.0875622
0.155413
0.0440037
-0.035949
-0.00805474
0.231384
0.115633
0.174856
-0.641316
0.21872
-0.265198
0.0464785
0.101537
-0.254167
0.152631
0.0132639
0.0018347
0.467087
-0.102562
-0.364526
0.513029
-0.178576
0.00578547
-0.0239364
0.129911
-0.105975
0.142654
-0.143104
0.000450843
-0.0279601
-0.000311205
-0.102433
-0.00409227
0.106525
0.00324244
0.000538856
-0.0037813
-0.00507593
-0.129855
0.110716
-0.161242
0.00211185
-0.0172965
-0.170837
0.0167205
0.0612346
-0.077955
-7.19511e-05
0.0417786
0.201871
-0.00546913
-0.196401
-0.305607
-0.0584726
0.36408
0.00165164
0.0308268
-0.0324784
-0.0345447
-0.248447
0.266775
-0.138768
0.0354047
0.103363
0.152264
-0.0039058
-0.342738
0.116374
0.226364
-0.0275472
0.188853
-0.141852
0.243388
0.155644
0.286114
0.310901
0.132664
0.00575635
-0.0267611
0.0533842
-0.369231
0.134504
-0.123283
-0.0112207
0.109424
0.208071
-0.317495
0.10898
-0.0976783
-0.0113016
-0.252156
0.577185
0.159128
0.00112592
-0.12876
-0.229377
0.166616
0.318589
-0.0816117
-0.236977
-0.29563
-0.0722999
0.0432862
-0.0411027
-0.00218347
-0.0843855
-0.0347258
0.119111
-0.0244751
0.0645189
-0.0400438
0.265018
0.196919
-0.323712
0.265525
0.0581869
0.00607159
-0.272154
-0.0849789
0.0202888
0.109955
-0.130244
-0.124155
0.0397696
-0.233855
-0.108883
0.0260475
0.108964
-0.257447
0.366871
-0.0221742
0.069803
-0.0476288
-0.292157
0.0437103
0.00263358
0.188239
-0.0165165
-0.00382626
-0.0737252
0.0955338
-0.0218086
-0.0924893
0.400111
-0.307622
-0.224838
0.190887
0.033951
0.00324045
-0.0250852
0.354406
-0.342593
0.473825
-0.117852
-0.355973
0.00386114
-0.00355165
0.0129952
-0.0178572
0.0309704
-0.198586
-0.00589846
-0.0887551
0.0946536
0.54421
-0.280965
0.228387
-0.00982826
0.236271
-0.211307
-0.353114
-0.0864166
-0.0884351
0.0185486
0.0698864
0.305437
-0.286157
-0.0192801
0.018065
0.0657991
-0.0838641
0.198496
0.402037
-0.445674
0.09256
-0.296689
0.196567
0.0022423
-0.104675
0.0249532
0.0034074
-0.0283606
-0.222341
-0.0750359
-0.000899279
-0.236242
0.237141
-0.348103
-0.139099
0.19785
-0.18711
0.481802
-0.146068
0.0223777
0.131177
-0.121045
-0.584734
0.259351
0.0164208
0.0521533
0.119591
-0.0905706
0.0335148
0.0302963
-0.00512645
-0.0227297
-0.00976478
0.394065
-0.304625
-0.302952
0.0560136
-0.259075
0.337862
-0.0787876
-0.0113638
-0.17882
0.143355
0.000728053
0.025963
-0.026691
0.00194759
0.00247416
-0.00442175
0.232496
-0.170997
0.00558109
0.00896517
-0.0160947
-0.139366
0.141082
-0.00171546
-0.0956654
0.0897669
-0.11681
0.0897097
-0.00189007
-0.0107719
0.111717
-0.00273679
0.0243436
0.0613293
-0.0856729
0.0287932
-0.0068767
0.130249
0.00696225
-0.137211
0.174021
0.0162981
-0.0269297
0.0796374
-0.397768
-0.013591
0.212762
-0.140262
0.0651499
-0.0484294
-0.129449
0.142472
-0.0130238
0.37232
-0.283443
0.123415
0.00357158
-0.093504
0.113793
-0.00809376
0.0182366
-8.24984e-05
-0.0181541
0.21621
-0.00486095
-0.211349
-0.0668571
0.0500242
0.031417
0.127668
-0.159085
-0.0144249
0.0865693
-0.0721444
-0.048917
-0.049586
0.098503
0.118917
-0.0811336
-0.15815
0.178375
-0.366776
0.206657
0.0525341
0.306089
-0.431096
0.125007
-0.044884
0.208709
-0.503515
-0.0267296
0.18547
-0.368434
0.111698
0.256736
0.00247437
0.11322
-0.115694
-0.0115062
0.105159
0.0126074
0.00606118
-0.0186686
0.0821954
0.0287505
-0.110946
-0.0328085
-0.062738
-0.0479891
-0.00751596
0.0788627
0.260448
-0.362374
0.101926
0.00312171
0.00605261
-0.0483561
0.0423035
0.323656
-0.391145
0.0674896
0.353661
-0.150256
-0.00887855
0.159134
-0.000831405
0.00266013
0.338043
-0.593843
0.255799
0.125186
-0.00741059
-0.117775
0.0823374
-0.00923684
-0.0731005
0.116941
-0.152848
0.0359071
0.37464
-0.269127
-0.105514
-0.284468
0.228856
0.0556124
-0.179309
0.321656
-0.142347
-0.077138
-0.0616301
-0.1498
0.101116
0.232605
-0.000359246
-0.0430869
0.0444829
-0.0339526
-0.0105304
-0.123072
0.123732
-0.0922544
0.0132353
-0.021344
0.151593
0.094477
-0.0924737
-0.00200334
-0.214802
0.221903
-0.201483
0.151326
0.00887625
0.0482485
-0.0571248
-0.0654484
0.0910012
-0.0255527
-0.00096871
-0.00523891
0.0303337
-0.04331
-0.590646
-0.413726
0.308439
0.105288
-0.148075
0.309763
0.346997
-0.0708395
-0.276158
0.118956
0.15994
-0.0626653
-0.0725332
0.135198
0.370718
-0.0760443
-0.294673
0.00326188
0.0958986
-0.0991605
-0.501761
0.443497
-0.163915
-0.2978
0.130536
-0.022421
-0.00198244
0.102788
-0.0654091
0.0897528
-0.355269
0.0734393
0.0394972
-0.174208
-0.239518
0.00975287
0.0492352
-0.0589881
0.274245
0.227306
-0.187307
0.137796
0.45834
-0.185459
0.0151714
0.0763387
-0.09151
0.00451821
0.0636153
-0.103595
0.278229
-0.0727708
-0.053344
0.358441
-0.143285
-0.215156
0.149349
-0.0194025
0.0140916
0.233116
0.101607
-0.334723
0.196537
-0.276617
-0.137547
0.113611
0.169408
0.011578
0.00579526
0.283211
0.120166
-0.178499
0.058333
0.247792
-0.280594
0.119023
-0.501319
0.139782
-0.0159311
-0.0979176
-0.167601
-0.215179
-0.236612
0.45179
-0.165247
-0.0481094
0.00588851
0.00836164
-0.201777
-0.0115205
0.213298
-0.0663863
0.0830007
-0.0461543
-0.000972638
-0.0035933
0.0285465
-0.219546
0.0177687
-0.447645
0.232466
0.0497174
0.129476
-0.179194
-0.00950046
0.000106323
0.00939414
-0.206463
0.287809
-0.137475
0.00802675
-0.00511755
-0.143152
0.148269