/*--------------------------------*- C++ -*----------------------------------*\
| =========                 |                                                 |
| \\      /  F ield         | OpenFOAM: The Open Source CFD Toolbox           |
|  \\    /   O peration     | Version:  v2012                                 |
|   \\  /    A nd           | Website:  www.openfoam.com                      |
|    \\/     M anipulation  |                                                 |
\*---------------------------------------------------------------------------*/
FoamFile
{
    version     2.0;
    format      ascii;
    class       volVectorField;
    location    "300";
    object      U;
}
// * * * * * * * * * * * * * * * * * * * * * * * * * * * * * * * * * * * * * //

dimensions      [0 1 -1 0 0 0 0];


internalField   nonuniform List<vector> 
13917
(
(1.0816 0.0903816 -2.18103e-20)
(1.01721 0.0346361 4.33348e-22)
(0.771288 -0.0292339 -3.54385e-20)
(1.04761 -0.0038879 -1.58999e-21)
(0.996853 0.00269089 -1.20325e-20)
(0.383437 0.0528498 0)
(0.721471 -0.0254276 0)
(0.781059 -0.0295602 0)
(0.71811 -0.0380355 -8.08794e-21)
(1.11931 0.103967 3.18864e-20)
(1.09142 -0.0189951 -1.64721e-21)
(1.07998 -0.0178664 0)
(1.04812 -0.00439494 0)
(0.359926 -0.000613246 -1.16082e-20)
(0.979142 0.080428 -8.54013e-21)
(0.998449 0.0744599 4.41836e-21)
(1.01281 0.0389309 1.83424e-21)
(1.1 0.0181049 0)
(1.07925 -0.0180134 1.23133e-21)
(1.00127 0.00401429 4.04985e-21)
(0.999983 0.000913612 0)
(0.707693 -0.0253495 0)
(1.0008 0.00657935 6.2914e-21)
(0.813089 -0.0314809 -1.18954e-20)
(0.995796 0.0127725 1.19806e-21)
(0.716368 -0.0237727 2.11551e-20)
(0.806852 0.0323227 0)
(0.785079 0.116586 -3.21733e-20)
(0.810359 0.596843 0)
(1.14258 0.0512752 0)
(1.09075 0.0808511 2.27397e-20)
(1.05072 0.070241 6.71298e-21)
(0.85817 0.0636851 0)
(0.923126 0.000865931 1.87261e-20)
(0.992832 0.0102637 -1.40571e-21)
(1.09106 -0.0228744 1.26077e-20)
(1.00073 0.00621021 4.21777e-22)
(0.471193 -0.0163344 0)
(1.05362 -0.00690699 -4.68334e-21)
(0.518826 -0.00420069 1.36552e-21)
(1.00755 0.00076354 0)
(0.999989 0.000391617 -7.38101e-22)
(1.01796 0.00271161 -2.95394e-21)
(0.736074 0.199844 0)
(1.03168 0.0213099 -5.19843e-21)
(0.906615 0.0132595 0)
(1.09846 0.0172237 0)
(1.09898 0.000961821 0)
(0.104274 0.143226 1.38537e-19)
(1.00293 0.000719777 -1.76898e-21)
(1.06637 0.0159107 0)
(0.970772 0.0083069 -4.60013e-21)
(0.0768414 0.111805 -2.54472e-19)
(0.919024 0.00200063 2.14781e-20)
(1.01189 0.0397401 0)
(1.06609 0.0318994 -8.4178e-21)
(1.09162 -0.0187537 -1.59327e-20)
(0.996412 0.0249103 1.00087e-20)
(1.05626 0.0366116 4.95312e-21)
(1.03056 0.0209207 1.95284e-22)
(0.942283 0.00289836 0)
(1.01845 0.0347008 2.71831e-22)
(0.249001 -0.00406722 1.30976e-20)
(1.00135 0.00434374 0)
(0.410802 0.0715686 0)
(1.18102 0.259172 -2.93498e-20)
(0.996182 -0.000526413 -1.34156e-20)
(0.989979 -0.00106881 -1.90401e-20)
(1.10398 -0.014831 -2.80891e-20)
(1.05842 0.106177 -6.11995e-21)
(0.997188 0.00282027 1.10658e-20)
(0.752818 -0.0407404 4.01899e-21)
(0.322436 -0.0183214 -2.43799e-20)
(0.996285 0.0124212 -3.46521e-21)
(0.105444 0.22318 -1.15429e-19)
(1.07933 -0.0237672 -1.70727e-20)
(0.319273 -0.00851799 6.45787e-21)
(1.04335 0.0235432 0)
(0.712902 -0.021645 0)
(0.999923 0.0018337 -6.78558e-21)
(1.00008 0.0027343 -6.0368e-21)
(0.996647 -0.000427093 0)
(0.431085 0.133722 0)
(0.493218 -0.0185131 0)
(0.218017 -0.0296272 -5.97295e-20)
(1.04256 0.0226438 -4.90681e-21)
(1.00032 0.00347312 5.74001e-21)
(1.23619 0.29737 0)
(1.06512 0.0157993 1.56415e-20)
(1.01835 0.00275577 0)
(0.388249 -0.0199293 0)
(1.14032 0.0811999 -5.74314e-20)
(1.01905 0.0199777 0)
(0.978775 0.0453444 -4.86748e-22)
(1.21518 0.303346 7.2518e-20)
(0.409255 -0.010207 -5.89097e-20)
(1.09527 -0.0141001 -1.20077e-20)
(1.09943 0.00563363 -1.80679e-20)
(1.0859 -0.0236492 -2.25947e-20)
(0.638722 0.129849 1.09197e-19)
(1.00952 0.00506923 2.77165e-22)
(0.863982 0.000718597 -4.14585e-20)
(0.724992 0.185455 4.60416e-20)
(1.04908 0.0188085 0)
(1.01373 0.0106566 4.03173e-22)
(0.771047 -0.0410048 3.16387e-22)
(0.884857 0.501962 -6.32152e-21)
(1.10021 0.000335215 4.12428e-20)
(1.01433 0.0393236 0)
(1.09332 0.0915503 1.723e-21)
(0.214829 -0.0298728 3.36454e-20)
(0.52782 -0.00438003 4.29279e-21)
(1.08277 -0.02004 0)
(0.745892 -0.0407636 3.07594e-20)
(0.95601 0.00728109 8.58723e-21)
(0.083929 -0.128718 -6.72885e-20)
(1.0007 0.0117268 -1.11305e-20)
(0.211128 0.102694 -2.40964e-20)
(0.475305 -0.00475167 -4.67673e-21)
(0.920298 0.0131214 -5.35811e-20)
(0.999985 0.000763748 -5.37781e-21)
(1.10443 -0.0142876 4.65216e-20)
(0.458179 -0.00614432 0)
(0.793181 0.109632 2.47749e-20)
(1.00448 0.000661384 7.88028e-22)
(0.979902 0.0430996 0)
(1.02803 0.0239365 -6.36375e-21)
(1.00422 0.000542684 -1.36358e-21)
(1.01556 0.00181212 -1.26151e-21)
(0.385055 0.00902283 0)
(0.531636 -0.0133852 -8.33432e-21)
(0.958117 0.00648975 6.78293e-21)
(1.03195 0.022092 -4.87234e-21)
(0.999984 0.000725131 0)
(1.16529 -0.0128392 -2.55108e-20)
(0.821153 -0.0312837 0)
(1.08038 0.0941158 1.8945e-20)
(0.615113 0.13101 3.70727e-20)
(0.995919 -0.000197879 1.50816e-20)
(0.921094 0.00936161 2.95264e-20)
(1.09713 -0.0220773 -2.70161e-20)
(1.02054 0.0117867 0)
(0.96821 0.0186493 0)
(0.687942 0.199294 0)
(0.989434 -0.000815087 8.72761e-21)
(0.881305 -0.037828 -1.95257e-22)
(0.895141 0.592309 -1.79921e-20)
(0.972422 0.00869764 0)
(1.01952 0.0100391 -2.5868e-21)
(1.04766 0.077753 -1.03873e-20)
(1.08751 -0.00391615 0)
(0.094843 -0.156509 2.19786e-19)
(1.08795 -0.0143944 1.60769e-20)
(1.03393 0.147351 -7.79557e-23)
(1.06108 0.0497854 0)
(0.250475 0.0354433 1.76588e-19)
(1.05422 0.104691 0)
(1.08716 -0.025684 3.78121e-20)
(0.300668 -0.00495209 1.35907e-20)
(1.16626 -0.0121093 -3.75963e-21)
(0.949397 0.0382314 -9.81471e-21)
(0.807339 -0.0246472 -4.12551e-20)
(1.00003 0.00191391 5.81688e-21)
(1.09453 -0.0138711 -1.11328e-20)
(1.08264 -0.0196359 6.69618e-21)
(1.08565 -0.0234106 2.37806e-20)
(1.04837 0.0194185 0)
(1.09268 -1.49967e-05 2.72123e-20)
(1.02643 0.0183718 0)
(0.85763 -0.00322533 2.76066e-20)
(1.0493 0.138553 0)
(0.0443491 -0.0135944 2.73099e-20)
(1.0829 -0.0216351 0)
(1.01118 0.0464449 1.98782e-21)
(0.951341 -0.0349801 5.69791e-21)
(1.02836 0.166851 -5.8126e-21)
(0.548341 -0.0156848 7.05802e-21)
(0.167933 0.104413 -8.1639e-20)
(0.912036 -0.0372901 0)
(1.01042 0.0224404 0)
(1.14274 0.0764344 0)
(1.09445 0.0788722 0)
(1.02098 0.0114454 1.80606e-21)
(1.00031 0.00377925 -4.80373e-21)
(0.94961 0.0994098 1.53483e-20)
(0.748311 -0.0246879 -4.97531e-24)
(1.19647 0.0599645 -9.9932e-20)
(0.372825 0.044321 -1.23999e-19)
(1.08669 0.0327024 -9.97385e-21)
(1.0864 -0.0208805 3.11817e-20)
(1.10199 -0.0222525 -1.90572e-20)
(0.310012 -0.0263666 -5.75992e-20)
(1.2066 0.0888416 -6.49006e-20)
(0.99978 0.00645379 -7.23005e-21)
(0.592633 0.0643766 0)
(0.816867 0.0338792 8.83067e-20)
(1.00717 0.000294043 0)
(1.01921 0.0207974 0)
(0.933015 0.422702 -2.71207e-21)
(1.24611 0.348214 0)
(1.0614 0.0039519 -3.51748e-21)
(1.0027 0.000641226 -2.49661e-21)
(1.08951 -0.000371413 4.30436e-20)
(1.08656 -0.00408885 0)
(0.297618 -0.0145425 -3.96486e-20)
(1.14119 -0.0188104 -2.72984e-20)
(0.993105 0.00954649 0)
(0.99582 0.0258034 -1.12601e-20)
(1.09809 0.00483418 4.12848e-21)
(0.768206 -0.0274551 -8.98724e-21)
(0.970133 0.0189558 8.11114e-21)
(0.714335 -0.0265885 0)
(0.255981 -0.00845372 1.39523e-20)
(1.08641 -0.0206383 -2.05407e-20)
(1.01341 0.0108441 1.72668e-22)
(0.533141 0.433317 1.92604e-19)
(1.09427 0.0056669 2.70069e-20)
(0.134899 -0.0129121 -7.80677e-20)
(1.00247 0.0154053 0)
(1.04725 0.0205824 0)
(1.01011 0.0216409 -9.33907e-22)
(1.13305 0.0391584 3.4071e-20)
(1.00723 0.000931896 0)
(0.463401 -0.018729 0)
(0.76026 -0.0416176 1.573e-20)
(0.999522 0.0772863 -5.61047e-21)
(1.26259 0.378965 9.54574e-20)
(1.06321 0.0488754 0)
(1.01283 0.0104407 -8.3292e-22)
(1.09523 -0.0224313 0)
(1.0823 -0.0218774 0)
(1.08572 0.031201 -5.22471e-21)
(0.820872 -0.0303119 -9.23158e-21)
(0.236474 -0.00590059 6.96508e-21)
(1.01041 0.00274313 5.97267e-22)
(1.05331 0.0708389 0)
(0.414638 -0.022812 0)
(0.0964421 -0.0202385 0)
(1 0.00213666 0)
(1.00515 0.00775646 1.41266e-21)
(0.555284 -0.0021249 5.09545e-21)
(1.09722 -0.0146242 -7.06055e-21)
(1.00004 0.000116859 0)
(1.09474 -0.0218761 -4.3007e-20)
(1.11701 0.00973393 0)
(0.816664 -0.0293576 0)
(1.07794 0.0799169 -3.31739e-20)
(1.00004 0.00207226 -5.76731e-21)
(0.996882 0.176038 0)
(0.269246 -0.00821001 -2.9335e-20)
(1.03462 0.00515143 2.60894e-21)
(1.15777 0.0831519 3.76291e-20)
(0.60137 0.176402 6.48186e-20)
(1.02781 0.02294 -4.71987e-21)
(0.995909 0.023565 -1.11447e-20)
(1.08513 -0.0127075 2.78945e-20)
(0.568161 -0.00684179 0)
(1.08743 -0.0141196 0)
(0.950732 0.103532 0)
(0.982219 0.0824757 1.27292e-20)
(1.00003 0.000202643 1.74229e-22)
(0.440183 -0.003449 0)
(0.92901 -0.037672 0)
(1.09408 -0.0228509 -7.92784e-21)
(1.01243 0.0106174 1.19775e-21)
(0.266372 -0.0176168 -5.27374e-20)
(0.374205 -0.00444544 0)
(1.06509 -0.0272798 -4.11739e-20)
(0.700592 -0.0212099 2.89628e-21)
(1.08011 -0.0241044 -6.84912e-21)
(1.00004 0.00255051 5.79405e-21)
(1.00541 0.000803258 -1.7671e-21)
(1.09764 0.0145869 3.02652e-20)
(0.407053 -0.0147337 1.94217e-20)
(1.10857 -0.00600333 6.27385e-21)
(1.05509 0.0351279 1.93321e-20)
(1.14262 -0.0198342 0)
(1.06931 -0.0179001 0)
(1.01545 0.00124669 2.03291e-21)
(1.12246 -0.0105739 -2.56659e-20)
(1.00161 0.00394176 8.40381e-23)
(0.928112 -0.0353198 7.52993e-22)
(1.06013 0.00407094 3.04021e-21)
(1.00006 0.000119571 -4.44436e-22)
(1.00389 0.0912518 0)
(1.0297 0.149625 -1.09144e-21)
(0.807437 -0.0129634 0)
(1.09571 -0.0220675 3.07895e-20)
(1.00516 0.121406 -3.00312e-21)
(1.03614 0.0102534 4.71242e-21)
(1.16066 -0.00252601 0)
(0.827102 -0.0308016 1.0235e-20)
(0.871309 -0.0408225 0)
(1.00223 0.0149941 -5.19461e-21)
(1.05791 -0.0281191 0)
(0.998653 0.000318103 0)
(1.03624 0.0095553 1.65124e-20)
(1.0008 0.0111737 1.2601e-20)
(0.914257 0.64046 1.95192e-20)
(1.00136 0.000735627 0)
(1.13595 0.0380948 3.79192e-20)
(1.07456 0.080353 2.82434e-20)
(1.02613 0.017601 4.93715e-21)
(1.0895 -0.00146911 -5.40569e-20)
(1.03135 0.0465759 6.14352e-21)
(0.119391 0.0579704 -1.96948e-20)
(1.02656 0.162252 4.78384e-21)
(1.13571 0.0808918 -2.51312e-20)
(1.02514 0.0127635 -7.89083e-21)
(0.996465 0.0227524 1.62221e-20)
(0.184123 -0.0281756 1.88488e-20)
(0.441014 -0.00628744 -1.93537e-20)
(1.00091 0.0122324 -2.45366e-21)
(1.00617 0.000832197 4.4553e-22)
(1.14461 -0.0062833 0)
(1.01309 0.0213063 5.11612e-22)
(0.343931 -0.0205713 4.51838e-20)
(1.02438 0.012664 2.85266e-21)
(0.477405 -0.019061 4.6188e-21)
(1.04052 -0.000371108 -1.33536e-20)
(1.23566 0.224866 4.94611e-20)
(1.07714 0.00945824 -4.38667e-20)
(0.112467 0.301546 2.28747e-19)
(0.952698 0.0379051 1.88179e-20)
(1.17014 -0.00935201 -1.09942e-21)
(0.545216 0.312686 0)
(1.00624 0.0891288 0)
(1.09786 -0.0141907 -3.23568e-20)
(1.04151 0.500556 0)
(0.99697 0.036688 0)
(0.500778 -0.0144783 0)
(0.599884 0.0433344 0)
(0.383549 -0.00547376 -1.61319e-21)
(0.933168 0.0172376 -3.28802e-20)
(0.486642 -0.00454132 0)
(1.05783 0.0689019 1.60604e-20)
(0.305739 -0.0414507 -4.1232e-20)
(0.563586 0.286974 0)
(0.965756 0.322519 5.0362e-21)
(0.979897 0.315222 8.3056e-22)
(0.73897 -0.0293306 2.11546e-20)
(0.999776 0.00227361 4.53385e-21)
(1.05507 0.140175 -1.43793e-20)
(0.254906 -0.0335348 -3.03504e-20)
(0.985646 0.0251259 0)
(1.00315 0.0598568 -6.64628e-21)
(0.390583 -0.00505425 2.06393e-20)
(0.923966 0.45844 0)
(1.01499 0.043777 -5.0132e-22)
(1.09938 -0.0217688 0)
(0.770306 0.564536 0)
(1.00786 0.00440842 0)
(0.458432 -0.0015635 4.5202e-21)
(1.0986 -0.0222011 3.84602e-20)
(1.00172 0.00424662 -3.91353e-21)
(1.00792 0.0110517 0)
(0.998808 0.000197523 3.06933e-22)
(1.01987 0.00975746 3.20074e-21)
(1.15644 -0.00255256 -1.57312e-20)
(0.92988 -0.036294 1.26593e-20)
(0.415281 -0.29901 0)
(0.225289 -0.0319796 -1.61432e-20)
(0.998324 0.012332 5.24918e-23)
(1.16258 0.0807655 -6.65838e-20)
(-0.217467 -0.00104445 -3.44242e-21)
(1.08402 0.00377646 -4.93428e-21)
(0.701311 -0.0259709 0)
(0.431765 -0.017718 1.67872e-20)
(0.735687 -0.041405 -4.84242e-20)
(1.01143 0.00493167 -6.49542e-22)
(1.09436 -0.0228062 -1.45708e-20)
(1.00893 0.0106966 0)
(1.11161 0.0279911 3.57697e-20)
(1.02984 0.021426 5.07749e-21)
(0.0883814 0.343359 -1.23124e-19)
(1.11887 0.0104545 1.27116e-20)
(1.05419 -0.00104095 1.57939e-20)
(0.999653 0.00271018 -2.59028e-21)
(1.09689 0.00559258 -6.35384e-20)
(1.14705 0.0757388 0)
(1.10764 0.00970899 0)
(0.369181 1.10774 1.99676e-20)
(0.241699 -0.040345 -4.40961e-20)
(0.11083 -0.00747835 9.61772e-20)
(1.00259 0.182554 0)
(1.11414 0.102872 -7.94091e-20)
(1.00489 0.00738104 0)
(0.155502 -0.0221583 0)
(0.696733 -0.0241094 2.33367e-20)
(0.999793 0.028102 -5.09385e-21)
(1.16547 -0.00726598 2.95543e-20)
(0.996425 0.00915244 0)
(1.1336 -0.0111392 4.42544e-20)
(1.04047 6.31262e-05 9.58482e-21)
(0.999832 0.00193918 0)
(1.02784 0.049177 0)
(0.720171 -0.021085 1.70638e-20)
(1.02647 0.0494525 0)
(0.584327 -0.00881422 1.51771e-20)
(0.193488 0.0552915 -3.19485e-20)
(1.08937 -0.0191317 -4.50254e-20)
(0.47328 0.293199 0)
(0.998399 0.0363642 3.60219e-21)
(0.536764 0.383962 -1.6175e-19)
(0.50224 0.31987 1.09373e-19)
(1.00177 0.00849683 2.97853e-21)
(0.889796 0.465488 5.99487e-21)
(0.986815 0.0249023 1.5874e-22)
(0.995402 0.0108004 1.3518e-21)
(1.1429 0.0545489 0)
(1.00006 0.000303488 0)
(0.994848 0.0122962 3.7254e-21)
(1.00913 0.0105407 0)
(1.15337 5.72831e-06 1.44461e-20)
(0.999961 0.00146865 -4.71306e-22)
(0.497154 -0.00532678 0)
(0.781287 -0.0240268 0)
(-0.148662 0.000266026 0)
(1.20595 0.0947898 2.25173e-20)
(0.585407 -0.0121935 7.38687e-21)
(0.166938 -0.0120993 0)
(1.08288 0.00349738 8.90788e-21)
(0.99862 0.0117906 0)
(1.13344 0.00442324 -8.78273e-21)
(1.0532 -0.0060596 3.8676e-21)
(1.05742 0.0745964 1.61089e-20)
(0.999783 0.00689858 -8.00187e-21)
(0.893121 -0.0379584 -1.20065e-20)
(0.735473 -0.0267445 9.95162e-21)
(0.811488 -0.0250569 1.33138e-22)
(0.988929 0.0739357 -5.20963e-22)
(1.11771 0.00455194 -1.40202e-20)
(0.936091 0.0146395 5.00614e-20)
(1.05469 -0.00706396 -9.3289e-21)
(1.10636 0.0090978 0)
(1.01671 0.0509304 4.39854e-22)
(1.09313 -0.023394 0)
(1.01517 0.038318 0)
(1.00134 0.000859755 -2.65736e-21)
(0.373212 -0.024265 0)
(0.542667 -0.0147238 0)
(0.557774 -0.0159909 -3.62316e-21)
(1.1649 0.138588 -5.16702e-20)
(-0.215077 0.000277727 0)
(0.523005 -0.0166805 0)
(0.323121 -0.0328131 0)
(0.345419 -0.0077155 0)
(1.01482 0.0018977 2.08096e-21)
(1.09817 0.00959608 -5.25118e-22)
(1.01833 0.0507663 -2.52117e-22)
(0.993901 0.0263246 0)
(1.14195 -0.0168614 -6.45392e-20)
(1.09891 0.0153725 -3.45801e-20)
(1.01783 6.64139e-05 0)
(1.11263 0.0325378 0)
(1.08304 0.00647786 -1.90929e-20)
(0.350004 -0.00916287 -2.24136e-20)
(1.00191 0.00882461 3.5189e-21)
(1.10075 -0.0101058 -4.74838e-20)
(0.350326 0.139293 6.03847e-20)
(1.2739 0.23219 3.22278e-20)
(0.506576 -0.00649518 -1.89684e-20)
(0.99996 0.00128634 -4.10462e-21)
(0.998851 0.0285024 6.96649e-22)
(1.01093 0.000422698 -2.57869e-22)
(1.05052 0.108365 6.62974e-22)
(1.01139 0.0045895 1.57542e-21)
(0.779981 -0.025627 -1.02493e-20)
(0.427586 -0.252858 -5.80475e-20)
(1.00724 0.116604 3.0964e-21)
(0.226885 -0.00937789 0)
(1.06564 0.0302666 1.64354e-20)
(1.09402 -0.0145056 0)
(0.366465 -0.0358428 -2.72367e-20)
(0.917145 0.581753 -1.33373e-20)
(1.08892 -0.0191893 3.80576e-20)
(1.09802 -0.0222716 3.72441e-20)
(1.10039 -0.0107102 4.02349e-20)
(1.11405 0.0430624 4.44337e-20)
(1.12555 -0.00120035 0)
(1.07646 -0.00834958 1.70076e-20)
(1.08847 -0.0208869 -2.48163e-20)
(0.402523 0.113588 0)
(1.07596 -0.0136602 -2.03825e-20)
(1.09937 -0.003526 1.24563e-20)
(1.01342 0.00071311 1.77697e-21)
(1.15699 -0.0139634 0)
(1.06833 0.0178698 1.66132e-20)
(1.02579 0.00441441 -8.55489e-23)
(1.04656 0.106127 0)
(1.04521 0.0223398 -5.42857e-21)
(0.354023 -0.00935356 0)
(0.760304 -0.0404001 0)
(1.01251 0.0204751 -5.87185e-22)
(1.01547 0.00101852 6.88877e-22)
(0.801249 -0.0273693 -1.0078e-20)
(0.146614 -0.00720513 0)
(1.00005 0.00023093 -2.36034e-21)
(0.487633 -0.00478148 1.94274e-20)
(1.04687 0.00748958 -1.43135e-20)
(1.18985 0.0850481 1.68323e-20)
(1.01201 0.0220372 3.84796e-22)
(0.266741 -0.0139058 -1.67723e-20)
(1.11645 -0.0243282 0)
(1.04969 0.0757326 1.2515e-20)
(1.03027 0.0314636 -6.06508e-21)
(0.604719 -0.0139645 -1.91444e-20)
(1.19054 0.0621303 6.95174e-20)
(-0.214255 -0.00846919 0)
(1.00004 0.000273821 0)
(0.26757 -0.00880392 -2.77045e-20)
(0.143365 0.0619881 1.09077e-19)
(1.1391 -0.0053835 1.75003e-21)
(1.02585 0.00482186 -1.04815e-20)
(0.150601 -0.026664 -1.70723e-20)
(0.699845 -0.0463986 0)
(1.0829 0.00149293 3.62495e-20)
(1.00838 0.0111014 -1.47952e-21)
(1.00793 0.0393318 0)
(1.07863 -0.0251351 -2.19163e-20)
(1.13564 -0.0129332 3.54937e-20)
(1.01799 9.7341e-05 -9.90813e-22)
(1.00754 0.0104678 -1.17891e-21)
(1.00426 0.00214081 -1.81067e-21)
(1.00454 0.00223663 0)
(0.244184 -0.0151324 3.22102e-20)
(1.14268 -0.015788 -5.53793e-20)
(1.08252 0.0021809 -3.62418e-20)
(1.19078 0.0525239 -1.21483e-21)
(1.00562 0.000625432 1.72142e-21)
(1.00914 0.0048161 -1.6416e-22)
(1.11589 0.00420229 6.92381e-21)
(0.572741 -0.0403042 4.1789e-21)
(1.0809 0.0400868 0)
(1.02734 0.0185844 0)
(0.995697 0.0111898 0)
(0.993596 -9.43058e-05 -1.76181e-20)
(1.11606 -0.0102674 4.84714e-20)
(0.393215 -0.0237259 1.20084e-19)
(1.00044 0.00328566 0)
(0.993772 0.00242996 -1.10219e-20)
(1.09468 -0.0229653 -7.64985e-21)
(1.0765 -0.0074732 -1.6789e-20)
(1.07667 0.00864806 -7.95022e-21)
(0.998006 0.0272534 -1.05176e-20)
(1.0244 0.0518274 1.66486e-21)
(1.03839 0.0757505 1.79381e-21)
(1.09832 -0.00382033 6.9343e-22)
(1.02605 0.46684 0)
(1.19649 0.0559873 7.62219e-20)
(1.13318 0.00246546 4.16317e-20)
(1.10847 -0.000891874 0)
(1.13987 -0.020008 7.13528e-21)
(1.13389 0.0763153 -3.30335e-20)
(1.00156 0.01452 5.6261e-21)
(0.279133 -0.00976623 2.52434e-20)
(0.993883 -0.000534344 1.09738e-20)
(1.0038 0.0622382 7.76882e-21)
(1.05465 0.00434691 6.1879e-22)
(1.15528 -0.0141117 -1.66468e-20)
(1.02305 0.250524 0)
(1.00858 0.00114305 0)
(1.26748 0.221054 0)
(1.14617 0.0449878 0)
(0.13039 0.164901 -7.92907e-20)
(1.10932 -6.18836e-05 2.87023e-20)
(0.907405 0.122554 -2.54083e-22)
(1.08444 0.00607507 -1.82596e-20)
(0.99954 0.00294276 5.57468e-21)
(0.821767 -0.045578 0)
(1.24576 0.215953 -5.62521e-20)
(0.642321 -0.0261712 0)
(1.01459 0.0365521 0)
(1.07353 0.0336933 3.18276e-20)
(1.19127 0.0491064 0)
(0.44034 -0.0193153 -3.59393e-20)
(0.122289 -0.00631879 -7.60286e-20)
(1.1007 0.00478237 5.9537e-22)
(1.17234 0.137065 -7.64059e-21)
(0.995097 0.0738621 -1.67826e-21)
(1.04557 0.0454543 1.10845e-21)
(0.99709 0.027694 -6.50749e-21)
(0.91792 0.211283 0)
(0.70278 0.18035 0)
(0.977652 -0.00286364 0)
(1.09299 0.00496732 0)
(0.599639 0.15106 -1.60435e-19)
(0.652909 -0.0267697 -6.61828e-21)
(-0.190568 -0.00935286 0)
(1.02733 0.0596747 -1.01111e-21)
(1.09336 -0.0144 -1.49312e-21)
(1.11821 -0.0235498 0)
(1.00835 0.0975637 -1.4244e-21)
(0.973208 0.0206049 -1.60951e-20)
(0.187871 0.580372 0)
(0.898639 -0.0398447 2.83719e-20)
(0.840367 -0.0377316 1.2951e-20)
(1.18262 0.0437206 -8.18721e-20)
(1.01546 0.00201771 0)
(0.464428 -0.00404534 -5.09142e-21)
(1.07861 -0.0241978 2.09126e-20)
(1.0087 0.000875316 0)
(1.07398 0.055983 -6.78989e-21)
(1.09214 -0.00823413 0)
(0.866812 0.0649786 3.17543e-20)
(1.13967 0.0491082 1.59596e-20)
(0.707853 -0.0224595 0)
(1.12385 -0.000980288 1.28451e-20)
(1.07366 -0.00708923 1.83236e-20)
(0.820991 -0.0421305 0)
(1.04675 0.0268661 3.94937e-21)
(0.327608 -0.00555314 -2.93466e-21)
(1 0.00190264 0)
(1.00044 0.00353057 -2.16497e-22)
(1.04526 -0.0291356 -1.72649e-20)
(0.878753 -0.0404833 -1.5609e-20)
(0.40601 0.252846 -1.27697e-19)
(1.04717 0.025839 -4.20532e-21)
(1.01216 0.0448432 -2.07367e-21)
(0.994137 0.00280138 1.54844e-20)
(1.07017 -0.017657 8.5863e-21)
(0.0801971 0.184928 1.36754e-19)
(1.08511 -0.0233217 -2.1319e-20)
(1.04731 0.0456742 1.25633e-21)
(1.08862 -0.0187539 -2.0639e-20)
(1.09561 0.00485129 2.9572e-20)
(1.01189 0.0226337 2.23819e-21)
(1.25269 0.399316 4.17089e-20)
(1.0847 -0.023662 1.57557e-20)
(1.08857 -0.0251513 3.12437e-20)
(1.00391 0.0166238 0)
(1.12123 -0.00233661 -1.00088e-20)
(1.04454 0.0234519 -7.67065e-22)
(0.348686 0.106725 -1.02253e-19)
(1.12262 0.100338 -3.30563e-20)
(1.03163 0.242176 0)
(1.07441 0.0349296 -2.95892e-20)
(1.00663 0.00253567 8.15772e-22)
(1.02381 0.00637326 2.31625e-21)
(1.02901 0.0244093 4.44255e-21)
(1.01096 0.315238 1.00292e-20)
(0.905258 0.0178072 0)
(1.16323 0.0125886 -4.49387e-20)
(0.498754 0.853383 1.18059e-20)
(1.09277 0.00113321 -2.87616e-20)
(1.00746 0.00436042 0)
(1.12718 0.00179295 0)
(0.397949 0.291616 0)
(1.08847 -0.0233407 -3.25824e-20)
(1.03399 0.00549056 0)
(0.913961 0.0292591 1.03573e-20)
(1.00709 0.0103884 -9.22384e-23)
(1.06343 -0.00570771 0)
(1.05799 0.0362696 0)
(0.681886 -0.0456409 -1.05887e-20)
(0.999893 0.00199395 0)
(1.2575 0.370803 -5.49116e-20)
(1.0638 -0.00360087 0)
(1.09099 -0.0192622 6.98829e-21)
(1.14144 0.0906031 -1.54003e-20)
(0.309455 -0.0182035 3.98398e-20)
(1.05214 0.235972 1.60313e-20)
(1.00756 0.0379658 -1.16962e-21)
(0.383727 -0.0138006 -2.09021e-20)
(0.167496 -0.00319893 3.62208e-20)
(1.00545 0.0292456 0)
(1.05397 0.00371941 2.26184e-21)
(1.12104 -0.0237893 6.30753e-20)
(1.17915 0.0473796 0)
(1.10731 -0.00596145 -1.29555e-20)
(1.00014 0.000335265 -2.87854e-21)
(1.03127 0.0314187 0)
(1.21746 0.219898 0)
(1.05476 -0.00164749 -2.12016e-20)
(1.10781 0.011532 0)
(1.08451 -0.01205 0)
(1.02438 0.00631119 3.34758e-21)
(1.08565 -0.00552437 0)
(0.777493 -0.0301103 1.96811e-20)
(1.03375 0.00427804 5.31364e-21)
(1.04528 -0.00134036 0)
(1.00381 0.00226002 1.77806e-21)
(0.43738 -0.00705676 -9.6343e-21)
(0.999962 0.000887302 9.16698e-22)
(0.989009 0.0706321 -4.92999e-22)
(0.0460332 -0.0163443 2.73095e-20)
(0.995853 0.0573522 6.37757e-21)
(0.912751 -0.0371751 1.49386e-20)
(1.06045 0.0518211 -1.83672e-21)
(0.853013 0.0692909 -6.10365e-20)
(1.00409 0.00236841 2.75472e-21)
(1.03703 0.178044 1.46031e-20)
(1.00058 0.0105808 -6.80709e-21)
(1.11406 0.048357 -9.01102e-21)
(1.00633 0.00155695 0)
(1.10021 0.205761 -2.77506e-20)
(1.04656 0.00801351 0)
(0.671925 0.273716 -1.06522e-19)
(0.485887 0.749044 1.92693e-20)
(0.571905 -0.0427629 -5.08812e-21)
(1.01041 0.000396038 -1.58152e-22)
(0.999722 0.00244266 -4.292e-21)
(1.12945 0.075511 3.00219e-20)
(1.10181 0.0799409 -6.06871e-23)
(0.417594 -0.00688229 -2.16726e-20)
(0.647268 -0.040864 1.98342e-20)
(1.10077 0.020094 3.11498e-20)
(0.993937 0.0098244 0)
(1.15014 6.50656e-05 1.36697e-20)
(0.367918 0.229984 2.6602e-19)
(1.09172 -0.0245317 -2.67015e-20)
(1.16163 0.0152495 5.55909e-20)
(1.09498 0.0127847 2.90648e-20)
(0.727994 -0.0224112 2.26296e-20)
(1.07556 0.0986703 -1.00697e-20)
(1.06863 -0.017191 1.33791e-20)
(1.13436 0.0113836 2.34787e-20)
(0.911766 0.403139 4.95995e-21)
(1.10001 0.0213047 -2.20997e-20)
(0.322844 0.317438 -1.52002e-19)
(1.10073 0.0248104 1.36843e-20)
(1.0494 0.000245777 -7.60184e-21)
(1.09283 -0.00879415 -1.95564e-20)
(1.00985 0.0900371 -1.46597e-21)
(1.02848 0.00578348 1.53012e-20)
(1.06318 -0.00506889 4.38657e-21)
(1.09381 0.0875599 2.78593e-20)
(1.04431 0.0768916 1.04819e-21)
(0.999632 0.0105039 0)
(1.00597 0.000525217 0)
(1.09422 0.00277537 2.82457e-20)
(1.0507 0.012271 -1.37215e-20)
(1.1095 0.0120698 2.82722e-21)
(0.994539 0.00952914 0)
(0.996067 0.0073928 0)
(0.999968 0.000707205 6.29684e-23)
(1.02114 0.0520967 6.94228e-23)
(1.02047 0.00194494 -4.73434e-21)
(1.04172 0.0659572 8.40886e-21)
(1.00337 0.00238039 -5.21067e-22)
(0.259536 -0.0134644 0)
(1.07862 -0.01917 0)
(0.505808 -0.293781 -1.24463e-20)
(1.01035 0.00462069 1.24805e-22)
(1.00006 0.00144438 5.77826e-21)
(0.828932 0.136415 -4.21807e-20)
(1.11573 0.0413266 -5.20357e-20)
(0.960596 0.00296895 0)
(1.06143 -0.0203593 4.5263e-20)
(1.127 0.140567 6.20118e-20)
(1.1847 0.041462 -6.65015e-20)
(1.06399 -0.0042437 -5.67986e-21)
(1.12048 0.00275267 1.66804e-20)
(1.04186 0.0148382 5.99992e-21)
(0.999917 0.000926675 6.16603e-21)
(1.00475 0.00201275 0)
(1.03002 0.0474278 -9.32464e-21)
(-0.051309 -0.0121759 -7.96097e-20)
(1.00004 0.00122553 -8.18116e-21)
(1.1303 -0.0233402 1.47415e-20)
(1.043 0.0677288 0)
(-0.192 -0.000101155 -8.23226e-20)
(0.989271 0.195292 -3.588e-21)
(1.13181 0.137265 -3.48429e-20)
(1.09054 -0.0191624 3.33464e-21)
(1.01779 0.00600249 0)
(1 3.94473e-05 0)
(1.07929 -0.018964 0)
(0.990082 0.00303297 0)
(0.98837 0.0363086 5.50646e-21)
(1.11396 -0.0170576 0)
(1.01208 0.0479883 1.17035e-21)
(0.998845 0.0007578 2.60949e-21)
(1.06709 0.0428275 -2.2659e-20)
(1.00529 0.00665715 -1.09137e-21)
(1.01462 0.000944504 -1.43285e-21)
(1.04887 0.0725008 -6.37233e-21)
(0.900613 -0.0208934 0)
(0.399206 -0.00373966 -1.28808e-20)
(1.0693 0.084086 1.64693e-21)
(1.03381 0.00390338 6.28813e-21)
(1.00797 0.000911054 0)
(0.466955 -0.02213 1.69894e-20)
(0.998329 0.32505 0)
(1.0022 0.035217 -4.6451e-21)
(1.0154 0.0360269 4.01454e-22)
(1.10017 -0.0166335 -7.02429e-20)
(1.12029 -0.0236044 2.66261e-20)
(0.0803171 -0.0101503 6.22518e-20)
(0.91451 0.122427 0)
(1.04998 0.000873201 3.81663e-21)
(1.01007 0.00283602 -4.15775e-22)
(1.01469 0.00109542 2.93206e-21)
(1.07677 -0.0133757 -1.51363e-22)
(1.07292 0.0842515 -9.59907e-22)
(1.0982 -0.0211804 -1.8524e-20)
(0.929684 0.0172565 0)
(0.482867 -0.0121075 -1.93401e-20)
(1.02368 0.035543 4.22232e-21)
(0.97175 0.0507124 1.30333e-20)
(0.0570233 -0.00893584 -7.10737e-20)
(0.996259 0.00867216 0)
(1.06904 0.0168315 -1.91777e-20)
(1.00445 0.0263396 5.04241e-21)
(1.00172 0.00110374 3.00533e-21)
(1.0893 0.092761 3.04757e-21)
(0.797885 -0.0071441 -4.57141e-20)
(1.0397 0.0238377 0)
(0.889983 -0.0381055 0)
(0.54123 -0.0059325 -2.05542e-20)
(1.143 0.0861037 1.29934e-20)
(1.00182 0.0150198 9.87952e-21)
(1.02181 0.00336005 -1.5957e-23)
(1.0857 -0.0214131 -4.02017e-20)
(1.13552 -0.0221316 -2.18966e-20)
(1.00006 0.00037572 3.23835e-21)
(1.1348 -0.0197252 3.45271e-20)
(1.02137 0.00343495 0)
(1.09041 0.084364 -2.4366e-20)
(1.02987 0.000977083 0)
(1.02926 0.00716403 -1.35219e-20)
(1.13922 -0.0137544 2.5324e-20)
(1.03293 0.0146625 -1.15442e-20)
(0.978465 -0.0285714 0)
(1.09023 0.0642554 -2.81672e-21)
(0.999964 0.000656209 7.68636e-21)
(1.01749 0.00349721 0)
(0.984284 0.00126099 1.08005e-20)
(1.00806 0.0170381 0)
(1.0448 -0.00065147 -4.51961e-21)
(0.280001 0.74369 -4.62309e-20)
(1.03258 0.00558055 1.23697e-20)
(1.02589 0.0099571 -5.35805e-21)
(0.672882 -0.0356247 0)
(0.831547 -0.0383875 2.41933e-22)
(1.07465 -0.00768487 7.96549e-21)
(1.09822 0.0816873 0)
(1.10348 0.00772995 -4.2846e-20)
(1.06014 0.0219595 2.79738e-20)
(1.02042 0.0127508 0)
(0.903097 0.0112811 -1.8259e-20)
(0.291935 -0.0128579 3.96614e-20)
(1.1091 0.205079 0)
(0.998577 0.00448978 6.36511e-21)
(1.02923 0.0308025 6.77713e-21)
(0.669119 -0.0412315 0)
(1.08428 0.0191074 2.30014e-20)
(0.28352 -0.0375245 1.75945e-20)
(0.999969 0.000853101 -8.5603e-21)
(0.958536 0.00367822 1.55407e-20)
(0.423375 -0.00378768 1.54717e-20)
(1.07967 0.0156414 3.15438e-20)
(1.04132 0.0228239 0)
(-0.114767 -0.0117844 1.82946e-19)
(0.226288 0.258699 1.15067e-19)
(1.00827 0.0166019 0)
(1.13258 0.0127554 0)
(1.00502 0.00210713 0)
(1.03203 0.0146053 1.18656e-20)
(1.01066 0.00485758 0)
(0.291639 -0.0207376 1.4093e-20)
(1.02017 0.00179104 6.38189e-23)
(1.03386 -0.000193163 6.05273e-21)
(1.02087 0.0124178 0)
(0.947115 -0.0290239 0)
(1.05272 -0.00453579 1.11374e-20)
(1.19081 0.0792264 -1.65218e-20)
(0.730165 -0.0910655 6.8564e-20)
(1.02985 0.00582249 -1.93707e-21)
(0.864222 0.0254848 -1.20103e-20)
(1.00046 0.00311794 2.53523e-21)
(0.236477 -0.0333506 1.94851e-20)
(1.00457 0.00881652 -2.33229e-21)
(1.03316 0.0052356 -1.00258e-20)
(0.998895 0.00117632 0)
(1.0861 -0.0212678 5.51851e-20)
(0.998748 0.0010636 3.88367e-22)
(1.12284 -0.00254971 1.54984e-20)
(0.539017 -0.00206176 1.03853e-20)
(0.837928 -0.0297231 9.87141e-21)
(0.918297 0.0296186 -3.80483e-20)
(1.09907 -0.022068 8.8712e-21)
(0.0630278 -0.0201673 -4.12357e-20)
(0.99743 0.0229058 0)
(0.447452 -0.00246097 1.20551e-20)
(0.852184 -0.00236092 -1.04605e-19)
(0.0911988 -0.0234359 -2.70811e-20)
(0.578776 -0.0116941 3.91963e-23)
(0.659102 -0.0350301 8.18957e-21)
(0.396276 0.31942 -1.4233e-19)
(1.1258 0.00272399 0)
(1.00931 0.0400953 1.66106e-21)
(0.697309 -0.0220252 0)
(1.07928 0.0168429 -2.2152e-20)
(0.677444 -0.0232693 -1.24081e-20)
(1.02527 0.00506121 3.75644e-21)
(1.01974 0.0196404 0)
(1.00343 0.0359953 9.07786e-21)
(1.00049 0.00335952 0)
(1.06363 0.0189915 1.76203e-20)
(0.908378 0.0825868 -6.69177e-21)
(0.445836 -0.00871087 2.25466e-20)
(1.01961 0.0188601 0)
(0.994851 0.00344689 -1.06938e-20)
(-0.20771 -0.00349731 -1.50327e-19)
(1.0371 0.415915 -8.26387e-22)
(0.984425 0.000176028 0)
(0.834369 -0.0491594 3.96475e-20)
(1.07237 0.0437758 0)
(1.03664 0.0191554 3.69058e-21)
(0.552815 0.769491 0)
(0.828378 -0.044362 0)
(0.960174 0.044407 1.74917e-20)
(1.05287 -0.00399893 -1.12814e-20)
(0.523012 -0.00423926 2.15854e-20)
(0.0692855 -0.0112139 7.07945e-20)
(0.232601 0.0650395 -1.96494e-19)
(1.02944 0.00128661 0)
(1.19078 0.0677912 3.63072e-20)
(1.1433 0.0435209 -1.02757e-20)
(0.0227319 -0.0267569 -5.49836e-20)
(0.727899 -0.0421237 -1.83549e-20)
(1.08176 -0.0228497 0)
(1.01288 0.0221031 -4.40717e-22)
(1.04259 0.0154201 -6.09021e-21)
(1.02258 0.0358278 -3.59098e-21)
(1.01762 0.00034058 3.37463e-21)
(1.02325 0.0528351 -1.81171e-21)
(1.01471 0.00168668 1.52679e-21)
(1.04009 0.0743713 2.53941e-21)
(1.07238 0.0991808 2.23664e-20)
(0.273006 -0.0105452 0)
(1.10209 -0.0118669 0)
(1.03415 0.000247931 -9.70576e-21)
(1.11876 0.00276583 -1.55439e-20)
(0.341577 -0.0328754 2.67936e-20)
(1.086 0.0894438 4.05836e-20)
(0.976986 0.0204814 1.29406e-20)
(0.321914 -0.00733919 3.35514e-21)
(1.02515 0.0172671 -2.88976e-21)
(0.989053 0.0346008 1.06515e-20)
(0.839909 0.0598674 -2.61763e-21)
(0.349833 0.00304209 0)
(0.998682 -0.000101966 -1.14505e-20)
(1.00356 0.0168896 -2.53981e-21)
(0.70525 -0.0267612 -2.74968e-20)
(1.09741 -0.0215834 0)
(1.11661 -0.0231017 -7.60944e-20)
(1.10862 -0.00327298 -2.8298e-20)
(1.09396 -0.0227043 -2.006e-20)
(1.00654 0.016029 0)
(1.13041 0.000601719 -4.9849e-20)
(0.976227 0.0220898 0)
(1.003 0.00919854 3.02461e-21)
(0.974324 0.0187042 0)
(0.75779 -0.0253897 2.79394e-20)
(0.0997712 -0.0137246 -3.55191e-20)
(1.02695 0.00877217 0)
(1.01791 0.0035534 1.19597e-21)