/*--------------------------------*- C++ -*----------------------------------*\
| =========                 |                                                 |
| \\      /  F ield         | OpenFOAM: The Open Source CFD Toolbox           |
|  \\    /   O peration     | Version:  v2012                                 |
|   \\  /    A nd           | Website:  www.openfoam.com                      |
|    \\/     M anipulation  |                                                 |
\*---------------------------------------------------------------------------*/
FoamFile
{
    version     2.0;
    format      ascii;
    class       volScalarField;
    location    "150";
    object      ddt0(omega);
}
// * * * * * * * * * * * * * * * * * * * * * * * * * * * * * * * * * * * * * //

dimensions      [0 0 -2 0 0 0 0];


internalField   nonuniform List<scalar> 
14479
(
-0.00930794
0.0110536
-0.00108891
-0.0338876
-0.244777
-0.0947202
8.4087e-06
-5.17628e-06
0.000153705
0.0324471
0.102985
-0.03841
-0.0525201
0.0251662
-0.0067184
0.0979507
0.0564307
0.181071
0.366121
-0.010211
4.92112e-07
-0.000959907
-0.0442933
0.270428
0.000204135
-0.000371858
-0.0037485
0.0315786
-0.849843
-0.00398597
-0.450983
-0.0424531
0.351153
-6.8606e-06
-0.0001629
8.72286e-06
-3.05763e-06
0.00448471
7.68825e-05
-0.563293
-0.00261106
-1.46948e-05
0.00174852
-0.00360461
-1.01024
-0.00309088
0.0937161
0.496305
0.00059389
-0.0479304
1.49917e-05
0.411886
-0.405388
0.0671133
0.000672406
-5.5231e-05
-0.0187034
0.0218693
1.16989e-05
-0.0902533
-6.60391e-07
5.16984e-06
-0.125847
0.0502162
-0.327395
0.0655974
-0.00131042
-0.00145994
0.257493
0.379461
0.312055
-0.0366129
0.1662
-0.173634
5.06443e-06
9.86984e-05
0.317141
-0.024428
0.134712
0.332807
-0.223249
3.8793e-07
-0.00116729
-0.0374992
1.50365e-05
0.00427882
-0.0301755
-1.60179e-05
0.34478
0.00011932
0.0779405
0.0588826
-0.186956
0.0562956
-0.000349067
0.3298
6.64826e-05
0.0943102
-0.000109769
-0.031641
-0.767487
0.0169041
-0.0232107
-3.84087e-06
-0.00022485
1.1104e-05
-0.158999
0.181094
0.0221978
-0.00503444
-0.00102589
-0.000817671
2.79747
-0.0208673
0.00377486
0.000488187
-4.07616e-05
0.360258
0.000577189
0.00139968
-0.000146211
-1.0843e-05
-0.0366053
-0.00308988
-0.00698844
3.51805e-05
0.001056
-6.98088e-05
1.04898e-05
0.0280627
5.03532e-06
-0.686275
-0.231591
1.99078e-05
-0.0150933
-0.0638181
-1.54782
7.28643e-05
0.405176
-0.0324163
0.000110289
-0.0663137
-0.00298328
0.752638
0.00636085
-1.99226e-06
0.00752613
-4.25125e-05
0.0017777
-0.00126817
0.320326
-0.00125926
-1.03331e-05
-0.133747
0.0866086
-0.000894574
0.0559653
4.9052e-06
-0.0577171
0.156207
0.0514162
0.328685
0.195168
-0.0251704
-0.0205805
0.40998
1.85896e-05
2.44939
5.80329e-06
0.000156054
-8.62868e-06
0.00695886
-6.3196e-05
-0.00875189
-9.35517e-05
0.0561624
-7.59854e-07
-0.000183905
0.0712635
0.000137185
1.08927
6.94804e-06
0.000678419
-0.129825
1.32984e-05
0.029842
-0.00144746
0.00234304
-0.447786
-2.8875
8.01874e-06
-0.068267
0.000618569
8.02512e-06
-0.0764612
0.17321
-2.11226
-0.158491
-0.000758126
-2.38426e-05
0.00074238
-0.250165
0.238485
-0.0411063
-0.10331
-8.9941e-05
0.000493928
0.00346898
-3.91567e-05
0.013706
0.0207073
-0.0923964
-4.54389e-05
0.00112181
-2.73412e-05
-0.188439
-0.0431716
0.0557044
-4.01203e-06
0.00636916
0.509491
0.000893092
-0.0975156
8.43109e-05
-0.093555
-0.0286756
0.000654957
-7.86735e-05
-0.00890237
-1.18158e-05
0.000915494
1.50997e-06
-0.00314103
0.0416912
-0.000561938
0.00235616
-0.0193416
0.0876292
3.18941e-06
0.00110838
-0.0253759
0.0446001
0.00118222
-0.021863
-0.0770062
0.0329567
-5.36454e-05
0.00024802
-0.179773
0.239342
-3.93711e-06
-0.0202124
4.36759e-06
3.12018e-05
0.274852
0.290935
1.83551e-05
-0.503147
0.0033378
0.0508291
-0.289086
0.288028
-0.106453
-0.0243634
2.4628e-05
0.000528029
1.66862e-05
-0.0861117
0.00682981
0.259078
0.0189558
-5.27964e-05
0.0357733
2.9602e-06
-0.000264662
-0.366632
0.182292
-2.98179e-05
0.0128072
-0.00426542
0.0469232
0.023517
0.0333035
-0.039723
-2.15373e-06
2.75471e-05
-0.181151
2.61991e-05
0.119375
-0.0914632
-3.99214
0.612995
0.000322206
-0.0648827
-4.91238e-05
0.00592388
7.4905e-05
0.0143211
1.87531e-05
-0.0061987
-1.31996e-05
-0.0187552
-1.29452e-05
-0.00377919
0.00447509
0.0482357
-0.00281007
0.0645904
0.000564051
0.00136561
0.00183544
0.0357593
0.094623
-2.09985e-05
0.00134114
1.65256e-06
-0.0367384
-0.0237964
1.01186e-05
-1.59001e-06
-0.000256065
6.41278e-06
0.000286001
0.520205
-0.0993144
0.116616
0.371485
0.142335
-0.00952151
-4.55383e-06
-0.000551772
-0.00778563
-0.161367
-0.00638375
-0.123309
-3.39547e-06
0.00892681
-0.131181
-1.05458
0.0176002
0.363606
-0.00042174
-0.101577
-4.60405e-06
0.0125687
1.24826e-05
0.0490839
-0.0821521
-8.39867e-07
0.0172873
0.0437968
0.0189801
0.00108044
-3.99615e-05
-0.182201
-2.76977e-06
6.80586e-06
0.00466421
-0.000132743
-0.00017909
-0.000130499
0.037931
-0.0313715
-7.74042e-05
0.0111417
-0.00257919
0.00768028
0.00160742
-0.0131796
0.22545
0.0539985
0.301546
-0.000922393
0.943731
-0.112115
0.269456
-0.0346167
-0.00269716
-0.411523
-3.46498e-05
-2.20981e-05
-0.000705156
0.135464
-0.0254017
0.285896
-0.0746603
6.18617e-06
-0.0773753
-3.77514e-06
0.134654
-0.0113037
0.0018776
-0.936547
0.0819569
0.374734
-0.106324
0.439626
-417.943
3.12704e-05
3.28495e-07
0.314884
0.0193279
0.00672598
0.00408448
0.0596337
0.000999599
0.0505519
-0.0209732
-0.0247709
-3.21694e-05
0.031027
0.306212
8.95108e-06
8.22161e-07
4.30976
-7.78647e-06
-1.253
-0.459771
4.01333e-07
0.0119694
-0.00185208
0.0132715
0.286361
0.0495537
0.359156
-0.00883774
0.00323423
-1.90785e-05
0.00991542
1.39274
-0.111108
-0.0562024
0.0218656
-1.49587e-05
0.00850719
-0.0287186
-0.0100441
-0.108126
0.0845518
-0.150329
0.0625063
0.0210477
-0.059973
-1.65412e-05
-0.100688
-0.00101589
-0.00912199
0.0138042
-0.00136548
0.00032492
2.86849e-06
0.6122
0.026957
0.0738953
-3.01441e-06
-0.2703
2.14139e-05
-0.0367389
0.210966
-0.0091963
0.00030342
-1.33221e-05
0.0571454
-0.27081
0.296258
0.0558862
-0.000793685
0.167581
0.00938037
1.04787e-05
9.18922e-06
1.66796e-06
-0.0208073
0.173788
-0.0673682
-1.31387
-0.0133271
0.0244686
0.0039743
-0.0701493
-0.00193922
0.133276
0.0115365
0.058969
0.000865032
-0.00994799
-3.67992e-05
0.250772
3.48848
-0.0866618
0.182204
9.18276e-06
-6.87085e-06
-0.0279106
0.095475
-2.54218e-05
-0.00591812
-0.0300414
0.0145929
0.00129382
-0.000318613
0.0884018
-1.62158e-06
-0.000113489
-0.0466447
0.488712
0.305503
0.00201708
-1.07721e-05
-0.0278224
-0.0130477
0.00312733
-0.000833552
-0.134783
1.02048e-05
-4.27e-06
-1.84943e-06
-3.7862e-05
0.519463
0.045626
-0.0292102
-0.0132176
0.0317343
0.0716017
-0.0813538
-0.0286388
1.56602e-06
-8.03647e-06
0.319502
-0.0192153
2.62108e-05
-0.0401715
0.34354
0.197964
-0.00143073
0.0129438
-0.0572957
-0.293029
1.01254
0.293237
-0.057585
0.215203
-0.00127796
0.452365
6.07679e-05
-6.90127e-06
0.369614
4.15252e-06
0.000316216
0.00146644
-0.00426003
-0.0118623
-5.3823e-06
-1.22581e-05
-0.58358
-7.00677e-05
0.617787
0.0192275
-0.0295572
0.00919123
0.00725352
-0.0112565
0.00269997
-0.0951548
-4.7498e-05
0.127871
0.010808
5.1849e-06
0.000115155
0.000210902
0.00173524
-1.28415e-05
-0.0472831
4.83404
-4.59791e-05
-0.0460377
-0.135814
9.33903e-06
-9.5131e-05
-0.114859
-0.0569271
-1.53898e-05
0.0147717
-0.000217358
0.206623
-3.68584e-05
-9.92844e-06
-0.0755226
-0.00914176
0.433974
0.0088857
-5.71095e-08
3.35395e-05
0.237248
0.0103335
0.248554
-3.91258e-06
2.05308e-05
-0.000533486
5.08393e-05
0.0585463
1.67494e-05
17.1068
-0.0522215
-0.179738
2.57337e-05
-0.087089
-0.0107201
0.000476489
0.00860396
-2.7235e-05
-0.0237702
0.00969207
2.97397e-05
2.57078e-05
-1.87675e-05
-0.00562355
-0.0235596
0.222199
-7.71196e-05
-5.57667e-06
-0.0110402
-0.00112899
0.00195323
0.0544291
0.403531
-2.89654e-05
-1.7881e-06
-0.000215405
-0.0745274
0.00414314
-0.000362401
3.13431e-07
0.325245
0.00100091
-3.2211e-06
2.80071e-06
-0.237402
0.00694968
-1.68952e-05
0.277372
-0.229712
-1.50847e-06
0.365697
-0.225126
1.80816e-05
0.00344695
0.00011542
0.00223873
0.188763
0.217311
-0.0134136
8.57833e-07
-0.0266515
0.3319
-0.159969
0.143924
-0.0348706
-4.96821e-05
0.000706417
0.553374
-4.39438e-06
1.14275e-05
-0.0348958
0.104829
0.000702519
3.24659e-05
-1.79684
0.345674
2.26276e-07
-3.44836e-06
-0.0036689
-0.0294867
-0.00675798
5.75886
0.804267
0.180221
-0.00598648
-0.169774
0.0208218
2.46162e-05
0.000330468
0.213355
-1.01745e-05
0.242494
-0.00270193
-0.00441522
0.58579
0.00285446
0.27601
2.27598e-05
0.00602421
-0.0434573
0.0777835
0.0255157
0.323255
0.201991
0.291194
0.0135258
0.13002
-0.00112222
0.0865214
-0.0766236
2.83393e-07
-0.471057
0.364242
-0.171588
0.357797
0.000546295
0.424782
-1.76904e-05
0.00282829
0.296032
0.268105
0.317962
9.5618e-05
-0.000330919
0.28103
-0.00329011
0.080515
0.70717
-0.0935022
0.00111521
0.0314088
-0.245877
0.00058615
0.2427
0.0171622
0.299529
-6.88107e-06
0.000714405
-0.0203335
1.68255e-06
-8.50891e-06
4.57654e-06
3.62735e-06
-0.00592956
-0.0229392
0.00427085
8.8386e-06
-2.8197e-05
-1.4578e-07
1.52112e-06
-1.714e-06
-0.000625075
0.0732804
-0.640295
-0.00347034
-0.0119971
-0.0327519
0.0102086
0.0107848
-0.000345246
0.000962099
-0.0196973
-0.125077
-0.000348535
-0.0123291
-0.0027295
0.000723135
-0.0200597
0.00223697
-0.228424
-0.00120643
-1.85799e-05
0.241738
-4.26179e-06
-0.0146662
0.34248
0.13129
-0.00142268
0.0345581
0.0534947
-0.00908024
5.50398e-05
-0.39863
0.0641966
-0.032502
0.000929822
0.287609
0.323007
1.80599e-05
1.38612
-0.399545
-3.29271e-06
-0.00770731
-0.0194182
-0.0813995
0.000719769
0.0611934
2.27839e-06
-0.446368
-0.2205
-0.0372709
0.307411
-2.57724
-0.00201002
0.347156
-0.605863
0.0906976
0.295625
0.00349886
-0.00686707
0.0207271
6.63562e-06
0.0229624
0.25299
-3.39046e-06
0.0803245
-0.0129562
-0.00150245
0.353073
0.000949752
-0.0112148
-0.105516
-0.0399107
-0.0200373
0.0384116
0.000380594
-0.238829
0.00110099
-0.0823277
0.00142459
0.0884274
-0.00245433
0.697208
0.0474756
-0.000312779
-0.00732244
-2.91089e-05
0.0164953
0.336005
-2.39482
0.340015
-0.00840402
-0.174075
0.0792625
0.00150835
-0.0576452
0.279276
0.579387
3.07953e-05
-0.00398866
0.059134
-0.211461
-0.00218362
0.291034
-0.0549768
-4.26466e-06
0.00999576
0.103659
0.0242051
0.848604
0.0867642
-0.0224246
0.000339146
-0.0438244
-0.00299889
-5.80208e-06
0.00886148
-6.1808e-06
-0.000715817
2.9e-05
0.314063
0.000191288
-0.04955
6.4467e-05
-3.69213e-06
7.63545e-06
1.2791e-05
0.0381799
0.0281046
0.0503082
-0.0337627
0.027813
0.383279
0.00846728
0.280234
0.201934
-0.163919
-0.126324
-0.00587869
0.0213147
0.00798785
5.57952e-05
-0.000257253
6.51473e-05
0.00470997
-0.038063
-2.56539e-06
0.000225036
0.000929049
0.0307362
0.0506588
-9.13685e-06
-8.12714e-08
0.0229498
0.662613
0.00390027
-0.00200103
0.000847876
-1.68932e-06
0.0415643
-7.5361e-05
0.000606087
2.13461e-05
-0.00114776
-0.00919347
0.168188
-0.0405089
0.00931812
0.25878
-8.15975e-06
-0.00163159
0.00353126
5.81531e-06
7.72025e-06
-0.168926
0.301538
-0.358797
0.00492063
4.73822
0.0256557
-0.794875
-2.60464e-06
5.86846e-06
0.188353
0.161723
-0.036814
-0.000813773
-0.0932888
0.0958868
0.0221736
2.58776e-05
-0.631328
0.00437769
0.364488
0.428936
0.00506559
-0.460025
0.00122381
-0.709321
6.77598e-09
5.03983e-05
-4.6321e-06
5.00448e-06
0.266172
-0.0344661
0.116043
1.39898e-06
0.423055
0.000658367
-0.0257369
0.251783
-0.00878463
-0.00281483
-0.0191008
-0.0587821
1.12598e-06
0.00115956
-2.55391e-06
0.0757506
-5.44293e-06
1.09163e-08
-0.259097
-0.405862
0.164938
0.00667727
-1.04716e-06
-1.86686e-05
-10.7896
-0.291909
-0.0418304
3.44886e-07
0.0479713
0.00677456
0.000816647
-2.44636e-06
0.00705009
-1.42545
-0.0125451
-0.026031
0.00428129
-0.0066871
-0.0196888
-0.00217592
-0.408684
-0.0439866
1.92746e-05
0.48415
4.52381e-05
-0.00938718
0.0809818
0.0342446
-9.22009e-06
1.01799
-0.00017871
0.000543624
1.43985e-05
0.000136
0.00591505
-3.64956e-05
0.144962
0.00157144
0.312807
-5.55437e-06
-0.0187496
0.184031
-2.05559e-06
0.0192773
-0.096083
-0.114721
-0.0283105
0.199368
-0.0131312
-0.103171
-1.85955e-05
0.012928
0.164488
4.47184e-05
1.73495e-05
-0.000172385
0.0247946
-1.05978e-05
0.20781
1.19058
0.0288145
-0.00561008
0.128897
0.819383
0.192341
8.44905e-06
0.00628704
0.0459475
-0.00108363
-4.61298e-06
-0.00444998
-0.0398873
-0.000582283
0.0182895
0.000190845
-0.0448822
-0.492031
-0.389262
-0.118605
-0.0654753
-6.58501e-05
0.0164369
0.000976585
-0.0363692
0.00799974
0.000462002
-0.0244931
0.00748219
-0.0244757
-0.155159
0.0539718
-0.819118
-0.243344
8.60612e-05
-0.144071
-4.35728e-05
-2.65651e-05
-0.000512485
2.00824e-05
0.36665
-0.154409
-0.126035
-0.0147086
0.189964
0.850109
-0.00971247
-0.239746
0.0136279
0.00813208
0.114372
-0.143744
-0.0707288
-0.000114504
2.51835e-06
-0.0424108
-0.00272236
-0.00209379
1.84089e-05
0.00623204
0.000130515
0.0976976
0.00307379
0.0454196
-0.0026206
-0.0422044
-0.180727
0.154353
1.7543e-06
-7.77624e-07
0.0581878
-0.997756
-0.000548481
0.0019057
-0.00309366
0.261785
-0.0493901
-0.000630289
-1.96421e-07
0.0133899
0.0553064
-1.32523e-05
0.0190115
-0.439781
0.279711
-0.00393526
-0.00312518
0.200953
1.39794e-05
4.4786e-07
0.0236799
-0.0613314
0.0803063
-1.85229e-05
-0.0309958
0.0131265
-0.0106031
-0.713043
-0.000268152
8.50242e-06
-2.44561
-0.00373057
0.0103387
-0.0104388
0.00166197
-1.46508e-07
0.000751141
-0.0245847
5.17671e-05
-0.0418186
-0.0434823
-0.000646904
0.131277
0.878175
0.103605
5.86442e-08
0.00321965
-2.55278
-0.000254824
-0.0421823
-0.00877524
0.0776851
-0.0135431
-0.0182563
0.000445689
-0.378903
3.5583e-05
-0.00216411
-0.0185767
1.1813e-06
0.107995
-0.000391923
3.03143e-05
-1.60503
0.0969162
-0.156242
0.0910332
1.17495
-0.000653702
-0.00950322
2.74712e-06
-0.000616508
2.10741e-06
0.420251
-0.656716
0.00295007
0.00675296
-0.00618651
0.660409
0.199903
-7.2115e-06
-0.00412957
-0.0232919
0.00451305
-4.18266e-05
2.92916e-05
1.67546e-05
0.227331
-1.14924
0.0375985
0.244438
0.419486
0.0142521
6.45648e-05
-0.00276765
-0.00390571
0.302488
-0.464447
-0.0362527
-0.00273518
-0.00183715
-0.000289319
2.06534e-06
1.20287e-05
2.06233e-05
-2.80606e-06
0.821699
-0.531633
0.0056159
-0.00828871
0.0102897
0.00103865
-0.00140965
0.690326
3.2202e-05
-0.00130918
-0.905319
1.62624e-05
-1.39265e-05
-0.00367042
-0.0228566
5.81202e-06
-0.14685
0.219657
-2.78924e-07
-1.87512e-06
0.240045
-3.21107
-0.931829
0.0218021
3.50609e-06
0.0726066
-0.000988506
-9.91669e-06
-0.00628574
2.4499e-05
-0.0367586
-0.057074
-0.00917723
0.00963654
0.123503
0.000159558
2.08171e-06
-0.346344
0.166805
-0.000552626
-1.34329
0.00893633
-0.00138411
0.271933
6.79094e-05
-1.34817e-05
-0.0158623
-0.175969
0.148125
0.0922383
1.87872e-06
-0.0201085
-2.2108
0.763053
1.90738
-0.0108967
-0.0010816
0.00569155
0.00411861
0.000792329
-0.000930165
3.51292e-05
0.0808718
-0.00170975
-1.60606e-05
-0.024892
0.229319
0.0496998
0.017612
0.000862713
4.09699e-06
0.226715
0.0232657
-0.0818452
0.152889
-0.00824398
0.441859
-2.55015e-05
0.0100927
0.232178
0.0664035
0.0177267
0.0286702
0.030666
-1.21305
-2.54541e-06
2.83057e-05
-0.114718
-0.0216077
-0.0240142
0.392658
-0.196159
1.3786e-06
4.62868e-07
-0.0436833
-0.000318469
2.06796
-0.146055
-0.00252084
0.0464279
-0.0371752
0.00744171
0.0298893
1.7564e-05
-0.295555
-0.00208599
0.0109627
-0.00149092
-0.135121
2.15838e-06
0.0260752
0.240934
-0.0839167
-0.0426173
-0.000122869
0.00211649
-0.00701174
0.117976
-0.000149514
3.0883e-06
-0.00940252
-0.544076
1.03916e-05
0.493287
-0.00508936
0.0384991
0.0125947
0.0921925
2.15272
0.111565
-0.237943
-5.33361e-05
1.18808e-06
-0.0448219
-0.000240158
0.34553
0.308588
1.49569e-06
-0.0112059
-1.39664e-05
-5.91156e-06
0.158926
0.100211
0.305413
8.48365e-05
-0.00958839
9.13895e-06
-0.0425908
1.11811e-05
-0.00153274
0.246591
2.26462e-05
-0.0109997
0.00660418
-0.0509791
-0.128486
0.0318135
-0.0138667
-7.75423e-06
0.339742
0.00584994
0.147997
0.000662667
-0.121305
1.3954e-06
0.183266
0.26803
-0.0682589
-0.0198523
-0.010005
-3.17554
-4.1127e-06
0.21862
0.48932
-0.011722
-4.5792e-06
-0.000695643
-0.0120216
-0.29329
-0.642639
-0.0805577
0.00085981
0.123578
-0.000149497
-0.00526621
-0.00327051
-0.00364689
-5.04667e-05
-0.00467572
0.00365122
-1.41269
-0.00588502
-1.25324
-0.0101171
-0.00937403
-0.0185071
-0.000166982
0.00187512
0.378915
-0.00248085
-6.03199
0.339443
-0.0678884
-1.62511e-06
-0.324437
-0.011893
-0.00670341
-1.16094e-05
-0.0349358
-0.327678
0.0007962
1.25446e-05
-0.0901615
-0.00239837
0.135441
0.008887
0.0302777
0.00101895
-0.0157263
-0.23704
-0.0930182
2.52116
0.0135385
0.344844
0.306355
0.00410277
-0.463386
0.0469491
-0.0113887
0.169265
2.53846e-07
0.361558
0.00138709
0.320279
-1.10544e-06
-0.000456957
0.00179859
2.4773e-05
4.46591e-05
0.00424246
-1.21191
-0.00104687
-0.181081
0.0150781
-0.000842346
1.23017e-06
-7.18169e-07
-4.30386e-07
0.0171
-0.250371
-0.107663
-0.000627612
0.00639236
-0.00269588
0.137084
-0.349908
-4.02379
-0.1167
-7.60816e-06
-0.00168522
-0.050851
-0.644598
-0.151502
-0.00323349
-0.000119805
-0.21412
-0.0493259
-0.0408856
2.07448e-09
-1.08182e-05
0.000254224
0.00979691
0.0222851
4.42702e-06
0.0773697
0.000214426
-1.0515e-06
-2.49074e-05
0.0251928
3.64532e-06
0.0329408
-2.74941e-05
-0.00163858
0.299299
5.64294e-06
-0.164191
-0.0107173
-0.0265507
0.335025
-0.00617559
0.0366121
0.244477
0.0145205
-0.023736
-0.0172884
0.150748
0.0490372
-0.00381112
0.0664107
-0.315122
-0.0189995
0.302484
0.0626636
-0.0242013
-0.136585
0.44266
0.176461
-0.0170251
0.00511334
0.548004
-0.960256
-0.0895794
-0.281066
-0.145462
2.67936e-06
0.995881
-0.000290872
0.366782
-0.00438795
-0.0011421
-0.106956
0.0743564
-0.00010821
0.399067
-1.23465e-05
0.0109167
0.0574946
-7.16038e-06
14.0621
-0.252263
0.535948
-0.155921
2.01967e-05
0.00879877
0.00704854
1.01603e-06
-0.51014
-0.00761639
-0.0005391
0.853101
0.0281607
-0.0677355
0.67953
-0.0886729
0.375097
-0.518863
-0.127169
0.213481
0.148716
-0.00492166
9.26184e-06
0.000110477
0.0192251
0.16802
-0.00172068
0.0168742
-5.03005e-05
2.65084
0.00644637
0.0617809
-0.0440171
-0.001894
-0.0247341
0.00797673
-1.5128
2.89451
0.0407053
-0.0181537
-0.0396663
0.00105753
0.0146925
0.03656
0.0864388
-0.0663729
0.0496366
0.0069332
0.302149
-0.151478
0.14324
0.00327343
-0.00849515
0.264523
2.29368e-06
-6.70167e-05
-0.000598681
-8.52894e-05
-2.43001
0.675091
3.81258e-05
0.0241639
0.120908
0.00133906
0.000125871
-0.000110552
-0.148274
0.000286997
-2.35911e-05
4.43882e-05
0.013124
0.0486074
0.0305178
0.000433052
0.0212133
-0.166286
-1.20041
2.92834e-06
5.72117e-06
-8.01917e-06
-0.0938191
-0.00311512
-2.58714
-0.00885363
-0.00126361
0.0939143
-5.83491e-05
6.12277e-07
-0.0011126
0.00980959
-0.00896126
0.00928582
0.163998
1.17997e-06
-0.25905
0.00142362
-0.0186275
0.00785001
-0.00188734
-0.000855154
0.00420855
6.26519e-06
-5.83034e-08
-0.122491
0.19376
-0.0148833
-0.00709739
-0.000525561
-0.0147787
0.129005
0.0601339
0.0270207
-1.0275e-05
0.313534
-6.50458e-06
-7.74412e-06
1.03356
-0.125279
-3.88546e-06
-0.0204907
0.414734
-0.0493996
4.35401e-05
0.00593338
2.10959
0.0820523
0.00330359
0.00671282
-8.96955e-06
0.014175
-0.00375289
0.0278404
0.0579591
-8.93844e-06
0.0903908
0.000572102
-0.000112637
-0.00016836
2.15627e-06
0.0780579
1.88903
-3.09985e-05
-0.0189555
-0.122937
-0.00775068
0.00204935
-0.00113148
4.96677e-06
-0.0119198
0.494026
0.0145527
-0.00887809
-7.15478e-06
0.584157
4.42737e-06
-0.0118618
-0.000608302
0.338608
-0.0107744
-0.0052194
0.0062467
0.72498
-0.488919
0.0348786
2.17838e-06
0.246137
0.114685
0.357767
0.000326642
13.2189
-0.0778434
0.0227615
-0.0699492
-3.92598e-06
1.12309e-07
0.0314022
-0.197268
-6.82937e-08
-0.00379121
-0.000296316
-0.041142
0.00274494
0.00316539
0.011236
-8.332e-07
-9.70262e-06
0.302115
0.412474
0.0165786
-0.0312973
0.0238785
-0.015195
0.614208
0.0128328
-4.75059e-06
-0.00237789
0.00128138
-0.548283
-0.452808
-0.00281034
-0.0146644
-1.38775
-0.00154263
1.00714
-0.0980979
0.158727
8.72632e-06
-0.00216645
0.000752691
0.0237513
0.0131245
3.44308e-05
0.263984
1.82038e-05
-0.0398051
-0.689431
0.000149241
-0.00248549
0.368811
-0.00986262
-0.0224535
-0.0043549
-0.0660993
0.000566516
0.000599137
-0.00211315
0.181298
-0.353861
-0.213832
6.24527e-05
3.66873e-08
0.00982351
-0.175044
-0.13101
-0.12172
1.7582e-07
2.3122e-05
9.28607e-05
0.241545
-0.387556
-8.9368e-05
0.0287304
-0.204586
0.238096
-0.0020221
0.380068
-0.135156
-3.71119e-05
0.212532
-0.000840855
1.78989e-06
-0.000187335
0.000429425
2.98369e-05
-0.0228815
-0.000207459
0.000181873
3.80005e-05
0.00269042
1.49615e-05
-0.000624251
-0.0256896
0.000113953
0.00764935
0.289386
0.000212623
-0.363867
-0.00790978
-0.456109
0.00122792
0.0186477
0.346382
-0.125994
0.172025
7.31586e-08
-0.0382229
0.0181204
-7.94359e-06
0.0150465
0.00161342
-0.00847575
-0.018839
-0.000887324
0.0152155
-0.482103
0.000586399
-0.00242257
0.00051464
-0.61192
0.00150831
0.00146485
-0.023104
-0.00513522
-1.99003
2.82042e-06
0.000724516
1.77887e-06
-0.148637
-4.40754e-05
0.0223349
0.027242
0.903602
0.279162
-0.00318739
0.000128
0.0331213
-0.971648
0.000253622
0.0140534
0.0440312
-0.0150067
-0.377722
0.0016167
-1.81436e-05
-1.2141
-0.0253446
-0.00147581
-0.040658
0.0305733
-1.16552e-05
-0.0376475
-0.142708
-0.577595
0.0320028
0.000124535
-0.00256502
0.000338991
-0.00127013
-0.0286362
-2.64304
-0.0448999
0.00161203
7.16397e-06
0.19432
1.7394
-0.208565
0.319568
0.00189771
-3.02781
0.263977
-6.55671e-06
3.72182
0.00850004
-0.0571975
0.0109461
-0.636693
-2.11295e-06
-0.00409999
0.166247
-0.000168697
0.246159
0.029726
-0.0181892
0.155127
0.0164497
-0.000307026
1.23954
-1.13806
-0.202637
-2.03804
-0.000751497
2.69076
-0.000114906
-0.000310343
-0.000169077
0.00846614
-0.000769612
0.00924608
-0.00901816
-0.179007
0.00038653
0.241493
-1.24292e-05
7.79847e-06
0.000225191
-0.000448984
0.248877
1.06354e-05
0.00315642
0.335026
-0.0212963
0.00172347
-0.0126078
0.00814511
5.68727e-06
0.00401356
-2.15089e-05
-0.00131302
-5.05717
1.654
0.107473
0.0694144
0.287501
-6.12203e-05
0.894628
-3.77077e-05
-0.0038245
0.285781
-0.0224193
7.74805e-05
-0.0449524
0.0242797
-0.00038338
-0.00191205
2.57589e-05
0.427177
0.000104294
-9.11413
-0.116837
1.37553e-05
0.213547
-4.54832e-06
1.75834e-06
-1.09022
-0.00118355
-0.0101428
-0.0217536
0.0471653
-6.50002e-07
0.0008318
-0.00291244
0.0139893
0.00268417
-0.305694
0.00572674
7.47661e-05
-0.00993679
0.0261336
-0.0317157
0.38617
2.35067e-05
0.0148211
0.0880513
0.0658271
0.0122456
-0.00247127
0.00010451
-0.000531654
-0.00548811
2.3244e-05
-0.000134755
0.000239102
-0.0646887
-0.0323407
0.348099
-0.0712752
0.0531128
0.0845706
-4.27596e-06
0.00163315
0.000642934
-5.77962e-06
0.154888
0.0490081
0.168995
0.00164229
-0.446237
2.58306e-06
0.0469465
0.00208237
-0.0213943
0.0280199
0.0303385
-0.025537
-0.312192
-0.000458789
1.23534e-07
-0.0196325
0.000768208
3.12478e-08
-1.40206e-05
1.44019
2.10159
0.0224065
0.114998
7.56906e-06
0.00509838
-0.00395557
0.0446147
-0.107624
0.0171353
0.000495533
-0.00761508
0.360961
-0.0050008
0.0165882
0.0452867
0.00971251
0.153465
0.00078472
0.275407
0.214624
0.0292394
-0.000996305
2.42913e-05
-0.132822
0.0543799
0.00190799
1.21715e-05
0.033199
0.054678
-0.0088243
-0.159801
0.0719625
0.000820887
-0.0218855
0.329253
-0.131453
-0.000168789
0.364517
-0.00168488
0.0802423
-0.0281278
0.074364
0.24297
-2.67147e-05
-0.00601782
0.0219417
0.0015046
0.00098341
0.105136
-3.79716e-05
-0.395902
0.0822369
1.77966e-05
-1.14133e-07
-0.1063
0.0014584
-4.08747e-05
0.310091
-0.0648845
-0.00147603
1.26663e-05
0.0106568
0.000853555
1.95107e-05
-0.000154528
-0.0253891
0.0118455
-0.0252054
0.00011354
0.138457
-7.433e-07
-0.133494
-2.29971
4.86533e-05
-0.000785847
-0.0185771
3.50945
-0.00726733
0.019957
-0.610846
0.000704861
1.16842
-5.97119e-06
0.000388478
-1.29269e-05
9.04841e-06
-1.88719e-05
6.2004e-05
1.24775
0.0245754
0.187534
0.00780925
-0.0376605
0.670444
-1.0916
-0.130162
0.0998749
-4.62512e-05
0.317835
0.0226606
-0.930252
0.00222242
0.0390246
0.000149149
-0.040071
0.00215722
-0.252031
1.15033e-06
-0.0071948
0.85024
0.00132295
-0.042336
-0.132914
0.0092402
0.00613768
5.77933e-05
0.300028
0.000867111
-0.280966
-3.82636e-05
0.000419597
-0.000659691
-0.133916
0.271819
-2.36612e-05
-8.63059e-05
0.343698
1.20776e-05
-1.3305e-05
-0.182549
0.367477
-0.0129684
0.000223827
0.00925027
2.41973e-06
0.00654058
0.00621289
-0.000109999
-0.18008
0.103844
-0.00218297
0.0317892
-0.0495721
-1.28178e-05
-0.00118174
2.34633e-07
-0.0160152
1.38799e-06
-0.00190012
2.87714e-07
0.109635
5.10303e-07
-8.88841e-06
0.000509132
0.285765
7.88664e-05
-3.67814e-05
0.00766887
-0.145333
-0.00370188
-0.00836138
-0.107574
-0.00137177
-3.50431e-06
0.0174649
-0.0714454
-0.0590131
-1.67949
-0.00626979
-0.000631628
0.00230001
-1.38905e-05
0.316154
-0.0174962
0.0492907
-0.000527376
1.07824
1.2565e-06
0.0115217
-0.00891363
-0.00458413
-0.00403857
0.240366
-0.000628697
-0.000603187
-0.136235
-0.181358
0.0145988
-0.0133898
0.0352825
0.000892356
0.788584
0.00612246
1.39319
0.000413311
1.17831
-0.340553
-0.0454369
-0.00169363
0.000125003
-0.0250368
-0.511133
-0.148206
0.000221556
-0.0240329
-0.027804
-0.00165325
1.72727e-06
-0.0203897
-7.28473e-05
-0.00022684
-0.0985163
-0.00713105
-0.0334715
-0.0930395
1.03229
0.00020897
-0.0790152
0.271954
-0.1336
-0.0792352
0.00026536
-1.00206e-05
8.73076e-08
-0.000378199
-0.475453
-0.00587046
0.238907
0.018198
-3.20612e-05
0.002875
-0.164325
0.0216089
0.000468867
0.46245
1.80048e-06
-0.215731
0.104844
-0.158948
4.7111e-06
0.00408669
0.269008
0.479946
0.211967
-0.0963565
-0.0267162
0.000912322
0.000815251
0.00556235
2.66707e-05
0.00106962
-0.0575157
1.11033
6.57972e-06
-2.79157e-06
0.0505626
-0.0225154
1.39891
4.63438e-05
0.269847
5.47055e-07
-0.167251
0.476886
0.0529863
2.02056e-07
5.86593e-05
-0.0727415
-1.31181
-0.165298
1.02445
0.152987
0.0174851
0.415295
1.89831e-05
-0.0263039
0.000192001
1.74025e-06
-4.87814e-06
0.789277
-0.746617
5.21471e-06
-1.95938e-05
0.331272
-0.00010269
0.112645
-1.57277e-05
-1.80434e-05
0.264419
-0.0254103
-7.12338e-05
-0.0503306
-0.657853
-8.9728e-06
0.00966177
-0.0911007
-0.0462569
0.020171
1.68542
0.000888612
-0.0615894
0.107764
-0.347959
-5.98622e-05
0.00727487
0.000638835
0.0329575
0.00036438
-1.31399
-1.21364
-0.000108005
-0.660367
0.260351
0.00360889
-2.66115e-07
-0.000941408
-9.54257
0.345452
0.075963
-0.0220959
-1.22297
0.207684
0.356807
-1.63226e-06
0.0448136
1.94037
-0.0171196
0.044781
0.189821
2.26593
0.0480634
-1.51684
0.00113485
0.169361
-0.109177
-0.228536
0.600122
0.126505
0.000293438
0.00049735
0.0506324
-0.165584
-1.45001e-05
4.0243e-05
0.250919
-4.54757e-06
-0.0183118
-0.0797432
0.0736682
4.86593
-0.0159825
-1.27177
0.363496
-6.84221e-07
-2.28312e-06
-0.00093484
-0.0588185
-0.0194928
0.0189572
-0.786914
0.0739414
0.0012586
0.0105976
-0.0188363
-0.0173001
-0.0230312
-0.00786236
0.0561355
-0.955088
3.12991e-05
0.00258154
0.0536263
-0.014895
2.23287e-05
0.378496
-0.0641178
-5.32953e-05
2.20197e-05
6.51848e-05
-1.90365e-05
0.541996
0.0365558
0.00379501
-0.133485
0.139292
2.35863e-05
-0.165783
-0.00010108
0.00193062
-8.06995
3.94903e-06
0.00131176
-0.0203475
0.0139892
-0.0250081
-0.000360386
0.000217252
0.038962
-0.00322141
0.376282
0.0822498
-0.179948
0.015782
4.00839e-06
0.0253464
0.000425126
0.0447369
-1.05613e-05
-0.223364
-0.00866799
-0.00465815
-0.0569928
0.0944087
-0.000771918
0.273694
6.04348e-06
-0.356503
1.21955
-0.00343706
5.64063e-06
0.0164655
6.81199e-06
-0.0598517
-0.00305104
-1.9494e-05
1.96785e-05
0.223584
0.619981
-0.000191601
1.76741e-07
-2.63093
2.3712e-06
-0.100407
0.000682431
0.000987257
0.00108893
-0.00201655
-1.71644e-05
0.437634
-0.00132795
0.0788776
0.000755471
7.07101e-05
-0.827926
0.324895
-0.000177549
0.171946
-4.12946e-05
-0.00955272
1.4378e-05
-0.210595
1.84453
0.0900081
0.00969389
1.50524e-06
-0.00978947
0.131007
-1.18027
-3.04643
-8.92039e-06
3.29549
-0.0274037
-0.0179217
0.131862
0.00410653
0.00337958
-0.214672
7.04888e-06
0.00207968
-0.633755
-0.0782718
0.000150267
0.0141255
-0.682087
-0.000566186
-0.027675
-0.00727516
0.199963
0.226616
0.00135759
0.014313
-0.000187902
0.0010131
-0.00470127
-0.0078063
0.00443328
-0.00102102
-0.000638064
-0.00212874
-3.65342e-05
-0.000170122
-0.00857983
-0.00536634
7.43544e-06
-0.00126121
1.03874e-05
1.0934
0.0058267
0.0077095
-4.16515e-07
-0.020639
0.277348
-0.000193977
-5.69379e-05
-1.81949e-05
-0.534012
4.7146e-06
1.21537
1.30085e-05
-0.0100118
-8.8366e-06
-0.00737402
0.00857147
0.000991814
0.0503874
-0.000809142
0.0545819
-2.49377
9.36638e-06
1.4498e-06
-8.99825e-07
0.0123664
0.00893244
-0.539553
0.113505
-0.141104
6.14028e-07
-0.000737736
0.637196
0.0539087
-0.0635907
-0.00261403
-0.0976782
2.57248e-05
0.661699
4.77462e-06
-0.0599767
0.00315589
-0.110985
-6.44153e-05
-0.0151475
-3.66217e-07
0.0909468
0.0123038
0.00169877
0.0176885
-0.178153
-0.0185476
2.17275
0.00434498
0.00256643
9.93912e-07
-0.151377
-0.00090996
-0.00494804
1.74491
-0.00955539
-7.45282e-06
-0.00109979
7.68961e-06
0.0473377
0.00148942
0.00102835
0.0338944
4.81716e-06
-0.000104571
-0.0130725
-0.00224907
-0.0353039
1.54372e-06
0.00697105
-0.00196484
0.147884
-4.01007e-05
2.29468e-05
0.316348
-0.250815
0.329201
-3.84935
-1.02697
-0.0514555
-1.34641e-06
0.0024354
-0.0209738
0.0738371
-1.27865
0.00106834
-0.00934467
0.00124783
-0.000757441
-1.54638e-05
-0.0341855
-0.177544
-0.00248332
-0.0334714
0.000776408
0.289388
-0.000837247
0.00211144
-0.000700058
-1.21957
-0.0757251
0.108493
-0.000535239
-1.27915e-05
-0.00229354
0.000144454
-0.0409671
-0.160792
-0.00113466
-0.000135615
0.0968545
-0.0548665
-2.79706e-05
0.269776
0.303233
0.0155387
-0.0266686
0.0052781
0.13342
-0.000781336
0.00715941
0.293634
-0.0784496
0.0106028
-1.34983
0.0271633
0.000700626
1.09584e-06
8.30848e-07
-0.139592
0.103196
0.000912323
0.314332
0.0854756
0.104282
-0.01042
-6.2531e-05
-3.44645e-05
0.000311648
0.0330855
-0.764625
-0.0282902
0.00121107
-3.45407
1.18516e-05
-6.47327e-05
0.398945
-0.000136359
6.77219e-06
9.28736e-06
1.19042
0.105644
0.000111897
0.194733
-6.2453e-06
-0.00011477
-0.00644082
0.350946
0.0209317
-0.0320841
0.557551
0.0315413
0.646375
0.0841376
-0.006992
-1.50614e-05
-1.14325e-05
-3.764e-06
-0.0282621
-0.155581
-8.11135
-5.36791
-5.35854e-05
0.000132302
0.000392742
-0.0203974
4.00929
-2.60623e-05
0.0232819
-0.0201937
-0.00045296
0.000228247
0.0107217
0.205154
0.00081358
-0.000141298
1.99504e-05
1.13848e-05
1.75039e-05
-0.108187
-0.00597607
0.0174436