/*--------------------------------*- C++ -*----------------------------------*\
| =========                 |                                                 |
| \\      /  F ield         | OpenFOAM: The Open Source CFD Toolbox           |
|  \\    /   O peration     | Version:  v2012                                 |
|   \\  /    A nd           | Website:  www.openfoam.com                      |
|    \\/     M anipulation  |                                                 |
\*---------------------------------------------------------------------------*/
FoamFile
{
    version     2.0;
    format      ascii;
    class       volScalarField;
    location    "150";
    object      omega;
}
// * * * * * * * * * * * * * * * * * * * * * * * * * * * * * * * * * * * * * //

dimensions      [0 0 -1 0 0 0 0];


internalField   nonuniform List<scalar> 
14479
(
0.0519752
0.0412605
0.0280397
1.39108
0.186915
2.84055
0.0222696
0.0218737
0.022483
1.45365
0.136697
1.44131
2.50004
4.21875
1.30896
6.93041
0.300113
17.6712
3.16605
0.101286
0.0220458
0.0240504
5.2989
0.21098
0.0225786
0.060857
0.0619202
1.45838
1.12069
1.29193
18.2716
1.86247
2.943
0.0219539
0.0234481
0.0223113
0.0221356
3.75229
0.0276592
0.132332
1.30571
0.0271542
0.0322052
0.0263289
10.0282
0.0784132
8.88564
7.21119
0.0236225
0.0823817
0.0220932
3.92513
0.329985
0.117867
0.0235342
0.0223572
0.0876506
1.36024
0.0233556
0.10587
0.0282699
0.0224013
0.358014
0.136842
2.49162
1.7682
0.0352668
0.0294703
7.1467
5.1588
2.19794
0.107964
1.77282
8.71364
0.0220533
0.0225441
2.16724
1.4115
1.99945
2.29236
11.9914
0.0221679
0.0340873
0.107688
0.0234767
0.0726626
0.14812
0.0221102
2.31762
0.0222959
1.45785
1.69457
4.70135
1.42941
0.0351015
2.77989
0.0233664
1.48774
0.0304314
1.48087
16.0571
1.35845
0.10658
0.0219477
0.03134
0.0231582
2.82134
1.93217
0.0974433
1.31345
0.0305483
0.0242112
6.23345
0.119389
0.0579966
0.0259171
0.0224521
0.305709
0.0240191
0.13042
0.0232933
0.0221283
1.73696
0.0313449
1.25434
0.0220939
0.0272537
0.0223496
0.0219975
1.35999
0.0223381
1.57299
9.79429
0.0221542
0.0808127
0.106489
0.522573
0.0227569
3.89064
1.38328
0.0228267
4.38373
0.0271771
0.228486
0.122531
0.0233543
1.41144
0.0226082
0.0450332
0.0244386
2.6817
0.0281795
0.0220487
0.285535
0.33641
0.0414397
1.49242
0.0222738
2.61464
2.11699
1.49163
5.13038
2.21364
0.14162
1.45345
5.08188
0.0220564
8.43688
0.0221053
0.0234687
0.022535
0.0712632
0.0223044
0.123645
0.0221958
0.237304
0.0221167
0.0239077
0.109145
0.0236067
0.735816
0.0220538
0.0240928
3.41536
0.0221056
0.0787622
0.0313277
0.0274524
0.473297
0.276682
0.0221223
1.63951
0.0316652
0.0222799
4.05764
2.08773
0.388913
2.07556
0.0332695
0.0222006
0.0256341
0.796553
5.08567
0.330842
2.972
0.0255628
0.0228189
0.116062
0.0239106
0.0818821
1.29555
1.69303
0.0241821
0.0289477
0.0221005
0.134
1.52263
2.70611
0.0221401
0.0453959
0.370749
1.3569
1.73294
0.0377522
1.97746
1.43074
0.0243038
0.0236923
0.0702529
0.0221117
0.023486
0.0222435
0.0339147
4.02714
0.0264956
0.025436
0.0870356
2.22731
0.022128
0.0229993
1.39243
0.126921
0.0311382
0.0660432
1.63761
1.32553
0.0225505
0.022255
17.5864
1.93061
0.0218073
0.107309
0.022091
0.0220505
2.05527
0.293861
0.0221454
0.519997
0.0625356
0.213138
12.4273
6.04821
3.07045
0.081004
0.0221458
0.0405546
0.0221476
1.69044
1.242
6.92068
1.45698
0.0223697
2.82756
0.0231341
0.0237676
5.89057
2.03779
0.0232035
1.6948
1.28306
3.27585
1.67776
1.48693
13.0148
0.0221943
0.0221355
3.25614
0.0228198
1.95108
3.15074
1.56575
8.23547
0.102257
3.89197
0.0222981
0.0460817
0.0225303
0.0576543
0.0221069
0.033545
0.0221061
1.57759
0.0224874
0.0490342
0.0459214
3.47775
2.63322
0.321595
0.025057
0.0267935
1.33754
0.134688
0.154332
0.0226529
0.0228342
0.0222668
1.42775
0.0568381
0.0221129
0.0220357
0.0241051
0.02213
0.0234106
5.34937
0.305729
10.8879
3.37682
0.143086
1.71178
0.0222687
0.0423169
0.0581844
2.1144
2.85955
0.332214
0.0221024
0.0319318
0.129578
0.136742
0.0630803
3.51332
0.0346518
2.72515
0.0219559
1.24976
0.0221823
1.68083
1.6753
0.0222073
0.0633097
1.38376
1.74653
0.0278591
0.0220974
4.20019
0.0220846
0.0223289
1.36002
0.0273005
0.0223894
0.0224418
1.29604
1.81351
0.0225147
1.76525
0.0346737
0.0733904
2.9331
1.80076
5.16497
0.142875
2.87927
0.0765343
4.41108
5.16405
6.53608
0.101927
0.0525168
3.60417
0.02251
0.0226134
0.0358274
0.141384
0.0583741
2.7156
0.114157
0.022087
0.249443
0.0221107
0.145824
0.0641397
0.0396731
1.78038
3.95532
4.85923
1.7471
1.02676
1.56398
0.022273
0.0221762
5.57484
3.24137
1.24406
0.0357118
2.12586
0.0264812
2.60463
1.63352
0.0833157
0.0222586
1.4417
2.21323
0.0220995
0.0221677
2.43004
0.0219531
0.613192
0.327207
0.0221803
0.0361974
0.0297783
0.0413383
3.7469
0.124116
3.11294
0.0400544
1.34094
0.0220706
0.0324551
0.827025
16.618
0.119498
1.93127
0.0243348
0.0406459
1.50298
0.0488323
1.81633
9.64421
0.276821
2.81145
1.43935
1.91729
0.0220655
0.123025
0.033436
0.0642164
1.25442
0.0302222
0.0262541
0.0221435
1.27069
0.117301
0.11858
0.0222936
0.244025
0.0224417
0.110881
4.83727
1.26518
0.0303701
0.0223453
2.82472
0.176862
3.6599
3.09666
0.0291013
1.86209
3.40634
0.0220318
0.0224136
0.0220129
2.18861
1.77723
3.95932
1.6513
1.30526
2.73769
0.0531431
0.307202
0.0240178
2.08304
0.0623631
0.233203
0.0256101
0.0715919
0.02227
6.59366
0.857616
1.67193
4.86884
0.022179
0.0219542
1.47385
6.71661
0.0227709
0.0523287
1.3835
0.185447
0.0291176
0.027317
0.20611
0.0312884
0.0222404
1.61771
3.96086
2.62997
0.0399451
0.0233285
1.4642
0.0368457
0.0702018
0.0350179
3.40476
0.0222033
0.0221263
0.0221863
0.0221445
10.1227
0.151135
2.52407
1.2907
2.7113
2.35193
1.65716
1.49986
0.0224211
0.0302128
5.46553
1.31122
0.0221546
0.158229
4.13575
4.45782
0.0486499
0.104433
0.217102
6.36641
0.826063
3.52125
4.23769
2.93286
0.0433955
5.10731
0.0226615
0.0221083
3.57907
0.0221372
0.0244896
0.0436173
0.0397266
0.328716
0.022024
0.0221208
1.06866
0.0224806
6.39651
2.86273
1.39569
2.48741
0.0405417
1.30028
0.0314419
1.76696
0.0224912
0.272044
0.0529442
0.0221785
0.0228223
0.0310701
0.0306167
0.022044
1.63634
4.76851
0.0301267
1.57046
0.867551
0.0224076
0.0308446
0.156695
1.86384
0.0224627
0.0559102
0.0291832
3.03912
0.0224105
0.0220267
1.65671
1.78038
4.49108
0.0600072
0.022184
0.0221629
8.35587
4.99594
4.90273
0.0219649
0.0221426
0.0254289
0.0222949
1.81463
0.0221226
5.95727
2.3766
13.9932
0.0221154
2.65992
1.2897
0.0235154
0.0779476
0.0229976
1.39227
0.0481455
0.0221031
0.0221236
0.0221602
1.70779
0.252617
2.29944
0.0222221
0.0220499
0.057222
0.0430403
0.0289242
1.76507
7.1969
0.0223246
0.0220771
0.0338329
1.65997
0.057261
0.0352699
0.0221874
0.489041
0.0471202
0.0220871
0.0219282
1.38823
11.4498
0.0221432
14.0913
0.3222
0.0220861
5.39834
4.36719
0.0224061
0.0261789
0.0228577
0.0366633
2.81186
5.33048
0.149924
0.0220787
1.42655
2.32701
11.2585
1.63387
0.0502761
0.0221511
0.0264011
10.0392
0.0219022
0.0227861
1.52053
1.69259
0.025331
0.0228959
0.356122
3.15652
0.0220651
0.0219627
0.0290196
1.75714
1.31377
3.78996
0.272538
1.73689
0.0355072
4.75771
0.0619217
0.0222504
0.029568
1.90967
0.0220859
2.00418
0.0313714
1.28465
5.22248
0.0529277
5.40999
0.0228425
0.0478095
1.78091
0.835866
3.0037
4.24094
1.85149
4.31742
0.0322126
0.400295
1.29208
1.40759
2.56247
0.0221315
3.08639
3.29813
0.283068
3.31223
0.0260421
12.8287
0.022063
0.027037
2.26426
1.96589
2.13639
0.0227371
0.0226725
2.04266
1.70989
0.14307
0.639277
5.01321
0.025629
1.78553
5.44386
0.0234987
5.36307
1.43035
3.65266
0.0220079
0.0228428
2.76345
0.0222724
0.0221043
0.0219161
0.0223914
0.061361
0.0659521
0.0265065
0.0221133
0.0222388
0.0221398
0.022287
0.0222775
0.0235473
2.24364
0.662734
1.30163
1.28713
1.42492
0.198807
0.032283
0.0224483
0.0250454
0.0652209
3.50162
0.0272056
1.71602
0.0375433
0.0297858
0.472963
0.0365221
4.53526
1.29575
0.0222076
6.05549
0.0221013
1.7842
2.26268
0.133709
0.0965364
1.67737
1.74528
0.0499431
0.0222752
6.11056
1.97304
1.44368
0.0240762
2.00253
4.64673
0.0221905
22.4375
0.343121
0.0219565
0.044563
1.33866
0.191169
0.0275316
1.56766
0.0220815
12.1552
4.42694
1.60943
5.59398
7.69544
1.32999
0.364363
0.327969
0.161003
2.54358
0.058295
0.068309
0.0980847
0.022426
1.37188
3.62438
0.0219541
1.99445
3.35306
1.32695
3.13283
0.022803
0.0377164
3.89043
1.52278
0.0871814
2.71214
0.0529602
19.6957
0.0261653
3.53876
0.0263033
1.59078
0.0377323
15.7992
0.126056
0.0239993
0.0590196
0.022216
0.0816056
3.82719
25.1195
4.13082
1.2578
0.120805
2.0903
0.0258543
1.57505
0.580724
4.57429
0.0224906
0.0341168
0.0983463
4.41249
0.02353
4.66527
0.331073
0.0219551
0.0688897
5.63683
0.131464
0.340972
4.1369
1.34488
0.0225843
1.55613
0.0293919
0.0220055
0.0568071
0.0225371
0.0293716
0.0243936
2.09746
0.0313338
1.53307
0.0228269
0.0219544
0.0221025
0.0221689
2.47987
1.37079
2.8565
1.49872
1.36193
5.15633
0.0630894
2.51235
4.70991
2.08994
4.41502
0.508168
1.35627
0.0402015
0.0222957
0.0225035
0.0222544
0.110548
0.0884416
0.0223468
0.0702331
0.0531227
0.0864832
1.32301
0.0224676
0.0222485
0.0780132
7.38565
1.28616
0.0339833
1.33644
0.0220133
0.112193
0.0228119
0.0249082
0.0221282
0.0250367
0.0497538
5.04683
1.86202
1.69592
3.56505
0.0220715
0.115282
1.36105
0.0221249
0.0221582
12.2662
2.79504
6.25208
0.0261371
0.513656
1.43269
0.906132
0.0219407
0.022126
3.45426
0.35022
1.4451
0.0320036
1.69688
1.23927
0.0800182
0.0219747
0.55134
1.32759
4.07681
4.31032
1.2929
0.299401
0.0249108
19.7444
0.0222616
0.033537
0.0219289
0.027531
7.51047
1.52056
0.31903
0.0221293
4.56331
0.0299622
1.47704
2.39991
0.0682258
0.0238601
0.0715771
1.58771
0.0221096
0.0236641
0.0224722
2.99039
0.0220011
0.0222735
0.718106
6.53353
0.247488
0.0560055
0.0222477
0.0222807
9.06128
4.86809
2.70346
0.0222441
0.223172
1.32062
0.0316712
0.021854
0.0328325
26.6448
0.0792312
1.62231
0.0255888
1.29914
0.113687
0.0401267
0.312129
0.0910554
0.0221823
0.344257
0.0222096
0.0301475
1.85735
1.96331
0.0221328
0.966929
0.0225084
0.0314752
0.0222234
0.0245325
1.69699
0.0222789
1.62008
0.0377663
2.39494
0.0220132
0.0643721
1.88837
0.0220782
0.0306066
1.70928
1.78645
0.0597039
2.76088
0.0505765
18.242
0.0225463
0.0407711
1.68234
0.0639375
0.0221693
0.022408
1.49374
0.0220665
5.79386
9.70933
0.0973665
0.0500224
5.7212
8.13463
2.15362
0.0222004
0.0493843
0.078929
0.0366265
0.0221201
0.0828884
4.8648
0.0709625
2.30742
0.0240746
1.57492
9.33402
0.244361
0.279313
0.325906
0.0221427
0.141696
0.0583613
2.83098
1.75905
0.0274635
1.71681
1.32973
0.0574738
0.529168
3.5336
4.8413
0.392636
0.0223334
0.384001
0.022149
0.0221324
0.0279522
0.0221337
3.80919
2.53261
3.60773
1.71743
2.77825
2.36128
1.29799
0.454408
0.0742416
0.0409537
14.6225
2.54234
12.8315
0.0221604
0.0222785
1.55493
0.025946
0.0410038
0.0221269
0.0929452
0.0227996
2.45403
0.031611
0.19477
0.0327168
1.54172
0.284306
2.34907
0.0222545
0.0241316
0.105353
0.584936
0.022655
0.0365923
0.0405715
0.21045
1.74062
0.0259187
0.0220074
0.053262
3.5849
0.0221318
0.0509277
0.971009
4.91219
1.28643
0.0363432
9.12045
0.0219732
0.0222405
3.30985
0.191404
0.104335
0.0221336
0.106566
1.37425
1.30794
2.19323
0.0224921
0.0221669
3.18154
1.29278
0.102846
1.29381
0.069496
0.0222388
0.0262203
2.67108
0.0229308
1.54481
0.198262
0.0244374
1.64823
0.420361
1.45384
0.0222584
0.0379116
0.822391
0.0321471
1.50984
1.27246
3.92574
0.0379378
0.0527006
0.026337
0.429762
0.0220962
0.0366188
0.131907
0.0220864
0.208455
0.0243326
0.0222379
0.719104
1.53149
2.50564
9.31826
0.830261
0.0304387
0.0617667
0.0221746
0.0295702
0.0219124
4.11333
0.189007
0.0380444
0.0360356
0.0522919
7.85699
0.132943
0.0220221
1.28161
1.988
1.33274
0.0221071
0.0221752
0.0235878
8.84494
0.964208
1.49733
0.291701
11.0019
0.11616
0.0227548
0.0349684
0.028604
3.36691
3.51286
1.43396
0.0242938
0.0331652
0.0231643
0.0219616
0.0221211
0.0220186
0.0220027
1.39874
1.0807
0.0537442
1.78262
1.24416
0.0269303
0.0352098
9.35335
0.0222776
0.0275898
1.78122
0.0221354
0.022011
0.0350307
1.54243
0.0220637
5.12813
0.273647
0.0221614
0.0220715
2.33339
18.8802
2.12863
0.0322697
0.022134
0.355573
0.0316708
0.022007
1.41806
0.0223371
0.630692
0.13354
1.26901
0.0526673
2.55185
0.0354926
0.0217724
0.270045
1.76299
0.0231897
2.72073
0.0791086
0.03352
2.43518
0.0230765
0.0221179
1.31203
6.18119
1.7899
1.61005
0.0219269
0.0817663
0.7039
0.803033
1.89117
0.0316004
0.0281493
0.095515
0.0363457
0.0373735
0.0293244
0.0221729
3.51252
0.0305957
0.0221171
2.53987
0.689173
0.359069
1.27156
0.0285846
0.0222684
5.25993
0.0518915
2.58544
0.118194
1.25368
0.362683
0.0225978
0.0408615
5.74251
7.86894
0.0333931
1.679
1.44602
2.76837
0.021954
0.021994
0.115574
1.46265
2.02656
2.81957
13.2329
0.0219316
0.0221617
1.68338
0.125621
1.16287
0.354748
0.0242
2.4841
0.0652402
0.0755569
1.73741
0.0221595
0.20058
0.039848
0.0584503
0.0581986
0.137667
0.0220985
1.35866
6.98132
1.69673
0.0647543
0.0223553
0.0352564
0.0400018
2.52244
0.0231938
0.0221464
0.0406884
8.7191
0.0221133
0.285585
0.0465088
2.52717
1.33766
1.58554
0.4802
0.500384
1.25845
0.0226146
0.0220989
0.486181
0.0225412
3.04162
2.06368
0.0220815
0.0397158
0.022269
0.0221462
1.75974
0.105214
2.08708
0.0230412
0.0780241
0.0221699
1.51317
0.022416
0.034898
2.33603
0.0231818
1.30695
0.29685
0.137785
3.78201
1.74412
0.0298363
0.0220519
5.38688
0.050856
13.3711
0.0261411
3.35997
0.022189
1.7679
2.47981
0.103601
1.62175
1.27314
0.895648
0.0238214
2.23607
0.342664
1.27947
0.022113
0.0234655
0.0634965
0.375712
0.62959
0.147655
0.0245311
0.117572
0.0251414
0.035715
1.28507
0.050619
0.02233
1.35328
0.294138
5.89616
0.064317
1.74637
0.0607858
1.60888
0.0526885
0.0337121
0.0288924
0.715971
0.0618558
17.4848
2.21718
0.111516
0.022097
12.9141
1.27562
0.0729227
0.0220577
1.41763
0.534112
0.03224
0.0220272
1.69899
1.28671
0.154777
0.681467
0.0988921
0.0255385
1.567
0.666643
1.69808
10.2768
1.36469
4.94202
13.5181
0.0303599
0.540094
0.568652
0.0585564
2.64178
0.0222577
4.03675
2.07094
2.37122
0.0221325
0.0250233
0.0574334
0.0238562
1.70093
0.0596383
0.528229
0.0326049
0.127445
1.26182
0.024525
0.0223645
0.0219515
0.0234708
0.048312
4.74182
3.10596
0.0348701
0.0357242
0.0288862
6.06778
6.28204
3.58191
0.13424
0.0220989
0.0301556
2.73186
0.218742
2.0601
1.34007
0.0224101
0.220072
2.30335
1.55608
0.0222691
0.0221177
0.0239547
0.0768878
1.35064
0.0220213
0.113814
0.0245855
0.0220833
0.0226332
1.50496
0.0221397
1.8772
0.0225512
0.0254129
2.02936
0.0220493
4.83184
1.28595
0.114093
7.34739
0.0330618
1.73319
1.36308
1.33358
1.48289
1.5706
1.58799
2.57005
1.32813
0.12772
21.1298
0.095211
3.51083
0.159045
0.100615
3.92949
10.3046
3.25267
0.105505
1.38053
3.9582
15.9678
2.47095
11.8975
5.56317
0.0221539
0.405094
0.0225118
2.67011
1.28583
0.0250652
1.74182
0.650802
0.0253842
3.85455
0.022041
0.0908185
1.50619
0.0226415
27.5868
20.6288
0.328667
2.179
0.0229889
0.0583822
2.43954
0.0222494
0.678381
0.112866
0.0230162
3.56923
0.206885
2.51537
7.61294
0.162499
2.88296
0.991037
0.161636
9.05912
2.67694
0.0556901
0.0221758
0.0238494
1.35173
4.26043
0.0271756
1.34908
0.022182
2.72564
1.24496
1.90987
1.64785
0.0267349
2.51252
0.0506895
12.2034
1.97734
1.42142
0.0375465
1.59802
0.0311922
0.0688189
2.47182
0.11142
1.7745
0.0968365
0.033186
2.41676
2.08933
12.9399
0.0504512
0.0406165
1.4339
0.0222722
0.0222525
0.0297682
0.022324
12.8389
13.1588
0.0222015
1.2697
1.54009
0.0579381
0.0282207
0.0245011
0.255665
0.0249351
0.0221419
0.0221977
3.0729
1.41105
1.36831
0.0308572
1.28486
4.19376
1.7077
0.0220535
0.0218411
0.0220573
0.0892203
0.05356
2.42101
0.0674144
0.0294617
0.241228
0.022853
0.0221603
0.025432
0.118382
0.0741176
1.34306
0.882345
0.0221597
4.74306
0.0406832
0.0808056
0.108574
0.0429602
0.0259535
1.76169
0.0222833
0.0222515
3.5354
15.3693
0.0542312
1.56551
0.0511955
1.6959
0.175274
1.42804
1.35208
0.0221221
3.80753
0.0219498
0.022105
2.56026
2.19809
0.022149
1.49829
4.04855
0.111365
0.0221959
0.263699
2.21433
0.102744
1.33113
1.34331
0.0220204
1.25313
0.042327
1.37181
13.9827
0.0221718
7.00115
0.0319332
0.0221847
0.0246278
0.0221012
0.222475
1.19366
0.0222369
0.146885
0.229513
0.0370182
0.025245
1.34212
0.0218184
1.60801
13.4081
0.0386677
0.0518967
0.0220228
18.6263
0.0221734
0.059027
0.0243274
4.3856
0.852664
1.45495
0.0493851
9.87811
14.8242
1.31714
0.0218293
5.88387
0.155427
2.69152
0.0236104
2.57512
2.78745
1.26501
0.118015
0.0221126
0.0222332
0.100451
1.45787
0.0222569
1.48586
0.0225311
2.07814
0.0278192
1.31208
0.0780251
0.0219976
0.0227801
2.24012
4.82896
1.34887
3.86874
1.74158
2.01686
0.707552
0.049485
0.0221115
0.0265062
0.0260185
11.56
0.587246
0.0617512
0.0309871
6.20518
1.30641
1.31618
3.33396
1.65454
0.0219174
0.0244433
0.042665
0.0902012
1.34545
0.0223228
2.05362
0.0221598
2.00787
0.714418
0.0250596
1.41689
4.23509
1.27693
1.39301
0.0354392
0.142334
0.0254635
0.0485306
0.0986001
2.22957
0.24361
0.246716
0.0221294
0.0220216
0.0401083
12.8593
5.5568
0.162991
0.0220593
0.0224481
0.0223266
7.38258
0.483068
0.0247733
0.090995
4.4543
5.82831
0.0406017
14.7833
3.44276
0.0221949
1.91493
0.107636
0.0221179
0.0224159
0.0278533
0.0221452
2.47824
0.0230486
0.0247764
0.0222665
0.0349609
0.0221551
0.0229549
1.60563
0.0239274
1.35041
2.61489
0.0246942
3.55367
1.30137
6.77946
0.0297043
1.36202
20.7279
1.80413
19.8061
0.0222599
0.12861
1.85783
0.0221709
0.111737
0.0261657
0.248488
0.0813189
0.034766
0.0534506
9.53144
0.0956768
0.113015
0.0268264
0.785439
0.0394043
1.41141
1.33722
1.77458
15.9669
0.0222787
0.0283665
0.022163
4.25562
0.0222856
0.0908689
0.0758677
17.9514
5.30647
1.31698
0.0239119
1.49849
20.2162
0.0227764
1.89096
0.201671
2.07412
6.04479
0.0250159
0.0235685
3.56352
1.32532
2.26779
1.50694
1.58414
0.0221229
1.53663
2.60178
0.926734
1.414
0.0260148
0.0298071
0.0412386
0.0230607
0.126765
12.3608
0.140607
0.031113
0.0221661
7.95664
1.93684
0.21993
2.11531
0.0404566
1.15933
2.59477
0.022193
6.1382
1.35596
2.34692
0.0587101
18.3603
0.0221539
0.0469874
2.11105
1.35962
0.301442
0.106308
1.47589
8.72641
1.99004
0.0226069
20.0201
8.05013
0.352796
16.0718
0.0301662
1.01891
0.0223581
0.0288426
0.0223995
0.0577565
0.022667
0.0469825
0.084042
0.152603
0.0237068
2.10508
0.0310935
0.0221704
0.024125
0.0474005
6.67882
0.0220992
1.28521
2.17692
0.12082
0.0284601
1.27426
1.25672
0.0222101
0.0502716
0.0221864
0.0257571
1.66437
0.802652
1.50894
1.54977
2.6526
0.0221635
9.27494
0.0224001
0.0371317
2.27534
1.33321
0.023045
0.304011
0.0914683
0.0227353
0.187243
0.0223389
4.14422
0.0229507
7.21871
1.8294
0.0274724
2.14412
0.0222119
0.0221553
1.69449
0.0467259
1.40252
1.43628
1.52412
0.0220153
0.0549231
0.0550876
0.0395004
0.0326983
15.073
0.0475765
0.0222271
0.0393781
0.070562
1.39111
4.87065
0.0222094
0.0524189
1.70433
3.0265
0.0525054
1.39719
0.0235467
0.0294981
0.0575857
0.0221617
0.0310174
0.0222639
1.59704
0.066075
3.2767
4.31744
1.42121
1.67323
0.0220134
0.0270586
0.0458571
0.0221656
0.277897
1.45759
1.95141
0.0259115
1.30331
0.0221168
0.176075
1.29573
1.39716
1.35562
1.95645
3.20362
17.3236
0.0253003
0.022147
1.30533
0.0270695
0.0222434
0.022132
3.61067
0.648804
0.0926423
1.52219
0.0221685
1.31141
0.0571122
1.72756
3.17321
5.42612
0.0275517
0.05978
3.72097
0.0546324
0.215015
0.14685
0.0358815
0.11566
0.0299453
7.99258
3.51806
1.40435
0.0474982
0.0220373
14.0356
3.23852
1.6295
0.0221744
1.30194
1.53428
1.29966
2.23877
1.74264
0.0291027
1.78932
2.14528
1.84764
0.0225634
5.10579
0.0231991
0.44419
1.74505
8.65646
1.85032
0.0222221
0.0351428
0.0728506
1.6013
0.0355427
2.36952
0.0242512
0.305178
5.59895
0.0223893
0.0222039
0.116381
0.0252
0.0231231
5.09473
3.06351
0.0492222
0.0227335
1.32519
0.0232542
0.0221471
0.0231398
1.51234
1.34569
1.42879
0.0228985
7.25502
0.0222626
2.28894
2.81156
0.0221687
0.0417421
0.0286035
6.51824
0.0477325
0.0821455
10.6225
0.0230272
5.11123
0.0219562
0.0230407
0.0220575
0.0221596
0.0223875
0.0232084
0.716375
1.89106
0.256537
0.0401271
0.120157
10.7752
0.40402
3.85964
9.29165
0.022163
3.83512
0.101228
4.78455
0.0280977
5.33942
0.0240347
0.0947374
0.0277864
4.97932
0.0221069
1.29369
19.2595
0.0238461
0.0734508
3.94768
0.0484773
0.0333045
0.0222457
6.09991
0.0243176
0.383781
0.0222247
0.0227278
1.49364
1.89274
1.98316
0.0222561
0.0257913
4.14698
0.0221663
0.0220405
12.3565
4.47065
1.49108
0.0222132
0.0352985
0.0221604
1.76737
0.0503298
0.0231348
2.18717
0.411041
0.0473509
1.5205
0.0875878
0.0221301
0.0276529
0.0222032
1.4959
0.0220922
0.0234076
0.0221917
0.155754
0.0221754
0.0221333
0.0236016
8.07273
0.0341851
0.0250838
0.0549117
0.125514
0.0430253
1.3621
1.75121
0.0283005
0.0221973
0.0565437
0.169578
0.0987207
5.49222
1.51081
0.0231578
1.67783
0.0220659
2.91423
1.78526
1.42015
0.0227526
1.41792
0.0221376
0.0315459
0.0479206
0.0553734
0.0381856
2.10398
0.023753
0.0250822
0.140608
2.25378
0.0449186
0.0653165
9.19665
0.0249369
0.859433
0.0330932
1.14788
0.0296008
0.903103
0.316552
0.16333
0.031505
0.0234519
1.61927
2.3599
2.51438
0.0233984
0.0632831
18.8398
0.0478283
0.0219507
0.0555658
0.0237573
0.023412
0.11935
0.0682411
1.4149
1.79476
13.2547
0.0247245
2.51976
2.01479
2.33809
2.30344
0.0234093
0.022159
0.0223731
11.5094
0.507838
0.0337838
5.93536
1.40483
0.0236235
0.0482057
4.02643
1.58543
0.0225086
16.1773
0.0220569
4.2507
0.22424
17.1185
0.0348948
0.0512536
2.42828
0.237019
1.98198
2.53584
1.31923
0.0234258
0.0257657
0.055865
0.0222769
0.0369302
3.19998
1.37801
0.0222687
0.0220362
0.163255
1.47311
0.626193
0.0347567
1.93291
0.0239487
2.25508
0.241225
1.3485
0.022425
0.024747
2.19959
14.6006
2.53367
1.97711
0.205691
1.58918
4.63544
0.02199
1.32292
0.0382494
0.0220701
0.0220123
1.14002
0.239497
0.0219856
0.0221397
4.99519
0.0230717
0.224871
0.0225026
0.0222756
0.290502
2.30865
0.0224209
1.96757
0.752154
0.0220231
0.0403402
0.196249
0.133972
0.109918
2.61938
0.0242249
0.863381
1.4539
0.204619
0.0239077
1.31052
0.0230563
0.0938345
0.0233959
0.526575
1.62362
0.0223782
0.364988
2.52911
0.030486
0.0221214
0.033448
12.2517
2.94554
1.59095
0.106531
0.423512
8.42123
4.50502
0.0225152
2.62441
0.740796
0.0932202
1.40955
0.254453
1.21389
1.58582
3.10362
0.0373243
2.03857
16.088
16.3903
1.7668
2.26016
0.0243258
0.0411438
1.54967
2.20165
0.0221493
0.0222484
6.59101
0.0222646
1.34429
1.64907
2.72229
3.73756
0.0288463
0.557108
3.13425
0.0219408
0.0222591
0.0468094
0.379072
1.44861
1.47606
1.32567
1.56414
0.0338338
1.59382
1.45873
1.78721
0.0574723
0.0504654
1.5932
3.52341
0.0228221
1.25106
0.143334
0.0470914
0.0221649
3.50207
1.67725
0.0221515
0.0221629
0.0228217
0.0222213
1.01775
1.41114
0.0346609
2.14908
0.363999
0.0221468
1.74047
0.026784
0.0253148
12.3748
0.0221907
0.0258995
1.30184
0.0594836
0.125512
0.0229742
0.0223171
1.54462
0.0526666
4.19604
1.60113
2.19467
1.36825
0.0217731
2.96213
0.023372
1.40175
0.0221372
15.3155
1.30988
0.0252747
1.59517
1.51063
0.0243242
0.217648
0.0219387
6.14006
0.339212
0.0327197
0.0221165
0.0556511
0.0222799
2.09478
0.0465894
0.0220679
0.0222528
3.47127
0.265357
0.0395375
0.0219618
10.4786
0.0267112
1.51728
0.0239253
0.0256926
0.0258916
0.0519592
0.0222132
0.2613
0.0254139
1.51013
0.0249874
0.0239763
0.78473
2.33954
0.0234315
3.40927
0.0256224
0.0408088
0.0221267
0.355369
0.566601
0.175821
1.72563
0.0220752
0.167525
0.261871
1.09587
0.872439
0.0221342
2.20145
1.38184
0.055519
2.60052
0.0319283
0.0572281
11.1498
0.0218179
0.0262139
1.06472
2.65686
0.0224718
0.0560909
1.24971
0.0236135
1.39578
1.91184
2.82549
0.494515
0.024584
1.6749
0.025331
0.0236891
0.53904
0.0896186
0.0565141
0.0229603
0.0385329
0.0501083
0.022253
0.0223841
0.0258812
0.0368924
0.0221137
0.0248473
0.0222889
0.206653
1.36038
0.054182
0.0219568
0.0798351
1.64852
0.0370296
0.0227111
0.0221725
0.86558
0.0217749
4.47249
0.0228405
0.0484143
0.0219996
0.0845279
0.0853848
0.0340462
0.085954
0.0291414
1.43131
8.23513
0.02214
0.0221655
0.0225918
1.26687
1.61282
1.51719
0.158207
0.20718
0.0219594
0.0229741
0.382002
3.32686
2.49997
0.0522728
2.21701
0.0221561
0.332138
0.0220116
0.299616
0.0553018
1.82036
0.0236797
0.0479565
0.0220626
0.231125
4.80635
0.0330246
1.26121
2.27278
1.61781
0.470669
0.028404
0.0306834
0.0221638
4.42051
0.0284714
0.107263
0.403609
0.0385365
0.0221749
0.0253718
0.0223413
4.06557
0.0257708
0.0229258
2.19603
0.0221125
0.038127
0.0842657
0.0250999
0.200311
0.022297
0.0544713
0.0290355
0.105403
0.0222485
0.0221709
0.372581
0.251706
2.93717
0.257987
0.840482
1.55235
0.0221941
1.7355
0.146235
2.98748
0.234877
0.0241423
0.0580117
0.0269396
0.0228331
0.0225354
1.67407
0.179708
0.0365943
1.96145
0.0253846
2.37119
0.0325617
0.0541938
0.0236562
10.1063
1.9781
2.83922
0.0258344
0.0220188
0.0352496
0.0237582
1.53494
0.178218
0.0279873
0.0221684
0.18628
0.0999427
0.0228016
5.5333
2.90998
0.0468061
1.67106
0.0476787
1.70947
0.028692
0.0570325
3.27623
0.150484
0.0390436
0.511918
0.0999867
0.0255399
0.0221111
0.022116
0.174485
1.50078
0.0352584
3.65529
1.58489
0.108053
0.0538207
0.0244105
0.0221898
0.0240628
0.10372
0.280833
0.0740379
1.85328
1.86934
0.0221926
0.0223901
4.25339
0.0229121
0.021928
0.0223588
0.279805
1.15435
0.0232153
0.289966
0.021995
0.0238005
0.0553647
9.81823
1.3658
0.114501
10.3649
0.233413
3.27306
5.34044
1.24777
0.0220026
0.0221263
0.0236299
0.0478298
2.03072
2.811
0.938448
0.0357376
0.0225129
0.0230759
0.0502718
7.68039
0.0221613
0.0537799
0.103626
0.0350233
0.02221
0.0360013
2.65818
0.0230264
0.0224549
0.0222496
0.0221877
0.022148
1.76682
0.0493095
0.539926
0.0450764
0.244463
1.34753
3.56237
0.0229182
12.5391
0.839627
0.386004
0.10532
0.094564
0.0230096
0.0468097
6.16201
0.0223626
8.99175
0.0579341
11.293
0.0226191
1.42354
0.0265279
0.0819577
0.242326
0.0220602
0.0591925
1.80722
0.73448
0.426743
0.0243171
0.022136
0.576221
0.0229589
2.33817
0.0244661
0.049083
0.677908
0.281423
0.0221428
1.19667
0.248422
0.0223569
0.0655992
0.0755942
0.163694
0.022371
3.52971
0.0309882
1.80001
0.0220854
0.0244032
1.29838
0.259082
29.3075
0.0221456
1.49439
1.38719
2.03524
0.0280177
0.0369525
2.58408
3.73008
1.26793
0.0221802
0.100499
0.325293
0.0406258
0.024825
21.6647
0.0856479
0.0220828
0.0267451
2.43796
0.0221479
0.0220255
0.143914
2.71345
0.0221415
0.079733
0.0233458
2.42062
0.672081
2.98131
0.0545763
0.0221247
0.0430365
0.0375838
2.26654
0.0823843
6.57709
0.0270421
0.0629198
0.0575881
6.55851
5.78182
0.0221718
0.0569514
1.55026
0.0515382
0.0287081
0.0257759
1.27821
0.0960122
0.0243571
0.0288251
1.83287
0.023179
0.0419574
0.0221413
0.028626
0.0221738
0.0243919
0.501891
1.50797
0.0285881
0.16016
1.98637
1.24847
0.022188
0.0389758
0.0220109
3.10785
0.0493624
0.0543205
0.0218248
0.0252441
0.0236161
2.58807
2.21879
0.0220979
0.885305
0.0232655
1.35925
1.71528
5.85475
2.80595
0.219584
3.60389
0.335252
0.0233028
0.024149
0.023125
11.7905
12.1591
0.0221189
6.33654
0.0489841
0.0289857
11.0901
4.24515
0.0220992
0.26744
0.0894085
5.43416
17.2157
6.53594
0.0221512
0.189875
1.30179
0.0549696
0.0219389
0.0275292
1.23828
10.2181
0.022155
0.0369338
0.0231959
0.0234836
0.0271427
0.10015
0.739323
0.267999
0.0319332
0.0450869
1.62412
0.0388952
0.0885236
0.0246089
0.0230764
0.124833
5.61894
0.0235903
16.027
0.384806
0.0222818
0.0316496
0.0225607
0.0507928
0.0221624
0.0272651
0.0744757
1.29572
1.0945
14.6794
0.0517398
1.67403
1.75445
1.63658
0.0226261
1.28328
1.60805
0.108218
3.70522
1.30811
1.55634
0.0221247
0.10116
0.048043
0.0232081
2.58538
5.86324
1.91951
12.2008
0.0689365
2.15339
4.52147
0.280879
0.0221394
3.69063
2.97077
0.0251439
0.0256306
2.12679
5.05452
0.0239702
0.024381
0.0221321
0.0529373
0.0221793
1.85166
3.2292
0.0222288
1.54453
0.039943
0.0257484
1.74554
0.0918854
0.0279907
0.0329447
2.26648
1.83719
0.0222613
0.0225236
9.14467
0.0242762
0.529473
1.75391
1.52387
1.78554
1.80741
1.40666
0.0232484
0.0872764
0.0217187
0.0621661
0.0226055
13.8116
10.5678
1.30811
5.07104
0.0319415
0.0857107
1.31229
0.0495362
3.83493
0.0264815
0.743745
1.6868
0.0227166
1.44918
0.437685
1.78668
0.077052
1.52427
0.0259631
0.0233031
4.36389
5.117
2.40425
0.0236143
12.5883
0.312562
1.48338
0.0638836
0.022829
0.23374
0.0319709
6.29281
2.54946
3.21552
7.92379
7.35779
1.88721
0.0220055
0.0278546
0.44343
0.520003
0.0235247
0.022186
0.036507
1.46895
0.0294099
0.0237817
5.19825
0.0330584
0.0242189
1.35743
7.21392
0.0251776
1.31716
0.0274752
2.13264
1.51666
1.55383
0.0221665
11.4179
0.0340213
0.0221465
0.0219599
11.5142
0.0497907
0.022152
0.239679
0.521232
0.0511523
1.71662
0.0334213
0.0466148
5.21033
0.0264652
1.54111
0.0231327
0.0226826
7.89988
0.0236654
7.47636
0.0243756
1.68936
0.0410343
1.73011
4.52191
2.68912
0.0255345
0.146204
4.66186
0.203734
0.0223124
10.3758
0.0253302
0.0463427
0.0364016
0.069332
13.2716
6.59447
0.774696
0.885613
0.0235023
0.04656
0.0234283
0.0459318
0.0272647
0.0286429
0.0221
0.0254851
2.51555
1.79259
2.14621
0.0242421
15.5269
0.10096
0.0219932
1.04244
0.0227068
0.0219072
0.28264
0.0873038
1.6553
0.100471
0.0952867
0.0234373
0.0287233
0.0225315
0.0862722
1.29927
1.29506
0.0221579
0.0247119
4.59153
0.0234919
0.0226917
0.0222136
0.201588
0.0526539
8.75705
0.311366
0.413302
0.0221922
0.176195
0.0221257
0.0233566
0.134306
0.886123
1.31937
1.58106
3.15818
0.0358283
0.0371579
7.46306
0.0233026
2.47183
5.71311
0.0222019
12.2545
0.022202
0.101216
0.0222777
0.0352119
1.59743
0.0502637
0.0255865
2.105
0.0342253
0.661673
0.0252697
1.12837
0.0275506
1.79931
0.314065
0.0268493
0.0874215
0.0222784
0.022146
10.6753
0.0307385
0.185585
0.0287738
2.07178
0.105596
0.0366641
0.0223898
0.0270922
0.339572
0.023524
1.75825
0.584715
1.72074
0.263871
0.022146
0.198693
0.680709
4.19145
3.44855
0.493354
1.95726
0.0318537
1.23846
7.84429
15.3418
0.0863482
0.110047
1.942
0.0263437
0.0299312
0.0284548
0.0221695
0.0234227
0.0222905
0.0454682
0.0230238
1.69646
0.231344
1.35995
0.0353759
16.1039
0.0222909
0.0417277
10.1331
7.50032
0.0222368
6.34771
0.197167
0.0222931
0.148245
0.030467
0.118464
0.161294
1.57872
0.0401853
0.0222942
0.594316
0.0359831
0.02229
0.0221061
5.06501
0.0485366
0.0233318
12.7562
1.35416
0.108344
0.0864484
0.0319628
1.5347
0.481143
5.37556
1.32445
0.0324193
5.71697
0.153226
1.60037
0.0689872
2.43162
1.59261
1.27318
1.73668
1.4182
0.120935
3.35282
0.181237
1.79863
0.0219285
0.0288322
2.72724
0.179737
0.0233106
0.135214
2.92556
3.41535
1.69068
0.0285577
0.227382
0.0286138
5.33629
0.0359423
1.53683
0.0295231
1.94858
3.35161
0.0420902
0.0222688
0.0306039
1.52781
2.55624
12.5593
0.022152
0.0286101
2.36567
0.0263826
2.46829
0.272733
0.0313539
16.4836
0.270877
1.88813
0.0414334
1.86993