/*--------------------------------*- C++ -*----------------------------------*\
| =========                 |                                                 |
| \\      /  F ield         | OpenFOAM: The Open Source CFD Toolbox           |
|  \\    /   O peration     | Version:  v2012                                 |
|   \\  /    A nd           | Website:  www.openfoam.com                      |
|    \\/     M anipulation  |                                                 |
\*---------------------------------------------------------------------------*/
FoamFile
{
    version     2.0;
    format      ascii;
    class       volScalarField;
    location    "100";
    object      nut;
}
// * * * * * * * * * * * * * * * * * * * * * * * * * * * * * * * * * * * * * //

dimensions      [0 2 -1 0 0 0 0];


internalField   nonuniform List<scalar> 
14479
(
0.0573156
0.0054155
0.00309809
0.000449158
0.000474438
0.00046082
0.000437672
0.000592467
0.000580903
0.00112244
0.000440662
0.000469854
0.000464005
0.0261316
0.044299
0.000473306
0.000437594
0.0410135
0.000449418
0.000446393
0.00050028
0.000473357
0.000472548
0.0448784
0.000440812
0.000449928
0.00269367
0.000575402
0.000451575
0.00268631
0.0030585
0.0459297
0.000438169
0.000437136
0.00319344
0.000472385
0.000440765
0.000458918
0.0452348
0.000478953
0.000481278
0.000441128
0.0152337
0.0106943
0.000440606
0.000465285
0.000449038
0.0013921
0.000460681
0.000440937
0.000861142
0.000575534
0.000448815
0.000946914
0.000457037
0.000471897
0.000474443
0.000452534
0.00300149
0.000452574
0.000448623
0.000448934
0.0375048
0.000448516
0.000437872
0.00335114
0.000991003
0.0548405
0.000448614
0.000451691
0.039979
0.000449619
0.00191454
0.00048131
0.000448432
0.000448646
0.000452628
0.0338153
0.000444841
0.00151732
0.000449626
0.000530791
0.0207163
0.00302619
0.00342302
0.000447861
0.000447274
0.000437782
0.000590803
0.000452153
0.000587164
0.00116962
0.0397533
0.00044863
0.000390956
0.000449776
0.000444816
0.000443832
0.000440802
0.0318552
0.06692
0.000480709
0.000908024
0.00308968
0.0646595
0.00105243
0.0109802
0.000444046
0.00306785
0.0343395
0.0039958
0.0446424
0.000396199
0.000472844
0.000999885
0.000517263
0.000452405
0.0021615
0.000590338
0.000449468
0.000452951
0.0203994
0.000950998
0.000440915
0.000127349
0.000423923
0.000451929
0.0471793
0.000463926
0.000137404
0.000474231
0.00794092
0.00304397
0.00343865
0.00911518
0.00047276
0.00060493
0.000531914
0.0580454
0.00302067
0.00966062
0.0261299
0.0004365
0.021054
0.000449781
0.0181698
0.0254654
0.000440959
0.000468043
0.000484399
0.0367847
0.000446665
0.0548762
0.000456264
0.000449978
0.00043648
0.0490123
0.0133253
0.0364747
0.000473501
0.000486696
0.000441506
0.000446846
0.000464967
0.00271507
0.000432116
0.000446882
0.000529338
0.00093606
0.0372404
0.00637369
0.000482838
0.000475701
0.000464188
0.000440715
0.000448054
0.000472647
0.000444918
0.000476689
0.00213744
0.000512168
0.000429784
0.0285157
0.000343883
0.0319182
0.000432203
0.00283441
0.0220473
0.000451832
0.000368009
0.027142
0.000486547
0.00445043
0.0364716
0.000492129
0.00048307
0.000439751
0.000502381
0.000469233
0.000446814
0.000483126
0.000448229
0.000452559
0.000446989
0.000462602
0.000528878
0.000472185
0.000499546
0.000436469
0.000463855
0.000470295
0.000450062
0.000462343
0.000461712
0.00278545
0.043037
0.000719206
0.000481544
0.0430449
0.000461682
0.0434569
0.000308008
0.000453894
0.000198393
0.000349499
0.000456398
0.0569745
0.000445982
0.000571347
0.000388242
0.000449359
0.000361734
0.0478535
0.000440602
0.000450164
0.0187976
0.000450962
0.000554706
0.0244297
0.000449196
0.000445088
0.000446956
0.000570079
0.000448183
0.000431904
0.00055089
0.0275585
0.044906
0.0004491
0.000449865
0.00330348
0.000438713
0.0026267
0.00131427
0.047057
0.000441531
0.000460604
0.000436633
0.000454162
0.000450193
0.000446052
0.000445405
0.000450069
0.000444478
0.000443372
0.000463713
0.000465452
0.000449899
0.0287447
0.000488124
0.000567962
0.000520688
0.0227686
0.000482598
0.000529671
0.00822137
0.000557473
0.000436516
0.000471167
0.000452924
0.000530313
0.000509203
0.000451979
0.000454415
0.000905359
0.00268481
0.000554123
0.00300981
0.000477414
0.0585009
0.00106409
0.000448278
0.000452605
0.00217709
0.00044977
0.0318521
0.0317487
0.000451535
0.000479321
0.00560076
0.0263017
0.00115225
0.000443266
0.000447683
0.000485032
0.00290669
0.000439178
0.0577398
0.000436715
0.000825399
0.000522004
0.0628834
0.000455197
0.000441342
0.000485747
0.000643603
0.000487346
0.000460755
0.000484954
0.000437263
0.0210864
0.000572924
0.0138601
0.000378833
0.000448994
0.0153582
0.00589638
0.00841689
0.00046419
0.000452897
0.000478311
0.000439681
0.000452542
0.000534314
0.000474714
0.00045175
0.052512
0.000462662
0.000449943
0.000449609
0.000449346
0.00046605
0.000436573
0.000498259
0.00245505
0.000471655
0.00156657
0.000484613
0.000579279
0.000477587
0.000450187
0.000511822
0.00181257
0.0401586
0.000456878
0.00233767
0.00272343
0.00166528
0.000449121
0.00205527
0.000437699
0.000477991
0.000683826
0.0723978
0.000454871
0.000437808
0.000432627
0.000591174
0.000558443
0.000432588
0.00047323
0.0431563
0.0004822
0.0005323
0.0261561
0.000804369
0.000448775
0.000597439
0.000468575
0.000451476
0.000485979
0.000526103
0.000450212
0.000449496
0.000961833
0.000446442
0.0286932
0.000450067
5.60794e-05
0.000459008
0.000594436
0.000496292
0.000455582
0.00193391
0.00181429
0.000436439
0.000449196
0.0469321
0.000489086
0.000916792
0.000508481
0.000555724
0.000478967
0.000465588
0.00047803
0.000452876
0.000464351
0.000485604
0.00204108
0.000503977
0.00445664
0.00193086
0.000464317
0.000490303
0.000449657
0.0423755
0.000451103
0.000452894
0.00649889
0.000547925
0.0121134
0.00142149
0.0270196
0.0432274
0.0367873
0.000451592
0.000455941
0.00046258
0.000432694
0.000440697
0.0004465
0.000488079
0.000658573
0.0409497
0.0121846
0.000499018
0.000940097
0.000452806
0.000556749
0.000449377
0.0436005
0.000436417
0.000440528
0.0291855
0.000447914
0.000444482
0.000455195
0.0489851
0.0004565
0.000446929
0.00044093
0.000448555
0.000510406
0.000465083
0.000638688
0.000507439
0.000448862
0.00305159
0.000488315
0.00309919
0.00103679
0.000451034
0.000449034
0.00046915
0.0315755
0.000444427
0.000483396
0.000722479
0.0384253
0.000448695
0.000446322
0.000868892
0.000499176
0.000460966
0.00365192
0.00252322
0.000533142
0.00209291
0.000496794
0.00044845
0.00232916
0.000470267
7.12218e-05
0.0247053
0.000488207
0.000468818
0.000429627
0.00044786
0.00108515
0.000485249
0.000436839
0.000437357
0.000798165
0.000449655
0.000520411
0.000446958
0.000441592
0.000639469
0.00043438
0.000811605
0.000466192
0.000488516
0.00804507
0.000479376
0.0206507
0.00089952
0.00105169
0.0275415
0.000473687
0.000460798
0.000446222
0.000451931
0.000454793
0.000751911
0.000451663
0.000444925
0.00272674
0.000455473
0.0179726
0.000911312
0.00399183
0.000460652
0.00044609
0.000461401
0.000446384
0.000556255
0.000521333
0.000470375
0.00609692
0.000510509
0.0139004
0.000760726
0.000458592
0.000436709
0.000450237
0.000436613
0.00045573
0.00044717
0.000501352
0.000470261
0.000479457
0.0650556
0.000464183
0.000449899
0.0391058
0.00046911
0.000451943
0.000670061
0.0746151
0.000475561
0.00045283
0.00157675
0.00074714
0.00052924
0.000464256
0.0114985
0.0598753
0.000510794
0.000474966
0.0299472
0.000563765
0.000451446
0.000453197
0.0317303
0.000583011
0.000447475
0.000468451
0.00049255
0.000487431
0.000428395
0.0353591
0.000454938
0.000451585
0.000432525
0.000476417
0.000870055
0.00174777
0.000453213
0.00165683
0.0620259
0.00652838
0.000455152
0.000458652
0.0317426
0.000447662
0.0476311
0.000460613
0.000461838
0.000307235
0.000456397
0.000483843
0.000450834
0.0485543
7.12387e-05
0.000446681
0.0456427
0.00361919
0.000438045
0.00063174
0.000475841
0.000451138
0.000473205
0.000495672
0.000451143
0.000455879
0.000563759
0.00121771
0.000507582
0.000493176
0.000468303
0.000462574
0.00269615
0.00754539
0.000453482
0.00807564
0.0693121
0.000446442
0.0030062
0.000455707
0.00767976
0.000152441
0.0518293
0.000473433
0.000486385
0.000449861
0.000550762
0.000436239
0.000455478
0.000456385
0.000462696
0.000448217
0.000441687
0.000643998
0.000451953
0.000438098
0.00103458
0.000447363
0.000670986
0.0377877
0.000449327
0.000462547
0.00044998
0.0208061
0.0275642
0.000612577
0.0716097
0.000507424
0.000446076
0.000725171
0.000467339
0.000448856
0.000452121
0.000452311
0.040195
0.000507956
0.000447227
0.000564165
0.000464693
0.00123016
0.000449588
0.00218994
0.0447951
0.00132562
0.000461571
0.000500905
0.00731546
0.000703851
0.000432665
0.000469977
0.000445088
0.000452069
0.00045566
0.000433289
0.000436966
0.000442911
0.000437403
0.000498622
0.000484
0.000436497
0.000661826
0.000451892
0.000452582
0.000470773
0.00201529
0.0061341
0.000433254
0.0608782
0.000437931
0.042163
0.000183284
0.000511386
0.000574876
0.000454098
0.00045231
0.00046858
0.0194558
0.000433208
0.000452174
0.000442379
0.000455496
0.000447065
0.000480387
0.000479213
0.000454741
0.000437421
0.000506954
0.000443939
0.00970584
0.00155137
0.000556665
0.0442325
0.0247033
0.0255368
0.020563
0.000453668
0.000846404
0.00044076
0.000462398
0.000454126
0.000443225
0.00187351
0.00107305
0.000448875
0.000460779
0.00758182
0.00227734
0.000581078
0.0691423
0.00207309
0.000460785
0.00043683
0.000448986
0.000615674
0.00090043
0.0435969
0.00044286
0.000482564
0.000460062
0.000466631
0.0468906
0.000501011
0.000445936
0.000452279
0.000547921
0.000446007
0.000449858
0.000722238
0.000483504
0.000476267
0.00230253
0.00342222
0.000451814
0.000584734
0.0447955
0.021983
0.000487402
0.0026266
0.000763816
0.000583679
0.000483723
0.0474835
0.000437834
0.00165519
0.0488221
0.000429312
0.0303247
0.000639115
0.000459412
0.00307813
0.000452368
0.000479744
0.000452296
0.000443215
0.000442281
0.000445966
0.0731602
0.00279378
0.00494649
0.000450435
0.00878676
0.000453354
0.000451707
0.000613233
0.000446316
0.0469962
0.000503661
0.000468209
0.000449374
0.000470984
0.000485041
0.00152922
0.000476016
0.000452945
0.0005542
0.00220749
0.0184929
0.00210202
0.000608371
0.000440748
0.0154077
0.000453661
0.00046754
0.00045713
0.000497785
0.000575764
0.000580228
0.000293657
0.000548605
0.000546495
0.000440654
0.000478491
0.0440232
0.000451205
0.000477829
0.00043348
0.000477645
0.000494389
0.000479997
0.000456018
0.000452342
0.0249634
0.00044936
0.0111927
0.00958253
0.0004439
0.0278528
0.000482205
0.000449185
0.000686425
0.000573117
0.000501025
0.000451325
0.000444428
0.0296828
0.023379
0.0014938
0.0647025
0.000440734
0.0203358
0.000557236
0.000454249
0.000472904
0.00048368
0.000501245
0.0173364
0.000491136
0.00044241
0.000647869
0.000453898
0.000455427
0.000469935
0.0149196
0.000476679
0.00238691
0.00307456
0.00685054
0.0048828
0.000456581
0.000996735
0.000455172
0.00787377
0.000560967
0.00521756
0.000449473
0.000523157
0.000449234
0.000470348
0.0463105
0.000335552
0.0154997
0.000441694
0.000456648
0.000483248
0.000475796
0.000464287
0.000428702
0.000434148
0.000468381
0.000480824
0.000452516
0.000434176
0.000453036
0.0112939
0.000468254
0.00556113
0.000466155
0.0461339
0.000501757
0.000450308
0.000609219
0.00093034
0.00429975
0.00044971
0.0227194
0.000446218
0.000495337
0.000451654
1.67381e-05
0.000433956
0.000438123
0.000448376
0.000433024
0.000451459
0.000494274
0.0172486
0.0414435
0.0485398
0.000440995
0.000725638
0.000448411
0.000439259
0.000525722
0.000443456
0.0467468
0.000541273
0.000444483
0.000484891
0.000488028
0.000516884
0.000545368
0.0372474
0.000540399
0.000582377
0.00783271
0.000459234
0.0772051
0.000456521
0.000439102
0.000448975
0.00107212
0.000444723
0.000646069
0.00152503
0.000440455
0.00044904
0.000630183
0.00153471
0.000463654
0.0419026
0.000458369
0.000480202
0.00957688
0.0520883
0.00139379
0.000621593
0.0026795
0.00206693
0.000469618
0.0282721
0.000449583
0.000280791
0.0003324
0.000461604
0.00045862
0.000437047
0.000486846
0.030665
0.000537315
0.0435395
0.000436993
0.000450994
0.000478168
0.00045027
0.000449047
0.000429247
0.000527176
0.000461295
0.000447763
0.000460346
0.00062266
0.000451363
0.000443324
0.0570011
0.000450518
0.000505922
0.0400205
0.00045671
0.00050339
0.0410131
0.0262631
0.00044592
0.000448285
0.000495062
0.000442775
0.00294154
0.0143995
0.000553338
0.000448049
0.00101355
0.000470532
0.000584999
0.00294792
0.00214632
0.000457924
0.000538331
0.000448521
0.000480057
0.000447909
0.00208292
0.000443262
0.000455191
0.00889587
0.000450939
0.0214563
0.0465787
0.00215912
0.000926077
0.000451455
0.0427788
0.000443232
0.0355356
0.0029655
0.000450616
0.00299084
0.00044909
0.000503526
0.000725866
0.0004514
0.000569498
0.000462103
0.000445525
0.0421902
0.00196319
0.000459712
0.000483789
0.00985143
0.000460871
0.00044546
0.000455252
0.0412799
0.000447941
0.000448444
0.000462592
0.00264736
0.000395479
0.000672822
0.000498429
0.0347874
0.000441995
0.00903681
0.000437245
0.000499998
0.00046549
0.000452237
0.000468482
0.000449764
0.000450436
0.000606574
0.000613531
0.000484491
0.000451528
0.000567276
0.0111622
0.000448307
0.000447658
0.000442048
0.00240245
0.000452287
0.000461507
0.000372483
0.000443915
0.000450005
0.0023922
0.000433539
0.00112019
0.000454739
0.000449683
0.000451487
0.0415391
0.0243887
0.0435141
0.0417717
0.000492435
0.0152526
0.0645466
0.000473827
0.000455757
0.000444595
0.0423999
0.00145057
0.0309942
0.0561708
0.000448117
0.0121169
0.000437645
0.000450083
0.000909011
0.000612282
0.0255157
0.00266067
0.000743495
0.00401763
0.000437561
0.000456688
0.00556759
0.0221238
0.00308277
0.0429617
0.00127826
0.0480923
0.000446316
0.000446488
0.000505449
0.000451438
0.000476894
0.000448633
0.000471335
0.000665165
0.000505685
0.000542237
0.0191955
0.000443102
0.000453023
0.00860429
0.000438865
0.000478997
0.000455626
0.013545
0.0207682
0.000566531
0.000455545
0.00151727
0.00127681
0.000594433
0.00214932
0.000439902
0.0391018
0.0326584
0.000542124
0.000444238
0.0115868
0.0233011
0.0378121
0.000857409
0.000592749
0.000448099
0.000546727
0.000491234
0.000580419
0.000452626
0.000599211
0.000468734
0.00103519
0.000438922
0.04057
0.00047917
0.000468185
0.000456101
0.000443393
0.000483303
0.000460868
0.000440078
0.000503714
0.00620647
0.000984153
0.000491792
0.0046428
0.000490031
0.000459351
0.000543552
0.000479622
0.000446557
0.000473322
0.00043584
0.00051455
0.000446729
0.0024211
0.0004861
0.00316705
0.000477017
0.000460949
0.00281296
0.000607988
0.000551094
0.0400106
0.000449203
0.00234461
0.0126856
0.000447318
0.00829611
0.0371477
0.000451991
0.000536136
0.000458942
0.000451735
0.000471604
0.000467672
0.000449133
0.000447221
0.000449632
0.000574507
0.000460938
0.0304031
0.000554116
0.000458338
0.000461398
0.000449306
0.0759891
0.0110659
0.000497999
0.000776795
0.00313565
0.0009564
0.000475813
0.000590915
0.000484111
0.000448527
0.000545503
0.000502561
0.00295806
0.000468604
0.0451019
0.000482694
0.00650929
0.000446946
0.00267183
0.00046034
0.00058456
0.000443771
0.000440733
0.000451657
0.000453158
0.000447456
0.000832304
0.000454477
0.000496499
0.000434707
0.00226141
0.000477991
0.00615022
0.00220211
0.00278756
0.0133427
0.00049676
0.048905
0.000459745
0.000456246
0.000434631
0.000454084
0.000449432
0.000531811
0.00189022
0.00062008
0.000441891
0.0417298
0.00124508
0.000520586
0.000467055
0.00103827
0.0113585
0.0361173
0.00114175
0.000522281
0.0385225
0.000695637
0.000449195
0.00046136
0.00245677
0.000467219
0.000446967
0.000465395
0.000449649
0.000478738
0.000448398
0.0234682
0.0218462
0.000486743
0.000511779
0.00710364
0.045509
0.000455376
0.000469782
0.0179279
0.00305239
0.000445285
0.0210334
0.000484499
0.000457772
0.0162114
0.00186078
0.000457448
0.000451655
0.000451182
0.0128485
0.000541437
0.0196575
0.00768062
0.00092979
0.000465728
0.000483971
0.000457373
0.000560918
0.0189347
0.0763485
0.000546673
0.000455382
0.000495029
0.000445309
0.000500883
0.000511508
0.000518037
0.000918904
0.000457184
0.0327232
0.00051727
0.0324897
0.000462386
0.000449213
0.000457768
0.00181931
0.0574691
0.000450823
0.00829875
0.000292907
0.000481991
0.0011626
0.000443265
0.000458027
0.000448462
0.000443116
0.000436783
0.000439164
0.000964914
0.000442036
0.000452665
0.000473324
0.0052794
0.000532244
0.000476082
0.000443522
0.000464072
0.000486522
0.000448046
0.000443017
0.000905243
0.00996418
0.000449154
0.000474107
0.000453824
0.0438774
0.000439058
0.0292936
0.00708785
0.0258349
0.000445987
0.0237573
0.000444657
0.000450047
0.000653217
0.0184689
0.000469741
0.000452898
0.00155273
0.00046214
0.00295785
0.000455775
0.000459164
0.000494002
0.00046138
0.000447149
0.000449286
0.000453403
0.0246219
0.000459696
0.000914272
0.000483371
0.00067961
0.000525418
0.000444625
0.000450583
0.000450666
0.0194404
0.000557916
0.0224972
0.000455927
0.000473786
0.000445805
0.000459792
0.000445495
0.000480028
0.00147713
0.000877071
0.000442568
0.0483943
0.000472103
0.000449908
0.00127079
0.000436852
0.00276247
0.0183587
0.000458674
0.0776894
0.000453111
0.000976276
0.0479595
0.000436694
0.000449309
0.000540408
0.0231904
0.000460236
0.000540215
0.000443471
0.00705986
0.0276912
0.000456193
0.000452497
0.000485998
0.000485012
0.00044501
0.0746748
0.000444494
0.000471589
0.000447173
0.000444927
0.000152546
0.000488084
0.00102008
0.0435997
0.000552481
0.000448641
0.000448326
0.000447778
0.000450953
0.000534352
0.00275021
0.00048901
0.000443108
0.000794892
0.0040358
0.000524415
0.000454483
0.027444
0.000676879
0.00838702
0.00044859
0.00340247
0.000551496
0.0276665
0.00224079
0.000470059
0.00044953
0.0278758
0.000445512
0.00235577
0.000478724
0.00051239
0.00112405
0.0425328
0.000851097
0.000521305
0.0012154
0.000459937
0.0253726
0.00108979
0.0400373
0.000446711
0.00472127
0.000443373
0.000474531
0.000445453
0.00046761
0.000606489
0.000429948
0.000486541
0.0446991
0.000540879
0.000524939
0.0200667
0.00276054
0.00233799
0.0190027
0.0448958
0.000437726
0.000445413
0.00573567
0.000444984
0.000437502
0.000451608
0.000456134
0.00045151
0.000547078
0.000450382
0.000461497
0.000522155
0.0235405
0.0306372
0.000525262
0.000596722
0.000452963
0.000649581
0.000577407
0.000448963
0.00487527
0.0295826
0.00048706
0.00226604
0.0418712
0.000455282
0.00656675
0.000671216
0.000589472
0.000452017
0.000435601
0.0179224
0.000498074
0.0311994
0.000487362
0.000440925
0.0156388
0.000450746
0.000446877
0.00104791
0.0484692
0.000972043
0.000453611
0.000936367
0.00152233
0.00593771
0.000470178
0.0014961
0.000595908
0.00205808
0.0569978
0.000445806
0.0043516
0.00270094
0.00101735
0.00945751
0.000444143
0.000686027
0.000872331
0.0184058
0.00271662
0.000483653
0.000451899
0.00044923
0.000495331
0.000458348
0.00048162
0.000498032
0.000446454
0.00296074
0.00050217
0.000985872
0.00164983
0.000446623
0.000447689
0.0054124
0.00391274
0.000493692
0.00288724
0.00217687
0.00149612
0.00191175
0.000472034
0.000473184
0.000363658
0.000445793
0.0409299
0.000461238
0.0237162
0.00104339
0.00402511
0.000449073
0.00228654
0.000474439
0.0420512
0.000453373
0.0416298
0.0238897
0.00050087
0.000503562
0.000451238
0.000446061
0.00049137
0.000575722
0.00273668
0.0221445
0.00136395
0.00044831
0.00151899
0.000488856
0.0429382
0.039782
0.000595033
0.0468115
0.000474504
0.000556646
0.000474645
0.000445567
0.000444218
0.000456046
0.00577882
0.000477774
0.0004497
0.000466804
0.000450928
0.000455619
0.000672054
0.000439237
0.000573405
0.000455157
0.0340159
0.0498934
0.000498134
0.00298346
0.000507721
0.000486218
0.0297064
0.000470395
0.000442513
0.000441857
0.000475624
0.044952
0.000461468
0.000469667
0.000577828
0.000596349
0.00128292
0.0442048
0.00252967
0.000448244
0.000941568
0.000452394
0.000497295
0.0449593
0.00109504
0.000448439
0.0382778
0.000443362
0.000456949
0.0379058
0.000443689
0.000648879
0.0345186
0.000860962
0.000447993
0.00999947
0.000505764
0.000206694
0.000781708
0.000554217
0.000541807
0.0103185
0.000448907
0.00278397
0.000448822
0.0253297
0.0429796
0.0230557
0.000944125
0.00309495
0.000491253
0.000464847
0.000458883
0.000608705
0.016882
0.000443706
0.000640399
0.00295187
0.000441666
0.000447066
0.0484441
0.0728163
0.000856078
0.00319762
0.000447457
0.000484047
0.000442355
0.0413333
0.0457827
0.000493842
0.000514206
0.025921
0.000474749
0.00229016
0.000449953
0.000458737
0.00733742
0.0210532
0.0429576
0.00044921
0.000457597
0.000447379
0.000451517
0.0565572
0.0574221
0.00044257
0.00044044
0.000449099
0.000257418
0.000475977
0.000487388
0.000888568
0.000892335
0.000455184
0.0022203
0.00462417
0.0504014
0.000450347
0.000524963
0.0375567
0.00317435
0.0338252
0.0102843
0.000446471
0.000439553
0.000470745
0.000518436
0.000468366
0.000447811
0.000903924
0.000449888
0.000484588
0.046258
0.000465696
0.000470841
0.000683141
0.000450248
0.0479627
0.000455501
0.000451464
0.000443995
0.000488152
0.000458125
0.000487049
0.000774358
0.000445261
0.00112313
0.000456284
0.000455616
0.000451026
0.000450228
0.000471945
0.000453333
0.000466773
0.000462848
0.000441633
0.0433234
0.000445624
0.000454761
0.042563
0.0272619
0.000462769
0.000461423
0.00044503
0.000460937
0.000531974
0.00044473
0.0365211
0.000428566
0.000844863
0.000321277
0.000443282
0.00318961
0.0119222
0.000582289
0.000481104
0.00723637
0.000598036
0.0126634
0.00051341
0.000557018
0.000444874
0.000505678
0.000450551
0.000456398
0.000457572
0.000443044
0.000523385
0.00242193
0.000448735
0.000639956
0.000440449
0.0102982
0.00067148
0.000441607
0.000772952
0.0456938
0.000697053
0.000452733
0.0308562
0.00322048
0.000430089
0.000493526
0.000450977
0.00056852
0.000506529
0.000531143
0.00162252
0.000440903
0.00052895
0.00044926
0.0425533
0.0146036
0.0476708
0.000475547
0.000476238
0.000491502
0.0353059
0.000492573
0.000458
0.0004516
0.00086207
0.000509789
0.000734984
0.000451804
0.00044984
0.00091526
0.000451561
0.000490705
0.000479595
0.0217306
0.000466039
0.000437598
0.000502138
0.000423516
0.000659433
0.000450107
0.00053783
0.00398721
0.000466117
0.000449585
0.000509815
0.00572756
0.00319229
0.000459125
0.000462711
0.00171007
0.00222754
0.000439881
0.000472633
0.000467948
0.000629214
0.000503913
0.000446829
0.000437506
0.00044795
0.000482411
0.0163441
0.000447685
0.000470786
0.000458937
0.000452012
0.0312968
0.000442183
0.000627483
0.00058918
0.00482449
0.0290494
0.0163852
0.00940773
0.000458561
0.000448416
0.0359705
0.000447685
0.0420335
0.030959
0.0346496
0.0322074
0.000434912
0.000459084
0.00044972
0.000461861
0.000480354
0.0331589
0.000452746
0.000599612
0.000445617
0.000482881
0.000497521
0.00293275
0.000449783
0.000475829
0.00194168
0.0076926
0.00290794
0.0412303
0.000603741
0.00929954
0.000449703
0.000490996
0.00669222
0.00045571
0.00439434
0.000497888
0.000719607
0.000549067
0.000447872
0.000530459
0.000455355
0.000430576
0.00399498
0.00046622
0.0239041
0.00045458
0.000474094
0.00045282
0.00050659
0.00338181
0.000443226
0.000447608
0.00044149
0.0303683
0.000443872
0.000136075
0.00557861
0.0192093
0.0117247
0.000468403
0.000450432
0.00136415
0.00494008
0.000444744
0.000469886
0.000455128
0.000454436
0.000514837
0.0004505
0.000477743
0.0214867
0.000448851
0.000450925
0.000444737
0.00126986
0.00076154
0.00269864
0.000445898
0.00044302
0.000444155
0.000475284
0.000444297
0.000476798
0.000452257
0.000451996
0.000460857
0.000466625
0.000440433
0.00184218
0.010903
0.0182449
0.0106213
0.00096762
0.000445004
0.0026891
0.000494978
0.000507907
0.00045442
0.00045049
0.000444032
0.000492641
0.000468977
0.00311003
0.000465589
0.000451214
0.000441878
0.000465257
0.000457693
0.000472178
0.000479644
0.00046056
0.000443094
0.0288247
0.000460171
0.0152605
0.00072854
0.000496353
0.0270669
0.000455923
0.000456133
0.000500014
0.000531399
0.00047034
0.00285296
0.000738933
0.000737438
0.000443444
0.000449679
0.0771656
0.00335566
0.000493547
0.000614096
0.000482555
0.000751394
0.00045539
0.000448959
0.000452448
0.00257052
0.00058983
0.000877623
0.00049233
0.000492207
0.00247632
0.00121582
0.000620084
0.000516113
0.00352876
0.00297385
0.000436288
0.0305671
0.000459997
0.0154999
0.000455993
0.000561556
0.000579556
0.00252856
0.000440599
0.00045873
0.000481385
0.00156498
0.000562832
0.000564885
0.00256562
0.000444978
0.000454999
0.00142768
0.0004934
0.000451599
0.000436238
0.0015702
0.047837
0.000434512
0.000465308
0.000473213
0.0338979
0.000533321
0.00051141
0.00088741
0.00586121
0.0238578
0.00049434
0.000453359
0.000546582
0.000450167
0.000442266
0.000441995
0.00195097
0.00205981
0.000512999
0.000613031
0.000441967
0.0529011
0.000450472
0.000517395
0.0459084
0.000443283
0.00417386
0.000448664
0.000451657
0.000465477
0.00183586
0.0164029
0.000456957
0.0162132
0.0487384
0.000468678
0.000472199
0.00231197
0.000459691
0.0497102
0.0152433
0.000436694
0.000509633
0.0659444
0.000443532
0.000444255
0.00104259
0.000508135
0.00044888
0.0489693
0.00403735
0.000452149
0.0176482
0.01739
0.000618244
0.000449863
0.0156326
0.000436274
0.000444631
0.000448513
0.00045116
0.000747432
0.0131147
0.00075176
0.000487306
0.0173006
0.000436653
0.0104283
0.00207394
0.0004367
0.000448139
0.000441335
0.000501486
0.000442998
0.0010451
0.0168405
0.000574264
0.000441849
0.0205926
0.000485494
0.000467142
0.00305512
0.000436217
0.000456631
0.000493769
0.000501213
0.000559659
0.0321146
0.000445544
0.000449599
0.0462319
0.000446776
0.000436796
0.00265481
0.000470309
0.000443888
0.0004494
0.0427496
0.000454317
0.0012453
0.00434301
0.000743333
0.000507737
0.000454374
0.000958758
0.0209446
0.0245957
0.000450361
0.000872608
0.00155728
0.00362433
0.000455737
0.0299686
0.000452969
0.000461095
0.000994746
0.02542
0.00298934
0.0487444
0.000519939
0.000912443
0.000461383
0.000443937
0.000444743
0.00178084
0.000463221
0.000461618
0.00122139
0.000436713
0.000600808
0.000995296
0.0168863
0.000611393
0.000436278
0.00264272
0.0107426
0.000450913
0.0330818
0.00217106
0.000940771
0.0219315
0.000457004
0.000479638
0.000454834
0.00052957
0.00161555
0.000857374
0.00101196
0.00249241
0.0424723
0.0476874
0.00045162
0.000452981
0.000458146
0.0180829
0.000453238
0.000445259
0.0114246
0.000450244
0.000451105
0.000443518
0.0429303
0.00818324
0.000444569
0.000883832
0.000450353
0.00259233
0.000459786
0.00359519
0.00052671
0.000868413
0.000448775
0.0094538
0.00185101
0.00285755
0.0381429
0.000546617
0.000448217
0.000441971
0.0426501
0.000438811
0.00927975
7.8008e-05
0.000448199
0.00200905
0.000468765
0.000446677
0.000843044
0.000466303
0.000493588
0.000449666
0.0197582
0.000445256
0.000434415
0.000539378
0.00287677
0.000452206
0.0149437
0.000513908
0.00226653
0.00287307
0.000507677
0.000436384
0.000966945
0.040576
0.000488351
0.000534405
0.000440741
0.00246896
0.000451392
0.00057947
0.000442658
0.000454541
0.0290474
0.00103218
0.0309173
0.000489509
0.000442263
0.000893679
0.000437343
0.000447879
0.000466801
0.00537713
0.000455807
0.0152968
0.0555348
0.00278916
0.000491033
0.000458277
0.000542307
0.045531
0.027593
0.000398516
0.00044817
0.000594585
0.000975711
0.000450779
0.000734502
0.00045284
0.000447092
0.000462087
0.000449264
0.000456146
0.000532474
0.000567605
0.000463762
0.000442673
0.000442574
0.0116005
0.00323996
0.000462817
0.000467372
0.00151628
0.000476305
0.000601586
0.000492001
0.000557064
0.00132552
0.00299222
0.00100923
0.0101588
0.00131093
0.00186003
0.000572485
0.000451108
0.000492816
0.000552246
0.000436143
0.018813
0.000527712
0.000453927
0.000452541
0.000454257
0.0220943
0.00120144
0.00276692
0.00725564
0.0253152
0.000485447
0.00161766
0.00046427
0.0198444
0.0342107
0.000444077
0.000492065
0.000453477
0.000468501
0.00244112
0.000435912
0.00302955
0.000441911
0.000487709
0.000578932
0.00045498
0.000434376
0.000530612
0.000344312
0.000492474
0.00195968
0.000473729
0.000497307
0.00186116
0.0313884
0.000456335
0.00051104
0.000435764
0.000483792
0.000438863
0.000473756
0.000464212
0.0203993
0.00244732
0.000437647
0.0401626
0.000820163
0.00045162
0.000451103
0.000525918
0.000448589
0.000461067
0.000438855
0.00207767
0.000442799
0.00562995
0.0159044
0.000562196
0.0418953
0.000452095
0.000443575
0.0465421
0.00252063
0.000485241
0.000806931
0.000449261
0.000448852
0.000484776
0.000552075
0.000439253
0.00189794
0.000584651
0.025499
0.0452242
0.000966381
0.000449217
0.000447955
0.000598242
0.000450955
0.000438729
0.000558888
0.00043746
0.0115513
0.000500913
0.000563529
0.000478324
0.000464225
0.000595274
0.00528619
0.000494492
0.000539439
0.00143943
0.000449429
0.000997718
0.000468952
0.000546588
0.0473541
0.00100112
0.000434805
0.000507227
0.000465735
0.000531843
0.00231831
0.000543357
0.00286613
0.000451372
0.0004551
0.000544767
0.0195712
0.000434915
0.000696593
0.000543356
0.000573898
0.000450261
0.0497106
0.000477059
0.00251284
0.000440273
0.00405632
0.000474782
0.000636301
0.000578629
0.000529621
0.000497587
0.000513735
0.000455375
0.000557353
0.00048968
0.0036101
0.00253716
0.000442608
0.0123602
0.00273603
0.0211568
0.00043095
0.000448195
0.00236834
0.000443589
0.000823888
0.00051437
0.000446288
0.0318562
0.00264449
0.0120131
0.000435309
0.000539078
0.000516317
0.00284423
0.000448327
0.000447298
0.00632802
0.000479223
0.00053209
0.0450667
0.000446244
0.000532795
0.000465056
0.000510428
0.000446166
0.00078254
0.000464097
0.000477993
0.00287351
0.0207149
0.000526182
0.0182623
0.0331064
0.000449156
0.000426572
0.00139416
0.00093968
0.000978978
0.000870959
0.000440472
0.000455354
0.0302769
0.000535613
0.00295167
0.00305984
0.00321757
0.000867611
0.00691288
0.000451675
0.00051632
0.00806347
0.000430999
0.000436165
0.00245545
0.00054216
0.0127162
0.000943982
0.000986702
0.000587527
0.000835536
0.000594802
0.000443605
0.000495829
0.0397001
0.00239746
0.00248679
0.000482903
0.000547059
0.00296267
0.000549567
0.00166399
0.0334838
0.000443745
0.000591084
0.000495475
0.00893018
0.000728151
0.00261998
0.0223578
0.000458457
0.000495777
0.000885306
0.00275832
0.000451835
0.00288091
0.000476584
0.000409861
0.000473361
0.00340967
0.000562316
0.000435701
0.000504331
0.00130045
0.000546065
0.000619804
0.00240934
0.00290636
0.000553535
0.000444722
0.000444468
0.000455882
0.000529582
0.000447317
0.000445693
0.000559806
0.000436826
0.000928608
0.000528814
0.0205818
0.000455114
0.000448174
0.00156263
0.000916856
0.000438838
0.000505973
0.000531787
0.0302106
0.000449357
0.00236835
0.000543562
0.000464025
0.000477234
0.000932631
0.000274232
0.000450498
0.000479886
0.000445134