/*--------------------------------*- C++ -*----------------------------------*\
| =========                 |                                                 |
| \\      /  F ield         | OpenFOAM: The Open Source CFD Toolbox           |
|  \\    /   O peration     | Version:  v2012                                 |
|   \\  /    A nd           | Website:  www.openfoam.com                      |
|    \\/     M anipulation  |                                                 |
\*---------------------------------------------------------------------------*/
FoamFile
{
    version     2.0;
    format      ascii;
    class       volVectorField;
    location    "100";
    object      U_0;
}
// * * * * * * * * * * * * * * * * * * * * * * * * * * * * * * * * * * * * * //

dimensions      [0 1 -1 0 0 0 0];


internalField   nonuniform List<vector> 
14479
(
(0.216973 -0.206645 3.79817e-21)
(0.952512 -0.153623 0)
(1.10567 0.164299 0)
(1.04226 -0.00055784 0)
(1.02438 -0.0518101 0)
(1.04119 -0.00038434 1.38293e-21)
(1.03922 0.00236345 -4.32382e-22)
(1.22059 0.0107828 1.43335e-20)
(1.20224 0.0854631 -2.60847e-20)
(1.1939 0.139757 -9.87694e-21)
(1.04099 -0.000372128 2.4359e-22)
(1.1026 0.0728322 3.76653e-21)
(1.07783 -0.00320533 -1.34634e-21)
(0.96868 0.213226 0)
(1.01722 -0.0958788 0)
(1.0464 0.000232299 0)
(1.03934 0.00268975 0)
(1.05879 -0.115781 1.06688e-20)
(1.04839 0.0060879 -3.30073e-22)
(1.04922 0.0105985 2.07126e-21)
(1.16006 0.039921 -8.22643e-20)
(1.02918 -0.0532625 0)
(1.06295 -0.0360639 8.28984e-22)
(-0.149434 0.0646158 1.55313e-20)
(1.04102 -0.000259457 -2.81506e-21)
(1.04665 0.00856795 3.37386e-22)
(1.18734 0.124464 0)
(1.19617 0.0871241 0)
(1.05469 0.0161501 -1.65124e-21)
(1.18747 0.12667 -7.1243e-22)
(1.1153 0.162646 -1.5568e-20)
(-0.15602 0.0664739 0)
(1.04463 0.000859142 0)
(1.04377 0.00220981 0)
(1.06206 0.166002 1.05333e-20)
(1.06258 -0.017149 -4.24528e-21)
(1.04136 -0.000457055 2.77161e-22)
(1.04347 0.000104335 0)
(1.08987 0.0951126 2.30673e-21)
(1.09788 -0.0272964 0)
(1.04518 8.51658e-05 1.02935e-21)
(1.04056 -9.90727e-05 2.15878e-21)
(1.03459 0.0447508 7.5765e-22)
(1.04276 0.0416213 0)
(1.04128 -0.00060199 1.02846e-21)
(1.04029 -0.000428125 -7.09145e-22)
(1.04149 0.000865903 5.93681e-22)
(0.854993 -0.150888 0)
(1.05861 -0.0192604 0)
(1.0406 -0.000160522 3.82979e-21)
(0.994719 0.179069 -1.44727e-20)
(1.19395 0.089791 2.72191e-20)
(1.04814 0.00425239 -5.136e-22)
(0.988446 0.174631 1.46583e-20)
(1.05714 -0.0331037 -1.29192e-21)
(1.11209 0.0628889 -3.13337e-20)
(1.06011 -0.0184814 4.13219e-21)
(1.06606 0.0176088 3.61532e-21)
(0.987965 -0.0457193 0)
(1.06555 0.0184789 3.30259e-21)
(1.05392 0.00184321 0)
(1.05667 -0.00353982 0)
(0.734666 -0.0999838 -5.88298e-22)
(1.04449 0.00400549 0)
(1.03901 0.0018946 9.44751e-22)
(0.920138 -0.295293 4.70325e-22)
(0.85439 -0.132117 4.44566e-21)
(0.439834 0.387674 2.42485e-20)
(1.04839 0.00381046 4.87711e-22)
(1.05526 0.0168098 1.25163e-21)
(0.58577 -0.0331892 0)
(1.04136 0.000917891 -1.35742e-21)
(1.02241 0.171866 0)
(1.09943 -0.0298725 0)
(1.05485 -0.00714461 0)
(1.0416 0.000806188 1.29527e-21)
(1.01943 -0.0012583 3.25827e-21)
(0.748662 -0.0920521 -1.81717e-21)
(1.04289 -0.00471159 6.43353e-22)
(0.936517 -0.223348 -1.39727e-21)
(1.04892 0.00667675 6.41129e-22)
(1.11267 -0.0730761 0)
(0.835969 -0.256926 1.21578e-20)
(1.13368 0.157012 0)
(1.19716 0.0762267 -3.83225e-20)
(1.04292 -0.0155818 -6.70674e-22)
(1.03968 -0.0138978 1.10256e-21)
(1.03906 0.00217458 1.4176e-21)
(1.21751 0.00623368 0)
(1.0676 0.00828942 0)
(1.19979 0.0883434 2.78163e-20)
(0.883179 -0.214247 -2.09976e-21)
(-0.157521 0.0815086 -4.08806e-20)
(1.04393 0.00388352 0)
(1.09201 0.0139656 2.73457e-22)
(1.04145 0.000883325 5.32247e-22)
(1.04323 -0.00503058 -1.44434e-21)
(1.04135 0.000296381 0)
(1.03867 -0.000521018 1.27416e-21)
(0.982981 0.188035 -5.03761e-22)
(0.517724 0.0880224 -6.77564e-21)
(1.03955 0.000187517 1.39833e-21)
(0.989729 0.174117 -3.64126e-20)
(1.05097 0.165759 0)
(0.593162 0.326128 1.58643e-21)
(1.2445 0.037408 9.52182e-20)
(1.0559 0.140437 5.40655e-21)
(1.04162 0.00269063 -5.96054e-22)
(1.11143 0.163332 5.99989e-20)
(0.977965 0.170491 -2.66654e-22)
(1.06286 0.134116 -7.92301e-21)
(1.03089 -0.0550438 0)
(1.03786 0.0157628 1.27536e-21)
(1.11969 0.0460507 0)
(1.21574 0.0982322 0)
(1.14214 0.111428 1.55308e-20)
(1.03662 0.00135647 -1.18956e-21)
(1.06956 -0.225338 1.61567e-20)
(1.0252 -0.000128769 0)
(1.05882 -0.00355451 -1.97733e-22)
(1.03586 0.00126045 -4.27502e-22)
(1.21085 -0.0117817 0)
(1.00537 0.17522 1.96583e-20)
(1.03859 -0.000477526 0)
(1.07606 0.0311462 1.44141e-21)
(1.0364 0.0140169 -1.28166e-21)
(1.06677 0.00788811 -3.70759e-22)
(0.559009 -0.0138833 0)
(1.09145 -0.00453932 -8.76737e-21)
(1.0378 0.034366 2.28027e-21)
(1.04471 -0.0453787 -2.05891e-21)
(-0.00785688 0.118861 -1.56595e-19)
(1.11469 0.163232 -2.51799e-20)
(1.00663 -0.214609 2.16516e-20)
(0.955726 -0.0905476 9.7412e-22)
(1.11878 0.0129906 1.53155e-20)
(1.21849 -0.0627553 5.11113e-20)
(1.11881 -0.0750498 2.44125e-21)
(0.249467 -0.188674 -9.78689e-21)
(1.13351 0.159081 4.93602e-20)
(0.942545 -0.0561923 -7.02366e-24)
(0.114506 0.064023 5.46017e-20)
(1.04396 0.00634224 0)
(0.934138 -0.0538866 0)
(1.04872 0.00717456 2.82807e-23)
(0.939924 -0.0963554 1.1961e-23)
(0.1142 0.0593723 -5.7546e-20)
(1.04276 -0.00151311 0)
(1.04045 -0.0400044 1.98117e-21)
(1.04606 -0.0115413 0)
(0.88958 -0.0892259 5.51436e-22)
(1.04639 -0.00137475 0)
(0.990386 -0.047448 0)
(1.08281 0.0230631 0)
(1.04634 0.00902766 2.29072e-22)
(1.04415 0.00602794 7.85602e-22)
(0.892482 0.068183 4.29341e-21)
(0.0595176 0.0587653 -3.51925e-20)
(0.995709 0.161622 -3.81406e-22)
(1.12093 0.014272 0)
(1.10485 -0.0332787 -1.04438e-20)
(1.04951 0.000632183 -7.57229e-22)
(1.04654 -0.00106268 1.60981e-22)
(1.02588 -0.0395308 -4.08676e-21)
(0.990772 -0.0467024 3.8099e-23)
(1.0305 -0.00316145 -1.2471e-23)
(1.04742 -0.00214021 -1.29629e-22)
(1.17691 -0.0192958 -3.82327e-20)
(1.18556 0.135844 0)
(0.991268 0.144632 1.64124e-22)
(0.973531 -0.35347 5.27791e-21)
(1.11894 0.0907677 -3.00596e-20)
(1.04309 1.97225e-05 -6.46652e-22)
(1.07821 -0.00556711 7.76177e-22)
(1.03875 -0.000127339 -1.69297e-21)
(1.05114 0.0125857 -1.99167e-21)
(1.11734 0.00854653 3.02704e-20)
(1.04097 -0.000777917 0)
(1.03396 0.00567248 1.68983e-22)
(0.963711 -0.237222 3.99022e-21)
(1.14063 0.109597 1.36438e-20)
(1.02635 -0.0139321 2.41113e-23)
(0.965828 0.195182 0)
(1.04184 0.0189406 1.35362e-21)
(1.03924 0.0711804 -1.52485e-22)
(1.02063 -0.0194715 1.34564e-22)
(1.14417 0.156659 -2.4526e-20)
(-0.0469644 0.0791346 -1.61991e-22)
(1.06367 0.0149671 1.18416e-21)
(0.622578 0.114739 0)
(0.00328899 0.0581825 0)
(1.09528 0.0174031 0)
(0.942996 -0.308656 -2.96949e-21)
(1.0431 -0.148686 0)
(1.04099 0.000424633 0)
(1.1194 0.0888503 3.59043e-20)
(1.04008 -0.000821984 2.28329e-21)
(1.03398 0.00860978 -1.95189e-22)
(1.11421 0.0426559 0)
(1.04616 -0.000763413 -2.43713e-22)
(1.04609 -0.00806714 -5.43496e-21)
(1.03069 -0.0116475 0)
(1.01898 0.00111382 -4.70107e-21)
(1.04791 -0.0021824 0)
(1.07903 -0.0109463 1.31654e-20)
(1.0349 -0.000754452 1.1545e-22)
(1.00596 -0.0440466 1.71302e-22)
(1.04439 0.000228751 -6.59237e-23)
(1.04094 0.00327663 -1.4492e-21)
(1.07902 -0.0124897 -4.62789e-21)
(1.11003 0.0618315 0)
(1.0559 0.00646463 0)
(1.08052 -0.0101349 1.01449e-20)
(1.08022 -0.00874892 9.31661e-21)
(1.19916 0.0842653 -2.21764e-20)
(1.08802 0.120101 1.86691e-21)
(0.945798 -0.151965 -4.20892e-21)
(1.03792 0.0228688 1.11597e-21)
(1.08493 0.121264 -1.57341e-21)
(1.06151 -0.0163213 2.09591e-21)
(1.02427 0.0195516 9.54059e-21)
(0.527818 0.0912518 5.03422e-20)
(1.07403 0.0139892 -8.60051e-23)
(1.0442 0.0209551 0)
(0.736552 0.11034 3.65023e-20)
(1.04327 -0.000364718 7.68359e-22)
(0.409655 0.398548 -2.41538e-20)
(1.04225 -0.000394291 -1.03049e-21)
(1.16518 0.121696 0)
(1.06543 0.00674571 -2.81224e-22)
(1.05824 -0.00235702 1.38488e-21)
(1.06562 0.00902423 2.79459e-22)
(1.12122 0.0895423 0)
(1.04182 -0.00181343 2.10264e-21)
(1.04163 0.000324057 4.17048e-22)
(0.210228 0.041279 -1.60908e-19)
(1.05404 -0.0193857 4.43994e-22)
(1.20344 0.0204206 3.12589e-20)
(-0.0516758 0.0720521 7.22066e-20)
(1.04869 0.00563506 -3.83682e-22)
(1.03396 -0.00103466 0)
(1.04634 -0.000497334 1.00937e-22)
(1.20174 0.0601394 0)
(1.03486 -0.0147637 0)
(1.02024 -0.0185365 -1.33086e-22)
(1.1276 -0.085442 3.7999e-20)
(-0.0160363 -0.292778 5.7867e-20)
(1.0597 0.00972571 0)
(1.0574 -0.00338999 -6.69615e-22)
(1.04759 0.0081165 -2.72765e-22)
(1.10165 0.0155317 -6.92164e-23)
(1.04724 -9.75193e-06 0)
(1.04704 0.0287231 8.03742e-22)
(1.1911 0.143106 0)
(1.12466 0.0721902 -4.38894e-22)
(1.03844 -0.000487992 0)
(1.08117 -0.00645748 8.22537e-21)
(1.04104 0.00356173 -1.50282e-21)
(1.01916 0.00891707 0)
(1.04512 0.00931276 0)
(1.04213 -0.000452575 4.69853e-22)
(1.03311 -0.0017018 0)
(1.04547 0.00884951 -7.4898e-23)
(1.04088 -0.000759345 -9.30756e-22)
(1.04051 -0.00220848 1.2325e-21)
(1.09256 -0.0037037 0)
(1.0272 -0.04363 3.63079e-21)
(1.04745 0.00854796 1.46774e-22)
(-0.0564519 -0.266881 -4.18665e-20)
(1.14429 0.0173481 2.82081e-20)
(1.16543 0.119008 0)
(1.0358 -0.000986147 -1.10668e-22)
(1.20556 -0.0320426 9.5624e-22)
(1.11623 0.0916535 -2.15413e-22)
(1.17084 -0.0281773 -8.10795e-21)
(1.07984 -0.100904 0)
(1.20262 0.0236833 0)
(1.0416 0.0041889 0)
(1.11728 0.0459745 0)
(1.069 -0.000697355 -7.43102e-21)
(1.10148 -0.0755794 -3.15158e-20)
(1.03913 -0.000410434 0)
(1.06682 0.0070079 3.37379e-21)
(1.07606 0.0139931 -3.88985e-21)
(1.23305 0.0472935 0)
(1.19373 0.0731311 5.52785e-20)
(1.16613 0.112793 0)
(1.13232 0.157844 -5.40638e-20)
(1.12033 0.0726167 0)
(0.328549 -0.135038 1.22842e-20)
(1.20688 0.128277 -2.11727e-20)
(1.05403 -0.00718419 0)
(1.02218 0.00921497 3.73692e-21)
(1.08232 0.0368463 -9.89487e-22)
(1.05243 -0.0172338 -4.07937e-22)
(0.838994 -0.172425 3.50878e-20)
(-0.0271208 0.077893 -1.43263e-19)
(1.06494 0.0112863 1.61961e-22)
(1.12099 -0.00509762 1.44853e-20)
(1.06395 -0.104028 -4.83649e-22)
(0.0147711 0.058913 0)
(0.898393 -0.226519 0)
(1.04031 -0.00203993 0)
(1.0523 -0.00702075 0)
(1.13453 0.0689921 2.32969e-20)
(0.85811 -0.270937 -6.76711e-22)
(1.04948 0.000581832 0)
(0.472242 -0.0233184 -3.48766e-20)
(1.04057 0.00300694 0)
(1.21146 0.0967131 0)
(1.04439 -0.00142347 0)
(0.452725 0.00309247 3.18912e-20)
(1.07724 0.0285539 1.05529e-20)
(1.04339 -0.00151884 0)
(1.13487 0.071085 -2.58287e-20)
(1.0122 0.129522 1.12089e-20)
(1.09841 0.0124114 -6.3551e-22)
(1.08931 0.0491943 -2.14735e-20)
(1.13385 0.0734628 0)
(1.03918 0.00119745 7.70809e-22)
(0.119448 0.0499123 3.30651e-20)
(1.20516 0.0603801 -4.44153e-20)
(0.803884 -0.123435 -6.42565e-21)
(1.08796 0.0385164 -1.52981e-21)
(1.05488 0.00282519 1.93005e-21)
(0.300122 0.0310753 3.37905e-20)
(0.196652 0.0359803 2.934e-20)
(0.933381 -0.160299 1.71686e-21)
(1.07581 -0.00238466 -1.68097e-21)
(1.06853 -0.00109233 -6.56932e-21)
(1.06801 -0.0320643 1.0502e-21)
(1.04004 -0.000644118 -5.23953e-21)
(1.02385 0.0120725 -7.59956e-21)
(1.13293 0.129086 -4.57612e-20)
(1.04138 -0.000699538 0)
(1.06601 0.0066199 0)
(0.551519 0.334443 0)
(1.09157 -0.00166942 -1.36262e-20)
(1.05371 -0.0176016 4.33402e-22)
(1.0595 -0.00386385 2.51117e-22)
(1.05542 0.00403238 0)
(1.03473 -0.0470675 1.61082e-21)
(1.04051 0.00276207 -2.45481e-23)
(1.13021 0.103477 -4.12867e-20)
(1.05027 -0.0862745 -2.64799e-22)
(1.1122 0.06527 4.0593e-20)
(1.05801 -0.189928 -1.37349e-20)
(1.13158 0.0739667 -8.69166e-21)
(1.17449 0.115102 1.40772e-20)
(1.03495 0.0236894 0)
(1.04333 0.00854703 0)
(0.978316 -0.0476291 0)
(1.01063 0.16981 1.55959e-21)
(-0.167832 0.0784474 1.0681e-19)
(1.06949 -0.00642094 0)
(0.823868 -0.295344 0)
(1.20528 0.0809345 -2.56642e-20)
(0.144652 0.010136 4.06345e-20)
(1.05459 0.00318536 -2.18204e-21)
(-0.0550322 0.094211 -1.85264e-20)
(1.04064 0.00688371 -1.09155e-21)
(1.09432 0.00176997 2.60353e-21)
(1.06996 0.133103 0)
(0.387394 0.287139 4.19417e-22)
(1.07661 0.0272285 -7.2519e-21)
(1.04118 0.00739449 0)
(1.05136 0.00381955 0)
(1.0207 4.51861e-05 0)
(1.1419 0.132687 3.57733e-20)
(1.05098 0.00401263 5.14259e-22)
(1.0407 3.43398e-05 -5.68554e-22)
(1.08392 0.0855339 0)
(1.04163 0.000283655 -9.99101e-22)
(1.10758 -0.0786236 3.25286e-20)
(0.846233 -0.232423 -8.38299e-21)
(1.24919 0.0395993 1.5306e-21)
(1.05608 -0.00294271 0)
(1.22125 0.000274213 0)
(1.11142 0.0486567 7.98549e-21)
(1.06274 0.0105345 -6.14683e-21)
(1.13745 0.067229 -2.71592e-22)
(1.17347 -0.0164342 4.36171e-20)
(1.04276 0.00830016 8.85771e-23)
(1.02893 -0.0123566 -2.43707e-21)
(1.03732 0.17153 3.01111e-20)
(1.0404 0.00141352 0)
(-0.0308815 0.0539202 1.11197e-19)
(1.05605 0.00596357 3.9175e-21)
(1.03368 0.0361529 -2.33459e-21)
(1.02766 -0.0329769 -1.07586e-21)
(1.2177 -0.00432793 3.06016e-20)
(0.985221 -0.0456179 -4.63586e-21)
(1.07932 0.0271585 1.84808e-20)
(0.992788 -0.240499 2.52733e-20)
(1.03701 -0.0849599 2.92827e-22)
(1.03832 0.0199389 -3.30449e-21)
(1.03354 -0.0159319 0)
(0.902099 0.133916 1.62674e-21)
(1.04117 -0.00215596 9.13386e-22)
(1.23168 0.0506109 6.03876e-20)
(1.16436 0.0646954 4.96467e-20)
(1.19821 0.0582876 -3.84823e-20)
(1.12335 -0.00355105 -1.50706e-20)
(1.03421 -0.0401877 -4.36565e-22)
(1.08044 -0.0301146 2.14053e-20)
(1.06787 -0.00310443 0)
(1.08051 -0.00696516 -7.34835e-22)
(1.13723 0.0647677 0)
(1.02149 0.169214 0)
(1.15209 0.084973 0)
(0.951986 -0.129348 0)
(1.23755 0.0323321 -6.15502e-20)
(1.09157 -0.00655554 1.36332e-20)
(1.041 -0.00649466 2.6633e-21)
(1.05303 0.00818022 4.24537e-21)
(0.735758 0.0905341 -6.46732e-22)
(1.0567 0.0145026 -2.57964e-21)
(1.06914 0.0157441 -7.65433e-21)
(-0.013 0.127035 1.27467e-19)
(1.13303 -0.0795243 0)
(1.04873 0.0449632 0)
(0.989598 -0.194555 -2.01641e-22)
(-0.0186568 0.0528197 -1.13765e-19)
(0.735207 0.0533357 0)
(-0.123394 0.0844209 -4.70606e-20)
(1.06436 0.0107208 0)
(1.08067 0.0271483 -1.99907e-20)
(1.0922 -0.000343425 0)
(1.05234 0.00402881 0)
(1.04145 -0.000743862 -4.0977e-21)
(1.04322 -0.0116745 1.26934e-21)
(1.13043 -0.0130115 2.08641e-20)
(0.99072 -0.153067 0)
(0.880803 -0.0879706 0)
(0.0605151 0.0599263 7.58968e-20)
(1.1325 0.103061 7.0273e-20)
(0.982432 -0.175917 0)
(1.05179 -0.0357156 1.65327e-21)
(1.13967 0.132578 -4.47408e-20)
(1.05478 0.00384897 0)
(0.308604 -0.244668 5.731e-21)
(1.04148 0.00385958 0)
(1.04162 -0.00150685 -1.16557e-21)
(1.16854 0.0289993 9.1572e-22)
(1.05268 -0.0064435 -1.12488e-21)
(1.04072 -0.000817003 -3.61491e-22)
(1.07808 0.0102803 0)
(0.892139 0.0854243 -1.55969e-21)
(1.06937 -0.00625857 2.56045e-21)
(1.04276 -0.0133095 -1.29284e-21)
(1.04251 -0.00119413 -1.57655e-21)
(1.05537 -0.00314202 0)
(1.05376 0.0399049 4.27715e-21)
(1.10521 0.0357504 1.27853e-20)
(1.05311 0.0442223 1.59266e-21)
(1.16426 0.0616 -7.04711e-20)
(1.05458 0.00216808 6.84602e-22)
(1.10839 0.163989 -2.47207e-20)
(1.1108 -0.00360411 -2.03895e-21)
(1.10498 0.164273 1.23973e-20)
(1.24849 -0.000687624 -4.89775e-20)
(1.05614 0.0139245 0)
(1.03853 -0.0178815 -1.19626e-21)
(1.11217 0.012955 -4.13735e-20)
(1.06891 -0.136246 0)
(1.04083 -0.000899798 0)
(1.12737 -0.0102393 -3.38228e-20)
(0.991705 0.165838 -6.04722e-22)
(0.374387 -0.242216 -1.23221e-20)
(1.05326 0.00217655 1.59428e-21)
(1.04194 -0.000389899 -1.56855e-22)
(1.16749 0.142258 8.02539e-21)
(1.04718 0.000327191 2.48301e-22)
(1.04936 0.000520511 0)
(1.20671 -0.226943 -1.68013e-20)
(0.941712 -0.248252 7.95644e-22)
(1.17563 -0.0252039 0)
(0.836185 -0.160039 -1.9158e-21)
(1.15646 0.0392111 2.16557e-22)
(1.04377 -0.000418411 0)
(1.21866 0.0864674 0)
(1.06264 -0.0148601 8.39279e-21)
(1.02424 0.0332292 0)
(1.07051 -0.142815 0)
(1.12971 -0.0165352 2.83535e-20)
(1.04937 -0.00110411 4.76058e-23)
(1.02597 -0.0131072 0)
(1.03889 -0.0150606 -1.12889e-21)
(0.872225 -0.122881 2.74225e-21)
(1.02317 -0.0462603 8.63867e-22)
(1.0402 0.00250902 3.94082e-21)
(1.03923 0.0011713 0)
(1.24139 -0.00130039 4.15611e-20)
(1.05407 0.00737541 -1.36765e-21)
(1.04902 -0.000826841 -2.80483e-23)
(1.04154 -0.0130957 -8.17273e-22)
(1.03868 -0.00042595 -2.07871e-22)
(1.22773 -0.0662411 -5.52961e-20)
(1.03066 -0.0026394 -5.03567e-24)
(1.23259 0.0355194 4.76661e-20)
(1.07314 -0.0158769 -1.28532e-20)
(1.05125 -0.0436801 0)
(0.996752 -0.295657 -1.16373e-20)
(1.08282 -0.0321355 -1.50374e-20)
(0.15574 0.0476062 8.49096e-20)
(1.19286 0.137771 0)
(1.25188 0.0349219 0)
(-0.0286436 0.0169641 -1.46685e-19)
(1.08533 -0.0411586 0)
(1.04944 0.000577555 3.15831e-22)
(1.04258 -0.011095 -1.31484e-21)
(1.06595 -0.00341973 -1.99768e-21)
(1.07707 0.0143111 4.14509e-21)
(1.21077 0.092333 4.81069e-20)
(1.06274 0.0152704 0)
(1.06486 -0.175665 0)
(1.19151 0.12073 -2.76922e-20)
(1.07859 0.0285781 0)
(0.786341 -0.13441 6.4505e-21)
(1.18645 0.132645 0)
(1.17767 -0.214145 0)
(1.02892 -0.0359805 9.73114e-22)
(1.0419 -0.000319989 4.00142e-23)
(1.08159 -0.00777376 -9.18173e-21)
(1.04108 -0.0120726 -2.21527e-22)
(1.19774 0.0542388 3.38425e-20)
(1.03679 -0.000362163 5.79001e-22)
(1.1165 0.0433023 0)
(0.95443 -0.0431733 -3.39861e-22)
(1.04954 -0.000795454 5.19681e-22)
(0.382257 0.0236665 0)
(1.0206 0.168648 0)
(1.0887 0.0108751 0)
(1.04015 0.00230249 -2.40232e-21)
(1.04163 0.0083223 -4.96115e-22)
(1.04754 0.00714028 -8.86695e-22)
(1.0748 -0.00248189 4.80105e-21)
(1.0287 0.00103075 0)
(1.16252 0.0381418 4.06652e-20)
(1.11448 0.0125067 -1.45886e-20)
(1.122 0.0738133 0)
(0.530183 0.346343 6.55501e-21)
(1.08989 -0.00725949 0)
(1.04814 0.00796442 3.91189e-22)
(0.915877 0.246663 1.06426e-20)
(1.11317 0.0470529 -3.21651e-20)
(1.03728 0.0296605 -2.12712e-21)
(0.931328 -0.112373 0)
(0.383509 0.256588 1.5834e-21)
(0.999052 -0.0320253 -3.88919e-21)
(1.06579 -0.00854926 0)
(1.25165 0.0365949 0)
(1.23278 -0.16142 8.46361e-22)
(1.03866 -0.000359636 6.61808e-23)
(1.08951 -0.00822007 0)
(1.02993 0.0394827 0)
(0.58337 0.0863194 8.34078e-21)
(1.13765 0.110593 -1.38892e-20)
(1.04214 -2.38941e-05 -3.99313e-22)
(0.0069715 0.0742325 7.71529e-20)
(1.04112 -0.000624351 -4.28381e-23)
(1.06329 0.011102 8.69465e-21)
(1.0418 -0.000690474 0)
(-0.0459837 0.0599625 -6.15867e-22)
(1.2109 0.0649301 -2.6252e-20)
(1.04344 -0.0145281 1.66084e-22)
(1.04418 0.000112789 6.90758e-22)
(1.00833 -0.0431153 0)
(1.14239 0.0148469 1.58516e-21)
(1.0271 -0.00644593 0)
(1.04958 0.0780365 -3.50119e-22)
(1.07501 0.000964517 2.98977e-21)
(1.05783 -0.0184588 -4.86235e-22)
(1.05806 0.0061252 1.51517e-22)
(1.1183 -0.00331625 3.25871e-20)
(1.18874 0.139028 -3.4488e-20)
(0.29245 0.0306684 -8.03415e-20)
(1.07026 0.0156813 9.73039e-21)
(1.24859 0.0313229 0)
(0.167388 -0.201792 9.12843e-22)
(0.831805 0.00321946 0)
(1.07566 0.00153121 -3.46542e-21)
(1.08826 0.0100397 0)
(-0.107376 0.0151164 0)
(1.04154 -0.0154799 0)
(1.10955 0.100896 4.17117e-21)
(1.08949 0.0474277 2.21977e-20)
(1.06834 -0.00905887 -4.19349e-21)
(1.09142 0.0485912 1.95547e-21)
(1.07752 0.0367063 -3.66339e-21)
(1.13697 0.0129149 -1.77571e-20)
(1.04682 0.000814691 5.25886e-22)
(-0.167459 0.0644232 0)
(1.03728 0.114759 6.7583e-21)
(1.05328 0.0082217 1.80625e-21)
(0.902997 0.150624 -3.20892e-22)
(1.07446 -0.206414 2.04186e-20)
(1.03913 0.00070485 0)
(0.94451 -0.0932559 6.91933e-21)
(0.997727 -0.0274839 8.17655e-21)
(1.05006 0.0163725 0)
(1.11927 0.0101885 -2.52169e-20)
(1.04047 -0.000146556 2.24844e-22)
(1.05535 -0.0197843 -6.08905e-22)
(1.08125 0.0228995 -8.36772e-21)
(1.16871 0.114673 1.195e-20)
(0.917356 -0.212312 1.3431e-21)
(1.16204 0.0702067 -5.04567e-20)
(1.06286 -0.0410897 9.54791e-21)
(1.0333 -0.0500894 -3.21885e-23)
(1.07281 -0.0117278 2.70314e-21)
(1.13451 0.145951 4.5524e-21)
(-0.00569444 0.115841 5.8885e-20)
(1.06654 -0.00962882 0)
(0.128525 0.0468397 1.55292e-20)
(0.193257 -0.140157 -2.43067e-21)
(1.04 -0.0118014 1.32953e-21)
(1.14474 0.152746 0)
(1.04646 0.000716238 1.11335e-21)
(0.991722 -0.0473148 5.15796e-23)
(1.0288 0.0324071 0)
(0.360413 -0.16158 -1.0487e-20)
(1.1108 -0.00705964 -1.36164e-20)
(1.10543 0.001891 0)
(1.05508 0.00657622 -1.46538e-21)
(1.17985 0.0942818 4.72237e-20)
(1.01878 -0.0268464 2.11479e-22)
(1.04647 0.107406 -9.93802e-21)
(1.08341 0.0218269 0)
(1.09948 0.0393291 0)
(1.03983 0.0150938 -4.56776e-21)
(1.03949 -0.000109165 -1.77902e-23)
(1.00049 0.164757 1.13052e-20)
(1.06645 -0.00130686 2.12835e-21)
(1.04005 0.00693977 0)
(1.00615 -0.0683618 -1.15617e-21)
(1.0409 -0.0142387 9.5963e-22)
(1.14196 0.147895 0)
(0.913333 0.254786 6.08236e-21)
(1.04229 0.000605584 -8.45069e-22)
(1.09799 0.0400848 0)
(1.05491 0.00726432 3.01585e-21)
(-0.0350814 0.08571 0)
(-0.0135161 0.0225209 -8.6481e-20)
(1.18517 -0.099961 0)
(0.495106 0.117501 1.59814e-20)
(1.0374 -0.0373363 -4.83508e-21)
(1.055 0.00644258 1.83061e-21)
(1.16506 0.139891 2.84528e-20)
(1.10935 0.0157706 0)
(1.0486 0.0047399 6.49138e-22)
(1.05489 0.0259453 0)
(1.06697 -0.00202842 2.01697e-21)
(-0.135132 0.0824692 1.28671e-22)
(1.04169 -0.0410829 1.06941e-20)
(1.04356 0.0137347 3.81014e-21)
(0.85768 0.0948463 9.03457e-20)
(1.10345 0.0348439 1.23241e-20)
(0.995673 -0.0695411 0)
(1.05887 -0.00270376 1.81858e-21)
(1.02874 -0.212845 -2.92117e-20)
(0.785842 0.111118 1.72984e-21)
(0.840304 -0.248582 -4.10714e-22)
(1.04095 -0.000567899 -1.43844e-21)
(1.13853 0.0977726 0)
(0.174385 0.0368928 -6.35946e-20)
(1.14119 0.149968 -1.62451e-20)
(1.05187 0.00422729 0)
(1.11006 0.0593619 -1.25733e-20)
(1.04131 -0.000761687 0)
(1.05286 0.0182774 -1.41069e-22)
(1.07388 -0.00232551 -9.81466e-21)
(1.049 0.00452091 0)
(1.03988 0.00206391 7.99743e-22)
(1.04001 -0.00221792 -7.71839e-22)
(1.03964 0.00348049 1.25531e-21)
(1.13386 0.10095 -3.04936e-20)
(1.1254 0.0824781 0)
(1.04688 0.00677169 9.13156e-22)
(0.944091 -0.107243 0)
(1.06664 0.0106025 3.42694e-21)
(1.06725 -0.00319861 0)
(1.11485 0.00966878 1.45516e-20)
(1.23133 0.0712764 0)
(-0.0336617 0.0802558 0)
(1.04886 0.00427321 -5.97893e-22)
(0.602027 0.324084 1.51852e-21)
(1.03964 0.00627205 7.40171e-23)
(0.87057 -0.105744 0)
(1.01577 0.0281379 5.3357e-22)
(1.00143 0.0344955 2.6063e-21)
(1.20751 -0.00837948 -1.45327e-20)
(1.07498 0.0111369 5.421e-21)
(1.06645 -0.00392931 0)
(1.11263 0.0446128 1.5518e-20)
(0.462854 -0.0151101 1.18886e-19)
(1.05437 0.00558332 4.7888e-22)
(1.05457 0.0249556 1.93591e-21)
(1.04372 0.00215406 0)
(1.07914 0.0107566 -2.04237e-21)
(1.04598 0.0136502 0)
(1.0449 0.000157663 0)
(1.11843 -0.00996685 -1.59838e-20)
(1.07525 0.0271497 0)
(1.03973 0.0033677 0)
(1.1363 0.108519 4.19474e-20)
(1.04941 -0.00326041 0)
(0.636581 0.000655001 1.11547e-19)
(0.825537 -0.23578 1.66657e-21)
(0.95699 -0.0752584 -7.0893e-21)
(0.768304 0.0923519 1.375e-21)
(1.04857 0.0494379 0)
(0.0581211 0.0618687 -3.16897e-20)
(1.02108 0.0497378 2.40758e-21)
(1.0731 0.0144091 3.78191e-21)
(1.04337 0.0257866 0)
(1.03408 0.00778731 1.10591e-21)
(1.02312 -0.0300223 1.21463e-21)
(1.06718 -0.00976902 -1.62235e-22)
(1.04032 -0.00231937 8.6105e-22)
(1.12534 0.152235 9.75072e-21)
(1.07749 0.0954133 -1.28212e-19)
(1.05281 -0.0140512 -5.68741e-22)
(1.0945 0.0315269 1.37939e-20)
(-0.0370683 0.0839563 -6.23135e-20)
(0.950586 -0.262826 -2.5588e-20)
(1.20981 -0.0147509 4.35292e-20)
(0.389579 0.00521346 -2.79497e-20)
(1.12902 0.147584 -5.55259e-20)
(1.0692 -0.00870562 4.3013e-21)
(1.03982 0.00189224 8.02503e-22)
(1.04977 0.00513635 -9.20807e-22)
(1.1746 -0.101788 -8.33256e-21)
(1.10928 0.102658 1.14576e-19)
(1.04409 0.0337597 0)
(1.03987 -0.00211729 7.9029e-22)
(1.10325 -0.0297413 -3.12983e-21)
(1.09261 0.0312183 0)
(1.06521 -0.0123372 -8.50718e-21)
(1.05507 0.0498442 0)
(1.14427 0.0899212 -5.19306e-20)
(1.04541 -0.00292066 0)
(1.05917 0.0222577 0)
(1.16672 0.109776 0)
(1.04583 -0.00301964 0)
(1.05389 0.00803413 -2.60697e-21)
(1.0003 -0.165511 -6.82858e-22)
(1.12244 0.0856979 6.96819e-21)
(1.04264 0.000387814 1.59286e-21)
(1.17992 -0.0333937 0)
(1.04553 -0.231477 -2.58963e-20)
(1.06661 0.0097631 0)
(1.21338 0.0615596 -5.18559e-20)
(1.07504 0.0308577 -1.19497e-21)
(-0.0394397 0.0817904 -6.07155e-20)
(1.10252 -0.0362206 5.12202e-22)
(1.13173 0.149504 -5.11735e-21)
(0.931551 -0.16077 -3.17074e-22)
(1.174 0.118276 0)
(1.12831 -0.00724686 0)
(1.13313 0.0575317 5.27491e-21)
(1.04834 0.00057186 -3.50701e-22)
(1.2617 -0.0227939 -1.11365e-19)
(-0.160331 0.051414 7.48559e-20)
(1.0269 -0.0121387 -6.68372e-23)
(0.849946 -0.00567657 -2.11692e-22)
(1.24561 -0.154934 8.00521e-21)
(1.08171 -0.00409508 0)
(1.11862 0.161866 9.21068e-21)
(1.0594 0.0208097 -2.05092e-21)
(1.11771 -0.0133029 -1.59396e-20)
(1.05433 -0.0229777 0)
(1.04033 -0.00248628 8.03042e-22)
(1.04428 0.00177387 1.68391e-21)
(1.03973 -0.0108034 0)
(0.378307 0.0370121 7.81456e-21)
(0.989825 -0.0461513 -1.45251e-22)
(0.894334 -0.379258 -5.16829e-20)
(1.0507 0.0121493 8.46017e-22)
(0.842761 -0.0311699 5.35297e-20)
(1.06636 -0.00874856 3.33668e-21)
(1.06573 -0.00155199 -6.26979e-21)
(1.18895 -0.0920425 2.79546e-20)
(1.04633 -0.00257264 7.05383e-23)
(0.875069 -0.0466123 2.76205e-21)
(1.14985 0.0864609 3.10567e-20)
(1.06481 -0.0141466 0)
(1.00365 -0.0181672 4.24029e-21)
(1.03932 -0.000110786 0)
(1.03052 -0.047033 -1.40378e-21)
(1.2383 0.0718945 0)
(1.11604 -0.00454059 -3.30328e-20)
(1.06931 0.00154514 0)
(1.00425 -0.0334565 1.21253e-21)
(1.22644 -0.0456612 0)
(0.545411 -0.0389526 -8.73976e-20)
(1.22442 0.0891906 0)
(1.2127 -0.0664071 -6.48086e-20)
(1.03888 -0.000164664 0)
(0.909584 -0.0314067 3.0855e-21)
(1.07393 0.0106155 -8.27282e-21)
(1.10935 0.0476118 7.16559e-21)
(1.08164 0.0346125 -1.00418e-20)
(1.13382 0.0993049 3.08789e-20)
(0.955616 -0.0885621 -4.81854e-21)
(1.04248 -0.000558951 5.33859e-23)
(1.07129 0.00357347 -1.485e-22)
(1.18086 0.092068 -8.094e-20)
(0.968458 -0.0601202 0)
(1.04178 -0.00122389 -3.18088e-22)
(1.09941 -0.00168272 0)
(1.01323 -0.0269315 -1.05177e-20)
(1.04795 0.0167172 0)
(1.06216 0.00895386 0)
(1.05362 0.0058586 1.64091e-22)
(1.10059 -0.0240709 0)
(1.0588 -0.0411141 -5.45897e-21)
(1.01383 -0.0193821 -1.32066e-21)
(1.07237 0.0421511 0)
(1.05896 0.0200785 4.30073e-22)
(1.04016 0.0598024 -7.61337e-23)
(1.04346 0.00495627 -6.61456e-22)
(0.0864388 0.0524311 0)
(0.0204989 0.0873176 -8.97133e-20)
(1.04903 -0.00479514 0)
(-0.0379287 0.0597553 -3.36216e-20)
(1.13782 0.0291567 -7.08539e-21)
(1.04178 0.000738158 0)
(0.94339 -0.136639 4.31884e-21)
(1.19087 0.0887587 3.99555e-21)
(1.14095 0.0967574 4.8553e-20)
(1.04643 0.0169802 1.48727e-22)
(1.05092 -0.00265114 1.34922e-21)
(-0.0273533 0.0599562 4.30313e-20)
(0.163372 0.0543109 -1.79591e-20)
(1.20589 0.12961 0)
(0.270725 -0.129424 -1.89249e-21)
(1.04201 -0.0011088 1.3389e-21)
(0.121172 0.0449686 0)
(1.19151 -0.0300323 -2.3557e-20)
(1.07519 0.0146645 0)
(1.11113 -0.00421365 -1.40338e-20)
(1.12511 0.0848535 0)
(1.14639 0.0891996 1.55824e-20)
(1.23332 -0.0788476 0)
(1.038 0.000117627 0)
(1.03921 -0.00147582 -1.27779e-21)
(1.05025 -0.137898 -3.41606e-20)
(1.07387 0.012983 -4.58287e-21)
(1.07866 0.0126005 0)
(1.06056 0.00989364 0)
(-0.0509538 0.0645642 0)
(1.09929 -0.0163992 8.56747e-22)
(1.20138 0.117957 5.21302e-20)
(1.10147 0.164767 -4.71162e-20)
(0.989318 -0.385395 -2.26699e-20)
(0.966133 -0.0473774 3.94958e-22)
(1.04156 -0.00047134 1.19895e-21)
(1.20866 0.124665 1.86751e-20)
(1.07742 0.00579388 7.47463e-21)
(0.805758 0.0141285 -2.34195e-22)
(1.1922 -0.0364853 2.10209e-20)
(-0.0319787 0.111547 6.71599e-20)
(1.04271 0.00562114 4.59701e-22)
(0.976146 -0.0575579 0)
(1.05749 -0.00259839 -2.27794e-21)
(1.04747 -0.00147987 -3.89889e-22)
(1.10341 0.0890878 0)
(0.803999 0.137211 -4.42235e-20)
(0.915258 -0.0201315 -3.70125e-21)
(1.03356 0.010653 -2.3147e-21)
(1.08424 0.0163291 1.00676e-20)
(1.12211 0.0880808 -8.1566e-21)
(1.03952 -0.000845526 0)
(1.08029 -0.00926535 -2.50416e-21)
(1.02775 -0.0059359 0)
(1.05604 0.00591726 -1.69072e-22)
(1.11159 0.0155592 1.4352e-20)
(1.03361 0.027075 0)
(1.05868 0.0217399 1.86774e-21)
(1.04836 0.00460311 -6.31777e-22)
(1.06066 0.0286273 -2.51053e-21)
(0.562033 0.00474089 0)
(1.00816 -0.0223003 0)
(0.941973 -0.342585 1.08658e-20)
(1.07494 -0.016083 4.66965e-21)
(0.764566 0.122392 1.05258e-20)
(1.12679 0.110793 2.16943e-20)
(1.04218 0.00861444 -8.31377e-22)
(1.20579 0.0863724 2.99521e-20)
(1.16692 0.144849 -2.02099e-20)
(0.862247 -0.395978 1.89522e-20)
(1.05546 0.00530149 -1.26977e-22)
(0.0648887 0.0512352 8.02461e-20)
(1.04623 -0.00280819 -1.22562e-22)
(1.15509 0.0360391 -1.73054e-20)
(1.06131 0.0164428 -1.88482e-21)
(1.20382 -0.0611362 4.48777e-21)
(1.0483 0.00450496 -5.8439e-24)
(1.0396 0.000663689 -7.86776e-22)
(1.03636 -0.0155283 0)
(1.05517 0.00633537 -5.53805e-22)
(1.04665 0.0360181 -3.92655e-21)
(1.07022 -0.044848 5.85928e-21)
(0.617443 -0.075184 -8.71515e-22)
(0.910718 0.210322 -7.64833e-21)
(1.14394 0.0390772 -6.45009e-21)
(1.04079 -0.000149229 -3.64405e-21)
(1.03795 -4.84658e-05 4.50173e-22)
(1.04737 0.00326413 -6.69509e-23)
(1.03944 -0.000162649 0)
(1.04124 0.000575899 0)
(1.04763 -0.00496182 6.59885e-22)
(0.709015 0.102538 1.03682e-20)
(1.11775 0.0973248 0)
(1.03581 -0.00309576 2.49864e-21)
(1.13818 0.00945499 0)
(1.07663 -0.0405052 6.7765e-21)
(1.03935 0.000457563 -1.96596e-21)
(1.19347 0.0526551 0)
(0.979576 -0.167857 -2.34768e-20)
(1.02376 0.000167881 -1.33214e-21)
(1.04357 -0.000588496 0)
(1.25313 -0.100162 0)
(1.04216 0.036619 -5.84646e-21)
(0.330007 0.0828034 0)
(1.02599 -0.0215293 1.2001e-21)
(1.03928 -3.16042e-05 0)
(1.05249 0.00303065 -1.62309e-21)
(1.23981 0.0412508 -9.2134e-20)
(1.0349 -0.00160728 3.63118e-21)
(1.14567 0.145718 0)
(1.26067 -0.0158897 0)
(1.04124 -0.00100933 3.04914e-21)
(1.04378 0.00469943 6.7324e-22)
(1.04213 -0.12794 3.58089e-20)
(0.965127 -0.211933 3.26821e-21)
(1.07339 -0.0129362 7.97364e-22)
(0.706883 0.122723 0)
(1.08149 0.0471146 8.82671e-21)
(1.07002 0.0463385 1.3568e-22)
(0.838712 -0.0358676 0)
(0.629637 0.289434 -1.69932e-20)
(1.1355 0.0961242 -1.2596e-22)
(1.06349 -0.133401 4.34959e-20)
(0.971168 -0.236729 2.98772e-21)
(0.919219 -0.265231 6.02656e-22)
(1.0179 -0.0224845 2.67026e-21)
(0.057294 0.0709252 4.22399e-22)
(1.04329 0.00583849 -1.01876e-21)
(1.02077 0.0283863 -3.85998e-21)
(1.06163 0.0498393 -1.61054e-22)
(1.09749 0.0297224 9.08595e-21)
(1.08202 -0.0016927 -9.4423e-21)
(1.03958 0.00167254 3.27823e-21)
(1.10857 -0.0100975 1.98726e-21)
(0.854773 0.0107969 1.15653e-22)
(1.01315 -0.03118 -1.46266e-21)
(0.750169 0.11091 -1.27391e-21)
(1.03951 0.00152846 -1.60555e-21)
(1.04926 0.016225 6.13421e-22)
(1.09355 0.00653536 -2.32284e-21)
(1.05164 0.0105395 -9.11894e-22)
(1.05318 0.00276112 0)
(1.02661 -0.0113704 3.94612e-23)