/*--------------------------------*- C++ -*----------------------------------*\
| =========                 |                                                 |
| \\      /  F ield         | OpenFOAM: The Open Source CFD Toolbox           |
|  \\    /   O peration     | Version:  v2012                                 |
|   \\  /    A nd           | Website:  www.openfoam.com                      |
|    \\/     M anipulation  |                                                 |
\*---------------------------------------------------------------------------*/
FoamFile
{
    version     2.0;
    format      ascii;
    class       volScalarField;
    location    "200";
    object      k;
}
// * * * * * * * * * * * * * * * * * * * * * * * * * * * * * * * * * * * * * //

dimensions      [0 2 -2 0 0 0 0];


internalField   nonuniform List<scalar> 
13308
(
0.000184088
0.00017176
0.000199047
0.000149709
0.000149493
0.000162489
0.000152741
0.000185022
0.000150945
0.000146865
0.000173728
0.00572315
0.00019784
0.000152785
0.000151171
0.000149413
0.000149486
0.000146967
0.000182705
0.0001668
0.000148138
0.000145419
0.000145332
0.000147592
0.000192336
0.000149493
0.00507021
0.000145439
0.00426602
0.000145343
2.98319e-05
0.000219753
0.00020912
0.00471551
0.000183174
0.000149832
0.00014532
0.000148683
0.000149757
0.000155062
0.000158677
0.000153728
0.000185156
0.000159667
0.000611194
0.00523682
0.000149026
0.000148538
0.000159952
0.000149766
6.03153e-05
0.000172067
0.000145307
0.0043499
0.000162237
0.000153522
0.000157786
0.000147742
0.000146878
0.00016823
0.000149626
0.000147784
0.000160629
0.00015484
0.000149352
0.000152872
0.000170979
0.00469138
0.00526215
0.000146834
0.000149294
0.000160393
0.000146206
0.000157758
0.000152453
0.000148814
0.00482145
0.000179787
0.000210336
0.000160585
0.000145103
0.000168432
0.000148659
0.00014824
0.000553406
0.000152841
0.000146995
0.000166537
0.00016728
0.000148007
0.000146969
0.0051521
0.000179516
0.000174276
0.000158776
0.000177973
0.000145033
0.000186912
0.000159668
0.00017587
0.000178341
0.000148504
0.000148995
0.000152217
0.000146062
0.000147845
0.00019227
0.000168012
0.00016631
0.000202101
0.000176687
0.000362574
0.000146932
0.000670172
0.000178378
0.000204802
0.000157463
0.000164262
0.000155928
0.000176736
0.000158493
0.000148679
0.000149076
0.000152644
0.000181414
0.000153047
0.000365649
0.000149677
0.000149688
0.000208426
0.000187284
0.00016555
0.000149799
0.000174097
0.000149063
0.000160474
0.000151235
0.000148959
0.000203669
0.000152144
0.000216356
0.00486376
0.00479166
0.000162955
0.00596067
0.000177322
0.000160191
0.000145713
0.000148467
0.00474497
0.00074507
0.000151267
0.000166943
0.00014864
0.000145312
0.000159939
0.000148035
0.000158122
0.000183306
0.0048662
0.000174013
0.000256871
0.000164509
0.000151217
0.000145264
0.000174936
0.000166186
0.000208826
0.000189641
0.000190117
0.000183597
0.000171194
0.000479836
0.00019743
0.000165283
0.000149617
0.000158307
0.000186404
0.000149173
0.000149033
0.000172901
0.000155721
0.000149766
0.00143125
0.000155312
0.000151553
0.000149003
0.000153245
0.000148639
0.000163193
0.000165212
0.000165621
0.000176397
0.000389275
0.000192818
0.000187248
0.000180222
0.000149247
0.000149224
0.000182596
0.000219531
0.000166414
0.000171451
0.000152911
0.000164232
0.000186289
0.000155677
0.000156832
0.000148491
0.000161059
0.000176096
0.000270685
0.00014937
0.000202054
0.000170812
0.000168988
0.000145888
0.000180249
0.00014677
0.000146992
0.000150923
0.000148848
0.000149683
0.000176391
0.000146084
0.000193277
0.00016561
0.000149828
0.000394824
0.000168055
0.000160715
0.00014876
0.000148167
0.000152961
0.000161216
0.000153551
0.00014626
0.000144581
0.000165405
0.000147266
0.000154609
0.000164382
0.000148695
0.000186271
0.000162363
0.000154834
0.000215647
0.000157111
0.000149095
0.000164696
0.000179744
0.000146022
0.000177272
0.000149086
0.000149538
0.000168807
0.00014534
0.000147161
0.000149495
0.000164315
0.000173917
0.00014602
0.00014949
0.000152649
0.00489387
0.000149102
0.0002068
0.000173005
0.000651967
0.000176275
0.000145106
0.00017144
0.000152282
0.000159824
0.000184479
0.000188793
0.000144573
0.000157419
0.000186864
0.000158107
0.000153112
0.000149536
0.000186835
0.000189771
0.000185988
0.000148906
0.00014901
0.000173317
0.000148649
0.000165063
0.000207783
0.00503491
0.000204605
0.00478581
0.000168027
0.000145298
0.000157099
0.00014991
0.00434269
0.000149402
0.004676
0.000162293
0.000174827
0.000145933
0.000177543
0.000148389
0.00018197
0.000168145
0.000152495
0.000145887
0.000169797
0.000180109
0.000224203
0.000152086
0.000182507
0.00472131
0.000186185
0.000165971
0.000182998
0.000169404
0.000152366
0.000176302
0.000162047
0.000148395
0.000175038
0.000174293
0.000152592
0.000148157
0.000172408
0.000151354
0.000190457
0.000186875
0.000164022
0.000154569
0.000166322
0.000192343
0.000181419
0.0001565
0.000149822
0.000167202
0.000213261
0.000148995
0.000160695
0.000154783
0.000171707
0.000148724
0.000154367
0.000150797
0.000149759
0.000106197
0.000158161
0.000153581
0.000166582
0.000157343
0.000173884
0.000151276
0.00017082
0.000203832
0.000187451
0.000149179
0.000167648
0.000166619
0.00561623
0.000153234
0.000191527
0.00015566
0.000162727
0.000188014
0.000149781
0.000169283
0.000187337
0.00486742
0.000189742
0.000180204
0.000164147
0.000155349
0.000182335
0.000153016
0.000176607
0.000156672
0.000149098
0.000176774
0.000149778
0.00017067
0.000173547
0.000148517
0.000157172
0.000174465
0.000149774
0.000567586
0.00481904
0.000163363
0.000159828
0.00643768
0.000163668
0.000170897
0.000148117
0.000154504
0.000189519
0.00496355
0.000186434
0.000170555
0.000148464
0.000177064
0.000163671
0.000145328
0.000151785
0.000147988
0.000211745
0.000177529
0.000177053
0.00488581
0.000186242
0.000150808
0.000338172
0.00016185
0.000188835
0.000148207
0.000147067
0.000155769
0.000162695
0.000148719
0.00018661
0.000163534
0.000167618
0.000182484
0.000154136
0.000367476
0.000207484
0.000206588
0.00015198
0.000878438
0.00467394
0.00017029
0.00014656
0.000180597
0.000148421
0.000152365
0.000161298
0.000156816
0.000147239
0.000147504
0.000149656
0.000167369
0.000148838
0.00475375
0.000181968
0.000147961
0.00015557
0.00018692
0.000190873
0.00015056
0.000156222
0.000161416
0.000170945
0.0060026
0.000149393
0.000152179
0.000186007
0.000189815
0.000155524
0.000178014
0.000162237
0.000149143
0.000155761
0.000169246
0.000148916
0.000729886
0.000161818
0.000150896
0.000163788
0.000154981
0.000186392
0.000183391
0.000147288
0.000149447
0.000161931
0.000149465
0.000174914
0.000149944
0.00017384
0.000148022
0.000170802
0.00016817
0.000147492
0.000152265
0.000154882
0.000163698
0.000145119
0.000168544
0.00017084
0.00253708
0.000148862
0.000186294
0.000158286
0.000181559
0.000192872
0.000148219
0.000151823
0.000150539
0.000156544
0.00580817
0.000177799
0.000184353
0.000173578
0.00486363
0.000148418
0.000190669
0.000172309
0.00018016
0.000154938
0.0036005
0.00178292
0.00017976
0.000156905
0.000200926
0.000205779
0.000148996
0.00018082
0.000154724
0.000186205
0.00482892
0.000152449
0.000188025
0.00019554
4.47234e-05
0.000191598
0.000172268
5.75146e-05
0.000184438
0.000147704
0.000149028
0.000755174
0.000181162
0.000163455
0.000159431
0.00017029
0.000164488
0.00018792
0.000149109
0.000185983
0.00479649
0.0073391
0.000159592
0.000147726
0.000178287
0.00014938
0.00672065
0.00020192
0.000190969
0.00014745
0.000148765
0.000181097
0.000147897
0.000184498
0.000144732
0.000189209
0.000149099
0.000190862
0.000144979
0.000147223
0.000148241
0.000181424
0.000155595
0.000148716
0.000159263
0.000186083
0.000183447
0.000149715
0.000148089
0.000355378
0.000147006
0.000149689
0.00424975
0.000147399
0.00612571
0.000160768
0.000149708
0.000164706
0.000157022
0.000163202
0.000161741
0.000171186
0.000151996
0.000181702
0.000147856
0.000169925
0.00014902
0.000178557
0.000182915
0.000153506
0.000149011
0.000156613
0.000189559
0.000159331
0.000168203
0.000159501
0.000181939
0.000161648
0.00497613
0.000269825
0.000147899
0.000147312
0.000148801
0.000152987
0.000157397
5.23882e-05
0.000168573
0.000192833
0.000155939
0.000147315
0.000144939
0.000169956
0.000581064
0.000156062
0.00021262
0.000153204
0.000145959
0.000119296
0.000188842
0.000211745
0.000174508
0.000181878
0.000311791
0.000208079
0.000148138
0.00476189
0.000186294
0.000187386
0.00016316
0.00482832
0.000153395
0.000147059
0.000145879
0.000176962
0.000149092
0.000149344
0.0001517
0.000172658
0.000209885
0.00657717
8.43977e-05
0.00018258
0.000147485
0.000149658
0.000149339
0.000152766
0.000147821
0.000147564
0.000174993
0.000182804
0.000149011
9.04654e-05
0.000146581
0.000157374
0.000169416
0.000152577
0.000149623
0.000146116
0.000174986
0.000154089
0.000155727
0.000152777
0.00333163
0.000182282
0.000148239
0.000184732
0.000149065
0.000148936
0.000148939
0.000650178
0.00017689
0.000173657
0.000155051
0.000148575
0.000174277
0.000163955
0.000146414
0.000162307
0.000543232
0.00487824
0.000177598
5.94117e-05
0.000148812
0.000158122
0.00489595
0.000148969
0.000175616
0.000162453
0.000147724
0.000152213
0.000157221
0.00487182
0.000149783
0.000157585
0.00016912
0.000205377
0.000144564
0.000147999
0.000161987
0.000146288
0.000166001
0.00484732
0.00017971
0.000145941
0.00236053
0.000186795
0.000180967
0.000146299
0.000214367
0.000165945
0.00473799
0.000154887
0.000147058
0.000145971
0.000152786
0.000147888
0.000168358
0.000153287
0.00018637
0.000148982
0.000167159
0.00485156
0.000148141
0.000145931
0.000177152
0.0009535
0.000165649
0.00018262
0.000146472
0.000148875
0.000701957
0.000149715
0.000149563
0.000150771
0.00491273
0.000176748
0.000292341
0.000146561
0.000191094
0.000184908
0.00014616
0.000168017
0.000173331
0.000148961
0.000146494
0.000156937
0.000168744
0.0001762
0.000156715
0.000186761
0.000149607
0.00102314
0.000148594
0.000190584
0.00020637
0.00014942
0.00021212
0.000163189
0.000149039
0.000161241
0.000177093
0.000147686
0.000147766
0.000149389
0.000148817
0.00015671
0.000148506
7.23379e-05
0.000166933
0.000186831
0.000149143
0.000176582
0.000168729
0.00514514
0.000167572
0.000233398
0.000378551
0.000149942
0.000544253
0.000154087
0.000147676
0.000147946
0.000157582
0.000147028
0.000152647
0.00468715
0.00266808
0.00476526
0.000165728
0.00014783
0.000150521
0.000148398
0.000155683
0.000187913
0.000146023
0.000161479
0.000181909
0.00488592
0.000149469
0.000147575
0.000149149
0.000146006
0.000149686
0.000148977
0.000173146
0.000147292
0.000154856
0.000147072
0.000199335
0.000157218
0.000371351
0.000155889
0.00019202
0.000170457
0.000151537
0.000157987
0.00015971
0.000147105
0.000162812
0.000152737
0.000182772
0.000182334
0.00482309
0.000180537
0.000149477
0.000149382
0.000154437
0.000147404
0.000188785
0.000148846
7.83247e-05
0.00016778
0.000178686
0.000170499
0.000155013
0.000146249
0.000160912
0.000147849
0.000167082
0.000155513
0.000155425
0.00590833
0.000173951
0.000146531
0.00016323
0.000148154
0.00016138
0.000147678
0.000174176
0.000156065
0.00425964
0.000205982
0.000153211
0.000148543
0.0001484
0.000149173
0.000145203
0.000172004
0.000151908
0.000147954
0.000150583
0.000149097
0.000164968
0.000180637
0.000175961
0.000168859
0.00113874
0.0001465
0.000153055
0.000148539
0.00015958
0.00482454
0.000151355
0.000149762
0.000161139
0.000165979
0.000184816
0.000173467
0.000152384
0.000183839
0.000161097
0.000147015
0.000150774
0.000153399
0.00014764
0.000209325
0.000155982
0.00485195
0.000194939
0.00017987
0.000186409
0.000155499
0.00152915
0.000158352
0.000212962
7.05068e-05
0.000147632
0.000163428
0.000153132
0.000148694
0.00017471
0.000834751
0.00015465
0.000149888
0.000149694
0.000163091
0.000187391
0.000488558
0.000149121
0.00702518
0.000155179
0.000166351
0.00480306
0.000148812
0.000149723
0.000190201
0.000150431
0.000151735
0.000148273
0.00494924
0.000147858
0.00323541
0.000160728
0.000160916
0.000184331
0.000185776
0.000153668
0.000169155
0.000146058
0.000155973
0.000185189
0.000147831
0.000197824
0.000147436
0.000157246
0.00014792
0.00670418
0.00018038
0.000184921
0.000205377
0.000147053
0.00445662
0.000167599
7.70557e-05
0.000147199
0.00471583
0.000179438
0.000146325
0.000166457
0.000207477
0.00016427
0.000149719
0.000148583
0.00015329
0.000304162
0.000160979
0.000163781
0.000181197
0.000147605
0.000147703
0.000165226
0.000147476
0.000177971
0.000151533
0.000145671
0.000149911
0.000146989
0.000146925
0.000176501
0.000149239
0.000186493
0.000147051
0.000148847
0.000147968
0.00502791
0.000146123
0.000174396
0.00014769
0.00427911
0.000169303
0.00492652
0.000149186
0.000163611
0.000185323
0.00015224
0.00402454
0.000153858
0.000164592
0.0002069
0.000171784
0.000181913
0.000185253
0.00428656
0.000148283
0.000155558
0.000148148
0.000163653
0.000175593
0.000145914
0.000149479
0.000146385
0.000157435
0.000152516
0.000149795
0.000185852
0.0002018
1.83394e-05
0.000156428
0.00500488
0.000163192
0.000172321
0.000192619
0.00016651
0.000149944
0.00703946
0.000149774
0.000152771
0.00418442
0.000176056
0.000146247
0.000210067
0.000146554
0.000184591
0.000156666
0.000150429
0.000165503
0.000220778
0.000186141
0.000186799
0.000192992
0.000189949
0.000254185
0.000153933
0.000197476
0.000148638
0.000376871
0.00014583
0.000164671
0.00016052
0.000186222
0.000146935
0.000148671
0.000158707
0.000177927
0.000173143
0.000174048
0.000185048
0.000146475
0.000149893
0.000149887
0.000151752
0.000162577
0.000180836
0.000152385
0.000154833
0.00014702
0.000153509
0.000148715
0.000161424
0.000208968
0.000154087
9.61109e-05
0.000154491
0.000146082
0.000169616
0.000148484
0.000176956
0.000147152
0.000164229
0.000146685
0.000152779
0.000181768
0.000147151
0.000162739
0.000158663
0.000147846
0.000147228
0.000166281
0.000147732
0.00203661
0.000162666
0.00016957
0.000152352
0.000165258
0.000168625
0.000147128
0.000152585
0.000157902
0.000163406
0.000190611
0.000179669
0.000163395
0.00014727
0.000189656
0.00014785
0.000157943
0.00017364
0.000145856
0.000147415
0.00017936
0.000154239
0.000149472
0.000173244
0.000147713
0.000163302
0.00384198
0.000194937
0.000152782
0.000152776
0.000147219
0.000153249
0.000208526
0.000147194
0.000158368
0.000146714
0.000150239
0.000186615
0.000158744
0.000147452
0.000186113
0.000149167
0.000640947
0.000172238
0.00015221
0.000152856
0.000173238
0.000151509
0.000171999
0.000145882
0.000170219
0.000169194
0.000181222
0.000172178
0.00017239
0.000146137
0.000146663
0.00016089
0.000149721
0.00015291
0.000153542
0.000104472
0.000178743
0.00016303
0.000146595
0.005439
0.000144947
0.000148004
0.000148483
0.000158817
0.000152503
0.000147876
0.000146361
0.000185044
0.000153471
0.000169651
0.000147606
0.000148937
0.000336879
0.000160371
0.00484134
0.000185285
0.000175419
0.00487298
0.000149769
0.000152463
0.000146181
0.000158056
0.000145213
0.00017329
0.000190218
0.00014894
0.000169372
0.000153419
0.000156533
0.000693894
0.000190446
0.000148708
0.000189392
0.000146438
0.000158509
0.0055003
0.000160423
0.000147139
0.000146479
0.000152441
0.000152238
0.000144928
0.00014973
0.000206285
0.00342933
0.000153744
0.0001471
0.000147008
0.000147821
0.000147567
0.000166082
0.000146619
0.00489929
0.00016591
0.00018557
0.000212252
0.000144798
0.000154794
0.000148061
0.00015101
7.73395e-05
0.000192736
0.000158644
0.00018418
0.000179962
0.00467842
0.000149101
0.00016194
0.000146398
0.000205044
0.000155105
0.000163671
0.000191965
0.000163683
0.000435805
0.000150579
0.00018257
0.000147361
0.00018441
0.000190587
0.000151033
0.0015508
0.000156141
0.000149172
0.000189548
0.000178982
0.000147646
0.00017022
0.000145912
0.000146148
0.000146091
0.000167267
0.000169015
0.000168979
7.17397e-05
0.000171692
0.00014908
0.00488763
0.000153903
0.000146714
0.000185935
0.000186568
0.000152529
0.000149026
0.000151456
0.000159256
0.000148376
0.000148614
0.000168376
0.000158398
0.000153925
5.29096e-05
0.000149792
0.000149277
0.000151749
0.000155625
0.000145766
4.43921e-05
0.000149508
0.000155969
0.000148446
0.00015652
0.000173158
0.000147962
0.00484336
0.000176765
0.000148427
0.000159933
0.000168518
0.00014981
0.000169352
0.000152572
0.000149822
0.000170109
0.000149467
0.000184991
0.000191486
0.000148998
0.000214557
0.000178654
0.000179817
0.000202357
0.000161279
0.000146581
0.000148756
0.00476383
0.000178618
0.000146783
0.000146872
0.00144521
0.000184316
0.000148143
0.00479998
0.00149305
0.00428151
0.000158386
0.000152609
0.000149763
0.000154209
0.000157228
0.000172751
0.000148917
0.000154304
0.000145426
0.000170476
0.000187772
0.000173997
0.00523654
0.000171085
0.000157003
0.00015851
0.00015953
0.00015104
0.000159523
0.000170066
0.000153202
0.000184874
0.000147139
0.00014739
0.000179502
0.000165207
0.000168119
0.000184532
0.000149402
0.000146422
0.000183647
0.000148669
0.00014535
0.000187554
0.000147109
0.00484132
0.000151146
0.000150444
0.000149689
0.000163813
0.000149172
0.00014483
0.000149492
0.00016567
0.000146836
0.000208481
0.000160917
0.000200634
0.000946722
0.00018809
0.000106533
0.000160914
0.000171634
0.000189653
0.00449052
0.000158147
0.000149884
0.000170414
0.000149636
0.000158688
0.00764954
0.000169467
0.0001472
0.000173101
0.000244176
0.000147272
0.000215876
0.000173928
0.000157302
0.000147494
0.000160123
0.000165555
0.00016577
0.000191354
0.000165823
0.000160775
0.000148727
0.000147043
0.00014794
0.00015181
0.000162514
7.88988e-05
0.000149518
0.000253249
0.000156363
0.000155963
0.000111771
0.00291245
0.000101774
0.000145729
0.000146119
0.000149094
0.00257277
0.000208208
0.000176831
0.000171339
0.000210301
0.000147141
0.000148832
0.000153922
0.000146415
0.000156982
0.000150685
0.000152406
0.00018487
0.00017585
0.000151421
0.000147329
0.000168632
0.0001701
0.000191766
0.000183332
0.000149569
0.00293136
0.000180564
0.000164903
0.000171559
0.000184545
0.00015917
0.000162813
0.00606069
0.000156814
0.000161157
0.000148518
0.000169723
0.000152334
0.000147355
0.000173091
0.00675819
0.000176517
0.000161291
0.000174773
0.00497642
0.00527156
0.000150832
0.000145322
0.000146282
0.00476994
0.000148385
0.000151864
6.79368e-05
0.000149823
0.00017132
0.00014979
0.000149871
0.000148436
0.000175719
0.000438972
0.000183182
0.000147824
0.000157482
0.000197822
0.000149286
0.00543567
0.00732193
0.00504075
0.000163913
0.000150919
0.000161634
0.00016404
9.61e-05
0.000153887
0.000189655
0.000154193
0.000146928
0.000148522
0.000148104
0.00476646
0.000158812
0.000157192
0.000155293
0.000147161
0.000148468
0.00037793
0.000152916
0.000154947
0.000153129
0.000149656
0.000620866
0.00014589
0.00151978
0.000148453
0.000172036
0.000146456
0.000161385
0.00017924
0.000177928
0.000149767
0.000147822
0.000149308
0.000148594
0.000177307
0.000189365
0.000153784
0.00015676
0.000151995
0.000165685
0.000152974
0.000149676
0.00528386
0.00018477
0.00016723
0.000152093
0.000147964
4.30835e-05
0.000153851
0.000205631
0.000214488
0.000150569
0.000146949
0.000157919
0.000153757
0.00502806
0.000148116
0.00019882
0.00014843
0.00014857
0.000155352
0.000153303
0.000173168
0.000190025
0.000175563
0.000163332
0.000183643
0.000148253
0.00626139
0.000147332
0.000149892
0.00015043
0.000169214
0.000172763
0.000169407
0.000146354
0.000153596
0.000152269
0.000147347
0.00583445
0.00014656
0.000147996
0.000149375
0.000158975
0.000210671
0.000162005
0.000166686
0.000149501
0.000166829
0.000148815
0.000151394
0.000161525
0.000159489
0.000180338
0.000150832
0.000150422
0.000205549
0.000146458
0.000146743
0.000186063
0.000179798
0.00016165
0.000188956
0.00015364
0.000169218
0.00341013
0.000173685
0.000161069
0.000157674
0.000187039
0.000176434
0.000146564
0.000167126
0.000173277
0.000154857
0.000148394
0.000148116
0.000187058
0.000148503
0.00474005
0.000151885
0.000147594
0.000146774
0.00468828
0.00014919
0.000156224
0.000155912
0.000180635
0.000149642
0.000147111
0.000147553
0.000159747
0.000145315
0.000148596
0.000148523
0.000165428
0.00017835
0.000166505
0.000155358
0.000184071
0.0045979
0.000153078
0.000160012
0.000149207
0.000149281
0.000198672
0.00353222
0.000184801
0.000150707
0.000153538
0.000152929
0.000171635
0.00479843
0.00477808
0.000170846
0.000178714
0.000157801
0.000187597
0.000170929
0.000183388
0.000183562
0.00015269
0.000185825
0.000149544
0.000214192
0.00014927
0.000170895
0.000147497
0.000172387
0.000147744
0.000149598
0.000157467
1.98485e-05
0.000158106
0.00016321
0.000149928
0.00581524
0.00014603
0.000162916
0.000147116
0.000149057
0.000148077
0.000161768
0.000145869
0.000166512
0.000184136
0.000144817
0.000151532
0.000178139
0.000149169
0.000149686
0.000164379
0.000151025
0.00015207
0.000156155
0.000175608
0.000149083
0.000153456
0.000146454
0.00456094
0.000157597
0.000157796
0.000166163
0.000181803
0.000152073
0.000146072
0.000175689
0.00598923
0.000150128
0.000147144
0.000165183
0.000190901
0.000150566
0.000166916
0.00016572
0.000211721
0.000186702
0.000161708
0.00014791
0.000148495
0.00016391
0.000187178
0.000150764
0.00480637
0.000176091
0.000159399
0.000170623
0.000154501
0.00015878
0.00015945
0.000151319
0.000145402
0.00441061
0.00015053
0.000170118
0.000170777
0.00016825
0.000168084
0.000154047
0.00016052
0.000186131
0.000152757
0.000147268
0.000171673
0.000178843
0.000149371
0.000146597
0.00614763
0.000148222
0.000173706
0.000186278
0.000147147
0.000166521
0.00251892
0.000169225
0.000153077
0.00017615
0.000181514
0.000158266
0.000174801
0.00015105
0.000152743
0.000184153
0.000148988
0.0036004
0.00017381
0.000163174
0.000159098
0.000162821
0.000148048
0.000170825
0.00020038
0.000148416
0.0001858
0.000168052
0.000164037
6.68801e-05
9.34417e-05
0.00426588
0.000146486
0.000149326
0.00015225
0.000198174
0.000163936
0.000103269
0.000183857
0.000169826
0.000196247
0.00015198
0.000164811
0.000160628
0.00015067
0.000162638
0.000147194
0.000174727
0.000184545
0.000166302
0.000146232
0.000194776
0.000169013
0.000176039
0.000149455
0.000169309
0.000149014
0.000192283
0.00017767
0.000186524
0.000156882
0.000186701
0.00448645
0.000145422
6.81583e-05
0.000146272
0.0001518
0.000158841
0.000156122
0.000147958
0.000170143
0.00014839
0.000177565
0.000190027
0.000149212
0.000192577
0.000147653
0.000159915
0.000174217
0.000152222
0.000172775
2.75779e-05
0.000157882
0.000147064
0.000149553
0.000145981
0.000176099
0.000165036
0.00462521
0.00014581
0.000154325
0.000156387
0.000153641
0.00280326
0.000121429
0.000167528
2.03876e-05
0.000136118
0.000147133
9.06288e-06
0.000180798
0.000156873
0.000198248
0.000159147
4.12116e-05
0.00017283
0.000183789
0.000151966
0.000175501
4.7775e-05
0.00429632
0.000175344
0.000152782
0.000148729
0.000180664
0.000151162
0.0038401
0.000164079
0.00021953
0.0040621
0.000173216
0.00488567
0.000148756
0.000125655
0.000153972
0.000168341
0.000164178
0.000156855
0.000171144
1.92525e-05
0.000148429
0.000158593
0.000168271
0.000152025
0.000146194
0.000165435
0.000185127
0.000160549
0.000169011
0.000169024
0.000157932
0.00446933
0.000147174
0.00498302
0.000187929
0.000150805
0.00016137
0.000148126
0.000145569
3.82343e-05
0.000148159
0.000171921
0.000148573
0.000159766
0.000155494
0.000182073
0.000166851
0.000153779
0.00014843
0.000156133
0.000148285
0.000152216
0.000158256
0.000149388
0.000159613
0.000182671
0.000149723
0.000292486
0.000146097
0.000237083
0.000179425
0.000172932
0.000148167
0.000167899
0.000189317
0.000169153
0.000190951
0.000189465
0.000148523
0.000148787
0.000183475
0.000175111
0.000153189
0.000159549
0.000184874
0.000146439
0.000162122
0.000146863
0.000146723
0.000149023
0.000161822
0.000172788
0.000146444
0.000178282
0.000148004
0.00012933
0.000181789
0.000148815
0.000148863
0.000156797
0.000144869
0.000149066
0.000163737
0.000146509
0.000175529
0.00015623
0.000150442
0.000162061
0.000148184
0.000148163
0.000101613
0.000169856
0.00566401
0.000148372
0.000156029
0.00476958
0.000146202
0.000175721
0.000156058
0.000167865
0.000153173
0.000170103
0.000162082
0.00015991
0.000152935
0.000175779
8.35302e-05
0.000147947
5.56055e-05
7.7649e-05
0.000151781
0.000155921
0.00456224
0.000189195
0.000157406
0.000149141
0.000155655
0.000170726
0.00014839
0.000151813
0.000174908
0.000152914
0.000178511
0.000160584
0.000148636
0.000148997
0.000190386
0.000155301
0.000169521
0.000148377
0.000165061
0.000147268
0.000148525
0.0001733
0.000163663
0.000152494
0.000191596
0.000177283
0.000149566
0.000158878
0.000160133
0.000146621
0.000204559
0.000157402
0.00353383
0.000149797
0.000145782
0.000149414
0.000175274
0.000172105
0.000185096
0.000149622
0.000187636
0.000176869
0.000181698
0.000147812
0.000185433
0.00019704
5.00536e-05
0.000149563
0.000163204
0.000166088
0.000166337
0.000185795
0.00199311
0.000193156
0.000175072
0.000176846
0.000149865
0.00561272
0.000155056
0.000189622
0.000172955
0.000172773
0.000149126
0.000172503
0.000174507
0.000149123
0.000147913
0.000146499
0.000149107
0.000162144
0.000102094
0.00582611
0.000163688
0.000156735
0.000146978
0.000161698
0.000147526
0.00015319
0.000152458
0.000159553
0.000188935
0.000148373
0.000156401
0.000149293
0.000168956
0.000158282
0.000145538
0.000174577
0.000162956
1.82334e-05
0.00014826
0.000167486
0.000153343
0.000149319
0.000185195
0.000153558
0.000149817
0.000179119
0.000148785
0.000157329
0.000996721
0.000146983
0.000147422
0.000172559
0.00017185
0.000190199
0.000161824
0.000168013
0.000147079
0.000149564
0.000158316
0.000230243
0.000166452
0.000180882
0.000171088
0.000146042
0.000180149
0.000192467
0.000152937
0.000148054
0.000150657
0.000147878
0.000178206
0.000167208
0.00015122
0.000151645
0.000175692
0.00017166
5.76516e-05
0.000151907
0.000166689
0.000160491
5.83097e-05
0.000167437
0.00015421
0.000154317
0.000151308
0.000184362
0.00015454
0.000184963
0.000159042
0.000147793
0.000149548
0.000156252
0.000195886
0.000169641
0.000149084
0.000145747
0.000157035
0.00015879
0.000147873
0.000152953
0.000185352
0.000158376
0.000155262
0.000155689
0.000155823
0.000147178
0.000146558
0.00164168
0.00019219
0.000184701
0.00443731
0.000147066
0.00015672
0.000150597
0.000176202
5.89643e-05
0.000154976
0.000201446
0.000161999
0.000153312
0.00469958
7.19563e-05
0.000152655
0.00015274
0.000145704
0.00395792
0.000158683
0.00014654
0.000183574
0.000202864
0.000188953
0.000204903
0.000157738
0.000170574
0.000156914
0.000149716
0.00018961
0.000148113
0.000146759
0.000152924
0.000192027
0.000158307
9.49219e-05
0.000168825
0.000148073
0.0010056
0.000325335
0.000165881
0.000162119
5.36506e-05
0.000180209
0.000185898
0.000188711
0.00012294
0.00015465
0.000147872
0.000161093
0.000181964
0.000152363
0.000178762
0.000149006
0.000159576
0.000160636
0.000191265
0.000146339
0.000149908
6.41674e-05
0.000187577
0.00540362
0.000157097
0.000152955
0.0045688
0.000198012
0.000185782
0.000175393
0.000146967
0.000148273
0.000148943
0.000153286
0.000149178
0.000180821
8.43145e-05
0.000176202
0.00621355
0.000142694
0.000149436
0.000173503
0.00014835
0.000151376
0.000197798
0.000184258
0.000156731
0.000149228
0.000149133
0.000175375
0.000151565
0.000148599
0.000148983
0.000146223
0.000155283
0.00014974
0.000146195
0.000149099
0.000148835
0.00016107
0.00016705
0.000146475
0.000167492
3.94557e-05
0.000212054
0.000178601
0.000162676
0.000148099
0.000148541
0.000175004
0.00014655
0.0041988
0.000152855
0.000157012
0.000148547
0.000147696
0.000151534
0.000172292
0.000152277
0.000151765
4.54823e-05
0.000148922
0.000150783
0.000155643
0.000149385
0.000149525
0.000146399
0.000444284
0.000149971
0.000164282
0.000186795
0.00014505
0.00014895
0.000193333
0.00018586
0.00015317
0.000117144
0.000203554
0.000175102
0.000151752
0.000150577
0.000177124
0.000160731
0.000149118
0.000188962
0.000167254
0.000102725
0.000172843
0.000170681
0.000162217
0.000174693
0.00011307
0.000162656
0.000189699
0.000156481
0.000188062
0.000184665
0.000153974
0.00015025
0.000148692
0.000781579
0.000148819
0.000147041
0.000148274
0.000173203
0.00443092
0.00536562
0.000148573
0.00015487
0.000119796
0.0001591
0.000187195
0.000210323
0.000186455
0.00468975
0.000147893
0.000159555
0.000168844
0.00015667
0.000150732
0.000174954
7.38879e-05
0.000170676
0.000185885
0.00014797
0.000153286
0.000209185
0.000149684
0.000176824
0.00015785
0.000148229
0.000149909
0.00667416
0.0018076
0.000163637
0.000163991
0.000149183
0.000152207
0.000181894
0.000153671
0.000172219
0.00584232
0.000148634
0.00019159
0.000145833
0.00510771
0.00453147
0.00015582
0.000146446
0.000192973
0.000149793
0.000148134
0.000154921
0.000149525
0.00426568
0.000149002
0.000169283
0.000114057
0.000151676
5.41277e-05
0.000208345
3.72921e-05
0.000149489
0.00014796
0.000173266
0.000151364
0.000154545
0.000149915
0.000147357
0.000181188
0.000193557
0.000150524
0.0024548
0.00014614
0.0001709
0.000150852
0.000145051
0.000188935
0.000173435
0.00522623
0.000176276
0.000152091
0.00014932
0.000156286
0.000175788
0.000145719
0.000154403
0.000159253
0.000171388
0.00018052
0.000158111
0.00015044
0.00421326
0.000157251
0.00559128
0.000147196
0.00018892
0.000160104
0.000164115
0.000190441
0.000157337
0.000156137
0.000159615
0.000149847
0.000194011
0.000147499
0.000157325
0.00477648
0.0001486
3.24977e-05
2.73942e-05
0.000158119
0.000174715
0.00630134
0.0044979
0.000149415
0.00381912
0.000173399
0.00014878
0.000162138
0.0033414
0.000148056
0.000146817
3.02344e-05
0.000147985
0.000158406
0.000145747
0.000161468
0.000202411
8.36092e-05
0.000159849
0.000173323
0.000151003
0.000148308
8.18058e-05
0.000148147
0.000145843
0.000108579
0.000159073
0.000151216
0.000173771
0.000152403
0.000156261
0.00016524
0.000177299
0.000146563
0.000154753
3.52637e-05
0.000171318
0.000150932
0.000161081
0.000148886
0.000148363
0.000209624
0.000149254
0.000149252
0.000175493
0.000147424
0.000157437
0.000154861
0.000148899
0.000148011
0.000153588
0.000168497
0.000159589
0.00410696
0.000175673
0.00016114
0.000149094
0.000186244
0.000206906
0.000167334
0.000161612
5.50199e-05
0.000190505
0.000158342
0.000191535
0.00372505
0.000157856
6.36222e-05
0.000191068
0.000170847
4.95719e-05
0.000168968
0.000160664
0.00345622
0.000179756
0.00018451
0.000183983
1.17966e-06
0.000152661
0.0001482
0.000149825
0.000185629
0.000152961
0.000155164
0.00480801
0.000145716
0.000147958
0.000164158
0.000148434
0.000172293
0.000183342
0.000152547
0.000160354
0.00017207
0.00018335
0.000181544
0.0001538
0.000159593
0.000170559
0.000166052
0.000157466