/*--------------------------------*- C++ -*----------------------------------*\
| =========                 |                                                 |
| \\      /  F ield         | OpenFOAM: The Open Source CFD Toolbox           |
|  \\    /   O peration     | Version:  v2012                                 |
|   \\  /    A nd           | Website:  www.openfoam.com                      |
|    \\/     M anipulation  |                                                 |
\*---------------------------------------------------------------------------*/
FoamFile
{
    version     2.0;
    format      ascii;
    class       volScalarField;
    location    "150";
    object      epsilon_0;
}
// * * * * * * * * * * * * * * * * * * * * * * * * * * * * * * * * * * * * * //

dimensions      [0 2 -3 0 0 0 0];


internalField   nonuniform List<scalar> 
13749
(
1.90643e-06
3.45893e-06
2.88671e-06
2.08871e-06
2.21557e-06
2.24191e-06
3.91201e-06
1.64358e-06
2.77921e-06
2.08052e-06
2.29011e-06
3.08147e-06
2.14988e-06
0.00518873
0.0070071
1.65968e-06
2.51109e-06
4.68844e-06
2.94413e-06
3.35602e-06
0.0208557
0.00699238
0.00414335
2.37251e-06
2.22336e-06
1.99183e-06
1.96556e-06
2.0461e-06
1.83796e-06
2.40581e-06
3.50899e-05
0.00790401
2.33853e-06
1.84806e-06
2.15893e-06
1.88484e-06
2.82717e-06
2.41732e-06
1.87617e-06
1.93997e-06
2.24359e-06
0.0323594
2.3478e-06
2.37472e-06
4.97473e-06
1.97849e-06
3.08723e-06
2.49269e-06
1.93619e-06
0.0518149
2.3994e-06
0.0198463
1.95345e-06
9.15944e-05
2.21492e-06
1.94305e-06
2.14293e-06
2.33561e-06
2.09358e-06
0.0027624
2.33515e-06
2.00037e-06
0.00751316
3.11823e-06
1.96278e-06
2.37988e-06
2.76006e-06
2.42884e-06
1.67289e-06
1.97171e-06
0.00450427
2.25809e-06
0.00136383
1.97264e-06
4.19908e-06
4.36538e-06
1.71732e-06
2.1017e-06
2.12983e-06
4.06882e-06
1.88012e-06
2.25201e-06
2.37817e-06
1.83148e-06
2.2936e-06
3.83966e-06
0.00678628
7.55952e-06
2.18044e-06
2.46604e-06
2.29385e-06
0.000209507
1.95796e-06
0.00148882
1.67663e-05
2.3758e-06
1.78836e-06
3.29746e-06
2.23235e-06
2.38536e-06
0.0134626
1.90942e-06
1.75824e-06
0.0077115
4.03929e-06
0.00775376
2.5483e-06
2.76467e-06
2.4631e-06
2.99758e-06
3.04264e-06
2.34479e-06
2.61029e-06
0.1868
0.0156714
1.82535e-06
1.91389e-06
2.21112e-06
2.61495e-06
2.04093e-06
1.64695e-06
3.89049e-06
1.80238e-06
1.74502e-06
2.24205e-06
0.00456614
2.23822e-06
0.0108352
1.85975e-06
0.00139389
2.05098e-06
0.00661239
0.00822459
3.94808e-05
2.11125e-06
2.45633e-06
4.46161e-06
1.91615e-06
1.77542e-06
0.0460875
2.57321e-06
1.8758e-06
1.8669e-06
0.0308474
2.18756e-06
0.0746607
2.08005e-06
2.4109e-06
2.60105e-06
2.74826e-06
2.19379e-06
1.80388e-06
0.00795479
0.000376415
1.69403e-06
0.0113854
2.07051e-06
2.17493e-06
3.62437e-06
2.69351e-06
0.165847
2.80874e-06
0.0310869
2.34115e-06
3.30968e-06
2.48118e-06
6.12076e-06
2.91468e-06
2.39522e-06
2.16276e-06
1.874e-06
2.98822e-06
1.9204e-06
1.81498e-06
2.45503e-06
4.28181e-06
4.91817e-06
1.69613e-06
0.0108995
0.012072
4.09615e-06
1.83454e-06
1.81241e-06
3.57843e-05
0.00024257
2.44624e-06
0.0299027
2.10129e-06
0.0015724
2.31821e-06
1.81846e-06
0.00442685
1.67239e-06
2.8627e-06
0.0265837
3.82675e-06
2.21195e-06
0.104241
1.83345e-06
1.86518e-06
1.78538e-06
2.28448e-06
2.16944e-06
2.32123e-06
0.00646158
1.85197e-06
2.13381e-06
2.90015e-06
0.000181035
2.68524e-06
1.81852e-06
0.00449353
0.0357979
1.00558e-05
1.98083e-06
2.78699e-06
0.00573936
1.95779e-06
0.00641679
1.85623e-06
0.01649
2.32759e-06
9.29396e-05
0.00454598
2.32912e-06
0.000480075
1.85174e-06
2.622e-06
0.00681897
0.00379347
2.98939e-06
4.26044e-06
3.82819e-06
3.10713e-06
0.0049584
2.23555e-06
3.16482e-06
0.000183116
3.38984e-06
2.51996e-06
2.20537e-06
0.0064434
0.00154227
3.11294e-06
2.37293e-06
0.0269362
2.26508e-06
0.00698762
1.95905e-06
2.98516e-06
0.0404076
2.44652e-06
2.42676e-06
1.95665e-06
2.73842e-06
1.86486e-06
2.78624e-06
0.0312152
3.89083e-06
0.117927
1.77311e-06
2.39294e-06
2.49969e-06
2.04679e-06
2.57181e-06
4.48252e-06
4.88572e-05
2.00403e-06
3.34739e-06
2.71621e-06
1.76835e-06
0.0166955
2.55396e-06
0.031945
2.10217e-06
0.0096954
0.0405346
1.80656e-06
2.6673e-06
1.80583e-06
2.49905e-06
1.99706e-06
0.000379213
0.0242734
1.89437e-06
2.5867e-06
2.09952e-06
2.0777e-06
0.000865972
2.2077e-06
6.36869e-05
1.9822e-06
0.00698217
2.28495e-06
0.00469432
0.000157841
3.21356e-06
1.89153e-06
1.84306e-06
1.9135e-06
1.72297e-06
2.16386e-06
1.79159e-06
0.0384614
1.80347e-06
1.76304e-06
1.7845e-06
3.33441e-06
1.68639e-06
1.82239e-06
0.0178536
2.2535e-06
2.01423e-06
0.0113824
1.78269e-06
2.2168e-06
1.76391e-06
0.00518657
2.02747e-06
1.72839e-06
6.72086e-06
0.028288
2.05134e-06
4.2687e-06
0.0650807
4.12888e-06
2.17108e-06
1.83733e-06
2.65224e-06
2.56138e-06
1.85019e-06
3.1383e-06
1.7306e-06
2.04234e-06
2.02644e-06
1.77915e-06
1.98406e-06
1.97021e-06
2.66492e-06
2.34014e-06
3.25214e-06
4.21976e-05
2.05479e-06
0.00113622
2.67619e-06
1.77186e-06
1.72721e-06
2.49819e-06
2.10111e-06
2.70217e-06
2.29968e-06
2.291e-06
0.171707
0.182154
1.99281e-06
2.2499e-06
2.32907e-06
0.000175227
2.45559e-06
0.000227063
3.01189e-06
4.22757e-06
1.9901e-06
0.0248355
2.68686e-06
2.63393e-06
2.43218e-06
0.0171051
0.00790252
3.2458e-06
0.00471812
1.87253e-06
2.38005e-06
4.13476e-06
2.65577e-06
1.93132e-06
2.44412e-06
0.110609
3.90165e-06
1.80027e-06
3.8976e-06
3.27436e-06
0.00733793
2.4886e-06
4.10136e-06
2.03044e-06
0.0084771
2.36223e-06
2.70891e-06
1.75364e-06
5.22547e-06
5.2141e-05
0.0306894
2.26299e-06
2.31378e-06
0.000189037
0.199887
3.44035e-05
2.83065e-06
0.000477161
2.79162e-06
2.30703e-06
3.12627e-06
3.02029e-06
1.68831e-06
1.89137e-06
0.00669953
2.88759e-06
2.81411e-06
2.08464e-06
1.82416e-06
1.76619e-06
2.81645e-06
0.0117998
2.42644e-06
3.94241e-06
0.00513323
0.00505463
1.81409e-06
2.38428e-06
2.65387e-06
2.26152e-06
0.000965928
1.74777e-06
0.000111937
2.79016e-06
3.08745e-06
0.12302
0.0105041
3.92022e-06
6.47772e-06
4.08244e-06
3.15885e-06
2.42975e-06
0.000163046
1.96583e-06
1.93026e-06
1.98295e-06
2.42421e-06
0.0174725
2.79238e-06
2.51751e-06
4.1776e-06
1.80658e-06
2.06843e-06
1.78754e-06
2.69202e-06
1.0405e-05
2.67218e-06
4.31635e-06
0.000316189
2.3818e-06
0.00978399
1.98358e-06
0.0343924
1.94047e-06
2.07522e-06
2.0906e-06
0.00948496
3.27771e-06
3.19881e-06
4.23365e-06
1.74323e-06
0.0161831
1.88235e-06
1.73076e-06
3.34465e-06
9.42141e-06
0.20766
2.38134e-06
0.00174872
2.71319e-06
7.14728e-06
0.0125092
2.36939e-06
2.67101e-06
2.68193e-06
2.40504e-06
2.96834e-06
2.52634e-06
2.05414e-06
1.67101e-06
1.82019e-06
0.00723203
0.0118073
0.000274699
0.0275965
0.00727343
2.16759e-06
1.76154e-06
1.8292e-06
1.66759e-06
3.09439e-06
1.92628e-06
1.82845e-06
2.06504e-06
0.031776
1.98181e-06
0.197106
2.26506e-06
2.53694e-06
0.00484186
1.72163e-06
0.000163021
1.97176e-06
0.00990501
2.46296e-06
3.04655e-06
2.41568e-06
2.06415e-06
4.10228e-06
1.84227e-06
2.14788e-06
0.0238174
1.73523e-06
0.0280921
2.36846e-06
0.00256742
1.95371e-06
2.91585e-06
0.00265077
0.016883
2.34918e-06
2.45315e-06
2.38293e-06
1.67966e-06
3.01668e-06
1.95815e-06
2.06912e-06
2.90394e-06
2.27798e-06
2.39201e-05
2.36594e-06
1.73175e-06
1.78759e-06
2.25044e-06
2.85813e-06
0.00234895
0.00686257
0.00507188
0.00257622
0.0011261
3.80372e-06
7.26694e-05
0.0534632
2.30703e-06
2.24457e-06
0.00605214
0.0153993
0.00201432
2.24938e-06
2.47633e-06
0.00845157
2.09819e-06
2.02884e-06
1.83564e-06
3.02342e-06
1.93914e-06
1.682e-06
0.0139484
0.00491147
1.88418e-06
1.7426e-06
0.000419761
2.4879e-06
0.0170216
3.23659e-06
3.09032e-06
2.08978e-06
5.88362e-06
3.93707e-06
9.3532e-06
0.00614492
3.14815e-06
1.82261e-06
1.79156e-06
0.0117986
0.0131018
2.01875e-06
2.38631e-06
1.93402e-06
3.02538e-06
0.0676856
2.32526e-06
2.2181e-06
4.15719e-06
0.0180282
0.00310129
2.76931e-06
2.05668e-06
1.8766e-06
1.72585e-06
2.17423e-06
2.31725e-06
0.00593463
0.00265734
2.11723e-06
0.0429606
0.0333198
1.70425e-06
1.70676e-06
0.00298837
5.29221e-06
0.0117071
0.0778114
1.88916e-06
1.92531e-06
0.0115495
0.0552197
4.14644e-06
2.45543e-06
1.78093e-06
2.2973e-06
0.00594746
2.29834e-06
2.02479e-06
2.22245e-06
2.21599e-06
2.53289e-06
1.98354e-06
7.02634e-06
2.69299e-06
4.11315e-05
2.08398e-06
3.90613e-05
0.0479781
3.9971e-06
0.000763524
1.67888e-06
2.68986e-06
0.00315498
1.87196e-06
2.68533e-06
2.48608e-06
1.73849e-06
2.92734e-06
1.7108e-06
1.79098e-06
0.0033978
2.07857e-06
1.89741e-06
2.70148e-06
2.39713e-06
0.0482022
4.15073e-06
1.78162e-06
4.11261e-06
2.34259e-06
0.0258422
0.00769759
1.76714e-06
1.81725e-06
2.40256e-06
1.73668e-06
3.1735e-06
1.93903e-06
8.74112e-06
0.011064
2.74189e-06
4.10148e-06
1.96793e-06
2.91831e-06
4.04368e-06
6.37121e-06
3.12706e-06
0.0142162
2.1811e-06
2.45958e-06
3.49035e-06
2.00554e-06
0.00493738
3.08297e-06
5.11936e-05
1.79648e-06
1.68486e-06
1.05058e-05
2.37598e-06
1.8952e-06
0.00769317
0.00627168
4.67102e-06
2.73733e-06
0.01694
2.49557e-06
2.75747e-06
1.73879e-06
4.40897e-06
2.70748e-06
1.85942e-06
0.0129017
0.0454829
2.11703e-06
2.21372e-06
1.95104e-06
1.88439e-06
0.00594439
2.42325e-06
1.88085e-06
2.31829e-06
2.15172e-06
1.9526e-06
1.77235e-06
2.23434e-06
2.0626e-06
4.09611e-06
1.70499e-06
2.35173e-06
0.0059167
2.25391e-06
7.08303e-06
1.79053e-06
2.26922e-06
0.0121971
2.07906e-06
1.71654e-06
0.000490247
0.0112944
3.30249e-06
0.0234425
2.01621e-06
2.25561e-06
2.38321e-06
2.34513e-06
0.206839
2.46862e-06
2.83523e-06
0.027452
2.33833e-06
2.2826e-06
3.64712e-06
2.28363e-06
9.87148e-06
7.36327e-06
0.00175918
0.000811565
2.96732e-06
1.79723e-06
2.17596e-06
1.92772e-06
2.11065e-06
0.00466285
2.74455e-06
1.81321e-06
2.66935e-06
5.98586e-05
1.77262e-06
2.5612e-06
2.31416e-06
2.31308e-06
2.52747e-06
0.00685695
2.67258e-06
2.24908e-06
2.70554e-06
2.7886e-06
0.00154456
1.83525e-06
2.43577e-06
2.17477e-06
2.0191e-06
2.05225e-06
0.00361665
3.94102e-06
1.88936e-06
0.000145297
0.00528866
4.15652e-06
2.46564e-06
3.63535e-06
2.19822e-06
0.000728506
0.00826799
0.00687723
3.26056e-06
2.39146e-06
0.007207
2.52439e-06
2.1996e-06
4.44241e-06
1.74372e-06
2.03119e-06
1.75237e-06
0.00338996
1.69617e-06
0.0108268
1.7194e-06
0.0543693
2.94891e-06
0.0149504
0.0124664
0.00498906
0.00468151
3.89874e-06
1.91304e-06
0.0527831
2.16127e-06
2.21687e-06
3.17256e-06
1.04727e-05
2.66381e-06
0.0276419
5.98352e-06
2.33532e-06
2.3888e-06
2.37507e-06
0.00719186
2.21301e-06
2.24125e-06
2.76192e-06
0.00582124
1.1041e-05
3.44201e-06
2.81723e-06
0.0161748
2.06678e-06
0.0138717
4.07491e-06
0.00141928
1.79522e-06
2.87045e-06
2.38224e-06
9.2225e-06
2.97927e-06
1.78357e-06
2.73447e-06
2.48684e-06
0.00760061
0.00521843
0.00787752
0.00707163
4.56818e-06
0.00304725
2.49047e-06
0.000282232
2.71739e-06
0.000393936
9.66747e-06
2.04395e-06
1.05808e-05
7.41148e-06
1.01027e-05
2.92575e-06
3.1112e-06
0.0714021
2.93952e-06
1.82898e-06
2.74296e-06
3.14959e-06
2.90368e-06
0.00454339
3.99077e-06
2.04337e-06
2.8857e-06
3.34775e-06
1.80297e-06
2.28917e-06
2.38442e-06
1.69813e-06
1.45482e-05
3.471e-06
6.16208e-06
0.0209284
2.81951e-06
3.97326e-06
1.90785e-06
5.9597e-05
3.54507e-06
0.00435907
3.00853e-06
3.36927e-06
0.0455931
2.37488e-06
0.0125462
2.05538e-06
9.97691e-06
0.000408279
3.1491e-06
4.22406e-06
1.69312e-06
0.00474574
1.8216e-06
0.00102199
1.85923e-06
5.62085e-05
2.09258e-06
3.89231e-06
0.00555202
2.3367e-06
0.00670952
3.82101e-05
2.65483e-06
1.85358e-06
0.0115105
2.06413e-06
2.74214e-06
0.0723083
3.46652e-06
3.22907e-06
2.15579e-06
1.80955e-06
1.85839e-06
2.66234e-06
4.27108e-06
2.72086e-06
0.0057997
2.42088e-06
2.47213e-06
2.36633e-06
0.00027267
2.30405e-06
3.27152e-06
2.06513e-06
2.06524e-06
4.10379e-06
2.71001e-06
2.33551e-06
2.28247e-06
6.6047e-06
9.44249e-05
1.8243e-06
4.03594e-06
2.5097e-06
3.88395e-06
1.79662e-06
0.000336771
2.37804e-06
2.61166e-06
0.00111967
4.13691e-06
1.04588e-05
1.86797e-06
2.30044e-06
3.1871e-06
1.04679e-05
2.33434e-06
4.04588e-06
2.46976e-06
1.70897e-06
2.23692e-06
1.96564e-06
2.83965e-06
2.92814e-06
0.00667778
4.20622e-06
0.0193328
0.0466059
3.33462e-06
0.026186
2.32845e-06
2.30232e-06
2.37705e-06
4.21132e-06
1.79928e-06
2.74989e-06
2.14388e-06
2.74547e-06
1.95598e-06
2.39442e-06
3.11919e-06
0.00578534
1.91808e-06
0.0094298
4.27269e-06
2.54656e-06
1.80885e-06
2.49734e-06
0.0107877
0.00599272
0.154622
2.17997e-06
1.67463e-06
0.00341274
2.47783e-06
3.2817e-06
2.44031e-06
2.32495e-06
1.71823e-06
0.00827172
2.87658e-06
1.88882e-06
2.14061e-06
1.0392e-05
2.44754e-06
6.57414e-06
1.91075e-06
0.0165855
2.32281e-06
1.93764e-06
3.22144e-06
0.00115885
2.30772e-06
9.62029e-06
2.35141e-06
2.60576e-06
3.80171e-06
4.15012e-06
3.25221e-06
2.76209e-06
2.89971e-06
2.17365e-06
0.0112958
1.87869e-06
0.0172791
0.0163752
2.43203e-06
1.04744e-05
0.0103739
1.9497e-06
2.32208e-06
0.113671
4.5409e-06
0.00697239
3.94395e-06
1.96177e-06
9.88991e-06
3.40121e-06
0.00843509
2.52211e-06
0.162779
3.11657e-06
0.00970758
2.73786e-06
0.00763299
5.20039e-05
9.91704e-06
2.90432e-06
0.00724356
0.000298085
2.04187e-06
0.00664499
2.36507e-06
0.00060974
1.86685e-06
0.00448822
4.13536e-06
2.37362e-06
3.34145e-06
1.88141e-06
1.77405e-06
3.2823e-06
6.49543e-06
2.39495e-06
5.68207e-06
2.55029e-06
3.21476e-06
0.029122
1.83304e-06
2.05755e-06
0.0122748
1.7656e-06
2.26558e-06
2.41587e-06
0.0053894
2.3494e-06
0.191153
3.26229e-06
1.82091e-06
1.70713e-06
2.28863e-06
3.8046e-06
0.0349336
2.35643e-06
2.35303e-06
2.52791e-06
3.66481e-06
4.02721e-06
1.78184e-06
3.16075e-06
2.09487e-06
0.0307745
1.67987e-06
1.67651e-06
1.1586e-05
1.87263e-06
1.92612e-06
2.2863e-06
0.0117111
2.2715e-06
1.9198e-06
0.00470846
3.36057e-06
2.71562e-06
0.0106464
3.24367e-06
1.78836e-06
2.16316e-06
2.18275e-06
1.87819e-06
2.37111e-06
2.47598e-06
2.25006e-06
0.00482586
0.012225
2.10248e-06
1.7728e-06
0.00911463
1.82745e-06
2.38859e-06
3.65855e-05
3.63168e-06
2.31445e-06
0.00196183
8.23761e-06
4.60067e-05
2.21719e-06
2.58886e-06
2.11035e-06
2.6679e-06
2.6627e-06
2.3727e-06
3.47945e-06
3.03516e-06
0.0073323
3.6648e-06
4.09945e-06
2.11492e-06
2.11339e-06
2.19054e-06
1.96158e-06
0.134348
2.75192e-06
1.7099e-06
0.143824
3.71388e-06
3.35023e-06
2.2145e-06
1.96339e-06
1.67814e-06
0.0952281
0.00262199
1.68631e-06
0.0170668
2.18246e-06
0.0614737
2.76911e-06
0.0042573
3.83234e-06
0.0133692
1.6971e-06
2.92271e-06
0.152497
3.2845e-06
2.40077e-06
3.32577e-06
6.39316e-05
0.106762
3.71668e-06
3.10475e-06
3.30224e-06
2.83357e-06
0.0509144
2.89455e-06
1.66781e-06
3.38554e-06
1.91606e-06
2.99893e-06
2.94323e-06
3.33459e-06
4.00081e-06
1.77781e-06
1.92855e-06
2.05093e-06
1.77627e-06
1.74798e-06
2.40083e-06
2.22056e-06
2.15058e-06
2.77244e-06
2.196e-06
0.0115407
2.52576e-06
0.023083
2.81857e-06
1.80052e-06
2.7879e-06
2.46561e-06
2.26752e-06
0.00597254
1.73676e-06
4.10611e-06
2.625e-06
9.391e-05
0.00611923
2.31836e-06
2.54336e-06
2.6888e-06
1.85187e-06
0.11226
2.29736e-06
0.00595524
2.90349e-06
1.76733e-06
2.30989e-06
2.8056e-06
0.00747784
2.45844e-06
2.00639e-06
2.83155e-06
1.96512e-06
2.49751e-06
0.00596728
2.35465e-06
0.048858
2.56291e-06
2.2744e-06
0.00415327
4.10218e-06
2.72448e-06
2.23125e-06
2.15412e-06
8.28725e-06
0.00105451
2.4999e-06
0.00642348
2.91803e-06
2.04752e-06
2.64976e-06
4.26944e-06
2.35908e-06
2.41321e-06
0.000289035
2.35262e-06
2.66403e-06
3.77624e-06
0.00872676
3.05258e-06
0.0259559
0.0112717
1.98681e-06
2.39702e-06
4.37867e-05
1.86346e-06
2.74568e-06
0.00358275
3.4317e-06
2.54645e-06
2.09815e-06
1.9312e-06
2.27335e-06
4.14823e-06
2.40827e-06
1.77658e-06
0.000644241
2.61892e-06
0.000644837
1.96233e-06
2.58883e-06
2.03248e-06
2.36392e-06
0.00457837
0.0208679
2.64285e-06
2.16873e-06
2.95473e-06
1.78053e-06
2.34553e-06
0.00432209
2.82205e-06
0.00357905
2.57264e-06
6.29912e-05
0.000305446
1.18848e-05
3.5366e-06
2.51617e-06
2.13262e-06
3.62857e-06
2.42189e-06
1.33599e-05
2.29298e-06
2.6756e-06
1.77132e-06
1.99914e-06
0.00481585
3.01024e-06
1.86084e-06
2.46345e-06
2.9668e-06
4.14858e-06
3.7793e-06
0.025329
2.17719e-06
3.2898e-06
0.00940135
1.92804e-06
2.06796e-06
2.60458e-06
4.12131e-06
3.13102e-06
2.89136e-06
3.14549e-06
2.03123e-06
1.8374e-06
0.0028184
1.87212e-06
0.0130696
1.70488e-06
2.33596e-06
0.00677614
1.6829e-06
4.08919e-06
2.37685e-06
0.0150737
0.00886027
2.10712e-06
3.12657e-06
2.91461e-06
2.11045e-06
2.15663e-06
2.45717e-06
0.0314956
2.51541e-06
2.0443e-06
3.02936e-06
1.79169e-06
3.04975e-06
1.77295e-06
0.00699247
1.7304e-06
1.69179e-06
3.01737e-06
3.61758e-06
2.62458e-06
2.6491e-06
0.00245906
1.9751e-06
1.87135e-06
2.1021e-06
2.79325e-06
0.0183315
2.82803e-05
2.99345e-06
6.42364e-05
0.079791
1.96365e-06
1.94731e-06
2.09544e-06
1.9473e-06
0.00658582
0.0120373
1.83021e-06
2.39312e-06
2.46643e-06
3.37204e-06
3.31007e-06
0.0129796
2.854e-06
3.24919e-06
2.08274e-06
0.0194783
2.30368e-06
2.3285e-06
0.000349446
2.82152e-06
1.82831e-06
0.00507344
2.02622e-06
3.1505e-06
3.9354e-06
1.78408e-06
2.40687e-06
1.78448e-06
2.65125e-06
0.00678978
0.112881
2.77916e-06
2.00828e-06
1.90355e-06
2.1358e-06
3.36038e-06
1.83543e-06
2.18157e-06
7.17832e-06
2.56914e-06
0.0181859
2.44366e-06
8.38357e-06
1.76242e-06
2.12653e-06
0.00786536
0.119164
2.86078e-06
3.32815e-06
0.0894259
0.01828
2.3519e-06
2.12811e-06
1.73837e-06
2.52922e-06
1.68285e-06
3.04959e-06
0.126347
4.00286e-06
2.55587e-06
0.00316762
3.09414e-06
0.00475329
1.77853e-06
0.00540725
2.20253e-06
2.01188e-06
2.24228e-06
1.98014e-06
3.03111e-06
3.8994e-06
1.86026e-06
1.05126e-05
0.0490107
0.0016005
3.17478e-06
2.1135e-06
2.37762e-06
0.00237439
2.65052e-06
0.00931761
1.11979e-05
2.05817e-06
1.04239e-05
2.16999e-06
3.35082e-06
3.72028e-06
4.10302e-06
5.36746e-06
3.33549e-06
2.05372e-06
2.12383e-06
2.83167e-06
3.99342e-06
1.80146e-06
0.06865
2.12706e-06
1.82588e-06
0.0124906
1.82305e-06
0.0248342
0.00396827
2.67662e-06
2.77422e-06
2.58525e-06
0.000133359
5.47334e-06
0.00763073
3.6719e-06
4.1358e-06
2.42829e-06
3.95003e-06
1.77725e-06
0.0095286
1.72491e-06
2.31562e-06
1.74502e-06
2.02885e-06
2.40284e-06
4.13979e-06
4.15028e-06
5.75787e-06
2.0455e-06
2.02501e-06
2.19738e-06
7.82986e-06
2.89866e-06
1.66924e-06
2.39483e-06
0.0102315
1.70604e-06
3.2537e-06
0.0191979
2.7214e-06
0.0101807
1.26575e-05
2.46759e-06
3.10763e-06
1.82624e-06
3.65282e-05
0.00791891
1.74738e-06
3.04382e-06
4.05884e-06
2.15283e-06
0.00427249
2.16445e-06
0.0254423
2.95651e-05
2.90252e-06
1.706e-06
2.78321e-06
2.30765e-06
2.40214e-05
1.82374e-06
4.22478e-06
0.0127738
2.74876e-06
4.04073e-06
1.67381e-06
4.74624e-06
1.79855e-06
1.80233e-06
0.0465807
1.98304e-06
1.77382e-06
2.37863e-06
0.00130963
2.16181e-06
0.00421317
0.00597655
2.97075e-06
3.03108e-06
4.09194e-06
8.88538e-06
2.73203e-06
2.16321e-06
4.21845e-06
4.04609e-06
1.93354e-06
2.1614e-06
1.85941e-06
0.00109949
0.0558219
4.15631e-06
2.26312e-06
3.24261e-06
0.00769484
2.06069e-06
1.04472e-05
2.05151e-06
3.43476e-06
0.0440678
0.00789965
0.00225285
3.11867e-06
2.46669e-06
2.98238e-06
0.00461787
2.62008e-06
0.00344362
1.70674e-06
0.00901646
1.88882e-06
0.0288962
2.16269e-06
4.40789e-06
2.17608e-06
1.92959e-06
2.40504e-06
2.89806e-06
1.68007e-06
4.1084e-06
5.51631e-06
1.79056e-06
0.00617456
1.69406e-06
2.00059e-06
2.21173e-06
0.0348882
0.0212251
0.003679
2.63027e-06
0.00989927
0.0043317
2.41303e-06
5.78562e-06
5.91842e-05
0.057052
0.0176221
0.00960319
2.84404e-06
3.22425e-05
3.16195e-06
7.57191e-06
2.55109e-06
3.18625e-06
3.41882e-06
0.000171758
2.96194e-06
2.32604e-06
2.19242e-06
2.33525e-06
2.65653e-06
2.99156e-06
4.16205e-06
3.71166e-06
1.78415e-06
5.45868e-06
3.32581e-06
0.0885819
4.2135e-06
4.21144e-06
1.76199e-06
2.81633e-06
2.89903e-06
2.01191e-06
2.03618e-06
4.72998e-06
2.40066e-06
3.43649e-06
3.21999e-06
2.3669e-06
6.19031e-05
0.0050631
2.21354e-06
2.11379e-06
2.68669e-06
4.0975e-06
1.84621e-06
2.34427e-06
3.37346e-06
2.563e-06
2.42473e-06
2.13652e-06
7.22217e-05
2.19194e-06
0.00231068
3.42028e-06
4.02332e-05
3.44515e-06
1.92908e-06
0.0132343
2.55316e-06
1.68787e-06
2.28115e-06
0.0414607
0.00506051
1.90306e-06
2.2119e-06
2.38594e-06
1.9105e-06
2.91262e-06
3.14212e-06
2.57243e-06
1.8097e-06
1.00383e-05
0.0164178
0.00704665
3.56646e-06
3.23003e-06
0.00672485
4.15411e-06
2.37456e-06
8.72455e-06
3.40069e-06
7.82418e-05
3.16903e-06
0.00446729
2.03344e-06
3.67895e-06
4.7043e-06
3.23095e-06
0.016433
0.00501512
1.71663e-06
1.97784e-06
2.02856e-06
2.7354e-06
1.85242e-06
1.71803e-06
0.00983556
0.00716058
2.55324e-06
2.72423e-06
2.47204e-06
0.0185385
3.11832e-06
1.87321e-06
3.36007e-06
2.02543e-06
0.000798861
1.86689e-06
3.16677e-06
2.399e-06
2.3044e-06
0.009164
4.00292e-06
1.9546e-06
5.53906e-06
1.91952e-06
1.85881e-05
8.22623e-06
1.94751e-06
1.72844e-06
2.01524e-06
0.000582887
1.70615e-06
2.06394e-06
3.17714e-06
3.11233e-06
4.11984e-06
0.0160922
0.0004819
0.0301057
0.00515011
0.0547401
2.0009e-06
0.00776616
1.74217e-06
0.00414711
2.68025e-06
0.0253571
2.8842e-06
0.000483891
0.0183151
2.01252e-06
2.22857e-06
2.27798e-06
0.0134028
0.000119591
6.62158e-06
2.2805e-06
1.91586e-06
1.87896e-06
2.34769e-06
0.00497447
2.52741e-06
2.63203e-06
1.77176e-06
1.74165e-06
2.03478e-06
3.63224e-06
0.0350312
2.6093e-06
1.99776e-06
1.66752e-06
0.0921793
2.30132e-06
2.51159e-06
0.0072902
2.15467e-06
4.14444e-06
3.57514e-06
4.2872e-05
7.48996e-06
2.20967e-06
1.79636e-06
2.15984e-06
0.215772
3.00352e-06
2.37474e-06
2.56194e-06
2.05052e-06
0.00757711
2.52325e-06
4.57296e-06
0.00166075
0.0132934
2.07534e-06
2.34953e-06
1.89155e-06
1.74463e-06
0.00556668
0.00533234
0.00259899
3.6119e-06
0.00913868
0.141607
3.18758e-06
0.00470877
1.78515e-06
2.2059e-06
0.00445597
4.22138e-06
4.67975e-06
1.63424e-06
0.00778842
3.41114e-06
0.00622625
2.29692e-06
0.00441817
2.01968e-06
4.55436e-05
4.0787e-06
2.8714e-06
3.51125e-06
0.0152461
2.16589e-06
2.184e-06
1.95318e-06
1.55303e-05
2.36675e-06
2.88985e-06
0.0903213
2.31673e-06
0.226522
0.0901952
7.77047e-05
1.80111e-06
1.79755e-06
5.33057e-06
0.00430349
0.000465239
2.47614e-06
0.0596918
4.14927e-06
1.64185e-06
1.67902e-06
0.0226142
1.77773e-06
1.07834e-05
5.08663e-06
0.000122151
1.64072e-06
0.0369398
4.13675e-06
3.74005e-06
2.46772e-06
0.0373654
2.40534e-06
2.84917e-06
1.99738e-06
0.150751
1.09263e-05
2.01438e-06
2.50075e-06
2.08402e-06
4.23011e-06
0.00459193
8.15756e-06
0.00573877
2.37653e-06
2.10358e-06
0.00423991
2.40938e-06
0.000200397
1.79818e-06
3.21313e-06
1.84752e-06
2.65212e-06
4.09783e-06
2.92418e-06
3.41057e-06
3.98531e-06
3.43331e-06
2.81694e-06
2.43862e-06
2.11314e-06
3.50063e-06
2.79889e-06
0.0161496
0.000394415
1.83709e-06
2.30042e-06
1.76327e-06
1.83656e-06
5.30488e-06
0.0499077
1.71191e-06
0.0235563
0.000387821
2.51584e-05
0.0582413
0.00726556
0.072557
0.00471472
1.9446e-06
0.0111048
0.0074237
4.54619e-05
2.40034e-06
2.06796e-06
0.000258613
2.69957e-06
0.00904337
0.00656983
5.42174e-06
2.43016e-06
1.15811e-05
1.94661e-06
2.28901e-05
1.98091e-06
3.34403e-06
4.58117e-06
2.51068e-06
1.76878e-06
0.00053166
2.31243e-06
2.52322e-06
2.3543e-06
2.74867e-06
2.35161e-06
2.3216e-06
2.08924e-06
1.04463e-05
1.88975e-06
2.66413e-06
1.73937e-06
1.70548e-06
1.78934e-06
1.80529e-06
3.76259e-06
0.00946682
0.00482495
2.54707e-06
0.000759715
2.34293e-06
2.90878e-06
4.74068e-06
2.27385e-06
0.000245868
5.3955e-05
0.0956105
2.69002e-06
2.31138e-06
0.00810648
2.08608e-06
0.000959042
2.12458e-06
1.77979e-06
2.85742e-06
0.00591752
1.89768e-06
0.155837
0.00404072
2.35752e-06
3.58692e-06
4.13626e-06
8.70184e-06
0.0161313
0.0045022
5.4832e-06
2.0802e-06
2.22233e-06
0.00027758
0.00841306
1.82278e-06
1.95846e-06
1.82518e-06
2.37996e-06
2.42391e-06
3.40236e-06
2.55035e-06
1.65379e-06
4.10411e-06
0.000386563
3.87791e-06
0.0043434
0.0754411
0.000132247
2.32843e-06
0.0122512
0.017287
3.32673e-06
0.00284393
0.0701026
0.0171571
0.00399864
1.87836e-06
7.23377e-06
2.5199e-06
3.48219e-06
2.20595e-06
3.05818e-06
1.86442e-06
1.77285e-06
0.000277934
1.84983e-06
2.34112e-06
1.66554e-06
2.78488e-05
2.30331e-06
1.94054e-06
2.19815e-06
1.85742e-06
0.00720307
0.00709829
1.8647e-06
1.73392e-06
1.93075e-06
2.13606e-06
0.0204511
2.05124e-06
2.28413e-06
2.358e-06
0.000160599
2.36786e-06
0.00598777
3.72308e-06
2.42594e-06
2.17301e-06
0.0162553
0.00674891
2.52241e-06
4.72221e-06
0.00907615
2.38212e-06
2.14065e-06
2.36571e-06
0.0100209
2.23895e-06
3.07581e-06
0.0743219
0.0133362
2.7403e-06
0.000545845
2.42873e-06
0.05277
2.14964e-06
0.0107149
3.40802e-06
2.1883e-06
2.46609e-06
0.0497744
0.00756369
2.94846e-06
0.000233806
0.2301
1.86279e-06
1.97232e-06
0.00230106
1.93781e-06
6.6342e-06
3.49982e-06
0.0211262
7.34166e-05
3.4714e-06
2.64882e-06
3.1037e-06
3.77653e-06
1.86022e-06
2.22689e-06
2.18159e-06
2.28964e-06
3.30709e-06
1.92052e-06
1.72337e-06
2.60499e-06
2.82844e-06
3.23528e-06
2.24941e-06
7.53298e-06
0.0093796
2.72556e-06
2.33808e-06
2.73982e-06
3.59415e-05
2.38885e-06
0.0229162
2.18328e-06
3.82153e-06
1.95446e-06
3.31397e-06
3.30301e-06
2.34988e-06
1.66631e-06
2.06055e-06
2.85414e-06
5.71982e-05
2.17839e-06
9.62234e-06
0.0224201
0.00444679
2.61656e-06
4.761e-05
0.0786181
4.65855e-06
2.27011e-06
2.45555e-06
2.1179e-06
3.17562e-06
2.16383e-06
2.74479e-06
1.9375e-06
2.64777e-05
1.75889e-06
2.03e-06
2.81836e-06
0.00788928
1.98726e-06
1.83779e-06
2.47673e-06
0.0066907
0.0166212
3.05759e-06
1.91663e-06
2.02109e-05
3.54309e-06
0.00183723
0.0053561
2.77742e-06
0.00520951
3.3079e-06
8.68482e-06
2.17084e-06
0.0061713
2.1767e-06
3.07008e-06
2.73128e-06
0.00507091
5.38742e-06
1.19439e-05
0.00609577
1.94912e-06
2.24991e-06
1.77923e-06
0.00120899
0.0111838
0.00444796
0.00253077
2.18376e-06
6.26353e-06
2.85067e-06
3.40662e-06
0.000166027
2.007e-06
0.00950434
9.4935e-05
2.11961e-06
2.3624e-06
0.0100036
0.00602311
1.80997e-06
0.0117723
1.92004e-06
2.38752e-06
0.00234066
2.36524e-06
0.00563785
1.7539e-06
1.91703e-06
1.886e-06
0.00232675
1.76243e-06
3.41066e-06
0.00922626
3.48068e-06
2.06096e-06
1.83272e-06
1.67019e-06
1.69868e-06
0.00529952
1.54144e-05
2.33288e-06
2.2268e-06
0.00734718
2.52255e-06
3.21212e-06
0.00215756
2.00734e-06
1.85656e-06
2.64755e-06
2.41481e-06
0.00421715
2.65076e-06
1.98947e-06
0.00015244
2.17943e-06
0.0153366
0.00596492
7.56797e-05
0.000109281
3.02249e-06
1.90127e-06
6.49011e-06
2.8722e-06
0.0812395
0.0052188
1.97592e-05
0.00140329
1.84665e-06
7.6588e-06
0.0122941
1.92559e-06
2.16488e-06
0.0152234
0.0101546
2.3177e-06
1.76751e-06
1.86998e-06
1.79745e-06
0.00412335
2.15209e-06
0.0201031
1.30547e-05
2.21364e-06
2.20305e-06
4.71703e-06
2.25796e-06
1.87473e-06
6.15692e-06
2.88166e-06
2.527e-06
2.03142e-06
3.10388e-06
2.57675e-06
1.91447e-06
1.95389e-06
1.65923e-06
2.13524e-06
0.00464896
2.08159e-06
0.00460389
1.99539e-06
0.000152357
1.76938e-06
2.32095e-06
0.00218516
0.00365506
2.28798e-06
0.079761
1.91229e-06
0.0122411
3.25065e-05
0.00945211
2.82388e-06
2.50461e-06
3.3695e-06
0.00471553
1.72171e-06
2.33944e-06
1.87965e-06
0.0049259
0.00882025
2.10127e-06
2.50109e-06
0.0385311
0.00513243
2.26643e-05
0.0222673
2.07782e-06
2.77861e-06
0.0205646
2.39649e-06
2.90563e-06
1.73599e-05
3.03848e-06
1.94497e-06
1.93513e-06
1.65468e-06
0.006307
0.00325971
0.00865146
2.14386e-06
1.32999e-05
2.30842e-06
1.73106e-06
0.025483
2.23975e-06
1.92627e-06
1.82302e-06
8.02055e-06
3.54994e-05
0.0189033
2.10901e-06
0.00691709
2.34877e-06
0.0336492
6.73294e-06
0.0787671
1.97663e-06
0.00206404
2.08275e-06
2.39476e-06
1.91263e-06
1.88063e-06
1.77502e-06
3.05077e-06
1.99878e-06
1.94182e-06
1.93477e-06
2.0104e-06
0.00649642
0.295956
0.00159531
0.00494015
0.00120823
0.00620979
2.40064e-06
1.80665e-06
2.32151e-06
3.16464e-06
8.73103e-06
2.52055e-06
1.85259e-06
2.29333e-06
2.48808e-06
2.22808e-06
0.0202627
2.11633e-06
8.39364e-06
0.00643674
2.89074e-06
1.96774e-06
3.56172e-06
7.39157e-06
0.00468044
2.16252e-06
0.00550516
2.364e-06
2.77465e-06
1.80478e-06
0.0322434
1.85235e-06
0.00536856
0.00133069
0.00495231
0.000672226
3.42905e-06
7.18136e-06
0.00498393
0.00712506
6.42708e-06
1.66584e-06
4.16716e-06
0.0678208
3.36564e-06
2.08858e-06
5.07392e-06
2.25175e-06
0.0294876
1.97934e-06
2.09055e-06
1.99881e-06
0.0056524
0.0152639
2.12301e-06
9.71136e-05
3.25634e-06
2.08174e-06
0.265303
2.38374e-06
1.91481e-06
2.36197e-06
1.93871e-06
4.29306e-06
3.19391e-06
5.19907e-06
0.00443428
2.27023e-06
0.0467768
1.97467e-06
2.52298e-06
1.91245e-06
1.91935e-06
0.0145358
2.00645e-06
2.32858e-06
0.00544174
1.941e-06
2.23241e-06
2.75274e-06
3.23436e-06
1.9192e-06
0.0176567
1.96905e-06
2.03298e-06
2.49398e-06
0.0794701
2.91553e-06
0.0162522
2.1503e-06
0.00092023
2.11004e-06
0.0217577
2.15072e-06
7.10209e-06
2.28007e-06
1.82176e-06
2.62421e-06
2.73161e-06
2.83363e-06
2.01995e-06
0.00624172
3.0028e-06
2.39192e-06
1.90792e-06
0.00839849
2.93672e-06
0.00379202
4.53178e-06
0.00864274
0.00010509
0.00833789
2.38917e-06
1.91002e-06
2.69084e-06
1.96853e-06
0.00844826
0.0146884
0.0201392
0.000193234
2.75149e-06
1.99297e-06
4.03667e-05
2.17798e-06
1.91275e-06
1.81389e-06
2.65862e-06
2.47463e-06
2.20692e-06
2.35407e-06
1.84811e-06
4.16179e-06
0.00126272
0.0110479
1.90175e-06
2.75924e-06
1.96639e-06
0.0255287
0.0118689
2.60719e-06
2.15969e-06
2.16359e-06
2.12395e-06
0.00540968
2.34617e-06
1.94101e-06
0.00521453
1.67188e-06
5.12377e-06
0.0657128
2.70814e-06
1.71137e-06
1.87878e-06
2.12289e-06
1.96521e-06
2.89883e-06
2.3117e-06
0.0089679
0.00434018
1.79003e-06
0.150685
3.53489e-06
0.0128935
2.59455e-06
1.91679e-06
3.47649e-06
2.69174e-06
0.000363754
0.00433288
1.4494e-05
3.02101e-06
1.89126e-06
2.16649e-06
2.08656e-06
1.8916e-06
2.72849e-06
0.0349105
0.00513833
0.00482671
3.49184e-06
0.00468762
2.3917e-06
0.00746379
0.00274445
3.28393e-06
0.0210621
0.00180891
2.27333e-06
2.4574e-06
1.70241e-06
1.79015e-06
2.49532e-06
2.0595e-06
1.97088e-06
3.62674e-06
0.0108761
2.03638e-06
1.63376e-06
2.39668e-06
1.71769e-06
1.91321e-06
1.92993e-06
2.44902e-06
0.00273898
1.69808e-06
0.00687583
0.0053058
3.28727e-06
6.20576e-05
2.26017e-06
1.81197e-06
1.83504e-06
0.00646579
2.12033e-06
1.96037e-06
0.00896345
2.22067e-06
1.97224e-06
3.51371e-06
2.38301e-06
2.12108e-06
1.97796e-06
2.30255e-06
2.10775e-06
3.78516e-06
2.06909e-06
2.59975e-06
1.75567e-06
3.40077e-06
2.37624e-06
0.0441127
2.44232e-06
1.9779e-06
0.00569283
3.03432e-06
2.27183e-06
1.72749e-06
2.06693e-06
2.61791e-06
3.18768e-06
5.19135e-06
1.72513e-06
2.02584e-06
2.108e-06
2.19168e-06
0.00728654
3.59249e-06
1.97623e-06
4.76994e-06
3.72037e-06
0.00294626
0.0574418
1.73912e-06
1.56272e-05
2.57734e-06
0.0514744
0.000247657
1.8092e-06
0.0369362
2.29832e-06
2.59903e-06
2.01378e-06
1.99079e-06
2.36252e-06
2.67323e-06
0.315657
0.00875222
0.00192277
5.93661e-06
0.0249323