/*--------------------------------*- C++ -*----------------------------------*\
| =========                 |                                                 |
| \\      /  F ield         | OpenFOAM: The Open Source CFD Toolbox           |
|  \\    /   O peration     | Version:  v2012                                 |
|   \\  /    A nd           | Website:  www.openfoam.com                      |
|    \\/     M anipulation  |                                                 |
\*---------------------------------------------------------------------------*/
FoamFile
{
    version     2.0;
    format      ascii;
    class       volScalarField;
    location    "150";
    object      p;
}
// * * * * * * * * * * * * * * * * * * * * * * * * * * * * * * * * * * * * * //

dimensions      [0 2 -2 0 0 0 0];


internalField   nonuniform List<scalar> 
13749
(
0.00774174
-0.0379617
0.0378946
0.00116481
0.0347159
-0.0380641
0.0384801
-0.0115397
0.0340889
0.000389833
-0.037016
0.0236216
-0.0186938
-0.0393982
-0.0386966
-0.018113
0.0370481
-0.0379145
0.0206018
0.0295815
-0.0669911
-0.040773
-0.0388291
-0.0399221
0.0367729
-0.0288142
-0.0265888
-0.0177584
0.0060435
0.0548643
-0.13649
-0.0400803
0.0993617
-0.0323315
0.0129369
0.00723073
0.039456
0.0325065
-0.0128493
-0.0314906
-0.0372224
-0.0473702
0.0834772
0.0978653
-0.0380465
-0.0154553
0.0245017
-0.0383669
0.00557072
-0.215356
-0.0401451
-0.0654379
-0.0317693
-0.041958
0.0220047
0.00610323
-0.022582
0.0964814
0.0113752
-0.0430946
0.0234996
-0.000383924
-0.0386116
0.0237354
0.00171028
0.0766672
0.0341823
0.0319818
-0.0209557
-0.0150573
-0.045614
0.0133375
-0.041949
0.00615322
-0.0449993
-0.0605967
-0.0173479
0.0116414
-0.0228284
0.0231284
0.00703013
0.043845
-0.0404383
0.0058952
-0.0372276
-0.0430809
-0.040838
-0.0433509
0.0131377
-0.0377698
0.0150991
-0.0419889
-0.00239367
-0.0977508
0.182352
-0.0356673
-0.0220161
0.029987
0.0133657
0.0745008
-0.0449589
0.00769605
-0.0176751
-0.0396709
0.0255296
-0.0394994
-0.0398011
0.0317402
-0.0377427
0.0301761
0.0237988
0.0861571
-0.0404582
-0.382589
-0.0523304
-0.0030252
0.00784636
0.0239336
0.0511596
0.00961637
-0.0111764
0.0212982
0.00689882
0.00455763
0.0396501
-0.045637
-0.037447
-0.0417891
-0.0218511
-0.0434052
-0.00933535
-0.0397873
-0.040832
-0.0423212
-0.0267735
0.065675
-0.0449594
0.00539999
-0.00872135
-0.154303
0.156962
-0.0271018
-0.0170316
-0.0749972
0.0124221
-0.156892
-0.0194159
0.0237733
0.0522047
-0.0365252
0.0126385
-0.0310828
-0.0391807
-0.0499171
-0.0214234
-0.0418511
-0.019523
-0.0249922
-0.0380378
0.0269837
-0.366178
0.0184946
-0.110461
0.0983107
0.029244
0.0273152
-0.0433215
0.03719
0.055528
-0.0193209
-0.0174166
0.0304529
0.005396
-0.0269522
0.0632503
0.0321807
-0.0665844
-0.0211081
-0.0435123
-0.0411085
0.0254435
-0.0320388
-0.0218389
0.118648
-0.0414258
0.0647704
-0.0725655
0.0128788
-0.133613
0.023031
-0.0222119
-0.0381192
-0.0139969
-0.0504545
-0.0717435
-0.0491123
-0.0365218
-0.397969
0.00689495
-0.0213515
0.00349572
-0.0391841
-0.0246079
0.0759773
-0.0425824
-0.00611288
0.0124397
-0.0510916
-0.0410134
-0.0439035
-0.00357274
-0.039529
-0.0581848
0.11672
-0.0274417
-0.0473882
-0.0452275
-0.0342959
-0.0403255
0.00645131
-0.24568
0.0737248
-0.0424109
-0.053564
0.0707894
-0.0427908
-0.00637698
0.163499
-0.0458551
-0.0401116
0.0350949
0.0266602
0.0212397
0.0242454
-0.0453626
0.0407735
0.0279026
-0.0415415
0.029262
0.0362876
0.0340942
-0.0554772
-0.0393303
-0.0382769
-0.04153
-0.0688853
0.0439817
-0.0416229
-0.0160752
0.0336529
-0.149266
0.0656227
0.0152658
-0.00251214
0.156301
-0.0263415
0.0321352
-0.111399
-0.0418411
-0.274603
0.00265221
0.0986095
-0.038359
0.0054196
0.0530863
-0.0444574
-0.0402039
-0.0294202
0.111223
0.162241
0.00587442
-0.0529005
-0.036738
-0.0788047
0.0133114
-0.0385731
-0.0653712
-0.0284285
0.162003
-0.026312
0.0270191
0.00757931
-0.0602617
-0.0846914
-0.0282195
0.0531681
-0.0307714
0.0108109
-0.130854
0.0321775
-0.0384134
0.00729624
-0.03917
-0.0373457
-0.0462366
-0.0409072
0.0311439
0.00771762
-0.0111276
0.00809275
-0.0177114
0.0127816
-0.0310548
-0.146394
-0.0314218
0.00233547
-0.0022236
0.0290628
-0.0116776
-0.0282816
-0.0525894
-0.0374866
0.00482333
-0.0413175
0.00599077
0.0340728
-0.0181763
-0.0435876
0.00903786
-0.0212986
-0.0479917
-0.0413779
-0.0326637
0.022898
-0.252695
0.0267793
0.0129901
0.00426451
0.0329659
0.0543598
0.00454511
0.0235391
0.00433932
-0.0192491
0.00568801
-0.00811953
0.00660463
-0.0259921
0.0331869
0.0745265
0.0300573
-0.130099
0.00667672
-0.0465073
-0.0439523
-0.00921011
-0.0206039
0.0589811
0.0119282
0.032473
0.0252383
0.0255996
-0.405773
-0.401912
-0.00150889
0.0183307
-0.0383026
-0.0455026
-0.0183178
-0.151713
0.0344986
0.0267414
0.00778831
-0.0845031
0.173814
0.0262378
0.019353
-0.0464746
-0.038682
0.030921
-0.0459768
-0.0274294
0.105272
0.0230175
0.026302
-0.00423995
-0.0125469
-0.39573
-0.0564637
-0.0219674
0.0264493
0.0301124
-0.0383456
0.0586777
0.0268564
0.00976546
-0.0372303
0.0259722
0.0265666
-0.0178658
-0.0390374
-0.0433177
-0.0773279
0.0226058
0.0616775
-0.155784
-0.401124
-0.12589
-0.0368242
-0.0436221
0.0182666
-0.0380574
0.0197327
-0.0398484
-0.0111005
-0.0281093
-0.07308
-0.036986
-0.0402136
0.0117056
-0.0122408
-0.0221313
-0.0368636
-0.0406312
-0.00877224
0.0270773
-0.0421549
-0.0452875
-0.0314349
-0.035669
0.0314606
-0.0374637
-0.140042
-0.017089
-0.0402045
0.020052
0.1111
-0.387847
-0.0405116
0.0504975
-0.0410948
0.0225996
-0.038303
-0.0150535
-0.0498584
-0.0161842
-0.00519142
0.00272987
0.0333084
-0.0465001
0.0336217
0.049005
0.0242966
-0.0223133
-0.00217305
0.0031188
0.01875
0.128671
-0.0401684
-0.0574182
-0.0593038
0.0710931
-0.244727
0.00695922
-0.084386
-0.0273416
-0.00166759
-0.0172291
-0.0748934
0.0304812
0.0201557
0.0242767
-0.0169524
-0.0471391
-0.0121968
-0.0284809
-0.0375259
-0.0934683
-0.413342
0.0960508
-0.0396397
0.019443
-0.0894368
-0.0430447
0.025591
0.0309541
-0.0364467
-0.0418071
0.0336186
0.0478633
-0.0176825
-0.0116142
0.00364208
-0.0368858
-0.0376368
-0.157348
-0.0981989
-0.0365612
0.0263473
-0.0224833
-0.0115372
-0.0118667
0.0199348
-0.0315361
0.00388116
0.00889082
-0.0842026
0.00279448
-0.417255
0.0181237
0.0546789
-0.0384108
-0.0202354
-0.043393
0.00243391
-0.0391552
-0.037158
-0.0395716
0.0311244
0.00922033
0.0268637
-0.00589637
0.0129142
-0.0391914
-0.0216059
-0.0981039
0.106765
-0.0459679
-0.0341919
0.0207086
-0.0441772
-0.260845
0.038981
-0.0369225
0.0513587
-0.00351829
0.0276242
-0.02492
0.00967153
-0.0518264
0.0249945
0.16865
0.0256849
-0.0282338
-0.0268061
-0.0382811
0.0386645
-0.0452922
-0.03731
-0.0468969
-0.0394105
-0.139988
-0.0378346
-0.0385533
-0.211072
-0.0370088
0.0507798
-0.0390778
-0.0510775
-0.043835
-0.0374204
0.0638948
-0.0372756
-0.0346008
-0.0321748
-0.0119279
0.0278974
-0.0318039
-0.017174
-0.0442926
-0.0392697
0.00754762
0.00163473
-0.0459678
0.062221
-0.0451399
0.03089
0.0324285
0.0122363
-0.0476626
0.0262129
-0.0588768
-0.0382645
0.0199002
-0.00794252
-0.00179194
-0.0406512
-0.0431072
-0.0235082
0.0816157
-0.00525799
-0.0406319
-0.289801
0.0918579
0.0402955
0.025842
0.0824651
-0.0398981
0.0198079
-0.00428396
-0.0211405
-0.0158304
0.0271613
0.0610427
-0.0396566
-0.0405222
0.0122239
-0.168513
-0.0834383
-0.0215012
-0.0212367
-0.0426328
-0.0391074
-0.0410259
-0.288155
-0.0124876
-0.0264727
-0.0405391
-0.220153
0.0261075
0.0252252
-0.0167918
0.0148611
-0.0376636
-0.0389883
-0.0231798
0.0277903
0.0299829
0.0304531
-0.01511
-0.0481549
0.0309243
-0.0426305
0.0114712
0.0100722
-0.112994
0.0258042
-0.167525
-0.0139483
0.0319364
-0.0416468
0.00387535
0.166093
0.0200859
-0.0206656
0.0199505
-0.0202332
-0.00699849
-0.0426016
0.0106855
0.00588107
0.0335535
0.0197592
-0.120085
-0.0503832
-0.026258
-0.049705
0.0386803
-0.0583614
-0.0383359
0.0059512
-0.0282224
-0.0398098
0.00126205
0.0200194
-0.0278357
-0.0576546
-0.0402103
-0.036637
0.0259651
0.00182119
-0.0522098
0.0263913
-0.0412647
0.0201069
-0.0443543
0.0253497
0.021151
0.0285318
0.00776105
-0.0452704
-0.0380028
-0.0430503
0.0033054
-0.0174189
-0.0849348
0.0732973
-0.0118099
-0.0382919
-0.0425234
-0.0379429
0.017971
-0.247305
0.147082
0.0426057
0.00246342
-0.0553401
-0.0450156
0.00660302
-0.0422921
-0.173557
-0.0280317
0.028785
0.00572179
0.0056086
-0.0374398
-0.00129071
0.00749131
0.0718903
0.0140174
-0.0170332
0.00311021
0.0376377
-0.00408238
0.0262071
-0.0172568
0.0233834
-0.0406377
-0.0371336
-0.088595
-0.0313254
-0.0383999
-0.0410871
-0.017559
-0.0205952
-0.0498653
-0.0393104
0.0302358
-0.0465226
-0.0206064
0.0531034
0.115773
0.0255495
-0.493419
0.0155766
-0.0388485
-0.047403
0.0272338
0.0461974
-0.0433032
0.0176206
-0.0770269
-0.0468085
-0.0433943
-0.168267
-0.0377268
0.00354041
-0.0122049
-0.00415306
0.013805
-0.039704
0.0431266
-0.0273397
0.0268825
-0.137352
0.0061096
0.0532905
0.0258274
0.0768371
0.153557
-0.0389492
-0.0365678
0.0218896
0.0192492
-0.0366265
-0.100219
-0.00662511
0.0207557
0.0135289
-0.0218225
0.00989883
-0.0418273
0.0267574
-0.0328277
-0.0435906
-0.0426823
0.0251093
0.0197244
0.027524
0.0332337
-0.114773
-0.0391392
-0.038586
-0.0394253
0.101275
-0.0379078
0.0309956
0.0312555
-0.037988
-0.0206253
0.00619798
-0.0270698
-0.0395078
-0.0108504
-0.0781947
-0.0154968
-0.126347
0.0300578
-0.0433805
-0.0379223
-0.0448684
-0.0485159
-0.0377382
-0.0315082
-0.125106
0.0130779
0.0412085
0.0304528
-0.102697
0.0187214
-0.25579
0.216259
0.0391128
0.026006
0.0363869
-0.0380212
0.0360812
0.0490297
0.022297
-0.0391334
-0.0891934
-0.0375914
-0.0484007
-0.0509646
0.0107521
-0.0412528
-0.0378262
-0.0959389
-0.0223374
-0.0497549
0.0677654
-0.0607693
0.0207428
-0.0223741
0.177643
0.0174764
-0.0383315
-0.0431175
-0.037336
-0.0363918
-0.0380236
-0.0398353
0.0567119
-0.161045
0.017833
-0.0685637
-0.0632611
-0.00956975
-0.0454254
0.119969
-0.100156
0.035609
0.0261047
-0.176611
0.0303376
-0.0157268
0.0190319
0.0246885
0.0199737
-0.0485532
0.0266201
0.00943117
-0.0370568
0.028711
-0.0279052
0.0186933
0.118867
-0.0102765
0.172321
0.0280969
0.246535
-0.0535355
-0.0483576
-0.0434924
-0.0287682
0.0299124
-0.0427958
-0.0496209
0.102107
0.0287291
-0.11009
0.070002
-0.0403778
-0.00752565
-0.0625415
-0.0915175
-0.0390935
0.0265966
-0.018389
-0.0453311
-0.0162355
-0.047144
-0.0190112
-0.0387247
-0.0345818
-0.0379843
-0.0390505
0.0150697
-0.0387687
-0.040545
0.0228552
-0.00190104
-0.0410549
0.010058
-0.0461389
-0.166476
0.0287286
-0.0390034
0.012096
-0.0319906
-0.00134603
0.0230164
0.0224006
-0.0450247
-0.040279
0.0217004
0.0174832
0.0895245
-0.0894058
-0.0369143
0.0303679
0.0104958
0.010382
0.0265057
0.0304055
0.0428825
0.0587027
0.213454
-0.131171
-0.0331095
-0.0377337
0.0603142
0.0271582
-0.00452498
-0.0671217
0.114122
-0.0408657
-0.0431293
0.0224958
-0.105164
-0.025993
-0.0380249
0.0301703
-0.044957
0.0554258
0.0269273
0.0573983
0.00509521
-0.0389193
-0.0285854
0.101555
0.0202318
-0.0385733
0.0230306
-0.0398804
-0.111523
0.0269511
-0.0644675
0.0140196
0.0177112
0.035677
0.0227565
-0.00404236
0.0398137
0.0138298
0.0319442
0.00882533
0.0525512
0.0176479
-0.0406362
0.00404283
-0.036618
0.0216972
0.0546766
-0.0259881
0.0619614
-0.040065
-0.0395711
-0.483061
0.021478
-0.00334929
-0.0384681
0.057978
0.0219408
-0.00594518
0.0268032
-0.0168161
-0.0393111
-0.0528191
0.00700873
-0.0138461
-0.0996842
0.0192037
-0.0448926
-0.00333223
-0.0460929
0.0896266
-0.0276377
-0.0396594
-0.144252
0.0147058
-0.0605231
0.0795455
0.0224791
-0.0345328
0.0255556
0.0249119
0.0392863
0.0197298
-0.014524
-0.0403223
0.00387781
-0.0764836
-0.0473674
0.0188865
-0.102925
-0.0398562
-0.0167691
0.0770736
-0.263486
-0.0458879
-0.0382905
-0.0376591
0.00215339
-0.0956646
0.0285636
-0.0388847
-0.0389887
-0.354157
0.0317971
-0.0395632
0.0266843
-0.0389468
-0.038822
-0.0759696
0.036128
-0.0421265
-0.113763
0.00709945
-0.044661
0.0925025
-0.145851
-0.0317154
-0.0486256
0.0227406
-0.0406771
0.0298241
-0.0326658
-0.0202783
0.0296382
-0.0408079
0.0351759
-0.0842328
-0.0369626
0.0311754
-0.0657259
-0.00574897
0.0087387
-0.0407947
-0.000899269
0.0347236
0.0272425
-0.0421278
0.0309339
-0.384677
0.0275697
-0.0111655
0.00391286
0.0581104
0.0273569
-0.130014
-0.0403042
-0.0378716
0.046083
0.0248862
0.0266688
-0.0045285
0.0246698
-0.030004
-0.0653017
0.00352904
-0.0205326
-0.0883816
-0.0216762
-0.0317671
0.0186253
-0.0400578
0.046165
-0.00255794
-0.0479379
0.021973
0.0335332
-0.0354061
0.0121286
-0.00764215
-0.0383936
0.0224348
-0.0316337
0.0963567
0.0217304
0.0528817
-0.0451612
-0.0415337
-0.0300612
-0.0102423
-0.0372203
-0.00813016
0.0198276
-0.136292
0.0247428
-0.0383249
-0.0406982
-0.0558086
0.13424
0.0202607
-0.0367932
0.01112
0.146661
0.0445908
0.110237
0.028809
0.0341413
-0.0384982
0.0275482
0.0265744
-0.0338751
0.0138073
0.029313
0.00585681
-0.404176
-0.0461167
-0.0175835
-0.362322
-0.0572389
0.0267439
-0.0347665
-0.0289737
-0.0214099
-0.351882
-0.0406809
0.00456328
-0.224669
-0.0345613
-0.253769
0.0242085
-0.0497929
0.0272233
-0.0426603
0.00160265
0.0210982
-0.45724
0.0247027
0.0164486
0.0220609
-0.038894
-0.327261
-0.0526958
0.0198361
-0.0390519
0.0331409
-0.115941
0.0194794
-0.00398907
-0.0400283
-0.00125061
0.0338673
-0.053116
0.0297853
0.0263104
-0.020966
-0.0147613
0.00990279
-0.0172406
0.00245565
0.0357297
0.0207485
0.0128218
0.0328892
-0.036165
-0.0418921
0.0443638
0.0289799
0.040079
-0.0175745
0.0221036
0.0259187
0.0571179
-0.0384087
-0.0277569
0.0248461
0.0222084
-0.130228
-0.0395497
0.0186549
0.0517764
0.0340922
-0.0186219
-0.277543
0.0586909
-0.038885
0.0298433
0.00590333
0.0190582
0.0195731
-0.0377395
0.058404
0.0095554
0.0192586
0.00876874
0.0220782
-0.0440734
0.0143847
-0.183755
0.0368219
0.0565662
-0.0395552
0.0215658
0.0190388
0.0130339
-0.0150646
0.155992
-0.0405342
0.0570281
-0.0382855
-0.0389131
0.00772831
0.140435
0.0250832
0.0402559
0.0532563
-0.0562161
0.0360443
0.0320349
-0.0523288
-0.0391001
0.0241036
-0.0656268
-0.0753735
-0.00333946
0.0268204
-0.0407956
-0.0320234
0.024063
-0.0397337
0.0291324
0.0369164
0.0077559
-0.0138142
0.0235909
0.0268315
0.0183837
-0.00977296
-0.0561654
0.165933
-0.0455138
-0.0242917
0.0525545
-0.00891771
0.101448
-0.0477181
-0.0566044
-0.0461887
0.0179555
-0.037548
-0.00421222
0.0151243
-0.0504341
-0.039138
-0.0396817
0.0540316
-0.0385441
-0.0417627
-0.0855472
0.0282915
0.0472227
-0.0342889
0.0210881
0.0201585
-0.0389796
-0.0385358
-0.0402578
-0.0158098
0.00938269
-0.0403453
0.0332028
-0.0175533
-0.0373022
0.0273444
0.0216258
0.0213165
-0.0637875
0.0248086
0.027335
-0.186787
-0.026013
0.0103877
0.0472543
-0.0434893
0.0274889
0.0373802
0.0230854
-0.00346985
0.00698783
-0.0398292
-0.0202506
-0.0436049
0.00492362
0.036992
-0.0367337
0.00355834
-0.0439535
-0.0354078
-0.0476483
-0.0363486
-0.0190277
0.0324547
0.0301276
-0.0257328
0.0131825
0.0675322
-0.263414
0.0453935
0.00488396
0.0199035
0.00536117
0.0199022
-0.0224379
-0.0388645
-0.00387299
-0.00994728
0.0322485
0.027988
0.0171063
-0.0395617
-0.0485722
0.00649036
-0.0126477
0.0129146
0.0397687
-0.0387294
-0.038661
0.0270324
-0.0386096
-0.250919
0.00280866
0.00840333
0.0063342
0.00867448
-0.0465299
-0.0424034
0.00257364
-0.0404299
0.0249775
0.0291097
0.0291559
-0.0436833
-0.0529601
0.0220441
-0.0277944
-0.0397971
0.0604647
0.0154942
-0.116669
-0.0160893
0.00669037
-0.0420807
-0.00261315
-0.0392926
0.0213148
-0.00682133
-0.0409268
-0.0212944
0.0174104
-0.0408016
-0.354663
0.0192732
-0.0303896
-0.001951
-0.0247299
0.0262714
-0.00506763
-0.00838958
0.135168
0.0531285
-0.0571036
0.0283372
-0.0402909
-0.00132982
-0.0352674
-0.0391645
-0.342875
0.0377937
0.0217637
-0.249528
-0.0605829
0.0186005
-0.0143215
-0.00353042
0.0240463
0.00435984
0.0195221
-0.333858
0.0260032
-0.0396908
-0.039138
0.019716
-0.0399357
-0.016079
-0.0423972
0.0274551
-0.00575011
0.021818
-0.0278711
0.0331808
0.0267138
-0.0253038
-0.0713792
-0.112706
-0.0470406
0.0216867
-0.0124944
0.0883878
-0.0377171
0.0444971
-0.0393854
-0.084757
0.00812954
-0.0659014
0.0124646
0.0245297
0.027394
0.0256918
-0.0418698
-0.0376768
0.0097162
0.014794
0.0322761
0.0269701
-0.0253729
-0.158856
-0.0352353
-0.00720407
-0.0397646
0.0055392
-0.0422967
-0.0407198
0.0195829
-0.0510844
0.0243692
0.138502
0.160996
-0.038268
0.0252254
0.0266351
0.0440035
0.0269854
-0.0220425
-0.0400017
-0.0164759
0.0562782
-0.00215526
-0.025692
0.0205678
0.0222753
0.0220786
-0.044851
0.00539685
-0.0290492
0.0162083
-0.0539316
0.0371004
-0.012778
0.0201065
-0.0397302
0.00392808
0.0224008
-0.0382928
0.0236238
-0.0402285
-0.0391967
0.0656427
0.0213393
-0.0328428
0.049926
-0.0389451
-0.0017091
-0.0560362
0.0232607
-0.0206352
-0.0470863
-0.0350204
-0.0811654
-0.0409397
0.0369659
0.000119697
-0.0473526
0.0131654
-0.0383054
-0.0125423
0.025243
-0.175233
0.0193708
0.0265631
0.0041269
-0.0669287
0.00557193
0.00651416
-0.148635
-0.0352999
-0.0259748
0.0164468
-0.0468179
0.0126929
-0.050382
-0.0384652
-0.0375864
0.0322963
0.0221668
-0.0708632
0.0221062
-0.0355192
0.021633
0.0260873
-0.0325068
0.0177757
-0.0284339
-0.0485017
-0.129357
0.02153
0.0554228
0.0306349
-0.0396999
-0.0325214
-0.0386009
-0.0205644
0.0282825
-0.153091
-0.0427017
-0.0389924
0.0199587
0.0640494
0.0196996
-0.0481689
0.0464083
-0.131725
-0.0205417
-0.0410837
-0.0315642
-0.0582992
-0.0352297
-0.0475965
0.0272026
0.00457012
0.0213132
-0.0544332
-0.0119283
0.0214826
-0.08093
-0.0287848
-0.0550842
-0.00939313
0.000472192
-0.0364546
-0.130948
-0.260382
-0.0394933
0.150589
-0.0428588
-0.0498182
0.0150184
-0.0398179
-0.0390024
-0.258042
-0.0507356
-0.0399859
0.0198046
-0.138183
0.0319584
-0.0592588
0.0165099
0.0286041
-0.038565
-0.0453805
0.0197113
0.0910773
-0.0358795
-0.0375602
0.136173
0.0193001
0.0265715
-0.0651668
-0.0285145
0.134886
-0.0582811
-0.219079
0.0225117
0.0222851
-0.0284192
-0.0172803
0.0366979
-0.00483656
0.00959723
-0.0666722
-0.032689
-0.0381125
0.0305164
0.112875
-0.0435545
-0.0388721
0.0278131
0.0134982
0.0932859
0.0218136
-0.0205095
0.0566275
0.0286954
0.030036
0.0280292
-0.00628436
-0.0387097
0.0127313
-0.198363
0.029006
-0.0955868
0.0217429
-0.0156796
-0.0657222
0.0305698
-0.018029
0.0443535
-0.154314
-0.0413007
-0.00274383
0.0166759
0.0856577
-0.00132557
0.0363989
0.0215691
0.0165397
-0.0322446
-0.0385273
-0.0408961
-0.0383498
0.0282061
0.16184
-0.226432
0.0219015
0.015507
-0.0568403
0.0206282
-0.0385572
0.0201396
-0.0483476
-0.0251055
0.0211656
-0.0412584
-0.0393126
-0.0775108
-0.0420527
0.000382954
-0.0290242
0.0099555
-0.0494484
-0.0105445
0.00135445
-0.0390001
-0.03844
0.0173108
0.0380253
0.0342513
-0.0575666
0.0232403
0.0066236
0.0216923
0.00997354
-0.0407674
-0.0119185
0.172356
0.0181156
0.0580649
-0.0492063
0.0266854
-0.0149179
-0.0395141
0.00324895
-0.038963
-0.054976
0.00723744
-0.0140136
0.00890325
-0.110729
0.00150913
-0.0276698
0.0361274
0.0277037
-0.0456813
-0.0384823
-0.0426846
-0.0822846
-0.041789
-0.129368
0.00836571
-0.0384002
-0.0283296
-0.0504374
0.137173
-0.063923
0.0371688
-0.140551
-0.0595803
-0.0280037
0.0276097
-0.0348448
-0.043695
-0.146671
-0.0803996
-0.0384022
0.00268608
-0.0170278
0.0122002
-0.0425718
0.0236214
0.0475426
-0.015069
-0.0270122
0.0101282
0.0250724
-0.238585
-0.0475447
-0.0354883
0.00395748
-0.27668
0.0344991
0.0575649
-0.0380755
0.0222507
0.0252457
0.0239313
-0.0454861
-0.0453554
-0.0369132
0.0030371
0.0193885
-0.412041
0.0190816
0.0665799
0.0288877
0.00808464
-0.0396162
0.0559589
0.232008
-0.0407025
-0.0428894
0.00191083
0.0281526
-0.00303155
-0.0267487
-0.0392505
-0.0406807
-0.0492291
-0.0497887
-0.0379842
-0.324727
0.0236426
-0.0458494
-0.0234389
0.0311503
-0.0474906
0.0217589
-0.0769778
0.00151344
-0.232405
0.0218096
-0.0426908
0.0357537
-0.0391974
0.00839874
-0.123581
-0.0696003
0.122488
-0.0387925
-0.0389979
0.0253656
-0.0110529
0.00547662
-0.0391731
0.112317
0.020909
-0.219625
0.085796
-0.439129
-0.250287
-0.11254
-0.0169728
0.00623824
-0.0770582
-0.0495102
0.125171
0.0600592
-0.328017
0.02493
-0.00420968
-0.0167836
-0.0772812
-0.0198898
-0.0803241
-0.0398147
-0.0490266
-0.00396371
-0.0890485
-0.0476669
0.0274086
0.0348853
-0.0896528
0.052201
0.0329672
-0.0298599
-0.446019
-0.0432373
0.00981286
0.037116
0.0109588
0.0249261
-0.0467421
-0.0648051
-0.0391508
-0.0193579
0.0122455
-0.0491856
-0.0384408
-0.0850815
0.00644148
0.0234729
-0.0322193
-0.0364379
0.0219803
0.0197136
0.0286863
0.0246225
0.0290488
0.0327988
0.0215501
-0.0103332
0.0286272
-0.036653
-0.107002
-0.070159
-0.0201924
0.0728491
0.00490882
-0.00249465
0.205654
-0.189099
0.003682
-0.0773914
-0.0508377
0.141059
-0.27643
-0.0370421
-0.316281
-0.046338
-0.00330345
-0.0400793
-0.0384471
-0.0385163
0.0307757
0.010512
-0.0872961
0.0234847
-0.0577115
-0.0523205
-0.0415267
-0.0216877
-0.083046
-0.0082346
-0.0386513
-0.00374006
0.0291602
-0.0381529
-0.0390592
-0.00703023
-0.0467945
-0.00120048
0.0426251
0.106442
0.029879
0.034673
0.0900321
-0.0153015
0.144935
-0.0318535
0.0184693
-0.0213323
0.00356519
-0.0230693
-0.000836446
-0.047335
-0.0398684
-0.0457615
0.0293562
-0.116963
0.0243572
0.0202977
-0.0439712
0.0412008
-0.0543764
-0.0386954
-0.375581
0.0991478
-0.0128416
-0.158836
-0.0333166
-0.0429471
0.0151193
-0.0140319
0.0194945
-0.046399
0.00724142
-0.482627
-0.0396417
-0.035588
0.0241038
-0.0693538
-0.0400198
-0.0523919
-0.134316
-0.040571
-0.028487
0.0355469
-0.0573164
-0.0394444
-0.0219851
-0.0138222
-0.0204238
0.0865439
0.045194
0.0262338
-0.0427253
0.00322453
0.025397
-0.151372
0.0270852
-0.0495765
-0.309047
-0.0459306
0.0182914
-0.0583954
-0.0459115
0.0247254
-0.0401871
-0.343235
-0.0453554
-0.0436527
-0.0319381
0.152037
0.13605
0.0554428
0.028831
0.0327344
-0.0184371
-0.0284916
-0.120458
-0.0279214
0.0299843
-0.00362227
-0.0388707
-0.0217184
0.00512404
0.0305251
-0.031094
-0.0375461
-0.0395337
-0.0102475
-0.0266775
-0.0032998
-0.00379381
-0.0528098
0.00995924
0.0414293
-0.035776
-0.103064
0.0311129
-0.0398664
0.0212482
0.0552781
-0.0349525
-0.0665952
-0.0383152
0.0185112
-0.0404655
-0.0388737
0.064496
-0.0381244
0.113954
-0.0398401
0.0202479
0.021239
-0.198515
-0.0403126
-0.0364627
-0.152217
-0.0334954
-0.150373
0.0220533
-0.0398751
0.0292742
0.027774
0.0618327
-0.203718
-0.0376323
0.0210048
-0.0439519
-0.428819
-0.0120094
-0.012775
-0.177741
0.00724562
-0.0416199
0.028136
-0.0564022
-0.041779
-0.0383278
0.0378122
0.0201078
-0.0461835
-0.0267681
-0.0345986
-0.0357554
-0.0277266
0.133742
-0.0271604
-0.0265773
0.0246292
0.018475
0.171801
0.017857
-0.045849
-0.039685
0.119943
0.0955555
-0.0497398
-0.03973
0.0298424
-0.0575079
0.028118
0.0213099
-0.0260103
-0.0388048
0.160158
0.102998
-0.0179564
-0.0323271
0.0192519
-0.0449586
-0.0353852
-0.0384634
-0.056363
0.213711
0.0477009
-0.0403468
-0.281669
-0.0381373
-0.0319919
0.0290851
-0.0339997
0.0317226
0.0201941
0.0376178
-0.00911345
-0.0383265
-0.0276328
0.00881664
0.0937111
-0.0368937
-0.0237458
0.00252669
-0.0400227
-0.0405953
-0.0551394
0.0335865
-0.00504124
-0.0384408
-0.0385397
-0.0393603
-0.040868
0.0398806
-0.0413629
0.148612
-0.0818936
0.0143697
-0.0384325
-0.0227142
0.0325281
0.0303757
-0.0444213
-0.0398574
-0.0394358
-0.0391942
-0.0244772
-0.0348619
-0.014727
-0.0418867
-0.0494206
-0.0491611
-0.0445666
0.027371
-0.0407337
0.0184974
0.0291771
-0.0438698
-0.0252818
-0.191944
-0.0573772
-0.038305
0.103193
-0.0400037
-0.0390609
0.00326065
-0.0400381
-0.0251636
0.0155706
-0.179073
-0.0360809
-0.0391709
-0.0200596
-0.0260776
-0.00457786
-0.0391979
0.00275526
0.0215642
-0.0393167
0.0267259
-0.0282229
-0.0206242
-0.014411
-0.0181495
-0.0410971
-0.0407688
0.0949544
-0.0355068
-0.0385423
-0.0445514
0.0222906
-0.0398325
0.00164837
-0.0259749
0.0464953
0.0559758
-0.049238
0.0455726
0.00797942
-0.0453458
0.0145581
-0.0579485
-0.0382746
-0.0386803
-0.0450759
0.0193972
-0.0102547
-0.0802002
0.0228477
-0.185105
-0.0452934
-0.0384996
-0.0422663
-0.0192201
-0.0753405
-0.0414853
0.00276549
-0.0347421
-0.0474551
-0.040299
0.0805828
-0.0253614
-0.000745124
-0.0260304
-0.0506992
0.0221878
-0.0587802
-0.0396495
0.0343746
-0.0356643
-0.0444492
0.0512764
-0.000203758
-0.0410319
0.0186719
0.0203169
-0.00102182
0.0327682
-0.0465566
-0.0153272
-0.0232673
0.00322846
-0.0341794
-0.0453535
0.00404187
-0.040703
-0.0240977
-0.046152
-0.00143067
0.0182452
-0.113984
-0.0398418
0.0558338
-0.313826
0.00318532
-0.0401563
-0.0417018
-0.0397563
0.0223021
-0.0368169
0.0296282
-0.0447355
0.00284678
0.028596
-0.00974018
-0.0441079
-0.039668
-0.00885138
0.0250597
-0.307887
-0.0424009
-0.0403443
-0.0575224
-0.0137556
0.0272336
-0.069093
0.078064
-0.0547016
-0.0396782
0.019484
-0.0250214
0.00821745
-0.00127515
-0.0390263
-0.0394439
-0.0755044
-0.0346457
-0.0388907
0.079949
-0.0269272
-0.064462
0.0285742
-0.00251189
-0.0103837
-0.0407968
-0.132844
-0.0616265
0.0114735
-0.0390931
0.0216755
-0.111688
-0.0429626
-0.18544
-0.000154384
-0.0395918
-0.0343188
0.0727858
-0.0265248
-0.00891249
-0.00726852
-0.0258978
-0.0280924
-0.0137859
-0.0322624
0.00247516
-0.0387621
-0.500529
-0.038802
-0.0429942
-0.0391376
-0.0377544
0.0704307
-0.0113371
0.0149749
0.0284797
-0.038368
-0.0417141
-0.0262886
0.0168712
0.0253295
0.0464273
-0.0521258
-0.0339036
-0.0383763
-0.0376468
0.0249727
-0.0140045
-0.0484198
-0.038526
-0.0451908
-0.00671988
-0.0413117
0.0313687
0.0415966
-0.0287039
-0.114765
-0.00976023
-0.0420857
-0.0398694
-0.044077
-0.0416272
-0.0456838
-0.0392815
-0.0447187
-0.0391431
-0.045791
-0.00103799
-0.0424912
-0.158822
0.0295626
-0.0331769
-0.0404857
0.0419101
-0.0914812
-0.0225776
0.0121464
-0.0282925
-0.041133
-0.0499975
-0.00244308
-0.136875
-0.0424996
0.00486947
-0.466652
-0.0377445
-0.0161929
0.0944596
-0.0161948
-0.0383388
-0.0416325
0.170288
-0.0490358
0.0253137
-0.161377
-0.0050283
0.0409527
-0.00502536
0.00746514
-0.0480184
0.00494067
-0.0366098
-0.0421356
-0.0235119
0.0233842
0.0263238
0.0308999
0.00659419
-0.156526
0.00712056
-0.0319682
0.135662
-0.185163
0.0194841
-0.0468654
0.0219744
-0.132697
0.0141774
-0.053871
-0.00776746
0.106157
-0.035671
-0.0196428
0.0243439
0.0294111
-0.0521116
-0.0317591
-0.0407135
0.0192938
0.0697344
-0.0252192
-0.0390009
-0.0383933
-0.0393954
-0.0413041
-0.0382832
-0.143004
-0.0389321
-0.0343437
0.00642434
0.112141
-0.0115791
-0.039525
-0.0479727
-0.0672832
-0.0708655
0.0271742
-0.0313766
0.0979599
0.0148593
-0.0317592
-0.0116411
0.0371072
0.0156798
-0.0346764
0.013921
-0.0253295
-0.0573836
-0.100862
-0.141444
-0.00940492
-0.0369384
-0.0311263
-0.0876104
-0.0411557
0.0178717
0.0238025
-0.0342443
-0.0246015
-0.0396105
-0.0356419
-0.0309937
-0.0430028
-0.000665607
0.191679
-0.342007
0.0294128
-0.0136509
0.0072518
-0.0339508
0.00730476
0.0226699
0.0326776
-0.0340633
-0.0485335
-0.0254002
-0.37577
0.023534
-0.042969
-0.0362437
-0.0309927
0.0287105
0.029883
-0.043067
-0.0497586
0.0557841
-0.0473004
-0.00407196
0.0196229
-0.0338338
-0.0309874
0.0325013
-0.211013
-0.0414579
-0.044024
0.0236742
-0.0447486
0.066638
-0.186545
-0.0394649
0.0222822
-0.0526379
-0.0417057
0.0425161
-0.0362117
-0.00913034
-0.0197451
-0.0433358
0.0105267
0.00796276
0.0210283
-0.0405606
-0.0338784
-0.000868651
-0.0363769
-0.025967
-0.000540607
0.00773213
0.0553322
-0.0392739
-0.0163013
-0.0430935
-0.0428234
0.0296871
-0.113419
0.0142084
-0.0040883
-0.0311488
-0.0451247
0.0126634
0.0077746
-0.0379069
0.0296461
-0.00581027
0.0275232
0.0922654
0.0121787
0.00876331
0.0147057
0.00939017
0.0212394
0.0105161
0.051415
-0.0268032
0.0271113
-0.0363505
-0.142144
0.033895
0.0036901
-0.0405365
0.0332649
0.0150366
0.0021096
-0.0263296
0.0500855
0.0232003
-0.0743222
0.00165245
0.00937034
-0.0210489
-0.036036
-0.0382669
0.0211883
0.00739583
0.208264
-0.0566243
-0.0409989
-0.194009
-0.0160001
0.0629767
-0.043747
-0.119428
-0.135847
-0.027235
-0.092053
0.0331898
0.0365778
0.00914451
0.00899881
0.110232
0.0216904
-0.499002
-0.0393524
-0.0525835
-0.0399311
-0.2817
-0.0469716
0.00486605
-0.00189323
-0.0460614
0.0282887
-0.040748
-0.105243
0.00225358
-0.408315
-0.0518424
0.0173317
-0.0391901
-0.0716675
0.186684
-0.100132
-0.0261961
-0.0377812
-0.0459383
-0.230595
-0.0469894
-0.0213409
-0.0159508
-0.0372619
-0.00447856
-0.31924
-0.243265
0.0124027
0.0270228
-0.037903
0.236957
-0.0728895
0.0128952
0.0384546
-0.445721
0.0276728
-0.0141925
-0.0104019
-0.0988615
-0.0442118
-0.133544
0.0202296
-0.0927471
0.0290264
0.0105528
0.0106772
0.0970571
-0.0435113
-0.0405851
0.0204297
0.0289087
-0.0496801
0.0871839
-0.0393872
-0.0690241
0.025249
0.0264765
-0.00540046
-0.0389636
0.027092
0.0263166
0.0278994
0.151701
-0.0372772
0.0332621
0.0246369
-0.111671
-0.0518243
0.0151431
-0.0406
-0.0405619
-0.071797
-0.0443128
0.0598641
-0.0384942
-0.073096
-0.0328154
0.0111092
0.0436115
-0.359528
-0.381773
0.026808
0.0791398
-0.0424137
-0.0453646
-0.0349036
-0.0432503
0.0238939
-0.076537
-0.28402
-0.0383099
-0.0210786
-0.167085
-0.332702
0.00697549
-0.0205926
0.0293346
0.0608033
-0.245725
0.0152353
-0.0400388
-0.0396842
0.0295061
0.0969872
-0.0377872
-0.038607
0.00543346
0.0145433
0.0247839
0.0567623
-0.417127
0.0192729
-0.0393422
-0.0643914
-0.0373222
-0.0385472
-0.140092
-0.0442612
0.0129407
0.0133991
0.00198724
-0.00328844
-0.0501846
-0.038349
0.0784892
-0.0379003
0.0149178
-0.049927
0.0202332
0.026084
0.0149992
0.0844597
0.0188933
-0.162159
0.0171393
0.0335106
0.00488033
-0.0445167
0.0934896
0.00882702
0.0243892
-0.03936
0.0217997
-0.0418473
0.0126153
-0.0491304
-0.0421616
0.0704013
0.00544075
0.0403371
0.0245977
-0.0404644
0.119072
0.0176615
0.0160876
-0.376389
-0.330584
0.232783
0.0146829
0.0352003
-0.0343556
0.14652
0.0219021
-0.0443569
0.0140664
0.117393
0.0268259
0.10932
-0.0403837
0.0391006
-0.00396407
-0.0430662
-0.13782
0.0268646
-0.0433208
0.0681313
-0.132192
-0.0425271
0.0657919
-0.0854052
-0.0469554
-0.0427636
-0.042155
0.0199639
-0.0418287
-0.00992658
0.00879289
-0.0403408
0.0267274
-0.0201534
-0.0607198
-0.0104142
-0.0468245
-0.146239
-0.0962911
-0.0518672
-0.0531352
-0.0506102
0.0293932
0.0240305
-0.0477697
-0.0118529
-0.321361
-0.0201758
0.0311769
-0.00332982
-0.0367494
-0.184459
0.0178203
-0.0463672
-0.0392211
0.0089747
-0.0406403
0.0126625
0.0330447
-0.0496309
0.0119845
-0.0279399
-0.0402154
-0.0487661
0.10858
-0.039374
-0.131726
-0.0408636
0.0438353
-0.0425658
0.00750219
-0.0408936
-0.253239
-0.0136947
-0.0417164
0.00493661
-0.157105
0.0701487
-0.0736634
-0.0385696
0.00809328
0.120886
0.221031
-0.0154857
-0.0407366
-0.204526
-0.0348196
0.0259565
-0.0390742
0.0467183
-0.0405452
-0.0417901
-0.0393677
-0.0387511
0.0108085
-0.0391567