/*--------------------------------*- C++ -*----------------------------------*\
| =========                 |                                                 |
| \\      /  F ield         | OpenFOAM: The Open Source CFD Toolbox           |
|  \\    /   O peration     | Version:  v2012                                 |
|   \\  /    A nd           | Website:  www.openfoam.com                      |
|    \\/     M anipulation  |                                                 |
\*---------------------------------------------------------------------------*/
FoamFile
{
    version     2.0;
    format      ascii;
    class       surfaceScalarField;
    location    "150";
    object      phi_0;
}
// * * * * * * * * * * * * * * * * * * * * * * * * * * * * * * * * * * * * * //

dimensions      [0 3 -1 0 0 0 0];
oriented        oriented;


internalField   nonuniform List<scalar> 
20424
(
-0.571342
0.592921
-0.0215782
-0.069264
0.10053
-0.0312658
-0.350064
0.0199314
0.330132
0.146025
0.0248278
-0.170853
-0.19889
-0.025541
0.224431
-0.125558
0.125808
-0.000250145
0.0951779
-0.121231
0.0260535
-0.20668
-0.0783775
0.359077
-0.248054
-0.111023
0.179404
-0.0333785
0.127383
-0.117701
-0.00968165
-0.548506
0.335568
0.212938
-0.140451
0.153961
-0.0135102
-0.0645908
0.0549496
0.00964121
-0.0312522
0.0448115
-0.0135592
-0.213884
-0.145333
0.287758
-0.142425
-0.0663491
0.0993104
-0.0329613
0.298543
-0.596937
0.298394
-0.539895
0.338907
0.200988
0.0196715
-0.00254962
-0.0171219
-0.0447139
0.0134616
0.0704254
-0.0605965
-0.00982897
-0.105588
0.113701
-0.00811314
-0.209733
0.010843
-0.11038
-0.0377099
0.14809
0.0492428
-0.176011
0.126768
0.202389
-0.182621
-0.0197686
0.0953113
-0.468284
0.372972
0.242724
-0.1009
-0.141824
-0.13117
0.0985387
0.0326312
-0.0237172
0.0306534
-0.00693617
-0.150672
0.144409
0.0062632
0.11742
-0.135463
0.0180433
-0.246406
-0.150535
0.396941
0.206882
-0.496955
0.290073
-0.370019
0.329258
0.0407619
-0.141407
-0.153314
0.294722
-0.246657
0.213508
0.0331487
-0.118638
0.138878
-0.0202397
-0.133595
0.00803717
-0.0161629
0.0161629
0.132404
0.065386
-0.19779
-0.151703
-0.00756748
0.15927
0.0274186
-0.0937676
0.144315
-0.189198
0.044883
0.110891
-0.391032
0.280141
0.123177
-0.111767
-0.0114095
-0.393888
0.329166
0.0647226
0.0020338
-0.00268457
0.000650772
-0.124815
0.019227
0.007241
0.0124305
-0.141077
0.0224386
0.0169317
-0.082406
0.0654743
-0.185411
0.0124226
0.172989
-0.0955796
-0.298309
0.142601
-0.0102171
-0.132384
-0.00500522
-0.145667
-0.179287
0.414406
-0.235119
-0.027659
-0.0417007
0.0693598
0.386632
-0.212101
-0.174531
0.258759
-0.0869941
-0.171765
0.0347817
-0.0294818
-0.00529992
-0.288277
-0.260229
-0.113426
-0.149338
0.262765
-0.169946
0.195632
-0.0256865
0.188894
0.170183
0.159012
-0.300419
-0.119481
-0.0783733
0.197854
0.188309
-0.0439944
-0.0355617
0.0421273
-0.00656557
0.00045408
-0.467664
0.46721
-0.0855706
0.0579116
-0.211515
0.338401
-0.126886
-0.0848075
-0.0201151
0.0630965
-0.128038
0.0649416
-0.118162
-0.0822044
0.200366
-0.416298
0.237011
0.136873
0.005728
-0.421557
-0.141416
0.562974
0.46447
-0.257588
-0.260196
0.239609
0.0205868
0.0150834
0.392586
-0.297275
-0.127136
0.141286
-0.0141494
0.133332
-0.106394
-0.0269385
0.00878084
-0.0581524
0.0493715
-0.0307715
-0.0515074
0.0822789
0.189572
-0.435978
0.132291
-0.110093
-0.0221979
0.242787
-0.463374
0.220587
0.0800912
-0.0631595
-0.13404
0.244892
-0.110852
-0.0879021
0.0673569
0.0205452
0.0702541
-0.0237199
-0.0465342
-0.135243
0.120363
0.0148801
-0.150572
0.186592
-0.0360204
0.240559
0.217997
-0.458556
0.436922
-0.436468
0.0645178
-0.234464
0.027059
-0.0211109
-0.00594816
-0.219669
-0.277286
-0.137786
0.220589
-0.0828031
0.0401477
-0.0460372
0.00588943
-0.664403
0.435834
0.228569
-0.00225364
0.0424014
-0.0853059
0.118921
-0.0336151
-0.240303
0.417778
-0.177475
0.133266
-0.000975798
0.44707
-0.152502
-0.294568
-0.159089
0.494657
-0.034689
0.167093
-0.118961
0.0336551
0.0086806
-0.0248695
0.016189
0.0233028
-0.0155909
-0.0077119
0.0991837
-0.293302
0.194118
-0.523375
0.303706
-0.166411
-0.0190003
-0.0313594
0.266671
0.471685
-0.272682
-0.199003
-0.212932
0.0062514
0.69241
-0.456495
-0.235916
-0.010982
0.429576
-0.418594
0.187295
-0.484188
0.296893
0.0153414
0.185759
-0.2011
0.00382503
-0.0393868
0.0938296
0.0319781
-0.0324081
-0.00903112
0.0414393
-0.202383
0.0251601
0.177223
-0.0176646
-0.067906
0.187709
-0.21064
0.0229309
0.0549835
-0.0655161
0.0105326
0.0527809
-0.0440001
0.0194937
-0.090555
0.0710613
0.0815855
-0.167708
0.086122
0.204499
-0.283987
0.0794885
-0.0930439
0.00823639
-0.140489
-0.236694
0.377182
-0.0494052
0.207164
-0.157759
-0.00202476
-0.00012069
0.00214545
0.0933112
-0.124967
0.0316554
-0.0109696
0.145016
-0.134047
-0.147716
0.204583
-0.0568668
0.0412677
-0.0280919
-0.0131758
-0.558371
0.499295
0.0590764
-0.00202476
0.161683
-0.157713
-0.00397092
0.147496
-0.0521228
-0.0953735
0.17865
0.120161
-0.298811
0.120685
-0.105696
-0.0149891
-0.573949
0.0155777
0.145563
-0.135233
-0.0103297
0.0401571
-0.0424108
-0.0147099
-0.0642111
0.078921
-0.207777
0.189868
0.0179086
0.0291697
-0.0235756
-0.00559412
0.00765615
0.154027
0.158006
-0.170498
0.0124917
0.0318125
-0.101077
-0.231383
0.453201
-0.221817
0.0418966
-0.033216
0.642675
-0.371771
-0.270904
-0.00667379
-0.00546827
0.0121421
0.0739142
0.0704947
-0.558437
0.212578
0.345859
-0.241466
-0.0695174
0.310984
0.057238
-0.0880095
0.0143604
-0.364424
0.139449
0.103275
-0.171159
0.0307076
-0.207681
0.0599651
0.305251
0.141818
0.188677
-0.00709687
0.136021
-0.128924
0.220175
-0.281489
0.0613142
-0.011205
0.106383
0.0959402
-0.0328436
-0.167708
-0.040069
-0.0417603
0.00935217
0.0415448
-0.0342643
-0.00728046
-0.327976
-0.336427
-0.0213861
0.138806
-0.164545
0.190862
-0.0263172
-0.00217158
-0.0721844
0.074356
0.0542653
-0.0806441
0.0263788
0.00241984
0.217755
0.00975553
0.0315122
-0.0923438
0.208465
-0.116121
-0.0433973
-0.0330339
0.0764312
0.276806
0.109826
-0.19066
0.0261151
0.0123868
0.0580387
-0.26257
0.173295
0.089275
0.118706
-0.113227
-0.00547905
0.022428
0.00924087
-0.0316688
0.0397491
0.0935834
0.131631
-0.0378015
-0.00306079
0.0027707
-0.466332
0.45535
-0.168798
-0.0335843
0.449003
-0.277379
-0.171624
-0.126122
0.0471145
0.0790071
0.147789
-0.137217
-0.0364091
0.173626
-0.0266672
-0.00571791
0.0323851
-0.143861
-0.103742
0.247602
-0.428455
0.236814
0.191641
0.123467
-0.00476166
-0.0761454
0.0641951
0.0119503
0.133304
-0.111581
-0.021723
0.284432
-0.185248
0.0464176
0.020016
-0.0664336
-0.013115
0.013115
-0.0261718
-0.0569357
0.0831075
0.160747
-0.111504
-0.10468
-0.0155187
0.120199
0.0302373
-0.0299876
-0.000249717
0.134582
-0.114038
-0.0205437
0.0297761
-0.0295664
-0.000209691
-0.174081
-0.294202
-0.0916073
0.0312994
0.0603079
-0.19796
0.0607431
-0.0629122
-0.0350187
-0.0371914
0.0722101
0.013902
-0.131434
0.117532
-0.0783499
0.0606853
0.0949962
-0.238857
-0.0175394
0.110851
0.0328587
-0.00262138
0.0661183
-0.0197007
-0.440037
0.281855
0.158182
0.333527
0.263488
0.324864
0.367546
0.460208
-0.349317
-0.00473409
-0.0430218
0.0477559
-0.104234
0.119575
0.0544912
-0.126718
0.0722271
-0.0218801
-0.252945
-0.28695
-0.297695
0.152362
0.23476
-0.181232
-0.0535271
-0.0575902
0.0225715
0.0760899
-0.0630014
-0.0130885
0.106088
-0.00927321
-0.0968147
-0.134808
0.118774
0.0160341
0.0320546
-0.00962669
-0.207635
-0.0525607
-0.0306139
0.00394675
-0.16087
0.192459
-0.0315891
0.193441
-0.36078
0.16734
0.00696646
-0.00194496
-0.0050215
0.206919
-0.579932
0.565396
0.0145356
-0.227489
0.0934489
-0.0463767
-0.0502093
0.096586
-0.152534
0.141564
0.140357
-0.38066
-0.00895998
0.00228618
-0.116506
0.0101122
0.0357754
-0.0289411
-0.00683434
0.282184
-0.474786
0.192602
-0.11952
-0.0190115
0.138531
0.0130843
-0.288196
0.13072
0.157477
0.135129
0.137148
-0.272277
-0.00838945
-0.0846544
0.0142071
-0.075564
0.061357
0.0233187
-0.133699
-0.100608
-0.00652738
0.107135
-0.121466
0.075089
-0.361932
0.533772
-0.17184
0.0134346
0.00307726
-0.0165119
0.118002
-0.102829
-0.0151726
0.0355908
-0.0262768
-0.00931405
0.121088
-0.213432
0.00500266
0.0197593
-0.0247619
-0.0123805
0.0123805
-0.00915809
0.130863
-0.121705
-0.00143617
-0.12003
-0.154037
0.146941
0.143709
-0.385175
0.395461
-0.225276
-0.170184
0.0715873
-0.0909695
0.0193822
-0.00850153
-0.00666505
0.0151666
0.162525
-0.052764
-0.109761
-0.0679177
0.246568
0.154649
-0.169409
0.0147598
0.170548
0.243858
-0.0920167
0.0486195
-0.201065
0.221579
-0.0205144
-0.0598096
-0.0221187
0.0819283
-0.385551
0.32373
0.061821
-0.000837868
0.0954441
0.0319385
-0.0164848
0.0413995
-0.0249147
0.0718679
-0.00767279
-0.305707
0.431631
-0.125924
0.202524
0.324219
-0.526742
0.0598018
-0.234351
0.17455
-0.431718
-0.139624
0.0645917
-0.182753
-0.222755
0.412328
-0.119805
0.146019
-0.026214
0.000210723
0.00675574
0.0257573
0.3725
-0.0903163
-0.172586
-0.0947675
0.267354
-0.340413
-0.218024
-0.0779487
0.242983
-0.165034
0.148169
-0.102734
-0.0454348
0.0164774
-0.00304278
0.147397
-0.128131
-0.0192656
-0.33143
0.100205
0.231225
-0.0375937
0.0313437
0.00625003
0.325895
-0.687827
-0.226606
0.0598768
-0.197663
0.0486768
-0.045006
-0.00367085
0.201082
0.270603
-0.0364849
-0.145185
0.18167
0.00611103
0.0705657
-0.0766767
-0.0191505
0.0191505
-0.0204608
0.117431
-0.0969704
0.309734
0.287281
-0.00121246
-0.00404949
-0.594254
0.340557
0.253697
0.205089
-0.427844
-0.462537
0.304895
0.157641
-0.28919
0.0234605
0.26573
-0.122828
0.257957
-0.337568
-0.124968
0.228697
-0.516974
0.484566
-0.297272
0.0707093
0.13168
-0.216231
-0.115199
-0.252036
0.20263
0.166763
-0.378278
-0.0235437
-0.152467
-0.00859521
-0.280595
-0.0861249
0.100027
-0.475554
0.288154
0.1874
-0.0744977
-0.0566722
-0.128479
-0.159717
-0.0274247
-0.0451744
0.0725991
0.0115401
0.121764
-0.0451834
0.252348
0.167784
-0.204269
0.134882
-0.266555
0.131673
0.1426
-0.363218
0.220619
0.164871
-0.352281
0.18741
0.132626
-0.329634
0.197008
0.306566
-0.173941
-0.00700172
0.00679265
0.000209079
0.0365548
0.0162285
-0.0527833
0.0270779
0.231681
-0.108986
0.297647
-0.188661
0.10717
0.0460805
-0.153251
0.0148644
-0.0772895
0.0624252
-0.116185
-0.0134146
0.129599
-0.00661892
-0.0829903
0.0896092
-0.265782
-0.174255
-0.260728
-0.0955819
-0.289969
-0.0117965
0.00329499
0.126777
-0.104631
-0.490544
0.150876
0.339668
0.140131
0.00736532
-0.0159589
0.0185788
-0.00261987
-0.00493045
0.0450876
-0.50663
0.291864
0.214765
-0.0522665
0.0357817
0.0371429
0.107874
-0.157215
0.0795292
0.0776859
-0.648171
0.226614
-0.286756
-0.203788
0.0900988
0.158084
-0.248183
-0.136816
0.125953
0.0108622
-0.00311861
5.78174e-05
0.02682
-0.103198
0.0763783
-0.152529
0.179887
-0.0273581
-0.226468
-0.229272
0.45574
0.494566
-0.254007
0.0479194
-0.0380299
-0.0098895
-0.128103
0.262985
-0.261561
0.602118
-0.740476
0.561331
0.179145
-0.0281946
0.00447738
-0.141302
0.33404
-0.192738
-0.428421
0.197037
0.0328291
0.18776
-0.101856
0.0130604
0.0887952
0.0898738
-0.0803093
-0.00956449
0.00749892
0.324808
-0.169291
-0.155517
-0.179267
0.160109
0.0191585
-0.116334
0.050556
0.0657776
-0.0351388
0.0247821
0.0103567
0.10005
-0.00151125
0.110443
-0.0893199
-0.0211233
-0.00841652
-0.0699334
0.277481
0.365194
-0.132775
0.00563858
-0.651421
0.252588
0.398833
-0.114717
0.0633599
0.0513569
-0.249128
0.171179
0.0616953
0.10083
-0.0410787
-0.0313431
0.0724218
0.107988
-0.00814554
-0.0998422
0.0292624
-0.0961927
0.0669303
0.331113
-0.188513
-0.11912
-0.104884
0.224004
0.190849
-0.154937
-0.0359112
0.0825723
0.027871
-0.0349176
0.0441152
-0.0091977
-0.124678
-0.0121377
0.420271
-0.638721
0.21845
0.0502632
-0.00158636
-0.038674
0.0474618
-0.00878779
-0.156619
-0.0612007
-0.0740419
-0.202256
-0.127842
0.330097
0.12796
-0.121018
-0.00694187
0.0881539
-0.0859302
-0.0022237
0.217692
-0.184863
-0.0589162
0.0731233
0.58345
-0.307003
-0.276447
0.0133694
-0.113977
0.0757955
-0.0392407
0.0291403
-0.00319326
-0.025947
-0.0759564
-0.0452751
-0.0926227
0.0948317
-0.00220899
-0.32544
-0.267904
0.593344
0.101148
0.00493996
0.00976859
0.0659225
-0.0806324
0.0274397
-0.147181
0.23728
0.142141
0.102494
-0.244636
-0.291707
0.138392
0.00806563
0.0286732
-0.0367388
-0.0286326
-0.219421
-0.149138
0.246081
-0.0969435
-0.701239
0.301109
0.40013
0.0383327
-0.158713
0.189076
-0.0303631
-0.347984
-0.126802
0.289717
-0.54009
0.250374
-0.068243
0.0420713
-0.119268
0.104887
0.0143807
-0.0653426
0.0921626
0.078453
-0.00686566
0.121039
0.0878304
-0.208869
0.0215596
0.0613572
-0.0829168
0.211159
0.184302
0.00810332
0.0257558
-0.0338591
-0.00131512
0.135504
-0.134189
0.0206909
0.1549
-0.000840682
-0.15406
-0.0658677
0.024789
-0.27098
-0.23565
0.372496
0.2776
-0.650097
-0.301484
-0.399755
0.13126
0.0864316
-0.0165491
0.000590159
-0.174918
-0.0717392
-0.139314
0.0149015
-0.0827176
0.109443
-0.0267257
-0.0134394
-0.0794158
0.0928552
-0.00273035
-0.0324084
-0.193248
0.00224004
0.0738498
-0.367468
0.556679
-0.189211
-0.094399
0.0809596
0.0268304
-0.0215067
-0.00532374
-0.348326
0.207024
-0.363018
0.160762
-0.0897912
0.113241
-0.0234503
0.128263
-0.144751
0.016488
0.335249
-0.141809
0.104924
-0.254061
-0.174964
0.300638
-0.205547
-0.0950911
-0.451603
0.298028
0.153575
-0.0327797
0.00321336
-0.0171661
0.0221687
-0.0647675
-0.0515661
-0.00671324
-0.00589264
0.0126059
0.0240111
0.0107706
-0.153453
0.175311
-0.0218577
0.00920046
0.181648
0.14438
-0.263499
0.223467
0.0771704
-0.306698
-0.253646
0.560343
-0.112943
0.13264
-0.0196971
-0.146708
-0.239047
0.132483
0.106564
-0.0270692
0.000792379
0.253514
-0.111373
-0.00973208
-0.328567
0.219581
-0.13444
0.268242
-0.133803
0.0077537
-0.0683502
0.192904
-0.0251205
-0.0761267
0.0677102
0.157441
-0.270868
0.0120179
0.0171224
-0.10049
0.0822045
0.0182859
-0.03709
-0.0776268
0.297159
-0.138147
-0.427675
-0.312801
0.665195
-0.348935
-0.31626
0.102925
0.159001
-0.261926
-0.255324
-0.173131
-0.0195815
0.0195815
-0.174468
0.029283
-0.00944418
0.00273093
-0.132484
-0.0247312
-0.0617708
0.00733306
0.0544377
0.0165484
0.118034
-0.26529
0.563833
-0.00931675
0.0631155
-0.0537987
0.0737783
-0.0522188
0.245606
-0.149636
-0.0959691
-0.0816113
-0.0188791
-0.195794
0.254599
-0.0588047
0.241628
0.0773703
-0.318998
-0.17153
0.404815
-0.233285
-0.157512
0.133968
-0.0466707
-0.192376
0.126223
-0.0215217
-0.104701
0.122806
0.18376
0.0529223
0.0173318
0.0600457
-0.112169
-0.0219379
-0.117376
-0.019721
-0.112249
0.13197
0.013802
-0.275491
-0.0945283
-0.0538063
-0.00796453
-0.00538439
-0.0273954
0.0115892
0.0119502
-0.0670847
0.0551345
0.0776386
0.0105153
-0.0878295
0.0033612
0.0844682
-0.0803429
0.0205333
0.00304537
-0.00101157
-0.0972416
-0.0204594
0.0570811
-0.182198
0.125117
-0.0362193
0.0165391
0.0196802
0.0128554
0.0104473
-0.0668738
0.0575571
-0.12093
0.0295235
0.091406
-0.262451
0.114023
0.148429
-0.0225534
-0.00564122
0.13317
-0.102834
-0.0303359
-0.108116
0.0876551
0.200165
-0.140363
0.218292
-0.389822
0.0259347
-0.18793
0.0514182
0.136511
0.0226335
-0.0193883
-0.00324523
-0.0147559
-0.0498349
0.519695
-0.317172
0.400113
-0.0746974
-0.325415
-0.0525671
0.0674314
-0.14258
-0.119872
0.0329839
-0.0249182
0.150405
-0.456112
-0.444592
0.269263
0.175329
0.325773
-0.21499
-0.110783
-0.0630755
0.0691866
-0.431174
0.204706
0.0715801
-0.0962695
0.0246894
-0.00564622
-0.0305731
-0.297339
-0.354082
-0.152821
-0.0999016
0.252722
-0.324891
0.152305
0.00662723
0.0157789
0.0112802
-0.182155
0.0631359
0.11902
-0.0715718
-0.032847
0.104419
-0.232571
0.0853899
-0.0608994
0.0901618
-0.00126019
0.00293006
-0.00166987
-0.159978
0.154973
0.0501282
-0.183515
0.133387
0.392153
0.181716
-0.573869
0.0612329
-0.00731827
0.0690291
-0.0635353
-0.00549379
0.215982
-0.14871
0.17496
-0.0262503
0.187541
-0.0368565
-0.150685
0.159266
0.0574106
-0.216677
0.0144263
-0.167879
-0.0308018
-0.148465
0.0627372
-0.00916001
0.0637368
-0.0545768
-0.203941
-0.212357
-0.0047422
0.0044627
0.000279503
-0.0189658
-0.187429
0.0197214
-0.0388023
-0.148627
-0.0516989
-0.0105422
0.062241
-0.0815946
-0.020261
0.0248394
-0.0222531
-0.00258626
0.00210905
-0.00336924
-0.230772
0.0558539
-0.153675
0.15236
0.035736
0.00837928
-0.00258052
-0.000104044
0.148562
0.455454
-0.604016
-0.156539
-0.196586
0.353125
0.187041
-0.0313218
-0.15572
-0.237983
0.48077
-0.0121931
0.0287323
-0.0721615
-0.0539601
-0.115964
-0.066191
-0.173835
0.00742358
-0.0218914
-0.151943
0.143741
-0.329244
0.185504
-0.137281
-0.0519169
-0.0906813
0.0991862
-0.00850484
-0.203926
-0.159092
-0.0752695
-0.0152855
0.213514
0.112259
-0.0897461
0.0512375
0.0385086
-0.0145831
0.0319029
-0.0173197
-0.0435116
0.479346
-0.111894
0.0289251
0.0829692
-0.121933
-0.140637
0.362625
-0.197754
0.060302
-0.0471346
-0.0131673
-0.189026
-0.171827
0.360853
-0.074249
0.0728129
0.482126
-0.27875
-0.203375
-0.218054
0.0667426
0.151311
0.224688
0.337389
-0.562077
-0.172423
0.209313
-0.03689
0.0877892
0.1774
-0.265189
0.0086031
0.21311
0.192785
-0.405895
0.149082
0.232543
-0.381625
-0.343963
0.250778
0.0931848
0.281483
-0.469148
0.187665
-0.0283473
0.0137641
0.115182
-0.0587344
-0.0564479
0.127737
-0.147458
0.0695049
0.0456774
0.197744
0.0478612
-0.00171014
-0.0114048
0.0502207
-0.0116715
-0.0385492
-0.535847
0.136697
0.39915
0.128515
0.0196539
-0.0777002
0.34952
0.0505924
0.62934
-0.256844
0.165198
-0.029694
0.0899863
-0.0184062
0.0173298
0.01184
0.0308939
0.540715
0.104176
0.0129958
0.252282
0.305178
-0.55746
-0.0796467
-0.0129761
0.258143
-0.564841
0.0015226
-0.0364176
0.204648
-0.16823
0.484984
-0.243993
-0.240991
0.268241
-0.520009
0.251769
-0.381267
0.155991
0.0425364
-0.0472705
0.0523546
0.0487933
0.0146043
-0.0212731
-0.326711
0.007106
-0.195036
-0.0896954
0.0828474
0.00684802
0.185556
-0.0622357
-0.168536
-0.027468
0.0277039
-0.000235891
-0.0266928
-0.000998904
0.0276917
0.0147105
0.0845999
0.508292
-0.545037
0.0367449
-0.0751505
-0.0164568
0.10716
-0.126182
0.0190218
0.198787
-0.342062
0.143276
-0.266003
0.453142
-0.187139
-0.088289
0.117431
-0.1027
-0.014731
0.290389
-0.0190051
0.0224857
-0.00348063
-0.00342627
-0.00131593
-0.0393049
0.12089
0.241209
-0.261818
0.0206084
-0.210218
0.388032
-0.177813
0.363992
-0.21491
0.0289808
-0.0411739
0.137876
-0.022283
-0.115593
0.467076
0.125844
-0.115136
-0.0162975
0.166927
-0.34509
0.178163
0.183371
0.00908818
0.197869
0.251134
-0.0239745
0.0403664
0.01443
0.441024
-0.150876
-0.0472833
0.198159
0.151508
-0.0914618
-0.017788
-0.039523
0.057311
-0.0254855
-0.0114154
-0.0829837
0.0308976
0.115122
-0.000170955
0.00126381
-0.00281214
0.0204812
0.0208707
-0.0850818
-0.0187029
0.0229606
-0.00425776
-0.481498
0.210517
-0.00255885
-0.013604
0.00289677
0.14329
-0.146187
0.17588
-0.144791
-0.031089
-0.033414
-0.0755443
0.108958
0.141237
0.192802
-0.000996792
-0.00550127
0.00649806
-0.155651
-0.424281
-0.0808016
0.110632
-0.0298305
0.00664773
0.00951512
0.323658
-0.193501
-0.130156
0.228746
-0.0429621
-0.185783
0.0732465
0.0301767
-0.103423
-0.200948
-0.167266
0.368214
0.0899107
-0.0206241
-0.0692866
-0.10507
0.0143886
-0.0113134
-0.0555604
-0.0613383
0.0940639
-0.0417094
-0.404181
0.160823
-0.150102
-0.0107206
-0.0772324
0.235317
0.313992
-0.147501
-0.166491
-0.00641575
0.0613653
-0.0955299
0.294316
0.162805
-0.0267841
0.166445
-0.0811166
-0.550475
0.0146278
0.269425
-0.132276
-0.181102
-0.148532
0.159386
-0.0187475
-0.140638
-0.0178061
-0.0376543
0.0452009
-0.00754658
0.0900756
0.0231658
0.239032
0.0857755
0.142938
0.413741
-0.0955796
-0.0101165
-0.0395975
-0.0483046
0.257178
-0.154252
0.264964
0.22002
0.476387
-0.166007
-0.31038
-0.113068
-0.400931
0.24179
0.159141
0.0116927
-0.0588274
0.287422
-0.539008
0.251585
0.117549
-0.00117409
-0.116375
0.00414184
-0.0802686
0.050453
-0.0410262
-0.00942676
0.275524
-0.603499
0.256126
0.226
-0.242841
0.481884
-0.239043
0.118111
0.116649
0.067363
-0.0928198
0.0254568
-0.00124689
-0.0282349
0.00715715
0.0745193
-0.0896149
0.0150956
-0.120058
0.000537875
0.0392847
0.00863469
0.307557
-0.163817
0.173744
0.0478348
0.0891071
-0.0807416
-0.00836548
-0.13037
-0.0876841
-0.304359
0.0881276
0.122849
0.0252774
-0.148126
-0.0513624
0.0633126
-0.0857127
-0.163415
0.073802
-0.0275895
-0.0462125
0.202135
-0.042869
0.0113727
-0.0349226
0.0235499
-0.0733297
0.355124
-0.281794
-0.0214221
0.00203386
-0.0216039
0.00290108
0.00444003
-0.0323895
0.0351995
-0.00281002
-0.0454413
-0.0423881
-0.111801
0.133039
-0.0212386
0.028467
-0.0170943
0.221063
0.162672
-0.112543
-0.397773
0.346307
0.0514654
0.109758
-0.0162957
-0.0934623
0.482702
-0.192985
0.0385246
-0.0832207
0.0446961
0.0892077
-0.0525048
-0.0367029
-0.164649
0.0986224
0.0660265
-0.188497
-0.159829
-0.0668395
0.215183
-0.148343
0.044222
-0.00493734
0.0393614
-0.220594
0.144735
-0.0876535
-0.23152
0.488854
-0.257334
-0.0653934
0.0559347
0.00945872
0.0979413
-0.0214554
-0.0764859
-0.0793564
-0.0916034
0.113823
-0.0222197
-0.0195099
0.00391904
0.290638
-0.0771236
-0.0213683
0.00236319
-0.0822857
0.0368443
-0.000863777
0.0682207
0.0293155
0.031864
0.115624
0.100708
-0.216333
-0.0875485
0.0920931
-0.00454461
-0.173488
-0.423449
0.158647
0.0279453
0.0504541
0.207099
0.252435
-0.459534
0.0112395
0.0389812
0.005447
-0.0243221
-0.00235982
0.026682
-0.000491852
0.0899657
-0.000858601
-0.0506004
-0.0139987
0.0645991
0.259639
-0.138528
-0.121111
0.0190976
-0.102088
0.449844
0.0584486
0.053212
-0.0669392
0.0137272
0.0980111
-0.0775723
-0.0204389
0.0374882
0.150221
0.0882833
-0.0189466
-0.0693367
-0.0926112
0.0356755
-0.095992
0.0945125
0.00147948
0.346132
-0.146806
-0.199327
0.10053
-0.0460383
0.0123911
0.00988947
-0.0222806
0.231921
0.221366
-0.0480758
-0.173291
0.240404
-0.525066
0.284662
-0.507014
0.115982
-0.331068
0.555756
-0.040799
-0.0065996
0.0473986
-0.278782
0.531064
-0.199684
0.370186
-0.170501
0.0186678
0.489809
-0.26217
-0.227638
0.111204
-0.120362
-0.142082
-0.186485
0.102002
-0.135416
0.173015
-0.258728
0.0511083
-0.0748282
0.524639
-0.271427
-0.253212
0.0235002
-0.0212347
0.0381576
-0.0169228
0.00914265
-0.0803805
0.0941756
-0.0137951
-0.11049
0.0577259
-0.0528817
-0.0368645
-0.0242523
0.0974988
0.0494669
-0.00923224
-0.0402346
-0.0886499
0.102019
-0.550454
0.210042
-0.0223185
-0.0107238
0.0330424
0.203455
-0.0240755
0.00182239
-0.0571916
-0.153448
0.0104626
0.0498572
0.0339207
-0.083778
-0.0151685
0.0896877
0.581323
-0.317835
0.17967
-0.208884
0.0292146
0.00213234
0.0303537
-0.032486
0.0320584
0.189308
-0.061482
-0.00771097
0.069193
0.167006
-0.214491
0.0474852
0.0847774
-0.0696219
-0.0151555
0.0548322
0.0783378
-0.00575715
0.0902254
-0.0530066
0.565675
-0.244286
-0.32139
-0.00844029
-0.0361109
0.0445512
0.077899
-0.0176255
-0.0602735
-0.45123
0.309161
0.14207
-0.108516
0.287095
-0.178579
0.0451321
-0.00939613
0.253491
0.0371466
0.114665
-0.0999869
-0.0146778
-0.0163813
0.0287724
0.49607
-0.227829
-0.0760431
0.0949384
-0.0188953
-0.0533021
-0.108683
0.161985
0.146235
-0.115337
-0.299743
0.191227
-0.260156
-0.191074
0.299389
0.297625
0.00585003
-0.0102814
-0.0337775
0.0440589
0.372784
-0.166986
-0.205798
0.431729
-0.22463
0.101515
0.0630449
-0.16456
0.0814359
-0.0315787
-0.0256048
0.43333
-0.215332
-0.230382
0.31801
-0.1049
0.558367
-0.331225
-0.227142
-0.38144
0.177514
-0.100477
-0.0641717
-0.163442
0.155974
0.00746782
0.0616733
0.0275344
-0.0993747
0.0273698
0.0720049
-0.145879
0.130903
0.0149763
0.0982879
-0.0835774
0.266726
-0.130632
-0.136094
0.511453
-0.0911825
-0.302127
0.240319
0.0618077
-0.0170981
0.0703101
-0.173736
0.0670104
-0.0887347
-0.0302263
-0.0719321
0.0606187
-0.587685
0.262244
0.0137659
-0.021503
-0.131031
0.103655
-0.0801024
-0.0235529
-0.0705057
-0.327267
0.00765484
0.0806284
-0.165289
-0.0468828
0.212172
0.389367
0.275828
-0.116055
0.251075
-0.135019
0.506351
0.0234053
-0.529756
-0.0316238
0.110631
0.150108
-0.132004
-0.0181042
0.0289913
-0.117641
0.235751
-0.566819
0.0386081
-0.0470484
-0.338438
-0.00225013
-0.0169004
0.00958435
-0.383864
-0.0437405
0.427605
-0.0233251
0.0356104
-0.0122853
-0.630105
0.374107
0.255999
-0.382187
0.181238
-0.221851
0.155011
0.596001
-0.30872
-0.20208
-0.100047
-0.17114
-0.0927701
0.26391
0.339768
-0.172841
0.25449
0.163288
0.200369
0.322989
-0.523359
-0.276836
0.0810417
0.0777477
0.0227819
0.0402152
-0.0504965
-0.386945
0.157432
0.229513
-0.0245447
0.00199134
0.32577
0.271245
0.134985
-0.0228944
-0.131143
0.124146
0.0262238
-0.0218003
-0.00442351
0.043634
-0.0429798
-0.000654115
-0.00093895
-0.100727
0.253896
-0.153169
0.366658
-0.12503
0.0118446
0.0571845
0.143584
-0.557548
0.292094
0.265454
0.0131984
0.142555
-0.216736
0.134532
-0.031954
0.00765232
0.0243016
0.1182
-0.0163347
-0.101865
0.482684
-0.207058
-0.275627
0.0251803
0.130743
-0.155923
-0.0966798
0.0790694
0.0176104
0.499914
-0.243788
0.0741285
-0.0892649
0.0151364
-0.277144
0.224226
0.052918
-0.0129678
0.0325932
-0.0196254
-0.132812
-0.0271668
0.0690261
0.0961716
-0.0576096
-0.0320053
-0.0491958
-0.0367344
0.165897
0.399778
-0.0041764
-0.157697
0.00429844
0.304862
-0.100038
-0.0164687
0.359508
0.231559
-0.591067
-0.237002
-0.243299
0.480302
0.0890701
-0.26021
-0.203934
0.541324
0.0055389
0.155284
0.00448428
0.0406478
-0.35671
0.167685
-0.0653879
0.04936
0.0160279
-0.0299536
0.0169859
0.299539
0.200375
-0.00216731
0.0100992
0.0333135
-0.0434128
0.042961
0.14041
0.0442496
0.0100363
0.0257391
-0.0361394
0.0928786
-0.0567392
-0.0268346
-0.000633407
0.0595299
0.0387581
-0.120076
0.277517
0.0946947
-0.0156253
-0.32034
-0.230114
-0.009131
-0.022823
0.00650419
-0.118272
0.0162705
0.0256261
-0.200366
-0.244226
-0.0282145
-0.0086306
0.0368451
-0.222777
-0.205644
-0.0405664
0.0498055
-0.00923911
-0.0731872
0.0792811
-0.00609387
0.074496
0.0154147
0.198384
0.147749
-0.0291739
0.00248113
-0.098208
0.0379966
0.0602114
-0.197573
-0.106786
-0.0309794
0.000991776
-0.084682
0.186197
0.0960131
-0.0782275
-0.0177855
0.137078
-0.119574
-0.017504
-0.0323595
-2.99272e-05
0.328097
-0.0174373
-0.117371
-0.226811
-0.254687
0.0964458
0.0211031
0.0282096
-0.185013
0.156804
-0.258345
-0.217209
0.030072
0.0647597
-0.296051
0.0742005
0.0858069
-0.0972222
0.0890615
0.0289401
0.442269
-0.00231208
-0.0100684
-0.108095
0.267096
0.261814
-0.185275
-0.0765397
0.0145759
-0.0429776
0.0284016
0.16696
0.172687
-0.339647
0.216209
-0.244527
0.0283179
0.34861
-0.173529
-0.17508
-0.00668702
0.0443744
-0.0376874
0.174884
-0.301688
0.126804
-8.74566e-05
-0.128262
-0.248769
0.377032
-0.0861779
0.230558
0.473335
-0.274659
-0.198676
-0.165296
0.00185403
-0.559963
0.434537
0.125426
-0.00394276
-0.00525545
0.00919821
-0.0130213
0.131795
0.112766
-0.0832428
0.180238
0.0894428
-0.26968
0.33087
0.163588
-0.494458
-0.562201
0.283419
0.0646277
0.175692
-0.204325
-0.302689
0.123237
0.0314122
0.00983088
-0.315677
0.494691
-0.179014
-0.158436
0.0389551
0.0082459
0.0187427
0.0208396
0.184208
-0.32629
-0.0230178
0.0211104
-0.17369
-0.103455
-0.0333856
0.00102606
0.29876
0.260583
-0.559343
-0.233612
-0.110351
0.0181939
-0.0224208
0.00422682
0.110413
-0.0326654
-0.164246
0.0950247
-0.126648
-0.206997
0.106269
-0.115165
0.132994
-0.0178287
-0.131712
0.124144
-0.430523
0.18653
-0.00631812
0.0497482
-0.00721187
0.01675
0.0100805
-0.0480859
-0.121323
-0.184135
0.192906
-0.00877155
-0.00635081
0.0910267
-0.243847
-0.0524364
0.333919
0.0849612
0.0150888
0.471798
-0.140929
0.0821801
0.0214751
-0.0670509
0.0578909
-0.0735505
0.089687
-0.0161365
0.0485343
-0.0507058
-0.257173
0.00637397
0.250799
-0.0924598
-0.0103692
-0.0185904
0.185341
-0.16675
-0.0191654
-0.0693807
0.0885461
0.141322
0.143555
-0.284877
-0.0597553
0.533038
-0.273248
-0.25979
-0.428932
0.163151
-0.0439043
0.00587436
-0.47756
0.234719
-0.280762
-0.281439
-0.0139405
-0.100498
0.114439
0.0370566
0.156459
-0.193516
0.216525
-0.0427801
-0.377922
0.167703
-0.0424897
-0.0231204
0.0656102
0.0119645
0.0494899
0.0224353
-0.0556513
-0.11409
0.0886325
0.0254571
-0.503175
0.119311
0.0498327
0.0457831
-0.0956158
0.146975
0.00313319
-0.145876
0.0675031
-0.0438337
0.066269
0.0606872
-0.00217055
-0.0585167
0.632237
-0.521129
-0.111107
-0.0505989
0.0891236
-0.0422954
0.0921281
-0.00113819
-7.42653e-05
0.467049
-0.230461
-0.236587
-0.0384197
0.0452388
-0.00681906
-0.407658
-0.152305
0.000979015
-0.232151
0.409714
-0.177563
0.519905
-0.261293
-0.258612
-0.000110027
-0.00229603
0.00240605
-0.496205
0.259202
0.186507
0.239293
-0.4258
-0.258787
0.0115902
-0.00651589
0.000362243
0.00615364
-0.088089
-0.0260006
0.321266
0.308074
-0.0970221
0.020979
-0.384231
0.143333
0.240898
0.033036
-0.0134707
-0.0195652
-0.312683
0.547019
-0.234336
-0.210622
0.287992
-0.0955039
0.0378943
0.0604686
0.209038
-0.269506
-0.16901
-0.224533
0.393544
-0.0163117
0.114637
-0.0983249
0.000858802
0.338048
-0.140847
0.446025
-0.151702
0.179911
-0.222
0.0632694
0.15873
0.14374
-0.416422
0.184798
0.00224301
-0.390472
0.124469
-0.0880893
-0.207962
-0.208569
-0.0486033
0.141632
-0.194934
0.437525
-0.297167
-0.112069
-0.0130412
0.125111
-0.00355328
0.034897
0.167979
0.107073
-0.275051
0.0283801
0.0328527
0.0561522
0.273105
-0.0315523
-0.138204
0.169756
-0.492113
0.260594
-0.344249
0.18771
-0.154411
0.175991
-0.0215803
0.0469112
-0.0032772
0.0200271
0.11401
-0.134037
0.596993
0.30828
-0.303982
-0.0884151
-0.0109596
-0.00676314
0.0487549
-0.0419918
-0.129064
-0.212756
0.341821
0.0105344
0.0941882
-0.104723
0.220977
0.0298008
0.189933
-0.0229273
-0.040421
0.0114799
-0.0736866
-0.0916092
-0.00925138
0.0516739
-0.0424226
-0.166681
0.369932
-0.203251
0.462593
0.171066
-0.300131
0.283575
-0.54418
0.260605
-0.0326647
0.123877
0.127198
0.206132
-0.497488
0.291356
-0.310522
-0.236951
0.547473
0.530026
-0.289077
-0.240949
-0.223454
-0.207069
-0.0276905
-0.00328883
-0.367471
-0.262635
-0.00559897
0.00378599
0.00181298
0.286121
-0.155766
-0.130355
0.00156284
0.0661826
-0.00257815
-0.0636045
-0.336078
-0.23754
0.573619
-0.299686
-0.137027
0.0942301
-0.0690498
0.0776422
-0.0406075
-0.0370347
0.0607723
0.0100834
-0.0708557
-0.266631
-0.0315315
-0.0339846
0.0164182
-0.0972199
0.0642414
0.0701242
-0.0892896
0.296193
0.300822
-0.261328
0.111692
0.143589
-0.24449
0.017553
-0.0795265
0.0619735
0.0335137
0.181669
0.234783
-0.11818
0.0300909
-0.0214307
0.0250631
-0.00363238
0.301119
0.00872957
0.0229511
0.0508508
0.205381
-0.214717
0.00933629
0.160112
0.0702976
0.00760132
0.00878551
0.128293
0.268615
0.198434
0.0121541
-0.0627545
0.280093
0.143558
0.142563
0.167821
-0.16788
5.92083e-05
-0.191836
-0.0301639
0.166978
-0.336269
-0.610495
0.461897
-0.162358
-0.229318
-0.0561327
0.0736857
-0.12217