/*--------------------------------*- C++ -*----------------------------------*\
| =========                 |                                                 |
| \\      /  F ield         | OpenFOAM: The Open Source CFD Toolbox           |
|  \\    /   O peration     | Version:  v2012                                 |
|   \\  /    A nd           | Website:  www.openfoam.com                      |
|    \\/     M anipulation  |                                                 |
\*---------------------------------------------------------------------------*/
FoamFile
{
    version     2.0;
    format      ascii;
    class       volVectorField;
    location    "50";
    object      U_0;
}
// * * * * * * * * * * * * * * * * * * * * * * * * * * * * * * * * * * * * * //

dimensions      [0 1 -1 0 0 0 0];


internalField   nonuniform List<vector> 
14479
(
(1.17118 -0.184047 0)
(1.03906 -0.232701 -1.09492e-20)
(1.08012 -0.137788 -2.14634e-20)
(-0.173384 -0.0320771 6.6374e-21)
(0.941135 -0.476873 0)
(-0.202125 -0.0367615 9.19797e-21)
(0.99997 -0.00399816 -3.52524e-21)
(1.03444 -0.00623225 -1.88678e-20)
(1.02678 -0.0635261 0)
(-0.135973 -0.0314302 0)
(0.943876 -0.421032 2.09897e-22)
(-0.176818 -0.0326522 3.12364e-20)
(-0.198543 -0.0350928 -1.23644e-19)
(-0.201242 -0.0347708 1.30878e-19)
(-0.159426 -0.031975 0)
(-0.0549261 -0.0347577 -6.02224e-20)
(1.28801 -0.213394 6.52885e-20)
(0.441278 0.0809283 1.7431e-21)
(0.184315 -0.0150503 -1.80189e-19)
(1.27737 -0.0743696 8.28511e-20)
(1.01209 -0.0215429 0)
(1.02771 -0.105726 2.63475e-21)
(-0.0767293 -0.0297545 3.51462e-20)
(1.2611 -0.240955 8.91652e-20)
(1.02607 -0.0649319 3.2986e-21)
(0.739134 0.0979466 5.03981e-20)
(0.917115 -0.303604 -3.54621e-20)
(-0.135352 -0.0318827 2.96229e-20)
(1.26515 -0.339601 2.10559e-20)
(-0.154471 -0.0313203 1.34356e-20)
(0.543117 0.0707226 3.88653e-21)
(-0.192054 -0.0348433 0)
(0.160172 -0.0125904 2.13621e-19)
(1.03678 -0.0136493 2.52773e-20)
(1.09015 -0.0583246 0)
(1.06342 -0.00167752 5.44168e-21)
(0.993116 -0.017045 5.27303e-21)
(-0.0927504 -0.02751 1.05752e-21)
(1.06558 -0.141474 5.99037e-22)
(0.86539 0.27658 0)
(-0.152522 -0.0318677 1.14744e-19)
(1.06341 -0.138336 0)
(0.865708 -0.0824253 3.00979e-20)
(1.11143 -0.098692 0)
(-0.00773207 -0.0484617 3.83001e-20)
(1.23996 -0.149036 0)
(-0.136226 -0.0255278 0)
(-0.234195 -0.0430182 -7.9324e-20)
(1.08041 -0.0761743 1.99181e-20)
(0.723381 0.141518 -1.1253e-19)
(1.0143 -0.035016 0)
(0.410945 -0.0229254 -7.58782e-20)
(1.11332 -0.449477 0)
(1.24486 -0.207913 -6.41364e-20)
(1.08056 -0.0740718 -2.22386e-20)
(0.981292 -0.0439061 2.66097e-22)
(1.13975 -0.295645 -7.24037e-20)
(-0.138005 -0.0294163 0)
(1.0634 -0.0013277 0)
(1.25681 -0.175021 0)
(1.07303 -0.141968 -3.88918e-21)
(1.06502 -0.0417965 0)
(0.386822 -0.151678 1.08684e-19)
(1.21467 -0.272042 3.45878e-20)
(1.0194 -0.0420777 -1.13872e-19)
(-0.195994 -0.0361072 0)
(1.15829 -0.122866 0)
(0.882901 -0.0854108 -3.83405e-20)
(0.380635 -0.0663022 6.06827e-20)
(0.564171 -0.0494181 0)
(-0.205439 -0.0398158 -1.26419e-19)
(1.28461 -0.0825035 0)
(-0.0505318 -0.0197208 1.61419e-19)
(0.236718 -0.080427 -7.13142e-20)
(1.0111 -0.0210042 0)
(1.02433 -0.0645663 -4.05058e-21)
(-0.204554 -0.0396043 8.42659e-20)
(-0.174691 -0.0324583 -3.36014e-20)
(0.100974 -0.0122397 1.37115e-19)
(-0.207538 -0.0400312 9.73526e-20)
(0.474374 -0.145229 0)
(1.00197 -0.00259897 1.45892e-21)
(1.17484 -0.080558 -2.47923e-20)
(1.28369 -0.079193 0)
(1.11112 -0.024 3.07817e-20)
(1.23574 -0.146085 0)
(1.30545 -0.0669835 -8.77057e-20)
(1.00651 -0.0317159 -2.52052e-21)
(-0.207288 -0.0397472 -9.5363e-20)
(1.01373 -0.0489615 5.9457e-22)
(-0.165351 -0.0337125 3.24066e-20)
(-0.193079 -0.0357392 2.15318e-20)
(-0.210363 -0.0382835 0)
(-0.105761 -0.0254352 4.98849e-20)
(1.18481 -0.0611095 4.87191e-20)
(0.162422 -0.0151005 5.79247e-20)
(1.10174 -0.0393327 1.3894e-20)
(-0.171241 -0.0343953 -5.25604e-20)
(1.1594 -0.078316 0)
(-0.0814786 -0.0238224 -2.58286e-20)
(0.600667 0.0777559 0)
(-0.129855 -0.0284913 0)
(1.25751 -0.179353 0)
(1.02088 -0.00433446 0)
(1.16216 -0.0807142 4.95383e-20)
(1.06003 -0.00177983 1.70301e-20)
(0.967428 -0.0353696 9.01505e-20)
(-0.0395028 -0.0197705 -1.33543e-19)
(1.1423 -0.303431 -2.71755e-21)
(-0.157517 -0.0321022 -1.84352e-19)
(1.14885 -0.0922442 1.6542e-20)
(1.08926 -0.0796173 0)
(0.803084 0.11481 7.7276e-21)
(1.24927 -0.206931 8.14543e-20)
(0.924046 -0.298205 0)
(0.943506 -0.108362 -5.39807e-20)
(1.02289 -0.0631599 0)
(0.412324 -0.1343 1.4848e-19)
(0.934728 -0.0536109 1.04365e-21)
(1.29636 -0.0675107 -8.33231e-20)
(1.0886 -0.0560353 1.21239e-20)
(1.0042 -0.0175516 0)
(-0.188463 -0.0345415 0)
(1.10317 -0.151054 -1.6885e-20)
(-0.135286 -0.0279621 4.08988e-20)
(1.07255 -0.0185023 2.37162e-20)
(1.14007 -0.0627506 2.91137e-20)
(0.974668 -0.0313221 2.87635e-20)
(1.07105 -0.0145678 0)
(-0.141252 -0.0298778 0)
(1.08073 -0.024099 1.7763e-20)
(1.14908 -0.148271 -1.20274e-19)
(0.287897 -0.0943763 0)
(1.07261 -0.0209332 -2.97997e-20)
(1.2523 -0.129852 -7.44779e-20)
(1.10573 -0.34465 -3.29407e-21)
(0.678714 -0.560845 1.78938e-20)
(0.963478 -0.0451745 4.94747e-21)
(0.422166 -0.0250739 -2.23231e-22)
(-0.1726 -0.0319104 -1.12803e-19)
(1.07647 -0.0488811 3.07078e-20)
(-0.202282 -0.0361332 -8.27476e-20)
(1.11485 -0.100499 0)
(0.657593 0.350191 2.83572e-20)
(1.20914 -0.268204 6.15772e-20)
(1.10898 -0.0224318 -5.04896e-20)
(-0.0324607 -0.0198041 0)
(1.05248 -0.0592798 1.54454e-20)
(1.15743 -0.179061 0)
(1.04137 -0.105661 -1.53048e-21)
(0.147428 -0.0147303 -1.09777e-19)
(1.08296 -0.136091 2.36862e-20)
(1.01264 -0.0228851 8.36552e-22)
(1.27602 -0.224832 -4.63789e-20)
(1.29696 -0.214241 0)
(1.20575 -0.0377503 1.31748e-20)
(-0.146496 -0.0333105 3.38287e-20)
(0.999924 -0.00249575 -2.19452e-20)
(0.304586 -0.00329575 -5.335e-20)
(0.119379 -0.0128031 -8.31445e-20)
(-0.143132 -0.0327911 -1.07796e-19)
(0.306499 -0.0335497 -9.72585e-20)
(0.126848 -0.0128029 -6.44563e-20)
(1.30189 -0.0689533 1.08109e-19)
(-0.063968 -0.0213465 6.61612e-20)
(-0.23105 -0.0426804 6.73566e-20)
(1.07821 -0.0110365 1.53613e-20)
(0.742716 0.101751 0)
(1.01353 -0.0351701 0)
(1.10303 -0.0410313 1.29951e-20)
(1.08702 -0.0262993 -4.11099e-20)
(1.23591 -0.14219 0)
(0.981939 -0.0417073 1.81449e-20)
(1.2932 -0.0704883 1.08811e-19)
(0.994031 -0.045203 1.18408e-20)
(1.06026 -0.469835 -2.31454e-20)
(1.00457 -0.0291001 6.40004e-22)
(1.11296 -0.0426475 -1.12394e-20)
(0.892621 -0.40495 0)
(0.98473 -0.0932127 1.43517e-20)
(0.668921 -0.600821 9.2932e-21)
(1.01052 -0.019757 0)
(0.93814 -0.0542668 0)
(-0.208555 -0.0378567 -3.75787e-20)
(1.00598 -0.0218333 0)
(1.04016 -0.33338 -1.84445e-20)
(0.871101 -0.0813797 -2.62388e-20)
(0.893634 -0.0541693 2.48482e-20)
(0.74662 -0.548907 4.29527e-20)
(0.701886 0.370433 -4.96795e-20)
(1.0043 -0.0200053 -1.54379e-21)
(-0.0283664 -0.0184793 2.11612e-20)
(1.15857 -0.0911655 0)
(0.99997 -0.00292373 7.19301e-21)
(-0.202634 -0.0357354 -2.09315e-19)
(0.108531 -0.0128785 9.2157e-20)
(0.720984 -0.539057 -4.63235e-20)
(0.0835384 -0.00801727 7.32917e-20)
(1.12434 -0.146891 -5.42134e-21)
(0.994488 -0.04376 -1.09374e-20)
(0.94238 -0.103441 4.26005e-20)
(1.22905 -0.163522 -1.01044e-19)
(0.694885 -0.0583658 -4.45445e-20)
(1.20655 -0.364495 3.13131e-20)
(-0.201338 -0.036137 1.60223e-19)
(0.942669 -0.0919602 1.57691e-20)
(0.965854 -0.0447934 0)
(1.2894 -0.0872228 -1.02535e-19)
(1.11359 -0.0407479 0)
(1.04569 -0.342424 2.04945e-20)
(-0.0850731 -0.0229841 6.06079e-20)
(-0.0489641 -0.0206173 0)
(0.967043 -0.0903547 0)
(0.884451 -0.0797992 5.2691e-20)
(1.01706 -0.0354361 -3.73943e-21)
(1.26783 -0.173778 7.10855e-20)
(-0.0800934 -0.0244898 -1.14765e-20)
(-0.184706 -0.0349816 0)
(0.993296 -0.0158742 0)
(1.15061 -0.183248 5.32254e-20)
(0.824952 -0.558393 0)
(-0.156078 -0.0316815 -9.11714e-21)
(0.00781347 -0.0154218 0)
(1.18567 -0.0835916 -5.94654e-20)
(0.260369 -0.462843 7.24833e-20)
(-0.175152 -0.0328008 0)
(1.03459 -0.111534 -9.53101e-22)
(1.08646 -0.0777936 0)
(0.784394 0.161566 0)
(1.00596 -0.0304403 2.34377e-21)
(0.956361 -0.0678158 -2.29718e-20)
(1.00042 -0.00469666 -9.21081e-22)
(1.03286 -0.20491 0)
(-0.19857 -0.0359851 -2.3886e-20)
(0.898221 -0.0439418 -4.61442e-20)
(0.941353 -0.0950463 2.18436e-20)
(1.14559 -0.290213 -1.8783e-21)
(0.212586 -0.413005 -1.0234e-21)
(0.993001 -0.0141805 -1.12499e-20)
(1.02763 -0.0836904 -3.23329e-21)
(-0.171796 -0.0320929 -5.06309e-20)
(1.26523 -0.163988 3.58534e-20)
(1.1548 -0.0905967 -2.24647e-20)
(0.739183 0.116379 -1.11498e-19)
(-0.056511 -0.0216659 2.01117e-20)
(-0.0736485 -0.0219376 -5.5916e-20)
(1.07042 -0.044229 0)
(1.0141 -0.0511405 0)
(0.408103 0.0517345 7.00844e-21)
(-0.200571 -0.0375158 -1.10491e-19)
(1.03328 -0.00529235 1.88743e-20)
(1.26657 -0.14562 2.72413e-20)
(1.01293 -0.00187265 -3.01457e-22)
(1.07127 -0.017026 -1.30951e-20)
(-0.20324 -0.0376636 9.312e-20)
(1.28265 -0.218456 -2.33924e-20)
(0.993866 -0.0217359 1.05236e-20)
(1.27268 -0.3469 7.66814e-20)
(0.724758 0.0896413 0)
(1.26578 -0.238747 -1.00851e-19)
(0.5517 -0.158178 -3.72243e-20)
(0.414286 -0.0524941 2.34271e-20)
(-0.200968 -0.0354451 2.06631e-19)
(1.25312 -0.13369 9.21248e-20)
(1.00134 -0.0256889 0)
(1.04832 -0.214967 1.71382e-20)
(1.00084 -0.0250806 0)
(-0.00104687 -0.0162039 3.95399e-20)
(-0.12997 -0.026685 -1.31333e-19)
(0.336745 -0.0606494 6.15621e-20)
(-0.0178095 -0.0184752 0)
(0.97302 -0.0315025 -3.7179e-20)
(-0.212383 -0.0380741 0)
(0.952677 -0.0246949 0)
(0.987752 -0.0948293 5.22729e-21)
(-0.216925 -0.0374668 2.40263e-20)
(-0.0346643 -0.0200923 1.87409e-20)
(1.08893 -0.0523628 -1.38786e-20)
(-0.190994 -0.0349772 1.07384e-19)
(-0.115051 -0.0270686 -7.84911e-24)
(-0.214781 -0.0382982 -2.09667e-20)
(-0.191249 -0.03532 0)
(-0.134625 -0.0316092 0)
(0.52553 -0.160311 0)
(1.00146 -0.00892084 -3.50154e-22)
(0.993805 -0.0134635 -1.0972e-20)
(0.0919821 -0.0166075 -1.09976e-19)
(0.953059 -0.0263322 2.56704e-20)
(-0.0634773 -0.0236355 -6.78624e-20)
(-0.201201 -0.0356265 -1.50533e-19)
(0.89187 0.131804 -1.3664e-20)
(0.697763 0.116462 9.61082e-21)
(1.09858 -0.340138 -4.3436e-23)
(-0.204228 -0.0364451 -4.01144e-20)
(0.983717 -0.0411113 0)
(1.15583 -0.183662 2.3497e-20)
(0.999568 -0.0628846 0)
(0.710481 -0.0258181 -2.71366e-20)
(1.07969 -0.0121121 5.01891e-23)
(0.979915 -0.195277 1.10145e-20)
(1.01595 -0.0347791 3.21124e-21)
(-0.180488 -0.0343092 -1.46067e-19)
(1.07087 -0.0409222 5.7664e-23)
(1.22011 -0.0811379 -9.46319e-20)
(1.14867 -0.187127 -7.61193e-20)
(-0.195445 -0.0353054 -4.83256e-20)
(0.287511 -0.00621982 -5.80196e-20)
(1.20596 -0.358416 0)
(1.12144 -0.0619727 -2.18342e-20)
(1.13896 -0.0578381 1.46863e-20)
(-0.152415 -0.0309224 0)
(0.925323 -0.41795 0)
(1.08609 -0.407282 2.96986e-21)
(1.05381 -0.0637372 -1.44699e-20)
(1.02982 -0.085333 5.04869e-22)
(0.999783 -0.00336656 6.133e-21)
(-0.176096 -0.0323786 6.7096e-20)
(1.02017 -0.286976 0)
(1.00461 -0.0279008 1.19799e-21)
(1.01912 -0.00283702 -1.2759e-20)
(0.966399 -0.0934311 0)
(0.992756 -0.0111978 1.44327e-20)
(0.957952 -0.0705794 2.61966e-20)
(-0.221018 -0.0388727 0)
(1.30186 -0.199476 0)
(0.655792 0.109062 5.85095e-22)
(0.198704 -0.0159948 0)
(0.934562 -0.457078 0)
(-0.188876 -0.0351489 0)
(1.03762 -0.0492457 3.88205e-21)
(1.20877 -0.0395216 0)
(1.22877 -0.0703724 0)
(0.0976656 -0.00762199 -3.40192e-20)
(-0.196972 -0.0356423 8.22294e-20)
(1.2986 -0.196865 2.67557e-20)
(1.02366 -0.00254291 0)
(0.988227 -0.174222 0)
(1.25409 -0.200798 4.82128e-21)
(0.874254 0.267689 2.99832e-20)
(1.17794 -0.208914 -1.56306e-20)
(0.19608 -0.017638 0)
(1.15473 -0.123164 0)
(-0.20153 -0.0357073 1.0378e-19)
(1.03541 -0.0137866 0)
(-0.125036 -0.0261022 8.11759e-20)
(1.08113 -0.0141161 -9.68142e-21)
(-0.192325 -0.0355035 0)
(-0.0202446 -0.0178015 7.7496e-20)
(1.08139 -0.0152779 2.11621e-20)
(1.18366 -0.207876 -3.31466e-20)
(-0.112362 -0.025971 -5.47844e-20)
(-0.193679 -0.0357356 0)
(1.0725 -0.138468 -5.24405e-21)
(1.01343 -0.037819 0)
(-0.215802 -0.0377613 0)
(1.00719 -0.0170866 -1.28651e-21)
(1.0543 -0.0414047 1.40156e-20)
(-0.156718 -0.031103 -7.2337e-20)
(1.13913 -0.0649439 0)
(1.01678 -0.0616491 3.36642e-22)
(1.01981 -0.0623809 -9.58862e-25)
(-0.0957571 -0.0235597 0)
(-0.190277 -0.0350744 -1.05238e-19)
(1.02131 -0.0639898 0)
(-0.193632 -0.0351882 -7.05067e-20)
(1.175 -0.0898202 0)
(0.692815 -0.067447 -3.5348e-20)
(-0.19692 -0.0352057 4.7598e-20)
(-0.191864 -0.0353257 -2.4379e-20)
(0.180036 -0.0343171 1.05589e-19)
(1.28722 -0.137561 0)
(0.0703249 -0.0165169 7.81949e-21)
(1.24777 -0.124829 8.11851e-20)
(0.737353 -0.8834 0)
(0.0599196 -0.0493172 1.82515e-19)
(0.510102 -0.067224 2.25115e-20)
(1.2788 -0.0779566 -8.39051e-20)
(0.823008 -0.239388 -2.8313e-20)
(1.19743 -0.304798 4.11312e-20)
(0.998002 -0.0631562 1.02823e-20)
(1.05294 -0.0577451 0)
(1.18708 -0.0630934 -1.89223e-20)
(0.948965 -0.441275 -2.08521e-22)
(0.696572 -0.017664 0)
(0.0542402 -0.0170873 0)
(1.20604 -0.256235 -4.3587e-20)
(1.00658 -0.014476 3.88992e-22)
(1.25656 -0.26783 -6.59737e-20)
(0.98997 -0.0132812 -1.37586e-20)
(1.27341 -0.163562 8.48738e-21)
(1.19039 -0.201681 1.0522e-20)
(1.19057 -0.0933365 3.20709e-20)
(0.968017 0.171139 -4.91294e-21)
(-0.193797 -0.0351624 -7.57643e-20)
(0.596414 -0.0461802 -1.43768e-19)
(-0.0349629 -0.0188565 7.80825e-20)
(0.697574 -0.679576 -1.00012e-20)
(0.45064 -1.12586 0)
(1.03611 -0.0491014 -3.50941e-21)
(1.00181 -0.00616188 6.60105e-22)
(0.366059 -0.0434466 9.37678e-20)
(-0.214367 -0.0382918 -1.08278e-20)
(-0.130753 -0.0268888 7.66611e-20)
(1.14965 -0.143117 2.36318e-20)
(-0.073835 -0.0305534 -2.08791e-19)
(1.13659 -0.0556155 -2.70203e-20)
(-0.183691 -0.0345468 -1.04022e-19)
(-0.183544 -0.0347923 1.13218e-19)
(0.737986 0.148648 0)
(1.05337 -0.0403221 0)
(-0.135897 -0.030737 0)
(-0.205584 -0.0399571 4.68596e-20)
(1.00613 -0.0231042 4.4768e-22)
(1.00213 -0.00690556 -4.63298e-22)
(0.0766859 0.262673 1.46565e-19)
(1.03132 -0.0116342 -1.06034e-20)
(0.99317 0.184135 1.02833e-20)
(1.10603 -0.460037 0)
(1.00163 -0.00257798 -1.44621e-21)
(1.07736 -0.191724 4.03258e-21)
(1.09848 -0.143568 -2.70663e-20)
(1.03245 -0.234431 1.15167e-20)
(0.600691 -0.0281847 7.06821e-20)
(1.27672 -0.13963 -6.15575e-20)
(0.169079 -0.0144195 0)
(1.02878 -0.21983 2.92367e-21)
(-0.15267 -0.031018 6.81417e-20)
(1.01114 -0.0256563 4.90851e-22)
(0.992096 -0.170702 -7.82099e-21)
(1.00589 0.293182 1.27195e-21)
(0.57193 -0.222232 0)
(1.21066 -0.261506 -8.10076e-20)
(-0.181848 -0.0298401 6.19296e-21)
(1.07747 -0.095516 3.04454e-20)
(1.03483 -0.21852 -1.84461e-21)
(-0.0405948 -0.0186816 0)
(1.21861 -0.0784969 1.06798e-19)
(-0.0377483 -0.0167324 0)
(0.651557 0.106846 -6.67206e-22)
(1.2635 -0.259714 -9.20032e-20)
(-0.212902 -0.0381936 -4.57847e-20)
(-0.130662 -0.0303158 0)
(-0.191983 -0.0339984 0)
(1.01146 -0.0249262 -4.43552e-22)
(1.25031 -0.201229 0)
(1.1264 -0.144069 0)
(0.758263 0.134058 -4.0773e-20)
(-0.125197 -0.0259883 -6.66694e-20)
(1.14719 -0.0889865 -2.1853e-20)
(1.08802 -0.11476 -1.18389e-20)
(0.994494 -0.00913221 0)
(0.658398 -0.696928 9.89371e-21)
(1.26881 -0.157532 7.82373e-20)
(1.26331 -0.16166 -1.58496e-20)
(1 -0.00115286 -4.25496e-21)
(1.27016 -0.225846 2.68814e-20)
(1.06542 -0.0435406 0)
(1.26766 -0.149181 0)
(0.128334 -0.0358613 1.42462e-19)
(-0.140007 -0.0287037 0)
(1.16912 -0.0454657 -2.03548e-20)
(0.976073 -0.0372881 6.79864e-21)
(0.359891 -0.00786453 -5.87106e-20)
(1.09649 -0.413636 -1.66429e-20)
(0.559996 -0.0277507 -2.60679e-20)
(-0.192505 -0.0353024 8.19953e-20)
(1.09439 -0.141536 0)
(-0.0477743 -0.0201716 0)
(-0.19749 -0.035776 -2.27004e-20)
(1.07215 -0.0158673 -2.04523e-22)
(1.05995 -0.00239308 -2.76436e-20)
(1.01211 -0.0022991 -2.46421e-21)
(-0.192836 -0.034787 0)
(0.0215207 -0.0162179 7.39455e-20)
(-0.202536 -0.0362794 1.27034e-19)
(0.286939 -0.454978 -1.81654e-19)
(-0.152521 -0.0302478 2.2173e-20)
(-0.192823 -0.0346321 0)
(0.833773 -0.238607 2.82933e-20)
(1.27024 -0.258718 1.05912e-19)
(1.03861 -0.105552 0)
(-0.0537881 -0.0230191 8.0631e-20)
(1.24787 -0.0609676 3.45805e-20)
(0.609144 -0.38284 -1.42544e-19)
(1.12764 -0.0716345 -3.98336e-20)
(0.750467 0.143118 0)
(1.04979 -0.0413964 5.0995e-21)
(0.322013 -0.0553442 -6.51949e-20)
(0.75769 0.436322 2.34746e-20)
(-0.0494734 -0.0208733 0)
(0.098559 -0.0394433 8.56038e-20)
(1.00175 -0.0128715 -4.30648e-21)
(1.03018 -0.0119928 0)
(-0.0873665 -0.0246712 -2.70809e-20)
(-0.191298 -0.0345387 -4.85957e-20)
(1.07734 -0.0455984 1.04774e-20)
(1.1729 -0.180635 -1.55068e-20)
(-0.172144 -0.0318403 5.67939e-20)
(1.30019 -0.137461 4.4565e-20)
(1.13364 -0.109173 -4.48017e-20)
(0.897697 -0.0548794 1.49737e-21)
(1.30245 -0.140481 -2.99968e-21)
(1.1164 -0.139665 -1.78557e-20)
(0.984168 -0.0388804 -1.70842e-20)
(-0.185002 -0.0333265 -6.05132e-20)
(-0.218533 -0.0387683 0)
(0.153555 -0.0142525 -1.08051e-19)
(1.18881 -0.0961033 0)
(1.09027 -0.0545127 2.88385e-20)
(-0.177906 -0.0327735 5.25968e-20)
(1.03705 -0.210611 -6.88498e-21)
(1.24375 -0.122743 0)
(1.18605 -0.058096 0)
(-0.210235 -0.0374044 9.28481e-20)
(1.057 -0.0327582 9.52505e-21)
(1.00441 -0.0187084 -5.23086e-22)
(1.00159 -0.00985103 -6.34898e-23)
(1.00095 -0.0311873 -1.3983e-21)
(-0.235838 -0.0423233 -2.39567e-20)
(1.20531 -0.295656 0)
(0.252988 -0.00570124 -7.64671e-20)
(-0.15188 -0.0299488 0)
(0.312796 -0.0067727 1.26636e-19)
(-0.0619584 -0.0297511 2.15448e-19)
(-0.0560114 -0.0216004 0)
(-0.0431586 -0.0195607 0)
(1.08064 -0.0283614 8.83145e-21)
(1.16901 -0.0428982 0)
(0.604322 -0.0540952 4.05946e-20)
(-0.165201 -0.0310646 -1.13065e-19)
(0.994997 -0.0128523 0)
(1.2118 -0.294306 0)
(0.636509 -0.0359411 4.17943e-20)
(0.101306 -0.0346106 -1.58457e-19)
(1.21886 -0.0832544 -4.18438e-20)
(1.28052 -0.0715188 0)
(1.07923 -0.449312 -3.11232e-20)
(-0.212478 -0.0373921 2.14058e-19)
(1.00031 0.282763 0)
(0.09645 -0.0219378 1.25698e-19)
(-0.203561 -0.0356006 -9.75629e-20)
(0.0192634 -0.0222984 -1.54835e-19)
(1.20891 -0.0537869 -2.09354e-20)
(-0.230555 -0.0425413 -1.94395e-20)
(1.05451 -0.0620552 7.20018e-23)
(0.989426 -0.0127482 -1.58449e-20)
(0.213211 -0.0180812 0)
(0.993821 -0.00957737 -2.64906e-20)
(1.08016 -0.0958712 0)
(1.21086 -0.0521818 4.15269e-20)
(1.18581 -0.105661 -7.42474e-20)
(1.07322 -0.480387 2.00073e-20)
(1.04674 -0.0234493 1.59082e-20)
(0.989525 -0.0144094 3.04191e-20)
(1.26497 -0.335292 -2.29009e-20)
(1.00043 -0.060216 8.48709e-21)
(-0.224789 -0.0412956 -4.37311e-20)
(-0.194485 -0.0352276 1.16738e-19)
(-0.172852 -0.0320854 1.29372e-19)
(-0.19308 -0.034888 -8.07727e-20)
(1.04605 -0.22153 -1.61824e-20)
(-0.142949 -0.0297118 8.68098e-20)
(0.857018 -0.0142002 2.06583e-20)
(-0.0502564 -0.0184382 0)
(1.06939 -0.0420813 2.19314e-20)
(1.2752 -0.218867 4.42989e-20)
(0.847737 -0.255848 -1.1829e-20)
(1.05519 -0.0317769 -1.41468e-20)
(1.07809 -0.0482269 -1.21793e-20)
(1.15263 -0.0931854 -2.39152e-20)
(0.855862 -0.0204461 0)
(1.04823 -0.0243326 -2.67977e-20)
(-0.0830262 -0.0228993 -3.98213e-20)
(0.102924 0.216297 3.35897e-21)
(1.11221 -0.137113 5.82567e-20)
(-0.183552 -0.0333982 6.15054e-20)
(1.12142 -0.0439767 3.86621e-20)
(1.08541 -0.0204184 0)
(0.924261 -0.150272 7.02233e-20)
(1.25176 -0.229918 5.43236e-22)
(-0.190801 -0.0341708 0)
(1.08607 -0.0232901 -3.90971e-20)
(1.10968 -0.249419 0)
(1.15917 -0.0507667 -1.72175e-20)
(0.0210944 -0.0224119 -8.23045e-20)
(1.0668 -0.0409703 -1.34817e-20)
(1.05015 -0.0223869 -1.7504e-20)
(-0.0194115 -0.017817 0)
(-0.192057 -0.0355029 0)
(-0.228628 -0.0423809 -2.031e-20)
(0.72524 0.0732596 -1.67742e-20)
(1.00165 -0.00650921 0)
(0.997899 -0.0374838 0)
(0.522981 -0.0968533 -5.63016e-20)
(-0.202934 -0.0342656 0)
(0.718191 -0.0564833 0)
(1.02274 -0.0107791 -4.08692e-21)
(0.994339 -0.0137048 0)
(0.967281 -0.117188 2.75195e-20)
(0.977192 -0.0351589 -1.93706e-20)
(0.072355 -0.0133903 0)
(1.00196 -0.0260239 -7.33446e-21)
(0.500735 -0.920786 -4.99326e-21)
(0.204505 -0.00628262 3.25829e-20)
(0.370868 -0.153981 -5.07009e-20)
(1.07153 -0.0196249 1.36294e-20)
(-0.199969 -0.0345933 4.75427e-20)
(-0.139062 -0.0292598 -6.70574e-20)
(0.953093 -0.062323 2.75851e-20)
(1.10058 -0.299567 8.26075e-21)
(0.979158 -0.0661371 0)
(-0.171119 -0.0321564 1.01945e-19)
(1.07032 -0.251689 0)
(1.01139 -0.0351321 -8.18703e-22)
(1.00395 -0.0264467 -5.47154e-21)
(0.99817 -0.0357732 -4.12484e-21)
(-0.189599 -0.0350646 0)
(0.52698 -0.38485 -8.47487e-20)
(0.132961 -0.0127361 8.05533e-20)
(0.985765 -0.0382392 -3.58583e-21)
(1.05089 -0.0239927 1.04141e-20)
(1.22864 -0.0734579 2.76086e-20)
(1.21184 -0.0390236 -5.11362e-20)
(1.13033 -0.108166 4.57631e-20)
(0.0611131 -0.0135697 -4.49846e-20)
(-0.235219 -0.042075 1.90906e-20)
(1.05164 -0.0429317 0)
(1.00854 -0.0242657 1.60467e-22)
(1.18257 -0.0557162 7.45921e-20)
(-0.0279197 -0.018598 -7.41509e-20)
(1.21466 -0.146255 7.22585e-20)
(1.17886 -0.0805115 0)
(1.00158 -0.00665145 3.68673e-22)
(1.26609 -0.334376 5.60757e-20)
(1.05869 -0.247419 -7.97369e-22)
(1.00806 -0.0246429 2.2683e-22)
(1.05151 -0.0139744 0)
(1.07346 -0.042818 -6.61484e-20)
(1.01145 -0.335973 -3.75739e-21)
(0.993839 -0.0207031 6.65851e-21)
(0.670081 -0.214865 0)
(1.28302 -0.228979 0)
(1.00731 -0.023717 -9.38411e-22)
(0.567514 -0.0513212 0)
(-0.211963 -0.0373607 -1.87465e-19)
(1.08631 -0.0196212 1.14129e-20)
(0.977258 -0.126148 -9.81085e-21)
(1.00395 -0.0756566 0)
(1.1845 -0.0773689 2.84674e-20)
(0.00516546 -0.0226764 1.13235e-20)
(0.150378 -0.0422757 1.44993e-19)
(1.30486 -0.0644668 -6.64183e-20)
(1.00921 -0.0250721 -1.51662e-23)
(-0.174361 -0.0325888 -5.6121e-20)
(-0.207968 -0.0401932 5.97187e-20)
(0.4817 -0.135317 6.95543e-20)
(0.0012605 -0.017254 -1.49794e-20)
(1.01634 -0.278747 0)
(0.982313 -0.0193022 1.59077e-20)
(1.13787 -0.0531639 0)
(0.673637 0.113965 -9.26056e-21)
(1.02224 -0.00437819 7.45393e-21)
(1.07896 -0.0452023 1.27325e-20)
(-0.0415976 -0.0194484 2.25844e-20)
(-0.0841441 -0.0243821 -4.6367e-20)
(1.12306 -0.0642736 2.64098e-20)
(1.00207 -0.0759997 0)
(0.655788 -0.539907 -2.89382e-21)
(0.139709 -0.0166528 0)
(1.00914 -0.0178565 1.60965e-21)
(1.02197 -0.00976146 0)
(1.04246 -0.16189 0)
(-0.188667 -0.0347632 8.50321e-20)
(-0.159334 -0.0319178 0)
(0.844781 -0.832446 3.40216e-20)
(0.654925 0.309612 8.61625e-20)
(-0.000821242 -0.0165299 -1.57329e-20)
(0.863182 -0.147083 0)
(-0.21047 -0.0380454 2.1935e-20)
(1.24529 -0.063365 3.587e-20)
(1.03397 -0.0470951 3.58622e-21)
(1.1627 -0.0506647 -5.15486e-21)
(-0.200202 -0.0372642 0)
(1.01125 -0.0342002 3.47624e-22)
(-0.202608 -0.0375443 0)
(1.10623 -0.14883 0)
(-0.106758 -0.0262444 -3.25794e-20)
(-0.22628 -0.0409646 0)
(0.845946 -0.246586 3.43252e-20)
(0.648869 -0.0593471 -7.61275e-20)
(0.981213 -0.0658749 0)
(1.06652 -0.247134 0)
(0.0634598 -0.01248 -3.9952e-20)
(1.10762 -0.0378873 0)
(-0.187925 -0.030179 -6.382e-21)
(0.196169 -0.0245055 0)
(0.0103845 -0.0159921 -1.41486e-20)
(0.167273 -0.0292655 -1.59038e-20)
(1.00163 -0.169558 -2.65882e-21)
(1.25329 -0.326879 6.25051e-20)
(-0.107234 -0.0261169 -3.68053e-20)
(-0.0744182 -0.0217475 -1.43679e-19)
(0.282083 -0.00281924 -3.11057e-20)
(1.03671 -0.0357007 1.46964e-20)
(1.22139 -0.318138 0)
(0.181775 -0.0162702 0)
(1.26365 -0.266822 1.22181e-19)
(0.159104 -0.0169634 1.01946e-19)
(1.13543 -0.0508432 -1.28661e-20)
(0.854525 -0.272328 0)
(1.01295 -0.024959 -2.97201e-21)
(0.907934 -0.0669907 -5.0458e-22)
(-0.206773 -0.0401936 -8.6939e-20)
(-0.201523 -0.0377707 -7.03765e-20)
(-0.20403 -0.0392437 2.18846e-20)
(1.08136 -0.0408268 0)
(0.966887 -0.0474302 -1.64465e-20)
(-0.203553 -0.0379883 1.22316e-19)
(-0.189737 -0.0351036 4.6025e-20)
(1.28406 -0.13955 0)
(0.749426 -0.576394 0)
(-0.202834 -0.0367202 2.768e-20)
(0.966681 -0.114011 -1.24552e-20)
(0.0691721 -0.0134885 0)
(0.80778 -0.085818 1.89851e-20)
(0.937364 -0.0465232 -4.07556e-20)
(0.841273 0.12151 -3.38061e-21)
(-0.128877 -0.0299255 2.84613e-20)
(0.112295 -0.0216118 -3.22913e-22)
(1.02644 -0.0234943 5.87026e-21)
(1.0319 -0.0837349 0)
(-0.110503 -0.0310444 0)
(1.00026 -0.00256844 1.88522e-22)
(1.03366 -0.0340302 -7.72298e-21)
(1.0504 -0.0132633 0)
(1.08298 -0.0243668 -1.88804e-20)
(0.759923 -0.222905 0)
(0.696234 -0.0501586 -9.30524e-20)
(0.973651 -0.127789 -1.11906e-20)
(1.00491 -0.0210375 -1.53812e-21)
(1.01094 -0.0493833 0)
(1.05456 -0.0299735 3.07605e-20)
(0.999987 -0.00218911 -1.41996e-20)
(1.00008 -0.00210646 1.34329e-21)
(0.936645 -0.0446831 -2.57746e-20)
(-0.0654264 -0.0291962 -1.15732e-20)
(1.20784 -0.0953444 1.56864e-21)
(-0.153797 -0.0318541 8.48412e-20)
(-0.148435 -0.0296575 -8.89637e-20)
(-0.175434 -0.0323198 -3.04949e-20)
(1.08172 -0.435838 3.04251e-20)
(1.03581 -0.197995 -1.58458e-21)
(1.01826 -0.0634814 3.52346e-22)
(1.04696 -0.114974 0)
(0.746062 -0.221068 -7.9852e-20)
(-0.208607 -0.0376354 0)
(1.14761 -0.0548656 6.39436e-20)
(-0.188626 -0.0350854 -9.10254e-20)
(0.811947 0.0102782 -6.45982e-20)
(1.16381 -0.0472538 3.90458e-20)
(1.25416 -0.343705 1.53001e-19)
(0.824275 0.0199821 8.69524e-20)
(-0.213138 -0.0376505 -2.1896e-20)
(-0.103434 -0.025767 0)
(1.03136 -0.0445196 0)
(0.284229 -0.0451409 0)
(1.00585 -0.0246382 -2.16189e-21)
(-0.191365 -0.0353633 1.06415e-19)
(-0.206679 -0.0395644 1.23807e-20)
(1.27253 -0.160189 1.65586e-20)
(0.704454 0.151011 1.90685e-19)
(-0.191762 -0.0353273 0)
(-0.195214 -0.0359071 0)
(1.16611 -0.184028 0)
(1.01186 -0.0507427 1.81508e-21)
(-0.216111 -0.0386801 2.36542e-20)
(-0.079521 -0.0277312 2.48152e-20)
(-0.176215 -0.032386 -1.32823e-19)
(0.938736 -0.0580774 -3.52919e-20)
(-0.20191 -0.0380695 -8.87298e-20)
(0.239648 -0.0282366 0)
(0.986186 -0.0362894 1.20329e-20)
(0.43299 0.0905613 0)
(1.23949 -0.097996 2.18335e-20)
(1.02627 -0.0124101 3.03624e-21)
(1.05339 -0.242828 9.83037e-21)
(-0.168221 -0.0316679 3.16343e-20)
(1.30334 -0.132271 4.27452e-21)
(1.07602 -0.135463 -1.10837e-20)
(0.0100927 -0.0166628 2.74007e-20)
(1.00704 -0.0155269 0)
(0.697015 0.0907684 -1.37533e-20)
(-0.21491 -0.0384289 0)
(-0.0885755 -0.0242899 0)
(0.352272 -0.0432865 0)
(0.866633 -0.798586 -4.44257e-20)
(-0.154894 -0.0327791 -3.35227e-20)
(1.29569 -0.222219 -4.79384e-20)
(0.889785 -0.530203 -6.1116e-21)
(1.22684 -0.273291 -4.57668e-20)
(0.137337 -0.0146779 8.20819e-20)
(0.746656 -0.191004 -4.62037e-20)
(1.24342 -0.118779 0)
(1.24959 -0.178902 -2.92389e-20)
(1.06982 -0.0388686 -1.7341e-20)
(-0.15967 -0.0313263 1.86262e-20)
(0.593006 -0.0260631 0)
(1.02717 -0.0121287 -1.8196e-22)
(-0.202792 -0.0371789 0)
(-0.0971117 -0.0316459 0)
(-0.154473 -0.0321342 -3.99888e-20)
(0.149917 -0.0160951 -1.05468e-19)
(1.03386 -0.0851808 0)
(1.0438 -0.209451 7.36485e-21)
(-0.202858 -0.0371834 -2.64963e-20)
(-0.082836 -0.0250193 4.40946e-20)
(0.749375 -0.309645 1.25448e-20)
(-0.192516 -0.0343963 1.19405e-20)
(1.19296 -0.166773 -6.75173e-20)
(0.448152 0.0534586 -9.97552e-21)
(0.910381 -0.0695426 -4.82992e-20)
(-0.202079 -0.0379697 0)
(0.900143 -0.0386038 -7.50393e-20)
(-0.164171 -0.0343863 7.03084e-20)
(0.814582 0.0171553 1.06089e-21)
(-0.221197 -0.038611 -9.32457e-20)
(1.28003 -0.137616 0)
(0.941934 -0.0585187 3.31272e-20)
(1.12243 -0.247863 -3.03856e-21)
(1.033 -0.0459716 -6.38302e-21)
(1.2442 -0.148145 -2.73488e-21)
(0.16911 -0.0211568 0)
(0.381602 -0.230159 -2.29447e-19)
(0.206669 -0.0217646 5.43161e-20)
(-0.139187 -0.0283369 -4.25514e-20)
(1.26493 -0.175441 -3.9763e-20)
(-0.0713594 -0.0280413 -5.60819e-21)
(0.919027 -0.08029 0)
(-0.0516851 -0.0209462 0)
(1.00109 -0.584006 -6.23052e-20)
(-0.222506 -0.0410868 4.197e-20)
(1.09155 -0.0166549 2.29593e-20)
(0.870058 -0.142533 5.9834e-20)
(1.24638 -0.180839 6.01807e-20)
(-0.21509 -0.0374953 0)
(1.04187 -0.10248 1.56349e-21)
(0.203639 -0.0281322 3.06849e-20)
(0.457273 0.109132 0)
(1.02496 -0.0116773 -1.54223e-20)
(1.19437 -0.205328 -5.81405e-20)
(0.721125 -0.0713904 1.38662e-19)
(1.27745 -0.143339 -1.58561e-20)
(0.404877 -0.102562 -5.64113e-20)
(-0.194527 -0.0344833 0)
(-0.169129 -0.0317386 1.38971e-19)
(0.969176 -0.0470338 3.97626e-20)
(-0.0857311 -0.0251734 4.82623e-20)
(1.14339 -0.0881261 -1.96242e-20)
(1.02844 -0.0213927 5.78642e-21)
(1.16882 -0.203113 -2.91959e-20)
(1.08775 -0.0250297 3.37497e-20)
(0.972691 -0.160182 -1.34541e-20)
(1.07375 -0.0986725 1.39876e-20)
(-0.203334 -0.0389114 0)
(1.16194 -0.0839073 -5.86953e-20)
(-0.0647461 -0.0222731 -2.125e-20)
(1.08278 -0.0427973 0)
(1.02417 -0.0110054 9.20734e-21)
(1.03228 -0.0340254 3.71955e-21)
(1.04293 -0.0387166 9.28658e-21)
(-0.182514 -0.0314309 -9.76595e-20)
(-0.159041 -0.0314792 -6.78151e-20)
(0.383552 -0.00781151 1.20351e-19)
(-0.0870798 -0.0250731 4.08137e-20)
(-0.155801 -0.0310895 3.42437e-20)
(0.543136 -0.0462597 -4.27122e-20)
(1.14571 -0.236208 0)
(0.14715 -0.0135497 0)
(0.109508 -0.0346071 -1.75837e-19)
(0.0846697 -0.00838365 -1.56181e-20)
(-0.216917 -0.038654 -4.28987e-20)
(1.26526 -0.341898 -6.71031e-20)
(-0.1559 -0.0310651 0)
(0.902165 -0.205675 -2.65318e-20)
(0.978818 -0.034991 0)
(1.03598 -0.0618173 6.89932e-21)
(1.00942 -0.0489542 0)
(0.906038 -0.392202 0)
(1.26543 -0.10623 -8.60215e-20)
(1.07995 -0.0253451 0)
(1.25027 -0.0439771 0)
(1.18988 -0.168107 7.3799e-22)
(0.763176 -0.301587 0)
(-0.0908392 -0.0229666 4.32712e-21)
(1.08692 -0.02225 0)
(1.00026 -0.00272423 1.88247e-22)
(1.24433 -0.143435 -8.53413e-20)
(-0.228815 -0.0406786 0)
(-0.0895429 -0.0243155 -7.35687e-20)
(1.17329 -0.0835593 -2.68837e-20)
(-0.146708 -0.0320472 0)
(1.01836 -0.00195448 1.3189e-20)
(1.26518 -0.158493 -9.56911e-20)
(1.00073 -0.0731827 0)
(1.04417 -0.11169 0)
(1.00238 -0.0261388 1.92958e-21)
(1.08477 -0.104757 -1.80285e-20)
(1.17035 -0.175379 1.31559e-20)
(0.729783 -0.0617048 1.67443e-21)
(0.0842212 -0.0109109 0)
(-0.190513 -0.0349361 -9.6779e-20)
(0.55799 -0.0240596 -6.21788e-20)
(1.01007 -0.0248285 0)
(0.875533 -0.398724 0)
(-0.137799 -0.0315526 0)
(1.07948 -0.0133655 -8.10388e-21)
(0.995802 -0.0079905 -1.10917e-20)
(0.655586 -0.185106 0)
(0.0694853 -0.0156362 0)
(-0.212696 -0.038295 -1.48578e-19)
(0.984421 -0.127735 -7.28233e-21)
(0.769484 0.477864 1.58167e-20)
(-0.134143 -0.030558 0)
(1.1584 -0.526017 -1.03009e-20)
(1.02003 -0.00518294 0)
(0.99228 -0.0108911 -2.7199e-23)
(0.0385458 -0.0256045 0)
(1.29045 -0.223762 -2.7059e-20)
(-0.177487 -0.0323191 2.24155e-23)
(0.918226 -0.151825 -4.03554e-20)
(-0.0355593 -0.019392 0)
(1.06871 -0.0367961 4.14293e-20)
(1.24792 -0.142069 1.18878e-19)
(1.06921 -0.0144191 -1.93648e-20)
(1.18338 -0.443302 3.51879e-20)
(-0.106934 -0.02568 5.89895e-20)
(0.600826 -0.0344954 -1.65626e-19)
(0.44524 -0.0280593 4.322e-20)
(-0.0853128 -0.0239952 3.29827e-20)
(0.518925 -0.418147 -1.91233e-22)