/*--------------------------------*- C++ -*----------------------------------*\
| =========                 |                                                 |
| \\      /  F ield         | OpenFOAM: The Open Source CFD Toolbox           |
|  \\    /   O peration     | Version:  v2012                                 |
|   \\  /    A nd           | Website:  www.openfoam.com                      |
|    \\/     M anipulation  |                                                 |
\*---------------------------------------------------------------------------*/
FoamFile
{
    version     2.0;
    format      ascii;
    class       volScalarField;
    location    "200";
    object      ddt0(epsilon);
}
// * * * * * * * * * * * * * * * * * * * * * * * * * * * * * * * * * * * * * //

dimensions      [0 2 -4 0 0 0 0];


internalField   nonuniform List<scalar> 
13308
(
-8.1306e-08
0.00014336
-5.62957e-05
4.53378e-11
-1.04106e-08
2.39201e-10
-5.07911e-08
3.15639e-10
-5.72118e-08
-0.00162807
-0.000882574
-7.6123e-05
9.65408e-11
1.24041e-10
-9.31058e-09
-0.000118442
3.79909e-08
0.000152319
0.000264305
0.0011574
-9.7113e-09
-2.52311e-05
5.31616e-05
-3.03124e-09
-0.000131286
2.43309e-05
-1.64841e-08
-0.000876688
-1.86716e-08
-7.39965e-09
0.00022615
-8.82538e-09
3.48193e-05
-3.5801e-08
-0.000112833
-2.15768e-09
-5.32645e-08
5.92825e-05
2.34843e-09
-9.22797e-05
8.9047e-11
2.09969e-10
0.00205963
-2.11305e-10
2.26411e-09
0.00018546
-5.37865e-09
4.98076e-11
-4.70334e-08
-4.22728e-05
2.89296e-12
-1.77965e-09
-4.77132e-05
-0.00023425
-0.00023277
-7.5271e-05
-2.22724e-10
-2.10613e-09
1.04953e-09
1.17816e-09
-0.000311545
6.84933e-05
-2.02231e-09
1.73467e-10
-1.73567e-10
3.20579e-05
6.53757e-11
0.000458806
1.0358e-10
1.4307e-07
0.000449994
2.15717e-09
1.3821e-07
-7.10752e-09
0.000903875
-2.89345e-10
1.32904e-11
-6.62495e-05
-3.88887e-10
-3.67621e-05
6.97797e-10
3.99844e-11
4.37512e-11
-1.14502e-09
0.00040813
2.15021e-10
-0.000354975
3.12526e-05
5.05351e-05
0.00100441
6.38937e-10
1.06255e-10
-1.81711e-08
-9.36729e-09
7.82032e-11
-3.06398e-10
-2.01333e-10
-3.39107e-05
0.000380779
7.00068e-08
7.80373e-10
3.79787e-12
4.9156e-12
-1.0521e-08
0.000135021
0.000192541
-4.86046e-05
1.34767e-10
7.44341e-06
3.11026e-05
-4.03319e-10
-1.24107e-08
-3.62533e-09
-3.11386e-10
-3.45426e-09
0.000421841
0.000511541
0.00023351
-1.92279e-08
-3.3012e-09
-8.9791e-09
-5.83629e-09
4.28573e-10
3.02324e-07
-1.22538e-05
-1.75119e-07
0.000769196
0.000618
4.33012e-08
-0.000222568
0.000358298
-2.71756e-08
9.92915e-11
-2.44382e-10
-5.2535e-08
1.82317e-08
-8.59764e-11
2.73127e-06
2.15727e-05
-5.08282e-10
-1.41814e-05
-4.5813e-10
-1.29009e-10
-3.08217e-09
4.84525e-10
1.16839e-07
-1.6081e-05
0.000840945
3.83987e-10
-4.43883e-08
-0.000321422
-5.42483e-11
-0.000746617
6.84418e-05
0.000256922
-2.14847e-07
-1.0022e-10
3.59392e-10
1.07838e-10
0.00127971
-0.00142261
-1.85619e-09
-4.05716e-10
7.55815e-05
-2.53948e-06
-8.92019e-08
-3.30705e-05
3.61977e-10
-6.54542e-07
-6.32836e-09
-3.94684e-10
0.000263181
-8.89011e-11
-4.64525e-05
-0.000296681
-2.72657e-05
-2.12336e-05
-4.52689e-05
-2.90549e-08
-6.33767e-11
-2.38179e-05
-1.05593e-05
2.00608e-11
-0.00158917
6.31717e-05
-1.62488e-10
-6.54197e-05
0.000238084
-1.32782e-08
-0.00217219
-8.33135e-05
0.00115622
6.76396e-10
-0.000250085
5.72179e-10
-2.2248e-05
-2.07473e-10
-5.04253e-06
0.000910019
4.27503e-10
-0.000108729
-3.50437e-05
-0.00114213
-4.98605e-08
-0.000216722
-0.00473799
-0.00012858
0.000799348
-0.00564087
-0.000248316
-0.00555624
4.32568e-08
-1.00173e-08
-9.244e-06
8.31562e-05
-1.12904e-09
-5.54048e-11
9.54187e-05
0.00180608
0.000896551
-0.000746888
4.56768e-11
-9.81865e-07
-5.07522e-12
-1.04925e-08
-0.000169553
5.53078e-08
0.000410644
-6.52635e-05
-0.000772174
-9.61692e-05
1.56264e-09
-5.17063e-05
0.000689471
-7.34443e-07
-6.55141e-09
7.10715e-05
3.32613e-05
0.000289321
4.90074e-09
-9.10167e-10
-1.37779e-06
-1.06629e-08
3.64167e-11
-0.000239305
0.000127784
1.22169e-07
0.000120631
-5.46922e-12
6.24425e-05
9.0324e-05
3.5747e-05
-1.95863e-11
6.87864e-05
0.000757194
-2.08633e-09
-0.000654935
4.23346e-11
0.00124317
-7.55238e-05
-9.38066e-09
1.21575e-05
-7.35342e-09
1.69113e-09
-1.0033e-06
-2.39759e-08
-0.000486033
-3.27339e-11
-0.000703906
-0.00010747
1.45941e-07
-1.01037e-08
7.65553e-11
-1.3887e-06
-5.25318e-10
-2.54272e-10
5.45641e-10
-0.000195061
-1.03273e-08
1.29962e-07
-1.4342e-05
-3.06502e-10
2.05547e-05
-1.60618e-09
0.000273872
-0.00217651
1.18166e-09
-7.64368e-08
1.92086e-07
-0.00576135
-1.8361e-08
-1.7642e-11
-0.000431578
-1.92619e-05
2.05732e-10
0.000681679
-4.42428e-05
2.53151e-09
2.08592e-07
-0.000157323
3.2085e-05
1.86731e-08
2.50928e-05
0.00118417
0.00142818
-4.64233e-09
-6.30612e-09
-4.04899e-05
0.000669489
-1.28867e-10
0.000150159
-0.00393511
-1.97e-08
-0.00117049
0.000614772
-0.000271754
1.88714e-10
2.32882e-10
-6.22324e-11
-0.000360214
1.34683e-11
4.13179e-11
-0.000207352
-2.78607e-11
-0.000813185
-3.02733e-09
-1.04347e-09
1.83145e-10
2.67881e-09
-5.74493e-08
2.49131e-05
-6.75244e-11
0.00073221
9.56529e-10
-8.86368e-11
0.001213
-0.000115127
5.87696e-10
4.60759e-08
0.000192978
-5.52903e-09
3.11381e-10
-9.19637e-12
-3.49674e-08
0.000326371
-0.00554139
4.09385e-07
1.2804e-07
-6.3949e-10
-1.12977e-08
-1.0338e-08
0.000196612
-0.000630694
1.43816e-10
-1.60613e-07
-2.84232e-10
4.13509e-05
-1.28345e-08
3.51194e-07
0.000691182
0.00233112
-5.26793e-08
-7.45765e-09
-3.68926e-07
-5.88166e-06
6.48427e-05
1.21985e-10
2.7731e-11
-2.50462e-09
-2.46435e-09
-9.77425e-05
-0.00105499
1.66125e-05
5.36778e-12
-2.49066e-09
2.61391e-08
7.50731e-05
4.33681e-05
6.48767e-10
-0.000173399
1.76277e-09
1.10683e-09
0.000530906
-1.23099e-08
5.39913e-10
-6.65079e-06
-1.2779e-08
1.93882e-09
6.38328e-11
-0.00189019
-1.01591e-08
-6.24475e-06
-1.22552e-07
-0.00012224
0.000281885
-3.17182e-10
0.000315944
1.74762e-10
0.000614675
3.57194e-10
0.00208206
-9.02282e-11
-1.41162e-08
5.89624e-05
-1.63598e-10
8.42548e-05
2.61211e-11
3.10848e-10
0.00033493
0.00045101
-4.50778e-09
5.65944e-07
-1.95964e-05
1.58599e-10
4.24867e-11
0.000115657
1.62158e-09
9.89381e-11
1.38499e-09
5.49966e-08
4.68588e-07
-2.69187e-09
-4.96149e-09
8.67013e-10
-3.55721e-09
-5.222e-05
0.000276095
5.8237e-10
-0.000133084
0.00027693
-0.00436316
-1.26427e-10
-1.24187e-07
0.000315822
4.55235e-10
-1.79967e-11
8.12689e-05
1.08527e-11
-1.98431e-08
-8.98868e-05
1.91008e-05
3.04535e-05
-2.69462e-05
-2.79077e-09
3.92532e-05
-2.0718e-09
0.000171808
-4.67618e-05
7.15229e-12
7.82749e-05
-5.66958e-08
0.000348549
6.34438e-06
0.000148151
-2.56121e-09
-7.5337e-09
-7.16583e-09
-0.000566149
5.77404e-05
-1.70506e-08
0.00220016
7.93422e-05
-4.07352e-13
-0.00127645
-2.77586e-09
-6.62267e-05
6.06899e-10
9.65696e-10
-4.09708e-10
-9.47549e-05
0.000877214
2.11993e-10
6.5116e-05
7.30039e-10
9.44018e-05
4.92265e-05
-7.94163e-08
-3.22938e-10
3.67577e-05
-1.5452e-10
-7.98034e-06
-7.32587e-10
-2.53996e-06
5.16558e-10
5.75501e-08
9.83893e-10
-3.79422e-08
7.02946e-05
-5.5493e-10
-5.36644e-11
1.55358e-10
-7.84277e-09
5.1408e-05
-1.50342e-11
-1.96302e-10
1.19008e-09
-4.17512e-09
0.000485124
0.000522384
0.000372401
-7.14386e-06
-6.05263e-05
0.00141814
-0.000459719
2.33003e-09
-8.4409e-10
4.72059e-08
-1.90749e-05
1.45027e-10
-6.94701e-06
-7.86362e-08
-1.64212e-07
1.47605e-09
1.67047e-11
-2.12216e-09
-1.54431e-08
-2.76402e-08
-2.50521e-10
4.11763e-08
4.88624e-05
-0.00389265
-0.00118415
7.58324e-05
-4.09506e-06
-2.69285e-11
-0.000573816
-1.07432e-10
-4.15372e-11
-7.84987e-06
-7.85254e-08
5.79979e-08
-1.7212e-08
8.86692e-05
-5.15663e-05
-9.93163e-11
0.00120379
0.000618429
4.13148e-05
1.98914e-11
0.000786577
1.40362e-10
-1.70903e-07
-8.43685e-11
5.30292e-05
1.92272e-09
-0.000598245
0.000585606
8.9498e-05
-3.56824e-11
-3.47103e-10
8.29417e-05
4.09212e-05
0.0004125
8.84104e-06
2.9419e-05
3.17136e-05
3.66303e-05
-4.88991e-05
0.000127037
4.32763e-05
-1.2166e-08
9.32833e-11
3.83054e-11
-0.000528122
-5.26697e-10
-0.000350311
-3.10745e-05
-8.70892e-11
9.8359e-05
8.50282e-05
0.000513693
4.87477e-11
-5.53467e-10
-4.59446e-11
0.000372056
-1.99395e-08
7.46091e-11
5.10574e-10
0.000310467
6.66306e-12
-0.000119894
-3.48553e-07
-1.10946e-09
2.15681e-08
4.23178e-10
1.45897e-10
-1.42562e-10
2.29544e-08
1.156e-09
-2.60746e-11
-0.000368838
5.13836e-11
-1.45834e-09
1.54479e-11
8.75886e-12
4.27623e-05
4.2923e-05
8.30114e-11
-6.65929e-05
3.07746e-10
6.53639e-12
2.13379e-10
-1.28788e-09
-2.32071e-08
2.10052e-09
-9.47331e-09
2.00307e-10
0.000517413
-9.08403e-09
7.24685e-05
-1.27621e-05
-6.70235e-09
-1.11147e-08
1.09897e-10
0.000153985
0.0004139
-1.04462e-08
8.12535e-11
-0.000144198
0.0019923
3.47275e-08
-5.72619e-11
-2.74439e-07
-0.00020604
-2.62043e-07
-0.000152672
6.60862e-10
-3.03817e-11
1.69785e-08
-0.00012614
5.41339e-10
5.17339e-05
-3.20793e-05
-7.73988e-05
1.80322e-05
5.12545e-05
2.1716e-08
2.26574e-09
-0.000102197
-7.24233e-06
-2.83887e-09
9.67206e-11
-3.74183e-05
0.000821692
-2.4113e-08
0.000608868
-1.0717e-09
-8.49136e-13
1.45321e-11
0.000667998
0.00121498
-1.84362e-11
-4.34465e-05
1.01949e-09
0.000285043
5.57633e-10
1.11663e-10
0.00103139
6.47969e-05
-3.39655e-08
6.34486e-05
0.000120332
3.02819e-08
0.000707053
3.30661e-09
0.00109523
-2.73603e-05
-1.21822e-10
-0.000103977
2.31581e-05
0.00109837
-8.5902e-10
0.0016772
1.12751e-09
1.26951e-10
1.75636e-05
0.00104401
0.00047674
-0.000248989
-0.000967172
-1.29534e-09
-7.54495e-08
-1.20129e-08
-1.49655e-12
-2.61629e-09
-1.43985e-10
2.5857e-05
1.03607e-05
8.79651e-05
0.00111845
-1.01913e-10
0.00139757
-4.02704e-08
-0.00179338
1.19841e-05
-1.92405e-09
4.06995e-10
-1.02553e-09
3.42827e-10
0.000294687
1.00396e-09
-0.00093519
0.00134317
-4.06369e-09
-5.83994e-09
-6.20238e-10
-0.000739111
-1.69923e-05
-0.00136852
-3.07699e-09
-1.09612e-10
-3.63953e-11
-0.000152569
1.33047e-11
-1.81174e-08
-1.13031e-08
1.38241e-09
-7.15879e-11
1.19539e-10
9.26855e-11
-6.85089e-09
-3.32631e-10
-1.16133e-05
-0.00508587
0.000197267
1.26808e-10
-6.5927e-07
1.27234e-05
-2.88742e-08
7.37868e-05
-1.85325e-08
9.31531e-10
-1.5648e-08
8.28016e-10
-6.87211e-05
2.9293e-09
-6.11342e-05
0.00102195
0.000182963
-9.39854e-11
-1.93832e-10
0.000216549
6.76282e-10
9.64301e-05
-5.42545e-10
8.5402e-10
-0.00126746
-1.00201e-08
-1.88125e-10
5.85472e-08
-5.80842e-08
-0.000132276
9.75196e-05
0.000275568
0.00198768
-1.10221e-10
2.64033e-10
-8.60506e-09
-0.00144679
-1.24599e-07
-6.86795e-09
-6.76353e-10
1.44156e-06
4.68686e-05
-4.48264e-10
-2.76795e-12
7.32884e-05
-1.78351e-05
-3.31565e-08
5.63624e-10
-2.6225e-11
-4.89203e-10
-3.49749e-10
2.47497e-11
-2.51333e-11
7.41974e-10
2.03341e-10
7.89842e-05
-4.21403e-11
1.26478e-09
0.000626312
0.000240567
-1.85883e-07
2.40887e-11
-5.25616e-10
0.00138081
0.000794121
-0.000578253
0.00164532
3.10404e-06
0.000264894
-9.01708e-10
3.26787e-05
3.38787e-09
-0.000235131
7.26108e-11
-0.000114972
8.23417e-11
-1.41867e-08
-2.63919e-05
-1.51613e-07
3.71272e-11
1.98766e-10
-2.5943e-10
-9.86276e-11
-2.62611e-05
-0.000197607
0.000305416
-8.77681e-09
7.00651e-11
-0.000244228
-1.59518e-08
-1.89639e-10
-0.000153195
0.000182175
-1.56455e-05
-0.000180623
-8.42669e-05
8.17319e-10
-3.91643e-06
0.000130131
-1.33228e-10
1.56744e-09
-9.23963e-06
7.78663e-09
1.77481e-11
0.000406748
-4.47573e-05
9.19786e-11
7.00479e-05
-1.281e-10
-8.90427e-09
-1.78984e-07
-6.02549e-06
9.41604e-06
3.61721e-08
-4.7578e-11
2.44394e-09
3.36685e-10
-0.000206654
-0.000159919
1.57502e-09
-0.000149827
-0.00184898
-8.32488e-09
-1.62908e-11
6.56317e-10
-0.000130411
-1.90394e-11
1.8361e-08
7.45281e-05
-0.000336456
2.25986e-10
0.000609513
0.000272001
2.16843e-06
1.01278e-06
-6.77346e-08
1.52965e-10
-1.48417e-11
4.86566e-10
-1.46117e-08
8.99435e-06
-1.7026e-05
3.49531e-08
5.77789e-07
3.37725e-05
2.0548e-05
-9.92626e-05
1.79601e-10
4.39644e-05
5.66835e-10
3.07522e-05
-2.94714e-09
7.39799e-10
-1.10016e-07
4.18979e-11
-0.000590483
-0.00149009
-2.34206e-07
-7.85175e-05
4.96037e-05
0.00141618
-0.000169731
-1.2756e-08
1.73192e-08
-6.5352e-12
-3.10267e-05
2.89543e-10
0.000199232
-1.46464e-09
-1.04818e-11
6.16118e-11
-4.74152e-09
-7.43858e-05
-1.41043e-10
0.000420815
-3.11571e-06
0.000101285
-2.74066e-08
-1.0542e-11
8.07064e-05
5.90509e-10
3.08197e-10
-1.08544e-05
-7.83915e-11
-3.00413e-10
2.38238e-08
-5.97475e-10
-6.21477e-11
8.097e-05
9.04681e-05
-5.85531e-05
0.00064339
5.58087e-11
3.44075e-10
-3.80232e-08
-0.00015602
1.45677e-05
5.02232e-10
0.000450017
-1.52103e-09
-4.98944e-10
8.04705e-05
1.47374e-09
-4.38632e-10
-2.83862e-09
1.54847e-10
-6.58689e-11
-2.458e-09
-4.06612e-06
0.00043036
1.01006e-11
0.000432521
1.54841e-05
-2.29957e-07
6.6127e-09
-4.71796e-10
-1.60302e-10
2.72966e-11
-0.000118726
1.19596e-07
-8.90709e-05
8.93759e-05
-0.000159438
-1.22617e-09
-2.25505e-09
-0.000576943
-1.92739e-09
9.0416e-10
8.06014e-10
-0.000398473
6.60128e-06
-2.41769e-09
0.000170072
8.88107e-06
1.04081e-10
-1.62601e-09
-1.58497e-10
-6.14743e-09
4.55591e-08
-1.13757e-07
-2.00637e-09
0.00162677
4.58744e-08
9.9469e-11
3.77456e-05
1.32501e-09
-0.00284655
-4.13516e-08
1.89236e-09
2.84302e-09
-1.99485e-09
-1.12331e-08
1.4383e-10
1.74242e-10
-0.00123994
-6.24786e-11
0.000439409
-1.71702e-09
-4.0807e-09
-1.70877e-06
0.0004182
-3.16179e-10
-4.4793e-11
3.78706e-08
-0.000375003
7.30924e-10
-5.05416e-10
-0.00194222
0.000248472
-8.29915e-09
-5.21346e-09
-5.45164e-05
7.21524e-10
1.00661e-10
0.000684115
7.45937e-05
-0.00204033
-2.38157e-11
1.74885e-08
-1.03367e-10
1.05006e-08
-0.000260019
6.7569e-10
-2.75998e-10
6.26298e-09
9.42755e-05
-4.82298e-10
8.06682e-11
1.95084e-09
3.99422e-09
-5.19407e-05
6.8907e-10
-4.76518e-05
-1.25237e-08
0.000312572
0.000778027
1.18211e-08
7.03803e-05
2.19588e-09
0.000338272
-5.51532e-05
2.89422e-05
-9.50827e-12
-0.000133348
1.22643e-08
-5.56224e-09
-8.23363e-10
3.62859e-09
2.68148e-05
1.31359e-09
1.3215e-10
1.8753e-10
-7.25899e-08
1.03201e-07
5.53749e-05
3.56048e-05
0.000707293
-0.000117532
5.73313e-10
-7.87354e-05
3.32761e-11
5.92755e-10
2.23772e-11
-2.95277e-10
8.37314e-05
0.00208244
2.74921e-10
-7.58053e-06
1.0485e-07
0.000371158
0.000154241
0.000785201
7.13746e-11
1.63289e-10
-2.06504e-08
6.49045e-11
1.28142e-10
6.74528e-10
-1.30275e-05
7.13736e-09
-0.000296135
1.85125e-07
3.75083e-09
-1.91731e-05
2.28506e-11
1.91996e-05
8.72465e-10
2.63037e-08
-5.416e-05
2.12175e-05
9.40867e-10
-0.000230841
-2.32804e-05
-0.000799158
0.00165006
-1.53408e-09
-1.02398e-05
-1.23581e-08
-0.00176878
5.92025e-11
5.79219e-11
3.31631e-11
-0.000167443
0.00054664
-0.0001409
9.11488e-05
-8.77984e-05
3.1237e-06
2.63488e-11
-0.000452746
2.93163e-08
4.67502e-10
-0.000746735
1.99037e-05
-3.41454e-11
-0.00177258
-3.30264e-08
3.77373e-11
0.000109791
-4.54114e-11
6.59794e-10
1.38253e-05
-1.26117e-09
-1.57581e-08
0.000135591
-2.6605e-08
-2.69197e-05
-5.99351e-11
2.9273e-11
5.46548e-10
-1.83737e-05
1.16134e-08
5.7667e-08
-8.22074e-08
3.71819e-10
6.29383e-12
5.4538e-09
-0.00229011
1.83696e-10
-0.00124352
-1.25815e-09
-6.2664e-08
-1.36248e-05
2.42274e-11
4.42159e-05
7.37781e-11
2.08386e-09
1.30321e-05
2.20872e-10
-2.84589e-07
-3.93575e-06
-9.35442e-06
0.00243973
7.19306e-09
-2.4492e-05
-1.81622e-10
0.000428538
-8.12191e-08
-9.78979e-09
0.000525409
1.02141e-08
-0.000139109
7.92591e-05
5.14964e-10
-5.64593e-08
-1.43005e-08
3.27685e-11
-7.02028e-10
-0.000408733
1.97177e-11
-8.6966e-10
-6.72142e-10
1.86547e-11
1.46513e-10
2.51256e-10
-2.59535e-11
-5.65316e-10
0.000595736
-3.67121e-08
-2.07758e-09
-0.00094266
-1.78433e-07
3.33779e-05
1.41196e-05
-3.86352e-05
-1.26156e-10
0.000287141
-2.94868e-09
7.6145e-05
4.99911e-09
-1.00334e-05
-4.05571e-05
0.000928224
9.04885e-05
2.37932e-10
2.04983e-09
-8.52591e-10
3.7386e-10
1.51034e-10
5.72048e-06
-3.56312e-10
5.40572e-08
0.000698941
0.00100373
-6.12544e-08
-8.87141e-05
-4.28441e-06
-1.42091e-07
-1.95209e-08
3.01846e-10
0.00127733
8.56838e-10
8.02868e-09
0.000134806
-5.45081e-09
3.81323e-10
-2.83243e-10
7.672e-11
-7.21442e-08
0.000360613
-0.000340681
-4.69362e-08
3.00111e-09
1.47231e-10
5.82615e-10
7.22327e-10
-3.11682e-06
7.72455e-09
2.72276e-11
1.02025e-09
-0.000339691
2.68366e-05
1.11676e-10
-2.16393e-11
-2.80556e-08
-0.000100779
5.53921e-11
-1.90075e-09
-1.27177e-08
0.000360217
-6.32556e-05
-4.35877e-06
-1.21054e-08
-1.50133e-05
7.62225e-09
0.000140005
7.8386e-09
2.50864e-05
-1.61416e-10
8.86785e-05
9.37439e-05
-1.5805e-05
1.99425e-10
-0.000333804
-1.14218e-08
0.000208855
3.28808e-05
7.10081e-05
-0.000746811
2.68714e-06
2.2568e-08
-1.69345e-08
-0.000116534
1.79679e-07
5.46858e-06
1.08085e-07
-1.40021e-05
7.57327e-05
-8.54668e-07
-0.000353822
-9.11831e-05
1.92187e-09
-1.4727e-05
-1.95113e-08
-5.69095e-05
2.96474e-11
-1.10853e-07
0.000105338
-5.68161e-08
0.000320051
-1.07662e-08
-4.273e-06
1.4202e-08
-4.7371e-05
0.000318867
4.54125e-09
0.000315262
6.10713e-06
1.11892e-09
0.000103988
2.85746e-10
-1.49142e-05
7.18084e-06
4.15712e-09
-0.00598744
-1.59304e-06
-1.41322e-09
6.8501e-05
2.57509e-07
-6.65215e-11
-0.00026566
5.39562e-06
-0.0020938
1.08331e-05
1.17255e-10
3.68517e-10
9.38268e-05
-1.85245e-10
0.000304812
-0.000401367
-7.9297e-06
1.10795e-06
1.04381e-09
-1.86907e-08
1.0903e-08
-0.000150341
-0.000237877
-0.000103556
-1.39812e-09
-3.60427e-11
-0.000353059
7.50172e-08
-9.01762e-09
1.9081e-06
-1.98119e-10
0.000958921
4.08377e-10
2.17282e-10
7.86941e-08
-5.2115e-11
-2.46832e-09
2.68941e-08
1.54787e-05
-6.93478e-05
-5.66879e-11
-2.59122e-11
8.52638e-05
0.000371849
-5.18245e-08
8.91425e-09
0.000151416
-6.18529e-11
-7.72409e-05
0.000343999
0.000320691
1.2536e-09
1.21871e-09
-0.000241605
-2.01258e-05
-4.35467e-08
1.61525e-10
-4.85147e-05
6.07174e-11
0.000263353
-5.8406e-05
2.40534e-10
-4.52609e-05
0.000391726
2.64469e-08
-1.84714e-08
2.08892e-10
2.24887e-10
-0.000227858
2.63109e-08
-2.17032e-07
-4.38197e-10
-3.0787e-10
5.09284e-05
-3.09574e-09
-2.05782e-08
2.17933e-05
6.31234e-10
0.00140034
4.26894e-05
-1.87325e-10
0.000137638
1.47523e-06
3.37163e-10
7.50576e-05
0.000592643
9.74577e-05
-3.91542e-10
0.000672661
-6.83026e-10
3.89096e-11
-4.168e-05
0.000399212
4.97464e-05
-1.5321e-10
6.09817e-05
3.3632e-10
4.47573e-08
-1.7296e-10
-0.000497512
-0.000531052
-8.16294e-05
2.5916e-08
1.78098e-08
1.41022e-08
-0.000424595
5.55817e-05
-0.000104397
-0.000797596
-7.09249e-10
1.06643e-10
1.30206e-10
-2.8369e-08
9.18169e-09
1.26886e-07
6.91019e-05
-3.86715e-10
-2.49588e-05
3.39196e-05
2.84589e-07
-0.000214765
-2.96559e-10
-1.22666e-10
6.22108e-05
-0.000187449
-6.42688e-11
9.12898e-10
-3.66472e-08
-9.74313e-08
1.43101e-06
-0.00178609
6.97816e-05
-3.21996e-09
0.000443945
1.09984e-05
4.43941e-10
2.44741e-10
-8.42931e-05
-6.85313e-08
2.1829e-10
1.39378e-08
-0.000116518
-2.74919e-06
5.80863e-11
0.00187736
-2.58347e-10
-4.05528e-10
-0.00139482
-1.49477e-07
4.94439e-05
-4.13576e-05
-1.5976e-08
0.00201253
-1.25009e-05
9.05672e-10
7.60485e-05
0.000106796
1.03297e-07
-5.89462e-09
-2.49447e-10
7.52435e-10
0.000390492
-1.84177e-10
0.000393335
-3.60002e-08
-5.49727e-06
-0.000385471
-4.892e-10
0.000238436
-5.92845e-10
1.60066e-07
-0.00760984
0.000418606
-2.24206e-08
3.21307e-10
0.000387493
9.26708e-10
7.638e-05
-0.000212081
-3.02828e-08
-3.21571e-06
7.86101e-11
-0.00115307
3.91597e-11
-9.21609e-09
5.87706e-10
-3.90226e-05
-1.30613e-10
0.000826179
5.78233e-11
-0.000589324
-2.39501e-09
7.51712e-05
-7.05733e-05
-3.85694e-08
-1.10707e-08
3.89007e-05
4.47148e-05
-0.000337081
3.4806e-10
0.000187338
1.99287e-06
2.42905e-10
-2.34072e-05
6.19022e-11
-2.09537e-09
0.000424172
-0.000146044
5.2345e-08
3.44263e-11
-0.00150537
0.000311006
-0.00142233
7.42519e-10
2.94783e-10
0.000128521
-5.79982e-05
-7.21865e-09
-1.87883e-05
7.85555e-09
-3.00448e-05
-8.20972e-10
6.57233e-10
-0.00041683
0.000100587
9.72387e-09
-2.69091e-09
3.71309e-10
-7.19895e-09
5.18021e-10
-2.26201e-08
-6.45832e-05
0.00117912
-1.17637e-10
-7.73869e-11
5.44829e-05
-5.85059e-10
-6.77863e-07
4.59379e-11
-0.000358128
2.63076e-06
0.00185073
-3.61222e-09
-3.16927e-11
8.7181e-11
9.46578e-05
0.00023338
3.76242e-05
-1.61386e-08
7.39025e-05
-4.31715e-08
9.52054e-05
-7.67185e-09
9.9994e-08
3.17763e-11
8.67818e-10
1.41781e-11
7.08191e-05
7.23067e-10
2.74996e-09
0.000585965
-0.00011943
0.000424062
-0.000308064
2.62993e-10
-0.000223511
2.2935e-08
0.000351244
-1.85029e-10
-3.23074e-06
-5.52005e-11
1.05223e-09
-0.000177448
0.000256023
-4.42968e-10
-1.47042e-11
-3.65534e-10
-1.24926e-05
-1.33399e-08
-0.000429606
-3.98749e-08
0.000487543
6.79756e-05
7.49656e-05
-0.000143999
-4.64694e-10
5.92044e-05
1.0339e-05
6.70218e-08
-9.29999e-10
3.64418e-10
4.72993e-11
-2.45347e-10
8.53421e-11
-9.70767e-12
5.50541e-10
-1.60606e-09
-2.31227e-10
-0.000390125
-0.000139453
-3.72594e-05
-2.21732e-09
9.1932e-10
3.89523e-07
3.72724e-10
-9.52338e-05
2.31125e-10
-2.32218e-07
0.00112776
-0.000313047
1.73418e-08
-1.81094e-06
-4.70233e-06
-9.64327e-07
-2.99721e-06
-2.19569e-08
-9.53314e-05
0.000146738
-2.62625e-05
1.34506e-09
0.000503712
-1.73399e-10
2.37878e-10
-2.55297e-08
8.35441e-10
4.00826e-09
1.23739e-09
0.000809707
5.31782e-11
-2.02735e-11
0.000128355
-1.46371e-09
-6.51347e-09
0.000304629
6.8973e-11
-2.83091e-05
-8.34804e-10
-2.51281e-09
1.38098e-09
1.18328e-05
-2.0694e-10
0.000207762
0.000570255
2.82098e-10
-6.34798e-08
6.6219e-09
-2.78961e-05
-3.08448e-05
-2.47289e-10
2.9322e-10
-8.73961e-10
-3.2334e-11
2.74266e-10
5.01609e-10
1.13314e-11
-4.07166e-09
-2.08922e-10
0.000228183
-7.79805e-05
-5.54554e-07
-1.54076e-09
-2.6837e-09
1.83674e-10
7.09976e-06
0.000716923
-9.49993e-05
1.6469e-05
7.5227e-11
-7.61615e-05
8.74592e-05
8.88533e-10
-0.00133944
-6.87107e-05
-2.74834e-09
-7.65389e-11
0.000253374
-3.47946e-09
-1.47584e-10
1.20088e-07
-0.000101505
9.2101e-06
-1.92322e-05
-0.000409481
3.12293e-11
-0.000123596
3.06636e-05
9.89343e-09
-2.21714e-10
-1.9603e-10
-4.7465e-10
-2.15308e-08
0.00100774
1.17187e-10
-0.000329072
5.94161e-05
0.00023198
0.00125056
-2.44077e-10
0.000324342
-1.93943e-09
0.000105867
-0.00010528
2.14629e-10
-2.54254e-10
-1.16247e-07
-4.23749e-08
-0.000114633
-3.64908e-10
2.35784e-05
4.75206e-05
0.00206014
1.27007e-11
5.41325e-05
0.00042227
0.000880782
-1.17116e-08
-0.00170273
-0.000495041
0.000183435
0.000420181
-3.55921e-09
0.000365141
-2.89372e-05
0.000195316
2.04089e-05
3.28108e-05
-8.93972e-06
5.49362e-05
0.00010328
-1.07271e-05
-7.70047e-05
-9.08483e-11
2.03184e-05
0.000142024
1.14893e-05
-5.68194e-08
-1.18436e-10
0.000140952
3.68608e-08
0.00131547
1.33663e-05
0.00217551
-7.81319e-05
0.000312843
1.44067e-10
4.37016e-11
0.000112126
0.00033547
-8.01228e-05
4.12735e-09
-0.000869979
5.2417e-10
0.000597335
2.43743e-05
-1.0651e-05
2.44702e-05
3.34432e-10
0.000528259
-2.74756e-10
0.000226245
-1.07875e-08
2.09809e-10
9.59109e-05
-1.50648e-10
-0.0010569
0.000766097
-0.000123249
-0.000448518
-2.80212e-10
3.68058e-11
-3.76984e-06
4.9698e-05
1.51542e-11
0.000559106
0.000376693
3.52982e-10
6.03424e-05
-6.26601e-11
3.2346e-11
-4.16686e-09
0.000343547
2.95257e-10
-6.99364e-06
1.68668e-10
-7.84334e-11
4.38027e-05
3.13504e-05
1.04869e-10
0.000730153
-0.000494206
0.000317767
-4.74234e-05
3.00358e-10
-0.00327719
4.90364e-11
-2.32969e-08
0.000140397
6.45496e-10
7.19373e-05
-6.78236e-11
8.36765e-05
2.09267e-09
0.000281081
0.000344811
0.000413701
4.56597e-05
-0.000517909
0.000387115
0.000824466
-7.42407e-08
0.000126854
-9.38874e-11
-9.40613e-05
0.000103266
0.000289266
-6.11929e-09
3.35525e-10
1.56881e-10
0.000581719
0.000104755
3.2685e-10
0.000156775
0.000109046
0.00267934
-5.81159e-06
-3.52172e-08
0.000109328
-7.36641e-05
-6.22391e-10
-0.000397916
-4.74655e-05
4.45956e-09
0.000146498
3.70639e-10
-2.74408e-10
5.79374e-09
6.61859e-06
-3.18951e-05
-2.3342e-11
1.23341e-09
2.61889e-10
-1.0721e-06
0.000614538
-1.01551e-05
-0.000771245
0.000183496
-0.000549279
-7.84727e-08
-3.7399e-07
-0.000503282
7.92161e-07
9.82175e-13
6.50318e-11
1.71462e-08
3.0367e-12
0.000329213
6.21939e-05
0.00039831
5.22033e-11
8.68907e-09
3.73453e-10
1.0043e-07
-1.1253e-06
5.87788e-05
5.39553e-05
9.88137e-05
-6.10058e-08
1.35023e-09
-7.62722e-11
5.05226e-10
8.36791e-05
9.44777e-05
-4.3819e-11
1.12665e-08
-8.88179e-09
-3.49057e-05
0.000494127
6.32306e-05
-0.000149421
2.54793e-09
0.000505253
-1.83632e-11
-7.75808e-05
3.05591e-05
-4.59787e-09
-0.00135231
0.000304671
-1.19401e-05
-9.31388e-06
7.25766e-05
-0.000420897
4.44299e-09
-7.75198e-05
-4.68328e-11
2.21053e-11
-1.76245e-05
4.61736e-05
-0.00351564
3.23742e-08
0.00124807
0.000113399
-5.92847e-05
9.87635e-05
-5.65604e-12
0.000101104
8.62014e-08
-7.31538e-06
-8.43273e-05
-6.23396e-11
-0.000442434
-1.49392e-08
-2.7952e-05
2.25935e-05
-0.000138852
1.00986e-10
-4.19423e-08
-0.0026854
7.51186e-05
0.000455302
0.000283832
-8.50934e-05
-4.2154e-10
-0.000242824
-5.57606e-07
3.08913e-10
7.73068e-10
5.06627e-06
1.22449e-06
7.76283e-06
2.10827e-09
2.66017e-08
-8.95301e-05
3.1875e-10
-0.0011329
4.35439e-10
0.00010156
1.81418e-10
1.13114e-10
-0.000359765
-5.42231e-10
0.000167443
-2.00383e-11
3.11876e-10
-2.37635e-05
-8.4901e-11
1.09927e-09
-2.23071e-10
1.38983e-05
0.000317266
2.9136e-08
-0.000100903
9.65162e-05
-0.00010179
-1.03428e-08
2.10153e-10
3.25639e-05
2.70234e-10
9.11643e-05
1.28826e-11
-9.91678e-05
0.00153548
2.21384e-10
2.23966e-08
-9.83679e-05
1.54636e-09
-2.63035e-10
-6.08335e-05
3.09571e-06
-3.21589e-09
8.29551e-05
-9.28041e-09
0.000922189
5.11662e-05
6.16406e-11
-5.80483e-10
-2.84847e-10
0.00255409
-0.000595894
1.25973e-05
-0.000164438
-8.87053e-06
-7.05998e-05
-3.84841e-05
-1.46179e-05
2.28444e-10
9.10381e-05
6.58355e-05
4.71293e-10
9.28565e-07
-1.94995e-06
-1.56618e-09
1.27801e-06
9.80072e-06
-8.26289e-06
8.75324e-05
1.76618e-09
6.42271e-10
-0.000308658
0.000460536
8.58726e-06
-7.06386e-05
-8.93433e-06
-6.93982e-05
-0.000155349
0.00022913
-9.6285e-05
-0.000530206
3.42558e-06
-6.19885e-10
7.40184e-05
3.79218e-08
6.37918e-11
0.000393252
7.47529e-11
2.40966e-11
-2.97794e-05
3.40922e-10
2.11205e-08
0.000842581
-2.50386e-08
-3.18914e-10
5.58835e-05
-9.67599e-05
-2.26055e-05
-1.48666e-08
1.81727e-05
1.24e-09
-5.79885e-09
-0.000122532
0.00153584
8.91489e-05
1.55248e-09
-0.000106733
4.91204e-10
-0.000344762
5.26705e-10
1.19672e-07
8.4849e-10
0.000975596
1.00546e-10
2.45905e-08
3.70368e-06
5.81433e-10
-1.03925e-06
-3.91228e-05
-6.87677e-05
0.0146439
1.23965e-10
7.1593e-08
-0.000181315
-9.27678e-05
-5.62723e-10
8.02778e-05
-0.00617242
6.85531e-05
0.00021109
1.36844e-08
-0.000156322
0.000375978
-2.24119e-05
-7.96065e-08
1.75869e-05
1.48023e-10
-0.000153048
2.30937e-10
4.25975e-05
1.15923e-10
0.00021249
5.36852e-05
-7.61866e-05
-1.18816e-05
-0.000115932
-1.46319e-08
-1.25424e-06
5.75317e-11
0.000125971
-3.18693e-10
6.19388e-05
1.42695e-07
5.377e-05
-0.000933946
-0.000117051
-0.000269434
-4.00879e-08
0.000105784
-3.68976e-10
2.5158e-06
-1.79067e-09
3.65199e-09
0.00100619
-7.1182e-08
0.000387272
-5.59254e-05
1.28812e-05
-0.000311621
0.0013596
6.44063e-08
3.10107e-05
5.98666e-05
-7.28785e-10
3.02851e-10
0.000230892
2.25931e-10
1.13835e-09
0.000367118
0.000250638
-4.39973e-05
-1.23558e-10
7.001e-05
7.51136e-05
-3.74997e-08
-3.48402e-05
-0.00138872
-1.18168e-10
0.00011569
-5.92533e-08
-0.00184256
7.35313e-10
-0.000122359
0.000252274
-2.26333e-06
-8.27331e-05
-4.31592e-10
0.00025104
0.000109569
0.000103229
-0.000282951
-0.000131275
8.29935e-05
8.44296e-05
6.63265e-06
6.25883e-09
1.06501e-05
7.36766e-09
-1.04033e-05
4.72284e-10
0.000178702
-1.33068e-05
7.34323e-10
3.4368e-11
0.000207202
-2.85755e-09
-4.47259e-11
-0.00114848
0.000250537
1.54167e-10
3.97117e-05
5.24833e-05
0.000100895
-3.67359e-05
5.72029e-05
4.98168e-05
0.000548604
0.000313664
5.58565e-05
6.96179e-10
0.000151095
-4.02393e-05
2.04138e-09
-1.18248e-05
7.7482e-05
-2.90183e-06
-3.70746e-05
3.83902e-08
-1.83394e-10
3.84185e-10
-0.000173569
0.000269257
-1.07036e-08
-1.38648e-06
-8.40101e-05
-0.00041387
0.00011846
5.02013e-05
-9.37045e-06
0.000101385
-2.06878e-07
3.02684e-05
2.23544e-10
-6.33437e-05
5.40061e-11
0.000165101
-2.32538e-10
-1.58542e-05
-0.000164853
1.14269e-10
0.00021736
0.0017152
-3.17181e-05
-3.66623e-05
3.23569e-09
0.000231599
-9.82427e-05
5.69737e-11
-0.000149953
0.00010326
-3.44573e-10
-7.09831e-05
1.90908e-10
1.17803e-05
2.5424e-10
1.29878e-10
-5.40765e-11
0.000346448
0.000116743
0.00017337
-0.000178095
-1.66312e-08
-2.83282e-05
0.000337767
5.91461e-10
-1.76289e-09
-1.05637e-06
6.45051e-05
3.97866e-10
-2.84193e-05
0.00212417
-2.54355e-05
0.000132106
4.20142e-05
-0.000140316
-7.87253e-09
2.79992e-05
5.07237e-09
0.000388304
-2.69628e-10
-6.20586e-08
-5.54549e-05
0.000450866
-2.16073e-07
-0.000758757
2.76589e-10
6.77446e-11
1.7773e-10
7.83203e-10
-3.62158e-05
5.12141e-05
5.05151e-10
3.10212e-06
-0.000639411
-3.92287e-08
-0.00016053
0.00012102
-3.52613e-11
4.29034e-06
-1.68904e-11
0.000195282
1.08062e-08
7.49318e-09
7.39918e-11
8.01666e-10
-4.38475e-07
1.29756e-10
-5.26603e-08
7.7686e-05
-4.10981e-05
-3.30606e-09
-5.71319e-09
1.88069e-05
9.86606e-05
-4.99493e-05
3.26814e-09
-0.000652221
6.82049e-05
-7.84993e-12
7.44111e-05
0.000195552
8.95081e-05
-3.83137e-08
-2.8238e-06
0.000117358
-2.14614e-05
-9.14181e-09
-5.46866e-08
3.83496e-06
-2.67512e-05
1.87101e-05
-0.000136833
-0.000261115
0.000409322
-5.31652e-05
0.000110206
1.80829e-09
0.000417947
0.000218834
7.93136e-05
-2.3617e-05
9.26795e-05
7.25547e-11
0.0029472
-6.84372e-09
-1.24522e-10
-4.90504e-06
-9.20299e-09
-1.05989e-07
-1.68534e-09
0.000963778
0.000147053
0.000343504
0.000323612
2.45235e-05
-3.37904e-05
1.7181e-05
0.000164313
-0.00023344
3.71753e-10
1.59312e-05
-4.2366e-09
0.00263664
9.32496e-05
8.7615e-05
0.000730712
3.62134e-05
0.000318334
-0.000266411
-2.46744e-09
5.14436e-07
-0.000174426
0.0001403
8.7053e-05
0.000156022
-0.000126668
-6.58063e-05
-6.33317e-05
-5.19867e-07
0.000322962
6.96994e-05
-7.01086e-07
8.41344e-05
7.85997e-09
-0.000548941
2.04448e-10
0.000500736
3.76785e-05
0.000163905
-5.2502e-08
2.01204e-10
-2.13733e-05
0.000185635
-8.87389e-08
5.79291e-05
3.10561e-08
-2.57055e-10
-0.000255043
1.38197e-10
2.40531e-10
6.43227e-05
7.83902e-09
8.86925e-12
7.42374e-05
-0.00214771
0.000142054
-2.64128e-12
0.000307903
-9.67649e-05
-1.83689e-11
-9.61207e-06
-3.71642e-10
-1.45556e-08
1.96622e-08
3.15553e-10
2.56389e-08
-5.45475e-08
0.000199506
2.44394e-05
0.000175258
0.000193869
-0.000100656
-4.97108e-08
0.000163378
-3.02504e-08
0.000133296
-4.36418e-10
9.09301e-05
-1.2408e-08
-3.39021e-05
-0.000602662
1.74187e-10
8.62654e-05
-6.45144e-09
-0.0073252
7.51366e-05
1.34204e-10
-4.98145e-05
9.73654e-05
-4.78971e-09
0.000662902
-6.40444e-05
-4.18619e-08
3.91567e-10