/*--------------------------------*- C++ -*----------------------------------*\
| =========                 |                                                 |
| \\      /  F ield         | OpenFOAM: The Open Source CFD Toolbox           |
|  \\    /   O peration     | Version:  v2012                                 |
|   \\  /    A nd           | Website:  www.openfoam.com                      |
|    \\/     M anipulation  |                                                 |
\*---------------------------------------------------------------------------*/
FoamFile
{
    version     2.0;
    format      ascii;
    class       volScalarField;
    location    "200";
    object      epsilon;
}
// * * * * * * * * * * * * * * * * * * * * * * * * * * * * * * * * * * * * * //

dimensions      [0 2 -3 0 0 0 0];


internalField   nonuniform List<scalar> 
13308
(
4.08468e-07
0.00659516
0.00461182
1.06397e-06
2.1295e-06
5.25498e-07
3.11615e-06
1.6616e-06
3.13111e-06
0.00792386
0.00321618
3.55076e-05
5.47469e-07
1.26981e-06
5.87565e-07
0.0047153
6.40098e-07
0.0069988
0.000142695
0.00525345
1.23612e-06
0.00528305
0.011964
1.86929e-06
0.00475222
0.00781124
2.20988e-06
0.00297784
2.25241e-06
2.49851e-06
0.00665399
2.29019e-06
0.0110652
2.79314e-06
0.0110076
6.41581e-07
3.1248e-06
0.0127186
1.5912e-06
0.00462018
1.48266e-06
1.71622e-06
0.00877774
1.14893e-06
1.57172e-06
0.0008172
6.44457e-07
1.18247e-06
5.79133e-07
0.00447294
1.4058e-06
1.26626e-06
0.00429316
0.00193821
0.00729136
0.00464647
1.14699e-06
1.25149e-06
1.73562e-06
1.71653e-06
2.59085e-05
0.0139749
1.25563e-06
1.56416e-06
1.08791e-06
0.0105604
1.01552e-06
0.00186349
6.28952e-07
5.25296e-06
0.00710972
1.58022e-06
3.39708e-07
2.36044e-06
0.00972138
1.12406e-06
4.6183e-07
0.00472809
1.22051e-06
7.21933e-05
1.38645e-06
4.66702e-07
1.11153e-06
1.80929e-06
0.00103103
1.6727e-06
0.00951924
0.0080149
1.92337e-05
0.0028886
1.54938e-06
1.00881e-06
2.23854e-06
1.24308e-06
1.27102e-06
6.44702e-07
1.72543e-06
7.39073e-05
0.00702302
4.07323e-06
1.54071e-06
1.60208e-06
9.5977e-07
1.25387e-06
0.00703883
0.00659473
0.00470467
7.06949e-07
0.00599517
0.00833664
1.74585e-06
4.5251e-06
9.13316e-07
1.22254e-06
9.27845e-07
0.000192205
0.00128189
0.000142913
2.27033e-06
1.21795e-06
2.04604e-06
1.24553e-06
7.07582e-07
2.57691e-07
0.000143814
2.79677e-06
0.00184716
0.00109062
2.71569e-07
0.00556618
0.00696339
1.38678e-06
1.55923e-06
6.50757e-07
3.04274e-06
4.52985e-07
1.03702e-06
0.000147584
2.44958e-05
1.73496e-06
0.00410176
1.74773e-06
1.43179e-06
9.12581e-07
1.65221e-06
2.13823e-06
1.94924e-05
0.00249731
1.3874e-06
1.48838e-06
0.00800522
1.23701e-06
0.00771105
1.9823e-05
0.0163127
3.1881e-06
7.68981e-07
7.46511e-07
1.50572e-06
0.00275092
0.00782696
1.26622e-06
1.42717e-06
0.0148357
1.25516e-06
1.69697e-06
0.00516475
7.38235e-07
0.00581059
2.0469e-06
1.75687e-06
0.000134306
1.38421e-06
0.00432909
0.00932964
0.0065071
0.0056079
0.0045441
1.54304e-06
8.25273e-07
5.92396e-05
0.00413829
9.91085e-07
0.00788106
0.018427
6.21655e-07
0.00441739
0.00639437
2.57891e-06
0.000797313
0.000339926
0.00576984
1.64863e-06
4.76417e-05
1.67003e-06
0.00677779
1.7555e-06
2.48705e-06
0.0122903
1.70695e-06
0.0047273
0.00425643
0.00252791
2.9308e-06
0.00543991
0.00023023
0.00474906
0.0108917
0.00373319
0.00786921
0.00559239
3.60526e-06
2.41016e-06
0.00415879
0.0114398
1.2035e-06
8.25302e-07
0.00839564
0.00270804
0.0108805
0.00292389
1.0727e-06
1.60141e-06
4.21839e-07
1.26192e-06
0.00492927
1.72775e-06
0.00695848
0.0045714
3.27266e-05
0.00457181
1.2009e-06
0.00454461
0.00180626
9.70766e-07
2.30996e-06
0.0048044
0.000193011
0.0160806
1.2221e-06
1.82644e-06
1.15512e-06
1.25091e-06
4.25261e-07
0.000191122
0.0173888
3.87414e-06
3.89927e-05
4.23377e-07
0.018278
0.0118784
0.0112356
1.56054e-06
0.0135212
0.0125248
1.21733e-06
0.00761926
1.14009e-06
0.00832792
0.00476925
2.48768e-06
5.8208e-06
2.31552e-06
9.65128e-07
1.50973e-06
1.35203e-06
0.000180721
1.57642e-06
0.00307528
0.00464472
5.35767e-06
2.07407e-06
1.30342e-06
4.49324e-06
1.25676e-06
1.18156e-06
6.61718e-07
0.000345443
2.13274e-06
1.78595e-06
0.00717544
1.59448e-06
9.77711e-06
1.21657e-06
0.00651451
0.000998162
9.58153e-07
3.27709e-07
1.82307e-06
0.00926058
2.26965e-06
9.80124e-07
0.00241588
0.00415069
7.86252e-07
0.00928249
0.0042454
2.37063e-06
1.83705e-06
0.0048383
0.0107515
1.1011e-06
0.0075706
0.00340405
0.0049145
5.25479e-07
2.14448e-06
0.00432178
0.00095898
6.16519e-07
9.7621e-05
0.0414511
2.29527e-06
0.00260104
0.0112657
0.00891795
9.61891e-07
7.80092e-07
1.43236e-06
0.00143239
1.51496e-06
4.64634e-07
0.00545243
4.68766e-07
0.0108526
9.26467e-07
1.20729e-06
1.58294e-06
1.58332e-06
1.72464e-06
0.00983819
1.14533e-06
0.00125668
1.03023e-06
6.86685e-07
0.00346228
0.00469674
7.3854e-07
1.68161e-06
0.000536809
1.97645e-06
1.58747e-06
1.23225e-06
2.74039e-06
0.00536447
0.0103902
2.12793e-06
2.12548e-06
3.37081e-06
1.25448e-06
2.43956e-06
0.00750381
0.011841
9.65322e-07
5.86783e-07
1.11985e-06
0.00422516
5.29245e-07
2.02885e-06
0.0125597
0.00929728
3.00848e-06
2.06598e-06
4.58726e-06
0.00413073
0.0114603
1.23653e-06
4.22149e-07
1.25035e-06
1.9492e-06
0.00476688
0.0175838
2.26672e-06
1.40124e-06
1.2383e-06
1.69266e-06
0.0152582
0.0114396
1.39276e-06
0.000400384
1.52055e-06
1.03047e-06
0.000938693
2.20167e-06
6.55557e-07
0.00409926
3.99939e-06
1.73186e-06
1.0053e-06
0.00795393
1.24549e-06
1.24238e-05
2.03311e-06
0.00471243
0.000194754
2.35452e-06
0.00141222
9.52777e-07
0.00469235
1.62886e-06
0.0018948
8.81761e-07
3.89289e-06
0.0110344
4.2921e-07
0.0105476
7.8432e-07
7.06098e-07
0.00705307
0.00663206
6.10507e-07
3.34746e-06
2.06713e-06
9.52198e-07
1.02431e-06
0.0172918
1.50818e-06
1.01176e-06
1.73188e-06
1.7564e-06
2.06943e-06
1.23785e-06
1.94654e-06
1.42301e-06
9.2118e-07
0.00478078
0.000526537
1.66299e-06
0.00186719
0.000996853
0.00234594
6.57017e-07
1.89269e-06
0.0119282
9.40721e-07
4.64793e-07
0.0161121
1.02192e-06
2.32425e-06
0.00458536
0.00448114
0.00650995
0.0045707
1.22835e-06
0.00445299
1.92921e-06
8.93917e-05
0.00425462
9.87533e-07
0.0180296
4.21391e-07
0.00937721
2.81123e-06
0.00587768
1.85603e-06
2.11167e-06
2.09182e-06
4.25779e-05
0.0133144
3.49757e-06
0.00157522
0.00483342
1.12935e-06
0.00773054
1.20999e-06
0.00736553
7.35172e-07
1.41909e-06
1.17835e-06
0.0046806
0.00702966
1.59863e-06
0.0140979
1.46244e-06
2.20732e-06
0.0114442
1.56305e-06
1.73606e-06
0.000157315
1.2198e-06
0.000125622
2.73111e-06
0.000135393
9.45169e-07
2.78664e-06
1.43594e-06
5.49315e-07
0.000164375
1.74777e-06
1.03981e-06
1.0122e-06
2.18075e-06
0.000139918
4.64322e-07
4.28379e-07
1.44064e-06
6.60244e-07
0.00185554
0.007373
0.00977508
0.0154021
0.0062053
0.00980755
0.000284394
1.71096e-06
9.12848e-07
3.92898e-06
0.00456197
1.07083e-06
0.00600949
1.54795e-06
2.68466e-06
1.54788e-06
7.98337e-07
1.85135e-06
2.4928e-06
2.79253e-06
1.54578e-06
1.30281e-06
0.0110571
0.0106878
0.0116699
0.0181908
8.87288e-06
6.7161e-07
0.00344987
1.21593e-06
4.66902e-07
0.00035136
3.04915e-06
2.71888e-06
2.5415e-06
0.0149345
0.00439669
6.14331e-07
0.00530865
0.000642568
0.00428584
4.60566e-07
0.0101697
1.16336e-06
2.00745e-06
1.58909e-06
0.00723082
1.5416e-06
0.0087959
0.00762931
4.80733e-05
1.02767e-06
9.21293e-07
0.0147171
3.74056e-05
0.00696897
4.23623e-06
0.00856044
0.000146349
0.006781
0.00430201
0.0124748
0.00656933
1.34928e-06
1.6156e-06
9.31269e-07
0.00872295
1.20701e-06
0.00185416
0.00404945
1.6055e-06
0.0177777
0.0172549
0.00736762
1.12263e-06
1.19434e-06
1.13165e-06
0.0141382
2.29796e-06
9.66972e-07
1.62765e-06
0.0100598
9.41543e-07
0.00467382
1.60323e-06
1.3428e-06
2.31949e-06
1.56762e-06
1.17615e-06
1.41318e-06
1.87077e-06
1.75078e-06
8.32583e-07
0.000601395
9.40554e-07
4.36718e-07
4.20809e-07
1.18306e-06
0.00621372
0.0110329
9.87912e-07
0.00439125
1.69708e-06
1.14489e-06
1.00595e-06
1.41394e-06
1.07781e-06
1.498e-06
2.12516e-06
9.67345e-07
0.0108304
1.33307e-06
0.00479492
0.00446311
2.06635e-06
2.1403e-06
7.97571e-07
0.00614789
0.0141094
2.1546e-06
6.02457e-07
0.000405911
0.00330296
2.46277e-06
1.39993e-06
5.30089e-07
0.000354986
1.59597e-06
0.00783389
1.38034e-06
1.0904e-06
2.5314e-06
0.00675104
1.21351e-06
0.00679033
0.000315962
0.00451721
2.32701e-05
0.000307668
1.83576e-06
1.55645e-06
0.00664742
0.00582197
6.03237e-07
1.38727e-06
0.00412064
0.00976659
3.0849e-06
0.000572368
1.81182e-06
1.64335e-06
4.21023e-07
0.00147741
0.00297599
9.89388e-07
0.00441006
1.53166e-06
0.00963827
1.54747e-06
1.11007e-06
0.00502346
0.00531465
2.63779e-06
0.000273408
0.00907418
2.29637e-06
0.00566972
1.22048e-06
0.00656214
0.00457417
7.11039e-07
0.00464778
0.00463797
0.011105
5.19051e-07
0.00161954
5.94878e-07
1.00964e-06
0.00597944
0.0116606
0.00172434
8.8224e-05
0.0073597
1.82445e-06
2.08767e-06
1.20288e-06
4.21974e-07
1.39457e-06
6.85574e-07
0.00595052
0.00582527
0.000138988
0.00318091
6.58835e-07
0.00540398
1.18911e-06
0.000301982
1.72265e-05
1.33331e-06
5.64055e-07
9.05878e-07
5.58943e-07
0.0122588
1.01858e-06
0.00771104
0.000803926
2.48686e-06
2.00185e-06
5.1189e-07
0.00766971
0.000321214
0.00114515
1.22794e-06
1.13198e-06
1.16066e-06
0.00618804
1.46535e-06
4.78085e-06
2.11125e-06
1.01853e-06
6.08508e-07
1.53927e-06
9.4052e-07
5.25511e-07
1.72959e-06
2.59328e-05
0.008988
0.000734478
1.28703e-06
3.15999e-06
0.00469521
3.1146e-06
0.0123251
6.29711e-07
1.54468e-06
6.44176e-07
1.45582e-06
0.00449156
1.69408e-06
3.56432e-06
0.00581808
0.00741644
1.76423e-06
1.138e-06
0.00788344
1.44449e-06
0.0119211
1.25335e-06
9.50408e-07
0.00698483
5.15037e-07
4.89556e-07
3.10318e-06
3.13528e-06
0.00565271
0.00501247
0.00637145
0.00718536
6.66974e-07
1.03857e-06
2.02841e-06
0.00155656
7.60497e-06
5.23723e-07
1.59752e-06
1.55658e-06
0.00635804
4.36412e-07
1.61671e-06
0.00535214
0.0060092
2.76094e-06
1.4499e-06
4.67248e-07
1.26445e-06
1.32069e-06
1.76671e-06
4.6867e-07
1.54018e-06
1.11007e-06
0.0129252
4.6715e-07
1.67618e-06
0.0117627
8.21231e-05
1.30813e-06
1.02605e-06
1.18001e-06
0.00321101
0.012692
0.000206708
0.00289531
3.33071e-06
0.00944439
3.01765e-06
0.0059268
1.67543e-06
0.00609492
9.98784e-07
0.00467787
1.25252e-06
1.2802e-06
2.41579e-05
1.41273e-06
1.62183e-06
9.9298e-07
1.72486e-06
8.12831e-07
0.00396377
0.00587871
0.00925774
1.15235e-06
7.91194e-07
0.00567949
5.3324e-07
4.90997e-07
0.000425867
0.00757531
0.000298583
9.81617e-05
0.00452329
1.65827e-06
2.58114e-06
0.00741292
6.42442e-07
1.74809e-06
0.00721638
4.46151e-07
9.28265e-07
0.00984209
0.0049118
1.64115e-06
0.00495132
6.41205e-07
2.03194e-06
2.92672e-06
0.000129092
0.000165939
1.63048e-06
7.74238e-07
1.82788e-06
1.64304e-06
0.000305856
0.00583201
1.39702e-06
0.00888173
0.000311846
3.99013e-06
4.64605e-07
9.44828e-07
0.00475613
1.47489e-06
1.57026e-06
0.00023498
0.0003071
9.3707e-07
0.0120955
0.00996039
0.00415119
6.67239e-05
1.86232e-06
4.95487e-07
4.21483e-07
1.36595e-06
1.28025e-06
0.0045174
0.00585776
1.60505e-06
1.66544e-06
0.000103042
0.0084951
0.00459692
1.61531e-06
0.00422223
1.62505e-06
0.0102562
3.44602e-06
1.70725e-06
1.86266e-06
1.64425e-06
0.00805675
0.0131079
5.87647e-07
0.00492077
0.0169217
0.00422108
0.00970365
2.14047e-06
1.56019e-06
4.93023e-07
0.00436799
9.99912e-07
0.00891657
1.18821e-06
1.53643e-06
1.51682e-06
1.92802e-06
0.00639481
1.55878e-06
0.000607712
0.000139175
9.88393e-05
1.36494e-06
5.94911e-07
0.0164462
1.10101e-06
1.1103e-06
0.00733177
1.08895e-06
1.42527e-06
2.98775e-06
1.74234e-06
4.81259e-07
0.000197949
0.011454
0.00520895
0.00924891
1.01454e-06
1.29816e-06
2.7523e-06
0.000185523
0.00441295
1.45325e-06
0.0102277
1.33064e-06
1.73699e-06
0.0055327
1.38613e-06
5.03905e-07
1.87685e-06
8.56624e-07
1.09332e-06
1.17829e-06
0.00013923
0.0100243
9.21423e-07
0.00121822
0.0144537
2.77877e-06
1.59195e-06
5.07648e-07
1.39957e-06
1.35978e-06
0.000438234
3.76917e-06
0.00468127
0.00499463
0.000384791
1.1816e-06
1.83556e-06
0.00920542
1.91585e-06
1.70352e-06
1.53372e-06
0.000476912
0.00015861
1.17648e-06
0.0070373
0.000334136
7.67552e-07
1.82942e-06
1.43275e-06
3.51508e-06
1.12375e-06
2.01256e-06
1.82829e-06
0.00114586
1.22054e-06
1.69331e-06
0.000184327
1.09135e-06
0.0125949
1.4694e-06
1.5088e-06
1.84641e-06
1.3203e-06
2.18485e-06
1.11835e-06
8.24922e-07
0.00160764
1.19084e-06
0.0149537
1.85613e-06
1.00506e-06
3.52129e-06
0.00703715
8.12812e-07
4.67444e-07
2.37435e-06
0.000543594
1.45053e-06
2.63482e-06
0.00116681
0.00767976
2.40372e-06
2.3437e-06
0.00624511
5.84906e-07
8.10125e-07
0.0109442
6.86981e-05
0.000654949
1.69224e-06
1.55126e-06
8.87548e-07
1.84505e-06
0.00769446
1.61386e-06
1.56145e-06
1.5123e-06
0.0049177
8.1726e-07
9.75263e-07
1.55298e-06
1.00422e-06
6.24016e-05
5.86127e-07
0.00422207
2.20194e-06
0.0145556
0.00860082
1.839e-06
0.00455909
1.54396e-06
0.00953339
7.2931e-05
0.0001253
1.48284e-06
0.00475125
1.5009e-06
2.55468e-06
1.83277e-06
1.42184e-06
0.0101403
1.08162e-06
1.29199e-06
1.0556e-06
1.64279e-06
1.19759e-06
0.0114421
0.0045656
0.00125194
0.00470486
1.61243e-06
0.00478031
6.83668e-07
1.55423e-06
1.45337e-06
1.65896e-06
0.000125064
0.0106632
1.25472e-06
0.00430612
1.14058e-06
0.00941567
0.0175015
0.000345166
1.16661e-06
1.62706e-06
2.57132e-06
5.58117e-07
1.24614e-06
1.05361e-06
0.00572646
1.44773e-06
0.000393544
1.85641e-06
1.45263e-06
0.000196893
1.10682e-06
0.00579627
1.46258e-06
2.39878e-06
0.00465955
0.0082547
1.74302e-06
0.00334732
0.000194332
0.00419336
0.00391206
8.9708e-07
0.00635224
6.0053e-07
0.00313416
1.6889e-06
6.37316e-07
9.23545e-07
0.00619219
0.0112102
0.00501094
4.12784e-05
0.00481923
0.00601868
1.08046e-06
0.00960506
1.59615e-06
1.60382e-06
0.00426205
0.00407154
4.64137e-07
0.00778395
2.91727e-06
1.4781e-06
0.0166063
1.66819e-06
1.05362e-06
0.00468173
1.14371e-06
2.21661e-06
0.0119069
2.75268e-06
0.00467903
1.50204e-06
4.23046e-07
1.67141e-06
0.0068929
1.86084e-06
1.79053e-06
1.72393e-06
7.14773e-07
5.94138e-07
1.83974e-06
0.00543812
4.79695e-07
0.00761799
1.14348e-06
4.04279e-06
0.00418393
1.72025e-06
0.0104723
4.2736e-07
1.4129e-06
0.00633655
1.48587e-06
2.50153e-07
0.00678883
0.00466914
0.011241
1.45462e-06
0.000201673
1.67427e-06
0.00788634
9.05721e-06
2.05819e-06
0.00162791
3.98604e-06
0.00503596
0.00477462
4.84003e-07
3.17085e-06
2.19052e-06
1.21003e-06
1.81171e-06
0.000308311
1.49434e-06
1.59522e-06
1.13e-06
1.68192e-06
1.66203e-06
1.35752e-06
9.14723e-07
1.82417e-06
0.0116991
1.39771e-06
5.22268e-07
0.00636095
1.04425e-06
0.000621754
0.000188691
6.55808e-05
1.61588e-06
0.0140692
9.28103e-07
0.00464027
1.86301e-07
0.00732544
0.00410828
0.000516676
0.000174579
1.43105e-06
1.00091e-06
5.15111e-07
1.63273e-06
1.43271e-06
0.00422974
1.23517e-06
1.04682e-06
0.000366385
0.0111191
3.29969e-06
0.00524319
0.00451529
3.28362e-06
6.24931e-07
4.99656e-07
0.00104638
1.40543e-06
1.85561e-06
0.0132605
1.9323e-06
9.42146e-07
1.37028e-06
1.4973e-06
5.27019e-06
0.0151417
0.00323786
1.50225e-06
1.50091e-06
4.80007e-07
1.55588e-06
1.54836e-06
0.00760522
1.15844e-06
5.88417e-07
1.4196e-06
0.000811449
0.00577771
1.62326e-06
1.10297e-06
1.40123e-06
0.00043856
9.28192e-07
1.91616e-06
2.44446e-06
0.0106398
0.00025476
0.00708564
2.41461e-06
0.000212041
1.85618e-06
0.0172679
1.47479e-06
0.0040726
1.32683e-06
0.00484482
0.0175514
0.00426565
1.55396e-06
0.000747522
1.24971e-06
0.0087938
0.00574714
0.00845237
0.0135066
0.00759465
1.55922e-06
2.42491e-06
0.00504515
1.18594e-06
4.71944e-06
2.25822e-06
0.00423284
0.0138906
0.00565678
0.000655846
0.00461809
1.0027e-06
0.00702706
3.00313e-06
0.00729004
5.03697e-07
5.17153e-06
0.0157572
5.2556e-06
0.0137457
2.13278e-06
0.000195642
1.77519e-06
0.00441787
0.00977021
1.50959e-06
0.00929695
5.26633e-06
1.45e-06
0.000451039
9.97117e-07
2.11331e-06
8.41787e-05
1.66064e-06
0.00473394
0.00772685
8.92488e-07
0.0129976
1.29359e-06
1.10356e-06
0.00815655
0.00810793
0.000755295
0.00428712
9.31019e-07
1.36591e-06
3.38375e-05
5.38824e-07
0.0064925
0.000356722
0.00444117
0.00424603
5.87905e-07
2.49037e-06
4.47292e-07
0.00500056
0.00555888
0.00477446
2.09682e-06
5.42854e-07
0.0101223
3.43742e-06
2.10125e-06
3.56212e-06
1.34098e-06
0.0117523
7.14928e-07
1.66324e-06
1.66911e-06
4.90646e-07
1.33422e-06
1.01569e-06
0.000121214
0.00470116
6.06973e-07
4.7052e-07
0.0048681
0.00960161
3.18738e-06
1.60491e-06
0.0184165
4.75506e-07
0.00497157
0.0100459
0.0132445
1.00771e-06
1.45555e-06
0.000560265
0.0048299
1.80525e-06
1.24844e-06
0.000439093
5.42081e-07
0.000326574
0.00427468
9.63387e-07
0.00775205
0.000465331
1.87e-06
2.64185e-06
8.89747e-07
1.71507e-06
0.00561941
1.71927e-06
1.47582e-06
1.25628e-06
1.6064e-06
2.37798e-05
4.41435e-07
2.68628e-06
0.00443301
1.51884e-06
0.000512737
0.000179778
1.25144e-06
0.017009
1.82293e-06
9.44982e-07
0.00465099
0.00080623
0.00495953
1.34493e-06
0.00809719
6.47466e-07
4.21644e-07
0.000446922
0.00969293
0.00542825
6.22958e-07
0.000294932
1.37322e-06
6.33583e-07
1.32424e-06
0.00487049
0.000423925
0.0044804
1.83589e-06
1.5321e-06
1.84783e-06
0.00777059
0.0113391
0.000416226
0.00838426
6.4755e-07
7.82978e-07
1.32924e-06
2.91316e-06
1.50563e-06
2.18391e-06
0.00671358
1.57858e-06
0.00051605
0.0109032
2.32633e-06
0.00513416
9.21291e-07
1.42463e-06
0.0127011
6.21339e-05
9.10584e-07
7.81161e-07
1.87175e-06
6.54814e-06
0.00407711
0.000231137
0.00855137
3.14116e-06
0.0072825
8.68238e-06
1.71072e-06
5.88204e-07
0.00489007
5.55602e-06
1.53372e-06
1.83016e-06
0.000291813
0.000148564
5.42983e-07
0.00573727
6.63655e-07
5.07201e-07
0.000873448
1.4432e-06
0.0106212
0.0045326
2.93232e-06
0.00173676
0.00464743
1.54452e-06
0.00861372
0.000265145
1.10324e-06
1.95262e-06
1.5761e-06
9.49414e-07
0.00970976
4.99811e-07
0.0104785
1.4879e-06
3.69675e-06
0.000117969
1.25961e-06
0.00711508
1.81891e-06
1.42559e-06
0.00383852
0.000210271
2.73622e-06
5.58914e-07
0.0109061
5.88557e-07
0.0162984
0.0056467
4.63394e-06
4.123e-06
5.57129e-07
0.0083399
1.07685e-06
2.0591e-06
1.71878e-06
3.13218e-05
1.5826e-06
0.00134139
1.3657e-06
0.00889083
5.72115e-07
0.0138513
0.000555019
1.52822e-06
1.25638e-06
7.69732e-05
0.0121623
0.00486852
5.54821e-07
0.00846099
7.73673e-06
1.49115e-06
0.000206171
1.07554e-06
1.93105e-06
0.0147591
0.00693665
3.52028e-06
1.08138e-06
0.000455809
0.00754481
0.0008623
1.65025e-06
5.57173e-07
0.0172284
0.00456066
1.99302e-06
0.000209051
1.48082e-06
0.00418439
1.83503e-06
1.02605e-06
0.00236381
0.0175858
2.15202e-06
2.2104e-06
5.59358e-07
2.00599e-06
1.60462e-06
2.3534e-06
0.0010467
0.00047426
1.48706e-06
4.8019e-07
0.0109864
1.14025e-06
1.03422e-06
1.08899e-06
0.0115159
0.00413401
0.000957413
1.95725e-06
6.01811e-07
6.60812e-07
0.0156386
0.0062737
0.0110091
3.11742e-06
0.0116858
1.55136e-06
0.0115148
2.01934e-06
3.70114e-06
9.26439e-07
7.86495e-07
1.08452e-06
0.00461983
1.02096e-06
9.7406e-07
0.000196642
0.00472121
0.0107998
0.000893943
1.44759e-06
0.00571574
1.13953e-06
0.00709698
1.49362e-06
0.000172868
4.71038e-07
6.44495e-07
0.000105454
0.00022522
1.34012e-06
1.51758e-06
1.28889e-06
0.000221501
2.19772e-06
0.00756217
5.52137e-06
0.0143426
0.00455177
0.0159672
0.00479232
1.14488e-06
0.00440299
6.34437e-06
1.17539e-06
5.87908e-07
1.63539e-06
9.77376e-07
1.32232e-06
1.54966e-06
9.29789e-07
1.47697e-06
1.18728e-06
1.21909e-06
0.000289277
0.00473239
0.0044727
1.19413e-06
9.60086e-07
6.83412e-05
1.37282e-06
0.00469132
1.52333e-06
1.10331e-06
0.0102828
0.00800344
1.79113e-06
1.80687e-06
3.6018e-06
4.6228e-07
2.50678e-05
2.65563e-06
0.00478381
0.0167776
5.52303e-05
1.69084e-06
0.0101533
1.68774e-06
1.07664e-06
2.58185e-06
5.89123e-07
1.83381e-06
1.45098e-06
0.00560058
5.20218e-07
6.00376e-07
0.0133645
8.80039e-07
1.97005e-06
0.00684727
5.8763e-07
0.000449752
5.16274e-07
6.87282e-07
6.27808e-07
0.000200893
1.55794e-06
0.00876463
0.0105871
1.36537e-06
1.21431e-06
1.61403e-06
0.00598578
0.00578166
8.09489e-07
1.271e-06
6.52765e-07
6.82081e-07
7.7115e-07
9.49424e-07
4.64459e-07
2.08127e-06
1.49482e-06
0.0118172
0.00456319
1.93437e-07
1.27689e-06
1.93546e-06
9.38503e-07
0.000185952
0.00192457
0.000997314
0.000169123
1.27304e-06
0.00459771
0.0141992
9.55515e-07
0.00136903
0.000628339
6.83553e-07
6.75078e-07
0.00646638
1.3222e-06
6.73558e-07
2.5399e-06
0.0073898
0.0078087
0.000198169
0.000208027
1.07837e-06
0.00487731
0.00412407
1.49683e-06
1.48283e-06
1.73263e-06
8.37642e-07
2.32113e-06
0.0013588
1.31859e-06
0.000125444
0.00652635
0.00770882
0.0100855
1.11985e-06
0.0072541
1.1605e-06
0.0169591
0.00467378
1.52232e-06
8.09042e-07
0.00625609
1.46965e-06
0.00638645
1.32571e-06
0.00410261
2.42444e-05
0.00120003
1.27251e-06
0.00781019
0.0137446
0.00522024
1.41497e-06
0.00074427
0.0079908
0.0110232
0.00822085
1.49269e-06
0.0145709
0.00416044
0.000214657
0.00732123
0.00417712
0.00479202
0.00432545
0.0143889
0.00690968
0.00452564
8.5842e-07
0.00414237
0.00625634
0.000593299
3.10413e-06
8.12715e-07
0.0167144
1.65612e-06
0.0118411
0.00479
0.0114682
0.00449854
0.00746912
1.57085e-06
9.1211e-07
0.0121965
0.00742523
0.00493544
1.49416e-06
0.000600028
1.47037e-06
0.00422726
0.000391007
0.00398784
0.000198504
1.37014e-06
0.01012
1.60876e-06
0.00723844
9.47546e-07
4.95817e-07
0.013169
1.05678e-06
0.000935795
0.0038512
0.000521293
0.00609511
1.31568e-06
1.08574e-06
0.00740873
0.0122315
1.07064e-06
0.0109647
0.0152472
1.72021e-06
0.00491087
9.06655e-07
1.09391e-06
3.30473e-06
0.000208625
4.88375e-07
0.000986092
1.40753e-06
4.81547e-07
0.00750014
0.00629946
4.78048e-07
0.000266456
0.00849308
0.00900918
0.00464486
1.5949e-06
0.0110182
4.3908e-07
2.50052e-06
0.0143179
1.10139e-06
0.0153778
1.06117e-06
0.0128622
2.06197e-06
0.00114874
0.0069363
0.012773
3.29158e-05
0.000476934
0.000139005
0.0121207
5.46954e-06
0.0180868
6.12027e-07
0.00474679
0.012709
0.00827828
5.74008e-07
4.81585e-07
1.0666e-06
0.0141099
0.000126215
1.40106e-06
0.0171762
0.0116809
0.0067636
0.000120499
5.50588e-06
0.000146233
0.000428609
4.26737e-07
0.000420078
0.00499757
1.65655e-06
0.00659852
7.22476e-07
1.31732e-06
1.57977e-06
0.00832822
0.00457707
9.08429e-07
9.74501e-07
4.6949e-07
0.00409422
0.00860209
0.00403639
0.01089
0.00607515
0.00842494
9.40966e-07
0.000419778
0.00831
8.68962e-07
6.84442e-07
9.98767e-07
8.33728e-07
1.06688e-06
0.00741124
0.0122167
0.0140958
9.06332e-07
1.58041e-06
5.63646e-07
2.08745e-06
4.85646e-06
0.00449178
0.005191
0.000159735
4.39213e-06
1.70315e-06
8.21267e-07
1.65228e-06
0.000120676
0.00570831
4.92818e-07
2.37381e-06
2.08242e-06
0.00432175
0.00303033
0.0100707
0.000529452
1.48783e-06
0.0105536
1.60919e-06
0.00482295
0.00489104
5.67287e-07
0.000538152
0.0154791
0.00697972
2.74134e-06
0.0104016
0.00611413
1.67157e-06
0.00487809
5.45096e-07
4.86218e-07
0.0064708
0.0125245
0.0129643
7.74488e-07
0.0099752
5.02399e-05
0.0050059
0.0163754
9.04247e-07
0.0119384
2.38099e-06
9.73331e-07
0.00484537
8.02961e-07
0.0111045
2.43681e-06
0.00424121
0.00408081
0.000206262
5.81455e-07
2.77493e-06
0.0134285
0.0133203
0.00103111
0.00755052
0.00469828
1.14073e-06
0.000516601
9.96007e-06
1.51324e-06
1.04265e-06
4.06779e-06
7.58598e-06
0.00472175
6.64333e-07
2.78936e-06
0.00464264
7.46161e-07
0.00768054
1.62871e-06
0.0140156
1.70601e-06
7.83965e-07
0.0067424
9.20603e-07
5.60095e-05
1.59672e-06
1.59665e-06
0.00634332
1.42122e-06
1.51973e-06
4.98463e-07
0.00407884
0.000488182
1.60291e-06
0.00488559
0.016698
0.00473386
2.06988e-06
6.99071e-07
0.00409549
1.645e-06
0.000306945
9.31287e-07
0.000158566
0.0108309
1.7247e-06
1.69325e-06
0.000450058
1.71186e-06
1.67131e-06
0.00472693
0.0045611
2.14187e-06
0.00474482
2.04509e-06
0.00877917
0.00429942
7.06172e-07
8.21444e-07
1.32084e-06
0.0104516
0.0141962
0.00819033
0.00687069
0.00551843
0.00480665
0.004743
0.00753444
1.53127e-06
0.0136988
0.014602
1.01798e-06
2.23455e-06
5.80191e-06
1.30747e-06
1.72784e-06
0.00747236
0.00750044
0.012736
1.68291e-06
2.11294e-06
0.00872873
0.0129382
1.79759e-05
2.05219e-05
3.88389e-06
0.00499996
0.00640091
0.0163074
0.000395664
0.00818768
0.00696562
8.41566e-07
0.0143985
8.56689e-07
1.7284e-06
0.0132008
1.38251e-06
9.17675e-07
0.00476187
1.62557e-06
1.65975e-06
0.0105806
9.10744e-07
1.33793e-06
0.00778433
0.00472317
0.00494744
1.37765e-06
0.00420929
6.47926e-07
2.0271e-06
0.00463485
0.0124339
0.00502037
1.00091e-06
0.00475536
1.64175e-06
0.00650489
6.68283e-07
9.99673e-07
7.08642e-07
0.0100156
1.42491e-06
2.5194e-06
0.00793184
1.61171e-06
0.00433703
0.00438747
0.00493599
0.000192356
1.62188e-06
1.16876e-06
0.00520246
0.000477692
1.25628e-06
0.00502999
0.00867761
0.0125279
0.000227044
2.11409e-06
0.00622916
0.0153327
0.000211226
7.54706e-06
0.0076824
6.96373e-07
0.00499799
1.60517e-06
0.000217654
1.48158e-06
0.00597994
0.0137199
0.00476953
0.00681207
0.000420605
1.39909e-06
1.74883e-05
9.51254e-07
0.0174823
6.56457e-07
0.0149171
7.02048e-07
0.00438812
0.000220269
0.00547888
0.00382137
1.46881e-06
0.0140202
7.76037e-07
0.0082019
1.83408e-06
1.68009e-06
0.00483154
9.08526e-07
0.000954461
0.00429009
0.00842296
0.00287944
0.00876098
0.00799491
0.00754134
0.0145538
1.13377e-06
1.40809e-06
0.00041914
1.53214e-06
6.2561e-07
0.000536904
0.00620805
0.00482461
1.57911e-06
0.00883184
7.996e-05
4.47132e-06
0.00497636
0.00853178
1.65137e-06
0.0157992
5.61672e-06
0.00810397
1.82563e-06
0.00462287
0.00669972
2.33913e-06
0.00465298
1.14151e-06
0.00619415
0.0144649
0.0131714
0.00729381
0.00484071
0.0153009
0.000256391
0.00483165
1.12011e-06
0.00651213
1.79267e-06
2.36012e-06
1.5484e-06
0.0179836
0.00380473
1.38901e-06
1.25774e-06
0.00056942
9.3036e-07
5.03391e-07
0.000410441
0.00711642
1.38577e-06
0.00866886
0.0133446
0.0053094
0.00554836
0.00018584
0.0126098
0.000986672
0.00745231
0.0126783
6.18432e-07
0.0148898
0.017339
1.18628e-06
0.00489304
0.00887642
1.86939e-06
0.00476648
2.70768e-06
1.64473e-06
9.5367e-07
0.00518041
0.00646694
2.08732e-06
0.00487452
0.00448583
0.000496742
0.0147915
0.000484499
0.000217684
0.00498726
1.74909e-06
0.00649417
1.5212e-06
0.00474291
1.04489e-06
0.0122514
1.68271e-06
0.00453362
6.86039e-05
1.05351e-06
0.00627868
0.0102712
0.00488294
0.0046532
2.07995e-06
0.00613566
0.0046016
5.54427e-07
0.014551
0.00508186
1.66546e-06
0.00437907
1.45097e-06
0.00412315
1.01156e-06
1.25186e-06
6.07796e-07
0.00774473
0.017107
0.0167512
0.00533951
4.66228e-06
0.000483339
0.00671211
1.00786e-06
1.15784e-06
0.00414047
0.00880867
5.13765e-07
0.0179722
0.00548515
0.00434212
0.0167826
0.0120488
0.0156212
2.02699e-06
0.00463733
9.81276e-07
0.00732555
5.26349e-07
6.40541e-07
0.00488948
0.0114853
1.59763e-06
0.000116817
9.92878e-07
5.8211e-07
4.63984e-07
1.53357e-06
0.00413848
0.0080448
1.02244e-06
0.000218922
0.00807974
1.42838e-06
0.000963143
0.0167169
6.02553e-07
1.00846e-05
1.11116e-06
0.0163702
1.68722e-06
1.51905e-06
9.15947e-07
1.51116e-06
9.80706e-06
5.68851e-07
6.85928e-06
0.00484601
0.00411015
1.9675e-06
1.99429e-06
0.00475451
0.0149629
0.0041922
1.51366e-06
0.00192903
0.0112116
4.23119e-07
0.00882006
0.00606534
0.0162158
5.52905e-06
0.000238015
0.0153683
0.00390962
3.4549e-06
4.54416e-06
0.00446426
0.00396829
0.00439537
0.000182018
0.00199647
0.0116809
0.00018181
0.0140446
1.07071e-06
0.00744123
7.61495e-05
0.00890974
0.0058388
0.00516966
9.10136e-07
0.00527391
1.25616e-06
1.34469e-06
4.94596e-06
2.06345e-06
5.58121e-07
9.15607e-07
0.00633504
0.0168395
0.0073006
0.00779999
0.00829759
2.61664e-05
0.000120394
0.0193366
0.000388112
7.66272e-07
0.00838697
2.00082e-06
0.00617012
0.00543662
0.0166122
0.00195414
0.00814103
0.00778715
0.0117412
2.18196e-06
0.0047664
0.00804128
0.0187134
0.00011007
0.0170871
0.000224448
0.00480846
0.0119034
0.00425306
0.0107898
0.0121128
7.98392e-06
0.0151661
1.74922e-06
0.000277989
1.55871e-06
0.00495056
0.00647011
0.0163754
5.54964e-06
1.32074e-06
0.000203842
0.00632198
5.70435e-06
2.05083e-05
1.84119e-06
5.00773e-07
0.00565901
1.20029e-06
1.38355e-06
0.00854388
2.10237e-06
1.7256e-06
0.00602049
0.008299
0.0147346
4.7076e-07
0.0111448
0.00460332
1.44315e-06
1.6296e-06
1.12634e-06
8.74749e-07
1.54112e-06
2.37597e-06
1.57991e-06
8.70186e-07
0.00985576
0.000214074
0.0189712
0.00704905
0.00499227
4.5455e-06
0.0159035
4.47821e-06
0.00035031
8.13143e-07
4.52867e-05
2.13621e-06
0.00403841
0.00409155
7.83317e-07
0.00534034
2.19119e-06
0.00690085
0.0153556
9.54629e-07
0.00485529
0.00512376
7.89103e-06
0.0109266
0.00496338
5.65367e-06
2.9001e-06
5.21397e-06
1.22856e-05
1.21934e-06
5.32479e-06
0.00694131
0.0013886
0.00471631
0.00741373
7.57929e-06
1.96871e-05
0.00020251
0.00643199
0.00697134
1.1211e-05
2.00801e-06
0.00856506
1.49637e-06
0.00900809
0.0125245
0.000322437
0.00504224
8.04116e-07
0.000444514
0.00585242
1.06456e-06
0.00513381
0.00424483
0.0126804
4.46232e-06
5.60772e-07
0.000628935
0.00950615
1.43698e-06
1.24414e-06
0.00433284
1.40859e-06
2.18374e-06
1.65868e-06
4.64582e-06
0.0085095
0.00110552
0.00648997
1.98766e-06
0.00720457
0.0118439
2.50144e-05
0.000742372
1.13849e-06
0.00556955
0.00497707
1.94665e-06
1.9835e-06
1.9591e-06
5.9164e-06
2.75794e-06
1.04365e-06
3.10751e-05
0.00511505
0.00458288
2.57797e-06
2.15392e-06
0.00864287
0.0155516
0.000377827
0.0103732
0.00478567
0.00561184
4.32661e-07
2.28614e-06
0.0041841
1.34073e-06
0.00648074
0.00626727
2.22533e-06
2.1655e-06
0.00416652
0.0113854
1.67691e-06
0.0145772
6.98904e-07
1.72316e-06
0.00558773
0.000257236
1.72855e-06
2.03724e-06
6.0008e-05
0.00743635
0.0084156
0.00797331
0.0066933
0.00882716
1.61691e-06
2.19794e-06
0.014168
0.00428158
0.00701124
0.000290513
1.09418e-06
0.00467634
3.00801e-06
0.0170372
0.00580158
1.52828e-06
2.13176e-06
2.09923e-06
0.0111431
0.00518558
0.0124102
8.98194e-07
4.79273e-06
0.00329445
0.00478197
0.0118324
2.06702e-06
5.41503e-07
3.40756e-06
0.00503275
0.00593024
1.46468e-06
0.0157089
0.00848562
7.76659e-05
4.40938e-07
0.00863953
0.00816487
8.44125e-07
0.0084526
2.15796e-05
0.00699538
8.07101e-07
1.92563e-06
1.388e-06
0.01192
0.00744472
0.00593287
0.00434238
1.91924e-06
5.72443e-05
7.66617e-07
0.000149742
0.00266281
0.00608222
0.000313744
1.65862e-06
8.8408e-07
5.53211e-06
1.96008e-06
1.45607e-06
2.10962e-06
4.31184e-07
0.000511776
8.0606e-07
0.00431531
2.05993e-06
1.34757e-06
0.000252927
8.81028e-07
4.28063e-07
0.00471378
7.17715e-07
3.85495e-06
1.2697e-06
0.00852867
0.0185748
0.00752301
4.59279e-07
7.58421e-07
0.00510286
0.00742622
0.0127662
0.00810931
0.00616324
0.00403178
1.93881e-06
1.34919e-06
0.00472259
0.00118701
4.61422e-06
0.00768764
1.9711e-06
1.6916e-06
1.91419e-06
1.98113e-06
0.00806853
1.13742e-06
1.63583e-06
0.00732222
1.64502e-06
0.00634156