/*--------------------------------*- C++ -*----------------------------------*\
| =========                 |                                                 |
| \\      /  F ield         | OpenFOAM: The Open Source CFD Toolbox           |
|  \\    /   O peration     | Version:  v2012                                 |
|   \\  /    A nd           | Website:  www.openfoam.com                      |
|    \\/     M anipulation  |                                                 |
\*---------------------------------------------------------------------------*/
FoamFile
{
    version     2.0;
    format      ascii;
    class       volScalarField;
    location    "200";
    object      k;
}
// * * * * * * * * * * * * * * * * * * * * * * * * * * * * * * * * * * * * * //

dimensions      [0 2 -2 0 0 0 0];


internalField   nonuniform List<scalar> 
13308
(
4.35327e-05
0.0607019
0.0476377
7.80827e-05
0.000109555
5.14507e-05
0.000145594
9.21822e-05
0.000145376
0.0724873
0.0442682
0.00112744
5.26246e-05
7.94236e-05
5.50355e-05
0.0470189
5.83085e-05
0.0613051
0.00225862
0.0361701
8.0421e-05
0.060285
0.0899196
0.000100376
0.046374
0.0711203
0.000113232
0.0416147
0.0001146
0.000124889
0.0645264
0.000117226
0.0864425
0.000133026
0.0913755
5.7158e-05
0.00014564
0.0919917
9.07575e-05
0.045987
8.55878e-05
9.35455e-05
0.0805177
7.54548e-05
9.02188e-05
0.00543812
5.81029e-05
8.35634e-05
5.32924e-05
0.0457764
8.8697e-05
8.00089e-05
0.0483812
0.0281872
0.0252646
0.0291091
7.54031e-05
7.96042e-05
9.58218e-05
9.51649e-05
0.00343405
0.0925751
7.97199e-05
8.86231e-05
7.63585e-05
0.0848575
7.07559e-05
0.0116401
5.65373e-05
0.000182902
0.0726915
9.03717e-05
4.1199e-05
0.000119908
0.053411
7.5217e-05
4.69723e-05
0.0271666
7.81094e-05
0.00278616
8.39371e-05
4.7254e-05
7.47951e-05
9.83588e-05
0.00760928
9.25173e-05
0.0232816
0.0750145
0.000529433
0.021774
8.8791e-05
7.04716e-05
0.00011442
8.09172e-05
8.17301e-05
5.6439e-05
9.38483e-05
0.0028374
0.0743956
0.000179604
8.84334e-05
8.96155e-05
6.98123e-05
8.14387e-05
0.0704394
0.0632054
0.0492859
6.08078e-05
0.0604487
0.0735266
9.50046e-05
0.000185329
6.8521e-05
7.81386e-05
6.9142e-05
0.00314169
0.00848188
0.00278065
0.000115383
7.86049e-05
0.000106916
8.14755e-05
5.87923e-05
3.24643e-05
0.00573414
0.000144927
0.0128042
0.00839259
3.74395e-05
0.0384067
0.074002
8.6651e-05
8.84795e-05
5.67546e-05
0.000142174
4.35874e-05
7.14889e-05
0.00576756
0.000377999
9.41072e-05
0.0410074
9.49875e-05
8.46095e-05
6.86206e-05
9.2186e-05
0.000116035
0.000965694
0.0184796
8.39405e-05
9.11785e-05
0.02704
8.20588e-05
0.0707087
0.00200706
0.0871673
0.000114232
6.37723e-05
6.0455e-05
8.63326e-05
0.034809
0.0732234
8.00353e-05
8.44708e-05
0.0941981
9.02064e-05
0.000100415
0.0592719
6.00993e-05
0.0593377
0.000106172
9.51883e-05
0.00245522
8.82083e-05
0.0426693
0.0219123
0.0664225
0.0623594
0.0469469
9.34856e-05
6.58269e-05
0.0022142
0.0486125
6.99831e-05
0.0698383
0.0915297
5.4896e-05
0.0312126
0.0652521
0.000127573
0.00911633
0.00350847
0.0401369
9.2221e-05
0.00219846
9.26316e-05
0.0677786
9.51254e-05
0.000151174
0.0763209
9.32825e-05
0.0493996
0.0483067
0.0355179
0.000138209
0.0399206
0.000254309
0.0432499
0.0593411
0.0333098
0.0237616
0.047818
0.000163978
0.000118815
0.0423847
0.0832839
7.98823e-05
6.60999e-05
0.0750461
0.0337284
0.0600625
0.0413427
7.62226e-05
9.6583e-05
4.48082e-05
8.22392e-05
0.0465466
9.90335e-05
0.0683257
0.028618
0.000838369
0.0421436
8.01818e-05
0.0464416
0.0125806
6.28747e-05
0.000115139
0.058091
0.00810641
0.0861436
8.13712e-05
9.90808e-05
6.29765e-05
8.11501e-05
4.50171e-05
0.00645254
0.0922744
0.000174543
0.00087787
4.48988e-05
0.0895323
0.0843399
0.0866614
8.81507e-05
0.0912799
0.081801
8.06303e-05
0.0715886
7.86726e-05
0.0751797
0.0277404
0.000124479
0.000428242
0.000115393
6.94724e-05
9.51929e-05
8.52462e-05
0.00550737
8.89634e-05
0.0429931
0.0504874
0.000196723
0.000107947
8.12883e-05
0.00012176
7.93041e-05
8.08775e-05
5.74262e-05
0.0104866
0.000109598
0.000103479
0.0699304
9.17889e-05
0.00029657
8.07134e-05
0.0666914
0.00975007
6.9253e-05
3.80453e-05
0.000114024
0.0719673
0.000115694
6.95085e-05
0.0127379
0.048824
6.22184e-05
0.0846176
0.0299482
0.000120641
0.000108469
0.0470493
0.0852157
7.63809e-05
0.0697421
0.0228783
0.0316323
5.10314e-05
0.000111697
0.0432412
0.0080919
5.46364e-05
0.00211632
0.0406194
0.000116432
0.0365753
0.0941241
0.0207832
7.14189e-05
6.19659e-05
8.45376e-05
0.00878405
8.62665e-05
4.72174e-05
0.0381038
4.73314e-05
0.0409491
6.92108e-05
8.03244e-05
8.93309e-05
9.06088e-05
0.000101974
0.0814198
7.55776e-05
0.00986352
7.16519e-05
5.96174e-05
0.0360921
0.0498506
6.0144e-05
9.71607e-05
0.0044221
0.000103847
8.94187e-05
7.82731e-05
0.000131467
0.0517951
0.0805723
0.000117994
0.000113256
0.000137705
8.09714e-05
0.00011985
0.0751837
0.0960883
6.89494e-05
5.30824e-05
7.52324e-05
0.0481577
5.11043e-05
0.000116635
0.0843209
0.0828912
0.000141061
0.000106931
0.000189101
0.0509774
0.0848504
7.83932e-05
4.48671e-05
7.9596e-05
0.000102064
0.0509176
0.0459616
0.000297344
8.87081e-05
7.91916e-05
9.88077e-05
0.0951662
0.0865119
8.42995e-05
0.0118669
8.82748e-05
7.1677e-05
0.019257
0.000112057
5.71143e-05
0.0500977
0.000170177
9.60292e-05
7.03109e-05
0.0691163
8.05522e-05
0.000514539
0.000114936
0.0488567
0.00358771
0.000119928
0.0220447
6.84676e-05
0.0460178
9.08693e-05
0.0247122
6.88599e-05
0.000174222
0.0836979
4.5329e-05
0.0896452
6.44914e-05
5.87266e-05
0.0745041
0.0661646
5.52152e-05
0.000303468
0.000166713
6.84463e-05
7.10987e-05
0.0950244
8.78506e-05
7.06533e-05
9.58748e-05
0.00010297
0.000109879
7.92392e-05
0.000102791
8.50869e-05
6.87442e-05
0.05037
0.00431535
9.24153e-05
0.0275039
0.0206395
0.0212612
5.65133e-05
0.000109406
0.089844
6.83192e-05
4.71261e-05
0.0961893
7.09578e-05
0.000117636
0.04496
0.0472494
0.0683669
0.0477854
7.88905e-05
0.055137
0.00010137
0.0018158
0.0488622
6.96633e-05
0.0895702
4.52306e-05
0.082756
0.000156797
0.066273
9.9843e-05
0.000110313
0.000107727
0.000227765
0.0933654
0.000159577
0.0209771
0.058164
7.66779e-05
0.0723386
7.82525e-05
0.0178694
5.99943e-05
8.50567e-05
7.66726e-05
0.0517775
0.0399856
8.97348e-05
0.0950191
8.61585e-05
0.000444508
0.0860617
9.41249e-05
9.47401e-05
0.00649585
7.78396e-05
0.00553927
0.000136686
0.00591796
6.85269e-05
0.000136892
8.54353e-05
5.19979e-05
0.00589094
9.51172e-05
7.16046e-05
7.06831e-05
0.000113045
0.00510859
4.70985e-05
4.52809e-05
8.56094e-05
5.87809e-05
0.0274771
0.0745096
0.0837944
0.0722728
0.0202246
0.0871238
0.00776441
9.52923e-05
6.7513e-05
0.000174722
0.0477926
7.60218e-05
0.061034
9.39529e-05
0.000145306
8.90774e-05
6.27409e-05
9.98169e-05
0.000122015
0.000132559
9.0914e-05
8.96973e-05
0.0846036
0.0832743
0.0953044
0.0916871
0.000374119
5.81312e-05
0.0176388
7.77427e-05
4.72389e-05
0.0113923
0.000151819
0.000134044
0.000123748
0.0933819
0.0523476
5.45388e-05
0.0522663
0.0137637
0.0477886
4.68859e-05
0.0549413
7.59401e-05
0.000114781
8.92686e-05
0.0722692
8.89017e-05
0.0419158
0.0753622
0.00111433
7.11348e-05
6.77534e-05
0.09332
0.000998617
0.0730542
0.000156217
0.0747661
0.00622131
0.0698556
0.0299069
0.0916738
0.0689152
8.40444e-05
9.00509e-05
6.81022e-05
0.0758815
7.7632e-05
0.0102052
0.0310255
8.99345e-05
0.090066
0.0846188
0.0735123
7.45714e-05
7.71958e-05
7.48903e-05
0.0921463
0.000116865
6.9007e-05
9.07659e-05
0.0849902
6.90595e-05
0.0495484
9.62614e-05
8.30788e-05
0.000119348
8.87092e-05
7.63977e-05
8.4052e-05
0.000102768
9.65186e-05
6.66125e-05
0.0143781
6.7997e-05
4.59481e-05
4.47461e-05
8.09579e-05
0.0605376
0.0849936
6.98301e-05
0.0323969
9.30405e-05
7.93793e-05
7.04507e-05
8.65403e-05
7.5331e-05
8.75946e-05
0.000109171
6.90449e-05
0.082387
8.3384e-05
0.0508967
0.047339
0.000106829
0.000110014
6.50996e-05
0.0680051
0.0908569
0.000111899
5.48374e-05
0.0124725
0.035951
0.000124838
8.36506e-05
4.86842e-05
0.0104729
9.5936e-05
0.0186747
8.36131e-05
7.41042e-05
0.000126686
0.020758
8.10859e-05
0.0701497
0.009735
0.0442682
0.000642299
0.0101725
0.000101464
8.96611e-05
0.0462772
0.0596272
5.47725e-05
8.33127e-05
0.0312133
0.0867649
0.000141881
0.0123663
9.7744e-05
9.1252e-05
4.47568e-05
0.0226806
0.0204836
7.15652e-05
0.0529409
8.83426e-05
0.0836644
8.80944e-05
7.41295e-05
0.0303877
0.0620507
0.000128036
0.00909842
0.0880354
0.000118574
0.0326223
8.13489e-05
0.0386034
0.0472778
6.09154e-05
0.04544
0.0487717
0.0698194
5.03409e-05
0.0192895
5.54416e-05
7.04967e-05
0.0600001
0.0721191
0.0114813
0.00216836
0.0582937
9.88465e-05
0.000117913
8.12537e-05
4.48095e-05
8.57188e-05
5.98497e-05
0.0594945
0.0591126
0.00090397
0.0227392
5.65594e-05
0.0374649
7.96817e-05
0.00155999
0.000342107
8.27249e-05
5.22657e-05
6.71947e-05
5.20195e-05
0.0906349
7.12527e-05
0.0767095
0.0121958
0.000124818
0.000104699
4.99756e-05
0.0772731
0.00968417
0.0193001
7.89659e-05
7.49856e-05
7.58793e-05
0.0243699
8.75681e-05
0.000193215
0.000109321
7.12554e-05
5.42464e-05
8.77874e-05
6.80015e-05
5.07815e-05
9.46426e-05
0.0010502
0.0705743
0.00497947
8.00999e-05
0.00015692
0.0464721
0.000143071
0.0871643
5.6144e-05
8.87196e-05
5.68913e-05
8.58506e-05
0.0442622
9.47174e-05
0.000170593
0.0580507
0.0766794
9.52848e-05
7.51114e-05
0.0769684
8.53765e-05
0.0838114
7.92018e-05
6.87816e-05
0.0551115
5.07031e-05
4.85149e-05
0.000146478
0.00014551
0.0260755
0.0594225
0.0674799
0.0664336
5.86999e-05
7.52548e-05
0.000106387
0.0241466
0.00026441
5.08543e-05
8.96275e-05
8.25074e-05
0.0612375
4.58233e-05
9.00857e-05
0.0623676
0.0614372
0.000131966
8.55998e-05
4.72592e-05
7.95302e-05
8.15628e-05
9.5399e-05
4.73315e-05
8.84029e-05
7.4849e-05
0.0886517
4.73359e-05
9.82154e-05
0.0833483
0.00182776
8.67991e-05
7.19569e-05
7.67429e-05
0.0237334
0.0807231
0.00546833
0.0315756
0.000139314
0.0841485
0.000151963
0.0590531
9.40112e-05
0.0460656
7.0409e-05
0.0437624
7.89131e-05
8.21501e-05
0.00119358
9.22214e-05
9.03426e-05
6.99796e-05
9.46078e-05
6.60639e-05
0.0328154
0.0464252
0.0763687
7.94162e-05
6.24625e-05
0.0397233
5.13837e-05
4.8599e-05
0.0126133
0.0753431
0.00841546
0.00384163
0.042552
9.21576e-05
0.000152956
0.0764203
5.57795e-05
9.65857e-05
0.0707392
4.67695e-05
6.80715e-05
0.0805761
0.0520344
9.07727e-05
0.0593972
5.57213e-05
0.000106686
0.000150057
0.00501453
0.0065416
9.52182e-05
6.40706e-05
9.98329e-05
9.1835e-05
0.00943623
0.0276379
8.34332e-05
0.0862347
0.00810234
0.000169333
4.71106e-05
6.85208e-05
0.0444
9.06752e-05
9.19773e-05
0.00798442
0.00757258
6.81406e-05
0.0843334
0.0846717
0.0516512
0.00225068
0.000107528
4.89994e-05
4.48012e-05
8.31598e-05
8.22072e-05
0.0476003
0.0602404
9.46141e-05
9.79623e-05
0.00308921
0.0749379
0.0432753
9.00266e-05
0.0485816
9.11521e-05
0.0827617
0.000157534
9.45375e-05
0.000109141
9.12818e-05
0.0358084
0.101186
5.26994e-05
0.0531607
0.0808554
0.0283602
0.0837375
0.000110448
9.16107e-05
4.88212e-05
0.0476875
7.0261e-05
0.0739655
7.73339e-05
8.8092e-05
8.7335e-05
0.000102163
0.0202053
8.83783e-05
0.0100867
0.00593342
0.00230666
8.59737e-05
5.35889e-05
0.0966599
7.45842e-05
7.49604e-05
0.0709306
7.34106e-05
8.44243e-05
0.000144264
9.50559e-05
4.82248e-05
0.00682866
0.0827072
0.0235596
0.0812866
7.06406e-05
8.52373e-05
0.000132036
0.000630657
0.0465247
8.52435e-05
0.0818237
8.25251e-05
9.50023e-05
0.0540011
8.30704e-05
4.93928e-05
0.000100982
6.64276e-05
7.35555e-05
7.72988e-05
0.00585395
0.0799209
7.02102e-05
0.0190805
0.0680692
0.000140902
9.15006e-05
4.96978e-05
8.37324e-05
8.2902e-05
0.013341
0.000169581
0.0525999
0.059536
0.0118023
7.7058e-05
9.87681e-05
0.0411355
0.000100987
9.45605e-05
8.81171e-05
0.01045
0.00642982
7.71678e-05
0.0626195
0.0108455
6.38188e-05
9.83944e-05
8.46178e-05
0.000155206
7.82076e-05
0.000115211
9.85686e-05
0.0143844
8.35781e-05
9.29923e-05
0.00776308
7.42962e-05
0.0960737
9.05473e-05
8.79759e-05
0.000100665
8.217e-05
0.000111322
7.44157e-05
6.6517e-05
0.0236262
7.70248e-05
0.0892182
0.000100146
7.24706e-05
0.000147186
0.0740176
6.32769e-05
4.72943e-05
0.000121756
0.0116373
8.55964e-05
0.000133262
0.0180769
0.079225
0.000118476
0.000116182
0.0198399
5.33873e-05
6.40443e-05
0.057976
0.00179329
0.011775
9.27357e-05
9.25634e-05
6.9041e-05
0.000101172
0.0245556
9.08298e-05
8.84305e-05
9.10099e-05
0.0581798
6.34924e-05
6.93758e-05
8.94355e-05
7.24226e-05
0.00238283
5.34333e-05
0.031388
0.000112115
0.0931505
0.0770761
0.000101048
0.0546007
8.91552e-05
0.0833039
0.0028247
0.00474721
8.75537e-05
0.0471856
9.00272e-05
0.000130459
9.94715e-05
8.6315e-05
0.0827232
7.38694e-05
8.55524e-05
7.56479e-05
9.91733e-05
8.24756e-05
0.0855147
0.0562164
0.0195213
0.0460289
9.03134e-05
0.0539976
5.77437e-05
8.82862e-05
9.14605e-05
9.1681e-05
0.00108527
0.0908908
7.88062e-05
0.0532668
8.0622e-05
0.0826115
0.0933467
0.00548402
7.66479e-05
9.03628e-05
0.000124975
5.18238e-05
8.22558e-05
7.24537e-05
0.0632857
8.72844e-05
0.00922012
0.000110184
8.80827e-05
0.00764851
7.60837e-05
0.0586148
8.62012e-05
0.000122387
0.0265493
0.0736453
9.61271e-05
0.0443585
0.00766065
0.0524926
0.0412931
6.68865e-05
0.0667232
5.46288e-05
0.0300901
9.27198e-05
5.6454e-05
6.75979e-05
0.0257802
0.0834772
0.0353665
0.00130519
0.0516052
0.0653279
7.31053e-05
0.0436301
9.38356e-05
9.04738e-05
0.0531973
0.0491362
4.71135e-05
0.065457
0.000140897
8.58149e-05
0.0949049
9.18887e-05
7.24678e-05
0.049296
7.59685e-05
0.000113875
0.0901849
0.000131348
0.049162
8.68999e-05
4.48708e-05
9.2601e-05
0.068004
0.000101872
0.00010151
0.000102723
5.91215e-05
5.35772e-05
0.000100615
0.0488045
4.80905e-05
0.0627298
7.59532e-05
0.000176292
0.0514154
9.45788e-05
0.0850726
4.51705e-05
8.59641e-05
0.0626477
8.64638e-05
3.56111e-05
0.0690681
0.0470166
0.0926974
8.75295e-05
0.00798139
9.25219e-05
0.0805242
0.000304348
0.000107522
0.0249011
0.00017333
0.0342475
0.0540017
4.83844e-05
0.000146961
0.000112165
8.27651e-05
9.86019e-05
0.00857628
8.6548e-05
8.95602e-05
7.55044e-05
9.24478e-05
9.1723e-05
8.225e-05
6.72267e-05
9.74503e-05
0.0616543
8.73097e-05
5.05552e-05
0.0487825
7.5983e-05
0.0132738
0.00726199
0.00250575
9.01425e-05
0.093466
6.94336e-05
0.0547353
3.27823e-05
0.0702756
0.033299
0.0081925
0.00501787
8.49498e-05
7.07872e-05
5.01007e-05
9.14424e-05
8.72848e-05
0.0442205
7.85941e-05
7.53161e-05
0.00490237
0.0711531
0.000150924
0.0252492
0.047192
0.000153279
5.59013e-05
4.92836e-05
0.0128692
8.46656e-05
0.000101392
0.0934095
0.00010249
6.83386e-05
8.35256e-05
8.58808e-05
0.000208026
0.0911774
0.0438859
9.16961e-05
8.79721e-05
4.8088e-05
8.83289e-05
8.85201e-05
0.0714644
7.85484e-05
5.32929e-05
8.50604e-05
0.0188792
0.0582123
9.03666e-05
7.39134e-05
8.7319e-05
0.0136999
6.77733e-05
0.000101133
0.000120149
0.0863761
0.00745825
0.0704281
0.000119113
0.00822002
0.000101404
0.0938616
8.89381e-05
0.0497018
8.15821e-05
0.0560076
0.0958118
0.0525269
8.8765e-05
0.0175381
8.09244e-05
0.0761989
0.05775
0.0739732
0.104502
0.0729133
9.23845e-05
0.000119786
0.0301553
8.04134e-05
0.000183431
0.000119163
0.0479982
0.0947289
0.0631928
0.0156886
0.0332273
7.08359e-05
0.0695813
0.00014344
0.0175002
4.95323e-05
0.000199035
0.0939084
0.000207034
0.0926676
0.000110923
0.00752073
9.88495e-05
0.0280583
0.084084
8.85053e-05
0.0750473
0.000256105
8.5804e-05
0.0105504
7.32237e-05
5.41002e-05
0.000583668
9.35178e-05
0.0392221
0.0732089
6.66084e-05
0.0927587
8.75618e-05
7.39084e-05
0.070141
0.0738447
0.0132438
0.0450511
6.79506e-05
8.27058e-05
0.000816805
5.10942e-05
0.0688022
0.00827739
0.0545782
0.052834
5.44003e-05
0.00012212
4.6881e-05
0.0375197
0.0411464
0.0324271
0.000110114
5.12809e-05
0.0463718
0.000165662
0.000108377
0.000175422
8.20048e-05
0.0742743
5.91092e-05
9.21084e-05
9.66382e-05
4.86608e-05
8.29009e-05
7.36274e-05
0.00458004
0.0541362
5.41806e-05
4.74932e-05
0.055057
0.0786184
0.000149139
9.2239e-05
0.0937646
4.78342e-05
0.0541139
0.0848941
0.0920148
7.08885e-05
8.58529e-05
0.012123
0.0509379
0.000105588
7.88052e-05
0.0128405
5.10606e-05
0.00828884
0.0342619
6.89183e-05
0.0745598
0.00791951
0.000102927
0.000127231
6.84219e-05
9.4533e-05
0.045584
9.74915e-05
0.000142963
7.92124e-05
8.9924e-05
0.000343589
4.61825e-05
0.000134116
0.046757
8.76925e-05
0.00771081
0.00711827
7.91375e-05
0.094935
9.58208e-05
6.83773e-05
0.0538352
0.0167399
0.0571766
8.2429e-05
0.0757093
5.63919e-05
4.47974e-05
0.0130365
0.0776204
0.0626281
5.49268e-05
0.00853709
8.27724e-05
5.85868e-05
8.1527e-05
0.057261
0.0094066
0.03512
0.000101652
9.12756e-05
0.000101544
0.0352019
0.0880603
0.0130157
0.0817111
5.64504e-05
6.30367e-05
8.16973e-05
0.000136522
8.90873e-05
0.000116568
0.0700201
8.89871e-05
0.0124201
0.0853853
9.76384e-05
0.0384799
6.78119e-05
9.15229e-05
0.0893148
0.00182216
6.70738e-05
6.22065e-05
0.000104507
0.000251026
0.049708
0.00690594
0.0719462
0.00014891
0.0689679
0.000220156
9.45219e-05
5.4933e-05
0.0534712
0.000215531
8.78331e-05
0.000100861
0.00873967
0.00609148
5.10965e-05
0.0524628
5.74238e-05
4.96193e-05
0.0159422
9.14018e-05
0.0856796
0.0542347
0.000136564
0.0209754
0.048875
8.87052e-05
0.0711972
0.00792557
7.32646e-05
0.000103174
9.28581e-05
6.88401e-05
0.0831799
4.92005e-05
0.0855797
9.26049e-05
0.000262536
0.00355035
7.9326e-05
0.0738986
9.90121e-05
8.00921e-05
0.0337975
0.00286551
0.000130521
5.21065e-05
0.0867919
5.35987e-05
0.0969077
0.0354298
0.0001899
0.000165129
5.1782e-05
0.0803619
7.32412e-05
0.000108013
9.50758e-05
0.000704124
8.90619e-05
0.0136938
8.26159e-05
0.038969
5.34414e-05
0.0916907
0.0134207
9.29632e-05
8.16712e-05
0.000592874
0.0890923
0.0568344
5.18234e-05
0.0790193
0.000267422
8.66281e-05
0.00808587
7.29453e-05
0.000101579
0.0900653
0.0208585
0.000158854
7.33269e-05
0.00824922
0.0769258
0.0139132
9.20021e-05
5.20123e-05
0.0944546
0.0278267
0.000105247
0.00813741
8.81077e-05
0.0507988
9.78304e-05
7.14313e-05
0.0130139
0.0949859
0.000112775
0.000114383
5.20393e-05
0.000105406
9.04547e-05
0.000118097
0.0221877
0.00685866
9.00034e-05
4.80232e-05
0.0838627
7.57965e-05
7.17873e-05
7.36451e-05
0.0519301
0.0428301
0.0134812
0.000102855
5.39229e-05
5.78508e-05
0.0944236
0.0691495
0.0853445
0.000142577
0.0850392
9.53182e-05
0.0822557
0.000106524
0.000170341
6.77488e-05
6.24994e-05
7.34744e-05
0.0521472
7.12487e-05
7.1884e-05
0.00302548
0.0486613
0.0859881
0.0203074
8.50877e-05
0.0359989
7.90763e-05
0.0658525
8.6429e-05
0.00667683
4.75915e-05
5.66304e-05
0.00528116
0.00581636
8.22304e-05
8.7362e-05
7.99043e-05
0.00874775
0.000113349
0.0371894
0.000214242
0.088745
0.0513305
0.096492
0.0466538
7.56162e-05
0.0534705
0.000169937
8.25604e-05
5.4036e-05
9.16073e-05
6.94179e-05
8.15921e-05
8.80981e-05
6.75905e-05
8.65533e-05
7.73424e-05
8.16236e-05
0.00696498
0.0476762
0.0461679
7.76375e-05
6.91475e-05
0.00230866
8.28264e-05
0.048151
8.73103e-05
7.80542e-05
0.0657307
0.071178
9.95698e-05
8.68754e-05
0.000151031
5.03882e-05
0.00054469
0.000127931
0.0518355
0.0957103
0.00257108
9.3967e-05
0.0775032
9.2721e-05
7.3253e-05
0.000125621
5.36169e-05
0.000100224
8.58912e-05
0.0545812
5.05242e-05
5.38566e-05
0.0854537
6.6068e-05
0.000104085
0.0673827
5.3281e-05
0.0112422
5.02404e-05
5.85441e-05
5.5898e-05
0.00779633
8.83352e-05
0.080324
0.0786511
8.26444e-05
8.38825e-05
9.22914e-05
0.0617062
0.0629824
6.32088e-05
7.93591e-05
5.65991e-05
5.76764e-05
6.14975e-05
6.85421e-05
4.7108e-05
0.000109351
8.6464e-05
0.0964954
0.0455487
3.1471e-05
8.0347e-05
0.000102036
7.04076e-05
0.0068054
0.0133245
0.0209994
0.00668471
7.93775e-05
0.0527883
0.0953167
6.89082e-05
0.0207318
0.0133325
5.83063e-05
5.73395e-05
0.0705163
8.24287e-05
5.72821e-05
0.00012849
0.0759112
0.0740655
0.00762169
0.00624763
7.87174e-05
0.0346418
0.0485934
8.88996e-05
8.7998e-05
9.4985e-05
6.42198e-05
0.000117072
0.0126757
8.1046e-05
0.00357252
0.0689352
0.0763878
0.0902976
7.51648e-05
0.0755056
7.66273e-05
0.0954697
0.0465772
8.72789e-05
6.31957e-05
0.0665167
9.05529e-05
0.0468163
8.17712e-05
0.0486093
0.000407695
0.0162069
8.00948e-05
0.0695191
0.0907305
0.037335
8.7077e-05
0.0124918
0.0390211
0.087784
0.0774446
9.04579e-05
0.0920971
0.0498608
0.0068719
0.0721991
0.0481798
0.0505019
0.0525516
0.0691415
0.0693609
0.0316089
6.7468e-05
0.0481989
0.0685116
0.0128722
0.00014475
6.30082e-05
0.0930724
9.59795e-05
0.0974016
0.050352
0.0946079
0.0328054
0.076756
8.87915e-05
6.70828e-05
0.0909077
0.0766367
0.0544282
8.79516e-05
0.0126894
8.62733e-05
0.0313896
0.0109893
0.039345
0.00778445
8.278e-05
0.0756805
9.36162e-05
0.0743192
7.14908e-05
4.90279e-05
0.0882003
7.52197e-05
0.0104203
0.0286079
0.0129986
0.0460277
8.13383e-05
7.34698e-05
0.0702744
0.0888466
7.29009e-05
0.0812781
0.0801248
9.49601e-05
0.0590951
6.68432e-05
7.45994e-05
0.000155465
0.00363904
4.85975e-05
0.0202392
8.4381e-05
4.80977e-05
0.0755792
0.061676
4.79674e-05
0.00412706
0.0824635
0.0816927
0.054929
9.01419e-05
0.0856682
4.59265e-05
0.000122762
0.0875566
7.47085e-05
0.0736751
7.53838e-05
0.0925416
0.000108938
0.0218885
0.06881
0.0901566
0.0011368
0.00540721
0.00208042
0.0790326
0.000214084
0.0947206
5.62123e-05
0.0523173
0.0922129
0.0787767
5.33532e-05
4.82155e-05
7.2777e-05
0.0863974
0.00088383
8.41209e-05
0.0905085
0.0809853
0.0624074
0.0048023
0.000215898
0.000925232
0.0129106
4.52574e-05
0.0110495
0.0530977
9.35296e-05
0.0703761
5.94383e-05
8.13629e-05
9.11766e-05
0.0750447
0.0550106
6.6947e-05
7.13453e-05
4.75186e-05
0.0489893
0.0610308
0.04031
0.0365007
0.0677327
0.082824
7.09719e-05
0.0120075
0.0369748
4.80796e-05
5.98608e-05
7.00877e-05
6.71089e-05
7.26244e-05
0.0762657
0.0877185
0.0728022
6.67075e-05
9.13884e-05
5.22406e-05
0.000107728
0.000263453
0.0482586
0.0578844
0.00496642
0.000183015
9.4718e-05
6.33604e-05
9.18039e-05
0.00379393
0.0561468
4.88041e-05
0.000120978
0.000109072
0.0523816
0.0234069
0.0839784
0.00384129
8.74649e-05
0.0801201
9.02048e-05
0.0512539
0.0508985
5.30228e-05
0.00941086
0.0921114
0.0680399
9.03414e-05
0.0852346
0.0303355
9.40229e-05
0.0546461
5.14643e-05
4.84408e-05
0.0670228
0.0903053
0.100053
6.29245e-05
0.0618575
0.00075806
0.0534918
0.0952958
6.95807e-05
0.0832061
0.000123106
3.29087e-05
0.053784
6.26248e-05
0.0494522
0.000120031
0.0423717
0.0504196
0.00646602
5.29963e-05
0.000133025
0.103164
0.090199
0.0206689
0.0768559
0.0486782
7.54418e-05
0.0113864
0.000318189
8.74705e-05
7.20794e-05
0.000137804
0.000262349
0.0497216
5.77224e-05
0.000135393
0.0320149
6.04401e-05
0.0665844
9.04993e-05
0.0901069
9.40769e-05
6.30847e-05
0.0391446
6.78187e-05
0.000937895
8.94712e-05
8.98949e-05
0.0661192
8.45642e-05
8.80118e-05
4.89575e-05
0.0504849
0.0100824
9.38898e-05
0.0298675
0.0958141
0.0513184
0.00010812
5.83621e-05
0.0496665
9.20195e-05
0.00903064
6.81357e-05
0.00632514
0.0919387
9.49759e-05
9.63441e-05
0.0137733
9.51686e-05
9.24114e-05
0.0548925
0.048027
0.000111789
0.0558585
0.000107311
0.0800908
0.0486209
5.85778e-05
6.35756e-05
8.11e-05
0.0887987
0.0458458
0.0737947
0.0469237
0.0621838
0.0548047
0.0498823
0.0751504
8.75475e-05
0.0943867
0.0958448
7.10879e-05
0.000111437
0.000273706
8.15721e-05
9.23628e-05
0.0726318
0.0713627
0.0874932
9.39769e-05
0.000110948
0.022467
0.0895746
0.000417311
0.000164837
0.00023596
0.0538449
0.0469561
0.0927188
0.0123305
0.0411671
0.0701335
6.43835e-05
0.095627
6.87239e-05
9.49741e-05
0.0909644
8.31094e-05
6.71352e-05
0.0565664
9.06555e-05
9.50363e-05
0.0881836
6.95481e-05
8.19433e-05
0.0691847
0.0491535
0.0522079
8.55982e-05
0.0478415
5.68994e-05
0.000105459
0.0488973
0.099572
0.0552601
7.07143e-05
0.0336237
9.14463e-05
0.0407444
5.77437e-05
6.94648e-05
5.96924e-05
0.0918977
8.47345e-05
0.000126606
0.074327
9.03162e-05
0.0453279
0.0448499
0.052854
0.00058518
9.02374e-05
8.31925e-05
0.0390952
0.0112677
7.93346e-05
0.053433
0.0675508
0.0882313
0.00491421
0.000111501
0.024761
0.0902696
0.00832266
0.000266528
0.0737613
5.82603e-05
0.0386364
8.9717e-05
0.00862326
9.43416e-05
0.0665991
0.0934384
0.0502488
0.0669037
0.0132009
8.64659e-05
0.000446005
7.05965e-05
0.0904149
5.70338e-05
0.0958836
6.29825e-05
0.0481794
0.00239626
0.0259231
0.0468797
9.04525e-05
0.0949779
6.26448e-05
0.0748679
9.90247e-05
9.92293e-05
0.0345625
6.90923e-05
0.0191247
0.0320218
0.0750506
0.0378592
0.0549902
0.0737331
0.0733841
0.0950968
7.54612e-05
8.43852e-05
0.00868372
8.77178e-05
5.56846e-05
0.00435573
0.0680651
0.0564941
8.90613e-05
0.0733636
0.000751356
0.000184612
0.0526566
0.0807144
9.10546e-05
0.0932646
0.000217089
0.0746498
9.95738e-05
0.0486189
0.0719432
6.67507e-05
0.0476333
7.5439e-05
0.0670691
0.0906549
0.0874832
0.0280805
0.0380994
0.0946118
0.00757912
0.0508124
7.68368e-05
0.0639057
9.8956e-05
0.000231383
8.8507e-05
0.0925857
0.0328627
8.5031e-05
7.89489e-05
0.0112676
6.97492e-05
4.94499e-05
0.00384312
0.0653407
8.32239e-05
0.074728
0.0923833
0.0566274
0.06144
0.00742624
0.0901141
0.0071629
0.0762439
0.0898122
5.56859e-05
0.0883715
0.0796153
7.9876e-05
0.0515683
0.0725084
6.37155e-05
0.024115
0.000133438
9.17742e-05
6.86514e-05
0.038042
0.0704979
0.000108939
0.051295
0.036257
0.0121337
0.0960428
0.011444
0.00848982
0.0582521
0.000101985
0.0630074
8.73964e-05
0.0497913
7.18282e-05
0.0911035
9.22192e-05
0.055172
0.00190291
7.21228e-05
0.0691918
0.0855877
0.0515778
0.0487202
0.000109809
0.0678909
0.0367653
5.18043e-05
0.0658534
0.0573392
9.17542e-05
0.0357964
8.53906e-05
0.0513836
7.41164e-05
8.36642e-05
5.42481e-05
0.0678216
0.0950108
0.0855845
0.0463561
0.000190214
0.0115858
0.0693649
7.06795e-05
7.64449e-05
0.0482681
0.0737936
5.01639e-05
0.0827242
0.0560111
0.0530339
0.0937482
0.0891513
0.070406
0.000106056
0.0486388
7.15596e-05
0.069714
5.08566e-05
5.83612e-05
0.0563981
0.0872324
0.000101089
0.00375866
7.30119e-05
5.30038e-05
4.72047e-05
8.80987e-05
0.0302834
0.0759169
7.12465e-05
0.00858079
0.0355567
8.88568e-05
0.0206967
0.0943526
5.39823e-05
0.000256567
7.47981e-05
0.094358
9.53234e-05
9.14422e-05
6.70831e-05
8.76265e-05
0.000315943
5.23857e-05
0.000250033
0.0532096
0.0345529
0.000103101
0.0001057
0.0499539
0.0963835
0.0349405
8.84295e-05
0.0279742
0.083748
4.49033e-05
0.0728002
0.0649283
0.0957296
0.000214106
0.0081774
0.0922362
0.0335229
0.000152877
0.000187948
0.046957
0.0338364
0.046366
0.00694258
0.0292222
0.0883461
0.00165686
0.0894389
7.34712e-05
0.0774235
0.00117458
0.0721306
0.0635699
0.0610763
6.69711e-05
0.0494994
8.17948e-05
8.18547e-05
0.000269166
0.000107412
5.54596e-05
6.90771e-05
0.0368082
0.0929141
0.0759317
0.0776685
0.0765301
0.000808852
0.00470767
0.0932017
0.00937845
6.12999e-05
0.0766506
0.000104346
0.0597584
0.0557915
0.0963363
0.0132226
0.0760974
0.0776218
0.0536812
0.000113482
0.0501987
0.0187397
0.0938761
0.000873114
0.0922268
0.00816662
0.0508341
0.0563149
0.0442788
0.0870341
0.08678
0.000268455
0.0966822
9.73662e-05
0.00679468
8.85498e-05
0.0550369
0.0625057
0.091139
0.000216805
8.71469e-05
0.00790792
0.0692918
0.000220041
0.000430725
0.000102085
4.91015e-05
0.0422799
8.0107e-05
8.32073e-05
0.072422
0.000110849
9.43817e-05
0.0664378
0.074897
0.0887149
4.74756e-05
0.0880452
0.035564
9.04916e-05
6.63222e-05
7.51618e-05
6.78033e-05
9.14373e-05
0.000122173
9.29992e-05
6.70788e-05
0.0841423
0.0084451
0.0930186
0.0731125
0.0285084
0.000186915
0.0901202
0.000184287
0.00835163
6.32668e-05
0.000687645
0.000110792
0.0340055
0.0206386
6.45445e-05
0.0547087
0.000113536
0.0550398
0.0968476
6.8535e-05
0.0247935
0.0563797
0.000262246
0.0777024
0.056326
0.00021773
0.000142178
0.000256463
0.000299206
7.97401e-05
0.000210194
0.0727498
0.0216818
0.0566773
0.0665444
0.000266269
0.00046039
0.00777586
0.0662129
0.0407282
0.0003485
0.000106388
0.0714944
8.89287e-05
0.0795222
0.0888356
0.00851653
0.0301899
6.48486e-05
0.010891
0.0655755
7.40696e-05
0.0287964
0.0512637
0.100816
0.000184102
5.21845e-05
0.0125842
0.0830175
8.79767e-05
7.92765e-05
0.0307742
8.4157e-05
0.000114158
9.90966e-05
0.000190011
0.0768932
0.00761462
0.0646279
0.000106631
0.0668176
0.0892515
0.000543053
0.0167873
7.75628e-05
0.0236953
0.0515004
0.000103313
0.000105145
0.000103958
0.000258816
0.000133669
7.19227e-05
0.000589842
0.0544279
0.0481952
0.000127426
0.000113195
0.0708162
0.0969258
0.0121708
0.0847324
0.0569431
0.040698
4.55943e-05
0.000117974
0.0338693
8.17775e-05
0.0376666
0.0611544
0.000116682
0.000111258
0.0490964
0.0806913
9.2076e-05
0.0955646
5.83901e-05
9.64591e-05
0.0463997
0.00898815
0.000103413
0.000107361
0.000566078
0.0767059
0.0705984
0.0758492
0.0475747
0.0643343
9.01096e-05
0.00011529
0.0878636
0.0353646
0.0668719
0.00995087
7.55926e-05
0.0462469
0.00014482
0.0854252
0.0657568
8.78971e-05
0.00011184
0.00010816
0.0877746
0.0526677
0.0903565
6.64877e-05
0.00019311
0.0333629
0.0506715
0.0900212
0.000111952
5.12921e-05
0.000156131
0.0562079
0.0655308
9.1577e-05
0.0968767
0.0793767
0.00419639
4.59401e-05
0.077132
0.0820218
6.44214e-05
0.079407
0.000477625
0.0387688
6.53853e-05
0.000101895
8.37146e-05
0.0883221
0.0767423
0.0665216
0.0264267
0.000101567
0.00185414
6.21452e-05
0.00330896
0.0146188
0.067799
0.0024317
9.13509e-05
6.63101e-05
0.000255486
0.000103592
8.87217e-05
0.000109926
4.55316e-05
0.0127351
6.29233e-05
0.0448593
0.000108691
8.20336e-05
0.0100278
6.58164e-05
4.53111e-05
0.0485512
6.05817e-05
0.000155039
7.95285e-05
0.0738518
0.0943818
0.0677966
4.69194e-05
6.1315e-05
0.0427703
0.0746192
0.0861217
0.0787483
0.0467665
0.0329841
0.000102886
8.20496e-05
0.0476057
0.0233312
0.000189586
0.0766385
0.000104551
9.64648e-05
0.000100774
0.000104664
0.0746169
7.52895e-05
9.07013e-05
0.0336188
9.1243e-05
0.0630943
9.29931e-05
0.00321584
0.000260852
8.47776e-05
7.94551e-05
0.0560266
0.00962698
8.51521e-05
0.0172384
0.000101316
4.57534e-05
0.00521628
0.0345216
7.28557e-05
0.0070717
0.0929176
9.85314e-05
0.000101786
0.00730944
0.0476229
0.000158902
8.88865e-05
0.000199355
7.23534e-05
0.0774102
0.0808344
6.29737e-05
9.03558e-05
0.000111868
0.06041
0.0691605
6.40177e-05
0.0642712
0.000202861
7.51755e-05
0.000214629
9.08982e-05
0.0866369
0.00578563
7.85737e-05
0.0797587
0.0500871
0.00021544
0.0742029
0.0921446
0.000107666
0.0128758
0.000251075
5.98464e-05
0.0696271
9.67934e-05
0.000153731
8.77445e-05
0.0124444
0.000213306
0.0155255
0.0881652
8.0493e-05
5.19445e-05
6.75255e-05
0.00700725
6.82384e-05
0.000115419
7.0258e-05
7.91864e-05
6.19044e-05
0.0918526
0.000135449
0.0721208
0.0743701
0.0766513
0.075244
0.0783573
0.000104784
0.0303975
0.00162781
0.000102368
0.0775509
9.95992e-05
0.0890448
0.0871083
0.000141973
0.000121469
0.000355838
0.0967911
8.2585e-05
0.0761967
0.000117628
0.000211841
0.0746131
7.21768e-05
0.0769685