/*--------------------------------*- C++ -*----------------------------------*\
| =========                 |                                                 |
| \\      /  F ield         | OpenFOAM: The Open Source CFD Toolbox           |
|  \\    /   O peration     | Version:  v2012                                 |
|   \\  /    A nd           | Website:  www.openfoam.com                      |
|    \\/     M anipulation  |                                                 |
\*---------------------------------------------------------------------------*/
FoamFile
{
    version     2.0;
    format      ascii;
    class       volScalarField;
    location    "200";
    object      nut;
}
// * * * * * * * * * * * * * * * * * * * * * * * * * * * * * * * * * * * * * //

dimensions      [0 2 -1 0 0 0 0];


internalField   nonuniform List<scalar> 
13308
(
0.000417558
0.0502831
0.0442864
0.00051573
0.00050726
0.000453371
0.000612222
0.000460266
0.000607474
0.0596801
0.0548383
0.00322185
0.000455262
0.000447098
0.000463951
0.0421967
0.000478036
0.0483295
0.00321753
0.0224128
0.000470891
0.0619123
0.0608237
0.000485095
0.0407282
0.0582786
0.00052217
0.05234
0.00052476
0.000561836
0.0563165
0.000540028
0.0607767
0.000570193
0.0682671
0.000458295
0.000610913
0.0598824
0.00046589
0.0411958
0.000444655
0.000458897
0.0664726
0.000445986
0.000466081
0.00325696
0.00047146
0.000531475
0.000441362
0.0421631
0.000503658
0.000454984
0.0490702
0.036893
0.00787878
0.0164126
0.000446129
0.00045571
0.000476119
0.000474837
0.040965
0.0551928
0.000455526
0.000451912
0.000482352
0.0613679
0.000443691
0.00654379
0.000457399
0.000573161
0.0668894
0.000465145
0.000449688
0.000548207
0.0264104
0.000452987
0.000429976
0.0140484
0.000449893
0.00967741
0.000457349
0.000430606
0.000452968
0.00048124
0.00505425
0.000460544
0.00512467
0.0631881
0.0013116
0.0147718
0.000457954
0.000443057
0.000526356
0.00047405
0.000472994
0.000444674
0.000459406
0.00980381
0.0709272
0.000712748
0.000456831
0.000451155
0.000457024
0.000476049
0.0634415
0.0545197
0.0464686
0.000470731
0.0548548
0.0583633
0.000465292
0.000683126
0.000462667
0.000449478
0.000463715
0.00462173
0.005051
0.00486928
0.000527757
0.000456577
0.000502824
0.000479671
0.000439649
0.000368092
0.0205768
0.000675907
0.00798804
0.00581249
0.00046454
0.0238506
0.0707797
0.000487284
0.000451874
0.000445477
0.000597888
0.000377468
0.000443539
0.0202856
0.000524968
0.000459409
0.0368974
0.000464623
0.00044999
0.000464387
0.000462922
0.000566717
0.00430581
0.0123071
0.000457073
0.000502705
0.00822018
0.000489913
0.0583546
0.0182891
0.0419201
0.000368374
0.000475982
0.000440627
0.000445501
0.0396414
0.0616523
0.000455298
0.000449966
0.0538292
0.000583471
0.000534766
0.0612197
0.000440338
0.054536
0.000495638
0.000464162
0.0040395
0.000505894
0.0378509
0.00463185
0.0610218
0.0624089
0.0436524
0.000509746
0.000472554
0.00744843
0.0513947
0.000444752
0.0556987
0.0409179
0.000436289
0.0198489
0.0599285
0.00056797
0.0093811
0.00325908
0.0251285
0.000464279
0.00913049
0.000462419
0.0610014
0.000463911
0.00082701
0.0426546
0.000458799
0.0464596
0.0493416
0.0449135
0.000586586
0.026366
2.52816e-05
0.035449
0.0290976
0.026749
0.00645748
0.0367983
0.000671238
0.000527152
0.0388772
0.0545692
0.000477198
0.000476465
0.0603734
0.0378076
0.0298401
0.0526114
0.00048745
0.000524252
0.000428362
0.000482357
0.0395581
0.000510888
0.0603805
0.0161239
0.00193291
0.0349638
0.000481822
0.0427131
0.0078861
0.000366505
0.000516517
0.0632151
0.030642
0.0415323
0.000487615
0.000483745
0.00030901
0.0004738
0.000428886
0.0196062
0.0440693
0.000707739
0.00177877
0.000428533
0.0394706
0.0538951
0.0601588
0.000448146
0.0554598
0.0480828
0.000480652
0.0605366
0.000488595
0.0610812
0.0145217
0.000560581
0.00283555
0.000517548
0.000450072
0.000540196
0.000483733
0.0151051
0.000451849
0.0540947
0.0493911
0.000650095
0.000505634
0.000456262
0.000296956
0.000450382
0.000498243
0.000448528
0.0286506
0.000506887
0.000539607
0.0613376
0.000475558
0.00080963
0.000481945
0.0614469
0.0085715
0.000450489
0.000397517
0.00064185
0.0503355
0.00053077
0.000443647
0.00604456
0.0516878
0.000443117
0.0694225
0.0190136
0.000552549
0.000576406
0.0411771
0.0607873
0.000476855
0.0578233
0.0138387
0.0183242
0.000446028
0.000523608
0.0389382
0.00614517
0.000435773
0.00412917
0.0035824
0.000531559
0.0462883
0.0707758
0.00435917
0.000477246
0.000442998
0.000449045
0.00484809
0.000442104
0.000431853
0.0239656
0.000430115
0.0139058
0.000465328
0.000480978
0.000453713
0.000466673
0.000542651
0.0606439
0.000448846
0.00696755
0.000448502
0.000465834
0.0338615
0.0476198
0.000440811
0.000505239
0.00327853
0.000491072
0.000453309
0.000447474
0.000567625
0.0450083
0.056233
0.000588856
0.000543134
0.000506297
0.000470373
0.000529912
0.0677965
0.0701772
0.000443232
0.000432181
0.000454874
0.0494005
0.00044412
0.000603463
0.0509489
0.0665125
0.000595266
0.000498108
0.000701582
0.0566203
0.0565399
0.000447295
0.000429174
0.000456031
0.000480987
0.0489491
0.0108124
0.00351045
0.000505425
0.000455801
0.000519103
0.0534199
0.0588821
0.000459215
0.0316549
0.000461227
0.000448711
0.0355545
0.000513292
0.000447839
0.0551028
0.000651702
0.000479223
0.00044258
0.0540533
0.000468875
0.0019179
0.00058478
0.0455874
0.00594826
0.000549772
0.0309704
0.000442814
0.0406166
0.000456239
0.029007
0.000483977
0.000701737
0.0571375
0.00043085
0.0685715
0.000477257
0.00043959
0.0708313
0.0594082
0.000449438
0.00247601
0.00121008
0.000442808
0.000444156
0.0469973
0.000460551
0.000444046
0.000477678
0.000543302
0.000525072
0.000456514
0.000488525
0.000457888
0.000461711
0.0477626
0.00318307
0.000462212
0.0364621
0.0384599
0.0173421
0.000437488
0.000569171
0.0609039
0.000446548
0.000430038
0.0516825
0.00044343
0.000535845
0.0396754
0.0448381
0.0646184
0.0449624
0.000456007
0.0614435
0.00047938
0.00331957
0.0505042
0.000442282
0.0400482
0.000436941
0.0657307
0.000787085
0.0672527
0.000483385
0.000518644
0.000499309
0.000109656
0.058924
0.000655261
0.0251415
0.0629936
0.000468547
0.0609219
0.000455466
0.00390175
0.00044063
0.000458828
0.000449
0.0515494
0.0204699
0.000453332
0.057638
0.000456837
0.0080563
0.0582472
0.000510128
0.000465314
0.0241403
0.000447048
0.0219828
0.000615674
0.0232804
0.000447152
0.000605227
0.00045749
0.000442989
0.019001
0.000465883
0.000443784
0.00044423
0.000527402
0.016787
0.00042997
0.000430769
0.000457857
0.000470988
0.0366198
0.0677678
0.0646476
0.030522
0.00593252
0.0696555
0.0190783
0.000477661
0.000449385
0.00069929
0.045062
0.000485736
0.055789
0.000513222
0.000707815
0.000461361
0.00044377
0.000484352
0.000537501
0.000566323
0.000481235
0.000555804
0.0582615
0.0583952
0.070049
0.0415918
0.0014197
0.000452839
0.00811669
0.000447355
0.000430147
0.033244
0.000680327
0.00059477
0.000542284
0.0525507
0.0560933
0.000435763
0.046313
0.0265334
0.0479573
0.000429572
0.0267135
0.000446138
0.000590663
0.000451327
0.0650072
0.000461416
0.017977
0.0669983
0.00232471
0.00044315
0.000448442
0.0532561
0.0023994
0.0689231
0.000518466
0.0587701
0.0238022
0.0647667
0.0187117
0.0606317
0.0650655
0.000471148
0.000451737
0.000448219
0.0594089
0.000449379
0.00505521
0.0213936
0.000453402
0.0410667
0.0373476
0.0660139
0.000445812
0.000449058
0.000446046
0.0540509
0.0005349
0.000443215
0.00045554
0.0646234
0.000455879
0.0472749
0.000520177
0.000462605
0.000552684
0.000451792
0.000446621
0.000449924
0.000508089
0.000478887
0.000479653
0.0309375
0.000442423
0.000435087
0.000428222
0.000498602
0.0530813
0.0589284
0.000444232
0.021511
0.000459077
0.000495328
0.000444054
0.000476702
0.000473857
0.000460983
0.000504732
0.000443531
0.0564045
0.000469414
0.0486228
0.04519
0.00049707
0.000508935
0.000478223
0.0677017
0.0526563
0.000523031
0.000449231
0.0344918
0.0352176
0.000569523
0.000449858
0.000402412
0.0278077
0.000519015
0.00400658
0.000455831
0.000453257
0.000570613
0.00574438
0.000487628
0.0652233
0.0269947
0.0390441
0.00159558
0.0302704
0.000504718
0.000464852
0.028995
0.0549619
0.000447589
0.000450302
0.0212793
0.0693725
0.000587284
0.0240464
0.000474577
0.000456035
0.000428207
0.0313364
0.0126889
0.000465886
0.0571981
0.000458587
0.0653619
0.000451353
0.000445528
0.0165438
0.065202
0.000559324
0.0272498
0.0768687
0.000551032
0.0168931
0.000487997
0.0204384
0.0439789
0.000469681
0.0399828
0.0461583
0.0395073
0.000439415
0.0206772
0.000465035
0.000443011
0.0541859
0.040144
0.0068802
0.00479645
0.0415552
0.000481983
0.000599387
0.000493978
0.00042825
0.000474191
0.000470232
0.0535355
0.0539867
0.000529143
0.0146299
0.000436993
0.0233764
0.00048055
0.000725281
0.000611461
0.000461939
0.000435868
0.000448582
0.000435721
0.0603095
0.000448593
0.0686796
0.0166513
0.000563827
0.000492832
0.000439119
0.0700681
0.0262769
0.0292752
0.000457028
0.000447053
0.00044646
0.00863768
0.00047097
0.000702778
0.000509458
0.000448649
0.000435229
0.000450601
0.000442499
0.000441643
0.000466092
0.00382772
0.0498738
0.00303829
0.00044866
0.000701318
0.0413973
0.00059148
0.0554792
0.000450514
0.000458611
0.000452199
0.000455638
0.0392564
0.000476616
0.000734828
0.0521288
0.0713518
0.000463163
0.000446182
0.0676318
0.000454155
0.0530312
0.000450442
0.000447999
0.0391355
0.000449233
0.000432704
0.000622277
0.00060779
0.0108256
0.0634006
0.064321
0.0552802
0.000464952
0.000490769
0.000502188
0.0337124
0.000827369
0.000444422
0.000452564
0.000393602
0.0530829
0.000433029
0.000451774
0.0654083
0.0565314
0.000567693
0.00045483
0.000430198
0.000450201
0.000453342
0.000463623
0.000430206
0.000456673
0.000454218
0.054724
0.000431686
0.000517943
0.0531531
0.00366112
0.00051835
0.00045417
0.000449193
0.0157878
0.0462071
0.0130195
0.0309921
0.000524442
0.0674778
0.000688728
0.052955
0.000474761
0.0313349
0.000446712
0.0368465
0.000447462
0.000474439
0.00530746
0.00054181
0.000452922
0.000443858
0.000467027
0.000483249
0.0244507
0.0329965
0.0566981
0.000492581
0.000443811
0.0250048
0.000445626
0.000432931
0.0336219
0.0674418
0.0213468
0.0135311
0.0360269
0.000460946
0.000815758
0.0709041
0.000435871
0.00048029
0.0624084
0.000441252
0.000449263
0.0593701
0.0496115
0.000451859
0.0641288
0.000435802
0.000504138
0.00069243
0.0175309
0.0232093
0.000500457
0.000477183
0.00049073
0.000461967
0.0262013
0.0117879
0.000448453
0.0753545
0.0189462
0.000646755
0.000429927
0.000447234
0.037304
0.000501719
0.000484877
0.0244174
0.0168055
0.000445946
0.0529198
0.0647802
0.0578403
0.00683261
0.000558772
0.000436106
0.00042859
0.000455655
0.000475082
0.0451413
0.0557553
0.000501956
0.000518598
0.00833532
0.0594946
0.0366654
0.000451575
0.0503088
0.000460161
0.0601058
0.000648148
0.000471143
0.000575556
0.000456082
0.0143236
0.0702999
0.000425341
0.0516882
0.034771
0.017149
0.0650349
0.00051292
0.000484125
0.000435104
0.0468565
0.000444334
0.0552208
0.000452992
0.000454572
0.000452569
0.000487216
0.00574572
0.000450971
0.0150676
0.0227663
0.00484483
0.000487373
0.00043445
0.0511293
0.000454722
0.000455474
0.0617591
0.000445401
0.00045007
0.000626922
0.000466731
0.000434916
0.0212012
0.053749
0.00959018
0.064297
0.000442672
0.000503704
0.000570073
0.000192944
0.0441449
0.000450014
0.0589149
0.000460633
0.000467642
0.0474362
0.000448054
0.000435733
0.000488988
0.000463606
0.000445375
0.000456391
0.0221517
0.0573466
0.000481486
0.0268965
0.0288512
0.000643021
0.000473325
0.000437879
0.000450852
0.000454888
0.0365519
0.000686675
0.0531922
0.0638702
0.0325802
0.00045228
0.000478306
0.0165437
0.000479084
0.000472405
0.000455634
0.0206082
0.023459
0.000455542
0.0501483
0.0316824
0.000477565
0.000476288
0.000449776
0.000616775
0.00048986
0.000593584
0.000478271
0.0162514
0.000515082
0.000459622
0.0294254
0.000455211
0.0659561
0.000502173
0.000461677
0.000493934
0.000460253
0.000510484
0.000445649
0.000482719
0.0312495
0.000448384
0.0479073
0.000486297
0.000470301
0.000553698
0.0700674
0.000443345
0.000430655
0.000561921
0.0224219
0.000454599
0.000606605
0.0252051
0.0735562
0.000525559
0.00051834
0.00567259
0.000438564
0.000455671
0.027641
0.00421307
0.0190527
0.000457377
0.00049709
0.000483353
0.000499291
0.00705284
0.00046008
0.000450732
0.000492927
0.0619477
0.000443942
0.000444158
0.00046355
0.000470067
0.00818905
0.000438404
0.0210012
0.00051376
0.0536517
0.0621645
0.000499706
0.058852
0.00046334
0.0655127
0.00984631
0.016187
0.000465262
0.0421749
0.000486002
0.000599591
0.000485884
0.000471591
0.0607361
0.000454044
0.000509857
0.000487905
0.000538826
0.000511192
0.0575202
0.0622975
0.0273954
0.0405281
0.000455267
0.0548954
0.000438941
0.00045135
0.000518004
0.000456001
0.000847586
0.069726
0.000445468
0.0593021
0.000512892
0.0652337
0.044809
0.00784174
0.00045323
0.000451668
0.000546681
0.000433088
0.000488662
0.000448418
0.062946
0.000473618
0.0194412
0.000588581
0.000480695
0.0267402
0.000470705
0.0533467
0.000457244
0.000561985
0.0136146
0.0591332
0.000477125
0.0529053
0.0271787
0.0591394
0.0392277
0.000448837
0.0630767
0.00044725
0.0259997
0.000458124
0.000450067
0.000445298
0.00965986
0.0559456
0.022465
0.00371421
0.0497339
0.0638173
0.000445176
0.0178367
0.000496483
0.00045934
0.0597591
0.0533688
0.000430415
0.0495398
0.000612448
0.000448399
0.0488144
0.000455534
0.000448588
0.0467154
0.000454143
0.000526512
0.0614768
0.000564071
0.0464886
0.00045248
0.000428333
0.000461732
0.0603823
0.000501935
0.000517941
0.000550877
0.000440115
0.000434825
0.000495234
0.0394196
0.000433906
0.0464889
0.000454052
0.000691876
0.056865
0.000467994
0.0621987
0.000429693
0.000470722
0.0557443
0.000452825
0.000456255
0.0632415
0.0426097
0.0687972
0.000474027
0.0284284
0.000460157
0.0739979
0.000920427
0.000505535
0.0342808
0.000678343
0.0209613
0.0549691
0.000435317
0.000613017
0.000516905
0.000509496
0.000482976
0.0214709
0.000451135
0.000452535
0.000454057
0.000457331
0.000455574
0.000448506
0.000444669
0.000468536
0.0292426
0.00049085
0.000440435
0.0336704
0.000497587
0.0255044
0.0251538
0.00861673
0.000452579
0.0558828
0.000467504
0.0581079
0.000519165
0.0606761
0.0242909
0.0116912
0.0129804
0.00045385
0.000450562
0.00043856
0.000460917
0.000478588
0.041608
0.000450086
0.000487692
0.0059036
0.0409788
0.00062128
0.0109431
0.0443908
0.000643955
0.000450043
0.000437498
0.014245
0.000459035
0.000498615
0.0592196
0.000489247
0.000446125
0.000458217
0.000443329
0.000739013
0.0494131
0.0535346
0.000503736
0.000464064
0.000433579
0.000451308
0.000455463
0.060438
0.000479341
0.000434407
0.000458703
0.0395321
0.0527858
0.000452763
0.000445784
0.000489724
0.0385168
0.000445371
0.000480395
0.000531499
0.0631096
0.019651
0.0630021
0.000528827
0.0286793
0.000498573
0.0459175
0.000482712
0.0545903
0.000451458
0.0582719
0.0470728
0.0582132
0.000456338
0.0370327
0.000471619
0.0594242
0.0522269
0.0582657
0.0727687
0.0630011
0.000492644
0.000532549
0.0162217
0.000490723
0.00064165
0.000565929
0.0489847
0.0581415
0.0635343
0.0337762
0.0215165
0.00045038
0.0620089
0.000616611
0.00378094
0.00043838
0.000689415
0.05037
0.000734012
0.0562251
0.000519203
0.0260196
0.000495389
0.0160381
0.0651277
0.000467006
0.0545221
0.00112091
0.000456972
0.0222108
0.00048395
0.000124645
0.000364226
0.000473976
0.0292471
0.0624263
0.000447401
0.0595785
0.000533428
0.000445485
0.054285
0.0605301
0.0209002
0.0426077
0.000446344
0.000450706
0.00177452
0.000436053
0.0656198
0.0172862
0.0603648
0.0591679
0.000453041
0.000538955
0.000442227
0.0253362
0.0274107
0.0198214
0.000520437
0.000435985
0.0191192
0.000718545
0.000503084
0.0007775
0.000451333
0.0422471
0.000439836
0.000459078
0.000503564
0.000434343
0.00046359
0.000480353
0.015575
0.0561066
0.000435272
0.000431446
0.0560414
0.0579358
0.000628048
0.000477114
0.0429649
0.000433075
0.053011
0.0645669
0.0575337
0.000448806
0.000455749
0.0236085
0.0483489
0.000555819
0.000447697
0.0337948
0.000432862
0.0189343
0.0247151
0.000443722
0.0645409
0.0121305
0.000509867
0.000551468
0.00047355
0.00046895
0.0332795
0.000497544
0.00124639
0.000449513
0.000453043
0.000446799
0.00043484
0.00060263
0.0443851
0.000455675
0.0104363
0.0253662
0.000450398
0.0476888
0.000453306
0.00044529
0.0560828
0.0312817
0.0593252
0.000454677
0.0637098
0.000442038
0.000428354
0.0342239
0.0559422
0.0650312
0.000435865
0.0222403
0.000449029
0.000487572
0.000451731
0.0605882
0.0187853
0.0247762
0.000506559
0.0004894
0.000502215
0.0143523
0.0615493
0.0366307
0.0716705
0.000442898
0.000456751
0.000451913
0.000575816
0.000474411
0.000559977
0.0657255
0.000451471
0.0269031
0.0601805
0.000368818
0.0259561
0.000449218
0.000529177
0.0565257
0.00480937
0.00044466
0.000445834
0.000525156
0.00086609
0.0545435
0.0185703
0.0544782
0.000635333
0.0587835
0.000502418
0.000470033
0.000461722
0.052622
0.000752484
0.000452703
0.000500262
0.0235574
0.0224789
0.000432751
0.0431758
0.000447181
0.000436882
0.0261879
0.000520983
0.0622046
0.0584049
0.000572402
0.0227993
0.0462597
0.000458507
0.0529637
0.0213217
0.000437884
0.000490644
0.000492378
0.000449231
0.0641314
0.000435888
0.0629052
0.000518725
0.00167803
0.00961648
0.000449613
0.0690772
0.000485074
0.000404974
0.0267824
0.00351452
0.000560339
0.000437202
0.0621629
0.000439301
0.0518578
0.0200072
0.00070039
0.00059522
0.000433155
0.0696918
0.000448331
0.000509941
0.000473327
0.0014246
0.000451082
0.0125815
0.000449795
0.0153723
0.000449277
0.0546265
0.0292067
0.000508954
0.000477814
0.000410986
0.0587362
0.0597128
0.000435654
0.0664183
0.000831914
0.000452939
0.028541
0.000445258
0.000480902
0.0494651
0.00564495
0.000645153
0.000447499
0.0134365
0.0705891
0.0202042
0.000461625
0.000436983
0.0466062
0.0152805
0.000500212
0.0285078
0.000471812
0.0555031
0.000469404
0.000447561
0.00644834
0.0461743
0.000531892
0.000532712
0.000435728
0.000498475
0.000458916
0.000533368
0.0423294
0.00892698
0.000490266
0.000432248
0.0576133
0.00045346
0.000448459
0.000448235
0.0210757
0.0399364
0.0170844
0.000486455
0.00043484
0.00045581
0.0513104
0.0685957
0.0595447
0.000586877
0.0556959
0.000527087
0.0528831
0.000505745
0.000705575
0.000445891
0.00044699
0.000447998
0.0529759
0.000447493
0.000477443
0.00418942
0.0451395
0.0616174
0.0415183
0.000450123
0.0204055
0.000493865
0.0549938
0.000450113
0.0232097
0.000432759
0.000447839
0.0238033
0.0135188
0.000454113
0.000452622
0.000445827
0.0310927
0.000526144
0.0164602
0.000748181
0.0494199
0.0520971
0.0524805
0.0408762
0.000449481
0.0584418
0.000409665
0.00052192
0.000446993
0.00046183
0.000443736
0.000453108
0.000450752
0.000442211
0.000456498
0.000453443
0.000491854
0.0150927
0.043228
0.0428897
0.000454292
0.000448214
0.00701906
0.000449746
0.0444794
0.000450381
0.000496981
0.0378154
0.0569714
0.000498162
0.000375932
0.000569974
0.000494305
0.00106519
0.000554664
0.0505502
0.0491393
0.010772
0.000469993
0.0532443
0.000458452
0.000448563
0.000550094
0.000439177
0.000492984
0.000457592
0.0478736
0.000441627
0.000434808
0.049176
0.000446399
0.000494924
0.0596791
0.000434793
0.0252916
0.000440016
0.000448822
0.000447927
0.0272307
0.000450775
0.0662522
0.0525865
0.000450213
0.0005215
0.000474957
0.0572506
0.0617488
0.000444208
0.000445953
0.000441676
0.000438938
0.000441386
0.000445346
0.000430016
0.000517084
0.000450116
0.0709156
0.040919
0.000460812
0.000455019
0.000484131
0.000475386
0.0224156
0.00830251
0.0397945
0.0237796
0.000445446
0.0545478
0.0575858
0.000447246
0.0282555
0.0254609
0.000447612
0.000438325
0.0692086
0.000462491
0.000438436
0.000585008
0.0701814
0.063226
0.0263821
0.016887
0.00051715
0.0221443
0.0515313
0.000475193
0.00047
0.000468648
0.000443121
0.000531434
0.0106421
0.000448327
0.00915673
0.0655322
0.0681244
0.0727609
0.00045406
0.0707322
0.000455369
0.0483695
0.0417754
0.000450355
0.00044427
0.0636503
0.000502149
0.0308871
0.000453935
0.0518347
0.000617022
0.0196992
0.000453721
0.0556915
0.0539035
0.0240316
0.000482285
0.0188695
0.0171495
0.0629165
0.0656611
0.000493362
0.0523899
0.0537801
0.0197994
0.0640799
0.0500145
0.0479005
0.0574623
0.0299015
0.0626634
0.0198693
0.000477242
0.0504741
0.0675229
0.0251348
0.000607491
0.000439642
0.0466438
0.00050062
0.0721078
0.0476365
0.0702425
0.0215309
0.07099
0.000451701
0.000444036
0.0609831
0.0711878
0.0540213
0.000465943
0.0241522
0.000455585
0.0209776
0.0277972
0.034937
0.0274745
0.00045012
0.0509369
0.000490291
0.0686751
0.000485448
0.000436322
0.0531654
0.000481862
0.010443
0.0191258
0.0291712
0.0312823
0.000452566
0.000447441
0.059992
0.0580824
0.000446752
0.0542239
0.0378953
0.000471784
0.064001
0.000443521
0.000457859
0.000658224
0.0057128
0.000435228
0.0373864
0.000455274
0.000432367
0.0685453
0.0543464
0.000433175
0.00575304
0.0720611
0.0666689
0.0584619
0.000458524
0.0599477
0.000432341
0.000542427
0.0481881
0.000456082
0.0317679
0.000481964
0.0599239
0.00051799
0.0375364
0.0614353
0.0572723
0.0035335
0.00551735
0.00280229
0.0463798
0.000754156
0.0446446
0.00046466
0.0518959
0.0602165
0.067468
0.00044632
0.000434453
0.000446918
0.0476123
0.00055702
0.000454563
0.0429233
0.0505333
0.0518247
0.0172249
0.000761923
0.000526865
0.0350003
0.000431978
0.0261577
0.0507733
0.000475265
0.0675532
0.0004401
0.000452276
0.000473604
0.0608597
0.0595041
0.000444031
0.000470101
0.000432855
0.0527562
0.0389705
0.0362306
0.0110108
0.0679644
0.0732804
0.000481773
0.0309121
0.0148065
0.000239422
0.000471184
0.000442652
0.00048616
0.000444931
0.0706335
0.0566852
0.033841
0.00044188
0.000475614
0.000435765
0.000500358
0.00128626
0.0466631
0.0580918
0.0138972
0.00068634
0.000474083
0.00043994
0.000459071
0.0107349
0.0497032
0.000434979
0.000554891
0.00051416
0.0571399
0.0162721
0.0630258
0.00250825
0.000462763
0.0547423
0.000455086
0.0490211
0.0476707
0.000446031
0.0148114
0.0493315
0.0596941
0.00026795
0.06286
0.013546
0.000475975
0.0550949
0.000437302
0.000434344
0.0624784
0.0586014
0.069495
0.000460116
0.0345227
0.00102944
0.0514441
0.0499113
0.000481873
0.0521925
0.000572854
0.000100139
0.0537306
0.000439583
0.0198206
0.00053212
0.0380982
0.0560654
0.0182431
0.000434728
0.000573927
0.0713297
0.0549708
0.0372882
0.0704078
0.0453913
0.000449037
0.0225869
0.000914848
0.000455049
0.000448463
0.000420152
0.000816566
0.0471227
0.000451384
0.00059147
0.0198693
0.000440616
0.0519512
0.000452574
0.052137
0.000466904
0.000456871
0.0204537
0.000449644
0.00141348
0.000451211
0.000455514
0.062027
0.00045285
0.000458732
0.000432761
0.0562378
0.0187409
0.00049496
0.0164332
0.0494807
0.0500696
0.00050829
0.000438514
0.0542082
0.000463272
0.0239122
0.00044865
0.0227077
0.0702386
0.000470714
0.000493367
0.0379358
0.00047617
0.000459871
0.0573706
0.0455139
0.000525109
0.0591836
0.00050678
0.065759
0.0494855
0.000437319
0.000442839
0.000448162
0.0679007
0.013325
0.05984
0.0288421
0.0630641
0.0562388
0.0472153
0.0674611
0.000450482
0.0585302
0.0566195
0.000446783
0.000500165
0.00116209
0.000458031
0.000444357
0.0635387
0.0611081
0.0540953
0.000472305
0.000524318
0.00520453
0.0558135
0.000871912
0.000119161
0.00129019
0.0521874
0.0310017
0.0474454
0.0345841
0.0186287
0.0635526
0.000443306
0.0571592
0.000496174
0.000469688
0.0564137
0.000449651
0.000442033
0.0604758
0.000455013
0.000489755
0.0661465
0.000477988
0.000451685
0.0553403
0.0460382
0.0495831
0.000478668
0.0489377
0.000449709
0.000493785
0.0464276
0.0717647
0.0547433
0.000449638
0.0213968
0.000458425
0.0229688
0.000449046
0.000434424
0.000452537
0.0758885
0.000453497
0.000572602
0.0626848
0.000455498
0.0426365
0.041262
0.0509359
0.00016022
0.000451853
0.000532947
0.0264412
0.0239203
0.000450899
0.051085
0.0473264
0.0559256
0.00957279
0.000529265
0.00885825
0.0478309
0.0295134
0.000847129
0.0637386
0.000438678
0.0268807
0.000451306
0.0307481
0.00054066
0.0667547
0.0572719
0.047645
0.0591376
0.0372887
0.000480933
0.0010237
0.000471534
0.0420847
0.000445965
0.0554687
0.000508528
0.0476087
0.00234615
0.0110389
0.05176
0.000501323
0.0579072
0.000455124
0.0615063
0.000481185
0.000527461
0.0222519
0.000472895
0.0344883
0.0215114
0.0601846
0.0448
0.0310643
0.0612004
0.0642685
0.0559238
0.000452026
0.000455141
0.0161918
0.000451981
0.000446076
0.0031803
0.067164
0.0595369
0.000452073
0.0548469
0.000635421
0.000686001
0.0501459
0.0687234
0.000451858
0.0495498
0.000755153
0.0618873
0.000488789
0.0460194
0.0695288
0.000171435
0.0438867
0.000448699
0.065359
0.0511342
0.052295
0.00972965
0.0269879
0.0526523
0.020164
0.0480936
0.000474372
0.0564414
0.000491616
0.00204161
0.000455318
0.0428996
0.0255461
0.00046848
0.00044601
0.0200667
0.000470619
0.000437188
0.00323862
0.0539944
0.000449828
0.0579758
0.0575604
0.0543565
0.0612323
0.0267079
0.0579588
0.00468002
0.0702039
0.0572599
0.000451275
0.047204
0.0329011
0.000484046
0.0489135
0.0533066
0.000195448
0.0109804
0.000591836
0.00046088
0.000444778
0.0251423
0.0691665
0.000511705
0.0485803
0.0263745
0.0266745
0.0561254
0.0243282
0.0297997
0.0612356
0.000535187
0.0550177
0.0004519
0.047044
0.000444389
0.0609717
0.000454858
0.0604274
0.00475041
0.000444374
0.0686252
0.0641864
0.0490328
0.0459102
0.00052175
0.067609
0.0264368
0.000435642
0.0268228
0.0582269
0.000454947
0.0263354
0.000452276
0.0576319
0.000488741
0.000503229
0.000435766
0.053453
0.0474912
0.0393538
0.0362205
0.000698439
0.0249946
0.0645153
0.000446097
0.000454246
0.0506421
0.0556378
0.000440819
0.0342694
0.0514757
0.0582972
0.0471314
0.0593681
0.0285592
0.000499416
0.0459135
0.000469663
0.0597093
0.000442245
0.000478568
0.0585476
0.0596285
0.000575668
0.0108844
0.000483208
0.000434361
0.000432226
0.000455489
0.019944
0.0644769
0.000446821
0.0302697
0.0140828
0.000497485
0.0400272
0.0479286
0.000435261
0.000587474
0.000453153
0.0489492
0.000484696
0.000495409
0.000442179
0.000457304
0.000916054
0.00043418
0.000820275
0.0525821
0.0261429
0.000486247
0.000504206
0.0472363
0.0558769
0.0262095
0.000464953
0.0365106
0.0563019
0.00042888
0.0540799
0.0625541
0.0508624
0.000746192
0.0252854
0.0498218
0.0258697
0.000608823
0.000699626
0.0444523
0.0259662
0.0440196
0.0238325
0.0384951
0.0601369
0.00135893
0.0512609
0.000453736
0.0725009
0.00163057
0.0525553
0.0622905
0.0649419
0.000443518
0.0418129
0.000479345
0.000448443
0.00131835
0.000503213
0.000495984
0.000469032
0.0192478
0.04614
0.0710772
0.0696046
0.0635265
0.00225028
0.0165672
0.0404305
0.0203961
0.000441346
0.0630476
0.000489759
0.0520891
0.0515287
0.0502799
0.00805227
0.0640181
0.0696355
0.0220889
0.000531191
0.0475814
0.00393046
0.0423838
0.000623327
0.0448012
0.0267431
0.0483666
0.0239782
0.0414889
0.0631844
0.0559548
0.000812402
0.0554706
0.000487769
0.014947
0.000452745
0.0550675
0.0543463
0.0456519
0.000762286
0.000517523
0.0276104
0.0683523
0.000763916
0.000814167
0.000509413
0.000433302
0.0284296
0.000481171
0.00045037
0.0552495
0.00052601
0.0004646
0.0659845
0.0608338
0.0480724
0.000430906
0.062601
0.0247283
0.000510679
0.000242929
0.000451406
0.000473
0.000488262
0.000565392
0.000492684
0.000465374
0.064652
0.0299839
0.0410475
0.0682488
0.0146518
0.000691747
0.0459614
0.000682543
0.0179197
0.000443024
0.000939726
0.000517145
0.025771
0.00936948
0.000478657
0.0504413
0.000529456
0.0395088
0.0549735
0.000442826
0.0113947
0.055834
0.000784379
0.0497308
0.0575284
0.000754657
0.000627329
0.00113533
0.000655821
0.000469322
0.000746759
0.0686221
0.0304688
0.0612998
0.0537562
0.000841887
0.000968976
0.0268715
0.0613454
0.0214149
0.000974997
0.000507296
0.0537101
0.000475651
0.063181
0.0567097
0.0202452
0.0162683
0.000470679
0.0240156
0.0661288
0.000463825
0.0145372
0.0557189
0.0721387
0.000683594
0.000437059
0.0226616
0.0652494
0.000484759
0.000454633
0.0196717
0.00045252
0.000537097
0.00053284
0.000699418
0.0625337
0.00472034
0.0579216
0.000514839
0.055772
0.060531
0.00106105
0.0341651
0.000475577
0.00907292
0.0479612
0.000493476
0.000501634
0.000496478
0.00101898
0.000583067
0.000446089
0.00100763
0.0521238
0.0456153
0.000566866
0.000535385
0.0522215
0.0543683
0.035285
0.0622918
0.0609791
0.0265635
0.000432429
0.000547912
0.0246747
0.000448919
0.019703
0.0537055
0.000550627
0.00051445
0.0520677
0.0514694
0.000455015
0.056385
0.000439039
0.000485963
0.0346767
0.0282651
0.000556819
0.000509209
0.000480603
0.0712098
0.0533025
0.0649391
0.0304337
0.0421995
0.000451958
0.000544267
0.04904
0.0262891
0.0574031
0.030676
0.000470018
0.0411625
0.000627513
0.0385492
0.0670775
0.000454976
0.000528077
0.000501554
0.0622264
0.0481431
0.0592081
0.00044295
0.000700274
0.0304079
0.048324
0.0616393
0.000545706
0.000437263
0.000643841
0.0564977
0.065172
0.000515313
0.0537695
0.066826
0.0204063
0.000430773
0.0619757
0.074157
0.000442482
0.0671381
0.00095142
0.0193373
0.000476732
0.000485257
0.000454419
0.0588983
0.0711973
0.0671279
0.0144744
0.000483748
0.00540499
0.000453398
0.00658082
0.00722318
0.0680184
0.00169624
0.000452816
0.000447621
0.00106191
0.000492745
0.000486541
0.000515515
0.00043272
0.028521
0.000442077
0.0419696
0.000516154
0.000449444
0.0357815
0.000442508
0.000431663
0.0450063
0.000460228
0.000561181
0.000448318
0.057555
0.0431614
0.0549878
0.000431391
0.000446134
0.0322636
0.0674801
0.0522887
0.0688242
0.0319377
0.024286
0.000491384
0.000449079
0.0431897
0.0412726
0.000701063
0.0687613
0.000499108
0.000495088
0.000477483
0.000497649
0.0621043
0.000448528
0.000452618
0.013892
0.000455482
0.0564972
0.00045816
0.00635764
0.00150242
0.000453074
0.000448729
0.0555089
0.0345545
0.000473407
0.0126324
0.000481839
0.000432124
0.0194285
0.0283439
0.000448387
0.0153338
0.0594014
0.000489244
0.000482504
0.0256622
0.0199425
0.00065093
0.000450996
0.000683092
0.000446138
0.0613808
0.0744062
0.000439875
0.000493306
0.000518918
0.0281064
0.0545171
0.000460275
0.0630384
0.000140789
0.000448038
0.000762891
0.00045184
0.0635413
0.00445863
0.000450031
0.0553127
0.0490646
0.000763345
0.0326335
0.0569292
0.000502996
0.0343235
0.00166732
0.000448563
0.0676048
0.000485055
0.000662616
0.000464594
0.0217164
0.000763688
0.0165708
0.060422
0.000448021
0.000441765
0.000442271
0.0241107
0.00046713
0.000519013
0.000448195
0.000468072
0.000445871
0.0561751
0.000605007
0.0438512
0.0479514
0.0707703
0.071333
0.0689856
0.000490137
0.0211079
0.00440745
0.0004861
0.0607515
0.000499411
0.053229
0.0489906
0.000625254
0.000539871
0.00113009
0.0490345
0.000449465
0.0661005
0.000526434
0.000758221
0.0515712
0.000444705
0.0716674
0.0109299
0.0721021
0.000461924
0.000461597
0.000466
0.000454961
0.000452411
0.0489961
0.0545901