/*--------------------------------*- C++ -*----------------------------------*\
| =========                 |                                                 |
| \\      /  F ield         | OpenFOAM: The Open Source CFD Toolbox           |
|  \\    /   O peration     | Version:  v2012                                 |
|   \\  /    A nd           | Website:  www.openfoam.com                      |
|    \\/     M anipulation  |                                                 |
\*---------------------------------------------------------------------------*/
FoamFile
{
    version     2.0;
    format      ascii;
    class       volScalarField;
    location    "350";
    object      ddt0(omega);
}
// * * * * * * * * * * * * * * * * * * * * * * * * * * * * * * * * * * * * * //

dimensions      [0 0 -2 0 0 0 0];


internalField   nonuniform List<scalar> 
14479
(
-0.00638262
0.00660925
0.00124015
0.0100312
-0.517766
-0.0855536
-1.22908e-07
5.20351e-06
0.000152253
0.0376268
0.241646
0.0147845
0.127524
0.0749497
0.032452
0.116173
1.1547
-0.294067
-0.348477
0.00859411
1.03625e-05
-0.000861463
-0.062264
-0.119106
0.0002678
-0.00744906
-0.055041
0.0416629
-0.351582
0.0279369
1.86498
-0.0574863
-0.351483
7.4427e-06
-0.000203805
-1.66213e-05
3.63558e-05
0.0572623
2.92847e-05
0.367026
0.0185145
-0.00192436
-0.000274967
0.00285852
0.0289244
0.00189415
-0.1982
-0.231852
-0.000429603
-0.0688692
3.63457e-05
-0.443871
-0.0666078
-0.0937388
-0.000496224
4.57547e-05
0.0272292
-0.0856836
-1.58038e-05
-0.0277347
0.00225247
-1.514e-05
-0.323494
-0.0408669
0.0145359
-0.128069
0.00427981
0.00169967
-0.430898
-0.365283
0.00153087
0.0037979
-0.166479
-0.0146836
6.12847e-06
6.35208e-05
-0.000685151
0.0479425
-0.241069
-0.00419181
-0.0718277
-3.62454e-07
-4.03764e-05
0.00572097
-0.000167876
0.0019028
0.0253684
-7.91677e-06
-0.00694425
-7.78257e-05
-0.0249318
-0.130706
2.55273
-0.0334872
-0.000984678
-0.340486
-0.00019413
-0.0258241
0.00044352
-0.00983888
1.9581
-0.0803965
-0.0490298
5.31306e-06
0.000520106
-1.22653e-05
0.0652671
-0.197943
0.00437263
0.0256332
-0.000662682
0.000485411
-0.579106
-0.0891669
-0.034288
0.000135458
0.000127869
-0.400426
6.58742e-05
0.0175815
-0.000343235
-6.20411e-06
-0.02393
-0.000283784
0.0754244
-1.77708e-05
-0.000177401
4.13513e-05
-2.35319e-05
-0.0905605
-5.57256e-06
1.13797
-0.0140676
-2.67099e-05
0.0194254
0.00506851
-0.325361
0.000488963
-0.445229
0.00425969
0.000131019
-0.055274
0.00242076
-0.426373
0.00457669
-2.28938e-05
-0.0987317
-7.68731e-05
-0.0134659
2.80568e-05
-0.338232
0.000534582
1.07944e-05
0.269908
0.41596
-0.000547207
0.0435174
2.14667e-06
0.0332081
-0.26726
0.0427777
-0.482425
-0.292094
0.0209597
-0.00371113
-0.109871
-2.40342e-05
1.55619
4.82822e-05
-8.9367e-05
-2.00124e-05
0.00608046
-1.19987e-05
0.0134599
9.34658e-06
-0.27207
-3.94196e-06
-0.000594471
-0.103195
0.000198748
-1.26624
1.30198e-06
-0.000897362
2.56081
5.35943e-06
0.00289132
7.01452e-05
0.00168003
0.15265
-0.887004
1.23202e-06
0.0681295
0.000172374
6.57726e-07
-0.0128642
-0.267828
0.12612
0.222545
-0.0014104
5.28468e-05
0.000279403
1.12571
-0.256789
0.248058
0.00785475
-0.000235623
1.95072e-05
0.0118645
-0.000260647
0.047741
0.0190673
0.0624514
7.95694e-05
0.00256233
7.11057e-06
0.0163428
0.0147343
-0.20553
1.63568e-05
-0.0016766
-0.712705
-0.137636
0.131761
0.000459871
0.481315
-0.0186323
-0.00023942
-0.000102659
0.00646482
-4.08467e-06
-0.000308868
-5.63251e-06
-0.0185956
0.0779829
-0.000477856
-0.000248593
0.0213481
0.476999
-4.26282e-06
-0.00139837
-0.0154925
0.0282368
-0.000950089
-0.000474338
0.0497292
-0.0170925
-8.60285e-06
5.75532e-05
1.43855
-0.0548175
4.95527e-06
0.0128177
-3.76115e-06
-1.75567e-05
-0.0547353
-0.0728311
2.03757e-05
-0.482522
-0.0105278
-0.127859
-0.109308
-0.524877
0.0318569
-0.00377451
-2.15088e-05
0.0164984
-4.29938e-05
0.113552
-0.0154894
-0.418292
-0.115165
6.1591e-05
-0.110362
0.000163567
0.000227457
0.274425
-0.206639
-0.000211
-0.154285
-0.0897287
-0.0900355
-0.154145
0.0467081
-0.0718926
-7.9502e-06
-2.13366e-05
0.104341
-1.18241e-05
-0.134764
-0.0360759
-2.36305
-0.359603
-0.123407
-0.116958
-5.20769e-05
-0.0113968
-0.000155534
-0.0100432
-2.6451e-05
0.00481413
2.12057e-05
-0.0211967
-5.03569e-05
0.00266016
0.0113249
0.0967159
-0.0656519
0.351538
-0.000247439
-0.00037606
-0.129359
0.109455
-0.396705
-5.95646e-05
-0.00331736
7.61904e-06
0.00862935
-0.00100668
-6.83036e-06
4.03792e-06
0.000138021
-2.0222e-05
-0.00047935
-0.0281687
-0.126995
-0.368589
-0.352983
-0.31376
-0.164151
8.14189e-05
-0.00255967
0.000755511
0.219987
0.116255
0.119361
3.5222e-06
0.000682335
0.0371602
-0.145532
0.0184792
-0.358872
0.00342419
-0.041622
4.99599e-06
-0.0206484
-2.20104e-05
-0.13808
0.084554
-1.75352e-05
0.0145755
-0.0232915
-0.154184
0.00166733
3.64039e-05
0.0343892
4.57976e-06
2.04755e-05
-0.124385
-1.37122e-05
1.00947e-05
8.97948e-05
-0.0463874
0.821939
0.000240394
-0.153867
0.00110914
-0.0297843
0.102116
-0.162813
-0.416747
-0.0258737
-0.316235
0.0157496
-3.4769
-0.014041
-0.548802
0.00512379
0.0313476
0.180467
-4.43262e-05
-8.68949e-05
-0.00139121
-0.0513539
0.0132942
-0.292629
0.0718668
-9.22368e-06
-0.32351
1.86234e-06
0.0511958
-0.0139469
0.00094382
0.692604
0.533522
-0.367694
0.0724993
-1.5214
1067.09
5.88373e-05
-3.97233e-07
-0.504235
-0.0902279
-0.0129191
0.0026615
-0.104051
-0.000639135
-0.196332
0.0831433
-0.0497524
1.55492e-05
0.0233654
0.00545383
3.82507e-06
-9.71289e-07
0.522754
7.41158e-06
-0.0222966
0.139142
-3.86494e-07
-0.00853172
-0.0024121
0.00533278
-0.0973193
-0.0328154
-0.348155
0.0146912
-0.123247
9.55556e-06
0.0107113
-2.31057
-0.262964
0.0561058
-0.0413176
-0.00244318
0.0176581
0.0237901
0.0037701
0.037521
-0.292176
0.346085
-0.111101
0.0181579
0.0692776
1.04107e-05
-0.0301346
0.000529104
-0.00688518
-0.0189366
-0.00103534
-0.000755374
-3.79439e-06
-1.8243
-0.0134288
0.0067526
-3.97389e-06
0.169729
-2.41184e-05
0.0233815
-0.352932
0.100027
-1.47779e-05
0.00016327
-0.117493
-0.0760075
-0.224466
0.350356
-0.00266459
-0.1778
0.0781832
-2.37865e-05
-1.53285e-05
-1.22524e-06
0.0970729
-0.216692
-0.0608503
-0.966563
0.143562
0.141385
0.0235033
0.593908
-0.00118218
-0.165766
0.00724407
0.0548024
-1.49475e-05
-0.0622433
2.95585e-05
-0.431243
-0.436333
0.0546581
-0.28412
-1.97522e-05
7.08589e-06
-0.0112829
-0.242059
7.27004e-05
0.00498087
-0.00602127
0.00958612
0.000836725
0.00234862
0.0508944
0.00171902
1.97467e-05
0.0469368
-0.059235
-0.338772
0.00208043
-0.000243946
0.0523695
0.0036722
0.0119289
-0.000337591
-0.345262
1.15463e-05
-4.28742e-06
-1.0918e-05
7.05798e-06
-0.473012
0.0787415
-0.04499
0.0616015
-0.10597
-0.118768
0.0583494
0.023319
-1.71054e-05
8.05395e-05
-0.349368
0.0313412
-3.00175e-05
-0.0536088
-0.171868
-0.322817
0.00127715
0.0120252
-0.363312
3.92657
-3.7286
-0.367537
-0.0956603
-0.272213
0.0026736
-0.117008
-0.000152271
-1.49868e-06
-0.357472
-7.40884e-06
-0.00260305
0.0025356
-0.00121928
-0.138795
2.71661e-06
4.25992e-06
0.130576
7.73661e-06
-0.144788
0.0443952
-0.010878
0.0331583
0.00519241
0.255991
-0.000826761
0.0155316
-5.26347e-05
-0.00885448
-0.00236935
1.36367e-05
0.000203105
-0.00106463
0.00188221
-2.59637e-06
-0.0269546
7.52368
0.00244515
0.00219409
-0.0155765
1.54335e-06
-0.00122816
0.090115
0.0606319
-7.54078e-06
-0.0179343
-1.37029e-05
-0.271232
-8.49163e-06
-1.21463e-06
0.0847468
-0.152286
-0.0726019
-0.00407055
-8.55787e-07
1.75224e-06
-0.401008
0.081927
-0.222498
6.24768e-06
-3.20743e-05
-0.000919919
0.000144854
-0.165002
-1.87823e-05
-14.501
-0.0304077
-0.172317
-2.21687e-05
0.0982637
0.25055
-5.78744e-05
-0.060148
9.55564e-06
-0.0121897
-0.0327794
2.14266e-05
-2.04347e-05
2.44673e-05
-0.154541
0.483206
-0.310733
8.88733e-05
-1.06947e-05
0.00199194
-0.00281979
-0.000641676
-0.160536
-0.307587
2.98849e-05
9.96333e-06
0.000233791
0.0697764
0.0017953
0.000883887
-1.95996e-06
0.157599
-0.0130902
9.41988e-06
-7.29324e-06
0.0014839
-0.415129
7.78754e-06
-0.0945116
0.0787503
1.26377e-05
-0.369477
7.3496
-1.85247e-05
0.000343877
-0.000218043
0.00199521
-0.23981
-0.349073
0.0256258
1.03802e-05
-0.0179526
-0.00162997
-0.10611
-0.186085
0.0408082
2.42417e-05
-0.000784213
-0.187578
5.56508e-06
-3.92035e-05
0.031992
-0.0758053
-0.000294743
-0.000179365
-0.703206
-0.355151
2.26342e-06
6.51181e-06
-0.00053945
0.758418
0.0310839
-2.35752
-0.347293
-0.203386
0.00748226
2.14893
0.00805104
-1.53808e-05
-3.78495e-05
-0.0655986
3.30935e-05
-0.0635735
0.001269
-0.0765748
-0.105996
0.033484
-0.321922
0.000160583
-0.0152877
-0.0108696
-0.00436673
-0.0378246
-0.451641
-0.224967
-0.452152
0.0103609
0.307776
-0.0772432
-0.094301
0.0642824
-1.98261e-06
0.247568
-0.352635
-0.190922
-0.361226
9.48713e-05
-0.277419
-1.33722e-06
-0.0060411
0.0190269
-0.0412917
-0.00753002
3.04687e-05
0.000372811
-0.0473608
-0.149937
0.00217371
-1.01823
-0.338554
-0.00125729
-0.135371
-0.155337
3.03845e-05
5.75776
0.00479093
-0.390008
7.02503e-06
-0.0023211
0.0326298
2.05894e-06
1.52762e-05
-7.49996e-06
-1.69127e-05
0.0174449
0.0115012
-0.00214232
6.0488e-06
-4.43319e-05
1.08463e-05
4.20258e-07
4.58064e-07
0.0006399
-0.118946
0.074659
0.0225263
0.114194
-0.00861854
-0.583435
-0.0297237
0.00022811
0.00133575
0.00814037
2.13813
-0.000955374
-0.179478
-0.00533152
2.75828e-05
-0.371276
-0.00372769
-1.39731
-0.0720384
-4.51074e-06
-0.44461
1.31599e-06
-0.174222
-0.0110149
0.00433591
0.00015367
-0.148838
-0.135831
-0.0150101
-2.41362e-05
0.345007
-0.089866
-0.0141844
-0.00053848
-0.0325597
-0.466638
3.22486e-05
-0.195194
0.114047
4.37315e-06
-0.00201124
0.0392333
-0.0311957
0.00135369
-0.158009
-4.39075e-06
3.2729
0.0969725
-0.0097632
-0.503554
0.152338
0.0420511
0.445364
0.343718
0.0996568
-0.335214
0.000557724
0.0123753
-0.04009
-5.82321e-05
-0.128711
-0.0103363
5.54406e-06
-0.124537
0.0382806
0.0434
-0.34985
-0.00275685
0.0158947
-0.240352
0.0196715
-0.0422563
0.34905
-0.0135223
1.28476
-0.00289353
-0.142195
-0.000958098
0.0188481
-0.00436566
0.535467
-0.0384355
0.000562493
-0.0533401
-2.08146e-05
0.00371486
-0.420153
-0.323389
-0.427775
0.0646174
-0.021584
-0.120747
0.00055669
0.0285356
1.05661
-0.0876624
-2.49433e-05
0.0115586
-0.0426331
0.0719654
-0.00270496
-0.466652
0.237651
5.73491e-06
0.00533845
-0.27571
0.00640642
-0.0856071
0.174998
0.0371516
-0.000178389
0.0529642
9.39678e-05
2.5781e-06
-0.00728729
-1.78705e-05
-0.00133921
-0.00284924
-0.0117019
-0.000177536
0.00970955
8.49251e-05
6.80231e-06
2.75818e-05
-3.84584e-06
-0.123066
-0.125792
-0.0915182
0.00688738
-0.121494
-0.372457
0.0419436
-0.333416
-0.327002
0.232346
-0.0228036
-0.292194
-0.123659
-0.00423678
5.11204e-05
-0.000142687
-8.47886e-05
-0.0805704
0.0114919
-1.89675e-05
0.00463959
-0.0112017
-0.0135333
-0.059648
-3.28894e-06
3.91673e-07
-0.00716928
-0.18594
0.0465662
0.000125877
0.0317786
3.39304e-06
-0.000959282
2.4867e-05
0.00152276
-2.76978e-05
0.00298778
0.0044135
-0.201303
-0.0297376
-0.15282
-0.139048
1.72736e-05
0.0722053
0.0189148
-1.76395e-05
5.99546e-06
-0.155924
-0.316184
-0.23837
-0.00290431
5.32723
0.0114964
-0.866976
2.72527e-06
-1.93315e-05
-0.277398
0.0818326
0.0317516
-0.00647226
0.063785
-0.0126544
-0.00197304
-2.34457e-05
0.328134
-0.0623197
-0.328919
-0.420766
0.0295144
-0.0661461
0.00184248
-1.86693
6.96682e-08
-9.1871e-05
5.25542e-06
-0.000174333
-0.41206
0.0387781
0.0382928
-6.66731e-06
-0.408963
-0.000371229
0.00763582
-0.324899
0.0548312
-0.000738814
0.0706209
0.0526034
-1.06325e-06
-0.000582775
-1.68353e-05
-0.0708913
-7.28727e-06
-2.18027e-08
1.0325
0.379725
0.422466
0.00684975
4.68814e-06
4.22208e-05
4.75762
0.911595
0.00836013
3.35895e-07
0.0303036
-0.0699825
-6.53861e-05
5.26973e-06
-0.00673799
-0.675943
0.0106658
0.345336
-0.00484626
0.0336986
0.00654757
-0.00138324
-0.375144
0.022726
-7.47878e-06
-0.0618192
2.32332e-05
0.00565798
-0.121647
-0.143096
3.91636e-05
-0.304601
-9.25501e-05
-0.00072735
-6.05244e-05
-0.00389968
-0.151234
-1.20597e-05
-0.183884
0.00154042
0.0202572
3.79177e-06
0.0150814
-0.0763666
3.36974e-06
-0.0106506
0.117986
0.0802
0.0174015
-0.245231
0.0210118
-0.320675
2.01078e-05
-0.000785206
-0.197418
0.0245616
5.86359e-07
8.27402e-05
0.0436372
1.2502e-05
-0.31843
2.29944
-0.0223635
0.0129707
-0.310527
-0.414787
-0.288544
4.32646e-05
0.0151218
-0.0825278
-0.00031757
5.40774e-06
0.0320799
0.143648
0.00429066
-0.0235241
0.000735104
0.0411776
3.48015
0.396607
-0.0987158
0.9203
0.000116732
0.0710216
-0.00201491
0.000801631
-0.152771
-0.00408404
0.0792098
-0.0736642
0.042315
0.617862
-0.124081
1.70324
-0.204848
9.96706e-05
-0.294676
5.5139e-05
-7.00973e-07
-0.00130062
6.53869e-05
-0.364215
0.290725
0.193613
-0.241652
-0.320818
1.08412
0.111342
0.913095
-0.0410573
0.00250412
-0.43786
0.252919
-0.165705
0.000188451
-7.33355e-07
0.0346687
0.00230147
-0.00856377
-2.47163e-05
0.0143256
-0.000175209
-0.140875
-0.0218844
-0.0161748
-0.000888008
0.0435287
-0.0166355
-0.197605
-7.95308e-07
1.33155e-05
-0.0465671
-0.0541055
-0.000342384
0.00361837
0.019054
-0.276459
0.0136234
0.00156873
6.43709e-06
0.0143243
0.187602
2.24391e-05
0.0387927
1.23877
-0.286482
0.0293694
-0.011285
-0.337666
-1.03147e-05
1.57023e-07
-0.022443
0.139144
-0.0440809
2.17776e-05
0.000915546
-0.0668827
0.149185
1.10738
0.000293186
-1.06706e-06
-0.465255
-0.0600166
0.00300387
0.208011
0.00143948
-6.70217e-06
0.00143937
0.0230074
2.70314e-05
0.0432938
-0.0331363
-0.00182646
-0.106867
-0.977029
-0.111472
-2.09706e-08
0.00693444
1.42025
-0.00426434
0.0018283
0.212027
0.501055
0.012418
0.0195099
0.00129747
0.0916134
7.38848e-05
-0.00112389
0.0649897
-1.19364e-06
-0.0950453
-0.000599687
-1.47432e-05
-0.520752
0.0380287
0.300451
-0.125779
-0.271373
0.00162197
0.000181008
-5.11761e-06
-0.00117526
-9.55222e-07
-0.449597
-0.437923
-0.000482674
-0.01999
0.00911025
0.0277253
0.0034163
-7.19866e-06
0.0297467
0.096131
-0.0640689
1.33186e-05
-1.96504e-05
4.33424e-05
-0.376026
0.408188
-0.134883
0.140966
-0.363429
0.0126584
5.87409e-06
0.00064984
-0.00597182
-0.360588
6.03045
0.0287178
0.000169426
0.00645422
4.83056e-05
6.9554e-06
-1.49702e-05
5.2877e-06
1.10877e-05
0.00135065
0.106788
0.0168543
-0.152109
-0.0211673
0.000232385
0.00368161
-0.401992
-2.09216e-05
0.00161752
-0.0473052
-2.08561e-05
7.79714e-06
-0.00325927
0.333368
-2.8072e-07
-0.500674
0.046106
-2.45936e-06
2.83935e-06
0.154585
-0.113036
0.198258
-0.00982028
-2.69701e-05
0.0772455
-0.00281443
1.02155e-06
-0.0760841
2.83584e-05
1.05922
-0.133286
0.151212
0.00963162
-0.255356
-0.00122446
-7.39477e-06
0.0723636
-0.172673
-0.000204986
0.2648
0.0109789
0.000500437
-0.330607
-5.32856e-05
1.17207e-05
0.0361398
0.0351059
-0.133043
0.0303465
-1.00739e-05
0.0285803
-0.642899
-2.35047
0.0240983
-0.0258435
0.00236888
-0.0264989
0.000125772
-0.00715914
0.000550998
-2.01415e-05
-0.160058
-0.00502468
-1.02504e-06
0.0950062
0.757032
-0.179986
-0.014897
-0.00228822
-3.43786e-06
-0.428013
0.00429355
0.0829318
-0.0431794
0.0386238
-0.59448
0.000262182
0.00719903
-0.419013
0.0131972
0.000394918
-0.152263
0.028954
-1.26577
5.97218e-06
-1.40333e-05
0.0592091
0.00330235
0.00256149
-0.0143328
0.0755627
-3.42173e-06
-7.31823e-07
0.0162218
0.0239782
-0.523251
0.316674
-0.000317426
-0.16718
-0.00712466
-0.0376384
-0.150944
3.19523e-05
0.0623463
0.0125726
0.00109344
-0.0192866
0.0555099
-1.05532e-06
-0.123154
-0.563203
0.113502
0.0617215
-3.93569e-06
-0.0153127
0.00788789
-0.165752
9.87997e-05
-4.19113e-06
0.0164182
0.318667
4.54034e-06
-0.236777
-0.0131823
-0.143614
-0.0844208
-0.0603805
2.70291
0.299091
-2.48056
6.04942e-05
-1.0526e-06
-0.306606
-0.000168413
-0.346286
-0.0173331
-1.48835e-06
0.00183666
1.5584e-05
2.08012e-05
-0.0713875
0.0710628
-0.0396881
8.19808e-05
0.0134704
-8.2653e-06
0.00461966
-2.73975e-05
-0.00325993
-0.321446
-0.000135175
0.199742
0.00172794
-0.41582
0.734675
-0.134041
0.00123288
1.1131e-05
-0.473107
-0.0197998
-0.586433
-0.000640441
-0.0188738
-1.30319e-05
-0.210252
0.117102
0.041022
-0.143546
0.143983
-0.606242
1.52439e-05
-0.30633
0.158131
0.0757123
-5.13309e-06
0.000231088
0.0343534
-0.143553
0.0993262
0.197591
-0.000670659
0.201346
0.00077058
-0.000779124
-0.0958224
0.00169041
4.38733e-05
0.0500711
0.0643267
0.233901
0.0025142
-0.131609
-0.0214753
-0.221132
0.0155289
0.000985275
0.00267422
-2.19564
-0.0437773
-3.05043
-0.0142568
0.0257775
3.79588e-05
0.125848
0.0460852
0.0160412
1.19963e-05
0.00253038
0.442873
0.000661746
3.44092e-06
0.086075
-0.100703
-0.120704
1.21209
0.0664441
-0.000179635
-0.354197
-0.591022
0.063335
0.542305
-0.0742402
-0.456878
-0.0903609
-0.00222699
0.78488
1.26875
-0.000142544
-0.291375
2.60624e-07
-0.378737
0.118345
0.00824327
-1.80004e-05
0.000357663
-0.0457204
8.49735e-05
-0.149009
0.00795889
-0.342462
-0.000150604
0.113721
-0.015861
0.000918776
-1.50278e-05
5.01009e-06
9.16073e-06
0.00367486
0.146007
-1.3751
0.00683469
0.00670181
0.000472448
-0.316451
0.160714
-4.95212
0.037021
3.56038e-06
-0.000927342
0.0174128
-0.0902479
0.205519
-0.171626
0.000131161
0.230099
-0.0361558
0.0295227
-4.31972e-09
9.00192e-06
-3.47177e-06
-0.0306667
-0.0951718
-1.47172e-05
-0.0301682
0.000563757
-4.09022e-06
-2.90558e-05
0.0267568
-3.20238e-05
-0.146666
4.20452e-05
0.00300424
-0.024184
2.9278e-06
1.53621
0.257197
-0.0182989
-1.13202
0.00451844
-0.147111
1.78125
-0.0873221
-0.0343555
-0.231131
-0.156007
-0.0957629
0.035279
-0.0086962
-0.653863
0.0225951
-0.353818
0.00589083
0.00404258
-0.442085
-0.320951
-0.253705
-0.0381806
-0.0613438
2.31536
0.936312
0.0460341
0.0947899
-1.16785
1.32249e-05
-0.856192
0.000241073
-0.00571393
-0.0682617
-0.00208461
0.0776261
-0.538353
-0.00224267
-0.455432
5.44065e-06
-0.0367238
-0.0354708
1.57028e-05
4.41035
0.779104
-0.733228
0.18274
0.000252747
0.00611726
-0.00439702
1.31547e-06
0.0993324
0.0102778
3.93542e-05
1.11373
0.448753
-0.944884
-0.248141
0.0952116
-0.000270689
-0.0161857
0.038058
-0.344445
-0.282721
0.0227802
-1.79104e-05
5.5884e-05
-0.12128
-0.264494
0.000250266
-0.119002
-2.00348e-05
-0.78461
-0.010944
-0.169299
0.0294829
0.000764618
-0.0752126
0.0163201
0.289087
3.65014
-0.00878798
-0.00369379
0.0275958
-0.00043258
0.00303125
-0.152376
0.097647
0.0537822
0.028197
0.000621512
0.0337879
0.192704
-0.231987
-0.00127444
-0.000286837
-0.195421
-2.1643e-06
7.63267e-07
0.000982957
-4.68674e-07
0.239278
-0.213862
-2.86561e-05
-0.0319959
0.0199646
-0.00146335
0.00161371
0.000589756
-0.0298235
0.000164095
7.0911e-05
3.7864e-05
0.0677275
-0.0461646
-0.118757
2.48075e-05
0.00883486
0.00758897
0.401751
2.88599e-06
-9.4441e-06
-7.68126e-06
0.057945
0.00589362
-1.45132
-0.0187166
0.00106461
-0.283409
-5.05966e-05
6.99663e-06
0.000179327
-0.0110472
0.0604705
-0.113118
0.976551
-5.66171e-07
0.152083
0.000474916
-0.00132964
-0.192503
0.000599851
0.000989541
-0.151472
1.09186e-05
3.59198e-07
1.52305
-0.242018
0.00410989
-0.000801154
0.00327139
-0.015526
-0.113257
-0.0476551
-0.112649
-4.24617e-06
-0.425404
8.80553e-06
2.58478e-06
4.42786
0.0961281
1.7039e-05
-0.0424338
-0.449857
0.050822
2.8285e-05
0.0656869
-0.643777
-0.0266957
0.0068041
-0.115027
4.23013e-06
-0.0127371
-0.0145931
-0.127694
0.234578
-4.73689e-05
-0.178
0.00145614
4.17071e-05
-0.00341732
4.37819e-06
-0.0226004
6.01312
3.19784e-05
-0.0272854
0.112968
-0.00809976
0.00056586
-0.151499
-8.79294e-06
-0.00881212
0.432373
-0.00824665
0.00347212
3.08421e-06
-0.312869
-1.80879e-05
0.000207599
0.00172253
-0.216915
1.22618
-0.0845286
0.0129432
-0.343896
0.550958
-0.0282733
-1.9149e-06
-0.349558
0.0776758
0.00157477
-5.34834e-05
-11.6105
1.24306
-0.0311079
0.096451
2.09785e-07
-6.69376e-07
0.00362727
1.16026
-3.36558e-07
-0.00601735
6.98383e-05
-0.537455
-0.00124671
-0.0612374
0.0354427
3.73109e-06
1.73776e-05
0.0106593
-0.38955
-0.0881039
0.0473489
-0.153509
-0.142631
3.06808
-0.000757767
4.94166e-06
0.00128659
0.0017283
-0.436579
0.0182796
0.0161757
0.021379
-3.11738
-0.0615537
-0.603739
0.0507692
-0.187169
-1.14458e-05
0.00120239
0.00249493
-0.0563228
-0.0840645
6.88138e-05
0.0189392
-4.66823e-05
0.0799072
0.173907
-0.00178514
-0.0858212
-0.292963
0.0286008
-0.00356425
0.00178887
0.0517192
-0.000382451
0.00235219
0.00659708
-0.213647
0.0111265
0.0667392
-2.56862e-05
-1.30783e-07
-0.00556797
-1.97447
-0.0114527
-0.146087
-1.14936e-06
-2.74439e-05
-6.93345e-05
-0.472348
0.450967
-0.000681296
-0.0147367
0.0544371
-0.337141
-0.00544516
0.283832
-0.948192
5.16272e-05
-0.232736
-0.116383
-6.26302e-06
0.000121086
-0.00422115
-2.86192e-05
-0.0645842
0.000304529
-0.00153471
-7.63682e-05
0.00402538
5.41386e-05
0.000602896
0.0697634
-6.57977e-05
-0.0740193
-0.296759
0.000573935
4.8068
-0.0611918
0.42338
-0.00098391
-0.124142
-1.24788
0.0991408
1.24895
4.77416e-08
0.00844158
-0.0975499
-2.74911e-06
-0.0386363
0.0036361
0.0511587
0.036288
0.000449533
-0.0147672
-0.0560392
0.053986
-0.00404315
-0.00121768
0.105501
5.56388e-05
-0.0905487
-0.0112945
-0.150035
0.526314
3.60575e-07
-0.00195954
2.64754e-05
-0.0108703
4.43361e-05
-0.0479577
0.0330814
4.83776
-0.485
-0.153986
0.00084348
0.0345204
0.505814
-0.00101202
0.0657653
0.00440277
0.165285
0.24621
-0.00110617
0.000115782
1.09445
0.0226301
0.0688352
-0.00255781
-0.150147
2.97849e-07
0.0332307
0.232026
1.06015
-0.0158164
6.27565e-05
0.000829645
-0.00908551
0.000716969
0.0620756
-0.803279
0.113591
-0.00240526
-2.95512e-05
-0.472782
-0.444384
-0.125794
-0.0315896
-0.0096019
-0.73774
0.791456
2.4099e-05
0.925506
-0.117328
-0.70396
-0.00422356
0.3911
1.65435e-05
-0.000532732
-0.193542
-0.14907
0.363143
-0.0368507
0.556852
-0.255609
-0.147693
0.000184239
0.0676539
0.580662
0.0152746
3.84477
0.000411772
-1.40191
8.05965e-05
0.00183296
2.84431e-06
0.00308665
5.3041e-06
0.00761347
-0.0141369
-0.149454
-0.000108806
-0.256764
-0.00454274
-9.34639e-06
0.000254288
-0.00243264
-0.449211
2.88487e-06
0.0203658
-0.0187204
0.0390238
-0.00292383
0.0243318
0.0387783
-3.02403e-05
-0.00981747
1.95915e-05
0.000554623
-1.77794
0.140112
0.00641776
-0.00746225
-0.294075
-7.59866e-06
-0.376767
3.79031e-05
0.000130912
0.0327558
0.032785
0.00013343
0.0120233
0.021166
7.96465e-05
0.0168429
-8.39731e-05
-0.443095
-8.89278e-05
-5.49786
0.0617136
-0.000339915
0.169518
-8.32198e-07
3.70226e-06
-2.1242
0.00173672
0.042848
0.0508723
-0.0137892
2.96605e-06
-0.00769878
0.000674531
-0.000373671
0.00141585
0.447792
-0.0250248
-7.07647e-05
0.0149563
0.0222205
0.0290936
-0.375556
-0.000205268
-0.0043182
-0.0662471
-0.0438966
-0.0352464
-0.0815492
-0.000317604
0.000882558
-0.0200897
-3.0939e-05
7.35949e-05
-7.19206e-05
0.0480997
-0.0397943
-0.369162
-0.00481549
-0.0311538
-0.109176
4.46585e-06
-0.00143166
-0.00373786
-5.5869e-06
0.405106
0.0353854
-0.184873
0.000756503
-0.367928
-3.31069e-08
-0.0530891
0.016903
0.0122238
-0.103917
-0.150651
-0.0906768
1.37032
0.000914546
2.1008e-05
0.0275969
-0.00419952
5.20751e-08
6.83581e-06
-2.78564
-3.14151
0.000802885
-0.0103529
5.02757e-08
-0.066717
0.0274883
-0.141908
0.0418837
-0.176909
-0.00197649
0.0409517
-0.369357
0.0292741
0.0541846
-0.128663
-0.00164844
0.0235917
0.003521
-0.227785
0.332461
-0.0298753
-0.00544053
-2.3539e-05
0.00575966
-0.119185
0.000515899
4.00698e-06
-0.0265788
-0.0249548
0.0159646
0.190499
-0.122833
-0.0016696
-0.00942382
-0.0246589
0.09725
4.03734e-05
-0.351966
0.00103876
-0.0384341
0.832617
-0.350301
-0.0266738
1.89223e-05
0.00174203
-0.0742813
-0.14645
-0.00144848
-0.148863
0.000624849
0.209278
0.0385323
0.000117435
-2.61363e-06
0.102617
-0.000141777
0.000123999
-0.490181
0.0755873
0.0197998
-1.38327e-05
-0.106121
-0.00170389
-3.35396e-05
0.000304519
0.03498
-0.114511
-0.0133899
-0.000386765
-0.568408
2.55038e-06
0.118506
-0.181287
-6.55757e-05
0.00486109
0.0087092
1.08981
0.0184221
-0.095681
0.958968
0.0011712
6.67086
5.58296e-06
0.00143029
-4.51225e-06
-2.99049e-05
4.03316e-06
-0.000276457
1.12335
-0.149541
0.26466
0.0094805
0.00231843
-0.145648
-0.484359
-0.265393
-0.110091
5.87518e-05
-0.430148
0.0182219
0.452665
-0.00309428
-0.120102
-0.000212121
0.0249086
-0.00259671
-2.02526
-2.56812e-06
0.0344964
-0.156385
-0.000590066
-0.0126567
-0.713604
0.0110443
0.000619529
0.000139972
-0.517416
0.00244354
1.42292
2.53465e-05
-0.000701727
0.00712597
0.0829189
0.006878
6.04908e-05
0.000929105
-0.417512
-1.88878e-05
2.36089e-06
-0.076111
-0.393829
-0.304874
-1.40057e-06
-0.0206861
2.10768e-06
-0.104734
-0.0489699
-0.000367171
0.263873
0.906614
0.0133824
-0.0201096
0.015512
5.01126e-06
-0.0012867
-3.30639e-07
0.008394
-1.15012e-06
-0.00261841
-2.6897e-07
-0.105768
2.88641e-07
2.03764e-05
-0.00148252
0.855712
-0.00159876
-0.00164513
0.0160591
0.0898202
0.00854506
0.0370042
0.131983
0.000150162
1.35096e-06
0.0397341
0.040301
0.0446008
-2.91281
-0.0162491
-0.000366836
-0.0285139
-7.98748e-06
-0.332384
0.0801173
-0.023532
-0.000159702
-0.2771
-1.39761e-05
0.00701055
0.00633297
0.00777732
-0.00156687
0.067396
0.000123694
-0.00287017
0.114222
0.260446
0.0105906
0.00593785
0.613261
0.000156849
0.507263
-0.00593417
-0.0913152
-0.00190111
0.614164
-1.1051
0.0668137
0.00544511
-0.000572602
0.498282
1.04602
0.270012
8.34706e-05
0.00455824
0.321297
0.000465946
-1.36305e-05
0.0177476
0.00064044
-0.000381692
-0.0084533
0.0076619
-0.00314843
0.132977
0.937425
-0.000572358
-0.167328
0.00951556
0.12333
-0.0200977
4.77975e-05
-2.43248e-05
-7.80936e-05
-0.0534172
1.59151
0.00160898
-0.449092
-0.029525
0.00019449
-0.0018989
2.30304
-0.152956
-9.16746e-05
-0.167949
-1.83824e-06
-2.60892
0.00330398
-1.28385
0.000675447
-0.0189222
0.107565
0.209776
-0.0737486
0.110983
0.010668
0.000864826
-2.5816e-05
0.0235878
-3.88365e-06
0.00485061
-0.0834176
-6.28101
2.5849e-06
-5.46016e-06
0.0138084
0.0581366
-1.24508
-0.000102941
-0.00328964
-0.000748913
0.221056
0.163788
-0.0593862
-1.4948e-05
0.000100843
-0.0616236
-2.87226
0.317135
-0.245274
-0.167418
-0.152377
-0.41323
-1.66291e-05
0.00221865
0.000740651
-3.8692e-06
4.77544e-06
3.09423
0.57468
-1.03338e-05
-5.71596e-06
-0.469903
7.56208e-05
-0.122886
-2.40469e-05
2.81371e-05
0.0338779
0.0204807
-6.06405e-05
0.0805278
-0.863711
2.85321e-06
0.0119766
-0.100165
-0.0571081
0.0145663
3.23976
0.00211762
0.555657
-0.111309
0.166477
-4.42072e-05
-0.0060246
0.000946717
0.0407096
-0.000485302
0.600929
1.19213
-1.17184e-05
0.432475
-0.324213
0.000929819
-1.0766e-05
-0.00412415
-2.91701
-0.340129
-0.106365
0.0361406
-0.722233
-0.386273
-0.072993
1.08394e-05
-0.0939176
0.475996
0.00154131
-0.0380858
-0.136416
0.637203
-0.134797
1.33026
-0.0102891
-0.189423
-0.300673
-0.28332
1.23249
-1.994
-6.39002e-05
-0.000701015
-0.129168
0.213996
2.33943e-05
-9.77063e-05
-0.53224
-3.24767e-06
0.0194814
0.0504328
-0.182871
0.535026
-0.00853904
-0.280656
-0.341125
7.77969e-06
-2.39764e-06
-0.00071541
1.12463
0.266018
-0.119479
0.806848
-0.00863793
-0.00127057
-0.149212
0.485517
-0.225094
-0.00196239
0.0258037
-0.126727
-2.77729
-8.52352e-05
0.058386
0.0711033
0.00768777
2.56314e-05
-0.342704
-0.0141005
6.05705e-05
-1.47367e-05
9.62204e-05
-3.50004e-06
-0.44188
-0.0230244
0.00524624
0.120877
-0.155867
2.58526e-05
1.51696
0.00325594
0.00122425
-0.0349364
-7.64182e-06
-0.00320543
0.0243568
0.000423167
0.0338324
0.00152137
0.000106907
-0.143321
0.00326109
-0.375223
-0.0533547
0.230514
-0.073541
-7.83656e-06
-0.0267722
-4.58389e-06
-0.0597258
2.86838e-05
-0.440019
-0.0408382
0.00388879
0.0683207
0.035329
-0.000952138
-0.151628
6.73937e-06
0.175251
-0.0112916
-0.001629
-1.31127e-05
-0.0184606
7.56222e-07
-0.115313
0.00333424
-5.96315e-06
5.97525e-06
-0.0442306
-0.143105
-0.00247321
-1.04277e-05
-0.0821111
8.00699e-06
1.36025
0.000484395
0.00016515
-0.00119291
0.0143639
3.1095e-05
0.528408
-0.00195795
0.0405881
0.000461103
-0.00130348
-0.332422
0.00313795
4.66343e-05
0.105479
0.000387964
-0.0070485
2.45372e-05
0.215726
0.753609
-0.0262467
-0.104942
-1.50603e-06
0.0223504
0.226049
0.94072
3.3909
-1.03302e-05
0.261926
-0.085898
0.0353188
-0.105986
-0.000132123
0.0285685
-0.0889693
-1.21278e-05
0.00497271
-1.3439
0.703478
4.45265e-06
0.00679695
-0.93948
0.000261441
-0.014921
-0.146691
-0.0942758
-0.0565496
0.00127095
-0.0957553
0.00284973
-0.000272209
-0.625494
-0.00040903
-0.0111805
0.000446791
0.00194684
0.00125959
0.000157517
0.00019115
-0.0111756
0.0107222
4.40802e-05
0.000525025
-0.000134288
3.34668
-0.11969
0.00187326
1.98244e-06
0.00573355
-0.327743
0.000472836
-1.09677e-06
9.32408e-06
2.74326
-6.27392e-06
2.54755
9.15363e-05
-0.0367499
1.19165e-05
0.013994
0.00858874
-0.00104713
-0.112537
-0.000755927
-0.00928399
-0.956012
-1.26797e-05
6.42932e-06
-7.96809e-05
0.0340964
-0.0464439
-0.0843479
0.165574
-0.0459999
9.84488e-06
0.00155727
0.261237
-0.171136
-0.864566
-0.0047369
-3.91957
1.8884e-05
-0.148622
1.20993e-05
-0.148122
0.00608092
0.150487
-1.31704e-05
0.0117053
-1.2544e-06
-0.219498
0.430324
-0.00157096
-0.0128265
0.262736
-0.310684
0.27396
-0.002305
0.00256757
6.58391e-09
-0.00492565
0.000471035
-0.0143666
2.59581
-0.00041625
-1.15206e-05
-0.000570232
-6.83406e-05
0.0754215
-0.000437038
-0.00144481
-0.151044
-6.48572e-06
-0.00207605
0.0399798
0.00189476
0.0465618
7.21507e-07
-0.0125303
0.00299251
-0.0345197
1.73119e-05
7.89872e-05
0.331636
0.0675306
-0.339424
1.44004
0.815252
0.0277377
-1.23101e-05
0.160869
0.072446
0.0728118
-0.0499696
0.00160186
-0.011031
-0.000897993
0.000470785
-3.02693e-05
-0.0232687
-0.00307554
-0.00326991
-0.632369
0.000361849
0.0460027
0.00153841
0.0117842
-0.000454076
-1.83086
0.194151
-0.101724
-0.00137515
4.87878e-06
-0.00253293
0.000224507
0.0430933
-0.0324013
-0.0136658
0.000115773
0.323462
0.0388082
-0.00015454
-0.487744
0.0872057
0.00544037
0.5713
0.00645928
-0.112702
0.00400118
0.00376765
-0.343109
-0.0776326
-0.0119694
0.0554403
0.0164021
-0.00221286
-2.88666e-06
-1.06266e-06
0.501578
-0.0155548
0.00239486
0.0266445
-0.0550788
0.0158006
-0.0085714
0.000762429
1.00852e-05
-0.000151015
-0.0885227
-0.174379
-0.00675225
-0.0039335
2.85455
-9.84751e-06
-0.000325472
-0.408572
-2.69466e-05
-7.47827e-06
0.000115555
0.1031
0.572681
-2.92367e-05
0.0895507
-3.96374e-06
0.000750345
0.0320627
-1.00927
-0.126604
0.0493359
-0.44572
-0.251588
-1.53229
0.00969002
0.0266301
1.61673e-05
6.71558e-06
0.000133655
-0.0194879
0.220587
2.181
-0.867857
-0.0037914
7.04365e-05
0.000816302
0.0115003
0.485629
7.70578e-06
-0.00460879
-0.072646
-0.00331197
3.5628e-05
-0.00113035
-0.241963
0.000474601
0.000292323
-1.92392e-05
8.76899e-05
6.53679e-06
0.0718695
-0.0196448
-0.243786
-0.0243071
0.125322
-0.00230736
-3.58433
-0.00012042