/*--------------------------------*- C++ -*----------------------------------*\
| =========                 |                                                 |
| \\      /  F ield         | OpenFOAM: The Open Source CFD Toolbox           |
|  \\    /   O peration     | Version:  v2012                                 |
|   \\  /    A nd           | Website:  www.openfoam.com                      |
|    \\/     M anipulation  |                                                 |
\*---------------------------------------------------------------------------*/
FoamFile
{
    version     2.0;
    format      ascii;
    class       volScalarField;
    location    "350";
    object      omega_0;
}
// * * * * * * * * * * * * * * * * * * * * * * * * * * * * * * * * * * * * * //

dimensions      [0 0 -1 0 0 0 0];


internalField   nonuniform List<scalar> 
14479
(
0.0584636
0.0424548
0.0285163
1.34067
0.228063
2.87315
0.0222643
0.0218643
0.0224559
1.94643
0.131083
1.39887
2.77822
4.426
1.28294
5.27716
1.64347
17.6696
3.39793
0.0887637
0.0220782
0.0238567
4.42803
0.297586
0.0225064
0.0625869
0.0657725
1.97563
2.79057
1.25645
15.8582
1.49939
3.25104
0.0219477
0.023444
0.0223711
0.0221976
2.96677
0.0284038
0.123065
1.25179
0.0276938
0.0311051
0.0271932
8.59907
0.0879121
7.99884
5.96312
0.0236441
0.0801304
0.0221374
4.36443
0.332549
0.151469
0.0235726
0.0223839
0.103126
1.64248
0.0234519
0.148654
0.028442
0.0224313
0.453191
0.179713
0.34069
1.99895
0.0366654
0.0294811
5.49785
4.9931
2.45688
0.102496
1.58857
6.59595
0.0220857
0.0224444
2.383
1.43953
2.94907
2.5047
9.95193
0.0221676
0.0342005
0.0992671
0.0237917
0.0825776
0.122947
0.0221691
2.4916
0.0222788
1.76698
1.93709
3.98808
1.28173
0.0349419
3.281
0.0234899
1.78625
0.0315803
1.73123
12.9006
1.63628
0.149854
0.0219672
0.0322046
0.0232156
0.332191
1.6863
0.108126
1.27641
0.030218
0.024532
3.08669
0.165881
0.0604403
0.0257877
0.0224137
0.332566
0.024402
0.108727
0.0233362
0.0221518
1.41558
0.0330104
1.21696
0.0221615
0.0266892
0.0223365
0.0220724
1.64454
0.0224295
3.28675
7.75874
0.0222087
0.0930175
0.12944
0.448166
0.0226827
4.38593
1.31931
0.0228826
5.18031
0.0273018
0.332157
0.157071
0.0236694
1.90858
0.022533
0.049678
0.0247622
3.1674
0.0283506
0.0220791
0.331712
0.906303
0.0398179
2.18235
0.0222728
3.79601
3.08585
2.21118
4.20302
3.12721
0.120081
1.69965
4.72572
0.0221543
4.75082
0.0221554
0.0235942
0.02263
0.0807056
0.022343
0.105657
0.0222441
0.2879
0.0221704
0.0241771
0.104876
0.023541
0.645889
0.022082
0.0241508
2.93542
0.0221391
0.0864531
0.0306923
0.0264486
0.328963
0.393203
0.0221533
1.85525
0.0323721
0.0222735
4.75546
3.00138
0.327692
2.49591
0.0347251
0.0222572
0.0255657
1.89486
5.22734
0.388692
3.31485
0.0250815
0.0227222
0.112172
0.024231
0.0964473
1.44545
2.10809
0.0240334
0.029158
0.0221391
0.178744
1.81922
2.44524
0.0222078
0.047263
0.411506
1.67308
2.05448
0.0372818
1.90213
1.28285
0.0244868
0.0242145
0.0720123
0.0221598
0.0232749
0.0222404
0.0383101
4.3568
0.0263038
0.0250639
0.0992209
2.16485
0.0221916
0.0224702
1.24656
0.148107
0.03149
0.0686333
1.98648
1.51115
0.022588
0.0222981
19.8013
2.11268
0.0217945
0.125648
0.022118
0.0221137
2.21314
0.339294
0.02221
1.23445
0.0628065
0.325269
10.5689
4.94701
3.45431
0.0962458
0.0222036
0.0399016
0.0221941
1.99082
1.20757
5.21776
2.02059
0.0223722
2.93191
0.0230341
0.0237403
6.09293
1.72324
0.0232609
1.95954
1.57502
3.36099
1.93824
2.19753
11.0896
0.0221949
0.0221908
2.9207
0.0227838
1.50991
3.468
0.735564
9.05227
0.119972
4.36567
0.0223292
0.0492351
0.0224585
0.0598359
0.0222047
0.0347468
0.0221481
2.08246
0.0225255
0.0486383
0.0478178
3.56097
3.85352
0.354479
0.0257126
0.0264818
1.65247
0.144844
0.200129
0.0226585
0.0230135
0.0222606
1.3714
0.0543081
0.0221704
0.0220707
0.023851
0.0221711
0.0234247
5.34148
0.336392
10.8255
3.46415
0.16637
1.97826
0.0222966
0.0404453
0.0510674
2.61538
3.10001
0.643552
0.0221435
0.0303289
0.174389
0.0894115
0.0700109
3.43968
0.0362326
2.80301
0.0219529
1.21521
0.0222781
1.92904
1.89391
0.022301
0.0709454
1.26272
1.99474
0.0284191
0.0221349
4.12577
0.0221075
0.0222802
1.67827
0.0267537
0.022467
0.0224307
1.31228
1.75688
0.022463
2.01411
0.0353189
0.0649783
3.18178
2.04586
3.67003
0.175773
2.55421
0.083442
3.44838
3.46925
5.47362
0.091504
0.0531015
6.83618
0.0224753
0.0225137
0.0355443
0.150014
0.0632286
2.42692
0.132774
0.0221043
0.355866
0.0221713
0.167843
0.0723391
0.0400228
0.919657
3.5416
4.98321
2.10001
1.15714
7.06543
0.0223134
0.0221764
4.57504
3.33167
1.21003
0.0374128
1.54045
0.026353
2.32061
2.1286
0.0834137
0.0222263
1.868
2.51654
0.0221371
0.0221676
2.00653
0.0219537
0.364768
0.354403
0.0221799
0.0358372
0.0311068
0.0423148
4.57431
0.146563
3.28336
0.0419722
1.65916
0.0220991
0.0292196
1.05885
14.9175
0.14832
1.85717
0.0248019
0.0411336
1.79461
0.0477943
2.43842
9.91946
0.390704
2.91045
1.84391
2.02158
0.0220939
0.166483
0.0348214
0.0637652
1.21794
0.0294164
0.0258926
0.0221698
1.32378
0.148443
0.143037
0.0222901
0.327467
0.0224778
0.133291
3.30295
1.22133
0.0305782
0.0223632
4.10109
0.243278
4.60051
2.87145
0.0302586
1.6204
3.64127
0.0221072
0.0224456
0.0220302
2.32149
2.27095
4.48066
1.64414
1.23123
2.86925
0.0548725
0.386397
0.0245095
1.59005
0.0580633
0.230656
0.0268775
0.0734228
0.0222632
4.95557
0.813421
2.02181
3.23521
0.0221841
0.0219588
1.73741
6.02427
0.0228067
0.0581485
1.29205
0.21796
0.0306749
0.02675
0.234905
0.0322436
0.0222765
1.6509
3.93955
3.23765
0.0402153
0.0234246
1.50055
0.0410631
0.0783346
0.0349129
3.48801
0.0221872
0.0221503
0.0221897
0.0222096
7.46054
0.173182
3.72223
1.18678
3.95923
1.66114
2.06684
1.77606
0.0224928
0.030493
5.2075
1.31555
0.0221871
0.185603
4.75586
3.00348
0.0485963
0.0898092
0.26537
4.25578
0.767259
2.73748
4.79697
2.18312
0.0409224
4.66504
0.0226308
0.0221689
3.53852
0.0221655
0.0252203
0.0408291
0.0402594
0.373784
0.0220183
0.0221795
2.99826
0.0223982
5.60502
3.02362
1.28798
2.67907
0.0405403
1.51854
0.0312291
2.47174
0.0225202
0.321727
0.0527072
0.0221615
0.022881
0.0311974
0.0306944
0.0220337
2.52082
3.74792
0.031342
1.49675
0.240928
0.0225041
0.0302365
0.221663
1.96196
0.0225619
0.0576783
0.0290323
2.20732
0.0224449
0.0220162
1.89012
2.01926
4.28501
0.0602857
0.022184
0.0222313
6.74733
5.57965
5.11973
0.0219815
0.0221926
0.0258251
0.0223429
2.74738
0.0221689
5.49583
3.50005
11.9382
0.0221664
2.99708
1.47477
0.0233212
0.0746287
0.0227709
1.23175
0.0528456
0.0221499
0.0221647
0.0222219
1.97559
0.330465
3.15235
0.0222916
0.0220409
0.0514505
0.0411642
0.0301503
2.65427
5.9995
0.0222965
0.0221149
0.0340141
1.86926
0.0657676
0.0351126
0.0221873
0.53831
0.0478478
0.0221255
0.0219219
0.267083
13.2429
0.022209
12.5984
0.368139
0.0221259
5.08116
4.57097
0.0225057
0.0253289
0.0226973
0.0361186
2.05999
3.64218
0.12133
0.0221177
1.26218
2.56114
9.21027
2.11727
0.0506728
0.0221919
0.0265056
10.6935
0.0219135
0.0228182
1.78351
1.38076
0.0260696
0.0227233
0.379263
3.04186
0.0220875
0.0219805
0.0310502
1.67398
1.28746
3.09742
0.268267
2.05977
0.0349299
3.61482
0.0575058
0.0222741
0.029474
2.09814
0.0221462
2.17578
0.0328424
1.57428
4.71357
0.0537464
5.27654
0.0226843
0.0499893
2.64557
0.237067
2.77669
3.49537
2.14876
3.31292
0.0278171
0.489463
1.57474
1.4289
3.68646
0.0221206
6.17623
3.35484
0.404822
3.19718
0.0262732
13.0091
0.022088
0.0270559
2.67253
2.14262
2.33
0.0227599
0.0227339
2.20463
1.97445
0.169866
0.434476
5.68065
0.0255607
2.72515
5.70492
0.0241834
2.67662
1.79585
2.87916
0.0220248
0.022907
2.127
0.0222689
0.0221008
0.0219073
0.0224887
0.0605206
0.0617597
0.0257915
0.0221475
0.0222798
0.0221328
0.0222819
0.0222751
0.0236534
1.59754
0.327829
1.25712
1.21652
1.32278
0.245335
0.0351273
0.0224733
0.024893
0.0654099
2.595
0.0277331
1.98741
0.0382917
0.029675
0.425665
0.0372506
4.74311
1.57869
0.022214
4.51773
0.0221394
2.03659
2.42487
0.161333
0.0995728
1.93261
1.98257
0.0557805
0.0223189
6.29091
1.44922
1.32363
0.0238089
2.17396
3.79703
0.0222801
24.127
0.306075
0.0219708
0.0462429
1.35304
0.220896
0.0281084
2.23761
0.0221034
8.0966
4.29843
2.48017
4.53855
7.7993
1.25356
0.682788
0.36531
0.208355
3.12297
0.061188
0.074921
0.127505
0.0224695
1.68371
4.49513
0.0219648
2.19782
2.54385
1.23963
3.13787
0.023492
0.0394174
4.28971
1.84296
0.0932067
2.5493
0.0582402
20.1806
0.0260186
3.7943
0.0262082
2.63288
0.0387085
18.8721
0.155385
0.0236507
0.0670984
0.022222
0.0914655
3.28968
22.4566
3.55925
1.20193
0.169186
1.51204
0.0262783
1.79432
0.671593
4.17161
0.0226606
0.0352707
0.121691
4.36478
0.0244141
3.63481
0.254665
0.0219703
0.0770122
5.54649
0.151719
0.327128
3.14417
1.35505
0.0225767
2.05436
0.0286895
0.0220172
0.0638823
0.022633
0.0296206
0.0243435
2.28111
0.0322442
1.76887
0.0228629
0.0219718
0.0221019
0.0221894
2.36055
1.67598
4.141
1.7977
1.66517
4.95273
0.0639703
3.2122
3.14076
2.47634
4.47445
0.759384
1.66933
0.0404626
0.0223448
0.0224786
0.0223085
0.0988819
0.0941268
0.022437
0.0575524
0.0584353
0.0832699
1.33811
0.0225644
0.0222472
0.0898262
6.48382
1.52581
0.034229
1.22052
0.0220461
0.1398
0.0226475
0.0249045
0.0221786
0.0256827
0.0553912
5.21549
2.81333
1.96116
4.55129
0.0221061
0.105466
1.21558
0.0222162
0.0221798
10.8427
2.5572
6.24621
0.0254921
0.934226
1.81892
0.921107
0.021957
0.0221699
2.3897
0.34117
1.44162
0.0313313
1.95599
0.256885
0.0932072
0.0220335
0.616294
1.60489
4.76617
4.49709
1.54987
0.36134
0.0248246
22.5412
0.0222614
0.0346461
0.0219473
0.0281608
5.79259
1.94174
0.353726
0.0221555
4.66752
0.0300465
1.7229
3.18148
0.0711088
0.0246018
0.0728612
2.04215
0.0221111
0.0237259
0.0225644
4.24933
0.0219932
0.0222734
2.14421
6.68396
0.30521
0.0629722
0.02231
0.022292
7.92575
4.92125
3.93941
0.0222433
0.219412
1.60256
0.0316946
0.0218414
0.0347481
24.658
0.0901113
1.39865
0.0258869
1.27727
0.109028
0.0405646
0.384697
0.0929951
0.0222031
0.256386
0.0222788
0.0313301
2.07342
2.17121
0.0221946
1.01136
0.0224906
0.0316513
0.0222585
0.0249684
1.96351
0.0223191
2.02734
0.0371965
2.78152
0.0220374
0.0700317
2.08404
0.0220996
0.0286686
1.98097
2.14438
0.0585202
2.05454
0.0552503
21.6515
0.0225936
0.0395522
2.11531
0.0651429
0.0221978
0.0224687
2.2408
0.0221022
3.97386
6.09276
0.122502
0.0551967
5.16148
8.32021
3.02421
0.0222081
0.0542964
0.0911677
0.0362908
0.0221168
0.0890152
5.10746
0.0804629
2.15156
0.024379
1.59754
5.74857
0.290656
0.339795
1.19567
0.0222186
0.190556
0.0667921
4.05808
2.00945
0.0278166
1.77911
1.60853
0.0586829
1.81921
3.2925
4.52379
0.582712
0.0223275
0.387876
0.0222259
0.022208
0.0275196
0.0221968
3.63461
3.26559
2.16877
2.0005
3.84645
2.26206
1.59606
1.25922
0.0692542
0.0426981
14.3676
3.38193
12.2114
0.0222072
0.0222756
1.94847
0.0268067
0.0415383
0.0221573
0.0894597
0.0226909
1.72176
0.0348987
0.174582
0.0347256
1.97253
0.337853
1.75015
0.0222506
0.0243242
0.140733
0.597035
0.0226266
0.0379372
0.0403669
0.23324
2.50882
0.0271421
0.0220277
0.0594635
3.51409
0.0222262
0.0594088
2.64197
5.1224
1.25483
0.0412996
8.8276
0.0220109
0.0222398
3.0168
0.207101
0.130097
0.0222011
0.109285
1.64883
1.6038
3.96203
0.0224859
0.0222511
3.2355
1.5887
0.101559
1.53498
0.0788357
0.0222358
0.0266579
2.02868
0.0229943
1.80949
0.23007
0.02408
1.44247
0.372376
1.48801
0.0222574
0.0417208
0.780194
0.0335273
1.74685
1.39945
3.55327
0.0421819
0.0571866
0.0259745
0.290208
0.0221514
0.0363962
0.137265
0.0221095
0.196096
0.0245913
0.0222787
0.663676
2.15524
3.14586
8.45899
0.750531
0.031399
0.0692724
0.0222063
0.0300055
0.0218952
4.57975
0.270108
0.0414505
0.0392365
0.0575761
7.98228
0.156125
0.0220091
1.25561
2.08273
1.60813
0.0221417
0.0221918
0.0239348
7.39661
0.361713
2.10423
0.288074
9.12204
0.098845
0.0228075
0.0352065
0.0307723
2.73935
1.65751
1.42615
0.0248605
0.03613
0.0230935
0.0219622
0.0222022
0.022003
0.022021
1.44964
0.273283
0.0566063
2.03194
1.21077
0.0264497
0.0359195
9.75033
0.0223311
0.0278736
1.87338
0.0221726
0.0220264
0.0370742
1.37351
0.0220891
3.61048
0.282856
0.0221745
0.0220943
3.19495
16.07
2.31925
0.0311453
0.0221693
0.420334
0.032709
0.0220248
1.89393
0.0223549
1.66759
0.143784
1.26532
0.0584056
3.68888
0.037321
0.0218546
0.317158
1.60791
0.0232481
2.96706
0.0854534
0.0343861
3.10187
0.0232675
0.0221795
1.32021
4.25732
1.50898
2.69927
0.0219134
0.0934482
0.632347
0.6016
4.3494
0.038591
0.0287217
0.0926801
0.0358451
0.0401783
0.0307162
0.0222382
2.89312
0.032141
0.0221775
2.75427
0.735133
0.430012
1.22625
0.0290836
0.0222611
3.79872
0.059655
3.71321
0.147102
1.18631
0.457289
0.022467
0.042573
4.16232
6.17339
0.0315815
1.93692
1.89311
2.92083
0.0219524
0.0220391
0.150984
1.71808
1.51351
2.93763
13.3689
0.0219162
0.0221612
2.3583
0.119835
2.55599
0.47343
0.024683
3.67497
0.0623315
0.0883695
1.98366
0.0222405
0.306602
0.0396767
0.064458
0.0626815
0.171097
0.0220923
1.66632
5.93949
2.02939
0.0736473
0.0223877
0.0376521
0.0431221
1.77685
0.0231902
0.0222053
0.0424822
8.15048
0.0221435
0.389438
0.0525352
2.37123
1.61878
1.34168
0.672467
0.919336
1.30329
0.0226646
0.022101
0.542918
0.022508
3.02453
2.23978
0.0220854
0.0437643
0.0222331
0.0221756
1.97749
0.0937289
2.23677
0.0231197
0.0868329
0.022202
1.44345
0.0224965
0.0368918
3.0812
0.0234752
1.58192
0.235281
0.165851
2.37196
2.63524
0.0314911
0.0220542
4.59693
0.056699
14.709
0.026073
3.3331
0.022187
2.13213
3.20049
0.127107
2.13845
1.24735
0.87744
0.0239942
3.0481
0.490555
1.19508
0.0221389
0.0234884
0.0742377
0.478733
0.348758
0.153469
0.0245414
0.101585
0.0266103
0.0363758
1.57428
0.0499955
0.0223536
1.30277
0.228073
5.23962
0.0770599
1.74468
0.068276
1.9117
0.0535674
0.0338016
0.0290345
0.589954
0.0726383
18.7446
2.37179
0.123806
0.0221575
13.084
1.18046
0.0832022
0.0220883
1.34663
0.606088
0.0331428
0.0220203
1.90866
1.57729
0.192966
0.632742
0.0967108
0.02653
2.03273
0.636416
1.93688
12.5091
1.63874
4.20464
11.5445
0.0307117
1.30804
2.26327
0.0519591
3.73837
0.0222568
3.72259
2.14986
2.69599
0.0222021
0.0257046
0.0611288
0.0236911
1.9658
0.0656768
0.566905
0.033348
0.144646
1.22164
0.0243086
0.0224376
0.0219477
0.0236315
0.0527928
4.69075
3.07469
0.0347794
0.0371055
0.0283094
5.80269
6.72826
1.43166
0.15372
0.0221349
0.0320399
3.9701
0.276076
2.5638
1.67054
0.0223961
0.195071
3.40968
1.98224
0.0222691
0.0221764
0.0237604
0.0938814
1.63579
0.0221101
0.131548
0.0248498
0.0220756
0.0226677
2.33437
0.0222209
2.09869
0.0225904
0.0252965
2.20217
0.0220752
3.43672
1.41219
0.146471
6.43391
0.0335222
1.97807
1.14535
1.61909
1.97222
2.07054
1.60974
2.12431
1.27476
0.138536
22.9995
0.0935322
4.50191
0.192946
0.0981437
2.67164
10.7022
2.25455
0.142244
1.64809
1.99413
12.8315
2.67337
12.1755
4.36249
0.0221947
0.485827
0.022472
2.86698
1.57637
0.0252715
1.99567
0.734499
0.0256854
4.45938
0.0220661
0.0977819
1.29374
0.0226701
25.8302
22.4269
0.356845
2.85111
0.0228239
0.059927
2.21131
0.0222476
0.264317
0.0976675
0.023281
3.51203
0.222529
3.13545
6.12656
0.181023
3.08824
0.299045
0.245667
8.28672
3.79694
0.0531233
0.0221843
0.0236415
1.66686
2.80987
0.0278804
1.66572
0.0222479
4.87247
1.21072
2.92817
2.22428
0.0263824
2.78494
0.056256
8.56304
0.835435
1.7645
0.0415253
2.11055
0.0319837
0.0649928
3.66141
0.118182
2.49532
0.106811
0.0318739
2.88187
2.67218
12.9721
0.0534836
0.0418662
1.64596
0.0222705
0.0223004
0.0307592
0.0223753
10.9321
14.1975
0.0223273
1.23877
1.95046
0.0616277
0.0287617
0.0248248
0.326619
0.0248355
0.0221995
0.0222541
0.26672
1.70839
1.66666
0.0310787
1.385
4.14711
0.322351
0.0220755
0.0218417
0.0220456
0.0902917
0.0562076
2.38666
0.0640589
0.0301327
0.261142
0.0227526
0.0221819
0.025467
0.119223
0.0719957
1.65849
0.91681
0.0221604
4.68493
0.0411476
0.0873093
0.112128
0.0413676
0.0257115
2.01375
0.0222461
0.0222504
2.33194
13.6139
0.0500359
1.26391
0.05066
1.33723
0.26346
1.72171
1.65004
0.0221449
3.08143
0.0219423
0.0222206
5.92478
3.08715
0.0222226
2.03376
4.57897
0.117984
0.02227
0.28894
2.06859
0.112859
1.22598
1.65738
0.0220439
1.2591
0.0468845
1.68011
11.3028
0.0222248
6.34169
0.0329147
0.022228
0.0246136
0.0221377
0.295321
0.682536
0.0222407
0.209275
0.265869
0.0405211
0.0250254
1.66433
0.0218161
1.28792
10.1277
0.0395876
0.0483794
0.0220494
16.6871
0.0221798
0.0541257
0.0247303
4.86329
0.78825
2.00313
0.0556116
8.25192
15.6403
1.25266
0.0218112
5.51609
0.172022
2.94176
0.0233903
3.06254
2.32104
1.26538
0.125382
0.0221378
0.022232
0.0981381
1.44112
0.0222563
1.23091
0.0226361
2.64131
0.027504
1.59223
0.0747594
0.022083
0.0228309
2.58988
4.79738
1.62921
2.84417
1.99007
2.21204
0.552708
0.0500054
0.0221033
0.0265559
0.0264746
12.8596
0.276403
0.0690446
0.0293029
3.16053
1.5911
1.25663
3.85375
2.02546
0.0219252
0.0246657
0.0407995
0.0883898
1.62387
0.022354
2.4894
0.0221919
2.13954
2.65595
0.0254884
1.91119
4.82223
1.27169
1.22081
0.0355235
0.152985
0.0252828
0.0546801
0.102188
1.78092
0.337866
0.279185
0.0221788
0.0220286
0.0423027
9.65403
3.7827
0.186354
0.0220771
0.0226207
0.0222775
5.95111
0.554954
0.0245855
0.103663
4.44494
5.50311
0.0415262
20.2585
3.75676
0.0222464
2.1461
0.102521
0.0221454
0.0224133
0.0288388
0.0222653
3.65834
0.0229338
0.0251977
0.0222953
0.0350793
0.0222468
0.022926
1.65577
0.0237436
1.62233
2.45291
0.0245413
1.46834
1.63644
7.00341
0.0308242
1.67893
22.5632
2.02047
20.9569
0.0222597
0.112816
1.75206
0.0222003
0.134272
0.0263195
0.230891
0.0908297
0.0344129
0.0542149
8.41516
0.0872573
0.130686
0.0271662
0.315257
0.0391541
1.89825
1.22424
2.02434
16.7935
0.0222718
0.0284976
0.022237
4.25226
0.0222832
0.107982
0.0822527
17.9884
4.15625
1.63893
0.0242042
2.29235
19.2381
0.0233372
1.60567
0.215035
2.23555
6.30142
0.0249549
0.0233281
4.11771
1.31329
2.36898
1.41948
1.85918
0.0221809
1.86174
3.53749
1.93317
1.74438
0.0262407
0.0309405
0.0467239
0.0232717
0.149105
12.6982
0.160624
0.0301091
0.0221824
6.69882
3.37458
0.294862
2.26112
0.041223
1.38624
5.99234
0.0222129
8.1309
1.67288
2.97902
0.0645374
18.1269
0.02222
0.0467266
1.68695
1.68127
0.348007
0.111275
1.70468
7.86888
2.19478
0.0225623
19.6112
6.42618
0.342103
13.9464
0.0298287
1.10458
0.0223851
0.0288909
0.0223979
0.0590843
0.0237384
0.0512612
0.091317
0.185504
0.0234048
2.32477
0.0304999
0.0221777
0.0244636
0.0435973
5.10471
0.022093
1.2317
2.32587
0.123188
0.0286565
1.26973
1.30401
0.02223
0.0576908
0.0221964
0.0258469
1.70395
0.875944
1.85362
2.54663
2.43507
0.022238
9.49209
0.022441
0.0370017
2.76374
1.33996
0.0231197
0.240862
0.0934074
0.0227317
0.168991
0.022358
4.49931
0.0231689
7.60047
2.35771
0.0274937
3.09479
0.0222626
0.0221771
1.54142
0.0476843
1.39705
1.23424
2.47936
0.0220406
0.0575419
0.0564158
0.038119
0.0323371
12.0349
0.0482703
0.0221955
0.0387676
0.0772202
1.38619
4.93475
0.0222171
0.0514
1.36308
4.24491
0.0565584
1.85549
0.0235963
0.0294182
0.0605577
0.0221872
0.031113
0.0222601
1.99538
0.0682477
3.09289
5.12865
1.73097
1.91103
0.0220387
0.0258933
0.0462423
0.0221999
0.339656
1.94067
1.64648
0.0256668
1.15968
0.0221052
0.192009
1.22936
1.21586
1.64687
1.79567
3.29073
14.7457
0.0255437
0.0221899
1.30546
0.0276174
0.0222434
0.0221836
3.68399
0.778977
0.0910276
1.85138
0.0221875
1.59341
0.0591264
1.96976
3.61553
5.5221
0.0269969
0.0642886
3.51766
0.0549974
0.230236
0.184026
0.0350276
0.127436
0.02928
8.22857
4.39893
1.71488
0.0433214
0.0221455
14.1754
2.17235
1.29336
0.0221996
1.38665
2.52756
1.62484
2.91657
1.97407
0.0299452
1.37432
2.29021
2.13835
0.0225414
5.06588
0.0234094
0.564307
1.80798
7.87797
2.06423
0.0222458
0.0357494
0.081469
1.8895
0.036304
1.68436
0.0242893
0.40705
4.32422
0.0223962
0.0222038
0.134799
0.0248088
0.0232052
4.08602
3.51442
0.0502067
0.0227817
1.6372
0.0233149
0.0221904
0.0229206
1.27174
1.6627
1.24966
0.0228387
6.47836
0.0222592
3.16906
2.97351
0.022254
0.0419803
0.030793
8.49782
0.0508722
0.0854263
6.74377
0.0226617
2.99535
0.021957
0.0226788
0.0220799
0.022183
0.0224397
0.0234436
0.574573
2.11186
0.275477
0.0383114
0.109084
10.9708
0.577759
2.44651
8.54049
0.0222215
3.15372
0.0866543
4.97821
0.0278226
5.50848
0.0236897
0.0849672
0.0275185
3.96492
0.022112
1.27721
17.8956
0.0242135
0.0730364
2.84392
0.0491367
0.0322412
0.022278
5.15901
0.0242182
0.503561
0.022221
0.0228635
1.23552
2.32043
2.281
0.0222502
0.0259757
3.5989
0.0221884
0.0220618
12.4625
4.06046
1.94311
0.022265
0.0354197
0.0221755
2.70157
0.0496028
0.0229448
2.48232
1.02033
0.0477501
2.46998
0.0912289
0.0221156
0.0279432
0.0222028
1.97521
0.0220952
0.0242348
0.0221913
0.214336
0.0221756
0.0221965
0.0233912
6.7123
0.035872
0.0252369
0.059225
0.1438
0.0476115
1.34345
2.03302
0.0286321
0.0222075
0.0554157
0.200249
0.114578
6.92022
1.24851
0.022939
1.58682
0.0220881
2.74786
1.84458
1.73992
0.0231334
1.43728
0.0221696
0.0279855
0.0478556
0.0586229
0.0382495
2.78262
0.0236473
0.0252183
0.17458
2.35868
0.0464862
0.0726233
8.40069
0.0261902
0.921271
0.0330608
1.19107
0.0294185
0.662979
0.516075
0.186713
0.0320244
0.0232378
1.48038
2.23158
3.26365
0.023324
0.0687105
22.5008
0.0472342
0.0219728
0.0532337
0.0237665
0.0232445
0.135326
0.0755943
1.32858
2.25174
9.9492
0.025359
2.32331
2.34751
3.22543
2.32358
0.0233482
0.0221732
0.0223954
10.0352
0.419548
0.0353194
4.46583
1.71094
0.0234787
0.0498324
3.64745
1.86768
0.0225745
15.764
0.0220662
4.35061
0.20555
18.4771
0.0346268
0.0589699
3.1195
0.254904
2.16211
3.59864
1.28024
0.0234015
0.0259336
0.0608913
0.0222377
0.0375087
3.27539
1.41835
0.0222605
0.0221215
0.184215
1.50678
0.722058
0.0344253
2.17781
0.0238991
2.84505
0.259666
1.46521
0.0224743
0.024924
2.09234
12.6525
3.14621
1.9117
0.288838
1.87419
4.82255
0.0220964
1.26322
0.0367953
0.022088
0.0220377
1.32811
0.270252
0.0220184
0.0222113
4.14194
0.0229168
0.157467
0.0225455
0.0222961
0.269423
1.77085
0.0223965
2.08551
0.635726
0.0220481
0.0404342
0.252433
0.177653
0.0935755
2.35865
0.0239301
0.816912
1.45526
0.240578
0.0238019
1.60651
0.0225444
0.104963
0.0236103
0.590055
1.96074
0.0224077
0.413452
3.37713
0.0300914
0.022144
0.0339906
13.241
3.48963
1.84134
0.130871
0.490456
6.98611
4.45584
0.0225549
1.83041
0.838356
0.119199
1.71351
0.359456
0.642354
1.84761
3.45427
0.0392678
1.67277
13.9997
15.7018
1.46773
2.6119
0.024111
0.0389519
1.81513
2.78879
0.0222165
0.0223216
5.70865
0.0222599
1.19136
1.95268
3.94042
4.86054
0.0321578
0.725673
3.55423
0.0219277
0.0222576
0.0463635
0.38489
1.31139
2.07381
1.28015
2.60353
0.0337186
1.88127
1.46973
2.05025
0.0610066
0.0526786
1.84991
4.38897
0.0227091
1.28001
0.163995
0.0503643
0.022178
3.66232
2.51019
0.0222282
0.0221565
0.0228918
0.0222608
0.883419
1.73176
0.0348509
2.96554
0.481613
0.0222146
1.56173
0.0269572
0.0251212
13.9349
0.0222059
0.0260121
1.29666
0.0522086
0.146564
0.022823
0.0223653
2.22261
0.0594115
3.92884
1.33342
2.28636
1.64502
0.0218474
4.17827
0.0233004
1.69126
0.0221935
15.0117
1.65628
0.0252305
1.89438
2.02821
0.0241769
0.22476
0.0219254
6.53994
0.307782
0.0310206
0.022154
0.0528808
0.0222723
1.83059
0.0477447
0.0220912
0.022227
4.48355
0.283942
0.037878
0.0219908
8.72791
0.026839
1.69779
0.0237076
0.0258106
0.025225
0.0565527
0.0222725
0.274466
0.0257048
2.16125
0.0248769
0.0240277
0.657523
2.61872
0.023208
4.29298
0.0258131
0.0474546
0.0221804
0.564382
0.664102
0.220298
2.60976
0.0220793
0.134537
0.311257
1.32778
0.587446
0.0221933
1.95781
1.48167
0.0615203
2.74584
0.0310068
0.0573002
9.0874
0.0218734
0.0254537
0.931374
3.3022
0.0225083
0.0569725
1.26516
0.0236594
1.26855
2.13058
2.94938
1.55531
0.0246424
1.52296
0.0255743
0.0237252
0.563396
0.0880835
0.057046
0.0231459
0.0393489
0.0470155
0.0222635
0.0224508
0.0297968
0.0377849
0.022164
0.0251582
0.0222843
0.417342
1.67393
0.0498611
0.0220405
0.0843177
1.64681
0.0356727
0.0228001
0.0221828
1.05091
0.0218413
4.8511
0.0229168
0.053612
0.0220152
0.0839396
0.0943617
0.0335623
0.091921
0.0282927
1.77271
6.21358
0.0221504
0.0221788
0.0226678
1.34146
1.4032
1.58924
0.184488
0.232593
0.0219578
0.0228853
0.356419
3.06979
2.9428
0.0531657
1.06713
0.0221727
0.309916
0.0220165
0.25875
0.0561458
2.16052
0.0234869
0.0480286
0.0220819
0.222828
4.86634
0.0329934
1.28187
2.70951
2.11646
0.603673
0.0299184
0.0300798
0.0221638
4.47646
0.0280964
0.130777
0.459017
0.0386199
0.022183
0.0251256
0.0223833
4.3564
0.0259047
0.0228252
2.04459
0.0221297
0.0379145
0.0940778
0.025344
0.219312
0.0222927
0.0505764
0.0298327
0.101157
0.0222774
0.0221935
0.316852
0.190675
2.82006
0.222772
0.864331
1.86732
0.0221927
1.58808
0.16729
0.199673
0.291787
0.0238681
0.0644766
0.0269984
0.0230227
0.0226161
1.37833
0.219846
0.0372517
2.44494
0.0256647
2.89538
0.033591
0.0531116
0.0234729
6.86398
2.07069
2.97614
0.0257755
0.0220326
0.0360462
0.0241223
1.55841
0.177595
0.0302688
0.022182
0.159034
0.1195
0.0228953
4.32502
3.48317
0.0475595
1.53765
0.0532795
1.45342
0.028713
0.0584871
2.63617
0.164239
0.0412548
0.563428
0.0859766
0.0257817
0.0221172
0.022117
0.173066
1.82209
0.0349535
4.03889
1.33437
0.126474
0.0578866
0.0246943
0.0221899
0.0238668
0.104462
0.248462
0.0753521
1.7206
1.76431
0.0222059
0.0224038
4.76405
0.0230405
0.0219309
0.0223867
0.369475
0.916478
0.0232995
0.405479
0.0219886
0.0236798
0.060572
8.3388
1.68082
0.12425
7.57674
0.264742
3.25273
5.66945
1.18405
0.0220096
0.022186
0.0239517
0.0445716
2.33681
2.89893
0.828089
0.0356653
0.0224837
0.022803
0.0503122
4.30004
0.0221657
0.0557232
0.104365
0.0352974
0.0222779
0.0330947
2.02467
0.0224567
0.0224942
0.0222795
0.0222048
0.0221532
2.199
0.0483651
2.1165
0.0461822
0.26277
1.22644
2.78618
0.0230011
8.81164
0.82239
0.379698
0.101794
0.10675
0.0225176
0.045918
4.9813
0.0224688
7.35963
0.0572733
9.48102
0.0227306
1.77629
0.0266525
0.0890182
0.259371
0.0220822
0.0657873
2.24453
0.477225
0.410541
0.0249949
0.0222106
0.309126
0.0228913
3.02365
0.0244844
0.0554286
0.657615
0.336356
0.0222046
1.22409
0.231069
0.0223601
0.0690475
0.0936254
0.186771
0.0223379
4.53368
0.0293427
1.84495
0.0220812
0.0249526
1.57995
0.230528
28.5362
0.0222071
1.39117
1.83499
2.3103
0.0283668
0.0410628
3.31624
3.68667
1.25629
0.0221915
0.126114
0.225975
0.0406082
0.0252248
21.2543
0.0875502
0.022099
0.0264505
1.72238
0.02222
0.0220148
0.172326
2.90392
0.0222061
0.0904487
0.0236549
3.34428
0.627178
3.06311
0.0640685
0.0221841
0.045642
0.0406764
2.43643
0.0971286
4.66375
0.0275205
0.0715642
0.0567166
5.54972
4.93205
0.0221717
0.0607584
1.89699
0.0555798
0.0288567
0.0253323
1.21782
0.114041
0.0244755
0.0278094
1.84346
0.0234639
0.0406484
0.0221741
0.0282847
0.0221912
0.0243308
0.496296
1.93212
0.0282768
0.127456
2.49001
1.20028
0.0221919
0.039847
0.0219981
4.17353
0.0507782
0.0583604
0.0218867
0.0251412
0.0239408
1.88639
2.28183
0.0221098
0.978896
0.0231884
1.62639
1.58883
6.09428
2.64007
0.227463
3.98976
0.30439
0.0231505
0.0240994
0.0231731
13.943
9.20982
0.0221778
4.81825
0.0529233
0.0290045
9.11006
3.66759
0.0220977
0.300776
0.106415
4.68399
14.3324
4.52305
0.0222234
0.185873
1.28436
0.0580431
0.0219768
0.0272182
1.20437
7.87164
0.0221573
0.0369293
0.0232739
0.0237896
0.0267259
0.108724
0.657703
0.336696
0.0318792
0.0464414
1.51756
0.0419284
0.0964584
0.0248236
0.0230142
0.126105
5.25499
0.0232005
15.0863
0.667763
0.0222778
0.0307974
0.0225754
0.0524269
0.0222416
0.0274265
0.0873126
1.58653
4.75594
11.9362
0.0582042
2.08985
2.00766
1.58438
0.0225168
1.55416
0.729437
0.106368
2.74745
1.25332
1.29646
0.0221515
0.106718
0.0515567
0.0232318
2.1894
5.10748
1.76903
10.7742
0.0759505
1.94781
4.94368
0.218537
0.0222242
4.59974
2.02646
0.0246711
0.0251915
2.36947
3.41686
0.0237825
0.0245021
0.0221516
0.0589567
0.0221791
2.67947
2.79294
0.0222387
1.82416
0.0384855
0.0265417
2.38038
0.110923
0.0283073
0.0328655
1.69741
2.27243
0.0222545
0.0224654
5.51403
0.0244498
0.484718
1.9778
1.9056
2.44754
1.68388
1.22469
0.0238636
0.0836269
0.0217917
0.0678388
0.0226178
13.0692
12.2506
1.2094
5.08742
0.0315257
0.092087
1.63369
0.04988
1.64582
0.0251957
3.64125
1.55801
0.0227804
1.73504
0.254589
2.31184
0.0780545
2.4411
0.0263242
0.023174
4.69215
3.38385
2.41262
0.0236646
8.45928
0.35502
1.5907
0.0668932
0.0228223
0.238293
0.0306732
2.94237
3.47071
1.25961
6.72376
5.83891
1.81488
0.022016
0.0280179
0.544985
0.592226
0.0236545
0.022185
0.0374243
1.96596
0.0290643
0.0236618
5.83024
0.0330661
0.0240982
1.64204
8.7791
0.0266175
1.22617
0.0277117
2.23589
0.507604
0.400947
0.0222482
10.2515
0.0350856
0.0221996
0.0219771
9.48753
0.0501061
0.0221396
0.268267
0.293123
0.0520302
1.62535
0.0339819
0.0477452
2.15111
0.0255025
2.45544
0.0232646
0.0227042
6.33134
0.0235143
8.28024
0.0245816
1.73247
0.039957
2.33401
4.79176
4.17808
0.0259034
0.146373
3.75782
0.297215
0.0223115
10.1303
0.0254577
0.0518642
0.0364053
0.0757198
11.276
4.6072
0.927133
1.68166
0.0233525
0.0511462
0.0236652
0.045838
0.0274164
0.0317222
0.0221608
0.0249293
2.43277
2.00699
2.28056
0.0247062
14.0339
0.110695
0.0220114
0.437705
0.0226122
0.0219873
0.306913
0.0915209
1.69966
0.113736
0.101209
0.0232165
0.0309397
0.0225619
0.0877247
1.40414
1.24652
0.0222261
0.0252771
3.00508
0.0234128
0.0226368
0.022226
0.221363
0.0513756
11.3832
0.505516
0.469249
0.0222097
0.187004
0.0222011
0.023539
0.14384
0.373182
1.32568
1.44725
2.11785
0.0323747
0.0365538
6.17215
0.0231079
2.39023
4.344
0.0221987
9.68359
0.0222136
0.127502
0.0222707
0.0353014
1.42733
0.0520582
0.0257206
2.20779
0.0339342
2.51594
0.0258885
1.28485
0.0278079
1.85383
0.363112
0.0280741
0.090036
0.0223141
0.0222039
7.14562
0.0302898
0.202721
0.0279864
2.57378
0.111891
0.0365811
0.022489
0.0273143
0.397003
0.0232033
2.3385
0.649347
1.92867
0.312108
0.0222157
0.243166
0.92953
3.36612
2.41579
0.671191
3.01192
0.0305025
1.20338
6.7187
16.3364
0.0900411
0.114434
2.03741
0.0261424
0.0299019
0.0288291
0.0222191
0.0234148
0.0222875
0.047206
0.0230323
2.18121
0.193631
1.62913
0.0390925
12.7694
0.0222872
0.0405417
6.78871
4.00534
0.0222687
5.029
0.214952
0.0222867
0.171838
0.0303488
0.128674
0.201232
2.43972
0.0418062
0.0222895
0.337187
0.0364443
0.0222898
0.0221405
5.39539
0.0550753
0.0233528
12.1296
1.63036
0.127211
0.101399
0.0356187
2.55998
0.524038
3.60247
1.30572
0.0315751
4.82152
0.176801
1.89004
0.0680602
2.30213
1.64522
1.25613
1.61387
1.44511
0.136905
3.82462
0.180076
1.88016
0.0220366
0.0286272
3.65797
0.20775
0.023248
0.14338
2.10362
3.09298
1.47753
0.0345056
0.249496
0.0288108
7.89577
0.0337515
1.56766
0.0290532
1.90963
3.99511
0.0426621
0.022261
0.0279023
1.78618
3.54919
9.33934
0.0221794
0.0286932
3.13292
0.0264414
3.34262
0.304205
0.032502
14.5219
0.364177
1.95176
0.0414268