/*--------------------------------*- C++ -*----------------------------------*\
| =========                 |                                                 |
| \\      /  F ield         | OpenFOAM: The Open Source CFD Toolbox           |
|  \\    /   O peration     | Version:  v2012                                 |
|   \\  /    A nd           | Website:  www.openfoam.com                      |
|    \\/     M anipulation  |                                                 |
\*---------------------------------------------------------------------------*/
FoamFile
{
    version     2.0;
    format      ascii;
    class       volScalarField;
    location    "300";
    object      k_0;
}
// * * * * * * * * * * * * * * * * * * * * * * * * * * * * * * * * * * * * * //

dimensions      [0 2 -2 0 0 0 0];


internalField   nonuniform List<scalar> 
13749
(
0.0143375
6.48603e-05
8.82647e-05
7.21606e-05
0.0394776
4.628e-05
0.0236133
8.39487e-05
0.000160494
7.17614e-05
4.64489e-05
8.91166e-05
8.83833e-05
0.0252724
7.67181e-05
0.0254581
7.91945e-05
8.31764e-05
0.00423177
5.21486e-05
0.0310884
0.0423106
6.16475e-05
9.22644e-05
9.29318e-05
4.62367e-05
7.78975e-05
0.000120076
0.0452551
0.0288255
0.000248966
7.34997e-05
0.000165133
7.68758e-05
0.00977664
0.0270421
0.0429374
7.902e-05
0.00966639
0.0225283
8.452e-05
0.000177814
6.59653e-05
0.0432159
5.15636e-05
6.51978e-05
5.04589e-05
7.08499e-05
0.000100439
8.31002e-05
9.25675e-05
5.13665e-05
0.0206396
6.84223e-05
8.38281e-05
0.0276196
0.0443116
9.41765e-05
5.11116e-05
0.00012891
7.32514e-05
0.00155876
7.18903e-05
5.80952e-05
0.000113611
0.00667484
9.19514e-05
0.000189633
0.0234094
0.013071
9.29664e-05
0.000807824
8.07985e-05
0.039275
8.4428e-05
0.0377877
7.2843e-05
4.44287e-05
0.0244227
6.52236e-05
0.00129961
9.34306e-05
9.45395e-05
5.0021e-05
0.0476737
5.93638e-05
0.0171804
9.20173e-05
0.0329172
0.000112208
6.94441e-05
0.00153834
4.62567e-05
8.87783e-05
8.39851e-05
0.0350975
0.0239135
9.57983e-05
0.0319354
5.10867e-05
7.33734e-05
0.0221595
7.82843e-05
0.000175046
4.63141e-05
8.61097e-05
6.91626e-05
0.00426856
4.45572e-05
0.0303015
7.8698e-05
0.00226886
0.0202632
8.35014e-05
0.000115765
0.000149636
7.24058e-05
8.91937e-05
0.000121844
8.30609e-05
6.80599e-05
8.4634e-05
4.5832e-05
6.35795e-05
5.07485e-05
0.0463609
9.02275e-05
8.4464e-05
6.34295e-05
0.00571493
5.03624e-05
0.0176948
0.000122235
0.0308815
0.000181714
0.0425557
0.0300323
0.000125231
4.54411e-05
6.14088e-05
0.0318317
5.13011e-05
6.80629e-05
0.0124528
7.83328e-05
4.48059e-05
0.0335787
0.0228117
0.038717
0.0429673
5.11627e-05
0.0306105
4.58107e-05
0.000343532
0.0473963
8.545e-05
0.0170526
0.000337492
7.40951e-05
7.58499e-05
8.82478e-05
4.60736e-05
9.14896e-05
4.94858e-05
0.000354804
8.77048e-05
5.08896e-05
7.8634e-05
0.0395381
0.000342855
7.94881e-05
4.59862e-05
0.0451166
0.0309789
0.00014029
8.77165e-05
0.000194402
0.00162521
0.000120088
0.0397602
9.07777e-05
8.45367e-05
0.000200085
0.0129498
8.81255e-05
6.13687e-05
6.80588e-05
5.53128e-05
0.0087749
7.08746e-05
0.0393176
0.000371823
8.72673e-05
8.7662e-05
5.91109e-05
5.49446e-05
0.000121867
9.71046e-05
0.000102735
0.00151126
0.0244609
8.81208e-05
0.0476243
0.0213627
6.96054e-05
0.0163167
0.000180187
0.0438502
5.05895e-05
5.08244e-05
8.47244e-05
0.0102024
9.4459e-05
6.6325e-05
0.0196128
0.00826441
8.80076e-05
0.0241483
8.49678e-05
6.81745e-05
5.05113e-05
0.0296336
0.000167811
9.08494e-05
0.00911533
0.0390603
0.0125057
5.07931e-05
0.0161924
6.77434e-05
0.00933511
0.0109015
6.73185e-05
4.59825e-05
8.18738e-05
4.45869e-05
0.0336323
6.82252e-05
0.000492989
4.57005e-05
0.0176344
0.000164749
6.81528e-05
7.0706e-05
4.72963e-05
4.83223e-05
7.11409e-05
6.66465e-05
0.000729455
0.00193361
7.90961e-05
5.96113e-05
0.0372547
0.028468
8.19834e-05
4.75488e-05
0.0317882
0.00014844
8.45368e-05
6.3916e-05
0.0192723
0.0453107
7.91688e-05
9.44184e-05
6.44895e-05
4.45451e-05
4.49824e-05
0.00121555
0.0413494
8.86671e-05
5.0946e-05
8.69491e-05
0.0289786
0.0226052
7.13581e-05
0.023799
0.00650833
9.32974e-05
0.0407256
7.82397e-05
0.00414709
0.0122581
0.0327816
8.75068e-05
0.0121574
8.84956e-05
0.000276484
0.000618072
6.37374e-05
0.015992
0.0378594
0.000157698
8.4149e-05
9.39497e-05
0.0457655
0.0445186
6.09378e-05
8.39132e-05
0.017207
8.60374e-05
0.0466214
0.000333571
0.0363023
8.62234e-05
0.000124647
0.0407701
0.0416845
6.53282e-05
0.0400192
6.10738e-05
6.30194e-05
9.49254e-05
0.0137224
0.000103667
9.79428e-05
7.21094e-05
0.00274928
6.3178e-05
0.000177031
5.17952e-05
6.77442e-05
6.81809e-05
8.65778e-05
0.00662571
8.05499e-05
8.707e-05
0.034198
6.75579e-05
7.28427e-05
0.0409195
0.0512148
8.19329e-05
5.88479e-05
0.0151479
8.43418e-05
6.96763e-05
0.00639694
8.34543e-05
0.0267718
0.0204414
4.43273e-05
0.0325042
0.0156802
8.90598e-05
4.75192e-05
0.000105053
9.52504e-05
9.47911e-05
7.39344e-05
0.00874627
8.69831e-05
0.0249158
8.07279e-05
5.66119e-05
9.99327e-05
0.000100447
9.02169e-05
7.12902e-05
9.44622e-05
0.00407694
7.47433e-05
6.93784e-05
0.000117922
0.0383164
4.75682e-05
0.000551087
5.78593e-05
0.000133179
8.42242e-05
7.93359e-05
0.000932632
4.64172e-05
8.3155e-05
0.00275733
8.10592e-05
6.47737e-05
4.94492e-05
6.86119e-05
0.0417542
0.000100807
7.84731e-05
5.09574e-05
6.13193e-05
0.0131463
0.000103535
0.00654951
0.0318567
0.000142649
0.0258048
0.0329127
8.61069e-05
7.42028e-05
6.84538e-05
0.00942419
0.0282904
6.82005e-05
7.06284e-05
8.00163e-05
0.0354398
5.07138e-05
0.000103688
8.09443e-05
0.000719501
0.00032919
0.00426592
0.0101296
0.0528556
7.48771e-05
0.000603462
0.0149406
4.56473e-05
0.000933135
7.79819e-05
0.00704918
4.45539e-05
0.0131191
0.040964
8.39446e-05
0.0219901
0.0328922
7.10258e-05
9.3175e-05
0.0395191
9.28301e-05
7.71459e-05
8.72355e-05
4.88915e-05
7.71805e-05
8.96064e-05
7.95569e-05
0.000118773
7.37771e-05
6.47877e-05
6.08449e-05
8.0899e-05
8.04902e-05
7.96381e-05
0.011277
0.000269665
0.000204546
0.0131913
0.0323554
9.44993e-05
0.0281241
0.0197717
0.0296692
8.53848e-05
8.29458e-05
0.0339996
0.00707794
0.000111315
0.000282441
4.47214e-05
5.01501e-05
8.80779e-05
9.32539e-05
9.05909e-05
0.0356779
0.032186
0.0536987
4.98051e-05
7.02896e-05
0.0175269
5.11659e-05
0.0352031
0.00828728
8.2577e-05
9.5974e-05
0.000116594
0.0299947
9.31207e-05
0.0296947
6.87063e-05
8.37211e-05
5.28465e-05
0.0207884
0.000399369
0.000328409
9.08391e-05
0.0155442
6.22175e-05
9.20376e-05
7.05677e-05
6.13176e-05
7.08715e-05
5.00066e-05
7.57674e-05
8.27105e-05
8.48994e-05
0.0193432
5.93465e-05
0.000147272
0.000129292
6.44458e-05
0.0483916
0.0333283
0.0385701
7.6926e-05
0.00012462
0.000101882
0.0119745
6.76576e-05
9.84415e-05
5.0844e-05
0.0465517
8.06407e-05
5.96477e-05
0.0201565
0.0243991
8.26266e-05
0.00870585
0.0348177
9.62501e-05
0.0246527
0.0232115
5.59602e-05
0.0356392
6.24411e-05
0.0398537
0.00649278
6.30023e-05
8.56136e-05
0.0199272
9.16634e-05
7.01634e-05
0.0369535
0.0521074
0.00886554
9.66081e-05
0.0155543
8.81477e-05
8.2031e-05
0.0284882
0.0210387
9.78961e-05
0.0365732
0.0314511
6.51276e-05
0.0402972
9.04785e-05
7.19595e-05
0.0363429
0.0326094
8.89966e-05
7.86312e-05
0.0465203
8.906e-05
8.25373e-05
0.0395068
0.0204744
0.0463284
7.9426e-05
0.0424935
0.000101923
0.0172177
5.5045e-05
0.000145128
0.0352747
7.67649e-05
8.94027e-05
7.97842e-05
0.0308185
0.010477
4.4598e-05
0.000209452
7.18405e-05
0.0138042
0.00373996
9.03789e-05
0.000109248
8.99666e-05
8.10188e-05
0.0438575
0.000171481
9.19584e-05
0.0317644
0.000107888
0.0371356
8.90036e-05
7.01566e-05
0.0145571
9.47236e-05
9.69589e-05
0.0348258
8.249e-05
0.0102929
0.00837166
9.19583e-05
0.0459371
9.50183e-05
0.0249421
0.000127114
0.00803914
0.000336639
0.000428926
0.0133165
0.000100764
0.0493617
0.0394965
7.76567e-05
0.0139568
8.33271e-05
0.0435488
0.0376701
0.0310247
0.0314852
8.17329e-05
4.94155e-05
8.58298e-05
0.00859126
8.99348e-05
8.87061e-05
9.52548e-05
0.000583417
0.000115605
0.000189837
7.74626e-05
0.000115763
0.0265915
8.35424e-05
7.04431e-05
0.0183269
6.91791e-05
8.70619e-05
0.00811796
7.77351e-05
0.0410033
8.11813e-05
6.76984e-05
4.4641e-05
6.88744e-05
0.0239597
0.000566233
0.000162563
0.000109845
0.0389827
4.74933e-05
6.86434e-05
7.94852e-05
0.0326622
0.000127416
0.0242826
0.024854
0.0290037
5.08212e-05
0.0365585
7.16269e-05
0.00411186
7.7959e-05
0.000106643
0.0456246
0.000908035
0.0121987
0.000161651
8.42149e-05
0.000119816
7.29418e-05
0.000313323
0.010414
0.00949429
6.83547e-05
0.00843161
0.0391049
0.0354456
0.029365
0.0345188
0.0376687
0.0267951
8.31982e-05
9.81664e-05
0.000117702
9.68996e-05
6.88708e-05
5.75185e-05
8.82389e-05
8.71744e-05
0.000340317
9.23525e-05
0.0374339
0.0125656
4.83119e-05
7.86067e-05
0.025784
0.0397243
0.0188079
8.38606e-05
0.0256434
9.03249e-05
8.55848e-05
0.0256455
0.000118106
0.0483291
5.0277e-05
4.44397e-05
0.0489455
7.25823e-05
0.0485535
5.50563e-05
0.0479285
9.87642e-05
7.77004e-05
4.88526e-05
0.000127873
5.86101e-05
0.0492196
8.65412e-05
0.00830411
0.00540594
4.97497e-05
8.58697e-05
0.0100916
0.0252677
8.21899e-05
0.0259291
5.6585e-05
6.98726e-05
9.04318e-05
0.0150188
0.0393809
0.00767367
6.01215e-05
7.44113e-05
0.000324012
8.704e-05
7.95436e-05
0.0092874
6.88291e-05
0.0266683
7.17522e-05
0.0375861
0.0116262
8.46239e-05
0.0462549
0.0402124
0.000113446
8.43151e-05
0.0154425
0.000262904
0.0127171
9.17141e-05
0.000346509
0.00554577
6.72666e-05
0.000172009
7.30038e-05
0.0321494
0.000147248
4.99036e-05
7.96629e-05
8.62939e-05
0.00583285
9.07953e-05
6.99008e-05
9.33856e-05
0.0307418
8.70407e-05
4.82891e-05
8.46632e-05
0.0406021
6.2522e-05
6.85583e-05
5.58656e-05
0.00223985
8.45259e-05
0.037342
9.70824e-05
0.0382239
0.0357058
0.000129245
0.038923
4.61902e-05
0.0325574
7.58823e-05
8.85575e-05
7.95049e-05
0.000361692
0.0037909
0.027597
0.031759
0.00414212
5.18429e-05
0.0039029
0.0287156
4.61728e-05
9.80072e-05
6.45126e-05
7.95062e-05
5.43009e-05
6.68241e-05
0.0312569
6.67688e-05
5.50385e-05
6.68738e-05
6.1318e-05
6.54475e-05
0.0143164
0.000397309
0.020915
0.0328262
0.0292023
0.0386407
0.0227909
6.01834e-05
0.0246443
8.87799e-05
0.0021342
8.91417e-05
5.78217e-05
0.045872
7.18655e-05
0.000185387
5.79328e-05
0.0308321
0.032819
4.68481e-05
0.0443843
8.62399e-05
0.0278681
0.034523
6.39166e-05
8.56242e-05
4.774e-05
0.000112907
0.000195081
0.000386049
5.05681e-05
5.45792e-05
4.6839e-05
0.000108429
0.039963
9.85353e-05
0.00130411
0.0459431
9.21876e-05
0.0519605
7.46023e-05
0.00775216
7.45018e-05
6.68896e-05
8.00385e-05
0.0402675
8.78062e-05
0.00199525
0.000155339
4.53613e-05
9.39255e-05
8.67408e-05
0.041066
0.040971
7.76643e-05
6.00883e-05
0.0475396
0.00228295
4.66616e-05
7.44095e-05
8.2449e-05
7.38426e-05
5.53338e-05
0.0422765
4.85721e-05
0.00011336
0.0330691
0.0114346
0.00908128
9.13936e-05
0.0278854
0.000177018
0.0235208
0.0396372
8.81141e-05
9.04325e-05
0.000676356
8.50386e-05
7.06186e-05
0.000274655
6.62599e-05
0.000348975
9.41066e-05
6.48493e-05
0.0240675
8.06633e-05
8.59232e-05
8.76705e-05
4.80199e-05
8.25257e-05
0.0440433
7.97825e-05
9.34018e-05
0.0185384
0.00589011
7.39391e-05
0.000218778
0.0348073
4.46115e-05
7.8936e-05
0.000107853
9.05253e-05
0.0434131
7.79105e-05
0.000160524
8.73052e-05
0.000193559
5.09662e-05
6.43497e-05
5.91903e-05
9.2602e-05
9.33358e-05
8.94734e-05
9.36479e-05
8.56274e-05
7.82979e-05
8.8765e-05
9.16766e-05
8.07471e-05
6.76666e-05
0.000103195
4.44463e-05
0.0338544
7.87144e-05
8.72719e-05
0.0421483
0.000130375
5.05347e-05
6.69742e-05
8.64339e-05
4.70798e-05
0.000363409
0.0402949
7.40596e-05
8.76466e-05
0.0197681
0.000337075
0.00187705
6.69918e-05
0.0246224
4.55147e-05
0.0441266
7.62516e-05
0.030747
6.8471e-05
0.000103822
8.7561e-05
9.00734e-05
0.0305187
0.0212566
4.70605e-05
0.0156726
0.0287926
9.11997e-05
8.60055e-05
0.025744
0.00807933
4.80497e-05
9.4374e-05
4.73149e-05
9.52985e-05
4.51285e-05
0.026003
0.0329598
8.06206e-05
0.00820592
8.37928e-05
0.0310439
0.00010113
6.0696e-05
4.73225e-05
8.7406e-05
0.0240883
7.44323e-05
8.76875e-05
7.72299e-05
0.000345964
8.85681e-05
0.0349946
4.83853e-05
4.85997e-05
0.000318038
0.0393478
4.45831e-05
0.0433331
0.0297554
4.47752e-05
4.45307e-05
4.47104e-05
6.10817e-05
7.81562e-05
0.00270619
0.00751155
0.0205716
4.72819e-05
0.0246588
8.86157e-05
9.23175e-05
9.11748e-05
6.33795e-05
8.80896e-05
5.61961e-05
0.000177307
7.27343e-05
0.0294415
8.31569e-05
5.76512e-05
9.26617e-05
0.0124621
4.91415e-05
9.86201e-05
4.64022e-05
0.0296334
9.20471e-05
0.0291878
0.046445
8.41169e-05
0.0509605
0.0105988
0.037707
0.0384827
5.02496e-05
4.63912e-05
0.0372949
0.00673649
0.0284949
0.0243396
8.9435e-05
6.25459e-05
0.0114481
8.79588e-05
0.000126604
8.96032e-05
8.96142e-05
0.0355432
0.0149216
8.41822e-05
7.50735e-05
0.000222442
0.0447239
0.00413891
0.0458304
4.68478e-05
0.00015167
4.86273e-05
8.9631e-05
0.016721
4.99395e-05
0.0383412
9.05478e-05
0.0385809
7.85074e-05
9.36868e-05
0.0065034
0.00599415
0.0155204
0.0254711
4.53272e-05
7.86169e-05
5.97069e-05
0.0429941
0.0474243
8.78723e-05
7.39759e-05
0.000102728
0.0324583
9.25076e-05
8.28581e-05
4.8218e-05
7.78011e-05
5.8841e-05
4.53191e-05
9.16742e-05
6.4015e-05
6.64088e-05
0.00166582
8.86379e-05
0.00651542
8.59036e-05
9.17842e-05
0.00246643
5.57748e-05
0.0275133
5.73936e-05
0.00806844
8.37577e-05
8.34139e-05
7.79403e-05
0.0279434
7.9648e-05
7.90986e-05
0.0023994
0.000134003
0.000120743
0.0386796
9.3491e-05
6.47829e-05
0.0105248
5.67257e-05
5.95654e-05
5.75602e-05
7.93138e-05
8.87035e-05
9.09003e-05
0.00694745
0.0161662
0.0543329
9.49928e-05
4.88662e-05
9.49203e-05
0.00137011
0.0389703
6.86388e-05
0.0111371
0.000161988
0.033309
6.34784e-05
4.66229e-05
6.3135e-05
0.0280405
6.42388e-05
9.41009e-05
0.0130515
8.33483e-05
7.37414e-05
0.0325276
4.86063e-05
8.31956e-05
9.04314e-05
0.030443
0.00549476
0.0290417
0.0334045
0.00016732
4.76736e-05
7.76692e-05
5.72477e-05
0.00359886
0.0421403
6.53899e-05
0.00352749
6.62983e-05
9.97503e-05
8.94923e-05
0.000121278
8.33167e-05
8.97821e-05
0.000358207
0.0214869
4.57393e-05
5.36423e-05
0.000107291
8.40075e-05
0.0133255
9.02798e-05
8.87112e-05
5.37104e-05
0.0296823
0.0350261
4.60749e-05
4.94753e-05
0.0150338
6.8524e-05
0.0236004
9.04587e-05
7.42183e-05
0.0411697
0.0112669
5.34824e-05
6.09767e-05
6.69039e-05
0.0509206
8.72437e-05
0.000367914
0.000733556
9.00559e-05
4.91678e-05
8.74252e-05
0.0332538
5.39962e-05
0.0208256
0.0119526
9.24652e-05
0.000149111
6.09729e-05
9.96146e-05
0.016819
9.35052e-05
0.0362344
0.0465582
7.29096e-05
6.42022e-05
7.58924e-05
8.3634e-05
0.000257747
5.35534e-05
6.29978e-05
7.75811e-05
4.66136e-05
0.0068076
7.76441e-05
0.000113286
0.000246873
7.6805e-05
0.000305775
0.032135
5.46591e-05
7.91197e-05
6.17084e-05
0.000270501
8.9332e-05
9.24335e-05
7.31293e-05
0.011223
7.38592e-05
0.00861354
0.0323425
0.0057732
0.0334178
8.26737e-05
0.00779746
0.0283312
5.38365e-05
4.84522e-05
0.000274594
6.03358e-05
0.0464218
9.53153e-05
0.0177666
0.0269035
6.81955e-05
0.0400196
7.60876e-05
7.73816e-05
8.31047e-05
0.0337469
0.0327544
0.0363449
0.0422183
0.0514397
8.26704e-05
0.0452428
6.32724e-05
4.99757e-05
0.000101468
7.68319e-05
0.017459
0.004089
0.00304805
0.000110371
0.00144065
4.65405e-05
0.0380914
0.0367962
0.000114793
4.93341e-05
5.37801e-05
0.000111056
8.51726e-05
6.75807e-05
0.000542631
0.0273406
5.52571e-05
8.28136e-05
5.49931e-05
7.14557e-05
4.83431e-05
5.82437e-05
0.0282254
0.000278002
0.00533363
8.77704e-05
0.00276677
0.000261047
8.86837e-05
0.0393092
9.70909e-05
0.00615048
7.28307e-05
0.000109825
6.72314e-05
6.28995e-05
8.65476e-05
9.26602e-05
8.5419e-05
0.00260571
0.000148041
0.025583
0.0249191
6.39776e-05
0.000162559
0.039413
4.49299e-05
7.82908e-05
0.00011736
0.0320719
0.000109157
7.59489e-05
0.0238187
4.91846e-05
0.00901384
0.0313213
5.84809e-05
8.48358e-05
0.00608503
8.40379e-05
7.26338e-05
0.000274991
0.0251029
0.000178999
0.0311807
8.40043e-05
5.49098e-05
0.0273407
8.09134e-05
0.00815899
0.000488298
9.14987e-05
0.0432493
8.92346e-05
0.00353588
9.34241e-05
0.00271314
0.00010248
9.87033e-05
4.59842e-05
0.00610099
8.76652e-05
0.00615221
0.000279415
9.85015e-05
8.82797e-05
0.000237584
8.22003e-05
0.0378203
7.10957e-05
0.000315962
0.0339095
6.3725e-05
7.86487e-05
0.0411788
5.28918e-05
0.00574789
0.000340993
0.0367062
9.62961e-05
4.45471e-05
9.56783e-05
7.89583e-05
9.34081e-05
0.0498345
6.56521e-05
0.00180535
9.36044e-05
9.05229e-05
7.81067e-05
4.59455e-05
0.0261051
5.95671e-05
6.90963e-05
0.0309055
0.00852216
6.74794e-05
0.000133289
0.000139461
0.034493
5.16939e-05
9.79142e-05
6.75551e-05
0.030191
8.21885e-05
0.000131999
8.86122e-05
0.0276629
0.0273496
7.23893e-05
5.2977e-05
0.0287417
0.0343575
7.36837e-05
8.70926e-05
0.000469333
0.000256931
5.96077e-05
6.76029e-05
9.20948e-05
0.0213179
0.000172839
5.37295e-05
0.00578576
0.034064
0.0352841
4.81241e-05
6.57905e-05
8.11179e-05
8.75241e-05
8.87479e-05
0.0502516
7.64146e-05
7.2909e-05
8.98355e-05
5.1628e-05
8.51599e-05
4.47331e-05
4.9422e-05
0.0239395
9.09213e-05
0.000118133
0.0341762
4.6541e-05
4.71294e-05
0.0347386
6.45663e-05
0.0455912
5.55045e-05
5.92497e-05
8.15623e-05
0.0300537
0.0378592
7.29097e-05
8.53249e-05
6.99829e-05
0.00435943
5.05917e-05
6.78197e-05
8.48033e-05
7.59425e-05
6.7886e-05
4.47262e-05
7.6627e-05
6.54165e-05
0.0358155
0.014271
0.0064265
0.000806609
9.0774e-05
8.58247e-05
8.20537e-05
0.000731002
0.0250281
0.000216123
8.65388e-05
9.18942e-05
9.68112e-05
8.70659e-05
0.033936
9.31174e-05
6.3599e-05
6.85215e-05
0.0428527
0.0516813
8.41007e-05
0.0488963
9.58614e-05
6.49388e-05
8.33273e-05
0.000333404
8.72138e-05
4.96915e-05
7.69651e-05
9.30257e-05
9.29675e-05
8.64841e-05
0.000270439
7.91377e-05
0.0332314
6.54287e-05
0.00573352
0.0340405
0.000116431
0.0276483
0.000680964
7.73964e-05
5.81145e-05
7.54902e-05
7.77813e-05
0.0138634
9.2015e-05
6.65054e-05
0.0128249
0.019547
0.0272853
9.96069e-05
8.74139e-05
5.92515e-05
0.000197895
0.0238566
7.87982e-05
0.0347308
8.33097e-05
7.37176e-05
0.00570811
0.00301376
0.0323288
8.72851e-05
7.91008e-05
8.56223e-05
6.51202e-05
8.69353e-05
0.0391872
8.41153e-05
9.25967e-05
9.22085e-05
0.000111271
4.60104e-05
8.71817e-05
0.0360441
0.00018217
7.13384e-05
0.0189239
9.89782e-05
8.44339e-05
9.27491e-05
7.24932e-05
7.90008e-05
0.000603636
7.30589e-05
9.41128e-05
0.0065351
6.19799e-05
0.00881571
0.0214567
0.000134885
0.0362611
0.0238072
0.0258807
0.000469222
9.41162e-05
5.38155e-05
0.0342558
8.59996e-05
0.0458267
4.83933e-05
6.7472e-05
8.74118e-05
0.0353338
0.0115714
0.00562967
7.55402e-05
0.0241658
0.037077
0.0364693
0.000158711
0.00306768
0.0255656
0.000587663
0.0239751
9.52599e-05
0.000151912
8.78112e-05
5.71987e-05
0.000225107
0.0283017
0.00560454
8.872e-05
6.98409e-05
8.20853e-05
0.0226866
0.0268729
8.69469e-05
6.45106e-05
0.000197114
0.0401104
8.76839e-05
6.66563e-05
5.9243e-05
7.62806e-05
0.00134228
0.0375598
7.43065e-05
0.0100957
6.42667e-05
6.68986e-05
9.20991e-05
0.0375578
0.00501594
8.99694e-05
6.35867e-05
4.72078e-05
0.00577431
0.0266221
5.76695e-05
5.9929e-05
0.0269699
8.29944e-05
5.38263e-05
8.78583e-05
0.0348358
6.3886e-05
6.97939e-05
9.90512e-05
4.75891e-05
8.06724e-05
0.00425244
0.0338147
8.59813e-05
6.93429e-05
4.41635e-05
0.0134251
6.77555e-05
0.00023742
0.0267546
8.64336e-05
0.0382476
0.0439621
0.000171152
6.20767e-05
0.000706782
0.0299308
0.000206658
6.36066e-05
9.06391e-05
9.95683e-05
0.000100155
9.25404e-05
7.93077e-05
5.39306e-05
0.00507961
0.000111992
0.0478071
8.63457e-05
8.49699e-05
0.043457
6.05532e-05
0.0480753
0.0296466
7.30906e-05
8.80179e-05
4.91783e-05
9.35967e-05
8.62813e-05
0.0376367
0.0302885
9.28554e-05
5.50133e-05
7.3157e-05
4.73336e-05
0.00223868
8.81385e-05
0.0341151
0.00010914
0.011558
0.00597285
9.15932e-05
0.0243488
0.0139134
0.0311765
0.0355454
7.72022e-05
6.29509e-05
4.42986e-05
0.000362335
0.0345245
5.88163e-05
0.00598096
0.0130027
0.00122892
0.0324814
6.96231e-05
0.0301067
7.60883e-05
0.000351241
8.83776e-05
0.000165289
0.000585761
0.0445741
7.45672e-05
4.54632e-05
0.0358664
8.72585e-05
0.0040304
8.36721e-05
0.00693828
0.0362159
6.76954e-05
8.76491e-05
0.0117622
7.15184e-05
5.68367e-05
0.0249149
0.00657038
9.35162e-05
7.30073e-05
0.0472018
0.000185797
8.85771e-05
0.00012387
0.000121059
0.0275593
0.0293038
0.0113753
0.000773103
0.000178053
6.92992e-05
0.000153237
0.0311873
9.413e-05
9.50088e-05
4.69127e-05
9.02157e-05
8.67521e-05
8.85552e-05
0.000176008
0.0130317
0.0545398
0.0215863
0.0407927
9.27258e-05
0.000167303
6.65848e-05
0.0322756
0.0103729
0.00601511
0.00549933
0.02502
9.51654e-05
9.79215e-05
5.67565e-05
0.0255427
8.30948e-05
6.72492e-05
8.95417e-05
8.53401e-05
0.0118942
0.00367175
0.0161574
4.45995e-05
0.00633574
0.0349507
4.89304e-05
5.92071e-05
0.000141477
0.0145043
6.51381e-05
8.84513e-05
0.0361522
6.97901e-05
7.49114e-05
9.15615e-05
6.75455e-05
6.04326e-05
7.69935e-05
6.85279e-05
0.00771871
7.4795e-05
4.94211e-05
9.23814e-05
0.00580342
9.63735e-05
0.0232647
9.95084e-05
9.80407e-05
8.64992e-05
8.89924e-05
0.00812681
9.40166e-05
0.012123
0.035892
0.0138983
0.0128886
6.84269e-05
0.0435311
0.000106265
6.352e-05
0.0331296
0.0361888
0.0248903
8.86653e-05
6.33191e-05
0.0401504
0.0287728
6.79533e-05
8.72817e-05
9.70353e-05
7.64743e-05
0.0298231
5.3532e-05
7.77568e-05
0.0374464
8.83937e-05
0.0408959
9.18488e-05
6.72344e-05
8.25017e-05
7.841e-05
0.0260241
0.0176278
0.000259005
0.0229599
4.77692e-05
6.58548e-05
7.04644e-05
0.000101094
6.10134e-05
7.3941e-05
5.90824e-05
6.97774e-05
0.0340307
6.46564e-05
0.0146655
0.0273956
0.00919257
0.0141904
0.000127307
8.08191e-05
8.12683e-05
0.0141655
0.0137959
9.13989e-05
0.00595414
0.0208396
0.0190107
7.42942e-05
0.0174787
7.28539e-05
8.87195e-05
6.36379e-05
6.67469e-05
8.88234e-05
0.00649558
0.0318479
0.000320393
0.0239758
0.00698624
7.64915e-05
0.0260869
8.19304e-05
6.29955e-05
8.17925e-05
6.70145e-05
0.00579713
0.0167677
8.99019e-05
0.0181922
0.0316098
0.0272359
8.32961e-05
5.8264e-05
0.0129878
7.80464e-05
0.0242686
0.000141327
0.000387716
0.00611556
0.0440916
0.0338011
0.0199236
0.0145837
0.000138711
0.000113328
7.79465e-05
9.0784e-05
8.81532e-05
0.0275253
8.01197e-05
0.000142699
9.28096e-05
8.33292e-05
0.052303
0.000413098
8.98997e-05
0.0321967
0.000124429
0.0272711
0.0365169
0.000117286
0.00171185
0.0288832
6.85205e-05
8.85019e-05
0.000264839
0.0309398
8.82419e-05
0.0439307
9.22775e-05
0.0165821
0.000166121
0.0219625
6.12968e-05
0.0149879
8.77827e-05
8.46653e-05
0.0229273
9.02123e-05
7.35758e-05
0.0282754
0.0153263
6.33391e-05
0.0343775
8.34514e-05
0.0284768
9.69422e-05
0.0134224
7.65767e-05
0.0376318
8.87981e-05
0.00497489
0.000179549
0.0486035
8.81154e-05
0.0364196
4.93372e-05
0.000137198
9.7306e-05
6.16073e-05
0.025748
0.000197029
7.86672e-05
0.0100223
0.00808369
8.13414e-05
0.0271209
0.00914003
9.02431e-05
0.0332145
9.76565e-05
0.0276185
9.68276e-05
0.0352081
0.0279848
5.15801e-05
0.0418278
9.78394e-05
6.87198e-05
0.0188896
8.56976e-05
8.66142e-05
8.04923e-05
8.70847e-05
0.0312278
0.019666
0.00015323
8.46777e-05
0.0452033
0.0362911
0.00879459
0.0252217
6.97995e-05
0.000161059
0.00511821
7.05661e-05
7.49572e-05
7.61854e-05
0.00162055
4.79907e-05
8.88566e-05
8.05708e-05
0.0133542
0.0103607
8.45535e-05
0.000117576
0.0283949
0.0218828
6.86571e-05
0.000342712
8.77464e-05
0.0312629
5.39055e-05
0.000316591
7.92745e-05
0.0251518
9.18054e-05
0.0262659
7.94532e-05
6.81554e-05
0.0269371
0.0418571
0.0416482
8.52871e-05
9.99011e-05
5.89622e-05
8.67443e-05
0.00017864
0.000109389
6.68464e-05
0.0127795
0.0242064
0.00816904
0.00063884
0.000157964
8.95899e-05
0.000139741
0.00535636
0.000100675
0.000347297
8.48149e-05
9.09938e-05
4.83679e-05
0.0282923
0.0068336
8.22968e-05
4.96355e-05
0.0225216
8.36606e-05
0.0142007
0.0235947
0.000139873
6.02776e-05
7.29761e-05
6.90342e-05
6.60212e-05
6.76914e-05
0.0371121
0.0288156
0.000115227
8.90072e-05
4.78118e-05
0.0320788
0.0397019
0.00522489
6.83936e-05
5.9239e-05
6.52233e-05
0.000291409
4.75517e-05
9.08602e-05
6.82244e-05
8.27395e-05
6.76535e-05
7.96065e-05
0.000335511
4.93505e-05
0.0201211
9.28373e-05
9.20009e-05
8.0026e-05
0.0405847
0.0347798
8.7122e-05
0.032314
0.000259037
0.000159162
8.91795e-05
0.000122583
0.000110753
0.000771536
0.0380015
0.0292234
0.0293738
6.68087e-05
0.00499331
4.82189e-05
0.0325775
5.88642e-05
0.00429992
5.91886e-05
9.06664e-05
8.02024e-05
4.7773e-05
6.82748e-05
0.0102245
0.0284843
8.91501e-05
8.68464e-05
0.0358233
0.0377654
0.00550395
6.48492e-05
5.95572e-05
4.48763e-05
0.0293152
0.00494206
0.00872796
5.7123e-05
0.0389406
8.49719e-05
6.60394e-05
0.024557
0.028556
0.000111824
0.0329458
0.0126393
0.000627967
8.2551e-05
6.46697e-05
0.000627313
5.71702e-05
5.95218e-05
5.93703e-05
0.000111668
0.0298501
8.23691e-05
9.22236e-05
0.000241962
0.0349608
0.0284204
0.0356336
0.000100656
0.0113505
8.33105e-05
7.79931e-05
0.0314506
0.00693354
8.96491e-05
8.87719e-05
0.0258243
0.000267314
9.47066e-05
7.91136e-05
9.69075e-05
0.0286426
9.69857e-05
0.0220589
0.000111866
7.519e-05
5.36538e-05
0.0314995
0.0415174
0.00125755
0.000100441
0.0470882
4.47184e-05
6.41866e-05
0.0320654
0.0343633
0.000104181
0.000100131
7.57181e-05
8.65395e-05
0.0168655
0.0372164
0.0476538
0.0453356
0.000153578
7.42977e-05
0.000234748
0.0205711
7.89066e-05
8.84759e-05
9.05067e-05
0.0295211
8.01173e-05
8.41599e-05
0.0431817
0.000142103
0.041544
0.00494872
8.49727e-05
0.000145941
8.56078e-05
6.61908e-05
0.0333121
9.36909e-05
6.4813e-05
0.0354418
8.47716e-05
6.30681e-05
4.44886e-05
0.0477171
0.000252778
4.88356e-05
6.67345e-05
0.000257061
0.0397316
0.0345724
0.000264408
7.55001e-05
0.0503385
0.0449745
0.0340951
9.04773e-05
6.67984e-05
0.0441059
0.0335481
0.000322665
0.0202911
0.0292753
0.000143073
6.45882e-05
0.0354197
0.0140226
0.000100101
7.39211e-05
0.0300786
0.0215103
6.67458e-05
8.82697e-05
0.00152438
0.0257893
0.0335669
8.4248e-05
6.99866e-05
0.0360088
0.031146
0.0144929
0.0367059
0.00654485
0.0338191
9.29688e-05
0.0057804
0.00553168
0.0417236
4.48986e-05
6.98508e-05
0.0516183
0.015544
5.54675e-05
0.036357
0.0225262
0.00586795
0.000454126
6.8966e-05
9.38548e-05
6.43432e-05
0.00417446
9.24611e-05
7.44649e-05
6.38798e-05
0.0355109
5.8672e-05
0.000180832
6.9663e-05
0.024393
7.70732e-05
0.0489524
8.16866e-05
6.91204e-05
8.73245e-05
6.94274e-05
0.0290946
0.0384229
8.72661e-05
5.86832e-05
0.0254805
0.0360999
0.000289684
0.0345841
0.000257077
0.00386095
0.0336778
5.90917e-05
0.0264544
0.0266339
0.000200658
7.6603e-05
0.000116266
0.0397179
0.0379505
0.0420117
0.00549407
0.000102226
0.0438437
0.00578469
0.000130985
5.49311e-05
0.000344447
5.51348e-05
0.0298778
0.0158234
0.0161469
8.61508e-05
8.97751e-05
0.000165951
9.19604e-05
0.0137694
0.0249873
0.0536342
8.59914e-05
0.000149935
0.0271605
0.0227134
0.0377912
0.0377604
0.0298219
0.00387104
6.97033e-05
0.0355063
0.0398665
0.0414967
0.0365809
0.00552008
7.29103e-05
0.000102218
9.10741e-05
0.0214758
9.19437e-05
0.00010089
8.95564e-05
0.000151435
9.212e-05
0.0236278
9.57332e-05
0.00663366
0.0402902
0.0509882
7.01843e-05
0.0320461
7.25812e-05
0.000788484
9.08346e-05
0.000245522
6.41203e-05
0.0249201
0.000114202
5.02671e-05
8.04997e-05
0.0249019
6.02523e-05
0.000101796
8.6564e-05
0.000123146
7.72599e-05
0.0207893
5.00525e-05
8.86768e-05
9.2577e-05
8.95645e-05
0.03506
5.56902e-05
0.0135694
0.0371098
0.00243543
0.00025339
9.12507e-05
8.77588e-05
0.0426526
0.0373217
9.92935e-05
8.58634e-05
6.0628e-05
5.82877e-05
8.42625e-05
0.000354576
0.0313955
0.0263528
7.77699e-05
0.0237
0.0425078
9.13795e-05
0.00025466
0.052273
5.92725e-05
9.13251e-05
0.0143157
0.0303018
8.9602e-05
0.000417442
5.68491e-05
0.0260713
9.17496e-05
0.0363785
0.037654
6.96891e-05
0.000112455
6.75918e-05
0.0135035
0.0038169
0.0528919
8.21366e-05
6.68528e-05
0.0270081
4.69961e-05
8.33862e-05
0.00027069
0.00528458
0.00732834
0.0374155
0.0353597
6.71611e-05
8.89784e-05
0.0420302
0.0371395
6.73026e-05
0.0281082
8.82848e-05
9.7543e-05
8.91966e-05
5.0635e-05
4.41957e-05
0.000158828
9.23353e-05
0.0501319
0.000117104
0.0117124
0.00027357
0.0169525
0.000929016
9.7863e-05
0.0358222
8.1573e-05
9.21184e-05
9.43901e-05
0.0382228
0.0114927
0.000171982
0.0307169
0.0265382
0.000112639
9.2659e-05
0.0379057
4.84531e-05
0.0310649
4.94149e-05
0.0432908
7.7114e-05
9.35645e-05
0.017872
0.000112813
0.000258659
8.76702e-05
0.0309087
0.0510655
8.21101e-05
8.60873e-05
0.00594485
6.98509e-05
8.59084e-05
0.000164192
8.13066e-05
8.16362e-05
9.24209e-05
0.0103352
0.0358977
0.0340479
6.08045e-05
8.58509e-05
6.89843e-05
6.01931e-05
0.000141183
9.42347e-05
0.000140285
0.038759
0.000150561
8.57754e-05
5.29031e-05
0.000230788
0.0413592
0.0320434
9.34965e-05
0.00509548
0.0296062
0.0162235
8.8709e-05
0.0058933
0.0334585
6.67227e-05
0.0445028
0.0384872
0.000112193
7.21788e-05
0.000140329
0.000132364
9.35634e-05
5.76102e-05
9.4911e-05
7.14797e-05
0.027147
0.000877717
8.59694e-05
0.00120563
9.2198e-05
0.030832
9.17107e-05
8.94274e-05
9.54232e-05
8.46284e-05
0.000145665
8.48749e-05
6.77282e-05
0.0389914
0.0323507
9.22722e-05
0.0374248
0.0431577
0.0354469
8.58365e-05
9.16673e-05
0.0529413
0.037978
6.21035e-05
0.0298477
5.6796e-05
0.000109015
0.0128014
9.25278e-05
0.0229012
0.0306513
9.28551e-05
0.000588282
0.0453244
6.30046e-05
0.00012294
6.76076e-05
0.00249985
0.0372286
0.0105647
0.00882449
0.0240628
0.00455209
0.00015427
5.07409e-05
0.000147097
0.00926578
0.0174033
0.000110898
0.000157219
6.84345e-05
9.63756e-05
0.00511066
0.0358835
8.58642e-05
9.01596e-05
9.65171e-05
5.91837e-05
9.63071e-05
9.42813e-05
0.000233403
9.66082e-05
0.0395857
0.0166194
0.0165648
0.00010201
0.0155035
8.90897e-05
6.22149e-05
0.000254117
0.0384266
6.89251e-05
0.023337
0.0333145
0.0214973
7.61296e-05
8.7522e-05
0.000111417
0.000158136
0.0377856
0.00379841
0.020808
0.0365798
9.85634e-05
0.0367815
0.0102503
9.10054e-05
0.000113676
0.00509377
9.40808e-05
0.0321719
5.64754e-05
0.00027245
9.71799e-05
0.000107974
0.0268057
0.000137883
0.0348025
0.000241053
0.0411983
9.55183e-05
0.0359196
0.000654072
7.47705e-05
0.0444864
0.0403215
6.34281e-05
0.0113666
0.000494673
0.000145028
0.0252123
9.93065e-05
5.17684e-05
0.020098
8.20261e-05
0.000126377
0.0244625
0.000750257
0.000107476
0.000175868
9.35144e-05
0.0333207
9.28077e-05
0.000132986
0.0339541
0.000108642
0.030201
9.06685e-05
0.0451523
0.0385193
8.69106e-05
6.83164e-05
6.23204e-05
0.0137432
0.0230023
9.14346e-05
0.000102447
0.000105748
9.41616e-05
0.0278945
4.83379e-05
9.37829e-05
8.66679e-05
9.70703e-05
5.75467e-05
0.02425
0.000195772
6.98221e-05
0.0397295
0.000160589
8.23875e-05
0.000103724
8.17508e-05
0.000152615
0.0270539