/*--------------------------------*- C++ -*----------------------------------*\
| =========                 |                                                 |
| \\      /  F ield         | OpenFOAM: The Open Source CFD Toolbox           |
|  \\    /   O peration     | Version:  v2012                                 |
|   \\  /    A nd           | Website:  www.openfoam.com                      |
|    \\/     M anipulation  |                                                 |
\*---------------------------------------------------------------------------*/
FoamFile
{
    version     2.0;
    format      ascii;
    class       volScalarField;
    location    "300";
    object      nut;
}
// * * * * * * * * * * * * * * * * * * * * * * * * * * * * * * * * * * * * * //

dimensions      [0 2 -1 0 0 0 0];


internalField   nonuniform List<scalar> 
13749
(
0.00983838
0.000444289
0.000464215
0.000444158
0.0265299
0.000427802
0.00574045
0.000448545
0.000641145
0.000444079
0.000427938
0.000463789
0.000464465
0.0238611
0.000447071
0.0242803
0.000346472
0.00045135
0.0171216
0.000435785
0.0152886
0.0201164
0.000418289
0.00045788
0.000463428
0.00042912
0.000452271
0.000542512
0.020093
0.0122407
0.000933866
0.000457327
0.000652251
0.000447081
0.0204341
0.00951495
0.0181954
0.000450558
0.0205723
0.00466777
0.000448769
0.000659927
0.00044446
0.0202056
0.000438565
0.000444013
0.000435333
0.000463701
0.000485573
0.000452924
0.000457748
0.00043706
0.00399616
0.000443365
0.000451689
0.00874305
0.0204148
0.000461985
0.000437126
0.000568298
0.000455644
0.00459419
0.000464676
0.000426118
0.000513729
0.0190624
0.000463495
0.000458402
0.006221
0.00938646
0.000468258
0.000981306
0.000451694
0.0198423
0.000451308
0.0188514
0.000443595
0.000426804
0.00588815
0.000444307
0.00458035
0.000469205
0.000491231
0.000433691
0.0200551
0.000436471
0.0161972
0.000463907
0.0178387
0.000510107
0.000449744
0.00401551
0.000427786
0.00031352
0.000451599
0.019488
0.0109767
0.000495167
0.0134847
0.000433731
0.000454226
0.011262
0.000453633
0.000695424
0.000427857
0.000449418
0.000449488
0.00417834
0.000427325
0.0134143
0.000450543
0.00251967
0.00420856
0.000452304
0.000530229
0.000422883
0.000443461
0.000463531
0.000546753
0.000452367
0.000441593
0.000473569
0.000428778
0.000439598
0.00043161
0.0204591
0.000452327
0.000448704
0.00043981
0.00272446
0.000435202
0.0169771
0.000545844
0.0134179
0.000663466
0.0199287
0.0120071
0.000554466
0.000432147
0.000438521
0.0150908
0.000434687
0.000441667
0.00618804
0.000452293
0.000428825
0.0185811
0.00600036
0.0196442
0.0190179
0.000434392
0.0134513
0.000428717
0.000529735
0.0209185
0.000449055
0.00950149
0.00108312
0.000451816
0.000446467
0.000466067
0.000427706
0.000480955
0.00043332
0.00197538
0.000456515
0.000431963
0.000446013
0.0188412
0.00111539
0.000447293
0.000427667
0.0206415
0.0161179
0.000458125
0.000456268
0.000741545
0.00471806
0.000543645
0.0250297
0.000454356
0.000465572
0.000752774
0.00768543
0.000464807
0.000437303
0.000443272
0.000438112
0.000365546
0.000464344
0.026402
0.000308707
0.000451225
0.00046477
0.000436036
0.000438821
0.000546999
0.000494347
0.000485074
0.00171107
0.00774401
0.000465343
0.0209778
0.00571364
0.000441944
0.0217166
0.000689201
0.0186404
0.00043323
0.000431063
0.000451764
0.0103877
0.000462156
0.000444689
0.00365623
0.0203735
0.000466523
0.00825906
0.000450467
0.000441697
0.000433186
0.0133628
0.000638018
0.000454066
0.0179677
0.025752
0.00610295
0.00042857
0.0216074
0.000442485
0.0190486
0.00266866
0.000442377
0.000429143
0.000447945
0.000426674
0.0184758
0.000461789
0.00190139
0.000432242
0.0113587
0.000696302
0.000442661
0.000451548
0.000429237
0.00043237
0.000448729
0.00044466
0.000334154
0.00563572
0.000446397
0.000437679
0.0172363
0.0158972
0.000428566
0.000429837
0.0169214
0.000612341
0.000450217
0.000439356
0.00352637
0.0188515
0.00045123
0.000484259
0.000445739
0.000426686
0.000429267
0.00198453
0.019791
0.000450465
0.000436334
0.000458024
0.0135313
0.0104186
0.000464581
0.00563335
0.0197359
0.000464055
0.0197165
0.000448732
0.0179649
0.00338514
0.0124009
0.000465463
0.0111902
0.000450489
0.00087157
0.00106578
0.00043928
0.00226622
0.0249582
0.00063478
0.000464573
0.000467215
0.0190862
0.0187539
0.000443138
0.000451246
0.011025
0.000449275
0.0196365
0.00098502
0.0207524
0.000457738
0.00055584
0.0247672
0.0200445
0.00044256
0.0262268
0.000437437
0.000439585
0.000479919
0.0152619
0.000487632
0.00049678
0.000451121
0.00299032
0.000439382
0.000679864
0.000436135
0.00044157
0.000441637
0.000458014
0.0186973
0.000452072
0.000466617
0.0150461
0.000441499
0.000447103
0.0179666
0.021438
0.000450984
0.000436178
0.0088701
0.000453328
0.000442006
0.00224372
0.000448334
0.00951922
0.0165051
0.000426371
0.0167262
0.00911974
0.000463729
0.000429543
0.00050663
0.00048119
0.000468217
0.000443893
0.0196049
0.000458022
0.0092702
0.000455971
0.000436036
0.000483621
0.000485938
0.000451398
0.000462462
0.000461752
0.0163471
0.000444872
0.000458978
0.000535923
0.0263617
0.000429549
0.00306705
0.000435228
0.000579413
0.000448748
0.000447185
0.00112531
0.000429755
0.00045028
0.00362229
0.000449897
0.000440011
0.000433045
0.000452747
0.0196444
0.00044598
0.000447553
0.000436121
0.000437694
0.0116283
0.000513572
0.0196725
0.0191135
0.000684791
0.0104863
0.0213115
0.000449178
0.00044457
0.00045073
0.0194495
0.00971639
0.000441793
0.00044408
0.000447767
0.0202509
0.00043525
0.0005022
0.000449902
0.000943129
0.000846043
0.0172464
0.00351662
0.0217072
0.000445071
0.00255433
0.0143806
0.000428789
0.00162877
0.000448483
0.0185355
0.000426664
0.00697052
0.0196076
0.000452177
0.00521978
0.0151755
0.000442579
0.000463112
0.0188449
0.000468796
0.00045387
0.000452051
0.000431958
0.000454302
0.00045133
0.00044742
0.000535518
0.000456641
0.000445731
0.000437183
0.000449451
0.000455789
0.000447277
0.000673045
0.000635017
0.00041331
0.0148271
0.0178907
0.000461608
0.0173372
0.00393219
0.010066
0.000470884
0.000448796
0.0188977
0.0185422
0.0005088
0.000358202
0.000427796
0.000434105
0.0004522
0.000469652
0.000451461
0.0230638
0.0159736
0.0217915
0.000433212
0.000443776
0.00300525
0.000433772
0.0158183
0.00885354
0.000451947
0.000489076
0.000529402
0.0128072
0.000464473
0.0116922
0.000441578
0.000452677
0.000437938
0.0129086
0.000603062
0.000837647
0.000458607
0.0178549
0.000438786
0.000456924
0.000442369
0.000443376
0.000442491
0.000432587
0.000446527
0.000448033
0.000469635
0.00394859
0.000436852
0.000517505
0.000612204
0.000439938
0.0210497
0.0153091
0.0162941
0.000454382
0.000568024
0.000510835
0.0221939
0.000458937
0.00048338
0.000433137
0.0208014
0.000447423
0.000438096
0.00478012
0.0207492
0.000450411
0.0191041
0.0149535
0.000467046
0.0212941
0.0214601
0.000434212
0.0203439
0.000439133
0.026246
0.0194683
0.00044528
0.000449583
0.00375544
0.000458081
0.000442015
0.0260576
0.0216022
0.0168192
0.000467617
0.0179394
0.000452411
0.000450566
0.0122155
0.00409467
0.000475648
0.0264134
0.0149172
0.000445638
0.0178714
0.000457455
0.000443035
0.0186654
0.0157853
0.000475847
0.000447572
0.0204236
0.00045878
0.00044805
0.0218002
0.0125653
0.0184186
0.000447084
0.0185466
0.000482643
0.00278101
0.000438374
0.000403961
0.019997
0.000454258
0.000462912
0.000447486
0.00876582
0.021354
0.000426935
0.0004283
0.000444542
0.00823355
0.00183301
0.000453741
0.000517891
0.00045126
0.000449468
0.0194629
0.000685176
0.000457931
0.0169704
0.000520665
0.0203236
0.00045867
0.00044398
0.0139791
0.000461407
0.000489801
0.0159548
0.000451674
0.00348949
0.0203227
0.000464265
0.0207646
0.000481233
0.00770765
0.000619423
0.0149309
0.000653638
0.000619497
0.0080685
0.000435085
0.0211739
0.0171873
0.000454116
0.0078972
0.000448251
0.0173965
0.016795
0.0161967
0.0130853
0.000447606
0.000432559
0.000450467
0.0204815
0.000451806
0.000475291
0.000489026
0.00087951
0.000527536
0.000580316
0.000453688
0.000529964
0.0104481
0.000451616
0.000450037
0.0146638
0.0004249
0.000449634
0.00311479
0.000459758
0.0199714
0.00044784
0.000460456
0.000427795
0.000447927
0.0217274
0.00211683
0.000661488
0.00050477
0.0218221
0.000429812
0.000448028
0.000447067
0.0145071
0.000458731
0.00657198
0.00814421
0.0137066
0.000433737
0.0193639
0.000444403
0.0041607
0.000452417
0.000517415
0.0186282
0.00127978
0.00690922
0.000657913
0.000453787
0.000543986
0.000443502
0.000962356
0.00396291
0.00308931
0.000445804
0.00559159
0.0205786
0.0197343
0.00998994
0.0175135
0.0194383
0.0250485
0.000448283
0.000476527
0.000535701
0.000489569
0.000463467
0.00043536
0.000453432
0.000472308
0.00019249
0.000456834
0.0189723
0.00617474
0.00043073
0.000450319
0.0080707
0.0173179
0.0235154
0.000450763
0.0109594
0.000450997
0.000450378
0.0247293
0.000536842
0.020978
0.000432609
0.000426446
0.0211452
0.000452235
0.0203992
0.000438643
0.0208592
0.000483797
0.000458815
0.000431923
0.000391317
0.000435693
0.0206826
0.00045772
0.0172231
0.00324212
0.000433648
0.000449373
0.0208555
0.0166178
0.000447849
0.0111932
0.000435257
0.000461874
0.000453778
0.022409
0.0194719
0.0168136
0.000441795
0.000445412
0.00038755
0.000450095
0.000448972
0.000331872
0.00044154
0.0244552
0.000442915
0.0163745
0.0227799
0.000480647
0.0198399
0.0200435
0.000523081
0.000451719
0.0229269
0.00086299
0.0127555
0.000456833
0.000793843
0.0125309
0.000442667
0.000687525
0.000443957
0.0124147
0.000545723
0.000432131
0.0004513
0.000458338
0.0154794
0.000451795
0.000460285
0.000462493
0.0122536
0.000449906
0.00043078
0.000465
0.0192631
0.000439599
0.000442684
0.000434338
0.00374267
0.000481684
0.0195942
0.000400237
0.0192411
0.0151362
0.000408796
0.0178955
0.000427886
0.0156923
0.00046327
0.000460957
0.000451815
0.00122418
0.00179026
0.0123765
0.0173265
0.0179535
0.000438938
0.0102691
0.00995598
0.000427914
0.000476962
0.000446097
0.000450907
0.000437767
0.000442182
0.012038
0.000441
0.000439363
0.000441091
0.000437948
0.000447362
0.00833894
0.000332611
0.00384986
0.023486
0.0123894
0.024353
0.00648999
0.000436784
0.00885002
0.000450539
0.00630022
0.000451261
0.000435558
0.0195131
0.000465786
0.00110662
0.000438886
0.0192093
0.0236204
0.000428645
0.0200671
0.000450344
0.00991802
0.020147
0.000446213
0.000449181
0.00043019
0.000510483
0.000701732
0.000987118
0.000433368
0.00043351
0.000428659
0.000525455
0.0235153
0.000478145
0.00151633
0.0207264
0.000463413
0.0215616
0.000445379
0.00225462
0.000444768
0.000441908
0.000454608
0.0192531
0.000451499
0.00224328
0.000608345
0.000428563
0.00046667
0.000449479
0.0202404
0.0245048
0.000448029
0.000437078
0.019407
0.0056144
0.000434153
0.00044574
0.000448628
0.000449782
0.000433874
0.0199393
0.000431351
0.000521009
0.0133129
0.011447
0.00259743
0.000458245
0.0250323
0.000686888
0.0216833
0.02537
0.000450095
0.000452841
0.000894655
0.000448921
0.000444444
0.000832939
0.000444483
0.00125313
0.000475313
0.00044422
0.00547269
0.000450927
0.000457933
0.000451991
0.000430294
0.000448553
0.019425
0.000454651
0.000463162
0.00864566
0.0156088
0.000443978
0.000452625
0.0166136
0.000426828
0.000446844
0.000500102
0.000452848
0.0204364
0.000453744
0.00062274
0.000452316
0.000700221
0.000435907
0.000439643
0.000437735
0.00045897
0.000500516
0.000450809
0.000466637
0.000449222
0.000452264
0.000452356
0.00045811
0.000450983
0.00044317
0.000485472
0.000426618
0.0150306
0.000447586
0.000450813
0.0203102
0.000571089
0.000434921
0.000447629
0.000465254
0.000428933
0.00114123
0.0182948
0.000444423
0.000449912
0.022206
0.000648029
0.00221911
0.000447619
0.008724
0.000427307
0.0205534
0.000447001
0.0178126
0.00046218
0.000486915
0.000450322
0.000458667
0.013804
0.00415181
0.000428929
0.00888583
0.0123477
0.00045604
0.000449289
0.00819887
0.00292466
0.00043027
0.000460615
0.000432663
0.000482216
0.000428212
0.0079274
0.0162132
0.000450398
0.0186174
0.00044991
0.0130742
0.000480406
0.000437484
0.000429221
0.000452097
0.0201476
0.000444809
0.000451818
0.000456587
0.00114253
0.000461625
0.0162031
0.000431891
0.000431326
0.000704247
0.0235781
0.000426932
0.0186251
0.0236067
0.000427651
0.000426803
0.000427509
0.000437816
0.000445896
0.00264178
0.00308154
0.0233206
0.000429219
0.0119997
0.000452505
0.000458877
0.00045638
0.000446816
0.000450246
0.000431583
0.000407543
0.000443403
0.0169745
0.000448296
0.000435185
0.00046627
0.00486821
0.000432548
0.000482578
0.00042812
0.0190375
0.000456624
0.0101504
0.0207289
0.000450222
0.0214163
0.0214075
0.0121783
0.0175282
0.000433189
0.000428139
0.0178828
0.0194143
0.0133826
0.00580249
0.000451199
0.000449674
0.00436652
0.000450597
0.000561102
0.000488543
0.000450714
0.0179806
0.00883579
0.000451188
0.00044452
0.000461501
0.0205755
0.00551274
0.0206415
0.000429814
0.000439452
0.000431892
0.0004512
0.0195758
0.000432602
0.016398
0.000458792
0.019863
0.000446163
0.000483657
0.0192572
0.00187946
0.00933148
0.0121894
0.000427136
0.000446623
0.000436697
0.0199389
0.0198287
0.00045218
0.000444515
0.000498423
0.0147826
0.000475633
0.000449618
0.000432683
0.000447079
0.000442505
0.000427134
0.000494616
0.000454011
0.000440868
0.00421895
0.000451956
0.0184805
0.000463918
0.000483985
0.00306086
0.000435958
0.011632
0.000437692
0.00500961
0.000451194
0.000448247
0.000453974
0.00983635
0.00044715
0.000446273
0.00585071
0.000582243
0.00050982
0.0111612
0.000463676
0.000445595
0.0222162
0.00043537
0.000438217
0.00043507
0.000453361
0.000451934
0.00045272
0.0095465
0.00890419
0.0218226
0.000469471
0.000432452
0.000477301
0.000647428
0.0231589
0.000442049
0.00506197
0.000455293
0.0192567
0.000448184
0.000428397
0.000447282
0.00877442
0.000446488
0.000466447
0.00677057
0.000449101
0.000455042
0.0153472
0.000432365
0.000450026
0.000458964
0.0139922
0.0123064
0.0139088
0.0134028
0.000748032
0.000428924
0.000447
0.000436789
0.00596962
0.0180399
0.000443288
0.0143055
0.000440903
0.000444137
0.000463383
0.000574974
0.00045386
0.000458789
0.00126078
0.00404641
0.000432881
0.000433163
0.000530463
0.000449444
0.00787332
0.000451736
0.00045352
0.000440793
0.0119066
0.019628
0.000428964
0.000432581
0.00901924
0.000446141
0.0114953
0.000458826
0.000444892
0.0225617
0.004827
0.000435941
0.00043744
0.000442359
0.0214386
0.00045
0.000939193
0.00215476
0.000458835
0.00043199
0.000459762
0.0120539
0.000434519
0.00946318
0.00199723
0.000469677
0.000595312
0.0004176
0.000439459
0.0197032
0.000473977
0.0208761
0.0208384
0.000452596
0.000445953
0.000444949
0.000477472
0.000427086
0.000435907
0.000440378
0.000448062
0.000428395
0.0194549
0.000445722
0.000544618
0.000881112
0.000447146
0.000728767
0.0139098
0.000433427
0.000446779
0.000438634
0.000841094
0.000454444
0.000465746
0.000456719
0.00449613
0.000461767
0.00777652
0.0153387
0.0172904
0.0182236
0.000448688
0.0171806
0.0100281
0.000441096
0.000432907
0.000831894
0.000437608
0.0208027
0.000490137
0.0233787
0.0238529
0.000441517
0.019392
0.000445649
0.000449612
0.000453177
0.01506
0.0133952
0.0162035
0.0203185
0.0215069
0.000447905
0.0206788
0.000448986
0.000432057
0.000494729
0.000455745
0.00826694
0.0110202
0.0127495
0.000523486
0.0068306
0.000427994
0.0196934
0.0159183
0.000548342
0.000430512
0.000433317
0.000516417
0.000452771
0.00044576
0.00204095
0.00880178
0.000433946
0.000448944
0.00043365
0.000444908
0.000433624
0.000435472
0.0222512
0.000858475
0.0138403
0.000459265
0.00755657
0.000843446
0.000450453
0.0200701
0.000481716
0.0169357
0.000444384
0.000528439
0.000447597
0.000447888
0.000449897
0.000469273
0.00046235
0.00680372
0.000605476
0.00825957
0.00777917
0.00044704
0.000623309
0.0200612
0.000429373
0.000453769
0.00053039
0.013355
0.000503791
0.000445546
0.00579196
0.000432535
0.0194761
0.0123856
0.000435964
0.000449328
0.0194746
0.000448406
0.000453192
0.000851146
0.00838388
0.000657185
0.0188688
0.000460001
0.000433729
0.0155913
0.000451937
0.018821
0.000716631
0.000456319
0.0180101
0.000450773
0.00564806
0.00048032
0.0070283
0.00052124
0.000480363
0.000427672
0.0192376
0.000467786
0.0192266
0.000846492
0.000499113
0.000452358
0.000575902
0.000448359
0.018425
0.000444354
0.00093953
0.0150161
0.000447602
0.000452189
0.0240992
0.000435204
0.0170725
0.00100452
0.0173572
0.000467976
0.000426883
0.000496339
0.000446397
0.000478069
0.0211521
0.000441303
0.00253696
0.000479542
0.000456458
0.000446425
0.000427665
0.0121077
0.000437608
0.000441897
0.0260583
0.0180958
0.000445861
0.000389854
0.000598477
0.0150919
0.000435641
0.000483708
0.000441022
0.0261079
0.000454154
0.000533119
0.000451953
0.00892457
0.0154212
0.000465754
0.000435442
0.0119731
0.0134502
0.000461429
0.000459467
0.000548838
0.000799789
0.000436999
0.000441022
0.00046292
0.00395139
0.000660577
0.000432931
0.0182789
0.0134008
0.01516
0.000433649
0.000417469
0.000458557
0.00045364
0.000452443
0.0210982
0.000446687
0.000444048
0.000477861
0.00043573
0.000451845
0.000428641
0.000431453
0.0229677
0.000452686
0.000532618
0.0148823
0.000429099
0.000428613
0.0133947
0.000441873
0.020483
0.000438571
0.00043675
0.000459424
0.0233886
0.0150971
0.000444402
0.000451913
0.000442361
0.00396694
0.000432983
0.000440854
0.000451433
0.000445483
0.000461992
0.000427152
0.000435237
0.000447038
0.0194178
0.00838283
0.0154124
0.00319861
0.000457218
0.000450243
0.000451089
0.00268724
0.0077731
0.000557295
0.000449457
0.000468299
0.000494454
0.000450692
0.0248432
0.000470182
0.000439126
0.000442833
0.020424
0.0214997
0.000453001
0.0209252
0.000467163
0.000448522
0.000449764
0.000975103
0.000449948
0.000431536
0.000445469
0.000487336
0.000464937
0.00047476
0.000822839
0.000446251
0.0124245
0.000443194
0.0184495
0.0148234
0.000531989
0.0246444
0.00488833
0.000450211
0.000435754
0.000444709
0.000450064
0.0200069
0.000485176
0.000440392
0.0077166
0.00895156
0.00844703
0.000518835
0.000453129
0.000437431
0.000688328
0.0144062
0.00044633
0.0140078
0.000448356
0.000443907
0.0183906
0.00368773
0.0141051
0.000466007
0.000446436
0.00045818
0.000447103
0.00047939
0.0159887
0.000452042
0.000474001
0.000289646
0.000514781
0.000433423
0.000451644
0.0152032
0.000682082
0.000463583
0.0206872
0.000487364
0.00044887
0.000472158
0.000446872
0.000453378
0.00167178
0.000444056
0.000462111
0.00168538
0.000438102
0.00258397
0.0047048
0.000459644
0.0257554
0.0111399
0.00907483
0.000545795
0.000487137
0.000432993
0.0186638
0.000458637
0.0207242
0.000429668
0.000440786
0.000450409
0.0198394
0.00639732
0.0186321
0.000448889
0.014354
0.015256
0.0162696
0.000641532
0.00752124
0.00845169
0.0021785
0.0145635
0.000463861
0.00062372
0.000467043
0.0004265
0.000564079
0.0196071
0.0183822
0.000451741
0.000449673
0.000448295
0.0112275
0.0117918
0.000450151
0.000450273
0.000685037
0.0113468
0.000459202
0.000440258
0.00043694
0.000445679
0.0054827
0.015199
0.000444945
0.0137455
0.00043964
0.00044063
0.00046522
0.0152401
0.0121268
0.000450867
0.000444779
0.000428564
0.0188168
0.00870522
0.000437588
0.000438713
0.0119699
0.000448837
0.00043497
0.00045702
0.0160254
0.000444598
0.000441957
0.000459869
0.000429001
0.000450307
0.0106491
0.0133842
0.000453775
0.00044177
0.000426221
0.013349
0.000441106
0.000662025
0.0120335
0.000449892
0.0168851
0.020497
0.00068012
0.000438173
0.000802007
0.0142166
0.000924125
0.000451794
0.000451461
0.000485416
0.000476712
0.000480367
0.000381447
0.000434694
0.00849024
0.0004623
0.0209578
0.000453854
0.000451732
0.0204403
0.000437166
0.0210287
0.014532
0.000451955
0.000450433
0.000433065
0.000462395
0.00045477
0.016654
0.012062
0.000462382
0.000435844
0.000461261
0.000430514
0.00560868
0.000451855
0.016554
0.000510731
0.00540969
0.0182392
0.000464145
0.00648105
0.0197613
0.0246391
0.0203148
0.000446648
0.000450814
0.000426451
0.0010895
0.010875
0.000435925
0.017192
0.00734973
0.00249842
0.01234
0.00046152
0.0255923
0.000445539
0.00124854
0.000453491
0.000661884
0.00143966
0.0204826
0.000445588
0.000427259
0.0259081
0.000449788
0.00805224
0.000448887
0.0160666
0.0196782
0.000449073
0.000453417
0.00522994
0.000447446
0.000437527
0.0117149
0.00626348
0.0004619
0.000444006
0.020874
0.000665134
0.000450451
0.000553592
0.000545434
0.0196957
0.0238001
0.00657248
0.000381304
0.000674699
0.000441705
0.000622772
0.0140144
0.000461046
0.000478826
0.000428318
0.00045654
0.000449704
0.000450357
0.000645989
0.00878088
0.0216607
0.0174297
0.024607
0.000464959
0.000663344
0.000440428
0.016861
0.00575443
0.0174901
0.0187018
0.00690553
0.000462876
0.00048117
0.00043465
0.0245997
0.000448165
0.000443144
0.000453614
0.000458563
0.00673704
0.00859626
0.00957421
0.000427526
0.0146999
0.0131894
0.00043259
0.000437217
0.000599881
0.0145445
0.000445571
0.000455222
0.0120886
0.000442338
0.000464313
0.000466715
0.000440943
0.000437483
0.000449682
0.000441458
0.00722541
0.000444444
0.000430487
0.000466644
0.017694
0.000479921
0.0110868
0.000475335
0.000477902
0.000475099
0.00045449
0.00367397
0.000493897
0.00634989
0.0172464
0.0092244
0.00732709
0.000442034
0.0204891
0.000532256
0.00045299
0.0149104
0.0161486
0.0235708
0.000454586
0.000443435
0.0189777
0.0192097
0.000449725
0.000451403
0.000467406
0.000462866
0.0252609
0.000435231
0.000452565
0.0204998
0.000450271
0.0248922
0.000474068
0.000440532
0.000455187
0.000446639
0.00805629
0.0111989
0.00082281
0.0117206
0.000432768
0.00044066
0.000443226
0.000521393
0.000438378
0.000449463
0.000441221
0.000410466
0.0143269
0.000439812
0.0087935
0.0219531
0.00974204
0.00720534
0.000565922
0.000459129
0.00045995
0.00855299
0.00727038
0.000458275
0.0181782
0.0109773
0.010458
0.000444758
0.0100131
0.000444229
0.000450714
0.000446453
0.000440281
0.000484688
0.0174033
0.0123318
0.000718175
0.0102801
0.00585361
0.000445628
0.0101141
0.000449421
0.000443521
0.00044942
0.000440583
0.0181766
0.00982441
0.000457889
0.0102496
0.0168199
0.00791853
0.000451139
0.000441649
0.00670981
0.000462201
0.0228197
0.000599368
0.00128501
0.0167632
0.0205064
0.0250845
0.0107502
0.0088794
0.000572842
0.000524575
0.000445908
0.000451435
0.000451583
0.00982664
0.000450313
0.000592951
0.000483636
0.000448147
0.0216013
0.0015163
0.000456569
0.0162884
0.000555578
0.0101074
0.0152062
0.000534333
0.00197284
0.0239305
0.000441935
0.000486883
0.000886437
0.0154601
0.000453065
0.0204117
0.000457881
0.00235966
0.000624404
0.0113444
0.000444552
0.00757909
0.000479293
0.000477774
0.0115943
0.000456415
0.000449512
0.00884011
0.00927363
0.000439812
0.0176883
0.000451113
0.009378
0.000512392
0.00794749
0.000438281
0.0189559
0.000453961
0.0130291
0.00067221
0.0205823
0.000451967
0.0112513
0.00043114
0.000571889
0.000475968
0.00044496
0.00768584
0.00198476
0.000463805
0.00784641
0.0183649
0.00047325
0.0101767
0.0133814
0.000451844
0.01814
0.000481439
0.0125251
0.000475015
0.0150336
0.0217409
0.00043495
0.0230577
0.000480011
0.000441279
0.0153182
0.00045887
0.000479016
0.000459332
0.000450849
0.0134
0.0122457
0.000621708
0.000449396
0.0205594
0.0194262
0.00408883
0.00663945
0.000443195
0.000532754
0.0187784
0.000444772
0.000444484
0.000449003
0.00277647
0.000432874
0.000452244
0.00038827
0.00752989
0.00544319
0.000460731
0.000538325
0.0208499
0.00979003
0.000441718
0.000784355
0.000455135
0.0122084
0.000434346
0.000919319
0.000446314
0.0122579
0.000474866
0.0122732
0.000446635
0.00044128
0.0220918
0.0199041
0.0166428
0.000451877
0.000477889
0.00043905
0.000449695
0.00070175
0.000509321
0.000440339
0.00635012
0.0120252
0.0189608
0.00345
0.000649708
0.000456845
0.000597948
0.0138073
0.000479684
0.0010174
0.000448696
0.000465425
0.000432344
0.00985074
0.0166463
0.000447865
0.000432003
0.0182591
0.000450111
0.00864123
0.0224115
0.00061896
0.000438817
0.000444306
0.00044172
0.00044074
0.000441431
0.0213466
0.00999282
0.000529561
0.000461665
0.00042935
0.0131986
0.0222703
0.0048278
0.000441123
0.000437046
0.000444307
0.000915108
0.000432781
0.000456167
0.000441026
0.000448142
0.000441014
0.000446608
0.00103927
0.000431486
0.00459872
0.000480614
0.000472605
0.000449456
0.0165939
0.0158615
0.000453013
0.0139466
0.000873344
0.000652036
0.000453933
0.000553989
0.000527823
0.00300788
0.0145211
0.0123483
0.0237227
0.000442634
0.0180091
0.00043288
0.0134055
0.000436868
0.011044
0.000440137
0.000452042
0.000449524
0.000432902
0.000446815
0.00334084
0.0208288
0.000452447
0.000481118
0.0161517
0.0200131
0.0186388
0.000447459
0.000437864
0.00042677
0.0112156
0.0180223
0.00429992
0.00043609
0.018474
0.000448959
0.000440156
0.021273
0.00891397
0.000512247
0.0184483
0.00642848
0.00231219
0.000447978
0.000439929
0.00372398
0.00043572
0.000436872
0.000436773
0.000518634
0.0122362
0.000448595
0.000471044
0.00037974
0.0158188
0.00852111
0.0205228
0.000493246
0.00641011
0.000448351
0.000450994
0.0139587
0.0161221
0.000452099
0.000453394
0.0121728
0.000820446
0.000461494
0.00044693
0.000478445
0.0122464
0.000477706
0.0208154
0.000429851
0.000464743
0.000433701
0.0166303
0.0232739
0.00590618
0.000478222
0.0207964
0.000428094
0.000444386
0.0147582
0.020129
0.000516938
0.000487594
0.000458498
0.000449802
0.00956291
0.01998
0.0209224
0.0206499
0.000636266
0.000448551
0.000621067
0.0135422
0.000469998
0.000458289
0.000452484
0.0142791
0.000449895
0.00044882
0.020058
0.000582844
0.0204317
0.0166474
0.000461585
0.000614394
0.000448913
0.000440038
0.0123178
0.00050293
0.000440727
0.0194427
0.000448831
0.000449704
0.000427413
0.020881
0.000796387
0.000431456
0.000403103
0.000808948
0.0199791
0.0158939
0.000840735
0.000451941
0.0213566
0.0182872
0.0159346
0.000457407
0.000440945
0.0203235
0.0141294
0.00100028
0.0183846
0.0100766
0.000582542
0.000447885
0.0201596
0.00819017
0.000515503
0.000449466
0.00996808
0.0223474
0.000440797
0.000451061
0.00417118
0.00916444
0.0151166
0.000448375
0.00044225
0.0151719
0.0150511
0.00979432
0.0196898
0.0180923
0.0159403
0.00047072
0.00389503
0.00604729
0.0203119
0.000426794
0.000441998
0.0214413
0.00731199
0.000433875
0.0159366
0.00967606
0.0183448
0.00121311
0.00044199
0.000474583
0.000448393
0.013591
0.000476423
0.000445216
0.000444571
0.0158574
0.000438529
0.000669208
0.000442035
0.0218977
0.000447808
0.0210735
0.000448083
0.000459611
0.000479297
0.000448391
0.0164891
0.0216638
0.000454786
0.000436047
0.0111043
0.0159214
0.00125415
0.0134535
0.000830434
0.0127587
0.0134446
0.000436311
0.00887539
0.0104067
0.000449992
0.000445604
0.000535084
0.0169832
0.0198628
0.0229831
0.0181118
0.000499461
0.0201369
0.0188252
0.000573449
0.000436145
0.000263696
0.000433675
0.012429
0.00945089
0.00219487
0.000449556
0.000451609
0.000627287
0.000457973
0.00746186
0.00922422
0.0217204
0.000450805
0.00059492
0.0178659
0.0135662
0.0163149
0.0226633
0.0100533
0.0159775
0.000442064
0.0181974
0.0164798
0.0202815
0.0159276
0.0181254
0.000444982
0.00051381
0.00045711
0.0229634
0.000473449
0.000479135
0.000452216
0.000605896
0.000499051
0.0196836
0.000500141
0.0136384
0.0258808
0.021347
0.000442889
0.0178914
0.000447758
0.00143479
0.000458587
0.000907844
0.000449088
0.0125226
0.000526216
0.000430813
0.000447592
0.010976
0.000441842
0.000481481
0.00045632
0.000550838
0.00044562
0.00509095
0.000434613
0.000453158
0.000474958
0.000452119
0.0151592
0.000434294
0.00719672
0.0190185
0.00613958
0.00081276
0.000463391
0.000452536
0.020272
0.0208665
0.000482925
0.000456265
0.000438524
0.000437886
0.000448691
0.00119884
0.0141909
0.0120364
0.000467468
0.0109067
0.0199871
0.000456931
0.000792009
0.0215321
0.000436896
0.00048483
0.00855662
0.0175909
0.000468443
0.00148147
0.000435393
0.0115668
0.000453501
0.0150796
0.0159976
0.000443416
0.000516082
0.000441374
0.00720011
0.00809041
0.0216402
0.000447589
0.000440845
0.00864376
0.000428341
0.000451644
0.000835077
0.00579131
0.017137
0.0191597
0.0161089
0.00044076
0.000457081
0.0171965
0.0159763
0.000441043
0.0121603
0.000457204
0.000510359
0.000453413
0.000433981
0.000426377
0.000611493
0.000470321
0.0213121
0.000533149
0.00549386
0.000816766
0.00962084
0.00388015
0.000479164
0.0158976
0.000448033
0.000471845
0.000496628
0.0160413
0.00770585
0.000656784
0.0153459
0.0127634
0.00051983
0.00047303
0.0160007
0.000432649
0.0134478
0.000431074
0.0203415
0.000465887
0.000473124
0.00296235
0.000521662
0.000800975
0.000451146
0.013504
0.0214071
0.000447775
0.000482277
0.00421786
0.000442463
0.000449584
0.000654668
0.000448926
0.000447971
0.000477423
0.00737244
0.0216719
0.0187404
0.000437044
0.000475023
0.000457102
0.000439052
0.000592168
0.000481262
0.000574232
0.0160539
0.000622591
0.000454357
0.000439471
0.000820583
0.0250658
0.0194129
0.000475183
0.018373
0.0139051
0.00945466
0.000450473
0.00616901
0.0219724
0.000440883
0.0202148
0.0160487
0.000426136
0.000447398
0.000581549
0.000580831
0.000477794
0.000435399
0.000476109
0.000443937
0.0122496
0.00237249
0.000468345
0.00108964
0.000467113
0.0121482
0.000475664
0.00046728
0.000480492
0.000451284
0.000606572
0.000456778
0.000440789
0.0160322
0.0124088
0.000462326
0.0160029
0.0180639
0.0151168
0.000451203
0.000478035
0.0216868
0.0252903
0.000448061
0.00976698
0.000435749
0.000506343
0.0067302
0.000461981
0.00981259
0.0252264
0.000471421
0.00385197
0.0205347
0.000443561
0.000553823
0.000441282
0.00189436
0.0262994
0.00721854
0.00683627
0.010902
0.00331716
0.000638511
0.000436127
0.000593771
0.00863829
0.0110537
0.000506492
0.000609069
0.000442871
0.000478917
0.0184218
0.0165271
0.000449214
0.000457561
0.000477652
0.000439997
0.000473399
0.00048256
0.000837462
0.000476096
0.0241476
0.00787082
0.00828611
0.00049766
0.00727502
0.000452073
0.00044488
0.000822624
0.0200613
0.000441496
0.0109334
0.0202225
0.0235463
0.000445259
0.000450073
0.000518846
0.000622506
0.0200348
0.00427398
0.00518006
0.0185453
0.00048082
0.0152217
0.00944937
0.000463737
0.000517165
0.018199
0.000476424
0.0188302
0.000435412
0.000825074
0.000476515
0.000513782
0.00879248
0.00042963
0.0151341
0.000421652
0.025313
0.000477537
0.0141507
0.000521313
0.000448324
0.0205525
0.0201937
0.000439039
0.0100105
0.00310367
0.000584346
0.0122445
0.000489496
0.000432773
0.00480378
0.000447821
0.000565517
0.0200414
0.00175752
0.000511856
0.000642519
0.000460849
0.0246704
0.000461774
0.000665562
0.0201387
0.000507883
0.010192
0.000451343
0.0202924
0.0260867
0.000457226
0.000456504
0.000438023
0.021551
0.0111701
0.000462999
0.000483429
0.000473687
0.000474397
0.00853739
0.000433581
0.000470584
0.000449818
0.000477032
0.000439323
0.0123641
0.000473353
0.000442102
0.0252297
0.000561981
0.00044948
0.000528617
0.000447993
0.000626075
0.0200499
0.000440363