/*--------------------------------*- C++ -*----------------------------------*\
| =========                 |                                                 |
| \\      /  F ield         | OpenFOAM: The Open Source CFD Toolbox           |
|  \\    /   O peration     | Version:  v2012                                 |
|   \\  /    A nd           | Website:  www.openfoam.com                      |
|    \\/     M anipulation  |                                                 |
\*---------------------------------------------------------------------------*/
FoamFile
{
    version     2.0;
    format      ascii;
    class       volScalarField;
    location    "50";
    object      p;
}
// * * * * * * * * * * * * * * * * * * * * * * * * * * * * * * * * * * * * * //

dimensions      [0 2 -2 0 0 0 0];


internalField   nonuniform List<scalar> 
14033
(
0.0319866
0.00638355
-0.000191175
0.0060274
1.37773e-05
0.00615959
-0.0037081
0.00689497
0.00599421
-0.00862461
0.000222281
-0.0285457
0.00822587
0.00822709
4.53521e-05
-0.0134102
0.00168106
0.053648
0.00866987
-0.00133647
-0.0099594
-0.0281593
-0.0121598
-1.61941e-06
0.000320193
0.00850863
-0.0384225
-0.0375676
-0.0316862
-0.0437442
0.00100457
0.00903132
-0.0474984
0.0120511
0.0644123
0.00173863
-0.118391
-0.0187034
-1.48661e-05
0.00413933
0.0788354
-0.00968627
-0.00165439
-0.000171064
-0.00136582
-0.00146111
-0.0736132
0.00620742
-0.0345379
-0.107626
0.00557098
0.00289917
-0.177679
-0.040109
0.00140977
0.00799239
-0.0514897
0.0284221
0.0132931
0.00135441
0.00109281
-0.107432
-0.00370004
-0.00179558
0.00156054
-0.000840723
0.0339442
-0.03874
0.000796458
0.00717133
0.00251391
0.00755806
-0.0732343
-0.000197248
-0.0128542
-0.00034246
0.00565117
0.0075089
-0.0239545
-0.0448902
-0.00134547
-0.0168788
-0.183435
0.00679614
-0.000184473
0.00741504
0.011582
-0.0330899
-0.0655675
-0.00115299
0.00632903
-0.00142577
0.00923768
-0.067869
0.00112308
0.0234558
0.00546966
-0.000181888
-0.144945
0.00555625
-0.000916828
0.0062617
0.000749281
0.00646814
-0.0714594
-0.0449855
-0.065926
0.00695615
-0.0379022
0.00119485
-0.0786445
0.000429623
-0.000199922
-0.00642845
0.000473788
0.005766
-0.048753
3.46619e-05
-0.0665394
-0.0461769
0.00639185
-0.0219307
-0.119845
0.0117305
-0.0735977
0.00912709
-0.00053508
-0.00497991
-0.0563066
0.00596363
-0.0764723
-0.000100352
-7.11781e-06
-0.094994
-0.076599
0.00656251
-0.0394023
0.00149728
0.00586458
0.00891335
0.00373196
-0.0631486
-0.0297216
-0.0134371
-0.0248023
-0.00120249
0.00636189
-0.0195628
-0.117424
0.00616662
0.0227773
0.00367066
0.00243066
0.00787097
0.00630618
-0.105043
0.00539795
0.000299176
0.00629088
-2.21168e-05
0.0157276
-0.0385207
-0.097451
0.00312298
-0.00883294
0.00652582
0.00423161
-0.0195218
-0.19947
0.00779401
-0.0137148
-0.0400776
-0.0282314
-0.114044
-0.000338898
0.007633
-0.048469
-0.0805146
-0.0274236
-0.0137022
0.0283834
-0.0795877
0.00064827
-0.00343412
0.00126244
-0.0693332
-0.115146
0.00582936
-0.150786
-0.0714351
-0.0673958
0.00376733
0.00760826
0.00575397
-0.0754218
0.0814748
-0.00477126
-0.0631425
0.00590688
0.000927658
0.00912832
0.00329469
0.00136442
0.0281578
0.0043209
0.00142709
-0.0210979
-0.0526207
-0.0101207
-0.0153181
-0.0562991
-0.0505796
-0.0628295
-0.0749204
-2.65373e-05
0.015015
0.00431574
-0.00381091
0.00185381
0.0172354
-0.00982522
-0.00270102
-0.00240793
0.0114829
0.00647765
0.0013281
-0.0115139
0.00220569
0.00581404
-0.000578267
4.2365e-05
-0.0438672
0.00606934
3.5588e-06
-0.00422889
-0.117619
-0.0368001
-0.00040756
0.0055647
0.00399876
-0.125558
0.00674882
0.00585054
-7.85131e-05
0.0026851
-0.000430022
-0.0532278
-0.0987359
0.0106909
0.000370335
0.0064041
-0.0620924
-0.00042127
-0.063097
0.00573473
-0.0177061
0.00386283
0.00864343
-0.000386643
-0.0412046
-2.12306e-05
0.0631952
-0.01116
0.0173051
-0.00110861
-0.00262517
0.00615174
-0.0436708
-0.00264451
-0.06398
-0.00042063
-0.10787
-0.000155494
-0.00610583
-0.0693728
0.00547659
5.81672e-05
-0.0381452
0.0105269
-0.042487
-0.0464529
0.00339272
0.00381926
-0.0127143
-0.122076
0.0142236
-0.0721384
-0.000378499
0.0174491
-0.0694107
0.00900575
-0.0268872
-0.0286319
0.056443
0.00744213
-0.000564852
-0.00299296
0.00565284
-0.000603894
0.00939387
-0.00277297
0.0237119
-0.0202971
-0.00130025
0.0113956
-0.00232591
0.0045155
-0.00322881
-0.0535591
0.002928
-0.0388522
0.00374218
-0.0282382
-0.0310652
-0.0379194
-0.00134765
0.00632005
0.0101658
0.0145684
-0.0668146
0.00772278
-0.0422301
0.00598036
0.000978946
0.0231793
-0.0381141
-0.00168331
0.000815566
-0.070119
-0.00942284
0.0139419
-0.092716
-0.132907
-0.009042
-6.37792e-05
-0.0973781
-0.0396125
0.00928322
-0.0995258
0.000974013
-0.0613752
-0.0286127
0.00361047
0.00128959
-0.013636
0.000581954
-0.0215864
0.00635049
0.0813317
-0.00251702
-0.00303457
0.00624036
-0.0646185
-0.00880275
0.00868142
-2.09854e-05
0.00436129
-0.148935
0.00121791
0.00605741
0.00883134
-0.000998178
-0.122223
0.0105623
0.00735208
0.00866889
-0.000474095
1.0206e-05
0.00258732
-0.000812085
0.000574882
-0.000795825
-0.000190948
0.0059737
-0.0386128
-0.0996079
0.00155138
-0.0064797
0.0761962
-0.000131052
-0.000595211
0.0213998
0.00855188
-0.0146545
-0.0290394
0.0065135
-0.0780177
-0.000314027
-0.0130406
-0.0347158
-0.00322622
-0.0659529
-0.00513958
0.0151696
-0.0102585
-0.0796558
0.0456306
-0.0964911
-0.00890072
0.00591279
-0.0333214
0.00885534
-0.000577105
-0.000456977
0.0201237
0.00643464
0.0104333
-1.5881e-05
0.00865891
-0.0763617
-0.105953
-0.048947
0.000586432
0.0376721
0.000754927
0.00764855
-0.000189615
0.00419221
0.00754223
-0.124523
0.00459952
-0.00868126
-0.0193576
0.0076765
0.00579336
0.00579275
0.00992029
4.18003e-05
-0.00431113
0.0117697
0.00792896
0.00413458
0.00302064
0.00662448
5.2574e-05
0.00841495
0.00434882
0.00638868
0.032696
-0.00890232
-0.0454856
-0.000303474
0.00634363
-0.000201787
0.0105209
0.00288301
-0.0211359
-0.0967024
-0.00800125
0.00684168
-0.0507217
0.000214566
0.000997709
-0.0167296
-0.000122016
-0.0623342
-0.0287795
0.00684774
-4.39751e-05
-0.0113638
0.00437059
-0.0778133
-0.0178036
-0.049168
-0.00011969
0.00648645
0.0710533
0.0030163
-0.000552891
-0.0459013
0.00447206
-0.00396053
0.00512153
0.00641505
-0.000228041
-0.0992032
0.0105353
-0.0482863
0.0147471
-0.0452906
0.00456521
-0.057058
0.00652514
0.0797629
-0.069352
-0.00178324
-0.200716
0.00173585
-0.0369504
0.0029619
0.00311873
-0.193516
-0.091659
-0.0273672
0.00508752
0.00161385
-0.0389664
-0.00867281
0.000746976
0.023756
0.00437906
0.0086627
-0.0639894
8.45155e-05
-0.00832277
-0.00059273
0.00559163
0.0775385
0.00680232
-0.0303506
-0.000216507
0.00484531
-0.0549631
-0.000507784
0.0107155
0.00595797
-0.020449
-0.0002829
-0.00799764
-0.00533107
-0.000970485
-0.00864698
-0.000928233
0.00893338
0.00754889
0.00290405
0.00848574
0.0065151
0.00335276
0.00858645
0.00478011
0.011191
-0.146432
0.00627069
0.000536918
0.00972713
0.00449524
0.00658766
0.0065483
-0.0496583
0.0160605
-0.0679586
-5.50344e-05
0.00754684
-0.0101373
-0.00155692
0.0229789
-0.00084519
-0.0617623
0.0147727
-0.000350488
-0.0571982
1.84962e-05
-0.000872017
0.00998263
-0.0315916
0.00611576
0.00289498
-0.0187929
-0.108778
0.0105481
-0.0694707
-0.00935303
-0.000945154
-0.00849767
0.00811901
0.0429942
0.00616383
0.00754376
0.00671258
-0.0646949
-0.0611148
-0.088419
0.00655751
-0.0750461
0.00691584
-0.168861
-0.0572202
-0.00584608
-0.104026
-0.00879655
0.00644347
-0.000724557
-0.000519074
-0.000393641
-0.0382238
0.00682142
-0.0370532
-0.000328737
0.0103248
0.00465212
-0.00480298
-0.000291171
0.00894394
0.00973787
0.00683483
3.55252e-05
-0.0512754
-0.00025225
0.00877019
0.00654296
-0.000708958
0.0153584
-0.0124565
-0.00995821
-0.108544
-0.0200105
-0.0901622
-0.0352569
-0.00907556
0.0105515
0.00888707
0.0066576
0.00463417
-0.00940307
-0.00053365
-0.000370499
0.00836654
-0.14741
-0.0708489
-0.0786451
0.00523409
0.0116546
-0.0102314
-0.000138689
-0.0188996
-0.0111779
0.0134251
0.0152063
-0.0237615
-0.000172742
0.000768745
-0.000172814
-0.0452367
0.0056537
-0.058453
-4.71325e-05
0.00651663
-0.0352558
-0.000363996
-0.0295145
0.00652365
0.0011229
-0.0522568
-0.0427091
-0.0788146
-0.0358252
0.00561594
0.00324146
-0.000259897
-0.0134603
0.0108682
0.000173002
0.0106133
0.0168084
0.0209337
-0.00020594
0.00651295
-0.152749
-0.000881299
-2.32417e-05
0.000163697
-0.0400451
-0.130195
-0.000318348
-0.0772102
-0.0015021
0.0635739
-0.000212937
7.51094e-05
-0.00116757
0.0482405
0.0447895
0.00589552
0.00855907
0.00649268
0.00683053
0.0288201
0.011037
0.00417466
-0.0730365
0.00670021
-5.68819e-06
-0.0156756
-0.0281865
-0.000596594
0.00392074
-0.0516073
-0.0422421
-0.000917787
-0.0500645
0.0167699
-0.0948016
-0.00536185
-0.00247885
-0.100676
-0.0744825
-0.0496629
0.00104662
-0.000326015
-0.258947
0.0106279
-0.0344182
0.00363859
-0.00629786
0.00680947
0.00634572
-0.0148588
0.0121109
0.0167026
-0.0697606
0.00643881
0.00366622
0.000874081
-0.0761541
0.00404952
0.00563499
0.006376
0.00264884
-0.00962336
0.000317375
0.0239428
-0.0230932
0.000999506
-0.00762938
0.000360435
0.0242934
-0.0203335
0.000170049
0.00510749
0.00532358
-0.0531768
-0.000875885
0.0108268
-0.00127049
0.0101225
-0.0679284
0.00655924
-0.153581
0.0124687
-0.144227
-0.00351573
0.000631801
-0.0491835
-0.0890529
0.00948792
0.0001331
-0.0001922
-0.0705253
0.0263973
0.0139118
0.000205542
0.0065276
0.00498628
0.0116303
-0.0749047
-8.52913e-05
0.00207223
-0.0546809
-0.113185
-0.00078943
0.00613306
0.0239692
0.00958883
0.000109876
0.00667828
-0.0874424
0.00547531
0.00387854
-0.0268447
0.00664222
-3.68606e-05
0.00431802
-0.0154042
0.0019762
-0.00723259
-0.0385939
0.0469058
-0.00176288
0.00924659
-0.00664821
0.00297046
-0.0898212
-0.000222453
0.00691497
-0.000455701
-0.097117
-0.00104205
0.00899009
0.00202673
-0.15806
0.0444616
-0.000650347
0.0362331
-0.13444
0.0111689
-0.0467485
-0.101187
-0.0459917
-0.0412841
-0.0282524
-0.0673265
-0.00930636
-0.0442534
0.0338102
-0.104601
0.00649319
-0.106531
0.0125495
0.00513967
0.00183143
0.00958637
0.0082113
-0.0263413
0.00786109
-0.000186522
0.00870911
0.0159452
0.0839489
-0.0354833
-0.00481398
-1.48343e-06
-0.00017492
0.00519208
-0.021607
0.00999956
-0.00908736
-0.000975342
0.0038127
0.0415763
-0.000284855
0.0162427
-0.116086
0.0039716
-0.000224579
0.00877502
-0.111274
-0.000293082
-0.0925384
-2.08495e-05
0.0114339
-5.57539e-06
0.00543179
-0.122749
-0.0275122
-0.00784792
0.00219735
0.000751603
0.00883628
-0.000294567
0.00219972
0.00165987
0.0109876
-0.121928
-4.54289e-05
0.011546
0.00697559
0.0076925
-0.000200126
-0.0368114
0.00855704
-0.0287129
0.00800747
-0.0097965
0.00959775
0.000102059
0.00765152
0.00231709
0.00252172
-0.161365
0.00128676
8.66131e-05
0.00665655
-0.129558
-0.000821331
0.0011026
-0.0394455
-0.12575
-0.0533074
-0.0157358
0.0064842
-0.00591403
-0.0900734
-0.0179833
-0.0138766
-0.0777828
0.00580641
-1.09661e-05
-0.00029786
-0.000754249
0.00523513
-0.0088274
0.007025
0.0080125
-0.00563383
0.0062686
0.0121287
0.00534624
-0.116351
-0.000118468
0.00801569
-0.0562097
-0.0526847
-0.00145687
0.00472506
1.70901e-05
-0.0128583
-0.0625054
0.00556546
0.00674318
0.00662696
-0.000490797
9.37084e-05
0.00853433
0.00590314
0.0113611
-0.000313202
0.00499227
-0.00722122
0.0101405
-0.00020805
-0.0642777
-0.0149622
0.00249686
-0.00939082
-0.0542371
0.0103811
-0.000143131
-0.000967246
0.0103209
0.00436598
0.00330864
-0.012404
0.00788489
-0.0458329
0.00418579
-0.000180147
-0.000209967
-2.69483e-05
0.00448063
-0.044099
-0.0347826
-0.0598959
-0.00906728
0.00232115
0.066123
-0.00204146
0.0102208
0.0204418
0.00920978
-0.0669151
-0.0205292
0.000947437
0.00439825
1.6273e-05
-0.0862333
0.00926585
-0.000618144
-0.174483
-0.00100442
-0.0604761
-0.000204627
-0.000220559
-0.000123686
-0.000486266
-0.0565752
-0.100661
0.002691
0.00414277
-0.0361368
0.00330792
-0.000536334
0.00151048
-0.00020719
0.0068359
-0.0812251
-0.00382532
-0.0172209
-0.121592
-0.0873137
0.00593978
-0.00543222
-0.000817232
0.00650791
0.00063308
0.00492849
-0.00622145
0.006438
0.00845344
-0.0116067
0.00957322
0.00432938
0.00467815
0.00413415
3.57785e-05
0.00834597
-0.0336832
-0.0651895
0.00895504
-0.000192937
0.00205665
-0.000160848
0.00722555
-0.000181724
0.0159779
-0.0707246
-0.00556626
0.00492517
-6.01099e-05
-0.0284498
-0.0433441
-0.052774
-0.0261567
0.00531529
-0.00129266
0.000453538
-0.000174726
0.0116575
-0.250888
0.00197689
-0.00851773
-0.0266626
-0.0266617
-0.0646499
-0.011261
0.00290608
-1.49113e-05
-0.0119878
0.00368097
0.0503308
-0.0538089
0.0047986
-0.0466162
0.00689725
0.000458536
-0.0862814
-0.071645
-0.000198661
-0.00109697
0.0074641
-0.000783325
-0.00162657
0.00319174
-0.000234321
0.00357554
-0.0367419
-0.0129507
-0.052727
-0.0141256
0.00630759
3.08491e-05
0.0103912
-0.103148
0.0399418
-0.0100907
-0.0322717
-0.0512431
-0.0215014
-0.0145354
-0.0549758
1.42366e-05
0.00643875
0.00608387
0.0126278
0.00324462
-0.000711688
-0.000134844
0.00661338
-0.0847364
-0.0674596
0.0783587
0.0172294
0.00349206
-0.0800611
0.0127955
0.00263717
0.00369788
0.00542131
0.00773122
-0.00134197
-0.0323698
0.0187392
-0.0332849
-0.149126
-0.0140027
0.0108735
0.0031602
0.00743959
-0.0137013
-0.00119342
0.0117836
0.00421864
-0.0103589
-0.00226968
0.00845563
-0.00154127
-0.000203534
0.00647217
-0.0902524
0.00882295
0.00807063
-1.24626e-05
-0.00931809
0.000179902
-0.042407
-0.141949
0.0133458
0.0113951
0.00938952
-0.00562592
-0.000192883
-0.0730466
0.00931645
0.0320301
-0.0127423
-0.0538904
-0.0326295
0.0684717
0.0112413
0.00983773
0.00454488
-0.0121027
-2.89802e-05
0.00457106
0.00651601
-6.05545e-05
8.65906e-06
-0.0109599
0.000476875
-0.0603047
4.01421e-05
-0.000182043
-0.127009
-0.000703768
0.00944007
-0.0781521
0.0133361
-0.000290073
0.00627349
-0.12267
0.00601546
-0.000319634
-0.078352
-0.000189556
-0.0402649
-0.0152619
-0.127341
-0.00528148
0.00394045
-0.000616989
-0.0103645
-0.000258699
-2.03599e-05
-0.0868444
-0.000579462
-0.000512366
-0.0136279
0.00858224
-0.000865365
-1.31954e-05
0.00621136
-0.000172842
0.00918272
0.00657314
-0.0672676
-7.34643e-05
-0.000196194
0.00226501
-0.0201034
-0.000161159
0.000140728
0.00624953
0.00265607
-0.0644375
0.00971432
-0.000613727
-2.07451e-06
-0.0373942
-0.0917501
0.0199343
0.0103594
-0.0184498
-0.0214663
0.00329517
0.0036206
-0.000194456
-0.0499481
0.000621765
0.0117467
2.60896e-05
-0.0147743
0.00158086
0.00741485
0.0134172
-0.000239738
0.00489881
0.0103661
-0.00656388
-0.00415659
0.000785507
-0.0571641
0.0158797
-0.0436294
-0.000606313
-0.0690917
-3.13712e-06
-0.123335
8.81367e-06
0.000783366
0.0107339
-0.0655488
0.00313947
-0.0592114
0.00473666
0.00194822
-0.0200006
-0.000533485
-2.05133e-05
0.00615982
-0.00762585
-0.0350529
-0.00250319
0.00206965
0.0084817
0.00758373
-0.0125792
-0.109393
0.0837525
-0.0525425
-0.0128598
0.0101524
0.0384559
0.00913555
0.00381056
-0.000442718
-0.0131736
0.00470713
0.00393253
0.0213796
-0.0636577
0.00730491
0.00175652
0.000571418
0.00687216
0.0198788
0.00382075
-8.21868e-05
-0.000196225
-0.000710529
-0.0167686
0.00182328
-0.123288
-0.000427279
0.0140083
5.39961e-05
0.00494992
0.00161999
-0.0024368
0.00479079
-0.00867172
-0.000204109
-0.00153843
-0.00688416
0.00159034
0.0177683
-0.0224609
0.00798355
0.0414499
-0.0667801
-0.00475479
-0.0490424
-0.00103813
0.0103367
-0.0217317
0.00635537
0.00803451
-0.0312732
0.00312958
-0.102765
-0.0623786
0.0107665
0.00689614
-0.000564054
-0.000203333
-0.00222798
-0.0253117
-0.0780571
-0.00074734
0.00317093
-0.0068794
-0.00064648
0.00582053
-0.00348622
-0.00352961
0.00235375
-0.000200267
-0.0549547
0.00747367
-0.0463444
-0.103826
-0.112766
-0.0460075
0.00621003
-0.0789566
0.00317904
-2.41178e-05
-0.0550862
0.0109396
-0.228972
-0.000213189
-0.295213
0.00571956
0.00659072
-0.0152308
-0.0114528
-0.0179905
-0.0536472
-0.000157283
-0.000913015
-8.56874e-06
-0.0738765
-0.00150202
-0.00881874
-0.00481066
-1.20889e-05
-0.0876863
-0.0445449
-0.005928
0.0124527
0.0047623
-0.00100901
-0.000193906
0.00659604
-0.0199152
0.00845596
-0.000590456
0.00572552
-0.00300353
-0.000404357
-0.0561412
-0.087298
0.00842746
-0.136499
0.00986733
0.00435538
-0.000755096
-5.71257e-05
0.00635537
0.0675538
-0.000186886
-0.000188672
0.022915
-0.0176522
-0.00487791
0.0494558
-1.63162e-05
0.0030483
-0.0305478
-0.0221185
0.00980989
0.00314948
0.0141024
0.00792784
-0.0621006
-0.000423413
-0.0017078
-0.0784753
-0.10671
-0.00273132
-0.0348871
-1.46347e-05
-0.00144801
-0.00022102
0.024229
-1.5407e-05
-0.000205745
-0.11121
0.00956126
0.0137214
0.00441189
0.0065466
0.00913669
-1.25131e-05
-0.100298
0.0030126
0.0042989
-0.0198039
-0.00555447
0.00616898
0.00183405
-0.0400262
-0.00020752
-0.000464124
0.00345849
-0.00198101
-0.000934134
0.00323141
0.00436356
0.00109518
-0.00015332
-0.0354499
0.0218229
-0.00940748
-0.0114877
-0.0926016
-0.00355152
-0.0636479
-0.0313941
-0.0439693
-9.07006e-05
0.0691612
-0.0190434
-0.0470213
-0.000240622
0.0112722
-0.000187542
-0.000194892
0.00810912
-0.000407325
-0.0210592
-0.000692692
0.0699194
-0.18802
-0.0278969
-0.017322
-0.0531144
0.00555055
-0.0456189
-0.0266442
-0.00788287
0.00367326
0.00434116
0.00907177
-0.0262879
-0.00170769
-0.0536202
-0.000358391
-0.0678503
-0.000264723
-0.0576324
-0.0591124
-0.000693406
1.31254e-05
-0.157664
0.00473083
-0.211275
-0.0272316
0.00669271
0.0062972
0.0115077
7.96158e-06
-0.0610156
-0.0128139
-1.04929e-05
-0.0634172
0.0194384
0.00821541
-0.00208762
0.0063347
9.5197e-06
0.00694667
0.0724012
0.00741647
-0.00234544
0.003814
0.0035124
0.0181796
-0.0135729
-0.0735295
0.00693193
0.00164973
-0.0540225
-0.0175928
0.00671536
-0.0637493
-0.0168965
0.0120112
0.0663317
0.0138911
-0.0787939
-0.000182219
0.00721989
0.00716301
0.00388087
-0.0915368
-0.0487623
-0.00075935
-0.0546651
-0.000155821
0.00652248
-0.0409639
0.0047639
-0.00943742
0.0105017
-0.00318252
-0.0229011
-0.0108113
0.00345986
-0.104693
-0.166042
0.00426977
0.00141326
0.000678749
0.000123598
-0.0163093
-0.00107301
0.0104652
-0.0278678
-0.00309128
-0.0438137
0.00732768
0.00771269
-0.0228566
0.0124462
0.00918371
0.0307901
-0.000643667
-0.047639
0.0060144
0.0051037
-0.0378069
0.00645519
0.00214598
-2.40558e-05
0.00480749
-0.00519308
0.00802425
-0.00550938
-0.0003759
0.00832762
0.00500124
-0.0629381
-0.000184615
0.0117535
-0.00677421
-0.000186471
-1.72974e-05
-0.0330419
-0.00539691
-0.0610175
-1.79681e-05
-0.0279376
0.00312159
-0.0943232
-0.0814678
-0.000213383
-0.0796073
0.00605895
0.00179842
-0.0532257
0.00658362
-0.00971377
-0.044066
0.00928657
0.033563
-0.0137481
0.00889013
0.00188222
-0.000122782
-0.000157347
-0.000721585
0.00480344
-0.0502523
0.00825611
-0.0656707
0.00640209
-0.00510112
-0.0285654
0.0025048
0.00184787
-0.0621184
-0.000273887
-0.0736374
-0.131765
0.0158732
-0.071735
0.00558997
-0.0243877
-0.107789
-0.00441506
0.0108373
0.00594151
-0.000903692
0.00747141
-0.0849684
0.00214914
0.00316717
-0.0120215
0.0066091
-0.00032182
-0.0680322
-0.000359839
-0.000164819
0.00569064
0.00800948
0.0208618
0.0123986
-0.00147836
-0.00360495
0.0099514
-0.0580773
-0.0513127
0.00455149
0.0149366
0.00267038
-0.0228438
-0.01134
0.00491084
-0.000222303
-0.0696575
-0.0562707
-0.0738165
-0.0195738
-0.000392111
-2.72213e-05
0.00665107
0.0235712
0.0136386
-0.0424636
0.0065305
0.00485775
-0.000522912
-0.0526578
-0.00604874
-0.122459
-0.0131152
0.0101035
0.00630828
-0.0267326
0.0027754
0.00230011
-2.3862e-05
-0.0883749
0.009917
0.00794272
0.033
-0.00564614
0.00411192
-0.000185211
-0.0132946
-0.054281
-0.060778
0.00480248
-0.0929455
0.0122166
0.00639188
0.00604333
0.00752792
-0.0398666
-0.0450837
0.00643556
-0.0519486
-0.0419493
-0.00916961
-0.128573
-0.0731213
-0.0316096
0.00562908
0.00537958
0.00968833
-0.000194411
0.0023415
-0.0898129
-0.0494992
0.00503853
-0.037921
0.00253745
0.00109446
-0.0538462
0.00877488
-0.00492986
0.00760959
0.00496593
-0.091643
0.00170094
-0.0417259
0.00279579
-0.0287566
-0.0507173
-0.0528567
0.00308418
0.00943532
-0.00023974
0.0360656
-0.0245114
0.0109671
-0.0159635
0.00652886
0.0231488
-0.00814736
0.0176563
-0.000314105
-0.0274921
-0.0620318
-0.00727236
-0.00698411
0.00574518
-0.00530283
-0.0411779
-0.0277428
0.00645558
-0.0417786
-0.0406195
-0.0320739
-0.000289777
-0.0356396
-0.0592416
0.000556288
-0.0474869
0.00473554
0.0044804
-0.0940152
0.0061202
0.00214533
-0.0540838
0.0175762
-1.73572e-05
-0.0291314
-0.0526471
-0.112948
0.000283249
0.00803764
-0.0125853
-0.00394163
-0.00043183
0.00346499
-0.0723166
0.0188445
-0.000235656
0.00120799
0.00651613
-0.117731
-0.00211198
-0.0239382
-0.0080961
-0.0307394
0.0149205
-0.272739
0.00742537
0.000397577
-0.0508661
0.00486631
0.0144146
0.00833446
-0.00271838
-0.000789333
0.00323578
0.00685588
0.0032339
-0.00605866
0.000764104
-0.0805815
0.000800584
-0.0283947
-0.0562094
-0.000124589
-0.00467958
0.000215666
0.00176065
0.00198485
0.00555618
0.00680558
-0.0598433
-0.00719952
-0.0855754
0.00519991
0.00776702
0.0038003
0.0060512
0.00530085
0.00195193
0.00591864
0.00641623
-0.000479513
0.00464541
0.00999709
-0.052571
0.00286077
0.0236456
-0.00125719
-0.0779317
-0.116354
-0.0539441
0.00826543
-0.000195266
0.00645433
-0.000979352
0.00603457
-0.0826622
-0.000383662
0.00520158
0.00610181
0.00778231
-0.000190022
0.00815239
-0.119703
-0.0244644
0.00270981
-0.0817043
0.00917982
-0.0662031
-1.05865e-05
-0.246409
-0.0602192
0.00198573
-0.000433281
0.0038752
-0.0487853
-0.0019911
-0.00896335
0.000177784
0.0182638
-0.0112512
-0.000583212
-0.0583873
-0.0014406
-0.000228738
0.00818881
0.00412226
0.0392941
0.0104839
0.00466052
0.0257453
-0.0256636
0.0123741
-0.0225681
-0.00517571
-0.0233837
0.00597794
0.00609199
-0.00168282
0.00437129
-0.00225827
0.0147155
-0.00721916
-0.0262843
-0.0336397
0.000276264
-0.0118774
-0.00846003
0.00479342
-0.000790626
-0.000217666
-0.00644315
-0.0189753
-0.000866018
0.00400916
-0.00018013
-0.00445099
-0.125773
-0.155651
0.00746067
-0.0599299
-0.00981446
0.0319973
0.000200306
-0.0522852
-0.0311916
-0.00365472
0.0138523
0.00771181
-0.0391331
-0.000183476
-0.000772693
-0.000539231
-0.0529949
0.00363399
0.00286092
-0.0650931
-0.00804051
0.00627129
0.00115706
0.00780172
0.00245672
-0.0134369
-0.0590397
0.004979
-0.0271939
0.0191902
-0.000252808
-0.000187316
-0.0582148
-0.00012794
0.00395766
0.00840826
-0.000853102
0.00960156
-0.000182244
0.0079871
-0.052492
0.00553526
0.00785848
-0.000203082
-0.000204631
0.0108597
0.0117223
0.00594682
-0.0247722
0.00825692
0.00480705
0.00690765
-0.0959129
1.85246e-05
0.00529464
-0.0828813
-0.0127734
-0.00557307
-0.0113226
-0.000139519
0.0061661
0.00145631
-3.68559e-05
0.00709275
-0.0657953
-0.0130881
0.0158229
-0.00418954
-0.0325517
0.0114039
-0.00274775
0.00795358
0.0120355
-0.101227
-9.19694e-05
-0.0348962
0.00331239
-0.00274583
-0.00262911
0.00420049
-0.0051235
0.00662358
-0.000938098
-0.0917961
-0.103068
0.00488902
0.00371825
0.00765627
-0.000203207
-0.000100188
-0.00018395
0.0047058
-0.0385632
0.0151297
0.00519646
-3.65786e-05
-9.30383e-05
-0.0266015
-0.0641087
-0.0807105
-0.000546063
-0.0846748
-0.0563263
-0.00277031
-0.100203
9.40327e-06
-0.0338898
-0.0940086
-0.0792408
0.00629982
-0.0777833
-0.0235887
-0.0264041
-0.108986
-0.00399941
0.00101091
-0.00828371
0.00628833
-0.00229908
-0.0516306
-0.0602842
0.00998585
-0.000150967
-0.0530736
-0.0992429
-0.000227367
0.00130655
0.0132931
0.00231574
0.0031423
-0.00564085
-0.0718488
-0.038508
-0.0203904
-0.101499
0.000990024
-0.108516
0.00390426
-0.0667336
0.00925096
-0.0488205
-0.00160195
-0.112416
0.00194384
0.00226308
0.00257207
-4.32332e-05
-0.0513123
0.00393761
0.00411222
0.00404953
0.00959922
0.0134029
0.00443163
-0.00210176
0.0134083
-0.00684692
-0.0277558
-0.288349
0.00157869
0.00969998
0.00285225
0.00922204
0.00291923
0.000913887
-0.0479502
-0.000163998
-0.00102414
0.011913
0.000806461
-0.0957107
0.00614553
0.00661505
-0.000162046
0.00579512
0.0055325
0.00600163
0.0101324
-0.000207285
0.00432418
-0.000905185
0.00632735
0.00144274
-0.0762849
0.00675752
0.000806752
1.12061e-05
0.00650371
-0.0417815
-0.0648635
0.00664265
0.0124549
-0.000851941
-0.00742048
0.00410933
-0.0394066
-0.00101681
0.00591084
-0.0899329
0.0033767
-0.0693127
-2.33803e-05
0.00575845
-0.00479006
0.00824374
0.00836804
-0.089884
0.000179706
-0.0274506
-0.111294
0.00302816
0.00623076
0.00336685
-0.00611166
0.00731146
-0.028597
0.0118282
-0.00478279
0.0116194
-0.000115728
-0.216027
0.0108661
-0.0846149
-0.0551585
-0.00191224
0.00928094
-0.0247731
0.00481875
0.0127428
0.00586169
-0.0466113
1.48228e-05
0.0175393
-0.00158136
-0.0117016
0.00535497
-0.00018822
-6.27246e-06
0.00126589
-0.000761061
-0.0469933
0.00829953
-0.225101
0.0168486
0.0024196
-0.054353
0.00561129
-0.0504053
0.00556272
-0.0874506
0.00573211
-0.0598088
0.00515579
0.0109532
-0.118081
0.0064368
-0.128756
0.00627293
0.0184698
0.0545985
0.00750696
0.00263008
-0.0229468
-0.00534131
-2.75595e-05
0.00081645
-0.0136809
-0.0234264
0.0219776
0.000691629
-0.000570534
-0.00867973
0.00796936
0.00656685
0.00412575
0.00592235
0.0127049
-0.00777016
0.00687607
0.00503718
-0.0869673
-0.0598493
-0.000173623
0.0105336
0.00663629
-0.0273247
-0.113483
0.00599529
-0.0862122
-0.198232
0.00340474
0.00209302
0.00365094
-0.00497928
-0.00101045
-0.0818019
0.0102463
0.0283741
-0.0252835
0.0194716
0.00587003
0.0057705
0.00663972
0.0238818
-0.0621409
-0.00157309
0.0061807
-0.000179813
-0.0645018
-3.16902e-05
0.00210213
0.00337966
0.0134315
-0.0939437
0.00726415
-0.0914383
-0.000511741
0.0076217
-0.0292657
0.00872299
0.00552776
0.0050044
0.00853607
-0.00366774
0.00594653
-0.0825543
-0.0589764
0.00547595
-0.0335344
-0.0806587
-0.000191692
-0.00649546
-0.014022
-0.0550453
-0.00346499
-0.0832546
0.00733411
0.00647721
0.00681114
0.00840694
-0.0567053
-0.134631
0.00700069
-0.0997494
-0.014289
-0.0758956
-0.0477588
0.00676379
-2.99696e-05
0.00799648
9.96617e-06
0.00601344
0.00496213
0.0050011
-0.0774892
-0.175881
0.00313514
-0.0403029
0.0127571
-0.0890148
-0.0314802
-0.0784094
0.00748133
-0.0123079
0.00615281
-0.0744864
0.0402805
0.0128559
-4.07792e-05
0.00111863
-0.00232715
-0.0302801
-0.0816972
0.006625
-0.00421187
0.0116606
-0.000192109
0.00520109
0.00786543
0.00613313
0.0786538
-0.000178379
0.0084699
-0.126914
-0.0526904
-0.000229108
0.00311535
-0.00310927
-0.0323009
-0.00948253
0.000897298
-0.00425088
0.00646927
0.0291452
-0.0447742
-0.098657
-0.0839693
-0.0574121
0.00662277
-0.057568
0.00882291
-0.0860038
-0.0266972
-0.0322457
-0.0944922
0.0585998
-0.0260695
-0.083882
-0.0746306
0.0204333
-0.0757515
0.00977441
0.00823729
-0.0466588
0.0205443
-0.0246568
0.0120979
0.0110854
0.00825175
0.00545844
-0.000710914
-0.0829381
0.0479157
-1.87059e-05
-0.0262728
-0.000197661
0.00269507
0.00599196
0.00293752
0.0103387
0.00233977
0.00643732
-0.000191661
-0.024088
0.00602869
0.0076634
0.00120834
-0.0236725
-0.0668303
0.0256115
-0.0811161
0.0045978
-0.0725196
-0.077768
-0.0151537
-0.0717248
-0.0202561
0.0354831
0.00824675
-0.0516738
0.00626563
-0.037538
-0.0929554
0.00785213
0.00141826
-0.00111006
0.00812061
-0.048917
-0.00493204
0.00692352
0.00366042
0.00511906
-0.0530516
0.00676462
-0.0264743
0.00541146
0.00203711
-0.0834949
-0.027447
-0.0695694
0.0225592
0.0465036
0.0232645
0.00826632
-0.000199616
0.00384738
0.00236903
0.00661777
-0.0276414
0.00639995
-0.0434768
-0.0193672
-0.00424468
0.00303688
0.00261047
0.0119374
0.00510803
-0.068881
0.0346968
0.00724
-0.0347418
-0.0495289
-0.00664968
0.00607048
-0.0371975
-0.0746438
-0.0419995
-0.0665445
0.000641555
0.00640818
0.00672213
-0.0685781
0.00953021
-0.0971459
0.00203979
-0.0247233
0.00654605
0.0021674
0.00470855
-0.000555545
0.00474839
0.0133528
0.00549075
0.00523989
0.0251186
-0.0719317
0.0240013
0.0028041
-0.080283
0.0336729
-0.000367851
-0.000174719
0.0249488
-0.0835657
0.0818443
0.00666662
-0.230551
-0.0462072
-0.0215478
-0.000311192
0.0055262
-0.00270422
0.0019004
0.0112342
-0.0118207
-0.0722622
0.00701614
0.00624571
0.0330362
-0.0744942
0.00743621
-0.0507765
0.00510731
0.00516502
0.00715566
-0.000122848
-0.00788262
0.00457277
-0.0746088
0.00056795
-0.0694478
0.00670944
0.00672858
0.00609259
-0.00616308
-0.0786947
-0.0339237
-0.055687
-0.0682732
-8.91995e-05
-0.0219343
-0.023628
-0.0240361
-0.000254675
-0.0506284
0.000579453
-0.139885
0.0282331
0.00794167
0.00841795
-0.0634995
-0.0567443
-0.261573
0.000724078
0.0029002
-0.042042
-0.0855783
0.007029
-0.00145392
-0.0606853
-0.034443
-0.0823319
0.0172407
-0.0440326
0.00643729
0.0291606
0.00817461
-0.0516872
-0.0880435
-0.0708225
0.00485572
-0.0501727
0.0148325
0.000821512
0.00262308
0.00200473
0.00538357
-0.0359222
-0.039328
-0.0376512
-0.0406417
-0.0419662
-0.043112
-0.00885238
0.028559
0.0552505
-0.0328021
-0.0545848
0.0139966
0.00645141
0.00427569
-0.00763183
0.00487838
0.00492597
-0.0757871
-0.0446295
0.0106868
-0.000309211
-0.0826345
-0.0295137
0.0227864
-0.00706205
-0.0857456
-0.0221507
-0.0766577
0.00703564
0.00169271
0.00896735
0.00951208
-0.00150168
0.004212
-0.000638877
-0.0150749
0.00501097
-0.0428349
0.00675974
0.0711654
-0.08116
-0.0536814
0.00774037
0.0130397
-0.051121
-0.000199208
0.00773206
0.0061483
0.0148008
0.00316569
-0.0788718
-0.0884246
0.00513461
-0.0542541
0.0119825
0.00594576
-0.0491134
0.00190603
-0.0727735
-0.000738435
-0.0275133
0.00233533
-0.0366191
0.00252961
0.0253737
-0.0539665
-0.049852
-0.0770972
-0.00186106
-0.0418444
-0.0704435
-0.0280105
-0.0266416
-0.0970937
-0.0616039
-0.055316
-0.0049451
0.00629972
-0.0815375
6.37562e-05
-0.0254701
-0.0738527
-0.000963193
-0.0838054
-0.0131234
-0.0664106
-0.0835928
-0.00830541
-0.0586961
0.0119722
-0.0861357
-0.000181978
0.0559688
0.0128338
0.00289045
0.00647988
0.00782762
-0.0670363
0.00087294
-0.0771895
-0.0428082
0.0499659
0.00599078
-0.0779418
-0.0926091
-0.00930255
0.00678314
0.00620512
0.000201959
-0.0337414
-0.0406796
-0.0688685
-0.00111675
0.0313205
0.00315158
-0.0551572
0.00290175
-0.000474708
0.0516423
-0.0286249
0.00411441
0.0788716
-0.0512241
0.00233084
-0.00217638
0.0100608
0.041783
-0.0588337
-0.0593895
0.00713948
-0.0552533
-0.0489913
-0.0415808
-0.044755
-0.0560201
-0.0514683
-0.0139491
-0.13928
0.00223162
-0.026715
0.00649579
-0.00187191
-0.00249761
-0.0124743
-0.0119937
-0.0828091
-0.0818883
-0.000185084
-0.0621001
0.0292529
-0.00735254
0.010171
-0.0535649
0.0230932
0.00121952
0.00449807
-0.022543
-0.0559172
0.000924349
0.000890046
-0.0468889
0.0186058
0.00644137
-0.0398889
0.0217454
0.00351712
-0.0231173
-0.00874331
0.00462278
0.00652668
-0.0806747
0.00590075
-0.0122671
-0.0113552
0.00351795