/*--------------------------------*- C++ -*----------------------------------*\
| =========                 |                                                 |
| \\      /  F ield         | OpenFOAM: The Open Source CFD Toolbox           |
|  \\    /   O peration     | Version:  v2012                                 |
|   \\  /    A nd           | Website:  www.openfoam.com                      |
|    \\/     M anipulation  |                                                 |
\*---------------------------------------------------------------------------*/
FoamFile
{
    version     2.0;
    format      ascii;
    class       surfaceScalarField;
    location    "50";
    object      phi_0;
}
// * * * * * * * * * * * * * * * * * * * * * * * * * * * * * * * * * * * * * //

dimensions      [0 3 -1 0 0 0 0];
oriented        oriented;


internalField   nonuniform List<scalar> 
20823
(
0.114913
0.0253584
-0.140272
0.324989
-0.241316
-0.0836721
0.669194
-0.092816
-0.576378
0.600053
-0.117772
-0.482281
0.610192
-0.0554385
-0.554753
0.504194
-0.375194
-0.129001
-0.490169
0.369806
0.276282
0.121458
-0.39774
0.549992
0.0500606
0.0704568
0.052022
-0.122479
0.633446
-0.557695
-0.0757514
-0.149157
0.148878
0.0002797
0.207277
-0.337277
0.13
-0.131802
0.339079
-0.72195
0.418129
0.303821
0.140274
-0.214113
0.0738396
-0.317177
0.203502
0.113675
-0.0337263
0.069662
-0.0359356
0.355576
0.00109699
-0.356673
-0.188642
0.310548
-0.121906
-0.108536
0.195174
-0.0866385
-0.0122074
-0.13695
-0.023783
0.132249
-0.108466
0.0420905
0.568101
0.479932
0.153514
-0.0908839
0.44646
0.119094
-0.115956
-0.00313784
0.11958
0.0955993
-0.123044
0.0274447
0.0178603
0.0876269
0.146818
-0.197874
0.0510564
0.395383
-0.119101
0.123256
-0.0958939
-0.027362
-0.0229785
0.156998
-0.13402
-0.104921
0.178901
-0.0739792
-0.540026
-0.0728665
0.612893
-0.103304
0.0725457
0.0307586
0.148049
-0.0775924
-0.253075
0.69006
-0.436985
-0.0498035
0.300049
-0.250246
0.0594885
-0.0996678
0.0401792
-0.223422
0.114887
0.800116
-0.416274
-0.383842
0.701355
-0.262752
-0.438603
0.759784
-0.347102
-0.412681
0.36398
0.436135
0.0499135
-0.0456723
-0.00424117
0.407627
0.0965677
-0.151338
0.0854382
0.0659001
0.133107
-0.0758272
-0.0572799
-0.135958
-0.219684
0.355643
-0.00450931
-0.527395
0.531905
-0.10818
0.0511278
0.057052
0.137602
-0.0849769
-0.0526251
-0.193711
-0.123466
-0.237051
-0.100226
0.0644746
-0.0950888
0.0306142
-0.00297751
-0.0957368
0.0987143
0.123981
-0.146959
-0.0563893
0.203207
-0.623893
0.490257
0.133636
0.0432611
0.089846
-0.106302
-0.0372185
0.143521
-0.417858
-0.176392
0.59425
0.405793
-0.652596
0.246803
-0.47745
-0.0994155
0.576866
-0.0340642
0.148978
-0.0570181
0.103508
-0.0464898
0.599326
-0.487972
-0.111354
0.0427881
-0.239319
0.196531
0.463171
-0.668704
0.205534
-0.634662
0.273035
0.361627
0.0511422
-0.00122873
0.166843
0.166275
-0.333118
0.179036
0.031587
0.613598
-0.175366
-0.438232
-0.089311
-0.275899
0.36521
0.215919
-0.173131
0.0115507
0.103057
-0.0912411
0.098392
-0.00715096
-0.77916
0.367186
0.411974
-0.0836088
0.0951595
-0.0652141
-0.0429658
-0.337788
-0.148588
0.486375
0.0403959
-0.537063
0.496667
0.461803
-0.66438
0.202577
-0.43886
0.336861
0.101999
0.0562019
0.0814001
-0.0068693
0.0456455
-0.0387762
0.066271
-0.254913
0.489985
-0.618567
0.128583
-0.41518
0.569533
-0.302887
-0.266646
0.00864584
0.0595012
-0.068147
0.46122
0.138106
0.0739074
-0.283601
0.209694
-0.302557
0.166598
-0.0123311
0.681525
0.0174556
0.0742105
-0.0916661
-0.135146
-0.381949
0.517095
0.075753
-0.553203
0.490352
-0.082725
0.669878
-0.208658
0.082211
0.354173
-0.436384
-0.00770312
0.0513645
-0.0436614
0.0844968
0.0354756
-0.119972
-0.0505162
0.0436469
-0.466114
0.128326
0.0688965
-0.125915
-0.711515
0.507936
0.203579
-0.00526139
-0.0434757
0.0487371
-0.597759
0.0379383
0.55982
-0.406779
0.447175
0.217928
0.302558
-0.520486
-0.597759
-0.37277
0.283459
0.0950245
-0.0200511
-0.0749734
-0.118702
0.546939
-0.428237
-0.0797429
0.0883888
0.0210752
0.102181
0.616281
-0.505653
-0.110628
0.115873
-0.146804
0.0309308
-0.000246707
-0.00660825
0.00685496
0.42305
-0.256205
-0.166845
0.00273066
0.0783207
-0.0810514
0.215662
0.353871
-0.521679
0.660686
-0.139007
0.509913
-0.291985
0.00301351
0.0257649
-0.0287784
-0.489312
0.297301
0.192011
0.0392271
0.0119151
-0.4841
-0.108074
0.592173
-0.329557
-0.255705
0.585261
0.0590472
0.0219207
-0.0809679
0.0494711
-0.010244
0.0650882
-0.243641
0.178553
0.115733
-0.101569
-0.0141648
0.573524
-0.167731
-0.316236
-0.173077
-0.48056
0.155616
0.324944
0.0717588
0.1
-0.171759
-0.0118139
0.0793261
-0.0675122
-0.0149748
-0.112526
0.127501
-0.221914
0.166023
0.0558919
0.128587
-0.0329877
0.337
0.422784
0.609668
0.00661368
0.0142744
0.121961
-0.136235
-0.0600433
-0.141738
0.184185
-0.042447
0.267286
-0.193378
0.205997
-0.134239
0.578844
-0.115673
0.277542
0.117841
0.353784
0.136568
0.00311509
0.0369528
-0.0400679
0.0213543
0.323188
-0.344542
-0.275589
-0.360212
0.635801
-0.390104
0.411459
-0.329982
-0.274675
0.604657
0.237768
0.0815916
-0.31936
0.110285
0.00880895
-0.0689023
0.0802889
-0.0113866
0.520864
-0.484932
-0.0359323
-0.163196
-0.0322054
0.195401
-0.254941
-0.331242
0.586184
-0.0859024
-0.12222
0.208122
-0.0250831
-0.125409
0.150492
0.0430129
0.0288987
-0.0719116
-0.0332795
-0.312505
0.345785
0.169548
-0.0292743
0.095961
0.0197724
0.108377
0.040501
0.0317127
-0.00637585
-0.0253369
0.43809
0.175508
-0.359216
0.325937
-0.0756717
-0.0236944
0.0993661
-0.0278777
-5.52829e-05
0.027933
0.136842
-0.028465
-0.0756617
-0.146253
-0.113305
-0.0469139
0.160219
-0.0296117
0.00173401
0.0478304
-0.213051
0.165221
-0.0926649
-0.402126
0.494791
-0.512176
-0.199339
0.0519569
-0.0470255
-0.00493137
0.0717323
-0.00971465
-0.0620176
-0.48774
0.328804
0.158936
0.0483557
-0.0692367
0.0208809
-0.0512344
0.0435313
-0.0896501
-0.000560557
0.0902107
-0.134849
0.232877
-0.0980276
0.382951
-0.105409
-0.185543
-0.302197
0.076336
-0.0887181
0.0123821
-0.0645796
-0.043825
0.108405
0.0463528
-0.152655
0.0343648
-0.00169364
-0.0326711
0.327341
0.222651
-0.63678
0.132472
0.504307
0.0497217
0.34101
-0.390731
-0.224103
0.0892535
-0.479008
0.499359
-0.0203507
-0.147369
0.120095
0.0945158
0.143528
-0.0276551
-0.00515594
0.0696306
-0.129377
-0.0940453
0.421938
-0.544352
0.122415
-0.0230819
0.0260954
-0.044265
-0.0508239
-0.0725499
0.0802478
-0.00769794
0.0871212
-0.0107852
0.594385
-0.207141
-0.387244
0.317944
-0.080176
-0.257505
0.637689
-0.380184
-0.55253
0.039004
0.513526
-0.622649
0.0826223
0.17396
-0.0286309
-0.145329
-0.215369
0.085992
-0.0524429
0.445522
-0.393079
0.43469
-0.487133
0.194658
0.228392
0.151395
-0.472167
0.320772
-0.67324
0.472671
0.200569
-0.131524
0.107741
0.141774
0.075993
-0.217767
0.508862
-0.181521
-0.757171
0.29554
0.461631
-0.645267
0.480302
0.164965
-0.0187249
0.103222
0.30777
0.122262
-0.430032
-0.499767
0.381065
-0.148804
-0.403726
-0.00604496
0.0777773
-0.0756779
-0.0756603
0.744731
-0.326248
-0.418484
0.389055
-0.505236
0.11618
0.550109
-0.534719
-0.0153895
0.00887962
-0.174231
0.428337
0.185747
-0.614084
0.155884
-0.639984
-0.0823292
0.33869
0.406041
0.0380475
-0.0497214
0.0116739
0.00965588
0.0220568
0.410653
-0.310731
-0.099922
-0.480733
0.620724
-0.139991
-0.0577247
-0.365238
0.422963
-0.028481
0.0286428
-0.000161838
0.6418
-0.487943
-0.153857
0.00754814
-0.080098
0.362288
0.146574
-0.226122
0.326099
-0.0999771
0.506902
0.0432062
-0.427652
0.136021
0.291631
-0.541531
0.675956
-0.134426
-0.130079
0.0332076
0.0968713
0.564946
-0.508024
-0.0569218
0.0436157
-0.077342
0.485422
0.0358459
-0.521268
-0.000720227
0.17468
-0.239684
0.0578509
0.181833
0.597711
-0.558707
-0.147093
0.454863
-0.0880918
-0.00314932
0.0392425
0.558468
0.00400904
0.0303557
-0.0672284
0.234072
0.0666575
-0.0720365
0.00537897
0.186903
0.514451
0.0779079
0.0918901
-0.169798
0.118311
-0.0523858
-0.065925
0.512201
-0.123146
-0.305919
-0.339348
0.0231747
0.0964056
0.122739
0.287914
-0.118963
0.0371304
0.0818323
0.108782
-0.0733066
0.578362
-0.445669
-0.132693
0.298693
-0.21771
-0.0809834
0.131769
-0.219431
0.0876617
-0.0349866
0.0833423
0.0137778
-0.155516
0.00569219
0.10027
0.0818367
-0.0848143
-0.0938832
0.00423308
-0.264898
-0.113739
-0.0184862
0.132225
0.114503
-0.129478
-0.151242
0.0463206
0.0905979
-0.380801
0.290203
-0.0629208
-0.430128
0.493049
-0.0269949
0.443535
-0.41654
-0.142947
-0.458977
0.396057
0.41262
-0.241703
-0.170917
0.418527
0.0948268
0.0198736
-0.1147
-0.277595
-0.166527
-0.0976542
0.264181
0.165277
-0.254932
0.0896552
0.597907
-0.558664
-0.26373
0.383961
-0.120232
-0.475522
0.382857
0.0468626
-0.00881514
-0.107964
-0.197253
0.305217
0.105591
0.014301
-0.119892
0.63221
-0.125308
-0.123733
-0.0113009
0.135034
-0.138054
0.025528
-0.0873295
-0.0357146
0.0342786
0.563628
0.5656
-0.0756155
0.261452
-0.175511
-0.0859409
-0.317275
0.143887
0.173389
-0.0265012
0.0315134
-0.0050122
0.177343
0.147646
0.0889221
-0.107647
-0.0522897
-0.178666
0.230956
-0.145089
-0.478804
0.282389
-0.0602146
-0.222174
0.130631
-0.0744296
-0.25266
0.0861331
0.190501
0.479376
-0.0437726
-0.00746174
0.105344
-0.174039
0.0686951
-0.197504
-0.119771
-0.0535459
0.140971
-0.0663425
-0.0242347
0.0905773
-0.010327
-0.152869
-0.538068
-0.00964776
0.547715
-0.0742238
0.0053215
-0.111019
0.00945031
0.247978
0.164641
-0.073179
0.0663685
0.00681048
0.17269
-0.268271
0.0955815
-0.0275324
-0.000948546
0.12103
-0.107332
-0.0136982
0.143025
0.489185
-0.113326
0.286016
-0.433454
0.550602
-0.117149
-0.143064
0.622997
-0.0580315
-0.05718
0.115211
0.334099
0.114252
-0.448351
0.100566
-0.0410772
-0.0798548
-0.410314
0.0522789
0.391256
0.318503
0.0231913
-0.341694
0.0412074
0.00443803
0.166146
-0.0608025
-0.336261
-0.0667021
0.402963
-0.610577
0.357502
-0.384891
0.121161
-0.0612798
-0.00826022
0.0695401
-0.482739
-0.307893
0.0596087
-0.395869
0.573902
-0.539623
0.00863291
0.107502
0.239166
-0.346668
0.548608
-0.0868057
0.1486
0.112985
-0.261585
0.033673
0.540229
0.0919526
0.501107
-0.59306
0.236895
-0.0348254
-0.202069
-0.062983
0.459909
-0.396926
-0.604418
0.471137
0.13328
-0.463933
0.40095
0.57805
-0.57805
-0.0171474
0.314448
0.101659
0.00393223
-0.137715
0.0841692
-0.00446375
0.176881
-0.172417
0.133123
0.150436
-0.0571652
-0.0781603
0.135325
0.41631
0.205732
-0.622043
-0.697653
0.520554
0.177099
-0.192249
0.253974
-0.0617246
-0.307983
-0.119669
0.122328
-0.555781
0.0533315
0.0773
0.293017
-0.424269
0.131252
0.0452713
-0.0505327
-0.678733
0.352485
0.202821
-0.0710519
-0.082474
-0.0344676
0.116942
-0.423243
-0.0283365
0.00183532
0.265869
-0.220321
-0.0455487
0.191542
0.126402
0.479395
0.00602773
-0.0803598
0.195593
-0.0971493
-0.0984433
0.0424837
-0.0328279
-0.02524
0.128995
-0.103755
0.104824
-0.404328
0.299504
-0.515726
0.342958
0.172768
0.414095
-0.278075
0.453151
-0.617782
0.164631
0.459442
-0.623499
0.164057
0.0404941
-0.232743
0.436067
-0.284672
-0.193365
0.265801
-0.0724359
0.546701
0.143358
-0.441399
0.133416
-0.0679824
0.0707131
-0.0479906
0.0511057
0.0951962
-0.000171655
0.525784
0.124184
-0.649968
-0.0953875
-0.000349305
-0.131746
0.248689
-0.387364
0.138675
0.605534
-0.571861
0.329725
-0.0331574
-0.296568
-0.268618
0.00967971
-0.232052
0.108393
0.123659
-0.373834
-0.145765
0.519599
-0.0648952
-0.080064
0.144959
-0.309427
-0.325235
0.53333
-0.104993
-0.267946
0.0321782
-0.225543
-0.300989
-0.420961
0.0557038
-0.163964
0.108261
-0.244202
0.24935
0.1336
0.259246
-0.309049
-0.0826675
-0.138029
0.220697
-0.436778
0.308566
0.128212
0.0246529
0.580881
-0.337175
0.428985
-0.091809
0.0495908
-0.222855
0.173265
0.430456
-0.0963562
-0.0948768
0.166031
-0.071154
0.655538
-0.382954
-0.272584
-0.0732514
-0.0568276
-0.408191
-0.270542
0.402266
-0.083763
-0.598501
0.569892
0.0286087
0.371934
-0.264432
0.546728
-0.551238
-0.166575
0.108544
0.00814893
-0.0801268
0.0719778
0.371171
0.284367
0.338964
0.149001
-0.487965
0.0470406
-0.00253926
0.639248
-0.492159
-0.147089
-0.422382
-0.214397
-0.376529
0.532938
-0.156409
-0.630936
0.630936
-0.0903867
0.0951803
-0.00479358
0.100192
-0.47672
0.083717
0.256849
-0.340566
-0.186421
-0.00483272
0.161738
-0.156905
0.277052
0.0229976
0.00599535
-0.114563
0.136018
-0.0214543
-0.0721496
0.0635
0.00864957
0.54836
-0.13205
0.443324
-0.150308
0.0813478
-0.138513
-0.601404
0.0740082
0.115486
-0.603429
-0.0857551
-0.17599
0.225581
0.132976
-0.0772719
-0.0734524
0.439671
-0.366218
0.261454
-0.454307
0.192853
-0.533042
0.00848064
0.0340031
-0.421623
0.124485
0.297138
0.000238251
-0.0723878
0.279457
-0.0879151
0.120104
-0.0829737
-0.574357
0.433675
0.140681
-0.0435405
-0.00574774
0.0492882
0.462365
-0.200911
0.0359861
0.00818425
0.132448
-0.550306
0.0937057
-0.0425778
0.396079
-0.468945
-0.0372008
0.106097
0.510054
0.01081
0.217625
0.123964
-0.341589
0.061466
0.0322396
0.0863955
-0.0493684
-0.037027
0.023103
0.368959
-0.442411
0.217223
-0.221687
-0.0878442
0.234365
0.0236009
-0.257966
0.210537
-0.162706
0.213096
0.069293
-0.0551656
-0.131316
0.380667
-0.0909472
-0.401778
0.596878
-0.1951
0.0939291
-0.119169
-0.543114
0.0214346
-0.466613
0.331466
0.0475533
-0.125714
0.377548
-0.293831
-0.0807045
-0.0418796
0.122584
-0.444071
-0.126979
0.57105
-0.564242
0.371766
0.192476
-0.0402563
0.0481783
-0.00792197
-0.418481
-0.298884
0.0727526
-0.23195
0.159197
-0.119681
0.133956
-0.626115
0.204496
0.421619
-0.270262
0.361219
-0.0909573
-0.346811
0.379914
-0.0331029
-0.0751282
0.475541
-0.400413
0.452679
-0.599853
0.147174
-0.493178
0.41805
0.153481
0.260614
0.0879041
-0.438724
0.35082
-0.0184632
0.255358
0.233868
0.00424391
-0.238112
-0.167071
-0.288742
0.455813
0.342035
-0.12441
0.386091
-0.155467
-0.230625
-0.133144
-0.0847262
0.21787
-0.0656407
0.402502
0.000188802
-0.0614686
0.336037
-0.460346
0.124309
-0.0763854
0.60217
-0.380645
0.264488
0.116156
-0.403847
-0.105574
0.509421
0.61154
-0.587279
-0.0242606
-0.534961
0.280019
0.0184792
-0.0941509
0.237983
-0.165785
-0.0721979
0.0333569
0.0849538
-0.60963
0.0715619
-0.353255
0.441159
0.565545
-0.112866
-0.0540129
-0.185671
0.25325
-0.194111
-0.059139
0.0466479
-0.467872
0.421224
-0.0829681
0.0711542
0.351471
-0.207584
-0.6018
0.463327
0.138474
-0.00391662
0.0296815
0.234702
-0.564259
-0.417285
0.260471
-0.373802
0.113331
-0.103513
-0.02022
-0.122715
0.458752
-0.219172
0.136504
-0.158803
0.093908
0.0759011
-0.00924358
0.107427
-0.214917
0.10749
-0.0058181
-0.00785866
0.162999
-0.15514
0.095684
0.190507
-0.286191
-0.19787
0.0425822
0.155288
0.175302
0.337975
0.0896932
0.105899
-0.170888
-0.391345
0.499041
-0.160078
0.0721948
0.00713132
-0.0039725
-0.0523191
0.0562916
0.101377
-0.0775578
-0.0238194
0.076579
0.0423377
0.0440578
0.549083
-0.322827
-0.226256
-0.0262238
0.0286942
-0.0326108
-0.126409
0.259532
-0.009961
-0.0620755
-0.168996
-0.028874
0.187742
-0.302935
0.115193
0.0187869
0.441122
0.590436
-0.137284
0.440967
0.135987
-0.576954
0.0216527
-0.115863
0.09421
-0.0499899
0.26311
-0.21312
0.0198471
-0.0955251
0.676107
-0.51054
-0.165567
-0.408572
0.129362
0.27921
-0.229463
-0.0118531
0.180789
0.0850804
-0.325641
-0.262098
0.587739
-0.167352
-0.0606405
0.227993
0.278224
0.05827
-0.336494
0.243421
0.305661
0.532524
0.0144153
0.0505301
-0.0682905
0.0177605
0.19382
-0.519461
-0.0602262
0.294094
0.162334
-0.494168
0.331834
-0.44019
0.131278
0.220193
0.375547
-0.0750503
-0.300497
0.12984
0.0902363
-0.220076
-0.0219102
-0.00374952
0.0256597
0.0771404
-0.115933
0.0387929
0.0404434
0.00310249
-0.0435458
-0.068792
-0.0368471
0.105639
0.447052
0.118493
0.345916
-0.0854451
0.304392
0.0805813
-0.384973
0.219307
-0.269297
-0.542306
0.138459
0.341576
0.0339709
0.212662
0.448025
-0.142359
-0.391161
0.300277
0.0655574
-0.054687
-0.0108704
-0.00391728
-0.0192695
0.0231868
-0.0221433
-0.00746844
-0.636844
0.478891
0.157952
-0.274081
0.0178766
-0.0855295
0.458297
0.145185
-0.603482
-0.152237
0.127154
0.594792
-0.14774
-0.141142
-0.0389945
0.180136
0.158762
0.079221
0.0955356
-0.137609
0.0420735
-0.634992
0.175755
0.459237
0.123598
-0.61157
-0.416631
-0.218362
0.038473
0.059919
0.237195
0.0125676
-0.249762
0.154167
0.097635
-0.251802
0.458883
0.0551357
-0.514019
0.294427
-0.106684
0.112805
-0.0929574
-0.15581
0.596777
0.0427523
-0.123457
-0.200471
-0.236307
0.613855
0.060551
0.0090547
-0.0696057
0.0494834
0.0470012
-0.0964845
-0.00671976
0.0519911
-0.105993
-0.498008
0.116058
0.0934305
-0.66664
0.175589
0.491051
-0.0467702
0.183831
-0.137061
-0.067374
0.232651
-0.13231
0.298585
-0.284087
0.225271
-0.322528
0.0972574
0.214777
0.038473
-0.592103
0.552716
0.0393868
0.14932
-0.482942
0.333622
-0.0888238
0.0224812
0.0325642
0.442977
0.385663
0.208722
-0.153588
0.524164
-0.370576
-0.124615
0.278782
0.00961974
-0.0012967
-0.197931
-0.135187
0.0771915
0.00992969
0.453694
-0.648882
0.195188
0.0740071
0.104894
0.463905
-0.615516
0.151611
-0.513682
0.360094
0.630932
-0.177239
0.0156717
0.0539903
-0.202804
0.125689
0.0771144
-0.0750864
0.312281
-0.403878
-0.309833
0.00905162
0.408456
-0.417508
-0.0278627
0.12269
0.065988
-0.23334
-0.0301959
0.273616
-0.24342
-0.0103974
0.159228
0.139465
-0.576743
0.24676
0.544265
-0.000617758
-0.113946
-0.402113
-0.279559
0.249363
-0.0167354
0.0672655
-0.0467052
0.0961885
-0.435307
-0.00268079
-0.200445
0.250012
-0.0495673
-0.0151767
-0.0976688
0.175577
-0.121065
0.397336
-0.276271
-0.0703279
0.0784768
0.0284173
-0.00312805
-0.0252893
-0.0842695
0.0642183
0.286947
-0.607697
0.32075
0.500741
-0.0154506
0.0319027
-0.016452
0.301328
-0.102787
-0.198541
0.0804561
-0.117303
0.336711
-0.243539
-0.0931719
-0.223516
0.0920558
0.131461
0.370668
-0.194793
-0.175875
0.493707
-0.187539
-0.306167
-0.369972
0.384969
-0.0149965
0.243158
-0.194299
-0.0488586
0.310675
-0.0854043
0.00912961
0.0820572
-0.0911868
0.378342
-0.637973
0.459696
0.178278
-0.298304
0.644009
-0.345706
-0.0122173
0.0894088
-0.067783
-0.164269
0.179804
-0.232094
-0.345662
-0.272906
-0.313444
-0.35526
0.187979
0.00719533
-0.623798
-0.0962908
-0.0657784
0.162069
-0.0221817
0.117717
0.165259
-0.463562
0.114454
-0.0373134
0.578753
-0.540814
-0.143205
0.0305291
-0.155939
0.198359
0.440889
0.420071
-0.176371
-0.2437
-0.255605
-0.381239
0.0978445
-0.087045
-0.0107995
0.183377
-0.631751
0.448374
0.210485
-0.201782
-0.0087031
0.284177
-0.188493
0.176723
0.0847284
-0.177037
0.274672
0.195728
-0.409474
0.213746
0.0657462
-0.138822
-0.11611
0.0827197
-0.0214196
-0.0613001
-0.15606
0.252032
-0.0959718
0.475635
0.00196512
0.0624265
0.0300498
-0.0310322
0.000982494
-0.153267
-0.238683
0.39195
-0.468281
0.131884
-0.564618
0.432735
-0.0274647
0.0235474
-0.0952632
0.115137
0.274978
-0.116216
0.182836
0.291762
-0.474598
-0.228541
0.190367
0.088553
-0.27892
0.0189053
-0.160047
0.0262285
0.00218886
-0.603547
0.495474
-0.365931
0.244866
0.00660632
0.0698562
-0.534603
0.435187
-0.1619
0.261243
-0.0993429
-0.0705058
-0.303824
0.101071
0.202754
0.458486
-0.27565
0.303078
-0.470149
-0.00401333
0.0467929
-0.0427796
0.358798
0.158297
0.0864655
-0.121227
0.014957
0.10627
0.362543
0.136499
-0.516453
0.608405
0.0997326
-0.140013
-0.40434
-0.748245
0.293102
0.455143
-0.0823853
0.193088
-0.110703
0.00959985
-0.0969293
-0.113111
-0.625338
0.202611
0.422727
0.354024
-0.304302
-0.0861074
-0.137409
0.202257
-0.310221
-0.000566901
0.0306167
0.0463202
0.53173
-0.313775
-0.431003
-0.198759
0.629763
-0.0512583
0.449725
-0.59328
0.143555
-0.0694096
-0.440089
-0.308156
0.0813159
-0.0638603
0.00505916
-0.102208
-0.6442
0.195591
0.448609
-0.159205
0.0643282
-0.0164518
0.0906623
0.338911
-0.271583
-0.0673283
0.0850877
-0.0160085
0.0653321
-0.0493236
-0.0752963
-0.0101825
0.0854788
0.111649
-0.0899959
0.109182
0.0118486
0.0209227
0.0105907
-0.133008
0.223244
0.0923606
0.106205
0.0598256
-0.00347846
-0.0184317
0.47544
-0.157235
-0.318205
-0.0115541
0.0485069
0.199164
0.0439939
-0.0931535
0.28352
0.284506
-0.107626
-0.10242
0.0988044
-0.389407
0.290603
0.124831
-0.0144155
-0.110415
-0.0139532
0.20902
-0.195067
0.597783
-0.139485
0.274117
0.111974
-0.124671
0.187962
-0.0632905
-0.122089
0.0782641
-0.127279
0.0448053
0.153982
-0.524547
0.370564
0.369266
-0.656546
0.28728
-0.422561
0.575995
-0.153435
0.287978
0.132093
0.131834
-0.505668
0.242663
0.128993
-0.136852
-0.417425
0.046408
0.192417
-0.238825
0.133154
-0.128095
-0.407534
0.602762
-0.195227
0.052217
-0.252662
-0.084355
-0.424835
0.544067
-0.119233
-0.215163
-0.383338
0.295488
-0.146888
0.00589796
-9.64273e-05
-0.00580154
0.606811
-0.143485
-0.0384224
-0.0425455
0.35698
-0.564121
-0.379647
0.291276
0.0883712
-0.569577
0.0634608
0.506116
0.455569
-0.0967707
0.0697014
-0.0939361
0.127048
-0.012545
-0.196895
0.11451
0.193241
-0.318537
0.125295
-0.127545
0.52528
-0.397735
0.266239
-0.265142
-0.588248
0.180713
0.166487
0.11802
-0.256517
-0.376372
0.00307146
-0.0575821
0.516465
0.239855
0.0990564
0.234713
0.135955
0.225186
-0.239139
-0.606247
0.461745
0.144502
-0.0676627
0.0977397
-0.0300769
-0.167282
-0.143548
-0.372179
0.505307
-0.330005
0.12201
0.010239
0.367006
-0.102518
-0.651399
0.327925
-0.110773
0.359462
-0.155922
0.0708104
0.0851118
0.14534
-0.180166
0.000893602
0.0804223
0.235223
-0.277868
0.0426452
-0.515626
0.209707
-0.470077
0.313113
0.156964
-0.00989428
0.00237472
0.00751957
0.295485
-0.111228
-0.184257
0.0988289
0.089268
-0.188097
-0.0329466
-0.0829161
0.0540846
-0.0685469
0.0144623
-0.0121888
-0.0540691
0.066258
-0.0990219
-0.0241788
0.123201
0.144459
0.330981
0.0803703
-0.178039
0.0452467
-0.00480335
0.154317
-0.0323565
-0.108976
-0.105137
-0.0277564
0.00561307
0.301867
0.0269373
-0.0228756
-0.188026
0.0975544
0.0976834
-0.285515
0.187832
0.205952
-0.0630012
-0.142951
0.587154
-0.227384
-0.35977
0.224924
-0.356726
-0.0720742
0.288367
-0.397298
0.108931
0.28252
0.0792064
-0.361727
0.417701
-0.129722
0.0358725
-0.0455871
0.44447
0.10389
0.472183
-0.0329814
-0.439202
0.00463776
0.0198681
0.00421506
-0.0240831
0.193653
0.43728
-0.252545
0.400894
-0.148349
0.51437
-0.0293138
-0.485056
0.293351
-0.255685
-0.0376655
-0.00831187
0.0501979
-0.041886
-0.0770683
-0.154881
-0.166998
0.0230096
0.218128
-0.241138
-0.477897
-0.166303
-0.622653
0.220875
0.190492
-0.186249
-0.249834
0.0711674
0.225406
-0.0684081
-0.591301
0.446312
0.144989
0.476976
-0.037305
0.0755477
-0.34581
0.0695264
0.226825
-0.296351
0.140483
-0.560104
0.419621
-0.0758829
-0.0103333
0.0862162
0.402059
-0.297332
-0.104727
0.302508
-0.109267
-0.119161
-0.29528
0.414441
0.015425
0.0824196
-0.159649
0.225637
0.602403
-0.180708
-0.421695
-0.465504
0.138135
0.163193
0.205129
-0.462634
0.116119
-0.326699
0.210579
0.103287
-0.216794
0.113507
0.101854
0.370329
-0.0838341
0.00853776
-0.530006
0.105171
-0.131839
0.595744
-0.433688
0.574171
0.625522
-0.124415
0.402402
-0.507977
0.119397
-0.0983215
0.129009
-0.00268533
-0.126324
0.0294071
-0.0271221
-0.00228499
-0.222085
0.0890765
-0.143179
0.144861
-0.0635131
-0.469026
0.292634
-0.267335
0.08285
0.184485
-0.0792349
0.154895
-0.0756605
-0.169051
-0.134774
-0.0816587
0.0292729
-0.114692
-0.0289786
0.143671
-0.164799
0.451746
-0.0942816
0.353527
0.120747
0.428891
-0.549638
-0.107982
0.0820227
0.0259592
0.208524
-0.361791
-0.43616
-0.0643204
0.115512
0.401968
-0.51748
0.00187465
0.125864
-0.554964
0.4291
-0.437116
0.0405549
0.590381
0.631339
-0.235083
-0.396256
0.0447477
-0.0504954
0.105255
-0.265053
-0.269666
0.0444022
-0.112065
0.096976
-0.521312
0.424336
0.200874
0.430465
-0.404321
-0.113851
0.518171
-0.43424
-0.526794
0.368829
0.157965
0.0241897
-0.201227
0.0172234
-0.364035
0.129866
0.272194
-0.0667586
0.057386
0.0439912
-0.282066
0.17319
-0.0242336
-0.510369
0.49181
-0.34249
-0.210832
-0.077384
0.288216
-0.256717
0.399501
-0.142784
0.00174093
0.121379
-0.12312
0.173623
-0.215656
0.286067
-0.0704111
0.154457
0.0297275
-0.374499
0.115931
0.258568
0.390752
-0.511998
0.121245
-0.570923
0.205765
0.365158
0.510616
-0.119864
0.607829
-0.450021
-0.157809
-0.292357
-0.1323
0.0978321
-0.0292083
0.000871792
0.400619
0.21965
-0.482402
0.612543
-0.0174998
-0.595043
-0.590381
0.2855
0.106477
-0.391976
0.577689
-0.422178
-0.155511
-0.19125
0.0811065
-0.0343906
-0.0467159
-0.12607
0.0929392
0.0331305
-0.391901
-0.17234
0.025327
0.539619
0.474793
0.000777851
-0.0888696
0.0962272
-0.0204245
-0.0758027
0.0153551
0.109476
-0.204873
-0.400148
0.51566
0.188083
-0.320393
0.140775
0.436914
-0.268238
0.291795
-0.0235564
-0.0134386
0.450272
0.16227
0.151849
0.0541029
-0.117349
0.106048
0.013149
0.105352
-0.118501
-0.0440262
-0.00648998
0.274529
-0.0401633
0.2421
-0.260563
0.54722
-0.508682
-0.0385385
0.14698
-0.151813
-0.217841
-0.127917
0.345758
0.0889025
-0.187346
0.00918224
-0.228695
-0.342228
0.0809626
0.0227351
-0.103698
-0.283373
0.187344
-0.462933
-0.0823168
-0.025665
0.0550342
0.0260723
-0.445813
0.593966
-0.148153
-0.0910694
0.195223
-0.104153
-0.0927172
0.454344
-0.0896823
-0.0662399
0.594957
-0.462509
0.149976
-0.174643
0.0246667
-0.450623
-0.164892
0.23524
-0.0852641
0.150094
-0.433113
0.283019
0.132265
-0.0106518
0.0712028
-0.120242
-0.0414278
0.16167
-0.368403
-0.117522
0.485925
0.583092
-0.102791
-0.242167
0.311693
0.0452793
-0.0367987
0.202399
-0.0767098
-0.196822
0.154419
0.0424027
-0.0180747
-0.100421
0.0799965
0.0295652
-0.00307452
-0.117168
-0.0718469
-0.0134268
0.0852737
-0.567113
0.157461
0.409652
-0.34854
-0.108511
0.457051
-0.042412
-0.332782
-0.211331
-0.0563836
0.267715
0.318376
-0.425222
0.559501
-0.134279
0.499169
-0.0546987
-0.219787
0.242796
-0.00191419
0.0308719
-0.0289578
0.0502942
-0.0135847
-0.0367094
-0.0648247
-0.0348431
0.0871435
0.223532
0.124729
0.416739
-0.541468
0.0199006
0.225647
-0.102059
-0.123588
0.0832971
-0.221326
-0.220247
0.304023
0.113678
-0.217243
0.159715
0.0575276
0.0633558
-0.170142
0.106787
0.0149392
-0.117745
0.102806
-0.263982
-0.0565131
0.320495
-0.117361
0.0646497
0.0180699
0.131339
-0.134414
0.0473595
-0.276126
0.228767
-0.0431388
0.285239
-0.179017
-0.208347
0.425693
-0.292082
-0.133611
0.178775
-0.120924
-0.0971273
0.159869
0.47782
-0.205528
0.085738
0.11979
-0.161386
0.0717032
0.230907
0.108172
-0.431685
-0.448835
0.59934
-0.150505
0.0947843
0.0528094
-0.0497069
0.2525
-0.0620077
-0.310825
0.422565
-0.111739
-0.00791777
-0.543094
0.551012
-0.025364
-0.344608
-0.499197
-0.0287468
0.527944
0.00295923
0.116438
-0.0270164
-0.0753762
-0.193695
0.269071
0.326042
-0.0861874
0.411468
-0.157128
-0.25434
-0.0674564
-0.415712
-0.0782968
0.0874264
-0.118556
0.231541
0.191793
-0.0855879
-0.123029
0.196869
0.087194
-0.0715187
-0.0156752
0.0871298
0.168361
-0.094354
-0.123347
0.230774
-0.260832
-0.113667
0.131416
-0.0383391
-0.0877306
0.435596
0.171322
-0.606918
0.0334191
-0.493777
0.460358
0.48232
-0.119778
0.551653
-0.561301
-0.575664
0.0976787
-0.11538
0.586517
-0.0584102
0.0544377
0.451326
-0.603591
0.152265
0.123588
0.437683
-0.561271
-0.0133959
0.0674805
-0.128835
-0.441039
0.569874
0.134324
0.277143
0.0485161
-0.0552359
0.00134489
-0.198849
-0.410234
0.61473
-0.43861
0.291517
0.0643813
0.14351
0.371629
-0.515139
0.636237
-0.0712385
0.0836206
-0.441809
0.565397
-0.112997
0.446506
0.104097
-0.000274545
0.182611
-0.10224
0.225572
-0.0901395
-0.135433
0.4209
0.150596
-0.571496
0.174732
-0.0129938
-0.461381
0.614426
-0.153046
0.505984
-0.385238
0.0315575
-0.0296595
-0.001898
0.579869
-0.158969
0.159432
0.554254
-0.107749
-0.166376
0.433058
-0.266681
0.109892
0.247741
-0.357633
0.276587
-0.51265
0.236064
-0.523403
0.221985
0.301418
0.125564
-0.569635
-0.0210938
0.375118
0.501365
-0.219185
-0.28218
-0.0501466
0.0596279
-0.00948129
-0.650851
0.263933
0.386918
0.600681
-0.422557
-0.178125
-0.445485
-0.109489
0.554974
-0.254838
0.304767
-0.0499285
0.122911
-0.0299715
0.436203
0.0771821
-0.513385
0.063416
0.352319
-0.208774
0.566441
-0.357666
0.00436489
-0.172525
0.243682
-0.0711567
0.431278
-0.560113
-0.22318
0.419061
-0.484356
0.0652946
0.0346817
-0.0341346
-0.000547055
-0.145013
-0.108321
-0.106596
0.0288769
0.129219
-0.158096
0.0259221
-0.140615
0.52659
-0.429614
-0.392506
0.508682
-0.116176
0.448703
0.151979
-0.420176
0.288377
0.131799
-0.346683
-0.0939194
0.440603
-0.227023
-0.12482
-0.444684
0.569504
0.0866268
-0.128055
-0.515372
0.111052
-0.157071
-0.0601716
0.136156
-0.134085
-0.311233
0.445319
-0.154902
0.481034
-0.326132
-0.253122
0.382484
0.35455
-0.587983
0.212909
0.375073
-0.522192
0.394647
0.052685
-0.00793739
-0.344171
0.254317
0.0898537
-0.0173646
-0.0930244
0.110389
0.63604
0.0444761
-0.523376
0.515459
0.0780388
-0.0944905
-0.575046
0.450226
0.0849601
-0.431644
0.405788
-0.114512
0.0639785
-0.0372369
-0.0267415
0.490658
-0.0138591
0.0808317
-0.0669726
-0.574431
0.345736
-0.329547
-0.253375
-0.0335575
0.286932
-0.136814
0.568091
-0.42653
0.292445
-0.177352
0.561036
-0.383684
-0.0131343
0.111171
-0.0980368
0.519252
0.361762
-0.492225
0.130464
-0.242978
0.251243
-0.00826458
-0.275882
-0.0780357
0.237751
0.0797917
-0.0395796
0.0358301
-0.0745358
-0.0712806
0.0590918
0.0385126
0.0689406
0.206182
-0.275122
0.00326108
-0.0477794
0.0445183
0.362005
0.11811
-0.47151
0.619702
-0.148192
-0.126525
-0.429098
0.555623
-0.43021
-0.0903801
0.52059
-0.176447
0.0731748
-0.208002
0.0698705
-0.180999
0.237488
-0.056489
-0.358979
-0.156393
-0.607538
0.0953657
0.199061
-0.196147
0.271394
-0.0752471
-0.343859
-0.294115
-0.289824
-0.361027
-0.43604
0.576096
-0.140056
0.437324
0.142545
-0.188001
0.0582727
0.129728
0.148806
-0.507785
-0.00865041
0.0730317
0.429177
-0.565991
0.17969
-0.255067
0.413798
0.194031
0.134973
-0.389057
0.254084
-0.078344
0.177173
-0.135015
0.518606
-0.383591
0.123396
-0.278412
0.35396
0.566771
-0.423402
-0.143369
0.346549
0.0188432
0.25286
-0.0176369
0.0472961
0.255537
-0.302833
0.389391
-0.0961713
0.321095
0.0664028
-0.0951495
0.0287467
0.0138319
-0.603325
0.450172
0.153152
-0.0193855
-0.0888543
0.10824
0.181186
-0.11783
-0.239649
0.0671243
-0.293538
-0.214531
0.267575
-0.0530437
0.289188
0.107182
-0.39637
0.0161172
0.10275
-0.118867
-0.133303
-0.429896
0.563199
0.0224081
0.0836393
-0.106047
0.0745555
-0.0848888
-0.263931
0.0874536
0.176478
-0.478904
0.311906
-0.141798
0.440391
0.12638
-0.513832
0.378816
-0.128434
0.114019
-0.127154
0.129495
-0.554717
-0.721739
0.269875
0.451864
0.422123
-0.418069
0.597948
-0.160625
0.0709986
0.0821765
-0.153175
-0.0213664
-0.100159
0.121525
-0.222471
0.0664109
0.136716
-0.436445
0.299729
-0.42308
-0.00711001
-0.0551348
0.0622448
0.257447
-0.36822
0.00713445
0.0742473
-0.0813818
0.0945769
-0.0248755
0.100447
-0.0229779
0.103941