/*--------------------------------*- C++ -*----------------------------------*\
| =========                 |                                                 |
| \\      /  F ield         | OpenFOAM: The Open Source CFD Toolbox           |
|  \\    /   O peration     | Version:  v2012                                 |
|   \\  /    A nd           | Website:  www.openfoam.com                      |
|    \\/     M anipulation  |                                                 |
\*---------------------------------------------------------------------------*/
FoamFile
{
    version     2.0;
    format      ascii;
    class       volVectorField;
    location    "400";
    object      ddt0(U);
}
// * * * * * * * * * * * * * * * * * * * * * * * * * * * * * * * * * * * * * //

dimensions      [0 1 -2 0 0 0 0];


internalField   nonuniform List<vector> 
13749
(
(-1.70173e-06 -2.12496e-07 -7.65418e-23)
(0.00130932 -0.00209655 3.39418e-22)
(2.87152e-06 1.93784e-06 0)
(1.61115e-05 -2.53311e-05 3.81155e-22)
(6.09276e-07 7.8253e-07 0)
(-0.000258936 0.000120653 -5.96536e-22)
(-0.000599307 0.000804078 6.26142e-22)
(-1.06042e-05 7.56237e-07 0)
(1.28972e-06 1.03058e-06 -3.15243e-24)
(1.3162e-05 -2.62051e-05 -3.78272e-22)
(-0.000868445 -0.000352214 0)
(3.45475e-07 -2.26251e-06 -1.59214e-24)
(1.68211e-05 -9.73604e-05 9.15705e-23)
(0.00922757 -0.000517108 0)
(0.00636841 7.28748e-05 0)
(-1.45932e-05 2.04852e-06 1.64121e-22)
(2.44316e-06 -4.50745e-06 3.70254e-24)
(-0.000288892 0.000691108 0)
(6.61254e-08 -1.2143e-06 2.18067e-23)
(1.74678e-06 5.47371e-07 2.15955e-23)
(0.00346964 0.000588746 9.86873e-22)
(0.0051813 -0.000231915 -1.17807e-22)
(-0.0131912 -0.00800781 3.70184e-23)
(-0.000470843 0.00116819 0)
(1.95225e-06 1.30095e-06 0)
(4.27567e-05 6.47331e-05 -7.5446e-22)
(1.55911e-05 4.81107e-05 -2.72897e-22)
(-3.54997e-05 -4.01973e-05 6.04761e-22)
(-2.01424e-06 -2.41901e-07 1.23889e-22)
(2.4907e-06 -5.99121e-06 4.52377e-24)
(-0.00121854 -0.0080713 -1.13595e-22)
(-0.00394394 -0.000954737 0)
(-1.66335e-07 -4.59158e-05 4.2578e-23)
(-0.000202691 8.54522e-05 -2.70171e-22)
(-1.07544e-06 -9.56775e-07 1.01929e-23)
(-1.93425e-06 -4.4222e-07 0)
(3.5986e-06 2.38842e-06 -1.1641e-22)
(1.76325e-06 -3.08332e-06 -3.1379e-23)
(-1.92957e-06 -5.82804e-06 2.44963e-22)
(-6.99143e-06 -0.00017392 -2.78369e-22)
(-0.00025246 8.78961e-05 7.02774e-22)
(0.000384159 0.000348142 -2.48621e-22)
(1.10517e-05 -1.96511e-05 0)
(3.05062e-05 -6.43355e-06 0)
(-0.000381731 0.000565225 6.44757e-24)
(-2.22421e-05 -7.56639e-06 0)
(2.58669e-07 -2.29793e-06 0)
(0.000467583 0.00011243 -2.61901e-22)
(-3.30129e-06 -3.1649e-06 0)
(-0.0091211 0.00213763 -2.39379e-21)
(-0.000630228 0.00123367 -3.45579e-23)
(0.00337984 0.000773781 -9.11304e-22)
(1.85415e-05 -0.000176352 3.23008e-22)
(-0.00301972 -0.00622477 -3.41867e-22)
(2.84855e-05 4.22312e-05 0)
(-3.15507e-06 -3.42955e-06 -8.46753e-23)
(-2.45937e-05 -0.000107108 8.12553e-25)
(-1.77317e-06 -4.62308e-05 0)
(-1.30185e-06 -1.37603e-06 1.29092e-22)
(0.00133818 4.16092e-05 2.4696e-22)
(3.66056e-07 -1.36111e-06 4.17883e-23)
(-2.80947e-06 -1.11206e-05 0)
(-0.00122562 -0.000856164 0)
(3.41195e-07 -2.03461e-06 4.10896e-24)
(-2.5499e-06 -6.70539e-06 2.28577e-22)
(1.35504e-05 -1.09207e-05 -3.62158e-23)
(1.31633e-06 3.44431e-07 2.57735e-24)
(1.42766e-06 -2.277e-06 0)
(-1.82669e-05 5.99273e-06 -3.54494e-22)
(-2.19281e-05 -3.50643e-06 0)
(-0.00380803 0.00027026 -1.81493e-22)
(-8.88436e-07 -2.76309e-08 6.64864e-23)
(-0.00319786 -0.00152955 8.90845e-23)
(-2.45701e-06 -4.18506e-06 2.11979e-22)
(-0.00286147 0.00568042 4.77641e-23)
(0.00062346 0.000286895 1.8517e-22)
(-1.64306e-05 -4.43637e-06 0)
(-1.34195e-06 -1.46212e-06 0)
(-3.51256e-05 -9.78423e-05 -4.04196e-22)
(9.68776e-08 1.0851e-06 0)
(-1.94077e-06 -4.5851e-07 5.67846e-23)
(7.75152e-07 2.12158e-06 -7.59533e-23)
(-0.000300576 0.00128523 -3.33787e-23)
(-2.01979e-06 1.52146e-08 -8.20652e-23)
(-0.000206725 -0.000175862 2.54285e-22)
(0.000476498 0.000276024 -6.3804e-22)
(-0.00106852 0.000843546 -4.99396e-23)
(-0.000690266 0.0040616 -2.07632e-22)
(-1.27765e-06 -1.02287e-06 -9.41171e-24)
(0.000430562 1.04798e-05 4.59431e-24)
(-8.61383e-07 -5.45555e-07 2.46028e-23)
(-0.00691563 -0.00695939 0)
(-3.18512e-06 -8.30468e-06 0)
(-0.0135379 -0.0101382 0)
(-0.00614393 -0.0284972 0)
(0.000123104 -0.000110363 -2.22394e-22)
(-1.0427e-05 -2.5282e-05 0)
(1.45897e-06 -7.75885e-07 1.21121e-22)
(-8.79955e-07 -8.13218e-08 0)
(1.02391e-05 -1.03598e-05 -5.24108e-23)
(0.00109509 -0.000414702 6.81217e-24)
(-1.78891e-06 -7.0061e-07 0)
(-1.25929e-05 -9.6168e-06 -1.31258e-22)
(0.00479583 -0.000933228 5.41466e-23)
(8.17093e-08 4.35991e-06 4.30912e-23)
(0.00597679 -0.000868589 -4.95193e-23)
(0.000469282 0.000377049 0)
(1.02678e-06 4.30883e-07 -4.0424e-23)
(0.000435777 -5.27433e-05 -3.90027e-24)
(1.1159e-06 -2.25431e-06 -5.99611e-23)
(3.09771e-07 -2.4808e-06 1.65867e-24)
(1.73128e-05 -1.98632e-05 4.813e-23)
(0.000505142 0.000440416 2.0023e-22)
(-0.00961136 -0.0043735 3.61267e-22)
(0.000204218 0.000152632 5.77094e-23)
(-4.60349e-06 -3.3629e-06 -3.85668e-22)
(-1.81544e-06 -6.02477e-07 -1.00049e-22)
(2.47857e-05 3.95785e-05 -1.15709e-22)
(6.31135e-06 2.48002e-06 0)
(-1.65774e-06 -2.57905e-06 -1.10223e-22)
(-1.08147e-05 4.64122e-07 3.24737e-23)
(8.57312e-08 8.06706e-08 -5.28463e-24)
(-1.50115e-06 4.73522e-08 7.06317e-23)
(-1.94e-06 8.34409e-07 -2.80567e-23)
(6.15684e-07 1.62736e-06 -2.54497e-23)
(-0.0044578 0.00016086 2.04022e-22)
(-0.000231422 0.000163349 0)
(-0.00211909 -0.00116176 4.14507e-23)
(1.43468e-05 -1.21055e-05 -9.43908e-23)
(-0.00559085 -0.000404406 -4.01795e-22)
(-4.87254e-06 -3.81113e-05 -5.34987e-22)
(-0.00425116 -0.00595383 1.11838e-22)
(-0.00517534 -0.0004466 -2.11104e-23)
(0.00230892 -0.00159538 1.05413e-22)
(-9.13723e-05 -6.02078e-05 5.90065e-22)
(4.05183e-06 -9.76346e-06 -3.2492e-22)
(-0.00346078 0.00538495 0)
(-3.04187e-06 -1.58367e-06 1.73725e-22)
(-6.89386e-06 -3.83684e-06 1.68386e-24)
(-0.00995214 -0.00168837 0)
(0.000115752 -0.000105261 -3.73332e-22)
(3.42534e-05 -4.98921e-05 -3.26927e-24)
(2.22469e-06 -3.05211e-06 -1.48538e-22)
(0.00253459 0.00109958 -1.02409e-21)
(-1.09742e-06 6.17483e-08 2.9897e-23)
(-0.00951338 -0.00155671 0)
(-3.51891e-05 -6.45748e-05 -3.43729e-22)
(2.33942e-05 0.000161886 -2.84881e-22)
(7.38164e-06 -2.35767e-07 -1.90673e-22)
(0.000448469 -9.64655e-05 -3.18521e-22)
(-1.21357e-06 -1.52814e-07 0)
(-0.00013594 8.48314e-05 0)
(0.00793963 -0.000867601 2.9011e-22)
(-0.00135128 0.00281416 -3.00948e-21)
(-2.30484e-05 3.35933e-06 0)
(0.000382491 0.000890041 0)
(-4.10015e-05 -5.56722e-05 9.7634e-24)
(-1.34827e-05 -0.000136533 0)
(0.00197766 -0.00210309 -3.17883e-22)
(8.31008e-07 -1.07593e-07 8.06298e-24)
(-0.0102058 -0.00380218 1.79571e-22)
(-4.25989e-07 3.20195e-08 -1.75833e-23)
(0.00253611 -0.00155344 -1.97808e-21)
(-1.1024e-05 -5.10439e-05 -5.02747e-23)
(1.23522e-06 -4.37973e-07 3.76766e-24)
(1.00349e-06 -3.62397e-06 -8.67377e-23)
(-0.00286304 0.00292599 -2.08319e-22)
(2.53866e-06 2.96408e-06 0)
(2.823e-06 -6.37316e-06 6.01648e-23)
(2.58987e-05 -0.000103898 2.12406e-22)
(4.72512e-06 -2.73739e-06 0)
(1.47009e-06 -1.75363e-06 0)
(-1.47625e-06 -1.61276e-06 0)
(-3.36768e-05 -6.01726e-05 0)
(7.73019e-06 -4.18422e-06 -3.19803e-23)
(-0.000563184 0.001084 0)
(0.000643439 0.000271883 -2.54309e-22)
(-2.33862e-05 1.73547e-06 1.02534e-22)
(-0.00160409 -0.000563808 -2.16813e-22)
(-0.00526754 -8.68845e-05 -1.96804e-23)
(8.17269e-08 5.36297e-06 -3.89326e-23)
(-0.000179627 9.50806e-05 1.04862e-22)
(4.44842e-07 -2.49763e-05 2.30899e-22)
(0.00477245 -0.00200138 -1.20628e-22)
(-0.00542053 -0.00696448 1.64809e-21)
(1.21823e-05 -1.28931e-06 0)
(0.00307269 0.00125126 1.73192e-21)
(3.2809e-06 -6.48977e-06 -2.26597e-22)
(0.00814188 -0.00651863 2.30245e-21)
(1.82694e-07 -1.58706e-06 -1.75135e-23)
(4.23134e-06 -2.63145e-05 -4.35116e-22)
(-0.0115967 -0.00814711 -4.89742e-22)
(-1.24352e-05 -7.92416e-07 -1.11022e-22)
(-0.000805257 -6.944e-05 9.11078e-22)
(0.00388569 0.000881362 -2.49291e-22)
(0.000571966 0.000173927 7.51796e-22)
(-0.000192082 0.000163687 -2.98591e-22)
(0.00394571 0.00122602 0)
(-1.57494e-06 1.66352e-08 0)
(1.38626e-05 -9.31672e-06 -1.80551e-22)
(-3.08351e-06 4.59487e-07 0)
(-0.000713745 0.000893772 -1.52592e-22)
(-2.6532e-05 -0.000124597 -7.37549e-25)
(6.73342e-06 -1.46097e-05 -3.9191e-24)
(0.00287557 -0.00011759 -1.60021e-22)
(-4.75034e-06 -5.29015e-06 1.346e-22)
(-1.15955e-06 -1.16262e-06 -7.30775e-23)
(-0.000857575 -5.67603e-06 -7.86005e-22)
(-0.00391357 -0.00588897 0)
(-0.000238038 0.000761032 0)
(-4.94932e-06 -3.76505e-06 3.03744e-22)
(-0.000676988 -0.00471217 -6.58081e-23)
(0.000218165 0.000200381 7.3125e-22)
(-0.00330089 -0.00120007 1.02496e-23)
(2.28097e-05 5.88832e-05 2.85874e-22)
(-0.000722132 0.000360187 -6.63709e-22)
(0.00391087 -6.43411e-05 0)
(-0.000396619 -3.93049e-05 0)
(0.00265662 -0.000405344 4.69141e-22)
(-2.06695e-06 -2.70141e-07 0)
(0.00972116 0.00460819 -1.38275e-21)
(-7.27026e-07 -1.44373e-05 0)
(-0.00119278 -0.00374748 2.12073e-22)
(-0.00886109 -0.00144509 0)
(-8.06038e-05 3.72212e-07 9.1399e-23)
(-0.00865833 -0.000625002 0)
(-3.98283e-06 -5.44243e-06 0)
(0.000144793 -0.000114719 4.14893e-22)
(0.0045655 9.83062e-05 0)
(-0.00565415 -0.00564429 -2.89486e-22)
(2.40844e-06 1.54062e-07 -2.7339e-22)
(-3.254e-08 -5.93756e-07 1.16842e-22)
(1.28028e-07 5.96768e-08 0)
(5.31789e-07 -2.33327e-06 0)
(-0.00625225 0.000392272 1.21306e-22)
(1.39699e-06 3.91069e-06 1.35072e-22)
(-0.000180865 0.000553984 -5.44018e-22)
(-0.00495586 -0.00741832 -1.8591e-21)
(1.40497e-06 9.85471e-07 -1.97465e-23)
(2.30924e-06 -4.42793e-06 0)
(2.07773e-06 4.19143e-06 -4.03091e-23)
(-0.0107781 -0.00190109 0)
(-0.0202765 -0.00564893 3.61421e-22)
(7.81895e-05 -0.000648208 -1.32857e-22)
(-0.000331095 -0.000156863 7.63705e-22)
(0.00320319 0.000760246 1.73545e-24)
(-9.66148e-07 -3.88068e-07 2.0143e-22)
(0.00301788 -0.000146057 -2.59987e-23)
(-1.14148e-05 3.34841e-06 -1.02351e-22)
(1.76722e-06 -1.66387e-06 -4.8045e-24)
(-0.0109802 -0.00310218 -7.67184e-23)
(1.0728e-06 -1.08782e-05 2.89872e-22)
(-9.81884e-07 -1.28792e-07 -4.75651e-23)
(-1.4228e-06 -9.84137e-06 -1.15896e-22)
(8.29473e-05 -0.000209222 0)
(2.78248e-05 -4.53787e-05 -2.28537e-22)
(1.59695e-06 1.49344e-07 3.99931e-23)
(0.0031666 -0.00106031 1.29049e-21)
(0.00049774 0.000311858 3.94354e-22)
(-0.00309298 0.00153979 0)
(-3.46194e-06 3.49163e-07 8.38656e-23)
(-6.90245e-05 -8.88669e-05 4.22795e-24)
(0.000488218 4.21152e-05 -2.69238e-22)
(-7.87176e-07 -1.11605e-05 1.67304e-22)
(6.77858e-06 -2.55676e-06 -1.91538e-22)
(-0.00380381 0.0043137 2.08646e-23)
(0.00709175 -0.00372079 3.20712e-21)
(3.93915e-05 7.71925e-05 4.30336e-22)
(-0.000600033 -0.000380774 8.16996e-23)
(0.00012056 -0.000220466 -8.03076e-22)
(-1.45287e-06 2.75578e-07 1.92507e-22)
(0.000745541 0.000431315 -5.28357e-23)
(3.89758e-05 -0.000981905 2.86851e-22)
(0.0026253 0.000801542 0)
(2.86036e-06 -5.70364e-06 3.87149e-24)
(-0.00224287 0.0014111 -4.62645e-23)
(0.00217627 0.000440709 5.71951e-23)
(-8.0177e-05 -5.62392e-05 -2.59526e-22)
(0.000133653 -0.0001852 2.85815e-22)
(-3.19215e-05 -5.28787e-05 1.81638e-22)
(5.8208e-07 -3.60442e-06 3.41552e-23)
(-2.07239e-06 -4.00498e-06 1.10402e-23)
(0.00242744 0.00779989 1.9177e-22)
(0.00597127 0.000707313 1.47856e-22)
(4.44432e-05 -6.00953e-05 4.33015e-22)
(7.35155e-06 -7.51029e-07 2.10284e-22)
(-0.000123726 3.95855e-05 4.59289e-22)
(-1.36265e-06 -1.70653e-06 0)
(0.0109776 -0.00245012 -1.16934e-21)
(1.74243e-06 6.60198e-07 0)
(0.00493465 0.0010692 -6.00339e-22)
(-2.77027e-06 -3.46332e-06 0)
(0.00293946 -0.000367893 -7.77589e-22)
(-0.000963237 -0.000258441 8.53266e-23)
(-0.00625623 0.000251244 0)
(-0.00317912 -0.00553068 7.66694e-22)
(1.46728e-06 -2.68891e-06 -2.59716e-22)
(-1.65321e-06 -2.77833e-07 0)
(-3.93712e-06 -6.74929e-06 4.4777e-22)
(-1.55997e-06 -2.59636e-07 1.01274e-22)
(-1.66449e-05 -5.02498e-06 1.26264e-22)
(-1.17303e-06 -9.87642e-07 -8.19341e-23)
(-0.000106699 0.000108409 0)
(-0.00962929 -0.00246602 1.33505e-23)
(-0.000128498 0.000107262 0)
(-3.3443e-06 1.27359e-06 2.77461e-23)
(-5.15212e-06 -1.42684e-06 8.28005e-23)
(1.2005e-06 -7.21485e-08 6.80303e-23)
(-1.05007e-05 -6.79577e-07 0)
(-5.65139e-05 -7.51871e-05 0)
(0.000252047 0.000144676 0)
(-0.000268699 1.44992e-05 2.39254e-22)
(-1.55299e-06 -8.30808e-06 0)
(-0.0032348 0.00095205 -1.19905e-23)
(-1.62604e-06 2.78216e-07 -1.24417e-22)
(1.59914e-06 1.57753e-06 0)
(-1.23539e-05 -1.13816e-05 -1.57212e-22)
(-0.00467344 0.000586495 2.52481e-23)
(-2.08725e-06 -2.8556e-06 0)
(-2.54649e-05 -8.00077e-06 -1.34616e-22)
(0.00749244 0.00447575 0)
(-0.00124105 -1.18175e-05 5.69831e-22)
(0.00012642 -8.44891e-05 1.48144e-24)
(1.12556e-08 -5.73388e-07 0)
(-0.00475364 0.00158977 7.78349e-22)
(-1.74323e-08 3.72233e-06 1.06621e-22)
(-1.17435e-06 -9.83137e-07 7.68756e-23)
(-2.7981e-06 -7.4705e-07 0)
(1.00049e-06 -1.85103e-06 0)
(7.70525e-06 -1.76528e-06 -1.77726e-22)
(-2.59001e-06 -1.17334e-06 0)
(3.9927e-07 -1.83872e-06 -4.46846e-24)
(-2.00137e-06 9.94062e-07 6.11804e-23)
(-4.19028e-05 -3.71972e-05 2.61465e-22)
(-7.48676e-07 -8.13118e-06 -1.27309e-22)
(-6.50523e-06 -3.7588e-06 0)
(-2.65156e-06 -4.40392e-06 -1.98708e-22)
(6.15638e-06 4.85821e-05 0)
(8.3948e-07 -1.60884e-06 8.07245e-25)
(-8.46171e-05 8.71831e-06 -1.21132e-22)
(1.17742e-06 -1.96796e-06 1.92125e-22)
(0.00211372 -0.0080003 1.37195e-22)
(4.1113e-07 -9.44411e-06 -2.14257e-22)
(0.0207321 0.00886205 -1.96468e-22)
(-0.000117987 0.000849393 3.41007e-22)
(-6.71788e-06 -4.2504e-06 1.33885e-22)
(-2.32704e-05 -7.69309e-06 0)
(1.23742e-05 -6.24134e-06 -2.02983e-22)
(-8.26524e-07 -1.9957e-06 1.59728e-22)
(1.91175e-06 -2.66606e-07 1.86844e-23)
(8.64352e-07 -1.57015e-06 8.60246e-23)
(8.64369e-07 -1.61238e-06 0)
(-0.00267776 0.00367239 1.08699e-23)
(0.00511912 0.0231482 -1.49602e-21)
(-3.0209e-06 -1.1047e-05 5.11006e-23)
(-6.4541e-07 -1.38437e-06 7.41861e-23)
(-0.000137338 -0.00026001 -5.48425e-22)
(0.0311902 0.0116631 0)
(0.000216904 3.21974e-06 6.56758e-22)
(-0.00975368 -0.0191467 -5.45968e-21)
(2.14097e-06 5.55829e-08 0)
(1.24219e-07 1.23951e-06 -1.05568e-22)
(-2.54476e-06 -3.74101e-06 0)
(0.00622563 0.00054393 0)
(0.000166235 -6.74963e-05 0)
(5.95164e-07 -1.58706e-06 -4.93228e-25)
(3.4652e-05 0.00017441 0)
(3.25386e-05 -0.000489398 5.60228e-23)
(0.0088798 -0.000790833 0)
(1.54669e-06 -2.19302e-06 -2.27366e-22)
(-0.007109 0.000232883 0)
(3.07765e-05 -5.76974e-05 -2.14816e-22)
(-3.07814e-05 -7.67917e-05 -1.26406e-22)
(7.83695e-08 8.50049e-07 5.88789e-24)
(6.48158e-07 -9.24822e-07 -7.30072e-24)
(-3.75728e-06 -6.86608e-06 0)
(0.000209757 5.10676e-05 -3.60978e-22)
(0.0031004 0.000264413 0)
(-0.00138822 1.75041e-05 -2.40134e-22)
(-4.93937e-06 -2.54116e-05 0)
(3.96509e-07 1.97841e-06 -1.05412e-22)
(1.49248e-06 -1.39871e-06 0)
(0.00674363 -0.000325463 7.64909e-22)
(7.10036e-06 -4.93098e-06 1.88114e-22)
(1.4414e-07 4.10145e-06 -1.17478e-22)
(-1.55702e-06 -6.00951e-08 6.20033e-23)
(-0.00522874 -0.000703836 2.029e-22)
(6.19069e-07 -1.90024e-06 -6.6409e-23)
(8.0726e-07 1.55138e-08 -1.3636e-23)
(-1.35462e-05 -9.50727e-06 0)
(-0.00310183 0.00202491 0)
(0.00662456 0.00688231 6.45387e-23)
(0.00349108 0.00117901 0)
(7.5464e-07 -2.28163e-06 -9.2004e-23)
(-3.37929e-06 -4.8067e-06 1.04573e-23)
(-0.0168082 -0.00693938 2.74544e-21)
(-0.00856194 0.00434825 -2.14558e-22)
(-0.000987432 -0.00431628 -2.03267e-23)
(0.000160805 4.45615e-05 -1.54219e-22)
(-0.00752548 0.00231127 0)
(-4.7801e-07 4.45587e-08 -4.44095e-23)
(-0.000198751 -0.000212235 0)
(-7.58263e-08 -2.11318e-07 0)
(-0.00219034 -0.000383761 0)
(-1.00893e-05 -5.30525e-07 -1.18199e-22)
(4.01709e-05 -6.43084e-05 -1.41294e-22)
(0.0166082 0.00261097 6.3868e-22)
(3.46463e-05 4.27515e-05 -5.8183e-22)
(-0.00204264 0.000622646 -1.10778e-22)
(-1.08257e-06 -2.05483e-06 0)
(-4.61659e-06 -6.76729e-06 1.90063e-22)
(-2.02904e-05 -2.13157e-05 1.52292e-22)
(0.000212099 5.60515e-05 1.82169e-22)
(-0.00473126 -0.000370862 0)
(0.000190369 5.94302e-05 -1.63372e-22)
(2.69642e-07 1.82214e-06 1.871e-22)
(-0.00451893 0.000350681 0)
(-0.0056522 0.000498883 -8.29314e-23)
(-0.000156166 7.68651e-05 0)
(0.000117103 -0.000126359 2.52852e-22)
(1.27963e-06 -1.18886e-06 -1.1528e-23)
(-0.000263058 -5.4524e-05 0)
(0.0113218 0.0211197 0)
(-1.26531e-05 -8.20834e-06 2.66327e-22)
(0.00270794 -0.00288705 -5.8755e-22)
(-2.14691e-07 2.74029e-07 3.43966e-23)
(-0.000435801 -0.000275427 -2.4718e-22)
(0.00847549 0.0278512 0)
(-0.00543659 6.17296e-05 5.32951e-23)
(-0.000730608 0.000682868 -6.38965e-23)
(0.00524597 -0.00523354 5.8918e-23)
(1.95832e-08 8.51678e-07 1.88037e-24)
(-4.39389e-05 -0.000639499 2.79989e-22)
(0.000207554 2.06657e-05 -3.2408e-22)
(-0.00702723 0.002742 0)
(-1.66651e-05 1.60488e-06 -1.16733e-22)
(-4.1266e-06 -7.09188e-06 2.1434e-22)
(-1.50306e-06 -8.04952e-06 -2.76563e-22)
(1.53202e-06 -3.72454e-06 -1.42566e-23)
(-0.00164286 0.00120588 3.41855e-23)
(2.67662e-06 3.60761e-07 0)
(3.52638e-06 -5.26506e-06 1.77741e-22)
(-3.15879e-08 9.21179e-07 2.65848e-23)
(-2.40516e-06 -2.66939e-05 -7.66847e-26)
(9.10555e-06 -2.92342e-05 -4.43087e-22)
(-3.2947e-06 -6.57711e-07 0)
(-2.18322e-07 1.23856e-08 -6.73869e-23)
(-0.00186411 -0.000601099 2.06923e-23)
(0.000642005 0.000208764 3.04181e-22)
(-0.00127696 -3.33203e-07 -3.30676e-24)
(0.00126114 0.00898638 2.7346e-22)
(7.24624e-06 -1.10364e-05 -1.13774e-22)
(0.018639 0.00831807 0)
(-2.49202e-06 -4.03106e-06 -2.79513e-22)
(0.000199286 -0.000641586 -8.14013e-22)
(5.45186e-05 1.507e-05 -2.89929e-22)
(1.18032e-05 -2.97289e-05 4.16664e-22)
(-1.61727e-05 -6.89716e-05 3.10954e-22)
(0.0115319 0.00211728 2.84557e-22)
(1.37073e-06 -1.26566e-06 -4.73003e-24)
(1.51339e-07 -2.71018e-07 1.8715e-23)
(-1.26184e-07 -7.37857e-07 2.5135e-23)
(-1.2542e-05 -7.19438e-06 -1.26043e-22)
(6.39183e-05 -0.000250633 4.2498e-23)
(-2.71487e-06 -5.08094e-06 -2.60273e-22)
(-2.95028e-05 6.8691e-05 1.39674e-22)
(0.00147903 -0.000778706 0)
(0.00691283 -0.00484018 0)
(-0.00648367 0.00793628 6.18604e-23)
(3.07121e-05 -2.45332e-06 -1.54748e-22)
(-0.0142864 -0.00448417 6.88894e-23)
(-1.65982e-07 4.63554e-07 1.81185e-23)
(0.00384365 -0.00332337 0)
(0.00178197 0.000123351 0)
(6.63893e-07 -1.90521e-06 -1.65025e-24)
(1.10795e-06 -1.6019e-06 0)
(0.000503353 -0.000264116 0)
(-0.000217428 -0.000300272 2.91722e-22)
(1.98169e-06 -1.32745e-06 0)
(3.53359e-06 -5.19488e-06 -1.06403e-22)
(-3.41731e-05 -4.72368e-05 -5.39395e-22)
(-1.05698e-05 -4.60107e-07 -9.53939e-23)
(-3.16629e-06 -1.3137e-06 -1.38091e-22)
(0.00255054 -0.000316872 3.41402e-22)
(-0.00380633 0.00109791 -6.49043e-26)
(-0.0170725 -0.0026754 2.04693e-21)
(0.00561914 -0.000237967 0)
(-0.00120808 -0.000941532 1.8698e-23)
(1.14132e-05 1.06273e-05 0)
(-2.30713e-05 -2.15206e-05 0)
(-4.82588e-06 -7.46249e-06 0)
(-1.06228e-05 -8.08933e-07 3.61813e-22)
(1.09744e-08 -6.03903e-07 0)
(-4.37418e-05 -0.000172092 -7.88423e-23)
(-2.99634e-06 -9.09068e-07 0)
(1.1543e-06 -9.42963e-06 -3.47266e-22)
(0.003272 0.0007236 0)
(-2.16799e-06 -7.41432e-06 2.51781e-22)
(-0.00421386 0.00493129 0)
(-1.77185e-07 -1.64275e-06 0)
(5.40773e-06 -3.65877e-06 -9.16942e-23)
(-0.0114121 -0.00736163 -1.87976e-22)
(-2.23759e-05 -6.0984e-06 -1.17359e-22)
(-0.00214937 0.00400331 -7.03047e-22)
(-2.58e-06 -6.68347e-06 -4.12331e-22)
(-0.00548629 0.000275337 -2.31554e-22)
(-0.000653275 -0.000911399 3.30787e-22)
(-0.00205219 -0.000662026 0)
(1.08247e-06 -2.7806e-06 -4.2112e-23)
(-1.46219e-06 1.47203e-07 -3.86763e-23)
(1.38047e-07 4.02058e-06 7.53111e-23)
(-5.18449e-06 -4.89706e-06 0)
(-1.0814e-06 -1.34343e-06 1.55452e-23)
(-0.00415329 -0.000266747 -3.56534e-24)
(-2.61018e-05 -1.00619e-05 -7.64885e-23)
(0.00603394 -8.09705e-05 0)
(-1.36286e-05 -7.22104e-05 5.29211e-23)
(0.00465887 0.00497003 9.35922e-22)
(-0.000383038 3.59607e-06 -1.36598e-22)
(-9.7029e-08 -1.19277e-06 -2.23868e-23)
(0.00964404 0.00682014 8.07462e-22)
(0.0180393 0.00566631 5.78591e-22)
(8.15998e-07 -3.85709e-06 4.74111e-23)
(-0.000495106 -0.000915122 5.26955e-24)
(1.31504e-06 -4.98841e-06 0)
(-5.49474e-06 1.91245e-06 4.75904e-23)
(6.96942e-07 -2.50439e-06 -3.56613e-23)
(3.6088e-06 3.82779e-05 2.76312e-22)
(1.03505e-06 -8.46187e-06 0)
(-0.000763615 -0.000259326 3.6114e-22)
(9.81533e-07 -1.55734e-06 0)
(-0.0112451 -0.0263179 4.23908e-21)
(2.27128e-05 0.000149582 -1.40628e-22)
(-3.85325e-05 6.22986e-05 -4.4777e-23)
(-5.83548e-05 -3.93048e-05 2.39003e-22)
(-0.000284344 4.90315e-05 -2.63097e-22)
(3.71225e-06 1.91005e-06 1.34483e-22)
(0.00816056 0.00576248 -7.09693e-22)
(0.00244839 -0.000483596 -3.95647e-22)
(-0.0049731 0.000285567 6.56364e-23)
(-0.0148051 -0.00664245 -1.06315e-21)
(0.010223 0.0141805 -1.92938e-21)
(0.00193181 -0.000230674 0)
(0.00540407 0.000215026 1.93317e-22)
(-0.00909322 0.00231075 2.24062e-21)
(-0.00085812 -0.000477482 0)
(-1.09528e-05 4.30081e-06 9.62852e-23)
(0.00108213 -0.000875552 2.18033e-22)
(7.86097e-05 3.4019e-05 -1.3716e-22)
(0.017111 0.00843143 5.64892e-22)
(-0.000958567 -1.35614e-05 -4.1119e-24)
(1.20728e-05 -3.08529e-06 0)
(-0.00503113 -0.000659804 1.7338e-22)
(-0.000147213 -0.000416104 3.52222e-22)
(0.000116127 -7.6496e-05 2.26451e-22)
(-3.10824e-06 -6.78083e-06 -2.35845e-22)
(8.51868e-07 -2.56914e-06 -2.83381e-24)
(-2.96601e-05 -0.000184173 0)
(-1.56615e-05 3.88792e-07 1.20077e-22)
(0.0010961 -0.000607594 4.01019e-23)
(0.00612856 -0.00191783 2.18145e-22)
(-1.68907e-06 -2.5426e-07 -5.06917e-23)
(-3.70953e-06 4.88577e-07 0)
(0.0353248 0.0131427 -3.551e-22)
(9.59512e-06 -3.55876e-06 1.25608e-22)
(-0.00251896 0.000423751 3.89305e-23)
(1.62747e-06 -2.2943e-06 2.63064e-22)
(1.92426e-06 4.39022e-07 -1.25846e-23)
(4.3788e-08 -3.8342e-06 1.87856e-22)
(0.00677437 0.00252979 5.70529e-22)
(-3.25088e-07 2.2531e-06 1.27179e-22)
(-0.00518943 -0.00705846 -2.12012e-22)
(0.00104826 -0.000782214 -3.23214e-22)
(-6.30621e-08 -9.76723e-08 -2.77572e-23)
(-5.30666e-06 -5.3082e-06 0)
(-4.86928e-06 -1.73559e-06 1.331e-22)
(-0.0043035 7.9968e-05 1.65557e-24)
(0.00159542 -0.000340062 2.18776e-23)
(-5.53609e-05 5.9709e-06 -4.97111e-22)
(-9.60135e-05 -3.18084e-05 -4.86956e-23)
(-4.10041e-06 -6.78671e-06 -2.18348e-22)
(-0.00227856 0.000724746 1.14636e-22)
(0.00367437 0.00209267 -3.20683e-22)
(-9.35298e-06 -4.3102e-05 -3.2699e-23)
(-2.2125e-06 1.36141e-05 0)
(7.65674e-08 2.10329e-06 0)
(-0.00364172 0.0156029 -5.93554e-21)
(-0.00178939 -0.00243482 -6.4086e-22)
(-2.41043e-07 4.55841e-07 1.94186e-23)
(4.09467e-06 -3.01122e-05 4.90726e-22)
(1.31007e-05 -3.33732e-06 3.80506e-22)
(-1.295e-05 -4.40591e-06 0)
(8.11817e-06 6.74637e-06 0)
(-1.26108e-06 -6.95243e-06 1.43342e-24)
(-0.00661291 -0.00681828 -2.30456e-22)
(0.0202728 0.00671043 -3.99866e-22)
(-1.12204e-06 -1.3709e-06 -1.2734e-22)
(-0.0133834 -0.000838355 -5.57785e-22)
(0.00208757 8.09717e-05 -9.50737e-22)
(-2.51642e-05 7.07281e-07 0)
(-2.48863e-05 -1.06707e-06 -6.86667e-23)
(0.0116563 0.0082777 1.77015e-22)
(-0.00356472 0.000987248 1.30632e-22)
(0.000968175 0.000802989 0)
(0.00689039 0.0032994 0)
(-2.30136e-06 -4.21103e-06 0)
(4.59334e-05 1.19194e-05 -2.53434e-22)
(-0.00378835 -0.000149368 0)
(-0.00664125 0.0029428 0)
(2.72435e-07 2.51439e-06 -3.28812e-23)
(4.86379e-07 -3.23552e-06 -3.29389e-23)
(-8.20997e-06 -1.0521e-05 -2.58606e-22)
(-8.26031e-07 -4.73343e-07 -1.1425e-23)
(0.0010134 -0.000976889 3.53909e-22)
(-0.000823865 0.000791346 1.96708e-22)
(-5.81722e-05 -1.37274e-06 3.85648e-22)
(1.8627e-05 4.38136e-05 0)
(1.1619e-05 3.84618e-05 0)
(9.58352e-07 -4.0828e-06 1.43179e-23)
(-2.39461e-05 -1.17008e-05 0)
(0.000972182 0.000300497 -6.54042e-22)
(1.00817e-06 -2.77291e-07 3.56045e-23)
(0.00452705 0.00217118 4.49793e-22)
(6.03556e-08 -5.10961e-06 -1.02774e-22)
(-0.0293936 0.000189432 -2.61348e-21)
(-0.00507955 -0.0066801 3.54881e-22)
(3.85016e-07 2.92386e-06 0)
(-0.00566735 -0.00463403 3.40733e-22)
(-1.24594e-05 -6.12584e-07 -3.55417e-23)
(8.47597e-07 -3.64864e-07 0)
(0.0127004 0.00880744 5.7739e-23)
(-2.73009e-06 -2.05177e-06 9.06528e-23)
(0.000149419 -0.000185856 6.99839e-22)
(-3.50576e-07 -3.10845e-06 -4.41481e-23)
(-2.17187e-05 -1.14097e-05 -2.45821e-22)
(-1.82717e-07 -1.02257e-06 0)
(-2.23319e-05 -3.22251e-06 5.52751e-23)
(-6.21467e-06 -4.06345e-06 2.28669e-22)
(0.0090741 0.00774811 -6.80287e-23)
(-1.5986e-06 -2.44046e-06 0)
(-2.53645e-06 -1.29739e-06 6.30961e-23)
(1.55185e-06 3.8462e-07 0)
(-4.35249e-07 -1.70634e-06 0)
(-0.00675347 -0.00673756 3.44801e-22)
(-0.00158327 0.00229559 0)
(-5.21149e-05 -3.58466e-05 -3.12336e-22)
(-0.00121922 0.00257361 0)
(4.74163e-07 -1.11047e-06 2.07619e-23)
(0.000896644 0.000331058 1.99203e-22)
(0.00928619 -0.000495848 1.54434e-22)
(-1.58406e-06 2.99865e-07 9.12869e-23)
(-6.266e-05 -6.83102e-05 1.7506e-22)
(-0.000772901 0.00108482 7.07434e-23)
(-4.04626e-06 1.05723e-06 -1.07362e-22)
(1.32872e-07 -2.89075e-07 -1.94023e-23)
(6.23947e-05 8.82749e-06 4.06242e-22)
(-0.0056099 -0.00488738 -3.04599e-22)
(0.000458421 0.000949167 0)
(0.000535434 -0.000150497 0)
(5.61934e-08 2.6262e-06 3.54417e-23)
(-2.80014e-06 -7.31459e-06 0)
(-0.00083912 -0.000197476 -1.15249e-21)
(3.30397e-07 4.14182e-06 1.66277e-22)
(0.0057748 -0.00222404 3.17255e-23)
(9.37578e-08 -6.17117e-07 0)
(0.00175408 -0.000301239 4.73779e-23)
(3.7281e-06 -9.36477e-07 0)
(-1.19987e-07 -2.73846e-06 4.88657e-23)
(1.07806e-06 1.12043e-06 0)
(-2.09508e-06 -4.1045e-06 0)
(-0.00676673 0.000736534 3.17086e-23)
(-0.000117936 -0.000453558 0)
(0.00445911 0.00386373 -1.29865e-23)
(-2.9222e-06 -5.96838e-07 0)
(-1.61094e-05 -1.06459e-06 -1.12432e-22)
(-0.00528619 0.00213847 1.12055e-23)
(9.26248e-06 -1.10102e-05 6.83676e-23)
(-3.43465e-06 -4.64406e-06 3.9618e-22)
(0.000793956 -0.000496224 -1.78641e-23)
(0.00426674 -7.58347e-05 -6.48247e-24)
(-0.000210028 0.00080735 4.12806e-22)
(-3.80228e-07 2.78358e-07 1.89874e-23)
(0.0119146 0.00521388 2.62477e-21)
(9.36637e-05 -9.28526e-05 -8.26485e-23)
(5.04634e-06 2.19645e-06 -3.35718e-23)
(-3.31732e-06 1.22257e-06 -3.5502e-24)
(0.00068092 0.000353272 -9.97453e-22)
(-0.000451426 0.000672128 1.96253e-22)
(-2.01421e-06 -2.61196e-07 -1.32922e-22)
(0.00211048 -0.000160173 5.34204e-23)
(-0.0133196 -0.000552604 5.71658e-22)
(-0.000107519 -6.28321e-05 -1.38188e-22)
(7.47833e-07 -1.32103e-06 -2.16966e-22)
(-2.5368e-06 -3.69822e-06 -1.11415e-22)
(-2.58806e-06 -1.34398e-06 -1.35133e-22)
(0.000977679 -0.000989457 -2.7047e-22)
(0.000152018 7.92495e-05 -2.93976e-22)
(-1.69635e-06 4.54428e-08 0)
(-6.79768e-05 -3.15236e-06 1.30124e-22)
(-8.2403e-07 -1.97603e-06 -1.10307e-23)
(-1.75278e-05 5.99624e-06 0)
(-3.16382e-06 3.88952e-07 -9.50956e-23)
(-2.93334e-07 1.15809e-06 0)
(5.63753e-06 -3.16998e-05 -4.91082e-22)
(4.45678e-07 2.68262e-06 0)
(-1.61997e-05 -3.24146e-06 -1.90266e-22)
(3.33719e-05 0.000121712 4.60277e-22)
(-0.00845149 -0.00411761 2.3676e-22)
(-0.00090368 -0.00012823 2.57286e-22)
(0.0040248 -0.00138822 -1.26203e-22)
(-9.39824e-05 0.000125763 0)
(-0.000291896 -2.32787e-05 -2.58804e-22)
(0.00131848 0.000689351 3.66535e-23)
(-2.26486e-05 -6.177e-05 7.65035e-23)
(-2.34951e-05 -4.5489e-06 1.2053e-22)
(0.000293535 0.00294617 4.23053e-21)
(-0.000616116 0.0011596 0)
(1.47948e-06 -7.41257e-07 2.42539e-22)
(0.000830313 2.49111e-05 -1.45479e-23)
(-4.62229e-05 -8.55298e-06 8.90135e-22)
(-1.05787e-05 1.94897e-07 -1.04683e-22)
(1.28707e-05 -7.48225e-05 9.23229e-23)
(6.91417e-07 -1.68122e-06 7.46646e-23)
(0.0205043 0.0050506 -3.41314e-21)
(-8.70572e-07 -2.97006e-07 5.47192e-23)
(-0.00162338 -0.000814602 2.16071e-22)
(0.000814887 0.000158285 0)
(7.61625e-07 -1.7988e-06 6.90828e-23)
(-1.19132e-06 2.36646e-07 -1.03465e-22)
(0.00118327 0.000302897 3.80307e-22)
(-8.54306e-07 -1.36355e-06 0)
(0.00223872 -0.00465686 4.84249e-22)
(0.00126132 0.000653005 6.29603e-22)
(0.0217019 0.00965604 1.24506e-22)
(-0.00943618 -0.00417335 -4.09458e-22)
(-0.000143112 -0.000347486 0)
(-2.92132e-06 6.27443e-08 0)
(6.23e-05 -6.92358e-05 3.54479e-22)
(-3.41086e-06 -6.30384e-06 -4.76232e-23)
(-1.96745e-07 -3.54799e-06 -4.52499e-23)
(0.00751321 -0.000750608 -3.37246e-22)
(4.45206e-06 1.70142e-06 1.85961e-23)
(-4.2954e-05 -6.34916e-05 2.05758e-22)
(6.51004e-07 -6.13814e-07 0)
(0.00425866 -0.0103078 0)
(-1.73147e-06 3.00288e-08 0)
(7.10266e-06 -3.00066e-06 1.83317e-22)
(8.51212e-07 -1.67449e-06 7.71809e-23)
(-5.29886e-05 -1.26389e-05 -6.9175e-23)
(0.000112536 -7.33995e-05 -1.00936e-22)
(0.00590939 0.000285798 -1.06116e-22)
(0.000571567 -0.00036092 0)
(-2.95277e-07 -2.22603e-06 -6.15131e-23)
(-2.01999e-07 3.87329e-07 1.38024e-23)
(0.000435574 -2.02253e-05 4.63443e-22)
(-0.0103389 -0.00185634 0)
(-4.84296e-06 -4.85122e-06 0)
(-2.30061e-08 -2.39134e-06 9.63388e-23)
(-1.11964e-06 -1.39558e-06 -2.68539e-23)
(-5.29989e-05 -6.62651e-06 -4.43844e-22)
(-1.7018e-06 -2.51707e-06 1.51209e-22)
(0.0102051 0.00776585 0)
(4.8858e-07 1.62861e-06 9.29029e-23)
(-0.000264056 -2.79331e-05 1.52285e-22)
(0.00113708 0.00683148 5.26198e-23)
(-0.00381736 0.000711262 9.4747e-23)
(1.13973e-07 4.56639e-06 0)
(-1.96487e-07 -2.66384e-06 5.38528e-23)
(6.84527e-07 2.07091e-06 -4.45402e-23)
(2.46658e-06 5.93364e-06 4.41199e-23)
(0.00866505 -0.010014 2.33336e-21)
(-0.00190282 -0.000738641 0)
(0.0050631 -0.000147019 0)
(0.000620817 -0.000604652 0)
(-4.98792e-05 -9.77387e-05 0)
(0.00574652 -0.000453683 -3.9816e-22)
(1.00329e-06 -3.86982e-06 0)
(2.77423e-06 1.65468e-06 -1.64127e-22)
(0.000225361 0.000166598 -5.57888e-23)
(-2.08268e-05 -1.31142e-05 0)
(-5.76202e-07 -8.01557e-06 2.91017e-22)
(-6.9112e-05 1.00252e-05 0)
(-0.00558509 -0.00475771 0)
(-9.81213e-06 -5.35323e-07 -2.47047e-22)
(0.0184681 0.00796896 -8.61186e-24)
(-1.28877e-05 -3.64421e-06 0)
(-0.00437079 -0.006946 -1.13297e-22)
(3.69199e-07 -2.60611e-06 0)
(0.00150564 -0.000682053 -1.4755e-24)
(-0.000224714 0.00102279 0)
(-0.00565057 0.000287476 -1.34908e-22)
(0.00212519 0.000508652 -2.29747e-22)
(0.00172704 0.000246036 0)
(-7.92867e-05 -0.000165943 1.53955e-22)
(-0.00747324 -0.00737393 1.44046e-22)
(-1.09605e-06 -1.34125e-06 2.53126e-23)
(-3.75339e-06 1.30318e-05 0)
(1.92562e-06 -2.11945e-06 2.88197e-23)
(-0.00166942 0.00196958 0)
(-1.90167e-07 -5.74956e-07 2.40225e-23)
(-0.0504911 -0.0305657 5.11535e-21)
(0.000506176 -0.000918609 -3.1469e-22)
(-4.67173e-05 9.25362e-05 -3.46962e-22)
(6.15748e-07 -2.22696e-06 -4.66408e-23)
(1.9234e-06 -2.8536e-06 0)
(0.00657818 2.28682e-06 -8.07864e-22)
(-9.44913e-07 5.61135e-06 0)
(-6.55441e-06 7.13062e-06 -5.26492e-23)
(1.7904e-07 7.6836e-07 0)