/*--------------------------------*- C++ -*----------------------------------*\
| =========                 |                                                 |
| \\      /  F ield         | OpenFOAM: The Open Source CFD Toolbox           |
|  \\    /   O peration     | Version:  v2012                                 |
|   \\  /    A nd           | Website:  www.openfoam.com                      |
|    \\/     M anipulation  |                                                 |
\*---------------------------------------------------------------------------*/
FoamFile
{
    version     2.0;
    format      ascii;
    class       surfaceScalarField;
    location    "400";
    object      ddtCorrDdt0(phi);
}
// * * * * * * * * * * * * * * * * * * * * * * * * * * * * * * * * * * * * * //

dimensions      [0 3 -2 0 0 0 0];
oriented        oriented;


internalField   nonuniform List<scalar> 
20424
(
9.21578e-07
-9.16518e-07
-4.81608e-09
7.80447e-05
0.000109496
-0.00018754
-1.51283e-06
6.78579e-07
8.34442e-07
-2.38683e-06
5.74893e-06
-3.36203e-06
-5.34243e-07
2.74509e-07
2.59795e-07
4.24174e-05
-2.60749e-05
-1.63429e-05
-0.00012991
4.4724e-05
8.5192e-05
2.28125e-06
6.54153e-07
5.81387e-07
-2.6857e-07
-3.12403e-07
2.57939e-06
-4.96612e-06
-9.73513e-05
0.000122078
-2.47269e-05
-2.42642e-07
1.27117e-06
-1.0285e-06
9.70642e-06
5.25725e-06
-1.49631e-05
-0.000568852
0.000459127
0.00010973
-0.000225507
0.000343227
-0.000117727
3.2175e-06
-1.3175e-06
5.76666e-07
7.40867e-07
-3.36481e-05
-1.02522e-05
4.39002e-05
7.17715e-07
-1.81107e-07
-5.36575e-07
-8.82862e-07
5.71799e-07
3.11445e-07
0.000216653
-4.69517e-05
-0.000169701
-0.000330771
0.000105263
-0.000718004
0.00113007
-0.000412068
-3.53139e-05
-8.32085e-05
0.000118522
-3.37923e-08
-5.00554e-07
-1.10304e-05
6.61334e-06
4.41687e-06
-7.7926e-06
1.21506e-06
6.57722e-06
-5.52787e-06
1.04136e-05
-4.88575e-06
-1.19449e-07
9.29792e-07
-8.1024e-07
7.54042e-07
-1.54432e-06
7.90144e-07
-8.79018e-05
-0.000483607
0.000571512
0.000229304
-0.000214939
-1.43632e-05
-3.77386e-06
-3.20249e-06
6.9764e-06
-1.12875e-05
2.71523e-05
-1.58648e-05
-1.76181e-07
6.93519e-07
-5.17228e-07
-1.13573e-07
8.37705e-07
-7.24023e-07
-9.09903e-07
1.56787e-06
-6.57943e-07
-1.05006e-06
8.14119e-07
2.35808e-07
1.13612e-07
-1.01218e-06
8.98941e-07
2.12475e-05
1.9627e-06
-2.32094e-05
3.01563e-05
1.22611e-05
-2.82672e-05
2.82663e-05
5.3651e-06
-3.34377e-06
-2.02118e-06
-4.36879e-06
-1.77267e-06
6.14171e-06
-5.93615e-05
2.57148e-05
-3.9135e-06
4.35318e-06
-4.39501e-07
-1.1268e-06
3.22366e-07
8.04388e-07
5.40924e-05
-6.09789e-05
6.88374e-06
5.15496e-07
-1.26375e-06
7.4794e-07
-0.000385871
0.000496948
-0.000111089
0.000112974
-0.000148289
0.000118495
9.81583e-05
-4.68046e-07
2.1716e-05
0.0005365
-4.14158e-06
-0.00053237
-7.40874e-07
-6.70779e-06
7.44932e-06
-8.07074e-07
1.32243e-06
-1.37299e-05
1.8094e-05
-4.3641e-06
-8.35167e-06
4.57773e-06
6.79393e-07
-5.74252e-07
-1.05157e-07
-3.36787e-05
-0.00013954
0.00017321
2.03157e-07
3.01295e-07
-5.04449e-07
2.46645e-07
-2.23344e-06
1.98692e-06
-6.27916e-05
0.000109011
-4.6219e-05
-1.01257e-06
7.69976e-07
-1.58607e-06
2.40383e-06
-8.17523e-07
-4.22646e-06
2.49272e-06
1.73327e-06
4.22789e-07
1.59022e-07
-5.81886e-07
-4.68158e-07
2.98783e-06
4.19222e-07
-3.40713e-06
-4.00143e-06
8.77787e-08
0.000209972
-0.000217252
7.28121e-06
3.54467e-08
4.35342e-07
-4.70805e-07
0.000327629
-0.00036132
-7.82937e-07
-9.80076e-07
1.76305e-06
-1.03861e-05
0.0005393
2.20842e-05
-6.65726e-05
4.44914e-05
2.88736e-06
2.34663e-07
-3.12208e-06
5.39755e-07
1.39638e-07
2.77453e-07
-1.40072e-05
5.34658e-07
-6.08286e-07
7.36723e-08
-8.5619e-07
7.42691e-07
1.01005e-06
-4.13679e-07
-5.96594e-07
-0.000144757
-7.91548e-07
6.72092e-07
4.23832e-05
-2.42521e-05
-1.8131e-05
6.13587e-05
-7.09892e-05
9.63187e-06
-4.78768e-05
1.25906e-05
3.52827e-05
0.000332875
-0.000185347
-0.000147536
-6.31369e-07
4.55291e-07
5.67812e-05
-4.90755e-05
-7.7071e-06
-4.29116e-07
4.40758e-07
-1.16089e-08
-0.000158967
0.00069545
2.4009e-06
-7.98052e-07
-1.60277e-06
0.000905328
-0.00142485
0.000519533
-0.00116736
-0.000813673
0.00198116
-2.01079e-05
7.35889e-06
1.27493e-05
4.19686e-06
-2.29756e-07
-3.96707e-06
8.81672e-07
-1.75164e-07
-7.06473e-07
-4.3604e-07
4.71503e-07
-1.75005e-06
-2.47663e-06
8.73162e-05
-5.1969e-05
-3.53458e-05
9.98335e-09
8.2779e-07
3.47927e-06
-3.18433e-06
-2.94841e-07
0.000255562
-0.000346996
9.14227e-05
2.42263e-07
1.67996e-06
-1.92197e-06
-8.38627e-05
0.00033942
-7.49179e-05
4.65682e-05
2.83456e-05
-5.37205e-07
6.19609e-07
-8.21661e-08
4.83975e-05
8.3861e-06
8.47989e-07
-1.16139e-06
3.13522e-07
1.20535e-06
6.585e-08
2.92959e-06
2.4355e-06
-5.93338e-05
-1.55838e-05
-0.000357959
0.000569418
-0.000211459
6.75074e-06
-8.05435e-06
1.3047e-06
4.89715e-07
1.03968e-06
-1.52932e-06
7.79539e-07
-7.69533e-07
-5.64072e-06
4.90029e-06
2.93746e-07
1.87012e-06
-8.99127e-07
1.30433e-06
-4.05253e-07
2.16445e-06
1.16683e-07
8.26681e-08
-9.10292e-09
-7.35575e-08
2.798e-08
-6.96991e-07
6.69205e-07
-8.39275e-07
1.02891e-06
-1.89514e-07
-4.71306e-07
3.4836e-07
1.23312e-07
-1.13273e-05
0.000221299
2.73508e-06
-2.88103e-05
0.000128274
-5.94573e-05
-6.88124e-05
-3.92274e-06
2.23811e-06
1.68442e-06
8.81339e-05
0.000239491
-5.32876e-06
-1.3086e-06
6.63739e-06
-0.000676615
0.000362253
0.000314354
-0.000334662
0.000286781
0.00025522
-0.000270509
1.52984e-05
2.73674e-07
1.21098e-05
-1.23836e-05
1.65564e-06
-3.21358e-06
1.55843e-06
0.000501789
-0.000512162
1.36771e-06
-3.37868e-08
-1.33409e-06
-6.99547e-07
-8.24305e-07
1.52397e-06
0.000562464
-0.000185765
-0.000376725
2.79088e-05
-1.33179e-05
-1.45928e-05
-8.52237e-06
9.40954e-06
-8.87217e-07
8.22017e-09
8.21548e-07
-8.29851e-07
0.00017647
-0.000199109
2.26377e-05
5.28484e-07
-5.39011e-07
1.04749e-08
0.000562439
-1.04907e-05
4.89221e-07
1.00015e-05
-4.28754e-06
1.89934e-05
-1.47055e-05
1.39822e-06
6.99487e-07
-2.0971e-06
6.15357e-05
-4.03775e-05
-2.11566e-05
6.98928e-07
-1.70416e-07
-2.29832e-05
1.09701e-05
1.20132e-05
0.000408918
-0.00049278
0.000339062
-0.000214075
-0.000124955
4.98717e-06
-3.75493e-06
-1.23248e-06
1.74439e-05
-7.44667e-05
5.70235e-05
-8.30595e-06
-2.18491e-06
-1.74137e-05
-3.16841e-06
2.05828e-05
0.000293099
-0.000215051
-1.96851e-07
3.81859e-07
-1.84985e-07
-0.000763756
0.00040579
-2.45826e-07
1.21079e-07
1.24796e-07
-3.20976e-05
-0.000137392
0.000169488
-7.50952e-06
4.30748e-06
-6.73488e-07
-8.07266e-08
7.54122e-07
-1.22203e-06
1.21711e-06
4.90781e-09
9.53776e-05
0.000237464
-7.16998e-07
-7.9577e-07
-8.82783e-07
1.63692e-06
-4.96133e-06
1.46681e-05
-6.01266e-07
6.09459e-07
1.17359e-08
8.36402e-07
1.03849e-07
-1.01466e-05
1.17676e-06
8.96995e-06
2.69018e-06
-2.00681e-06
-6.84468e-07
-0.000130718
8.06424e-07
5.5862e-05
-3.37757e-05
3.77135e-06
1.21566e-06
0.00013606
-7.78365e-06
-0.000298856
0.000253654
4.52042e-05
-2.58733e-06
2.82955e-06
1.60997e-05
-2.73872e-05
3.67986e-06
7.25503e-07
-4.4054e-06
3.75667e-05
-0.000132243
9.47799e-05
-0.000880657
0.000558797
0.000321821
5.85676e-07
2.10419e-06
-6.02303e-06
0.000182493
-1.54344e-06
9.79191e-07
5.64243e-07
-0.000778437
0.000156133
0.000622311
-2.73718e-07
4.76838e-07
-8.95719e-07
4.57563e-06
0.000413234
-0.00113124
3.19141e-06
-2.06149e-06
-1.13023e-06
-9.24916e-05
9.0285e-05
2.20649e-06
0.000200996
2.50576e-05
-0.000226053
1.52999e-05
4.60598e-05
-2.55714e-05
2.83061e-05
0.000179053
-0.000129204
7.7099e-07
-7.42875e-07
-1.85952e-06
-2.06335e-06
-1.39995e-06
7.53138e-07
6.46636e-07
9.93305e-05
-0.000131251
3.19205e-05
6.80464e-07
-2.65656e-06
3.09995e-06
-4.42698e-07
-0.000119053
-4.45836e-05
0.000163648
2.02476e-06
-9.02458e-07
-1.12241e-06
5.0702e-07
5.7814e-08
-5.6477e-07
-9.6219e-05
3.72645e-06
0.000329819
-0.000612514
0.000282661
-7.46485e-05
-1.46877e-05
8.93358e-05
-1.16291e-06
1.65258e-06
-0.000435542
0.000267995
0.000167543
-1.73253e-05
1.73161e-05
0.000146658
0.000262211
-0.000408843
2.73768e-06
-1.05304e-05
3.82132e-05
5.64399e-05
-9.46535e-05
0.000209869
-0.000197038
-1.28339e-05
-5.05275e-05
3.75204e-05
1.3007e-05
0.000160119
-0.000126188
-3.39206e-05
2.07071e-07
7.22813e-07
-0.000792626
4.91526e-05
0.000743472
2.53691e-07
-2.91002e-06
0.000251077
0.000459608
0.000205469
-0.000665078
-3.10647e-06
1.09009e-05
-7.79253e-06
0.000628648
-0.00054051
6.04128e-07
1.42058e-06
9.68292e-06
1.82243e-05
0.000234364
-2.44961e-05
-0.00014091
-0.000294626
-9.57115e-07
5.66283e-07
3.91082e-07
2.10891e-07
-2.1084e-07
-4.16969e-09
8.68415e-08
-7.01612e-08
-1.05658e-06
8.57821e-05
0.000298564
-0.000384346
-1.27144e-07
-3.44515e-07
6.15273e-05
-5.44832e-08
-6.14704e-05
-0.000550851
-8.23103e-07
-5.97318e-08
-4.91884e-07
-8.25552e-07
5.7658e-07
-1.28452e-06
7.07696e-07
0.00061038
-0.000150772
-0.00110723
0.00123157
-0.000124394
4.23392e-05
-6.041e-05
1.80694e-05
3.28947e-05
-4.57159e-05
1.28212e-05
0.000196672
4.32245e-06
7.29882e-07
2.80565e-07
-0.000152107
3.30586e-05
3.74289e-06
-3.54627e-06
-1.97063e-07
-6.98089e-08
-6.38489e-07
7.08146e-07
-0.000374689
-0.000124486
0.000499176
2.24099e-06
5.68712e-07
-5.02548e-07
-6.60798e-08
1.04237e-06
1.35874e-06
2.54781e-05
-2.72038e-05
1.72342e-06
-7.1187e-06
-1.40356e-06
3.57304e-08
-5.72804e-07
-0.000117958
8.58515e-05
-5.03456e-05
-2.06426e-05
-0.000117814
0.000282729
-0.00016493
-1.29823e-06
1.5185e-06
-2.20389e-07
1.77741e-05
-8.70482e-06
-9.06846e-06
5.01691e-06
1.03041e-07
2.31816e-06
-2.42141e-06
1.56538e-06
2.8107e-07
-1.84446e-06
0.000406524
9.52752e-05
0.000344357
-0.000596929
0.000252578
-9.40758e-06
-1.62277e-06
3.71409e-05
5.27326e-05
-8.98688e-05
-4.8002e-06
3.0276e-05
7.01139e-07
-7.90454e-07
8.94467e-08
2.44203e-06
3.64709e-05
-3.89171e-05
4.43886e-05
4.64053e-05
-9.07929e-05
0.000178827
-0.000183525
4.69772e-06
-8.19052e-07
-7.24365e-07
-9.9944e-05
-1.51919e-05
0.000115135
-0.00011727
0.000117272
-7.64059e-06
-6.11709e-06
1.37575e-05
2.89799e-05
-3.37821e-05
3.80867e-07
-1.05273e-05
-1.12551e-06
-9.65063e-08
-9.24792e-07
1.74167e-06
-8.16879e-07
0.000577908
-6.32498e-05
-0.000514666
-0.000229078
-8.55556e-05
0.000314635
1.74612e-06
7.0903e-06
-8.83655e-06
-4.19063e-07
1.81764e-06
-1.23031e-05
2.13231e-05
-9.02086e-06
3.59973e-07
-9.34253e-07
-0.000840633
6.21958e-05
-5.30523e-07
4.30167e-07
1.00392e-07
-0.000318799
1.51354e-05
0.000303667
4.1542e-07
-1.28682e-06
8.71233e-07
8.01143e-06
-9.50727e-05
-2.27854e-06
0.000161938
-0.000327426
0.000165488
-0.000103354
-0.000509189
-1.45022e-06
5.78762e-07
8.7173e-07
-1.92106e-07
-6.24717e-07
8.16973e-07
1.44601e-06
6.06117e-07
-2.05185e-06
6.29849e-07
2.91848e-07
-2.55216e-07
3.14257e-06
-1.47181e-07
-4.84107e-07
4.07553e-06
-2.00257e-05
1.595e-05
0.000114994
-0.000489699
-1.89077e-05
-1.20057e-06
-9.77108e-08
3.85444e-07
8.73108e-07
-1.2586e-06
-4.26265e-07
-2.47237e-07
6.49967e-07
-2.42812e-06
1.7779e-06
-1.26524e-05
-5.58936e-07
1.32115e-05
8.46994e-06
-6.02928e-06
-4.2027e-05
3.36013e-05
8.42524e-06
-3.82128e-07
1.66441e-06
-1.28227e-06
0.000233133
-0.00014368
-8.94529e-05
-3.4967e-07
1.05093e-06
-2.55956e-07
1.46781e-06
2.01146e-06
-0.000314319
0.000233038
8.12819e-05
-1.32776e-06
4.28587e-07
-5.10876e-07
4.71108e-06
-4.2004e-06
0.000373268
0.000367981
-0.000741267
9.55548e-05
-9.55537e-05
-1.4185e-05
2.08487e-05
-6.66405e-06
2.23824e-07
-2.238e-07
0.000107333
-0.000233461
-1.14393e-07
2.32166e-06
-2.20695e-06
-6.25864e-07
4.78674e-07
1.28099e-06
-6.9478e-07
-5.86249e-07
-5.67004e-08
-4.31768e-07
4.88527e-07
-4.27495e-07
1.99503e-06
6.8448e-07
5.96584e-07
-7.81765e-07
-2.30769e-07
-1.17901e-06
3.39826e-07
2.97492e-06
-8.5032e-06
1.34141e-06
-1.72351e-06
1.32054e-06
-2.02003e-06
-1.68219e-06
8.99185e-07
7.1631e-06
-5.94798e-06
3.28006e-07
-3.84722e-07
7.41461e-06
-1.05196e-05
-7.05669e-07
-4.49721e-07
1.15539e-06
0.000412078
-0.000499978
-1.13205e-06
1.23481e-06
6.58204e-05
-0.00121285
0.00114703
-9.9668e-05
2.50192e-05
1.03329e-06
-1.85756e-06
-4.50737e-06
3.99646e-06
-8.38155e-08
-2.78523e-06
2.86772e-06
6.46665e-07
2.69525e-07
-9.16094e-07
1.8471e-07
-5.5391e-07
3.6931e-07
5.48322e-07
-2.97367e-07
-2.51125e-07
3.27658e-07
2.20636e-07
0.000328463
-0.000137692
-0.000190772
0.00195587
-0.000938445
-0.00101743
2.33552e-06
-2.08884e-06
-6.4437e-07
1.42175e-07
5.02243e-07
-4.13581e-05
2.37988e-05
1.75605e-05
-0.000540667
-0.00153015
0.00207083
-2.51563e-05
-2.18398e-06
2.7341e-05
-0.00122302
0.00226902
-0.001046
-5.57213e-07
-3.9978e-07
9.65488e-08
-8.59135e-07
1.27448e-06
-0.000303107
7.40302e-05
2.34974e-05
-2.62711e-05
-4.84064e-07
7.94213e-07
-3.10122e-07
1.81562e-05
-2.24436e-05
-1.5525e-05
2.25392e-06
1.32712e-05
-0.000122282
0.000531205
-7.37424e-07
1.33863e-06
-6.0093e-07
0.000472094
-0.000310156
7.62341e-06
1.78615e-06
7.92707e-06
-1.35549e-05
5.62878e-06
-4.73534e-09
5.39417e-07
4.05094e-08
-5.2458e-07
1.0262e-06
-1.8812e-06
8.549e-07
-2.34406e-05
2.59849e-05
-2.54321e-06
0.000182691
-3.63963e-06
-4.3525e-05
0.000128719
-8.51975e-05
3.72244e-06
4.03777e-07
-4.12628e-06
-1.19899e-06
1.00753e-06
1.91832e-07
9.13405e-07
-3.18041e-08
0.000421992
-0.000304089
-0.0001179
-2.1987e-06
2.11408e-06
1.82451e-06
4.97245e-07
9.94392e-07
-7.82749e-07
-2.11459e-07
0.000268637
-3.9335e-05
-6.22909e-07
2.37584e-07
3.85459e-07
-3.0615e-07
1.09316e-07
-1.70092e-06
-1.48333e-06
0.000397534
-0.000269271
-0.000128253
0.000279634
-0.000782662
0.000503072
-2.02818e-05
1.29168e-07
4.35484e-07
-5.64684e-07
-2.12761e-07
-1.02883e-06
1.24239e-06
0.00166426
-0.000336071
-0.00132815
0.000121926
-0.000581369
0.000459438
-0.000191752
-0.000291853
1.70157e-05
-1.43401e-05
-2.67437e-06
0.000320005
0.000308651
-1.38953e-07
-1.06856e-07
1.71035e-05
2.52802e-05
-2.70927e-08
1.09339e-07
-8.22051e-08
0.000224297
-0.000141748
-8.25456e-05
2.365e-06
-1.71508e-06
-7.5751e-06
9.32123e-06
-0.000693331
-0.000356053
0.00104939
2.35454e-06
-4.4952e-07
-1.90278e-06
-0.000127063
0.000195394
-6.83296e-05
-5.81288e-08
7.0482e-07
-1.10008e-06
2.083e-06
-9.82794e-07
-2.17433e-06
4.9736e-06
-2.79921e-06
1.93527e-05
-2.33618e-06
0.000238019
-0.000270033
3.20159e-05
-2.58811e-05
2.44121e-06
1.01987e-06
-3.06613e-07
-7.13115e-07
-0.000305141
-9.17759e-06
0.000225491
-0.000341663
0.000116173
2.70697e-05
-2.09398e-05
8.3222e-07
-5.65426e-07
1.4937e-07
4.15945e-07
-3.21665e-05
3.54745e-05
-3.30809e-06
0.000264702
-0.0014626
0.00119789
-3.17968e-06
1.47882e-06
2.33255e-05
0.000321009
-1.70879e-07
1.68126e-07
2.76046e-09
-2.47882e-05
6.19348e-05
0.00112575
0.000830107
-0.000294205
3.70667e-05
0.000257135
0.000107035
-6.23081e-05
-0.000636667
0.000194618
0.000442071
4.1313e-07
-4.53935e-07
4.08372e-08
-2.49215e-05
6.72616e-05
8.28803e-07
-0.000390292
0.000729366
-2.58526e-07
1.95377e-06
-9.27549e-07
-2.71818e-06
1.50085e-06
1.21748e-06
-8.85074e-08
9.02603e-07
-7.93629e-05
-3.93062e-06
8.32978e-05
2.25773e-08
-2.90978e-07
-1.72431e-06
8.71827e-07
8.52426e-07
5.77066e-08
-5.9767e-07
5.40083e-07
4.44793e-06
2.97293e-06
1.94939e-06
-4.92248e-06
1.16414e-06
3.54311e-07
8.72324e-08
1.11924e-07
-1.99109e-07
2.67991e-05
0.000119889
-6.24831e-05
7.18429e-05
-9.35715e-06
7.34897e-05
-0.000117016
8.13297e-05
0.000496571
3.22399e-06
-1.6113e-06
-1.61277e-06
3.02227e-05
0.00113734
-0.00116756
7.16493e-07
-1.64133e-06
3.1159e-05
-3.71082e-05
5.94754e-06
1.96045e-06
6.69381e-06
-8.65451e-06
5.55233e-06
-9.91766e-06
1.26339e-05
-2.71624e-06
-0.000830876
0.000137547
-1.08819e-08
-7.26228e-07
-1.03844e-07
2.09196e-07
-1.05316e-07
-3.69224e-07
4.27039e-07
-9.35175e-07
-2.2444e-06
-1.67285e-06
-1.38523e-05
9.40153e-07
-8.26206e-07
9.76106e-06
-1.12095e-05
-7.84237e-05
0.000182597
-0.000104172
-0.000490546
-0.000267075
0.000757616
-0.000325996
0.00044792
-6.30774e-06
0.000144836
-0.00125209
-8.80992e-08
-1.62939e-07
2.51065e-07
-0.00042785
-6.26892e-05
0.00011755
-0.000109346
-8.20141e-06
-2.3203e-07
-3.90822e-07
-2.43742e-07
-3.21788e-07
-3.05046e-05
7.17677e-05
-4.12626e-05
-4.94413e-05
1.58204e-05
3.3622e-05
6.77322e-07
-7.47275e-07
-8.46741e-07
-8.77488e-07
2.10761e-06
-3.06605e-06
2.15717e-06
9.08617e-07
1.46108e-06
-8.0416e-07
-6.57097e-07
-0.000155896
2.97149e-05
0.000100102
-0.000200045
0.000959963
0.000704301
-0.000170555
-0.000129733
0.00030029
-6.94703e-05
6.67755e-06
-6.11566e-07
2.67859e-06
-2.0672e-06
3.38882e-06
-5.56323e-06
-2.01487e-06
9.14868e-07
-2.28809e-06
-7.78208e-07
2.98328e-07
-3.05617e-07
7.36378e-09
2.01902e-05
-9.58176e-08
-2.00944e-05
7.66292e-07
2.10622e-07
9.94581e-07
-1.205e-06
-0.000128379
-5.5146e-05
-1.09561e-06
-1.62246e-06
2.46803e-06
-3.5121e-08
-6.09292e-07
8.47842e-08
1.56792e-06
-1.65385e-06
0.000475653
0.000654421
-3.94196e-06
-5.65596e-07
0.000263253
5.67663e-05
-1.97802e-06
3.9209e-07
-8.06594e-05
-0.000213546
1.54316e-05
-9.8007e-05
8.2576e-05
1.15222e-05
0.000212775
3.48612e-07
-9.30603e-07
5.69679e-07
4.24836e-07
3.95947e-07
-2.04189e-06
1.64604e-06
7.26861e-07
-1.85781e-06
1.1309e-06
-8.1952e-08
5.89006e-07
0.000262759
-0.000262764
3.81778e-06
8.93299e-07
-0.000261142
9.05809e-05
-5.17879e-06
1.31064e-05
-0.000220354
-0.00025573
0.000476079
-4.35959e-06
-4.61679e-05
7.40124e-07
-2.24031e-08
0.000461361
0.000270457
-0.000731823
0.00091844
-0.000888215
1.02678e-07
4.72127e-07
-5.74669e-07
9.31246e-05
-7.76923e-05
7.18951e-07
3.83961e-07
-1.1025e-06
-7.42182e-07
-1.10137e-06
1.84359e-06
8.88387e-07
2.07313e-07
-1.09564e-06
2.61635e-06
4.54654e-06
9.34978e-07
-7.2443e-07
-8.19333e-05
-9.98295e-06
9.19167e-05
5.61777e-07
-2.34339e-07
-0.00159068
0.000423383
2.36713e-05
-4.67753e-06
9.89169e-06
-1.30709e-07
-4.71219e-06
1.04889e-05
-5.77682e-06
-1.18707e-05
-1.18758e-06
2.77772e-07
-0.00056912
0.000348763
-5.65101e-05
-9.93812e-05
-7.96501e-05
0.000295961
0.000945508
-0.00124145
0.00116074
-0.000896035
-0.0001539
-3.6631e-05
0.000190535
-0.000437047
0.000118249
-0.000528407
0.000142538
4.3776e-05
7.83024e-05
1.28411e-06
1.79313e-06
-3.07627e-06
-5.0359e-05
-1.57549e-05
6.61184e-05
1.6403e-06
5.11088e-06
-0.00107325
0.00153461
0.000104098
-2.847e-05
-7.56276e-05
-2.62862e-06
2.41545e-06
2.13849e-07
0.000256091
1.25446e-05
-3.56333e-05
-2.12267e-05
5.68598e-05
-1.71434e-05
2.95819e-06
1.5209e-07
1.29402e-06
1.04041e-06
-1.51977e-07
2.21531e-05
2.91621e-06
-7.68661e-07
-2.14765e-06
7.37715e-05
-3.08925e-05
-4.28795e-05
-0.00024939
-0.00031946
-8.49123e-07
6.57087e-07
-1.64434e-06
5.85194e-07
1.05906e-06
-0.00233459
0.00179393
-7.79056e-07
-1.84881e-06
-0.000160149
8.07887e-05
-7.65327e-07
-6.84707e-07
-7.36358e-07
2.65458e-07
4.71138e-07
2.98816e-07
6.21128e-07
-9.19582e-07
-0.000135496
0.000508762
-2.71254e-07
-9.2748e-07
-0.000893181
0.00051959
0.000373596
2.24061e-05
-7.27655e-05
2.75438e-08
-5.46191e-08
1.87534e-06
-6.67974e-07
-1.20736e-06
1.41788e-06
-1.03245e-06
-6.0837e-05
1.15982e-05
7.57166e-05
9.85145e-06
-5.26444e-06
-4.58733e-06
5.85359e-06
6.13617e-06
-1.19878e-05
1.03546e-06
9.18465e-07
8.92077e-05
-0.000216268
0.000193442
-0.000215118
2.16701e-05
-1.12555e-06
-7.2264e-06
-3.13622e-06
1.329e-06
1.80742e-06
-1.27037e-06
1.25128e-06
1.92865e-08
-1.12573e-05
0.000921817
0.000132617
6.37527e-05
-0.000196376
-2.58962e-07
3.521e-06
1.30373e-06
-4.82473e-06
3.02342e-06
-1.18486e-06
-1.83873e-06
-2.63724e-06
1.7101e-07
2.46625e-06
9.25267e-07
-1.53692e-06
-1.41036e-06
1.19767e-06
-0.000200961
0.000287635
0.00105717
-0.00134482
6.80832e-07
-1.41069e-07
0.00058345
-0.000675575
9.20663e-05
-9.72204e-05
4.50466e-06
-7.33432e-07
7.16941e-07
3.78764e-06
-0.000958272
0.00043688
0.000521387
0.000275422
0.000122122
5.28539e-05
-0.000100961
4.81086e-05
0.000409349
-0.000215912
2.48727e-07
6.91931e-07
-5.2855e-06
7.24584e-06
-0.000216445
-5.35869e-05
0.000275757
0.000221177
1.38568e-06
-1.14074e-06
-2.44723e-07
9.66468e-07
-1.08234e-06
1.16047e-07
-3.6087e-07
-1.80426e-06
2.16539e-06
5.85352e-08
-4.87647e-07
-7.43846e-05
5.86262e-05
0.000111517
-1.21856e-05
6.02379e-06
3.82743e-06
1.29915e-06
-6.93975e-06
5.91049e-06
-4.61109e-06
1.25224e-06
-4.13286e-07
-8.38934e-07
2.01839e-06
2.33504e-06
-0.000106713
8.49634e-05
2.17517e-05
-1.27399e-07
-1.16367e-07
-0.00046103
0.000190529
-6.76919e-07
9.759e-07
0.00242314
4.7404e-05
-0.00247053
0.00064647
-0.000361461
-0.000285025
1.46701e-06
2.13228e-07
0.000704377
0.000144761
-0.00084909
1.33406e-06
1.8573e-06
5.02403e-07
-3.17684e-07
0.000589528
-0.00102395
0.000434422
1.20637e-06
-1.53425e-07
-1.05269e-06
3.68203e-06
2.52963e-05
1.05476e-08
-1.09072e-06
1.08025e-06
4.44774e-06
3.24131e-07
-4.77198e-06
3.77902e-07
-4.95461e-07
1.17584e-07
4.21402e-06
-4.40173e-06
1.87595e-07
5.23206e-07
-1.89552e-06
1.37239e-06
-0.000368745
5.49912e-07
-1.05289e-06
5.03039e-07
1.1966e-07
-9.37946e-07
8.18373e-07
-3.72315e-07
3.57016e-07
1.54118e-08
3.39085e-07
2.6175e-07
-6.00606e-07
0.000526823
0.000119635
-0.000127217
0.000198172
-7.09567e-05
-9.71717e-06
5.00497e-06
-0.000258223
0.000131003
4.53291e-07
-3.50445e-07
2.01697e-05
-3.74927e-05
0.000603472
-0.000188758
-0.000414707
8.46029e-07
-3.29352e-07
-5.16404e-07
-2.55259e-06
-1.00999e-05
-1.82758e-05
-1.01696e-06
-6.2738e-07
3.00616e-08
-1.33881e-07
9.86295e-06
-3.16921e-06
-0.000532266
-0.000360913
4.39376e-05
-2.64952e-05
3.1031e-05
1.15309e-07
1.30825e-06
8.3517e-06
1.89002e-06
-1.92955e-06
3.933e-08
-0.000362905
-0.000273758
3.80547e-07
-8.21769e-08
2.18023e-05
-5.20507e-07
8.60543e-07
-3.39943e-07
-3.02522e-08
9.8929e-07
-9.58865e-07
-2.03596e-07
-4.93165e-07
6.96759e-07
7.48064e-07
9.9355e-07
-0.000314765
0.000400548
-5.3038e-05
2.81185e-05
-0.000181393
1.32976e-07
1.03114e-06
-3.08356e-08
2.94701e-06
0.000422018
-0.000532533
0.000110505
1.47379e-06
-7.06927e-07
9.56e-07
-5.32004e-05
3.19098e-05
2.12902e-05
-0.000186188
-2.18135e-05
0.000207995
5.15597e-05
-6.18132e-05
-2.11985e-07
1.7018e-07
4.18373e-08
-0.000928425
0.000135804
2.16216e-05
-9.24661e-06
-1.23756e-05
2.53698e-07
-1.40802e-06
1.15451e-06
2.49124e-07
-1.4132e-06
1.16406e-06
-5.12719e-05
-7.67382e-05
1.16354e-06
7.55755e-05
-6.4907e-07
-9.55659e-05
0.000120756
-2.5188e-05
0.000565917
1.75095e-05
1.20517e-05
-1.1778e-05
4.0775e-08
-3.36301e-07
2.95568e-07
1.79621e-06
-1.18964e-06
-6.0666e-07
-8.48781e-07
9.68515e-07
5.7219e-06
-8.01096e-05
1.75531e-05
7.28448e-06
-2.48368e-05
-7.50451e-07
-1.65984e-07
8.69163e-06
2.20997e-06
4.67243e-07
2.3761e-07
-7.04832e-07
-2.27122e-06
-1.27525e-06
-7.26159e-07
-6.73885e-07
3.14638e-07
5.47038e-06
-1.40695e-06
2.66267e-07
2.95461e-06
6.18452e-08
-3.01653e-06
1.73938e-05
6.27783e-06
-0.00012565
0.000586537
-0.000460903
9.02561e-06
-0.000195031
-0.000232814
-2.11448e-05
1.11895e-06
1.43457e-06
-2.16137e-05
-9.42846e-06
2.72092e-07
-0.00010923
-0.000104807
-2.22413e-05
-5.27039e-05
7.49451e-05
-7.38019e-07
7.2732e-07
-1.42183e-05
-1.40499e-05
9.12318e-07
-6.18161e-06
5.26899e-06
-2.55361e-06
1.51559e-06
1.03884e-06
1.13293e-05
-9.86351e-06
-1.4641e-06
5.52753e-07
-3.15188e-07
0.000703712
-0.00120655
0.000502835
2.93774e-07
2.75e-07
0.000192851
-0.000165871
-2.69808e-05
1.17654e-05
1.65006e-05
2.9817e-07
2.55772e-07
-5.54089e-07
-3.39397e-07
-4.37249e-08
3.83998e-07
0.000106191
1.4712e-05
-0.000120905
-2.44485e-07
5.7556e-07
-3.30904e-07
0.000237263
-0.000360747
0.00012347
-0.00012683
2.01211e-05
0.000464453
-0.00153771
0.00036831
-2.13593e-05
-3.16787e-05
1.10737e-06
1.72562e-05
-5.13178e-06
-1.21241e-05
-1.18551e-06
-6.95791e-07
1.56365e-07
-8.96586e-07
7.40534e-07
-0.000150471
0.000609601
-1.04426e-06
1.29811e-06
-1.04144e-05
1.15912e-05
4.2241e-07
-0.000810942
8.82386e-07
-3.62211e-08
2.02724e-06
-1.74539e-06
2.51611e-07
-5.49061e-07
-1.09121e-05
8.46369e-07
1.00672e-05
8.3034e-06
-0.000275546
0.000310823
-3.52867e-05
2.18208e-05
4.99465e-05
5.36872e-07
-4.07736e-07
-1.00278e-07
-6.26219e-08
-3.61726e-05
-4.20368e-06
0.000221295
0.000684037
-1.17211e-06
1.89893e-06
-9.61824e-07
9.31749e-07
-5.82509e-07
5.97242e-07
-1.46432e-08
6.93605e-06
6.16399e-07
-1.16537e-06
5.48824e-07
-0.000367161
-0.000656796
7.88016e-07
-1.45185e-07
-6.42686e-07
-2.94749e-05
3.31617e-06
2.61584e-05
0.00053118
-0.000267901
-0.000277553
0.000161067
0.000116489
-2.50508e-06
-8.2195e-08
-8.0127e-07
8.11842e-07
-1.31242e-06
4.49372e-07
8.63114e-07
1.31714e-06
-7.40575e-07
3.42586e-05
-0.00083728
0.000803019
3.77641e-05
7.12471e-05
6.76798e-05
-1.27125e-05
-6.11959e-05
7.39105e-05
6.11896e-06
1.16559e-05
0.000323536
9.8457e-05
4.20225e-07
8.32035e-07
7.40675e-07
-3.10535e-07
7.1472e-06
-2.87147e-05
2.15722e-05
9.68271e-07
3.47942e-06
-3.48269e-07
1.68974e-06
-6.26428e-06
-3.80985e-06
1.00741e-05
0.0003903
-9.43337e-05
7.08454e-07
1.65646e-06
0.00101845
3.63246e-05
-0.00105476
-2.41418e-06
-2.22937e-07
0.000300953
9.44674e-05
-0.000395401
6.42014e-07
6.11047e-07
-1.25276e-06
-7.25105e-05
4.16172e-05
1.7665e-05
-3.99076e-05
-4.30987e-05
-7.20034e-05
0.000105249
-3.32375e-05
-0.00010869
-4.52095e-05
2.26406e-05
-4.17987e-06
-1.84604e-05
-0.000336807
0.000637771
-6.64419e-07
-1.53838e-06
-1.598e-06
-1.17059e-06
2.006e-07
9.69789e-07
-0.000314532
0.000206481
0.000108072
-1.82999e-07
2.70271e-07
-0.00303856
0.00434835
-0.00130981
2.09146e-05
-6.96222e-05
4.86708e-05
5.20597e-06
-1.3315e-05
8.10925e-06
5.24028e-07
-7.55984e-07
-8.03819e-07
3.37422e-07
4.66346e-07
0.000367978
-4.44411e-05
-1.1205e-06
-1.64268e-07
-5.7775e-07
1.86222e-06
2.91798e-07
-9.11457e-09
-2.826e-07
0.000157192
-0.000530199
0.00037301
-0.000494896
-0.000156961
0.00065184
-0.000115054
5.04014e-05
-8.5943e-05
3.55406e-05
-3.56139e-06
-4.49346e-06
4.88417e-07
-1.16516e-06
-0.000131199
3.56339e-05
-0.000115125
6.4357e-06
-0.000864725
-0.000560122
4.60061e-06
-4.58182e-05
2.81848e-06
-1.57969e-06
-1.23885e-06
0.000254811
0.00023205
-0.000486862
-6.89352e-07
5.08291e-07
-4.54125e-06
4.3116e-06
-8.51018e-06
6.96697e-07
-8.4935e-07
1.52739e-07
0.000147922
0.000455552
-4.45142e-05
0.000163043
-4.62256e-05
-0.000116816
3.72059e-05
3.06934e-06
4.08005e-06
-0.00101961
-8.2893e-05
0.00110251
1.63101e-06
3.8904e-07
-2.02113e-06
0.00130516
0.000963864
-1.37346e-07
-7.46231e-08
-0.000963993
0.000706394
0.000257611
3.59892e-05
1.76236e-05
-5.36186e-05
-6.05067e-06
7.21942e-07
0.000506888
-0.000913274
0.000406375
0.000294412
-3.21821e-05
-0.000107538
-0.000161176
0.000268734
7.31795e-07
-1.3664e-07
-5.95046e-07
1.13788e-05
5.01489e-05
0.00013457
-0.000216671
8.21206e-05
6.538e-07
6.93952e-07
-1.96061e-06
1.26669e-06
-1.99154e-07
1.46713e-07
5.24736e-08
-4.05822e-07
7.28228e-07
5.35494e-07
-1.57584e-07
0.000372741
9.59497e-05
-0.000468689
1.7267e-06
1.63252e-07
1.27277e-06
-6.75812e-07
-5.9698e-07
-1.19848e-05
6.85292e-07
6.55944e-08
-7.50651e-07
-1.18109e-05
4.17017e-06
-2.7252e-07
2.3734e-07
1.11769e-05
1.52252e-07
-1.57932e-06
2.28769e-06
-0.000284761
-0.000528848
6.48237e-07
-6.848e-07
3.6688e-08
8.46049e-05
-0.000339268
0.00027502
6.42507e-05
-4.77299e-05
5.85751e-05
-0.000377064
0.000318501
-3.42023e-06
1.05103e-05
0.00178689
0.000636273
9.54039e-07
0.00010524
-0.000434153
0.000113639
0.000320513
3.25253e-05
-5.73127e-05
-6.70744e-07
2.4449e-07
0.000555079
-0.000287193
-0.000267891
1.2071e-06
-9.97855e-05
-1.17455e-06
-5.81032e-06
4.50179e-06
0.0002908
-0.00121829
0.00107161
0.000146691
-6.29943e-05
5.02818e-05
-8.70938e-08
-1.23736e-07
-3.06251e-06
3.48416e-06
-4.21678e-07
3.19385e-05
4.23028e-05
-7.42425e-05
1.96373e-06
-1.26984e-06
-0.00145424
0.000617312
0.000836929
-4.55581e-09
-1.51331e-06
1.51776e-06
-0.000128425
-4.10245e-05
0.000169441
-4.49498e-05
9.31625e-06
8.206e-07
0.000189717
0.000570427
-5.01719e-07
4.37996e-08
4.58097e-07
-3.21679e-05
-0.000244745
0.000276906
0.000266664
-0.000740996
0.000474339
-1.94663e-07
-1.84433e-07
3.79139e-07
-6.11096e-07
-9.57393e-07
1.56838e-06
-0.000211685
-4.75943e-06
-4.84265e-07
9.72766e-07
-8.80152e-05
2.1701e-05
6.63148e-05
0.000167652
-3.30677e-05
5.78127e-07
-7.81747e-07
0.000259598
-0.000140207
-0.000119393
-2.18278e-06
-4.16236e-06
6.3456e-06
-2.30305e-05
1.88573e-06
9.07206e-07
-1.51814e-06
-3.25982e-08
-1.62016e-07
1.8849e-07
-1.88471e-07
-9.14259e-05
5.42823e-05
-2.48842e-05
-2.94037e-05
4.52216e-08
-8.10459e-07
7.65433e-07
-1.88809e-07
8.85496e-07
5.82677e-06
-1.96949e-06
-3.85754e-06
0.000212262
-0.00143055
-2.42546e-05
5.01772e-07
-6.76753e-07
9.76352e-07
-4.74142e-07
1.02408e-06
-5.07788e-09
-1.47262e-06
1.47769e-06
-5.08964e-07
3.81548e-07
1.25796e-05
-7.37337e-06
6.6967e-07
-1.41999e-06
7.50549e-07
-0.000282891
0.00030382
0.000553403
-0.00145691
0.000903489
2.1193e-05
7.06973e-06
-2.8263e-05
5.41344e-05
-2.57539e-06
2.72653e-06
-7.71165e-07
-1.95382e-06
2.81728e-07
7.38262e-07
1.24166e-06
-1.58232e-06
3.40679e-07
-0.000308452
-0.000655538
-9.09336e-06
1.88548e-06
-4.44125e-06
-5.48943e-05
-0.00169068
0.00215513
2.37444e-08
3.89403e-07
-0.000422058
-6.68018e-06
-4.3862e-07
-0.000117108
6.98154e-05
4.72913e-05
-1.11207e-06
-5.85733e-08
0.0003822
0.000124706
1.06338e-06
-9.60834e-07
-1.02351e-07
-1.29283e-06
1.68888e-06
5.54667e-07
1.49578e-06
-2.05073e-06
-7.00655e-07
2.26415e-08
6.78114e-07
0.000113441
-8.15201e-05
8.54952e-06
-1.1296e-05
2.74634e-06
-1.8193e-05
5.07181e-05
4.74037e-07
6.14906e-08
0.000427159
-0.000459328
2.19102e-07
5.37127e-05
4.18428e-05
0.000193614
-5.40366e-07
2.59021e-07
2.81447e-07
-0.000180184
0.000198822
-1.8639e-05
6.37958e-07
-4.08239e-07
-2.29662e-07
2.12466e-07
-4.56887e-07
-5.34714e-07
-2.69103e-07
-1.15332e-08
-2.12245e-07
1.63585e-06
-3.94198e-07
-4.29624e-07
-4.81016e-07
9.10597e-07
-2.58716e-07
7.2596e-07
2.47497e-07
3.72242e-07
1.7457e-09
-6.96438e-07
6.94806e-07
-7.1301e-07
1.4321e-06
-4.68097e-05
5.8189e-05
0.000122101
-6.78188e-05
1.34516e-06
-1.38782e-06
4.23585e-08
0.000289092
-3.30036e-05
-1.10693e-07
1.10701e-07
2.11316e-06
-7.30801e-06
7.68888e-06
1.94795e-06
-9.17519e-05
1.06373e-05
8.11156e-05
7.72486e-05
-0.000144939
6.76816e-05
0.000831531
4.99735e-07
4.96281e-07
-9.9576e-07
-1.96732e-06
1.22515e-06
7.03031e-05
6.23072e-05
2.18541e-06
-2.14612e-07
3.48722e-07
-1.34081e-07
-8.32756e-06
5.49709e-07
2.79869e-06
-2.56402e-06
2.05087e-06
-1.21509e-05
1.01007e-05
4.79361e-05
-7.34911e-05
2.55582e-05
-9.15776e-07
9.18747e-08
8.2394e-07
1.5854e-05
-5.77921e-06
-1.00743e-05
-0.000440507
0.000658527
-0.000218015
1.5714e-07
-9.58356e-07
0.00010918
0.000301188
-0.000410372
6.60582e-07
-1.68825e-06
1.02804e-06
8.23525e-05
-0.000195409
0.000113061
4.50634e-06
-5.63151e-06
3.46662e-06
6.39623e-06
1.15542e-06
-6.23465e-05
0.000600464
-0.00206307
-1.02236e-08
-4.91465e-07