/*--------------------------------*- C++ -*----------------------------------*\
| =========                 |                                                 |
| \\      /  F ield         | OpenFOAM: The Open Source CFD Toolbox           |
|  \\    /   O peration     | Version:  v2012                                 |
|   \\  /    A nd           | Website:  www.openfoam.com                      |
|    \\/     M anipulation  |                                                 |
\*---------------------------------------------------------------------------*/
FoamFile
{
    version     2.0;
    format      ascii;
    class       volScalarField;
    location    "400";
    object      k_0;
}
// * * * * * * * * * * * * * * * * * * * * * * * * * * * * * * * * * * * * * //

dimensions      [0 2 -2 0 0 0 0];


internalField   nonuniform List<scalar> 
13749
(
9.8128e-05
0.000153502
0.000121698
0.000103431
0.000106198
0.000110276
0.000159741
9.0916e-05
0.000119356
0.000103183
0.00011443
0.000125946
0.000106007
0.0198595
0.025992
9.1539e-05
0.000113192
0.000193221
0.000122942
0.000131554
0.0317881
0.0259466
0.0167167
0.000118238
0.000106445
0.000101855
0.000100816
0.000102763
9.62017e-05
0.000110829
0.000856381
0.0171307
0.000110059
9.84462e-05
0.000104575
9.74579e-05
0.00012043
0.000110965
9.75184e-05
0.000101252
0.000110301
0.0133481
0.000109675
0.000110482
0.00020248
0.000100582
0.000126072
0.000119524
9.88703e-05
0.0586756
0.000119272
0.0336415
0.000101643
0.00234012
0.000107215
9.89856e-05
0.000105914
0.000109932
0.000102967
0.0128464
0.000109032
0.000100763
0.0164243
0.000126697
9.96423e-05
0.000110393
0.000118848
0.000111238
9.20579e-05
0.000100387
0.0214656
0.000107081
0.00868406
9.98619e-05
0.000190817
0.00017379
9.31174e-05
0.000103179
0.000105545
0.000145536
9.73522e-05
0.000107155
0.000118564
9.60524e-05
0.00011147
0.000158571
0.0234438
0.000284539
0.000105126
0.000118679
0.000107956
0.00332708
9.95817e-05
0.00682382
0.00040841
0.000116281
9.53425e-05
0.000130466
0.000106449
0.000110508
0.0280802
9.81369e-05
9.42928e-05
0.0262169
0.000144891
0.0265896
0.000121303
0.000119002
0.000118616
0.00012416
0.00012508
0.000109642
0.000123361
0.128941
0.0320681
9.59552e-05
9.82656e-05
0.000107021
0.000115647
0.000101647
9.10006e-05
0.000142224
9.52477e-05
9.36321e-05
0.000106894
0.0219842
0.000110217
0.0340918
9.73947e-05
0.00835705
0.000102554
0.0237708
0.0270667
0.0015587
0.000105131
0.000112018
0.000200276
9.83846e-05
9.46183e-05
0.0357029
0.000118228
9.83791e-05
9.74816e-05
0.0613963
0.000105323
0.0224723
0.000103887
0.000113848
0.000115342
0.000129458
0.000105477
9.69116e-05
0.0272584
0.0050647
9.26847e-05
0.023641
0.000103569
0.000106945
0.00015927
0.000117369
0.119779
0.000119964
0.0473529
0.00011022
0.0001307
0.000112484
0.000237353
0.000122299
0.000110581
0.000106385
9.76837e-05
0.000123951
9.83679e-05
9.65669e-05
0.000111988
0.000170017
0.000188568
9.27604e-05
0.0341265
0.0367393
0.000146034
9.80177e-05
9.60084e-05
0.000868174
0.00349009
0.000111779
0.060464
0.000103259
0.0103229
0.000108603
9.62067e-05
0.0175898
9.1764e-05
0.000130505
0.0566251
0.000158289
0.000109389
0.0800573
9.61633e-05
9.75398e-05
9.48179e-05
0.000114996
0.000106852
0.0001091
0.015902
9.66998e-05
0.000103959
0.000131693
0.00279498
0.000125647
9.57773e-05
0.0176903
0.0136379
0.000314585
0.000101429
0.000128574
0.0154089
0.000102489
0.0157981
9.6685e-05
0.0360162
0.000109219
0.00222678
0.0189571
0.000110473
0.00490858
9.66913e-05
0.000119857
0.0140904
0.0154031
0.000123903
0.000149027
0.000140927
0.000126482
0.0238347
0.000106766
0.000137764
0.00282046
0.000132273
0.000113374
0.00010607
0.0237913
0.00736029
0.000140202
0.000114285
0.0574439
0.000107451
0.0147886
0.000100061
0.000123763
0.0553922
0.000111823
0.000111155
9.95827e-05
0.000122666
9.79435e-05
0.000119455
0.0406513
0.000159977
0.10897
9.44424e-05
0.000112396
0.000119773
0.000101901
0.000114644
0.000197975
0.00102916
0.000102265
0.000142904
0.000122483
9.43028e-05
0.0303687
0.000122913
0.0623973
0.000103298
0.021688
0.014878
9.65414e-05
0.000121332
9.61873e-05
0.000112888
0.00010047
0.0019643
0.0398634
9.90739e-05
0.00011506
0.000105131
0.000102568
0.00797077
0.000105949
0.00181507
0.000100056
0.0150985
0.000114287
0.0228984
0.00234336
0.000128739
9.76516e-05
9.65067e-05
9.82975e-05
9.3297e-05
0.000104737
9.65246e-05
0.0490761
9.68965e-05
9.41726e-05
9.4793e-05
0.000131175
9.21146e-05
9.696e-05
0.0263767
0.000110484
0.000100975
0.0337665
9.46772e-05
0.000106209
9.4438e-05
0.0243165
0.000101287
9.36614e-05
0.000248026
0.0101813
0.000104619
0.0001492
0.0408041
0.00014664
0.000104892
9.6128e-05
0.000116436
0.000114377
9.65096e-05
0.00012703
9.32048e-05
0.000102678
0.000101294
9.47244e-05
0.00010014
0.000100904
0.000116751
0.000110829
0.000129451
0.000878701
0.000102096
0.00841374
0.000125404
9.45365e-05
9.35681e-05
0.0001129
0.00010318
0.00011765
0.000108144
0.000107939
0.117238
0.112457
0.000100574
0.000106883
0.000112507
0.000681148
0.000115914
0.0020571
0.000124424
0.000148464
0.000100211
0.0338716
0.000122032
0.000116066
0.000114608
0.0252888
0.027187
0.000129386
0.0231635
9.83008e-05
0.00011177
0.000146756
0.000116624
9.88811e-05
0.000115481
0.0892126
0.000162459
9.56681e-05
0.000142155
0.000129871
0.0262952
0.00011274
0.000146139
0.000101652
0.0156428
0.000109679
0.000117697
9.41613e-05
0.000202252
0.00168248
0.0608331
0.000107232
0.000108805
0.00257328
0.128376
0.000776425
0.000131881
0.0047058
0.000119591
0.000111848
0.000126835
0.000140209
9.21491e-05
9.90048e-05
0.0182945
0.000133694
0.000133362
0.000102752
9.60038e-05
9.47469e-05
0.000131432
0.0362006
0.000114815
0.000143132
0.0241611
0.0240439
9.72218e-05
0.000116538
0.000116536
0.000110608
0.00830714
9.39903e-05
0.00143361
0.000119567
0.000134935
0.0908456
0.0168919
0.000159781
0.000239057
0.000145797
0.000141868
0.000115006
0.00328425
0.000100262
9.88659e-05
0.000100166
0.000111123
0.0460926
0.000119598
0.000113346
0.000147531
9.58777e-05
0.000102871
9.48594e-05
0.000117379
0.000335478
0.000125713
0.000173568
0.00163594
0.00011039
0.0275038
0.000100128
0.0648031
0.000100313
0.000103078
0.000104152
0.0243147
0.000130085
0.00012838
0.000148585
9.3878e-05
0.0287674
9.76709e-05
9.43505e-05
0.000149703
0.000296939
0.128448
0.000110588
0.00789313
0.000117811
0.000247183
0.0258207
0.000109793
0.000116953
0.0001272
0.000115184
0.000123424
0.00011364
0.000103044
9.16929e-05
9.56717e-05
0.0145606
0.017515
0.00287547
0.0427779
0.0161943
0.000105164
9.4665e-05
9.6092e-05
9.15874e-05
0.00012619
0.000100845
9.59367e-05
0.000102333
0.0617902
0.000100138
0.126044
0.00010726
0.000113851
0.0188352
9.3397e-05
0.00314848
9.9868e-05
0.0174604
0.000120052
0.000140607
0.000110938
0.000102662
0.000146145
9.6413e-05
0.000104309
0.00879909
9.38632e-05
0.0364636
0.000111292
0.0145525
0.000102397
0.000122293
0.0143174
0.0345727
0.000109291
0.000119655
0.000110269
9.18567e-05
0.000124502
0.000100481
0.000102439
0.000131609
0.000107622
0.000494023
0.00011236
9.43678e-05
9.57149e-05
0.000110392
0.000121122
0.0135038
0.0154016
0.0240427
0.0114514
0.00928689
0.000168356
0.00236795
0.0655157
0.000114916
0.000107198
0.0188462
0.0318514
0.0114835
0.000113183
0.000112463
0.01645
0.000107256
0.000103706
9.63998e-05
0.00012468
0.000101221
9.21091e-05
0.0279168
0.0189347
9.74616e-05
9.3568e-05
0.00366844
0.000112737
0.0453823
0.000129312
0.000126075
0.000102913
0.000216023
0.000142916
0.000344543
0.018623
0.000127295
9.59138e-05
9.49898e-05
0.035923
0.0273043
0.0001021
0.000112425
9.89843e-05
0.000139791
0.066404
0.000109612
0.000106673
0.000147077
0.0455336
0.0129862
0.000119098
0.000102562
9.78622e-05
9.33371e-05
0.000105327
0.000108907
0.0218751
0.0121433
0.00010356
0.0520542
0.0636137
9.29939e-05
9.30631e-05
0.0150273
0.000203804
0.0239949
0.0810711
9.78692e-05
9.97036e-05
0.0355832
0.0645469
0.000147081
0.000111843
9.49191e-05
0.000108083
0.0206033
0.000115373
0.000102274
0.000107368
0.000107068
0.00011364
0.000100702
0.000239147
0.000117427
0.00147228
0.000102779
0.00119652
0.074551
0.000144212
0.00719259
9.19577e-05
0.000117355
0.0153916
9.71574e-05
0.000122344
0.000112569
9.3883e-05
0.000122594
9.31079e-05
9.50185e-05
0.0165809
0.000102584
9.78138e-05
0.000117551
0.000110481
0.0755372
0.000171057
9.55015e-05
0.000169484
0.000109118
0.0184365
0.0268494
9.42613e-05
9.68052e-05
0.000119303
9.34035e-05
0.000127872
0.000100286
0.000316452
0.0228977
0.000129302
0.000146335
9.97885e-05
0.000132128
0.000144998
0.0002216
0.00012687
0.0249719
0.000105306
0.000111972
0.000134334
0.000100701
0.0237612
0.000139443
0.00175881
9.5099e-05
9.21959e-05
0.000331141
0.000110277
9.80071e-05
0.0147718
0.0153414
0.000193886
0.000118377
0.0349626
0.000115281
0.00011878
9.35077e-05
0.000174854
0.000126218
9.6783e-05
0.0259687
0.0591219
0.000105387
0.000106154
9.92688e-05
9.74415e-05
0.0221791
0.000114628
9.74173e-05
0.000109999
0.00010445
9.99204e-05
9.44631e-05
0.000106641
0.000102739
0.000145878
9.27496e-05
0.000111989
0.0215526
0.00011329
0.000244813
9.6488e-05
0.000110891
0.0212706
0.00010377
9.32846e-05
0.00587061
0.0211251
0.000130547
0.0170312
0.000101919
0.000107369
0.000111626
0.000109276
0.100539
0.00011217
0.000133037
0.0131049
0.000109041
0.000107845
0.000156927
0.000107752
0.000299582
0.000251895
0.00995181
0.00685494
0.000135809
9.5121e-05
0.00010662
9.87823e-05
0.000103438
0.018207
0.000118571
9.65286e-05
0.000116835
0.00111892
9.44089e-05
0.000114435
0.00010849
0.000109723
0.000116697
0.0258972
0.000126894
0.000106896
0.000117642
0.000130808
0.0069778
9.62301e-05
0.000111428
0.000105005
0.000102029
0.000101921
0.0171048
0.000143161
9.99069e-05
0.00300687
0.0244773
0.000147147
0.000112118
0.000137239
0.000105912
0.00705255
0.0150379
0.0259251
0.000144482
0.000112256
0.0261044
0.000113519
0.000105767
0.000179956
9.40006e-05
0.00010143
9.47453e-05
0.0140409
9.23667e-05
0.0241655
9.3138e-05
0.0789562
0.000123113
0.0244412
0.0184827
0.0238751
0.0152912
0.000169401
0.000100454
0.0786707
0.000104671
0.00010672
0.000127864
0.000325642
0.000116696
0.0506498
0.000219762
0.000111076
0.000110281
0.000109987
0.0261828
0.000106302
0.000107139
0.000119007
0.0215665
0.000335751
0.000153324
0.000129297
0.0282669
0.000102333
0.0228794
0.000177206
0.00616448
9.55724e-05
0.000130913
0.000110304
0.000315519
0.000123721
9.52606e-05
0.00012284
0.000112613
0.02674
0.0243382
0.0163534
0.0259896
0.000185965
0.0132437
0.000112827
0.00220887
0.000117931
0.0020862
0.000308771
0.000102378
0.000738321
0.000252201
0.000321355
0.000122519
0.000136025
0.090646
0.00012285
9.6314e-05
0.000118496
0.000127391
0.000122058
0.0226996
0.000144066
0.000101683
0.000133665
0.00013159
9.63517e-05
0.000107863
0.000111639
9.24077e-05
0.000423536
0.000133935
0.00022653
0.0507282
0.000129473
0.000171425
9.95336e-05
0.00128491
0.000153573
0.0218565
0.000132445
0.000131867
0.0725265
0.000110198
0.0213131
0.000102628
0.000337603
0.00350874
0.000141164
0.000148423
9.24799e-05
0.0179911
9.61099e-05
0.00816659
9.73286e-05
0.00163498
0.000107021
0.000169254
0.0207804
0.000109
0.0257773
0.000900061
0.000116539
9.67187e-05
0.0356042
0.000102273
0.000127171
0.0904244
0.000133936
0.000145455
0.000105308
9.72115e-05
9.6842e-05
0.000116697
0.000149214
0.00012674
0.0251303
0.000111017
0.000112249
0.00011023
0.0027072
0.000111702
0.00012993
0.000102255
0.000102242
0.000146173
0.000117732
0.000111067
0.000107965
0.000222288
0.00203207
9.78226e-05
0.00016954
0.000113247
0.000142124
9.51447e-05
0.00200543
0.000111013
0.000123423
0.00629946
0.00014677
0.0003261
9.80004e-05
0.000115108
0.000128175
0.000733228
0.000109162
0.00014509
0.000112314
9.26451e-05
0.000113315
0.000101135
0.000127213
0.000122603
0.0254574
0.000148077
0.0116241
0.0740728
0.000131172
0.0567731
0.000108781
0.000108192
0.000110085
0.000148166
9.52254e-05
0.000118704
0.000104259
0.000118624
9.93621e-05
0.00011056
0.000136389
0.024929
9.83676e-05
0.0145863
0.000149263
0.000113999
9.62516e-05
0.000112953
0.0213371
0.0250659
0.0849805
0.000105259
9.17075e-05
0.0141569
0.000112521
0.000130073
0.000115284
0.000108727
9.31312e-05
0.0246659
0.000130199
9.7553e-05
0.000105543
0.000327058
0.000111701
0.000267908
9.83018e-05
0.0448822
0.000109376
0.000100275
0.000143313
0.00954698
0.000108305
0.000357779
0.000111164
0.000115408
0.000157249
0.000146986
0.000129428
0.000118927
0.000122009
0.000106585
0.034952
9.73372e-05
0.0380575
0.0444445
0.000111308
0.00032814
0.0329021
9.98363e-05
0.000110116
0.107119
0.0001836
0.0162001
0.000167601
9.96177e-05
0.000310848
0.000132511
0.0253835
0.00012048
0.119185
0.000126656
0.0303793
0.000118301
0.0265857
0.00161223
0.000301865
0.000121958
0.0140829
0.00474112
0.000101706
0.0141906
0.000110227
0.00672917
9.90236e-05
0.0161081
0.000146727
0.000114289
0.00013137
9.96529e-05
9.47688e-05
0.000130142
0.000240095
0.000110457
0.000209667
0.000122798
0.000128799
0.0203863
9.61624e-05
0.000102123
0.0368487
9.42438e-05
0.000107444
0.000110934
0.024619
0.000109336
0.128319
0.00012972
9.58855e-05
9.2571e-05
0.000108151
0.000140535
0.0504403
0.000113829
0.00011682
0.00011362
0.000137764
0.000144742
9.47277e-05
0.000127606
0.000105019
0.0169685
9.18102e-05
9.21342e-05
0.000346704
9.77682e-05
0.000100844
0.000107799
0.0348189
0.000107604
9.85449e-05
0.0153735
0.000131739
0.000117941
0.0137201
0.000140171
9.49639e-05
0.00011053
0.00010536
9.93846e-05
0.000110383
0.000112337
0.000107322
0.023435
0.024945
0.000105203
9.45594e-05
0.0159469
9.6032e-05
0.000110233
0.000882328
0.000137137
0.000115615
0.00893506
0.000294395
0.00121498
0.000106111
0.000124048
0.000103885
0.000121547
0.0001166
0.0001107
0.000134106
0.000124821
0.0261187
0.000137766
0.000146135
0.000106516
0.000103891
0.000105526
9.95473e-05
0.0904057
0.000127646
9.29111e-05
0.105752
0.000155228
0.000131509
0.000111037
0.000101074
9.22366e-05
0.0826777
0.0123501
9.20481e-05
0.034904
0.000109951
0.0633845
0.000119082
0.0184213
0.000141014
0.0230915
9.2269e-05
0.000122523
0.0995835
0.000130071
0.000110545
0.000131005
0.00184868
0.0987373
0.000155212
0.000126384
0.000148551
0.000120545
0.0770123
0.000121886
9.15222e-05
0.000148113
9.84207e-05
0.000124164
0.000132676
0.000130931
0.00014443
9.49362e-05
9.91181e-05
0.000101894
9.47896e-05
9.37521e-05
0.000110609
0.00010619
0.000105079
0.000119108
0.000108935
0.0346564
0.000113612
0.0530256
0.000120229
9.55131e-05
0.000119549
0.000112066
0.000107613
0.0251739
9.44322e-05
0.000146285
0.000115828
0.00191128
0.0251731
0.000108582
0.000117944
0.000117299
9.7103e-05
0.104194
0.000108359
0.0219225
0.000122069
9.42794e-05
0.000108378
0.000119885
0.0264161
0.000112041
0.000100712
0.000120465
9.9622e-05
0.000112858
0.0154057
0.000109502
0.0634277
0.000114474
0.000107791
0.0167206
0.000146166
0.000118123
0.000106421
0.000106116
0.000281081
0.0040099
0.00011302
0.0232414
0.000135519
0.000101863
0.000120818
0.000149189
0.000109496
0.000111
0.00111455
0.000109442
0.000116742
0.000156938
0.0129096
0.000125279
0.0562556
0.0260079
0.000100474
0.000110488
0.000878302
9.89135e-05
0.000118541
0.0153634
0.000133111
0.000114026
0.000103607
9.91932e-05
0.000107482
0.000147024
0.000110684
9.46616e-05
0.00336247
0.000119959
0.00549818
0.000100533
0.000115022
0.000101971
0.000111291
0.0162881
0.0505743
0.000123713
0.000105655
0.000135602
9.46665e-05
0.000109202
0.0215455
0.000132623
0.0147115
0.000114662
0.00172409
0.0037648
0.000348716
0.000135312
0.000113358
0.000107063
0.000137084
0.000111098
0.00085819
0.000111482
0.000125777
9.46435e-05
0.000100519
0.0184946
0.000124309
9.73398e-05
0.00011862
0.000123372
0.000146995
0.000140049
0.0559065
0.000105219
0.000130268
0.0280384
9.97046e-05
0.000102302
0.000115468
0.000178224
0.000127001
0.000121903
0.000127231
0.000101738
9.61732e-05
0.0132935
9.76994e-05
0.0380247
9.253e-05
0.000108989
0.0177907
9.18892e-05
0.000178857
0.000116328
0.0295721
0.0147134
0.000104763
0.000126907
0.000122294
0.000105087
0.000104518
0.000112014
0.0490859
0.000113352
0.000101919
0.000124811
9.4941e-05
0.000125225
9.49859e-05
0.0141683
9.32445e-05
9.22319e-05
0.000124609
0.000136846
0.000115808
0.00012491
0.0145849
9.99002e-05
9.73862e-05
0.000103228
0.000119625
0.0102948
0.000598369
0.000123989
0.00170431
0.084928
9.96642e-05
9.91436e-05
0.000103543
9.91523e-05
0.0124279
0.0364287
9.59624e-05
0.000114824
0.00011204
0.00013193
0.000130741
0.0380037
0.000129618
0.000129431
0.00010436
0.00920495
0.00010856
0.000108824
0.00483305
0.000127528
9.59375e-05
0.0219967
0.000101585
0.000143233
0.000142991
9.48226e-05
0.000115212
9.51804e-05
0.000116424
0.0149147
0.0875055
0.000119316
0.000102544
9.80947e-05
0.000105763
0.000131729
9.62408e-05
0.000106694
0.000235328
0.000118814
0.0423642
0.000111615
0.000382338
9.41565e-05
0.000108356
0.0271191
0.0980165
0.00012114
0.000131107
0.0925074
0.0334343
0.000111983
0.000105228
9.34657e-05
0.000113603
9.19458e-05
0.000125217
0.11012
0.000144221
0.000121563
0.0132576
0.000126172
0.0185806
9.48389e-05
0.0246851
0.000105867
0.000101229
0.000106724
0.000101427
0.000124764
0.000142306
9.77178e-05
0.000313914
0.0762254
0.0106557
0.000127892
0.000104673
0.000110457
0.0112603
0.000116324
0.029689
0.000334997
0.000102161
0.000294661
0.000104932
0.000131555
0.000138889
0.000146093
0.000229236
0.000149622
0.000101937
0.000104177
0.000120414
0.000144096
9.6023e-05
0.0876188
0.000108348
9.59924e-05
0.0373375
9.57903e-05
0.00943618
0.0161496
0.000116992
0.000127454
0.00011493
0.00226691
0.000203499
0.026646
0.000137911
0.000146774
0.000111281
0.000143305
9.50419e-05
0.0305884
9.33286e-05
0.000110138
9.36563e-05
0.000102522
0.000110609
0.000146864
0.000147013
0.00026087
0.00010196
0.000102846
0.000105599
0.000278192
0.000121929
9.16713e-05
0.000110412
0.0322461
9.2518e-05
0.000129545
0.0084213
0.00011798
0.0326007
0.000768513
0.000112242
0.000126445
9.78905e-05
0.000836214
0.0266988
9.37359e-05
0.000135629
0.000145318
0.00010615
0.0216226
0.000108111
0.0527604
0.000738852
0.000122196
9.2567e-05
0.000128547
0.00011066
0.00072166
9.60827e-05
0.000148449
0.0309339
0.000118647
0.000145064
9.16466e-05
0.000184296
9.51464e-05
9.52107e-05
0.0692544
0.000103632
9.52549e-05
0.000110033
0.00950318
0.000104651
0.0165804
0.0230765
0.000136127
0.000124831
0.000145975
0.000280866
0.000118326
0.000107926
0.00014831
0.000145143
0.000101307
0.000105343
9.80296e-05
0.00904369
0.0793092
0.000147112
0.000107552
0.000129287
0.0258264
0.000104469
0.000292718
0.000103039
0.000133213
0.0644194
0.025671
0.0108552
0.000126671
0.000112273
0.000123759
0.0228756
0.000115718
0.0143571
9.30039e-05
0.028911
9.97135e-05
0.0134893
0.000108067
0.000179883
0.000105284
9.86973e-05
0.000110651
0.000130876
9.19568e-05
0.000146275
0.000204705
9.61592e-05
0.022412
9.22988e-05
0.000100744
0.000109646
0.0429711
0.0400288
0.0155627
0.000120178
0.0301946
0.0157657
0.000110851
0.000257997
0.00177856
0.0702327
0.0262779
0.0297371
0.000120735
0.000800843
0.000127699
0.000256714
0.000114109
0.000128146
0.000151844
0.000465814
0.000123344
0.000109475
0.000109006
0.000112691
0.000121113
0.000123961
0.000147268
0.00015554
9.59153e-05
0.000202951
0.000144064
0.0993284
0.00014822
0.000148205
9.52668e-05
0.000127363
0.000122107
0.000101202
0.000101441
0.000183998
0.000114451
0.000152786
0.000128836
0.000110632
0.00204701
0.0194261
0.000106124
0.000103924
0.000122384
0.000146059
9.69773e-05
0.000109385
0.000132034
0.000114322
0.000111145
0.000105166
0.0021456
0.000105468
0.00900803
0.000133051
0.0010467
0.000133445
9.9213e-05
0.034209
0.000114159
9.23262e-05
0.000107862
0.0512966
0.0197322
9.8086e-05
0.000105959
0.00011235
9.82633e-05
0.000122277
0.000127215
0.000114611
9.72172e-05
0.0026884
0.0446607
0.0259759
0.000135877
0.000137942
0.0216591
0.000147111
0.000109954
0.000314776
0.000132527
0.00221861
0.000127786
0.022445
0.000102648
0.000138073
0.000191944
0.000146272
0.0356856
0.0205978
9.28673e-05
0.000101475
0.000101311
0.000126119
9.67397e-05
9.28813e-05
0.0189989
0.0257329
0.000114204
0.000118123
0.000112302
0.043967
0.0001266
9.71297e-05
0.000131696
0.000101198
0.0031921
9.72216e-05
0.000134206
0.000110469
0.000109732
0.0297039
0.000144389
9.99149e-05
0.000210235
9.84325e-05
0.00108673
0.000293735
9.91591e-05
9.33652e-05
0.000100949
0.0058259
9.25137e-05
0.000103763
0.000138115
0.000126571
0.00017202
0.0441175
0.00109695
0.0590749
0.0225512
0.0759928
0.000100573
0.0269727
9.46852e-05
0.017917
0.000121896
0.055868
0.000121713
0.00607531
0.0301606
0.000102308
0.000106454
0.000112996
0.0395356
0.00173059
0.000232881
0.000111154
9.83418e-05
9.77977e-05
0.000112009
0.0199355
0.000113601
0.000116017
9.46425e-05
9.44286e-05
0.000101449
0.000137127
0.059268
0.000122039
0.000104127
9.14511e-05
0.0955301
0.00010821
0.00011322
0.0262805
0.000104853
0.000146934
0.000136075
8.99345e-05
0.000333933
0.000109334
9.51082e-05
0.000104745
0.128699
0.000124353
0.000110103
0.000114386
0.000101969
0.0171824
0.000113496
0.000168208
0.00695211
0.0393802
0.000103022
0.000109284
9.77731e-05
9.44771e-05
0.0208947
0.0201465
0.0153056
0.000155051
0.0294765
0.118382
0.000128071
0.0231284
9.54013e-05
0.000106716
0.0223728
0.000148349
0.000182806
9.04964e-05
0.0224442
0.00013276
0.0152176
0.000109881
0.0175775
0.000101071
0.000864823
0.000165854
0.000128108
0.000153717
0.00903032
0.000105001
0.000106777
9.93274e-05
0.000917395
0.000111022
0.000121785
0.0998653
0.000109326
0.127229
0.0927952
0.0023635
9.55075e-05
9.50881e-05
0.000199712
0.0177445
0.006071
0.000112455
0.064418
0.000146985
9.07364e-05
9.19989e-05
0.0350168
9.48973e-05
0.000322265
0.000195677
0.00289476
9.07047e-05
0.0669376
0.000172112
0.000139254
0.000112116
0.0669241
0.000110821
0.000120859
0.000102229
0.1032
0.000331366
0.000100912
0.000112921
0.000102695
0.000148458
0.0227943
0.000273485
0.0229434
0.000113353
0.000103636
0.021677
0.000116643
0.00223379
9.51178e-05
0.00012872
9.84326e-05
0.000126142
0.000146051
0.000122531
0.000132769
0.000143881
0.000133139
0.00012014
0.000111441
0.000104578
0.000134626
0.000130909
0.0364136
0.00200678
9.66833e-05
0.00010931
9.41519e-05
9.62548e-05
0.000204494
0.0637334
9.27011e-05
0.0328242
0.00313889
0.000529274
0.0702509
0.0152197
0.0650684
0.0231943
9.92447e-05
0.01925
0.0264918
0.0018788
0.000110556
0.000102317
0.00266905
0.000117523
0.0282855
0.0238099
0.000229688
0.00011519
0.00034225
9.9392e-05
0.000403496
0.00010031
0.000131395
0.000184326
0.000120069
9.43848e-05
0.00522725
0.000111046
0.000113519
0.000110327
0.000118644
0.000111713
0.000109528
0.000104019
0.000331015
9.97565e-05
0.000116729
9.39587e-05
9.25256e-05
9.54658e-05
9.53711e-05
0.000156363
0.0305507
0.0234898
0.000113987
0.00704419
0.000109195
0.000122208
0.000203104
0.000107713
0.00113082
0.00117843
0.0806538
0.000122452
0.000111131
0.0203479
0.0001054
0.00452273
0.0001042
9.48315e-05
0.000121052
0.0135532
9.78103e-05
0.092495
0.0162724
0.000115368
0.000136274
0.000167486
0.000398516
0.03022
0.0172239
0.000206904
0.000104337
0.000107163
0.00114628
0.0279586
9.63126e-05
9.99529e-05
9.63275e-05
0.000110485
0.00011111
0.000132635
0.000121045
9.10792e-05
0.000146079
0.00519151
0.000141915
0.0220106
0.0729329
0.000356482
0.000108783
0.0346452
0.0456665
0.000131018
0.0125451
0.0683912
0.0450787
0.0163594
9.93956e-05
0.000239043
0.000116503
0.000147117
0.000106735
0.00012537
9.74415e-05
9.55866e-05
0.00205501
9.76804e-05
0.000109128
9.14342e-05
0.000467954
0.000110943
9.89802e-05
0.00010635
9.86036e-05
0.015988
0.0259754
9.71162e-05
9.41664e-05
9.88481e-05
0.000105076
0.0501396
0.00010185
0.000107961
0.000115378
0.00302411
0.000112376
0.0244666
0.000138907
0.000111276
0.000109732
0.0395684
0.0258514
0.000113431
0.000184061
0.0289028
0.000110221
0.000109745
0.000110775
0.03162
0.000108167
0.000125793
0.0906001
0.0393885
0.000128983
0.00647276
0.000115458
0.0767922
0.000104632
0.0256774
0.00013267
0.000106116
0.00011222
0.0566953
0.0195487
0.000123052
0.00229131
0.123396
9.71165e-05
0.000100301
0.013778
9.93567e-05
0.000235461
0.000134563
0.0498571
0.00198785
0.000153187
0.000116376
0.000126416
0.000160775
9.79087e-05
0.000111211
0.000108508
0.000110646
0.000142404
9.96817e-05
9.38653e-05
0.000115366
0.000120396
0.000139445
0.000106883
0.000346619
0.0265314
0.000123446
0.000109733
0.000126449
0.00062872
0.0001103
0.053236
0.000105387
0.000140845
0.000100449
0.000148544
0.000143849
0.000110069
9.17223e-05
0.000104462
0.000120972
0.000127321
0.000108551
0.000276081
0.0525538
0.01837
0.000115667
0.00108258
0.0835294
0.000188595
0.000110213
0.000111888
0.000106432
0.000127921
0.000105351
0.000118586
9.91515e-05
0.000586138
9.50595e-05
0.000101317
0.000126614
0.0266528
0.000101187
9.61793e-05
0.000121875
0.0235257
0.0351711
0.000125361
9.84891e-05
0.000653797
0.000154925
0.00869429
0.0197869
0.000119321
0.0224711
0.00014225
0.000282501
0.000104938
0.0242144
0.000106995
0.000125652
0.000118214
0.0240267
0.000229202
0.000648743
0.0252607
0.000100171
0.000109764
9.48333e-05
0.00519465
0.0336489
0.0221503
0.0140401
0.00010589
0.000272202
0.00012103
0.000132659
0.00341761
0.000101907
0.0270768
0.000724104
0.000109066
0.000111068
0.0323093
0.0234984
9.5457e-05
0.0188569
9.94133e-05
0.000110269
0.0131402
0.000115486
0.0215345
9.42487e-05
9.94202e-05
9.76285e-05
0.0106353
9.41711e-05
0.000132792
0.0237666
0.000134223
0.000103702
9.65811e-05
9.17148e-05
9.26301e-05
0.023315
0.000554307
0.000109641
0.000109199
0.0201879
0.000119595
0.000128661
0.00971303
0.000100906
9.76613e-05
0.000116382
0.000111026
0.0178824
0.00011638
0.000100221
0.00388196
0.000105162
0.0383211
0.0177039
0.00205142
0.0032583
0.000124662
9.81436e-05
0.000228446
0.000121309
0.0946798
0.016281
0.000930171
0.00700822
9.69826e-05
0.00025828
0.0373914
9.85987e-05
0.000109449
0.027083
0.0251927
0.000109856
9.5058e-05
9.71798e-05
9.59385e-05
0.0184796
0.000104792
0.0478359
0.0006476
0.000106899
0.000108653
0.00020431
0.000107405
9.72866e-05
0.000269061
0.000121583
0.000113545
0.000101723
0.000126386
0.000121085
9.87294e-05
0.000100236
9.12155e-05
0.000108251
0.018749
0.000103182
0.0179359
0.00010145
0.00388132
9.43382e-05
0.000108627
0.00716831
0.0153672
0.000109089
0.0813095
9.8255e-05
0.023459
0.00141649
0.0307359
0.000120319
0.000121345
0.000131965
0.0188117
9.2994e-05
0.000109081
9.75331e-05
0.0185597
0.0292807
0.000104193
0.000112941
0.0532385
0.0182661
0.000770571
0.0520944
0.000103666
0.000119294
0.0358826
0.000110769
0.000131189
0.000472467
0.00012498
0.000100115
9.8816e-05
9.10936e-05
0.024631
0.014257
0.0210471
0.000107114
0.000380661
0.000109458
9.41168e-05
0.0559766
0.000106712
9.87153e-05
9.59656e-05
0.000379562
0.000798172
0.0394579
0.000103856
0.0252492
0.000109341
0.0560287
0.000269064
0.0906106
0.000100074
0.0101251
0.00010659
0.00011072
9.93405e-05
9.75498e-05
9.45698e-05
0.000134792
0.000101998
9.94827e-05
0.000101343
0.000100954
0.0249379
0.100578
0.00831693
0.0207306
0.00665173
0.0212423
0.000110813
9.54987e-05
0.000108663
0.000127712
0.000234937
0.00012014
9.7553e-05
0.000110085
0.000112613
0.000106919
0.0498298
0.000106258
0.000213085
0.0202172
0.000121775
0.00010025
0.000153767
0.000411649
0.0227893
0.000106009
0.0242796
0.000109688
0.000119261
9.65117e-05
0.0466558
9.6774e-05
0.0242736
0.00579592
0.0234469
0.00189497
0.000149728
0.000395417
0.0175597
0.0254809
0.000228095
9.13966e-05
0.00017704
0.0848703
0.000131721
0.000105363
0.000208564
0.000107143
0.0544184
0.000100913
0.000102987
0.000101986
0.0245364
0.0359072
0.000104623
0.0023783
0.000144588
0.000103163
0.11224
0.000115805
9.88124e-05
0.000111353
9.95108e-05
0.000174706
0.000142666
0.000200225
0.0222643
0.000107461
0.0365843
0.000100171
0.000113466
9.83741e-05
9.83887e-05
0.0305676
0.000100756
0.000114098
0.024711
9.98806e-05
0.000107794
0.000118649
0.000129016
9.84286e-05
0.0398972
9.9645e-05
0.000103629
0.00011562
0.0942886
0.000122305
0.0251578
0.000104635
0.00797359
0.000103483
0.0516874
0.000105719
0.000241719
0.000112572
9.62464e-05
0.000115825
0.000118263
0.00012907
0.000103253
0.0220206
0.00012432
0.000110598
9.90812e-05
0.0282155
0.000134697
0.0156431
0.000186379
0.0231892
0.00244282
0.0278579
0.000114166
9.8195e-05
0.00012233
0.000100161
0.0176375
0.035769
0.0373299
0.0022099
0.000118705
0.000102477
0.000933487
0.000105112
0.000100448
9.56824e-05
0.000116592
0.000112315
0.000110309
0.000109672
9.73525e-05
0.000167666
0.00473818
0.0269956
9.81481e-05
0.000129357
0.000101717
0.0389745
0.0278956
0.000115387
0.000104916
0.000109007
0.000105444
0.0190537
0.000115087
0.000100986
0.017397
9.15675e-05
0.000200301
0.068109
0.000117704
9.28741e-05
9.73865e-05
0.000107707
9.96153e-05
0.000121888
0.00010849
0.0149686
0.0203732
9.57163e-05
0.106758
0.000135218
0.0305973
0.000124093
0.000100298
0.000134152
0.000117351
0.000881287
0.0219176
0.000391064
0.0001343
9.77717e-05
0.000104876
0.00010655
9.96182e-05
0.000118258
0.0578331
0.0219126
0.0201587
0.000134394
0.020206
0.000110536
0.0194383
0.0127396
0.000130171
0.0508542
0.00836841
0.000107644
0.00011959
9.25381e-05
9.52594e-05
0.000118772
0.000102085
9.97752e-05
0.000137074
0.0331522
0.000104977
9.0476e-05
0.000117634
9.36116e-05
9.83223e-05
9.86273e-05
0.000111745
0.0125393
9.25198e-05
0.0140319
0.0244398
0.000130108
0.00171259
0.000107168
9.55917e-05
9.78813e-05
0.0142969
0.000103677
9.95212e-05
0.0205769
0.000106334
0.000100099
0.000134747
0.000110585
0.000103617
9.99651e-05
0.000108206
0.000103848
0.000140169
0.000102395
0.000115294
9.48028e-05
0.000132587
0.000113853
0.0667702
0.000111588
0.00010003
0.0182817
0.00012493
0.000107484
9.31696e-05
0.000103758
0.000115722
0.000128208
0.000195841
9.30444e-05
0.000101194
0.000104805
0.000108985
0.0214607
0.000136408
9.98817e-05
0.000185214
0.000155474
0.0135774
0.0743239
9.37339e-05
0.00039987
0.000121722
0.0762903
0.0038875
9.64282e-05
0.0644546
0.000108139
0.000115271
0.000100898
0.000100297
0.000110933
0.000116913
0.104487
0.0175982
0.0111637
0.000222297
0.0454008
0.0233333
9.30811e-05
9.4167e-05
0.000123389
0.00010686
0.00137846
0.00665797
9.09516e-05
0.104524
0.000142848
0.000109798
0.0247884
0.000169749
0.000205261
0.070003
9.4537e-05
0.0201041
0.0186948
0.0299305
0.000162574
9.48564e-05
9.95621e-05
0.0156564
9.65238e-05
0.0562802
0.060018
0.000103593
0.000124709
0.0188315
0.00464587
0.000293512
0.000104897
0.000109432