/*--------------------------------*- C++ -*----------------------------------*\
| =========                 |                                                 |
| \\      /  F ield         | OpenFOAM: The Open Source CFD Toolbox           |
|  \\    /   O peration     | Version:  v2012                                 |
|   \\  /    A nd           | Website:  www.openfoam.com                      |
|    \\/     M anipulation  |                                                 |
\*---------------------------------------------------------------------------*/
FoamFile
{
    version     2.0;
    format      ascii;
    class       surfaceScalarField;
    location    "400";
    object      phi;
}
// * * * * * * * * * * * * * * * * * * * * * * * * * * * * * * * * * * * * * //

dimensions      [0 3 -1 0 0 0 0];
oriented        oriented;


internalField   nonuniform List<scalar> 
20424
(
-0.571347
0.592925
-0.0215782
-0.0692389
0.100425
-0.0311861
-0.350073
0.0199392
0.330134
0.146022
0.0248292
-0.170852
-0.198892
-0.0255441
0.224436
-0.125545
0.125813
-0.000268506
0.0952239
-0.121254
0.0260296
-0.206675
-0.0783827
0.35908
-0.248054
-0.111026
0.179402
-0.0333794
0.127383
-0.117749
-0.00963353
-0.548506
0.335568
0.212939
-0.140445
0.153954
-0.0135094
-0.0648255
0.0554744
0.00935113
-0.031165
0.0445325
-0.0133674
-0.21388
-0.145333
0.287762
-0.142429
-0.06626
0.0992295
-0.0329695
0.298542
-0.596937
0.298395
-0.539897
0.338907
0.20099
0.0198212
-0.00259735
-0.0172239
-0.0444961
0.013331
0.070937
-0.0612746
-0.00966243
-0.105665
0.113791
-0.008126
-0.209739
0.0108465
-0.110385
-0.0377126
0.148097
0.0492442
-0.176016
0.126771
0.202384
-0.182619
-0.019765
0.095309
-0.468286
0.372977
0.242732
-0.100901
-0.141831
-0.130728
0.0982691
0.0324588
-0.0238839
0.0308598
-0.00697589
-0.150685
0.144422
0.00626333
0.117437
-0.135475
0.0180387
-0.246405
-0.150538
0.396942
0.20688
-0.496957
0.290077
-0.370021
0.329265
0.0407553
-0.141407
-0.153319
0.294726
-0.246656
0.213509
0.0331471
-0.118632
0.138862
-0.0202302
-0.1336
0.00805538
-0.0160183
0.0160183
0.132409
0.0653936
-0.197803
-0.15172
-0.00755753
0.159278
0.0274498
-0.0937098
0.144317
-0.189198
0.0448806
0.110891
-0.391032
0.280141
0.123215
-0.11178
-0.0114359
-0.393889
0.329169
0.0647195
0.00177187
-0.00241217
0.000640306
-0.124908
0.0192428
0.00733215
0.0124891
-0.141061
0.022429
0.0173301
-0.0826723
0.0653422
-0.185419
0.0124312
0.172988
-0.0955769
-0.298312
0.142597
-0.0102192
-0.132378
-0.00500518
-0.14568
-0.17929
0.414408
-0.235118
-0.0279633
-0.0410432
0.0690064
0.386635
-0.212105
-0.17453
0.258758
-0.0869927
-0.171765
0.0349417
-0.0296413
-0.00530036
-0.288278
-0.260229
-0.113424
-0.149341
0.262765
-0.169949
0.195643
-0.0256938
0.188898
0.170182
0.159016
-0.300423
-0.119477
-0.0783742
0.197851
0.188309
-0.0439916
-0.0356354
0.0422232
-0.0065878
0.000453407
-0.467665
0.467211
-0.0854307
0.0574674
-0.211513
0.338402
-0.126889
-0.0850353
-0.0201752
0.0630738
-0.128005
0.0649312
-0.118164
-0.0822002
0.200364
-0.4163
0.23701
0.136866
0.00573093
-0.421558
-0.141416
0.562974
0.464472
-0.257592
-0.260204
0.239615
0.0205897
0.0151138
0.392588
-0.297279
-0.127132
0.14127
-0.0141388
0.133307
-0.106363
-0.0269436
0.00910701
-0.058115
0.049008
-0.0308609
-0.0515629
0.0824238
0.189575
-0.43598
0.132326
-0.110097
-0.0222294
0.24279
-0.463376
0.220585
0.080302
-0.0629719
-0.134042
0.244892
-0.11085
-0.0876703
0.0669494
0.0207209
0.0702393
-0.0237617
-0.0464776
-0.135223
0.120324
0.0148994
-0.150571
0.186588
-0.0360177
0.240557
0.218001
-0.458558
0.436923
-0.436469
0.0645263
-0.234475
0.0268246
-0.0209159
-0.0059087
-0.219668
-0.27729
-0.137787
0.220588
-0.0828006
0.0401716
-0.0460184
0.00584679
-0.664403
0.435836
0.228568
-0.00216137
0.0423329
-0.0853278
0.118964
-0.0336358
-0.240308
0.417782
-0.177474
0.133269
-0.000943431
0.447071
-0.1525
-0.294571
-0.15909
0.494657
-0.034695
0.167104
-0.119004
0.0336765
0.00816597
-0.0245534
0.0163875
0.0231492
-0.0155184
-0.00763081
0.0991804
-0.293301
0.194121
-0.523377
0.30371
-0.166411
-0.0190081
-0.03135
0.266675
0.471687
-0.272686
-0.199001
-0.212933
0.00625716
0.69241
-0.456495
-0.235916
-0.0109813
0.429579
-0.418598
0.187294
-0.484192
0.296898
0.0153444
0.185761
-0.201106
0.00382409
-0.0394595
0.0938501
0.031963
-0.0326947
-0.00915171
0.0418464
-0.202382
0.0251606
0.177222
-0.0180017
-0.067429
0.187707
-0.210636
0.0229293
0.0557556
-0.0661471
0.0103916
0.0530071
-0.0439001
0.0198618
-0.0909222
0.0710604
0.0815761
-0.167701
0.0861247
0.204513
-0.283998
0.0794852
-0.0932675
0.00823225
-0.140494
-0.236691
0.377185
-0.0494015
0.207162
-0.157761
-0.001931
-0.000184328
0.00211533
0.0933219
-0.124987
0.0316647
-0.0109711
0.145013
-0.134041
-0.147717
0.204583
-0.0568658
0.0412568
-0.0281915
-0.0130653
-0.558372
0.499296
0.0590759
-0.001931
0.161681
-0.157707
-0.00397398
0.147505
-0.052137
-0.0953679
0.178646
0.120172
-0.298818
0.120626
-0.105637
-0.014989
-0.573951
0.0155783
0.145574
-0.135246
-0.0103285
0.0401879
-0.0423492
-0.0146376
-0.0644902
0.0791278
-0.207773
0.189867
0.017906
0.0290906
-0.0234754
-0.00561518
0.00765957
0.154021
0.158
-0.170489
0.0124893
0.0317192
-0.100958
-0.231383
0.453203
-0.22182
0.0415877
-0.0334217
0.642675
-0.371771
-0.270904
-0.00678366
-0.00557022
0.0123539
0.0739202
0.0705016
-0.558439
0.212579
0.34586
-0.241466
-0.0695202
0.310986
0.0572339
-0.0880949
0.0143529
-0.364426
0.139456
0.103276
-0.171151
0.0307066
-0.207681
0.0599643
0.305254
0.141817
0.188675
-0.00709164
0.136014
-0.128922
0.220177
-0.2815
0.0613224
-0.0111747
0.106399
0.095916
-0.0328422
-0.167708
-0.0400655
-0.0421579
0.00946319
0.041907
-0.0344464
-0.00746061
-0.327978
-0.336426
-0.0213832
0.13882
-0.164543
0.190859
-0.0263156
-0.00214467
-0.0721676
0.0743123
0.0539177
-0.0805303
0.0266126
0.00241417
0.217763
0.00969158
0.0315652
-0.0923445
0.208465
-0.116121
-0.0437647
-0.0328022
0.0765669
0.276809
0.109826
-0.190657
0.026114
0.012182
0.058755
-0.262569
0.173291
0.0892787
0.118655
-0.113214
-0.00544089
0.0225414
0.00914851
-0.0316899
0.0397416
0.0935651
0.131636
-0.0377862
-0.00315505
0.00279237
-0.466336
0.455354
-0.168798
-0.0335843
0.449007
-0.277384
-0.171622
-0.126199
0.0471382
0.079061
0.14778
-0.137224
-0.0364128
0.173637
-0.0266816
-0.00570689
0.0323885
-0.143863
-0.103739
0.247602
-0.428457
0.236813
0.191644
0.123455
-0.00480065
-0.0761463
0.0639622
0.0121841
0.133325
-0.111627
-0.0216981
0.284431
-0.185251
0.0472504
0.0198435
-0.0670939
-0.0131283
0.0131283
-0.0261729
-0.0569386
0.0831115
0.160753
-0.111508
-0.104721
-0.015473
0.120194
0.0302199
-0.0299812
-0.000238755
0.134613
-0.11404
-0.0205728
0.0297907
-0.0295922
-0.000198462
-0.17408
-0.294207
-0.0918515
0.0310293
0.0608222
-0.197971
0.0607476
-0.0628106
-0.0351784
-0.0370721
0.0722505
0.0139105
-0.131447
0.117536
-0.078508
0.0605063
0.0949941
-0.238858
-0.0175476
0.11087
0.0328491
-0.00262918
0.0666644
-0.019414
-0.440039
0.28186
0.158179
0.333528
0.263487
0.324864
0.367546
0.460208
-0.349318
-0.00482869
-0.042901
0.0477297
-0.104235
0.119579
0.0544684
-0.126724
0.0722554
-0.0222286
-0.252947
-0.28695
-0.297699
0.152366
0.234765
-0.181233
-0.0535312
-0.0576165
0.0224381
0.0769491
-0.0641182
-0.0128309
0.106097
-0.00931884
-0.0967779
-0.13479
0.118773
0.0160169
0.0320137
-0.00947234
-0.207641
-0.0525638
-0.030636
0.00395446
-0.160872
0.192458
-0.0315863
0.193445
-0.360783
0.167338
0.00695553
-0.00202252
-0.00493301
0.206927
-0.579932
0.565397
0.0145357
-0.227489
0.0934472
-0.0463852
-0.0502176
0.0966028
-0.152531
0.14156
0.140355
-0.380663
-0.00912949
0.00234584
-0.116486
0.0101231
0.0359513
-0.0288141
-0.00713722
0.282182
-0.474789
0.192607
-0.119529
-0.0190174
0.138547
0.0131188
-0.288197
0.130719
0.157477
0.135125
0.137159
-0.272284
-0.00837685
-0.0848907
0.0143309
-0.0756119
0.061281
0.023321
-0.133705
-0.100631
-0.00652228
0.107153
-0.121487
0.0751023
-0.361934
0.533776
-0.171843
0.0133601
0.00310505
-0.0164651
0.117934
-0.102812
-0.0151218
0.0356369
-0.026405
-0.00923188
0.121088
-0.213432
0.00504467
0.0197832
-0.0248279
-0.0125074
0.0125074
-0.00915045
0.130858
-0.121707
-0.00143944
-0.120048
-0.154032
0.14694
0.143712
-0.385178
0.395462
-0.22528
-0.170182
0.0718232
-0.0909449
0.0191217
-0.00867196
-0.00673772
0.0154097
0.162517
-0.052758
-0.109759
-0.0679289
0.246575
0.154657
-0.169406
0.0147491
0.170547
0.243861
-0.0923793
0.0486146
-0.201067
0.221584
-0.020517
-0.0594948
-0.0221941
0.0816889
-0.385551
0.323733
0.0618186
-0.000845331
0.0954974
0.0318852
-0.0165468
0.0414831
-0.0249363
0.071922
-0.00795977
-0.305706
0.431633
-0.125927
0.202523
0.324222
-0.526745
0.0597992
-0.23435
0.174551
-0.431721
-0.139625
0.0645886
-0.182753
-0.222754
0.412329
-0.119814
0.146032
-0.0262172
0.000244305
0.00671123
0.0257596
0.372503
-0.0903209
-0.172583
-0.0947715
0.267355
-0.340413
-0.218026
-0.0779437
0.242981
-0.165037
0.148168
-0.102728
-0.0454398
0.0164029
-0.00304281
0.147383
-0.128135
-0.0192487
-0.33143
0.100204
0.231226
-0.0377953
0.0314583
0.00633705
0.325899
-0.687833
-0.226611
0.0598738
-0.197661
0.0486024
-0.0448411
-0.00376128
0.201085
0.270602
-0.0364817
-0.145185
0.181667
0.00609116
0.0707264
-0.0768176
-0.0190901
0.0190901
-0.0204743
0.117432
-0.0969579
0.309734
0.287281
-0.00117981
-0.00420914
-0.594255
0.340558
0.253696
0.205092
-0.427846
-0.462541
0.304895
0.157645
-0.289195
0.023463
0.265732
-0.122839
0.257965
-0.337569
-0.124972
0.228697
-0.516974
0.48457
-0.297276
0.0707033
0.131681
-0.216232
-0.115198
-0.252035
0.202633
0.166766
-0.378279
-0.023543
-0.152473
-0.00859745
-0.280598
-0.0861283
0.100039
-0.475556
0.288158
0.187398
-0.07412
-0.0566079
-0.128479
-0.159717
-0.0274914
-0.0444851
0.0719765
0.0115139
0.121811
-0.0451858
0.252348
0.167784
-0.204266
0.134892
-0.266564
0.131671
0.142598
-0.36322
0.220622
0.164875
-0.352285
0.18741
0.132626
-0.329637
0.197011
0.306569
-0.173943
-0.00705085
0.00666595
0.000384902
0.0363142
0.0164541
-0.0527683
0.0270764
0.231682
-0.108984
0.297648
-0.188664
0.107165
0.0460702
-0.153235
0.0149055
-0.0779432
0.0630377
-0.116185
-0.0134066
0.129592
-0.00680202
-0.0820139
0.0888159
-0.265788
-0.174252
-0.260727
-0.0955798
-0.289971
-0.0120301
0.00335818
0.126801
-0.104644
-0.490546
0.150876
0.33967
0.140126
0.00737908
-0.0158168
0.0184209
-0.00260401
-0.00478445
0.0449723
-0.506632
0.291864
0.214768
-0.0523166
0.0357698
0.0371429
0.10787
-0.157231
0.079535
0.0776959
-0.648171
0.226614
-0.286758
-0.203788
0.0900968
0.158086
-0.248183
-0.136815
0.125945
0.0108704
-0.00305079
-0.000104265
0.0267221
-0.103136
0.0764137
-0.152528
0.179884
-0.027356
-0.22647
-0.229271
0.455741
0.494568
-0.254011
0.0476702
-0.0379375
-0.00973273
-0.128101
0.262994
-0.26156
0.602118
-0.740479
0.561334
0.179145
-0.0284049
0.004521
-0.141301
0.334043
-0.192742
-0.428423
0.19704
0.032831
0.187757
-0.101808
0.0130353
0.0887727
0.0902219
-0.0804575
-0.00976435
0.0074454
0.32481
-0.169294
-0.155517
-0.179275
0.160116
0.0191592
-0.116107
0.0502772
0.0658299
-0.0345661
0.0248736
0.00969252
0.0997317
-0.00146259
0.110419
-0.0892765
-0.0211421
-0.00871679
-0.0697912
0.277481
0.365194
-0.132761
0.00562936
-0.651421
0.252587
0.398833
-0.114753
0.0634631
0.0512894
-0.249126
0.171182
0.0616906
0.100826
-0.0413525
-0.0311599
0.0725124
0.107971
-0.00817243
-0.0997981
0.0292191
-0.0962453
0.0670261
0.331113
-0.188516
-0.119117
-0.104886
0.224003
0.190845
-0.154937
-0.0359081
0.0825329
0.0278858
-0.0351505
0.0445333
-0.00938277
-0.124669
-0.0121468
0.420272
-0.638721
0.218449
0.0501396
-0.00153727
-0.0385191
0.0473852
-0.00886602
-0.156629
-0.0612104
-0.0740131
-0.202255
-0.127845
0.3301
0.127947
-0.12102
-0.00692741
0.0885
-0.0862908
-0.00220924
0.217691
-0.18486
-0.0587821
0.073113
0.58345
-0.307002
-0.276448
0.0133626
-0.113993
0.0760882
-0.039774
0.0292672
-0.00319434
-0.0260729
-0.0759892
-0.0452644
-0.0926899
0.0946979
-0.00200797
-0.32544
-0.267904
0.593344
0.101113
0.00498335
0.00975958
0.0661276
-0.0807652
0.0274367
-0.147183
0.23728
0.142144
0.102493
-0.244637
-0.291712
0.138393
0.00806898
0.0285038
-0.0365727
-0.0286299
-0.219424
-0.149138
0.246087
-0.0969499
-0.701239
0.301109
0.40013
0.0383309
-0.15871
0.189073
-0.0303633
-0.34799
-0.126799
0.289716
-0.540091
0.250374
-0.068202
0.0420291
-0.119319
0.104904
0.0144145
-0.0653791
0.0921012
0.0784239
-0.00660067
0.12104
0.0878388
-0.208879
0.021504
0.0620907
-0.0835947
0.211157
0.184306
0.00805714
0.0258506
-0.0339077
-0.00131911
0.135508
-0.134189
0.0206914
0.154897
-0.000843011
-0.154054
-0.0659881
0.0246356
-0.270983
-0.235649
0.372496
0.2776
-0.650096
-0.301484
-0.399755
0.131258
0.0864335
-0.016425
0.00060818
-0.174919
-0.0717375
-0.139318
0.0149067
-0.0826514
0.109336
-0.0266844
-0.013502
-0.0793839
0.0928859
-0.00237435
-0.0321918
-0.193258
0.00188668
0.0750625
-0.367469
0.556679
-0.18921
-0.0944258
0.0809238
0.0266511
-0.0213387
-0.00531239
-0.348329
0.207028
-0.363021
0.160766
-0.0897435
0.113179
-0.0234357
0.128254
-0.144732
0.0164781
0.335252
-0.141807
0.10493
-0.254067
-0.174959
0.300635
-0.205549
-0.0950852
-0.451607
0.298028
0.153579
-0.032807
0.00321479
-0.0171731
0.0222178
-0.0643707
-0.0517364
-0.00685686
-0.00599042
0.0128473
0.0241171
0.0108246
-0.153458
0.175312
-0.0218538
0.00919765
0.181647
0.144381
-0.263498
0.223469
0.0771655
-0.306697
-0.253646
0.560343
-0.11294
0.132626
-0.0196859
-0.146712
-0.239047
0.132483
0.106565
-0.0271352
0.000730132
0.253515
-0.111371
-0.0094252
-0.328568
0.219584
-0.13445
0.268251
-0.133801
0.0075097
-0.0687843
0.192902
-0.0251174
-0.0764017
0.0676849
0.157444
-0.270868
0.0120489
0.0172183
-0.10045
0.0822318
0.0182183
-0.0370126
-0.0777399
0.297163
-0.138147
-0.427676
-0.312803
0.665195
-0.348936
-0.316259
0.102922
0.159004
-0.261926
-0.255324
-0.173133
-0.0196109
0.0196109
-0.174465
0.0292801
-0.00965469
0.00279783
-0.132498
-0.0247328
-0.0612812
0.0075463
0.0537349
0.0165696
0.118044
-0.265291
0.563833
-0.00953632
0.062643
-0.0531067
0.0741498
-0.0526458
0.245611
-0.149641
-0.0959699
-0.0816321
-0.018818
-0.195803
0.254607
-0.058804
0.241634
0.0773652
-0.319
-0.171531
0.404816
-0.233285
-0.157514
0.133971
-0.0466709
-0.192376
0.126175
-0.021487
-0.104688
0.122807
0.183763
0.0530426
0.0171968
0.060032
-0.112169
-0.0219414
-0.117376
-0.0197158
-0.112251
0.131967
0.0137834
-0.275497
-0.0945234
-0.0530998
-0.00818136
-0.0053717
-0.0274353
0.0116205
0.0115885
-0.0676995
0.056111
0.0778414
0.0106586
-0.0877455
0.00336427
0.0843813
-0.0799962
0.0205014
0.00281363
-0.00104177
-0.0972186
-0.0205305
0.0570786
-0.182203
0.125125
-0.0362357
0.0165538
0.0196819
0.0127482
0.010401
-0.0665786
0.0570423
-0.120943
0.0294832
0.0914599
-0.262461
0.114021
0.148441
-0.0227181
-0.0056868
0.133161
-0.102799
-0.0303625
-0.108118
0.0876434
0.200164
-0.140364
0.218292
-0.389823
0.0259223
-0.18793
0.0514216
0.136509
0.0224238
-0.0192055
-0.00321824
-0.0144454
-0.0503801
0.519698
-0.317175
0.400114
-0.0746947
-0.32542
-0.0524616
0.067367
-0.142592
-0.119869
0.0328538
-0.0247848
0.150408
-0.456114
-0.444595
0.269259
0.175335
0.325774
-0.214992
-0.110783
-0.0631748
0.0692659
-0.431175
0.204705
0.0717444
-0.0962829
0.0245385
-0.0056659
-0.0305698
-0.297339
-0.354082
-0.152823
-0.0998988
0.252722
-0.324892
0.152309
0.00675646
0.0156458
0.0111788
-0.182156
0.0631316
0.119025
-0.0715844
-0.0328426
0.104427
-0.232571
0.0853879
-0.0610076
0.0902268
-0.00117657
0.00291351
-0.00173694
-0.159991
0.154986
0.0501358
-0.183522
0.133387
0.392153
0.181716
-0.573869
0.0612868
-0.00764943
0.0695193
-0.0644024
-0.00511697
0.215981
-0.148708
0.174957
-0.0262499
0.187541
-0.0368565
-0.150685
0.159268
0.057407
-0.216675
0.014423
-0.167881
-0.0308027
-0.148472
0.0632653
-0.0089779
0.0636113
-0.0546334
-0.203944
-0.212356
-0.00460508
0.00428782
0.000317255
-0.019078
-0.187427
0.019719
-0.0387994
-0.148627
-0.0510747
-0.0106447
0.0617194
-0.0815426
-0.0202654
0.0247398
-0.0221347
-0.00260506
0.00218379
-0.00336036
-0.230771
0.0558522
-0.153678
0.152359
0.036018
0.00851525
-0.00246125
4.90773e-05
0.148562
0.455454
-0.604016
-0.156542
-0.196585
0.353127
0.187039
-0.0313191
-0.15572
-0.237981
0.480772
-0.0121476
0.0287014
-0.0721901
-0.0540091
-0.115961
-0.0661951
-0.173842
0.00743166
-0.0218999
-0.151943
0.14374
-0.329247
0.185507
-0.137279
-0.0519188
-0.0906094
0.0991692
-0.00855981
-0.203925
-0.159096
-0.0753374
-0.0155847
0.213516
0.112259
-0.0899367
0.0514275
0.0385092
-0.0144447
0.0319449
-0.0175002
-0.0435105
0.479346
-0.112043
0.028657
0.0833856
-0.121929
-0.14064
0.362628
-0.197753
0.0597963
-0.0465857
-0.0132106
-0.18903
-0.171825
0.360855
-0.0742646
0.0728252
0.482127
-0.278749
-0.203378
-0.218052
0.0667395
0.151312
0.224687
0.33739
-0.562076
-0.172423
0.20931
-0.0368867
0.0877856
0.177403
-0.265189
0.00872161
0.213108
0.192788
-0.405897
0.149079
0.232547
-0.381626
-0.343967
0.250779
0.0931876
0.281482
-0.46915
0.187668
-0.0283413
0.0138966
0.115255
-0.0587105
-0.0565447
0.127739
-0.147455
0.0695002
0.0457551
0.197748
0.0478631
-0.00168471
-0.0114436
0.0500411
-0.0115033
-0.0385378
-0.535851
0.136698
0.399154
0.128508
0.0196597
-0.0777699
0.349525
0.0505897
0.62934
-0.256844
0.165198
-0.0296899
0.0899667
-0.0182223
0.0172795
0.011811
0.0308823
0.540715
0.104174
0.0129606
0.252283
0.305177
-0.55746
-0.0795424
-0.0131475
0.258143
-0.564841
0.00150785
-0.0364195
0.204651
-0.168232
0.484986
-0.243996
-0.24099
0.268241
-0.52001
0.25177
-0.381269
0.155989
0.0423353
-0.0471639
0.0522969
0.0488164
0.0148844
-0.0212772
-0.326713
0.00710225
-0.195032
-0.0896246
0.0828567
0.00676794
0.185566
-0.0622339
-0.168537
-0.0275364
0.0277764
-0.000239966
-0.0266856
-0.000989768
0.0276754
0.0146743
0.0845551
0.508292
-0.545037
0.0367451
-0.0756536
-0.0161979
0.107172
-0.126201
0.0190291
0.198783
-0.342067
0.143284
-0.266008
0.453146
-0.187138
-0.0882634
0.117441
-0.102742
-0.014699
0.290392
-0.0188413
0.0223108
-0.00346955
-0.00324164
-0.00136343
-0.0393097
0.120886
0.241212
-0.261822
0.0206102
-0.210222
0.388034
-0.177811
0.363994
-0.214914
0.028924
-0.0410716
0.137877
-0.0222938
-0.115583
0.46708
0.125845
-0.115141
-0.0163058
0.166926
-0.345091
0.178166
0.183373
0.00908557
0.197868
0.251139
-0.0239773
0.0403659
0.0144298
0.441024
-0.150878
-0.0472791
0.198157
0.151502
-0.0914699
-0.0179758
-0.0394885
0.0574643
-0.0254456
-0.0114565
-0.0829693
0.0309042
0.115128
-0.000187484
0.0012644
-0.00280946
0.0204782
0.0208339
-0.085324
-0.0186573
0.0229441
-0.00428685
-0.481499
0.210516
-0.00252674
-0.0134915
0.00289075
0.143293
-0.146184
0.175889
-0.144794
-0.0310946
-0.0334195
-0.075551
0.10897
0.141237
0.192806
-0.0014904
-0.00493472
0.00642512
-0.155652
-0.424281
-0.080889
0.110643
-0.0297536
0.00658035
0.00943793
0.323661
-0.193505
-0.130156
0.228753
-0.0429644
-0.185789
0.0732683
0.0302323
-0.103501
-0.200947
-0.167269
0.368216
0.0897876
-0.0206325
-0.0691551
-0.105082
0.014473
-0.0114345
-0.0551441
-0.0617654
0.0940364
-0.0417394
-0.404184
0.160819
-0.150096
-0.0107229
-0.0772303
0.235317
0.313993
-0.147501
-0.166492
-0.0060421
0.0615165
-0.095539
0.294322
0.162803
-0.0267889
0.166444
-0.080922
-0.55048
0.0146283
0.269432
-0.132273
-0.181105
-0.148532
0.159401
-0.0187548
-0.140646
-0.0178147
-0.0374796
0.044873
-0.00739341
0.0900333
0.0231458
0.239034
0.085777
0.142937
0.413742
-0.0955408
-0.010096
-0.0397215
-0.0479488
0.257177
-0.154255
0.264968
0.220019
0.476389
-0.166009
-0.31038
-0.11307
-0.400932
0.241793
0.159139
0.0117515
-0.0583372
0.287423
-0.539008
0.251585
0.117567
-0.0011908
-0.116376
0.00398395
-0.0803856
0.0503221
-0.0408354
-0.00948672
0.275522
-0.603499
0.256128
0.225999
-0.242842
0.481885
-0.239043
0.11811
0.116655
0.0671836
-0.0929693
0.0257856
-0.00125284
-0.0283885
0.00705287
0.0744676
-0.089624
0.0151564
-0.12007
0.000540865
0.0391367
0.00853349
0.30756
-0.16382
0.173745
0.0478382
0.0891032
-0.0806894
-0.00841376
-0.130367
-0.0876851
-0.304359
0.0881269
0.122852
0.0252744
-0.148126
-0.0522191
0.0638076
-0.0857081
-0.163418
0.0738135
-0.0274369
-0.0463766
0.202133
-0.0428651
0.0115716
-0.0349803
0.0234087
-0.0733325
0.355126
-0.281794
-0.021214
0.0020085
-0.0215589
0.00290157
0.00448414
-0.0323719
0.0351939
-0.00282201
-0.0453863
-0.0423592
-0.111801
0.133026
-0.0212255
0.0285299
-0.0169583
0.221066
0.162678
-0.112542
-0.397773
0.346309
0.0514644
0.1098
-0.0163017
-0.0934985
0.482703
-0.192986
0.0391853
-0.084348
0.0451626
0.0892267
-0.0525391
-0.0366876
-0.164655
0.0986339
0.0660215
-0.188501
-0.159828
-0.0668388
0.215186
-0.148348
0.0439403
-0.00480357
0.0393659
-0.220599
0.144738
-0.0876598
-0.231518
0.488854
-0.257336
-0.0659139
0.0566798
0.00923409
0.0979263
-0.0215123
-0.076414
-0.0792871
-0.091637
0.113816
-0.0221793
-0.0193933
0.00387493
0.290638
-0.0771226
-0.0211822
0.00234089
-0.0822119
0.0368256
-0.00110184
0.0680512
0.0293132
0.0318185
0.115626
0.100716
-0.216343
-0.0875446
0.0919918
-0.00444718
-0.173488
-0.423449
0.158646
0.0279427
0.0504682
0.207098
0.252437
-0.459535
0.0111073
0.0389338
0.00548105
-0.0244842
-0.00236379
0.026848
-0.000555812
0.0899084
-0.00080522
-0.0507828
-0.0138274
0.0646102
0.259648
-0.138538
-0.12111
0.0191341
-0.101148
0.449844
0.0584482
0.0531967
-0.0667028
0.0135061
0.097945
-0.0775853
-0.0203597
0.0374891
0.150218
0.0886266
-0.019071
-0.0695556
-0.0926275
0.0356888
-0.0960328
0.0945743
0.00145853
0.346136
-0.146811
-0.199325
0.100531
-0.0460626
0.0121795
0.00992459
-0.0221041
0.231921
0.221364
-0.0480737
-0.173291
0.240403
-0.525066
0.284663
-0.507015
0.115983
-0.331069
0.555756
-0.0408204
-0.00668852
0.0475089
-0.278781
0.531064
-0.199688
0.370187
-0.1705
0.018694
0.48981
-0.262169
-0.227641
0.111207
-0.120358
-0.142081
-0.186487
0.102012
-0.135431
0.173019
-0.258727
0.0510078
-0.0747695
0.52464
-0.271428
-0.253213
0.023489
-0.0212249
0.0379402
-0.0167153
0.00909533
-0.0805593
0.094341
-0.0137817
-0.110484
0.0577264
-0.0528306
-0.0371062
-0.0243032
0.0975715
0.0496774
-0.0092937
-0.0403837
-0.0886704
0.102033
-0.550456
0.210043
-0.0222495
-0.0108587
0.0331082
0.203465
-0.0239496
0.0018149
-0.0571901
-0.153446
0.0104004
0.0495781
0.0339671
-0.0835452
-0.0152244
0.089692
0.581323
-0.317836
0.17967
-0.208881
0.029211
0.00211672
0.0303741
-0.0324908
0.0320567
0.189308
-0.0606813
-0.00790017
0.0685814
0.167006
-0.214491
0.0474847
0.0845668
-0.0694065
-0.0151603
0.0548504
0.0783111
-0.0057494
0.0901307
-0.053732
0.565676
-0.244284
-0.321392
-0.00829792
-0.0358982
0.0441961
0.0778408
-0.0173597
-0.0604811
-0.451231
0.309162
0.142069
-0.108513
0.287095
-0.178582
0.0455899
-0.0095719
0.253492
0.0371458
0.114665
-0.100025
-0.0146403
-0.0164794
0.0286589
0.496071
-0.227831
-0.0761409
0.09493
-0.0187891
-0.0533072
-0.108678
0.161986
0.146252
-0.115348
-0.299743
0.19123
-0.260158
-0.191073
0.299389
0.297626
0.00581412
-0.0102526
-0.033503
0.0437556
0.372785
-0.166985
-0.205801
0.431729
-0.224631
0.101515
0.063055
-0.16457
0.0812615
-0.0316835
-0.0255958
0.433332
-0.215331
-0.230385
0.318012
-0.104903
0.558367
-0.331226
-0.227142
-0.381443
0.177517
-0.100489
-0.0641665
-0.16345
0.15598
0.0074699
0.0616765
0.0275502
-0.0996945
0.0273723
0.0723222
-0.1459
0.130912
0.0149877
0.0982072
-0.0835329
0.266735
-0.130643
-0.136091
0.511454
-0.0911816
-0.302126
0.240321
0.0618046
-0.0168951
0.0700918
-0.173749
0.0670223
-0.0887688
-0.0302355
-0.0723285
0.0608941
-0.587685
0.262244
0.0137674
-0.0215041
-0.131027
0.103687
-0.0801648
-0.0235222
-0.0705049
-0.327268
0.00773353
0.0808931
-0.165296
-0.0468834
0.21218
0.389366
0.275829
-0.116064
0.251083
-0.135019
0.506355
0.023406
-0.529761
-0.0316389
0.1107
0.150114
-0.132005
-0.0181088
0.0289862
-0.117657
0.23575
-0.566819
0.0383745
-0.0466724
-0.338438
-0.00226826
-0.0168218
0.00969541
-0.383865
-0.0437405
0.427605
-0.0234142
0.0355204
-0.0121062
-0.630107
0.374108
0.255999
-0.382188
0.181241
-0.221854
0.155015
0.596001
-0.30872
-0.202082
-0.100043
-0.171138
-0.0927763
0.263914
0.33977
-0.172844
0.25449
0.163291
0.200369
0.322992
-0.523361
-0.276845
0.0810418
0.0777739
0.0227571
0.0398085
-0.0500611
-0.386947
0.157436
0.229511
-0.0247328
0.00201476
0.32577
0.271245
0.134982
-0.0228905
-0.131141
0.124143
0.026231
-0.0217696
-0.00446139
0.0432704
-0.0425939
-0.000676465
-0.00137883
-0.100728
0.253898
-0.153171
0.366661
-0.125026
0.011538
0.0579813
0.143584
-0.557548
0.292094
0.265453
0.0132083
0.142556
-0.216734
0.134534
-0.0320976
0.00770717
0.0243904
0.118185
-0.0163388
-0.101847
0.482687
-0.207056
-0.275631
0.0251808
0.130738
-0.155918
-0.0967321
0.0790632
0.0176689
0.499915
-0.243786
0.0743213
-0.0893696
0.0150484
-0.277144
0.224228
0.0529159
-0.0128542
0.0324685
-0.0196143
-0.132822
-0.0271683
0.0690228
0.0961754
-0.0575523
-0.0320717
-0.0493564
-0.0369344
0.165896
0.399781
-0.00429109
-0.157713
0.00429999
0.304862
-0.100004
-0.0164822
0.359508
0.231559
-0.591067
-0.237003
-0.243299
0.480302
0.0890753
-0.260213
-0.203934
0.541323
0.00554115
0.155277
0.00457926
0.0410107
-0.356713
0.167683
-0.0653261
0.0494694
0.0158566
-0.0298156
0.0169614
0.299541
0.200374
-0.00215774
0.0101851
0.0336479
-0.0438331
0.042963
0.14041
0.0442602
0.0103298
0.0256215
-0.036185
0.0929757
-0.0567907
-0.0269172
-0.000619162
0.0594988
0.0387084
-0.120074
0.277518
0.0947437
-0.0156805
-0.32034
-0.230115
-0.00919163
-0.022906
0.00653197
-0.118312
0.0157516
0.0258361
-0.200362
-0.244233
-0.0283821
-0.00870045
0.0370826
-0.222776
-0.205646
-0.0406706
0.0497102
-0.00903966
-0.0730013
0.0791134
-0.00611206
0.0743829
0.0154047
0.198382
0.147754
-0.0291625
0.00247693
-0.0984891
0.0383383
0.0601508
-0.197574
-0.106785
-0.0309619
0.000980719
-0.0846938
0.186209
0.0965027
-0.0784633
-0.0180395
0.137074
-0.119584
-0.0174902
-0.0323623
-9.51389e-06
0.328097
-0.0174237
-0.117366
-0.22681
-0.254689
0.0964498
0.0211175
0.028207
-0.185011
0.156804
-0.258348
-0.217208
0.0299221
0.0647757
-0.296057
0.0742036
0.085789
-0.0972455
0.0890657
0.0288685
0.442271
-0.00230655
-0.0102008
-0.108092
0.267096
0.261815
-0.185276
-0.0765392
0.0147323
-0.0432205
0.0284881
0.166956
0.172692
-0.339648
0.216213
-0.244532
0.028319
0.348613
-0.173533
-0.17508
-0.00673565
0.0442187
-0.037483
0.174888
-0.301692
0.126804
0.000320173
-0.128262
-0.24877
0.377032
-0.0861753
0.230557
0.473339
-0.274664
-0.198676
-0.165303
0.00185282
-0.559963
0.434538
0.125425
-0.00394305
-0.00534387
0.00928692
-0.0130056
0.131779
0.11279
-0.0833066
0.180238
0.0894483
-0.269686
0.33087
0.163588
-0.494458
-0.562201
0.28342
0.0646321
0.175689
-0.204326
-0.302689
0.123235
0.0314213
0.00991005
-0.315682
0.494696
-0.179014
-0.158434
0.0389576
0.00830165
0.0187433
0.0208249
0.184211
-0.326292
-0.023063
0.0211125
-0.173691
-0.103453
-0.0333707
0.00100836
0.298761
0.260582
-0.559343
-0.233613
-0.110354
0.0183232
-0.0225853
0.00426214
0.110415
-0.0326413
-0.164249
0.0950715
-0.12671
-0.206998
0.106271
-0.115173
0.132988
-0.0178149
-0.131715
0.124158
-0.430524
0.186529
-0.00631431
0.0496716
-0.00733635
0.0166387
0.0100124
-0.048077
-0.121329
-0.184132
0.192906
-0.00877403
-0.00640965
0.091024
-0.243847
-0.052439
0.333921
0.0848685
0.0148631
0.471799
-0.140929
0.082239
0.021448
-0.0675643
0.0585864
-0.0737332
0.0896869
-0.0159537
0.0483265
-0.0504712
-0.257174
0.00637343
0.250801
-0.0924002
-0.0104121
-0.0185931
0.185342
-0.166749
-0.0191706
-0.0693912
0.0885618
0.141329
0.143553
-0.284882
-0.059751
0.53304
-0.273248
-0.259792
-0.428935
0.163148
-0.0437321
0.00579468
-0.47756
0.234719
-0.28076
-0.28144
-0.0139566
-0.100493
0.11445
0.0370591
0.156458
-0.193517
0.216528
-0.042783
-0.377923
0.167701
-0.0428607
-0.0237919
0.0666527
0.0119229
0.0494864
0.021952
-0.0553737
-0.114076
0.088626
0.0254499
-0.503175
0.119311
0.0498357
0.0457561
-0.0955918
0.146975
0.003139
-0.145875
0.0675004
-0.0443428
0.0662948
0.0604816
-0.00205908
-0.0584225
0.632243
-0.521134
-0.111109
-0.0508184
0.0900037
-0.042273
0.0921087
-0.000978437
-0.000201378
0.46705
-0.230463
-0.236586
-0.038485
0.0452977
-0.00681273
-0.407659
-0.152304
0.000972082
-0.232156
0.409718
-0.177562
0.519905
-0.261292
-0.258613
-0.000519388
-0.00209967
0.00261906
-0.496205
0.259202
0.186505
0.239295
-0.4258
-0.258787
0.0115655
-0.00665342
0.000225065
0.00642835
-0.0880774
-0.0259985
0.321265
0.308074
-0.0970067
0.0208658
-0.384235
0.143337
0.240898
0.0331576
-0.0136857
-0.0194718
-0.312684
0.547019
-0.234336
-0.210627
0.287992
-0.0955072
0.0379549
0.060466
0.20904
-0.269506
-0.169018
-0.22453
0.393548
-0.0162878
0.114596
-0.0983086
0.000857774
0.338049
-0.140848
0.446025
-0.151701
0.179908
-0.221999
0.0632673
0.158732
0.143738
-0.416424
0.184797
0.00224113
-0.390475
0.124467
-0.0880926
-0.207964
-0.208571
-0.0486029
0.141628
-0.194935
0.437527
-0.297172
-0.112088
-0.0130293
0.125117
-0.00366581
0.0351241
0.167979
0.107078
-0.275057
0.0280993
0.0331875
0.0561592
0.273106
-0.03155
-0.138204
0.169754
-0.492114
0.260595
-0.344251
0.18771
-0.15442
0.175999
-0.021579
0.0465039
-0.00323346
0.0200287
0.114011
-0.13404
0.596993
0.308282
-0.303982
-0.0888008
-0.0108937
-0.00670391
0.0483305
-0.0416266
-0.129068
-0.212755
0.341822
0.0105505
0.0941859
-0.104736
0.220981
0.0297989
0.189932
-0.0229265
-0.0404749
0.0116608
-0.073689
-0.0916136
-0.00917081
0.0520475
-0.0428767
-0.166684
0.369934
-0.20325
0.462596
0.171066
-0.300133
0.283576
-0.54418
0.260604
-0.0326248
0.123886
0.127198
0.206131
-0.49749
0.291359
-0.310522
-0.23695
0.547473
0.530029
-0.28908
-0.240948
-0.223453
-0.207072
-0.0276835
-0.00327846
-0.367471
-0.262636
-0.00533044
0.00365576
0.00167468
0.286125
-0.155766
-0.130359
0.00155991
0.0669809
-0.00294534
-0.0640355
-0.336078
-0.237541
0.573619
-0.299687
-0.137028
0.0942268
-0.069046
0.0776307
-0.0405965
-0.0370342
0.0620477
0.0098415
-0.0718892
-0.266639
-0.0316721
-0.0344751
0.0163161
-0.0972051
0.0642409
0.0701335
-0.0893041
0.296193
0.300822
-0.261334
0.111693
0.143596
-0.244497
0.0173451
-0.0794969
0.0621519
0.0335127
0.181674
0.234783
-0.118161
0.0300832
-0.0214334
0.0250744
-0.00364103
0.301119
0.00859954
0.0228013
0.0510122
0.205381
-0.214716
0.00933503
0.160112
0.0704806
0.00736012
0.00877143
0.128302
0.268617
0.198433
0.0119909
-0.0627737
0.280092
0.143562
0.142563
0.167822
-0.167879
5.7096e-05
-0.191837
-0.0301617
0.166979
-0.336272
-0.610496
0.461897
-0.162356
-0.229318
-0.0564227
0.0737678