/*--------------------------------*- C++ -*----------------------------------*\
| =========                 |                                                 |
| \\      /  F ield         | OpenFOAM: The Open Source CFD Toolbox           |
|  \\    /   O peration     | Version:  v2012                                 |
|   \\  /    A nd           | Website:  www.openfoam.com                      |
|    \\/     M anipulation  |                                                 |
\*---------------------------------------------------------------------------*/
FoamFile
{
    version     2.0;
    format      ascii;
    class       volVectorField;
    location    "400";
    object      U_0;
}
// * * * * * * * * * * * * * * * * * * * * * * * * * * * * * * * * * * * * * //

dimensions      [0 1 -1 0 0 0 0];


internalField   nonuniform List<vector> 
13749
(
(1.0142 0.00067042 -3.07429e-21)
(1.06064 0.0208098 -1.42013e-20)
(0.987371 -0.00631433 0)
(1.02338 0.0593486 2.67243e-22)
(0.99083 0.0482231 0)
(1.06114 0.0465639 1.67425e-20)
(0.9675 0.194502 1.05543e-20)
(1.03721 0.0096153 0)
(0.992666 0.00725033 6.94164e-22)
(1.02427 0.0577988 -4.29705e-22)
(1.06075 0.0175476 0)
(1.00069 0.00464288 1.01987e-20)
(1.04197 0.0668513 -1.22961e-21)
(0.920188 0.0177005 0)
(0.751823 0.0115457 0)
(1.04383 0.00969579 -5.85602e-21)
(0.989555 0.0162605 -7.3171e-21)
(1.06106 0.0226 0)
(1.00211 0.00379535 7.29287e-21)
(0.997175 3.08879e-05 -1.9102e-21)
(0.331975 0.00137967 -2.14802e-20)
(0.731715 0.0124053 3.42471e-21)
(0.979808 0.0167682 -2.45046e-21)
(1.06411 0.0127584 0)
(0.988702 0.0480115 0)
(1.05316 0.0348228 2.05037e-20)
(1.05108 0.0359258 6.99167e-21)
(1.04202 0.052828 -9.04609e-21)
(1.01638 0.00607058 3.1827e-21)
(0.970988 0.0210849 -1.81499e-21)
(1.13313 0.211858 2.73174e-21)
(0.565674 0.0165905 0)
(0.922244 0.0484181 -1.46584e-20)
(1.05693 0.0136753 1.45074e-20)
(1.011 0.0120492 5.00754e-22)
(1.015 0.00555332 0)
(0.986059 -0.00518486 8.91913e-21)
(0.993966 0.0208236 -9.71852e-21)
(1.03841 0.0295662 -3.84946e-21)
(1.05583 0.0210406 1.08572e-20)
(1.06044 0.0474347 -1.96935e-20)
(0.251602 0.00561594 1.51583e-20)
(0.940483 0.0246124 0)
(0.924089 -0.00374641 0)
(1.06111 0.0226762 -2.31777e-22)
(1.04045 0.0435569 0)
(1.00024 0.00454135 0)
(1.06195 0.0306309 9.15211e-21)
(1.01885 0.0144814 0)
(0.0266764 -0.0179976 -5.9157e-20)
(1.06428 0.0133756 2.64922e-21)
(0.343531 0.00117632 1.90848e-20)
(1.05607 0.0213926 -1.25988e-20)
(1.07285 0.0212747 9.02054e-21)
(1.00114 0.0830061 0)
(1.01829 0.0144781 -1.57294e-21)
(1.04589 0.0630129 -1.43029e-23)
(0.925386 0.0459998 0)
(1.01314 0.0150199 4.92408e-21)
(1.02808 0.0158444 -1.2373e-20)
(1.00246 0.0199395 4.46776e-21)
(1.02599 0.038484 0)
(0.581947 0.014637 0)
(1.00058 0.0043598 -1.06731e-20)
(1.02417 0.028708 8.7377e-22)
(0.947573 0.0146141 5.69523e-21)
(0.992527 0.00779002 -5.67559e-22)
(0.994521 0.0200786 0)
(1.04654 0.0102265 1.39344e-20)
(1.04015 0.0424201 0)
(0.748143 0.0157518 -2.03121e-20)
(1.00809 0.00148875 5.18178e-21)
(1.05098 0.0182803 -1.04494e-20)
(1.01898 0.0186012 3.39468e-21)
(1.07008 0.0150909 -4.00305e-21)
(1.07244 0.147621 -4.28421e-21)
(1.04305 0.0149141 0)
(1.01299 0.0155896 0)
(1.04617 0.0612515 7.34304e-21)
(1.00002 0.000502456 0)
(1.01529 0.00584878 1.68601e-21)
(0.981754 0.0449789 -1.1589e-20)
(1.06461 0.0123008 2.99568e-21)
(1.01664 0.00630872 -2.05592e-21)
(1.05971 0.0588319 -6.80947e-21)
(1.05631 0.148005 9.96064e-21)
(0.947041 0.0107464 6.51294e-21)
(1.06677 0.025393 5.37485e-21)
(1.01066 0.0115828 -5.23194e-22)
(1.06135 0.029758 -7.61781e-23)
(1.00787 0.00790691 2.0897e-21)
(1.07283 0.0209874 0)
(1.02817 0.0334214 0)
(1.12462 0.0364547 0)
(0.774057 0.289868 0)
(1.05926 0.0244551 8.39619e-21)
(1.04736 0.0208691 0)
(0.995782 -0.00345748 -7.78774e-21)
(1.00812 0.0017276 0)
(0.950119 0.014728 9.33306e-21)
(0.448933 0.0074212 2.53818e-20)
(1.01454 0.00564043 0)
(1.0433 0.0185432 3.47272e-21)
(0.687233 0.0109184 -1.53051e-21)
(0.999783 -0.00107793 -2.19031e-21)
(0.704006 0.0107625 1.56533e-21)
(1.06337 0.0325416 0)
(0.994833 0.00835543 1.19505e-20)
(1.0613 0.0292086 2.21906e-22)
(0.996423 0.00462248 1.00853e-20)
(1.00064 0.00491085 -9.90214e-21)
(0.937429 0.0249061 -8.98454e-21)
(1.06406 0.0327259 -6.67151e-21)
(0.450892 0.0477907 6.06397e-20)
(0.407361 0.00453315 -3.33513e-21)
(1.02847 0.0182407 2.10693e-21)
(1.01428 0.00528147 -3.58012e-21)
(0.998998 0.0809122 -2.55488e-21)
(0.973118 -0.0119216 0)
(1.01469 0.0141241 -3.4466e-21)
(1.03681 0.00983795 -7.80594e-22)
(1.00015 0.000129483 -3.29921e-21)
(1.01499 0.000995268 2.39671e-21)
(1.01762 0.00471023 -6.14081e-22)
(0.985998 0.0450023 -2.63864e-21)
(0.757346 0.0162643 1.89452e-20)
(1.06085 0.0451538 0)
(0.732802 0.00627254 -1.07008e-20)
(1.04693 0.0279679 2.3705e-21)
(1.05575 0.0188351 1.97104e-20)
(1.03379 0.0549419 4.32602e-21)
(0.90671 0.0142236 -6.76887e-21)
(0.913398 0.00908013 -9.95669e-23)
(1.07146 0.0215268 4.37461e-21)
(1.05017 0.0543971 -1.2229e-20)
(0.95917 0.00310555 4.0512e-20)
(1.07008 0.0159837 0)
(1.01899 0.0136578 2.9079e-21)
(1.03443 0.0184014 4.88389e-23)
(0.0630424 -0.0086072 0)
(0.85738 0.0395371 4.83977e-20)
(1.05194 0.0250241 -2.16907e-23)
(1.04243 0.0296591 2.97538e-21)
(0.566811 -0.0123766 2.26839e-20)
(1.00907 0.00204548 2.04687e-21)
(0.0181921 -0.00956944 0)
(1.04329 0.0572523 5.47073e-21)
(0.995509 0.113869 -4.90265e-21)
(0.972894 -0.00543764 1.73389e-20)
(1.05978 0.0222701 1.21316e-20)
(1.0088 0.00189499 0)
(1.05579 0.0127428 0)
(0.734064 0.0104429 -8.25211e-21)
(1.08203 0.0232419 -2.20324e-20)
(1.04696 0.012085 0)
(0.489235 0.0103946 0)
(1.04354 0.0554063 1.038e-22)
(1.04789 0.0663374 0)
(1.06071 0.020886 1.30763e-20)
(0.998874 0.0100564 1.92868e-20)
(0.672892 0.0970567 1.77367e-20)
(1.00305 0.00139811 -3.50221e-21)
(0.229874 -0.00808234 5.21302e-20)
(0.922576 0.0522624 1.73438e-20)
(0.997523 0.00159249 -7.25907e-23)
(0.99884 0.0158344 -2.23347e-20)
(1.06624 0.0257287 9.76908e-21)
(0.988039 -0.00670631 0)
(0.97027 0.022709 -2.73206e-20)
(1.04225 0.0691433 -3.16286e-21)
(1.04279 0.0304711 0)
(0.996163 0.00485237 0)
(1.01912 0.0141141 0)
(1.05192 0.019632 0)
(0.962015 0.00714532 4.83871e-21)
(0.973267 0.203371 0)
(1.07842 0.148546 6.65349e-21)
(1.04667 0.0125107 -3.76025e-21)
(0.710878 0.00696619 2.01647e-20)
(0.678674 0.00432422 3.45945e-21)
(0.999898 -0.000779713 1.97889e-21)
(1.05666 0.0132182 -5.54166e-21)
(1.04717 0.0231327 -6.45984e-21)
(0.82665 0.352725 -7.12191e-21)
(1.07136 0.0213601 -1.55907e-20)
(0.96022 0.00701563 0)
(0.552478 -0.0108221 -3.85045e-20)
(1.01293 0.041667 -4.56835e-21)
(1.15839 0.0615801 4.50396e-20)
(1.00291 0.0205255 -1.59235e-21)
(1.0475 0.0236992 1.22794e-20)
(0.968782 0.0169069 1.5608e-20)
(1.03968 0.0114348 3.16034e-21)
(1.07233 0.0497033 -2.99571e-20)
(0.534894 -0.00765937 6.48083e-21)
(1.06214 0.145872 -1.46071e-20)
(1.05998 0.0443553 8.31137e-21)
(-0.0869826 -0.0138128 0)
(1.01531 0.000719429 0)
(1.0465 0.02845 4.44951e-21)
(1.01981 0.00833762 0)
(1.06333 0.0137011 1.16848e-20)
(1.0478 0.0642721 1.29831e-23)
(0.948297 0.0357157 1.86856e-21)
(0.613312 0.018148 5.17365e-21)
(1.0319 0.0235878 -1.20779e-21)
(1.01189 0.013959 -3.23453e-21)
(1.07279 0.048605 2.5822e-20)
(1.07176 0.021947 0)
(1.06708 0.0384914 0)
(1.02906 0.0185547 -1.90136e-21)
(0.95319 0.0186962 1.49973e-21)
(0.21116 0.00307297 -1.91465e-20)
(0.863468 0.267541 5.17319e-21)
(1.052 0.0357575 -7.32361e-21)
(1.06985 0.0441013 2.1138e-20)
(0.636533 0.0188528 0)
(1.05853 0.0159081 0)
(0.606225 0.0190908 -1.49469e-20)
(1.01596 0.00607868 0)
(1.18549 0.157489 -7.95742e-20)
(0.950843 0.0349169 0)
(1.07284 0.0210746 -2.41587e-20)
(1.02655 0.0148855 0)
(0.950057 0.0881748 1.18923e-20)
(1.06934 0.0199753 0)
(1.03216 0.0243004 0)
(0.849633 0.0400747 -5.35439e-20)
(0.621266 0.0180917 0)
(0.974784 0.0198926 5.26581e-21)
(0.991055 -0.00234604 2.23576e-20)
(0.999996 -5.02464e-05 -8.5085e-21)
(1.0002 0.00015064 0)
(1.00036 0.00455788 0)
(0.800068 0.0135466 1.61917e-20)
(0.984736 0.0457743 1.36229e-20)
(0.983852 0.166599 -6.14545e-21)
(1.07273 0.0218193 1.47036e-20)
(0.997475 -8.63517e-05 1.7466e-21)
(0.990344 0.0160547 0)
(0.990969 0.0520406 -2.37607e-21)
(1.00072 0.0136523 0)
(1.03694 0.0232892 -5.11896e-21)
(1.06133 0.025618 5.75873e-21)
(1.06376 0.0557397 -2.19876e-20)
(0.570168 -0.00865448 -4.71946e-23)
(0.981607 0.0429191 2.71119e-20)
(0.594575 0.0216211 7.27646e-22)
(1.0411 0.0407288 1.62852e-21)
(0.993062 0.00175429 5.19564e-22)
(0.143365 -0.0143137 -2.19608e-20)
(0.95899 0.00441426 -3.7136e-20)
(1.00625 0.000628928 -5.17026e-21)
(1.02829 0.0343547 2.95427e-22)
(0.855269 0.0741133 0)
(1.05121 0.0249366 7.04635e-21)
(0.994479 0.00800169 -1.18226e-20)
(0.195436 -0.00246808 -3.36219e-20)
(1.05439 0.155086 -6.3053e-21)
(0.616488 0.0180904 0)
(1.02085 0.00877377 8.43691e-22)
(0.920519 0.0792383 7.21041e-21)
(1.06192 0.0299999 9.64108e-21)
(1.0202 0.0395416 1.20416e-21)
(0.972273 -0.000992028 2.11009e-20)
(1.06936 0.0162991 -2.16958e-21)
(1.06876 0.0231874 -2.66407e-20)
(1.05363 0.035498 -1.17125e-20)
(0.896057 0.161572 2.56641e-20)
(0.848829 0.0684178 1.19425e-19)
(1.01555 0.00196995 5.83327e-21)
(0.373219 0.00589549 2.12746e-21)
(1.05998 0.0201404 -1.30415e-20)
(0.54004 -0.0125847 0)
(1.01256 0.0405782 5.49662e-23)
(0.523802 0.0115729 5.14775e-21)
(0.191426 0.00285214 -1.27084e-21)
(1.05332 0.0174953 1.04374e-20)
(0.850564 0.0583436 -4.21912e-20)
(1.05129 0.0195865 -6.36246e-21)
(0.999071 0.0151861 9.49903e-21)
(1.01728 0.0171702 2.1594e-22)
(1.09357 0.0297186 -3.87793e-21)
(0.28873 -0.00209772 -2.51803e-21)
(1.0529 0.0252705 -1.3801e-20)
(0.971643 -0.0064345 -1.91223e-20)
(1.05448 0.0471162 -1.11953e-20)
(1.0137 0.015055 0)
(1.15848 0.0660996 -1.59224e-20)
(0.993558 0.0458815 0)
(1.06319 0.0222088 -4.46587e-21)
(1.01717 0.0149368 0)
(0.593602 0.0192563 2.16769e-20)
(1.06109 0.0173048 -4.79635e-21)
(0.786559 0.0135381 0)
(1.07231 0.0222564 -5.1013e-21)
(0.994934 -0.00267378 1.85008e-20)
(1.01397 0.00339447 0)
(1.0368 0.0253857 -6.92553e-21)
(1.01407 0.000816694 4.07176e-21)
(1.04345 0.0153006 -3.71234e-21)
(1.01091 0.0112068 -4.38748e-21)
(1.05579 0.0117457 0)
(0.125383 -0.0112286 2.02534e-20)
(1.0561 0.0122391 0)
(1.02128 0.00883331 2.26111e-22)
(1.02737 0.0147475 -3.74497e-22)
(0.997706 0.00141051 -7.6816e-21)
(1.03737 0.0125762 0)
(1.05315 0.0189867 0)
(0.354797 0.00547218 0)
(1.06047 0.05008 -6.62621e-21)
(1.02094 0.0323436 0)
(0.600796 0.00623485 3.7843e-21)
(1.01535 0.00171613 -3.77285e-21)
(0.991734 0.0458344 0)
(1.04372 0.0188803 4.32485e-21)
(0.785541 0.0139977 3.53156e-21)
(1.01524 0.0140679 0)
(1.0468 0.0155483 4.66565e-21)
(1.07208 0.0272982 0)
(0.307935 0.00829143 2.41574e-20)
(1.05675 0.0266567 -1.00562e-22)
(1 9.39853e-05 0)
(-0.0867221 -0.0169158 7.21338e-20)
(0.99993 -0.000135213 -7.7586e-21)
(1.01062 0.010765 4.10896e-21)
(1.01936 0.0100129 0)
(0.993579 0.0111753 0)
(0.970883 -0.00194398 1.80755e-20)
(1.01908 0.0102402 0)
(1.00063 0.00417149 1.15208e-20)
(1.01793 0.00490683 1.17994e-21)
(1.04339 0.0519774 -4.41477e-21)
(1.02013 0.0324037 -1.25497e-21)
(1.03378 0.0182429 0)
(1.01839 0.0181958 -3.18214e-21)
(1.05056 0.0367229 0)
(0.99338 0.0108023 -3.37034e-22)
(0.946084 0.089781 -1.57568e-20)
(0.995088 -0.00512555 -1.10868e-20)
(1.12474 0.219664 -3.16762e-21)
(1.01896 0.0396419 -2.35097e-21)
(1.02874 0.0154604 -3.10246e-21)
(1.06707 0.0375194 -1.07707e-20)
(1.0349 0.018232 -2.04963e-21)
(1.04614 0.0156172 0)
(0.966323 0.00361076 2.62457e-20)
(1.01324 0.0190258 5.26583e-21)
(0.994088 0.00989203 -6.89234e-21)
(1.00099 0.0241648 7.93417e-21)
(1.00064 0.0250639 0)
(0.131516 0.000511754 -2.10292e-21)
(0.81296 0.208796 7.07334e-20)
(1.02711 0.0383643 -1.06434e-22)
(1.00707 0.017788 5.34426e-21)
(1.06034 0.0639312 1.42728e-20)
(1.07445 0.0209563 0)
(1.03857 0.102289 -6.06776e-21)
(1.14282 0.241523 6.5857e-20)
(0.991658 -0.00236887 0)
(0.999976 -6.74617e-05 7.6673e-21)
(1.01663 0.0148831 0)
(0.255925 0.0027445 0)
(0.837595 0.0275702 0)
(0.999544 0.011168 -5.23105e-23)
(0.999739 0.115943 0)
(0.381365 0.0070208 -4.14422e-21)
(0.751558 0.0107675 0)
(0.99553 -0.00139153 1.78261e-20)
(0.804261 0.013868 0)
(1.05216 0.0247238 6.7577e-21)
(0.914281 0.0669828 6.2356e-20)
(1.00002 0.000382294 -6.93652e-21)
(0.99944 0.0106863 -4.52042e-21)
(1.02999 0.0315856 0)
(1.03264 0.106002 2.78697e-21)
(-0.0346589 -0.00930634 0)
(1.07795 0.0443381 7.90375e-21)
(1.04729 0.0219941 0)
(0.999511 -0.00120608 6.0026e-21)
(0.99548 -0.00392601 0)
(0.73102 0.0112217 -1.86044e-20)
(0.966705 0.00530266 -2.42439e-20)
(0.999894 -0.000110808 9.35617e-21)
(1.01219 0.000237293 2.9964e-21)
(0.544341 0.0187191 -4.58574e-21)
(1.00019 0.0203966 -9.00469e-21)
(0.999203 0.00977359 -1.91809e-20)
(1.04341 0.0180402 0)
(1.06179 0.0242406 0)
(1.07291 0.022178 -1.17098e-20)
(0.518994 -0.0124718 0)
(1.0035 0.0243727 -7.06872e-21)
(0.963334 0.0383349 6.44376e-21)
(1.17025 0.145894 4.12314e-20)
(0.540361 0.0846798 1.31553e-19)
(1.12714 0.198341 1.08955e-21)
(1.06006 0.0235995 5.76832e-21)
(1.07173 0.0203318 0)
(1.00327 0.00143882 -8.01706e-21)
(1.0604 0.0603918 0)
(1.00172 0.000451598 0)
(1.06326 0.0184307 0)
(1.03678 0.0125753 2.60182e-21)
(1.05284 0.0247848 4.45803e-21)
(1.04832 0.0188813 2.0024e-20)
(1.0602 0.0240067 2.23067e-20)
(1.06399 0.0168504 7.40242e-21)
(1.01354 0.0196199 0)
(1.03795 0.0239581 -3.31452e-21)
(1.04751 0.0186917 -4.85949e-21)
(1.06008 0.0234521 -6.84177e-21)
(0.691067 0.00497977 0)
(1.02876 0.105586 5.88548e-22)
(0.999637 -0.000289051 -1.42127e-20)
(0.776625 0.0139494 0)
(0.794618 0.0132819 -1.12267e-20)
(1.05607 0.0132569 0)
(1.05927 0.0247455 -9.54355e-21)
(0.995043 0.0112266 7.79689e-21)
(1.0603 0.0527743 0)
(1.1673 0.0798149 0)
(1.04274 0.0177066 -7.04101e-21)
(1.0709 0.0229416 5.50781e-21)
(1.00278 0.00463254 8.58253e-21)
(0.897959 0.151147 -4.52784e-20)
(0.978833 0.254207 0)
(0.517454 0.0129244 -1.95992e-20)
(0.955411 0.194462 2.05395e-21)
(1.06343 0.0237379 -8.69889e-21)
(1.00003 0.000407033 -7.36082e-21)
(1.06131 0.025416 -1.22776e-20)
(1.03516 0.101955 3.6355e-21)
(1.08211 0.024058 0)
(1.04118 0.0417517 1.90578e-21)
(1.03088 0.0320203 -1.43706e-21)
(1.02314 0.0307162 -1.32485e-21)
(0.993144 0.0206828 -5.89234e-21)
(0.657378 -0.00137352 -4.21925e-21)
(0.9931 0.00721983 0)
(0.977195 0.0115597 -3.51231e-20)
(1.00001 0.00032623 -8.79794e-21)
(1.0476 0.0225703 7.19074e-23)
(1.02689 0.0563599 7.34835e-22)
(1.02041 0.00904386 0)
(1.00375 0.00459891 -1.18927e-20)
(0.847078 0.272816 -6.72935e-21)
(1.06357 0.0306513 -1.08462e-20)
(1.07899 0.0432331 1.12186e-23)
(1.09137 0.0298478 -4.13386e-21)
(0.953694 0.0175927 2.29472e-20)
(1.22207 0.212205 0)
(1.0179 0.0170195 -5.05969e-21)
(0.579546 -0.0124923 1.56906e-20)
(1.05202 0.0312205 8.17366e-21)
(1.02626 0.0578212 -7.6057e-22)
(1.04109 0.0596268 -4.09365e-21)
(1.01736 0.0160778 1.29175e-20)
(0.995965 -0.00146775 1.76764e-24)
(1.00138 0.000869477 6.04762e-21)
(1.00001 0.000166924 -8.29692e-21)
(1.04267 0.0172636 3.47465e-21)
(0.399575 0.00650605 -4.08216e-21)
(1.03777 0.0299768 4.09003e-21)
(1.05358 0.00968782 -7.51338e-21)
(1.06051 0.0212133 0)
(1.10889 0.0784121 0)
(0.479101 0.08484 -1.62254e-19)
(0.926148 -0.00700324 1.61755e-20)
(1.02807 0.0228134 -7.29904e-22)
(1.00327 0.00478266 3.79799e-21)
(1.10498 0.0804328 0)
(0.465283 0.0087728 0)
(1.00053 0.019652 -2.31263e-22)
(0.995521 0.0108644 0)
(1.05972 0.0218378 0)
(1.06363 0.0622444 -8.16393e-21)
(0.993123 0.00222644 0)
(0.97841 0.0115648 2.14257e-20)
(1.04192 0.0543764 8.12536e-21)
(1.03731 0.0115301 2.40245e-21)
(1.02006 0.0100092 -1.63856e-21)
(0.583727 0.0181833 -8.06865e-21)
(0.500749 0.0134859 -5.75748e-21)
(1.16918 0.153509 2.84139e-20)
(0.250729 -0.00524533 0)
(0.575053 0.0135172 3.55963e-22)
(0.998738 0.0579181 0)
(1.04785 0.0182568 0)
(1.03716 0.0240026 0)
(1.03753 0.0112013 -8.77447e-21)
(1.00172 0.00134817 0)
(1.05587 0.0202585 3.21761e-21)
(1.01982 0.0102112 0)
(1.01702 0.0370232 -4.76078e-21)
(0.503137 -0.0120789 0)
(1.02309 0.0298766 1.20614e-21)
(0.22452 0.0277169 0)
(1.00717 0.0173421 0)
(0.970898 0.00259493 1.1217e-20)
(0.961839 0.0154597 9.58934e-21)
(1.04579 0.0150966 3.96186e-21)
(1.07444 0.0208042 1.03897e-20)
(1.02333 0.0280979 -1.59311e-21)
(0.527208 0.01222 2.24097e-20)
(1.06054 0.0190202 -1.6466e-20)
(1.0629 0.0186684 0)
(0.995329 0.02026 -1.05081e-20)
(1.01072 0.000247038 -1.8791e-21)
(0.999917 1.93234e-05 -6.65385e-21)
(1.03156 0.0221577 0)
(1.01142 0.0139471 7.07455e-22)
(0.314533 0.00924853 -7.1872e-22)
(1.04709 0.0160384 2.63774e-21)
(0.217738 -0.000356356 0)
(0.913676 0.0616599 -2.49678e-20)
(0.977775 0.0138489 1.92574e-20)
(1.05847 0.0155011 7.38536e-21)
(1.00212 0.00405654 -7.48671e-21)
(0.976888 0.0153445 2.21007e-20)
(1.20719 0.198625 1.88323e-20)
(0.98737 0.0275163 1.5426e-20)
(1.06032 0.0191752 2.25864e-23)
(0.97462 0.0251191 0)
(1.02835 0.00983685 -3.93802e-22)
(0.99839 0.00540179 9.91269e-21)
(1.04961 0.0365981 -6.52421e-21)
(1.01621 0.0372617 0)
(1.07331 0.0526079 -1.18652e-20)
(1.00125 0.025795 0)
(0.781416 0.320042 7.59497e-20)
(0.994278 0.109769 -1.93522e-21)
(1.05333 0.0101556 2.30903e-21)
(1.05184 0.0174265 -9.21452e-21)
(1.06121 0.0490683 7.35016e-21)
(0.986927 -0.0048611 -1.03042e-20)
(0.986784 0.0144688 -1.46302e-20)
(0.597555 0.0176008 9.01545e-21)
(0.778668 0.0145091 1.16548e-20)
(1.00958 0.0215958 1.67617e-20)
(1.16609 0.0726863 -3.12886e-20)
(1.06081 0.0213286 0)
(1.0626 0.0219948 1.37381e-21)
(0.065559 -0.0218483 5.55596e-20)
(1.0607 0.0179194 0)
(0.973438 0.0597747 1.02475e-20)
(0.619375 0.0153604 -5.42455e-21)
(0.407549 0.00396412 1.15653e-20)
(1.00142 0.0167348 1.51819e-20)
(1.06132 0.0165277 -1.74885e-23)
(0.960864 0.000225378 0)
(0.55277 0.01664 -4.88941e-21)
(1.05845 0.0194323 -1.53264e-20)
(1.05632 0.0267061 -7.73458e-21)
(1.03761 0.0255821 3.84647e-21)
(0.99821 0.00520589 1.11613e-22)
(1.05609 0.0206225 0)
(1.04293 0.0118028 -3.93746e-21)
(0.43818 0.00897821 2.01913e-20)
(0.933325 0.0183456 -5.60553e-21)
(1.0142 0.0036954 -1.77922e-21)
(1.02207 0.00886215 0)
(1.05956 0.0189354 -6.78323e-21)
(0.962701 -0.000439915 -1.43111e-20)
(0.619193 -0.00172977 -4.22193e-21)
(0.995313 -0.00223078 -1.87393e-20)
(0.992452 -0.00688695 7.23429e-22)
(1.01364 0.0287374 4.63442e-21)
(1.07132 0.0277912 -1.07333e-20)
(0.999609 -0.00121377 -7.24215e-21)
(1.08173 0.0347825 6.01132e-21)
(0.614844 0.0151148 7.52527e-21)
(1.00156 0.00041822 -8.52326e-21)
(1.03364 0.0219617 0)
(1.02684 0.0147004 -4.46272e-22)
(0.665557 0.00502232 -3.61606e-21)
(0.444847 0.0078037 5.21072e-21)
(1.04794 0.0459971 1.02254e-20)
(0.938534 0.0921469 -7.61724e-21)
(1.03093 0.0329156 1.46392e-21)
(1.06445 0.0170491 -8.12045e-21)
(-0.0421002 -0.0173558 9.09622e-20)
(0.930358 0.0468855 1.86075e-20)
(0.984226 0.0629129 0)
(0.999971 0.000342433 0)
(0.642167 0.648653 4.21669e-20)
(0.990644 0.02124 1.2864e-20)
(1.00302 0.00485216 4.47435e-21)
(1.02907 0.0547439 -1.87935e-21)
(1.04626 0.0297721 -9.22809e-21)
(1.0415 0.0158203 0)
(0.997803 0.0568629 0)
(0.964086 0.0369854 -2.13704e-20)
(0.92797 0.0147937 1.47446e-20)
(0.989219 0.0204819 1.12913e-20)
(1.01242 0.0155953 -5.2553e-21)
(0.0776101 -0.0134476 -6.0893e-20)
(0.525606 -0.0120581 1.77587e-20)
(1.04703 0.013121 0)
(1.04676 0.0135244 2.45865e-21)
(0.967241 0.0161696 6.78551e-21)
(1.06178 0.0244016 -6.81252e-21)
(0.480937 0.0118014 0)
(0.0376744 -0.0215265 0)
(1.03801 0.0309341 0)
(1.05118 0.0311725 6.82565e-21)
(0.679281 0.00529456 0)
(0.0401245 -0.0218859 0)
(0.99997 0.000316741 4.68724e-21)
(1.00066 0.0157549 -6.36515e-21)
(1.04242 0.0205183 6.43316e-21)
(1.00802 0.00761923 -8.91634e-22)
(0.636903 0.0142694 -1.04855e-20)
(1.06307 0.0141474 -1.42818e-20)
(1.04751 0.0469272 -7.55272e-21)
(0.995357 0.0823843 0)
(0.993167 0.0798872 0)
(0.995949 0.014913 8.02505e-21)
(1.03994 0.0443142 0)
(1.05193 0.205026 7.7673e-21)
(0.995534 0.0102054 -2.08636e-20)
(1.07138 0.0217471 9.09276e-21)
(1.01444 0.028934 -2.44154e-21)
(0.942697 0.390083 -5.08773e-21)
(0.586353 -0.0198247 -1.92992e-20)
(0.999686 -0.00117304 0)
(1.18698 0.136198 4.5183e-21)
(1.03965 0.0119035 9.75665e-22)
(0.994589 0.0102152 0)
(0.961671 0.0167901 3.36674e-21)
(1.02045 0.0130456 1.10991e-21)
(0.844279 0.0538716 -9.02416e-20)
(1.00429 0.0103502 -6.56341e-21)
(1.04623 0.0167139 7.91028e-21)
(1.00231 0.00311479 0)
(1.04579 0.0140556 -1.86758e-21)
(1.0326 0.0185841 -2.79818e-21)
(0.951506 0.0156716 -3.53055e-21)
(1.01435 0.0184946 0)
(1.0177 0.0103934 1.24482e-21)
(0.993075 0.00966364 0)
(1.00506 0.0129759 0)
(0.527188 -0.018921 -2.18311e-20)
(1.07366 0.0356654 0)
(1.05129 0.0174659 1.18587e-20)
(1.07309 0.0351595 0)
(0.987783 0.0284519 5.34313e-21)
(0.304417 0.00806505 -4.29441e-21)
(0.760054 0.0110601 -3.12944e-21)
(1.01573 0.00112537 2.79612e-21)
(1.0531 0.0185186 -6.94307e-21)
(1.06391 0.0137869 -5.70983e-21)
(1.02246 0.0087619 -5.21364e-22)
(1.00149 0.000776054 -6.26974e-21)
(1.05245 0.0307122 -1.14928e-20)
(1.08011 0.0348984 1.04317e-20)
(0.484844 0.0104547 0)
(1.05986 0.0220662 0)
(0.999953 0.000416094 -5.05252e-21)
(1.02407 0.0295642 0)
(1.07366 0.0512806 3.84398e-20)
(0.999815 -0.000635735 -1.03231e-20)
(1.06371 0.0239774 -4.08087e-21)
(1.0016 0.0014425 0)
(0.425829 0.00967505 -2.63254e-20)
(1.00065 0.0412345 0)
(1.0038 0.0124305 7.14304e-21)
(0.998248 0.000260166 0)
(1.01719 0.0177402 0)
(0.823395 0.0129714 5.73458e-21)
(1.06108 0.0251613 0)
(1.07297 0.0216054 -9.53768e-21)
(1.02033 0.00932922 0)
(1.04313 0.0121882 3.5804e-21)
(1.10235 0.0582419 -4.7495e-22)
(0.951325 0.0175446 -1.21747e-20)
(1.03733 0.0314256 -5.64367e-21)
(0.576301 0.0166892 4.23427e-22)
(0.623489 0.0202143 -5.86161e-21)
(1.06109 0.0224495 -1.48927e-20)
(1.00361 0.00174021 2.97545e-21)
(1.19679 0.174899 1.12654e-19)
(0.868999 0.031725 1.14034e-20)
(0.983034 -0.00428795 2.82337e-21)
(1.02087 0.00775396 6.69167e-23)
(1.06744 0.151377 2.11129e-20)
(1.06797 0.0401838 -5.9727e-21)
(1.01572 0.00577303 -3.8698e-21)
(0.455853 0.0105018 1.10743e-20)
(0.0982455 -0.0162091 5.44003e-20)
(1.05154 0.0543415 3.04179e-21)
(0.997184 0.0398378 -1.31722e-20)
(1.0191 0.0167351 -1.75234e-21)
(1.01807 0.0106888 -2.63327e-21)
(0.654824 0.0143657 7.71152e-21)
(1.02149 0.109084 7.34393e-23)
(1.01468 0.000790021 0)
(0.949598 0.0833558 2.20042e-20)
(1.01118 0.0186521 -4.90535e-22)
(1.042 0.0400693 0)
(1.02019 0.00812722 -1.14029e-21)
(0.988084 0.0454043 0)
(1.02868 0.056129 1.88071e-21)
(0.999934 0.000391008 0)
(1.04295 0.013843 5.68086e-21)
(0.996564 0.107532 8.17697e-21)
(0.954132 0.0121852 -1.81476e-20)
(1.061 0.0168039 -1.47543e-20)
(1.10423 0.0849641 7.71264e-21)
(1.05605 0.0112326 0)
(1.0612 0.0515824 7.14762e-21)
(0.467701 0.0124516 2.48384e-21)
(1.04151 0.0577863 -1.06214e-21)
(1.04614 0.0145427 -4.06875e-21)
(1.08085 0.0225822 3.09327e-20)
(0.492868 0.0139848 0)
(0.99609 -0.00183269 -1.77511e-20)
(0.363767 0.0114572 -2.05889e-22)
(1.04508 0.0469483 -1.61708e-20)
(0.971284 0.0551457 -1.70993e-20)
(0.903876 0.0456679 -2.0041e-20)
(1.00063 0.0210703 8.88635e-21)
(0.0819503 0.0645894 7.22866e-20)
(1.00593 0.000780536 5.94792e-21)
(1.06213 0.0186368 -1.23565e-20)
(0.351485 0.00683263 0)
(0.999038 0.0228204 8.73664e-21)
(0.979515 0.0400861 -1.79961e-20)
(1.06676 0.0292508 -1.33379e-20)
(1.00732 0.0152171 0)
(1.09524 0.0501007 -1.65123e-20)
(1.04813 0.215294 -6.65841e-21)
(1.01218 0.0182319 3.12522e-21)
(1.18557 0.143981 -5.0174e-21)
(1.06081 0.0251511 0)
(1.01986 0.00871544 0)
(1.03506 0.0739425 -3.97167e-21)
(1.02994 0.0306459 2.93821e-22)
(1.01214 0.0292529 -1.23328e-21)
(0.939521 0.0187626 8.84788e-21)
(0.982279 -0.00505296 -1.56953e-21)
(1.05228 0.0192274 -7.67213e-21)
(0.998982 0.0105282 0)
(1.12874 0.235121 0)
(1.01561 0.00104103 0)
(0.9722 0.000402202 -2.02442e-20)
(1.00041 0.0234263 8.18443e-21)
(0.944766 0.0757556 -1.89823e-20)
(0.861479 0.0307324 1.28207e-20)
(0.760446 0.0120431 3.21874e-21)
(1.0598 0.0216646 0)
(1.00421 0.0246331 -4.17101e-21)
(1.00348 0.00493598 2.73652e-21)
(1.05989 0.0224416 -1.75865e-20)
(1.12696 0.0381774 0)
(1.03235 0.022354 0)
(1.0042 0.0128795 1.20924e-20)
(1.01069 0.0133541 -1.35277e-21)
(1.04637 0.0472404 8.61329e-21)
(1.01472 0.0156627 4.51298e-21)
(0.944519 0.0162017 0)
(0.999799 0.000490135 -1.04724e-20)
(1.05725 0.0157397 -7.51134e-21)
(1.07505 0.0213903 -5.95897e-22)
(0.779698 0.0135274 1.37357e-20)
(0.999931 -0.000670782 0)
(1.00465 0.0106364 7.03799e-21)
(0.999146 0.000843352 4.85657e-21)
(0.992013 0.053491 2.60081e-21)
(1.14236 0.0531389 -3.47203e-20)
(0.564015 0.0157609 0)
(0.743292 0.0118119 0)
(1.06249 0.0264519 0)
(0.917712 0.0763522 0)
(0.72137 0.0112912 1.04449e-20)
(0.995433 0.0153299 0)
(0.99448 0.0476072 -9.18926e-21)
(1.06106 0.0230873 1.91961e-21)
(1.04613 0.0172021 0)
(1.01965 0.0335172 3.03124e-21)
(1.05215 0.0138538 0)
(0.984445 0.0206993 0)
(1.03652 0.0131111 5.22631e-21)
(1.01865 0.0159764 2.30082e-20)
(1.0412 0.0152861 0)
(0.56328 -0.0212429 2.35351e-20)
(0.996465 0.00556005 0)
(0.413441 0.00996716 -1.23011e-20)
(0.469407 0.0145997 0)
(0.785898 0.0137658 -1.62954e-20)
(0.670882 0.019526 -1.15324e-20)
(1.06084 0.0215416 0)
(1.05588 0.0194807 -6.36235e-21)
(0.485379 -0.0232553 -3.6831e-20)
(1.01115 0.0133807 1.27513e-21)
(0.983021 0.0651725 0)
(0.99635 0.00214557 -3.35294e-21)
(1.1161 0.107504 0)
(1.00388 0.0049191 4.19369e-21)
(1.14853 0.477023 -8.37429e-20)
(0.767499 0.166882 1.75338e-20)
(0.981192 0.102745 -1.1212e-20)
(1.00012 0.018985 -6.9789e-21)
(0.990168 0.0251661 0)
(0.738967 0.0121116 1.9863e-20)
(0.98886 0.0522803 0)
(0.975741 0.059131 -6.24025e-21)
(1.00194 0.00707933 0)
(0.922739 0.0154474 -2.76497e-21)
(1.10527 0.0630878 0)
(1.06061 0.0213267 0)
(1.07066 0.0463318 2.52033e-20)
(0.378949 0.00828203 -1.81297e-22)
(1.01508 0.0282136 -1.94206e-21)
(0.43202 0.0115149 -1.51726e-20)
(1.06099 0.0215762 -7.92629e-21)
(1.12419 0.0368702 0)
(1.04766 0.0214765 0)
(1.07201 0.0469143 -3.22184e-20)
(0.957273 0.0199764 1.2398e-21)
(1.08256 0.035904 -2.33964e-20)
(1.00194 0.00359208 0)
(1.04771 0.0203738 2.60352e-21)
(0.832481 0.035423 0)
(1.00543 0.00663719 0)
(0.750842 0.0114374 3.21709e-21)
(0.770883 0.0135901 -2.15097e-20)
(0.571653 0.0172954 -2.5062e-21)
(0.728683 0.0117683 -1.74245e-20)
(1.06107 0.0229986 0)
(0.979241 0.0203678 0)
(0.968916 0.00761727 0)
(1.14789 0.256458 -6.85293e-20)
(1.00379 0.00187579 -8.95397e-21)
(1.09904 0.0315452 8.61238e-21)
(1.0847 0.0369682 -2.36991e-20)
(1.03425 0.0538049 -4.32065e-21)
(1.07115 0.0250621 1.21905e-22)
(0.865866 0.247326 -2.01666e-20)
(1.11496 0.0972989 -1.83489e-20)
(0.990911 0.000514222 0)
(0.987616 0.161608 7.41998e-21)
(0.407994 -0.0286211 0)
(0.996198 0.00539958 0)
(1.04127 0.0250007 2.50587e-21)
(1.00336 0.00409507 -3.13475e-21)
(1.00012 0.00426785 0)
(1.00239 0.00338569 5.08085e-22)
(0.830772 0.0132152 -4.06104e-21)
(0.999733 -0.000647044 2.32488e-20)
(1.01543 0.0173209 2.43754e-21)
(1.06025 0.0237898 -1.77963e-20)
(0.996245 -0.00491388 8.13579e-21)
(1.05284 0.017427 -1.23861e-21)
(1.00658 0.0168188 4.75281e-21)
(0.900484 0.0422446 3.37201e-20)
(1.0359 0.0131139 -1.26759e-21)
(0.792458 0.274099 4.70863e-21)
(0.99859 0.00126616 6.9047e-21)
(0.735772 0.125342 8.09949e-20)
(0.646145 -0.00490417 1.03079e-20)
(1.0708 0.0447126 -2.61154e-20)
(1.06797 0.0161309 0)
(1.05336 0.0252523 -1.15511e-22)
(0.915294 0.388975 -1.8635e-21)
(1.06614 0.0292756 1.73002e-20)
(0.815064 0.0135182 4.00062e-21)
(0.908422 0.149017 0)
(0.997992 0.00153206 1.18644e-20)
(0.622736 -0.016664 0)
(0.954854 0.0198427 -2.21202e-20)
(0.458158 0.0129438 5.18473e-21)
(1.03205 0.0553153 -1.61555e-21)
(1.08445 0.0360691 0)
(1.11947 0.0389112 -2.52071e-20)
(1.06214 0.0264229 0)
(0.999977 -0.000115994 -1.1323e-21)
(1.04406 0.0126213 1.68239e-21)
(0.6714 0.017749 8.19476e-21)
(1.04174 0.0245348 -1.00962e-20)
(1.03276 0.0151671 -6.29949e-21)
(1.04433 0.0286907 3.4235e-21)
(1.06299 0.0215919 8.50425e-21)
(1.05848 0.0191681 9.98402e-21)
(1.0609 0.0212103 2.8363e-21)
(0.935344 0.0153471 -1.06855e-20)
(1.00745 0.00626591 -1.00791e-20)
(0.768956 0.012356 1.06684e-20)
(1.06518 0.0222218 9.94316e-21)
(1.00191 0.00905128 9.25819e-21)
(1.0274 0.019686 -5.93532e-22)
(0.705108 0.0049659 6.5894e-21)
(1.0158 0.0284191 7.43414e-21)
(1.06889 0.0420206 6.01681e-21)
(0.485686 -0.0279921 -9.15407e-22)
(0.998034 4.15628e-05 1.18707e-22)
(1.06201 0.0196639 0)
(1.0119 0.072145 1.40287e-21)
(1.05666 0.0112537 -1.20243e-20)
(1.02679 0.0193348 0)
(1.00175 0.00876018 3.87949e-21)
(1 7.94491e-05 0)
(1.06804 0.0391241 1.24448e-20)
(0.781299 0.0133724 0)
(1.00357 0.0141387 1.00031e-20)
(1.00553 0.00698431 0)
(0.933872 0.0107414 4.53707e-21)
(1.11539 0.0400116 2.12123e-20)
(1.05923 0.0620183 -1.41383e-20)
(0.995561 -0.00316913 1.40117e-20)
(1.01412 0.015617 3.47551e-23)
(1.01479 0.0190454 0)
(0.999949 0.000285983 0)
(0.996015 0.00997511 1.30039e-20)
(0.977361 0.101846 3.65588e-21)
(0.966239 0.046553 1.06498e-20)
(0.765942 0.184845 -6.04693e-20)
(1.15315 0.0932912 1.31344e-21)
(1.05772 0.0104581 1.32859e-20)
(1.06094 0.0224009 -2.18219e-21)
(0.964551 -0.00293839 1.03908e-22)
(0.999575 -0.00020954 1.38914e-20)
(1.02998 0.0172676 4.81344e-22)
(1.09638 0.0316772 0)
(0.90635 -0.00321211 -1.45436e-20)
(1.06436 0.0333287 3.7276e-21)
(1.03789 0.020475 -2.11994e-20)
(1.00002 0.000315563 8.03661e-21)
(1.1186 0.103309 1.92315e-20)
(1.05086 0.0255655 0)
(1.06196 0.0159089 0)
(0.996638 0.00209477 6.21893e-21)
(1.07144 0.0249423 2.00703e-20)
(0.970178 0.0324002 8.32012e-21)
(0.999854 4.49592e-05 -1.23135e-20)
(0.968279 0.0105197 1.17006e-20)
(1.01658 0.00103371 2.30334e-21)
(1.06311 0.0130859 -1.02268e-20)
(1.05303 0.0320693 -2.21917e-21)
(0.910444 0.13933 2.23161e-20)
(1.00224 0.00347683 -4.95888e-21)
(0.795823 0.0125253 -1.77342e-20)
(1.00001 0.00020225 0)
(0.448422 0.015037 -7.9808e-21)
(0.574528 -0.0185131 -1.12381e-20)
(0.999039 0.00302277 0)
(0.595098 -0.00788229 0)
(1.00743 0.000902285 0)
(1.00715 0.0146151 0)
(0.990949 0.0247127 -8.33581e-21)
(1.00001 0.000174252 0)
(1.0295 0.0174947 -1.11084e-22)
(0.986579 0.00316746 5.84665e-21)
(1.01144 0.0193044 0)
(0.994656 0.00887271 0)
(1.01284 0.00339899 -2.13162e-21)
(0.97336 0.0238646 0)
(0.995577 0.159989 0)
(0.804974 0.0128927 0)
(1.0208 0.0167068 -8.2267e-23)
(0.530503 0.0173482 0)
(1 4.1732e-05 0)
(0.970752 0.00114836 2.26889e-20)
(1.05097 0.0201618 7.44332e-21)
(0.96279 -0.00232132 -1.41873e-20)