/*--------------------------------*- C++ -*----------------------------------*\
| =========                 |                                                 |
| \\      /  F ield         | OpenFOAM: The Open Source CFD Toolbox           |
|  \\    /   O peration     | Version:  v2012                                 |
|   \\  /    A nd           | Website:  www.openfoam.com                      |
|    \\/     M anipulation  |                                                 |
\*---------------------------------------------------------------------------*/
FoamFile
{
    version     2.0;
    format      ascii;
    class       volVectorField;
    location    "650";
    object      ddt0(U);
}
// * * * * * * * * * * * * * * * * * * * * * * * * * * * * * * * * * * * * * //

dimensions      [0 1 -2 0 0 0 0];


internalField   nonuniform List<vector> 
13308
(
(0.00110348 0.00597086 2.20149e-20)
(0.00671179 0.00262562 1.89676e-20)
(-4.48518e-05 0.00694917 2.39067e-20)
(0.00176409 0.000153463 -1.73904e-20)
(0.00125195 -2.4169e-05 2.53041e-21)
(0.00508354 0.00111576 -2.58891e-20)
(0.00187476 0.00134279 0)
(-0.000948198 9.87362e-05 -2.686e-20)
(0.00188181 -2.12592e-05 -4.94596e-21)
(0.000810975 0.000210518 6.59521e-21)
(-0.00113623 0.00819066 -3.35284e-21)
(0.0192054 0.00337921 0)
(-0.00332992 -0.000615993 0)
(0.00193743 0.000792994 -6.50416e-21)
(0.00183191 0.000757906 2.24308e-20)
(0.00109126 -1.19414e-05 7.35062e-21)
(0.00199293 -0.0025017 1.21072e-20)
(0.000989844 -0.000485429 0)
(0.00147703 0.00285636 -4.69834e-20)
(0.00738395 0.00437254 -1.03943e-19)
(0.00103958 0.00101392 4.94444e-21)
(0.00026018 -0.000336561 -1.6613e-21)
(0.00035053 -0.000443395 1.11941e-20)
(-0.0038644 -0.000657403 0)
(-0.000114777 0.00633656 -9.10904e-21)
(0.00185375 -0.000201991 4.2347e-20)
(0.0142789 0.00639768 -3.30445e-20)
(0.000323807 -0.000159989 -1.29696e-20)
(0.00416752 0.00283044 1.71476e-20)
(0.00024807 -0.00022542 2.86889e-20)
(-0.000681465 -0.00400907 0)
(0.00511547 0.00145917 2.54826e-20)
(-0.00261286 -0.000404992 0)
(-0.000132992 -0.000235163 0)
(0.00122491 0.00724558 -3.34968e-22)
(0.00177355 5.11793e-05 0)
(0.000386457 -0.000308197 0)
(0.00142417 -0.000453538 0)
(0.00157593 -0.00015437 1.79235e-20)
(0.00231868 0.000412874 5.20315e-21)
(0.0026265 0.000895612 -4.9391e-23)
(0.0028856 0.000389411 3.60251e-20)
(-0.000668586 0.00122741 3.21987e-20)
(0.00296353 0.000863946 3.8483e-20)
(0.00797718 0.00412165 -1.87912e-20)
(0.0160631 0.00241107 0)
(0.00182121 0.000863079 0)
(0.000167946 0.00157521 -8.95781e-21)
(0.0035495 0.00110153 -3.80582e-20)
(1.13933e-05 -6.27231e-05 0)
(-0.000297649 -0.00424319 0)
(0.00407551 0.00569138 0)
(0.000276834 -8.89389e-05 0)
(0.000242478 0.00211098 -8.36e-21)
(0.00499167 0.00132594 3.54568e-20)
(0.00283055 1.48076e-05 -3.95057e-20)
(0.00507836 -0.000668596 2.40105e-20)
(0.000525038 0.0011441 0)
(0.000968763 0.000247045 -9.13657e-21)
(0.00387815 0.00140289 0)
(0.00182177 -0.0021238 0)
(0.000587361 0.00185343 -1.93467e-22)
(0.00338123 0.00183147 5.00411e-20)
(0.00216167 0.00122864 3.3351e-21)
(0.00157617 0.000258037 -2.24478e-20)
(0.00331284 -0.00234274 0)
(0.00522168 0.00827811 6.44166e-20)
(0.00269937 0.00170999 0)
(0.0159267 0.00704607 -2.08929e-23)
(0.00109301 -0.000156002 0)
(-2.36057e-05 3.73034e-06 -1.94452e-20)
(0.00330779 0.00193116 -1.90506e-20)
(0.000520153 -0.000799996 0)
(0.00483307 -0.00271183 -2.09239e-20)
(0.00272855 0.000120531 1.54868e-20)
(-6.54891e-05 0.000776835 4.70793e-22)
(0.00096851 -0.00162287 2.49758e-20)
(5.90115e-05 0.000607719 7.52457e-20)
(-0.00145222 0.00203052 -7.83116e-20)
(0.00362864 0.00169067 1.05446e-20)
(0.00011754 -0.000305773 1.77643e-20)
(0.0016582 -0.00807558 0)
(0.00155544 -0.0013766 1.56496e-20)
(0.000539944 0.00187238 1.45303e-20)
(0.00826099 0.00408969 3.55095e-20)
(-0.000109939 0.00216864 0)
(0.000531155 0.000165442 8.24583e-21)
(0.00405133 0.00207412 0)
(0.00247198 0.00398107 1.38675e-20)
(0.000909787 0.000812048 0)
(0.000711046 0.000295612 0)
(-0.0120721 -0.00297872 0)
(0.00235496 0.00330853 -4.33303e-20)
(0.0115609 0.008548 -1.50657e-20)
(0.00203082 0.000481415 -3.41788e-20)
(0.00565935 0.0081287 -4.95744e-20)
(0.000194556 -0.0001736 0)
(0.000696453 0.00699026 -3.42528e-20)
(0.0029224 0.00159354 -5.69816e-20)
(0.00289831 0.00546369 2.68275e-20)
(0.00442885 0.00726552 0)
(0.000250769 0.00171229 0)
(0.00129188 0.000423529 -1.90322e-20)
(0.00197793 0.0001507 4.44922e-20)
(0.000438958 -0.000924161 -2.31695e-21)
(0.000362224 0.000754615 0)
(-0.0027091 0.00630071 2.05957e-20)
(0.0037278 -0.00313587 3.21094e-20)
(0.00468404 0.000888218 0)
(0.00276328 0.00848474 0)
(0.00130423 -0.00619055 0)
(0.00634748 0.00216377 0)
(0.000829495 2.63913e-05 0)
(0.00174591 0.00260978 4.98338e-20)
(0.00420651 0.00785657 0)
(-0.000967143 0.000111241 1.39793e-20)
(0.000455929 0.0100069 8.38136e-21)
(0.00326903 0.000245392 0)
(0.00340991 0.000350021 1.27834e-20)
(0.00116538 -0.00260167 1.72849e-20)
(0.00471067 0.00398638 0)
(0.000144177 0.00177307 4.81697e-21)
(5.08617e-05 0.0017727 -7.84982e-23)
(0.00064377 0.00171673 0)
(0.00385754 -0.00525246 0)
(0.00164032 0.000375586 -2.28113e-22)
(0.00548399 0.0037189 0)
(-9.50714e-06 0.00199695 7.30167e-22)
(6.88883e-05 -0.000179051 -7.63474e-21)
(-0.00256078 0.101212 0)
(-0.0014832 0.00408484 -1.83225e-20)
(0.00429901 0.00181051 -1.17963e-20)
(0.00154646 -5.39325e-05 -1.16565e-20)
(0.00231912 0.00548808 2.53525e-20)
(-4.54965e-06 0.00220753 1.14745e-20)
(0.00242951 0.00199534 -1.10911e-20)
(0.00202142 -0.000383246 1.15563e-20)
(0.00152484 -0.000801335 1.67538e-20)
(0.00265421 0.00778166 4.92515e-20)
(0.00195902 0.000170876 -3.10765e-20)
(-0.0110782 0.00578529 1.41092e-20)
(-0.000343995 -0.000458574 -7.41872e-20)
(0.000642415 -0.00107177 -3.48334e-20)
(0.00474482 -0.000518926 1.49889e-20)
(0.0207756 0.00335442 2.78783e-20)
(0.0465879 -0.0308019 -6.54803e-21)
(0.00374237 0.00127751 6.62216e-20)
(0.000360986 -4.93809e-05 1.71357e-20)
(0.000369294 0.00203577 5.21102e-21)
(-0.00484397 -0.000725745 1.50223e-20)
(-0.00238219 0.000274961 8.03869e-20)
(0.00188134 -0.000276703 -1.3714e-20)
(0.00623791 0.000869723 1.03926e-19)
(0.00129971 -0.000252567 0)
(0.000262646 -0.000108989 0)
(0.00268581 0.00162351 9.86837e-21)
(0.000253758 0.000694491 0)
(0.00266131 0.000864063 0)
(0.00416665 -0.00811323 0)
(-0.000319688 0.000998728 -3.54756e-20)
(0.00253742 -0.00511892 7.39832e-21)
(0.00427454 0.00250073 1.07622e-20)
(0.00384628 -0.00224487 0)
(0.00204983 8.6572e-05 1.16893e-20)
(4.7155e-05 -7.29224e-05 -2.14568e-20)
(-0.0211865 -0.0256379 0)
(0.00208183 -0.000838672 9.69225e-21)
(-0.00357535 0.00551779 5.71226e-20)
(0.00197745 0.00848809 -1.00874e-20)
(-0.000626453 0.0131076 2.73398e-20)
(0.00195992 0.000116165 3.80503e-20)
(0.00851772 0.00209488 1.74194e-20)
(0.00514777 0.00451472 0)
(-0.00473256 0.00380368 -8.50681e-20)
(0.00220921 0.00221161 3.21695e-20)
(-1.06786e-05 -5.06654e-05 0)
(0.00601865 -0.00265156 1.04764e-20)
(0.000348196 0.00874869 0)
(0.00153588 -7.52164e-05 1.73188e-20)
(0.00137457 -0.000458212 1.86026e-20)
(0.00431845 0.00254551 0)
(0.00335124 0.000559665 1.26179e-20)
(0.00186895 -0.0014964 1.21323e-20)
(0.0110384 0.00451617 4.1207e-20)
(0.00232097 0.00131542 -1.84472e-22)
(0.00188481 -4.63422e-06 0)
(0.000117944 0.0016471 -1.28183e-20)
(0.00438871 -0.00262151 0)
(3.304e-05 -3.37947e-05 1.69999e-21)
(0.00328603 0.000445995 -3.31798e-20)
(0.00441028 0.00185228 -3.16137e-21)
(0.00458918 0.00164772 3.65154e-21)
(0.0110248 0.0769057 -3.23982e-20)
(-0.00221828 0.00386899 -3.00224e-20)
(-0.00468158 0.0173999 2.40967e-20)
(0.000466517 0.00443416 5.57612e-20)
(0.00159934 0.00116738 -5.55999e-20)
(7.80936e-05 0.00139652 -1.0591e-20)
(0.00211622 -0.00223747 0)
(0.00208328 0.000462987 -2.62186e-20)
(-8.78055e-05 -0.00327747 0)
(0.00329272 0.00189488 0)
(0.000610168 -0.000230612 0)
(0.00267362 1.29296e-05 -1.74303e-20)
(0.00327009 0.0060008 0)
(-0.00207138 -0.000251769 5.29663e-20)
(0.00266948 0.00108392 -1.07919e-20)
(0.00231827 0.00116714 3.04345e-20)
(0.000357423 0.00206111 0)
(0.00436257 0.00118845 1.96296e-20)
(0.00143518 0.00379611 -3.4194e-20)
(-0.00353983 0.000607837 2.7543e-23)
(-2.2516e-05 -2.65137e-05 2.64845e-20)
(-0.0050721 0.0397694 0)
(0.0015716 0.0041489 0)
(0.00448665 -0.0014528 2.37325e-21)
(0.000305239 -0.000826147 0)
(-0.00860882 -0.0486844 -2.13903e-20)
(0.000789767 -0.000947389 0)
(0.000630481 -0.00140563 2.65531e-20)
(0.00140748 0.000170087 -2.31073e-20)
(1.47767e-05 0.000264794 0)
(0.00170131 -0.000386477 0)
(0.0057155 0.000976135 0)
(0.000805756 -0.000423694 1.49439e-20)
(-0.000268517 0.0115316 3.90799e-20)
(0.00234362 0.000872139 1.55181e-20)
(-8.63716e-05 4.4512e-05 2.41947e-21)
(0.0018263 -0.00857199 1.64749e-20)
(0.00492646 0.00480877 5.58018e-20)
(0.00362432 0.00170789 0)
(4.93329e-05 0.000756665 -1.86028e-20)
(0.000408087 -9.72144e-05 5.28043e-21)
(0.00342697 -0.00118168 -1.65142e-20)
(0.00648279 0.00478264 0)
(0.0019659 0.000256573 0)
(0.000564465 -0.000967167 1.65332e-20)
(8.39726e-05 -0.000112276 4.31101e-21)
(0.00452004 0.00182429 -6.22832e-21)
(0.000977778 9.85302e-05 -1.85668e-20)
(0.00231347 0.000640913 -9.15314e-21)
(-0.00016489 -0.00624203 0)
(0.000107787 0.00172914 -8.67006e-21)
(0.00341577 0.00683508 2.0867e-20)
(-0.00124449 0.0199721 2.7739e-20)
(0.00254708 0.005774 1.03419e-20)
(-0.000742919 0.00267476 0)
(0.00284188 0.00051152 4.38164e-20)
(-2.48344e-05 0.00225197 0)
(0.00258743 0.0019017 0)
(0.000984618 0.00575783 0)
(0.000704395 -0.000503247 -1.10237e-20)
(0.00534193 -0.00518506 4.01341e-21)
(-1.69448e-05 1.43569e-05 -1.25224e-20)
(-8.51954e-06 -7.77493e-05 0)
(0.00591569 0.0105919 5.44883e-20)
(0.000278276 -0.000135851 1.30168e-20)
(0.000919603 0.000211653 1.74198e-20)
(0.00135434 -0.000175669 8.08932e-21)
(0.00341426 -0.000219701 0)
(-0.00244496 0.00132678 -3.04938e-20)
(0.000308609 -0.000920992 -7.92207e-21)
(0.00165771 -0.000727361 -9.59881e-21)
(0.00322041 -0.0027727 -6.67155e-21)
(-7.27346e-05 -0.00341821 1.87674e-20)
(0.00138614 -0.000145066 0)
(0.00533725 0.00696294 0)
(0.0054663 0.000449717 8.5308e-20)
(0.00175768 0.00262741 3.65773e-21)
(0.00527869 0.00310042 0)
(0.000183492 -7.4891e-05 5.99128e-23)
(0.00595342 0.00160872 0)
(0.000316527 0.000517066 -4.80717e-21)
(0.00336745 0.00113778 1.94318e-20)
(0.00271999 -0.00685938 0)
(0.00440021 -0.00712551 -1.96998e-21)
(4.46164e-05 2.50055e-05 0)
(0.00176776 0.00819838 -3.84376e-20)
(0.00214602 0.00460458 4.31295e-20)
(0.00448465 -0.00085786 0)
(-0.000346551 -0.000935013 0)
(0.00120139 -0.00078419 1.52303e-20)
(0.00197448 0.00643523 -3.24594e-20)
(-0.00173576 0.0112553 5.59992e-20)
(0.00166271 0.00693693 0)
(-2.81275e-05 0.000321582 0)
(9.84725e-05 0.00111112 -6.16603e-21)
(0.00863329 0.00481796 -3.0954e-20)
(0.00155147 -0.000454783 0)
(0.00636799 0.00189572 -1.0186e-20)
(0.00339409 0.000537182 4.76481e-20)
(-0.0119425 -0.00383674 4.09081e-20)
(-0.00195733 0.00306731 8.18032e-20)
(0.000970611 0.0031259 -5.89664e-20)
(0.00581913 0.00878276 0)
(0.000270506 -0.00110654 0)
(0.0025082 0.00224585 -6.08372e-20)
(0.000277032 0.00238481 1.4806e-20)
(0.00184595 0.000423932 0)
(0.0011957 0.00016261 1.59985e-20)
(0.00260134 0.00358107 2.76587e-20)
(0.00405443 0.00157867 0)
(-0.00246965 -0.00710737 -2.93925e-20)
(0.000442762 -0.000103168 1.75937e-20)
(0.00207602 0.00475974 -5.76659e-21)
(0.00053548 0.00209385 0)
(0.00213377 0.00628739 -3.67851e-20)
(0.00357931 -0.00513976 -1.83634e-21)
(0.000220238 0.00155028 0)
(0.000529202 -0.000451341 1.73844e-21)
(0.00403067 0.00200252 0)
(0.00142205 0.000752922 -3.00022e-20)
(0.00184841 -0.00402796 1.14546e-20)
(0.0015548 0.000452693 3.56608e-20)
(0.00322458 -0.00835065 7.44843e-21)
(-0.00109239 -0.000969585 4.06032e-20)
(0.00114311 -0.00595064 0)
(0.00669161 0.00277418 6.21025e-21)
(0.00294136 -0.0100687 1.37797e-20)
(0.00157154 0.0065438 -1.22786e-20)
(0.000653894 0.00120301 -6.12582e-21)
(0.00137405 -0.00318278 -1.74972e-20)
(0.00465726 0.00169527 0)
(0.00130962 -0.000870948 0)
(0.00659158 0.0102992 0)
(0.00127175 -0.00137204 -8.91242e-21)
(0.00277837 0.000633354 4.88825e-20)
(0.000504524 0.00185939 8.8014e-21)
(0.00819008 -0.000842528 -1.02374e-20)
(0.00174018 0.000942182 -5.72068e-21)
(0.00106051 0.00533754 -4.64697e-20)
(0.00674947 -0.00198083 -1.40875e-21)
(0.00160637 0.00240775 -5.58654e-20)
(0.00391692 -0.00561308 -4.78467e-23)
(0.00205267 0.00165879 -8.85435e-21)
(0.00263063 -0.00433457 0)
(0.00212721 0.00311524 0)
(0.00349293 -0.00504508 -1.56647e-20)
(0.00179374 0.000901155 1.25862e-20)
(0.00599858 0.00417214 0)
(-0.00394797 -0.00225101 0)
(0.000116035 0.000613944 1.40456e-20)
(0.00247162 0.000360134 0)
(-0.000894698 0.00560121 -5.17975e-21)
(0.00660001 0.0095988 0)
(6.52686e-05 0.000835967 9.52896e-21)
(0.00223726 0.000485077 -9.81809e-21)
(0.00166206 -7.4225e-05 0)
(0.00178844 0.000290746 1.66293e-20)
(0.00200768 0.0157381 2.33853e-19)
(0.00360069 0.000928404 -3.24751e-20)
(0.00224887 0.000102819 0)
(0.00424554 0.00287751 -1.89491e-22)
(0.00270267 0.00118483 0)
(0.00754355 -0.00765426 -3.25113e-20)
(0.00185062 0.000494549 -1.32715e-20)
(0.00187814 -0.000615213 0)
(0.00418843 -0.00217848 1.06991e-20)
(-0.000946146 -0.00124257 -3.498e-20)
(0.000237855 0.00139838 6.9605e-21)
(0.00403586 -0.00650171 -2.37308e-20)
(0.00638551 0.00366801 0)
(0.019292 0.0048304 -2.89823e-20)
(0.00213502 0.000967249 2.49971e-20)
(-0.00048417 0.00687024 -2.06942e-20)
(0.00319285 0.00104701 4.65069e-20)
(0.00245543 -0.00555082 1.37456e-20)
(0.00012856 0.0233529 0)
(-5.03901e-05 -0.000246535 -1.29045e-20)
(0.00188094 0.00341692 -2.25704e-20)
(-0.000937228 -0.001606 -3.7016e-20)
(-0.00502438 0.000591603 -4.85472e-21)
(-0.00160121 0.00453321 6.94183e-20)
(-0.0926411 0.0250213 3.11475e-20)
(0.00300534 0.00268121 0)
(0.00264405 -0.000173005 1.89234e-20)
(-0.00991241 -0.03532 0)
(0.00209469 -0.000165838 5.21819e-23)
(-0.0166105 -0.0341959 -5.38069e-21)
(0.00264147 0.00103083 0)
(-0.00017823 0.00271756 -6.96622e-21)
(0.00211493 -0.00457599 -2.11276e-20)
(0.000123686 0.00202026 -7.65316e-22)
(-0.00254486 -0.00385281 -6.69314e-20)
(0.00822139 0.0118933 -2.44831e-21)
(0.00102796 0.000964905 -6.24311e-21)
(0.00486068 0.000529948 2.14296e-20)
(0.00369379 0.00311604 3.04629e-20)
(0.00176182 0.00034618 1.00043e-20)
(-0.00511301 0.00814181 -1.66635e-20)
(-0.00656262 -0.000644123 -5.56219e-20)
(0.00322034 0.00152372 6.1811e-20)
(0.00312138 0.000171067 0)
(0.017559 0.00279138 3.0963e-20)
(0.00304763 0.00211853 7.45577e-21)
(0.0148018 0.00950553 1.30828e-20)
(0.000520594 0.00172068 -6.60403e-21)
(0.00025956 0.000659729 2.21082e-20)
(0.0126386 0.0281896 -1.9359e-20)
(0.000741684 0.000125645 1.50045e-20)
(0.000897532 0.0124521 -2.90905e-20)
(0.00768707 0.00277691 -1.00177e-19)
(0.000944729 0.000948243 -2.76198e-21)
(0.00245765 0.00197223 0)
(0.00325796 0.00127137 -6.75289e-20)
(0.00025575 -8.48226e-05 -1.38296e-20)
(-0.000590856 0.00359809 2.29726e-21)
(0.000275519 0.000700268 0)
(-0.00350473 0.000233254 0)
(0.00277382 0.00414522 7.35401e-20)
(0.000704378 -0.0537015 0)
(0.00304706 0.00556437 0)
(3.59081e-05 -0.00301654 1.74104e-20)
(0.00131057 -0.0004517 0)
(-0.00349306 -0.00194176 4.70708e-22)
(0.00418443 0.00137308 3.99226e-20)
(-5.35003e-05 0.0112192 -2.52683e-20)
(0.000508192 0.0017187 -6.9398e-21)
(0.000542424 0.000152481 0)
(0.00296083 0.00123132 -5.18194e-20)
(0.00699533 -0.000557056 0)
(3.95383e-05 0.0014093 8.30873e-21)
(-0.00198344 0.00362152 -5.91296e-20)
(0.00328417 0.00220486 -1.22366e-20)
(0.00305968 -0.00456818 2.05552e-20)
(0.00143699 0.00582607 0)
(0.000851305 7.75451e-05 3.32872e-21)
(-0.00265311 -0.00103135 0)
(0.00326853 0.00390893 2.54194e-20)
(-0.003375 0.0018582 1.28966e-20)
(0.00181387 0.000264056 -2.10555e-20)
(-0.00178554 0.00156248 0)
(0.00426957 -0.000854902 1.59579e-20)
(0.00186228 0.00227752 0)
(0.000878294 -0.000433602 -2.36204e-23)
(0.000434888 0.00021035 0)
(0.00116669 -0.00135238 0)
(0.00251245 7.63678e-06 -1.40463e-20)
(0.00445185 0.00147091 0)
(0.00429876 0.00245429 9.07857e-21)
(0.000487993 0.000290077 0)
(0.000706963 0.000827623 -2.26819e-21)
(0.000613264 0.00165989 0)
(0.000654071 -0.00142979 -5.84368e-21)
(0.00146173 -0.000559212 4.5704e-20)
(-0.0020736 -0.00039944 2.42153e-20)
(0.003832 0.00217317 2.89239e-20)
(0.000303034 0.00085402 0)
(0.00146581 0.000548574 9.53966e-21)
(0.00726636 0.0052978 -2.75851e-19)
(-0.000146788 0.0054052 3.92884e-20)
(0.00145214 -0.000884297 -2.27007e-20)
(0.00081002 -0.00243882 5.22932e-20)
(0.00438885 0.00146692 -2.95714e-20)
(0.00577655 -0.00439331 6.70249e-20)
(0.0200766 0.00343839 8.784e-20)
(0.00164386 -9.33042e-06 -1.10203e-20)
(0.00245544 0.000607036 4.34316e-20)
(0.0017271 -0.00428193 0)
(-0.00118444 0.00669332 -2.76165e-20)
(0.00237858 0.000628599 0)
(0.0026482 0.00377767 -4.19855e-20)
(0.0069406 0.0011755 -4.23968e-21)
(-2.35329e-05 -2.50836e-06 1.57919e-20)
(0.00337093 0.000783131 3.49381e-20)
(0.00443963 0.00210695 0)
(0.00135471 -0.000295724 0)
(-0.00046707 0.00247561 -2.75629e-20)
(0.00432015 0.00118449 3.14028e-20)
(0.00175945 0.000349623 -6.33498e-21)
(0.00175055 0.00127361 2.04668e-20)
(0.00269467 0.00148807 2.33098e-20)
(0.00519766 0.00551612 5.47742e-20)
(0.00550882 -0.00029784 4.10606e-20)
(0.000492382 0.0002402 1.62584e-20)
(-3.62282e-05 -9.63098e-05 6.50624e-21)
(0.00216813 -2.42399e-05 0)
(8.93783e-06 -3.11161e-05 0)
(-0.00025732 9.87103e-05 2.36629e-20)
(-1.97445e-06 -9.27622e-06 1.30785e-20)
(0.00126057 -0.00328816 0)
(0.00028429 0.000863282 0)
(0.00649976 0.00191845 0)
(-0.00158591 -0.00762901 -1.21018e-20)
(0.00106497 -0.000216511 -1.37343e-20)
(0.00244744 0.00335246 2.31096e-20)
(0.00227423 0.000554012 1.27702e-20)
(0.00354408 0.00284135 2.37719e-20)
(0.000185619 -0.000100848 -2.3072e-20)
(0.00415163 0.00809127 -4.88769e-20)
(0.00729711 -0.0019813 9.21924e-21)
(0.0128134 0.00377288 2.6277e-20)
(0.00170051 -3.17983e-05 1.65179e-20)
(0.00427277 0.0104618 0)
(0.00349761 0.00157295 3.53294e-20)
(0.00218346 0.00217139 0)
(-0.003336 0.00710433 -2.05642e-20)
(0.000572517 0.00188327 -3.55034e-21)
(0.00030859 0.00317696 -8.89733e-21)
(0.00165518 -0.00024213 0)
(0.00366291 0.00235264 3.00472e-20)
(0.0207198 0.00544474 3.10596e-20)
(0.00329081 0.00464412 -1.8455e-20)
(0.00189271 0.00283505 2.69024e-20)
(-0.000199368 0.00556573 -2.09997e-20)
(0.00137736 -0.00245309 0)
(0.000496876 0.00200127 -7.387e-21)
(-0.00235243 0.00409852 6.10613e-20)
(0.00359358 0.00596153 -3.32671e-20)
(0.00459534 0.002668 1.23778e-20)
(0.00236926 0.000341358 0)
(0.00944355 0.00298515 -6.31636e-20)
(0.00152179 0.00270913 -5.71609e-20)
(0.00481067 0.00722012 1.39018e-20)
(0.00281565 0.000795526 -1.39341e-20)
(0.0169113 -0.000924753 -3.14795e-19)
(0.00438418 -0.00552094 -6.18299e-23)
(0.00013497 0.0013167 6.31353e-21)
(-0.00063814 0.00303286 2.45464e-20)
(0.00224331 0.000447812 -4.23053e-20)
(0.00274385 0.00795446 3.11751e-20)
(-0.00276086 -0.000913271 0)
(0.00256064 0.0010036 -1.51161e-20)
(-0.00386428 -0.0108099 0)
(0.0554383 -0.0339694 7.74686e-20)
(0.00147036 0.00721234 0)
(-0.00232574 0.00160236 6.34024e-20)
(0.000931692 -0.00219381 0)
(0.0022548 -0.00143363 2.47228e-20)
(0.00136038 0.00417024 0)
(0.000486276 0.00115744 0)
(7.61089e-05 0.000515549 -7.02251e-21)
(-0.00104687 0.00340708 -3.32603e-20)
(0.00235983 0.00437426 0)
(0.00278491 -0.00168623 3.80795e-21)
(0.003568 0.00106144 8.879e-21)
(0.00223025 0.000378163 1.43986e-20)
(0.00308576 0.00204986 1.91802e-20)
(0.00405132 -0.00261022 0)
(4.15441e-05 0.000140775 -1.31171e-20)
(-0.00360215 -0.00182345 -1.79643e-20)
(-0.00447705 -0.000193951 4.54093e-21)
(0.0187408 0.0034601 1.81471e-20)
(0.00315295 0.00126747 2.03204e-20)
(0.000510794 0.00106209 2.33045e-20)
(0.00586043 0.00574316 -4.2667e-20)
(-7.87491e-05 -7.31601e-05 6.78087e-21)
(0.0185799 0.00319288 -1.62473e-20)
(0.00395209 0.00106986 -5.9663e-20)
(0.000819691 0.00490222 -4.78355e-20)
(0.000510738 0.00051369 -9.05493e-21)
(-7.49356e-05 0.000769251 0)
(0.00343503 -0.0199107 0)
(0.000568302 0.00170735 -1.77813e-20)
(0.00151004 0.00573665 6.3976e-22)
(5.02037e-05 -0.000233224 0)
(0.00111608 0.0030167 4.36316e-19)
(0.00150998 -0.000329423 1.02352e-20)
(-0.000944073 0.019978 7.62369e-20)
(0.000128784 -0.000132713 -1.46892e-20)
(0.00093711 8.71984e-05 1.77989e-20)
(0.000124294 2.05056e-05 7.76569e-21)
(0.00214623 0.00741873 0)
(0.00209078 0.00103262 0)
(5.15598e-05 0.00125962 0)
(0.00047238 -0.000421077 1.56032e-20)
(0.00316702 0.00556227 2.8303e-20)
(0.000826006 0.00509016 2.12626e-20)
(-1.33087e-05 -4.24841e-05 0)
(0.000299787 0.00102792 0)
(0.0033533 0.000426377 3.17292e-20)
(0.00054714 0.000129371 -1.25233e-22)
(0.00120384 0.000385156 2.64278e-20)
(-0.00154752 -0.000573863 3.62529e-20)
(0.000519168 0.000594271 1.83205e-20)
(0.0202679 0.00359534 -5.67868e-20)
(0.00262409 0.00133807 5.7141e-21)
(-3.24442e-05 -0.000373506 5.19398e-20)
(0.0011073 0.0211451 0)
(0.00267775 0.00136867 2.949e-20)
(0.00355321 0.00229689 0)
(0.00275292 -0.000588042 0)
(0.00628531 -0.00247763 0)
(0.00271553 0.000716215 -2.72828e-20)
(0.00114775 0.00489951 0)
(0.000468729 0.00122321 -6.06314e-21)
(0.00719507 0.00464309 4.73736e-20)
(-0.000233192 0.00224513 -6.12776e-21)
(0.00285845 0.00338069 0)
(0.00531508 0.00179527 -3.18517e-20)
(0.00212232 0.0014294 -1.24246e-20)
(0.000129115 -0.000101785 3.27989e-20)
(0.00122297 0.00232551 -1.37665e-20)
(0.00284732 0.000921575 0)
(0.00302649 0.00167308 0)
(0.00293217 0.00255054 -4.6225e-20)
(0.00265164 0.00184046 0)
(0.000718941 -0.00101436 0)
(0.00433909 0.00192436 -3.04662e-20)
(0.000728682 -0.00259239 3.01562e-20)
(-0.00171651 0.00522006 0)
(0.000301185 0.000671339 -8.99201e-21)
(0.000589175 0.000673693 -2.52947e-20)
(0.0014249 -0.000301663 4.18886e-21)
(0.00181543 2.29771e-05 7.24745e-21)
(0.00295324 0.00148405 -1.83238e-20)
(0.00115991 0.00106851 -2.47278e-20)
(-0.00222884 0.00246007 -2.13285e-20)
(-0.00450481 0.0115607 1.87234e-20)
(0.00347856 0.000483573 -6.55951e-20)
(0.000505749 0.000476352 1.6037e-20)
(0.000123418 -0.000261515 1.39019e-20)
(0.016916 0.0060062 0)
(-7.67985e-05 0.00410676 6.91448e-20)
(0.0031905 -0.00482249 4.93086e-20)
(-0.00252415 -0.00544094 -2.99408e-20)
(0.00272428 0.000997733 2.20974e-22)
(0.000596252 -0.000373704 1.81215e-20)
(0.00351385 0.00490007 -5.64798e-20)
(-0.000469557 0.00885002 0)
(0.00456637 -0.0225735 2.90829e-19)
(0.00233243 0.00266367 -5.0991e-21)
(-3.56525e-05 1.92297e-05 -2.94907e-20)
(0.000710622 0.00223035 7.29094e-20)
(-0.000877936 0.00208081 6.98332e-21)
(0.000288238 0.000892836 -9.49286e-21)
(0.0021142 0.000878791 -2.07827e-21)
(-0.00265161 -0.00289215 0)
(-0.000603145 -0.00433156 0)
(0.0035954 -0.000436729 3.51678e-20)
(0.0011651 -0.000652973 -2.96845e-20)
(0.00246124 0.000691258 -2.09513e-20)
(0.00053567 0.000179988 6.61033e-23)
(0.000487578 -0.000449203 2.58446e-23)
(0.0019712 0.00295194 -1.00296e-19)
(0.000524898 0.00196775 -1.04008e-20)
(0.000712828 0.00151534 -1.17158e-20)
(0.00200985 0.000110531 0)
(0.00321336 0.00530204 5.93304e-21)
(-0.000909904 3.99534e-05 1.25953e-22)
(0.0116666 0.00215644 -4.17207e-20)
(0.00253726 -0.000797793 1.31526e-20)
(-0.00307468 -0.0520306 0)
(0.000440456 0.00036987 1.74069e-20)
(0.00109252 0.000504889 -1.59107e-20)
(0.00130119 0.000506401 0)
(0.0011378 0.00242171 6.6651e-21)
(0.000417955 0.00117964 -3.01321e-20)
(0.000436362 0.000477064 2.29638e-21)
(0.0074192 0.0103903 -1.55067e-20)
(0.00271593 0.00379015 3.34312e-20)
(0.00138161 -0.00012244 -1.97617e-20)
(0.0029885 0.000711407 -5.16223e-20)
(6.41208e-05 -8.91754e-05 -4.5962e-21)
(0.00153729 0.000822803 -7.67426e-21)
(0.00819267 0.00265263 -2.38103e-20)
(0.00325389 -0.00144661 1.51021e-20)
(0.00183658 -0.0012039 3.74392e-20)
(0.000489573 -0.000193273 -3.18444e-21)
(0.00502066 0.00973351 -2.57887e-20)
(0.0013419 0.00165328 1.14662e-20)
(0.00245637 0.000875318 0)
(0.00250841 0.000972332 0)
(0.010444 0.00335752 5.77639e-20)
(6.60355e-05 -0.000925155 2.82106e-20)
(0.00018796 0.000599539 1.65072e-20)
(-0.00013405 -0.00160589 0)
(-7.7191e-05 0.00263855 2.10464e-21)
(-4.30076e-05 0.00178344 9.7767e-21)
(0.00132872 -9.69154e-05 0)
(-0.00262746 0.000347623 -3.16691e-20)
(-0.00160846 0.00201254 2.04108e-20)
(-0.0032658 0.00359189 1.3702e-20)
(0.00141459 0.00289172 -3.44815e-20)
(0.00142208 -0.000242493 1.65652e-20)
(0.00505646 -0.00755352 0)
(0.00320639 0.00326549 0)
(0.000520016 8.82216e-06 0)
(0.0071468 -0.000467094 -3.64403e-20)
(0.00562297 0.00390858 2.63248e-20)
(0.000846435 0.00450709 3.28202e-20)
(0.00132749 -0.00163128 -1.97106e-20)
(0.00354168 0.00302299 2.17757e-20)
(-1.66457e-05 5.54642e-05 -9.44251e-24)
(0.00596873 0.00338454 0)
(-0.00919167 -0.000256336 0)
(-5.90414e-06 0.000164922 8.19879e-21)
(0.00321466 0.00626001 8.37019e-21)
(0.00543496 0.00300025 -5.3307e-21)
(0.00121669 -0.000818159 0)
(0.00322148 -0.00230597 2.99025e-20)
(0.00286014 0.00072905 0)
(-0.00925581 -0.00040035 0)
(1.17049e-05 -7.6167e-05 -8.02508e-21)
(0.00268286 0.000733324 6.06672e-20)
(0.00373096 -0.000338708 2.5184e-20)
(0.000212712 0.00488442 -4.84055e-21)
(4.04602e-05 -3.05075e-05 4.75246e-21)
(0.000306534 0.00153347 -1.14491e-20)
(0.00538547 0.00427915 -4.29115e-20)
(0.00078997 -0.000466817 1.89266e-20)
(0.00261037 0.00224987 -4.4247e-20)
(-0.00683053 -0.00112735 2.89112e-20)
(0.00514734 -0.0125765 -2.16686e-20)
(0.000551266 -0.000461243 -1.38969e-20)
(0.0111583 -0.00221929 0)
(0.00149362 0.00403615 1.03596e-20)
(0.0014395 -0.000786984 2.68537e-20)
(0.000802139 -0.000585362 -2.95761e-23)
(0.0023526 0.00498343 -4.40553e-20)
(0.00264301 0.00178283 2.77896e-20)
(-0.004889 -9.41424e-05 -1.13178e-20)
(0.00311409 -0.0112882 2.83273e-20)
(0.000575953 0.000175825 0)
(0.000511759 -0.000439175 0)
(0.00191778 0.00042629 5.25681e-20)
(0.000357042 0.000770767 0)
(-0.00451866 -0.0108212 -4.09552e-21)
(0.00286535 0.00123856 0)
(0.00136757 0.00617331 1.17147e-19)
(5.631e-05 0.000714752 1.74067e-20)
(0.00293951 0.00186895 2.06407e-20)
(-0.00435582 -8.04171e-05 0)
(0.0013212 -0.00113966 8.57475e-21)
(0.000591238 -0.000392764 0)
(-0.00255751 -0.00353238 -1.77361e-20)
(0.00443863 -0.000620149 -3.44575e-20)
(0.00226772 -0.000770209 -5.23525e-21)
(0.000430672 0.00190843 -3.43321e-20)
(0.000540316 -0.000101967 1.9056e-20)
(1.78513e-06 0.000698767 -1.41967e-20)
(-0.00125334 -0.00623383 -3.12638e-20)
(-1.86744e-05 -5.25631e-05 -1.12763e-20)
(-1.36841e-05 -0.000203453 3.74557e-21)
(0.000486456 0.00211429 2.39581e-22)
(0.000451245 0.00504542 -2.85778e-20)
(0.000411013 -0.00193544 0)
(-0.00185152 -0.000326885 3.60946e-20)
(0.000936723 -0.000483479 6.12725e-23)
(-0.00430594 -0.0013246 -3.20275e-20)
(-0.0009954 -0.000160656 2.70145e-20)
(0.000291281 -0.000448198 -4.99338e-23)
(0.00752644 0.0107383 7.46923e-20)
(-0.00417667 0.000559792 5.20684e-22)
(8.16956e-05 0.000917398 -6.82317e-21)
(0.00054847 -2.34108e-05 0)
(0.0026623 0.000664362 1.49665e-20)
(0.00357928 -0.00178072 -3.48832e-20)
(0.00752634 0.0198558 0)
(0.00270861 0.0010382 -3.83971e-20)
(0.000841391 0.00737294 -9.17705e-20)
(-0.000115645 0.0023033 -9.12439e-21)
(-0.00176071 0.00204369 0)
(0.000837774 0.00127163 1.96406e-20)
(0.00284202 0.00312126 4.25827e-20)
(7.02978e-05 -0.00112292 -3.83199e-20)
(-5.66806e-05 -0.000149017 -3.69052e-21)
(0.00155704 0.00593848 4.76269e-20)
(0.0032343 0.00200596 -1.56537e-20)
(-2.31725e-05 0.000171955 -7.62607e-21)
(0.00331869 -0.00107928 -3.09077e-20)
(0.0038236 0.00543036 3.48136e-20)
(0.00117632 -0.000371044 -1.38514e-20)
(0.000987047 -0.000791533 1.34363e-20)
(0.000952276 -5.16249e-05 -1.8637e-20)
(0.000184317 0.00189514 -3.57385e-21)
(0.00461393 0.00497395 8.72656e-21)
(0.00101785 0.000313255 -1.50082e-20)
(0.0016852 0.00360855 7.40695e-21)
(0.00670598 0.000479305 0)
(0.00306748 0.00508984 4.72487e-20)
(2.22482e-05 7.45003e-05 1.39957e-20)
(-0.00349764 -0.00464983 3.54618e-20)
(0.00199355 -0.00653859 9.88279e-21)
(-0.0109647 -0.00178693 0)
(0.00309949 0.00270346 0)
(-0.00252204 0.0066018 0)
(0.0017085 0.00603564 0)
(5.80656e-07 -1.36928e-05 -1.25865e-20)
(0.00682779 0.00236688 0)
(0.00280449 -0.000131063 5.85293e-23)
(0.00115558 -0.000316883 0)
(0.000857127 0.000805856 9.48869e-21)
(0.00536608 -0.00204221 1.21018e-20)
(0.000536468 0.000192312 -9.53389e-21)
(0.00274606 0.000220122 -3.14634e-20)
(-0.00204792 0.000283915 5.10833e-20)
(0.0120525 -0.00217385 0)
(0.00115258 0.00164649 5.61366e-20)
(0.00638906 0.00413258 -4.60472e-21)
(0.000498854 0.00110514 -1.10277e-20)
(0.0010541 0.0008855 1.02195e-20)
(0.00076849 0.00131174 1.48995e-20)
(0.00168116 0.00193515 -6.34955e-22)
(0.0374427 -0.0610452 0)
(0.000481661 -5.81109e-05 1.0384e-20)
(0.00273722 0.000551066 3.82167e-20)
(0.00280709 -0.00203479 0)
(0.0231526 0.00452166 3.52629e-20)
(-2.18198e-05 -3.32372e-05 1.37879e-20)
(0.000582701 0.000976056 1.05513e-20)
(8.8157e-05 0.000449386 0)
(0.000520248 -0.000450241 1.16189e-20)
(-5.5954e-05 0.00245239 9.13668e-21)
(2.67217e-05 0.00192355 -1.30065e-20)
(0.000794136 0.00782398 -6.73589e-20)
(0.000438841 0.000145055 0)
(0.00234215 0.000833039 1.9545e-20)
(0.000630019 0.000311241 0)
(0.00238841 0.00409222 -2.36216e-20)
(0.00315514 0.00104605 0)
(0.000856329 0.00183245 -1.76134e-20)
(0.00325665 0.000785913 5.71814e-21)
(0.0508083 -0.0760839 -4.68234e-20)
(0.00568569 0.0104011 2.83979e-20)
(0.00152328 -0.000231685 0)
(0.00255918 -0.000166314 -1.64053e-20)
(0.00262369 0.00201026 0)
(0.000639254 0.0002928 -8.36488e-23)
(0.00272169 0.00223607 -7.29774e-20)
(0.00206335 -0.000197929 -6.99797e-23)
(0.00292039 0.00250105 -4.51427e-20)
(0.00079885 0.00456175 1.94869e-21)
(-0.00545442 0.000805846 0)
(0.000431746 0.00191317 2.57249e-20)
(0.00130711 -0.000320914 -1.87308e-20)
(0.00189452 -0.000548684 0)
(0.00138359 0.00106299 0)
(0.000176951 -0.000113114 -1.68631e-20)
(0.00041879 0.0147793 1.26801e-20)
(7.19781e-05 0.00206229 3.96979e-21)
(0.00810784 0.00960281 0)
(0.00476039 -0.00244229 -1.98554e-20)
(0.00624561 0.00416053 7.19557e-20)
(0.00375895 0.000932562 0)
(0.00236388 0.00021235 3.00346e-21)
(0.000535071 -0.000274087 0)
(0.00316403 0.000906056 6.48705e-21)
(0.000897934 0.00105223 0)
(0.0064324 0.0129207 -4.8754e-19)
(0.00132636 0.00103386 2.01171e-20)
(0.00179073 0.00164402 -1.82676e-20)
(0.0107864 0.00263125 3.95877e-20)
(0.0041961 0.00263961 -1.01636e-19)
(0.000600022 -6.84412e-06 -1.94486e-20)