/*--------------------------------*- C++ -*----------------------------------*\
| =========                 |                                                 |
| \\      /  F ield         | OpenFOAM: The Open Source CFD Toolbox           |
|  \\    /   O peration     | Version:  v2012                                 |
|   \\  /    A nd           | Website:  www.openfoam.com                      |
|    \\/     M anipulation  |                                                 |
\*---------------------------------------------------------------------------*/
FoamFile
{
    version     2.0;
    format      ascii;
    class       surfaceScalarField;
    location    "650";
    object      phi;
}
// * * * * * * * * * * * * * * * * * * * * * * * * * * * * * * * * * * * * * //

dimensions      [0 3 -1 0 0 0 0];
oriented        oriented;


internalField   nonuniform List<scalar> 
19765
(
-0.0439117
-0.0503047
0.0942164
0.00158281
0.121232
-0.122815
-0.0332663
0.0606164
-0.0273501
-0.122896
-0.183641
0.306537
0.236671
-0.247078
0.0104074
-0.199788
0.0174027
0.182385
0.141246
-0.215158
0.0739123
0.0139155
0.0619594
-0.0758749
0.16824
0.144227
-0.312467
-0.121906
0.4485
-0.326594
0.137057
-0.0736136
-0.0634431
-0.0422036
0.0432449
-0.0010413
-0.077534
0.0173206
0.0602134
0.24324
-0.101994
-0.139617
0.316017
-0.176401
0.330929
-0.0942586
-0.209997
-0.0456323
0.255629
-0.302681
-0.110561
0.413242
0.0482741
0.0614881
-0.109762
-0.168648
-0.0218429
-0.163688
0.352958
-0.18927
0.33257
-0.54188
0.20931
0.514245
-0.181674
-0.0497605
0.0697968
-0.0200363
0.043387
-0.0766533
0.158899
-0.290143
0.131244
-0.0366283
0.0408336
-0.00420532
-0.306296
-0.235584
-0.0343042
0.00669148
0.0276127
-0.153795
0.460241
-0.306445
0.0154396
-0.0634509
0.0480113
0.0614821
-0.0552406
-0.00624154
0.0751262
-0.0668479
-0.0082783
0.0649489
-0.0344613
-0.0304876
-0.0524254
0.100699
-0.247234
0.124338
0.446903
0.0673419
-0.347893
0.263897
0.0839961
0.314795
-0.0871404
-0.227655
-0.232295
0.0196158
0.212679
-0.0429459
0.154115
-0.111169
-0.0648801
-0.122561
0.187441
0.0665768
-0.0526612
-0.111981
0.154695
-0.0427136
-0.0583571
0.000457533
0.0578996
0.00778913
-0.164034
0.367006
-0.202972
0.294873
0.199312
-0.494185
0.174105
-0.164058
-0.0100476
0.636444
-0.374226
-0.262218
0.0541253
-0.0386857
-0.0156076
-0.123468
-0.504402
0.350607
-0.0343042
-0.172056
-0.0277323
-0.229966
0.165086
0.178443
-0.0144145
-0.164028
-0.319388
-0.0502882
0.369676
-0.359989
0.238083
-0.137738
0.0607554
0.0769828
-0.317106
0.107109
0.0515229
-0.370911
0.143556
-0.174066
0.0305102
-0.21326
-0.019035
-0.131596
0.290496
0.0481842
0.204832
-0.253016
-0.141677
0.14326
0.0512584
-0.0401367
-0.0111217
-0.0353536
-0.00127467
-0.397475
0.0947939
-0.443821
-0.169416
0.613237
0.186203
-0.0426471
0.217038
-0.395416
0.178378
0.053599
-0.206985
0.153386
-0.285822
0.129986
0.155836
0.324894
-0.549425
0.224531
-0.0439989
0.0529125
-0.00891361
-0.0582959
0.103306
-0.0450102
0.0777231
-0.0242534
-0.0534697
-0.153341
0.177593
-0.0242513
0.186129
-0.396509
0.21038
0.0869227
-0.141214
0.0542911
-0.401474
0.218935
0.182539
-0.304444
0.430323
-0.125879
-0.0587003
0.000343228
-0.277758
0.122367
0.155391
-0.334616
-0.199859
0.534475
-0.0140873
0.112268
-0.0981804
-0.0974604
0.0833731
-0.373554
0.209866
0.468492
-0.300639
-0.167854
0.0527871
-0.048483
-0.0043041
0.10985
-0.0467194
-0.0631308
-0.0496729
0.105782
-0.0561088
-0.0347856
-0.110643
0.145429
-0.108633
0.0377149
0.0709183
0.457619
-0.27149
-0.0513814
-0.0217117
0.0730931
-0.153951
0.04197
0.131112
-0.127645
-0.0034664
-0.156405
0.0394315
0.116973
-0.101199
0.396072
-0.372249
0.287757
0.0844919
-0.253102
0.0654996
0.187603
0.439349
-0.222311
-0.291948
-0.219331
0.511279
-0.00901801
0.0728083
-0.0637903
-0.073405
-0.0643332
0.170277
-0.147599
-0.0226779
0.0830347
-0.0644912
-0.0185434
-0.104357
0.0805936
0.0237638
0.0554019
0.0060802
0.108504
0.0777628
-0.0391521
-0.0386107
-0.0780779
-0.0783268
0.073891
0.00123515
0.0351389
-0.164463
0.129324
-0.113619
0.144157
-0.0305373
0.167191
-0.223341
0.0561503
-0.0780304
-0.0263271
0.130437
-0.165223
-0.176666
-0.213423
0.390089
0.389412
-0.500291
-0.0748691
-0.202889
-0.0553279
0.0918536
-0.0365257
0.205545
-0.0165798
-0.188965
0.0474783
0.0147546
-0.0622328
0.355575
-0.16775
-0.187825
0.437803
0.198642
0.0259934
0.041263
-0.0672564
0.0746934
-0.0207758
-0.0539176
0.129934
-0.169566
0.0396321
0.0675614
-0.113593
0.0101148
0.103478
-0.428293
0.0134175
0.414875
-0.0144389
0.160858
-0.146419
0.269105
-0.100865
-0.264821
-0.107429
0.0738767
0.00915793
-0.0137465
-0.239356
-0.0256637
-0.05495
0.0363395
0.0015906
-0.0379301
-0.0356411
-0.011105
0.0467461
-0.125254
0.14139
-0.0161358
-0.010626
-0.0315777
0.0160949
-0.0662115
0.0501167
0.181223
-0.00711807
0.301604
-0.573667
0.272063
-0.448442
0.11598
0.332463
-0.047887
0.0576142
-0.00972725
0.0453561
-0.0622185
0.0168624
-0.296851
0.235588
0.0612638
0.00162857
-0.219776
-0.128117
0.215829
-0.50997
0.294141
-0.180718
0.166279
0.331193
-0.574413
0.243219
0.134475
-0.177421
-0.097026
0.048856
0.0481699
0.032943
0.0320058
-0.002969
0.0848332
-0.0818642
0.0632203
-0.015742
-0.145313
0.0316939
-0.210628
-0.0862236
0.38651
-0.632721
0.246211
0.0420248
-0.083515
0.0414902
-0.137644
0.00516062
0.132484
-0.075374
0.0497103
-0.0244288
0.0678158
-0.0133789
-0.0755545
0.043416
-0.0730027
0.0295867
0.125088
-0.140696
0.0165364
-0.059137
0.0426006
-0.0338704
-0.0436636
0.0141835
-0.117832
0.103649
0.450169
-0.668444
0.218275
-0.128764
0.0116427
0.0638355
-0.0754782
-0.323325
0.143622
0.179703
0.212857
-0.338183
0.125326
-0.0397653
-0.0393234
0.0790887
0.20225
-0.0350587
0.0966029
-0.248547
0.151944
0.0643904
-0.047854
-0.117975
0.186881
-0.0689058
-0.13236
-0.124086
0.256446
0.0282227
-0.456516
0.238077
-0.189893
-0.631453
0.674757
-0.0433035
-0.13674
0.0114867
0.156874
-0.0269394
0.146287
0.0105864
0.0690416
-0.0270168
0.0657256
-0.0203696
-0.083001
0.073983
0.0502646
-0.0860845
0.0277886
-0.239392
-0.140854
0.380247
-0.240636
0.195003
0.0806439
-0.0372278
0.0713708
-0.0659517
-0.00541909
-0.112416
-0.016088
0.128504
-0.0135393
-0.074869
0.0884083
-0.0855321
0.242899
-0.157367
-0.0391392
-0.0626783
0.101817
-0.0755564
0.0547806
-0.155738
-0.0185029
0.174241
0.0596195
-0.235325
0.175705
-0.293281
-0.155161
-0.15849
0.182944
-0.0244536
0.0977226
0.033389
-0.0653297
0.0155692
-0.535076
0.0912551
0.0675311
-0.0415376
0.0882826
-0.101822
0.100549
-0.0136267
-0.245681
0.43274
-0.18706
-0.0709339
0.062332
-0.0530028
0.307258
-0.254255
-0.291216
0.238214
-0.286016
0.1464
-0.678141
0.249473
0.428668
-0.137408
0.290896
-0.153488
-0.0914601
0.0876649
0.00379521
0.231199
-0.444596
0.213397
0.0322016
-0.066072
-0.12414
-0.0135042
0.620245
-0.279214
-0.0317693
-0.0263363
0.0581056
-0.139148
0.088976
0.0501722
0.0328614
0.261337
-0.460802
0.199464
0.468586
-0.166982
-0.0258762
0.217045
-0.191168
-0.160404
0.00644268
0.153961
-0.209524
0.00631377
0.20321
-0.0217478
-0.373668
-0.424156
0.569992
-0.145836
0.159095
-0.0128073
-0.228801
0.427377
-0.198576
-0.0347726
0.224227
-0.189454
0.0746383
-0.113778
-0.433676
0.25701
0.0603211
-0.0486784
0.123973
-0.0475078
-0.0764649
-0.0791477
-0.0693085
0.148456
0.0707113
0.00065953
0.166466
-0.208179
0.0417127
0.417635
-0.12507
0.139253
0.0372187
0.0726315
-0.177801
0.408999
0.0740362
-0.0579413
-0.321054
-0.286911
0.607965
-0.112327
0.562496
-0.0666993
-0.0615476
0.128247
-0.288572
-0.405518
0.176717
0.320107
-0.202592
-0.117515
0.0362457
0.107911
0.0464752
0.0905815
0.193668
-0.19354
-0.0832435
0.00641528
-0.0420564
-0.147323
-0.176002
0.0129964
-0.0774876
-0.0843912
0.0446259
0.0517557
0.0260071
-0.0890725
-0.00238761
0.211677
0.317911
-0.529588
0.0910087
-0.128246
0.0372369
0.249451
-0.0843043
-0.165147
-0.139219
-0.00539984
0.144619
-0.0608938
-0.0361321
0.0922645
-0.0546656
-0.0375989
0.156326
-0.580482
-0.0974536
0.132592
-0.0746389
0.0232575
-0.0056836
0.184126
-0.107246
0.229614
0.261694
0.0584128
0.0584305
-0.0801423
-0.0844954
0.0959924
-0.0152939
-0.0806985
-0.411768
-0.266372
0.516654
-0.272185
-0.0406128
-0.0554075
0.0960202
-0.198686
-0.202788
0.0326049
-0.166553
0.133948
0.01259
-0.0673973
0.0548073
-0.00352009
-0.0510534
0.068374
0.0446053
-0.0398163
-0.00478905
-0.0571937
-0.0819546
0.196885
0.250018
0.185826
-0.0193604
-0.0566253
-0.252119
0.308744
0.0388162
-0.0388162
-0.322636
0.27745
0.0451863
-0.0342978
0.0461864
-0.0118886
0.165218
-0.175749
0.0105314
-0.127611
0.0949942
0.0326169
-0.284718
0.584291
-0.299573
-0.0505874
0.0818664
-0.0312791
0.213151
0.133948
-0.347099
0.131198
-0.056342
-0.0748561
-0.138498
0.0650933
0.176268
-0.251137
-0.217998
-0.25723
0.475229
0.00851137
0.117601
-0.126112
0.0957688
-0.120585
0.0248158
-0.0360124
0.0580873
-0.022075
-0.28668
0.0611586
0.225522
-0.083673
0.0283451
0.0426702
-0.00633074
-0.0510539
0.078188
-0.0271341
0.159545
-0.139571
-0.0199743
-0.034817
0.107389
-0.118247
0.0108584
0.141425
0.108026
-0.0425476
-0.0482698
0.0908173
0.188906
-0.0236889
-0.412524
0.213838
-0.135398
-0.0592754
0.0563064
-0.256736
0.171204
-0.252737
-0.0980521
0.350789
-0.142998
0.0195293
0.231155
-0.0353848
-0.19577
-0.0677617
0.0864219
-0.0186602
-0.030081
0.0700811
-0.0400001
0.0514178
-0.134555
0.0831372
-0.208537
0.129389
-0.128743
0.0163266
-0.0541917
0.0181794
0.0590197
0.0328338
-0.182497
0.0343808
0.148116
-0.323692
0.0751458
0.14137
-0.160592
0.019222
0.0774255
-0.0211776
-0.0562479
-0.256305
0.513453
-0.257148
-0.145458
-0.0149465
-0.0287734
-0.104459
-0.0385391
-0.188714
0.450052
-0.210729
0.175957
-0.12646
0.270688
0.12884
-0.266247
-0.0624202
0.0356602
0.044883
-0.180844
0.135961
-0.239886
0.0303628
0.0100359
0.102232
-0.142204
0.201823
0.05068
-0.0912928
0.10539
-0.0713407
0.118604
-0.0472638
0.017548
-0.0646985
0.0471505
0.0719901
-0.0215885
-0.0504016
-0.424978
0.185586
-0.0733556
-0.0651427
0.0119459
-0.0401027
0.0410234
-0.000920628
0.211548
-0.00600243
-0.0418632
0.0740648
0.216098
-0.196409
-0.0196887
0.0470493
0.0769234
-0.0157119
0.076033
0.393888
0.11104
-0.00365153
-0.0216425
-0.0534714
0.0751139
-0.0466093
-0.00127764
0.0805533
-0.00805779
-0.0724955
-0.00283011
0.0142171
-0.117645
0.103428
-0.174037
0.0560614
0.0343647
-0.0744257
0.040061
-0.225596
0.185554
0.0400414
-0.0329266
-0.0475243
0.0804509
-0.0475061
-0.187819
-0.200252
-0.224726
0.0380461
0.186776
0.168799
-0.0661216
0.0840493
0.0570181
-0.106691
0.140855
-0.295277
0.154423
0.188057
-0.202472
-0.0690684
-0.0585427
-0.233344
-0.0903486
0.0558892
0.0098364
-0.0471206
0.0547477
-0.00762712
0.153609
-0.125546
-0.0280634
0.015476
-0.038526
0.00014928
0.0383767
0.14227
0.0113393
-0.0417446
-0.0395929
0.0813375
-0.397582
0.144846
-0.177309
0.148536
0.0539143
-0.082556
0.0286417
0.000606385
0.0398404
-0.0819272
0.0420868
0.0351672
-0.109929
0.0747619
0.30909
-0.168235
-0.100945
0.0503578
-0.162033
0.0364867
0.414921
0.0453197
0.299008
-0.119775
0.526815
-0.195622
-0.0217827
0.0629886
-0.041206
-0.075522
0.110973
-0.0354514
0.0411096
0.0318575
0.0194009
0.0209362
-0.129773
-0.156243
0.0681941
-0.0123049
0.175306
-0.18472
0.0094135
0.0844623
0.0126464
-0.0971088
-0.402496
0.33704
-0.59181
0.25477
-0.00724319
0.126641
-0.17452
0.0478791
-0.211638
-0.222038
-0.0881144
-0.00119873
0.0893131
0.150333
-0.00806322
0.035952
-0.0677213
0.113654
0.113725
-0.227379
-0.0516348
0.0664286
-0.0147938
0.0635699
-0.0509799
0.0108752
-0.0971259
-0.189555
-0.0102119
0.0639736
-0.0537616
0.0429199
-0.0370591
-0.00586075
0.0514936
0.060932
-0.112426
-0.108225
0.388382
-0.280157
-0.0721997
0.105261
-0.0330616
-0.139109
-0.273415
-0.186025
-0.0997967
-0.179463
0.0209725
-0.191896
0.174363
0.017533
-0.633251
0.414013
0.219238
-0.216704
-0.163467
0.380171
0.332185
-0.1777
-0.154485
-0.122744
0.0252838
-0.143684
-0.189929
0.333612
-0.0293513
-0.0171598
0.0465112
-0.051889
0.0795467
-0.0276577
-0.423785
0.539962
-0.116177
0.15954
0.0196446
-0.179184
-0.0818234
0.0517424
0.064536
0.0225043
-0.0870403
-0.289128
0.159354
0.188352
-0.161574
-0.0267783
0.0161427
0.166801
-0.0566744
0.0918416
-0.0391494
0.00539678
0.0337526
0.366083
-0.222462
0.101766
0.161157
-0.262924
-0.0568023
-0.0189158
0.0757181
-0.0843455
0.0686817
0.0156638
0.206404
-0.177956
-0.0284482
-0.109599
0.0340769
0.174299
-0.0476581
-0.491791
0.170737
-0.174182
0.2133
-0.0391181
-0.135913
0.144424
0.161031
-0.308353
-0.0151848
0.0530679
-0.037883
-0.159606
-0.289344
0.258522
0.0308217
-0.108133
-0.0116128
0.119746
-0.232761
0.0195012
-0.0888932
0.000778756
-0.0785487
0.0734289
0.00511978
-0.326957
-0.306294
-0.314581
0.488143
-0.173562
-0.102573
0.129335
-0.0267621
-0.555092
0.240511
-0.130682
0.0981574
0.0325245
0.281415
0.3156
0.105171
-0.0203375
0.155054
-0.578839
-0.0562569
0.1151
-0.0588427
0.0908521
0.0198156
-0.110668
0.16196
0.209336
-0.371297
0.0681869
-0.0512337
-0.0169532
0.108028
-0.178293
0.0702649
-0.049685
0.0632099
-0.0135249
0.521719
-0.310042
0.0330805
-0.0997797
-0.0149736
-0.0230897
-0.029268
0.0523577
-0.338732
0.174698
-0.0490528
-0.118973
0.163857
-0.0773826
0.0930654
-0.0156829
-0.0175967
-0.0654044
0.287054
0.143269
0.10595
-0.282461
0.156001
-0.010827
-0.17167
-0.0335636
-0.00653918
-0.0840053
-0.0246279
0.0527459
0.0154411
-0.0013619
-0.112231
0.00278317
-0.139045
0.352197
-0.0858202
0.043957
-0.141511
0.0370521
0.0135353
0.182005
-0.0739771
-0.0363538
0.0463612
-0.0100074
-0.0673636
0.0577693
0.00959437
0.102621
0.0188765
-0.121498
0.193933
-0.187432
-0.00650043
0.0321486
0.0361545
-0.0683031
0.0616883
-0.0441403
0.26551
-0.103582
0.0821798
0.0214024
-0.205108
-0.0276525
0.0140652
-0.0418157
0.0124644
-0.15497
-0.0849428
0.0454925
0.0394504
0.0396597
0.0315207
-0.0711804
-0.0585268
0.0433419
-0.0204016
-0.0639213
0.0843229
-0.0950073
0.0556839
-0.0394716
0.060459
-0.0209874
-0.0682249
-0.0265492
0.0947741
-0.17526
0.435799
-0.260539
-0.530233
0.273928
0.0605854
-0.0563225
-0.00426295
0.0184524
-0.106442
0.0879894
-0.10768
0.134428
-0.0267477
0.184987
-0.169533
-0.0154545
-0.0844308
0.0130901
-0.0984864
0.112704
0.0363809
0.0558836
-0.274818
-0.255415
-0.0211065
-0.0544499
-0.0384927
-0.00811657
-0.00376295
0.0325747
-0.0288118
0.0430451
0.141942
-0.410145
0.234885
-0.0656426
0.103358
-0.24028
0.49143
-0.25115
-0.0326735
-0.00585255
0.0116347
0.062242
0.0839887
-0.0194527
0.584598
-0.240535
-0.344062
0.442318
-0.117425
-0.0436355
0.0780002
0.4783
-0.327114
-0.151186
-0.0814604
0.0375486
-0.438155
0.594481
-0.106298
0.102185
-0.0607564
-0.0250638
0.272771
0.184848
0.254725
0.172652
-0.534085
-0.00419806
0.538283
0.102843
-0.07207
-0.0307734
0.0311426
0.205126
-0.416764
0.173053
-0.144887
-0.0281662
-0.0557194
-0.0227621
0.0784814
-0.10273
-0.291932
-0.316695
0.608627
-0.584193
0.428036
0.156157
-0.00575598
0.0523956
-0.0466397
-0.193206
-0.372129
0.565335
-0.251521
0.0154636
0.236057
-0.0337983
0.0337983
0.419603
0.164995
-0.00788856
-0.0312608
0.0108779
0.14998
-0.48013
-0.0907053
0.570835
-0.0687118
0.101486
-0.0327739
-0.014246
-0.133727
0.0260463
-0.132995
0.0304222
-0.0200357
0.111044
-0.0975024
0.25866
0.0254609
0.332626
0.145675
-0.145644
0.186823
-0.412237
0.0275734
0.0579083
-0.0854817
-0.0720681
-0.0064806
0.153396
-0.208058
0.0546625
-0.14792
0.53443
0.0355739
0.152778
0.083548
-0.00299469
0.170076
-0.158528
-0.0115483
0.111159
-0.0780786
-0.159971
-0.0207463
-0.0601467
-0.0399788
0.100125
-2.40127e-05
0.17533
0.0360093
0.0169033
-0.0673665
0.0571546
0.234867
0.122173
0.29743
-0.162488
0.323519
0.102633
0.140607
-0.182735
0.0405315
0.0585983
-0.00585241
0.0667237
-0.103307
0.0365836
0.0683668
-0.0859635
0.0280679
0.453801
-0.331628
0.465947
-0.193176
0.041727
-0.0834715
-0.0601075
-0.00386376
0.0639712
-0.194314
0.0906369
0.103677
0.0114737
0.257665
-0.153973
-0.103692
0.222748
0.188114
-0.410862
0.0691695
-0.0292289
-0.0399406
-0.0310285
-0.0322281
0.0643767
-0.139387
0.00398877
0.091602
0.00146338
-0.0731782
0.0326176
0.0405605
0.0459961
-0.0677788
-0.401655
-0.182538
-0.0410385
0.00397944
0.0586489
-0.0797554
0.0598524
-0.0814949
0.0159298
-0.121023
0.105093
-0.0108262
0.0468354
0.214062
-0.0606665
-0.527822
-0.48381
0.265812
-0.0407742
0.093855
-0.0530807
-0.115013
-0.203512
0.318525
-0.337648
0.212391
0.125257
0.106887
-0.239247
-0.121052
0.0819349
0.0391168
0.0325397
-0.0579917
0.0254519
-0.0431688
0.0418664
0.00130235
0.0186158
0.0213198
-0.0640008
0.042681
-0.574772
0.323743
0.251029
-0.293518
0.0419975
-0.109084
-0.213553
0.170505
-0.0290801
-0.0766568
-0.333488
-0.282555
-0.292217
0.015311
-0.101584
0.0862729
0.0287548
0.144074
0.0571108
-0.0628668
-0.102779
-0.528674
0.0577948
0.000803422
-0.110356
0.0488087
0.207883
-0.233759
-0.170529
-0.146577
-0.434819
-0.0034432
0.438262
-0.101291
0.111406
0.0785477
-0.217788
0.139241
0.0099943
-0.148395
0.240273
-0.0918778
0.0126912
-0.049045
0.0314554
-0.320093
0.59602
-0.275927
0.0559798
0.0229597
-0.0789395
-0.4032
0.202947
0.384269
0.0783259
-0.462594
-0.104642
0.317499
-0.0647245
0.0130897
-0.112417
0.0343861
0.0744638
-0.109076
0.0346126
0.213811
-0.037114
-0.176697
0.018074
0.197045
-0.215119
-0.00672511
-0.132662
0.104392
-0.0529742
0.283094
0.258116
-0.54121
-0.146301
-0.0258013
0.172102
-0.0116062
0.0516791
-0.040073
-0.0430569
0.00324062
-0.00908777
0.0786587
-0.0695709
-0.0611273
0.0495212
0.649637
-0.378311
-0.271326
-0.0265193
0.195928
-0.169409
-0.035187
-0.00589629
0.0410833
-0.644142
0.232374
-0.101737
0.0459742
0.0557631
0.0168509
-0.363729
0.299541
0.064188
-0.258335
0.175092
0.167702
0.0181242
-0.0407758
0.00558886
0.171052
-0.651182
0.0291645
0.14634
-0.175505
-0.109128
0.10787
0.00125804
-0.0565418
-0.0135877
0.0701295
-0.540935
0.484665
-0.270613
-0.214052
-0.0092997
0.110287
-0.100988
0.447827
-0.262817
-0.185009
0.115811
-0.122738
0.00692705
0.049851
-0.0451786
-0.00467238
-0.0218136
0.117582
-0.499201
0.241971
0.0515273
-0.0365759
-0.0149513
-0.0856565
0.0229207
0.0627358
-0.0971814
0.0249816
0.271262
0.176564
0.0614014
0.0184394
-0.0798408
-0.00148862
0.117299
-0.0393255
0.0466036
-0.00727809
0.144503
0.20261
-0.574739
-0.301195
-0.198006
-0.073056
-0.15254
-0.483092
0.263762
-0.00254594
0.093398
0.151716
0.105949
0.0686312
-0.0502887
-0.0183425
0.28917
-0.450947
0.161777
0.023576
-0.114465
0.0908886
-0.041763
0.00243747
0.360694
-0.170236
-0.190458
0.433655
-0.210907
-0.085979
0.0768912
-0.0170216
-0.0412725
0.0582941
-0.0839
0.108345
-0.024445
0.0446656
-0.0590325
0.0143669
-0.293295
-0.241472
0.534767
-0.275628
-0.273797
-0.0496199
0.0232837
-0.327365
-0.341079
0.366219
-0.618046
0.251827
0.118012
-0.310873
0.192861
-0.0417068
0.007409
-0.0652579
-0.0471587
-0.0548861
0.0672375
-0.0123514
-0.333223
0.224999
0.0646076
-0.0850092
0.084954
-0.0229946
0.0798732
-0.514692
-0.00422043
0.11538
-0.0280765
0.10254
0.445746
-0.156576
-0.177319
0.460413
-0.20557
0.0181376
-0.00680827
-0.102319
0.0426518
-0.097724
0.0550722
-0.175083
-0.0304868
0.055545
0.0130862
0.180185
-0.349806
0.169621
0.0616808
-0.00109541
-0.361012
0.266341
0.0946708
0.0276411
-0.0954028
0.0624898
-0.0299501
0.22378
-0.46406
0.0743977
-0.150686
0.146002
0.00468467
-0.345338
-0.298804
-0.141854
0.00535426
0.1365
0.0896435
-0.0469917
-0.234486
-0.129243
-0.368341
0.173646
0.194695
0.324024
-0.198504
-0.12552
0.325507
0.140098
-0.465605
-0.156322
-0.213821
0.231895
0.0424474
0.0267221
-0.0197717
0.161141
-0.0655638
-0.0200928
-0.507029
0.23221
-0.0143587
-0.0716203
0.0865393
-0.0508236
0.00234059
-0.0801082
0.103684
-0.0115662
-0.0563992
0.0679654
-0.0314976
0.0601844
-0.0286868
0.292577
0.304437
-0.0254907
-0.0320957
0.0575864
-0.231875
0.214063
0.0178118
0.362261
-0.2003
-0.202382
-0.171172
-0.19721
0.170691
-0.497831
0.297972
-0.0642515
0.194238
-0.0374146
-0.00440106
0.0383551
0.0131721
0.040205
-0.0386144
0.159342
-0.126737
-0.386614
0.309957
-0.182197
-0.040626
0.222823
0.315003
-0.194189
-0.120814
-7.6363e-05
0.159616
0.02842
0.0535905
-0.0820105
-0.453375
0.168657
-0.122483
0.113183
-0.0647296
0.083182
0.0410967
-0.0431757
0.00207895
0.37229
0.257279
-0.629568
-0.214355
-0.239691
0.454046
0.318556
-0.484307
0.165751
-0.478996
-0.206739
0.386925
0.397686
0.0488413
-0.0841813
0.03534
0.604328
-0.333309
-0.27102
0.0191184
-0.218581
0.487523
-0.268942
-0.0168098
0.0676049
-0.0507952
-0.0150331
-0.0456461
-0.0275321
-0.188679
0.208999
-0.0203193
0.0680798
-0.0584354
0.0176904
0.213465
0.163639
0.010105
-0.465191
0.24661
0.158233
-0.136377
-0.0218563
-0.103992
-0.110047
0.214039
0.0132193
-0.0584597
0.0452404
-0.0226955
0.0673611
0.0354598
-0.041639
0.00617927
-0.0663635
0.121432
0.312059
-0.187153
-0.124907
-0.0449479
0.158602
-0.556875
0.0109153
0.54596
-0.0218355
0.403833
-0.0639967
0.0351026
0.0288941
-0.0208744
0.10985
-0.112362
0.0351463
-0.0914032
0.155641
0.0263639
-0.372692
-0.126043
0.498735
-0.137013
-0.00484156
-0.376439
0.174057
0.0711991
0.0465376
-0.117737
-0.171817
0.0136328
0.158184
-0.171893
-0.0344244
-0.00874439
-0.132891
0.125638
0.00725225
0.233839
-0.527134
0.00754666
0.283361
0.0695968
-0.136749
0.127555
0.00919374
0.478105
0.196652
0.061353
0.0438177
-0.159933
-0.0079435
0.0490402
-0.0566904
0.0735731
-0.0168827
-0.203789
0.146738
0.0570511
-0.167257
-0.193755
0.130918
0.184085
0.596194
-0.336469
-0.259725
0.210009
0.317111
-0.52712
-0.0202787
0.0704326
-0.262778
0.192345
0.157551
0.0396548
-0.221852
0.250856
0.159328
-0.143096
-0.0162324
-0.0531059
-0.0871147
0.072756
0.0996421
0.00775821
-0.1074
0.00765111
-0.180264
0.400878
-0.220614
-0.0555862
-0.148203
-0.592749
0.224081
0.368668
0.0960027
0.07705
-0.00057413
-0.0368405
0.145018
0.692509
-0.327656
-0.364853
-0.0228955
-0.113854
0.0776245
0.0256866
-0.103311
-0.0526913
-0.025423
0.0781143
-0.125356
-0.0075349
0.128119
-0.232111
-0.0540111
-0.0133555
-0.0964297
-0.0263289
0.122759
0.53965
-0.0885512
-0.200792
-0.0780987
0.23998
-0.161881
0.223525
-0.411504
0.187979
-0.0753068
0.0246205
0.00811087
0.0121518
-0.0688423
-0.0919043
0.00581982
0.0851117
-0.0212762
-0.170394
-0.00797803
0.178372
0.0413007
-0.170771
0.197692
-0.0269216
-0.056625
-0.0135237
0.0701488
-0.0241009
0.0600528
-0.555936
-0.0005992
0.556535
-0.0160308
0.152683
-0.230782
0.0180486
0.245848
-0.0842067
-0.00890299
0.0508428
-0.0419398
0.241822
-0.053451
-0.188371
-0.317371
0.609949
0.201141
0.131045
-0.0861674
-0.0475592
-0.0736028
0.0201313
0.0115425
-0.490878
0.262248
0.22863
-0.0281354
0.181309
-0.0256681
-0.119391
-0.00935187
-0.00822702
-0.0334798
-0.252861
-0.109098
0.361959
0.228663
-0.285288
-0.0650542
-0.0175018
-0.160999
-0.128128
-0.267103
0.169601
-0.4272
-0.106885
0.00273044
-0.42188
0.188559
0.233321
-0.00711102
0.0446132
-0.0375022
-0.023402
-0.0351248
0.0286179
-0.142574
0.113956
-0.0231587
0.0791385
0.0213857
0.235568
-0.174783
-0.060785
-0.0543453
-0.0605157
0.114861
0.361404
0.0382754
-0.399679
-0.0565707
0.147208
0.0337816
-0.0790425
0.0452608
0.561861
-0.302043
-0.259818
-0.027138
-0.044488
0.071626
0.585604
-0.261861
-0.181829
0.0173667
-0.566092
0.179479
0.0328947
-0.0366576
0.102924
0.0121241
-0.115048
0.0255423
0.0522509
-0.0777932
-0.0248575
0.0643237
-0.0394662
0.218006
-0.398479
0.180473
-0.0435891
0.118984
-0.0477845
0.0435529
-0.0690436
-0.160173
-0.305018
0.0431094
-0.00764967
-0.0557276
0.083301
-0.600204
0.227512
0.0176621
-0.137053
-0.069558
0.0511476
0.0184104
0.0298984
-0.0986102
-0.374489
-0.188424
-0.404325
-0.159973
-0.0799129
-0.00835176
-0.168989
-0.0104737
-0.0119011
-0.139155
0.151057
0.0985169
-0.115781
0.0172643
0.367464
-0.14394
-0.378148
0.203734
0.174414
-0.0102381
0.168152
-0.384856
-0.0309883
0.0888966
0.270646
-0.190048
-0.0805975
-0.307601
0.549948
-0.242348
0.570918
-0.230734
-0.340184
0.410599
-0.192593
0.411102
-0.195122
-0.21598
0.053474
-0.0942483
-0.241037
-0.265992
0.0250625
0.0795334
-0.104596
-0.203576
0.400807
-0.197231
-0.144872
-0.193859
-0.269933
-0.296159
0.033999
0.0207487
0.377324
-0.458646
0.081322
-0.0178417
0.112836
-0.177948
-0.190393
0.0282599
0.0105563
-0.117759
-0.00824924
0.126008
-0.0476281
0.00244941
-0.241325
0.345704
-0.104379
-0.0645239
0.0804537
0.0731028
-0.0501432
0.25202
-0.181587
-0.0537679
0.0429417
-0.0126671
-0.213111
-0.0150233
0.155654
-0.14063
-0.0147766
-0.0581265
0.0729031
0.097742
0.00435618
-0.102098
-0.0476377
0.060857
0.0711372
-0.0791064
0.00796927
-0.00911494
-0.0297012
-0.570262
0.250169
-0.194668
0.0242737
-0.358236
0.155534
0.202702
-0.100001
-0.00813225
-0.057728
-0.0440093
0.226818
0.262985
-0.489803
0.113555
-0.314664
-0.28554
0.155399
-0.00845654
-0.146942
-0.247105
0.151249
0.0958566
-0.379219
0.1271
0.0567024
-0.0275319
0.073528
0.0354821
-0.0588841
-0.0190848
0.172494
-0.15341
-0.0443444
-0.00647923
-0.130039
0.0438715
-0.11508
0.0763268
0.0387532
-0.0206098
0.0889766
0.102542
-0.0249179
0.279644
0.0342147
-0.619298
0.21699
-0.114357
-0.00266673
-0.0311316
0.0994482
-0.154646
-0.214592
0.369238
-0.069947
0.0531373
0.208118
0.0259914
0.163536
-0.122532
-0.159929
0.160058
-0.138488
-0.0215709
-0.0418038
-0.0189891
0.0607929
-0.0218479
0.0804968
-0.0616133
-0.021925
0.0835384
-0.0359079
-0.0312592
0.0671671
-0.0727397
0.018074
-0.015711
0.063436
-0.047725
0.216696
-0.0313184
-0.185378
-0.0827057
0.025292
0.0574138
-0.501754
0.270759
0.230996
0.0132265
-0.563291
0.327479
0.235812
-0.0337904
-0.132762
-0.149918
0.00446005
0.0293924
0.195169
0.215934
0.046925
-0.299786
0.0366021
-0.152168
0.115565
-0.00534663
0.0285164
-0.10213
0.101815
-0.0404624
0.0810939
-0.0445184
-0.0365754
0.346805
-0.14205
-0.204755
0.58495
-0.303535
-0.303698
-0.135213
-0.101318
0.236531
0.027998
-0.0455357
-0.0519976
0.0975333
-0.142084
-0.105021
0.024515
0.217307
-0.203311
-0.197679
0.156632
0.0410472
-0.260192
-0.241563
0.0554931
0.0873508
-0.142844
-0.0604735
0.0723481
-0.0118746
-0.17788
-0.0328492
0.0598011
-0.0173537
0.0407665
0.16037
-0.201136
0.000108805
-0.42983
0.429721
-0.0931677
0.0585973
0.0345704
-0.0159508
0.311023
-0.295073
-0.0335674
-0.280272
-0.311539
-0.17869
0.144899
-0.437235
0.215731
0.221504
-0.222458
0.0740624
-0.0372325
0.0793955
-0.042163
0.412347
-0.198104
-0.214243
0.133038
-0.019266
-0.113772
-0.0841141
0.120716
0.267019
-0.488602
0.221582
-0.182187
-0.213404
0.395591
-0.384125
0.149639
-0.054965
-0.0109305
-0.110093
-0.0494242
0.0659047
-0.243266
0.177361
-0.118308
0.123695
-0.00538777
-0.0117069
-0.124206
-0.145626
-0.352205
0.242173
0.00420253
0.151196
-0.0305136
-0.140489
-0.0567507
0.0351622
-0.0192729
0.134021
-0.0977757
0.393196
-0.190505
-0.202691
0.00377879
0.0769245
-0.0807033
0.309771
0.166158
-0.475929
-0.154438
0.167192
-0.0127539
-0.0346737
0.179254
0.253487
-0.228388
0.39654
-0.0106445
0.113266
0.192273
0.0482572
0.229193
-0.108561
0.0690697
0.0394908
-0.198494
-0.185631
0.0772306
0.0567908
-0.0100771
-0.0413021
0.0513792
0.000890569
0.0469997
-0.0478902
-0.216348
-0.014327
0.230675
0.211085
-0.227665
0.293628
-0.0385941
-0.165111
0.203705
0.0156779
-0.0722197
-0.197424
-0.208094
0.0251573
0.164077
0.143181
-0.286658
0.164126
0.0788704
-0.0204399
0.00876848
-0.156145
0.147377
0.379423
-0.182903
-0.196519
0.0582316
-0.0809936
-0.284832
-0.206046
-0.0530571
0.0215595
-0.107545
0.05273
0.0548146
-0.101386
0.257222
-0.228094
0.172507
-0.0601779
0.0512749
0.122114
-0.257327
-0.055167
-0.059913
-0.286499
-0.276793
0.0498731
0.0623386
-0.112212
0.11226
-0.0126182
0.00254911
0.0959678
-0.0534646
-0.0307167
0.0627287
-0.112842
0.0501138
-0.392316
0.237669
0.20344
0.236433
-0.439873
-0.0102253
0.153355
-0.14313
-0.466541
0.375835
-0.254945
0.0385971
0.121273
-0.159867
-0.0382381
-0.0257586
-0.063862
-0.0253418
0.0892038
0.12728
0.00575806
-0.132552
-0.198484
0.331036
0.0370276
-0.0368682
-0.000159419
0.628608
-0.282408
-0.3462
0.304547
0.249177
-0.553725
-0.0665491
-0.228728
-0.0156895
-0.129197
-0.215769
0.202023
-0.246799
-0.175081
0.458996
-0.27196
-0.187036
-0.0535001
0.0575178
-0.217491
-0.00531851
0.105177
-0.0998586
0.221445
-0.19165
-0.146534
0.0473601
-0.0643816
-0.0136991
-0.130348
0.144047
0.04418
-0.0108183
-0.0333618
0.0528114
0.0282825
-0.0718037
0.0253131
0.0208733
-0.597755
0.28106
-0.223758
0.0422274
0.18153
0.449507
-0.543471
0.0939639
0.0130538
-0.167492
0.518658
-0.308649
-0.0330679
-0.0754926
-0.0170336
-0.0673119
-0.281394
0.573917
-0.292523
0.0561085
-0.110454
-0.0563417
-0.0200948
0.184846
-0.164751
-0.0304283
-0.028272
0.0693883
-0.328391
0.183519
-0.071849
-0.445847
0.237132
0.208715
0.103952
-0.140069
0.036117
0.0503974
-0.0175027
-0.12602
-0.0480456
0.268387
0.214253
-0.062035
0.209252
-0.147217
-0.179551
-0.044207
0.400021
0.228588
-0.393483
0.564535
-0.073655
0.0131815
-0.0499692
0.0133932
0.0469399
-0.190244
0.143304
-0.385763
0.195108
0.215491
-0.0207299
0.330501
0.205901
-0.369368
0.109245
-0.0460688
-0.0631761
0.33425
-0.170173
0.0325348
0.0250794
0.1437
0.0163587
0.054187
0.0719611
-0.0486593
-0.0233018
-0.278258
-0.195925
0.146371
-0.181622
0.0352506
-0.244157
-0.06335
0.307507
0.271127
-0.302662
-0.0214171
0.0621892
-0.0407722
0.0495689
-0.0486783
-0.0273449
0.131297
0.0275114
0.0706151
-0.0981266
0.0715866
-0.117122
0.0422484
-0.00809504
-0.0341534
-0.0841871
0.402743
0.133652
-0.0781589
-0.356642
-0.0463295
-0.0232285
0.198261
-0.184628
-0.127202
-0.0874407
0.066831
-0.11232
-0.0222346
-0.0172578
-0.0418793
-0.283705
0.122706
-0.036612
0.0981001
0.258646
-0.0131694
-0.0404264
0.0535958
0.0715981
-0.000690461
0.271817
-0.0413565
0.0135896
-0.175163
0.166562
-0.315786
0.149224
-0.014061
0.0827427
-0.0820277
0.0181657
-0.204502
0.107201
-0.0573283
-0.256992
0.446064
0.377433
-0.120168
0.099294
-0.0345268
-0.058641
-0.0916043
-0.026643
-0.0169946
-0.0468438
0.0638383
-0.0549882
-0.0525564
-0.0382368
-0.269497
0.307734
0.0315163
-0.0347368
0.00322058
-0.0532873
-0.178588
-0.190459
-0.2377
0.428159
-0.0806036
0.0587556
0.082486
-0.0426127
-0.0398733
0.0434847
-0.259254
0.100819
-0.342144
-0.0274984
0.0609341
-0.0334357
0.155939
-0.0308079
-0.125131
0.334419
-0.307552
-0.026867
-0.227125
-0.301549
-0.111944
0.119703
-0.0209142
0.151352
0.169601
-0.122661
-0.0403663
-0.0230845
0.194053
-0.587535
0.250393
0.18882
0.0818259
0.044338
0.135614
-0.179952
-0.269656
-0.224617
0.494272
0.0557365
-0.0673027
0.519866
-0.153646
-0.169958
0.150874
0.270856
-0.286807
0.0371405
-0.207019
0.169878
-0.0559196
-0.0425227
0.0984423
0.556604
-0.252057
0.04651