/*--------------------------------*- C++ -*----------------------------------*\
| =========                 |                                                 |
| \\      /  F ield         | OpenFOAM: The Open Source CFD Toolbox           |
|  \\    /   O peration     | Version:  v2012                                 |
|   \\  /    A nd           | Website:  www.openfoam.com                      |
|    \\/     M anipulation  |                                                 |
\*---------------------------------------------------------------------------*/
FoamFile
{
    version     2.0;
    format      ascii;
    class       volVectorField;
    location    "100";
    object      ddt0(U);
}
// * * * * * * * * * * * * * * * * * * * * * * * * * * * * * * * * * * * * * //

dimensions      [0 1 -2 0 0 0 0];


internalField   nonuniform List<vector> 
13308
(
(-0.0133991 0.0204879 0)
(0.0334825 0.0329092 8.00024e-21)
(0.00127279 0.00364509 -2.2875e-21)
(-0.00175278 -8.15336e-05 -6.72117e-22)
(-0.00315422 -5.96382e-06 -6.14568e-23)
(0.00147127 -0.000470605 -1.32529e-22)
(-0.00897028 -0.0104937 1.04006e-22)
(-0.000269845 -0.000455041 0)
(-0.0100951 -0.00480046 0)
(-0.0325077 -0.111868 -3.11884e-20)
(-0.0780203 0.0431745 0)
(-0.0372707 0.180831 -9.39074e-21)
(0.00128065 -0.000484823 0)
(3.10117e-05 -4.52866e-06 0)
(0.00166884 -0.000396241 0)
(0.00302723 0.00562642 0)
(0.00694486 0.00990756 -1.06594e-22)
(0.0355979 0.0344486 4.04933e-21)
(-0.032509 -0.155244 1.17538e-20)
(-0.0530856 -0.04831 -3.65912e-21)
(-0.000469543 -0.0081027 -4.51013e-22)
(0.00637657 0.0150527 2.7744e-21)
(0.00100868 0.0197444 6.34106e-21)
(-0.00175421 -0.00154193 -1.99743e-21)
(0.00317407 0.00567262 0)
(0.000625218 0.00864105 -5.43029e-21)
(-0.00452733 -0.00276008 1.86067e-22)
(-0.0767352 0.0233393 -2.80175e-22)
(-0.00457041 -0.00234634 5.39752e-23)
(0.000885365 -0.0122975 0)
(0.0314646 0.0420957 1.5379e-20)
(-0.000392286 -0.0095655 0)
(0.00157953 0.0168372 0)
(-0.00677026 0.000848384 0)
(0.121766 0.0389486 -3.20548e-19)
(0.00623821 0.00938596 -1.26558e-21)
(-0.00898052 -0.0092986 1.96626e-22)
(0.00048733 0.0196671 -2.27772e-21)
(0.000776472 -0.00121068 -1.65992e-22)
(0.00189931 0.00411076 1.21528e-21)
(-1.56216e-05 -1.01973e-05 0)
(-0.000302667 -0.000148683 -3.14216e-22)
(0.131438 0.081126 -3.17001e-20)
(4.74411e-06 -0.000123557 -6.96433e-22)
(0.00117051 -0.0010766 0)
(-0.00910744 0.00239377 0)
(0.00164299 -0.000298923 1.94905e-24)
(-0.00111152 -4.94915e-05 1.34224e-23)
(-0.0228375 0.00708832 1.14943e-21)
(0.000325839 0.00250565 2.31296e-21)
(5.28827e-05 -8.52024e-06 3.21009e-23)
(-0.00117391 0.000659881 0)
(0.00779573 0.0104913 1.40477e-20)
(-0.00635893 -0.106426 -1.2166e-20)
(-0.00350307 -0.000398254 -1.17612e-20)
(-0.00307464 -0.000621574 -2.15402e-21)
(2.26744e-05 -0.00011558 -2.94744e-22)
(-0.00166821 0.000492191 -2.14333e-21)
(-0.00039001 -0.00204391 -2.31393e-21)
(-0.000197328 -0.00193453 0)
(-0.0428613 -0.215386 -7.00804e-21)
(0.000893942 0.012727 -8.20527e-21)
(-0.00148692 0.000466005 3.25173e-21)
(-1.10668e-05 -7.21379e-05 0)
(0.000398001 5.50962e-06 -3.14461e-23)
(0.00183201 0.0171619 -1.55335e-21)
(0.000289386 -9.11477e-05 -2.84172e-22)
(-0.00639105 0.00265987 0)
(-0.0021548 0.000228883 -1.08408e-21)
(0.0140578 -0.0298102 0)
(0.0141664 0.0596521 0)
(0.000882003 -0.00111091 -2.69699e-21)
(0.028692 0.00140167 -1.55369e-23)
(-0.000161106 -0.0105779 -2.25209e-21)
(-0.0102823 0.00439513 2.04691e-21)
(7.72305e-05 -0.00202949 -2.90029e-21)
(-0.00145869 -0.00315342 0)
(-0.00349455 -0.000810202 1.2002e-21)
(-0.000316632 6.02781e-05 -2.9912e-22)
(0.00259178 0.0421015 1.28797e-21)
(0.000569433 0.000889242 -1.70036e-21)
(-0.00279245 -0.00436633 0)
(0.000310034 -0.00195427 1.50158e-21)
(-0.00117226 -0.00190766 0)
(-0.0181896 -0.00958524 0)
(-0.000311429 -0.000429095 0)
(-0.00324649 -4.47116e-05 8.87173e-22)
(-0.0560297 -0.0171114 3.02788e-21)
(-0.0295505 -0.0934456 7.79856e-22)
(-0.0508147 -0.0505986 1.18243e-20)
(0.000222458 -0.000491916 4.19754e-21)
(0.000308737 -0.000139253 0)
(-0.00457949 -0.00376964 -2.74588e-22)
(0.00099925 -0.00889237 2.03091e-21)
(5.2272e-05 -1.12826e-05 2.06799e-22)
(-0.000367066 -0.00146557 -5.00789e-22)
(-0.000332777 -0.00014244 -1.28886e-23)
(-0.000465592 0.0390501 -2.79778e-21)
(-0.000651521 0.0577361 -6.06991e-21)
(0.0142733 -0.0273768 0)
(0.000238502 -0.00044303 -8.88707e-23)
(-2.53465e-05 -8.68339e-06 8.0972e-23)
(0.000402695 -1.10776e-05 8.07213e-23)
(0.00164706 -0.00976954 0)
(-0.00505953 0.0894152 1.09785e-19)
(0.0320814 0.0388576 -1.13111e-21)
(0.00131192 0.00398981 2.31986e-21)
(-0.0020788 0.000181462 9.38242e-22)
(0.000436779 0.00562775 0)
(0.000433264 0.00895594 5.64263e-21)
(-0.000627385 -0.000243705 5.96011e-22)
(-0.000722778 0.00600002 -3.75328e-22)
(-0.00119363 -0.00463419 2.89064e-22)
(-0.000277267 2.83043e-05 2.82615e-22)
(-0.00216338 -0.00468486 -3.27943e-22)
(-0.0383052 -0.146856 -1.55001e-20)
(-0.00777085 0.00199694 1.97056e-20)
(0.05038 0.15399 -3.81965e-21)
(-0.00501392 -0.00328051 -3.75126e-22)
(-0.0021628 -0.000918905 0)
(-0.00309616 -0.00162083 8.84213e-23)
(0.00572732 -0.00874241 0)
(-1.33703e-05 0.00109399 3.52466e-22)
(0.0225476 0.00485132 -2.5383e-22)
(0.0189636 0.0899282 2.22162e-21)
(0.0244041 -0.0725536 0)
(-0.0231615 -0.0121164 -2.32509e-21)
(-0.0210334 -0.0125482 2.13602e-21)
(0.029014 0.00494195 9.74145e-23)
(0.00140708 0.00298241 0)
(-0.00135247 0.0508433 0)
(-0.0109164 -0.0119849 7.24169e-21)
(-1.24188e-05 -7.83449e-05 4.61764e-22)
(-0.000716828 -0.00193541 2.784e-22)
(-0.00951028 -0.00312551 -5.90663e-22)
(0.0207855 0.00425211 -3.40928e-21)
(0.00025131 -0.000137549 0)
(0.0254953 0.081577 0)
(-0.0421305 0.0269398 0)
(-0.000338502 -0.000112802 -2.19289e-22)
(-0.00158976 0.000549183 7.52297e-22)
(-0.000616752 -0.000261428 0)
(4.49786e-05 -4.12473e-05 0)
(0.000284136 -0.00543528 0)
(-0.000238284 -0.000813561 -2.90746e-21)
(0.00854681 0.0249899 -1.96852e-19)
(0.0287063 0.00192368 0)
(-0.0497564 -0.0531857 2.85853e-22)
(0.000566152 0.000723732 2.98179e-21)
(-0.0197398 -0.0131629 -1.01446e-20)
(-0.00212243 0.000415928 -1.93363e-20)
(0.000374141 -1.9661e-05 0)
(-0.0481783 -0.0806626 1.05524e-20)
(-0.0464963 -0.203565 -1.50251e-20)
(0.000100962 0.0154507 0)
(-0.0402084 0.0181911 6.06715e-20)
(-0.000865064 0.000115236 4.36223e-22)
(0.000381714 0.000552477 -4.66606e-22)
(-1.74335e-05 -1.11408e-05 0)
(-0.0282727 -0.0376446 0)
(-0.0332352 -0.111442 4.06792e-20)
(-0.00136498 0.000697303 1.48513e-21)
(4.06841e-05 -3.67373e-05 2.02055e-22)
(0.00127022 0.0128137 7.20333e-21)
(-0.0429653 0.012722 -1.78788e-20)
(0.00540932 -0.0353705 0)
(0.0062133 0.0143716 5.73087e-21)
(0.000331064 0.000585153 1.43956e-24)
(0.000695723 0.00563574 -3.50904e-21)
(-0.00212414 0.000438144 1.48064e-22)
(-0.000589125 -0.000173492 -9.15233e-22)
(0.0194437 0.215471 1.28551e-20)
(0.000347849 -1.43072e-05 -1.60113e-22)
(-0.000188925 0.00165105 -1.24214e-21)
(-0.00448037 -0.000634255 3.23605e-23)
(0.00375641 0.0127603 -7.41658e-21)
(0.00602767 0.0154284 8.52862e-21)
(0.000626229 0.00294747 1.17017e-21)
(-0.0216146 -0.0167723 8.14174e-21)
(-0.000405699 8.08833e-05 5.83062e-22)
(0.0140522 0.162754 -2.57425e-21)
(0.00909081 0.0109963 -2.64038e-22)
(0.000337355 -7.33792e-05 2.51687e-22)
(-0.0353898 -0.106855 7.73502e-22)
(0.00726768 0.0134632 0)
(-0.000797117 0.000729761 3.09997e-22)
(-0.00267411 -0.000457914 1.99972e-21)
(0.0278079 0.0425468 0)
(-0.00018886 -0.0130108 0)
(0.0531351 0.0504901 0)
(0.0537649 0.0429297 0)
(-0.0545414 -0.0487258 0)
(-0.000212121 -0.000877142 1.23449e-21)
(-0.0523912 0.159783 -8.54833e-21)
(-0.000345835 -0.000616783 2.16274e-21)
(0.00340927 0.0126657 6.2133e-21)
(-0.000526698 -0.000146003 6.86832e-22)
(0.0284793 -0.00334836 -1.77272e-21)
(-0.0350579 -0.00303044 -9.33448e-22)
(-0.000294786 -0.000176192 -5.23008e-22)
(0.00354005 0.00682522 -2.02469e-21)
(0.0081546 0.0104887 -1.99665e-20)
(-0.0981937 0.186496 -3.18712e-20)
(-0.00881546 -0.00265701 1.50727e-22)
(0.0019489 0.00356512 0)
(-0.0131981 0.00677831 3.54595e-19)
(0.00197325 0.00383202 1.43586e-21)
(-0.00873851 0.00674166 -2.83843e-21)
(0.06363 0.0540302 3.76286e-20)
(-0.00403108 -0.000537709 6.41302e-21)
(0.0648487 0.061744 -5.77702e-20)
(0.0360894 0.00144327 -2.87763e-20)
(-0.00194189 0.0021885 1.38867e-22)
(-0.00150176 0.000749006 2.2527e-21)
(-0.00108207 0.00743188 1.04389e-20)
(0.00802638 -0.005305 0)
(-0.000740364 7.89027e-05 -5.67854e-22)
(-0.054346 -0.0202217 6.49065e-21)
(-0.037526 -0.0392719 -3.09576e-20)
(-0.0124231 0.00488838 -1.29692e-21)
(-0.053728 0.00399199 -1.98297e-20)
(0.000360961 -2.67274e-05 -4.51195e-22)
(-0.0376074 0.00709602 0)
(0.00327437 -0.00226156 -9.20957e-23)
(0.00706256 -0.00922785 0)
(0.00483244 0.00765427 -5.82287e-21)
(0.00215417 0.0175691 0)
(-0.00393442 0.0734809 -1.94557e-19)
(-0.00323214 -0.000714163 -8.92639e-24)
(-0.0125165 0.00745249 -1.7064e-19)
(0.000951125 0.0026033 -1.30592e-21)
(0.0104228 -0.00147436 1.47262e-22)
(0.00088057 0.00317968 -5.39068e-22)
(-0.019852 -0.00942756 0)
(-0.0138884 0.0226567 0)
(-0.00147091 0.00190216 -7.98083e-22)
(0.0141417 0.0215548 0)
(-0.0463402 -0.00180611 0)
(-0.000823123 0.0150321 -1.76274e-22)
(0.0115475 -0.00114322 -6.89934e-22)
(-0.00124761 -0.00214265 0)
(-0.0125615 0.0247327 0)
(-0.000155698 -0.00905293 5.17905e-21)
(0.00242981 -0.00114556 3.43631e-23)
(0.0125114 0.116891 8.6846e-22)
(0.00363423 0.0159803 -6.15301e-22)
(0.0392411 -0.000131956 2.74276e-20)
(-0.0386396 -0.0389082 3.97477e-22)
(0.00345029 -0.00247155 0)
(0.00791268 0.0135961 5.1222e-22)
(-0.00107907 0.0073227 -1.03032e-20)
(0.00135959 0.015698 -4.10735e-21)
(-2.28103e-05 -6.45213e-06 -8.61242e-24)
(0.000629654 0.0120938 2.09898e-22)
(-0.0372844 -0.00063447 2.14534e-22)
(0.00916731 -0.00538879 -1.87456e-22)
(-0.0520084 -0.0766395 -1.12316e-20)
(0.000345621 -2.9124e-05 2.85907e-22)
(0.0150871 -0.129187 0)
(-0.00336225 -0.000733885 4.65891e-21)
(0.00155572 -0.0125749 0)
(-0.0320141 -0.0385032 0)
(-0.00164378 0.00192042 0)
(0.00155595 0.00127282 -4.53551e-22)
(-0.0386987 0.00156215 -1.93313e-20)
(-0.00866707 -0.0111277 -8.22492e-22)
(-0.0662004 0.0943619 1.07256e-20)
(-1.75877e-05 -6.39629e-05 0)
(-0.0425285 0.00814153 0)
(0.0049475 0.00898624 0)
(0.0483934 0.00184572 -2.52173e-20)
(-0.00334998 -0.00154767 -7.39441e-22)
(2.91313e-05 -3.56561e-06 3.8335e-24)
(-0.0471404 0.0241415 0)
(-0.00022754 0.00020157 5.46362e-24)
(0.000392878 7.0774e-07 1.95035e-23)
(-0.00064962 -0.00329275 1.26867e-22)
(-0.0269213 0.0384582 4.07598e-21)
(-0.00308351 0.000267038 -9.06293e-23)
(-0.00923908 0.0233061 -1.22197e-19)
(0.00320043 0.0131288 2.6874e-21)
(2.36701e-06 -4.75028e-06 -2.50008e-22)
(-0.0171437 -0.0885105 -7.82621e-22)
(0.0100008 -0.00417143 9.00788e-23)
(0.0264575 0.0460335 0)
(0.016221 -0.0373242 2.4746e-20)
(0.00142578 0.00112121 1.76852e-22)
(-0.0129412 0.0228712 0)
(-0.00490358 0.0315318 1.79573e-20)
(0.0173847 -0.0787482 7.3751e-20)
(-0.0045424 -0.00470167 -6.16306e-22)
(0.000510231 -0.000197617 8.4259e-22)
(0.00774433 0.0102921 3.34001e-21)
(0.00866442 0.0111769 1.00751e-21)
(0.000694829 0.000211072 0)
(0.0938265 0.08009 1.71795e-20)
(-0.0030975 -0.000689958 4.75648e-21)
(0.00331733 -0.01182 -5.00173e-22)
(-0.00895479 0.0264147 -1.96679e-19)
(0.00468949 0.00773818 1.378e-21)
(0.00159988 0.0161273 -2.10044e-21)
(0.000780502 0.00809211 1.90562e-21)
(0.000433818 0.00802274 5.85855e-21)
(-0.0317844 -0.0176553 2.15783e-21)
(-0.0306035 -0.0134501 -1.6355e-21)
(-0.018023 0.00838705 2.21379e-21)
(-0.00141398 -0.00711644 -3.97993e-21)
(-0.000300865 0.00167662 -2.42456e-21)
(-0.0452708 -0.0421145 3.68312e-22)
(-0.000813489 0.000764117 0)
(0.0365221 0.169314 1.32676e-21)
(0.00272914 0.00645586 -7.25264e-21)
(-0.00494434 -0.00427815 4.44753e-22)
(-0.110964 0.148844 -7.13622e-21)
(0.144099 0.0480123 0)
(-0.00483642 -0.000753705 0)
(0.000207221 3.94942e-05 1.34375e-22)
(0.000711249 0.000289476 0)
(1.90013e-06 -6.75224e-06 -2.45565e-22)
(0.0064003 0.0102294 1.32538e-21)
(-2.5397e-05 -4.91485e-06 1.02796e-23)
(-0.002434 -0.00407272 0)
(0.00117244 0.00272108 0)
(-0.00214846 -0.00230647 0)
(0.00410356 0.00500936 -4.52469e-21)
(-0.000724783 -0.00568671 1.631e-22)
(0.00989256 -0.00308497 -3.84835e-23)
(-2.06537e-05 -0.00015583 0)
(0.00105243 -0.00120374 3.02553e-21)
(0.00185244 -0.0376403 1.73824e-21)
(0.00156445 0.0140948 4.76963e-21)
(9.90925e-05 -4.4694e-05 -2.37537e-22)
(-0.0431629 -0.0387863 -2.16945e-22)
(0.00118945 -0.000813696 0)
(-0.00275091 2.24632e-06 -1.35032e-21)
(-0.0170462 0.0384854 -2.33795e-20)
(0.00430502 0.00795374 0)
(0.000435785 0.00078157 1.62542e-22)
(0.00105244 0.016127 0)
(-0.0441877 -0.0528919 0)
(-0.00219774 -0.000186926 -1.58778e-22)
(-2.69477e-05 -0.000140059 0)
(-2.73709e-05 -9.99744e-06 1.05686e-22)
(-0.00680188 0.000287774 -1.016e-21)
(0.0194191 0.0474648 0)
(0.0235763 -0.0846908 8.00234e-20)
(0.00425601 0.0290425 -6.54683e-20)
(0.00569253 0.0250099 5.92794e-20)
(-5.55366e-06 -7.8607e-07 0)
(-0.00364512 -0.00706833 -6.65982e-21)
(-0.00209771 0.00233357 -1.29215e-22)
(0.00479666 0.0317305 6.87894e-21)
(0.0421969 -0.0986855 0)
(0.000479447 -0.000133877 0)
(-0.0227506 0.00904134 -2.86155e-21)
(0.000716216 -0.00269315 -8.58805e-22)
(0.0122054 0.0101317 0)
(-0.0218844 0.00313294 0)
(0.000934372 0.0282147 6.3457e-20)
(-0.0360179 0.00261663 5.96912e-22)
(0.137578 0.0728914 1.37447e-20)
(-0.00926043 -0.00415816 6.2045e-22)
(-0.0023317 0.000391787 0)
(0.043955 0.0032856 2.11955e-20)
(0.0092295 0.0130915 -3.64513e-21)
(-0.000184791 0.00997462 -1.44936e-21)
(-1.68313e-05 -9.96689e-06 -1.00777e-22)
(0.00263509 -0.00119417 -7.2918e-23)
(-0.00185635 0.000298441 -5.44633e-21)
(-0.00104081 0.000508451 1.26529e-22)
(0.00366381 0.00732293 0)
(0.00348177 0.00531837 -6.33276e-21)
(-0.0214025 -0.034954 0)
(6.1436e-05 -1.28659e-05 3.44814e-22)
(-0.00181084 7.89074e-05 5.19955e-21)
(-0.0120777 0.0187772 0)
(0.00155152 0.0134178 -1.46692e-20)
(0.00085057 0.0134871 -1.09734e-21)
(0.000708728 0.000954603 1.71815e-21)
(-0.0360212 -0.00123762 3.71904e-21)
(0.000949075 -0.000531229 -1.42345e-21)
(0.00134566 -0.000806746 6.87655e-23)
(-0.0377127 -0.0396863 -2.01942e-21)
(-0.0031443 0.000773074 -3.21451e-22)
(-0.000168735 -0.00267441 -6.02647e-22)
(0.00925697 0.0124978 0)
(-0.000883066 0.00551728 3.2622e-22)
(0.000388392 -0.00270793 0)
(0.000304855 -8.6269e-05 2.77185e-22)
(-0.0322654 -0.110508 3.42652e-20)
(-0.0028132 -0.00666158 3.84513e-21)
(-0.01057 0.0277449 -3.17634e-21)
(0.0285591 -0.0432954 3.34216e-22)
(0.00403088 0.00738257 2.54131e-21)
(0.0609422 0.127591 -4.26425e-21)
(0.00418723 -0.0112267 2.32563e-21)
(0.0317303 0.0720585 1.88265e-21)
(0.000486576 -0.000106786 0)
(0.00481153 0.0408224 0)
(-0.000121615 -0.000235385 1.85311e-21)
(-0.0455292 -0.0555189 0)
(-0.000337867 5.09745e-05 -7.94094e-22)
(0.0105368 -0.0255255 0)
(-9.90167e-05 0.0100182 1.44519e-21)
(0.00635057 -0.00425097 -2.06677e-23)
(0.115359 0.0465788 2.69276e-19)
(-0.000958325 0.000116592 6.9412e-22)
(-6.48146e-05 0.00100756 -3.57715e-22)
(-0.000345113 0.0479958 -2.04467e-21)
(-0.0164234 0.0673967 -4.92961e-20)
(0.00527932 0.00704652 -1.26724e-21)
(-0.00870798 -0.0320252 -6.75346e-22)
(0.0371425 0.030676 0)
(0.000468143 -9.23301e-05 1.68911e-22)
(0.000310698 -0.00020668 3.30862e-22)
(0.00270965 0.0165517 -6.01147e-22)
(0.000978999 -0.000421554 1.82338e-22)
(0.000327587 -0.000220323 0)
(-1.00707e-05 -0.00242156 -2.60958e-21)
(-0.0122886 0.0217466 4.77098e-20)
(-0.00115273 0.0322391 2.75629e-20)
(-0.00207984 -0.000132374 0)
(-0.00203626 -0.000302792 3.62273e-22)
(0.000787019 0.000374014 0)
(-0.00251891 -0.00381671 -5.31241e-22)
(0.00164353 0.00454915 -4.60352e-21)
(-0.041134 -0.0538207 0)
(-0.00030015 -0.000670472 1.53357e-21)
(-0.0169404 -0.142669 3.87108e-21)
(-0.0381709 -0.0309076 1.53892e-21)
(0.00790958 -0.0488793 0)
(-0.000648861 0.000726244 -5.31974e-22)
(0.0233486 -0.0364339 -1.50093e-21)
(-0.0119212 0.0243136 5.82967e-23)
(0.000983201 0.000590716 1.13786e-22)
(-0.00140111 -0.00195048 6.88551e-22)
(0.00218502 0.0134354 7.07298e-21)
(0.000289566 -0.000145844 5.18573e-22)
(-0.00472881 -0.0053093 8.13672e-22)
(0.00154631 0.00359576 -2.87451e-21)
(-0.00228462 0.000998542 -4.32875e-21)
(0.00608958 0.019958 0)
(0.000141106 0.00263233 4.4685e-21)
(-0.00202575 -0.000360995 3.40352e-21)
(0.0123202 0.0178077 1.36458e-20)
(-0.00101787 0.000409152 -1.45828e-22)
(0.00540718 0.231465 -6.9961e-22)
(0.00772033 0.0108084 0)
(0.000335443 -8.87862e-05 -3.79387e-22)
(0.00723256 0.0142941 0)
(-0.0154323 0.0186792 0)
(-0.0136366 0.0316643 -8.5447e-21)
(0.0326996 0.0301139 3.27516e-20)
(0.0129805 0.0303563 0)
(-0.00166249 -0.00135154 1.30476e-21)
(-0.00203905 -0.006054 -2.60114e-21)
(-0.00213161 0.000789826 9.11577e-23)
(0.0400625 0.0373058 7.75482e-20)
(0.000472726 0.0191158 0)
(0.0107027 -0.0229755 0)
(-0.0536764 -0.0593923 0)
(0.0151044 0.0222007 7.26335e-22)
(0.000209974 -4.95218e-05 -5.95155e-22)
(-0.0373 -0.103778 0)
(-0.00187296 -0.000941041 0)
(-0.00450527 -0.000948995 7.31875e-21)
(0.000390883 0.000825909 -2.45976e-22)
(0.000865705 0.000422664 0)
(-0.000313935 -0.000222239 -1.64329e-21)
(0.00489664 0.00934835 4.16488e-21)
(-0.00538894 0.00444461 -7.73421e-21)
(-3.63325e-05 -0.000112645 0)
(0.000230355 0.0190024 2.49061e-21)
(0.000599041 -0.000125477 3.26435e-21)
(0.0460959 0.0377442 -1.3001e-19)
(0.000568585 0.0123768 1.06649e-21)
(-0.0272193 -0.00664007 2.00361e-20)
(-0.000613203 -0.000360061 0)
(-0.0379952 -0.0254669 2.97377e-21)
(-2.94344e-05 -2.34647e-05 0)
(0.00634542 0.00447673 2.6245e-22)
(-4.82744e-06 -3.79564e-06 0)
(0.00367824 0.00306132 0)
(0.0010935 0.000655235 -2.05327e-22)
(0.0241255 -0.00648187 2.99174e-20)
(0.000775643 0.000205469 0)
(-0.0214778 0.00781578 0)
(0.0285678 0.125227 -4.8653e-21)
(-0.000638949 -0.00030636 -6.14724e-22)
(0.000246345 -0.000155075 -5.54952e-22)
(0.000396121 -0.000260722 1.10752e-21)
(-0.00138544 -0.00775876 -3.8345e-22)
(0.0298131 0.123229 1.88131e-20)
(-0.00165994 -0.00280214 1.27563e-23)
(0.00688425 -0.00403956 7.17079e-23)
(0.000802232 0.000140296 5.03424e-22)
(0.00133187 -0.000304555 0)
(0.0148067 0.00222776 -1.07089e-20)
(0.00751639 0.0641639 8.47973e-20)
(-0.0173586 0.0290638 7.60799e-21)
(0.0106362 0.013095 -7.84688e-22)
(-0.00430472 -0.000949742 0)
(0.135737 0.0694689 9.49389e-20)
(-0.0771519 0.0681031 -1.47064e-21)
(0.000527556 -0.00244874 0)
(-0.000356443 0.0012772 3.58874e-22)
(0.0355965 -0.010504 -1.21624e-21)
(-9.12935e-05 0.00245419 -5.29243e-21)
(0.000279665 1.979e-05 -2.14806e-22)
(0.00129674 0.00666948 -8.14867e-22)
(-0.0260103 -0.00990574 0)
(0.04744 -0.0518704 -9.62342e-21)
(0.000673485 -0.000771428 4.72122e-21)
(0.000692838 4.56095e-05 0)
(-0.0015986 -0.00173831 5.25169e-23)
(-0.00309076 0.00238441 0)
(-0.00479729 0.00265109 1.72477e-24)
(9.91416e-06 -2.83514e-06 0)
(0.0203618 -0.00488442 1.2269e-21)
(0.000440668 0.0117933 -1.22703e-21)
(0.0793805 0.0726676 0)
(0.0329384 -0.110002 0)
(0.00674427 0.0141609 0)
(-0.0128253 0.0252706 2.6995e-21)
(-0.00101099 0.000187577 0)
(0.00817897 0.0104572 -8.68538e-22)
(-4.20061e-05 -2.62648e-05 8.16879e-23)
(-0.00154839 -0.00167091 -6.94148e-22)
(0.0176975 0.048729 -3.44368e-21)
(-0.0189712 -0.102058 0)
(0.0219749 -0.00609144 -9.87953e-21)
(-0.00338019 0.00245092 -3.81663e-22)
(0.00113047 0.0110476 -4.86158e-21)
(0.00698134 0.0121859 1.01418e-20)
(-0.000836386 0.000756901 -1.41718e-22)
(-0.0107389 0.0477774 3.51638e-20)
(-0.0440906 -0.0467943 1.61846e-21)
(0.0119273 0.00941184 2.6184e-21)
(-0.00162078 -0.00343772 1.08252e-21)
(-0.00702796 0.00638849 5.66154e-21)
(-4.76299e-07 -9.0187e-05 2.75402e-22)
(0.0350309 -0.025323 2.03817e-21)
(-2.32257e-05 -8.39086e-06 1.45114e-23)
(0.00818065 0.0962395 -3.25293e-19)
(0.000742324 -0.000703585 -6.22607e-21)
(0.00410406 0.00551055 -7.40351e-21)
(0.00627245 0.0683549 -1.86454e-21)
(-0.0141997 0.24906 -1.67499e-21)
(0.000269046 -0.000132397 -5.42967e-22)
(0.000601738 0.00106673 -6.49184e-22)
(0.0010544 0.0116111 0)
(-0.0229867 0.235101 -2.63174e-21)
(0.0107537 0.056489 0)
(0.00303952 -0.0781683 0)
(0.000641228 0.00964786 -5.95816e-21)
(-0.0451987 -0.0135401 -9.14144e-22)
(0.00607715 0.0205595 2.02306e-21)
(-0.00306805 -0.000671335 -4.07447e-21)
(-0.00218937 0.0228144 0)
(0.00683863 0.0210914 -2.1642e-21)
(-0.00729687 0.00243885 0)
(-2.68566e-05 -6.12696e-06 -2.66275e-23)
(0.000745043 0.00114212 0)
(0.0641766 0.0343705 0)
(-0.000338449 -5.01743e-05 6.01293e-22)
(0.00671729 0.0108462 2.61654e-21)
(-0.00307058 -0.00066637 4.11034e-21)
(-4.43725e-05 -0.000120136 0)
(0.00627452 0.0149094 4.27711e-21)
(0.0078331 0.014364 1.12559e-21)
(0.0138242 0.0638643 -3.7152e-20)
(5.34056e-05 -0.000161836 0)
(-0.000336183 -0.00010572 -6.11536e-22)
(3.58833e-05 -0.00015104 0)
(-0.0154621 0.0173422 -4.13088e-22)
(-0.00447559 -0.00594371 -2.32449e-21)
(0.000496465 -0.000150475 2.70635e-22)
(-0.000100114 -0.00022401 -5.97417e-22)
(-0.0088874 0.0294462 -1.1389e-20)
(0.000402803 -6.61045e-06 0)
(0.00463674 0.008323 2.86778e-22)
(-0.032812 -0.00137456 -2.67594e-20)
(-0.00166456 0.00278981 2.84498e-21)
(0.0101102 -0.0103132 -1.40823e-20)
(-1.45991e-05 -5.84473e-05 0)
(-1.12059e-05 -7.96223e-05 0)
(5.37912e-05 -3.27119e-05 0)
(0.00798242 -0.00317607 1.25843e-20)
(-0.000240965 -0.00243942 3.29099e-21)
(-0.000833522 8.61863e-05 -1.2753e-21)
(-0.0669065 -0.0367803 -1.98654e-21)
(0.000456311 -6.47035e-05 1.43887e-22)
(0.0111854 -0.0047827 1.26697e-23)
(0.00334801 -0.0020337 0)
(0.000232424 -3.50567e-05 0)
(-0.00167404 0.00353439 0)
(0.000756682 0.0128492 7.78914e-23)
(0.000501216 -0.000226141 -3.24741e-22)
(-0.00238016 -0.000291214 0)
(-0.000307187 -0.000228548 2.93869e-22)
(0.000248068 -3.59399e-05 0)
(0.000412605 -0.000241462 0)
(-0.00740099 0.00652121 -3.35214e-20)
(0.00166854 0.00721971 -2.34246e-21)
(0.00114482 -0.000268464 0)
(-0.00272355 0.000546388 2.9426e-22)
(0.000555167 -0.000157986 -4.32551e-22)
(-0.0417415 0.00350543 -8.19314e-21)
(-0.00661106 0.00181148 1.30787e-20)
(0.0191711 0.0132161 8.57365e-21)
(0.00867849 0.00871652 1.06811e-20)
(-0.00204446 0.000626798 -2.26252e-22)
(-0.0034244 -0.000161112 1.77413e-22)
(-0.00116515 0.000108381 -7.86657e-22)
(0.0112676 0.0306051 0)
(-0.0178755 0.0154466 1.14554e-21)
(-0.00209218 -0.00669166 0)
(-0.00222198 0.000279621 1.61802e-21)
(-0.0480283 -0.00223633 -1.63857e-21)
(-0.0392662 0.0289454 -4.70199e-20)
(0.015622 -0.00896906 -1.25701e-20)
(6.00348e-05 -3.18804e-05 0)
(-0.0166043 0.0184771 -2.25652e-21)
(-0.00809426 0.042706 5.36908e-21)
(-0.0323138 -0.00529841 -1.85627e-20)
(-0.00505841 -0.0010545 3.7933e-21)
(0.000457669 0.000684927 -3.97899e-21)
(0.000201008 -5.8112e-05 6.39291e-22)
(0.00764414 -0.0134551 0)
(-0.00464627 -0.00101033 7.10126e-21)
(0.0111949 0.00163605 5.5722e-22)
(0.00656739 0.0216157 0)
(0.00421716 -0.0526122 -1.54179e-21)
(0.00097739 0.00290168 -1.17854e-21)
(-0.0265702 0.223451 1.00252e-20)
(0.0240972 0.0821637 0)
(0.00818971 -0.00227643 -1.50613e-20)
(0.00114169 -0.000906773 3.05138e-21)
(0.00545519 0.0046239 0)
(0.00107383 0.00621886 1.15225e-22)
(0.00412337 0.00696064 -1.25919e-21)
(9.40368e-05 2.24876e-06 -4.58013e-22)
(-0.00294506 -0.000624523 0)
(0.112282 0.069172 8.50741e-20)
(-0.00385126 0.00396375 3.91606e-22)
(-0.0428565 -0.0569969 -1.66774e-21)
(-0.00117491 -0.000548193 1.66234e-21)
(-0.000137767 -0.000191882 2.3672e-22)
(0.00304992 -0.00165861 0)
(0.0463041 0.0800838 6.07102e-22)
(-0.0357648 -0.0223384 0)
(0.000403147 -1.32725e-05 0)
(0.00722323 0.0126981 -5.72497e-21)
(0.000365674 -0.000503631 3.19362e-21)
(-0.00606944 0.0303371 0)
(-6.55511e-06 -5.45261e-05 0)
(8.84966e-05 -0.000156429 0)
(-0.0159022 -0.0034327 0)
(0.0109632 0.0222274 0)
(-0.00686112 -0.000952301 0)
(0.0295427 0.0849131 -7.05955e-22)
(0.0125036 -0.129774 5.78187e-20)
(0.010689 -0.00929698 1.04993e-20)
(-0.00723465 0.00219846 6.73249e-21)
(0.0118018 0.000629366 0)
(-0.0138999 -0.000357445 0)
(0.00832015 0.00863943 -5.66056e-21)
(-0.00260736 -7.4015e-05 9.67814e-22)
(0.00207593 0.00422906 -1.3309e-21)
(-0.00229129 0.00119093 -4.34218e-21)
(-0.0421152 -0.0128197 1.68298e-22)
(-0.016823 0.00131266 2.81362e-21)
(-0.0433952 0.0181742 0)
(0.000976946 -0.000312207 -1.42287e-22)
(0.000306731 -0.000120866 0)
(-0.000120779 0.00489964 0)
(-0.0378031 -0.00724191 1.13067e-22)
(-0.00759951 0.00101888 -2.96068e-21)
(0.00538171 -0.0994228 -5.2635e-22)
(-0.0412723 -0.0935696 0)
(-0.00134842 -0.00173053 1.53798e-21)
(0.0212372 -0.0500056 -2.6511e-21)
(0.00867505 0.0070141 -3.00267e-21)
(0.00300363 -0.00182695 0)
(-0.00691347 0.00545395 0)
(-0.00212111 -0.000173233 7.58614e-22)
(-0.000658558 0.00424207 -7.39386e-21)
(0.000150247 0.00496359 0)
(-0.0170456 -0.00169631 1.3006e-22)
(-0.0488829 -0.0407381 -4.255e-22)
(-0.000595978 0.000706929 5.5662e-22)
(-0.0510694 -0.0434656 4.06143e-21)
(0.00755892 0.00756816 0)
(-0.0143018 0.00213137 9.92178e-22)
(0.0540074 -0.0120532 -8.74206e-21)
(-0.00176152 0.00247616 8.96765e-22)
(-0.00154699 0.0032097 6.29365e-22)
(-0.000242004 0.00107096 3.3467e-22)
(-0.00180181 0.00326625 0)
(-0.0108271 0.0236998 1.72175e-21)
(0.001395 -0.000632162 3.86979e-22)
(-0.0266171 -0.112388 0)
(-0.00782543 -0.0878518 -6.27477e-21)
(0.00601405 -0.0129602 1.9765e-21)
(-0.00219342 3.03171e-05 -9.47666e-23)
(-0.0185999 -0.0040242 1.94556e-21)
(-0.0286028 -0.108547 0)
(0.0107976 -0.0436508 -1.71542e-21)
(-0.114398 0.257156 5.65605e-20)
(-0.00227198 -0.000610895 -3.76651e-21)
(0.000110969 -4.61889e-05 0)
(-7.65084e-06 -0.000109566 2.5332e-23)
(-0.00392482 -0.000745399 -1.77698e-20)
(1.2659e-05 -2.31576e-06 2.41808e-23)
(-0.000264238 0.00613639 1.8e-22)
(-0.0037024 -0.00157349 0)
(0.00153554 -0.00060965 2.78873e-22)
(-0.000868421 0.000801858 1.72601e-22)
(-1.27568e-05 -2.81712e-05 0)
(0.000470832 -7.24484e-05 -1.90116e-22)
(-0.0206028 0.00165197 -1.02172e-21)
(-0.00065535 -0.00049781 0)
(-0.0101286 0.0293661 0)
(0.0708062 0.0632058 -7.36671e-20)
(-0.01063 -0.00142531 2.62422e-21)
(2.89487e-05 -4.34529e-06 0)
(0.0514784 -0.0521238 1.25271e-20)
(0.00886795 0.0063466 0)
(-0.00430974 0.00404357 -5.51791e-22)
(-0.000200939 0.00968362 -6.13629e-21)
(0.00742511 0.00580248 -8.57657e-22)
(0.00032213 -0.000548121 1.0184e-21)
(0.00758969 0.00749331 1.32864e-21)
(0.000482333 -0.000113526 2.86879e-21)
(0.000832568 0.00276405 3.02982e-21)
(0.000800474 -0.00240138 -1.45251e-22)
(0.041286 -0.0176999 0)
(-0.0186377 0.055052 4.96123e-20)
(-0.0521086 0.0102594 0)
(-0.00048955 -8.50494e-05 -1.4212e-22)
(3.75841e-05 -0.000127088 6.07353e-22)
(0.00297979 0.032098 -6.03208e-21)
(0.000346934 -6.88062e-05 -2.35723e-21)
(-0.00133671 0.00643387 0)
(-0.000260854 0.000174613 5.52213e-23)
(0.00122355 0.000884356 0)
(-0.0369492 -0.0949416 0)
(-0.0187259 0.0103516 -2.23507e-21)
(-0.00627603 -0.00294341 0)
(0.00835924 -0.0195345 8.79223e-21)
(-0.00985682 -0.00584897 0)
(-0.00356133 -0.000658771 9.63371e-21)
(0.016431 0.0243871 -9.5871e-21)
(0.022509 0.0457935 -1.6357e-20)
(0.0144356 -0.12174 1.46801e-20)
(-0.0027438 -1.90573e-05 -6.0755e-22)
(0.000228196 2.397e-05 0)
(-0.00301914 -0.0019375 -9.36241e-22)
(-0.128209 0.22339 -4.53571e-20)
(-0.0118858 0.0063795 0)
(-0.0192651 0.00628747 0)
(-3.51691e-05 -9.29217e-05 -5.61502e-22)
(-0.0111008 0.0325735 0)
(-0.00191266 0.00343421 4.44234e-21)
(0.0101781 -0.00524301 -1.09977e-22)
(-2.35353e-05 -3.72295e-06 -2.2922e-23)
(0.0113282 0.0230068 0)
(0.00185236 0.0075858 -6.60562e-21)
(-0.00633707 0.00105308 0)
(0.000438112 -7.59167e-05 0)
(-0.00205077 -0.00272806 -9.89887e-22)
(-0.000186821 0.000182205 -3.64771e-23)
(-5.85534e-05 0.000582049 1.10058e-21)
(-0.000526317 -9.53423e-05 7.9191e-23)
(-0.00191212 -0.00211141 0)
(0.000185074 -0.00039817 -3.7413e-21)
(0.000977705 -0.00253958 8.58048e-22)
(-0.000119991 0.00971302 9.63886e-21)
(-0.00103449 -0.00126385 -3.23685e-22)
(-0.020172 0.0151972 -4.31035e-20)
(-0.0392034 0.00225944 0)
(-0.0375578 -0.176083 1.859e-20)
(0.0206829 -0.00778103 2.30349e-22)
(0.000301229 -5.76753e-05 1.20138e-22)
(-0.000373397 -0.000213121 0)
(-0.04923 -0.0442818 1.24376e-20)
(-0.0346415 -0.000206518 4.10675e-22)
(0.0256702 -0.0650279 -3.43281e-21)
(-0.025083 0.0331821 1.34691e-20)
(0.0194474 -0.0506582 0)
(0.0857984 0.06718 6.39782e-20)
(4.89946e-05 -4.15955e-06 3.03838e-22)
(-0.00115561 0.00369911 0)
(0.000874424 -0.00217171 -3.87389e-21)
(0.00580593 0.00757109 0)
(0.000325818 -6.49951e-05 0)
(0.00183056 0.00373733 -1.38483e-21)
(-4.78791e-06 -2.03627e-06 1.24067e-23)
(-0.0041075 -0.00827388 6.19876e-21)
(0.0217163 -0.00940704 5.8475e-22)
(0.0251848 -0.0139852 8.76657e-22)
(-2.62335e-05 -4.56123e-06 0)
(0.000462472 -0.000226423 1.56574e-23)
(-0.000667291 -0.000650129 1.03401e-21)
(-0.00242706 -2.55349e-05 0)
(-0.00284822 -0.000542342 -5.91888e-21)
(0.00605837 0.00766935 0)
(-0.0536041 -0.0167573 0)
(0.004832 0.00845204 -3.37367e-23)
(0.000750242 0.000122486 3.42499e-22)
(0.00212686 0.00372772 0)
(-0.0210528 0.00578775 0)
(-0.0065803 -0.00264511 2.42368e-23)
(-0.0429835 -0.0137451 5.16503e-21)
(0.00493915 0.030492 -4.31677e-21)
(0.029682 0.0861611 -4.89601e-21)
(0.0134049 0.149102 1.39185e-20)
(0.000825591 0.00251178 -1.44837e-21)
(-0.000267883 -0.000527339 0)
(0.0338526 0.00866737 1.42651e-21)
(-0.0541005 0.00181812 -7.39463e-21)
(-0.000633898 0.000574322 0)
(0.000101122 -0.00271496 0)
(0.00389683 0.0150638 -5.3037e-21)
(0.0156189 -0.00238062 1.76608e-23)
(0.00022538 0.00154279 3.46231e-22)
(-0.0426165 0.00564235 2.51999e-21)
(0.00165414 0.00492702 4.50686e-21)
(-3.12004e-05 -1.58149e-05 8.76281e-23)
(0.013039 0.0219642 -5.64401e-21)
(-0.000656968 0.000563793 0)
(-0.00300505 -0.00264575 2.55207e-23)
(0.0694825 -0.0280324 -5.15305e-21)
(0.0223778 0.0997414 0)
(-0.0110313 -0.0328348 2.56194e-21)
(-0.0013432 0.0157644 8.8269e-21)
(-0.00257812 4.83591e-06 1.16564e-21)
(0.000362731 -0.0039167 2.36399e-21)
(-0.000163412 -0.000766096 0)
(-0.00935375 0.0651272 -4.038e-21)
(-0.00304395 -0.000337194 -5.60463e-21)
(1.99511e-05 -1.60715e-05 1.10231e-22)
(0.016243 -0.140864 2.61925e-20)
(-0.0382099 -0.219842 2.46754e-20)
(-0.000577698 0.00516585 0)
(-0.00158746 -0.0021755 0)
(0.00108706 0.000818813 1.02083e-22)
(0.00240564 0.0044554 0)
(0.00033875 -2.14372e-05 3.87212e-22)
(0.00419202 0.00711983 0)
(0.0281729 0.107673 1.50767e-20)
(0.0460599 -0.0093018 0)
(0.000908147 0.000400091 -1.46541e-23)