/*--------------------------------*- C++ -*----------------------------------*\
| =========                 |                                                 |
| \\      /  F ield         | OpenFOAM: The Open Source CFD Toolbox           |
|  \\    /   O peration     | Version:  v2012                                 |
|   \\  /    A nd           | Website:  www.openfoam.com                      |
|    \\/     M anipulation  |                                                 |
\*---------------------------------------------------------------------------*/
FoamFile
{
    version     2.0;
    format      ascii;
    class       surfaceScalarField;
    location    "100";
    object      ddtCorrDdt0(phi);
}
// * * * * * * * * * * * * * * * * * * * * * * * * * * * * * * * * * * * * * //

dimensions      [0 3 -2 0 0 0 0];
oriented        oriented;


internalField   nonuniform List<scalar> 
19737
(
0.0173692
-0.0134096
-0.00395957
0.00663517
-0.00269492
-0.0039402
-0.000292334
5.76745e-05
0.000234654
-0.000822898
3.66795e-05
0.000786218
0.00096543
-0.000816517
-0.000148911
-0.000957689
0.000742801
0.000214892
0.00361863
-0.000937243
-0.00268137
4.30311e-05
-0.000201043
0.000158023
0.00236495
-0.00248155
0.000116636
-0.00932462
0.0303164
-0.0209917
-0.00252464
-0.0262385
0.0287633
-0.0972683
0.0540608
-0.000350228
-0.00060746
1.18378e-05
-1.91047e-05
7.25228e-06
0.001195
-0.000776757
-0.000418239
0.000468972
-0.000121869
-0.000347106
-0.00835757
0.00518344
0.00317419
0.00321132
0.0583067
-0.0103925
-0.0479141
0.00245608
-0.0188528
0.0163967
-0.00322878
0.000289652
0.00293912
0.000136296
-0.00156011
0.00142382
-0.00321466
0.00229138
0.000923263
0.000705778
-0.000389075
-0.000316712
0.000217125
0.000251853
-0.000996739
0.000438769
0.000557934
0.00104966
-0.00145197
0.000402327
-0.0237619
0.0212374
-0.000177957
0.00122761
-0.00270786
0.000409855
0.00229801
-0.0016058
-0.00575253
0.00735827
-0.00336173
0.00239807
0.000963692
0.00188117
0.000387767
-0.00226893
-0.00167532
0.00145709
0.000218211
-0.00360227
0.0381776
-0.0345754
-0.00367511
-0.00468245
0.00272532
0.000893291
-0.00229616
-0.000918525
0.00059355
-0.000514001
-7.95338e-05
-3.27334e-05
0.000317613
-0.000284867
9.18065e-06
1.71952e-07
-9.35148e-06
-2.00346e-06
-0.000101544
0.000103549
-0.0353947
-0.016069
0.0514638
6.68314e-05
-1.54644e-05
-5.1344e-05
-0.000655991
0.000581477
7.45477e-05
-0.000686353
0.00176051
-0.00107438
0.00108851
0.00010649
-0.000822898
0.00791372
0.00667286
-0.0145866
-7.21415e-05
-0.000101311
0.000173453
-3.31755e-05
3.33673e-05
-1.98995e-07
-8.36424e-05
0.000506808
-0.000423149
0.00122254
-0.000982263
-0.000240265
-0.0559487
0.00913072
0.0468177
0.000191665
-0.000189354
-2.32372e-06
4.00846e-06
0.000160021
-0.000164025
3.84334e-05
2.8413e-05
0.000136971
-0.000703236
0.000566275
0.000641737
-0.000763144
0.00012141
0.000559462
8.22731e-05
0.0906175
-0.00661164
-0.0840058
-0.00177238
0.00078255
0.00098982
0.000587146
-0.000450178
-3.97942e-05
3.13339e-05
8.47413e-06
-0.000170733
0.000247425
-7.67001e-05
0.000123924
0.00175724
0.000179649
-0.000127832
-5.18448e-05
-0.00154337
0.000856952
-0.000387999
-0.000543806
0.000931807
0.0110737
-0.00462947
-0.00644423
-0.0103041
0.0090704
0.00123381
0.000103764
0.000489792
0.0165103
-0.0164532
-5.70203e-05
-0.0026734
-0.000688332
0.00240444
-0.00141887
-0.000985631
0.000467024
-0.00106469
0.000597662
0.00212829
-0.00186386
-0.000264426
-0.000157279
0.00018952
-3.22387e-05
-7.02708e-05
0.00017669
-0.000106438
-0.0143437
0.0230342
-0.00869056
-0.000413227
0.000322032
9.1207e-05
0.00241207
0.000789862
-0.00320193
-0.0005415
0.00100853
-0.000792292
0.000353511
0.000438778
-0.00480038
0.00310765
0.00169277
0.000159861
-0.000116831
-2.05254e-05
0.000153871
-0.000133345
0.00129995
-0.012397
0.0110975
0.0037151
0.0430711
-0.0467861
-0.0142616
0.0167177
0.000246931
-0.000155485
-9.14425e-05
-0.000208414
0.000163795
4.45977e-05
0.00112327
-0.00170949
0.000586242
-0.00417272
0.000149966
0.00402277
-1.16881e-05
-2.14784e-05
-0.000949482
0.000139736
0.000809749
0.000118261
-0.000120272
-0.0226244
0.00828068
-0.0038248
0.00858346
-0.00475847
0.00310481
0.0079689
8.8064e-05
0.00015888
-1.59291e-05
1.6469e-05
-5.3541e-07
0.000265684
-0.000183956
-8.1723e-05
-0.000571926
-0.00360077
-0.0300008
0.00863754
0.0213634
0.00425829
-0.00586408
-3.47561e-05
-0.000257603
-0.0012089
0.000820905
0.000582381
-1.4767e-05
-0.000567603
-0.000344517
-0.000652236
0.000202334
-0.000236551
3.42234e-05
-0.00118858
0.000823636
0.000365027
6.90068e-05
-0.00223558
0.00216658
6.99413e-05
-0.000140233
0.00230336
-0.00223435
0.00466778
0.0536389
0.000720984
0.00103946
-0.0133685
-0.055579
0.0689474
-0.000328692
0.000106091
0.000947085
-0.00105315
3.44331e-05
-0.00088701
0.000852566
-0.0015948
-0.00244605
0.00404088
-0.000639323
0.000198859
0.000440462
-0.00259879
0.0124718
-0.00987298
-0.0538343
0.0600277
-0.00619343
0.0204772
-0.0356672
0.01519
0.00632429
-0.00559697
-0.000727346
0.00402514
0.00229915
-0.000548285
0.0170586
-1.29521e-05
-0.000117099
0.000130044
-0.00821654
0.00439171
0.00442792
-0.00874304
0.00431518
-1.16925e-05
-2.80944e-05
-0.00133365
0.000384165
0.0020483
-0.00201518
-3.3111e-05
-0.00902945
0.00643071
-0.000153744
0.000183008
-2.92647e-05
-0.047386
-0.0064484
-0.0211305
0.00107365
0.0200568
1.37949e-06
-5.23814e-05
0.000108422
-5.60513e-05
0.000179634
2.27109e-05
2.74529e-05
-4.79574e-06
-2.26486e-05
-0.000550871
-0.00192621
0.00247708
-0.000316475
0.000289224
2.72501e-05
-0.000724766
-0.00731874
0.00804348
-0.00786618
-0.00966325
0.0175295
0.00742726
-0.0216889
-0.000247511
-0.000165735
-0.0108483
0.00866318
0.0021851
6.94057e-05
-8.99323e-05
-0.000140591
-8.36292e-05
0.00022422
0.000562329
0.0188252
-0.0193876
0.0181918
0.0724258
-0.000397391
-0.00202556
0.00242304
-0.0231922
0.017521
0.00567119
0.000440194
-0.000470434
3.02344e-05
6.20508e-05
-0.000298946
0.000236887
1.30678e-05
-3.88545e-06
0.0180188
-0.0196654
0.00164662
0.0125195
-0.021844
0.000503502
3.35548e-06
2.41005e-05
-0.000716843
-0.00105554
-0.0136004
-0.0095917
-0.00718407
-0.00874464
0.0159287
0.00131013
-0.00117382
-0.000284881
0.000346926
0.000176829
0.000405559
-0.000372746
0.000507905
-0.000135161
0.000168467
1.11787e-05
-0.0261506
-0.0733111
0.0994616
-0.000185762
4.51688e-05
-7.9446e-05
-5.96466e-06
8.54154e-05
0.000232893
-4.1226e-05
-0.00146006
0.000678744
0.000781313
-6.30275e-06
-0.0015538
0.000160118
-0.000232269
-0.00851341
-0.00233485
0.000126198
-0.00025662
0.000130424
-0.0163583
-0.0669
-0.00149379
0.000607607
0.000886159
-0.000113435
-8.80974e-05
0.000201527
0.0053301
0.0249863
-0.000378534
0.00188838
-0.00150985
-0.000658965
0.000109422
0.000549547
-0.000134014
0.000138018
0.00122714
-0.00697965
-0.00353187
0.000824007
-0.0307117
0.0181499
0.0125618
-0.0181116
-0.0126002
-0.00440015
-0.0144526
-5.19362e-05
-0.000264528
-0.0490019
-0.0482663
-0.000117685
0.000272498
-0.000154814
-0.00129217
-0.000167882
0.000165107
3.36596e-06
0.00578904
-0.0136552
-0.00751053
0.00193165
0.00557895
7.65071e-06
-0.000109192
-0.000535767
0.000687111
-0.000151342
0.000587833
0.0006347
-0.0399329
0.0815338
-0.041601
-9.08701e-05
0.0021392
0.000231578
-0.000244559
0.00233118
-0.00273852
0.000407375
-0.000286661
7.9368e-05
0.000207295
0.000895239
0.00150915
0.0360663
-0.0179164
0.000221973
1.0916e-05
0.0209135
0.0151527
-0.00425819
-0.00695008
0.0112082
0.00023033
0.000348778
-0.000579089
5.41979e-05
-0.000106572
-0.000678069
0.000750992
-7.29086e-05
-0.000307336
0.00397959
-0.00367228
0.00049059
-5.03944e-05
0.0112331
-0.00993364
-0.00221048
0.020229
-0.00287644
0.00145756
-0.0217089
-0.002053
-0.000231282
0.000135958
9.53165e-05
-0.0203956
0.00679518
-0.00197724
0.00250789
-0.000530656
0.00352413
-0.00511895
-0.000737123
0.000452236
0.000284872
-0.00799582
0.00240105
0.00559481
-0.0106431
-0.0193577
-0.000179326
2.20494e-05
0.000182224
0.00214897
-0.000169709
2.96918e-05
0.000140056
0.00141045
-0.00420617
0.0027957
0.000217799
-0.000775252
0.020194
-0.00784304
-0.012351
-0.000257417
-0.000198359
0.000455789
0.00337039
-0.00312264
-0.000247764
-0.029226
0.0226912
-0.00188506
0.00148767
0.00507239
-0.00366193
-0.000509809
-0.000282481
0.0100079
0.0101861
-0.00307884
0.000773855
0.000644764
-0.00141862
-0.057325
0.00251631
-0.00034671
-0.00216953
0.00704886
-0.0113071
0.00786762
-0.0137106
0.00584307
0.000426262
-0.0024035
0.00175441
-0.00213295
0.000186252
-0.000864307
0.00146314
0.000464508
-0.00192761
-1.62171e-05
3.69843e-06
1.25213e-05
0.00151235
-0.000729807
0.00451337
0.00412743
-0.00864072
0.00355332
-0.00386067
0.0169866
-0.0164243
-0.000135848
-9.54371e-05
-0.0178985
0.038528
-0.0206296
-1.93079e-05
-0.0019872
0.00239706
0.0108986
-0.00303101
0.00025179
-0.000509198
-0.000786598
0.00108824
-0.000301612
-0.00926211
-0.0111334
0.00547794
-0.00104999
-0.0535957
0.00459376
2.83126e-05
3.02437e-06
-0.00854523
-0.0131636
-0.000746758
-9.33123e-06
0.000756085
0.00517345
0.00751674
-0.0126903
-0.000657793
0.000692227
1.49048e-05
-3.0713e-06
-0.00360957
-0.000136106
2.39171e-06
0.000133781
3.63023e-05
-0.000207034
0.00166328
0.000381584
-0.00204487
-0.0199971
0.0320287
-0.0120316
0.00043489
0.000530544
0.0110849
-0.00658144
-0.00450339
1.17424e-05
-0.00130392
-3.59386e-06
3.31725e-06
2.77103e-07
0.0417542
-0.038039
0.00587894
-0.00232562
-0.00638432
0.00761147
-0.0154362
0.00901899
0.00641712
8.78505e-05
-0.000874437
0.00952617
0.00571655
-0.0117548
0.00603841
-0.0251721
0.0196872
0.00548487
0.0010927
-0.001887
0.000794305
-0.000334833
0.000149403
0.000185427
-0.00212957
0.00108334
0.00104625
-0.000905952
0.000401612
-8.45388e-05
-0.000317071
-0.030783
-0.0139717
0.0447546
-0.00019039
0.000113612
7.68107e-05
0.00356399
-0.00299289
-0.000571141
0.00496869
0.00611623
-0.000381955
-0.000355175
0.00185091
-0.0035053
0.00428353
-0.000778228
0.000757387
-0.00031865
0.00435273
-0.00813574
0.00378295
-0.00211739
0.00647013
0.00961055
-0.0126675
0.00305692
-0.00228634
0.000416396
0.00186995
-0.000144111
6.46717e-05
0.0181924
-0.0128945
-0.00529785
-0.000647993
-1.09719e-05
-0.0746494
0.0612808
0.000214766
0.000193094
-0.000407858
-0.000616782
-0.052845
0.0129121
0.0543338
-0.0579361
-2.01526e-06
0.000223993
-0.000108008
0.000123819
-1.58135e-05
0.000392702
8.90787e-06
-1.24274e-06
-2.34978e-06
-0.00149021
-1.2516e-05
-3.69969e-06
0.000229544
0.00218253
6.10909e-05
-0.000178185
-0.00211068
0.000974894
0.00113579
-0.000408699
0.000378289
3.03938e-05
-0.00278645
0.00167276
5.67762e-05
-5.92481e-05
2.46619e-06
-0.000552222
0.00926981
-0.0164539
-0.00113596
-0.000382657
0.00151863
5.96121e-05
-1.71474e-05
-4.24675e-05
0.00448179
-2.94904e-05
0.00060882
-0.000579319
-0.00183203
0.00129596
0.000536069
0.0179269
-0.0126618
-0.00526506
5.37626e-05
0.000639781
-0.000693584
6.20209e-05
0.000371668
-0.000433689
-0.00286891
-0.00512689
-0.0106043
0.0180316
-7.84999e-05
0.000583329
-0.000504839
6.53128e-06
5.02377e-05
1.23323e-05
-1.48969e-05
2.56416e-06
-0.00028966
-0.00138567
-0.0114179
0.0195824
-0.0081645
-0.00454834
-0.0206238
-0.00647088
-0.0037219
0.010193
-0.00719565
-4.24998e-06
4.24737e-06
0.00180015
-0.00331639
0.00151631
-0.000401857
0.000632199
-0.00233464
-0.00262038
0.00495504
-0.019236
-0.012888
0.0321239
0.000290496
-0.000197123
-9.33883e-05
-0.00607155
0.0139853
0.000728552
0.000600404
-0.00132893
0.000373905
0.00086184
-0.00123576
-0.00552449
0.0137295
-0.00820501
0.00581604
-0.00953782
-0.00219728
0.00671069
-0.0520833
0.0166886
0.00034977
0.00019552
-0.00056827
0.0122223
0.000902104
0.000560545
-0.00146264
0.00105574
0.000147423
-0.00120315
7.92219e-06
4.41413e-06
-0.00108122
0.00185507
-0.000936954
0.000233734
-0.000207055
-9.5708e-05
-0.000642199
0.000106432
0.00036476
-0.000149995
0.00937434
0.00152422
3.01621e-05
3.20707e-06
-0.000752709
-0.000184245
0.00978435
-0.00748967
-0.00229462
-0.0018545
0.00113767
0.000625466
0.00105096
-0.00167641
0.000526347
-0.00020431
-0.00420941
-0.0157877
0.000478934
-0.000209105
-0.000269822
0.000615839
-0.000645306
0.0337592
-0.0161719
-0.0175873
0.000458976
-0.000896739
0.000437763
0.000329639
0.00132925
-0.000427149
-0.000407802
-0.000780691
0.000948081
-0.000393786
-0.000554283
5.96252e-05
0.000120003
0.0288475
-0.0235173
-0.0010124
0.00281254
-0.0184762
0.0147348
0.00374135
0.0199805
-0.0169901
-0.00299037
-0.000382581
0.000436334
-0.0536946
-0.00188449
0.0002859
0.00327808
-0.0300415
-0.000922502
0.0309639
0.000176002
0.000114474
0.00269448
-0.0141125
7.59409e-05
2.39518e-05
-9.98753e-05
0.0264747
-0.0286853
-5.2987e-05
0.000179185
0.00820467
-0.00509984
0.000143719
0.000912021
0.00143937
-0.00402256
0.00258319
0.0418776
-0.00370002
3.4146e-05
0.00045086
-0.000485007
-0.000238103
-0.000401225
-0.00733866
-0.000877812
-0.0263246
0.0156816
-0.00326692
0.00579158
-0.00252465
0.00660189
0.00277244
-0.00470793
0.0146948
-0.00998693
0.000282634
-0.000106627
-6.47551e-05
0.000173675
-0.000108947
0.00191607
0.000600301
0.000236184
0.000242762
-0.000186407
0.000121648
-0.000354269
-0.000462757
0.000817033
0.00320291
0.0115326
-0.00099837
0.000245692
-0.000554252
0.000475755
0.000313632
-0.000328603
1.50277e-05
0.00191633
0.000387024
-0.000363392
0.000328637
0.00667376
-0.0172781
0.000124033
-0.000241716
0.00159788
0.0152605
0.0184987
-0.00776005
-0.00767616
-5.43371e-05
0.000490451
-0.000436117
0.0152576
0.0047228
-0.000523117
0.00446166
-0.0039386
7.5589e-05
-0.000507084
0.000431505
0.00148936
-0.00105766
-0.000431697
-0.000629692
-0.0012248
-6.25076e-05
-0.000145903
-0.000909359
-0.000977636
0.000177657
-0.000210367
-0.000144746
-6.06804e-05
0.000205468
-0.00138019
-0.000860579
0.00224074
-6.83251e-05
-0.000119178
0.000187485
-0.000889786
-0.00010858
-0.00235378
0.0003239
0.00202992
-0.000317018
0.000109956
0.0622638
-0.0884144
-0.00025827
-0.000723982
-0.000196886
8.3438e-05
0.000155146
-0.00202716
0.00187202
-0.000839959
-0.0125697
-0.0059762
0.000347534
0.00562888
-0.0129281
0.00822013
-0.00400361
0.00471975
-0.000716106
0.00044687
0.000258903
-0.00182864
0.000434076
0.00139457
-0.000267214
0.000576645
-0.000309442
0.00368236
0.0110123
-0.00293975
0.000643597
0.00222396
0.00598067
-0.0042539
0.0307286
0.000764731
0.00260562
-0.000126708
0.000118483
8.20587e-06
0.0221538
-0.00963434
-0.000603845
0.000709944
-0.000192058
0.000208363
-1.63113e-05
0.000319346
-0.000257324
0.000394688
-8.1006e-05
-4.7252e-05
0.000156445
-0.000109238
6.35384e-05
-0.000810325
0.000580428
-0.00166441
0.0010839
-4.41715e-05
4.83541e-05
-4.18855e-06
-0.0018436
-0.00109617
0.000118936
0.000127881
-0.000246797
-0.0144292
0.000768478
0.000751271
-0.00151975
-0.013109
0.00502172
0.00808734
0.000179332
-0.000234816
5.54932e-05
-0.0297372
0.0155578
0.0141793
-2.38659e-05
8.97377e-06
0.00426898
-0.00291385
-0.00135509
1.25872e-08
-4.26182e-06
-0.00252883
0.00679783
0.000619169
-0.000543576
0.000413492
0.00543024
-0.00584376
-0.000279481
-4.90931e-05
-0.00792343
0.0145963
-0.0745525
0.00490172
0.0696508
-5.72188e-05
-0.000134724
-1.90139e-05
0.000293831
-0.000218068
-7.57481e-05
-0.00086169
-0.00142465
-0.0160439
-0.0585086
0.000722683
0.0014056
0.00463039
-0.00319102
-0.000308127
2.86751e-05
-3.39547e-05
0.0168823
-0.00775171
0.00762313
0.00174702
-0.00936997
-1.85678e-05
-0.00595764
0.00222042
0.000571068
-0.00279149
1.40733e-05
-0.000206136
0.0382648
-0.00760687
-0.0459888
0.000431447
0.000516641
-0.000660352
0.000353971
0.000306408
-0.00810795
0.0124763
-0.00436834
-0.000168735
0.000100419
0.000166349
-9.5449e-06
-0.000156805
0.000309048
0.000346297
-0.000655342
-0.000133044
-0.0129759
-0.00342041
0.0238977
0.000407728
-0.000415315
7.58951e-06
0.000458413
-0.000204396
-0.000254008
0.00040821
-0.000797286
-0.000412939
-0.000409464
0.000822449
-0.00132172
0.0010567
0.000264962
-6.17507e-06
5.19101e-06
9.90516e-07
-0.0118791
0.00564396
0.0062352
-0.000523417
0.0012919
-0.0396509
0.0189402
0.0207105
0.0143759
-0.033612
0.00190956
-0.00846833
0.000592166
-0.000558021
-0.000328216
0.00141156
-9.13416e-07
-2.29582e-05
0.000734424
0.000754933
-0.0289987
-0.00219682
-0.048231
0.0125637
0.00522912
-0.00481565
-0.00108355
0.000670705
0.000622826
-0.0013195
0.000696639
-1.33974e-05
-0.000593122
0.00060651
-0.000604249
-4.37419e-05
0.0118912
0.00603574
-0.0360554
0.0300805
0.00597487
0.000991125
-0.000617229
-0.000368886
-0.00149497
0.00147565
-1.73346e-05
-3.42523e-05
5.1609e-05
0.0160881
-0.0196531
0.00356503
-1.22315e-05
0.0363093
-0.0276717
0.000261547
0.000146178
-0.000430728
2.2035e-05
0.0110573
-0.00343407
-0.0597974
0.000120497
-0.00011918
-0.000444532
0.00056369
0.00151496
-0.000892141
0.0464892
-0.106287
-0.00288505
-0.00741895
-0.0267029
0.0359398
-0.00923683
0.000691554
-0.00103607
-0.0298664
0.000129256
0.00120287
-0.00258306
-0.00013784
-5.25403e-05
0.00294655
-0.0037985
0.000851866
-0.000905082
0.00210795
-0.00150197
0.00303132
-0.00152932
1.09251e-06
1.53782e-05
-0.000610836
0.000491657
0.00579092
-0.023378
0.0175869
-0.000148027
0.000108616
3.93394e-05
-0.00197779
0.00164956
4.36416e-06
-0.000163354
0.000159019
-5.63838e-05
1.22023e-05
-0.00244125
0.000291545
0.00214973
-0.00254049
9.92521e-05
0.0108175
-4.37494e-05
8.87598e-05
-4.50235e-05
5.53731e-06
-0.00015366
3.67624e-05
-8.05091e-05
-0.00445393
0.00458702
-0.000133068
0.00105184
-0.00196119
8.30652e-05
-0.000280196
-1.16094e-05
8.75645e-05
0.00293266
0.00232429
-0.00525696
0.000134174
0.000131504
0.000630438
-0.01712
0.00785797
-0.00162401
0.000813997
0.000810043
0.00492624
-0.00239143
-0.00253485
1.92215e-06
2.63949e-05
1.54063e-05
-3.27209e-05
-1.65092e-06
-2.29523e-05
2.46016e-05
0.00312556
-0.00196248
-0.00116303
0.000325717
-0.000679993
-1.95744e-05
0.00562441
0.0302309
-0.0358552
-0.000134433
0.000264456
-0.000130019
0.000106616
-0.00694797
0.00684135
0.000648411
0.00185948
0.00015464
-8.33052e-05
-7.13435e-05
-4.07517e-05
-0.00024115
0.00028191
0.00137674
-0.000123318
-0.000211515
-9.99107e-06
-0.000124018
-0.000148179
5.48962e-05
9.329e-05
0.000107706
4.69346e-05
0.000100452
0.000193386
-0.00315179
0.00335433
-0.000202518
-0.00328737
-0.000217933
-0.000487731
0.000201421
0.000286331
0.000212837
-0.000697803
0.00048496
-0.000354922
0.000222579
0.000132337
0.000898276
0.00765111
-0.00854936
-0.00271444
0.00121248
0.00153994
-0.00222323
-0.000945599
0.000758218
0.000187387
0.00024069
-0.000730831
-8.56867e-05
0.000697913
-0.000684483
-1.34322e-05
-0.00386437
-0.000139208
-0.00333963
-0.00111428
-0.00141224
-0.0012433
0.000699495
-0.0248427
0.0108527
0.01399
-0.0143279
0.0182344
-0.00390648
0.00649105
-0.00314176
-0.00334932
2.26449e-05
-2.43003e-05
-0.0152471
0.0144071
-0.0201991
-0.0105142
-0.0120983
0.000216373
-0.000213149
-3.22566e-06
9.52025e-05
-0.000342686
-8.91689e-05
-3.75374e-05
6.14055e-05
0.00428645
-0.00434789
9.76876e-06
0.000206602
-0.00508751
0.000134611
0.00495291
0.00174794
-0.00265301
0.0337691
-0.000144923
0.000186165
-4.12048e-05
-0.0488652
0.00302243
0.0458428
0.0019591
0.00116647
9.51596e-05
0.000486324
-0.000370789
0.000485881
-0.00423833
0.000971403
-4.30211e-05
8.92088e-06
3.40928e-05
0.000139275
-2.56239e-05
0.0110946
-0.000177171
-0.000786612
0.000963841
-0.0358802
-0.000175185
-8.08516e-06
-0.000297272
0.000305359
-8.80002e-05
2.00164e-05
6.80015e-05
-0.00234937
0.000929332
0.00142004
0.0121902
-0.0422318
0.00518679
0.0047556
-0.00994244
-0.000226631
4.26859e-05
-0.00108497
0.00107159
-0.000251825
0.000237643
1.41894e-05
-0.00213975
0.00507241
-2.77797e-05
2.32731e-05
4.51978e-06
-6.22957e-05
-3.0735e-05
9.30121e-05
0.00293633
0.000659042
-0.00359537
0.00195091
-0.00285958
0.000908698
0.000210239
0.00124668
-0.00145693
-0.00635227
-0.0425129
0.0114357
0.0193818
0.00246455
0.00246163
0.000107116
-0.00177161
-1.51068e-05
0.00242022
0.000516096
-0.000796014
-0.00014958
0.00088137
0.000604749
-0.00148612
0.000250589
6.70293e-05
-0.000209805
6.5045e-05
-0.0103233
0.00821416
0.00210916
0.00453173
-0.0100483
0.00551658
-0.0205711
0.00624318
-0.00060275
0.000252523
-3.86066e-05
0.00020239
0.000388726
9.30249e-05
-0.000481738
-0.00804407
0.000533565
-0.00143634
0.0200266
0.0359276
-0.0559543
0.00231484
-0.0249665
0.0226517
0.000761721
-0.026609
0.00961887
0.00284521
-0.00449267
0.00164744
-0.00170096
-0.00332209
0.000170311
-0.0010912
0.00112788
0.000234696
0.000159031
-0.000393729
0.000373959
-0.000337434
-0.0031777
0.00351484
-0.0192395
0.00634492
-0.000428697
0.000374364
0.0126511
0.00374563
0.00513464
-0.0022894
-0.00311458
0.00153455
0.00157999
-0.00367145
-0.00952791
0.0131993
-0.000574153
-0.00104987
-0.00181515
-5.88929e-05
0.00187404
-0.000302586
-0.000357778
0.000271592
-0.00208675
0.00306024
-0.00358337
9.23257e-05
0.000523529
-0.00233922
-0.0196046
0.0219439
0.00148291
0.0282729
-0.0297559
0.00357818
-0.00351678
0.000547777
3.55535e-05
-0.000637902
0.0104767
-0.00983885
0.0213406
-0.0236798
0.0170925
0.0166765
-0.106939
0.0608905
0.0460482
5.73025e-05
1.68725e-05
4.27342e-05
-4.97116e-05
0.000165855
-0.000198864
3.30081e-05
-2.6525e-06
7.92715e-06
-5.27145e-06
-3.61432e-05
0.000859802
-0.00114276
0.000484956
0.000608278
-0.00051593
-0.000657178
5.29282e-05
2.32394e-06
1.2069e-05
-1.43958e-05
0.000148206
0.00700568
-0.0125302
0.000175565
-0.000277412
0.000101853
0.00346342
0.0112714
-0.0187374
-0.00177382
-7.8996e-06
-1.12069e-05
0.0370914
-0.0405118
-0.000461125
0.000853387
-0.0010306
-0.00134769
0.000819164
0.000528515
0.00625588
-0.00220656
-0.00404932
-4.65513e-05
-0.000205274
0.00258079
0.000117362
9.15779e-05
-0.000208945
-0.000165268
2.03561e-05
0.000850155
-0.000418702
0.00661878
-0.0102903
-0.0144333
-0.01163
0.00807383
0.00355608
-0.000132764
-1.79266e-05
7.51917e-05
0.0033283
-0.00566294
-8.97978e-05
0.000151531
-6.17217e-05
0.000485288
0.000292294
-0.000777573
-0.000127823
-8.26252e-06
-6.13259e-05
0.000617578
-0.000556243
0.0243338
-0.0220189
-0.00237468
0.0119852
0.00227555
0.00135187
-0.00362743
-0.0062657
0.00470308
0.00156264
-0.00335653
0.000875003
-1.71751e-05
0.000183032
-0.00346647
0.00264177
0.000824608
0.000156957
-0.00654126
0.0186038
-0.0365024
-0.00104662
-0.000785413
1.29389e-05
-0.000120943
-0.00118433
0.000297318
-0.0407103
-0.0662286
0.00159809
-0.00254976
0.000951719
-0.00580607
-0.0068614
1.21493e-05
3.11778e-05
-4.33232e-05
-0.0135883
0.00716995
0.00641839
0.00024072
-0.000281472
0.00561694
-0.00551033
-1.39825e-05
6.83979e-07
1.33001e-05
0.00248091
-0.000529995
0.000188945
-0.000712462
0.000523514
0.000293138
0.00116392
-7.63949e-05
0.000193742
-0.001388
-6.95913e-05
7.20125e-05
-0.000189969
0.000291865
-0.000101911
3.23536e-05
-0.000731919
0.00170681
0.000184844
-9.67857e-05
-0.000450897
0.00117943
-0.000592183
-0.00075551
-0.000665586
0.00102578
-0.000360198
-0.00831107
0.00968571
-0.00137456
0.00860593
-0.000113887
-0.00849198
0.0565013
-0.0668938
-0.0086956
-0.00318348
0.000124396
7.3887e-05
-0.000198318
0.000157281
-0.000204599
-0.00658835
0.00605909
-0.00880515
0.0288317
0.00279448
-0.0154563
-0.0104976
-0.0130441
0.0235418
-0.0345228
0.0205511
-4.16583e-06
1.97799e-05
-1.56048e-05
0.000129758
0.000195701
-0.000325445
0.000513815
0.000336345
0.000614981
-0.000554083
-6.08714e-05
-0.00019389
0.000105772
-3.60603e-05
-3.7297e-06
1.97105e-06
1.75864e-06
-0.00375437
0.000438075
0.00482089
-0.0144841
-0.00236326
0.0150559
-0.0126925
-1.28908e-05
-0.000307953
0.000184645
0.000185159
-0.0003157
0.000130552
0.00116803
-0.000286657
0.00014839
-0.000144014
0.000115138
0.000499836
-0.00153266
-0.0100201
0.0115515
0.00346717
-0.00421114
0.00074401
0.000373875
3.69859e-05
0.000194583
0.00358381
-0.00130825
0.0170893
-0.0212987
-0.00421378
0.0015934
0.0397178
0.000868769
-0.0405866
-0.0678114
1.6467e-05
-0.000181446
-1.95987e-05
-0.0146923
0.0204814
-0.00376622
-0.00786387
-0.000569537
0.000343265
0.000226275
-0.000856543
0.000266851
-0.00170704
0.00144019
-0.00998923
0.00487926
0.00510997
-0.000111772
-0.000643762
0.000755539
0.00682109
-0.00868518
0.00186397
-3.42707e-05
-0.000329146
-1.41483e-05
-2.87773e-06
-0.00230668
-0.000815968
-0.000232927
-0.000336609
0.000674444
0.00050136
-0.00117581
0.0167326
0.0203589
0.0413647
0.0186631
0.0127303
-0.0187881
0.00605784
-0.0069287
0.00405986
-0.000197564
0.00149353
-0.000954231
-0.000244234
0.00119845
0.000108323
0.0001809
0.0118296
0.000156364
-0.000156533
1.65651e-07
1.17632e-05
-1.11884e-06
-1.0638e-05
0.0366045
0.0812734
-0.087885
-0.000964672
0.000556955
-0.00178958
0.000557849
-0.000281595
0.000360966
-4.98017e-05
-0.000957976
0.00249077
-0.00153278
-0.0630669
0.0567146
-0.0125976
-0.0125329
0.0251305
4.64536e-06
0.000425678
-0.000430323
0.00640867
0.00267823
-0.00481801
-0.00124393
0.00180446
-0.0814314
0.0145314
-0.00141441
0.016672
0.00267882
-0.00881248
0.00613365
-0.00247293
0.00289919
-0.00029258
0.000387759
-0.00369483
-5.95951e-05
-0.000133827
-1.98593e-05
0.000153713
0.000535247
0.000612974
-0.008924
-0.00861959
0.0517722
-0.0509238
-0.00084849
0.000312525
0.000795035
-0.00110756
0.00020736
1.8683e-05
-6.00814e-06
-1.26752e-05
0.0016079
-0.000746053
3.12003e-05
-0.000214982
0.000183787
-0.00159542
0.000459461
-0.00404175
-0.000580188
0.000439198
0.000141002
5.62181e-05
0.0160318
-6.40467e-05
0.00273985
-0.00194286
-0.000796961
-0.0470683
0.00183996
0.0452281
-0.00934855
-0.00589853
0.00056641
3.26896e-05
-0.000599108
-0.000320059
-0.00294894
-0.0287319
-0.000771367
-0.000371405
0.00126166
-0.00221963
0.00731729
-0.00463847
0.000624618
-0.00102016
0.000395526
-0.0002075
-0.00629482
0.0151267
-0.0088334
0.00010712
-0.000585954
0.000478843
-5.22741e-06
5.40221e-06
-4.83443e-05
-1.30418e-05
6.13988e-05
-0.000543377
-1.08806e-05
-3.15194e-06
0.000206612
-0.000203464
1.43668e-05
-1.20408e-05
-0.0212695
0.0445258
-0.0232565
0.00290032
-0.00542911
0.0659661
-0.0141939
-0.00635169
-0.000748727
0.00710042
2.64465e-05
0.000676435
-0.000702883
0.0012975
-0.00192718
-0.00107277
-0.00018296
0.00125573
-0.00152367
0.00147578
-0.00146404
-0.000134934
0.000100694
3.42175e-05
-2.77483e-05
0.00937236
-0.00346914
-0.00590334
-5.92514e-05
-0.00103845
0.000156543
0.000881901
-0.0581651
0.000671543
0.00019828
-0.000201437
0.0296131
0.00891499
-0.000166442
-0.000160288
5.58603e-06
0.000154687
0.00153233
-0.00132209
-0.00239373
0.000116568
-0.000177218
-7.15999e-06
2.24324e-05
-1.52761e-05
0.00771933
-0.00118091
0.000606753
-9.22515e-05
-0.00157156
2.86355e-06
8.8968e-06
0.000626053
-0.00684229
0.00621623
0.000926544
-0.000386948
-0.00053958
8.67025e-06
2.39948e-05
-3.26624e-05
-7.76482e-05
-5.72763e-05
-0.000964609
6.48006e-05
0.000899821
-0.00786194
0.0107623
-0.00907245
0.000387053
-0.000115511
-1.60855e-05
0.000131598
-0.0141372
0.0263273
0.00262265
-0.00205158
-0.00340735
0.0110835
-0.00767623
-0.000869439
0.00119591
-0.000326465
0.00785957
-0.00849748
-1.76064e-05
-2.54119e-05
-1.03125e-05
-0.000282255
-0.000305658
-0.0245371
-0.00999469
0.00188676
-0.000821687
0.000885232
-0.00270172
0.0279419
0.000467481
-0.000360334
-0.000137329
-0.000215057
0.000352365
0.00120512
0.00153468
-0.000151097
-0.000165924
6.6997e-05
0.000492471
0.000114102
7.07614e-05
-0.00351621
0.0308165
-0.0273004
0.018409
-0.00567872
0.000244457
-0.00120905
-0.0259762
0.000220105
0.000477809
-0.000315506
0.000307416
-1.97379e-05
2.3091e-05
-0.000368123
-0.00059646
-0.00194701
-0.00534355
0.00729055
-0.0210675
-0.000350023
0.000212688
-0.0072358
0.0246509
-0.017415
-0.00195643
0.00542364
-7.69813e-05
-7.11957e-05
-0.0218739
-0.00735209
0.00145842
-0.00142697
-3.14454e-05
-0.0281281
-0.00811863
0.00291389
0.00520479
-0.000251546
0.00040058
-0.00135482
-0.000875036
-0.000305881
0.000671815
2.64631e-05
-0.00122576
1.68718e-05
-0.0161965
0.0543693
-0.0381729
1.98275e-05
-3.15154e-05
0.00321345
-0.000403163
-0.00281028
0.000416736
-0.00181555
-0.00107052
0.00288608
-0.0381812
0.0105392
0.0276421
0.00569849
-6.93595e-05
-0.000162593
0.000231957
-0.00048885
0.00122327
0.00323252
0.00325851
-0.0267582
0.0232419
-0.000166192
3.87698e-06
3.69463e-07
-0.0083035
0.036128
-0.0278245
0.00949187
0.00408083
-0.0135725
0.000600563
-0.000384313
-0.000122008
0.000191338
1.70211e-05
-0.00116244
0.00150982
-0.000347386
-4.05813e-05
4.92551e-05
0.00105426
-0.00123659
0.00018231
-0.00868329
-0.0669809
0.0586774
-7.05767e-05
8.79709e-05
-1.73957e-05
-0.00630688
0.00691992
0.000290155
-2.47883e-05
-0.000265368
0.000569543
-0.0022219
0.00165239
-9.99157e-05
-8.94394e-05
0.0002161
-0.000184902
3.0408e-06
1.13284e-05
-0.00684038
0.000533509
0.00358345
-0.000941725
-0.00018266
0.000113296
-0.00020552
0.00050394
-0.000408774
0.000717464
-0.00253302
0.00818876
0.0114467
-0.0196354
0.00015779
-0.00132023
2.85647e-05
-0.000166415
-0.000461849
0.00373634
-0.00323024
-0.000506076
-0.0098191
-0.0030373
0.0128566
-0.00141944
0.00198903
0.00290608
-0.00207244
-0.00083369
0.000134132
0.000369812
-0.00384695
0.00419457
0.0218365
-0.0136477
-0.0801423
0.0640984
-1.52205e-06
-4.65057e-06
-0.000304531
0.000521651
-0.00504293
0.0035162
0.00152677
0.00576233
-0.00916976
0.000805488
-0.000258921
-0.000546568
0.00165268
-0.00251022
0.000857536
-0.00173885
0.00135621
0.00123214
0.000226268
2.88893e-05
1.29419e-05
-4.18231e-05
0.00010414
6.22039e-05
-0.0136353
0.00136147
0.0122738
0.00876898
-0.0107159
0.000936616
-0.00146004
-0.000206143
-0.0021476
-0.0354837
0.0213464
-0.000403465
8.01519e-05
-9.17541e-05
-0.000882747
6.10522e-05
-0.000740797
0.000312602
0.0004282
-2.58566e-05
2.60029e-05
7.17865e-05
-5.17669e-05
0.0172555
-0.0105817
-0.0410644
-0.0110189
-1.83685e-05
1.13877e-05
6.98473e-06
-0.00032124
-0.00132285
0.00164408
0.000901753
0.00786726
-0.00608559
0.00606704
-0.000780343
0.000776049
4.2829e-06
-0.0403281
0.0449959
3.6271e-05
-5.34242e-05
4.5345e-06
0.000340613
0.000805421
-0.00114602
-0.000211492
-0.000836305
0.0010478
6.51607e-05
-0.000192904
-0.00038553
0.000578433
0.0017202
-0.00172652
-0.000611977
0.00226467
-0.0271079
0.0145103
-0.00563851
-0.00422206
0.0035751
0.000646972
0.0258657
0.00589436
-0.0317601
-3.11678e-05
0.000155551
0.000327722
0.000269404
-0.00015046
-0.00525472
0.00211296
0.000101411
5.90968e-05
-0.000160499
0.00100408
-0.000437427
0.00544308
0.00237405
-0.00781711
-0.0118584
0.0377241
-0.0301135
-0.013335
0.0434486
0.0210289
-0.000489943
0.000187362
-0.00170081
-3.52373e-05
0.00173606
-0.00554924
0.00497257
0.000576663
0.0331932
-0.0282627