/*--------------------------------*- C++ -*----------------------------------*\
| =========                 |                                                 |
| \\      /  F ield         | OpenFOAM: The Open Source CFD Toolbox           |
|  \\    /   O peration     | Version:  v2012                                 |
|   \\  /    A nd           | Website:  www.openfoam.com                      |
|    \\/     M anipulation  |                                                 |
\*---------------------------------------------------------------------------*/
FoamFile
{
    version     2.0;
    format      ascii;
    class       volScalarField;
    location    "100";
    object      epsilon_0;
}
// * * * * * * * * * * * * * * * * * * * * * * * * * * * * * * * * * * * * * //

dimensions      [0 2 -3 0 0 0 0];


internalField   nonuniform List<scalar> 
13308
(
3.0677e-05
0.00658701
0.00438456
1.2356e-06
2.09628e-06
6.66812e-07
2.95818e-06
1.66129e-06
2.99095e-06
0.00717298
0.00126292
0.00058631
6.98302e-07
1.27059e-06
7.75666e-07
0.00440939
6.30046e-07
0.00691881
0.0020111
0.0105521
1.21869e-06
0.00527851
0.0116143
1.8516e-06
0.00442815
0.00753018
2.151e-06
0.000902049
2.19161e-06
2.39924e-06
0.00680663
2.21426e-06
0.010682
2.71903e-06
0.00212637
6.52998e-07
2.96494e-06
0.0123465
1.59543e-06
0.00434275
1.48253e-06
1.71557e-06
0.00853598
1.14992e-06
1.57745e-06
0.00105881
8.64832e-07
1.38741e-06
9.8848e-05
0.00427978
1.41968e-06
1.26908e-06
0.00426763
0.00034222
0.00690115
0.00445281
1.14795e-06
1.25371e-06
1.7298e-06
1.71235e-06
0.0019679
0.0135987
1.25786e-06
1.56475e-06
1.08133e-06
0.0102069
1.01637e-06
0.00247937
6.4446e-07
3.7724e-06
0.00804083
1.58422e-06
6.92616e-06
2.27942e-06
0.01172
1.12509e-06
4.81722e-07
0.00456342
1.2221e-06
0.000177823
1.39348e-06
4.99187e-07
1.11386e-06
1.79668e-06
0.00299834
1.67209e-06
0.00901632
0.00969359
0.000581507
0.00873353
1.55162e-06
1.0097e-06
2.17259e-06
1.22338e-06
1.27593e-06
6.35744e-07
1.72458e-06
0.000182623
0.00833616
4.00692e-06
1.54271e-06
1.60244e-06
9.60394e-07
1.23058e-06
0.00737491
0.00668933
0.00448651
7.35301e-07
0.0057961
0.00804091
1.74307e-06
4.55635e-06
8.90906e-07
1.22406e-06
9.04111e-07
0.00211665
0.00159023
0.00112732
2.20366e-06
1.21674e-06
2.01063e-06
1.22568e-06
7.05381e-07
2.54133e-06
0.000267362
0.000204711
0.00473047
0.00368583
6.18645e-06
0.00504079
0.00819635
1.37291e-06
1.55985e-06
6.40154e-07
2.91949e-06
2.03166e-06
1.03792e-06
0.00029093
4.7362e-06
1.73399e-06
0.00399498
1.74513e-06
1.43281e-06
8.86095e-07
1.65187e-06
2.40687e-06
5.87308e-05
0.00800154
1.39357e-06
1.48436e-06
0.00743442
1.23962e-06
0.00819964
0.00214137
0.0164208
1.64855e-05
7.60784e-07
7.44134e-07
1.50555e-06
0.00184584
0.00737512
1.26907e-06
1.42818e-06
0.014482
3.82173e-06
2.42367e-06
0.00514258
7.35813e-07
0.00560909
2.02637e-06
1.75443e-06
0.000851604
1.38803e-06
0.00414041
0.00890646
0.00629973
0.00558207
0.00434512
1.65037e-06
8.11291e-07
0.000521176
0.00419429
9.92052e-07
0.00737553
0.0181429
6.18589e-07
0.00423391
0.00669654
2.46935e-06
8.9837e-06
9.18051e-06
0.0110783
1.64858e-06
0.000428348
1.66914e-06
0.00654772
1.75317e-06
6.52589e-05
0.0146399
1.70649e-06
0.00445397
0.00425403
0.00268315
2.80973e-06
0.00492723
0.000260096
0.00440689
0.0125826
1.56492e-05
0.00746286
1.92131e-05
3.73342e-06
2.38981e-06
0.00405636
0.0111929
1.19414e-06
8.19987e-07
0.0100171
0.00225951
0.0128478
0.000669426
1.07556e-06
6.05296e-06
4.44301e-07
1.23608e-06
0.00458719
1.88857e-06
0.00674148
0.00440202
3.92674e-05
0.00428376
1.19536e-06
0.00432183
0.00433034
9.64433e-05
2.29422e-06
0.00508783
5.64055e-05
0.0162727
1.21328e-06
1.81189e-06
0.000118801
1.22944e-06
4.39887e-07
0.000400876
0.0171856
4.10924e-06
0.00342231
4.47675e-07
0.0179819
0.0116476
0.010833
1.56056e-06
0.0131526
0.0144803
1.20636e-06
0.00832147
1.14397e-06
0.00628041
0.00458226
2.38458e-06
0.00153357
2.29849e-06
9.75531e-07
4.13468e-06
1.32724e-06
0.000312715
1.57694e-06
0.000669758
0.00443421
5.29482e-06
2.03549e-06
1.30574e-06
1.5295e-05
1.25869e-06
1.17193e-06
6.34972e-07
0.000186907
2.1003e-06
2.05737e-06
0.00693017
1.59972e-06
0.000422471
1.20655e-06
0.00689292
0.00137145
9.67415e-07
3.87512e-05
2.53258e-06
0.00474545
2.1967e-06
9.82022e-07
0.0019086
0.00419645
7.8287e-07
0.00733916
0.00411739
2.30351e-06
2.19242e-06
0.00451879
0.0103708
1.08782e-06
0.00730534
0.00774561
0.00917377
7.45786e-06
2.08733e-06
0.00414787
0.00610062
6.1403e-07
0.000856863
0.0287722
2.2218e-06
0.00225811
0.00409842
0.00852217
9.44258e-07
7.76757e-07
1.43288e-06
0.00104618
1.51434e-06
4.94154e-07
0.00495565
4.85617e-07
0.00911616
8.98092e-07
1.19904e-06
1.5838e-06
1.58905e-06
3.58776e-06
0.00947106
1.14695e-06
0.0058538
1.03544e-06
7.51789e-07
0.00297506
0.00444527
7.3577e-07
1.82584e-06
0.00484844
1.95664e-06
1.58821e-06
1.23323e-06
2.66322e-06
0.00168078
0.00482404
2.4597e-06
2.3046e-06
3.39535e-06
1.23828e-06
2.41816e-06
0.00808146
0.00516738
9.66824e-07
0.000139829
1.12083e-06
0.00432265
2.66514e-05
2.37769e-06
0.0143281
0.00785223
2.87374e-06
2.04272e-06
4.70551e-06
0.0042389
0.0111264
1.23747e-06
4.39357e-07
1.25193e-06
1.93978e-06
0.00451445
0.0142624
0.000379412
1.41544e-06
1.23942e-06
1.85948e-06
0.0148993
0.0110341
1.40154e-06
0.000175219
1.52639e-06
1.03591e-06
0.000683533
2.16868e-06
6.38231e-07
0.00419622
4.03359e-06
1.7273e-06
1.00611e-06
0.00729424
1.23029e-06
0.000158599
2.01203e-05
0.00443585
0.00129677
2.28237e-06
4.59115e-05
9.54238e-07
0.00175808
1.62924e-06
0.00251597
8.63689e-07
3.88065e-06
0.0106925
4.90248e-07
0.00339379
7.79238e-07
7.03137e-07
0.00828839
0.00669061
6.34679e-07
5.65657e-05
4.33255e-06
9.53566e-07
1.02555e-06
0.0170366
1.51391e-06
1.01315e-06
1.72657e-06
1.96209e-06
2.51379e-06
1.23848e-06
1.92807e-06
1.4297e-06
9.0217e-07
0.00455563
0.00430321
1.66229e-06
0.00045351
0.000676279
0.00266448
6.53763e-07
5.10784e-06
0.012498
9.46855e-07
4.79492e-07
0.0157832
1.02287e-06
2.24427e-06
0.00431117
0.00442774
0.00657202
0.00440242
1.22835e-06
0.00467563
1.92012e-06
0.000751175
0.00424255
9.88348e-07
0.0177513
3.03316e-05
0.010549
4.01345e-06
0.00635571
1.8402e-06
2.05805e-06
2.07072e-06
5.32752e-06
0.0129099
3.387e-06
0.00292162
0.00512752
1.13333e-06
0.0075349
1.20928e-06
0.00724895
7.32532e-07
1.42677e-06
1.17958e-06
0.00448919
0.00890218
1.59924e-06
0.0136893
1.46674e-06
5.68338e-06
0.0110526
1.55902e-06
1.7333e-06
0.000130253
1.22077e-06
0.000100881
2.75217e-06
0.000109128
9.51938e-07
2.81883e-06
1.4417e-06
5.68432e-05
0.000425715
1.74468e-06
1.04073e-06
1.01375e-06
2.11872e-06
0.000413537
4.82145e-07
4.89082e-07
1.44659e-06
8.86956e-07
0.000172546
0.00852966
0.0110073
0.0149475
0.00608762
0.00685392
0.000205916
1.70855e-06
9.17661e-07
4.08647e-06
0.00440694
1.04909e-06
0.00578301
1.49899e-06
0.000120444
1.55199e-06
7.94567e-07
1.83497e-06
2.46232e-06
2.74329e-06
1.55111e-06
1.40508e-06
0.0106786
6.26612e-05
0.00520758
0.0179115
0.000151087
6.68164e-07
0.00267483
1.21696e-06
4.80032e-07
0.00039577
0.000519954
2.76218e-06
2.50648e-06
0.0146424
0.00438416
6.11626e-07
0.00481101
0.000846135
0.00436159
4.83556e-07
0.0118226
1.16428e-06
3.62353e-06
1.58954e-06
0.00764228
1.54636e-06
0.00751028
0.0088367
0.000787506
1.02852e-06
9.26852e-07
0.014399
0.000695263
0.00802788
0.000262764
0.00824865
0.000110531
0.00684409
0.00416321
0.0123485
0.00668258
1.36447e-06
1.61598e-06
9.38015e-07
0.0016404
1.20849e-06
0.00139371
0.00394968
1.60604e-06
0.017535
0.0169885
0.00831923
1.12364e-06
1.19576e-06
1.13264e-06
0.0146604
2.21952e-06
9.68574e-07
1.62802e-06
0.01086
9.42297e-07
0.00442946
2.64607e-06
1.35483e-06
2.29773e-06
1.56808e-06
1.17709e-06
1.41422e-06
1.89808e-06
1.74379e-06
8.29461e-07
5.67509e-05
9.41753e-07
5.78466e-07
4.415e-07
1.18981e-06
0.00609179
0.0106397
9.89824e-07
0.00419927
1.69666e-06
1.15052e-06
1.00753e-06
1.45768e-06
1.07514e-06
1.50471e-06
2.09687e-06
9.69323e-07
0.0126188
1.34266e-06
0.00493181
0.00442842
2.04557e-06
2.10274e-06
8.0359e-07
0.00664792
0.0148094
2.09379e-06
6.11609e-07
0.0002157
0.00489623
2.45953e-06
1.40101e-06
8.38725e-05
0.000204063
1.46903e-06
0.00756836
1.38592e-06
1.09242e-06
2.46764e-06
0.00651273
1.20693e-06
0.00691169
0.000300668
0.00426463
0.000717399
0.000419002
1.86483e-06
1.56194e-06
0.00614118
0.00560497
6.15913e-07
1.38854e-06
0.00400339
0.0062674
3.05766e-06
0.000855576
1.80322e-06
1.64359e-06
4.3911e-07
3.64774e-05
0.00757956
9.90024e-07
0.00442043
1.53513e-06
0.0103848
1.54802e-06
1.11109e-06
0.00781824
0.00559085
2.55626e-06
0.000427484
0.0134618
2.27517e-06
0.00736074
1.21255e-06
0.00923669
0.00450395
7.97108e-07
0.0043516
0.00458351
0.0141155
7.9571e-07
0.00326596
7.90561e-07
1.01058e-06
0.0058024
0.0143929
0.0027055
0.000307488
0.00868975
1.81063e-06
3.67971e-05
1.18689e-06
4.40541e-07
1.42893e-06
8.10015e-07
0.00579609
0.00564329
0.000252905
0.00875096
6.56101e-07
0.0107709
1.16481e-06
0.000361589
3.24695e-05
1.34371e-06
5.65404e-07
9.09528e-07
5.62324e-07
0.0127208
1.02459e-06
0.00864919
0.00181489
2.40728e-06
1.98132e-06
3.34871e-06
0.00927389
0.000290053
0.00150297
1.22769e-06
1.13331e-06
1.16169e-06
0.00588955
1.4695e-06
4.84184e-06
2.06854e-06
1.02476e-06
6.06431e-07
1.5397e-06
9.41844e-07
1.44863e-05
1.7266e-06
0.000172765
4.57564e-05
0.00123205
1.2881e-06
0.000115907
0.00461595
3.0745e-06
0.0120085
6.65229e-07
1.54734e-06
6.73127e-07
1.45938e-06
0.0042512
1.6933e-06
0.000213042
0.00593985
0.00987054
1.76223e-06
1.139e-06
0.00850829
1.44744e-06
0.0117226
1.25526e-06
9.58605e-07
0.00840364
1.27353e-05
5.30963e-07
2.99472e-06
2.98399e-06
0.00537271
0.00533569
0.00690105
0.00654806
7.33066e-07
1.01419e-06
1.99296e-06
0.00147438
7.2593e-06
4.64813e-06
1.59805e-06
2.6469e-06
0.0062404
5.58273e-07
1.61692e-06
0.00564932
0.00577089
2.69254e-06
1.4533e-06
4.85904e-07
1.26633e-06
1.32403e-06
1.76441e-06
4.84462e-07
1.54207e-06
1.11193e-06
0.0126192
4.79716e-07
1.91059e-06
0.0135397
0.00202081
1.73728e-06
1.02759e-06
1.18142e-06
0.00895082
0.0147243
0.000200658
0.00329689
0.00013723
0.00574897
3.12967e-06
0.00579379
1.67613e-06
0.00556727
9.99805e-07
0.00435967
1.25347e-06
1.25859e-06
9.80061e-05
5.28007e-06
1.62223e-06
9.94737e-07
1.72154e-06
9.17819e-07
0.0038683
0.00542055
0.0110473
1.13747e-06
7.87474e-07
0.00511361
3.07252e-05
5.30978e-07
0.000182684
0.00809138
0.00119917
0.000462355
0.00425354
1.65785e-06
3.34764e-05
0.00988177
6.39972e-07
1.74202e-06
0.00702252
9.01136e-07
9.35452e-07
0.011609
0.00469184
1.64142e-06
0.0052404
6.38764e-07
1.9937e-06
6.20907e-05
0.000287835
0.000191888
1.76421e-06
8.44899e-07
1.81365e-06
1.64301e-06
0.00023286
0.00549998
1.39778e-06
0.0116766
0.00169454
4.02303e-06
4.79938e-07
9.5219e-07
0.0044135
1.48172e-06
1.63243e-06
0.000431522
7.02879e-06
9.4177e-07
0.0137974
0.0105989
0.00428489
0.000496541
3.4145e-06
4.29075e-07
4.47154e-07
1.37117e-06
1.25742e-06
0.00443004
0.00562736
1.73734e-06
2.39853e-06
0.00125819
0.0081723
0.00430472
1.61565e-06
0.00434278
1.62551e-06
0.00987401
3.33402e-06
1.70361e-06
2.08228e-06
1.64447e-06
0.0068749
0.000615903
9.31788e-05
0.0046828
0.016586
0.0089587
0.00299361
2.09357e-06
1.62208e-06
4.78986e-07
0.00434129
1.00165e-06
0.0106085
1.18848e-06
1.53755e-06
1.51798e-06
1.90992e-06
0.00624776
1.55926e-06
0.00135853
0.000147761
0.00127988
1.33354e-06
5.93588e-07
0.0161152
1.10388e-06
1.11247e-06
0.00709452
1.09005e-06
1.42637e-06
3.09342e-06
1.73895e-06
4.97309e-07
0.000430915
0.0112402
0.00507858
0.00595494
1.0153e-06
1.30724e-06
2.66501e-06
0.000137223
0.00435135
1.45395e-06
0.0119733
1.33996e-06
1.73326e-06
0.00561967
1.38695e-06
3.31275e-07
1.85625e-06
8.44261e-07
1.09441e-06
1.17615e-06
0.000166173
0.0118605
9.02367e-07
3.59681e-05
0.0140426
2.99273e-06
1.60663e-06
1.96719e-06
1.40092e-06
1.36481e-06
0.000264925
3.97473e-06
0.00451709
0.00531355
0.000187231
1.18215e-06
1.82403e-06
0.00795966
1.90664e-06
1.70017e-06
1.53552e-06
3.94814e-05
0.000174203
1.1745e-06
0.00697143
0.000408328
7.7108e-07
1.81969e-06
1.43369e-06
3.54271e-06
1.44288e-06
5.30255e-06
1.81723e-06
0.00436341
1.17081e-06
1.69278e-06
5.03744e-05
1.09558e-06
0.000313711
1.46081e-06
1.51586e-06
1.83253e-06
1.32807e-06
2.15397e-06
1.1193e-06
8.61062e-07
2.89498e-05
1.19182e-06
0.0155766
1.83815e-06
1.01015e-06
3.05416e-05
0.00828157
8.09828e-07
4.80335e-07
2.38864e-06
8.33584e-05
1.45355e-06
2.65069e-06
0.000560723
0.0112157
2.38642e-06
2.33178e-06
0.00614254
5.83272e-07
8.02169e-07
0.0122263
0.000947434
0.000824069
1.69214e-06
1.69152e-06
8.7536e-07
1.84437e-06
0.00726896
1.61469e-06
1.56191e-06
1.62359e-06
0.00521457
8.14136e-07
9.77202e-07
1.55795e-06
1.00385e-06
0.000144814
5.8392e-07
0.00407945
2.16633e-06
0.0148914
0.00959456
1.8432e-06
0.0047961
1.55001e-06
0.0105994
0.000162261
0.000381753
1.48523e-06
0.00443303
1.58679e-06
2.78901e-06
1.81729e-06
1.45611e-06
0.00976708
1.08625e-06
1.30214e-06
1.03304e-06
1.58285e-06
1.97674e-06
0.0110731
0.0047858
2.94109e-05
0.00439167
1.61301e-06
0.00462556
6.80698e-07
1.55468e-06
1.4703e-06
1.65915e-06
0.00149882
0.00626096
1.2551e-06
0.00442197
1.54196e-06
0.0107642
0.0174598
0.00204092
1.16912e-06
1.62734e-06
2.5311e-06
5.59301e-07
1.25358e-06
1.0574e-06
0.00572123
1.49008e-06
9.26138e-06
2.29245e-06
1.51507e-06
0.000217815
1.11066e-06
0.00563621
1.46717e-06
2.38791e-06
0.00452462
0.00794466
1.73651e-06
0.00107493
0.000203538
0.0032939
0.00474089
8.98693e-07
0.00628196
6.17259e-07
1.12296e-05
1.68884e-06
6.38611e-07
9.27207e-07
0.00586438
0.0129454
0.0046521
0.00219947
0.00457008
0.00604833
1.08158e-06
0.00844263
1.71934e-06
1.60498e-06
0.00292002
0.00419533
4.76297e-07
0.0076921
2.98223e-06
1.47845e-06
0.0164104
1.66846e-06
1.05747e-06
0.00459386
1.14315e-06
2.14872e-06
0.011848
2.70344e-06
0.00450159
1.5033e-06
4.39383e-07
1.67053e-06
0.00663703
1.86212e-06
1.96393e-06
1.77548e-06
7.11812e-07
5.92582e-07
1.82965e-06
1.28713e-06
5.3206e-07
0.00825446
1.1431e-06
3.99876e-06
0.00427111
1.71667e-06
0.0101931
4.47025e-07
1.44355e-06
0.00612529
1.48738e-06
1.52458e-05
0.00669131
0.00458544
0.00573303
1.49608e-06
0.000198378
1.67371e-06
0.0117061
8.65826e-06
2.01881e-06
0.000100852
3.83663e-06
0.00469136
0.00497197
7.4925e-07
3.02532e-06
2.14193e-06
1.21528e-06
1.79837e-06
0.000206134
1.49496e-06
1.59576e-06
1.13027e-06
1.68196e-06
1.66234e-06
1.35832e-06
9.18137e-07
1.81945e-06
0.0127479
1.37636e-06
1.08548e-06
0.00853749
9.68864e-07
2.89616e-05
0.000231458
0.000417204
1.61647e-06
0.0143496
8.9555e-07
0.00487307
1.5844e-05
0.00705185
0.003974
0.00186974
0.00126641
1.43409e-06
1.01052e-06
1.97931e-07
1.63304e-06
1.48504e-06
0.00415987
1.23685e-06
1.05619e-06
0.00296148
0.0140782
3.16427e-06
0.00504396
0.00447188
3.3421e-06
6.40442e-07
4.5726e-06
0.00331283
1.41369e-06
1.84829e-06
0.013115
1.91181e-06
9.47683e-07
1.37335e-06
1.49689e-06
5.16582e-06
0.0155805
0.00090457
1.51089e-06
1.51101e-06
5.33536e-07
1.55632e-06
1.54979e-06
0.00731398
1.16049e-06
5.87329e-07
1.42728e-06
5.27856e-05
0.005639
1.6238e-06
1.10413e-06
1.38497e-06
0.000319444
9.32704e-07
1.90572e-06
2.41839e-06
0.0115985
0.000148095
0.0069445
2.39011e-06
0.000211685
1.84844e-06
0.0171863
1.54771e-06
0.0042177
1.32924e-06
0.00508438
0.0172669
0.00435685
1.55551e-06
3.2719e-05
1.23021e-06
0.0105058
0.00562889
0.0100158
0.00210399
0.00742075
1.6702e-06
2.3891e-06
0.00476531
1.84467e-06
0.000212046
2.44076e-06
0.00425634
0.0135205
0.00570764
3.85191e-05
0.0043693
1.012e-06
0.00682333
2.90589e-06
0.007195
7.1809e-06
4.31938e-06
0.0155383
5.15845e-06
0.0141854
2.07479e-06
0.000214427
1.79131e-06
0.0042914
0.010665
1.52375e-06
0.0111298
0.00023298
1.45474e-06
0.00018055
9.74824e-07
0.000503012
0.000118238
1.66336e-06
0.00290693
0.00750255
8.94304e-07
0.0126435
4.21773e-06
1.10462e-06
0.00928089
0.00779713
0.00115226
0.00422617
9.3656e-07
1.36691e-06
0.000606332
5.55479e-07
0.00711957
1.30192e-05
0.00455532
0.00438351
6.42499e-07
2.45306e-06
1.04289e-06
0.00461783
0.00501184
0.00450585
2.04934e-06
5.58135e-07
0.00908523
0.000905627
2.07295e-06
0.000115613
1.34335e-06
0.0143758
7.12999e-07
1.66308e-06
1.82416e-06
4.9978e-07
1.34746e-06
9.78076e-07
0.000358307
0.00459661
6.04789e-07
5.04412e-07
0.00507695
0.011415
3.27404e-06
1.62493e-06
0.018376
4.89709e-07
0.00474372
0.0110218
0.0137364
1.01459e-06
1.45925e-06
3.02561e-05
0.00465452
4.80885e-06
1.24943e-06
0.000494338
5.45144e-07
0.000518422
0.00409201
9.65123e-07
0.00946786
0.00134259
1.90826e-06
2.60972e-06
8.72403e-07
1.71138e-06
0.00514899
1.77639e-06
5.03158e-05
1.25788e-06
1.607e-06
0.00080731
6.48375e-07
2.81042e-06
0.00439461
1.52098e-06
0.0034206
0.000247011
1.25237e-06
0.0167816
6.42219e-06
9.48885e-07
0.00486061
0.000869565
0.00521724
1.3495e-06
0.00907487
6.40441e-07
4.37947e-07
0.000492474
0.0115692
0.00566001
6.20328e-07
0.000387738
1.37401e-06
6.20145e-07
1.32671e-06
0.00379341
0.000136246
0.00424232
1.87655e-06
1.63149e-06
1.85681e-06
0.00685253
0.0110394
0.000345538
0.008988
6.40441e-07
7.74034e-07
1.33087e-06
2.8644e-06
1.54084e-06
2.37962e-06
0.00690491
1.57905e-06
0.000293838
0.0105067
1.1464e-06
0.0087062
9.27451e-07
1.44118e-06
0.012321
1.51622e-06
9.13296e-07
7.76536e-07
2.23807e-06
6.54458e-06
0.00418307
0.00152503
0.00837987
3.21675e-06
0.00557335
0.000399978
1.70695e-06
7.76863e-07
0.00466747
5.55336e-06
1.53477e-06
1.84067e-06
0.00119743
0.000186446
5.45927e-07
0.00679124
6.43121e-07
1.66897e-07
0.00164204
3.48364e-06
0.0103525
0.00454087
2.91815e-06
0.00435515
0.00449947
1.54734e-06
0.00847994
0.000458716
1.20207e-06
1.93149e-06
1.58591e-06
9.58042e-07
0.0111261
3.14103e-07
0.011662
1.42039e-06
2.16646e-07
1.86269e-06
1.26128e-06
0.00790117
1.80451e-06
7.68432e-05
0.000679545
0.00279607
2.69857e-06
5.65185e-07
0.011961
5.86878e-07
0.015939
0.00515096
4.6569e-06
5.58249e-05
5.58528e-07
0.007886
1.07953e-06
2.01391e-06
1.71431e-06
1.43303e-06
1.58307e-06
0.00416983
1.36694e-06
0.00761778
2.44022e-07
0.0135062
0.000263783
1.55458e-06
1.23164e-06
0.000172097
0.0117397
0.00356539
5.60117e-07
0.00890743
7.60284e-06
1.49275e-06
0.000197907
1.07673e-06
1.92072e-06
0.0153907
0.00666714
3.54981e-06
1.08337e-06
5.81887e-06
0.00934301
4.49808e-06
1.6499e-06
5.63941e-07
0.0171091
0.0044108
1.95975e-06
0.000198649
1.51196e-06
0.00424331
1.83025e-06
1.03063e-06
0.00176058
0.0173199
2.11721e-06
2.14956e-06
5.62703e-07
1.976e-06
1.60569e-06
2.28725e-06
0.000380939
0.00419864
1.57767e-06
5.2164e-07
0.0106297
1.14058e-06
1.15119e-06
1.09124e-06
0.0104683
0.00406552
0.00308026
1.94182e-06
6.00141e-07
6.63105e-07
0.0153735
0.00697073
0.0106087
3.10968e-06
0.0113814
1.47938e-06
0.0113308
1.97979e-06
4.01146e-06
9.30853e-07
7.81152e-07
1.08677e-06
0.00479704
1.02539e-06
9.33496e-07
0.00314954
0.00443555
0.0120715
0.000114935
1.44845e-06
0.00519389
1.11196e-06
0.00413723
1.49426e-06
0.000269817
4.83447e-07
6.4121e-07
0.000509353
0.000519978
1.34427e-06
1.51879e-06
1.28924e-06
0.000223375
2.13108e-06
0.00662151
5.53341e-06
0.0152264
0.00472036
0.0156046
0.00445841
1.14627e-06
0.0046264
0.000272433
1.17157e-06
6.12128e-07
1.63549e-06
9.79061e-07
1.32563e-06
1.55011e-06
9.30911e-07
1.48065e-06
1.18729e-06
1.20057e-06
7.28227e-06
0.00447918
0.0042968
1.19355e-06
9.68131e-07
0.000409713
1.374e-06
0.00441555
1.52382e-06
1.05305e-06
0.0137164
0.00904231
1.81298e-06
8.7282e-05
0.000117963
4.75525e-07
2.15952e-05
2.616e-06
0.00454866
0.016535
9.06437e-05
1.68829e-06
0.0121705
1.68761e-06
1.07945e-06
2.52612e-06
5.86941e-07
1.82104e-06
1.4563e-06
0.00424441
3.30906e-05
5.98638e-07
0.0132692
8.80131e-07
1.94341e-06
0.00716011
5.863e-07
6.72667e-06
5.45166e-06
6.76504e-07
6.25574e-07
0.000235808
1.55842e-06
0.00926193
0.0126533
1.36679e-06
1.09745e-06
1.62704e-06
0.00574356
0.0056898
8.05835e-07
1.27142e-06
6.46049e-07
6.7878e-07
7.68456e-07
9.53952e-07
4.88273e-07
2.03301e-06
1.4955e-06
0.00243706
0.00430727
3.52409e-05
1.2802e-06
1.92173e-06
9.21973e-07
0.000228656
0.00414741
0.000921931
0.000172859
1.2733e-06
0.0044868
0.0138515
9.62801e-07
1.05111e-05
3.3441e-05
6.89184e-07
6.72e-07
0.0072449
1.33152e-06
6.70234e-07
2.64008e-06
0.00982796
0.00764388
0.000196777
0.00024127
1.27569e-06
0.00455945
0.00423891
1.53626e-06
1.48634e-06
1.72857e-06
8.36205e-07
2.25399e-06
0.00431397
1.31944e-06
2.02955e-06
0.0067013
0.00841836
0.0159273
1.12081e-06
0.00856183
1.15902e-06
0.0167528
0.00437923
1.52279e-06
8.05104e-07
0.00624516
1.45543e-06
0.00590964
1.32958e-06
0.00421079
0.000633014
0.00402868
1.27423e-06
0.00761134
0.0145159
0.0102342
1.45573e-06
1.38359e-05
0.00691395
0.0112001
0.00750052
1.58947e-06
0.0150505
0.00420806
0.000495627
0.00727229
0.00427315
0.00464124
0.00453578
0.0141657
0.00675644
0.00431498
8.45129e-07
0.00422274
0.00671854
2.31165e-05
2.92827e-06
8.12046e-07
0.0166318
1.77853e-06
0.00420236
0.00469186
0.00552171
0.00427907
0.00938806
1.57128e-06
9.14902e-07
0.012038
0.00918395
0.00472921
1.50782e-06
0.00202083
1.47366e-06
0.00920736
0.000456796
0.00390399
0.00024404
1.37157e-06
0.0122634
1.61417e-06
0.00796025
9.06726e-07
2.53218e-06
0.0129304
1.05096e-06
4.0567e-06
0.00914156
0.0011196
0.00895264
1.31847e-06
1.08786e-06
0.00712177
0.0118183
1.07289e-06
0.0128891
0.0156626
1.7157e-06
0.00518085
9.08467e-07
1.09666e-06
3.43446e-06
0.000938379
9.55323e-07
0.000801401
1.41215e-06
5.23295e-07
0.00959792
0.00613429
5.38674e-07
0.00315768
0.00934028
0.010036
0.00462386
1.59616e-06
0.000106182
4.72618e-07
2.44827e-06
0.0142433
1.10494e-06
0.0150866
1.04607e-06
0.0125676
2.02336e-06
0.000186666
0.00735958
0.0136284
0.000458099
4.45477e-06
0.00393889
0.0143857
5.45055e-06
0.0179777
8.05953e-07
0.00454195
0.0124885
0.00819255
6.17567e-07
5.05557e-07
1.0686e-06
0.0152292
0.000354572
1.4051e-06
0.0170436
0.0115616
0.00651061
0.000435871
5.4084e-06
0.000151736
0.000469291
5.05461e-07
0.000138534
0.00477161
1.66123e-06
0.0070594
7.1968e-07
1.32009e-06
1.59442e-06
0.00801306
0.00461221
9.10616e-07
9.56232e-07
5.34799e-07
0.0041792
0.0117015
0.00394768
0.00923518
0.00664712
0.0100304
8.95757e-07
0.000479489
0.00721842
8.64781e-07
8.79424e-07
9.99658e-07
8.04392e-07
1.06809e-06
0.00882506
0.0118502
0.0145974
9.0729e-07
1.60217e-06
5.65433e-07
2.15135e-06
1.05791e-05
0.00458354
0.00435712
0.000391163
4.33814e-06
1.69994e-06
8.20688e-07
1.65234e-06
0.000391721
0.00579579
4.36356e-07
2.31583e-06
2.0337e-06
0.00436123
0.00808683
0.0099036
0.000337641
1.49775e-06
0.0124787
1.60999e-06
0.00457348
0.00484003
3.57559e-07
3.31403e-06
0.0157668
0.0067089
2.65597e-06
0.0102421
0.00508614
1.67412e-06
0.00470537
5.70604e-07
5.03586e-07
0.00634428
0.0120952
0.00417458
8.61189e-07
0.0135466
0.00162339
0.0047701
0.0161315
8.85e-07
0.0117691
2.49151e-06
9.03534e-07
0.00465098
8.02028e-07
0.00995716
2.40557e-06
0.00409228
0.00423699
0.000101667
5.80507e-07
2.66708e-06
0.00376655
0.012983
0.000896345
0.00949302
0.00443525
1.14224e-06
1.91429e-05
9.57238e-06
1.51547e-06
1.04708e-06
0.000145662
7.26172e-06
0.00461428
6.9973e-07
2.71348e-06
0.004404
7.43762e-07
0.000133995
1.62917e-06
0.013794
1.70309e-06
7.7492e-07
0.00594485
9.2617e-07
0.00314275
1.59717e-06
1.59752e-06
0.00620137
1.42347e-06
1.52364e-06
5.26691e-07
0.00422229
0.000123082
1.71493e-06
0.00463643
0.0164468
0.00450313
2.02629e-06
6.96702e-07
0.0042469
1.6448e-06
0.000449845
9.37949e-07
0.000315054
0.0163992
1.72019e-06
1.74245e-06
0.00030122
1.70834e-06
1.67094e-06
0.00465024
0.0044545
2.08749e-06
0.00499404
2.00326e-06
0.0105973
0.00441788
7.04328e-07
8.193e-07
1.32174e-06
0.00662818
0.0121102
0.00787464
0.00627343
0.00555224
0.00467843
0.00453969
0.00952473
1.53174e-06
0.013384
0.0141832
1.02157e-06
5.14807e-05
9.55016e-06
1.31347e-06
3.27407e-06
0.00735505
0.00722841
0.0124696
1.68154e-06
2.0683e-06
0.00827957
0.0139335
9.85243e-07
0.00016805
3.94081e-05
0.00476269
0.00589048
0.0163482
0.000444009
0.00704505
0.00688239
8.40258e-07
0.0140066
8.22773e-07
1.72406e-06
0.0139278
1.38359e-06
9.18731e-07
0.00479019
1.62617e-06
1.71054e-06
0.00560015
8.75631e-07
1.34039e-06
0.00759679
0.00445185
0.00475959
1.39733e-06
0.00426814
6.50753e-07
2.00759e-06
0.0044093
0.00455117
0.00521
1.00906e-06
0.00447419
1.64208e-06
0.005745
6.3465e-07
4.54743e-07
5.90597e-07
0.0165177
1.42766e-06
2.48985e-06
0.0077149
1.61234e-06
0.00423892
0.00421975
0.00469521
0.000110749
1.62234e-06
1.85254e-06
0.00475488
1.26194e-05
1.2584e-06
0.0051809
0.00404347
0.0121803
6.55228e-05
2.08897e-06
0.00592567
0.0157732
0.000198668
7.39775e-06
0.00757687
6.93561e-07
0.00460821
1.60557e-06
0.000210735
1.50119e-06
0.00654516
0.0132841
0.00451854
0.00654532
0.000287752
1.42803e-06
1.61852e-05
9.14912e-07
0.0172877
6.45079e-07
0.0144927
8.83008e-07
0.00448382
0.000132509
0.00522425
0.00793583
1.46797e-06
0.0137335
7.6949e-07
0.00790818
1.82056e-06
1.94569e-06
0.0101694
8.62701e-07
0.000361047
0.00412431
0.00809859
0.00739106
0.0128794
0.00770117
0.00750697
0.014127
1.13469e-06
1.41255e-06
2.42573e-05
1.53298e-06
6.21324e-07
0.00427281
0.00685228
0.00479776
1.57968e-06
0.00864294
0.00066885
4.45384e-06
0.004767
0.00723396
1.65167e-06
0.0156241
5.625e-06
0.00691373
1.81051e-06
0.00440952
0.00752124
6.78633e-07
0.00439065
1.14297e-06
0.00674468
0.0142741
0.0129706
0.0067643
0.00449282
0.0149808
0.000410089
0.00471287
1.13036e-06
0.00628459
1.7907e-06
6.64476e-05
1.54977e-06
0.0179919
0.0037494
1.41424e-06
1.25827e-06
4.39552e-05
8.9383e-07
1.06763e-06
0.000191078
0.00716983
1.3868e-06
0.00837532
0.0129119
0.005482
0.00546172
0.000234587
0.0121877
0.00346671
0.00870668
0.012273
6.37329e-07
0.014839
0.0168453
1.18181e-06
0.00472937
0.00873031
1.30837e-06
0.00468419
2.64914e-06
1.64474e-06
9.56718e-07
0.00475128
0.00727877
2.03913e-06
0.00473404
0.00423829
9.34613e-05
0.0145136
0.000175328
0.000225326
0.00527907
1.56698e-06
0.00631204
1.52218e-06
0.00450535
1.046e-06
0.01227
1.68299e-06
0.00462114
1.73246e-06
1.05453e-06
0.00694698
0.00576158
0.00468311
0.00445981
2.04421e-06
0.00677206
0.00432265
5.56862e-07
0.0138297
0.00532311
1.6658e-06
0.00416071
1.45261e-06
0.00427311
9.87833e-07
1.26086e-06
6.05202e-07
0.00775433
0.0169443
0.0166726
0.00497945
4.71308e-06
1.11267e-05
0.0073134
1.01157e-06
1.15683e-06
0.00421031
0.00859292
1.89457e-05
0.0175139
0.00987795
0.00440759
0.0166718
0.0116273
0.0149289
1.99662e-06
0.004603
9.59816e-07
0.007682
4.00675e-05
7.13248e-07
0.0048113
0.0127229
2.15897e-07
0.000105106
9.70517e-07
5.81389e-07
5.24261e-07
1.53531e-06
0.00402884
0.00803275
1.02628e-06
0.000228828
0.00689762
1.40163e-06
0.000161902
0.0165659
6.00582e-07
8.71085e-07
1.11298e-06
0.0163143
1.704e-06
1.64338e-06
9.17023e-07
1.51434e-06
9.54772e-06
5.69044e-07
7.06039e-06
0.00501704
0.00396841
1.95363e-06
1.95775e-06
0.00467498
0.0146249
0.00402557
1.52362e-06
1.71645e-05
0.0108975
4.52601e-07
0.00865495
0.00897121
0.0159276
5.56134e-06
0.000181178
0.0152018
0.00382498
3.46519e-06
4.51927e-06
0.00436757
0.00386718
0.0043493
0.000384855
1.0611e-05
0.0126918
0.000122023
0.0138625
1.07683e-06
0.00979774
0.00368123
0.00877949
0.00577261
0.00550719
9.12476e-07
0.00910512
1.23111e-06
1.3456e-06
7.49186e-06
2.0293e-06
6.91947e-07
8.8161e-07
0.0085354
0.0167751
0.00879109
0.00921613
0.008149
7.87797e-07
0.000446674
0.0193251
9.33739e-06
7.63521e-07
0.00818381
1.98546e-06
0.00949765
0.00556486
0.0163184
0.00376261
0.00806038
0.00936226
0.0108226
2.12519e-06
0.00463801
0.00774649
0.0186527
0.000489714
0.0169381
0.000334495
0.00456755
0.011342
0.00416442
0.0115343
0.0117786
8.0138e-06
0.0147868
1.75325e-06
5.67341e-05
1.55953e-06
0.00423434
0.00631119
0.0163497
5.48543e-06
1.33327e-06
0.00020228
0.00691548
5.70037e-06
0.0032757
1.89664e-06
5.30832e-07
0.0050898
1.20579e-06
1.3848e-06
0.0083469
2.07071e-06
1.72319e-06
0.0062861
0.00669598
0.0146598
5.00188e-07
0.0117712
0.00433274
1.45571e-06
1.43715e-06
1.12782e-06
8.46621e-07
1.63313e-06
2.4019e-06
1.68594e-06
8.36186e-07
0.0102005
0.000220442
0.0189772
0.00765026
0.00475154
4.511e-06
0.0158767
4.49478e-06
0.000338093
8.10506e-07
0.000930084
2.08125e-06
0.00391866
0.00310807
7.90781e-07
0.00546595
2.12862e-06
0.000805907
0.0149542
9.55905e-07
0.00473862
0.00532492
7.09601e-06
0.0131708
0.0048362
5.69968e-06
2.98179e-06
5.85578e-06
1.144e-05
1.20448e-06
5.2497e-06
0.00760434
0.000115993
0.00479745
0.00728012
7.47186e-06
1.92848e-05
0.000198128
0.0062445
0.00610814
1.1147e-05
1.97e-06
0.00841464
1.53785e-06
0.0104242
0.0136337
0.0019125
0.00745424
7.90651e-07
9.21171e-06
0.0061536
1.08056e-06
0.00486587
0.0042814
0.00227538
4.46241e-06
5.62892e-07
0.000155912
0.00994783
1.49272e-06
1.24559e-06
0.00417419
1.41101e-06
2.15992e-06
2.15346e-06
4.68207e-06
0.00825745
0.00252293
0.00623536
2.35524e-05
0.00732639
0.0126221
2.18641e-05
0.0009826
1.14398e-06
0.0053747
0.00493054
1.9212e-06
1.94934e-06
1.93072e-06
7.52524e-06
2.82638e-06
1.04622e-06
2.45541e-05
0.00527058
0.00454356
2.63178e-06
2.13989e-06
0.00852289
0.0151454
0.000303088
0.0117589
0.00506035
0.00991758
5.33393e-07
2.24626e-06
0.00402707
1.34145e-06
0.00576497
0.00612495
2.28321e-06
2.11766e-06
0.00430574
0.0134387
1.67717e-06
0.0143843
6.96473e-07
1.72796e-06
0.00529088
0.000332464
1.62777e-06
1.99466e-06
0.000232105
0.0101465
0.00842387
0.00803587
0.0106353
0.0115257
1.61737e-06
2.21375e-06
0.0140689
0.00408994
0.00595014
0.000271881
1.10831e-06
0.00949537
3.06093e-06
0.0168615
0.00629067
1.53013e-06
2.09081e-06
2.07459e-06
0.0119636
0.00530463
0.0119842
9.00008e-07
4.85059e-06
6.27133e-05
0.0045255
0.0119456
2.25331e-06
5.72951e-07
3.51908e-06
0.00486312
0.00642356
1.39187e-06
0.0153089
0.00907294
0.000547617
4.95591e-07
0.00834829
0.0111557
8.43332e-07
0.010058
1.83429e-05
0.00835126
7.97647e-07
1.90991e-06
1.39195e-06
0.0130336
0.00928298
0.00649147
0.00426558
1.90559e-06
0.000300657
7.6118e-07
0.000110373
0.00196527
0.00668598
0.000204073
1.65874e-06
8.84191e-07
8.16312e-06
1.93614e-06
1.52635e-06
2.0566e-06
5.29448e-07
0.000562598
8.0382e-07
0.00420607
2.01731e-06
1.34879e-06
0.000196546
8.81443e-07
5.04419e-07
0.00443109
7.35835e-07
3.9038e-06
1.27109e-06
0.00825222
0.0184815
0.00855143
5.10658e-07
7.54991e-07
0.00697052
0.00935315
0.0125759
0.0100582
0.00567179
0.0039176
1.9157e-06
1.35037e-06
0.00448725
0.00070755
4.62343e-06
0.00962635
1.93972e-06
1.75148e-06
1.9062e-06
1.9507e-06
0.00780746
1.13879e-06
1.63612e-06
0.00655109
1.64524e-06
0.00610866
1.69856e-06
4.42437e-05
1.11054e-05