/*--------------------------------*- C++ -*----------------------------------*\
| =========                 |                                                 |
| \\      /  F ield         | OpenFOAM: The Open Source CFD Toolbox           |
|  \\    /   O peration     | Version:  v2012                                 |
|   \\  /    A nd           | Website:  www.openfoam.com                      |
|    \\/     M anipulation  |                                                 |
\*---------------------------------------------------------------------------*/
FoamFile
{
    version     2.0;
    format      ascii;
    class       volScalarField;
    location    "100";
    object      nut;
}
// * * * * * * * * * * * * * * * * * * * * * * * * * * * * * * * * * * * * * //

dimensions      [0 2 -1 0 0 0 0];


internalField   nonuniform List<scalar> 
13308
(
0.00414625
0.0502007
0.0455966
0.000565426
0.000504295
0.000503053
0.000598422
0.000460225
0.000597139
0.066743
0.0297372
0.016449
0.000504411
0.000447121
0.000538186
0.0439773
0.000263087
0.0480849
0.0458152
0.0433369
0.000467778
0.0639279
0.063632
0.000483255
0.0425977
0.0590439
0.000516533
0.0225977
0.000519292
0.000552414
0.0543342
0.00053254
0.0624543
0.000564534
0.0193267
0.000368417
0.000599312
0.0625646
0.000466442
0.0427193
0.000444343
0.000458867
0.0514876
0.000446065
0.000466487
0.00534494
0.000534036
0.000580209
0.0143087
0.0433333
0.000505256
0.000455214
0.0506558
0.00851309
0.00816414
0.0168543
0.000446197
0.000455932
0.000475421
0.000474355
0.0382805
0.0548659
0.000455678
0.000451949
0.000478907
0.0633134
0.000443779
0.0085
0.000465712
0.00091615
0.0616482
0.00046552
0.0014566
0.000540677
0.0317108
0.000452933
0.000433511
0.0143862
0.00045004
0.0197477
0.000458249
0.000438728
0.000452736
0.000480035
0.0120511
0.00046049
0.00539711
0.0782418
0.0273537
0.0366174
0.000458234
0.000443085
0.000519925
0.000470117
0.000474331
0.000442677
0.000459348
0.0204151
0.0710234
0.000713309
0.000457061
0.000451192
0.00045663
0.000472035
0.0588254
0.0531618
0.0477269
0.000488379
0.055783
0.0590381
0.000465046
0.000683912
0.000459196
0.000449627
0.000460646
0.0472784
0.00640081
0.0270532
0.000521827
0.000456539
0.00049946
0.000474697
0.00043926
0.0273877
0.0289213
0.00460583
0.0173825
0.0144738
0.00132866
0.025635
0.0719769
0.000481675
0.0004519
0.000443745
0.000588859
0.0137602
0.000443564
0.0281754
0.000277453
0.00045935
0.0378009
0.000464468
0.000450086
0.000459873
0.000462949
0.000575038
0.0102701
0.0340418
0.000458022
0.000513798
0.00876436
0.000488764
0.0718753
0.0409166
0.0435592
0.000311659
0.000472731
0.000440238
0.000445334
0.0447021
0.0697649
0.000455587
0.00045008
0.0532685
0.000352992
0.000428466
0.0631237
0.000439924
0.0555
0.000493878
0.000463894
0.0223522
0.000504368
0.038968
0.00476063
0.0625786
0.0645093
0.0448338
0.000451627
0.000471755
0.0339939
0.052824
0.000444952
0.0634812
0.0394146
0.000435465
0.0204055
0.0580449
0.000559597
0.00328823
0.00315818
0.0468846
0.000464193
0.0123463
0.000462323
0.0624921
0.000463772
0.0112403
0.0571628
0.000458781
0.0481868
0.0508016
0.0295349
0.000577125
0.0283176
5.78454e-05
0.0371746
0.0339722
0.00306163
0.00666799
0.00245857
0.000672006
0.000525576
0.0398046
0.0541629
0.000474656
0.000482559
0.0774746
0.0489236
0.0359122
0.0204465
0.00048715
0.000226258
0.00043312
0.000477643
0.041847
0.00052907
0.0548151
0.0165336
0.00201687
0.0363774
0.000478863
0.0440222
0.0161221
0.013004
0.000515314
0.0652328
0.00771431
0.0435051
0.000484054
0.000482182
0.0153672
0.000470219
0.000431375
0.0274346
0.04417
0.000715114
0.0168869
0.000433734
0.0379931
0.0533335
0.0614135
0.00044815
0.0551414
0.0640317
0.000477565
0.0738173
0.000488508
0.0610307
0.0148894
0.000551358
0.00981944
0.000516209
0.000451944
0.000129834
0.00047945
0.00915878
0.000451883
0.023144
0.0512124
0.000436623
0.000502006
0.000456854
0.0114325
0.00045058
0.000493251
0.000448672
0.0163295
0.000504238
0.000551028
0.0628516
0.000476623
0.0210348
0.000478353
0.0590671
0.0109596
0.000452417
0.00644535
0.000579447
0.0307204
0.00052371
0.00044398
0.00518913
0.0531356
0.000442879
0.0481334
0.0194965
0.000546637
0.000558827
0.0433957
0.062308
0.000477709
0.05859
0.0266553
0.0301858
0.00115994
0.000517877
0.0400362
0.0258796
0.00043526
0.0220307
0.00475343
0.0005252
0.0267328
0.0299914
0.00446157
0.000473365
0.000442673
0.000449129
0.00416334
0.000441719
0.000436828
0.0256684
0.000432948
0.0156235
0.000461014
0.000478899
0.000453773
0.000467339
0.000380892
0.0618134
0.000448931
0.0242899
0.000449406
0.000498921
0.0292881
0.0494355
0.000440684
0.000521816
0.0231311
0.000489111
0.000453388
0.000447531
0.000561458
0.0188162
0.032572
0.000592792
0.000582833
0.000506386
0.000467644
0.000528645
0.0742212
0.0447377
0.000443537
0.0191532
0.000454987
0.050927
0.00442896
0.000570624
0.0668574
0.0484116
0.00058543
0.000496081
0.000614549
0.0582061
0.0564712
0.000447279
0.00043125
0.000456151
0.000480028
0.050573
0.0116831
0.00337555
0.000507021
0.00045587
0.000541969
0.052867
0.0594743
0.000459759
0.0164487
0.000461873
0.000449488
0.0373441
0.000509906
0.000446331
0.0566407
0.0006552
0.00047863
0.000442641
0.0597574
0.000466355
0.0200125
0.000612111
0.0474484
0.0299731
0.000544056
0.00768296
0.000443124
0.0191925
0.000456306
0.0512451
0.000483385
0.000695846
0.0572237
0.00044953
0.0282881
0.000476864
0.000439306
0.0738236
0.056072
0.00046923
0.00113828
0.000751724
0.000443111
0.000444354
0.047287
0.000461235
0.000444258
0.00047701
0.000561009
0.000623128
0.000456367
0.000486626
0.000458564
0.000459511
0.0490369
0.0211121
0.000462157
0.0114696
0.037137
0.0178391
0.000436708
0.000400552
0.0714126
0.000447659
0.000432148
0.0508982
0.000443486
0.000528884
0.0411411
0.04579
0.0676447
0.0460689
0.000456101
0.0633418
0.000478484
0.0199162
0.0520745
0.000442378
0.0388474
0.00503815
0.0776411
0.000723309
0.0703762
0.000481697
0.000513297
0.000497547
0.000958918
0.0611561
0.000646162
0.0534761
0.0648722
0.000469748
0.0704568
0.000455329
0.00398274
0.00044047
0.000459346
0.000449133
0.0532498
0.0244704
0.000453304
0.0596862
0.000457202
0.00111106
0.0586014
0.000481148
0.000465069
0.0197431
0.00044709
0.0168722
0.000617923
0.0180654
0.000448461
0.000605989
0.000458201
0.00924489
0.0404199
0.000465617
0.000443797
0.00044444
0.000521219
0.0392598
0.000433253
0.000449462
0.000458514
0.000520957
0.00493769
0.0612638
0.0774999
0.0291902
0.00605261
0.0441428
0.00631205
0.000477143
0.000450524
0.000664875
0.0461113
0.000480653
0.0568012
0.000485876
0.00278473
0.000461948
0.000443422
0.000482524
0.000534848
0.000562558
0.000483115
0.00044469
0.0586119
0.00174947
0.0458995
0.0403574
0.0196653
0.000452989
0.00696283
0.000447433
0.000431987
0.0364655
0.0110345
0.000600271
0.000539911
0.0516641
0.0577548
0.000435102
0.0410807
0.0385119
0.049486
0.000434384
0.0309971
0.000446218
0.000425327
0.000451364
0.0579715
0.000461821
0.0200965
0.0585284
0.0209769
0.000443079
0.000449903
0.0524981
0.0187456
0.0657113
0.014008
0.0594681
0.0162778
0.06794
0.0191875
0.0661171
0.0687846
0.000473511
0.000451759
0.000449822
0.0182248
0.000449529
0.00420035
0.0219482
0.000453397
0.0402594
0.0363749
0.0592311
0.000445967
0.000449191
0.000446106
0.0633593
0.000527448
0.000443511
0.000455555
0.0753657
0.000455491
0.0491648
0.000265722
0.000464313
0.000550408
0.000451761
0.000446705
0.000450008
0.000510779
0.000478016
0.000485754
0.00198403
0.000442692
0.000472037
0.00043269
0.000501559
0.0538479
0.0594965
0.000444488
0.0221414
0.000459012
0.000498173
0.000444274
0.000483191
0.000474085
0.000461778
0.000502415
0.000443842
0.0742295
0.000470968
0.0507404
0.0464508
0.000495342
0.000506146
0.000485459
0.0715057
0.0626481
0.000517067
0.000453408
0.0234504
0.0455003
0.000568019
0.00044994
0.0116087
0.0164311
0.000442249
0.00406796
0.000456393
0.00045373
0.000563646
0.00584856
0.000485207
0.0690833
0.0363794
0.0403751
0.0197833
0.0385841
0.000507859
0.000465663
0.0293137
0.0559923
0.000464306
0.000450361
0.0218268
0.0423709
0.000585292
0.0386466
0.000473686
0.000456115
0.000431243
0.00776586
0.0271042
0.000465071
0.0588702
0.000458725
0.0753245
0.000451364
0.000445685
0.0234787
0.0680977
0.000552707
0.038412
0.0664645
0.000547954
0.0205588
0.000484061
0.0267421
0.0452612
0.000507258
0.0415954
0.0471041
0.0561297
0.000232371
0.0332944
0.00052934
0.000443004
0.0550816
0.0553552
0.0105071
0.0169876
0.0542536
0.00048044
0.000923846
0.000487057
0.000431678
0.000479354
0.000523634
0.0544033
0.0549187
0.00129093
0.0348134
0.000436662
0.0437495
0.000484097
0.000951469
0.00216194
0.000463613
0.000436758
0.000449717
0.000436764
0.0702399
0.000449672
0.0735884
0.044439
0.00055703
0.000490889
0.000773238
0.0731058
0.0358349
0.0112846
0.00045666
0.000447207
0.000446588
0.00885979
0.000472341
0.000708742
0.000505786
0.000449515
0.000434842
0.000450605
0.000442807
0.00242526
0.00046581
0.0216036
0.0011798
0.00539037
0.000448753
0.00282314
0.0423135
0.000588826
0.0551293
0.000467461
0.00045887
0.000459972
0.000456012
0.0405843
0.00047646
0.00248972
0.0502249
0.07301
0.000463033
0.000446262
0.074766
0.000454452
0.0523513
0.000450624
0.000449749
0.0509153
0.00202267
0.000443703
0.00061584
0.000596898
0.0111266
0.0651475
0.062538
0.062669
0.000499213
0.000485931
0.000498781
0.0119432
0.000843575
0.000742356
0.000452672
0.000632363
0.0538068
0.000469578
0.000451727
0.0683304
0.057596
0.000562305
0.000455088
0.000433402
0.000450404
0.000453743
0.000463408
0.000432529
0.000456891
0.000454429
0.0542048
0.000434087
0.000522478
0.0704629
0.0448065
0.000441075
0.000454831
0.000449299
0.0362259
0.0611128
0.0108441
0.0329736
0.00770745
0.0408171
0.000688974
0.0537992
0.000474686
0.0333533
0.000447052
0.038489
0.000447483
0.000470921
0.0163189
0.000541019
0.000452911
0.000444122
0.000466683
0.000527299
0.0250864
0.0349039
0.0754613
0.000482604
0.000443393
0.0270212
0.00494217
0.000443466
0.0194902
0.0737666
0.0308483
0.0309811
0.0373891
0.000460928
0.00599368
0.0733836
0.000435565
0.000479523
0.0643311
0.000497227
0.000451037
0.076981
0.0508355
0.000451855
0.0664381
0.000435494
0.000500347
0.00160251
0.0302047
0.0310682
0.000516097
0.000512705
0.000489043
0.000461987
0.0181784
0.0121969
0.000448569
0.0725839
0.0335545
0.000647253
0.000432356
0.000448559
0.0391227
0.000501469
0.000491894
0.0401527
0.0117952
0.000446915
0.0695665
0.0744424
0.0594673
0.0322637
0.000415345
0.000417083
0.000434084
0.000456427
0.000471108
0.0461137
0.056818
0.000534157
0.000601456
0.031359
0.0603381
0.0381519
0.00045159
0.0518886
0.00046024
0.0610724
0.00063986
0.000470794
0.000495801
0.000456153
0.0126688
0.00672675
0.0129894
0.0531377
0.0335283
0.0307511
0.0271919
0.000508851
0.000491194
0.000461077
0.048309
0.000444544
0.0740226
0.000452953
0.000454884
0.00045266
0.000485431
0.00586106
0.000451004
0.0307748
0.0239227
0.0313066
0.000483571
0.000434137
0.0504001
0.000455054
0.000455616
0.0633963
0.000445495
0.000450183
0.000637739
0.000466431
0.000440953
0.0394996
0.0532291
0.00979619
0.0570135
0.000442711
0.000504508
0.00056308
0.000803371
0.0451004
0.00045003
0.076356
0.000461801
0.000467286
0.0494942
0.000448015
0.000405661
0.000486869
0.000461249
0.000445499
0.000455978
0.0266631
0.0756903
0.000479187
0.0342159
0.0276581
0.000639965
0.000474872
0.000523921
0.000450933
0.000455379
0.0278794
0.000678167
0.0548899
0.0658587
0.0191162
0.000452193
0.000477207
0.0147717
0.000478058
0.000472162
0.000455791
0.00321849
0.0284481
0.000455154
0.0492253
0.0365603
0.000483343
0.000475313
0.000449882
0.0006189
0.000436486
0.000416408
0.000476919
0.0443123
0.00048758
0.000459518
0.00696791
0.000455781
0.00341861
0.000498904
0.000462368
0.00049205
0.000461006
0.000508009
0.000445703
0.000498715
0.00125124
0.000448734
0.0552361
0.000484427
0.000470217
0.000945357
0.0675494
0.000443191
0.000432114
0.000563644
0.00472707
0.000454934
0.000608751
0.0131307
0.0662478
0.00052448
0.000517469
0.00580235
0.000438216
0.00045361
0.030848
0.0246004
0.0185454
0.000457313
0.000511661
0.000484538
0.000498403
0.00734399
0.000460141
0.000450787
0.00050718
0.0634346
0.000443628
0.000444445
0.000464186
0.000470027
0.0182128
0.000437744
0.0215507
0.000510609
0.061562
0.0498012
0.000499935
0.060385
0.000463756
0.0770807
0.019091
0.0388562
0.000466481
0.0441133
0.000497028
0.000617138
0.000484268
0.00047599
0.0620062
0.000455052
0.000511813
0.000482643
0.000518144
0.00042537
0.0576662
0.0643469
0.0314501
0.0422825
0.000455351
0.0565163
0.000438598
0.000451335
0.000519856
0.000456091
0.00986009
0.0401158
0.000445281
0.0610396
0.000431321
0.078252
0.0431041
0.0474846
0.00045351
0.000451663
0.000543578
0.000433191
0.000490109
0.000448993
0.0652049
0.000479186
0.0161423
0.000567647
0.00048928
0.0264543
0.00047124
0.0542522
0.000457762
0.000560953
0.0139368
0.0599463
0.000476343
0.0325567
0.0272976
0.0458771
0.0440913
0.000449868
0.0653565
0.000446145
0.00248481
0.000458116
0.000451881
0.000446155
0.00995203
0.0733412
0.0235831
0.0451618
0.0512621
0.0664424
0.000445342
0.0160041
0.00051077
0.000459356
0.0460471
0.0548355
0.000431916
0.0566558
0.000626873
0.000448371
0.0473991
0.000455605
0.00044912
0.0476829
0.000454018
0.00052002
0.0674024
0.00056023
0.0476044
0.000452588
0.000430697
0.000461661
0.0616924
0.000501934
0.000536411
0.000505242
0.000440054
0.000434229
0.000494342
0.00500699
0.000462474
0.0571729
0.000453957
0.000682394
0.0584823
0.000467586
0.0651679
0.000435873
0.000474619
0.0566375
0.000452906
0.00288986
0.0656049
0.0436694
0.0396086
0.000479643
0.0271835
0.000460102
0.0628241
0.00093324
0.000501756
0.0046422
0.000685952
0.021934
0.056462
0.000474909
0.000602312
0.00051273
0.000509132
0.000481646
0.00698007
0.000451351
0.000452632
0.000454059
0.000457279
0.000455572
0.000448516
0.000445558
0.000468119
0.0321196
0.000495187
0.000199779
0.0480157
0.000480339
0.0460432
0.0283148
0.0279746
0.000452688
0.0640792
0.000462113
0.0595642
0.002996
0.0619739
0.0249345
0.0457222
0.0315007
0.000454232
0.000451819
0.000211162
0.000460912
0.000486318
0.0425596
0.000450234
0.00046656
0.0339349
0.0583357
0.000611762
0.0111953
0.0455613
0.000663787
0.000403097
0.000986364
0.0350633
0.000459607
0.00049807
0.0645617
0.000487127
0.000447171
0.000458598
0.000442994
0.000726068
0.0561953
0.0294423
0.000503805
0.000465156
0.00045879
0.000451291
0.000455579
0.0616272
0.000481131
0.000434039
0.000459293
0.0111656
0.053667
0.00045285
0.000445902
0.000497014
0.0343485
0.000446372
0.000479239
0.000529706
0.0752952
0.0357651
0.0652374
0.000526983
0.0275598
0.000497191
0.0442627
0.000492303
0.0560876
0.000451674
0.0595688
0.0466357
0.059891
0.000456529
0.00284471
0.000468407
0.0772384
0.0530876
0.0760126
0.0179847
0.0652737
0.000506107
0.000529472
0.0167781
0.000425395
0.0117033
0.000580179
0.0503474
0.0609087
0.0660151
0.00187761
0.0222609
0.000451652
0.0637719
0.000606284
0.00386793
0.00135707
0.000921297
0.0491208
0.000725926
0.065698
0.000513563
0.0275624
0.000496965
0.0164349
0.0761078
0.000468716
0.0737101
0.0131483
0.000457652
0.0315254
0.000479574
0.00435977
0.000795374
0.00047405
0.0197462
0.0643598
0.000448128
0.0625704
0.000480564
0.000445585
0.0710602
0.0616775
0.024189
0.0435576
0.000447416
0.000450916
0.0275017
0.000439194
0.0636559
0.00104886
0.0622
0.0608845
0.000393709
0.000535451
0.00050581
0.026719
0.0295727
0.0205308
0.000515551
0.000439413
0.0173455
0.0170541
0.000500632
0.00674547
0.000451592
0.0583562
0.000439294
0.000459051
0.000534354
0.0004596
0.000465637
0.000471498
0.0368369
0.0577547
0.000434705
0.000439239
0.0573912
0.0762921
0.000661164
0.000479692
0.0412007
0.000436986
0.0544575
0.0762512
0.0675078
0.000450103
0.000456064
0.00653427
0.0494411
0.000389973
0.000447717
0.0377619
0.000433145
0.0317259
0.0254446
0.000443998
0.0778196
0.0304654
0.00051373
0.000549152
0.00047039
0.000468525
0.0356343
0.000503588
0.00574666
0.000449669
0.000453102
0.00492755
0.000479529
0.000610151
0.0453317
0.000455924
0.0547218
0.0296263
0.000450894
0.0486197
0.00056709
0.000446188
0.0575819
0.0340079
0.0604988
0.000455322
0.0532972
0.000440536
0.000430739
0.0393072
0.0748744
0.068031
0.000435384
0.0310283
0.000449045
0.000137454
0.000451925
0.051514
0.00671341
0.0256341
0.000510836
0.000501482
0.000503042
0.0159075
0.0647085
0.0356924
0.0742693
0.000441081
0.000454869
0.000452179
0.000572204
0.000478426
0.000575451
0.0698379
0.000451522
0.0288897
0.0613267
0.0005175
0.0445147
0.00045072
0.000535499
0.0564358
0.000247101
0.000445412
0.000445306
0.000677499
0.000872489
0.0560351
0.030506
0.0546585
0.000630727
0.04432
0.0203968
0.000469685
0.000526185
0.0541404
0.000752155
0.000452793
0.000501183
0.0317745
0.0299673
0.000433083
0.0625122
0.00044907
0.000427089
0.0120318
0.000464816
0.0653811
0.0601145
0.000571438
0.0442714
0.0472982
0.000458693
0.0529631
0.0379485
0.000498873
0.00048846
0.000493734
0.000451085
0.0780951
0.000443149
0.0762967
0.00050442
0.0234118
0.0053512
0.000449789
0.0748995
0.000483646
0.00925691
0.00613497
0.0335826
0.000557125
0.000437607
0.0750875
0.0004393
0.0514608
0.0213775
0.000703548
0.00152291
0.000433199
0.0729572
0.000448685
0.000505461
0.00047283
0.000562175
0.000451142
0.0364708
0.000449843
0.0173103
0.000590738
0.0541151
0.0284909
0.000482873
0.000473119
0.00113971
0.0594556
0.0519513
0.000437109
0.0735207
0.000823913
0.000453071
0.0267472
0.00044536
0.000479818
0.0576273
0.00575393
0.000683136
0.000447687
0.000626843
0.076729
0.000704595
0.000461638
0.000438043
0.0449862
0.0156532
0.00049686
0.0267843
0.000475806
0.0570924
0.000468973
0.000448295
0.00505088
0.0459029
0.000528056
0.000526597
0.000437308
0.000495577
0.00045898
0.00052756
0.028578
0.0545322
0.000503265
0.000441838
0.0578037
0.000453285
0.000495964
0.000448528
0.019253
0.0408745
0.0541
0.000485108
0.000434429
0.00045877
0.0502252
0.070799
0.0603683
0.000586235
0.055453
0.000509759
0.052249
0.000501796
0.000677871
0.00044691
0.000446405
0.000448153
0.054705
0.000447944
0.000470126
0.0524609
0.0469745
0.0758305
0.0157562
0.000450191
0.0218875
0.00048144
0.0348235
0.000450171
0.0273347
0.000435821
0.000445557
0.0438468
0.0309844
0.000454618
0.000452712
0.000445751
0.0278752
0.000519636
0.0182949
0.000749746
0.0589563
0.0538978
0.0520111
0.042893
0.000449607
0.0600442
0.00432031
0.000491067
0.000450476
0.000461921
0.000444018
0.000453479
0.000450767
0.000442464
0.000456946
0.000453289
0.0004887
0.000893933
0.0453763
0.0440203
0.000454231
0.000449795
0.0271409
0.000449778
0.0460682
0.000450409
0.000476093
0.0556847
0.0732246
0.000499929
0.0114084
0.0149434
0.000295787
0.00109852
0.000551972
0.0521612
0.0504799
0.0153306
0.000469585
0.0725457
0.000458397
0.000448805
0.000545896
0.000438625
0.000491649
0.0004582
0.0373724
0.00577197
0.000434371
0.0479837
0.000446967
0.000492273
0.0563153
0.000434243
0.0942419
0.00109061
0.000452213
0.000444507
0.0285688
0.000450815
0.0739374
0.0717291
0.000450372
0.000469597
0.000476484
0.0583847
0.063674
0.000443731
0.000445835
0.000440394
0.00043854
0.000441118
0.000446296
0.000435577
0.000512199
0.000450192
0.0197089
0.0423138
0.00625476
0.000455415
0.000482818
0.000471631
0.0370704
0.0151796
0.0266965
0.0281851
0.000445426
0.0562336
0.0606202
0.000448453
0.00086218
0.0231882
0.000449986
0.00043811
0.0718643
0.00046395
0.000437951
0.000593591
0.0731897
0.0656933
0.0254216
0.00712132
0.000570573
0.0231058
0.0529909
0.000479748
0.000471397
0.000468226
0.000443224
0.000525528
0.0372091
0.000448465
0.000613821
0.0694197
0.0752198
0.0460786
0.000454168
0.0757286
0.000455051
0.0469523
0.0434309
0.000450378
0.000443789
0.0662101
0.000499499
0.0315959
0.000454455
0.0532708
0.00983952
0.0558526
0.000454306
0.0561978
0.0648072
0.0456901
0.000488909
0.000676065
0.0191697
0.0703188
0.0715203
0.000503364
0.0608684
0.0553167
0.0496616
0.0670975
0.0514691
0.0489367
0.059066
0.0291375
0.0647257
0.0204666
0.000476041
0.0518814
0.0716621
0.0538359
0.000600115
0.000439789
0.0450495
0.000515285
0.0294752
0.0486062
0.0372213
0.0222114
0.075657
0.000451676
0.000444718
0.0660421
0.0754696
0.0555273
0.000467792
0.0147204
0.000455848
0.0426015
0.0355158
0.0358064
0.02918
0.000450247
0.0706492
0.000493043
0.0748151
0.000472173
0.000686659
0.0523647
0.000477985
0.000483091
0.0413979
0.0309608
0.0482459
0.000452763
0.000447668
0.0611149
0.0584865
0.000446979
0.0725455
0.0397878
0.000471374
0.0663495
0.000444058
0.000458447
0.00065362
0.0239275
0.000493198
0.0232242
0.000455723
0.000442007
0.0763936
0.0551611
0.000454651
0.0534492
0.0748334
0.0772431
0.0601685
0.000458564
0.000201675
0.000445626
0.000538135
0.0468463
0.00045632
0.0308356
0.000477493
0.0636861
0.000514162
0.00909506
0.0574097
0.069403
0.0443148
0.000678977
0.0481229
0.0627552
0.000754442
0.0429127
0.000524935
0.0535404
0.0647971
0.0740411
0.000430449
0.000470018
0.000447163
0.0578094
0.00200894
0.000454877
0.0432384
0.0496574
0.06039
0.0473287
0.000777557
0.00065574
0.0385083
0.000457549
0.00489194
0.0520065
0.000475638
0.0723038
0.000440072
0.000452571
0.000475149
0.0620908
0.0612703
0.000444744
0.000471105
0.000455274
0.0541984
0.0593689
0.0371079
0.012545
0.0708906
0.0738906
0.000470282
0.0384428
0.016564
0.000487684
0.000532884
0.000442696
0.000467039
0.000445173
0.0765398
0.0566189
0.0353897
0.000442144
0.000478184
0.000436495
0.000706467
0.00084663
0.0486226
0.0555393
0.0325047
0.000680713
0.000473803
0.000440113
0.00045908
0.0326417
0.0511105
0.000457977
0.000549395
0.000509253
0.0588027
0.0382786
0.0669254
0.00192908
0.000463673
0.0734387
0.000455126
0.0504627
0.048587
0.000506496
0.000746219
0.054845
0.0608482
0.000610493
0.0670347
0.0118018
0.000476081
0.0566579
0.000440093
0.000465418
0.0644926
0.0594075
0.0315195
0.000478067
0.0506825
0.0220429
0.0527461
0.0486682
0.000480031
0.0514192
0.000578798
0.000468765
0.0552988
0.000439655
0.0179693
0.000529805
0.039095
0.0575857
0.0368686
0.000434025
0.000565409
0.0291203
0.0545106
0.0361658
0.0765687
0.0468911
0.000449132
0.0114262
0.000919977
0.000455217
0.000449214
0.00246849
0.000793813
0.0481061
0.000448765
0.000589829
0.0205163
0.000440216
0.00385502
0.000452597
0.0511409
0.000466537
0.000454913
0.0225464
0.000451221
0.0499187
0.000451258
0.000455617
0.0638967
0.000453102
0.000459007
0.000439038
0.0577888
0.00505613
0.000508504
0.0169461
0.0482522
0.0517572
0.000504135
0.000438402
0.0557196
0.000463306
0.0368916
0.000450057
0.0357601
0.0409497
0.000470199
0.000498855
0.0314668
0.000475741
0.000459862
0.0590277
0.0465028
0.000519561
0.0605689
0.00050268
0.0499458
0.0511861
0.000437271
0.000442773
0.000448237
0.0425862
0.0137428
0.0608031
0.0297416
0.065374
0.05785
0.0484074
0.0768783
0.000450499
0.0620736
0.0582293
0.000447334
0.000914773
0.000868531
0.000458721
0.000438818
0.0661753
0.0625038
0.0534679
0.000472158
0.000519387
0.00542866
0.0685247
0.000473131
0.00196048
0.000794399
0.0535608
0.0321515
0.0502312
0.0373814
0.0208003
0.066116
0.000443387
0.0594433
0.000477385
0.000469232
0.0677021
0.00044971
0.000442352
0.0623195
0.000455022
0.000494928
0.048841
0.000467937
0.000451881
0.0558291
0.0476429
0.0506892
0.000481072
0.0502832
0.000446711
0.000492058
0.0484158
0.0336104
0.0560564
0.000451524
0.0222167
0.000458386
0.0252479
0.000449613
0.000326553
0.000455605
0.0515348
0.000453875
0.000568832
0.0647878
0.000455574
0.0436114
0.0423758
0.052306
5.95597e-09
0.000451894
0.000430395
0.0281539
0.0564665
0.000451068
0.0528398
0.0265707
0.0556819
0.00261916
0.000526452
0.00908026
0.0538604
0.0269014
0.000870161
0.0665935
0.000438271
0.028382
0.000451332
0.0273
0.000547679
0.0676662
0.0579617
0.049077
0.0602419
0.0308677
0.000485547
0.0010405
0.00046611
0.0417981
0.000444712
0.0560156
0.000486959
0.0493941
0.00170292
0.0113309
0.0591493
0.000505221
0.0617333
0.000453906
0.0629913
0.00047971
0.000524765
0.0443777
0.000468336
0.0141877
0.0221011
0.0612022
0.0558111
0.0478067
0.0625784
0.0675171
0.0563856
0.000451991
0.000455627
0.000966153
0.000452091
0.000443839
0.0195633
0.0673829
0.0612839
0.000452112
0.0549975
0.00347015
0.000682643
0.0513138
0.0707907
0.000451872
0.0481858
0.000755152
0.0666299
0.000487149
0.0480398
0.0735462
0.000421327
0.0453609
0.000448863
0.0645817
0.0499889
0.0513818
0.0103399
0.0283206
0.0518408
0.0328124
0.0490817
0.000474658
0.0573399
0.000491389
0.000790526
0.000455457
0.0412532
0.0262191
0.000471869
0.000445891
0.0017754
0.000463659
0.000382192
0.00215368
0.0514038
0.000449872
0.058535
0.0581623
0.0554025
0.0631168
0.0289251
0.0584147
0.0144364
0.0766958
0.057414
0.00046286
0.0457827
0.0311576
0.000483672
0.0499679
0.0532723
0.000512585
0.011259
0.000586462
0.000460888
0.000445434
0.0266878
0.0709388
0.000507075
0.0495931
0.0273242
0.00304779
0.0596733
0.0312517
0.028119
0.0625121
0.000527524
0.0558205
0.000452034
0.048385
0.00044464
0.0676427
0.000455025
0.0622724
0.00173221
0.000444465
0.0715157
0.0485861
0.050187
0.0470787
0.00051804
0.0686924
0.0274864
0.000435803
0.0250986
0.0592365
0.000454983
0.0272033
0.000452404
0.0592445
0.000485376
0.000504709
0.000434986
0.049169
0.0459518
0.0394716
0.0383748
0.000702952
0.0758775
0.0613161
0.000446801
0.000454103
0.0520289
0.0558863
0.00335009
0.0324819
0.060776
0.0599909
0.0455489
0.0604632
0.0267775
0.000496503
0.0468421
0.000469817
0.0544609
0.0067143
0.000457082
0.0602084
0.0739937
0.00380315
0.00584647
0.000479012
0.000433994
0.000448985
0.000455663
0.0204563
0.0683005
0.000447495
0.0284205
0.0124994
0.000496722
0.0162019
0.0464085
0.000434813
0.000542528
0.000453316
0.0514536
0.000485992
0.000508587
0.000442445
0.000457785
0.000922305
0.000433802
0.000797202
0.0542574
0.0268466
0.000484976
0.000500563
0.0481926
0.0586396
0.0269623
0.000466127
0.00127836
0.0562145
0.00043672
0.0541445
0.0614868
0.0498204
0.000749423
0.0294213
0.0484976
0.0265383
0.000609832
0.000701071
0.045432
0.0266352
0.0449709
0.0407939
0.000337971
0.0731875
0.00120898
0.0501579
0.000454462
0.0688148
0.0456166
0.0524334
0.0643272
0.0673023
0.000443986
0.0582809
0.000474895
0.000448432
0.000858691
0.000499888
0.000461578
0.000462748
0.0242841
0.0445145
0.0754721
0.0779978
0.0664298
0.000429649
0.0487258
0.0387287
0.029629
0.000441152
0.0655287
0.00048828
0.0583302
0.0528782
0.049267
0.0135499
0.0673607
0.0782128
0.0203683
0.00052522
0.048587
0.00399104
0.0405967
0.00281083
0.0455511
0.0360331
0.0497222
0.0227233
0.0424474
0.0742375
0.0557388
0.000772427
0.0574966
0.00048794
0.00272212
0.000452871
0.0560386
0.0551138
0.0440779
0.000771706
0.000521996
0.0261051
0.0721996
0.000768313
0.0488742
0.000515011
0.000440259
0.0307591
0.000481801
0.000450445
0.0555233
0.00052262
0.000464374
0.0696915
0.0631099
0.0466814
0.000437806
0.0731102
0.0256753
0.000513026
0.000529949
0.000451271
0.000465688
0.000499755
0.000563739
0.000505795
0.000464378
0.0724251
0.0280635
0.0393811
0.0738997
0.0150746
0.00068682
0.0444375
0.000682181
0.0291799
0.000442854
0.0129535
0.000511966
0.0264366
0.00805894
0.000487231
0.0520727
0.000523143
0.00765967
0.0563415
0.000443127
0.0116591
0.0569352
0.000869874
0.0688978
0.059113
0.000755491
0.000634485
0.000901601
0.000655733
0.000466514
0.000727978
0.0740559
0.0172177
0.0632508
0.0541971
0.00086871
0.000972477
0.0260108
0.0629729
0.0236809
0.000975114
0.000503465
0.0538042
0.000480788
0.0479056
0.0702108
0.0147235
0.0218884
0.000469847
0.0662425
0.0697021
0.000466593
0.0149871
0.0573486
0.0202937
0.000681848
0.000437121
0.00611318
0.0733411
0.000493178
0.00045483
0.0201902
0.000452685
0.000534385
0.000409121
0.000702983
0.0646278
0.0103874
0.0589601
0.000467266
0.0522727
0.072282
0.00109682
0.0269678
0.000476224
0.00926486
0.0488581
0.000490961
0.000498208
0.000493554
0.000824367
0.000588546
0.000446462
0.0010558
0.0536793
0.0465545
0.000565234
0.000533798
0.0521387
0.0551583
0.0321477
0.0768846
0.0624696
0.0473304
0.00046377
0.000544365
0.0253545
0.000449069
0.0215762
0.0544935
0.000555559
0.000510839
0.0536264
0.069703
0.000455104
0.0608217
0.000438759
0.000488004
0.0352018
0.0351193
0.000522683
0.000504938
0.00152612
0.0715257
0.0469013
0.0692867
0.0510101
0.0620705
0.000451995
0.000545564
0.0477472
0.0270933
0.047139
0.0299446
0.000471224
0.0600384
0.000622699
0.0380837
0.0697505
0.000455073
0.000523526
0.000499423
0.0739689
0.0502538
0.0604187
0.000443389
0.000702577
0.00357101
0.0498471
0.0689237
0.000561838
0.000440694
0.000639776
0.0580139
0.0653114
0.000504608
0.0540716
0.0746343
0.0460975
0.000446394
0.0637206
0.0702643
0.000442661
0.0793509
0.000995899
0.0226918
0.000474378
0.000483733
0.000454848
0.0725642
0.0649404
0.068717
0.0148487
0.000482293
0.0264004
0.000452854
0.00499093
0.00559392
0.0705097
0.00137698
0.000452831
0.000448204
0.00076741
0.000490334
0.000496503
0.000510347
0.000463715
0.0321194
0.000441936
0.0429525
0.000511814
0.000449525
0.0239745
0.000442721
0.000455853
0.0467064
0.000462922
0.000573324
0.000448423
0.0580915
0.041373
0.0539276
0.000445049
0.000445867
0.0626778
0.0757288
0.0514188
0.0560535
0.0335162
0.024918
0.000489032
0.000449182
0.0453037
0.0217279
0.000704274
0.0778741
0.000495887
0.000501665
0.000476584
0.000494619
0.063877
0.000448608
0.000452555
0.0152238
0.000455471
0.0574532
0.00045818
0.00181763
0.000812555
0.000453331
0.000448845
0.0569578
0.0247721
0.000477409
0.0352181
0.000480585
0.000445717
0.0392033
0.0290808
0.000448826
0.0305707
0.0658159
0.000488579
0.000481326
0.0292491
0.0182959
0.00063804
0.000451051
0.000858022
0.000446371
0.0628191
0.06531
0.000440018
0.000495278
0.000513551
0.0300039
0.069289
0.000457561
0.0616865
0.00948418
0.000448132
0.000767687
0.000451833
0.0714086
0.0242423
0.000450187
0.0403086
0.0509297
0.000773466
0.0321911
0.0571754
0.00049998
0.0378768
0.000802388
0.000450736
0.0668924
0.000485054
0.000661288
0.000468385
0.0105554
0.000763993
0.0192633
0.0249906
0.000448055
0.00740484
0.00044259
0.0360328
0.000461697
0.0005172
0.000449131
0.000465545
0.000445394
0.056104
0.000609286
0.0632348
0.0677919
0.0765508
0.0727938
0.0785954
0.000488853
0.021666
0.0031049
0.000484538
0.0619214
0.000502341
0.0656123
0.0601098
0.000623111
0.000535004
0.017298
0.0480849
0.000449526
0.0719631
0.000523895
0.000763416
0.07122
0.000444876
0.071023
0.0108891
0.07167
0.000463012
0.00046167
0.000460504
0.000454968
0.000452394
0.0133037
0.0559719
0.0380142
0.000449832
0.0582755
0.00432387
0.000572661