/*--------------------------------*- C++ -*----------------------------------*\
| =========                 |                                                 |
| \\      /  F ield         | OpenFOAM: The Open Source CFD Toolbox           |
|  \\    /   O peration     | Version:  v2012                                 |
|   \\  /    A nd           | Website:  www.openfoam.com                      |
|    \\/     M anipulation  |                                                 |
\*---------------------------------------------------------------------------*/
FoamFile
{
    version     2.0;
    format      ascii;
    class       volVectorField;
    location    "100";
    object      U_0;
}
// * * * * * * * * * * * * * * * * * * * * * * * * * * * * * * * * * * * * * //

dimensions      [0 1 -1 0 0 0 0];


internalField   nonuniform List<vector> 
13308
(
(0.989721 -0.0707726 0)
(-0.19666 0.0758548 4.72799e-20)
(-0.168147 -0.0103288 -2.53288e-20)
(1.0053 -0.000687459 -8.81706e-22)
(1.18717 0.0367018 -1.38558e-20)
(1.01946 0.000580073 -1.38057e-22)
(1.20252 0.0962948 -9.58458e-20)
(1.11525 0.016056 0)
(1.20798 0.0798693 0)
(0.219266 -0.0116933 -3.218e-20)
(0.616567 -0.232372 0)
(0.73661 -0.187024 -2.37578e-20)
(1.01946 0.000476688 0)
(1.04088 0.00401592 0)
(1.01733 0.000481805 0)
(-0.170933 -0.0114502 0)
(0.988545 -0.00345111 -2.48278e-23)
(-0.193487 0.0778774 2.31184e-20)
(0.798447 -0.0795072 -1.01116e-20)
(0.804675 0.117683 3.31787e-20)
(1.04568 0.0353513 -1.762e-23)
(-0.108255 0.0111076 2.62816e-20)
(0.169832 0.0455995 7.11023e-20)
(1.15903 0.042483 5.64509e-20)
(-0.172924 -0.0122869 0)
(-0.0300179 0.0189628 -5.93903e-20)
(1.18438 0.0613715 -2.92835e-20)
(0.635067 -0.25807 6.02007e-22)
(1.18689 0.0595832 -3.0793e-20)
(1.16877 0.114151 0)
(-0.214256 0.0685718 7.12886e-20)
(1.16601 0.101773 0)
(0.118695 0.0402714 0)
(1.21048 0.0548021 0)
(0.732381 0.193966 8.08569e-21)
(0.990891 -0.00343668 -2.89265e-21)
(1.20239 0.093023 7.87962e-20)
(0.205243 0.0493766 -2.87502e-20)
(1.10888 0.0489712 1.72248e-22)
(-0.174058 -0.0125847 1.38097e-20)
(1.05385 0.00130505 0)
(1.11344 -0.000187399 1.98257e-20)
(0.552051 0.278522 2.06168e-21)
(1.03099 0.0133414 -1.18541e-20)
(1.10401 0.0538262 0)
(1.20147 0.0768443 0)
(1.01522 0.000316095 2.60226e-24)
(1.00324 -0.000355862 7.30613e-23)
(1.0339 -0.095568 6.06189e-22)
(-0.174612 -0.0119939 2.59271e-20)
(1.03221 0.00209479 1.30894e-21)
(1.04485 0.0373584 0)
(-0.16494 -0.00304403 1.29317e-19)
(0.848748 0.356817 9.19242e-21)
(-0.198106 -0.0308398 -1.31804e-19)
(-0.212294 -0.0297033 -2.57317e-20)
(1.03039 0.0122669 -5.36671e-21)
(1.04263 0.0369144 -7.30773e-21)
(1.13719 0.0501422 2.41308e-20)
(1.13321 0.0493987 0)
(0.856188 0.0826618 6.83406e-21)
(0.229295 0.0511753 -9.03474e-20)
(1.04318 0.0366924 1.15144e-20)
(1.06782 0.00482991 0)
(1.00298 0.00164793 -1.3236e-21)
(0.101012 0.0387382 -1.69031e-20)
(1.01568 0.00534147 -3.15947e-21)
(1.16173 0.0806588 0)
(0.997405 -0.00151565 -1.87133e-21)
(1.18729 0.185423 0)
(-0.228501 0.0294167 0)
(1.10605 0.0495132 1.47447e-20)
(1.08507 0.0791676 1.12489e-21)
(1.16807 0.105701 1.72213e-20)
(0.909177 0.0860872 -9.54833e-20)
(1.0315 0.0290337 -5.47716e-21)
(1.02985 -0.00663767 0)
(-0.217355 -0.031721 1.47197e-20)
(1.04159 0.0259573 -7.24095e-21)
(0.919299 -0.0546845 1.11602e-21)
(1.06503 0.0459486 7.91922e-21)
(1.03689 -0.0114156 0)
(1.03044 0.0286477 2.81566e-21)
(1.14961 0.0465424 0)
(1.15028 0.0961898 0)
(1.1171 0.0145553 0)
(-0.187968 -0.0292263 9.63655e-21)
(0.0203632 -0.0687997 1.60579e-20)
(1.04788 0.0457873 2.36894e-21)
(0.90149 0.138308 -3.55858e-20)
(1.09625 0.0288317 -4.13769e-20)
(1.01532 0.00771739 0)
(1.1833 0.0668874 2.47956e-20)
(1.04691 0.0377441 1.19267e-21)
(1.03512 0.00268986 1.06625e-20)
(1.00687 -0.00473774 -1.48194e-21)
(1.1165 -0.000551125 4.28965e-22)
(0.922571 -0.0665028 -3.22383e-21)
(-0.188396 0.0152379 -1.229e-20)
(1.17849 0.180385 0)
(1.09348 0.0281733 3.52011e-22)
(1.05483 0.000271951 1.29474e-20)
(1.00739 0.00293956 1.60273e-21)
(1.04863 0.0385594 0)
(0.647213 -0.0253566 7.98458e-21)
(-0.209455 0.071482 -3.04558e-22)
(-0.161943 -0.00831055 2.51552e-20)
(0.994938 -0.00110391 1.63579e-21)
(-0.103118 0.00612751 0)
(-0.010032 0.0223373 6.12998e-20)
(1.13573 0.00871631 -2.66014e-20)
(1.24832 0.0272188 -2.07381e-20)
(1.01955 0.0119512 5.39665e-22)
(1.04083 0.0246832 6.84185e-21)
(1.02017 0.0106738 -6.1225e-22)
(0.811896 -0.0909509 1.47483e-20)
(1.19564 0.0774568 -8.02601e-20)
(0.689209 0.126418 5.12566e-21)
(1.18602 0.0648954 8.17398e-20)
(1.03889 0.0339071 0)
(1.1759 0.049486 -2.29168e-20)
(1.04572 0.0446451 0)
(0.995365 0.00322246 8.53209e-22)
(0.964402 0.0185862 -3.84442e-22)
(0.767195 -0.0220033 -2.42148e-22)
(1.14567 0.113764 0)
(1.0908 0.101388 9.7991e-20)
(1.13429 0.09992 -8.88053e-20)
(1.07945 0.085037 -3.62503e-22)
(-0.186644 -0.0209937 0)
(-0.182562 0.0230068 0)
(1.05405 0.0232018 2.30997e-22)
(1.06935 0.00508778 -1.60093e-20)
(1.00819 -0.0050774 7.57124e-22)
(1.20814 0.0737534 -9.39917e-21)
(0.969114 0.0133016 -6.6374e-21)
(1.01772 0.00758003 0)
(0.780826 -0.0032512 0)
(0.981149 -0.0141236 0)
(1.11743 -0.00249326 2.13352e-20)
(-0.191889 -0.0169723 9.13173e-21)
(1.13358 0.00763178 0)
(1.05883 0.0114726 0)
(1.02085 0.0141713 0)
(1.12013 0.0274419 4.40987e-20)
(0.995426 0.111134 5.16215e-21)
(1.08166 0.14735 0)
(0.928209 0.150277 -5.83343e-20)
(1.06606 0.0443997 -1.55341e-20)
(1.05575 0.00981151 1.58213e-21)
(-0.189332 -0.0283246 -2.12997e-19)
(1.00951 0.0017143 0)
(0.154892 -0.0549012 6.02735e-20)
(0.874102 0.0606246 1.49393e-20)
(0.660516 0.0809957 0)
(1.00175 -0.0149093 -6.12069e-21)
(0.989426 -0.000299771 7.60977e-22)
(0.996563 0.00575709 -5.52034e-22)
(1.05421 0.0011658 0)
(0.764421 -0.219567 0)
(0.183013 -0.039809 4.1992e-20)
(1.04429 0.0377181 6.74397e-21)
(1.05741 0.0109797 -5.69182e-21)
(0.271885 0.055303 8.17508e-20)
(1.01181 -0.0208065 6.96794e-21)
(1.09762 0.0433823 0)
(-0.113757 0.00901681 5.54214e-20)
(0.996139 0.00536015 -5.93419e-23)
(-0.109596 0.00498849 -3.83392e-20)
(1.18379 0.0229459 4.58802e-20)
(1.13463 0.00428827 7.50143e-20)
(0.690284 0.107188 -2.3034e-20)
(1.00813 0.00124307 -2.22418e-21)
(-0.184366 -0.0153163 -1.46706e-20)
(-0.199681 -0.031561 -2.55586e-23)
(-0.0675845 0.0131791 -7.38297e-20)
(-0.0948669 0.0132501 8.28937e-20)
(-0.170695 -0.0108533 1.30103e-20)
(1.06157 0.00557083 -1.19948e-21)
(0.98908 9.99439e-05 8.35993e-22)
(0.830696 -0.0961393 -9.03428e-21)
(-0.163627 0.00347676 -2.3542e-21)
(1.01336 0.00483445 2.79328e-21)
(0.264941 0.0113742 1.03426e-21)
(0.619946 0.0750905 0)
(0.994489 -0.00272489 6.69976e-22)
(-0.210237 -0.0279027 2.3994e-20)
(-0.215316 0.064058 0)
(1.17381 0.114546 0)
(0.922083 0.234723 0)
(0.940747 0.238829 0)
(0.750395 0.113152 0)
(1.12099 0.0294421 -1.92431e-20)
(0.718196 -0.185622 -2.31755e-20)
(1.12181 0.0212401 -4.23186e-20)
(-0.0583394 0.0141206 6.21815e-20)
(1.13243 0.00307573 -5.58434e-20)
(1.09432 0.137673 -2.49629e-21)
(0.578435 0.0682097 8.98016e-20)
(1.11287 0.00158658 2.44914e-20)
(-0.16324 -0.0087785 -2.14777e-20)
(-0.164323 -0.0016656 -1.85151e-19)
(0.474606 -0.131806 5.73571e-22)
(1.20625 0.0708908 2.4226e-21)
(-0.184826 -0.0195168 0)
(1.23467 0.0711245 -3.80225e-20)
(-0.180804 -0.015891 1.61757e-20)
(0.867974 0.0825295 8.75564e-20)
(0.914199 0.266063 1.47378e-21)
(-0.200339 -0.0311984 7.18063e-20)
(0.895682 0.263342 3.94569e-22)
(1.06876 0.211471 1.5128e-20)
(1.21045 0.0182311 1.16549e-20)
(-0.187476 -0.0152244 2.74021e-20)
(0.109879 0.040228 1.09501e-19)
(1.03734 0.0472574 0)
(0.9881 -0.000192371 -9.76537e-22)
(0.0717393 -0.0531843 3.2716e-20)
(0.778431 -0.209343 2.46817e-21)
(0.853108 0.0852852 6.63247e-20)
(0.665394 -0.271954 -1.73548e-21)
(1.0127 0.00231325 -5.71579e-21)
(1.02001 -0.0117434 0)
(1.02579 0.00757827 -9.46121e-23)
(1.04657 0.0472066 0)
(-0.17265 -0.0119882 -6.04405e-20)
(1.01394 0.086722 0)
(0.700596 -0.0297294 -1.51335e-20)
(-0.215059 -0.03038 1.39367e-22)
(1.2362 0.069865 3.90488e-20)
(-0.18419 -0.0170275 -1.51453e-20)
(1.02921 0.0510816 1.4962e-23)
(-0.172412 -0.0117049 -6.22899e-21)
(1.10575 0.0979536 0)
(0.978009 -0.0830452 0)
(1.20784 0.0108423 -5.52858e-20)
(-0.156597 0.0367842 0)
(0.797752 0.0304858 0)
(0.666442 0.0771605 -4.62184e-20)
(1.02813 0.0532425 8.71134e-23)
(1.15114 0.049577 0)
(0.969397 -0.0834026 0)
(1.04774 0.0360652 2.44911e-21)
(1.02288 0.00319136 4.45327e-23)
(0.827738 -0.209005 2.07875e-21)
(0.596224 0.0751312 -1.48706e-20)
(1.07214 0.222459 -1.91789e-20)
(1.11991 0.145351 6.36824e-20)
(1.02761 0.00832426 0)
(0.656572 0.0756879 7.0564e-21)
(0.125054 0.0413646 -1.08536e-19)
(0.121354 0.04002 -4.50495e-20)
(1.05541 0.000683132 -4.12434e-21)
(0.206363 0.0490325 2.67578e-21)
(0.454135 0.0524504 8.83259e-20)
(1.03752 0.0494805 1.64179e-22)
(0.119116 -0.0764383 -2.22114e-20)
(1.01302 0.00235877 3.47532e-21)
(0.309174 0.243329 0)
(-0.214607 -0.0309143 5.58358e-20)
(1.16654 0.117008 0)
(1.18169 0.154874 0)
(1.20767 0.0128969 0)
(1.01214 0.0230996 1.02567e-21)
(1.02794 -0.0148509 5.63664e-21)
(1.05261 0.0257015 2.88223e-22)
(0.735159 -0.219844 2.12338e-20)
(1.06701 0.00383902 0)
(0.677657 -0.26248 0)
(-0.159991 -0.00674625 0)
(1.06253 0.244351 2.30643e-20)
(1.17969 0.0500265 8.1443e-20)
(1.04122 0.00342669 -7.86113e-21)
(0.991038 -0.0236604 0)
(1.04619 0.0273085 -1.11879e-21)
(1.00202 0.00121317 7.19646e-22)
(1.01201 -0.0050179 4.27764e-22)
(0.790886 -0.248268 6.02867e-21)
(1.18914 0.0347623 -3.0995e-20)
(0.992067 0.0566751 2.58877e-21)
(-0.0425986 0.0171326 2.7839e-20)
(1.05276 0.00157404 1.98522e-20)
(1.05791 0.0744851 -2.37939e-21)
(1.03503 0.0514241 -1.17814e-22)
(-0.218306 0.0602578 0)
(0.978708 0.325727 1.40789e-20)
(1.0121 0.0224709 -7.09427e-22)
(0.981998 -0.0722788 0)
(0.97336 0.0731124 1.29509e-22)
(0.668982 0.285604 3.29271e-20)
(1.18228 0.0727608 2.47276e-20)
(1.01359 0.0125877 7.14985e-21)
(1.22844 0.045166 4.26551e-20)
(-0.163983 0.00182021 9.22543e-21)
(1.00059 0.00893802 0)
(0.626928 0.154811 7.13607e-21)
(-0.216946 -0.0293855 5.83702e-20)
(1.15865 0.119178 2.80365e-21)
(0.984045 0.0596555 5.47043e-21)
(-0.171698 -0.0114263 1.40675e-20)
(0.103549 0.0382173 -2.28871e-20)
(1.00243 0.0255377 1.73484e-21)
(-0.039115 0.0175751 6.40527e-20)
(1.00858 0.106118 -5.19591e-20)
(0.964299 0.100924 3.67108e-20)
(1.02461 -0.0709939 2.09786e-21)
(1.16487 0.0882687 3.83347e-20)
(-0.183014 -0.0143679 -2.86972e-20)
(1.0228 0.142815 -2.97885e-20)
(0.994544 -0.00300295 0)
(0.678536 0.0767517 7.47498e-22)
(-0.0917252 -0.0621389 -5.23146e-20)
(1.1849 0.0705419 -5.32149e-20)
(0.50343 -0.174071 -2.91361e-22)
(0.678342 0.236483 0)
(-0.201065 -0.0320701 0)
(0.993822 0.000919813 -2.99881e-22)
(1.00012 0.00862582 0)
(1.05204 0.00208557 1.8288e-20)
(1.25761 0.0409484 1.82553e-20)
(1.05545 0.00062821 2.22486e-20)
(1.0349 -0.0104053 0)
(-0.187561 -0.0211933 0)
(1.02535 -0.00795321 0)
(-0.17114 -0.0237234 -4.78678e-20)
(1.02171 0.0128369 3.24517e-22)
(1.03227 0.0502974 3.16821e-23)
(1.08147 0.00831755 0)
(1.10653 0.0530477 -1.65397e-20)
(1.10186 0.035318 -3.18328e-22)
(0.0607166 0.0320817 5.09348e-20)
(1.02806 0.00447073 -5.68485e-21)
(1.03811 0.142067 7.12563e-22)
(1.02092 0.0237659 0)
(1.00503 -0.00219489 -1.98314e-21)
(0.864973 -0.0429692 -6.45329e-21)
(-0.162283 -0.00793675 0)
(0.996724 0.00571391 3.2181e-22)
(1.01804 0.0830699 0)
(1.03949 0.174916 0)
(1.1759 0.0293667 2.47983e-20)
(1.0803 0.00708707 0)
(1.03969 0.0145557 1.69265e-20)
(1.20784 0.0565385 -2.01551e-20)
(0.838676 0.00474903 0)
(0.614407 0.282707 3.48087e-20)
(0.983967 0.0988476 -2.65286e-22)
(0.993881 0.102478 -1.4676e-21)
(1.03625 0.000262989 0)
(1.04539 0.0325714 -2.2297e-21)
(1.21262 0.0200084 -1.29988e-20)
(-0.0540943 0.0415696 5.48035e-20)
(0.414884 0.315682 0)
(1.01182 0.0106444 0)
(1.02713 -0.102712 -1.08066e-21)
(1.03174 0.0308565 -1.34976e-21)
(-0.159106 0.0223938 0)
(1.0442 -0.0804316 0)
(0.983138 0.089502 2.57136e-22)
(0.394848 0.0415283 2.41292e-20)
(0.555533 0.308708 -2.66179e-22)
(1.20602 0.0765987 9.86943e-21)
(1.18499 0.025951 0)
(1.05872 0.23303 -1.93977e-20)
(-0.160068 0.00750083 -3.25494e-20)
(0.111854 0.0389705 -1.52057e-20)
(1.03987 0.013785 -1.61415e-20)
(1.02232 0.00393712 -6.72026e-23)
(1.04177 0.0365472 -1.29417e-20)
(1.17362 0.00146619 1.29224e-20)
(-0.157502 -0.00693069 0)
(-0.0995839 -0.0300585 -5.11473e-20)
(1.22163 0.149751 0)
(1.03267 0.00235982 1.15123e-20)
(1.04089 0.0356832 1.23553e-20)
(1.00153 0.0465093 0)
(0.295966 0.0573234 -1.67178e-19)
(0.121591 0.0395805 -1.20212e-20)
(1.06626 0.0480685 -8.00169e-21)
(0.800493 -0.250455 5.27772e-21)
(1.09357 0.0466428 8.09469e-21)
(1.02076 0.02429 2.76306e-22)
(0.925028 -0.120506 4.14139e-21)
(1.1953 0.0326526 -5.21935e-20)
(1.01029 -0.0044465 -1.77685e-21)
(-0.162349 0.00649256 0)
(1.24511 0.0250202 1.80186e-20)
(1.13258 0.0618203 0)
(1.01474 0.00519112 3.08178e-21)
(0.31291 0.0434295 3.81052e-20)
(1.04444 0.0330494 1.23951e-21)
(0.953835 -0.0914623 -3.34017e-21)
(1.12068 0.0745129 -9.47642e-23)
(-0.165315 -0.00934412 2.65311e-20)
(0.702187 0.15134 5.73177e-21)
(1.15427 0.119541 -1.04206e-20)
(0.834768 0.335723 5.61987e-22)
(1.01086 0.0103487 0)
(0.855913 -0.00490859 0)
(1.09745 0.00824021 -4.47068e-20)
(0.80458 -0.188476 0)
(0.987784 9.94562e-05 -1.12943e-21)
(1.18053 0.168863 0)
(0.0969659 0.0379158 1.5227e-20)
(1.04346 0.0194988 -1.24174e-23)
(0.711915 0.173906 -9.24959e-21)
(0.989347 -0.000309437 1.22747e-21)
(0.995031 0.00295097 -8.6591e-22)
(-0.16495 0.023441 -5.8667e-20)
(0.71301 -0.0514722 -6.3311e-21)
(0.993664 -0.00635574 -2.85268e-21)
(1.22108 0.149955 -8.53965e-20)
(0.97823 0.201787 0)
(1.01036 0.00953507 1.90107e-21)
(1.01742 0.0104021 3.15524e-21)
(0.532274 0.0725464 -1.47469e-20)
(1.09097 0.0468793 -3.53516e-23)
(1.01725 0.0107791 0)
(1.13449 0.056425 2.39379e-20)
(0.994109 0.0480551 -1.21846e-21)
(0.972514 0.0835982 -1.85061e-21)
(1.04046 0.0355571 0)
(1.17232 0.0288795 -4.4336e-20)
(1.07373 0.0447845 0)
(1.01855 0.0102328 -8.22283e-22)
(-0.157697 -0.00707657 -5.00022e-20)
(1.06372 0.187413 0)
(1.12039 0.0228796 -2.51648e-20)
(0.824076 0.332898 -8.85399e-21)
(0.924844 -0.120407 -3.3949e-21)
(0.907914 0.315184 0)
(0.993803 -0.000504868 -1.14597e-21)
(1.10536 0.0713078 3.78711e-22)
(0.198114 0.0444901 1.20231e-21)
(1.01073 0.0189014 -1.5964e-21)
(1.02414 -0.00505261 7.86696e-22)
(0.344656 0.0611417 8.15885e-20)
(1.01632 0.00792271 5.60835e-21)
(1.18395 0.0764228 -4.27704e-20)
(-0.177079 -0.0137212 -3.24508e-20)
(-0.167796 -0.00862357 -5.33613e-20)
(-0.055367 0.025583 0)
(-0.166949 -0.00928837 5.07998e-20)
(1.03981 0.0348248 5.42671e-21)
(-0.15577 0.0263798 1.05519e-19)
(1.16987 0.00191986 -2.65327e-20)
(0.681303 0.0490026 -4.1642e-21)
(-0.164689 -0.00227216 0)
(1.0129 0.00559735 -4.18747e-21)
(0.654106 0.0759129 0)
(0.99611 -0.0763954 0)
(0.0288259 0.0258508 -7.35729e-20)
(0.97983 0.188121 -3.10182e-21)
(-0.13858 0.0454627 0)
(1.15844 0.0398297 -3.63998e-20)
(1.16641 0.0814141 3.27536e-20)
(1.18949 0.0212399 1.77104e-20)
(0.955763 0.207377 -5.56002e-21)
(0.231841 0.051349 0)
(1.17295 0.164952 0)
(0.825387 -0.175724 0)
(-0.162042 0.0400494 5.26621e-21)
(1.02142 0.00334411 -8.29536e-21)
(0.172265 -0.0470786 0)
(1.0386 0.0330555 0)
(-0.23154 -0.0372984 8.93459e-20)
(0.996435 0.00538893 -5.14515e-22)
(1.07388 0.0458756 0)
(1.03577 0.0237222 -1.43358e-20)
(-0.154578 -0.00507554 4.22789e-20)
(1.00706 0.0826825 1.72112e-19)
(1.07786 0.00490492 0)
(0.273046 0.0554227 3.34505e-20)
(1.08139 0.0377378 -1.97523e-20)
(0.957235 0.221711 6.4353e-21)
(0.117367 0.0393661 1.16126e-20)
(1.04374 -2.65787e-05 -3.30062e-21)
(1.13419 0.0130549 0)
(0.793188 0.129545 7.35885e-21)
(1.03841 0.0143896 0)
(1.01714 0.184998 1.60018e-21)
(1.05315 0.000517003 0)
(0.999224 0.187856 0)
(1.01123 0.0197826 2.42924e-21)
(1.10258 0.177417 -3.91774e-20)
(1.07538 0.0434229 0)
(1.03103 -0.0874756 0)
(0.790347 0.12214 6.54054e-21)
(1.13597 0.0114545 2.74285e-20)
(1.01843 0.00844406 -6.07195e-21)
(1.0167 0.012602 9.11906e-21)
(1.16646 0.0911336 -6.55929e-22)
(0.775553 0.103582 -1.36001e-20)
(1.02799 -0.00689896 1.77194e-23)
(1.04351 0.0218095 3.1734e-23)
(1.07767 0.0437448 -2.47397e-21)
(1.01611 1.03504e-05 0)
(0.851222 0.368605 1.24956e-20)
(-0.23171 0.0116906 1.21724e-19)
(0.0548721 0.0238195 6.5599e-20)
(0.851967 0.0776287 -1.36974e-20)
(-0.229526 -0.0366607 0)
(0.606897 0.247501 -3.88391e-21)
(0.737805 -0.205568 -1.66986e-21)
(1.12903 0.0598797 0)
(1.00847 0.0162278 -4.9413e-23)
(1.10866 0.216922 2.99256e-21)
(-0.166929 -0.00877408 -6.01788e-20)
(0.994171 0.000806739 9.57007e-22)
(-0.101735 0.00646548 -9.07734e-21)
(1.04926 0.0013472 0)
(1.13592 0.126252 8.38069e-21)
(1.1004 0.0431607 -2.90723e-20)
(1.00189 0.00978546 0)
(1.15624 0.0448195 5.32796e-22)
(1.21198 0.0294229 0)
(1.21565 0.0422548 6.77855e-22)
(1.04991 0.00160661 0)
(1.02538 0.0524411 -1.69257e-21)
(0.10116 0.0375787 -1.31098e-20)
(0.859675 0.293951 0)
(0.399626 0.287687 0)
(0.615563 0.07438 0)
(0.962539 -0.0936508 2.83935e-21)
(0.991741 -0.000592577 0)
(1.21451 0.0475722 -1.10964e-20)
(1.0382 0.0151964 3.75914e-21)
(1.02313 -0.00504484 -7.9308e-22)
(0.889629 0.282363 -6.45378e-21)
(1.14427 0.107029 0)
(1.10325 0.172239 1.14249e-20)
(1.21238 0.0322803 -4.22934e-20)
(0.26877 0.0551456 -5.14342e-20)
(-0.15182 0.000629656 9.79993e-20)
(0.994199 -0.00293686 -2.92504e-22)
(0.809082 -0.0379153 3.84163e-21)
(0.968224 -0.0856273 -3.24125e-21)
(-0.154974 0.0233398 2.32294e-20)
(1.03162 -0.00725878 1.12441e-21)
(0.905035 0.0826441 -1.51213e-19)
(1.03244 0.0129572 5.90203e-21)
(1.08801 0.0967139 -6.74758e-22)
(1.0548 0.00031796 4.85216e-21)
(0.633555 0.00201802 -1.70376e-20)
(1.09815 0.0438095 3.83358e-20)
(-0.173064 -0.0216328 -7.95292e-20)
(-0.23808 0.00355408 -7.62317e-22)
(0.710763 -0.0135878 2.74806e-20)
(1.01669 0.0073288 -5.87213e-21)
(1.00924 0.0182569 1.32744e-21)
(0.262242 0.0539433 0)
(0.705779 -0.0728702 -1.41596e-20)
(-0.216372 0.0259999 0)
(1.05493 0.119393 0)
(-0.000318851 0.0236267 -6.34736e-20)
(0.794883 0.124336 -2.35836e-21)
(-0.0449704 0.0276375 2.30543e-20)
(-0.215991 -0.0294391 -4.97822e-20)
(0.212999 0.0502572 0)
(-0.0548777 0.028488 -2.48401e-20)
(1.0363 0.0390866 0)
(1.05486 0.000111285 -9.41714e-21)
(1.00974 0.0191121 0)
(0.777814 0.0936488 0)
(1.03921 0.0249646 7.68555e-21)
(1.24054 0.0476977 3.31008e-20)
(-0.217984 -0.0284909 5.09976e-20)
(1.0799 0.00472121 0)
(0.645849 0.0753703 8.1445e-20)
(0.722063 0.0773228 2.57934e-20)
(-0.235259 0.0227705 -5.66932e-20)
(1.02791 0.0125051 0)
(1.03798 0.0245364 -7.81646e-21)
(1.02888 0.0127832 0)
(0.390054 0.0586037 -3.14912e-20)
(1.18103 0.078723 8.33e-20)
(1.01229 0.0114077 2.47547e-21)
(1.09493 0.00816538 1.48536e-20)
(0.0724169 0.0367997 -7.9864e-20)
(1.00693 0.00276868 0)
(-0.16351 -0.00821603 2.88707e-21)
(1.03349 -0.00638064 3.57813e-21)
(1.04607 0.0491867 9.01304e-21)
(1.13477 0.13696 3.28175e-20)
(1.06547 0.00383062 0)
(1.0335 0.0133253 0)
(1.05811 0.0129894 0)
(1.10693 0.110979 -1.96127e-20)
(1.13769 0.0552059 -3.01853e-20)
(0.988092 -0.000188064 -2.23676e-21)
(0.801601 -0.213378 -4.14073e-21)
(1.00897 0.00842664 2.02241e-21)
(1.05771 0.0365168 2.0191e-24)
(1.02456 0.00764069 0)
(1.02015 0.00257072 0)
(-0.094906 0.00860413 0)
(0.102875 0.0372564 8.27926e-22)
(1.01442 0.0130028 -2.70844e-21)
(-0.207731 -0.0266559 0)
(1.11428 0.00478061 -1.09308e-20)
(1.01983 0.00260049 0)
(1.01592 0.0122384 0)
(1.03067 0.0458328 -5.27452e-21)
(1.00415 0.0274463 -2.09529e-21)
(1.08854 0.049516 0)
(1.18998 0.0296682 7.03886e-20)
(1.01239 0.0127513 -4.07542e-21)
(0.214694 0.0116964 -9.08117e-20)
(1.03757 0.0388587 4.65296e-21)
(-0.166895 0.0500333 6.76355e-20)
(-0.154033 0.00403818 9.5332e-20)
(1.18612 0.0206066 -5.52904e-20)
(1.18847 0.0399995 8.08414e-20)
(0.989318 -0.000424362 -1.38591e-21)
(-0.123082 0.0443345 0)
(0.414371 0.0585817 1.03597e-19)
(1.16799 0.0847608 0)
(0.998968 -0.00206105 2.77083e-21)
(0.809934 -0.208763 -3.60473e-21)
(0.850407 -0.077643 -1.02018e-20)
(1.12031 0.152274 2.28477e-20)
(1.05858 0.0137389 0)
(0.995168 -0.0869961 -2.34038e-21)
(0.816749 -0.263658 7.04053e-21)
(1.04022 -0.00721803 3.06042e-21)
(-0.214839 -0.0355821 4.39833e-20)
(1.06463 0.0424887 2.26869e-20)
(1.02207 0.003764 8.91063e-21)
(1.15167 0.135691 0)
(-0.216292 -0.0349839 8.31635e-20)
(1.02129 0.052117 2.15013e-22)
(-0.0467859 0.0299767 0)
(0.911487 0.278991 -3.76294e-21)
(-0.179128 -0.0146173 -1.36746e-20)
(0.738106 -0.13494 3.85279e-20)
(0.858405 0.243496 0)
(1.10159 0.110181 1.95227e-20)
(1.10127 0.0518793 -1.59176e-20)
(-0.104559 0.0112701 0)
(-0.108883 0.0046743 1.23058e-21)
(0.994036 -0.0089422 -2.84837e-21)
(1.05945 0.0187065 7.69511e-21)
(-0.215719 -0.0282132 0)
(0.642963 0.182866 -6.71901e-21)
(1.22529 0.036887 6.57929e-20)
(0.974494 -0.0751542 3.48251e-21)
(1.15212 0.0235406 -7.60226e-20)
(1.09687 0.00509116 -7.33635e-21)
(1.02256 0.00617957 0)
(0.845358 0.319595 3.45178e-22)
(1.00863 0.112898 0)
(1.00788 0.00245401 0)
(-0.149732 0.00223991 -5.49211e-20)
(1.09447 0.0329243 -2.46902e-20)
(0.0501959 0.0387585 0)
(1.06335 0.00458969 0)
(1.02626 0.0111697 0)
(1.02583 0.0933334 0)
(-0.122949 0.0328256 0)
(1.20346 0.0605025 0)
(0.840633 0.230651 -2.06535e-21)
(0.149863 -0.181517 2.93394e-21)
(1.12923 0.135802 -2.55652e-20)
(1.05965 0.0875874 -1.57524e-19)
(1.02414 0.0541564 0)
(0.984966 0.090212 0)
(-0.153837 0.000699522 -5.0535e-20)
(1.00711 -0.0017469 1.3412e-21)
(-0.175556 -0.0133256 -1.46283e-20)
(-0.160518 -0.0065073 -5.30077e-20)
(0.608226 0.0702012 -1.09085e-20)
(1.04041 -0.0609035 2.47392e-21)
(0.906903 -0.0729043 0)
(1.01721 0.000267058 -1.48047e-22)
(1.01493 0.00681155 0)
(-0.104413 0.00638963 0)
(0.612419 0.0717728 -1.00329e-21)
(1.15646 0.08481 8.98241e-20)
(1.01834 0.159149 8.17601e-22)
(0.45808 0.0887024 0)
(1.15218 0.0442167 -2.87769e-20)
(1.12994 0.0652983 9.39759e-22)
(1.00862 0.0456145 -1.89564e-21)
(1.02342 0.00630426 0)
(1.03294 0.0449261 0)
(1.01096 -0.00118351 9.80491e-22)
(-0.105609 0.00639379 -8.32221e-20)
(-0.110327 0.00508257 0)
(1.23008 0.0828444 5.61172e-22)
(0.917474 0.132615 3.30183e-20)
(0.993523 -0.000239655 1.19907e-21)
(0.804615 0.117696 -3.73017e-20)
(1.00685 0.0425239 0)
(1.23154 0.0737318 -7.93975e-20)
(1.09521 0.29765 -5.01327e-20)
(1.046 0.0475024 4.39558e-21)
(0.999304 -0.0136109 1.26298e-21)
(1.00827 0.0158584 -9.88203e-23)
(0.999693 -0.0144515 0)
(0.215337 0.0482647 4.24926e-20)
(1.01959 0.0237874 1.75606e-21)
(0.108981 -0.112186 0)
(0.756668 -0.180972 2.50436e-21)
(1.15443 0.129931 -8.20421e-21)
(1.17856 0.0269157 5.34764e-20)
(1.05942 -0.0625279 8.91591e-22)
(0.0863895 -0.136684 0)
(0.90648 0.280382 -3.33131e-21)
(0.462482 -0.233348 -1.94155e-20)
(1.03943 0.0346686 -6.00546e-21)
(1.02723 0.00423151 0)
(1.03197 0.0136571 -6.671e-23)
(-0.20782 -0.0317031 -2.07323e-19)
(1.04896 0.0020005 -1.8261e-21)
(1.25158 0.0259718 7.31465e-21)
(1.18212 0.0515177 0)
(1.01946 0.0242617 1.13912e-21)
(0.994354 -0.00325604 3.56243e-22)
(1.0576 0.00256921 0)
(1.00948 0.00923814 -2.13976e-21)
(1.04611 -0.0734068 -6.50942e-22)
(1.13504 0.0176658 0)
(0.945999 -0.0959571 0)
(0.887632 0.296242 -1.3332e-21)
(1.19379 0.0869571 -1.00088e-19)
(1.04177 0.00411725 0)
(1.13 0.15134 -1.03896e-20)
(-0.131584 0.0194897 0)
(1.22545 0.0394632 -1.06235e-19)
(0.146625 0.0436571 -6.34156e-20)
(0.996224 -7.0224e-05 -2.04973e-21)
(1.09675 0.0322485 -8.7253e-21)
(0.993704 0.000890261 3.18517e-21)
(1.07928 0.0342867 -1.95792e-20)
(-0.179374 -0.013776 3.63742e-20)
(1.1258 0.061517 2.8364e-22)
(1.08198 0.308995 0)
(0.765223 -0.0531466 6.52923e-21)
(-0.117254 -0.106787 0)
(1.13113 -0.00127094 1.47913e-20)
(1.0293 0.0120297 1.08399e-20)
(-0.0389407 0.0409274 -4.80246e-20)
(1.07499 0.0299707 1.94692e-20)
(0.126525 0.0406454 0)
(1.04497 0.0271516 1.12898e-20)
(1.0115 0.020873 0)
(0.507915 0.116848 0)
(1.02105 -0.0759192 -2.11736e-21)
(1.03387 -0.0241734 0)
(1.16842 0.152091 -4.64364e-20)
(1.20576 0.0824992 0)
(-0.20821 -0.0309517 1.12237e-19)
(-0.167198 0.0453584 -6.88746e-20)
(-0.213086 0.0556453 -6.70495e-20)
(0.315304 0.265423 1.04668e-21)
(1.0055 -0.00194038 -9.40162e-22)
(0.992724 0.000672286 0)
(1.17361 0.0516845 4.27694e-20)
(0.466854 -0.22256 1.55227e-20)
(1.23474 0.064903 0)
(1.03181 -0.0723264 0)
(1.07495 0.00385913 2.15617e-20)
(0.966489 0.0536714 0)
(-0.0890448 0.00949295 5.11954e-20)
(1.0572 0.0324281 1.16308e-22)
(1.05491 0.000249028 -2.46673e-21)
(-0.124946 0.0341009 0)
(-0.100531 0.00628354 -7.18188e-20)
(1.21065 0.0522712 0)
(1.07716 0.0330607 0)
(1.02755 -0.00809086 -1.06592e-21)
(1.04658 0.0265547 1.62435e-21)
(1.05482 0.0357623 -1.18066e-20)
(1.13338 -2.2485e-05 -1.17866e-20)
(1.02436 -0.0068943 0)
(1.09255 0.0255324 3.8914e-20)
(1.03064 0.0306214 1.34857e-21)
(0.170113 0.0445926 1.00902e-19)
(1.02394 -0.00291187 -3.71298e-22)
(1.00576 0.0262378 2.43278e-21)
(0.313868 0.0284397 0)
(0.814411 -0.0352483 -2.02535e-20)
(1.03244 0.052197 -2.97932e-22)
(1.01666 0.0036116 1.39178e-21)
(1.03645 0.0247275 0)
(0.900906 0.133092 -3.453e-20)
(0.51023 0.0583304 -1.08785e-19)
(1.01456 0.179812 -1.85897e-21)
(0.876106 -0.0546794 3.86341e-22)
(1.07078 0.102924 0)
(0.675708 0.126525 4.51806e-21)
(1.02323 0.00102706 1.02476e-20)
(-0.106323 0.00631457 0)
(1.12234 0.0598277 2.31719e-20)
(-0.162734 -0.0166928 0)
(1.01456 0.00422839 0)
(-0.179874 -0.0152611 -1.55998e-20)
(1.04127 0.0131633 -8.34387e-21)
(1.04771 0.0319173 1.45863e-21)
(1.07945 0.155323 2.50352e-21)
(1.0482 0.056518 -5.67642e-22)
(1.05528 0.00035816 0)
(1.01478 0.0124722 3.40324e-23)
(1.13518 0.0221887 -2.7302e-20)
(1.00378 -0.00101009 0)
(-0.214606 -0.0266157 -7.35407e-20)
(-0.160009 -0.0154585 0)
(0.155019 -0.0231206 0)
(1.00373 0.0358082 -1.11955e-22)
(1.00141 0.00951179 3.9761e-22)
(-0.184264 -0.0197303 0)
(1.03569 -0.0803881 0)
(1.03302 -0.0256637 2.48068e-23)
(0.805007 -0.236399 8.55518e-21)
(-0.0457292 0.0422512 -3.60351e-20)
(0.784656 0.0597635 -2.79699e-21)
(0.81684 -0.142424 3.86933e-20)
(-0.183526 -0.0164159 -1.70986e-20)
(1.11659 0.0188183 0)
(1.08681 0.125736 2.03265e-21)
(-0.103291 -0.116538 -2.66423e-20)
(0.992611 -0.000744488 0)
(1.13547 0.0602929 0)
(-0.0351092 0.0195909 -5.35322e-20)
(1.06269 0.0546464 -5.23231e-23)
(1.00901 0.0183472 -1.46557e-22)
(0.12637 -0.00699246 2.32518e-20)
(-0.150386 -0.00503891 4.86374e-20)
(1.05841 -0.00104861 1.39773e-20)
(-0.146839 0.0355219 -4.53605e-20)
(0.992495 -0.000867042 0)
(1.17235 0.057424 -1.02693e-22)
(1.11122 0.15733 3.88213e-21)
(0.753336 -0.0101933 0)
(0.932495 0.174594 6.94317e-21)
(1.01659 0.0751765 3.12965e-21)
(1.00165 -0.00132963 1.70717e-21)
(1.14111 0.072382 -1.57998e-20)
(1.11715 0.0268195 0)
(0.800041 -0.247413 -5.98934e-21)
(-0.20323 -0.0295191 -6.5067e-20)
(1.04987 0.00566657 -6.02197e-21)
(0.197866 -0.101734 -1.30033e-21)
(0.87896 0.150054 -1.54354e-20)
(1.24485 0.0217964 0)
(1.0248 -0.00597265 0)
(1.01095 0.0199676 -8.95136e-22)
(-0.177991 -0.0145823 0)
(1.00922 0.00127467 4.94557e-21)
(1.05163 0.0866157 0)
(0.824816 0.190789 1.54656e-20)
(0.970458 0.103484 0)
(1.01041 0.0178301 5.07643e-22)
(0.330219 0.0349079 -7.50021e-20)
(0.0720552 0.0401302 -5.81087e-21)
(-0.158824 0.0105808 3.05355e-20)
(0.813575 -0.0601492 -6.74242e-22)
(1.09662 0.0780732 0)
(1.06215 -0.0437032 0)
(1.02816 0.00979847 0)
(1.06229 0.0419377 -1.36616e-20)
(1.0489 0.03242 0)
(-0.167091 -0.00836221 1.98006e-22)
(-0.107217 0.00494776 1.01488e-19)
(1.01203 0.0274088 1.35387e-21)
(0.976577 0.0510802 -4.16178e-21)
(0.736571 0.0598585 2.47457e-22)
(-0.000390053 0.0235083 -7.98872e-20)
(-0.181515 -0.0158566 0)
(1.05886 -0.000170883 2.76533e-20)
(-0.161399 0.0252813 7.1698e-20)
(1.11137 0.0238267 -1.92367e-20)
(0.0755691 0.0338917 3.82138e-20)
(1.17469 0.156033 5.41987e-21)
(1.13346 0.0409181 2.48208e-20)
(1.07804 0.0907905 0)
(1.09844 0.00678509 0)
(1.11798 0.061327 -3.67138e-20)
(0.767127 0.326052 0)
(1.00119 -0.0904381 4.25268e-21)
(-0.147227 -0.00415069 4.28423e-20)
(0.769759 0.0772413 7.08254e-20)
(0.964194 0.105801 6.24408e-21)
(0.739099 0.121464 -4.96755e-21)
(1.18203 0.0544061 5.13748e-20)
(1.04981 0.0837955 1.00331e-21)
(1.05932 -0.0389982 0)
(-0.161193 -0.000941668 2.12787e-20)
(1.01559 0.01284 -2.91613e-21)
(0.17465 -0.0278484 3.98188e-21)
(1.03707 0.0306929 0)
(1.05439 0.0012541 0)
(1.07434 0.0123292 -1.04754e-20)
(1.17031 0.0313659 7.35723e-20)
(-0.226597 -0.0366484 0)
(1.05803 0.00214486 0)
(0.743945 0.251638 -8.34549e-21)
(0.986602 0.188966 -3.70448e-21)
(0.718763 0.0837524 2.23819e-22)
(1.05816 0.028792 -3.6849e-22)
(0.994099 -0.00372995 0)
(0.36972 0.0629212 0)
(1.02966 0.0312159 2.37519e-21)
(1.03081 0.0314105 2.24881e-21)
(-0.0348874 0.0186682 2.74213e-20)
(1.02448 0.0122477 -1.15267e-20)
(1.05918 0.0122847 1.38248e-20)
(1.0762 0.190074 -1.27431e-21)
(1.13658 0.0159222 1.55423e-20)
(1.02178 -0.0030423 0)
(0.806084 0.172524 0)
(0.10784 0.0390932 -1.55713e-20)
(-0.225044 -0.0346148 0)
(0.320621 0.251819 -7.60402e-21)
(1.01559 0.00611386 1.66469e-21)
(1.01503 0.00167409 0)
(1.20666 0.0615851 -3.86155e-22)
(1.23278 0.0757899 -7.74559e-20)
(-0.171356 -0.00960418 0)
(1.05784 0.00853084 0)
(0.147704 0.00182414 -3.1594e-21)
(1.04751 0.0471138 3.10014e-22)
(1.13692 0.0203469 1.44484e-20)
(-0.173275 0.0665165 -2.67513e-20)
(1.04907 0.00569082 1.85892e-20)
(1.04844 -0.0474285 -5.6346e-22)
(1.1568 0.0534835 0)
(0.992687 0.000868247 -7.73396e-24)
(1.0251 0.0132722 4.91587e-21)
(1.03653 0.0316059 0)
(0.99066 0.18453 -8.23357e-22)
(0.167121 -0.0052431 -2.29522e-20)
(0.988078 0.000234007 1.71629e-23)
(0.833356 0.294859 2.03761e-22)
(0.88563 0.0778921 0)
(1.01161 0.167536 0)
(1.09915 0.0704559 0)
(1.05743 -0.0563745 0)
(1.06077 0.0185347 8.57864e-21)
(1.06101 0.0402909 -1.43949e-20)
(0.826759 -0.201984 0)
(1.11756 0.208901 -1.38665e-20)
(-0.150918 -0.00352262 -4.2708e-20)
(-0.159729 0.0420079 8.63993e-20)
(0.795704 -0.224238 3.5612e-21)
(1.03644 0.0297825 2.92504e-21)
(1.15663 0.0290999 1.02003e-19)
(1.08105 0.0649078 -2.44203e-21)
(1.16856 0.00466292 -2.59414e-20)
(1.13206 0.0459046 2.73824e-20)
(1.09003 0.0249301 2.44782e-20)
(0.991902 0.183483 0)
(0.950629 0.18292 0)
(1.0361 0.0315764 0)
(-0.200929 0.0762177 0)
(0.872196 0.273222 -1.84399e-20)
(0.990279 -0.000536043 0)
(1.1554 0.0235278 4.18993e-20)
(1.05717 0.00984907 -1.19632e-20)
(1.24143 0.0200956 8.0072e-20)
(1.04123 0.027106 0)
(1.09883 0.0915319 6.89712e-22)