/*--------------------------------*- C++ -*----------------------------------*\
| =========                 |                                                 |
| \\      /  F ield         | OpenFOAM: The Open Source CFD Toolbox           |
|  \\    /   O peration     | Version:  v2012                                 |
|   \\  /    A nd           | Website:  www.openfoam.com                      |
|    \\/     M anipulation  |                                                 |
\*---------------------------------------------------------------------------*/
FoamFile
{
    version     2.0;
    format      ascii;
    class       surfaceScalarField;
    location    "150";
    object      ddtCorrDdt0(phi);
}
// * * * * * * * * * * * * * * * * * * * * * * * * * * * * * * * * * * * * * //

dimensions      [0 3 -2 0 0 0 0];
oriented        oriented;


internalField   nonuniform List<scalar> 
20823
(
-5.7637e-06
-5.39216e-06
1.11567e-05
-0.0178452
0.0148581
0.00298711
-7.90489e-06
8.13011e-06
-2.29653e-07
-0.000491812
0.000347955
0.000143903
0.00317702
0.00413639
-0.00731341
-0.00124933
0.00171313
-0.000463794
-0.000417513
7.80304e-06
0.000409725
-6.39278e-05
9.0162e-05
-2.62292e-05
0.000141632
-0.000127532
-1.40862e-05
6.30212e-06
8.66003e-09
-6.3268e-06
-0.000756114
0.00237683
-0.00162072
3.16096e-05
0.000180627
-0.000212237
-0.00110247
0.00045263
0.00064985
-2.01171e-05
-2.05303e-05
4.06574e-05
-0.000874728
-6.76478e-05
0.000942404
6.60379e-06
-3.22138e-07
-8.99841e-07
1.97133e-05
-1.88282e-05
-0.000354882
0.000307605
4.72948e-05
0.00072553
-0.000145873
-0.000579691
-8.64988e-05
0.000167828
-8.13684e-05
2.04106e-05
-0.00016253
0.000142118
-0.000304215
0.000156658
0.00014752
0.000344537
-0.000335662
-8.87644e-06
0.000128863
0.00152074
-0.0016496
0.000174678
-0.000133334
-4.1342e-05
0.000269256
-0.000270716
1.47087e-06
0.000148693
-0.000241846
9.31555e-05
-5.42586e-05
1.78224e-05
3.64531e-05
7.82697e-05
-1.6221e-05
-6.20487e-05
1.5498e-05
0.000599
-0.0006145
-1.02255e-05
4.45673e-06
7.18773e-06
-6.15935e-06
-1.01598e-06
-0.000121533
5.09775e-05
7.05654e-05
0.000212638
0.000512858
-0.000115028
-6.93125e-05
0.000184324
-0.000109669
0.000202947
-9.32334e-05
0.000114043
0.000155223
1.22976e-05
-9.88016e-05
-0.000398226
1.80703e-05
0.000380134
-0.000549056
-0.000354391
0.000903476
0.00108302
-0.000883452
-0.00019951
-0.000454558
0.000108405
0.000346206
9.32012e-05
-0.000130386
3.71847e-05
-1.88025e-05
0.000578723
-0.000559908
-0.000142355
0.000248396
-0.000106031
8.02957e-05
9.43803e-05
0.000175918
-0.000155525
-0.000666064
0.000211558
-0.000954598
0.000207306
0.000747285
-0.000228116
0.000260374
-3.22619e-05
-0.000898855
-0.000295683
0.00119453
0.0017238
-0.00224596
0.000522216
-8.7167e-05
0.000282979
-0.000195817
-0.000382146
0.000277819
0.000104333
-0.000112847
-0.000678409
0.000791247
0.00105037
-0.0015994
-7.17911e-05
-0.000184838
0.000256628
-2.45389e-05
-2.96969e-05
-0.000466581
0.000221834
0.000244759
-4.86622e-05
0.000119444
-7.07565e-05
-0.000708867
-0.000245732
0.000339143
-0.000198388
-0.000140728
0.00538922
0.00395564
-0.00934472
-0.00114228
-0.000803314
0.0019456
0.000821171
-0.00113466
0.00031351
0.00649307
-0.000300567
-0.00619256
0.000194025
0.000507825
-0.000701847
0.000485953
-0.000840811
-1.91721e-05
-4.35828e-06
2.35341e-05
4.00251e-05
-0.000155051
-0.000584558
0.00100357
-0.000419018
-2.36438e-05
-0.000108601
0.000132232
0.000381801
-3.72636e-05
0.00043501
-0.000447065
1.20522e-05
-0.000753827
0.000947853
5.34802e-05
-0.000163143
0.000638792
-0.00153765
-5.98414e-05
-5.47836e-05
0.000114671
-3.64546e-05
7.17181e-05
-3.52464e-05
3.24745e-05
0.000116218
-0.0002507
1.97053e-05
0.000231001
-0.000347757
0.000335011
1.2749e-05
-2.79759e-05
0.000121178
-6.84337e-05
-0.000223891
0.000292346
-4.21839e-05
0.000114771
-7.2553e-05
0.00034737
-8.22408e-06
0.000187518
-0.00106224
-6.24804e-06
5.34459e-06
-0.00169954
0.000628514
0.00107102
0.000299177
-0.000294764
-4.41302e-06
-0.000428208
0.000171779
0.000256407
0.000205335
-0.000140882
-6.44556e-05
-0.00378662
0.00307842
0.000708258
-5.97033e-05
5.9703e-05
-0.000370838
0.000488672
-0.000117841
0.00278177
-0.00172916
-0.00105261
0.000673736
0.00014745
-0.00725711
0.0137501
7.32438e-05
-6.5704e-05
-7.54193e-06
2.64209e-06
-9.79544e-06
7.17463e-06
0.000802138
0.000283336
-0.00108547
-0.000425895
0.000407079
-0.000195434
0.000541607
-0.000346183
-1.51449e-05
7.23832e-06
0.000252834
-0.000112812
-0.000140025
0.00214703
-0.00199829
-0.000148743
0.000282755
0.000258304
-0.00054104
-0.00295813
0.00252997
0.000428154
-0.00145484
-0.000244681
0.000410413
2.46024e-05
-6.75513e-06
5.40886e-06
1.33662e-06
6.42579e-06
-1.07786e-05
4.35638e-06
0.000116234
6.09703e-05
-0.000177185
-0.00033921
0.000252043
7.27684e-05
4.3458e-05
3.76716e-05
-0.000106096
7.86565e-05
-0.000107359
2.86959e-05
-0.000432372
0.000236933
0.00119608
-0.000953888
-0.000242189
9.40017e-05
-9.52408e-05
1.23981e-06
0.000320693
0.000122629
-0.000443297
-0.0146683
0.00888843
-0.000432655
0.00037069
6.20106e-05
2.70205e-06
3.72328e-06
-0.000328469
-0.000118605
-0.000706143
0.000288648
-0.000126312
-0.000534059
0.000660374
0.00111755
-0.0013416
0.000224056
-9.39375e-06
-1.07249e-05
5.32477e-05
0.000748883
4.02372e-05
-0.000371591
0.000331352
0.00139844
0.000813047
-0.00221151
-0.000109071
-0.000599796
2.24776e-05
-4.07083e-05
1.82267e-05
-0.000917212
-0.00372972
0.00464696
-7.35453e-06
-1.31813e-05
5.98215e-05
-1.3119e-05
-4.66928e-05
-0.00023526
-0.000146883
0.000271739
0.000780905
-0.0010527
0.00159515
-0.000108815
-0.00148635
0.000379031
0.00160072
-0.00197975
0.000434995
-0.000599631
0.000164635
-9.13642e-06
-3.43483e-05
4.34883e-05
-0.00513222
0.00217418
-6.10316e-05
2.4642e-05
7.20222e-06
-1.16316e-05
4.4245e-06
-0.000187014
0.00038428
-0.000197262
-0.00322397
0.00419162
-0.000967662
-1.12373e-07
-5.27814e-06
-0.000217605
-0.000624811
0.000842438
-8.26626e-05
0.000224533
-0.000141812
-0.000142908
0.001339
4.12814e-05
-0.000439494
0.000230725
-0.014899
0.00132517
-0.000265249
-0.00105992
0.000310668
-0.000334322
0.000116353
-3.45054e-05
-8.18467e-05
-1.15353e-05
1.4809e-06
1.00391e-05
0.000162133
-0.000933288
0.00077116
6.315e-05
-0.000683676
0.00062053
5.15113e-05
-0.000115433
0.00119815
-0.000997293
-0.000200853
-0.000230993
0.0020867
-0.00185565
-0.000799653
0.000928568
5.22224e-05
-0.00012075
6.85347e-05
-0.000304404
-0.000141221
0.000445671
0.000502749
-9.23286e-05
-0.000262087
-0.000169625
0.000431739
0.000102864
-2.42124e-05
-0.000261405
0.000287323
-2.58534e-05
-0.00194011
0.00102291
-0.000148601
-6.39315e-05
0.000212511
0.000702597
-0.000920188
0.000774466
0.00200731
0.000189254
9.35017e-05
-0.000237846
0.000335569
-9.77222e-05
0.000153276
-0.000200019
4.67435e-05
8.22358e-06
-3.32133e-06
-4.92144e-06
3.38156e-05
-4.11671e-05
3.80114e-05
4.02585e-05
0.00169153
-0.00071719
-0.000974334
-0.000280705
0.00187584
5.57739e-05
0.000247815
-0.000303563
9.06471e-05
3.35585e-06
4.72416e-06
-9.302e-07
-3.79986e-06
0.000432545
-0.000860747
0.00015653
-0.000198688
-5.476e-05
-3.65259e-05
9.12907e-05
-0.000446149
0.000259134
0.000765852
-0.000214853
-0.000551011
4.94789e-05
0.00130497
-0.00135435
0.000126539
0.000194167
-0.00602805
-0.00958053
0.0156088
6.26225e-05
0.000142701
0.000221636
-5.95086e-05
-0.00373703
-3.98732e-05
1.17522e-05
2.81166e-05
-0.000454705
-0.000647745
0.00175748
-0.00123448
-0.000523
8.59097e-05
-2.61564e-05
-5.96718e-05
0.000436323
-0.000562634
4.06716e-05
-1.31424e-05
-2.75333e-05
0.000906336
-0.000570877
-0.000335445
0.000365634
-0.000223993
-0.000523166
0.000712539
-0.000189372
-0.000720391
0.000735887
-6.33716e-06
-9.3716e-05
8.38835e-05
9.80349e-06
-0.000162467
0.000597461
-0.000403988
0.000444226
-7.28372e-05
6.37221e-05
-0.000134027
5.30585e-06
0.000128717
-0.00102713
0.000726585
-0.000348536
0.000206201
0.00180457
-0.000268132
-0.00153644
-0.00020157
0.000161727
-0.000141177
-0.00109962
0.00124088
0.000341903
0.00180513
-0.000281068
-0.000144511
0.000425573
0.000744598
-0.000296926
-0.000447654
-0.000220581
-7.53665e-06
-0.000233518
0.000100195
6.16382e-06
-3.49272e-06
-0.000642151
-0.000211365
0.000853515
-6.51694e-06
5.57566e-05
-4.9233e-05
0.000281511
-0.000845217
0.000563705
-0.00135138
0.00226607
-0.000914717
0.000816853
-7.22453e-05
1.88398e-05
3.63923e-06
0.00026975
-0.000276511
6.78221e-06
-0.000103688
-0.00032766
0.000431349
-0.000167794
-0.000974524
0.00425615
-0.00387714
-0.000859796
0.000500784
0.00035901
0.000138309
-0.000442684
-9.62637e-06
5.50566e-06
4.11896e-06
-9.23163e-05
9.8389e-05
-6.07138e-06
0.000163092
-0.00026678
0.000280112
7.83067e-05
-0.00035842
-0.000461944
-0.000180339
0.00064232
4.01874e-05
1.28709e-05
-5.30357e-05
0.00309425
-0.00631822
0.000623222
-0.000114611
-0.00050862
1.51286e-05
4.47062e-05
-4.03913e-05
-0.00010822
-0.000250293
4.16485e-05
0.000208645
0.000163581
-0.000107782
-7.31896e-05
-0.00019375
0.00026694
0.00100873
0.000984466
-0.000643114
-0.000341332
0.000867196
-0.00109496
0.000227775
-0.000690677
6.52315e-06
-2.23269e-05
1.58206e-05
-0.00159465
0.00145357
-0.000789045
0.00012986
0.000659191
-5.86685e-05
0.00138384
6.86914e-06
-1.80871e-06
-5.06779e-06
0.00050719
0.000399146
6.35858e-06
-6.38633e-06
2.07864e-08
-0.000722766
0.000185302
0.000537468
-2.4669e-05
-3.01014e-05
0.000220843
-0.000189234
-1.43348e-05
1.49233e-05
-5.96067e-07
3.47172e-05
-1.99152e-06
-3.27428e-05
-1.38393e-05
-5.32739e-06
-0.000181634
-6.9624e-05
0.000251246
6.87204e-05
0.000697129
0.000157899
-0.000374371
0.000216476
-4.877e-05
-7.30163e-05
0.000121751
0.0017857
-0.000702678
0.0003327
-2.91389e-06
-0.000329761
6.70749e-05
1.88363e-05
-0.000425576
0.00162372
0.00384483
1.32284e-05
-0.00385806
-0.00138089
0.00313839
-4.18266e-07
-1.72628e-06
2.15103e-06
-2.27917e-06
-1.28672e-05
-1.58154e-05
3.55741e-05
-1.9749e-05
-0.000238836
0.000397828
-0.00015899
0.000205355
0.000288622
-0.000120811
-0.000153553
8.80716e-06
0.000144696
-6.94405e-06
-8.53715e-05
3.90404e-05
-8.9495e-05
5.0462e-05
-7.17583e-06
-6.56554e-06
1.37345e-05
4.75695e-06
-9.6154e-06
4.85943e-06
0.000422254
-0.000884199
-0.000910195
0.000418418
-0.000262356
-8.13737e-05
0.00034373
-0.000995392
0.000174063
0.000821298
0.000359093
-7.0496e-05
-0.000128254
0.00185204
2.15217e-06
-2.56451e-06
0.000473715
-0.000618353
0.00014464
-0.00107584
7.3858e-05
0.00100198
-0.00103093
-0.000723786
0.00175472
0.000692975
0.00315187
-0.000186728
0.000458427
2.22927e-05
-0.000158795
0.000136503
0.000775135
0.000916391
-8.49346e-05
0.00117792
-0.001093
0.000349526
-5.78732e-05
-0.000291649
-0.000333714
7.16325e-05
0.000648087
0.002109
-0.00275705
-1.59364e-05
2.06916e-05
-1.18721e-05
-1.23049e-06
1.31078e-05
-0.000124644
-0.000517472
-0.000422727
-0.00015631
0.00057904
0.000115046
-0.000115459
4.13859e-07
-1.17495e-05
4.97852e-06
0.00023273
0.000340581
-0.000573282
-0.000657164
-0.000340138
8.24404e-06
-2.40561e-05
-0.00204787
0.00158498
0.000462807
-0.000136332
-0.000211427
0.00118431
-0.000731674
0.000253491
-0.000138438
3.37886e-05
-2.46579e-05
-9.1072e-06
-0.00052758
0.00015676
-0.00056294
0.00161751
-0.00105457
0.00013451
0.000135215
0.000283725
-0.000322394
3.86687e-05
-9.23819e-05
4.36547e-05
6.36199e-05
-5.48811e-05
-8.73979e-06
-0.000848556
0.00265315
-0.000683325
-0.000451349
-0.000357749
7.58272e-05
0.000281937
2.20606e-05
-1.98216e-05
-2.24524e-06
1.1651e-05
-3.28137e-05
2.11882e-05
-0.000771074
0.000247907
0.000715756
-0.000422744
-0.000293016
8.24248e-06
-0.000101972
-2.89652e-07
7.15714e-06
-6.1286e-05
1.15478e-06
6.01328e-05
-3.81122e-05
0.000109558
-7.14557e-05
2.73052e-06
1.9891e-06
-1.21487e-05
2.70928e-05
-1.49478e-05
0.000448702
-0.000411083
-3.76112e-05
-5.01595e-05
-0.000136969
0.000187125
2.94186e-06
3.72698e-05
-2.71397e-06
-6.26001e-05
6.53128e-05
5.24287e-05
0.000246749
0.00134053
-0.00177316
-0.000359798
0.000224001
0.000135786
0.000208518
-0.00089184
-0.00097872
-0.000270622
-0.000391589
-0.00049188
0.000142312
-0.000413022
0.0127191
-0.0265139
0.0137947
-2.26116e-05
2.91371e-05
-0.000186471
6.73843e-05
0.0001191
-0.000124596
-2.18835e-05
0.000146475
5.15856e-05
-0.000112572
0.0020744
0.000148089
-0.00222246
-0.000160831
1.99576e-05
-0.000486176
-0.000302865
3.20519e-05
7.19054e-05
-0.000103971
-0.00203509
0.00127898
-6.35571e-05
2.56653e-07
6.33014e-05
0.000753596
-0.000917198
0.0001636
-4.014e-06
-5.08907e-07
4.51714e-06
-0.00025697
-0.000465811
-0.000117694
0.000256029
-0.000254702
-0.000990539
0.00124524
-1.02086e-05
-4.13214e-06
-2.77752e-05
3.39308e-05
0.00177824
0.000296203
1.97974e-06
3.18436e-05
-0.000366283
0.000127446
0.000278094
-0.000255804
0.0045235
0.000727324
-0.00525085
3.20464e-05
-0.000185608
8.48405e-05
-6.67716e-05
0.00147952
-0.0024749
-2.47689e-05
8.83908e-05
-0.00029134
4.10477e-05
-0.00490905
-0.000314915
0.00522396
-7.71248e-05
-0.000118384
0.000195524
-0.000246338
-0.000113457
-0.000272943
-8.47972e-05
-6.07949e-06
-2.16949e-05
-4.31998e-06
-7.20619e-06
0.000862934
0.00131253
-0.000602424
-0.00071008
0.000190359
0.000159166
-0.00347805
0.000566342
0.0029117
0.00035921
-0.000640281
-0.000339027
3.37699e-05
0.000305257
0.000241975
-0.000285327
4.33384e-05
0.00312109
-0.00302268
-9.83953e-05
0.000303491
-0.00047812
0.00017463
-0.00036231
0.000293488
6.88348e-05
0.000354801
-0.000313153
3.40546e-05
-3.16393e-05
-2.41522e-06
0.00079139
-0.00015643
-0.000634897
-0.0191981
0.0119974
0.00720065
0.000136189
-9.71593e-05
-0.000645282
0.00239007
-0.00174478
0.000773984
-0.000224171
-0.000549801
7.54074e-05
1.46571e-05
7.40247e-06
8.02738e-05
3.60788e-05
-1.83979e-06
-5.39862e-08
1.88728e-06
0.00025308
0.00010172
-0.00190617
0.00240533
-0.000499091
0.0107947
-0.00361557
-0.00717908
6.53805e-05
-0.000113062
4.76948e-05
0.000180877
0.000137298
-0.000318182
-0.000149399
9.27343e-05
5.6662e-05
1.16051e-05
2.3106e-05
-0.000139387
0.000144809
-0.000262493
-9.52119e-05
0.000192074
-9.68594e-05
-8.73202e-05
-2.92056e-05
0.000116483
4.81896e-06
6.84252e-05
0.000100303
0.000550911
-0.000651215
0.00022123
0.000111485
-0.000361979
0.000227585
0.000134408
0.00131911
-0.00157381
-0.000785069
0.00135132
-0.000566253
-6.65531e-05
-8.06236e-05
0.000147215
-0.000344321
5.98304e-06
0.000338338
-0.000191827
0.000172222
1.96052e-05
3.12012e-05
-7.0214e-05
-0.000106425
0.000398231
-0.000291804
-0.000178991
-4.15903e-05
-0.000546922
0.00132205
-9.93766e-05
0.000271149
-1.45237e-05
8.26706e-06
-6.00851e-05
6.73264e-05
-7.24621e-06
-1.08573e-05
-4.68488e-07
1.12902e-05
0.00624428
-0.00215779
-0.00408652
-0.00064877
0.000417027
0.000231759
6.31911e-06
-0.00754244
0.00151431
0.000279165
-0.000329326
0.000123765
-0.000361616
0.000902314
-3.51194e-05
0.000120688
-0.000121013
3.27582e-07
-0.00033577
-0.000175955
0.000511718
-0.010321
-0.0014402
0.0117612
-3.0499e-06
-9.10154e-06
3.52189e-05
-0.000221683
0.00206907
-0.00119706
-0.000871975
-0.000219619
-9.53478e-05
0.00031497
0.000504451
-0.0020972
0.00159276
-0.0052318
0.00175378
0.000483032
-0.000202943
-0.000402066
0.00028551
0.000116487
-0.000170038
0.000103507
0.00052368
-0.000423378
4.5144e-05
-0.000103003
5.78636e-05
-0.000110769
-8.10568e-05
-0.000246005
0.000257019
-1.10141e-05
7.23368e-05
-7.8837e-05
0.000157285
0.000558469
-8.66912e-05
3.80763e-05
-0.00145764
-0.0163875
0.000135313
-0.000118436
-1.68819e-05
0.0005336
0.0121855
1.1157e-06
-5.18241e-05
5.0708e-05
0.000750983
-0.00178187
-6.42041e-05
-3.97201e-05
0.000103924
-0.000326042
-0.000486633
0.000515862
4.8914e-05
5.33938e-05
-0.000137079
8.36836e-05
0.0070535
-0.000175708
5.11119e-05
3.37276e-06
5.57082e-06
-8.94221e-06
-0.000483826
0.000988284
0.000937155
9.44228e-05
-0.00103157
0.000146273
-2.55641e-05
-0.00163742
0.000286032
0.000292901
-0.000631927
-7.71014e-05
-0.000285209
-0.00107697
-0.000331872
0.00140884
-0.000318404
-0.000711385
0.00102979
-0.000416507
0.000259869
0.000156641
0.00100324
-0.000249649
0.000219415
0.000403809
0.000588872
-0.00011516
-0.000114669
-3.47321e-05
0.00030165
0.000147084
-5.18853e-05
4.91706e-05
-6.52758e-06
8.54591e-06
-2.01381e-06
-3.45525e-06
6.8238e-06
0.000168976
-0.000264187
-8.09589e-06
-6.43168e-06
-0.000735747
-0.000518597
0.00125434
-0.0014803
0.000391786
0.00108857
-4.20176e-05
0.00021041
-0.000168389
8.29629e-06
5.70778e-05
0.0010532
-0.00212898
-0.00304751
-0.00671114
0.00975869
6.98955e-06
-0.000282098
0.000477794
-0.000195682
-2.19801e-05
1.54634e-05
0.000454228
-0.0001708
-0.000283432
-1.11319e-05
1.73238e-05
-6.18406e-06
2.7783e-06
-2.15652e-06
-6.25433e-07
-0.000448499
0.00362552
-6.648e-06
-0.0225068
0.00330864
0.00127502
-0.00418429
0.00290921
-0.000695965
0.00240906
-6.65847e-06
-2.96497e-06
-0.000242839
-6.13866e-05
0.000732099
-0.000536628
-0.000195472
3.41854e-05
7.31554e-06
-4.54832e-06
-0.00166599
-0.000608441
0.00227448
-0.000185253
-0.00148074
-5.7252e-06
0.000131193
0.000179472
3.6278e-05
3.65044e-05
-7.28115e-05
-0.000404709
-0.000455091
0.00024834
-0.00115693
0.000908595
-6.74972e-05
1.79426e-06
-1.90451e-05
0.00109467
-0.00107563
-0.00020388
-0.000262696
0.00024638
-0.000226517
-1.98575e-05
-0.000296562
-0.000488532
0.000899847
0.00162996
-0.00252983
0.0035982
0.00719647
2.27111e-06
-8.4219e-06
-0.00138908
0.00180679
-0.000417706
-5.55515e-05
0.0001635
-0.000107961
-0.000618436
0.000560884
5.75337e-05
-0.00209905
0.00118357
0.000915493
0.000986499
-0.000598264
-0.00038824
-0.000316667
-2.76561e-05
1.73665e-06
-6.93328e-06
0.000290659
0.000268494
0.00141972
-0.00168822
-0.00289654
-0.00201248
-0.000112395
0.000408179
-0.000295718
0.000135908
-8.25137e-05
-7.36123e-07
-0.000223155
-0.000943484
-0.000260184
0.00120365
-0.000203537
0.000161522
0.000623891
0.00246218
-0.00308606
-0.000567986
-0.000389081
0.000957055
0.00072241
0.00013633
-0.000858743
0.000257916
-0.000345281
8.73659e-05
4.11751e-06
4.09017e-06
0.000110526
-6.53998e-05
8.42075e-05
-6.58979e-05
-1.83113e-05
0.000379454
-0.000997881
-4.01147e-06
2.16765e-06
0.00229947
-0.00288382
0.000584385
-0.00016501
0.000275532
-0.000157023
0.000100496
5.65302e-05
0.000705794
-0.000846614
3.53809e-07
-3.89577e-05
3.86277e-05
2.68563e-05
0.000108451
0.000435394
-0.000295564
-0.000139833
0.000420004
0.000517166
-5.45818e-06
-1.20251e-06
-5.49179e-05
-5.81372e-05
-0.000121
6.60277e-05
5.49681e-05
-5.5828e-05
0.00296863
-0.000669112
-0.000624579
0.00193714
0.00203019
0.00109091
4.44489e-05
-4.57802e-05
1.34838e-06
0.000122434
-3.39234e-05
-8.85122e-05
0.00030823
-0.000892781
-1.66964e-05
-0.000216821
2.22285e-05
-8.38707e-05
6.16438e-05
0.000157186
-2.26676e-05
0.000797245
-0.00055943
-0.000237816
-0.000163432
-5.05615e-05
-0.00188779
0.00348751
-0.00159972
2.69632e-05
-0.000594955
-2.81041e-06
-5.29137e-06
7.14587e-05
-1.92435e-05
-0.000904104
0.00015965
0.000744482
0.000132468
5.76439e-05
-0.000465834
0.00031857
-0.000177211
-0.000141358
-0.000494447
0.000158676
-0.000478093
0.000365238
9.12247e-06
-8.73048e-05
7.8172e-05
0.000126923
0.000105803
0.00080621
-0.000390798
-0.000415414
0.00984316
0.00501499
1.9796e-05
2.57338e-05
-1.66251e-05
0.00160284
-0.000474906
-0.00112793
0.000543774
-0.00115219
8.59926e-05
-0.000157784
-0.00050951
2.13959e-05
9.44336e-05
-0.000115825
-0.00127959
0.000681325
-0.00339817
0.0012828
0.00211541
-0.000835703
0.00114332
0.000247847
0.00018246
-0.000430312
-0.000178694
0.000103611
7.50991e-05
-0.000125437
-6.50563e-05
0.000190497
0.0017564
-0.000964998
-3.35709e-05
0.000582432
-0.000548861
4.22929e-05
2.48697e-06
-4.47583e-05
0.000336303
0.000571788
-0.00090809
-0.000137634
-2.73841e-05
0.000862992
0.000739865
-2.27231e-05
7.40976e-07
0.000147654
-0.000122043
-6.91473e-05
0.000191178
0.00160247
-8.17127e-05
-0.000142069
0.000295338
0.000165863
-2.27281e-06
-7.28034e-05
7.31932e-05
-0.000558971
-0.00110024
0.00165929
1.02095e-05
0.00111667
-0.00167562
-0.000503204
0.00277147
-0.00356832
0.000796857
-0.000544317
-0.000202912
0.000747233
-1.01372e-05
0.000132571
-0.0002311
5.21094e-05
0.000191135
5.52473e-05
6.97404e-05
-0.00102639
0.000956652
-0.000682655
-8.8418e-05
0.000657756
0.000139491
-3.04097e-05
-5.68261e-05
8.72344e-05
-0.000650244
-0.00015861
0.000808882
-0.000147636
-9.3827e-06
1.1542e-05
-1.59374e-05
4.37079e-06
0.000195759
0.000239686
5.03882e-05
3.34069e-05
-8.37962e-05
3.86308e-06
-6.51491e-05
-4.00001e-05
-0.00163888
0.00167889
-0.000191067
0.000347719
1.72687e-05
-4.31829e-05
2.59149e-05
-0.0137618
0.00584116
0.00792062
-6.16434e-05
0.000319266
-0.000257625
0.000161029
-0.000572708
0.000411678
-6.14434e-06
1.77323e-05
-0.000382383
0.00071734
-0.000334965
2.07432e-05
2.96444e-05
-0.000479669
0.000218274
-2.35994e-05
-0.000207366
0.000271764
0.000674178
-0.00062435
-4.98199e-05
-0.000103125
4.8355e-05
5.47719e-05
-2.64764e-05
-7.64351e-06
3.41207e-05
-7.57285e-06
-7.5066e-05
0.000587324
4.56135e-05
-0.000632917
-0.00689303
0.00742662
0.0061375
-0.00507296
-0.00106456
5.62106e-05
-0.000434434
-0.000885425
0.00131985
6.54945e-05
-4.32653e-05
0.0089499
2.84559e-06
1.67525e-05
-1.9611e-05
8.12973e-05
-0.000198693
0.000117379
-9.81876e-05
0.000216624
-0.000118441
0.00116347
-0.000821863
-0.000341583
0.000269583
-0.000446577
0.000190843
0.00025572
0.000129764
0.000118088
2.88304e-05
0.000137021
6.03366e-05
-1.8066e-05
-0.000285225
-0.000994368
1.84017e-06
8.38246e-06
-1.02274e-05
-0.00118287
0.000635952
-0.000445754
0.000641296
-0.000195545
0.000284006
0.000303301
-0.000382051
0.00100673
-0.000624667
0.000164634
-0.000415336
0.000336448
-9.4474e-05
0.000320611
-0.000189439
-6.64959e-05
6.76512e-05
-5.14903e-05
5.26063e-05
-0.0011094
-0.000938515
-0.000142658
0.000581176
0.00566312
0.00205271
-0.00114831
-0.000904364
5.1985e-05
-0.000164317
0.000438751
-0.000635489
0.000196715
-1.83778e-05
0.000199005
-4.43001e-06
-0.000195597
0.000953955
-0.00160271
-0.000100982
9.11522e-05
9.83809e-06
-0.00295625
-0.00736471
-1.41413e-06
-1.40221e-06
0.000428489
-0.000376313
-5.21711e-05
-0.000595927
0.000486355
0.000109572
1.55958e-05
0.000423181
0.000499695
0.000898739
7.11656e-05
5.6274e-07
-1.79317e-05
-9.69073e-05
-1.04559e-05
-6.67408e-05
0.000526891
-0.000460149
-0.000109663
0.000187954
0.00160242
-8.41612e-05
-0.000549104
-0.000129307
-1.75525e-05
6.91573e-05
-0.00796748
0.00694034
1.10904e-05
-1.64448e-05
5.38549e-06
0.00170768
-0.000432651
-0.000438484
-0.000718441
0.000547081
-0.000237021
-0.000310049
0.000643779
-4.38872e-05
-0.000599887
-2.31422e-05
-0.000380848
1.64322e-06
-5.214e-06
3.56712e-06
-6.21362e-05
-5.361e-06
-0.000276368
0.000900306
0.000696725
-0.000680358
-1.64101e-05
-0.000397329
0.00013276
0.000264599
0.000159855
0.000205057
0.000517354
0.000297434
-0.000374163
0.000745454
-0.000371273
-0.000261556
0.000805339
0.000316295
-3.52024e-05
-0.000281107
0.000230331
2.25009e-05
-5.34635e-05
-0.000890054
-5.48861e-05
-0.000209772
7.57636e-05
0.00185403
-0.00177278
-8.12287e-05
-4.49614e-06
2.76878e-06
0.000265256
0.00034756
-0.000612764
-0.000304663
0.000191849
0.000101408
6.28316e-05
-0.00016424
-0.00176659
-0.000226296
0.000562604
4.22971e-05
0.000126569
-9.42299e-06
-5.74026e-06
1.51852e-05
-4.9401e-05
-0.000129283
5.04961e-05
-0.000172554
0.000671473
-0.000510448
-9.62369e-05
-0.00044808
0.000138978
0.00125041
-0.00198966
0.000739243
0.00243104
-0.00333894
0.00289238
0.000347254
-0.00102631
0.000692453
0.000333867
0.000183401
0.000245085
0.00112564
-0.00119333
4.50915e-05
-3.20494e-05
-1.30262e-05
0.000500777
-0.000519822
-1.43077e-06
-1.83924e-05
6.42115e-05
-1.59541e-06
-0.0023203
0.00198867
0.00033167
0.0016445
0.000424567
-0.000303911
0.00112069
-0.0017638
-3.05979e-06
4.00487e-06
2.35208e-06
5.37039e-05
3.05019e-05
-0.000111454
1.45452e-05
0.00042502
-0.000260391
-0.00103559
2.30577e-06
3.94654e-06
-6.74941e-06
2.79517e-06
-8.21306e-06
-6.1824e-06
1.43914e-05
3.60365e-05
-4.22127e-05
0.00204577
-0.000191722
0.000711571
0.000451904
7.41833e-05
2.86816e-05
4.3481e-05
-5.99903e-05
-8.4237e-05
0.000144232
-0.000402302
-0.000127426
0.000529706
-0.000124957
0.000144871
-1.98897e-05
0.000333396
5.77254e-05
-0.000391084
-8.87331e-05
0.000102206
-0.00020039
0.00105127
0.00234028
-0.00339156
-0.000203223
-0.000204628
0.000407849
0.00106094
-0.000553115
-0.00031313
8.40318e-05
0.000229098
-0.000100643
-5.56131e-05
-6.51339e-05
-2.85666e-05
-0.000156272
-4.41542e-05
-1.07292e-05
-0.000651118
0.000715429
-6.43146e-05
0.000623519
0.000519557
-0.0011431
0.0010307
-0.000333966
-0.00030883
0.000255361
2.2504e-05
-0.000338639
0.000316114
5.22766e-05
1.4265e-06
-0.000377632
0.00039735
-0.00180929
0.00172435
-4.35127e-05
0.000301431
8.65484e-05
3.29749e-05
-0.000119533
-1.51648e-05
5.54965e-06
8.47781e-05
0.00031694
-0.000401752
-0.000424478
0.00160242
-7.50393e-05
4.46295e-05
-7.36584e-05
6.96436e-05
-8.81243e-05
6.02171e-05
2.78602e-05
-0.000478619
-2.04552e-05
5.77455e-06
-1.84046e-05
1.26172e-05
0.000234365
-0.0006688
0.000912285
-0.000415884
-0.000496399
-0.00133633
0.000310172
0.00102617
4.81606e-05
-2.42127e-06
-4.57136e-05
7.0901e-05
-0.000687666
0.000153605
9.19093e-05
-0.000725966
0.000634054
0.00407994
-0.010973
0.000684175
-5.70086e-05
-0.000627146
6.79923e-06
-6.93987e-05
0.00322259
0.00291492
-1.31351e-05
-2.02844e-06
-2.85659e-06
8.35675e-06
-5.49793e-06
-0.00332781
0.00142165
-0.0010509
0.000761809
0.000289125
6.51144e-06
-1.83936e-05
-1.98838e-05
3.77076e-05
3.68305e-05
5.10175e-07
-3.73435e-05
5.19309e-06
-1.2497e-06
-0.00030656
0.000264483
4.20605e-05
-0.00015907
0.000152798
6.28819e-06
0.00324166
-0.00480271
0.00156106
5.98859e-05
-0.000151862
9.19639e-05
-0.000153998
-0.000340451
0.000574291
-0.000469553
-0.000104736
-2.65002e-06
1.37373e-05
3.63084e-06
-6.49341e-06
-0.000382845
0.000658959
-0.000276166
-3.19028e-05
-3.91889e-05
0.000284304
-0.000245116
0.000387073
-0.000764538
0.000377484
-0.00112026
0.00147218
-0.000351997
-0.00311784
0.00172876
-3.41667e-05
-0.000207678
0.000217612
0.000405899
0.000286981
-0.000569069
0.00726769
-0.00908117
0.00181348
-0.000191835
0.000342084
-0.000150282
0.000205079
-0.000135335
-3.71876e-06
-5.30251e-05
-0.000249203
0.000302236
-0.000408628
0.000320492
1.13601e-06
-1.13802e-06
-0.000159771
0.000443771
-2.27638e-05
-0.000155568
0.000272596
9.08977e-07
-2.54491e-05
9.54716e-05
0.000111834
-1.37921e-05
-1.04839e-05
2.42781e-05
6.93879e-05
0.000264026
0.000152663
0.000856308
-0.000234876
-0.000621431
-0.0012678
0.00089362
0.000370608
-0.000409795
-7.81981e-06
-0.00043794
9.21075e-06
7.54622e-06
0.000563431
-0.000662811
0.000352854
0.000637115
0.000216381
-0.000135091
0.000287776
0.000286515
0.000102017
-0.000117975
1.59684e-05
0.000165623
-0.000364304
3.26883e-05
-2.26112e-05
-1.00826e-05
0.000210655
4.83332e-05
-0.000258991
-0.000523934
0.000121909
3.86182e-05
0.000124744
-0.000103349
1.14864e-05
1.72184e-07
-4.50456e-05
9.32245e-05
-0.000101013
9.9036e-05
-2.70306e-05
0.000207928
0.00238308
7.90859e-05
0.000327708
0.00076692
0.000112286
-5.43979e-05
-5.78924e-05
-0.0173829
0.00784732
0.00953554
0.00252124
0.000250216
-0.00049025
0.000108202
7.98698e-05
1.55956e-05
7.19188e-05
-1.67065e-05
-5.52002e-05
0.000156302
0.000712831
-0.000869129
-1.09382e-05
4.29817e-05
-0.000125547
-0.000218654
0.000344204
8.45112e-05
3.69149e-05
0.000166145
-0.000203028
0.00366986
-0.000562356
-0.00310747
2.38917e-05
-1.81137e-05
0.000419844
-0.000198024
-0.000120114
6.45591e-05
0.000334723
0.00046207
0.000745223
-0.00120735
-8.94999e-05
1.11638e-05
7.83359e-05
-0.000145303
-3.19191e-05
0.00054479
-0.000359485
-2.04499e-05
-3.60433e-05
5.64963e-05
-0.000166956
0.000509063
-0.000149995
-0.000587219
0.000737236
-0.000123551
-3.75864e-05
0.000161124
-8.30147e-05
-0.00107275
0.00115585
-0.00092456
0.000527233
0.0144965
-0.00722875
-4.76274e-05
0.000293375
-0.000145588
-0.000147787
-1.22447e-05
-2.82936e-05
4.05325e-05
-1.72248e-05
0.000479283
9.56273e-07
2.318e-05
-2.41608e-05
0.000339938
0.000334232
-1.67722e-05
7.35892e-06
0.000727302
-0.000760875
-0.000317332
0.000279029
3.82869e-05
0.000193741
9.96113e-05
0.000176429
0.00021058
-6.11892e-05
0.000789102
-1.51041e-05
0.000613493
-0.000185549
-0.000427926
7.47126e-06
4.06718e-06
0.000761087
-0.00105765
0.00048501
0.000348858
-0.000833907
0.000196576
-0.000187997
-8.57537e-06
0.000867784
-0.000275526
-0.000592269
0.000447735
-0.000576006
-0.00016079
-0.000285669
0.00044646
-2.23169e-06
9.85194e-06
-7.62233e-06
0.000213126
0.000189168
-0.000148473
-4.06922e-05
0.000280221
-0.000574031
0.00029384
1.82961e-05
0.000197964
-0.000216248
0.000243453
-2.11424e-05
-0.000222315
-3.42413e-05
-5.94673e-05
0.000151608
-9.21446e-05
-2.54284e-05
0.000341728
-1.59828e-06
4.67143e-05
-0.000629596
0.00129121
-0.0006616
0.000797663
-0.00140011
-4.29597e-05
0.000402171
-1.50089e-05
6.61928e-07
3.86031e-07
1.42773e-05
-0.000434531
0.000280531
-0.000484308
0.000506804
9.14806e-06
-1.13804e-05
-5.80195e-05
-2.25878e-05
0.000418446
-0.000471467
4.7817e-05
-3.45879e-05
-1.3288e-05
-0.000262009
-4.68307e-05
0.000882566
0.000512672
-0.00139521
0.000372482
-6.39046e-05
-0.000308579
-0.000340537
-0.000304736
-7.07084e-06
7.67462e-05
-0.000267482
0.000190759
-3.45313e-05
0.00206871
5.99124e-05
-0.00212862
2.42897e-05
-3.19321e-05
0.00027205
-0.000201056
-0.000316831
0.000219628
9.71872e-05
-0.000815413
0.000558453
5.35015e-05
-0.000177062
0.000369948
-0.00136049
-6.83478e-05
5.49763e-05
-2.42043e-05
-3.07636e-05
6.05653e-05
1.10201e-06
-6.16635e-05
-0.000683536
-5.21825e-05
0.00180151
-0.000168918
-0.00163246
0.000419492
-0.00100981
0.000590445
0.000107017
-1.5017e-05
-9.19356e-05
0.00101197
-0.00027227
-0.000739699
0.000565463
0.000101383
3.88142e-05
-0.00177451
0.00214521
9.07835e-05
0.000133771
-0.00193484
-0.00110026
-0.000622345
0.00172259
-0.000115977
-0.000181369
0.000297299
0.000187157
-8.01285e-05
0.00019581
2.91364e-06
-1.11278e-05
-1.53553e-05
1.68276e-05
-0.00118385
0.00192417
-0.000740289
-0.00264534
0.000910496
-0.00055107
-0.000359411
-0.00135696
-0.000888994
-0.000340633
0.000391101
-3.44127e-05
-9.73926e-06
-0.00016258
3.76367e-05
-0.00233896
0.00339023
-0.000555696
0.000837207
-0.000505847
-1.35883e-05
0.000519433
-3.44433e-06
5.08535e-06
0.00023464
-0.000149872
0.000697695
0.00020462
0.000603335
-0.000261438
-0.000382219
0.000642082
0.000208088
-0.000262876
6.27219e-05
5.43275e-05
-0.000117065
0.0022918
-2.53208e-06
2.12102e-06
4.05891e-07
0.000196941
-2.47188e-05
-8.25137e-06
-2.07752e-05