/*--------------------------------*- C++ -*----------------------------------*\
| =========                 |                                                 |
| \\      /  F ield         | OpenFOAM: The Open Source CFD Toolbox           |
|  \\    /   O peration     | Version:  v2012                                 |
|   \\  /    A nd           | Website:  www.openfoam.com                      |
|    \\/     M anipulation  |                                                 |
\*---------------------------------------------------------------------------*/
FoamFile
{
    version     2.0;
    format      ascii;
    class       volVectorField;
    location    "350";
    object      ddtCorrDdt0(U);
}
// * * * * * * * * * * * * * * * * * * * * * * * * * * * * * * * * * * * * * //

dimensions      [0 1 -2 0 0 0 0];


internalField   nonuniform List<vector> 
13851
(
(-0.00034434 0.000533753 0)
(-0.0565932 0.185622 -7.358e-21)
(0.00737058 0.00634598 2.14333e-20)
(-7.83254e-05 0.000521722 0)
(-0.00263185 0.00334598 0)
(0.0333805 -0.00790097 0)
(7.17534e-06 8.92449e-06 0)
(0.0027588 0.000853183 1.54606e-20)
(1.00923e-05 5.02576e-06 -1.02865e-21)
(0.0155911 -0.0124477 -3.19933e-20)
(0.0139142 -0.067486 0)
(0.100392 -0.010066 -2.85994e-20)
(-0.0103739 -0.0137867 -4.09775e-21)
(0.0500658 -0.0273878 1.55778e-20)
(7.96369e-07 -3.27264e-06 -9.91033e-24)
(-0.000654644 -0.00177631 -2.98665e-23)
(0.000103243 -0.000147231 4.50336e-21)
(0.00218862 -0.000778485 -9.39793e-21)
(-0.0183097 -0.00487951 -6.64076e-21)
(9.43722e-06 1.01462e-05 1.99204e-21)
(-3.85035e-05 0.000457693 4.88721e-21)
(0.00575202 0.00649692 6.45172e-21)
(2.95047e-06 2.41364e-06 -2.31015e-22)
(7.99572e-06 -1.08751e-06 1.95054e-21)
(2.24385e-06 1.24804e-06 0)
(0.00317856 0.000665071 -1.80658e-21)
(7.0419e-05 2.98369e-05 0)
(-0.00427589 0.0222094 -2.22569e-20)
(-0.00033721 0.000391873 3.51847e-22)
(0.000209481 0.000298543 -2.39155e-21)
(0.0373818 -0.0181121 0)
(0.000132111 -0.000163945 0)
(0.00784994 0.00508152 -3.6917e-20)
(0.0248246 -0.108023 0)
(8.12579e-06 -4.8669e-07 -3.03363e-21)
(0.000620681 -0.00108239 -3.58246e-21)
(0.000303544 -0.00130298 -1.7351e-20)
(-0.0120593 0.023192 0)
(0.0188265 -0.0127596 1.29692e-20)
(0.0188193 -0.115932 -1.26617e-21)
(3.81537e-06 3.31874e-05 1.14081e-21)
(1.04759e-05 2.13706e-05 9.17888e-23)
(0.0147981 0.0397116 -3.19438e-21)
(0.012366 -0.0405598 0)
(0.00630223 -0.0672946 0)
(0.0548378 -0.110024 6.4981e-22)
(-0.002401 -0.0187315 6.67666e-22)
(-0.0404366 0.100932 -7.95253e-22)
(7.09959e-05 4.23864e-05 -1.15464e-20)
(-0.0208234 -0.000481161 -1.23557e-21)
(-0.00155704 -3.54331e-05 1.94675e-20)
(-0.00395748 -0.0021129 1.52551e-20)
(0.000580933 0.0241874 0)
(2.15681e-07 -4.07906e-07 -5.47399e-21)
(6.59409e-06 2.29362e-06 0)
(1.17871e-05 2.0737e-05 0)
(1.91205e-06 -3.40828e-06 1.0527e-23)
(0.00182534 0.0108882 4.32475e-20)
(0.000229545 0.000234165 -4.05381e-21)
(9.78262e-06 -1.58642e-05 -3.20245e-21)
(-0.0104391 0.0266641 0)
(-0.0972697 -0.0359918 -5.31892e-21)
(0.00546146 -0.0186343 -2.15877e-21)
(-0.00419686 0.00267039 9.59808e-22)
(-0.0432025 0.0953694 2.41848e-22)
(-0.000392648 0.00149051 6.73734e-21)
(7.87564e-05 -0.00128297 0)
(-0.00880527 0.0335319 1.53646e-22)
(-2.32911e-05 0.00042383 6.27999e-22)
(0.00201554 -0.00117566 5.18648e-21)
(6.36766e-06 -0.000127851 1.29405e-20)
(-0.000222439 -0.000778523 0)
(-0.0263925 0.169109 1.3772e-20)
(2.96214e-06 -2.59249e-07 4.76207e-21)
(1.16369e-05 2.35857e-06 2.35087e-21)
(2.26723e-05 2.3832e-05 -1.25605e-21)
(0.00498427 0.00576478 0)
(0.00775106 -0.00196552 7.61634e-21)
(1.40897e-05 0.00150351 -1.66026e-20)
(-0.000223386 -7.46842e-05 2.99594e-21)
(1.18859e-05 -2.7318e-05 -7.52853e-21)
(0.00636718 0.0782081 1.82321e-22)
(5.97122e-06 2.34324e-05 -1.15259e-20)
(0.0669555 -0.0573858 0)
(0.00921685 -0.0182706 2.9462e-21)
(0.104195 -0.0200897 2.48381e-20)
(0.0161236 -0.0102721 1.73643e-20)
(-0.0220132 -0.112898 1.12484e-20)
(0.000173338 -1.85928e-05 0)
(0.000129056 5.24092e-05 0)
(0.000512989 -0.00112783 0)
(-0.00529612 0.00981188 0)
(-0.00816005 0.070289 9.07139e-23)
(0.000260311 9.95345e-05 0)
(0.000153664 -1.3781e-05 4.77801e-21)
(4.43806e-06 1.49238e-07 3.45011e-22)
(-0.00314608 0.00305762 0)
(-0.00141099 -0.0397587 5.39914e-21)
(-0.024253 0.00129505 1.1153e-21)
(4.44559e-06 -5.56652e-07 0)
(0.016619 -0.20006 -1.94312e-20)
(-0.000690599 0.000958824 -7.16671e-21)
(-5.35647e-05 -9.92928e-05 0)
(-6.05661e-07 9.80531e-05 1.26544e-21)
(8.77673e-06 -1.12136e-06 0)
(0.0082157 -0.0184099 -1.0713e-20)
(-0.001037 0.00071513 0)
(1.2826e-05 -4.68207e-06 -5.80029e-23)
(-0.000349987 -0.000484593 0)
(0.0375693 -0.000449561 1.7387e-20)
(7.69782e-07 -7.64449e-07 9.8354e-22)
(0.000156914 8.65483e-05 0)
(-0.00353386 0.00829415 -1.43139e-22)
(4.03613e-06 8.36539e-09 0)
(6.6647e-07 -9.43891e-07 0)
(0.00742684 0.180149 -3.52154e-20)
(-0.00546558 -0.0369689 -1.52976e-21)
(8.43396e-06 1.2697e-05 0)
(9.1433e-06 -2.2348e-07 -6.1005e-23)
(1.18841e-05 6.2728e-07 2.60435e-21)
(0.00412415 0.0410744 -1.99653e-21)
(4.7268e-06 8.88466e-05 -2.05871e-21)
(-0.0119177 -0.0156221 0)
(-0.0212915 0.175473 -6.92717e-21)
(-0.0570731 0.113468 8.57662e-22)
(0.000417206 -0.000823186 -2.19197e-22)
(-0.0535788 0.149011 9.02478e-22)
(-0.000409651 0.00132001 2.44819e-21)
(7.47093e-05 0.000408948 5.86726e-21)
(-0.00934179 0.00642585 -1.92618e-20)
(4.55607e-06 3.21479e-05 3.03843e-21)
(7.85481e-06 -1.43012e-05 1.61707e-21)
(-2.47505e-05 -0.000149463 -8.9577e-21)
(3.88686e-06 2.03629e-05 9.14422e-21)
(-0.000192674 0.188537 -1.31891e-19)
(8.39234e-06 -4.47798e-06 3.31502e-21)
(8.6664e-06 1.20447e-05 -2.04161e-22)
(-0.000129021 -0.0010564 1.28192e-21)
(-0.00800932 0.0250748 0)
(0.084549 0.140892 -5.35991e-20)
(0.0219165 -0.181929 3.58672e-21)
(7.02704e-06 2.14587e-06 -4.32571e-21)
(-0.000102835 0.00093546 -1.41626e-21)
(-8.52019e-07 1.49939e-05 0)
(-4.45787e-05 -5.80902e-06 -3.14745e-21)
(0.0166804 -0.00303322 2.19036e-21)
(0.00124959 0.00351201 -6.18609e-23)
(-0.00956926 0.00811441 3.07816e-20)
(5.96838e-06 6.37996e-06 7.34378e-21)
(0.00275457 -0.0879835 2.22686e-22)
(-0.000275185 -0.000286011 -1.5201e-20)
(1.23641e-05 8.43945e-07 -4.72493e-21)
(0.0479193 -0.0368482 1.51307e-20)
(4.22732e-07 -3.63561e-06 1.21561e-21)
(3.9763e-05 -4.28656e-05 0)
(-4.77831e-05 1.22959e-05 1.1553e-20)
(5.42962e-06 2.91158e-05 0)
(6.10123e-05 0.000149444 7.54576e-21)
(-0.00448808 -0.00210953 -1.51996e-20)
(-0.00160819 0.000144145 -1.88941e-20)
(2.07547e-05 -9.09608e-06 5.49438e-25)
(7.30678e-05 0.000176668 0)
(0.00111215 0.0145559 -2.24482e-20)
(6.2821e-06 -1.45927e-05 -1.78786e-21)
(-0.000583644 0.00112535 0)
(7.173e-06 1.20677e-05 2.66773e-22)
(0.000564556 0.00474329 5.91253e-23)
(-7.11486e-05 0.000423196 3.30218e-22)
(6.81151e-05 0.000335078 0)
(0.0124034 -0.0787786 0)
(0.00778733 -0.00134654 -9.08303e-21)
(9.59809e-08 8.11698e-06 0)
(3.13566e-06 2.52226e-05 8.7347e-21)
(0.094103 0.129365 5.91478e-20)
(5.94832e-06 -1.34487e-05 0)
(-0.0335564 0.0542301 -1.16863e-22)
(-0.000247005 0.00130634 7.87078e-21)
(-0.000728869 0.000175948 0)
(-0.0168366 -0.00739988 -9.71082e-21)
(1.34969e-05 -1.1091e-05 0)
(0.000164015 -0.000223436 -6.08043e-21)
(-0.00021403 -0.000888617 0)
(2.92115e-06 1.42396e-05 0)
(0.00517376 0.00771096 -1.34602e-20)
(3.94314e-06 -4.34727e-06 1.23311e-24)
(3.08612e-06 3.17987e-07 0)
(-0.000729476 0.00142795 0)
(8.75274e-06 2.62464e-06 -1.28365e-21)
(-0.00356698 0.00521021 0)
(-0.0134964 -0.0250035 2.02959e-20)
(-0.00293008 0.0205469 1.01761e-22)
(0.000545007 0.02171 0)
(0.000294687 9.07861e-05 7.38993e-22)
(0.000155959 0.000508347 -3.03549e-21)
(-0.111757 -0.0149173 1.22714e-21)
(3.26928e-05 -4.05529e-05 1.16961e-22)
(8.44658e-06 0.000699963 -1.74029e-21)
(-0.0236139 -0.0893655 7.00449e-22)
(-0.000585976 0.000286094 0)
(2.31486e-05 3.34846e-05 1.25535e-21)
(0.000651886 -0.000701095 2.20101e-22)
(0.0857023 -0.117712 -3.95509e-20)
(7.84029e-06 4.55456e-07 3.94475e-21)
(1.08693e-05 -1.7458e-05 0)
(-0.00135294 -0.0167424 -4.35336e-21)
(3.51857e-06 1.44036e-05 -9.98357e-21)
(-0.139525 0.229171 -4.02692e-22)
(0.000146033 -0.000111367 1.00096e-20)
(0.00160576 -0.00128193 -7.62112e-21)
(1.25826e-05 -1.97312e-05 2.384e-23)
(0.00109982 -0.00273293 -9.14617e-21)
(-4.9089e-05 -7.74189e-05 0)
(-0.011339 -0.0834205 -3.7528e-22)
(1.04771e-05 -1.59321e-05 2.44553e-23)
(1.18089e-05 2.24941e-05 0)
(-0.00194587 -0.0565721 2.01734e-22)
(0.0127761 -0.012507 -9.39894e-22)
(0.0124241 -0.110091 -6.64279e-22)
(-3.08845e-08 -1.90678e-06 6.59753e-21)
(0.00176309 -0.00151008 7.55928e-21)
(0.000166591 -0.000121368 -1.85795e-20)
(1.46235e-05 -2.69107e-05 1.0638e-20)
(0.00310907 -0.0127346 0)
(-0.00676413 0.000190463 2.33714e-22)
(0.000400783 -0.00126328 0)
(1.33693e-07 -1.05474e-06 -6.05369e-22)
(0.000341673 0.000211308 0)
(9.23798e-06 -2.90217e-07 -8.05506e-23)
(-0.00429856 0.0133214 -2.06231e-20)
(1.02751e-05 -1.72249e-05 -1.01901e-22)
(0.00315761 0.000118595 -1.38624e-20)
(0.0709569 0.0171819 2.83986e-21)
(5.53848e-07 8.76426e-06 4.20469e-22)
(0.000238741 3.33803e-05 0)
(-0.00109879 3.11079e-05 9.86767e-21)
(0.00784743 0.00675695 -1.79299e-21)
(-0.126029 0.210912 4.42616e-20)
(-0.0779503 0.105115 -2.92509e-22)
(5.33593e-06 2.06493e-05 0)
(1.12662e-05 -1.44926e-05 2.30587e-21)
(0.0300187 -0.0220921 0)
(-0.0216576 0.0675233 0)
(5.45448e-05 9.61723e-05 0)
(-0.000423808 -0.0192048 4.85504e-21)
(9.60749e-06 -1.71751e-06 9.42173e-23)
(0.000743873 -0.00142023 8.42842e-21)
(-0.000758433 0.00110622 0)
(-0.000766892 -0.15798 -2.56106e-22)
(-6.61629e-05 3.72996e-05 6.14506e-21)
(-0.000192024 -0.000246374 0)
(0.00305192 -0.00367697 2.14305e-21)
(-0.0157505 0.0839325 0)
(4.43081e-06 3.57014e-05 0)
(-6.40802e-05 1.65031e-05 -3.2122e-21)
(-0.000674038 0.00024228 -1.1825e-20)
(-0.0304202 -0.049663 0)
(-0.0162657 -0.0209293 -2.11253e-20)
(-0.000116772 -0.00116371 -5.37506e-21)
(0.0199545 6.52039e-05 -8.4813e-23)
(4.70142e-06 -8.90423e-06 0)
(6.41012e-06 1.7403e-05 0)
(0.001264 -0.00136948 0)
(0.0548658 -0.0409285 0)
(5.16634e-05 -4.2421e-05 4.14265e-22)
(-0.0273498 -0.00530923 0)
(2.77795e-05 -3.7388e-05 -1.54398e-20)
(3.45864e-06 3.26343e-05 -5.02734e-21)
(0.00023964 7.41932e-05 0)
(0.00197758 -0.0126693 0)
(0.00417411 -0.00850126 -4.43131e-22)
(0.00216805 -0.00443271 -4.77975e-24)
(3.61026e-05 -4.35752e-05 -1.50867e-20)
(0.0889957 -0.0227785 1.23897e-20)
(0.000112142 0.00134482 -1.59595e-20)
(-0.000888928 -0.00152969 -1.68677e-20)
(8.23891e-06 -1.56658e-05 -3.57879e-21)
(0.00256415 0.066321 -4.29984e-22)
(-0.0108686 -0.00581224 1.91434e-22)
(-0.000145635 -0.000405158 0)
(0.00650934 -0.0757817 -5.36481e-22)
(9.85968e-05 0.000111542 0)
(1.09846e-05 -1.51915e-05 0)
(6.96049e-06 -1.81872e-06 0)
(-0.000618979 0.000274072 3.92183e-21)
(0.0589908 -0.0756877 0)
(-0.010343 -0.000688445 1.14743e-21)
(1.12772e-05 2.52372e-05 -2.22526e-21)
(5.72307e-06 2.93696e-06 -1.5317e-21)
(0.0851685 -0.0446983 -1.40064e-20)
(0.016407 0.0436959 -7.09946e-22)
(-0.011369 0.0084018 1.96807e-20)
(0.000161832 0.000203508 5.30817e-21)
(1.06801e-05 -1.78663e-05 0)
(-2.04814e-05 0.000591459 0)
(0.0170263 0.062084 4.07277e-22)
(-0.0237129 -0.00658567 1.09213e-20)
(-0.000678957 0.000693611 0)
(0.104746 -0.0370568 -2.78604e-21)
(9.40668e-06 -1.42834e-05 -1.93511e-21)
(0.000816337 -0.00159538 -8.00814e-21)
(7.31205e-05 0.000155036 9.94437e-21)
(7.46452e-05 -0.000150791 5.03339e-21)
(-6.01314e-05 -0.000597742 6.54434e-21)
(2.04628e-05 -4.92256e-05 3.29844e-21)
(0.0125205 -0.0175455 0)
(0.00354482 -0.00600978 2.71688e-21)
(9.80407e-06 2.31683e-05 0)
(-0.000427312 0.000411686 -6.55966e-21)
(0.000294082 8.61803e-05 0)
(0.000163972 0.000155295 -2.38145e-21)
(-0.0388245 0.0235344 3.17429e-20)
(-0.000766008 0.000768955 -1.22716e-20)
(6.03237e-06 4.90649e-05 -9.97268e-21)
(0.0026472 -0.0194062 2.2562e-21)
(8.69225e-06 2.39507e-05 -1.14377e-22)
(-0.000159996 -0.000302825 -3.42844e-21)
(0.00137204 -0.000501391 9.90072e-22)
(-0.00017231 -0.000429936 -5.87744e-21)
(2.0114e-05 -0.000927357 0)
(7.77136e-07 -3.77306e-06 0)
(-0.000819114 0.000633479 0)
(4.65931e-06 -5.91265e-06 0)
(0.0192721 -0.00169076 -4.2522e-22)
(0.00617423 -0.00448598 2.61124e-21)
(-2.10621e-06 1.01863e-06 1.27658e-22)
(-1.35294e-06 5.95005e-05 6.11412e-21)
(-9.38109e-05 -0.000955956 0)
(0.000313192 0.0001712 -1.65307e-20)
(4.007e-05 -3.20944e-05 -8.45158e-21)
(4.8039e-06 4.64623e-06 -1.47932e-21)
(2.1018e-05 -4.96893e-05 0)
(7.90281e-06 4.82307e-05 8.63433e-21)
(0.0100679 -0.0699896 5.3101e-22)
(0.0108411 -0.166466 0)
(-0.0227205 -0.0819768 -8.04266e-21)
(0.000933398 -0.004504 -2.71335e-21)
(-8.94462e-05 -0.00062559 -2.89762e-21)
(-0.0542522 0.056891 0)
(1.48196e-06 -3.21794e-06 -2.7665e-21)
(0.000204011 0.000572536 -3.26079e-21)
(-0.0118405 0.0102854 -1.98297e-20)
(-0.0112317 0.00767564 7.45345e-22)
(0.0169136 0.010654 -7.20698e-22)
(-0.00292313 -0.00159573 0)
(-0.0211974 -0.00410471 3.65841e-21)
(0.00137922 0.002239 0)
(0.0198019 -0.0144996 5.92647e-20)
(0.00220299 -0.00342078 0)
(1.82177e-06 -2.01748e-06 0)
(0.00442388 0.0159292 -1.0863e-21)
(0.00901409 0.0164418 7.88397e-22)
(0.0185622 0.0358051 0)
(4.0359e-05 -3.22584e-05 8.54181e-21)
(0.0200537 0.0125301 6.23654e-21)
(-0.00245068 0.009545 2.57439e-20)
(1.75793e-06 2.39377e-05 -2.93778e-21)
(0.0331317 -0.0222097 -3.33296e-20)
(4.9915e-06 6.09885e-05 6.2753e-21)
(4.2295e-06 -6.37641e-06 1.43959e-21)
(8.88036e-06 -2.93541e-06 -1.29526e-22)
(1.26192e-05 -8.21162e-06 2.78139e-23)
(5.46796e-06 2.3875e-05 -2.53881e-21)
(0.0019984 -0.00357762 1.01506e-20)
(-0.0224791 0.0495837 0)
(1.52857e-05 -5.98128e-06 2.8261e-21)
(-0.000369026 0.000417054 -9.96735e-22)
(1.19805e-05 2.65825e-05 0)
(0.0993479 -0.0463035 0)
(-0.0032 -0.002906 -1.47911e-20)
(0.0274153 0.0275437 -5.06006e-22)
(-0.005998 -0.0797585 3.33788e-21)
(1.56868e-05 -1.09672e-05 2.91918e-21)
(0.0161929 -0.0138308 3.55761e-21)
(0.000354123 1.47511e-05 -7.7185e-21)
(0.0238384 0.0248542 1.20819e-22)
(9.69023e-06 2.75716e-05 -1.85179e-21)
(7.86919e-06 1.39345e-05 0)
(0.00527538 0.00300204 0)
(-0.0219988 -0.166599 -1.90917e-20)
(1.0283e-05 2.00955e-06 0)
(-0.0729117 0.0664202 0)
(-0.00947852 0.0103326 0)
(-0.00287726 -0.00204935 0)
(0.045844 -0.0872273 0)
(0.0209355 0.0340189 2.81448e-21)
(0.0142124 0.0383412 2.0123e-22)
(-0.00178588 -0.00273985 1.92656e-21)
(1.00952e-05 4.99094e-06 2.09115e-21)
(3.79245e-06 -6.45951e-07 -5.50533e-21)
(0.000426767 -0.00368553 0)
(-0.000768208 0.000537168 0)
(0.0733671 0.00223484 -1.71826e-20)
(-0.000125993 0.000373377 0)
(0.000372566 -0.00134457 6.16305e-21)
(0.00305576 -0.00494705 3.04888e-21)
(1.10561e-05 2.48294e-05 1.45254e-22)
(6.08846e-06 -8.04952e-06 -6.42833e-21)
(-0.00122641 -0.0859888 4.59238e-21)
(-0.000172157 -0.000167536 0)
(0.0720634 0.00372574 -4.25518e-21)
(-0.00311411 -0.0311553 0)
(0.0067303 0.00322077 -1.76466e-21)
(0.000395763 4.56782e-05 0)
(-2.39848e-06 -6.15642e-07 1.24166e-22)
(-0.0462809 0.05219 0)
(9.04285e-07 -1.89593e-05 1.00228e-21)
(-0.000344584 -0.00163783 9.81634e-21)
(-0.00160054 -0.00223863 -3.88342e-21)
(7.13328e-06 -1.43285e-05 0)
(7.8217e-06 -9.48561e-07 -1.85252e-23)
(1.14212e-05 1.6571e-05 -2.85961e-21)
(8.60172e-06 1.70145e-05 1.62879e-22)
(-0.00389917 0.00213425 -2.03678e-21)
(0.00699043 0.0145529 -5.45974e-21)
(0.0245042 -0.00619201 -2.95718e-21)
(0.00174009 -0.00213309 -2.91856e-21)
(-0.000948479 0.000609214 0)
(0.0058302 0.00672112 1.45521e-20)
(0.000870711 0.0850437 4.8625e-22)
(-0.000359518 -0.000314059 1.09998e-22)
(0.0228041 0.0349219 0)
(5.28985e-05 -0.000136038 1.44429e-20)
(-0.0110435 -0.0488208 -2.05456e-22)
(9.70457e-06 1.01683e-05 1.68498e-22)
(1.03994e-05 1.50117e-05 5.59311e-22)
(2.45459e-06 4.97423e-07 0)
(-0.0164232 0.0348363 0)
(0.00499172 0.141158 2.4246e-22)
(-0.00739737 0.00176093 1.52249e-20)
(0.00395481 0.00680281 -9.37296e-21)
(0.0241404 -0.00318803 2.52538e-21)
(0.0285737 -0.0939062 -6.18389e-21)
(0.0126755 -0.0121912 -1.11033e-20)
(1.30202e-05 2.81323e-07 4.51222e-21)
(-0.00102848 -6.91327e-05 0)
(9.59716e-06 2.6497e-05 1.86154e-21)
(0.00892434 0.097504 -7.31432e-22)
(9.83617e-06 1.40171e-06 0)
(0.0405863 0.0206315 -4.41324e-20)
(0.018452 0.107621 0)
(0.00838018 0.00227523 1.52865e-21)
(0.00259483 -0.00155251 0)
(-0.000639405 0.000597211 9.93037e-22)
(-0.0131705 0.00366139 1.22396e-22)
(0.013634 0.128248 2.2511e-21)
(-0.0845583 -0.165996 -3.79062e-20)
(4.84085e-06 -6.06316e-06 -1.76817e-23)
(0.000494417 0.000126791 0)
(-0.000175225 0.00151317 9.43957e-21)
(0.00273892 -0.011485 4.77001e-22)
(5.82856e-08 -1.24128e-05 4.83263e-22)
(1.17098e-05 5.1117e-05 1.3135e-20)
(-0.000303646 -0.000232458 -9.97546e-21)
(-0.00356531 -0.00187705 0)
(0.00406631 -0.00336655 0)
(-0.0339005 -0.158415 0)
(5.47979e-07 -1.33921e-06 1.31407e-21)
(-9.53865e-06 6.52596e-05 6.4857e-21)
(-0.00398299 0.0358367 -1.50265e-23)
(-0.000530285 0.00148976 3.05178e-21)
(9.76454e-06 -1.43881e-05 3.75251e-23)
(-0.0209157 -0.125313 0)
(1.0133e-05 1.89482e-06 -4.41047e-21)
(-0.000222272 0.000594992 -3.27114e-21)
(7.39506e-06 -1.34083e-05 1.08039e-21)
(-0.00470312 0.0055588 -3.88573e-21)
(8.85311e-05 7.63163e-05 -4.87219e-21)
(1.21778e-05 -1.86942e-05 -2.53683e-23)
(-0.000456812 0.000656254 1.00253e-21)
(0.000599706 -0.020255 9.9099e-22)
(5.45884e-06 2.29108e-05 0)
(-0.000167496 0.000448059 0)
(9.04021e-06 -3.50662e-06 -4.31358e-21)
(-0.00091354 -0.00490148 4.07502e-21)
(-0.019946 -0.0127984 -3.03474e-22)
(3.17821e-06 -4.82858e-08 0)
(1.92331e-05 -9.18194e-07 4.0773e-21)
(7.3748e-06 9.62272e-08 0)
(6.24393e-06 -4.47984e-07 -2.91887e-21)
(-0.0401349 -0.0188075 1.71711e-21)
(4.82517e-06 2.00089e-05 0)
(0.0214715 -0.0117636 6.30463e-21)
(2.07599e-06 1.06285e-05 -1.99759e-21)
(-3.09777e-06 -4.10776e-07 4.64576e-22)
(-0.0131857 -0.206025 2.4619e-20)
(0.00241381 -0.00128837 2.52337e-21)
(2.54234e-06 9.48891e-06 -2.29379e-21)
(-0.00189423 -0.00580954 0)
(-0.000295961 -0.000400829 -1.53666e-20)
(-0.0344952 0.0542041 -4.48698e-21)
(0.0382886 -0.0751127 0)
(-1.66345e-05 5.60152e-05 0)
(-0.0168467 0.0780035 2.31547e-21)
(7.8878e-06 3.08704e-05 0)
(-0.00145312 0.00530714 0)
(7.41367e-06 -1.89523e-05 0)
(-0.0176851 -0.0148015 -1.25589e-20)
(1.08669e-05 5.32491e-06 1.49053e-22)
(0.000795118 0.0258467 -2.71816e-20)
(-0.0234971 -0.0158654 2.22122e-20)
(9.16587e-06 2.30126e-05 -1.03078e-22)
(-0.0035291 -0.00490201 -7.00931e-21)
(0.0101939 -0.0509361 -2.18654e-21)
(0.00361804 -0.000167119 3.27888e-20)
(-0.00351305 0.0281113 -1.4628e-21)
(7.95729e-06 7.95234e-07 3.73473e-21)
(-0.00485078 0.0356418 8.16988e-21)
(7.04413e-06 1.11429e-06 -5.78416e-22)
(2.35547e-06 -1.21436e-06 1.57801e-21)
(7.31306e-06 -1.81234e-05 -1.73998e-21)
(7.10586e-06 2.86491e-06 0)
(-0.000157897 -0.000182822 0)
(-0.00142014 0.000440285 -1.24451e-21)
(-0.00142054 -0.00221365 1.08522e-20)
(-0.0071669 -0.0087029 -8.94802e-23)
(0.00982455 -0.0137575 -3.63316e-21)
(2.14328e-05 -9.0602e-06 0)
(-0.0332381 -0.0180699 0)
(-0.00131916 0.150512 -2.04228e-21)
(0.000201091 -0.000205246 6.63418e-21)
(9.19016e-05 0.000187735 1.32504e-22)
(-0.0359186 0.0407573 5.17828e-21)
(-0.0296021 0.185332 3.67663e-21)
(0.000965216 -0.0028041 0)
(2.41941e-06 -1.37325e-06 0)
(-0.0168024 -0.0257973 -6.58657e-21)
(0.0892103 -0.100881 5.41181e-22)
(0.0556408 -0.135885 1.54079e-20)
(-0.000804841 0.00100281 8.85148e-21)
(-0.00460627 -0.0054263 1.37812e-20)
(0.0264839 0.138221 4.00657e-21)
(-0.0145292 7.42799e-05 6.42906e-23)
(-0.0457195 -0.033462 1.81684e-21)
(-0.0199927 -0.102838 -1.37181e-22)
(0.0463053 0.0319775 -6.59543e-20)
(8.84897e-05 0.00017363 -7.78872e-21)
(0.0453423 0.038806 6.08724e-20)
(0.000333388 -0.00283534 -1.61202e-22)
(1.0708e-05 6.38859e-06 1.68011e-22)
(-0.0113115 -0.00250982 -2.88772e-23)
(-0.00142302 0.000273751 0)
(0.00286867 -0.00101255 4.13549e-21)
(-8.63386e-05 4.96154e-05 3.36572e-21)
(1.18978e-05 -3.96965e-08 -3.63256e-21)
(6.13064e-06 2.79649e-05 5.22326e-21)
(2.67285e-06 -5.57737e-06 5.01991e-21)
(-0.00342278 0.00432627 0)
(0.00257211 0.0072053 2.52672e-21)
(-0.0449575 -0.09785 -9.99818e-21)
(-0.0344348 -0.171708 -1.10922e-19)
(3.18596e-06 3.60766e-06 -1.38454e-21)
(0.00162005 0.0402433 -1.00064e-21)
(0.00607902 -0.00325642 3.71165e-21)
(0.00500749 -0.0358743 -5.70652e-21)
(0.000259703 0.161232 7.62541e-23)
(-0.00011846 0.000460845 -3.4681e-22)
(8.1216e-06 -1.22438e-05 -3.53565e-23)
(1.02947e-05 6.80552e-06 0)
(-0.000301656 0.0186535 0)
(-0.0314241 -0.0227038 0)
(4.8094e-05 -4.57547e-05 2.83465e-21)
(-0.000348014 -0.000608278 5.30536e-21)
(0.000393552 -0.00162797 0)
(1.27036e-05 1.66617e-05 0)
(0.0102137 0.00943373 1.0019e-20)
(-0.0257613 0.211359 -5.25893e-21)
(0.0205693 0.0297304 6.64864e-20)
(-0.00397771 -0.00106489 -1.36936e-22)
(-0.00012217 -0.000225175 0)
(0.0002289 -0.00236221 5.71487e-21)
(7.79229e-06 3.23249e-05 4.1703e-21)
(7.52578e-06 -1.11719e-05 0)
(0.00416937 -0.120966 1.91341e-22)
(0.00343235 -0.0051921 3.25506e-21)
(-0.000225038 -0.00138794 7.80631e-21)
(-0.000126879 0.000339317 -1.73126e-20)
(0.00319823 -0.02352 0)
(1.31478e-05 -6.97774e-06 3.23582e-23)
(4.86357e-06 1.06043e-05 3.39314e-21)
(0.0399379 0.0279976 0)
(1.26383e-05 1.43063e-05 1.60747e-22)
(-8.27453e-05 7.17119e-05 -3.17748e-21)
(1.2705e-05 -1.45671e-05 0)
(7.59997e-06 8.29954e-06 -2.14494e-21)
(0.000411182 -0.00298171 -1.50686e-21)
(-0.00380468 0.00316283 -1.4309e-20)
(0.00325201 0.00472911 0)
(1.33009e-05 9.43984e-06 -1.58071e-22)
(-0.106764 0.0710569 3.969e-20)
(-0.0280822 -0.0579815 -4.40839e-21)
(1.09014e-05 -4.2195e-06 0)
(-3.62687e-06 -7.55425e-07 0)
(8.04495e-05 -2.3488e-05 -4.55355e-22)
(2.62297e-06 -1.55734e-06 1.0591e-20)
(-0.0148724 -0.131147 0)
(-0.00757624 -0.145898 -1.68348e-21)
(-0.00783568 -0.127856 -5.69638e-23)
(0.0211687 -0.148846 0)
(-0.000966314 -0.00275197 -6.17893e-21)
(-8.69677e-05 0.000297738 1.02584e-20)
(0.0031343 -0.000722899 7.5102e-21)
(0.00161724 -0.00110513 -4.90528e-21)
(0.00125864 0.00282129 5.11411e-24)
(2.12578e-07 0.000473887 -1.12682e-20)
(8.41204e-06 -1.01692e-05 3.5619e-23)
(0.00109186 -0.000903922 0)
(0.000541635 -0.00185719 -1.9588e-20)
(-0.00475928 -0.0220419 -7.77216e-21)
(0.0374195 -0.054966 0)
(-0.000450831 -0.000611877 5.90821e-21)
(0.00050003 -0.00019134 0)
(9.25535e-06 4.93793e-07 -1.71772e-21)
(-0.0015243 -0.00139475 -1.27134e-20)
(0.000828503 0.000193905 0)
(-0.00844133 -0.000612663 2.23358e-21)
(-0.00202191 0.000609547 0)
(2.26377e-06 1.12176e-05 9.60613e-21)
(0.00199631 -0.00447824 2.69642e-21)
(1.06669e-06 -1.39262e-05 1.03145e-21)
(0.000182373 9.63125e-05 -4.6067e-21)
(-0.00812325 0.00250172 -2.7897e-20)
(7.74761e-06 -1.7268e-05 8.99184e-21)
(1.10049e-05 2.08339e-05 5.95945e-21)
(-0.00263323 -0.00346252 0)
(4.7189e-06 -3.22107e-07 2.08137e-21)
(-0.00270575 0.00403355 1.39239e-20)
(-0.00943669 0.0343737 0)
(-0.00606812 0.000428101 2.48475e-21)
(-0.00223624 -0.00104376 -6.28185e-21)
(-7.83239e-05 -0.00136677 0)
(9.04194e-06 -1.81228e-07 1.7201e-21)
(0.0509389 -0.0023042 -1.35436e-22)
(0.00450464 -0.00375088 -8.79054e-23)
(0.00409358 -0.150502 0)
(-2.91931e-05 -8.1188e-05 -1.54171e-23)
(2.90682e-06 1.2467e-06 1.33329e-21)
(-0.000319129 -0.000605092 5.76367e-21)
(0.000316941 -0.00022227 -7.98074e-21)
(0.06854 -0.0849955 0)
(0.00176498 -0.00261657 -7.18917e-21)
(-0.0237104 -0.0804675 -1.21066e-20)
(-0.0265137 -0.113042 -7.50232e-23)
(1.93488e-06 -1.99492e-05 -5.40311e-22)
(-0.000288718 -0.000639676 0)
(0.00011966 0.000168803 0)
(9.32983e-06 9.51884e-06 2.33148e-21)
(1.13543e-05 2.81086e-06 -8.23955e-23)
(7.37668e-06 9.47754e-06 6.46025e-21)
(0.000766566 0.0010585 0)
(0.00158795 -0.00286622 3.0284e-21)
(-0.00330517 0.00515745 6.90384e-21)
(1.32341e-05 7.13582e-06 1.54883e-22)
(-0.0138681 0.0917859 2.7468e-20)
(-0.0220848 -0.0208279 -2.31373e-20)
(-0.0293631 0.098094 0)
(1.23806e-05 1.70014e-05 0)
(1.05328e-05 -3.43439e-06 -5.61482e-23)
(4.67447e-06 3.37566e-06 -7.9529e-22)
(-0.00994871 0.0123275 0)
(-0.135698 0.0189527 5.19163e-21)
(-0.000510373 4.55698e-05 1.79016e-20)
(0.000204888 0.000107811 1.32182e-20)
(8.52449e-05 0.000211439 0)
(-2.34644e-06 -1.3768e-06 9.10663e-22)
(2.87501e-06 1.90612e-06 -6.94178e-22)
(6.80696e-06 3.81406e-05 -7.25188e-21)
(-0.000470218 -0.00446144 1.04173e-20)
(0.0143956 0.102561 0)
(5.18734e-06 1.00084e-06 -2.10715e-21)
(1.34452e-05 2.06597e-06 0)
(6.21178e-06 8.61951e-06 0)
(5.95813e-06 3.40185e-05 5.29128e-21)
(0.0399204 0.00868276 -2.06274e-20)
(0.00156807 0.0195113 2.86477e-21)
(-0.00128978 -0.00170194 6.99552e-21)
(-0.00708385 -0.0508341 0)
(-0.021338 0.111716 -6.89972e-22)
(1.12008e-05 1.9647e-05 -1.88944e-21)
(-0.00170184 -0.00207047 -6.49697e-21)
(-0.0646436 -0.177288 7.80223e-20)
(-4.30053e-05 0.000523303 0)
(0.0965091 0.00441125 -9.39506e-21)
(1.00923e-05 -2.52004e-05 7.6156e-21)
(0.00152578 -0.00114027 -3.6539e-21)
(-0.000536949 7.15251e-05 -1.60815e-20)
(0.00121936 -0.00186983 0)
(-0.0176977 -0.0720664 1.55502e-22)
(2.07392e-06 9.69881e-06 2.10511e-21)
(0.00678035 0.177381 8.88602e-22)
(1.01388e-05 8.56253e-07 0)
(-0.000107131 0.000178745 4.02506e-21)
(0.00247674 -0.00182731 8.27628e-21)
(3.27788e-05 -4.50598e-05 3.60519e-21)
(9.85661e-05 -0.000260543 -1.04985e-20)
(-0.00134069 -0.0224054 -2.28107e-21)
(2.43002e-06 -2.16868e-06 -3.22068e-21)
(0.000129462 -0.000202809 0)
(0.0840574 -0.0684134 7.85775e-20)
(0.124399 0.0603644 -2.64241e-20)
(-0.00197609 0.000855788 -7.70302e-22)
(-0.0277125 -0.00105717 0)
(0.0254091 0.0387377 -3.0009e-21)
(1.18814e-05 -1.47678e-05 -5.12755e-23)
(1.21922e-05 1.43976e-05 0)
(-0.0146693 -0.197249 8.61919e-20)
(0.000321342 -0.00152445 2.46109e-21)
(0.0086238 0.00912359 -1.57012e-21)
(0.00185719 -0.00290258 1.17624e-20)
(-2.41207e-06 3.93911e-06 -7.08351e-22)
(2.18278e-06 3.30313e-07 0)
(9.69437e-06 8.93374e-06 1.26065e-23)
(0.0166035 -0.043548 0)
(0.000192409 -0.00224452 0)
(-0.000332551 0.00048921 -7.30234e-21)
(-1.42431e-05 0.000103249 0)
(-0.0166578 -0.020553 -1.75534e-22)
(9.33419e-05 -4.18536e-07 0)
(5.22228e-06 3.24376e-06 5.91845e-22)
(0.0232971 0.035895 2.83239e-21)
(-0.0118556 -0.0625268 -1.55186e-22)
(0.00877138 -0.00814908 0)
(9.80132e-06 2.38924e-05 -3.79186e-24)
(5.48358e-06 -3.08651e-06 3.84872e-21)
(0.00440074 -0.0010401 -5.516e-21)
(0.000400712 0.0267766 0)
(0.000386365 -0.00112723 0)
(0.000630174 8.74361e-05 0)
(0.000221002 -0.00185163 -1.53131e-23)
(3.64144e-06 1.69062e-05 7.33497e-21)
(-0.011231 -0.0374725 -2.12619e-22)
(0.0138381 0.0187173 -8.76043e-21)
(0.00974779 0.00314575 2.32141e-20)
(-0.000129178 -0.000161589 9.39357e-21)
(-0.0116579 -0.0855264 -3.53833e-22)
(-0.000661448 -0.00394989 -5.58042e-21)
(0.000394314 -0.00136285 0)
(0.000461313 -0.00146827 8.5616e-21)
(2.54418e-06 1.58326e-06 1.39281e-21)
(3.60627e-06 -6.71967e-08 3.95374e-21)
(8.8948e-05 0.000100619 4.92593e-21)
(8.821e-06 -6.9293e-06 -1.39428e-23)
(0.0178771 0.0374121 0)
(0.000664612 -0.00101641 -1.12173e-20)
(-0.00360948 -0.00150218 1.23216e-20)
(0.0020177 0.00476446 4.40119e-21)
(-0.0128042 -0.00942189 1.42224e-22)
(8.89278e-06 7.7843e-06 -1.2417e-21)
(0.0762953 -0.0481275 -6.6141e-20)
(4.12531e-06 -1.92298e-06 0)
(-0.00148413 -0.00383924 -7.22583e-22)
(1.13847e-05 2.09161e-06 -2.19121e-22)
(1.20231e-05 1.1453e-05 3.69111e-23)
(5.04226e-06 -2.91e-06 0)
(0.0040029 -0.00620151 -6.80731e-21)
(4.67545e-06 2.4058e-05 -5.16293e-21)
(5.61624e-06 1.44543e-05 1.8143e-23)
(-0.0560432 0.116023 1.18898e-21)
(8.02405e-06 -8.93523e-06 -2.91044e-21)
(0.00413689 -0.00144572 -5.12463e-21)
(3.87191e-06 9.26125e-07 0)
(0.000421964 0.000711084 1.57768e-21)
(-0.000885822 -0.000275311 0)
(0.0443069 0.00492306 0)
(-0.0310927 -0.00685254 -3.29646e-21)
(6.90756e-06 3.32445e-06 1.21257e-21)
(0.0764061 -0.0143135 -7.85619e-21)
(-0.0141187 -0.0489805 3.01251e-22)
(3.55344e-06 2.48248e-05 -7.86113e-23)
(0.00238576 -0.00594776 5.42906e-21)
(-0.000108076 0.000178722 7.58483e-23)
(7.79729e-06 -1.29435e-05 0)
(-0.0016647 -0.00794585 3.01107e-22)
(0.0176579 0.0373046 0)
(0.0590626 -0.0145935 8.84194e-21)
(-0.000371188 -0.000140939 9.25821e-21)
(2.396e-06 2.23287e-06 0)
(1.30819e-05 8.45098e-08 6.37473e-23)
(0.00387799 0.155877 4.46374e-22)
(0.0129044 0.00318459 -2.9425e-20)
(-0.0165143 0.00508899 0)
(-0.00051599 0.00068345 0)
(-0.00353274 -0.00825283 0)
(2.5784e-06 -1.13108e-06 -3.89575e-22)
(0.000540513 0.000526092 0)
(-0.000151744 -0.000435198 1.24787e-20)
(-0.0123363 0.0620687 -5.88841e-21)
(-0.00283095 0.00557679 -3.56565e-21)
(0.0254451 -0.0359408 0)
(5.62863e-06 -3.41918e-06 -9.77091e-21)
(-0.00212172 0.00513707 3.68932e-21)
(-0.00164363 -0.000462731 0)
(-0.00022241 -0.000358334 6.6118e-21)
(-0.000233543 0.000547404 0)
(-0.127394 0.224301 1.37806e-20)
(-0.00835454 -0.00802611 1.04305e-20)
(7.86452e-06 -4.22177e-06 -2.49633e-21)
(0.154672 -0.0840992 0)
(0.0407982 -0.00331117 4.05306e-21)
(-0.075911 -0.0318515 0)
(0.121246 0.049733 0)
(0.00629955 -0.0166743 5.19404e-21)
(0.00472485 0.081629 -3.574e-22)
(0.00138698 -0.00303645 -2.33401e-20)
(8.56672e-06 -7.53972e-06 -1.12421e-21)
(-0.000341938 -0.00348039 -5.78177e-21)
(0.0035281 0.00598913 -3.77637e-20)
(0.119914 -0.0605756 2.05544e-21)
(3.543e-05 2.9318e-05 0)
(-7.26053e-07 8.32139e-07 -2.09239e-23)
(-0.0012411 5.64572e-05 1.9846e-22)
(0.018354 0.0523246 0)
(4.89083e-06 1.41475e-05 0)
(0.000364094 0.0245557 2.78943e-20)
(-2.15734e-06 5.07512e-06 7.23809e-22)
(1.42871e-05 1.6843e-05 0)
(9.07724e-05 0.0360387 1.77715e-22)
(0.00521836 -0.00127956 -4.67352e-21)
(0.0198914 0.0495275 3.68975e-21)
(9.84578e-06 1.06779e-05 0)
(2.85401e-06 -4.87631e-06 -7.29128e-21)
(0.000470739 0.0249314 -1.75821e-20)
(-0.000721055 -0.00446993 -1.19727e-20)
(-0.000330347 -0.00127614 -7.06713e-21)
(-4.7632e-05 0.00134736 5.1279e-21)
(-0.028933 -0.0714042 0)
(0.0167115 0.0311234 -2.59399e-20)
(-0.11667 0.0268968 0)
(-0.000958511 0.000848197 -2.20542e-21)
(-0.000327247 0.000460783 1.35303e-20)
(8.83412e-06 5.16529e-05 -5.24206e-21)
(7.93637e-06 -1.67369e-05 0)
(-0.0109443 0.174642 5.69331e-21)
(-0.000353089 5.76421e-05 0)
(-0.000142146 -0.000148975 0)
(0.00806288 0.000918646 -9.21137e-21)
(-8.40878e-05 0.000374768 0)
(0.0277857 0.0260257 -2.13433e-21)
(-0.070995 -0.042113 0)
(0.00633791 -0.0026945 -4.27003e-21)
(2.61792e-06 -4.68261e-06 0)
(-6.42387e-05 0.000257192 9.99893e-21)
(1.04319e-05 -7.78633e-06 0)
(-0.00202755 -0.0014818 2.03335e-20)
(5.31746e-05 -0.000260921 -6.35829e-21)