/*--------------------------------*- C++ -*----------------------------------*\
| =========                 |                                                 |
| \\      /  F ield         | OpenFOAM: The Open Source CFD Toolbox           |
|  \\    /   O peration     | Version:  v2012                                 |
|   \\  /    A nd           | Website:  www.openfoam.com                      |
|    \\/     M anipulation  |                                                 |
\*---------------------------------------------------------------------------*/
FoamFile
{
    version     2.0;
    format      ascii;
    class       volVectorField;
    location    "300";
    object      ddtCorrDdt0(U);
}
// * * * * * * * * * * * * * * * * * * * * * * * * * * * * * * * * * * * * * //

dimensions      [0 1 -2 0 0 0 0];


internalField   nonuniform List<vector> 
13726
(
(-0.00248888 0.000160814 -1.15164e-21)
(-0.000935748 -0.000125999 0)
(2.72232e-05 0.000185635 -5.29935e-21)
(-0.000280429 -0.000229014 4.54241e-22)
(-0.00235927 -0.000925697 6.78034e-21)
(-0.00160526 -0.000139768 3.31308e-22)
(0.000241351 -0.000183027 0)
(6.97342e-05 -5.6877e-05 5.45214e-22)
(0.00134635 0.00666838 1.05488e-19)
(-0.000563051 0.00107234 -4.96359e-21)
(0.00230898 0.00528852 -9.78587e-20)
(-0.000106673 -1.66719e-05 -2.45507e-23)
(-2.10752e-06 -1.84271e-06 0)
(-0.00071836 0.000139626 0)
(-0.000284699 -0.000295036 -6.9684e-22)
(4.54459e-05 -8.00851e-05 -1.94035e-21)
(-0.00176318 0.00928827 4.98989e-19)
(-2.26535e-05 -0.000167075 1.78267e-21)
(-0.000338372 -0.000669256 0)
(-0.00515592 0.00256886 -3.10296e-21)
(-0.00306393 0.00438443 0)
(1.11972e-05 -3.40713e-06 8.87943e-23)
(1.36535e-05 9.45753e-05 0)
(6.78284e-05 0.00047198 0)
(7.91824e-06 -2.8175e-06 0)
(2.91679e-05 6.22067e-06 0)
(-0.000564519 0.000780229 -7.50071e-21)
(2.77123e-05 9.55508e-06 0)
(7.53144e-06 -1.99569e-06 9.56712e-24)
(-0.000412478 -8.15995e-05 1.30589e-21)
(-0.00196767 -0.00122711 0)
(0.000139427 -4.55471e-05 0)
(-0.000980839 -0.000270749 3.66699e-22)
(0.000126719 -0.000646463 1.02057e-21)
(0.000362388 0.00773328 4.88299e-22)
(0.000483177 0.000331076 -2.05744e-21)
(-0.0002015 -0.00013145 -9.05381e-20)
(-0.000916311 -0.000142341 0)
(-2.06211e-05 4.07203e-05 6.96582e-22)
(6.64661e-05 3.80265e-05 -9.7806e-23)
(5.30351e-05 0.000594254 0)
(-0.00168341 0.00766137 0)
(-1.01054e-05 1.57583e-06 0)
(-1.51986e-05 1.69927e-05 -1.04173e-21)
(-0.00275766 -0.00143332 7.44168e-22)
(-0.00018659 -0.000970453 -4.35053e-21)
(-0.00663523 -0.0106536 1.80561e-22)
(-1.89101e-05 -4.65057e-05 -2.74507e-24)
(-0.00115091 0.00274026 5.17783e-21)
(5.04523e-06 -4.72476e-07 6.11332e-23)
(0.00020801 -0.000372964 -7.05397e-22)
(-2.79869e-05 -4.69054e-05 -2.42873e-23)
(0.000804327 -0.00214611 0)
(-5.36058e-05 6.88878e-05 1.57049e-21)
(0.000317522 0.00159689 1.38027e-20)
(-1.34824e-05 -1.7133e-05 -2.04429e-21)
(0.000342042 -0.00162095 8.15015e-23)
(0.000325628 -0.00206063 -8.70654e-23)
(-0.000210766 0.000617883 -3.04562e-21)
(0.00023502 -0.00121068 -3.45702e-21)
(-0.00114967 0.000388196 1.32935e-21)
(-2.94982e-05 2.99238e-07 1.01819e-21)
(-0.000867255 -0.000101751 3.47988e-21)
(1.04251e-05 -5.73333e-07 6.48753e-24)
(-0.000915677 -0.000108447 0)
(5.98665e-05 -1.26667e-05 0)
(-0.0035208 0.00431623 0)
(-0.000415733 -0.000444602 3.33355e-22)
(-5.27806e-05 -3.39886e-05 -2.3554e-23)
(-0.00108247 -0.00326859 1.82656e-20)
(-0.00551434 -0.0109221 0)
(5.20435e-05 -9.76257e-05 0)
(-1.11497e-05 -2.65617e-08 2.6812e-22)
(-0.000367542 0.000295528 -1.49816e-21)
(-0.000472701 -0.000652673 6.01647e-22)
(-0.000341755 0.000942887 8.61352e-22)
(-0.00369121 -0.000916801 0)
(0.000170689 -3.37632e-05 0)
(-0.000547714 -0.000596099 0)
(-0.00136347 0.00181945 5.66825e-21)
(0.000373175 0.000407653 0)
(0.00081194 0.00115038 5.56295e-21)
(-0.000500245 0.000409138 3.7352e-21)
(-1.67925e-05 -1.87915e-07 3.19364e-23)
(-2.94799e-05 6.97626e-05 -4.62604e-22)
(-0.000711007 -0.000106684 1.67485e-21)
(-8.20098e-05 -0.00137824 0)
(-0.000186123 9.82719e-05 -3.53016e-21)
(5.26122e-06 -2.32314e-07 5.89066e-23)
(0.00299587 0.000324351 -3.76766e-21)
(-1.94767e-05 3.183e-05 1.54211e-21)
(-0.000693838 0.00629281 -1.14297e-20)
(-0.000120204 0.00010078 2.53931e-21)
(0.000283285 0.00103716 -4.57061e-21)
(-5.29099e-06 -0.000277684 0)
(-0.000969795 -0.000257401 -4.23973e-22)
(0.000153884 0.000137769 -3.3804e-21)
(-9.66666e-05 -2.28832e-05 2.53143e-23)
(-1.87268e-05 -7.72797e-06 0)
(0.00365689 -0.00849048 -2.07403e-22)
(-0.000224002 -0.000727277 4.714e-21)
(7.96509e-05 0.00145208 -4.39626e-21)
(0.0030573 -0.00197167 -9.40223e-23)
(-4.9164e-06 -6.5273e-07 1.09616e-23)
(0.00341842 -0.00528207 4.97273e-22)
(-0.000449187 0.00163219 0)
(0.000732928 -0.000589449 0)
(-0.00010994 -1.47744e-05 0)
(3.91914e-05 -8.68805e-05 7.57277e-22)
(0.00035265 0.000146239 2.05779e-21)
(-0.00107066 0.000408277 -2.80423e-21)
(-8.79657e-06 3.11146e-06 0)
(3.58939e-05 -0.00115568 -2.1504e-21)
(8.09809e-06 0.000377064 -1.30058e-22)
(-0.000257044 0.000745587 0)
(-1.70284e-05 7.91653e-05 6.45116e-22)
(-0.00630286 -0.00318875 0)
(0.000822785 -0.000757463 -8.28149e-22)
(0.00295483 -0.00214614 0)
(-0.000220984 0.000807465 4.13828e-21)
(-0.00070949 -8.07301e-05 -2.27383e-21)
(-7.55758e-06 -1.66856e-05 2.64734e-22)
(-0.000148543 0.00233204 -8.80865e-21)
(-0.00030523 -0.000637294 0)
(-0.000320977 -0.00103491 -5.02454e-22)
(-0.000813168 -0.00017716 0)
(-9.38258e-06 -1.97759e-05 4.94634e-22)
(-0.000253497 -0.00211489 0)
(-7.76454e-06 4.23107e-06 -1.16152e-23)
(-0.000711415 -9.40364e-05 -7.00758e-22)
(-0.00103856 0.000691652 0)
(0.00215693 0.00230569 3.7859e-21)
(-0.000780482 0.000341908 6.55914e-22)
(-0.000117719 -0.000311735 -4.87299e-21)
(-0.000450154 0.000432453 2.18149e-21)
(-0.000429741 -0.00640726 -3.10641e-20)
(-0.000916243 -0.000119301 0)
(-0.000263303 -0.0079788 -3.65164e-23)
(0.00275185 -0.000954786 1.19663e-22)
(-7.92745e-05 -0.00411237 -8.92825e-22)
(-0.000440343 -0.00273196 0)
(-0.000600515 0.000261129 -7.86711e-22)
(-3.13378e-05 8.96413e-05 0)
(-1.41994e-05 -3.13436e-05 -1.77758e-25)
(-0.00150724 -0.000998498 -3.50328e-22)
(-0.000208182 0.00195853 3.60135e-20)
(0.00300571 0.000833319 1.86266e-21)
(0.000488689 -0.00142999 0)
(-7.00823e-05 0.00051721 4.28374e-21)
(-0.00042728 -0.000630673 -6.61667e-22)
(-2.8219e-05 1.32222e-05 3.85351e-22)
(-1.26845e-05 -4.03869e-06 -1.27044e-23)
(0.000320095 0.00152158 -1.06313e-21)
(-0.000207322 -0.00113748 0)
(-4.15939e-05 -3.27446e-05 -6.36448e-24)
(0.000439588 -0.000446926 2.05939e-21)
(-0.00051603 -0.00206538 -2.99154e-21)
(0.00153425 0.00319446 -5.73955e-23)
(3.14876e-05 -0.000290663 0)
(8.6071e-06 -2.01043e-06 8.37784e-23)
(4.74421e-06 -5.60918e-07 -5.91815e-23)
(-3.06412e-06 -1.00257e-06 0)
(-0.000830025 -9.37136e-05 -3.095e-21)
(-0.000611475 0.000312361 -7.89363e-22)
(4.64442e-05 3.63784e-06 0)
(0.00262632 -0.00503172 -4.22467e-23)
(0.000134708 -0.00441837 0)
(0.000335008 -0.000253378 0)
(-0.000175679 -0.000434225 0)
(-4.05568e-07 -1.22199e-06 4.6007e-23)
(-0.0037543 -0.00163895 1.17338e-22)
(0.000187581 4.41763e-05 -2.00034e-21)
(0.00323728 0.00375355 1.35169e-21)
(-7.82735e-05 -0.000449164 6.55298e-21)
(-3.65844e-05 -0.000324509 3.00294e-22)
(0.000575647 -0.00140186 0)
(-1.33822e-05 -1.2735e-05 -8.38429e-24)
(-0.0015897 -0.00164618 0)
(-0.00063875 -0.000986833 -2.72234e-22)
(-1.35013e-05 -5.24906e-06 1.29057e-23)
(-0.0011106 -5.96021e-05 -2.5018e-21)
(1.8737e-05 8.35469e-05 1.56877e-21)
(-0.00081502 -0.000193017 -6.72175e-22)
(-0.000164305 -0.00034234 0)
(-1.19986e-05 -2.06243e-05 2.2358e-25)
(-3.71053e-05 5.8683e-05 2.40666e-22)
(-5.44969e-06 -1.89329e-06 0)
(-7.67902e-05 0.000179394 5.37886e-21)
(3.41268e-05 0.000168603 2.26937e-21)
(0.00018337 -0.00140843 9.69813e-21)
(0.000143477 0.000257416 -1.04365e-21)
(0.000305667 -0.00780231 0)
(-0.000392009 -9.65359e-05 -1.75528e-21)
(-0.000430787 -0.000104008 0)
(3.47334e-05 -5.26986e-05 8.48304e-22)
(4.96461e-05 -2.62393e-06 -5.58259e-24)
(-1.80266e-05 4.24496e-05 0)
(-0.000437479 -0.00112035 0)
(-0.00130816 -0.0086594 -3.42961e-22)
(-8.79417e-06 3.87208e-06 8.59025e-22)
(-0.000998389 -2.7148e-05 0)
(-0.000563532 -0.00833923 0)
(-0.000695969 -0.000112184 -1.95698e-21)
(-0.000139514 -0.000629889 -1.28762e-21)
(-1.78774e-05 3.26077e-06 0)
(3.05479e-05 1.95551e-05 0)
(0.000124978 8.21217e-05 0)
(0.00102301 -9.51522e-05 -1.12254e-21)
(-0.000198506 -0.000473766 -1.19215e-21)
(-0.00114711 0.00138196 -1.12392e-21)
(-0.00383223 -0.002994 -1.44331e-20)
(-1.5182e-05 -0.000247831 0)
(-0.000665558 -8.31039e-05 1.97206e-21)
(1.1363e-05 2.94244e-06 9.359e-24)
(-1.82085e-05 -0.000250577 1.0204e-21)
(-0.000588352 -0.000604548 -1.56354e-21)
(6.11867e-05 -0.000136454 1.76489e-21)
(-1.73546e-05 -3.33975e-06 2.33703e-21)
(0.000190901 -0.000110697 -1.01281e-21)
(0.000562391 0.000160198 0)
(0.000510846 -0.00237364 -4.65147e-21)
(-0.000710391 0.00230203 0)
(0.00605409 -0.00333674 -6.92773e-23)
(0.000508908 0.000360671 4.00589e-21)
(-6.05227e-05 -4.3999e-05 4.36149e-22)
(-0.000585931 -0.000814454 0)
(-0.000476309 -0.00124649 3.02118e-21)
(-0.000106889 -0.000382101 2.25206e-21)
(-0.000563862 -1.62727e-06 -1.969e-21)
(-9.4657e-05 -6.19366e-05 -2.59619e-21)
(0.000210681 3.19546e-06 3.6874e-21)
(-0.000949319 -6.28317e-05 0)
(-0.00109152 1.84995e-05 2.81556e-21)
(0.000129535 6.13488e-06 9.08079e-22)
(0.000278234 0.000906034 0)
(-1.30938e-05 2.68593e-05 2.15671e-21)
(-7.51011e-05 -0.000481146 3.57024e-21)
(0.00110641 -0.000823166 -6.90124e-22)
(-0.0055033 0.00256818 3.42434e-22)
(0.000355419 -1.08241e-05 -4.25761e-21)
(-6.00259e-06 2.24875e-06 -6.42397e-24)
(7.9942e-05 8.33554e-05 3.04117e-21)
(-0.000113058 -1.58178e-05 0)
(-0.000129466 -0.000316568 6.27336e-22)
(0.00311971 -0.00409215 0)
(0.00295153 0.00106391 1.68881e-21)
(-9.03035e-05 -0.00116113 5.98714e-21)
(-0.000254105 0.00158056 -1.30306e-21)
(1.37526e-05 1.43076e-06 -2.65697e-23)
(-0.00148409 0.00129168 5.54054e-21)
(0.000119933 -0.00106051 3.04998e-21)
(0.000200944 -0.000524296 1.4398e-21)
(-0.000299164 1.23936e-05 -2.26875e-21)
(0.000198073 -0.000656201 -1.64338e-21)
(0.00103499 -0.00019575 1.8786e-21)
(-0.000506151 9.36873e-06 0)
(4.24616e-05 -0.00100045 1.00458e-20)
(-0.00110054 0.000403986 -2.2297e-21)
(-0.000476903 0.000330505 -3.74582e-22)
(-0.000284755 -0.000216535 1.83739e-22)
(-0.0013615 -0.00636939 1.3037e-22)
(-7.12177e-05 -0.000455733 -2.92847e-21)
(-0.000901816 -0.000142238 -5.52851e-21)
(1.04393e-05 3.00952e-07 -3.96514e-23)
(0.000210524 -0.000176974 1.31485e-21)
(-0.000975174 -0.00148271 1.09729e-21)
(-1.78004e-05 4.86034e-06 4.58466e-23)
(1.78758e-06 -1.10045e-05 -6.94072e-21)
(6.90012e-06 -8.80901e-07 -6.27054e-23)
(6.55464e-05 0.000701475 -5.61919e-22)
(-0.00810438 -0.00514139 0)
(0.000230453 -1.36993e-05 0)
(0.000417697 -0.00062161 1.08611e-21)
(-4.5597e-05 -0.000519076 0)
(0.000197437 6.92936e-05 -7.08318e-22)
(-0.00146417 0.000289663 -2.18931e-21)
(-0.000180983 -0.000626659 1.15034e-21)
(-0.00888311 -0.00374026 0)
(0.000430154 0.000472326 3.10547e-22)
(0.00012805 -0.00011285 9.6428e-24)
(-0.000146125 -0.00415234 0)
(1.82365e-05 -0.000465711 -1.21236e-20)
(-0.000519067 -0.000562157 0)
(-2.89299e-05 -0.000865761 1.35673e-21)
(-0.000535214 -0.000400682 0)
(-3.51723e-05 1.10554e-05 3.69901e-22)
(-0.000936446 -8.52926e-05 1.4812e-21)
(-0.000345398 -0.000299551 -7.15473e-22)
(-0.000893513 9.81691e-05 6.96223e-21)
(5.0175e-05 -2.82285e-05 0)
(-0.00082881 -0.00015841 0)
(-9.62408e-05 0.000528677 -6.3658e-22)
(1.46353e-05 5.94129e-06 0)
(-0.000545809 0.000271748 -4.20391e-22)
(0.00105154 6.71251e-05 4.22384e-21)
(-0.000347397 0.00218488 -1.16963e-22)
(0.00121721 -0.000985576 0)
(1.64664e-05 2.36792e-05 -5.77693e-22)
(0.00164699 0.00300809 -8.66731e-21)
(-1.83789e-07 3.95215e-06 -5.32793e-22)
(-0.00180786 -0.00401198 0)
(0.000522854 0.000410558 9.72121e-22)
(-0.00274058 0.00430385 0)
(-3.93379e-06 6.71895e-05 0)
(-0.00111756 -0.00178853 6.80096e-23)
(-5.95437e-06 -0.000368346 1.4072e-21)
(-0.00010742 0.000194573 9.0919e-22)
(-0.00101607 -0.000281608 -2.43458e-21)
(4.63062e-06 -0.000523146 -7.84755e-22)
(0.00115548 -0.0024318 0)
(0.000178919 0.00385324 -6.64762e-21)
(-0.00419328 0.00391054 0)
(-0.00166761 -0.00140607 0)
(-0.000699893 -5.48691e-05 0)
(-2.06836e-05 -3.97446e-05 2.33123e-22)
(-0.010798 -0.00624408 0)
(-8.804e-05 -8.98459e-05 0)
(-0.000755935 -9.6793e-05 -1.32407e-21)
(0.000365133 -2.10745e-05 2.07729e-21)
(0.000810384 7.29138e-06 0)
(0.000612466 0.00428794 8.16731e-23)
(0.00113727 -0.000703693 0)
(3.6701e-05 -0.000298591 -1.61365e-21)
(-0.00309331 0.000134293 0)
(0.000158482 -0.00223862 4.07634e-22)
(-0.000494288 0.00118572 1.54886e-21)
(4.0529e-05 0.000108862 0)
(0.000207516 -0.0042666 -7.9842e-22)
(-1.26919e-05 1.07651e-05 0)
(-0.000778163 -0.000200084 1.08697e-23)
(0.00385966 -0.0010089 9.20352e-23)
(-0.000976535 -9.00877e-05 2.21243e-21)
(-8.62766e-06 -2.44239e-06 1.13673e-23)
(-0.000476556 -0.00150544 0)
(0.00152931 0.00291858 -2.1655e-19)
(-1.54491e-05 -2.09943e-05 -2.01439e-21)
(-7.69825e-06 -9.84765e-07 0)
(-0.000637097 -3.62815e-07 0)
(0.000149302 0.000535291 4.11577e-22)
(0.00195285 0.00371965 -5.00781e-22)
(0.00230518 0.00196886 3.96759e-21)
(-0.000457294 -0.000419506 -2.15355e-22)
(-0.000107813 -0.000327347 -2.1844e-21)
(-0.000939206 -9.71528e-05 0)
(1.39087e-05 -0.00048444 2.25964e-21)
(-0.000991146 -0.00050797 0)
(-1.17762e-05 -2.9814e-06 0)
(8.25772e-05 5.1541e-05 -1.0135e-21)
(8.26518e-05 0.00058776 0)
(-2.28362e-05 1.15858e-05 -4.54075e-22)
(-0.000154297 0.000504621 -2.21926e-21)
(-0.000503436 -0.000428248 1.90156e-22)
(-0.000308085 -0.000553815 1.18618e-23)
(0.000441171 -0.000375645 9.8487e-24)
(-0.000299034 -5.71614e-05 1.07438e-21)
(-4.53537e-05 0.000211165 -7.21735e-21)
(-3.43616e-05 -1.2963e-05 7.11501e-22)
(-7.52197e-05 0.000113108 -1.5491e-21)
(0.000103275 -0.00132839 0)
(0.00016244 -0.000754285 3.09799e-21)
(-3.08479e-06 -1.83771e-05 -3.23311e-21)
(-0.00020451 0.00081791 0)
(-0.000228397 0.000962309 -9.7036e-23)
(-4.23309e-05 -2.67038e-07 -7.56562e-22)
(0.000268165 -0.000819469 -7.66734e-21)
(-0.00104836 -0.000189897 3.46458e-21)
(0.000515074 -0.000660936 -9.42288e-22)
(1.23964e-05 0.000115582 9.30023e-22)
(0.000418986 -3.66837e-05 -2.87575e-22)
(9.49638e-05 -0.00029905 0)
(-0.000393703 -0.000126838 1.42627e-21)
(-2.30561e-06 -2.98563e-06 0)
(0.000451658 -0.000309395 -1.09117e-23)
(0.000207449 0.000276975 -7.9218e-22)
(-0.00101264 -0.00181367 -1.57236e-21)
(0.000501558 9.22456e-05 0)
(8.70221e-06 -2.66647e-06 6.10984e-23)
(0.00240699 -0.00193128 -1.86011e-21)
(-0.000100954 -0.000373737 -2.55112e-21)
(-0.000781189 0.00204028 -2.29256e-21)
(-6.95875e-05 -2.43979e-05 -2.34976e-22)
(4.86479e-06 -1.50441e-07 3.9003e-23)
(-1.78034e-05 6.81876e-07 0)
(-0.00066955 0.000185391 0)
(0.00235125 -0.00312927 9.54884e-22)
(-0.000886097 -0.0012961 -1.15765e-21)
(-0.00044392 0.00113303 6.49573e-22)
(-0.000864926 0.000438389 1.73371e-22)
(-4.84717e-05 1.07441e-05 -7.19981e-22)
(-0.000588746 0.00565801 0)
(4.15075e-05 1.4412e-05 -3.33855e-22)
(-1.64195e-05 1.37125e-05 3.4579e-21)
(-0.000166762 -0.000233454 0)
(1.90622e-05 -0.000203834 -2.62503e-22)
(-1.2344e-05 6.19923e-07 -1.60548e-22)
(-0.000117763 0.00218974 -4.97952e-21)
(0.000550764 0.0003016 2.48078e-22)
(-0.000421968 0.000278393 0)
(0.000106159 0.000915356 4.02812e-21)
(-1.5419e-05 -9.13583e-06 -1.8023e-21)
(4.89782e-05 5.82187e-05 0)
(-1.45822e-05 -3.24402e-06 1.3673e-21)
(0.000153116 0.000275431 0)
(-0.000986586 0.00193816 3.00361e-21)
(5.00106e-05 -0.00127235 -3.17008e-21)
(-0.000388443 0.000956526 -1.41006e-21)
(0.00108815 -0.00254853 4.78907e-21)
(-1.14272e-05 -2.68478e-05 -2.3491e-21)
(-0.0012289 0.000494341 1.37405e-21)
(-0.0132264 -0.0144899 -2.36739e-22)
(2.4922e-05 -0.000332911 1.14535e-21)
(-0.00042119 -0.000754887 2.63028e-22)
(-3.26618e-05 0.00482103 1.16443e-22)
(-0.000377258 0.00442625 5.87145e-21)
(-0.0030919 -0.00197812 0)
(-9.99891e-05 -0.00046621 0)
(0.00035892 -0.000377226 -2.68112e-21)
(0.00174816 -0.00437974 2.03679e-21)
(-0.000912845 -0.000144648 7.40167e-22)
(0.000122114 0.000252536 0)
(0.00288265 -0.00019432 -4.45618e-21)
(-0.00975111 -0.00867164 0)
(1.20078e-05 3.37111e-06 -8.97839e-24)
(0.000782893 0.0018028 0)
(-0.000510096 -0.000457712 -1.72587e-21)
(-0.000511185 0.000877803 1.35212e-22)
(-0.000563646 -0.00054385 0)
(-9.28684e-06 2.44821e-06 -5.07851e-22)
(-2.67717e-05 8.72779e-06 1.15433e-21)
(0.00138253 0.00266245 0)
(-0.000883604 -0.00108938 0)
(-0.000486139 -0.000934448 -2.48577e-21)
(-0.000336903 -0.000507277 6.75043e-22)
(-0.00056232 -0.000868425 2.48079e-21)
(-0.000432979 0.000292392 0)
(-0.000121585 0.000689812 4.11304e-23)
(-2.39747e-05 -2.67432e-05 -2.06406e-22)
(-0.000478127 0.000879154 0)
(-0.000158712 0.00236257 -2.79699e-20)
(0.000236233 0.000731326 -4.97401e-20)
(-4.74391e-05 -3.83095e-05 1.58268e-22)
(-0.000338102 -0.000427283 -1.72342e-21)
(-0.000114934 0.000622982 -4.22076e-23)
(0.000934616 -0.00418472 -8.48073e-23)
(0.00112183 -0.00142486 0)
(2.39141e-05 -2.89381e-05 -1.99672e-22)
(0.000659526 7.64863e-05 2.34964e-21)
(6.98219e-06 -1.047e-06 7.69894e-23)
(6.50429e-05 -1.42885e-05 -4.48456e-24)
(-0.00554178 0.00011525 0)
(-0.000533774 0.000909433 3.66488e-22)
(-0.00023137 0.00038724 2.33776e-21)
(-0.000282861 0.000824114 -9.45169e-22)
(-8.94965e-05 8.42004e-06 7.90518e-24)
(-2.87814e-06 0.000171766 1.68599e-21)
(-1.33872e-05 -8.44417e-07 0)
(0.000168934 6.82043e-05 -2.35184e-21)
(3.42011e-06 9.63336e-05 0)
(2.48594e-06 2.60417e-05 -4.54628e-23)
(5.51992e-05 -0.00127521 0)
(0.00118559 0.00105412 -4.99711e-21)
(0.000563796 0.000467662 -1.11471e-21)
(8.44309e-05 -0.00113658 8.61516e-21)
(-0.000278376 -0.000347286 1.04235e-21)
(-0.00507852 -0.00199362 5.42701e-22)
(-0.000394926 -0.000357882 8.27053e-23)
(-2.0579e-05 7.43151e-05 0)
(-0.000647437 -0.000161931 -2.56888e-21)
(-1.3461e-05 -7.69759e-06 3.10876e-22)
(-0.000330193 -0.00112554 1.06951e-21)
(0.000187421 0.000107585 -4.51197e-21)
(-6.05011e-06 1.15582e-06 -4.40914e-23)
(0.000160124 0.000360356 2.62369e-22)
(3.86435e-05 8.94248e-06 -2.63895e-22)
(1.81627e-05 -0.000544618 6.56827e-22)
(-5.78719e-06 -1.4327e-05 9.87658e-24)
(-0.00483489 0.00298705 3.35612e-22)
(0.00105619 -0.00462941 -6.35569e-21)
(-0.000417222 0.00104372 -6.83044e-22)
(-2.62749e-06 -0.000124177 6.21852e-23)
(-0.0019092 -0.00722059 0)
(7.03933e-05 -0.00023797 -7.71275e-23)
(3.36885e-05 4.77834e-06 -3.09945e-24)
(0.000817002 -8.72231e-05 0)
(1.47584e-05 5.58131e-06 7.20661e-24)
(-0.000514091 0.000640647 0)
(-6.25656e-06 -1.02828e-06 2.38692e-23)
(0.000169999 0.000366584 3.21485e-22)
(0.000497414 0.000402375 0)
(9.4082e-06 -0.000587051 0)
(2.38275e-05 0.00294973 0)
(0.00022192 -0.00198051 0)
(0.0029629 0.00169844 0)
(0.000376375 0.00046095 -3.52403e-21)
(-0.00076389 0.000148994 1.16599e-21)
(-0.000314043 0.000285144 0)
(-9.20993e-05 -0.000705801 -4.1989e-21)
(0.000131736 0.00077034 6.03486e-22)
(-0.000944537 -8.76919e-05 -1.0756e-21)
(-3.43534e-05 -2.37545e-06 0)
(2.32229e-06 -1.2333e-06 -4.26811e-23)
(-0.00104537 -0.00769344 4.47766e-24)
(0.00271524 0.00137176 0)
(-0.00111136 0.0111051 -3.69797e-20)
(0.000272731 -0.000179057 1.04743e-21)
(1.9859e-05 -2.49596e-05 0)
(-0.00153836 -0.000127942 0)
(-5.47101e-05 -0.000443684 1.35391e-21)
(9.46242e-05 -0.000168655 2.19108e-22)
(-1.90336e-05 1.26146e-05 0)
(0.000647101 0.000558337 -4.69259e-21)
(-0.000781383 -0.000138327 1.4183e-21)
(-8.87098e-06 2.18585e-05 0)
(9.85708e-06 0.000294289 0)
(3.66629e-05 1.17895e-05 3.04308e-24)
(-0.000274958 -5.35673e-05 -6.39145e-22)
(-0.00085832 -0.00079725 -9.59109e-21)
(5.02686e-05 0.000185689 0)
(-0.000310127 -0.00031729 -1.69952e-21)
(0.000537447 -0.00187595 8.80451e-21)
(-2.33749e-05 3.08712e-06 1.79567e-21)
(-0.000949806 0.00382237 0)
(-0.000449088 -0.000275185 -1.66504e-21)
(-0.0130482 -0.0109002 3.72269e-22)
(-0.00105252 -0.00157953 4.38105e-21)
(0.0012544 0.00245986 9.34737e-21)
(0.000165599 -0.000302254 -9.8449e-23)
(0.000165238 -0.000703285 -1.25414e-21)
(1.22176e-05 4.37186e-06 0)
(-0.000363729 -0.00487395 5.13763e-21)
(0.000208744 -0.00111332 3.16074e-21)
(-0.000880914 -0.00213332 -5.39744e-20)
(-0.000272361 0.000732451 0)
(7.18179e-06 -0.000244307 -3.38888e-21)
(0.00196373 -0.00122466 1.44585e-22)
(-0.000706652 -0.00190144 0)
(0.000387613 -0.00090897 0)
(-0.000546802 0.00117662 0)
(0.00040393 -0.000511608 0)
(6.20199e-05 5.90508e-05 -1.05139e-21)
(0.000333262 -0.000551015 -1.77e-21)
(1.42584e-06 -1.45082e-06 -4.03891e-23)
(-0.00084424 -0.00226518 0)
(-0.000501584 -0.000803188 8.49183e-21)
(0.00130686 -0.000551193 -5.53971e-20)
(-0.000509745 -0.000231497 0)
(0.00017065 -0.00127724 0)
(-1.70742e-05 1.07985e-06 0)
(-0.000685889 -0.00529995 -2.13114e-23)
(-1.71477e-05 4.37421e-05 -1.75832e-21)
(-0.000172961 0.000346878 0)
(-0.001211 -0.00808208 -1.51034e-24)
(0.000391691 0.000149499 0)
(0.000184542 1.26851e-05 -1.27524e-21)
(-0.000169898 0.000887362 7.3335e-21)
(-0.00114436 0.000206318 -1.2099e-21)
(-3.79836e-06 -1.99016e-06 -3.8382e-24)
(0.000152445 -0.000213529 1.61349e-21)
(0.000677799 -0.0039805 -2.16268e-21)
(-0.000206103 -0.000368838 3.58318e-21)
(0.00211451 -0.0154379 -9.0344e-22)
(-0.000666316 -0.0013128 0)
(0.000552518 0.000438986 0)
(0.000215744 -0.000413857 1.05972e-21)
(-0.0016162 0.000478486 0)
(-0.000552029 -0.00477733 -1.26838e-22)
(0.000416528 0.000234654 1.32903e-21)
(-5.08321e-06 4.86513e-05 1.9612e-21)
(0.000438921 0.000273249 0)
(-0.00226969 0.00368401 3.63536e-21)
(0.00117953 0.00238005 0)
(-1.7569e-05 -1.62427e-05 -2.60634e-25)
(8.83107e-05 -0.000128044 -4.58313e-24)
(0.000503051 -0.000239643 -4.94377e-21)
(-1.08687e-05 -1.64229e-05 -1.38256e-21)
(0.000692756 8.35934e-06 0)
(-0.00108195 0.000135105 1.00587e-21)
(-0.000254372 -0.000629949 -3.16085e-20)
(-0.0003974 0.000687054 -2.93803e-21)
(0.00157853 8.87934e-05 7.87174e-22)
(-0.00100264 -7.86952e-05 -1.23574e-21)
(-0.000576295 -0.000187803 0)
(0.000508762 0.000199369 0)
(-4.1476e-05 -1.51217e-05 0)
(-0.00177836 -0.0148092 0)
(1.52347e-05 -5.06768e-05 1.36377e-21)
(-0.000209718 -0.000662897 0)
(-0.00164109 -0.00687535 3.34027e-23)
(-1.02659e-05 -1.17815e-05 9.12375e-24)
(0.000132821 0.000102701 0)
(0.000120825 -0.000214247 -5.0011e-22)
(-0.00121205 0.00274649 0)
(0.000112996 0.000561002 -3.59465e-22)
(-0.000125609 3.18565e-05 0)
(0.00116403 0.0003396 -1.15584e-21)
(8.40965e-06 -1.8618e-06 0)
(0.000748998 0.00289298 0)
(-4.63156e-05 0.000559573 2.55236e-21)
(0.00019283 0.000317912 0)
(0.000347135 -3.74035e-05 1.61351e-21)
(1.56746e-05 -0.000323971 1.08817e-21)
(-1.6444e-05 3.99789e-06 1.38014e-21)
(-2.83352e-05 1.50487e-05 -8.28557e-23)
(3.07032e-05 -3.36407e-05 5.41523e-22)
(-1.75524e-05 3.46563e-06 -2.67161e-23)
(0.000218733 -0.000121111 -2.77121e-21)
(0.000410286 -0.000578838 4.70485e-22)
(-0.00447343 0.0013798 -1.69003e-21)
(-1.86515e-05 0.00034397 -5.56812e-21)
(-0.00806824 -0.0180343 1.51358e-22)
(-0.000482816 0.000852616 0)
(-9.15299e-05 -0.000634886 -2.52251e-23)
(0.000326578 0.000431171 5.6123e-21)
(0.000189301 -0.00374155 1.65372e-21)
(-0.000371146 -0.00037178 1.04856e-23)
(0.000392499 -0.000590073 0)
(-4.07416e-06 0.000592741 -9.37944e-22)
(6.63222e-07 -1.59502e-05 0)
(0.000527556 0.000283584 -2.28066e-22)
(-0.00030843 -0.00152917 0)
(-4.49434e-05 6.76261e-05 0)
(0.000335421 -0.000956083 7.84801e-24)
(-2.62646e-05 1.66604e-06 -4.50434e-21)
(0.000426118 0.000237866 0)
(-0.0017149 -0.00314022 -4.94246e-22)
(-1.42426e-05 5.10629e-06 7.20405e-22)
(0.00095854 -0.0015157 0)
(-0.000984528 -0.000253774 0)
(2.08892e-06 -1.63499e-05 0)
(-9.45595e-06 -3.13126e-07 1.765e-22)
(0.000159027 -0.000286078 -1.46299e-21)
(0.00140837 0.000699745 0)
(-0.000804552 -0.000508579 -7.69039e-22)
(-8.27468e-05 0.00018288 0)
(-0.00092243 -0.000145165 -2.10477e-21)
(-0.000114504 -0.000119968 -4.50243e-21)
(-1.75249e-05 -1.51243e-05 -2.71787e-22)
(-0.000459185 -6.59198e-05 8.89705e-22)
(-0.000981706 -0.000103968 0)
(0.000223338 -0.000198485 1.73465e-21)
(-0.00781638 -0.0155601 -5.15019e-22)
(0.000166329 0.000101749 2.24133e-21)
(0.000293065 -4.95316e-05 1.23514e-21)
(0.00034746 -0.00075842 9.17053e-22)
(-0.00050064 0.000282297 0)
(-0.000379163 0.00117158 -8.01592e-22)
(0.000542336 -0.00170555 0)
(-0.00396484 -3.19103e-05 4.13059e-22)
(0.00118474 0.000155593 6.2367e-22)
(-0.000128723 -0.00105639 -2.40596e-21)
(0.00231233 -0.00357837 -5.69788e-21)
(-0.000853957 -0.000215938 0)
(0.000196219 -0.000347286 -2.61207e-21)
(1.43279e-05 -3.60316e-06 6.23012e-23)
(-0.00689211 0.000399397 9.40222e-22)
(-0.00062789 -0.000116764 0)
(-1.08489e-05 -7.3676e-06 5.94963e-21)
(-0.000335873 -0.000503671 -3.66225e-21)
(0.00014256 3.41229e-05 8.76093e-22)
(1.40864e-05 -2.24066e-06 -7.38477e-24)
(4.25544e-07 5.8055e-06 1.94434e-21)
(2.66733e-05 7.78128e-06 3.19059e-22)
(-0.00150673 -0.0177479 6.72946e-23)
(-0.0143536 -0.0123335 6.84509e-22)
(0.00466235 -0.00144077 0)
(4.75046e-05 -9.74153e-05 -3.43926e-24)
(0.00212299 -0.000955136 -3.01023e-22)
(4.0152e-05 0.000436939 7.21497e-22)
(0.000106449 0.000376271 0)
(-1.7651e-05 -0.000112007 0)
(0.000207608 0.000241277 -6.14609e-22)
(-0.00197444 0.000122999 1.22213e-21)
(0.000453172 0.000239033 -2.75195e-24)
(0.000104799 0.000228652 -6.7728e-22)
(0.000554613 -0.00335648 -5.72298e-21)
(-0.000777621 0.00129363 -3.14084e-21)
(-0.00152 -0.0080303 0)
(-6.5618e-06 1.24136e-06 0)
(-0.000100539 0.000177757 -9.43552e-22)
(0.000637607 0.000158415 0)
(-0.000119288 -0.000570429 1.91667e-21)
(-0.000626704 -0.000128422 1.50954e-22)
(0.000184487 0.0042766 1.18334e-22)
(-0.00247992 -0.00739764 -1.07671e-22)
(-3.23137e-06 -0.000355587 0)
(-0.000224719 0.000193154 4.30907e-23)
(-0.000183908 0.000604803 1.87204e-21)
(-2.90455e-05 0.000501163 2.56146e-21)
(0.00227752 -0.00168791 -1.71721e-21)
(0.000782759 -0.000498622 -1.64509e-21)
(-1.54861e-05 -6.21984e-07 -5.01429e-22)
(-0.000139261 -0.000213998 0)
(-2.19893e-06 4.1787e-06 0)
(5.98338e-05 0.000142619 -2.38202e-21)
(-1.75678e-05 -4.62945e-05 0)
(-0.00019235 0.000502002 -6.04392e-21)
(-1.66916e-05 -8.27821e-06 -1.97346e-21)
(-0.000330423 -0.0013575 1.04348e-21)
(-0.000199247 0.000135433 1.63056e-23)
(0.000194602 -0.000946908 -3.06092e-21)
(0.000346122 -0.0018287 0)
(8.14176e-06 3.41444e-06 2.92828e-23)
(1.15011e-05 -2.13418e-05 -3.60938e-23)
(0.000336044 0.00131619 -1.31187e-22)
(7.77191e-06 6.53674e-07 4.77867e-23)
(-0.00121306 0.00242351 6.4004e-21)
(0.000363711 -0.0028391 3.11872e-20)
(0.000233857 -0.000150455 3.40392e-21)
(-5.89662e-05 -8.95433e-06 2.94937e-22)
(-0.000402085 -0.000486297 0)
(-2.53308e-05 -2.82414e-05 1.17381e-21)
(-0.000770798 -0.000546329 -7.47666e-22)
(6.20175e-05 0.000213681 -1.49865e-21)
(0.000591738 -0.000620226 3.08806e-21)
(3.59859e-05 0.000643646 0)
(-0.000253051 -0.00180189 0)
(1.05268e-06 1.18636e-05 8.29764e-22)
(-8.12599e-05 -1.00693e-05 0)
(0.00143706 0.000281693 -7.84378e-22)
(-0.00359534 -0.00177907 2.49102e-22)
(-6.74562e-05 -4.60528e-06 -3.43026e-22)
(-0.000267 -0.00120366 1.11762e-21)
(-0.00120338 -0.00147435 2.31706e-21)
(0.000574891 -0.00556906 1.95228e-21)
(0.000361956 0.000294487 1.45927e-21)
(5.08528e-06 -6.68343e-07 -3.83661e-23)
(-0.000259411 8.05117e-05 0)
(4.9543e-05 -0.000126858 -3.51027e-24)
(-6.34636e-06 -1.61947e-06 -2.6582e-23)
(-3.05463e-06 -1.4768e-05 -3.75098e-23)
(-0.000389618 0.000509863 7.26318e-22)
(-0.000180375 -0.000282227 1.31905e-21)
(-1.32802e-05 -0.00387569 -2.19637e-21)
(0.00273598 -0.00327663 2.12989e-21)
(-0.00216881 -0.00100896 3.20171e-21)
(-0.0026736 -0.000980611 0)
(-0.00138131 0.000407998 0)
(-0.00033201 -0.008451 6.08477e-23)
(-0.000510632 -0.0069599 0)
(9.56797e-05 -0.000965624 1.62728e-20)
(-0.00061071 0.00022217 -8.24067e-21)
(-9.6073e-06 -3.40309e-06 -9.35208e-22)
(1.23115e-05 -8.08055e-06 0)
(0.00392773 -0.000459007 1.33813e-21)
(6.07155e-05 -0.00050601 -5.73904e-22)
(0.00045594 0.000206212 1.59346e-21)
(-0.000183654 0.00137896 5.18692e-21)
(1.00385e-05 -5.65047e-05 0)
(-2.67061e-05 8.94242e-06 2.74126e-22)
(-0.000133719 -0.00110481 -5.95973e-22)
(6.35837e-05 -0.00149685 9.822e-22)
(4.5188e-05 -0.000248081 -5.1669e-23)
(-5.85124e-05 6.86168e-05 -5.89604e-22)
(0.000203632 -0.00118368 0)
(0.000371478 0.000353486 9.79038e-24)
(0.00102118 -0.00807601 -2.24761e-21)
(0.000251625 -0.000339356 3.8628e-21)
(-1.05235e-05 8.24961e-06 -4.81137e-22)
(0.000575557 -0.00372605 -1.24909e-23)
(0.000281738 -9.52e-05 1.71682e-21)
(3.5264e-05 -0.000510034 9.4696e-22)
(6.52944e-05 -0.000471073 1.37907e-21)
(-0.000334874 0.000325084 0)
(-0.000382838 -8.51416e-05 3.62787e-21)
(-0.00343938 0.00249875 -2.09353e-21)
(-0.000283501 0.000416391 -1.41819e-21)
(-0.000861928 0.000252946 1.67989e-21)
(1.04994e-05 5.30223e-07 3.86394e-23)
(-5.70716e-05 0.000600758 9.00497e-23)
(0.000229467 0.000345105 2.5872e-21)
(-2.65536e-05 -1.66074e-05 0)
(-0.000129054 -0.000466298 0)
(0.00221154 -0.000658866 4.62877e-22)
(7.70117e-05 -0.000474829 3.29045e-21)
(0.0037948 0.000944679 -1.06842e-22)
(4.65247e-06 -4.52139e-07 1.33757e-22)
(0.000345524 0.000327457 2.09756e-21)
(-0.000725018 -0.000243921 7.06765e-22)
(-4.27338e-05 -9.55656e-05 0)
(-0.000103473 -5.40052e-05 0)
(1.40422e-05 3.32603e-05 0)
(-0.000116935 0.00207903 -1.22553e-22)
(-1.02726e-05 3.27307e-06 6.53297e-24)
(-0.000495702 -0.000666489 -1.78631e-21)
(-0.0065866 -0.0014672 3.06759e-22)
(-4.33849e-06 5.82813e-07 -5.14078e-24)
(1.02657e-05 -2.97512e-06 -2.09406e-23)
(-5.44758e-05 5.77848e-05 0)
(0.00129177 -0.00380226 -2.42163e-21)
(-1.09917e-06 -2.60693e-06 4.25329e-23)
(0.0114563 0.000394192 2.77799e-22)
(0.000744108 0.00384175 4.26643e-21)
(0.000271188 -0.00120165 1.11955e-21)
(-0.00192374 0.00169256 5.33818e-22)
(0.000322913 0.000448106 3.76745e-21)
(0.000427855 -0.000245269 3.37911e-21)
(0.00012521 -0.000513684 0)
(9.1371e-05 -0.000224038 0)
(1.70712e-05 -4.51716e-05 -2.73223e-22)
(0.00258126 -0.000931193 0)
(-5.99287e-06 -2.42936e-06 0)
(0.000555175 0.000393767 9.87793e-22)
(9.86965e-05 -0.000330602 1.46043e-21)
(-0.000366634 -0.000101873 -1.38435e-21)
(6.24795e-06 -1.29587e-06 0)
(-0.000113854 -0.000142428 2.75323e-22)
(-4.69224e-06 -3.1261e-05 -3.6715e-21)
(0.00125833 -0.00404049 3.0366e-21)
(0.000111005 -6.37069e-05 2.36713e-23)
(1.23576e-05 -0.000330104 0)
(-0.000538655 0.000325981 0)
(-0.000583149 -0.00811634 1.07846e-23)