/*--------------------------------*- C++ -*----------------------------------*\
| =========                 |                                                 |
| \\      /  F ield         | OpenFOAM: The Open Source CFD Toolbox           |
|  \\    /   O peration     | Version:  v2012                                 |
|   \\  /    A nd           | Website:  www.openfoam.com                      |
|    \\/     M anipulation  |                                                 |
\*---------------------------------------------------------------------------*/
FoamFile
{
    version     2.0;
    format      ascii;
    class       volScalarField;
    location    "300";
    object      k_0;
}
// * * * * * * * * * * * * * * * * * * * * * * * * * * * * * * * * * * * * * //

dimensions      [0 2 -2 0 0 0 0];


internalField   nonuniform List<scalar> 
13726
(
0.000176995
0.0210982
0.000156723
0.000166073
0.000210382
0.000166001
0.000159658
0.000157466
0.000212827
0.000181787
0.000210314
0.00014877
0.000151127
0.04188
0.000165396
0.000159027
0.000217868
0.000164637
0.0552741
0.000608615
0.0646922
0.000134591
0.000157757
0.000157025
0.000137514
0.000141398
0.00017294
0.000141425
0.000136957
0.0154742
0.0768424
0.000147343
0.0512378
0.000181709
0.00220393
0.0424209
0.00016694
0.0232721
0.000158144
0.000160321
0.00130604
0.00201959
0.000150218
0.000156296
0.000172332
0.000156398
0.00493188
0.000146009
0.000192805
0.000146648
0.0501923
0.000146396
0.000117666
0.000164606
0.000158559
0.000171164
0.000112857
0.000115738
0.000173485
0.000156228
0.0426578
0.00015617
0.0304628
0.000134299
0.0162014
0.000145177
0.0616692
0.045106
0.000147278
0.000214299
0.00463643
0.000157241
0.000156672
0.000152561
0.0546729
0.0458437
0.000214341
0.0611674
0.0528736
0.000204415
0.0002084
0.000191277
0.000205355
0.000154839
0.000158689
0.033823
0.000211574
0.000155275
0.000150511
0.0667893
0.000144535
0.000212823
0.000156171
0.00015853
0.0276614
0.0489383
0.000188612
0.000148725
0.000156428
0.0203965
0.000156296
0.00018233
0.000131145
0.000142683
0.000262395
0.000217621
0.000204788
0.000152917
0.000160064
0.000187939
0.000190382
0.000142751
0.0709964
0.0580668
0.0534213
0.000159155
0.00739427
0.0770934
0.000122686
0.00015616
0.00755884
0.000157756
0.000157613
0.054268
0.0697748
0.0264939
0.000157032
0.000111175
0.000142755
0.000174243
0.0425179
0.054625
0.000174541
0.000192364
0.0390674
0.000211159
0.0184947
0.00613779
0.0207214
0.0348847
0.000199304
0.0400651
0.000153169
0.000145076
0.000168021
0.000167244
0.0646591
0.000158189
0.000155573
0.0535421
0.000157519
0.000157696
0.000193049
0.000157741
0.000146751
0.000169458
0.000163485
0.00337405
0.0273386
0.000139769
0.00014844
0.000153683
0.031889
0.0461328
0.000143388
0.000377032
0.0343879
0.000160148
0.000155578
0.000146884
0.000132195
0.000168355
0.0060946
0.000159447
0.0632905
0.0013438
0.000144589
0.0747686
0.0720968
0.000156889
0.0669204
0.000151351
0.0290279
0.018582
0.000144837
0.000152643
0.000155477
0.000155274
0.000157654
0.000164
0.0565811
0.0026245
0.0169035
0.0178671
0.000156536
0.000143981
0.000159051
0.0418009
0.0029983
0.000168492
0.0186767
0.00613246
0.0194543
0.000179723
0.000155092
0.00015337
0.000156743
0.0296631
0.00015612
0.000195795
0.000213711
0.0284686
0.0175014
0.000133866
0.0640884
0.0534079
0.000157784
0.000151708
0.000165851
0.0686693
0.000159672
0.000174966
0.0021717
0.0433218
0.000151605
0.0451486
0.0179381
0.0642512
0.0650733
0.000154618
0.0330645
0.0216807
0.0650858
0.0631609
0.000153036
0.000148711
0.0234541
0.078787
0.00940229
0.0688188
0.000142586
0.000159267
0.000153171
0.044947
0.00423207
0.0588889
0.000174003
0.000175839
0.000146812
0.000209546
0.0698641
0.00015295
0.0677209
0.000174868
0.000196336
0.000387795
0.000157927
0.0690655
0.0450522
0.000173674
0.0011588
0.0237372
0.000183538
0.000147445
0.0490208
0.0772086
0.000158199
0.000148994
0.00013893
0.000197742
0.00465068
0.000174753
0.0698693
0.000179158
0.0346906
0.0446954
0.0551655
0.0113481
0.000157082
0.000147882
0.0358636
0.000159302
0.0258552
0.000176132
0.0423826
0.000157217
0.0291743
0.00706834
0.00017371
0.000144792
0.0247428
0.000175559
0.000136795
0.0442027
0.0305123
0.00015807
0.000342666
0.000153137
0.0582544
0.000146878
0.0064814
0.0473799
0.000198035
0.000147587
0.000118967
0.0125586
0.0245116
0.0676049
0.0127793
0.000168461
0.0658371
0.00084667
0.0773589
0.0100864
0.000155518
0.00724556
0.00015309
0.0333481
0.0693745
0.0316121
0.0537273
0.000167848
0.000151629
0.0001664
0.00020841
0.00017555
0.000147474
0.0355875
0.000146287
0.0303652
0.000128019
0.0184848
0.000159731
0.000177172
0.000197011
0.000146445
0.000160638
0.000172217
0.000161037
0.000191088
0.0121971
0.0436358
0.0652749
0.030195
0.0146947
0.000205546
0.000171016
0.000196984
0.000535289
0.000151984
0.038762
0.0440237
0.0510678
0.000152971
0.000166703
0.000154949
0.000155573
0.0287033
0.000164741
0.000160142
0.000158909
0.000175895
0.0207809
0.000156031
0.000180871
0.0660877
0.0723994
0.000156978
0.000161311
0.000161777
0.000209485
0.0001514
0.000152078
0.000165983
0.00341581
0.0001622
0.00013805
0.0714718
0.00019043
0.000206312
0.000152085
0.000152141
0.000156164
0.0427538
0.0720329
0.0756649
0.0658613
0.000175282
0.000157678
0.000165739
0.000153623
0.000146382
0.000156805
0.000156996
0.000150463
0.000166591
0.0643041
0.04327
0.000185061
0.000154498
0.000153857
0.000153848
0.00016065
0.000189245
0.000156203
0.000176063
0.000166472
0.000156079
0.0713467
0.0125948
0.0265032
0.000163187
0.0567256
0.064644
7.29925e-05
0.000155706
0.0692444
0.0337989
0.026331
0.0493067
0.0667012
0.00625638
0.000133628
0.000202038
0.0279813
0.000160127
0.0274696
0.000153398
0.000151952
0.000192299
0.0742531
0.069057
0.0488124
0.0675884
0.000162299
0.000154381
0.00015493
0.000160213
0.000169531
0.000203194
0.000157507
0.0275391
0.000153721
0.0524889
0.000306317
0.000156378
0.0335599
0.000140475
0.000144969
0.000253164
0.000158568
0.0390552
0.0482298
0.000148317
0.0378294
0.00014801
0.0694699
0.0358665
0.000147766
0.000157708
0.000175293
0.0601274
0.000180063
0.0487198
0.000757237
0.000162365
0.0687261
0.0329874
0.000151509
0.0721993
0.000190616
0.00014342
0.00016135
0.000153722
0.0562088
0.000143689
0.00732584
0.00110164
0.0447944
0.000189575
0.00516102
0.000151518
0.000142194
0.0304938
0.000136342
0.000158107
0.000154024
0.000162083
0.046103
0.0574454
0.000163071
0.000213294
0.000156159
0.0481957
0.0428676
0.000171382
0.000164857
0.0572756
0.0378983
0.000144349
0.000151116
0.00563989
0.0001634
0.000198236
0.000167176
0.000143662
0.0443001
0.0230657
0.000150561
0.000152932
0.000153107
0.0318773
0.000147691
0.000192396
0.000142353
0.0404518
0.000214897
0.000158205
0.000171137
0.000172119
0.000156511
0.000196995
0.0304587
0.00827811
0.000201179
0.000199382
0.0542758
0.000207909
0.000133961
0.00382123
0.00019085
0.000182065
0.0545861
0.000153292
0.0712443
0.000178735
0.000145879
0.0440752
0.000182762
0.000158793
0.0261135
0.000150855
0.000130973
0.000161846
0.000219322
0.0314539
0.000175088
0.000142157
0.00234785
0.000146458
0.000147223
0.00589964
0.000161928
0.0509034
0.000153218
0.000178734
0.000154974
0.0481399
0.0487407
0.0496135
0.018392
0.000176609
0.0584883
0.000156963
0.0749442
0.0017068
0.000189558
0.000156816
0.0596009
0.00018667
0.0714742
0.000144963
0.00015
0.0694629
0.000155751
0.0322547
0.000178953
0.000168303
0.000205166
0.000166892
0.0480159
0.0279048
0.000162635
0.000150439
0.0110357
0.00014726
0.0561069
0.00513882
0.000144025
0.0430042
0.000161609
0.000189085
0.000161671
0.000157856
0.0311664
0.000157872
0.0700897
0.000157161
0.000427384
0.0475185
0.000177674
0.000144461
0.000158319
0.000154708
0.000159033
0.0553171
0.0689991
0.0140082
0.000153976
0.0109999
0.0531631
0.0568648
0.000177583
0.03514
0.0285615
0.000167556
0.000154594
0.0001428
0.0644232
0.000165162
0.000150796
0.000143871
0.0659713
0.061901
0.00019948
0.000143991
0.000168081
0.000198643
0.000142227
0.000178452
0.0470532
0.000161082
0.0530947
0.000151627
0.0300958
0.000184062
0.000143454
0.0147692
0.0193252
0.000153346
0.00910242
0.000156461
0.000182684
0.0253072
0.000207751
0.0654695
0.000159563
0.000114109
0.0303024
0.000168219
0.000218437
0.00017738
0.0675706
0.000137024
0.0142051
0.000170946
0.000145153
0.000157802
0.0465555
0.000137017
0.000146577
0.000153482
0.0117572
0.0118691
0.00014134
0.000149028
0.000165045
0.0579067
0.0587604
0.000151638
0.0462975
0.000205961
0.0634715
0.0474027
0.000219291
0.000195454
0.00369832
0.000143699
0.000151557
0.0693085
0.000171504
0.000170884
5.86179e-05
0.00277217
0.000147
0.000151612
0.000157632
0.000160153
0.0729927
0.000193441
0.000146159
0.000172296
0.0001545
0.000158119
0.000157106
0.000156953
0.000158605
0.0757322
0.000151265
0.000178645
0.000118634
0.000152209
0.000148948
0.000183285
0.000149546
0.000201049
0.000172026
0.0578965
0.000151272
0.0472602
0.000148381
0.0549278
0.0387193
0.000192073
0.000162511
0.000165829
0.000151583
0.00015208
0.000140199
0.000151221
0.000151697
0.0737018
0.0776012
0.0021012
0.041128
0.000151973
0.0176763
0.000149577
0.000150228
0.000143116
0.000155659
0.0178609
0.000184676
0.0678604
0.000177503
0.00143356
0.073007
0.00614284
0.00180697
0.000191752
0.000162144
0.000154646
0.000155332
0.000139113
0.05658
0.0655288
0.000193789
0.000157407
0.000144234
0.0704794
0.000156435
0.000151826
0.000152745
0.000158019
0.0431742
0.000213224
0.000194411
0.00016303
0.0349929
0.0311704
0.000154904
0.0249158
0.000698782
0.000153969
0.0701819
0.0465363
0.0488735
0.000149132
0.000199269
0.0448757
0.000146376
0.0249134
0.000165491
0.000196515
0.000147096
0.000153188
0.000211207
0.029904
0.000147457
0.000153276
0.000156063
9.48217e-05
0.000142138
0.0552933
0.00837493
0.000142324
0.000135584
0.000152547
0.0590564
0.000146445
0.0131506
0.0631223
0.0770642
0.0211763
0.0471144
0.069074
0.0583333
0.000157507
0.00015421
0.0654543
0.000146562
0.0460354
0.0563387
0.045686
0.000143696
0.000160536
0.000151072
0.00806048
0.000146793
0.0557024
0.00836422
0.00600717
0.0665086
0.000133305
0.0444511
0.000172022
0.0681599
0.000179567
0.0471189
0.00015908
0.000229572
0.000154686
0.000510713
0.000168031
0.000191044
0.000170142
0.000153803
0.000151434
0.0576523
0.00014799
0.000154024
0.0303483
0.000171501
0.000151364
0.000154589
0.0167041
0.000152425
0.000173068
0.000198728
0.000141541
0.000180934
0.000146976
0.0585347
0.000150737
0.000140624
0.000204986
0.0205254
0.000152858
0.000164549
0.0579043
0.0234196
0.000187913
0.000144068
0.0543585
0.0503482
0.0261683
0.000218117
0.0330683
0.000148536
0.000175597
0.000191468
0.000139696
0.000163536
0.0229485
0.000191125
0.0440075
0.000149879
0.000209681
0.000152544
0.00018337
0.0193903
0.0267773
0.00014237
0.000156951
0.000202901
0.000160708
0.000145489
0.000149399
0.0545293
0.0470826
0.000184961
0.000149258
0.000170772
0.00014367
0.0477875
0.000164801
0.000143598
0.0272805
0.00017993
0.000209879
0.000159899
0.0804984
0.00847638
0.000156693
0.000146425
0.0176495
0.00721581
0.000148782
0.0260774
0.0316221
0.0501823
0.066659
0.068361
0.0256344
0.000277985
0.00262707
0.000147371
0.000150675
0.0532921
0.000150941
0.0505391
0.000151827
0.0168259
0.040077
0.000167646
0.063811
0.0192737
0.0311879
0.000160527
0.000151457
0.000142266
0.000212065
0.0216064
0.000151735
0.059307
0.000173062
0.014661
0.000194642
0.000120227
0.00823888
0.000148744
0.00904331
0.000179685
0.000147171
0.000152686
0.0647371
0.000189333
0.000153631
0.0692979
0.000149975
0.0130536
0.000150113
0.0150805
0.055763
0.051885
0.00016019
0.000147642
0.000183993
0.000154918
0.0556504
0.0478321
0.000147462
0.00019225
0.000197874
0.035538
0.00267646
0.000153617
0.0149808
0.000159776
0.000151863
0.0555826
0.0535463
0.054137
0.000160425
0.0751547
0.000186204
0.0484008
0.000402702
0.021646
0.0610549
0.000167756
0.0164016
0.0515606
0.0696938
0.0453253
0.00014702
0.0691379
0.000196649
0.000197868
0.000140385
0.000150477
0.0118507
0.000150957
0.0730515
0.0557475
0.0178782
0.0430781
0.0307941
0.0594356
0.0591497
0.0644094
0.000152347
0.011754
0.00014179
0.0312212
0.0258679
0.0001421
0.0253541
0.000147662
0.000149094
0.000154294
0.000145852
0.0762915
0.0310181
0.000152346
0.000164654
0.00451128
0.0291557
0.000167841
0.000200978
0.0136646
0.000144927
0.000168834
0.000152237
0.0229598
0.000158303
0.0001537
0.00934535
0.000158134
0.00776679
0.0465452
0.000149873
0.0631797
0.0001586
0.0590743
0.0327434
0.0580932
0.000155829
0.00494482
0.000176719
0.0512876
0.000161725
0.00182702
0.00014471
0.000142847
0.0468525
0.000159608
0.000145242
0.0136202
0.000183678
0.000158415
0.0453306
0.000156583
0.000159379
0.0162173
0.0666857
0.000172823
0.0192203
0.000143765
0.0798807
0.000159218
0.000156086
0.000156253
0.000144028
0.000151927
0.00357119
0.0444979
0.000151052
0.0317115
0.000169469
0.0404734
0.000143365
0.00015149
0.000596565
0.00228432
0.000150395
0.000155456
0.027423
0.000147945
0.00020082
0.000148041
0.0291435
0.0062177
0.000186986
0.000207772
0.0703701
0.000134108
0.000158053
0.000380442
0.0621499
0.000190829
0.0441338
0.000151831
0.069428
0.0621292
0.000149373
0.000167065
0.0452437
0.000200136
0.000155307
0.00851114
0.000183308
0.000155191
0.000197338
0.000151952
0.00154874
0.00105748
0.000143325
0.0753309
0.0278953
0.000150009
0.000198983
0.0314755
0.059495
0.00272681
0.000166399
0.000168618
0.0693439
0.000154087
0.000113073
0.0526717
0.000143567
0.0249757
0.000154975
0.000152275
0.0544065
0.000661856
0.00882663
0.000196268
0.000157544
0.000140248
0.0526602
0.0157667
0.00015238
0.000169991
0.0477809
0.00014925
0.000167819
0.000162432
0.000165215
0.0464262
0.000160203
0.000146095
0.000188985
0.00016621
0.0545004
0.0736015
0.0652572
0.000198828
0.000136057
0.000147223
0.0465588
0.000220924
0.0440349
0.000192507
0.000167794
0.000165587
0.000150891
0.00016744
0.000124017
0.0743051
0.000160475
0.0272239
0.0755116
0.000141234
0.0553141
0.0413301
0.0249853
0.0143657
0.000137342
0.0138594
0.000226553
0.0259649
0.000163352
0.000181484
0.0730333
0.000155623
0.00015568
0.0775421
0.000205947
0.0459082
0.0480487
0.000199666
0.0499966
0.067915
0.00014868
0.054459
0.00870281
0.000151421
0.000165388
0.0409029
0.000154966
0.00015728
0.000157796
0.000146265
0.075479
0.00014568
0.00021213
0.00892568
0.00107426
0.000153767
0.000181605
0.068259
0.000137215
0.000152174
0.000161135
0.000153837
0.000173673
0.0604344
0.000150629
0.000146563
0.0230647
0.000145126
0.0675962
0.00015391
0.0772719
0.000167799
0.0601526
0.0168008
0.000152542
0.0432306
0.0010536
0.00016925
0.00015846
0.000149381
0.0316344
0.000148017
0.00851536
0.000150667
0.000167451
0.00153699
0.0328048
0.000147718
0.000169051
0.000154664
0.000185908
0.000146319
0.000177549
0.000153311
0.0746049
0.0120512
0.00016256
0.000154525
0.0704944
0.0204022
0.000146011
0.000140653
0.0688294
0.0237815
0.0736177
0.000173943
0.000178213
0.00832783
0.000191145
0.0661966
0.0767851
0.000159046
0.000147372
0.0453327
0.000209647
0.000154297
0.073664
0.0371787
0.0746054
0.000144693
0.000194893
0.000172385
0.00015865
0.000155643
0.00822414
0.000179473
0.000149434
0.0521228
0.00014722
0.000151816
0.000188726
0.0109606
0.00015668
0.0760564
0.000153778
0.000165594
0.000160374
0.000161085
0.000151428
0.0638201
0.0564694
0.000150677
0.0347781
0.000151143
0.000145176
0.0260115
0.0653581
0.000147329
0.0597734
0.000164266
0.000150812
0.000146225
0.052354
0.0292178
0.0001358
0.0672651
0.0623555
0.0469126
0.000185448
0.0734918
0.032637
0.000162575
0.0106633
0.000151445
0.000154026
0.000145903
0.0657575
0.0508078
0.0429316
0.0112873
0.000141572
0.000147403
0.000150243
0.000179343
0.000165746
0.000135168
0.000148646
0.000153279
0.0463698
0.000142459
0.000146109
0.000134453
0.0369181
0.000151071
0.00013632
0.000155263
0.050679
0.000155038
0.000159676
0.000181627
0.00601258
0.000151182
0.000196745
0.000184764
0.000177202
0.000195664
0.011842
0.000165782
0.00744786
0.0523343
0.000166672
0.000146763
0.000154761
0.000161417
0.000185186
0.000179217
0.000153589
0.0317269
0.00013551
0.000174934
0.000170232
0.000153182
0.000146608
0.000145721
0.000173083
0.000152063
0.00021031
0.00104929
0.0412484
0.00213902
0.00175522
0.000195524
0.000140375
0.000203455
0.0493818
0.000152233
0.00147528
0.0200527
0.0339076
0.000146545
0.0471717
0.000157664
0.0156882
0.000155802
0.000151963
0.000151638
0.000163476
0.0129271
0.000165529
0.0487243
0.0619351
0.0776888
0.000155541
0.000146678
0.000179849
0.0707295
0.000151807
0.00015399
0.0474186
0.000143944
0.0646912
0.000174048
0.000199913
0.000149649
0.000152102
0.0307098
0.000143006
0.0254477
0.0803967
0.000910088
0.000151178
0.000163382
0.0645579
0.0417648
0.0222707
0.000145317
0.000203076
0.0127736
0.0750638
0.0787206
0.000153769
0.000145733
0.000151283
0.000149849
0.000166026
0.000188817
0.000139807
0.00016187
0.0580858
0.066534
0.00882887
0.000196846
0.00326328
0.000146115
0.00014818
0.000249242
0.000156676
0.000195817
0.000202773
0.000167876
0.00015743
0.0252897
0.0694758
0.0508581
0.000171534
0.0627988
0.000143843
0.000174753
0.00608131
0.000133745
0.000149527
0.0341672
0.0231697
0.000170903
0.000670466
0.000163472
0.0524036
0.000163827
0.0117494
0.000155482
0.000186528
0.0575402
0.0589156
0.0286612
0.000168755
0.000148585
0.000207297
0.000179709
0.000161355
0.00021066
0.0455048
7.90661e-05
0.000160785
0.000193271
0.000175579
0.000192401
0.000173865
0.000159944
0.000153841
0.0464946
0.00535671
0.000161756
0.000128214
0.000189578
0.000156813
0.000188966
0.000205623
0.000145464
0.0290345
0.0310921
0.00014866
0.000145548
0.00015917
0.0700265
0.000195459
0.000147931
0.000151296
0.000135798
0.000158968
0.0738244
0.000289368
0.000160645
0.0187978
0.000174654
0.000183792
8.22198e-05
0.00019339
0.0553636
0.000135159
0.0673706
0.031199
0.000188772
0.000160977
0.000173531
0.000153495
0.000173571
0.0667058
0.000212137
0.0239208
0.000146454
0.000152464
0.0298436
0.057503
0.0258362
0.0117071
0.000210998
0.000157775
0.0196415
0.0484617
0.000137021
0.0626265
0.0611667
0.000159354
0.000206908
0.000146121
0.000152575
0.000146136
0.000154342
5.43764e-05
0.0423333
0.00015401
0.000138275
0.0702182
0.000576387
0.0117349
0.0626516
0.068859
0.000183272
0.000169972
0.000162582
0.000140931
0.000143106
0.000135012
0.0346498
0.000191881
0.000157799
0.0434875
0.000139636
0.00113079
0.000156728
0.0495778
0.00309736
0.000152273
0.000166175
0.0787178
0.0331443
0.0434993
0.0324429
0.00437831
0.0724639
0.000209162
0.0118613
0.0433044
0.000157646
0.000145487
0.0295107
0.000139944
0.0001599
0.000158138
0.000148806
0.000193089
0.0688806
0.000173625
0.000176289
0.000187408
0.000165468
0.0643908
0.0107338
0.000166596
0.0147502
0.000195158
0.00961923
0.00015617
0.0600198
0.000178597
0.0517261
0.0678818
0.000166297
0.000177038
0.00883015
0.000178065
0.0609798
0.00637377
0.0567939
0.000176502
0.000187939
0.000157254
0.0509562
0.0114287
0.063607
0.000150806
0.00020088
0.000163074
0.0546333
0.0223043
0.0117053
0.0119941
0.00406579
0.0672674
0.0538791
0.000147751
0.000212133
0.0558505
0.0692325
0.000195285
0.000170346
0.0269834
0.000158436
0.000154466
0.000149355
0.000168069
0.0259267
0.0103101
0.000141542
0.000166361
0.000160029
0.000227842
0.0520727
0.000149935
0.0296463
0.025381
0.0436926
0.000157762
0.000154661
0.000144282
0.0319273
0.00406633
0.0485628
0.000148564
0.000149735
0.0124998
0.000163681
0.0509913
0.000153445
0.0633388
0.0287436
0.000148005
0.000169124
0.0233828
0.000149931
0.000147906
0.0266499
0.000711385
0.000161011
0.0635256
0.000231295
0.0311414
0.0501998
0.0497249
0.000196491
0.046823
0.0146939
0.0276617
0.0321309
0.0458527
0.000156965
0.000203529
0.000147071
0.000150521
0.0138969
0.000121362
0.0245113
0.000148318
0.000206209
0.00540698
0.000165815
0.000161303
0.000147578
0.0724961
0.000153316
0.0673208
0.000126453
0.0662348
0.0347502
0.000155909
0.0168174
0.0513334
0.00992798
0.00015171
0.000148811
0.000146577
0.0516766
0.000183148
0.000229334
0.000155411
0.00785111
0.000180534
0.0273752
0.0452915
0.0117714
0.0220353
0.0208415
0.000177493
0.000156075
0.0492711
0.000163904
0.016027
0.000176528
0.0200384
0.000157716
0.000150353
0.0473766
0.000148497
0.000498323
0.0429015
0.0716239
0.000151105
0.0592416
0.000163179
0.0502196
0.00192167
0.000162377
0.000156187
0.000145874
0.0692249
0.0584712
0.05088
0.0291344
0.000156957
0.000180745
0.0729675
0.000146304
0.0586552
0.000143394
0.0751637
0.00018503
0.000197999
0.00015344
0.0325621
0.00964367
0.000198563
0.00016828
0.000149851
0.01567
0.00015465
0.000159473
0.000199672
0.0207005
0.0223338
0.000153671
0.000151817
0.000196063
0.0735183
0.000200805
0.0615856
0.000177109
0.000180785
0.0748225
0.0600103
0.000190646
0.0270782
0.000148118
0.0552991
0.0346842
0.0608519
0.000150912
0.000189152
0.0215726
0.000166694
0.0501652
0.000159509
0.000147298
0.000158626
0.00015338
0.000187049
0.027435
0.00014724
0.000154363
0.0463881
0.000170877
0.000142979
0.000156041
0.0200994
0.000148348
0.000164622
0.000151593
0.000149288
0.0248795
0.000182985
0.049369
0.000149179
0.0227085
0.0455101
0.00015825
0.000150562
0.0600243
0.000161481
0.000161587
7.54145e-05
0.0216105
0.000192877
0.0347121
0.000163527
0.0277598
0.000174482
0.000155715
0.000156648
0.0245842
0.000147568
0.0318305
0.0485294
0.0646479
0.000191017
0.0290021
0.0188496
0.0360795
0.0194041
0.0266268
0.000189803
0.000160102
0.0548638
0.000152143
0.0513112
0.00874348
0.000163248
0.0136614
0.0666435
0.000152361
0.000144179
0.0213742
0.0425468
0.000146599
0.06939
0.000160447
0.000142059
0.016491
0.0712389
0.000145094
0.000190937
0.000153956
0.0541734
0.000155711
0.0312738
0.00375189
0.000171504
0.000146728
0.000186006
0.0530811
0.000156256
0.00018025
0.045688
0.000147834
0.000176597
0.0666743
0.000156889
0.046873
0.000144266
0.00015863
0.039688
0.000154517
0.0173042
0.025599
0.0595429
0.00015028
0.05534
0.0585949
0.000155052
0.000152538
0.0068374
0.00011337
0.000150142
0.000207806
0.0335718
0.000161591
0.0712569
0.0336744
0.0560347
0.0690855
0.000165902
0.00014674
0.000145796
0.000141132
0.0546846
0.000155736
0.0325439
0.000150765
0.02816
0.000143505
0.000219845
0.0126809
0.000154491
0.0225654
0.000195733
0.000187328
0.0298838
0.0551838
0.000170305
0.000145201
0.0317697
0.000164477
0.000144227
0.0568412
0.0765256
0.0745827
0.0342041
0.032285
0.000191301
0.0781842
0.0699484
0.07375
0.00017173
0.00884598
0.000176251
0.000154695
0.0191597
0.0528076
0.0331963
0.00015032
0.000153539
0.000184289
0.000148961
0.000144398
0.000173372
0.000175148
0.00013789
0.000170977
0.0593962
0.0646366
0.0246305
0.000152217
0.0616491
0.0533638
0.000172892
0.00159568
0.000140548
0.000146332
0.000159321
0.00020706
0.0344246
0.00018833
0.000122215
0.0345391
0.000173022
0.000140961
0.0441313
0.000155524
0.0207809
0.000151429
0.0481002
0.0280205
0.0281448
0.000154398
0.000149321
0.00015008
0.000174978
0.000138863
0.000155461
0.0651086
0.000174409
0.024629
0.000574748
0.000216626
0.000201926
0.0324596
0.0334746
0.000150977
0.000178846
0.000157397
0.00371601
0.0479962
0.000165839
0.0309868
0.000161221
0.000152972
0.000779638
0.0704242
0.000152991
0.000174888
0.000180606
0.000153973
0.000151994
0.000164938
0.0268491
0.000150872
0.000148393
0.000178892
0.00757227
0.000161277
0.0330511
0.0739759
0.000189534
0.000202111
0.000154078
0.000180606
0.000180558
0.000128016
0.000153552
0.0559064
0.0551491
0.0342864
0.0791091
0.000153209
0.000145392
0.000201576
0.049235
0.0492961
0.0297867
0.000143285
0.00687929
0.0533083
0.0526551
0.0563606
0.000167115
0.000159237
0.0511241
0.0135801
0.000158494
0.000149925
0.00015955
0.0734797
0.000140904
0.0001543
0.0699476
0.000191199
0.000171469
0.0339043
0.000163431
0.000178113
0.000167648
0.0448133
0.050126
0.0569111
0.0760391
0.0364903
0.0290701
0.0743684
0.000151422
0.0498317
0.000153822
0.0670581
0.0691375
0.0242462
0.0293428
0.014939
0.000185796
0.0417758
0.0322944
0.000138836
0.000123592
0.0686459
0.025502
0.0136165
0.0554091
0.00641786
0.000181292
0.000185848
0.000142598
0.000143408
0.000188636
0.0357492
0.000168147
0.0693181
0.00016711
0.000218586
0.000139875
3.85146e-05
0.000144584
0.0304417
0.0759281
0.000184743
0.0423157
0.000187237
0.0243564
0.0201589
0.0769467
0.000157842
0.000164203
0.000171677
0.0769167
0.000194785
0.033579
0.000162791
0.000156528
0.000199484
0.0666815
0.000186076
0.000142062
0.0742526
0.000174822
0.0489353
0.00960658
0.000150742
0.0142301
0.0620802
0.000157279
0.0573392
0.0333138
0.0481711
0.0460694
0.000180006
0.0781661
0.000186683
0.000171009
0.000205464
0.000148353
0.00019213
0.0321505
0.000209007
0.000220866
0.0460908
0.000203096
0.000149862
0.000178576
0.000308633
0.000163703
0.0471209
0.000151005
0.000205207
0.0548642
0.0254493
0.0349254
0.0370416
0.0755422
0.000146605
0.000217059
0.0690451
0.0628693
0.000157582
0.000150256
0.0308522
0.000149972
0.000159682
0.000209741
0.000193414
0.0781259
0.000158356
0.0375814
0.000220459
0.0346898
0.000213246
0.000164967
0.000200611
0.000144244
0.000161704
0.0591147
0.000152512
0.0677483
0.0362689
0.000152307
0.000167165
0.0371651
0.000219786
0.000196371
0.000211756
0.000179849
0.057175
0.00020512
0.0496386
0.03238
0.0382802
0.0330414
0.0692329
0.0153189
0.026467
0.0498153
0.000157163
0.000165162
0.000209247
0.0685171
0.000211617
0.0655742
0.0455622
0.000172595
0.000162282
0.00563173
0.0253605
0.0502715
0.00432673
0.0779801
0.00017329
0.000170101
0.000163767
0.0168456
0.0002093
0.0573679
0.000162767
0.0697052
0.0523712
0.000148993
0.000165666
0.00882563
0.000206042
0.0457246
0.000159171
0.000160441
0.000150136
0.000181637
0.000142487
0.0447628
0.000151539
0.0329231
0.000153069
0.0342738
0.000153917
0.000213361
0.000190286
0.000205099
0.000145944
0.0439499
0.000228356
0.00233142
0.000247818
0.00364932
0.0788454
0.000214093
0.0684407
0.0533021
0.058658
0.0212065
0.000175141
0.000152044
0.000144551
0.000153547
0.000188812
0.000159548
0.00495824
0.0679075
0.000203541
0.0468038
0.00935537
0.000149905
0.000166248
0.0595589
0.000175816
0.07964
0.0327021
0.000154988
0.049485
0.0390628
0.000188432
0.000230825
0.000129158
0.0347837
0.000148028
0.0572522
0.0355674
0.000157688
0.033529
0.011454
0.000205197
0.0685719
0.000146554
0.0440716
0.00942718
0.000210361
0.0271243
0.000146155
0.000147144
0.000200843
0.000212912
0.0351429
0.014791
0.0306402
0.000160894
0.00015336
0.0586734
0.0466145
0.07141
0.000187342
0.0414003
0.000181844
0.000139106
0.0597611
0.000219403
0.0591431
0.000196294
0.000165079
0.000187724
0.0511643
0.000204327
0.037799
0.0493655
0.0495136
0.0615799
0.0609973
0.00506768
0.048729
0.00487626
0.0664976
0.00019449
0.000192887
0.000144704
0.000124398
0.000162468
0.000206068
0.000149619
0.0783853
0.0807032
0.0764629
0.000175886
0.000186967
0.0349516
0.000190049
0.0656976
0.000172355
0.0273959
0.000810591
0.000338743
0.000217302
0.0315444
0.000202434
0.000147519
0.000158359
0.0544666
0.00018788
0.000142227
0.000199727
0.00115406
0.000147803
0.000151055
0.0319395
0.0535122
0.000188354
0.000181084
0.000155274
0.000160066
0.0479072
0.0299612
0.000147739
0.0792788
0.000150422
0.000171458
0.0474476
0.000184881
0.000171838
0.000190302
0.0318734
0.0431369
0.0640138
0.000159268
0.0763897
0.000153091
0.000169719
0.000146222
0.0219258
0.000204679
0.0687697
0.011765
0.0135649
0.000191302
0.0221638
0.0474788
0.00826423
0.0001862
0.0714817
0.000201868
0.000176152
0.000222975
0.000187123
0.000143281
0.000194747
0.000198791
0.000150827
0.000185612
0.000208781
0.000185363
0.000206633
0.000138825
0.000166458
0.00750562
0.000151866
0.000196492
0.00987433
0.000161204
0.000150228
0.000183578
0.0564751
0.0716856
0.0165443
0.000185102
0.000180379
0.0529282
0.000145761
0.0352423
0.000202301
0.0135478
0.000192821
0.077719
0.000169117
0.0072612
0.000142844
0.000168199
0.0657349
0.05629
0.0750253
0.000178529
0.0624096
0.0542067
0.0746644
0.000207556
0.00019822
0.000148284
0.0641685
0.00375319
0.000187447
0.000150851
0.000459643
0.0729843
0.000149311
0.0491723
0.000191502
0.000149975
0.000147697
0.000159286
0.0523818
0.0315323
0.0572499
0.000155895
0.000150931
0.00019354
0.000147703
0.067135
0.000153016
0.0796267
0.000170812
0.0574587
0.000204189
0.0480556
0.0622834
0.0421046
0.0538811
0.0729095
0.000146883
0.0092635
0.00017469
0.000153836
0.0481142
0.000176916
0.000158785
0.00015794
0.000186142
0.0166136
0.0257885
0.000147363
0.000148159
0.000173914
0.000182158
0.000156547
0.0214365
0.0200957
0.000147735
0.000170245
0.0525572
0.0254286
0.000187728
0.0687504
0.0271709
0.0150617
0.0456472
0.000174292
0.000165282
0.0546509
0.000154669
0.000155366
0.0572848
0.000142448
0.000171655
0.000186587
0.000147006
0.07665
0.000178958
0.000167
0.000154213
0.000153171
0.000167419
0.0221757
0.000148845
0.000186257
0.000165476
0.0589593
0.000150807
0.000160782
0.000191713
0.000148827
0.00018687
0.0692437
0.0596829
0.000160072
0.000156689
0.000164762
0.068238
0.075547
0.0332522
0.000158968
0.000164228
0.000149118
0.0513587
0.000157926
0.000252198
0.000179367
0.00796545
0.0796352
0.000209144
0.000177675
0.000206525
0.0176871
0.0397225
0.000266302
0.000159315
0.000157134
0.000173611
0.0333963
0.008731
0.000166363
0.0542002
0.0208628
0.000172583
0.0183901
0.000148166
0.0808901
0.0412989
0.000151144
0.0715315
0.0723199
0.000172794
0.00116668
0.000163316
0.0143996
0.0250621
0.000157333
0.000152365
0.0608733
0.000142832
0.0199186
0.00129256
0.060732
0.0635322
0.0240455
0.000158751
0.000170395
0.0159725
0.000145007
0.000188199
0.0676741
0.0311607
0.000152795
0.00017441
0.000184178
0.000153563
0.000205928
0.0701719
0.000160064
0.00015493
0.0220549
0.0508412
0.000200504
0.00016297
0.0791906
0.0782004
0.00015849
0.000199319
0.000164593
0.0116272
0.0643454
0.000158639
0.0226089
0.0702565
0.0555101
0.000204168
0.000164707
0.0491054
0.000174492
0.00018029
0.0708614
0.000147483
0.0280988
0.0745896
0.000185417
0.0136542
0.000210605
0.000184321
0.0230616
0.000161966
0.000163338
0.00777638
0.000154034
0.00018507
0.000201583
0.000143257
0.000160335
0.000144644
0.000158115
0.0556936
0.000145603
0.0341527
0.000188855
0.000146073
0.000146897
0.0508111
0.0653112
0.000197758
0.000157022
0.0683269
0.000159051
0.000169004
0.000146619
0.0650378
0.0231324
0.000160993
0.000165233
0.000190555
0.000197459
0.000191026
0.000145445
0.0489062
0.00015293
0.000150596
0.0404957
0.0493015
0.000221711
0.00147924
0.0464277
0.000149617
0.0161071
0.0537892
0.010508
0.000160155
0.0247927