/*--------------------------------*- C++ -*----------------------------------*\
| =========                 |                                                 |
| \\      /  F ield         | OpenFOAM: The Open Source CFD Toolbox           |
|  \\    /   O peration     | Version:  v2012                                 |
|   \\  /    A nd           | Website:  www.openfoam.com                      |
|    \\/     M anipulation  |                                                 |
\*---------------------------------------------------------------------------*/
FoamFile
{
    version     2.0;
    format      ascii;
    class       surfaceScalarField;
    location    "300";
    object      phi_0;
}
// * * * * * * * * * * * * * * * * * * * * * * * * * * * * * * * * * * * * * //

dimensions      [0 3 -1 0 0 0 0];
oriented        oriented;


internalField   nonuniform List<scalar> 
20362
(
0.366781
0.113093
-0.479874
0.00497735
0.000827543
-0.00580489
-0.121339
-0.279288
0.400627
0.331801
0.112414
-0.444215
0.156237
-0.168884
0.0126469
0.381515
0.0611137
-0.442628
0.295516
-0.523644
0.228128
0.640993
-0.476872
-0.164122
-0.176254
-0.00938615
0.18564
0.245649
-0.289357
0.0437077
-0.179723
0.00346886
0.696354
-0.348892
-0.347463
-0.476098
0.648025
-0.171927
-0.00479689
0.00549569
-0.000698804
0.478054
-0.146253
-0.601332
0.606986
-0.0056542
0.21338
-0.068518
-0.144862
0.532119
-0.25742
-0.274698
0.0035955
-0.00103419
-0.00256131
0.208291
-0.0882614
-0.12003
-0.094457
0.0972992
-0.00284228
0.661898
-0.352193
-0.309705
0.50346
-0.398804
-0.104656
0.278253
-0.399592
-0.593557
0.600478
-0.00692063
0.641974
-0.585687
-0.0562866
0.3082
-0.00534102
-0.302858
0.064437
0.577537
-0.563944
-0.0296125
0.0114895
-0.01137
-0.00011949
0.00282427
-0.0410103
0.038186
-0.377548
-0.226222
0.60377
0.00286365
0.00114981
-0.00401346
0.0554813
-0.340243
0.284761
0.606002
-0.287526
-0.318476
-0.00457047
0.000522568
0.0040479
-0.336581
0.265135
0.0714458
-0.0032908
0.00826815
0.344349
-0.531077
0.186727
-0.453936
0.0261228
0.427813
-0.0934908
-0.129918
0.223409
0.303697
0.302305
0.294059
0.383328
0.534281
-0.435108
-0.099173
-0.126929
0.49371
-0.339862
-0.0616372
0.401499
0.751151
-0.338144
-0.413007
-0.0631434
-0.383266
0.446409
0.238503
-0.247295
0.008792
0.426332
0.128649
-0.55498
0.0597574
-0.0306108
-0.513669
0.450526
-0.695247
0.554524
0.140724
0.304344
0.227774
0.364104
-0.343798
-0.0203062
0.606773
-0.0654573
-0.541316
0.54301
-0.732997
0.189987
-0.152237
-0.271257
0.0285208
0.242736
-0.429364
0.31547
0.113894
-0.168048
0.0363409
0.131707
0.0794094
0.454872
-0.00514923
0.00690798
-0.00175875
0.254583
0.407314
-0.00790555
0.000140858
0.00776469
-0.428348
0.622593
-0.194245
0.000683444
-0.0951404
-0.00342136
-0.00332045
0.00674181
0.0636467
-0.53548
0.471833
-0.193311
0.179498
0.0138127
0.369041
0.38211
0.230746
0.410247
0.706366
-0.52325
-0.183116
0.356499
0.107224
-0.000714292
0.00353974
-0.00282545
-0.00437149
0.0690738
-0.0647023
-0.00832608
-0.184985
-0.00981276
-0.0582228
0.0680356
-0.00368851
0.00297421
-0.272582
0.251954
0.0206274
0.133579
-0.22707
-0.0134941
0.2115
-0.198006
-0.268545
0.174802
0.0937432
0.651065
-0.446011
-0.205055
0.508412
-0.164063
0.00738477
-0.00792093
0.000536156
0.235473
0.00614651
-0.24162
-0.185951
-0.270582
0.456533
0.281656
-0.648144
0.366487
-0.0777284
0.0882193
-0.010491
0.636793
-0.440542
-0.196252
-0.0234861
0.135723
-0.475584
0.307712
0.0563926
-0.00633413
0.00134514
0.00498899
-0.00236035
0.005224
-0.313288
0.0320831
0.281205
0.388799
0.307555
0.269053
0.2854
-0.554453
0.0862379
0.262416
0.139468
-0.401885
0.245048
0.000600844
-0.608582
0.550892
0.0576902
0.671792
-0.436355
-0.235437
-0.34249
0.509117
-0.166627
0.0419668
0.171413
-0.120799
-0.147746
-0.663719
0.467515
0.196205
-0.0260496
-0.427887
-0.12422
-0.189068
0.2
-0.0027177
-0.197282
-0.557508
0.117262
0.440247
-0.0112355
0.011951
-0.000715581
-0.00845532
-0.122669
0.131125
0.0906587
-0.108675
0.0180163
0.568894
-0.273352
-0.295542
0.347401
-0.519079
0.171678
0.00441928
0.0144968
-0.0189161
-0.1003
-0.508282
0.101263
-0.380551
-0.0117808
0.0117808
0.413167
0.2932
0.292836
-0.387395
0.0945595
0.00076276
0.00283274
-0.00141765
0.0112199
-0.00980227
-0.00363025
-0.00463316
0.00826342
-0.250274
0.519326
-0.520145
-0.212851
-0.500553
-0.0569557
0.522146
-0.487697
-0.0344491
-0.144062
-0.0239855
0.115082
-0.1097
-0.00538175
0.469749
0.0523966
0.210719
0.0277842
-0.0117393
-0.000112632
0.0118519
0.151736
-0.176026
0.0242899
-0.00153786
-0.0063677
0.101195
0.384071
-0.485266
-0.275214
0.353469
0.249674
-0.144454
-0.10522
-0.0340575
0.228757
-0.194699
-0.000669915
-0.0110694
0.127035
-0.508513
0.381477
-0.369592
0.548643
-0.179051
-0.1012
0.482714
-0.0900992
-0.246482
0.00779444
-0.0855228
0.0862641
0.255909
0.185807
-0.371757
0.00250555
-0.453308
0.203034
-0.541346
0.59942
-0.0580744
0.213403
-0.226897
0.359903
-0.450022
0.120694
0.234932
-0.355626
-0.0672869
-0.216288
0.283575
-0.211227
0.458028
-0.246801
0.000835802
-0.00716993
0.0123915
0.487505
-0.499897
0.601964
-0.175633
-0.578452
0.102354
-0.00654629
0.00139706
-0.00363817
0.00398117
-0.000343001
-0.102223
-0.478341
0.580564
0.337118
-0.679608
0.106874
0.1428
0.463324
-0.167808
0.137761
0.259213
-0.396974
-0.629463
0.256468
0.372995
-0.371219
0.526014
-0.154795
-0.246885
0.367579
0.215746
-0.426973
-0.367248
0.284512
0.0827355
0.0541626
-0.0612713
0.00710873
0.466831
-0.235327
-0.231504
0.407721
0.168215
-0.575936
0.0558426
-0.0530183
0.000915634
0.012306
-0.0132216
-0.498371
-0.042975
0.0083237
-0.00782294
-0.000500765
-0.151702
-0.263166
0.414868
0.00585064
-0.00948089
-0.00272702
-0.601794
0.232202
-0.385881
0.512916
0.576933
-0.574827
-0.0021057
-0.268482
0.406244
0.169761
0.3337
-0.276541
0.209255
0.140927
-0.149382
-0.663207
0.409053
0.254154
0.00421545
0.00727404
-0.00899813
-0.00237187
0.559009
-0.328263
-0.590514
0.488291
0.232359
0.336535
0.19917
-0.0685012
-0.130669
-0.294166
0.606773
-0.00709601
3.86581e-05
0.00705735
0.438247
-0.337052
0.0103371
-0.00857839
-0.00175868
0.366357
-0.310876
0.383502
0.267564
0.292893
-0.529228
0.236335
-0.33148
0.269843
-0.0162241
0.0111683
0.00505588
-0.333205
0.433311
-0.100106
-0.207552
0.00482055
0.202732
-0.0171476
-0.00358441
0.00492955
0.00158351
0.00875356
-0.387068
0.57343
-0.186362
0.0633065
-0.00914388
-0.00310856
-0.000579941
-0.101292
0.379545
-0.448351
0.62533
-0.176979
0.4018
-0.0781237
-0.323676
-0.0467291
0.0116432
0.035086
0.244318
-0.345761
0.101443
0.172117
0.0604997
-0.141784
-0.337848
0.479632
-0.00279956
-0.00177091
-0.21719
0.563855
-0.346665
0.0363666
0.162803
-0.00421545
-0.00437159
0.00858705
0.0462735
0.0146314
-0.0609049
-0.0118219
-0.0792988
0.0911207
-0.157262
-0.281225
0.438486
-0.000161508
0.00657931
-0.0064178
-0.00677787
-0.000318133
0.00723755
0.00108615
0.0753085
-0.0851212
-0.437446
0.0695206
0.367925
0.33762
-0.489784
0.152164
-0.00452461
0.00293357
0.00159104
-0.0237457
0.028165
-0.505989
0.583471
-0.0774819
0.0154671
0.0245929
-0.04006
0.331272
0.34052
-0.450199
0.424149
-0.164543
-0.499177
-0.00289781
-0.0050728
0.324092
-0.465876
0.122876
0.0371758
-0.308433
0.323786
-0.331267
0.00748042
-0.341635
0.648394
-0.306759
-0.183362
-0.00766364
0.191026
0.00128063
-0.0125161
-0.0809466
0.0547321
-0.066554
-0.261017
0.329084
-0.0680667
0.0168289
-0.258001
0.241172
0.398508
-0.16565
-0.232858
0.414485
-0.12165
0.000652422
-0.00971822
0.00906579
0.0034486
-0.00350691
5.83145e-05
-0.375323
0.114306
0.36849
-0.502169
0.13368
-0.00159654
-0.00292808
-0.294026
0.282611
0.0114146
-0.560696
0.684537
-0.123841
0.0469054
0.0128519
-0.00047833
0.026709
-0.0262306
-0.0543054
0.521389
-0.467083
-0.151106
0.488725
0.344085
0.302781
-0.646867
0.320098
-0.309424
-0.0106741
0.376296
0.167319
-0.543615
0.217991
0.111093
-0.00027164
-0.00783179
0.00810343
0.0950541
0.271303
0.00596934
-0.00613085
0.188024
-0.151684
-0.00300956
0.000300501
0.00270906
0.450123
-0.102722
-0.289017
0.397086
-0.108069
0.255138
-0.632686
0.288676
-0.181801
-0.0595359
0.00175802
-0.00597348
-0.30676
0.14045
0.16631
0.00222172
-0.00618292
0.00396119
-0.510235
-0.0910971
0.00834438
-0.00724587
-0.00109851
-0.155594
-0.0143437
0.169938
-0.0671239
0.154542
-0.58289
-0.00619755
0.00156438
0.0170266
-0.28437
-0.308615
0.592985
-0.00018957
-0.00993917
-0.00628498
-0.348773
0.253977
0.0947957
-0.502698
0.202698
0.3
0.347846
-0.52685
0.179003
-0.0998888
-0.009811
-0.639299
0.273806
0.365493
0.143914
-0.138761
-0.00515366
0.00126755
0.00123176
-0.00249931
0.208858
-0.0340205
-0.174838
0.484066
-0.492955
0.00888899
0.67921
-0.127048
-0.552162
-0.00215639
-0.00144755
0.269034
-0.118949
-0.150085
0.00994573
-0.00312824
-0.00681749
0.000109959
-0.00105038
0.000940424
0.287373
-0.286734
-0.000639279
-0.0955243
0.016245
0.0792794
0.0258058
0.182485
-0.00047952
-0.0405308
-0.0101972
0.0843214
-0.458737
0.374415
0.526671
-0.150375
-0.611191
0.244109
0.367082
0.00255137
0.0048334
-0.0366187
0.0520858
0.00940646
0.00379713
-0.0132036
-0.108895
0.00900652
-0.201702
-0.300997
0.254873
-0.406575
-0.498148
0.0973281
0.494585
-0.591913
-0.113276
0.0338152
0.450251
0.119596
0.16908
0.330469
0.182241
-0.51271
0.00399492
-0.00890562
0.0049107
0.186441
0.364451
-0.00801394
0.00324747
0.00476647
0.727249
-0.265999
-0.46125
0.295684
-0.155234
-0.187161
0.17983
0.0073314
-0.288222
0.487385
-0.199163
0.449861
0.277388
-0.24273
0.271251
0.380652
0.141451
-0.522103
0.0243704
-0.20422
0.179849
-0.167648
0.0120542
-0.00626591
0.00284455
-0.0149979
0.000244134
0.00810024
-0.00178885
0.00189881
-0.187919
-0.0846626
0.614058
-0.614058
0.270859
0.0492394
0.303679
-0.062982
-0.240697
0.502322
-0.177995
-0.324327
-0.0149736
0.0127733
0.00220029
-0.00404419
0.00311379
0.00140371
-0.00451751
0.131907
-0.482321
0.350414
0.250685
0.108314
-0.358999
-0.425744
-0.328924
0.490713
-0.161789
0.037949
0.231086
0.365279
-0.203792
-0.161487
-0.0934027
0.337721
-0.0212357
-0.428963
-0.216581
-0.00888265
0.225464
-0.00583233
-0.269381
0.229698
-0.558622
0.150705
0.0811695
-0.231874
0.0021228
0.0134428
-0.0137145
0.572296
-0.402535
0.30028
-0.485946
0.185667
0.547662
-0.337809
-0.209853
0.102047
0.296461
0.347245
0.30078
-0.33578
0.467687
0.323569
0.078231
0.00937065
0.134544
0.517561
-0.217282
-0.392226
0.404618
-0.061432
0.00734385
0.0540882
-0.0848183
-0.223732
0.30855
0.246693
0.00526102
0.315902
-0.533091
-0.179614
0.461271
0.417174
-0.131775
-0.000326338
-0.00447055
0.00280571
0.0567617
-0.0595674
0.0188783
-0.0193566
0.0167273
-0.0119297
-0.00479759
0.238944
-0.0668277
0.529192
-0.150586
-0.378606
0.0628506
0.23202
-0.294871
0.268073
-0.479741
0.211668
-0.495522
0.2073
0.391581
-0.129165
-0.0425951
-0.434276
-0.510283
-0.0440456
0.554328
0.3043
-0.00572546
-0.298575
0.0329503
-0.0252353
-0.007715
-0.000175016
-0.00333189
0.0795034
-0.320161
0.240658
-0.557865
0.109514
0.490937
-0.222864
-0.438338
0.654283
-0.215945
-0.36896
0.164341
0.204619
0.201702
-0.177332
-0.157342
-0.272023
0.022363
0.00424295
0.300057
0.358477
-0.500854
0.142377
-0.0154117
0.0160642
-0.339879
0.477698
-0.137819
-0.00469271
0.00552851
0.361098
-0.261839
-0.0992593
0.000742398
-0.109638
-0.0430582
-0.0524661
-0.133414
-0.00631178
0.139726
0.429659
-0.293937
0.0138783
-0.0602285
0.0463502
0.201067
-0.0337729
-0.00902325
0.00573245
-0.0654908
0.0122479
0.0532429
0.0587565
0.0294628
0.397239
0.129432
0.244644
-0.631712
0.145409
-0.193366
0.0479567
0.00502536
-0.00595974
0.000934377
-0.639155
0.393553
0.245603
0.00678338
0.186858
0.286561
-0.473419
0.114285
0.331754
-0.446038
-0.0315215
-0.172698
0.019794
0.00991528
-0.0092416
-0.000673685
-0.00263331
0.0057471
0.00227067
0.00764462
-0.266474
0.261554
0.00491956
-0.102241
-0.37492
0.477161
0.504625
-0.420304
-0.414852
-0.224304
-0.25646
0.325924
-0.0694637
0.205517
-0.0601085
0.199112
0.33008
0.000336058
-0.00451731
0.00418125
0.362697
-0.464938
0.111792
-0.0178422
-0.0939501
0.26513
0.330662
0.228347
0.00588573
-0.0113434
0.00545765
-0.222541
0.566626
0.1841
0.438493
-0.00556463
0.182221
-0.176656
-0.0541655
0.447718
-0.0150862
0.0697378
-0.0741093
0.102132
-0.451023
0.00013758
-0.00433723
0.00419965
-0.46088
-0.0494031
0.0152948
-0.0519135
-0.00509614
0.00523372
0.634148
-0.413686
-0.220462
0.258314
0.101588
-0.279372
0.12681
0.152562
0.0133569
-0.00120299
-0.0121539
-0.165584
0.316289
-0.00223523
0.0147584
-0.0125232
0.173305
-0.17887
-0.266015
-0.000459053
0.070027
-0.00412651
-0.00379442
0.428654
-0.482959
-0.0150616
0.0136439
0.00391583
0.207584
0.120613
-0.455291
0.334678
0.333007
-0.491375
0.158368
-0.186847
-0.00265544
0.00117427
0.00148117
-0.557121
0.12116
0.435961
-0.450375
-0.0556143
0.139478
-0.137295
-0.00218286
0.081813
-0.0127392
0.391946
-0.180651
-0.211294
0.535665
-0.0879938
-0.447671
-0.580984
0.147147
0.433837
0.533905
-0.469468
-0.00116331
0.0105698
-0.615637
0.331268
-0.430969
0.376803
-0.0267362
0.487114
-0.460378
0.488172
-0.155165
-0.00153201
-0.000302858
-0.00235258
0.232727
0.128372
0.00572396
0.229749
0.689712
-0.298397
-0.391315
-0.000658227
0.00181731
-0.00115908
0.00181836
0.00367734
0.369599
-0.350526
-0.0190725
0.269554
0.0957252
-0.0107728
0.0102529
0.00051985
-0.000927624
-0.00587238
0.0068
0.343924
0.292869
-0.634466
0.286983
0.347484
-0.407894
-0.0405214
0.448415
0.282707
0.407005
0.0184677
0.19039
-0.383628
0.305504
-0.366939
-0.175827
0.542766
0.0508163
0.137208
0.00409779
-0.00390295
-0.00019484
0.205264
0.380293
-0.585557
-0.30042
0.487278
-0.404454
0.332339
0.0721152
0.32714
0.307008
-0.274585
0.189767
-0.0348415
0.568746
-0.173815
-0.000786973
0.174602
0.0336225
-0.216985
-0.42379
0.402554
0.335093
0.034506
0.226194
-0.231535
-0.195975
-0.00361068
-0.203942
0.00490417
0.000254298
-0.00515847
0.52038
-0.123141
-0.201437
0.16738
-0.182631
-0.00453048
0.00472663
0.00662583
-0.0113525
-0.239578
0.245724
-0.637372
0.352068
0.285305
0.14694
-0.0074629
-0.0138603
0.21386
-0.197573
-0.0917841
0.100908
-0.0102496
-0.43839
0.335393
0.102997
0.0608886
-0.0518879
-0.00900066
-0.38138
0.45109
-0.0697093
-0.505633
-0.0498228
0.555456
-0.0584479
-0.0252165
0.0836643
-0.212857
0.244101
-0.344661
0.100559
0.00827664
0.00143175
-0.00970839
-0.487716
-0.14675
0.159065
-0.355612
0.293269
0.0623432
0.0262796
0.154337
0.00559858
-0.000694405
-0.0990259
-0.180346
-0.569845
0.163368
0.406477
-0.473373
-0.101763
0.575135
-0.554418
0.197335
0.357083
-0.574013
0.188813
0.3852
0.104386
-0.51228
0.365931
0.151631
-0.368746
-0.0357075
-0.504584
0.196883
0.3077
0.196386
0.380547
-0.00415827
-0.00532356
0.00948183
0.111475
0.000317601
0.0114945
-0.0137298
0.33153
-0.23553
0.0565177
-0.437898
0.00143581
0.0119211
0.0421018
-0.373582
2.73227e-05
0.0225205
-0.0225478
-0.54625
0.0728776
0.245537
0.146409
0.201168
0.371128
5.5805e-05
-0.0114308
0.011375
-0.238643
0.0397219
0.198921
-0.0728818
-0.000162267
0.073044
-0.194073
-0.36981
0.575075
-0.000388642
-0.0502661
0.0506548
0.468712
-0.534169
0.00968287
-0.193848
-0.310735
0.347142
-0.276856
-0.0702863
0.00711564
0.4849
-0.282201
-0.00299513
-0.00199142
0.00498655
-0.00969496
0.00882036
0.000874604
-0.135745
0.501676
-0.216403
-0.319026
0.535428
-0.107827
-0.325533
0.43336
0.309167
0.209423
-0.51859
-0.0022468
0.495144
-0.388906
0.198765
-0.160816
0.267352
0.28031
0.18816
-0.190878
-0.110724
-0.360831
0.2459
0.114931
0.0143868
-0.00887569
-0.00551115
-0.444033
0.020243
-0.0566368
-0.129639
-0.206668
0.336307
0.03074
0.272939
-0.00037625
-0.00311337
0.00348962
0.361649
-0.266594
0.118411
-0.558953
-0.298718
0.540505
-0.232044
-0.308461
0.119465
-0.565475
-0.005699
0.00661759
-0.000918591
0.00114521
-0.008977
0.484105
-0.227479
-0.256627
-0.141397
0.44399
-0.302594
0.122355
0.329756
-0.452111
0.0494325
0.0514757
-0.00215923
0.00245973
-0.089369
0.294617
-0.205248
0.309991
-0.190395
0.0047859
-0.00444984
0.359987
-0.109302
-0.131948
0.409312
-0.277364
0.128956
-0.515182
0.386226
0.0136333
0.019317
-0.277303
0.340154
0.634624
-0.447351
-0.187273
0.070342
-0.575975
-0.0010805
0.0907963
-0.0897158
-0.0185631
0.0186189
0.159998
-0.194019
0.208243
0.339806
-0.548049
0.248879
0.0384941
0.0415479
0.187209
-0.405028
0.533984
0.528329
0.0857288
-0.00890676
0.00474849
0.637911
-0.401613
-0.236298
-0.00206834
0.00368542
-0.00161707
0.435327
-0.0132977
-0.422029
0.00262321
0.0054278
-0.00805101
0.282519
-0.233812
-0.0487067
-0.476737
0.109797
0.000659303
-0.00965744
-0.0023642
-0.00564974
-0.106051
-0.35979
0.482145
-0.090337
0.405807
0.0176317
-0.357874
0.00679335
-0.00989576
0.00310241
-0.208283
0.200619
0.00831005
0.00841722
-0.10166
0.00249438
0.179726
0.00444768
0.257043
-0.181916
0.169854
0.0120627
-0.293023
0.0433002
0.249723
0.0387166
-0.0248383
0.677637
-0.406204
-0.271434
0.217154
0.266952
0.564805
-0.330074
-0.234732
0.578699
-0.21161
-0.367089
0.418692
-0.381917
-0.0367745
0.0267652
0.172
0.41984
0.257797
-0.422474
-0.131944
-0.181382
0.305486
-0.413312
0.139714
-0.479593
-0.322321
0.508762
-0.205299
0.594937
-0.389639
0.289658
0.235523
-0.525181
0.0260025
0.053286
-0.0792885
-0.0966667
0.190457
-0.553264
0.362806
0.0107726
-0.00592462
-0.00484799
0.186498
-0.184003
-0.000387098
-0.018176
0.053844
-0.0415961
-0.00241814
-0.249643
0.229561
0.0200827
-0.350926
-0.112244
0.46317
-0.2862
0.406813
0.0110975
0.424229
-0.007724
-0.0390051
0.130712
0.20438
0.322254
0.242551
0.0877457
0.397839
-0.485585
0.476667
-0.108177
-0.499079
0.41187
0.0872084
-0.149059
-0.341559
0.490618
0.295923
0.122768
0.25936
0.106642
-0.366001
-0.000543445
-0.129874
-0.162307
0.292181
-0.613523
0.373223
0.2403
0.285129
-0.154416
0.480996
-0.186938
0.182148
0.424839
0.209085
0.182496
-0.331608
0.20197
0.109442
-0.54778
0.0004803
0.0201083
-0.0205886
0.360295
-0.509354
-0.254953
-0.475824
0.573152
0.174392
-0.521264
0.346872
0.338462
0.168388
-0.50685
0.306248
-0.421604
0.115356
-0.490748
0.149113
-0.181996
0.0058154
0.176181
-0.0705081
0.28462
-0.214112
-0.0122429
0.00654387
-0.240195
-0.304549
0.544744
-0.00595376
0.156304
0.331212
-0.487516
0.000920993
-0.00298934
-0.000364316
-0.00397291
-0.294015
0.29335
0.000664565
-0.381349
0.125304
0.256045
0.0662792
0.197287
-0.263567
0.515897
-0.341505
-0.250475
-0.311743
0.562218
0.19492
0.28998
0.17271
0.353305
-0.49067
-0.0145813
0.026292
0.000417
0.120547
0.0263939
-0.00203677
0.00382439
-0.00178762
-0.239078
0.494336
-0.255258
0.0110812
-0.00523627
-0.00584493
-0.575109
0.417128
-0.443864
-0.394022
-0.0426606
-0.290544
0.00562483
0.00545637
-0.281025
0.0451401
0.235885
-0.0677604
0.0705661
-0.00450915
-0.288514
-0.147254
0.0138397
-0.0153844
-0.188932
0.573003
0.125741
-0.310526
-0.0987884
-0.256824
-0.20918
-0.292316
0.501496
-0.126403
-0.312936
0.439339
0.698459
-0.334008
-0.000967471
0.00214174
-0.0252765
0.0248894
0.218224
-0.0953863
-0.303418
0.55515
-0.191944
-0.363206
-0.00972411
0.0111581
-0.001434
0.275969
-0.0951376
-0.485847
0.488776
-0.321113
-0.167663
-0.102516
-0.00253509
0.000498322
-0.240009
0.256838
0.0352357
-0.558486
0.124142
0.18585
-0.00659327
-0.00110781
0.00770108
0.276092
-0.408041
-0.00621659
0.0026539
0.00356269
0.118275
-0.283925
-0.47335
0.348258
0.125092
0.0820294
-0.0603618
-0.0216676
-0.000167896
0.0010994
-0.000931505
-0.00120696
-0.00235731
0.00356427
0.00261453
-0.563311
0.326384
-0.111034
-0.215351
0.00705913
0.00371348
-0.524439
0.101965
-0.00467903
-0.000568497
0.00524752
0.41613
-0.126473
-0.208095
0.400062
0.208638
-0.447717
0.123837
0.0895615
-0.213398
-0.00744664
-0.00145898
-0.183789
-0.143676
0.398681
0.479942
-0.392196
-0.581224
0.151968
0.429256
0.153318
-0.116952
-0.301926
0.133013
-0.569368
-0.465093
0.584172
-0.119079
0.154148
0.334628
-0.0855702
0.067728
-0.180717
-0.448747
0.321028
-0.441573
0.120545
0.0800218
-1.06727e-05
0.0221702
-0.0221595
-0.306538
0.300706
-0.00184198
0.00118376
-0.0673596
0.0669709
-0.00202589
0.00105842
-0.172832
0.218347
-0.427527
0.0920243
-0.0848743
-0.00714999
-0.177355
-0.461944
0.00326735
-0.00203559
0.0143776
-0.00965093
0.0202577
-0.194073
-0.370499
0.499148
-0.405678
0.205754
0.199924
-0.377285
0.449271
-0.0719866
0.00493971
-0.167594
0.162654
-0.500602
0.274381
-0.0092475
-0.00669655
0.0159441
0.133778
-0.263697
0.542632
-0.0948523
0.0866053
0.00824699
-0.178377
0.090116
-0.00154914
0.00138124
0.260607
-0.446707
0.186101
0.00197832
0.38469
-0.139934
-0.244756
4.81929e-05
-0.000424443
0.434038
-0.26756
-0.166478
-0.0921658
0.216002
0.195
0.323614
-0.518614
0.351762
0.12437
-0.476132
0.230622
-0.325544
0.0949212
0.026578
-0.183873
0.157295
0.208868
-0.345049
0.136181
0.504909
0.607639
-0.200775
-0.406864
0.0878645
-0.0822257
-0.00563883
-0.360224
-0.205958
0.566183
0.144216
-0.452246
0.30803
-0.00235338
-0.00839804
0.0107514
0.466129
-0.205522
0.659877
-0.239703
-0.420174
-0.0862038
-0.488624
-0.0096563
0.00107791
-0.402128
0.090385
0.488601
-0.375508
0.0934451
0.232939
0.63018
-0.185257
-0.444923
-0.32775
0.386541
-0.0587904
0.356162
0.202472
-0.558634
0.132086
0.0212325
0.0518807
-0.429165
-0.486651
0.546683
-0.0600317
-0.253508
0.355555
0.0926101
0.557997
-0.321662
0.411751
-0.350637
-0.0029746
-0.101462
0.104437
0.00659837
0.000150906
-0.00674928
0.181412
0.02029
0.218399
0.336751
0.0027622
-0.00249011
-0.000272085
0.0012721
-0.00426723
0.002203
-0.00689571
-0.171471
0.00721293
0.164258
0.00710491
-0.00686077
0.343789
-0.488119
0.14433
0.360382
0.176764
-0.537146
0.428704
-0.126966
-0.301739
-0.482828
-0.00382307
-0.504651
-0.0428337
0.547485
0.00250125
-0.261932
0.214027
-0.16321
-0.159096
-0.355388
0.514484
-0.206997
0.284138
-0.0771414
0.560011
-0.214307
0.293811
-0.00386357
0.00113654
0.000406048
-0.00492336
-0.181725
-0.38812
-0.379354
-0.229222
0.236338
0.266381
0.37153
-0.221592
-0.341826
0.563418
-0.506559
-0.00342043
0.000945743
0.00247468
-0.00463554
0.0998407
-0.0952052
-0.0820319
0.286793
-0.204761
-0.157206
0.495668
-0.141658
-0.348793
0.567192
0.00424551
0.00122668
-0.0054722
-0.116852
-0.253754
0.370606
-0.249791
-0.226945
-0.00640004
-0.0762841
0.300518
-0.224233
0.233875
-0.228614
0.279643
-0.402809
0.123166
-0.00244193
0.0343607
-0.0319188
-0.35529
0.42099
-0.0657003
0.0957796
0.301307
0.508079
-0.17761
0.000591538
-0.00193356
0.00134202
0.370291
0.150089
-0.145995
0.00221043
0.00606621
0.00147207
-0.100068
0.0999324
0.000135929
0.0331958
-0.0444959
0.0113001
-0.0684401
-0.00574075
0.00106172
-0.506121
0.584097
-0.077976
-0.127466
-0.0112952
0.358178
0.32636
-0.488234
0.12801
-0.0032671
-0.000867186
0.00413429
-0.520952
0.0889184
-0.0394859
0.269652
0.384631
0.0011377
-0.000546165
-0.0058453
0.00491767
-0.0642139
0.329349
-0.0149506
-0.0091181
0.0240687
-0.000179506
0.348448
-0.224307
-0.110707
-0.251028
0.361735
-0.229581
0.642748
-0.209404
0.571101
-0.361697
-0.0077446
0.00184148
-0.00867295
0.00683147
0.183073
-0.579812
0.396739
-0.0821255
-0.0020737
0.0841992
0.202053
-0.272562
0.00126456
-0.000126859
-0.0315405
0.169722
-0.138182
-0.466679
0.63719
-0.170511
0.369921
-0.526501
0.15658
-0.212479
0.550574
-0.338095
0.510006
0.20017
0.184521
-0.422133
-0.191389
0.208935
0.349062
-0.0832301
-0.0116221
0.19982
-0.173242
-0.445707
0.125225
0.320482
0.0217853
0.0602441
0.373349
0.286528
0.404671
-0.0572659
-0.347405
-0.458314
0.510195
0.424039
-0.103011
-0.0018851
-0.00138201
0.00403429
-0.326577
-0.278227
0.604803
0.080469
-0.615949
-0.110149
-0.170875
0.0871952
-0.379511
-0.00249943
-0.00283693
-0.00027644
-0.595086
0.352375
0.242711
0.29621
0.132494
0.120578
0.041961
-0.162538
0.00670199
-0.000732653
0.178245
-0.456481
0.141299
0.315182
0.317636
0.106403
-0.19659
-0.327054
0.316959
0.185363
-0.086761
-0.00662832
-0.09344
0.00513006
-0.126035
0.0161045
-0.0161151
-0.193503
-0.00518351
0.00495261
0.0002309
0.654831
-0.160246
-0.0894008
-0.217138
0.00460964
-0.0234131
0.0188035
-0.0928253
-0.193909
0.11073
-0.406717
0.295988
-0.00114561
-0.00417796
0.0654952
-0.0804611
0.0149659
0.00365483
0.477895
0.00186364
-0.0521298
0.15485
-0.0342724
0.0588311
-0.315674
0.256843
0.529599
-0.169217
-0.550171
0.201447
0.348725
0.154646
0.323052
0.269492
-0.477306
0.207815
0.00370842
0.0097344
-0.00871478
-0.128074
0.136789
0.00909982
-0.00725835
-0.002735
0.00740611
-0.0046711
-0.00316307
0.00901371
-0.00201817
-0.000141057
-0.0779127
-0.00292295
0.0808357
0.0924748
-0.00167854
0.640066
-0.211505
-0.42856
-0.407221
0.292547
0.114674
-0.456668
0.589681
0.00683479
0.00227289
-0.00910768
0.00365252
-0.00324647
0.150643
0.376305
-0.526949
0.0082251
-0.316928
0.516151
-0.199223
0.184926
-0.58108
0.396154
-0.43564
0.294243
-0.385614
0.539521
-0.153907
0.000500264
0.0196081
0.133742
0.214707
-0.204304
0.303095
-0.414296
0.111201
0.150944
-0.0303973
-0.00200317
-0.00769179
-0.0565373
0.283595
-0.227058
-0.168982
-0.0231478
0.19213
0.45445
-0.34372
0.212257
0.366442
-0.320674
0.298507
0.0032405
-0.00236508
-0.000875427
0.35883
0.170769
-0.134874
-0.321607
0.498449
-0.128528
-0.102873
0.00788927
0.00389149
0.00201252
-0.000195215
0.333528
0.301096
-0.00212346
0.0941478
-0.0906835
-0.00356825
-0.0072045
0.0095965
-0.00276171
0.0118549
-0.00724521
-0.289955
0.391217
0.0865507
-0.451152
0.364601
-0.105392
-0.508667
-0.00198819
0.000781227
0.331752
0.156421
-0.230964
0.0342992
0.196665
0.365154
-0.557097
-0.597209
0.387805
0.0467706
0.00707346
0.293122
0.106231
-0.399353
0.594481
-0.43348
-0.161001
-0.345951
-0.0956216
0.210191
0.0723272
0.63551
-0.369129
0.00373948
-0.00647448
-0.526887
0.454158
0.0727296
0.171861
-0.442947
0.271086
-0.0890811
0.304887
0.0879692
-0.392856
-0.00134335
-0.000590212
-0.143304
0.469627
-0.326323
-0.0261877
0.310607
0.123431
0.135329
0.275728
-0.411056
-0.299686
-0.61055
0.388009
0.311368
0.131922
-0.443291
0.46767
-0.381119
0.0233651
0.563366
0.00822628
-0.00279847
-0.203905
-0.0600723
0.263977
-0.117583
0.0772057
0.0403776
-0.338029
-0.590652
0.168365
0.422287
0.385703
-0.5479
0.162197
0.553023
0.58002
-0.310529
-0.403958
0.114003
-0.00813357
0.00299845
0.00513512
-0.507759
0.162797
0.344963
-0.00978898
-0.172207
0.499784
-0.34348
-0.00283686
-0.00582682
0.00866367
0.0234782
-0.217051
-0.0132438
0.230295
0.214344
-0.225805
0.0114606
0.0503379
-0.0580619
-0.358263
-0.27911
0.277183
0.358327
0.00884216
-0.14248
0.133638
0.00884367
-0.0867564
-0.0954532
0.350433
-0.25498
-0.00244341
0.0078246
-0.00538119
0.209856
0.193097
-0.402953
-0.0548764
-0.00535205
0.00775928
-0.0227098
-0.594801
0.0105779
0.584223
0.341261
0.0303864
-0.371648
0.137833
-0.011794
-0.126039
0.189382
-0.183566
0.25527
-0.297931
0.350893
-0.477529
0.126637
-0.0678334
0.298826
-0.230993
0.419926
-0.164655
-0.234182
-0.0238186
0.361656
-0.1518
0.217598
-0.381424
0.163826
-0.000490079
-0.130113
0.130603
-0.470644
0.220853
0.0182052
-0.00521435
-0.00291922
-0.153807
0.212885
-0.0749406
-0.137944
0.0996228
-0.175909
0.0762861
0.0197645
-0.026461
-0.162296
0.379894
0.359398
0.201783
-0.561181
-0.260442
0.00222692
-0.364795
-0.108555
-0.161073
0.519903
0.00411277
0.324383
-0.467687
0.000649797
-0.00686639
-0.350773
0.521378
-0.170604
-0.336887
0.00458178
0.0832827
-0.193214
-0.472683
0.359885
0.112798
0.199137
-0.18067
0.352965
-0.258169
-0.437119
0.542316
-0.105198
0.00426497
-0.00311516
-0.415941
0.318018
0.0979235
-0.61621
0.364135
0.252075
-0.137166
0.415483
-0.278318
-0.00310403
0.00315222
0.457377
-0.200909
-0.0481933
0.389455
-0.0880801
0.261443
-0.195164
0.00398809
-0.0064315
0.421911
-0.25005
-0.18558
0.541157
-0.355578
0.223375
-0.219459
-0.114145
0.473543
0.100616
0.0153889
-0.0617817
0.00116046
0.0606213
0.0302539
0.342401
0.358563
-0.700964
-0.458477
-0.0406015
-0.00466745
0.00422675
0.000440705
-0.00161689
-0.268123
0.012209
0.255914
0.478212
-0.283292
-0.0693689
0.338923
-0.297261
0.417119
-0.119857
0.113102
-0.139191
0.135909
0.0032824
0.0175485
-0.00109745
-0.016451
-0.1096
-0.0009538
0.00881196
-0.00785817
0.0546826
-0.00155177
-0.0531308
0.112658
-0.508398
0.39574
-0.055389
-0.00132371
-0.00452158
0.00640658
-0.00736038
-0.460848
0.331403
0.129445
0.347673
-0.656288
0.320187
0.134263
0.241246
0.200573
-0.441819
-0.0065308
-0.00336495
-0.0326383
0.444389
-0.290592
0.0157026
0.00184588
-0.261646
0.303256
0.000602137
0.021568
-0.0195823
0.250188
-0.230606
0.00817495
-0.00392944
-0.000989707
-0.00367775
0.0177071
-0.242337
0.22463
-0.00505219
-0.000131315
0.0350594
-0.207757
0.549469
-0.341713
0.0879541
-0.101463
0.0135085
-0.12179
0.170293
0.345604
-0.11809
0.421185
0.00261439
-0.0029787
0.138417
-0.408999
-0.0993888
-0.254633
0.354022
0.639474
-0.369523
-0.269952
-0.156199
0.514952
-0.358753
0.0225951
-7.45595e-05
-0.544515
0.194086
0.350429
-0.183777
0.155846
0.0279316
0.199998
0.383472
0.40279
-0.161545
0.150165
0.32344
-0.473605
-0.377794
0.23786
0.0749977
-0.00950251
-0.158623
0.501024
-0.330112
0.539047
0.335173
-0.170832
0.299531
0.144459
0.400911
-0.0960244
-0.0657057
0.00748292
0.131724
0.364858
-0.521057
0.00250662
0.00073388
0.217104
0.377377
-0.0692056
0.00742392
-0.42619
-0.19002
-0.024795
0.0252246
-0.000429652
0.0686992
-0.372537
0.303838
0.08069
-0.0795295
-0.319707
0.405537
-0.0858301
-0.478415
0.0543852
0.159641
0.23008
0.17271
0.0870202
0.238904
0.357826
0.332556
-0.545035
0.00552185
-0.0083587
-0.172414
0.447775
-0.27536
-0.129737
-0.347793
-0.373517
-0.176654
-0.471028
0.144452
-0.0135159
0.155159
-0.141644
0.00750477
-0.00985815
-0.423993
0.251579
-0.0872418
0.317864
-0.608157
0.192628
0.415529
-0.124056
0.430304
0.321922
0.186157
-0.0166803
0.235054
-0.218374
-0.0907455
-0.391576
0.0514736
0.00320898
-0.400534
0.298229
0.102305
0.474812
-0.14306
0.205409
0.335096
0.0120015
0.000304465
-0.00463884
0.00885429
0.329849
0.201003
-0.530853
0.51053
-0.397872
0.00135585
0.000191061
-0.00409401
-0.0591939
0.00730594
0.272402
-0.211902
-0.110593
0.310763
-0.441534
0.0862438
-0.0365612
-0.231562
0.0307615
0.00703545
-0.0377969
0.00149697
-0.114869
-0.162143
0.0615555
-0.086772
0.213169
0.00117568
0.38404
-0.18904
-0.00374553
0.0605072
0.204236
-0.0541125
-0.150123
-0.0156337
-0.000481401
-0.102634
-0.507916
-0.265503
0.324334
0.190379
0.287833
-0.448129
-0.0565228
-0.282922
-0.121035
0.13866
0.265302
-0.0293158
-0.235986
-0.190252
0.464058
0.0953441
-0.098267
0.0241568
0.503878
-0.528035
-0.422532
-0.16812
-0.299023
0.262462
-0.263848
0.257757
0.00609183
0.17388
-0.521984
0.348104
0.0231187
-0.0242161
-0.309902
0.454119
-0.373548