/*--------------------------------*- C++ -*----------------------------------*\
| =========                 |                                                 |
| \\      /  F ield         | OpenFOAM: The Open Source CFD Toolbox           |
|  \\    /   O peration     | Version:  v2012                                 |
|   \\  /    A nd           | Website:  www.openfoam.com                      |
|    \\/     M anipulation  |                                                 |
\*---------------------------------------------------------------------------*/
FoamFile
{
    version     2.0;
    format      ascii;
    class       volVectorField;
    location    "300";
    object      U;
}
// * * * * * * * * * * * * * * * * * * * * * * * * * * * * * * * * * * * * * //

dimensions      [0 1 -1 0 0 0 0];


internalField   nonuniform List<vector> 
13726
(
(1.02297 0.00237176 6.21203e-22)
(-0.152888 -0.00338157 0)
(1.0759 0.0179924 4.3173e-20)
(1.02328 0.0174574 -3.29198e-21)
(1.1978 0.0595891 1.81928e-20)
(1.02174 0.00419 -6.00446e-22)
(1.01929 0.0123466 0)
(1.0193 0.0134131 1.7506e-21)
(1.19448 0.0657313 1.40909e-19)
(1.13681 0.0496977 1.73539e-20)
(1.19551 0.0627726 -8.97526e-20)
(1.01056 0.00109819 1.59559e-22)
(0.996095 3.80462e-05 0)
(-0.0704212 -0.0130084 0)
(1.02319 0.0168153 4.64806e-21)
(0.999912 0.000434837 2.56503e-21)
(1.16255 0.0871414 9.32537e-20)
(1.04121 0.0366775 -1.04994e-20)
(-0.0272332 0.0266264 0)
(1.14664 0.103908 3.63829e-20)
(0.664339 0.0902331 0)
(0.997673 0.000239971 1.71164e-22)
(1.03451 0.0250266 0)
(1.07794 0.0178175 0)
(0.997227 0.000208203 0)
(1.00348 0.000679038 0)
(1.08149 0.0559876 4.45674e-20)
(1.00347 0.000672055 0)
(0.99747 0.00019137 4.72907e-23)
(-0.217869 -0.0146858 -6.2989e-20)
(0.44942 0.0717437 0)
(1.01131 0.00115508 0)
(-0.0497097 0.0271201 -1.01962e-20)
(1.04105 0.0521166 -4.07859e-21)
(0.996933 -0.00163188 1.32325e-21)
(-0.0346108 0.0136 3.5917e-20)
(1.09824 0.0391401 3.03307e-20)
(-0.152438 -0.00153699 0)
(1.02542 0.0206572 -4.99376e-21)
(1.03885 0.0301918 5.9718e-22)
(1.05745 0.111755 0)
(1.00065 -0.00288955 0)
(1.0371 -0.000247963 0)
(1.02223 0.0167102 7.6988e-21)
(1.02464 0.00188146 -4.73353e-22)
(1.05144 0.0251409 2.51285e-20)
(0.989917 0.00309023 -9.64305e-22)
(1.00713 0.00100325 -1.15778e-23)
(1.13359 0.0750643 -4.56289e-20)
(0.995669 3.92112e-05 5.70118e-22)
(0.210595 -0.0176559 3.5724e-21)
(1.00768 0.00102075 2.669e-22)
(1.02486 0.002509 0)
(1.04013 0.0361063 -9.16889e-21)
(1.08592 0.0197422 -5.13588e-20)
(1.02794 0.000526731 1.46522e-20)
(1.02475 0.00090632 -2.07594e-22)
(1.02508 0.00137147 2.26688e-22)
(1.11694 0.0462376 4.64729e-20)
(1.07628 0.0120672 4.83952e-20)
(0.480205 0.0238971 6.25266e-21)
(1.02189 0.0165472 -7.54949e-21)
(-0.122592 -0.0221725 -7.71668e-20)
(0.997706 0.000242268 -1.34665e-22)
(-0.164194 -0.00716499 0)
(1.00813 0.000920786 0)
(0.702122 0.0895243 0)
(-0.0999154 0.0150047 -1.35929e-20)
(1.00883 0.00105201 2.00307e-22)
(1.18812 0.0729407 -2.3175e-20)
(0.994858 0.00560821 0)
(1.01894 0.0131886 0)
(1.00701 0.00109355 -2.36542e-21)
(1.0668 -0.00141013 -2.1242e-22)
(-0.0300535 0.0276453 -2.13654e-20)
(0.2716 0.0108813 1.0545e-21)
(1.19041 0.0703817 0)
(0.312242 0.0579759 0)
(-0.0426029 0.0265594 0)
(1.1045 0.0982558 -5.62455e-20)
(1.06807 0.109814 0)
(1.12625 0.075114 -5.25265e-20)
(1.1112 0.0969424 -3.50293e-20)
(0.999783 0.000375335 3.48707e-21)
(1.02525 0.020467 3.32159e-21)
(-0.103192 -0.0315343 -3.34281e-20)
(1.09828 0.10396 0)
(1.06393 0.0189411 2.20321e-20)
(0.995274 -4.33016e-06 4.44121e-22)
(0.596368 0.0876838 4.58425e-20)
(1.03656 0.00215013 -8.17317e-21)
(1.19901 0.0599077 -1.90364e-20)
(1.05174 0.0247523 -1.43242e-20)
(1.08372 0.0209407 2.2027e-20)
(-0.0851432 -0.0243633 0)
(-0.063748 0.0250036 1.177e-20)
(1.07195 0.0738858 2.10886e-20)
(1.01059 0.00111277 -1.64371e-22)
(1.02964 0.0218036 0)
(0.698577 -0.0223918 -7.87399e-22)
(1.05892 0.0247072 4.7189e-21)
(1.13692 0.0498274 3.1025e-20)
(1.0265 0.00919475 3.51105e-22)
(1.00393 0.00215691 -3.11516e-21)
(1.02886 0.00869685 -3.29871e-22)
(1.15962 0.0875475 0)
(1.11381 0.0962993 0)
(1.01315 0.00569415 0)
(1.03979 0.0306438 -4.74608e-21)
(1.07445 0.074102 -1.33629e-20)
(1.15145 0.0620622 -2.48395e-20)
(1.00375 0.00198086 0)
(0.139374 0.0431615 6.89671e-20)
(0.476207 0.0621937 8.05369e-24)
(0.351087 0.0403094 0)
(1.02714 0.0223326 -4.38402e-21)
(0.988975 0.00892192 0)
(0.234754 0.0448449 3.99078e-20)
(1.0273 0.00828945 0)
(1.07546 0.0162758 -3.38047e-20)
(-0.201666 -0.0154814 6.67254e-20)
(1.00695 0.00093989 -2.29839e-21)
(1.07384 0.020964 -1.48493e-20)
(-0.0357915 0.0250002 0)
(0.124574 0.0457435 1.6279e-20)
(-0.161006 0.000278556 0)
(1.0297 0.0221845 -2.91847e-21)
(1.02474 0.000469318 0)
(1.00381 0.0020678 -1.30111e-21)
(1.02387 0.0196523 1.321e-21)
(0.461296 0.0225296 0)
(0.768401 0.0967221 -4.44745e-20)
(1.02384 0.0185385 -1.01205e-21)
(1.13111 0.074589 4.4349e-20)
(-0.0844129 0.0125013 -5.32684e-20)
(1.19996 0.0551379 3.46205e-20)
(-0.160385 -0.00549921 0)
(0.850967 0.000707734 -2.35208e-23)
(0.691595 -0.0245349 8.62759e-22)
(0.544922 0.0186442 -4.90969e-21)
(1.11762 0.0893499 0)
(-0.0744404 0.00886593 1.93311e-20)
(1.01373 0.00800672 0)
(1.00592 0.000943406 8.27726e-23)
(1.02279 0.00410395 8.3831e-22)
(1.10007 0.0369893 -1.62185e-20)
(0.634868 0.0885752 -2.31405e-20)
(1.096 0.00167177 0)
(1.06574 0.0192494 -2.67231e-20)
(-0.0396581 0.0256724 2.44224e-20)
(1.03016 0.0230475 -1.48792e-21)
(0.998215 0.00020023 -2.09824e-21)
(1.12744 0.077278 9.93604e-21)
(1.09332 0.0023108 0)
(1.00814 0.00105508 6.94176e-23)
(1.06243 0.0493246 -1.27826e-20)
(1.10632 0.0202116 2.19005e-20)
(0.997123 0.0253148 -2.61111e-22)
(-0.0873604 -0.0202224 0)
(0.99623 0.000106626 3.2e-22)
(0.995563 1.71624e-05 -5.51665e-22)
(0.995795 1.95396e-05 0)
(-0.117661 -0.0227634 6.86989e-20)
(-0.0394739 -0.00674135 1.54547e-20)
(1.00565 0.000806708 0)
(1.02923 0.00859904 7.07527e-22)
(0.547664 0.0194449 0)
(1.01928 0.0122491 0)
(1.05757 0.0224063 0)
(0.996459 8.7704e-05 8.64241e-22)
(1.02638 -0.00034874 -7.58034e-23)
(1.06121 0.047976 1.24359e-20)
(0.983102 0.025501 5.23222e-21)
(1.08221 0.0232682 -2.33118e-20)
(0.264863 0.0613018 -2.17008e-21)
(1.01951 0.0424028 0)
(1.00525 0.000971005 -1.68073e-22)
(0.514113 0.0756165 0)
(0.16014 0.0495074 8.00065e-21)
(0.998727 0.000271004 2.00189e-21)
(0.0922641 0.0407278 5.7476e-20)
(1.05366 0.00476397 -1.02664e-20)
(-0.154288 0.00321843 2.0498e-20)
(-0.0457319 0.029599 0)
(1.00561 0.000955856 9.48416e-24)
(1.01332 0.0075197 -1.3386e-21)
(0.99677 0.000135644 0)
(1.05616 0.021556 -1.89299e-20)
(1.03362 0.0249165 -1.4518e-20)
(1.10839 0.0217318 -6.99858e-20)
(0.557258 0.0690528 7.05785e-22)
(1.01443 0.0112009 0)
(-0.2172 -0.0138738 8.45576e-20)
(-0.211946 -0.0129944 0)
(1.01851 0.0126683 -4.89721e-21)
(1.00659 0.00085706 -1.79485e-23)
(1.02641 0.0220059 0)
(0.791476 0.112884 0)
(1.01083 0.0085279 5.32011e-22)
(1.02605 0.000934886 -6.30266e-21)
(-0.131748 -0.0102168 0)
(0.859306 0.00159553 0)
(-0.18902 -0.00905442 6.2423e-20)
(1.04132 0.0504563 4.78192e-21)
(0.999876 0.000399755 0)
(1.01506 0.00949205 0)
(1.05196 0.0263633 0)
(-0.117704 0.0188323 1.84929e-20)
(1.08092 0.00970278 1.85076e-20)
(1.1276 0.0814583 1.05071e-20)
(1.20068 0.0553626 1.86999e-20)
(-0.084813 -0.025541 0)
(-0.194422 -0.0111026 -6.29702e-20)
(0.99704 0.000197462 -2.06453e-23)
(0.295978 0.0643324 -6.61745e-21)
(-0.038579 0.027054 5.28637e-20)
(1.07821 0.019571 -9.35779e-21)
(1.03696 0.000271787 -1.00856e-20)
(1.04492 0.0386698 5.80023e-21)
(0.283637 0.0664532 0)
(1.0923 0.0148635 5.08936e-20)
(1.14885 0.0193369 0)
(1.01296 0.0270347 -5.16507e-23)
(-0.0314373 0.0164185 -6.8083e-20)
(1.01181 0.00512103 -3.67341e-21)
(0.758792 0.109386 0)
(-0.081258 -0.132515 -6.22559e-20)
(0.253479 0.0635128 -1.82281e-20)
(0.562592 0.0984555 2.63196e-20)
(1.05484 0.0199696 1.79884e-20)
(-0.0790678 -0.00938642 -6.38589e-20)
(-0.131854 -0.0115165 0)
(0.0734443 0.0386618 -6.4178e-20)
(0.369054 0.0669745 -3.7741e-21)
(1.06709 0.00105189 0)
(1.04779 0.00215564 -1.32609e-20)
(-0.0539861 -0.0293455 -6.24717e-20)
(0.281618 0.0482425 3.64754e-20)
(0.948948 -0.012224 2.43161e-22)
(0.289766 0.0737696 6.43155e-20)
(1.00379 0.00211151 -1.76677e-21)
(1.03917 0.0284305 -1.92182e-20)
(1.01335 0.0057889 0)
(-0.109975 0.00888427 -3.15129e-20)
(1.00043 0.0271148 0)
(0.717968 0.0940979 -2.01766e-20)
(1.11959 0.0432827 -5.11246e-20)
(1.07199 0.0592835 7.65415e-21)
(0.994828 2.22513e-05 3.60486e-23)
(1.13987 0.0950709 -5.30284e-20)
(0.125651 0.0413041 -9.81533e-20)
(1.06768 -3.5773e-05 -1.39139e-20)
(0.499222 0.0924608 3.1189e-20)
(1.07732 0.0587341 9.68128e-21)
(1.08129 0.0873081 -1.42002e-20)
(1.02667 0.0630208 0)
(1.07381 0.0224267 1.64368e-20)
(0.124993 0.0408975 4.4223e-20)
(-0.0357236 -0.00899689 7.19845e-21)
(1.07804 0.0568156 -1.02203e-21)
(1.02798 0.015393 -5.43026e-23)
(-0.0581363 -0.0257375 5.11247e-20)
(1.09866 0.0696123 3.80818e-20)
(0.99483 -6.20577e-06 -2.66288e-22)
(0.211041 -0.0135292 -5.32147e-21)
(0.278876 0.060066 -3.2242e-20)
(1.00083 0.000466153 -4.24743e-22)
(1.04836 0.00317609 4.22542e-20)
(0.996969 0.000172261 -3.28981e-22)
(1.05573 0.0771049 3.15676e-21)
(1.00666 -0.00830489 0)
(1.07488 0.0585045 0)
(0.115476 0.0352049 -5.08351e-20)
(1.04029 0.049273 0)
(-0.0712509 -0.00844892 1.22605e-20)
(0.533642 0.03191 -8.93188e-21)
(-0.0301516 0.0243714 -4.74315e-20)
(0.950795 0.00653861 0)
(1.07999 0.0158168 5.62353e-20)
(1.01205 0.00116415 4.71356e-24)
(0.6011 0.0273418 0)
(1.08381 0.0222104 3.99755e-20)
(-0.0804676 -0.0725323 0)
(1.06744 0.0601225 -7.94892e-21)
(-0.112409 0.0138864 0)
(1.00051 0.000431296 -2.34254e-21)
(-0.130263 0.00070262 -3.82506e-20)
(1.1115 0.107575 5.75293e-22)
(1.08063 0.0570689 -4.12901e-20)
(1.00763 0.000907001 0)
(-0.162881 -0.00114773 0)
(1.06965 0.0609405 3.81967e-21)
(0.999558 0.000436246 0)
(-0.0456922 -0.0107724 8.28188e-21)
(-0.118223 0.0197857 -6.96346e-20)
(1.09289 0.00927687 2.52687e-22)
(1.02415 0.0399311 0)
(1.01523 0.0098187 4.08255e-21)
(0.731798 0.0933872 1.0341e-19)
(0.997721 0.000217439 -4.01627e-24)
(1.15601 0.0942055 0)
(-0.00130922 0.0232488 -1.63281e-20)
(1.15408 0.0730087 0)
(1.0379 0.00921199 0)
(1.0238 -0.000644613 -2.20812e-22)
(-0.0191193 0.0555904 -2.23996e-20)
(0.8801 0.0874052 -1.69431e-21)
(0.0979311 0.0434009 6.05229e-20)
(-0.0146122 0.0293311 1.32618e-20)
(1.12219 0.0204971 0)
(0.634629 0.0850891 9.07498e-20)
(1.14552 0.104847 0)
(0.427032 0.0704375 0)
(-0.202365 -0.0155663 0)
(1.02037 0.0151143 -1.72508e-21)
(0.982348 -0.0105758 0)
(1.01334 0.00548613 0)
(-0.108091 -0.0286044 2.77168e-20)
(0.338036 0.0804479 -3.24353e-20)
(-0.110101 0.0144741 0)
(0.784266 0.0949216 1.48724e-22)
(1.02346 0.0404413 0)
(1.055 0.00443796 1.05566e-20)
(1.02456 0.00115704 0)
(1.02313 0.00233404 -7.48523e-23)
(1.07418 0.0599471 -9.47805e-21)
(1.03696 0.00961042 0)
(0.604062 0.0280795 -3.58235e-21)
(1.04114 0.00114085 0)
(-0.115136 -0.0365756 2.05043e-22)
(1.02517 0.00950434 -3.38143e-22)
(-0.143838 -0.00435533 -5.91271e-20)
(0.997025 2.91586e-05 1.16098e-21)
(1.06674 0.0610088 0)
(1.16974 0.0614929 4.3441e-20)
(1.0416 0.00313509 1.16785e-20)
(0.996755 -1.06664e-05 0)
(1.11506 0.0421434 0)
(1.01858 0.0104477 -1.81071e-21)
(1.16472 0.0526644 -4.87433e-20)
(1.08435 0.106597 -4.08577e-20)
(-0.107776 0.0139072 8.37669e-21)
(0.289279 0.0682541 1.76809e-20)
(-0.129945 0.00273768 0)
(-0.0196493 0.0292028 -3.85079e-20)
(1.10762 0.0992985 0)
(1.00617 0.000679444 0)
(1.05419 0.0757248 5.12956e-21)
(1.04498 0.0955104 0)
(1.0271 0.0154746 3.31132e-21)
(-0.0989964 0.021934 4.50582e-20)
(-0.103822 0.0149915 -7.38858e-21)
(-0.0606826 0.0205824 1.25213e-22)
(1.01639 0.0017652 -2.37041e-24)
(1.06492 0.0454453 -6.83566e-21)
(1.05607 0.020747 2.75634e-20)
(1.01929 0.0136438 -5.29527e-21)
(0.85047 0.0853708 1.2187e-21)
(1.09919 0.0309207 0)
(1.09293 0.0182994 -3.61636e-20)
(1.0399 0.0286572 2.04519e-20)
(1.14543 0.0261956 0)
(0.678172 -0.023019 -8.04275e-22)
(1.01959 0.0142984 5.62559e-21)
(1.1004 0.0657681 5.31947e-20)
(0.0815015 0.0413174 -8.64719e-20)
(0.151765 0.0388912 4.49969e-20)
(1.03293 0.0235556 -6.24673e-21)
(1.01969 0.0121198 2.30659e-21)
(1.0212 0.0141932 0)
(1.02723 0.0621267 5.41166e-22)
(0.995903 2.09284e-05 0)
(1.01578 0.00173887 2.62626e-24)
(1.04421 0.0401428 4.38414e-21)
(1.16691 0.0952939 1.80373e-20)
(1.01977 0.0121589 0)
(0.996833 0.000156048 2.36082e-22)
(0.640904 0.0718793 6.13461e-20)
(1.06361 0.0743909 1.51821e-20)
(1.10252 0.0996772 2.36126e-20)
(1.01225 0.00530749 1.95349e-21)
(0.995566 -3.99028e-06 2.81752e-22)
(1.02938 0.0213235 0)
(-0.0626535 -0.0124746 0)
(0.606809 0.0741751 -2.68483e-20)
(0.231063 0.0560297 3.34487e-20)
(0.134292 0.0331476 -1.15817e-20)
(1.14948 0.0226181 1.31333e-20)
(1.02431 0.0191514 5.20872e-21)
(1.07925 0.0428932 0)
(1.01491 0.00916165 1.93324e-21)
(1.04139 0.00261795 -1.99526e-20)
(1.05891 0.0251654 0)
(1.01929 0.0134797 -5.51112e-22)
(1.00329 0.000941086 1.63126e-21)
(1.08697 0.041697 2.94511e-20)
(0.191325 0.0560993 -2.61136e-21)
(-0.0410352 -0.0117962 0)
(1.08874 0.0743856 -2.78926e-20)
(1.03658 9.9002e-05 7.76709e-21)
(1.01492 0.00910711 0)
(1.01857 0.00170089 -9.92312e-21)
(1.06762 0.0343892 0)
(1.16307 0.0478325 -1.64347e-20)
(1.0773 0.0112146 4.5212e-20)
(1.14838 0.0228973 -2.22431e-20)
(1.0844 0.0433594 -2.96591e-20)
(1.03094 0.021754 1.6316e-20)
(0.159715 0.0444623 -2.687e-20)
(0.894357 -0.00833627 3.76399e-22)
(-0.0866467 -0.0183084 -2.01399e-20)
(1.07213 0.0389687 9.58975e-21)
(0.75148 0.0934555 6.26487e-22)
(0.652057 0.0876715 -8.33726e-20)
(1.20869 0.0689947 0)
(1.05087 0.0235733 0)
(0.277506 0.0813806 3.65673e-20)
(0.543814 -0.00669168 1.63099e-20)
(-0.147335 0.00148942 -2.07447e-20)
(0.24527 -0.016888 0)
(0.594729 0.0881196 5.57233e-20)
(0.998163 -0.00632561 0)
(0.997341 0.000211096 1.98235e-23)
(1.15269 0.0786948 0)
(-0.0918828 -0.0597113 3.19167e-20)
(1.01703 0.0028797 2.16371e-22)
(-0.0955386 -0.0675147 0)
(1.02782 0.0173487 3.68022e-21)
(1.0521 0.00983196 -8.11359e-21)
(1.16761 0.0492756 0)
(0.199525 0.053235 0)
(0.115266 0.0457961 7.81095e-20)
(-0.076592 0.0180154 -2.73211e-20)
(0.0963039 0.0443768 -7.78493e-20)
(1.10949 0.0116413 0)
(1.01575 0.00167382 1.50397e-22)
(1.01989 0.014265 1.52738e-21)
(1.01703 0.00291007 0)
(1.09998 0.0438155 1.74517e-20)
(1.1526 0.0786685 -1.88648e-20)
(1.02388 0.0188548 -1.1551e-21)
(-0.0815132 -0.0536359 3.15469e-20)
(1.01551 0.00166364 -1.53409e-22)
(0.83197 0.0896548 -2.70536e-22)
(1.02166 0.0419382 0)
(1.01822 0.0123764 1.04417e-21)
(-0.0976762 0.0118491 -3.99596e-20)
(0.996312 0.000106663 4.03919e-22)
(1.00803 0.000933074 -7.15887e-24)
(1.14369 0.103316 0)
(1.01684 0.00239431 4.87634e-22)
(-0.0953297 0.0196088 -4.91572e-20)
(0.286277 0.0228981 -3.69802e-22)
(1.0099 0.00113408 -1.03836e-22)
(-0.0532907 -0.012874 -2.98861e-20)
(1.00389 0.000987852 0)
(0.392294 0.0841205 3.32324e-20)
(-0.0629267 -0.0156592 0)
(1.00731 0.00278752 -1.43458e-21)
(1.09231 0.00312369 0)
(1.12424 0.0425839 3.25054e-20)
(0.128733 0.040379 1.7233e-20)
(1.09841 0.0660576 -5.85727e-20)
(0.0726296 0.00337189 -1.37017e-20)
(1.14284 0.107391 5.7386e-22)
(1.11053 0.00888551 -7.22013e-22)
(0.445775 0.0908362 0)
(-0.0999288 -0.0373038 5.15573e-20)
(1.00241 0.000709033 -3.15243e-21)
(0.160394 0.0491592 -3.35093e-20)
(1.12382 0.0752087 4.2862e-20)
(1.00419 0.00208748 -1.83215e-21)
(1.01848 0.00997751 -1.03748e-21)
(1.01507 0.00955473 1.82123e-21)
(-0.0233339 0.0224445 -3.06353e-20)
(1.0044 0.000913922 1.59303e-22)
(0.972434 -0.00973435 2.12349e-22)
(1.19168 0.0837445 8.28891e-20)
(0.281531 0.00481075 -7.55107e-22)
(1.04677 0.0634032 -1.40329e-21)
(0.932101 0.00422906 0)
(1.01273 0.0021839 -2.74282e-22)
(1.0044 0.000728594 -2.20404e-23)
(-0.112316 0.0143265 0)
(0.999207 0.00040945 -3.93792e-23)
(1.01669 0.00244313 0)
(0.996218 7.35274e-05 1.78357e-22)
(1.01849 0.00950808 -1.06369e-21)
(-0.00908583 0.0198145 0)
(-0.013974 0.0243421 0)
(1.07069 0.0389781 0)
(1.09627 0.103275 0)
(1.02142 0.00743123 0)
(0.0132698 0.0158137 6.09849e-20)
(-0.0700317 -0.00870721 -2.39014e-20)
(1.05666 0.0502403 0)
(1.09728 0.0331685 2.68941e-20)
(0.0842463 0.0209379 -1.00664e-20)
(-0.110719 0.00981134 2.74406e-20)
(1.03623 0.00256533 0)
(0.995501 -4.80547e-06 -5.11413e-22)
(0.90014 0.00518629 -1.74759e-23)
(1.02068 0.00668388 0)
(1.15128 0.0721919 5.81424e-20)
(1.04544 0.0413995 -5.99617e-21)
(1.0228 0.00521363 0)
(0.552861 0.0328198 0)
(-0.0587858 -0.014639 -2.35895e-20)
(1.01166 0.00211273 8.57074e-22)
(1.02737 0.0166139 0)
(1.06569 0.00335821 3.40528e-20)
(-0.113637 -0.0310029 -2.98551e-20)
(1.00714 0.00274872 0)
(1.06378 0.0768532 0)
(1.00452 0.000726937 2.16936e-23)
(0.788953 0.106277 4.32466e-21)
(1.14315 0.0949275 9.23228e-20)
(1.03914 0.027184 0)
(1.05497 0.0515004 9.4964e-21)
(1.08057 0.0555047 -3.0062e-20)
(1.03062 0.0218879 -1.23957e-20)
(1.13024 0.0825309 0)
(-0.0905756 -0.0461419 3.12686e-20)
(0.972686 -0.00757294 -2.54507e-22)
(1.11862 0.092258 -4.31676e-20)
(1.17223 0.0589852 -4.05448e-20)
(0.0402509 0.0383062 1.55065e-21)
(1.0976 0.09952 1.12839e-20)
(0.997998 0.000284422 0)
(1.1805 0.0843525 -7.02681e-20)
(1.15125 0.0632147 6.01068e-20)
(1.13931 0.0471875 -6.17867e-20)
(0.381471 0.0457264 0)
(1.0655 0.00536204 2.74956e-20)
(0.65211 0.0712412 8.54638e-22)
(1.02631 0.0153812 0)
(1.01982 0.00185389 0)
(0.307157 -0.00164637 0)
(1.10038 0.0687243 0)
(1.0928 0.0117748 1.36168e-20)
(-0.104503 0.00731664 2.92174e-20)
(0.995609 -8.25958e-06 -5.4646e-22)
(1.02389 -0.000442229 0)
(1.08623 0.0314471 -4.9212e-20)
(1.20549 0.0539195 -6.37009e-20)
(-0.093534 -0.0433426 0)
(1.12565 0.0419943 0)
(1.01323 0.00391431 0)
(1.00669 0.00469364 -3.56551e-22)
(1.04058 0.00449995 1.04213e-20)
(1.03391 0.0101775 0)
(0.890457 0.00367072 2.42983e-24)
(1.01953 0.0116866 0)
(0.255824 -0.0220068 5.16083e-21)
(1.06711 0.00304794 -5.24494e-20)
(1.02358 0.0193856 9.87517e-22)
(0.996629 0.00011246 3.99227e-24)
(-0.0413237 0.0334235 -2.83612e-20)
(0.860258 0.0920701 3.6517e-20)
(0.070903 0.0148627 -4.36931e-20)
(0.71014 0.0205118 -1.40954e-21)
(1.02577 0.0153048 0)
(0.109367 0.0394697 0)
(1.05312 0.0264786 -5.20414e-21)
(0.229264 0.0542551 0)
(1.01605 0.00341643 2.39102e-22)
(1.04524 0.0629143 -5.93299e-21)
(1.03221 0.0231333 -1.27982e-20)
(0.106036 0.0487719 0)
(1.144 0.055131 -5.04993e-20)
(0.525427 0.0790942 0)
(1.00562 0.000970332 -1.10559e-23)
(1.011 0.00205879 2.95643e-25)
(0.336313 0.0854861 6.92174e-20)
(1.02999 0.00133782 9.6518e-21)
(-0.103478 0.0116303 0)
(1.02353 0.0196593 -1.31153e-21)
(1.10465 0.0370719 3.44164e-20)
(1.09946 0.0980489 2.77815e-20)
(1.0244 0.0390628 6.08176e-22)
(-0.0659256 0.0195494 3.13969e-20)
(-0.174144 -0.00204588 0)
(1.01953 0.0116709 0)
(1.01069 0.00537753 0)
(0.841649 0.0255871 0)
(1.0384 0.0085699 -9.28235e-21)
(-0.0218512 0.0259709 0)
(0.92913 0.00546087 -5.7518e-23)
(1.0047 0.000929859 1.83039e-22)
(0.7354 0.0819847 0)
(1.02096 0.0142393 2.2898e-21)
(1.14912 0.0586806 0)
(1.01857 0.0101688 1.52203e-21)
(1.09258 0.00664216 0)
(-0.119812 0.0221503 1.93696e-20)
(1.03974 0.0270749 0)
(0.560065 0.0819368 0)
(1.07053 0.0236494 -1.64534e-20)
(1.04026 0.0949234 0)
(0.0148451 -0.00294809 -3.34645e-20)
(1.04062 0.0479926 -4.8708e-21)
(1.0366 0.00213644 -7.84534e-21)
(1.026 0.020933 5.94234e-22)
(1.01712 0.0115053 -3.5179e-21)
(0.999262 0.000288811 -2.34766e-21)
(0.0213078 0.0466713 4.55798e-20)
(0.102821 0.0329385 -2.4138e-20)
(0.924727 0.00818553 -3.18753e-21)
(1.05437 0.0167313 3.80434e-20)
(0.877793 0.0138441 7.51484e-22)
(0.376418 0.0414051 0)
(-0.0171545 0.0253336 -3.95792e-22)
(1.09851 0.0608089 -3.43247e-20)
(0.674124 0.0337877 7.36772e-21)
(-0.0854418 -0.0511473 3.77977e-22)
(1.06414 0.0468757 0)
(1.06262 0.0154998 6.43049e-21)
(1.00358 0.00085173 0)
(0.193769 0.0552437 3.46291e-21)
(1.07787 0.0417966 0)
(1.03637 0.000701289 0)
(1.02033 0.00154152 -5.38642e-24)
(0.521884 0.0992 5.89379e-20)
(0.140355 0.0532997 0)
(1.15606 0.0746429 -6.94151e-20)
(1.01959 0.00301765 -5.307e-21)
(1.11943 0.0231557 0)
(1.11488 0.0886442 0)
(1.00316 0.000796349 0)
(1.00691 0.000523099 -1.42351e-21)
(-0.0471473 0.0298314 2.57239e-20)
(1.01833 0.00414027 0)
(-0.0390327 0.0299445 2.45115e-20)
(1.03551 0.015835 0)
(-0.137371 0.00545464 5.83899e-20)
(1.09461 0.0717209 3.15394e-20)
(1.02291 0.00494785 1.93298e-21)
(-0.215968 -0.0144165 -4.31133e-20)
(-0.141193 -0.00446689 0)
(1.06652 0.00514308 -1.44272e-20)
(0.921476 0.019501 -2.33067e-21)
(1.07712 0.0139176 -3.35799e-20)
(1.04207 0.0532753 -5.41927e-21)
(-0.102498 0.0133005 -1.48316e-20)
(1.1385 0.0926773 0)
(0.136303 0.0308482 1.43065e-20)
(1.09365 0.0146104 0)
(1.14111 0.104484 -1.48213e-20)
(-0.119295 0.021513 -1.02518e-20)
(1.10231 0.0399551 1.57054e-20)
(1.18371 0.0759678 3.97927e-20)
(1.10603 0.0582042 0)
(0.209469 0.0741987 3.82477e-20)
(0.999404 0.000435317 2.34173e-22)
(0.92967 0.00738832 1.30065e-21)
(1.02383 0.018517 0)
(1.03894 0.00072641 -2.89067e-20)
(1.05661 0.0272162 2.08072e-20)
(0.700378 0.0797302 -1.04036e-22)
(0.999387 0.000428922 -9.48935e-24)
(1.04112 0.00425618 -1.15669e-20)
(1.01526 0.00990989 -2.32871e-21)
(0.805119 0.0218485 -1.85457e-22)
(0.921419 -0.00791524 -6.80935e-22)
(1.0245 0.011171 0)
(1.0097 0.00193955 -2.31558e-25)
(1.02243 0.00806983 7.47286e-22)
(0.396545 0.054067 -2.55052e-22)
(0.446822 0.061573 0)
(1.01171 0.00489054 0)
(-0.0554581 0.0351287 1.03985e-20)
(1.13902 0.102333 -1.40131e-20)
(0.172188 0.054099 -2.19664e-22)
(0.212803 -0.0035271 1.76666e-21)
(1.18709 0.0734743 2.88077e-20)
(1.11038 0.0863468 2.82847e-20)
(1.01425 0.0190904 0)
(1.0043 0.00202118 0)
(1.03478 0.0159377 6.20782e-21)
(0.307186 0.0677231 0)
(1.05357 0.050354 -1.0026e-20)
(1.02385 0.0183624 -1.09647e-21)
(1.01655 0.00143723 -2.59023e-23)
(1.0211 0.0156935 7.20953e-23)
(1.03472 0.0095448 0)
(1.01358 0.00111956 -4.659e-22)
(1.05536 0.0279258 -1.11663e-20)
(1.06923 0.0331502 -2.39902e-20)
(0.61774 0.0703695 6.78546e-20)
(1.04546 0.0656316 1.55744e-20)
(1.00462 0.00112635 4.9836e-21)
(1.05301 0.0502891 0)
(1.03619 -1.98209e-05 0)
(0.999912 0.000368828 3.15572e-21)
(1.05767 0.026022 0)
(1.06964 0.0220244 3.49114e-20)
(1.01868 0.00157406 1.43083e-20)
(0.228754 0.0535211 -3.63977e-20)
(1.01327 0.0012229 -1.6503e-22)
(1.09964 0.0630039 2.01253e-20)
(1.02314 0.00197861 0)
(1.02538 0.0153463 -1.73615e-22)
(1.00863 0.00377039 9.87637e-22)
(1.02416 0.0289687 3.08272e-22)
(0.994954 1.49848e-05 -6.94739e-23)
(1.16857 0.0698474 -1.08352e-20)
(1.10843 0.0451456 -6.61007e-20)
(0.0483418 0.0522011 -5.63671e-20)
(1.01151 0.00556257 -2.28909e-21)
(-0.086052 0.017337 0)
(1.04708 -7.85664e-05 -6.69216e-21)
(-0.0268065 0.0309028 2.40328e-20)
(-0.0483462 -0.00925764 2.65649e-20)
(1.06995 0.0777044 -1.97585e-20)
(1.08453 0.0337835 0)
(1.10999 0.0278244 0)
(1.02497 0.0144821 -6.15491e-21)
(1.01231 0.00569869 0)
(1.02437 0.0381692 -6.51573e-22)
(1.02727 0.000511952 -1.66364e-22)
(1.01188 0.00584893 2.66027e-21)
(0.186018 0.0499712 -3.65303e-20)
(0.297757 0.0612892 -6.43983e-20)
(1.18502 0.0872334 -2.00436e-20)
(-0.0384229 0.00645196 -2.53202e-20)
(0.995324 -2.85688e-05 -3.15799e-22)
(-0.201246 -0.0113098 0)
(1.01039 0.00201692 -2.57555e-25)
(0.99731 0.00020215 -1.98628e-22)
(1.0039 0.000861688 -5.35622e-22)
(1.08023 0.00827192 -1.25945e-20)
(-0.203003 -0.0108973 -8.75255e-20)
(1.14299 0.0516505 -5.23353e-20)
(0.676331 0.0774375 -5.37895e-20)
(1.10861 0.0569162 -2.2482e-20)
(1.20853 0.0659117 0)
(0.186471 0.0494586 0)
(0.849639 0.00204724 1.57278e-23)
(1.02512 0.0181863 0)
(1.04679 0.0649727 -1.61505e-20)
(1.08787 0.030321 4.83956e-20)
(1.02799 0.0187922 6.86513e-21)
(1.04872 0.0226905 0)
(1.02378 0.00944382 4.44359e-22)
(-0.0217596 0.0224827 2.67878e-20)
(0.210593 0.0590467 -2.41211e-20)
(1.12613 0.0798935 -4.90786e-20)
(1.03529 0.0249698 0)
(1.00968 0.00486355 -2.42366e-21)
(0.133708 0.0447131 1.9402e-20)
(1.07977 0.010437 -1.61557e-20)
(1.01311 0.00218931 -1.8882e-22)
(1.01328 0.0072177 3.35285e-21)
(1.09361 0.00572856 0)
(-0.0242484 0.00902469 -1.77751e-22)
(1.20283 0.0505113 4.35223e-22)
(1.0813 0.0835134 -2.72874e-20)
(1.00694 0.000837093 4.21465e-21)
(0.675892 0.0350883 -3.18312e-22)
(-0.0899282 -0.00631673 -2.94571e-20)
(1.06425 0.0156603 -6.2547e-21)
(-0.092353 -0.00198456 -2.32417e-20)
(1.02492 0.0656625 0)
(1.04151 0.0195666 -1.88147e-20)
(0.59003 0.0821403 4.02814e-20)
(-0.0162985 -0.004929 2.59337e-20)
(-0.042421 0.0047452 -3.62462e-20)
(0.994832 -1.72375e-05 2.31352e-22)
(1.04209 0.0678159 5.85346e-24)
(-0.0650403 0.0337487 -4.47849e-20)
(1.0409 0.00370432 0)
(-0.0629555 -0.0402245 0)
(1.02223 0.00817892 -1.16098e-21)
(1.11335 0.0866793 -2.9679e-20)
(1.0227 0.00828116 -4.04462e-23)
(0.995395 -2.79929e-05 1.10423e-21)
(1.07053 0.102464 -1.51758e-20)
(-0.111452 -0.0438799 -1.47164e-20)
(1.0385 0.00892076 0)
(1.01353 0.00556676 0)
(1.05752 0.0237427 0)
(1.01719 0.0015931 2.66298e-23)
(1.0137 0.00307835 -5.38096e-23)
(0.650935 0.107451 1.74001e-20)
(0.975551 0.00850597 9.76918e-22)
(1.00377 0.00214514 1.67964e-21)
(0.99784 0.000239159 -7.47629e-23)
(1.01306 0.0070885 0)
(0.760301 0.0873032 4.435e-20)
(0.996774 9.60069e-05 9.00975e-22)
(0.866575 0.0359993 -8.4276e-22)
(0.674418 0.0886081 -5.7286e-20)
(0.251472 0.0523462 -7.59207e-20)
(0.674964 -0.0172487 1.24346e-21)
(0.00562355 0.0120096 -6.48184e-20)
(0.402365 0.0910276 -4.65752e-20)
(-0.00894979 0.0229774 0)
(1.05779 0.0266545 0)
(1.02807 0.0182049 1.9825e-21)
(0.605986 0.0911028 0)
(0.997801 0.000209144 0)
(-0.0154413 0.023635 -1.67225e-20)
(0.0633136 0.0433682 -2.11641e-20)
(0.7429 0.105607 9.90935e-21)
(0.996357 9.32214e-05 0)
(1.04731 0.0331725 -1.71525e-21)
(1.04922 0.00945915 2.48044e-20)
(1.10411 0.109969 -3.50926e-20)
(1.01051 0.00108817 2.20799e-23)
(0.0742919 0.0399363 0)
(1.02511 0.116504 0)
(0.869251 0.00418998 -9.05902e-23)
(0.486268 0.0987079 -3.25978e-20)
(1.15056 0.101257 0)
(-0.0285769 -0.00868337 -3.91143e-20)
(1.0213 0.00899256 0)
(0.103733 0.0439512 4.94924e-21)
(1.054 0.0586743 -1.14179e-20)
(0.000724814 0.00817895 -2.57526e-20)
(1.06446 0.0308229 -1.14054e-20)
(1.06864 0.100986 0)
(1.01521 0.00897773 -1.61449e-21)
(1.02732 0.0225276 -5.30814e-22)
(1.09398 0.0440887 -1.57129e-20)
(1.16947 0.0474787 0)
(1.05946 0.0501118 -2.40963e-20)
(1.02765 0.0176266 0)
(1.01424 0.000992612 1.29682e-22)
(0.831607 0.0714372 1.17322e-19)
(0.998245 0.000249875 -1.62841e-21)
(1.05229 0.018388 0)
(-0.183242 -0.00479449 2.98779e-22)
(1.02076 0.00999161 -1.69165e-22)
(1.03233 0.00137471 0)
(0.996936 0.000139783 0)
(-0.191096 -0.0103678 0)
(1.01261 0.00589086 -8.0826e-22)
(1.02295 0.00337014 -3.09084e-22)
(1.04077 0.066877 -6.35372e-21)
(0.997068 0.000173377 3.15032e-22)
(1.03174 0.0409695 0)
(1.00709 0.00340099 0)
(0.611026 0.104077 1.45654e-20)
(1.04909 0.00849951 -8.17027e-21)
(0.995945 9.89256e-05 0)
(1.02851 0.0590678 1.07055e-21)
(0.68701 -0.0241196 -1.90729e-21)
(1.01455 0.0091427 8.77172e-22)
(1.02135 0.0047184 -2.38888e-22)
(0.682876 0.104057 0)
(-0.133053 -0.0202069 1.25584e-20)
(1.16073 0.0507197 3.45535e-20)
(1.00931 0.00479884 0)
(-0.0258617 0.0275094 0)
(-0.0519893 0.0217511 -2.06598e-20)
(-0.0888469 -0.0139539 -3.78943e-20)
(1.17936 0.0799113 4.37031e-20)
(-0.123932 0.00495457 3.77185e-20)
(1.0475 0.0010238 0)
(1.02684 0.00230686 3.17972e-22)
(1.02436 0.0330284 7.90048e-22)
(0.996144 0.000105123 -1.91565e-22)
(1.00881 0.00125236 3.37063e-21)
(-0.0549199 -0.0183071 5.50813e-20)
(1.07213 0.0774148 2.01e-20)
(0.617897 0.0389103 -3.08275e-21)
(1.01176 0.00108466 0)
(1.05116 0.0875076 -6.61069e-21)
(1.01282 0.00522881 8.8792e-22)
(1.0879 0.0703083 1.48342e-20)
(-0.0495143 0.0233793 -5.54402e-20)
(-0.0750411 -0.0503324 4.9721e-20)
(1.01369 0.00395522 3.98104e-21)
(1.07947 0.0135496 -4.67037e-20)
(1.09852 0.0951591 4.01907e-20)
(1.01799 0.00424103 0)
(1.00599 0.00289772 9.29704e-22)
(1.01135 0.00114179 0)
(-0.0287507 0.0299129 -2.551e-20)
(0.919824 0.0764415 0)
(1.04326 0.0565356 -3.43779e-21)
(1.00897 0.00370862 0)
(1.05855 0.0502525 2.56831e-20)
(1.00902 0.00432965 0)
(-0.0312063 0.0251792 2.43821e-20)
(1.06085 0.0421984 0)
(1.02353 0.00502948 4.97392e-21)
(-0.143279 0.00259372 1.96057e-20)
(1.08838 0.0664553 1.48454e-20)
(1.10337 0.103112 2.51608e-20)
(1.0491 0.0326272 -7.52333e-21)
(0.37289 0.0547542 4.04447e-20)
(0.850726 0.0169291 0)
(1.07874 0.0157911 -3.39913e-20)
(1.04151 0.00145676 0)
(-0.0275757 0.0129203 3.74011e-20)
(0.990386 -0.00217372 -1.0346e-21)
(1.04815 0.00174236 7.17993e-21)
(-0.102481 0.00412985 0)
(-0.100697 -0.0419074 5.24728e-20)
(0.827099 0.095834 -1.00575e-19)
(0.217108 0.0692256 2.84241e-20)
(0.447278 0.0933368 3.67238e-20)
(-0.0685947 -0.0383196 0)
(1.02465 0.00407436 2.25812e-22)
(1.17459 0.0923198 -7.80519e-20)
(0.99475 -2.72073e-06 0)
(0.997721 0.000203924 1.84769e-21)
(-0.0371701 0.0300078 6.5071e-20)
(1.01115 0.00565447 3.31727e-22)
(0.349824 0.0353263 -1.73852e-21)
(1.01843 0.00176092 0)
(-0.0232203 0.0103459 -4.84312e-20)
(-0.103029 0.0117452 0)
(1.09825 0.0395202 -1.61057e-20)
(0.129352 0.0619675 0)
(-0.132235 -0.0153172 -7.7217e-21)
(0.759765 0.038266 3.21301e-23)
(1.08082 0.0291475 -1.9739e-20)
(1.0073 0.00130544 6.33924e-22)
(1.00329 0.00176095 3.45456e-23)
(1.10128 0.102879 0)
(-0.176342 -0.00548421 -6.38172e-20)
(1.01306 0.00228499 0)
(0.802849 0.0755756 -5.4135e-20)
(1.11048 0.0475937 4.71678e-20)
(-0.0177673 0.0142973 2.85508e-20)
(1.18495 0.040072 -5.13293e-20)
(1.02549 -0.00129492 0)
(0.96383 0.00957318 0)
(1.00995 0.0056156 2.55018e-21)
(0.961175 -0.00268737 1.97777e-21)
(1.05228 0.058939 0)
(1.00462 0.00111069 -9.01843e-22)
(1.01421 0.00892381 2.72233e-21)
(0.529032 0.100914 3.39986e-20)
(1.16614 0.0447763 7.23714e-20)
(1.06565 0.00739353 2.49753e-20)
(0.601443 0.0827281 -3.73016e-20)
(1.03201 0.00144738 -8.83609e-21)
(0.88001 0.0338523 1.23796e-22)
(1.04781 0.00812025 -1.36202e-20)
(0.830897 0.0372965 1.45269e-21)
(-0.0188355 0.0325638 -2.04714e-20)
(-0.0430508 0.0248619 -2.19206e-20)
(1.00548 0.000839741 -5.07515e-21)
(1.0092 0.00108533 -2.67541e-22)
(1.14411 0.0502705 0)
(1.02842 0.0190881 -8.59171e-21)
(-0.0216677 0.0310693 -2.48455e-20)
(0.0158589 -0.00642962 1.74753e-20)
(0.994706 3.69863e-06 0)
(1.02405 0.0327499 2.01937e-22)
(1.18626 0.0470129 0)
(-0.0657027 -0.0107056 -2.33336e-20)
(1.13689 0.108362 3.36698e-20)
(1.03118 0.0181819 0)