/*--------------------------------*- C++ -*----------------------------------*\
| =========                 |                                                 |
| \\      /  F ield         | OpenFOAM: The Open Source CFD Toolbox           |
|  \\    /   O peration     | Version:  v2012                                 |
|   \\  /    A nd           | Website:  www.openfoam.com                      |
|    \\/     M anipulation  |                                                 |
\*---------------------------------------------------------------------------*/
FoamFile
{
    version     2.0;
    format      ascii;
    class       volScalarField;
    location    "250";
    object      ddt0(omega);
}
// * * * * * * * * * * * * * * * * * * * * * * * * * * * * * * * * * * * * * //

dimensions      [0 0 -2 0 0 0 0];


internalField   nonuniform List<scalar> 
13726
(
-4.15476e-08
-9.5367e-05
0.0788614
0.0790648
1.23948e-08
0.0657942
-0.206741
0.000189186
0.000178787
-0.115184
-1.77419
-0.000559866
0.0954075
-0.00199955
-0.0220839
9.54537e-05
0.00466524
0.17537
-0.273077
8.27724e-06
0.00473868
1.19117e-05
-8.02177e-07
0.0999733
0.015343
-0.0232515
-2.47722e-05
-4.24157e-05
0.00105029
0.00176909
0.000503629
0.000125181
0.0342092
0.000467033
0.000725252
0.044388
-5.77616e-08
-8.70241e-07
0.000457375
0.215805
0.00112895
0.000410688
-0.00138983
6.83509e-09
0.000346139
-1.35428e-06
-0.000130261
-0.0572686
-0.000212359
-0.000226837
0.0124473
-0.0373822
0.000832127
3.99325e-08
-0.000812019
-5.01758e-06
9.58481e-07
-8.59427e-06
3.48617e-06
5.07277e-06
-6.36034e-08
-7.03119e-06
0.000618415
0.0639367
0.00035684
-2.498e-06
-1.73878e-10
-0.000128917
-9.17067e-05
-0.000751706
5.75243e-08
0.070086
0.000402845
-0.0231549
-0.000551913
-0.000129756
-3.82839e-06
-0.0465721
-0.061042
0.153435
-0.0852951
-0.000802786
-0.00016069
5.90904e-07
-0.000469754
-0.905329
-0.0011592
-0.113063
0.318221
-0.000134929
0.000217241
5.55085e-06
-1.40522e-06
9.61677e-06
-1.0147e-08
-0.0905396
-8.05723e-06
-0.000486289
-0.24054
2.68341
3.68342e-05
-0.00584515
-9.7735e-05
8.23366e-06
0.00054249
-0.000159746
0.0443646
8.79312e-06
-3.0939e-08
0.000184361
7.7817e-08
0.000214852
-2.67999e-08
0.000257721
-1.67471e-05
0.014583
-1.14982e-10
-0.00364011
9.8185e-05
-4.58411
0.000499581
1.79
0.00523825
-0.000386779
2.09071e-08
-2.27177e-07
2.05206e-05
0.062489
-0.000192351
-0.0467258
-4.98462e-08
0.105486
-4.67439e-08
0.000166461
-0.000947712
9.915e-09
-0.125137
8.85743e-05
5.65972e-07
-3.06325e-05
-0.000103917
4.80138e-08
0.159782
1.73927e-06
0.2808
-1.26913e-05
0.00923947
-0.000313893
-0.010994
7.15237e-05
-0.0335747
-4.52106e-08
0.00171345
0.428936
2.05275e-08
-0.00176944
-0.000287977
9.2264e-06
-0.00537474
-0.0164171
7.84476e-05
0.000565105
-0.475361
-0.0281815
0.000234118
2.76836e-05
3.66014e-07
2.49646e-07
0.0011284
1.75294e-07
-3.64339e-07
-0.00164392
8.07044e-05
-0.000979891
-0.000579995
0.000434872
0.178482
2.30289
6.37029e-05
0.00197362
-0.00123821
-0.0208942
0.00779775
0.00535597
0.00886858
3.68576e-05
0.0116953
-0.000639509
0.0214307
5.71164e-06
-0.00112199
1.83406e-05
7.6433e-07
-2.33695e-06
-0.0453734
-0.000611004
8.12196e-05
-0.0154918
-2.83448e-05
0.000171289
-0.00068103
-3.86338e-08
-2.27707e-06
-0.000199926
-1.4054e-06
0.00125685
-0.063112
6.6185
-4.61619e-07
-0.096155
1.48861e-06
0.0748879
-4.96366e-06
1.16302e-05
7.97526e-08
-0.671978
-0.000285885
-7.25581e-05
0.656865
-0.885907
-1.17518e-05
-8.93427e-07
-0.0194011
-0.000526692
0.015772
0.00039203
-2.95795e-05
-0.0156755
-5.21721e-07
-0.0157221
0.0155638
0.383074
0.122473
0.0218115
0.0031419
-8.40984
-3.81004e-11
-0.00070557
5.4467e-06
-0.00415588
6.08279e-08
-0.00025168
5.75415e-09
-0.0447109
-0.0503246
0.0122402
0.000730309
3.10892e-06
0.00839324
-0.000108977
0.0381876
-0.0112691
1.85045e-07
-0.000359905
-5.7869e-07
3.91369
5.83676e-08
-0.00062594
-0.00140851
-1.41155e-06
0.0648494
-5.43737e-07
8.53745e-07
-3.12155e-05
1.14187e-07
0.017592
8.41575e-05
-2.3056e-05
-0.0133466
-0.0788521
-0.00335133
4.06576e-09
-0.0838687
-0.145653
0.00601587
3.46454e-05
-0.00143181
0.000113619
0.0056956
0.00342766
-3.32873e-06
-2.83941e-05
-0.00103544
-0.0344313
0.048731
0.0239867
-0.00263167
7.16068e-05
0.28278
0.0606593
0.00140605
0.00120591
0.213715
8.2459e-06
0.000922985
0.0457294
-1.9017e-10
1.65508
2.99981e-05
-0.0447497
0.000280194
0.00463376
0.000333448
0.0723168
-0.00508561
-0.000977809
-1.58698e-08
2.85329e-07
0.00103549
-6.59742e-06
0.0144923
0.000951043
-0.0194828
-0.000709404
0.00617774
0.023176
8.24203e-05
-0.40292
-7.78646e-09
-0.0638988
2.6693e-06
0.00181435
0.00713435
0.000491644
8.59885e-07
-9.55341e-05
0.0860592
0.0244157
0.00932202
2.80436e-07
-6.77654e-06
-4.69353e-05
0.0613496
-7.95827e-07
5.69195e-05
-0.00430091
-3.21697e-05
-0.00034767
-0.00316919
-1.51182
-3.78497e-05
2.83957e-06
0.209061
-0.282081
-0.000221401
-1.67307
1.13742e-06
0.0153097
-8.39549e-05
3.85616e-06
1.69605e-05
0.00296054
-0.000663474
1.58366e-07
-3.87266e-06
0.000962606
0.0297629
0.670378
0.021312
3.54731e-06
0.000835113
-0.00128424
-3.32195
-0.579833
-1.59118e-07
-1.26268e-06
0.591083
-0.00113453
0.00157113
-1.65834
3.20725e-06
0.00609374
-6.94185e-05
0.00101313
-9.0699e-05
-0.04908
-3.1361e-06
10.3044
0.00681522
0.0250646
-0.0119724
-0.00362055
0.000404019
2.43715e-06
-0.0589397
-0.000932322
0.158875
-0.0153018
-0.000325437
-2.62946e-08
-1.22903e-05
-6.22948e-07
0.00887771
-0.000552868
0.000641159
0.00131687
0.0744947
-0.972686
-0.000200031
-1.75259e-05
-0.124175
-7.80222e-06
0.000533338
0.000607196
0.000186864
-4.23247
0.0342823
-0.00898783
-0.00114421
0.0015018
-0.0781295
8.44825e-06
0.0235667
-0.00012637
-0.0397509
3.66455e-07
0.824541
6.60715e-08
-0.000262696
-1.89317e-06
9.81962e-07
0.000403774
-5.81087e-06
-9.4223e-08
-0.00152181
-7.23074e-05
0.000997712
0.00118552
0.00543613
-7.21575e-07
-0.00568874
-7.74447e-06
-0.000909017
-5.6272e-08
-0.139575
-1.16159e-08
5.51921e-06
-1.31404e-07
-0.000891761
0.0255646
-6.40406e-06
0.000542642
-4.30049e-06
-0.293949
-0.000189932
-4.88147e-05
0.0119033
-0.0084554
0.000424224
-0.100416
-5.16931e-05
1.19414
-8.62057
-4.267e-07
0.0375701
-0.0550561
-0.000247454
0.000397108
0.000225221
0.000548428
-3.68486e-06
-4.60811e-08
9.95436
0.000946174
-0.00195791
-0.351222
-1.70198e-08
-0.287541
3.57302e-07
0.0250641
2.18873e-07
7.04948e-07
-0.0933197
-0.0556875
0.00533989
-0.0220847
0.0122014
0.000599938
0.00046751
-0.00164004
7.30138e-06
-3.78911e-07
-0.00100101
-0.00569245
-0.000141253
-0.000442103
-5.54514e-06
-0.583893
0.0971152
0.39572
-0.0122227
-6.55284e-08
-0.00198292
0.0450441
-0.00370573
-0.00103804
8.30544e-05
2.03951e-07
-2.05285e-07
0.0002266
1.65823
0.0126843
0.000517864
0.000122859
-2.70151e-06
-0.00956411
-1.04853e-05
2.683e-05
-0.000550956
-0.0784098
-6.91198e-06
0.000122332
7.71305e-08
1.99158e-08
8.61363e-07
0.000965475
3.18245e-08
-2.23958e-06
-0.000573439
-3.74777e-06
0.000367487
8.19354e-06
-0.099929
3.44599e-07
-2.23127e-07
0.162722
1.43741e-06
-0.00282656
0.039124
-0.000471337
-0.813376
-2.82458e-07
-3.88559e-05
0.295802
0.0164052
0.0228165
-0.0102214
-4.81833e-08
-0.000380719
5.59713e-08
-5.59818e-07
-1.63191
0.054035
-0.000562995
1.67398e-08
-8.43631e-07
-1.87998e-07
0.000159904
0.000129714
0.251926
2.32875e-05
1.80257
-0.00063234
0.000711112
7.24139e-05
0.000462978
0.00071371
-0.049823
3.15487e-07
-9.62939e-06
3.70013e-05
0.0325378
-0.000289333
0.0573691
0.00239479
-0.03793
-0.000191847
3.75487e-05
0.338856
0.00366002
0.000519109
0.149046
2.70151e-05
0.000468766
0.000502578
-0.0392726
-0.127597
-2.75783e-06
-1.1382e-05
-5.32488e-08
1.45656e-07
-4.05653e-06
0.0183602
9.85486e-05
-5.38377e-06
1.20905e-06
1.15212e-11
9.72127e-05
-7.38806
-0.0319771
0.373335
0.002358
-0.00115457
0.0703506
0.000313416
-0.00292865
0.000166943
0.000225192
0.0149903
8.53539e-08
0.104407
-2.10378e-10
-7.46628e-05
2.82162e-05
-0.0728417
0.318386
-0.00169876
-2.98324e-06
0.724816
9.54713e-11
0.000101769
0.000118782
2.51462e-08
-7.71393e-07
1.9192e-08
-5.01655e-05
3.75378e-09
-0.000700692
-0.0245276
-2.01578e-07
2.86173e-07
-0.00045144
9.46261e-07
0.0276639
0.0741441
0.107633
0.000446972
3.0356e-09
-5.00657e-05
0.000362414
-0.00108674
0.000897872
0.0146446
-4.40839e-07
7.88772e-05
-0.125328
8.4297e-05
-3.65272e-07
7.96971e-06
-0.0612987
1.21056e-09
4.92867e-05
-1.61721e-08
-2.00137e-06
3.28237e-07
0.02105
1.50527e-06
0.00672018
0.536948
-7.81834e-08
-3.06344e-07
2.20991e-06
0.25882
0.000153323
0.0464069
0.0370306
-4.78074e-09
-1.70106
-0.0603883
-0.00123935
0.00024176
1.51004e-05
0.000457521
3.09981e-08
-3.53356e-07
0.0216801
0.0484192
-0.00103473
0.0162682
-1.29123e-05
0.319128
-1.73631e-07
-0.00754046
-0.00173453
0.324737
-6.54295e-07
-7.97952e-05
0.000126162
-1.28463e-06
1.10725
0.000246381
-0.000259989
-0.000260304
-0.163501
0.223574
-2.73689e-07
-0.0924696
0.0282045
-0.0439908
0.000228329
0.00988111
4.63858e-06
-0.0866726
-1.33724e-06
0.000763462
-3.26289e-08
-7.81902e-09
0.00853138
-2.18503e-05
0.000142862
-11.3229
0.0614472
-2.40538e-07
-0.000175
0.00662651
8.37538e-05
-0.00028577
0.016079
4.52908e-06
1.80497e-05
0.0238634
3.24618e-07
-1.99649e-08
-0.000400232
-0.0391127
-3.60766e-09
0.538326
-2.91499e-08
5.66966e-06
0.000614243
2.46379e-06
-1.40175
-2.65264
-2.16243e-05
-1.07795e-05
-2.16893e-07
-0.000103434
-1.72633e-06
-6.26424e-06
5.14155e-06
-0.0572296
-9.5024e-05
-5.62381e-05
0.000153244
-0.0799688
1.41054
-9.64092e-06
-0.000210488
-0.0077178
0.00137103
0.0369276
0.000561068
-5.06237e-05
-0.000145278
-0.0387696
-0.421014
-0.0700795
0.00587316
2.76288e-08
0.000152038
-1.69856e-05
-2.76059e-11
-2.85234e-05
-6.47229e-06
1.21128e-07
0.0262753
-0.000229912
-3.67694e-11
-5.0885e-06
-5.51243e-08
6.82415e-05
-4.09105e-05
0.169683
-6.85002e-06
-0.000143703
3.87274e-05
8.17923e-09
-2.7e-06
-0.185334
-8.10727e-07
0.802024
6.32706e-05
-1.37713e-06
1.09902e-07
3.64926e-06
-1.42918e-05
0.00011962
0.0568054
0.000204694
0.134412
0.000261884
-0.00453345
-3.09964e-05
5.09984e-06
-4.00344
-0.00527333
-6.72751e-05
-1.19354e-06
0.000287455
-3.94891
-0.00221163
-2.48582e-07
5.46378e-05
0.0355117
0.00189729
0.0177252
-0.00255802
1.54468
5.14305e-05
1.40853e-08
6.06322e-05
-0.914504
-4.06096e-07
2.69624e-08
0.0213143
0.00426814
4.56397e-09
-0.107681
1.47123e-09
-1.18488e-08
0.00405846
0.0538607
7.26101e-05
0.016654
-6.72892e-05
1.84752e-05
1.07745e-05
0.000264192
2.64242e-06
-4.41587e-08
3.8061e-08
-8.19296e-07
0.849402
-2.83243e-09
3.92114e-06
-0.00602739
-0.226699
-0.00374618
-2.17877e-05
-0.11145
-3.72874e-06
-0.000801604
-4.18597e-07
-7.58879e-06
1.62382e-07
-1.18404e-11
-1.11272e-09
0.00477062
2.56305e-06
5.77823e-09
-0.0010134
0.0275527
0.00786239
0.0371155
-0.00027241
-3.41778e-06
1.9474e-05
0.590854
-0.00429875
-4.40512e-07
-0.00107716
-1.26021
0.00165876
0.0248462
-0.135525
0.000746184
-3.08904e-05
2.94544e-06
-1.91209
0.0192458
-3.09235e-05
-3.3767e-07
-1.14713e-06
0.0231141
2.75503e-05
-8.27236e-06
-7.9955e-08
0.502702
0.000550315
-0.00164543
-6.34449e-07
-9.13884e-05
0.0173275
-6.8886e-07
-0.523383
-1.59758e-05
7.4482e-06
0.000152072
-1.52091e-05
3.4587e-08
0.000247138
-2.3339e-05
1.33556e-05
0.0389997
-0.0051105
-1.30409e-05
-0.000241443
1.85446e-05
2.46145e-05
0.285766
0.00427226
-0.00744685
1.05073e-06
3.51203e-06
2.20264e-06
-6.17596e-08
-3.51152e-08
-6.43656e-06
0.000240707
1.56765e-05
0.00631691
-0.0659912
-1.6115e-07
-0.000576556
-5.15717e-05
3.09366e-05
-0.000114545
-0.000352471
-1.01924e-06
0.00998113
1.12023e-07
3.73591e-11
-1.53771e-05
0.00176925
2.84964e-06
-0.00409355
-0.00579038
1.28489e-07
0.000285316
8.62141e-06
3.02093e-05
-1.78191e-06
-0.0685345
-7.40864e-07
-0.441393
-6.57611e-09
1.85551e-08
0.000682586
2.81104e-09
6.55781e-08
6.04065e-07
-3.32855e-08
-0.0128364
0.000480241
-3.83659e-05
-2.73162e-11
-0.000321859
4.04017e-07
-0.000420366
-0.160077
-2.49255e-10
-0.000241414
-8.23228e-06
-6.28881
-2.54759e-06
-0.100698
0.0487052
-2.60256e-05
0.00011731
0.000270028
-0.000281018
-1.05282e-07
-3.0455e-06
0.000701815
-3.90405e-05
0.000167613
5.9417e-07
1.41549e-06
-2.38191e-05
0.000612749
3.00454e-07
4.99071e-09
0.00148105
-0.00237927
4.23007e-07
4.78905e-05
0.391012
-1.52021e-07
-1.41893e-05
3.39398e-07
-7.4236e-05
-0.000667484
-0.0512162
4.35792e-10
-0.00304905
-6.65142e-09
0.140196
1.82154
2.18674e-06
0.00949583
-3.32061e-07
-5.94954e-06
0.0238951
1.50158e-05
1.25242e-07
0.00118645
-1.06799e-09
0.000116734
0.00298802
1.61202e-05
0.00119869
-1.97698e-08
-0.000440674
0.0892401
-0.012078
7.14143e-06
-2.87119e-06
7.17601e-07
-1.00355e-05
0.00025105
0.0104581
0.00293237
-0.950347
-2.82973e-07
-0.769686
0.000455582
0.0246705
0.347084
-0.00107858
3.11261e-06
3.1971e-05
-2.91135e-05
6.96465
-0.000119371
-0.00112022
-0.0102427
-0.000120323
-7.84396e-08
0.00146386
0.103238
0.413784
10.9144
2.6934e-07
-1.85515e-07
-2.05145
-0.0939168
-4.53095e-06
-0.155251
0.000121652
-0.585968
6.94528e-05
0.0910486
-2.20179e-07
-0.00971166
-7.86648e-05
0.00202983
-0.130772
1.22228e-07
0.104076
2.4119e-06
0.000193806
0.117491
0.0507844
-0.00174926
4.57489e-09
-0.0027779
4.19967e-06
-0.0940007
-0.000218443
0.00108882
2.52451e-06
7.79249e-05
-0.000110241
-3.27843e-06
-1.08765e-05
1.07843
3.36819e-09
0.0380563
-4.98706e-10
0.00114342
-0.00148204
-0.000898082
0.000202646
0.0411909
-7.89293e-05
0.0256214
-5.76607e-05
0.000270738
0.882283
-0.175108
-0.0425564
-0.0001853
0.000679012
1.04593
-1.8043
1.41306e-07
-0.000532689
-0.0375616
-3.37359
-0.00805984
-5.8965e-06
-0.0683038
-0.365983
-7.46465e-07
-2.74436e-06
-1.05141e-06
-5.29042e-05
3.33652e-06
4.96791e-06
1.64522e-05
-0.00033409
0.80047
-6.07279e-05
0.0226948
-0.0156241
4.91142e-05
-0.000168778
-9.02685e-10
-0.0319184
0.00121244
-0.00166468
4.8653e-06
0.000251726
3.9753e-09
-7.61947e-08
0.000291488
0.00131243
0.00108045
-0.0240998
0.0436306
-0.000124413
1.22228e-06
-0.000462277
-0.0135076
-0.000370949
0.000189944
-2.63953e-08
-1.12754
7.48073e-06
-0.000396208
1.30419e-05
0.0282174
-1.2115e-07
0.000885011
0.000421012
-0.00104578
0.000223017
1.50137e-07
-3.00762e-06
-0.00145443
0.0314922
0.000696785
-3.99595e-09
-0.000235415
-0.190328
-2.7438e-06
-3.56776e-08
1.25439e-07
0.0337941
3.36101e-07
-0.050952
-2.48684e-06
3.41797e-07
0.650833
-0.36765
-0.0186308
-0.0356869
5.34113e-08
-7.47655e-07
-1.87646e-11
2.59481e-08
1.13509e-06
-0.000232419
-0.01781
-0.000266366
-1.76927e-06
-1.76037e-08
0.0787769
-0.0335258
0.000284047
0.0920187
1.33083e-05
-1.11057e-06
-6.21443e-07
0.00182616
-0.000446897
0.00876954
0.0680487
1.29252e-06
0.000156186
-0.567353
-1.10287e-05
0.0101415
0.00308016
-0.000433445
2.52532e-06
1.13068e-07
-3.62024e-08
-0.0711002
1.11141e-05
-2.84021e-05
-0.69105
0.00233539
0.088554
0.300653
-5.91358e-08
0.00454127
1.59623
-0.326795
4.21837e-06
2.52459e-07
0.196759
-0.0419622
2.00543e-06
-9.03029e-08
1.15154e-07
3.00719e-06
3.15743e-06
0.00335746
-2.95801e-08
-3.49642e-07
-0.0638969
-0.000385391
-0.00810511
-1.14439e-05
1.61799e-11
-0.104955
0.000178887
0.649608
0.0177711
0.0712757
0.150875
0.000231858
0.00369336
-1.78382e-09
3.27131e-07
3.75429e-09
0.0699782
0.000388609
-1.26645e-07
0.000511977
-2.52499e-08
-2.08081e-05
0.0189027
-3.10623e-07
0.000975108
-0.102816
-0.000283029
0.00245123
-2.93276e-05
-0.00540426
0.00049223
-6.46967e-06
0.0412783
-0.0872492
-1.43677e-08
-0.000100184
0.0252098
0.000570913
-4.12235e-08
9.58813e-07
-7.37247e-08
1.31536e-08
-0.000333756
1.44881e-07
0.398357
-2.45115e-05
5.83434e-05
0.371726
0.00057469
-2.49146e-07
-2.22155e-05
-1.52455e-07
-0.0208489
-1.53631e-09
-1.98259e-08
0.00197338
0.000197207
-3.30122e-07
0.0263202
0.000940072
0.0294849
0.0567677
-0.0503238
0.0886752
2.70068e-07
-0.0427691
1.05549e-07
1.63263e-08
-2.95794e-05
7.62754e-08
0.00633909
0.000979743
-7.27898e-07
0.000189823
0.0277149
-8.13142e-08
0.0313781
-0.000164302
0.000794819
-0.000502903
0.000171453
2.81523e-06
-0.000643299
0.00176251
-9.09455e-05
0.0127855
-0.0634002
-0.0129095
-0.0591901
-0.000634541
-0.326509
-0.00434885
-4.68326e-06
-0.00129583
0.000287165
8.49089e-08
3.31
-7.5838
0.0113043
1.871e-06
2.10988e-06
0.754989
0.3808
-0.00137504
8.78591e-05
-0.000120196
0.00198001
-0.00398285
2.16207e-06
2.20075e-07
0.041902
-0.00229902
-0.0141792
-3.97817e-06
-2.43353e-07
0.00521241
-0.000210134
0.558587
0.00023382
0.000262532
3.7415e-05
-0.000261113
7.4922e-06
1.1348
6.39857e-05
-0.000308081
1.046e-07
-1.17152e-06
0.00170774
0.000293894
-3.62506e-07
-2.30398
-0.102744
6.76665e-05
0.00257667
-9.41991e-05
0.00219532
-0.000256868
0.0425622
0.000136055
-2.64188e-05
-0.032708
-0.19327
-0.00236223
-4.39577e-07
0.000492233
-0.0205413
0.00107655
-0.0285234
2.51116e-06
-0.0170475
0.000791236
0.275181
0.0844069
1.47975
-0.000634274
7.5303
-0.000236315
-0.0739974
3.10214e-09
-8.64994e-06
-0.0779417
-0.0659897
7.79702e-08
2.17716e-05
-0.0328536
0.000595342
-0.0149301
-0.00135993
-4.15438e-06
0.0904372
0.000398169
-0.0269247
-0.153123
-0.000455625
-0.584053
-0.000157229
-8.49991e-05
1.76105e-05
-0.00033397
-0.373873
-2.57181e-05
3.94794e-07
-0.0464652
-0.118433
0.454913
1.12996e-07
0.0174909
-0.000868077
0.00010841
9.07271e-06
0.000105868
-0.00392347
-0.503507
-1.19738e-06
1.16125
-0.357645
6.06736e-06
-0.000341651
-1.18878e-06
-0.0312564
0.00077488
-0.00704739
0.00255883
0.0096834
3.46909e-05
-0.000531834
-2.10437e-11
0.00081848
6.28091e-05
-0.000648383
-0.00127779
0.000223347
-0.0535157
-0.00634149
-3.37256e-06
5.3733e-05
-0.0806941
4.16934e-08
-0.0726162
-1.12555e-06
0.00178382
-0.99678
-0.00323891
0.296193
-0.0418886
3.74169e-07
-0.000420358
0.050366
2.05592e-06
0.342583
0.0007449
-7.34153e-05
0.000169727
0.000148419
0.00677773
-0.73643
4.68614e-08
-1.4823e-07
0.000337823
0.0488317
-9.3566e-10
-0.000796502
-0.0433026
-7.19343e-11
-0.0361314
0.072784
0.0260142
-0.000266976
0.0149391
0.000197816
-0.000348814
0.0145494
-9.30564e-05
0.00297467
-0.00127808
-0.0296387
-0.0239489
-1.05754e-06
-0.469693
3.54666e-07
-0.0678323
0.0203744
0.0162498
-0.000112415
-0.00844803
0.000365096
-0.0308276
-0.421683
-0.000208393
7.81154e-08
0.047425
0.00104048
0.0391363
-0.0225405
0.000111246
-0.00082414
0.0564026
-8.42487
-2.23369e-06
-0.0137815
3.03412e-06
0.0007955
-7.98888e-06
-1.75441e-05
-0.0916938
-1.35528e-07
0.00528382
0.00120995
0.000764709
0.00833594
-6.24458e-08
9.01493e-06
-3.0037e-05
0.0191858
0.435012
-4.73561e-05
-1.449e-05
-1.18648e-05
4.31163e-05
-0.000259057
-0.000598487
-1.76369e-05
2.56328
-0.00214094
2.69699e-09
0.000176122
-0.0302985
-3.59294e-06
-1.02105e-06
1.74031e-05
3.08277e-05
0.000178314
1.21199e-05
6.78773e-05
0.00479316
0.643061
5.35391e-06
0.00682787
-1.38105e-05
-0.00290116
1.65104
-0.0791935
0.00790924
-2.03273e-08
-1.59854e-08
-0.0193388
3.7649e-08
2.66329e-05
0.262135
0.500175
-2.61772e-07
-0.0413813
-0.0129342
0.00109408
0.00888086
0.816582
-5.07876e-08
-0.0362747
8.37784e-05
-5.51305e-05
1.17762e-07
-8.92661e-08
0.0882503
-0.0375066
-5.00891e-08
-0.00537966
-0.00226184
-3.06084e-06
-0.0228797
0.148491
-0.488052
-0.000507756
4.02357e-06
3.1749e-08
-0.000272613
4.90293e-07
-2.98532e-05
-0.0179148
-5.11897e-06
-1.4712e-05
-0.00409199
0.306881
-0.00382004
-9.25698e-05
0.0053326
0.000644547
6.64554
-4.37498e-05
-0.000191445
-0.0232707
0.0777948
-0.00578022
-1.97438
-0.646453
-0.0105982
-1.44938
-0.0004734
-8.15394
0.00106623
1.57259e-06
-0.0282389
-5.24871e-05
0.000636407
-0.23079
0.0173979
-2.50889
1.50116e-08
0.010645
0.0461264
-3.3235e-05
-0.479656
0.00725556
-0.292234
-0.0491819
0.0203289
0.0160419
-5.91967e-06
0.0472708
-0.0631457
0.148776
-0.00398185
0.00116638
-7.84279e-07
-1.75616e-06
0.0159539
-0.0268563
-0.311631
-4.07029e-06
-0.00143385
-0.000182838
3.0695e-05
0.0142472
0.000290801
-0.255603
0.0388859
0.000201855
0.00883598
-0.0500515
0.077047
0.741296
-8.48492e-05
3.2274e-08
-0.0735887
-8.64389e-06
-0.000350215
3.74578e-09
7.6828e-07
-7.67291e-05
-0.0495741
-0.456385
-0.000926568
0.0178877
-0.0008677
8.65422e-06
0.0165662
-2.18539e-08
-6.04538e-07
-0.000770134
-0.00131396
-0.0168807
1.05252e-07
-4.28258e-07
-0.00515847
-1.51602e-06
-0.000449846
0.0390459
0.00029005
-0.0114061
0.0439237
-1.44752e-11
-0.0837683
-0.000695778
1.90331e-10
-0.0193162
0.771247
-0.000348693
-6.54786e-06
0.108431
7.63311e-06
-0.0627244
-0.0299872
0.534728
0.000522624
1.00311e-05
-0.0150274
-7.47747e-05
2.50352e-08
0.0055022
5.41852e-07
0.003309
-0.000198229
-0.0170375
-6.45714e-06
-2.79516e-05
0.00127096
3.31998
0.00599377
0.015595
-2.1392e-06
1.92871e-07
-0.000734845
1.51547
0.799712
7.90087e-07
0.233104
0.0280857
0.0568509
-0.00795824
-4.01352e-06
-0.000281513
-0.0399385
-0.0773094
0.000212858
3.36694e-05
-0.000457092
-0.000602005
-0.00023718
0.00266864
4.9156e-06
-2.92813e-05
-2.05736e-11
0.0153522
-0.0292833
-0.0101142
0.067923
1.78041e-08
-0.0177196
-0.317714
0.000419801
1.00477e-08
-1.07843
-0.627258
0.148334
0.000445805
-2.76338e-05
-0.19417
-0.0662887
0.0346317
-1.02016e-05
-0.000787888
-0.000111382
-0.12878
0.673218
-0.227562
-2.74577e-05
-0.0110295
-2.515e-09
8.22282e-07
0.00696778
0.0051164
-3.97508e-05
0.0477671
0.000116984
-9.82519e-06
-0.0081011
0.825831
0.00155897
5.86727e-05
-0.00721891
0.000213665
0.0179454
8.25533e-07
6.5944e-09
0.0295273
0.0175924
0.243396
1.0197e-06
-0.000257818
-0.000465495
2.00846e-07
-2.88021e-07
2.57965
-0.138329
-0.0738933
0.0868368
3.87364e-07
-8.22883e-06
-7.18394e-08
4.61272e-05
0.2303
-0.0617341
8.66934e-07
-1.23498e-05
-0.00035738
0.000173255
-0.398173
-0.152899
-0.000556507
-3.30786e-06
0.00157062
0.0968363
0.246727
-0.0265978
0.341755
0.254321
0.000650954
-0.000115766
2.14722e-06
4.17585e-05
0.14414
-0.350604
-5.52917e-09
8.51351e-06
0.0136576
-0.0184563
-8.88806e-07
-0.170487
-0.421819
-0.830323
-5.86214e-08
-0.00124489
-0.11721
-0.262171
0.0214042
-0.0649396
-1.07017e-06
5.58321e-05
-0.000208163
-0.000145621
0.113377
3.22226e-05
0.0200387
-1.13335e-08
-0.00839662
-0.0293122
3.17863e-09
0.000247719
-0.0793272
-0.559688
0.852404
1.27691e-07
-0.0776268
-0.352707
0.26237
2.32296e-09
-7.06685
9.33584
0.0203771
0.000366754
-9.03382e-12
-1.41153e-05
0.00384426
2.57795e-06
0.00672746
-1.33943e-05
0.000266023
-0.016997
0.000354582
0.021901
-0.290376
0.0206403
-1.8366e-09
-0.0533278
-0.00135142
0.0902749
-0.00250264
2.55268e-07
-0.152658
-0.00034058
1.28836e-05
-0.00214736
0.0994929
2.89411e-06
1.06762e-06
0.000159472
-0.000204878
2.08009
0.0136874
-0.0336272
0.0717033
-0.141081
7.64845e-06
3.77608e-06
0.0325843
2.86713e-09
-6.59035
1.28651e-08
-6.72366e-08
9.33027e-05
0.00339396
0.00157025
0.0500836
-3.54208e-05
-0.0230313
-0.0150029
-3.50754e-07
0.000209359
-0.000108752
-0.545815
-0.0162238
-0.000331315
1.2184e-05
0.0148487
0.00230041
0.0198655
0.00048074
-3.26725e-05
0.00453535
0.0120671
0.000107943
-0.0310485
-4.46671e-08
0.00822352
-2.27025e-08
0.00113171
-0.000608644
-0.298487
-0.0466887
-0.279189
0.000112954
-0.000481836
-0.00115832
0.000497577
-0.0416573
0.00078339
-0.000324147
0.601892
0.137382
-0.000314299
0.0465593
0.0206923
0.253465
7.29808e-06
-0.000361703
-3.47504e-06
-8.123e-05
7.28928e-10
9.59191e-06
-1.00119e-08
0.0127033
0.0164547
-0.000249667
-1.16515
-2.81686e-10
-3.09804e-06
-0.0303587
-0.000889029
7.6317e-05
0.000420627
1.09366e-07
0.00433068
0.0168977
-0.0702045
3.90134e-06
-0.00119409
-0.000822612
-2.62288e-06
0.0260489
-0.102323
0.000901435
-0.048448
0.0104493
0.0144661
-1.94617e-06
-1.27286e-05
-1.40333e-05
5.55634e-05
7.07957e-07
0.00039522
1.8173e-06
0.0415446
0.0910531
-3.40866e-08
-0.00268874
-2.60285e-05
-0.00225489
-0.111849
0.000825819
0.0018912
0.0212371
1.10568e-05
3.15027e-05
-4.35121e-05
0.000136898
-3.26709e-09
6.55077e-10
0.000113424
-0.000325186
-0.107641
4.53487e-07
-0.304254
0.000124877
2.36665e-08
1.46264
0.000230021
-0.676426
-0.0107365
8.55573e-06
5.02058e-05
1.01548e-05
-0.0243554
0.000826324
-0.00162237
-0.00235761
9.46709e-06
-0.0165026
0.00900203
0.000688578
2.61491e-08
1.25863e-05
-0.261548
-0.000550321
5.45834e-08
-0.000846051
-0.000178406
-0.000120628
3.05491
0.000627847
-3.50786e-05
0.000251864
-3.74703e-07
-0.000516191
0.00053323
0.000200109
-1.48608
-0.00110742
0.0319406
-0.000539794
-1.93235e-05
4.65857e-05
0.000233253
-1.8578e-07
-0.000120294
-6.26659e-05
-1.9844
0.0494002
0.218239
0.000837797
-0.0875707
9.92376e-05
0.951653
-0.000327522
-0.000107186
0.000552192
-0.000578427
1.78106e-07
6.01912e-07
0.0014575
0.345604
-0.373785
1.52824e-07
-0.0160668
-0.170623
0.00104863
-3.12621e-05
-1.22064e-08
0.00281161
4.09322e-06
8.90098e-07
0.000241807
-1.50371
0.056922
0.000110446
-0.00121157
-0.366288
-0.0159429
-4.03517e-07
-0.0025303
-0.00345012
0.144889
3.16635e-06
0.000601318
7.06514e-10
-0.0446049
-0.000135508
-0.106594
-0.000472812
0.000284549
0.000482737
-0.00596406
0.222301
-0.00053698
-0.0439515
-16.0651
-0.0188352
-1.52388e-07
0.000261762
-0.946001
0.0118361
-0.115462
8.2048e-05
-1.36662e-08
0.0109509
-9.03976e-05
-3.17704e-05
0.0204175
0.00101471
2.00533e-07
-2.13189
-0.00768893
0.000294599
-0.00225435
8.70462e-05
-0.000977717
3.48157e-08
-0.000633851
-0.206274
-0.000273223
2.88278e-10
-0.000122135
-0.134647
-0.0529491
-0.000320963
0.00269462
0.0113495
-2.12111e-08
0.00128578
-0.000189441
0.00133676
2.43226e-07
0.000323071
-7.68482e-05
-0.967905
4.72188e-08
8.06884
-0.000655057
-0.489492
9.73555e-08
0.61127
0.0137383
1.05445e-05
7.99005e-05
0.00512885
0.0246298
0.131632
0.000920754
-5.10461e-07
-3.10374e-07
0.0178889
-0.00842348
7.3454
-2.27304e-06
-7.41492e-08
-0.00102237
-3.26245e-07
-0.00759291
-3.06312e-06
-0.000384698
-2.9405e-06
0.00343058
-0.0099972
0.000104653
2.9968e-06
-0.000634151
-3.65157e-05
-2.29662
1.62213e-06
-0.00302589
1.05965e-05
0.00113326
-0.000661028
1.28825e-06
-8.217e-05
1.96942e-07
0.0096852
0.139338
9.62417e-05
4.74575e-05
0.00164555
0.00162353
0.000186834
-8.24028e-06
0.0133291
-1.54327e-06
-0.95947
-0.000188172
0.000215718
0.135238
4.86755e-05
2.05369e-05
8.02744e-05
-5.69991e-05
-0.00139601
-0.326505
0.00126698
-0.094882
0.000315161
2.83738e-08
0.0900956
8.91197e-05
-2.19429e-05
1.99832e-07
-2.27792e-05
7.55995e-05
0.00076473
-0.022468
8.91452e-08
0.0406501
-0.00111741
0.000755007
-2.20213e-06
3.05746e-07
-0.000719779
0.0646881
-6.81442e-08
0.44083
-0.0168711
0.000224735
-0.000331797
-0.00048566
-0.0375569
4.17104
-0.000969174
1.66043e-08
-0.000203401
9.04553e-07
-1.49214e-05
-0.000661991
-18.5088
0.0678703
-5.74291e-06
-0.0215415
-0.00105616
-1.71478e-06
-0.00100748
0.000472197
-0.00223528
3.64726e-06
-9.46191e-05
0.000185514
-1.91115e-06
0.000490672
-0.0110236
4.49767e-05
-1.67365e-05
-0.000197707
-3.38702e-05
-4.95798e-10
2.31704e-05
0.0011906
0.0107321
-0.000256431
0.0699533
-0.000698131
-0.00079825
1.15056e-06
-9.0245e-07
0.0166417
-8.68127e-08
-0.000114234
-4.33387e-05
-4.16087e-06
0.000680663
0.199471
-0.0325212
-0.00467934
-0.591378
0.000455446
6.96248
0.0446164
1.09619e-05
2.46482e-06
0.629305
-0.112369
9.86293e-09
0.00384044
-0.611165
0.196382
5.639
-1.89662
-0.00065997
-0.248075
-0.716426
-3.48968e-07
0.000930795
0.0122595
0.00306613
-0.00192001
6.18929e-06
1.49606e-07
-0.00837198
0.000949717
1.94521
-1.94276e-06
5.41839e-07
-0.013476
0.0632391
0.363089
0.308848
-0.40946
-2.9069e-08
-1.37351e-06
-4.82629e-06
0.0145211
-0.383835
0.000703661
-0.00119779
0.0250122
-7.84545e-06
0.798906
-0.00893964
1.25832e-05
-0.0137645
7.67447e-08
-0.0615656
0.0351398
0.00113304
-1.87282e-06
-0.00107829
-3.52526e-06
-1.83863e-06
-0.0729749
-4.36659e-05
6.48954e-06
1.09255e-05
-0.000325515
0.0202274
-3.9752e-05
0.130891
3.11721e-09
0.000617688
-3.34147
-1.4208e-05
0.645948
-0.0496348
0.0199209
-1.92201
-0.113123
0.00109914
-9.71004
-6.16335e-05
-0.000348973
-0.0567185
0.00988472
-2.98234
-1.07117
-0.211938
2.99104e-09
-1.45129e-07
0.274455
1.03514e-05
-0.0124884
-2.56822e-07
-0.050926
4.87509e-06
-1.22421e-09
-7.71308e-10
1.1714e-07
0.798766
0.06577
-0.0198401
3.64423e-05
0.103312
0.0432703
-14.8418
-0.00810782
7.77533
-0.925593
0.182284
1.9185
-0.0567617
0.471807
0.0151719
-0.0279128
-0.00488575
0.319574
-13.5869
-1.17047e-06
0.000439619
0.00999185
7.1597
-0.2568
7.44382e-07
-7.15167e-07
0.0109144
-0.00175697
1.42396e-06
-0.000170774
-0.0169768
-0.000353735
-4.84218e-06
0.000162899
0.000548443
0.000510944
-0.0747354
-0.220196
0.283982
0.0707892
-1.27157
-2.75792e-11
9.14884e-06
0.000277273
8.73053e-08
-0.0135591
5.5771e-05
0.000967571
0.338327
-0.000485899
0.018162
-0.00252321
0.00443399
1.97669e-06
-0.00521168
-2.66465e-06
0.392416
3.02177e-08
-2.93439e-05
7.64955e-05
1.64291e-07
0.00777024
2.31538e-09
-2.23977
-6.76276e-08
-5.24505e-05
-4.12889e-08
-0.0826743
0.00775115
0.000746742
-7.51766
-0.000107194
0.00172976
0.0070193
-0.56221
0.000169644
4.85182e-05
0.00788189
-0.000494819
0.811369
4.64351e-05
1.03264e-06
3.61761e-05
0.316717
0.000243939
-2.53044e-09
0.327811
7.58873e-05
-0.37565
0.626984
2.62614
-0.343701
-0.000159403
-1.17196e-07
0.000233534
1.59368e-05
-0.000219818
-1.77351e-05
-0.585061
4.58621e-06
-3.3729e-07
0.0139352
0.136087
-3.81281e-06
-0.0488927
0.039073
-4.25248e-05
2.62619
0.121583
0.000131225
-1.78739e-07
-1.80247
0.000239515
2.28669e-05
1.12425e-07
-0.998032
-3.03127e-06
-2.95673e-07
-0.00514434
6.87482e-06
0.000127001
-4.49478e-07
-1.04327
-0.0647092
0.000254586
-0.243539
0.00572126
4.07022e-05
0.0126507
5.28266e-06
0.0735255
0.00102203
0.00304938
-0.065554
-4.74586e-06
-4.19004e-06
2.25277
-0.0326591
-0.000505131
-0.965845
0.000386608
-4.99292
-9.03215e-08
8.82134e-10
0.000594171
0.000114196
-0.000767203
3.37111e-05
0.000769718
0.0113755
0.0248231
-0.491228
-3.14689e-06
-5.79202e-06
-7.36756e-09
-0.00178188
1.68818e-08
3.53913
3.08138
0.032125
-0.0221151
0.000592375
-0.102774
-1.94491e-07
-4.28318e-06
0.0503047
2.07428e-06
-0.00053677
-0.0356004
0.71999
0.218577
0.00251971
0.00640028
-0.0407885
0.027305
-0.124594
-0.00023105
9.22209e-06
-0.000259454
-22.5937
0.000659722
5.93462e-09
-0.000145235
-0.000365935
-4.59237e-06
-0.0455097
-0.00145639
-0.00133834
8.94419e-05
-0.00123439
0.856107
3.57846e-07
0.405665
-6.17517e-05
0.00717266
6.29667
-9.18394e-05
0.000121234
0.0270542
-1.42837
-1.22309e-05
-4.03689e-06
-0.643452
0.316063
2.46756e-06
0.00037201
-0.407891
5.56319e-05
-3.84108e-05
0.21338
0.0182909
-0.000454119
-0.0683833
-0.0134478
-0.437908
-0.00942938
-2.39495e-07
1.56969e-05
-0.00350521
-1.48905e-07
-0.146796
3.68741e-07
-2.8235e-05
2.16855
1.95758e-09
-5.60726e-06
-0.000418526
0.000124964
-0.032968
4.74143e-05