/*--------------------------------*- C++ -*----------------------------------*\
| =========                 |                                                 |
| \\      /  F ield         | OpenFOAM: The Open Source CFD Toolbox           |
|  \\    /   O peration     | Version:  v2012                                 |
|   \\  /    A nd           | Website:  www.openfoam.com                      |
|    \\/     M anipulation  |                                                 |
\*---------------------------------------------------------------------------*/
FoamFile
{
    version     2.0;
    format      ascii;
    class       surfaceScalarField;
    location    "250";
    object      phi_0;
}
// * * * * * * * * * * * * * * * * * * * * * * * * * * * * * * * * * * * * * //

dimensions      [0 3 -1 0 0 0 0];
oriented        oriented;


internalField   nonuniform List<scalar> 
20386
(
-0.510247
0.2979
0.212347
0.163858
-0.194347
0.0304888
0.0333538
-0.0069342
-0.0264196
-0.0339454
0.0335869
0.000358498
-0.562021
0.299295
0.262726
0.00792859
-0.00884048
0.0009119
-0.022586
-0.0702386
0.0928246
0.0871886
-0.123014
0.0358252
-0.0582048
-0.0732315
0.131436
-0.0203248
-0.0341098
0.0544346
0.0698523
-0.0765658
0.00671357
-0.00234159
0.00381029
-0.0014687
0.0341562
-0.0887809
0.0546247
-0.14335
0.134211
0.00913979
0.00906746
0.0891359
-0.0982034
0.194245
-0.172264
-0.0219807
-0.12729
0.0752283
0.052062
0.00427622
0.00142665
-0.00570287
0.0574183
0.012434
-0.0208054
0.202472
-0.181667
-0.0861879
0.123093
-0.0369048
-0.369794
0.236663
0.133132
-0.129166
-0.237531
0.366697
-0.000225394
-0.0729528
0.0731782
-0.0106125
-0.0686193
0.0792318
0.0157061
0.0198047
-0.0355108
0.128814
-0.217918
0.0891047
0.251806
-0.122993
0.100655
-0.142493
0.0418378
0.102548
-0.143543
0.0409948
-0.0392891
0.126478
0.227123
-0.13044
-0.0966824
0.0533925
-0.0222904
-0.0311021
-0.152862
0.0121378
0.140724
0.162978
-0.146984
-0.015994
-0.0991722
0.0885597
-0.280521
-0.281499
-0.444128
0.297651
0.146477
0.101106
-0.159311
-0.000702128
-0.00915313
0.00985525
0.153105
-0.0505569
-0.158178
-0.0278854
0.186063
0.0304769
-0.123508
0.0930312
-0.31049
0.573648
-0.263159
-0.167598
0.318077
-0.15048
-0.199
0.459259
-0.260259
-0.0407083
0.204567
0.0170035
0.0729086
-0.0899121
-0.14166
-0.0460782
0.187738
-0.138077
0.178399
-0.0403225
0.0573464
0.0552375
-0.112584
-0.0586237
0.0927799
0.123718
-0.0230626
-0.297125
-0.213121
-0.0264241
-0.114514
0.140939
0.254339
0.152863
-0.407203
-0.25335
-0.190778
-0.149367
-0.220427
-0.178172
-0.183907
0.362079
0.162225
-0.28635
0.124125
0.336336
-0.62451
0.288174
0.512057
-0.332144
-0.179913
0.178367
-0.0165922
-0.161775
0.0918305
-0.0920559
-0.0129309
-0.066663
0.079594
0.25251
-0.381677
0.384748
-0.641672
0.256924
0.185313
-0.196598
0.0112849
-0.134174
-0.0186879
0.0472328
-0.188892
0.239254
-0.388078
0.148823
-0.000190732
0.0335445
-0.187356
0.0492787
-0.0902337
-0.0069058
0.0971395
-0.14456
0.14314
0.00142008
0.00389397
0.169462
-0.173356
0.353011
-0.386538
0.0335266
-0.0209625
0.00546718
0.0154953
-0.0674333
0.0765008
-0.0773507
0.115015
-0.0376644
-0.000889054
-0.00954666
0.0104357
-0.0150253
0.0149754
4.98483e-05
-0.175091
0.299531
-0.12444
0.44485
-0.221307
-0.223543
0.141367
-0.125632
-0.0157349
0.0875315
-0.0431441
-0.0443874
0.189207
0.0331606
0.0202318
0.0935462
-0.00203581
-0.0915104
0.196125
-0.168275
-0.0278507
0.181925
-0.207535
0.0256105
0.260505
0.0846293
-0.345134
-0.149626
-0.122128
0.271755
0.135611
-0.264488
0.128877
0.678351
-0.373485
-0.304866
0.0197576
0.0631668
-0.0829244
0.292327
-0.0318223
-0.134717
-0.00882655
-0.0345902
-0.0518961
0.0864863
0.0251483
0.0473338
-0.0724821
0.168019
0.0103483
-0.0453807
0.0250559
0.018353
-0.127662
0.310085
-0.182422
0.0286983
-0.186876
-0.00415641
0.156806
-0.15265
0.00601209
0.00191649
0.299103
-0.163492
-0.651015
0.428653
0.222362
0.190601
0.00364392
-0.454298
-0.0146846
0.468983
-0.249216
0.081618
-0.321946
0.65996
-0.338014
-0.13194
-0.0114102
0.205725
-0.226531
0.0214486
-0.104222
0.0827737
0.646051
-0.374915
-0.271136
0.0367401
0.002452
-0.0391921
-0.184949
0.221524
-0.0365753
-0.0777957
0.0552097
-0.117347
0.0311591
0.0348415
-0.10508
-0.0348984
0.0922447
0.00313897
-0.147699
0.259111
-0.539633
0.490331
-0.153995
-0.273146
0.184023
0.0891231
-0.0668858
0.0461168
0.020769
-0.29541
0.120318
0.0234575
-0.0243465
-0.0493477
0.567536
-0.518188
0.0170612
0.076485
0.418212
-0.180169
-0.238043
0.194967
-0.214897
0.01993
-0.1172
0.151668
-0.0344681
-0.503646
0.0519928
-0.119151
0.0671578
-0.170615
-0.102532
0.28547
0.208911
-0.494381
-0.189703
0.159652
0.0300508
0.146433
0.180794
-0.327227
0.247769
-0.558259
-0.10573
0.0724515
0.0332787
0.256815
0.188035
-0.098266
0.0279748
0.0702912
0.204043
-0.416004
0.211961
0.0640762
0.0462021
-0.110278
0.156905
-0.0318528
-0.125052
0.0908352
-0.103766
-0.184096
0.0324659
0.15163
-0.139706
0.0136216
0.126084
-0.60829
0.286344
0.0797894
0.0403283
-0.120118
-0.0757865
-0.0299436
-0.29142
0.539189
-0.129497
0.147857
-0.0183601
0.0412638
0.100471
-0.141734
-0.304294
0.154667
-0.0320861
0.111875
0.0237428
0.0274501
-0.0511929
0.165159
0.0309665
0.0990354
0.128087
0.0864642
-0.0626421
-0.0238222
-0.013089
0.0287951
-0.16905
0.195569
-0.0265192
-0.315205
0.154637
0.160568
-0.230624
-0.233343
0.463967
-0.233518
0.419023
-0.185506
-0.00674159
0.142813
-0.136071
-0.2127
0.511994
-0.467236
0.171231
0.296005
-0.124681
0.151379
-0.0266975
-0.182811
0.167308
0.015503
0.122968
-0.149392
0.197771
-0.152515
-0.0452559
-0.073846
0.22105
-0.147204
-0.00066894
-3.31881e-05
-0.0304853
-0.0518402
0.0823254
0.323315
-0.11046
-0.212855
-0.0217178
-0.045168
-0.143786
0.00906973
-0.123852
-0.0158533
-0.0102777
0.0400808
-0.0298031
-0.00241646
0.0391566
-0.0295981
-0.000703576
0.0303017
-0.144104
-0.028019
0.172123
-0.00587086
0.00482287
0.00104799
-0.237342
0.215315
0.0220274
0.0222687
-0.0232936
0.00102484
-0.243545
-0.108221
0.351766
0.113777
0.0160859
-0.129863
-0.347421
0.216405
0.131016
0.21391
0.178142
-0.392052
0.155134
0.146861
-0.301996
-0.0269331
0.0354411
-0.008508
-0.067915
0.109179
-0.221761
0.0376653
-0.0167814
0.0381589
-0.0213775
-0.405822
0.233318
0.172503
-0.183132
0.178975
0.00552154
0.16394
0.0742437
0.493292
0.0879224
0.265089
-0.0580339
-0.13521
0.193244
-0.152737
-0.141941
0.294677
0.162018
-0.220052
-0.0578504
0.0749116
-0.048784
0.0739323
-0.242742
0.463355
-0.220613
-0.0470084
0.0200753
-0.34266
0.164487
-0.0277957
-0.00614968
0.0223058
-0.191355
-0.139407
-0.180778
0.320185
-0.310795
0.61122
-0.300425
-0.0627203
-0.0355457
0.106699
-0.124614
0.0179158
-0.186622
0.333055
0.0466675
-0.0877322
0.0410648
-0.0354112
-0.0468283
0.0822396
0.359007
0.0406239
-0.399631
-0.221942
-0.245294
-0.142508
0.110422
-0.145846
0.313704
-0.167858
0.0221585
-0.0222091
5.05937e-05
-0.237244
0.163398
0.173214
0.158191
-0.331405
0.0360218
0.0504424
0.396551
-0.111081
-0.116008
0.122464
-0.00645612
0.0348826
0.0107954
-0.045678
0.0330826
-0.0564534
0.0233707
-0.0130248
0.0511875
-0.0381627
0.0487033
-0.0156206
-0.15814
0.0976279
0.060512
-0.0367079
-0.0439848
0.0806927
0.570096
-0.586652
0.0165564
-0.154902
0.0734647
0.0814376
0.0313908
-0.274936
0.00961999
-0.0102121
0.000592103
0.61654
-0.341327
-0.275214
-0.0214129
-0.103873
0.125285
-0.474793
0.0140893
0.460704
-0.0965583
0.0192075
-0.0225732
-0.0257909
0.0483641
-0.0942638
0.00304744
0.0912164
0.123632
-0.0169339
-0.281486
0.487454
-0.205968
-0.0825275
-0.0340031
0.116531
0.172232
-0.051559
-0.0757313
-0.0461685
0.0293871
-0.430504
0.209197
0.0294967
0.36509
-0.125836
0.0283701
-0.084923
0.0565529
-0.329988
0.49634
-0.166352
0.126895
-0.013118
-0.023589
-0.00600909
0.215068
-0.45781
-0.0219056
-0.020588
-0.264927
0.465976
-0.201049
0.154403
0.144701
0.181372
-0.367994
0.334692
0.0835196
0.0291976
0.00374449
-0.032942
-0.169579
-0.0558679
0.225447
-0.0211564
0.128455
-0.107299
0.0733804
0.0709148
-0.144295
-0.127695
0.0633947
0.0642999
-0.0322228
0.105603
0.10369
-0.578483
-0.0846081
-0.0430865
0.0540962
-0.0886864
-0.033451
0.0975272
-0.115598
-0.199607
0.0564298
0.219109
-0.152383
-0.066726
-0.101618
0.043768
-0.166211
0.159469
-0.19792
0.452259
-0.150242
0.323456
0.0259401
0.115857
-0.0778773
-0.0379798
0.11821
-0.114909
-0.00330018
0.109223
-0.0451751
-0.0640481
-0.101823
-0.0530793
0.000854417
-0.151679
0.150824
-0.0373795
0.084047
0.0195642
-0.0152879
0.0522653
-0.110841
0.0585755
-0.000727843
0.135243
-0.134516
0.0332186
-0.0394494
0.00623079
-0.146103
0.163244
-0.000266173
-0.0203204
-0.0148705
0.0351909
0.543718
-0.15897
0.0484473
-0.0772664
0.0288191
-0.291079
0.120464
-0.0168182
-0.0124701
0.0292883
-0.14098
0.147821
-0.00684098
-0.0150032
0.0107961
0.00420712
-0.1443
0.186539
-0.0422381
-0.0410099
0.0279851
-0.141906
0.109683
0.14677
-0.125444
-0.0213257
0.244887
-0.536306
-0.245984
0.494692
-0.248709
0.138441
-0.132539
-0.00590255
0.142201
-0.389353
0.247151
0.133118
-0.122432
-0.0106858
0.157819
-0.115642
-0.0421769
0.0343292
0.00111192
0.184284
-0.170573
-0.013711
-0.00518394
-0.00984131
0.0457998
-0.0109172
0.25289
-0.204253
-0.0486366
0.0248112
0.246111
0.43224
-0.0237176
0.00689937
0.251661
-0.407516
0.155856
0.00501752
0.133424
0.0208752
-0.021247
0.000371779
0.128986
-0.128132
-0.500409
0.301409
0.0484935
0.133431
-0.0516451
0.0297395
-0.00371284
-0.00905384
-0.00594935
0.218942
-0.440569
0.221627
-0.1433
0.297702
0.116838
-0.281003
0.164165
-0.0293098
0.00898937
0.25086
-0.391529
0.140669
0.00272735
-0.132224
-0.122653
0.0401258
-0.166627
0.0331377
-0.0538442
-0.104296
-0.0324839
0.0334944
-0.00101042
-0.19689
-0.0390796
0.23597
0.181869
-0.0532837
0.079474
-0.0261903
-0.0964281
0.044532
0.111207
-0.13262
0.0253425
0.0304555
-0.055798
0.231786
-0.496213
0.264427
6.59694e-05
0.0291316
-0.108615
-0.218611
-0.391557
0.15804
0.287392
-0.125166
-0.0454718
0.0351941
-0.0698062
0.216582
-0.146776
0.272714
-0.413468
0.140754
0.222128
0.101187
0.12148
0.0417638
0.0185585
-0.134567
-0.0852408
0.0626151
0.0226257
0.00542428
0.0168445
-0.234674
0.404365
-0.169692
-0.0732335
-0.0692596
0.0211378
0.100888
-0.0372016
-0.0636868
-0.0231114
-0.0629493
0.0860606
-0.58986
0.279065
0.1495
-0.302237
0.0288906
0.0438578
-0.0727484
-0.0791412
-0.0367598
0.115901
0.0102652
-0.131336
0.121071
-0.05055
-0.0337853
0.0843353
-0.0599259
0.265651
0.123793
-0.047119
-0.0766741
-0.265473
0.0958941
-0.00423473
-0.136746
0.0961364
-0.293027
-0.0180234
0.0488636
-0.0308402
-0.188492
0.337366
-0.148874
0.0946697
-0.0662996
0.0642332
0.0595599
0.0235103
-0.0235828
7.25086e-05
0.00926585
0.0256492
0.0131827
-0.0388319
-0.132478
0.113916
0.0185618
-0.268623
-0.0982873
0.00805357
-0.0249936
0.147962
0.036763
-0.0622817
0.0255188
0.00280929
0.0315199
0.1499
0.163804
0.427958
0.232002
-0.160678
-0.113689
0.274367
0.427853
0.0623421
0.0338927
-0.0962349
0.188774
-0.150338
-0.038436
0.147236
-0.0257563
0.0274084
-0.144248
0.11684
0.0326677
-0.0428011
0.0101334
-0.0467079
0.10609
-0.0593817
0.0342954
-0.148811
0.159103
-0.0102924
-0.0960641
0.179048
0.244165
-0.423212
0.0512683
0.151245
-0.210651
0.0594066
0.0162512
0.202858
0.0500614
0.0508269
-0.0457435
0.00226411
0.0434794
-0.131018
0.0782665
0.0527516
0.115369
-0.0848922
-0.00545726
0.158908
-0.153451
-0.021916
0.0242363
-0.00232032
0.0345764
0.218313
-0.09859
0.00432613
0.247658
-0.163739
-0.0839198
-0.110562
0.12406
-0.0134985
0.39283
0.218389
-0.0368512
0.0852985
0.395443
-0.181533
-0.228373
0.158567
0.0687299
0.314632
-0.383362
-0.219613
0.44066
-0.221047
-0.00448882
0.129861
-0.125372
0.321249
0.379759
0.236781
0.147219
-0.115099
-0.0321193
0.206118
-0.289792
0.0836736
0.194849
-0.0379861
-0.156863
-0.0329384
0.134044
0.00182015
-0.00112617
-0.000693981
0.325318
-0.494017
0.168699
-0.0917214
0.134966
-0.0432446
0.225881
0.286176
-0.115411
0.153544
-0.0381334
0.0127262
-0.478172
0.465445
-0.0326977
0.000213811
0.620771
-0.303993
-0.316779
-0.174479
0.333643
-0.159164
0.503159
-0.20526
-0.0224257
0.023088
-0.0238246
0.0007366
-0.0377511
0.243869
0.193444
0.0276059
0.299604
-0.173623
-0.125981
-0.0374482
-0.0338541
0.0713023
-0.215812
0.0308632
-0.1338
-0.157279
0.0709512
-0.0539477
0.00125318
0.0083668
0.152961
-0.017662
-0.135299
0.0695491
-0.0497915
0.20363
0.0798598
-0.283489
0.0521498
0.038173
-0.0903229
0.0478102
-0.0782955
0.175831
-0.00422275
0.0374556
0.0537281
-0.0911837
-0.291265
0.141519
0.149746
-0.284235
0.194722
0.0895133
-0.135067
-0.0137435
-0.153296
0.152568
0.134518
-0.339296
0.204778
0.419835
-0.407109
0.0500593
0.0355552
-0.0856145
0.115075
-0.148014
0.0941708
-0.0318287
-0.0445646
0.0606317
-0.0160671
0.608574
-0.324481
-0.284093
0.0467341
-0.111448
0.0647139
0.504667
-0.571159
0.0664927
0.0062391
0.0172712
-0.0617121
0.334426
0.501758
-0.207214
-0.294544
-0.0350621
0.0891583
-0.017429
0.0304912
-0.0130622
-0.0777236
-0.0142991
-0.0911401
0.105439
0.0909004
-0.0534448
-0.118138
-0.131078
0.0205553
0.130249
-0.150804
-0.0155464
-0.107962
-0.42091
0.207991
0.212919
-0.270294
0.445085
-0.174792
-0.169024
-0.0683183
-0.000765356
0.00258551
-0.00931082
-0.198944
0.208255
0.143054
-0.123308
-0.019746
-0.345355
0.156863
-0.064565
0.0200005
-0.050318
0.0857648
-0.0354468
-0.0716
-0.0136408
-0.0153258
0.0351305
-0.536925
0.321982
0.214942
0.0722377
0.0022806
0.030938
-0.128929
0.120423
0.00850585
-0.176567
-0.0392456
0.185689
-0.227287
0.0415986
0.261746
0.0729467
-0.336508
0.530116
-0.193608
0.208941
-0.218252
-0.0271344
-0.0626273
0.0897616
0.0100948
0.0807405
0.161205
-0.15094
-0.313041
0.179241
-0.208142
-0.0356855
0.0670173
-0.0313318
-0.25656
-0.0856928
0.342253
-0.275529
0.136122
0.126825
-0.0176048
-0.10922
-0.0301992
0.0144354
0.0157638
0.125206
0.174325
-0.152736
-0.0453024
0.198039
0.0283451
-0.490826
0.46248
-0.295907
-0.293953
-0.214954
0.367817
-0.0435257
0.19477
0.419861
-0.391516
0.18473
0.234293
0.0133616
-0.00503491
-0.00832668
0.232776
-0.430696
-0.00307193
-0.197396
-0.223515
-0.0590825
0.0410591
0.222526
0.125125
-0.086039
0.0506278
0.323801
-0.187833
-0.135969
0.105257
-0.0300288
0.0439576
-0.0942755
0.167253
-0.178033
0.0107797
-0.0804091
0.0298591
-0.201779
-0.333739
0.183497
-0.0196904
0.00545652
0.0167019
0.00262765
-0.00375382
6.00137e-05
-0.456418
-0.0669087
0.523327
0.0324103
-0.562551
0.266644
-0.00871716
0.265532
-0.0684267
-0.00813912
-0.000427756
-0.00841273
-0.123869
0.152064
-0.0281942
0.127501
-0.583919
0.523977
-0.239589
-0.284389
-0.224538
0.420499
-0.195961
0.0466802
0.148287
0.0537729
-0.208659
0.154886
-0.059709
0.0240236
-0.384236
0.230713
0.153523
0.0638718
-0.0910062
0.024772
-0.139286
-0.136524
0.0673839
0.0691401
0.249
-0.28808
0.0178941
0.141283
0.0802418
-0.0192815
-0.0109177
0.246985
-0.492968
0.164265
0.169378
0.144706
0.0767375
-0.221443
-0.00400151
-0.00186935
0.15385
0.0938089
0.105327
-0.0324184
-0.119702
0.0279804
-0.0185705
-0.00239197
0.00887993
0.31122
-0.205456
-0.105764
0.071414
-0.0425234
0.000749197
0.0126124
-0.155917
0.0402744
0.0234705
-0.0767542
-0.29403
0.180608
0.113422
-0.150017
0.145528
-0.0662701
-0.070254
0.0119026
-0.0620045
0.0282019
0.0338026
0.210562
-0.396117
0.185555
-0.0792212
0.438228
-0.300866
-0.307424
-0.159317
0.484635
0.329795
-0.165529
0.0351541
-0.0375706
-0.198691
0.0459544
-0.0310451
0.21283
-0.181785
-0.182396
0.381001
-0.198605
0.393908
0.252144
0.035773
-0.288205
0.252432
-0.030445
0.0805043
-0.046022
0.0131799
0.0101708
-0.0233507
0.123752
-0.129209
-0.130836
-0.0204802
0.151317
0.0361841
0.0335373
-0.0697214
0.137831
-0.160683
0.0228523
-0.0132588
-0.129249
-0.246904
0.053485
0.193419
0.117935
-0.241211
0.123276
-0.023765
-0.0309972
0.0547622
0.285377
-0.531639
0.246262
-0.013888
0.053523
-0.0396349
0.168803
-0.235919
-0.0109851
-0.0806523
0.02613
-0.0161273
0.00697419
-0.0541181
-0.0995519
0.15367
0.418376
-0.185599
0.0468482
0.0311174
-0.0779656
-0.589224
0.327704
0.261521
0.158436
-0.143266
-0.0151696
-0.0234952
0.161326
-0.592588
0.339794
0.252794
0.181041
0.11344
-0.294481
-0.596735
0.346659
0.250076
0.257182
-0.103894
-0.153289
0.601561
-0.346481
-0.25508
0.0362582
-0.0209209
0.110057
0.238905
-0.524817
0.285912
-0.307249
0.165308
0.184951
-0.0281454
0.308538
-0.497077
-0.0178488
0.106409
-0.00488698
0.0375546
0.000974581
0.000452074
-0.0345427
-0.148269
0.280013
-0.582623
0.302611
0.267426
-0.150587
0.156276
-0.184162
-0.124032
-0.0216555
0.145688
-0.133931
0.151747
-0.0178154
-0.00178953
0.346209
0.177769
0.00626062
0.0120227
-0.0182834
-0.0332614
0.0116229
0.237377
0.358584
-0.5179
0.180517
-0.308179
0.00273598
-0.024652
-0.330377
-0.258847
-0.0651175
0.246159
0.324968
-0.540231
0.215263
0.180814
0.278445
-0.152114
-0.100402
0.117286
-0.0168841
-0.446595
0.2492
0.0330185
0.0762046
-0.0495355
0.101725
-0.0521895
0.256584
-0.55371
-0.272722
-0.229963
0.502685
-0.428503
0.089207
0.0788632
-0.032015
-0.105307
0.223243
0.0373618
-0.0513625
0.0140007
0.0685832
-0.032399
-0.265145
-0.27178
-0.0474757
-0.0339202
0.0813959
-0.0246902
0.00726121
0.0227079
-0.272467
0.217741
0.0547255
-0.186034
-0.198202
0.0113364
0.119014
-0.13035
-0.773356
0.296363
0.476993
0.247474
-0.478098
0.0394041
0.00671265
0.0308886
-0.0254214
0.00138097
0.0933361
-0.0413433
-0.0229013
0.134109
-0.0634538
0.0495658
-0.21465
0.425165
-0.210515
-0.0391669
0.0238411
0.132181
-0.186299
-0.0338005
-0.0522385
0.268069
-0.276786
0.274571
-0.118093
-0.156477
-0.131399
0.163865
0.195683
0.0984507
-0.0636092
0.235257
-0.05448
-0.180777
0.00906404
0.185785
-0.209755
0.101232
0.108523
-0.0943153
-0.0248352
-0.0602172
0.0949196
-0.0347025
-0.145532
-0.143922
0.289454
-0.0811563
0.119519
-0.0383624
-0.000476881
0.00529975
-0.00964663
-0.111442
0.103027
0.00841523
-0.0900157
0.100111
-0.116461
-0.312042
0.00228178
-0.0118284
-0.503655
0.344837
0.158817
-0.0411572
-0.0922226
0.13338
-0.299005
-0.263546
-0.458698
-0.314659
-0.112774
0.104724
0.00804952
-0.271021
0.127446
0.143575
-0.00513178
0.133744
-0.128613
-0.0648334
-0.0200896
0.027251
-0.0950521
0.0678011
-0.489958
0.406622
0.0833364
-0.194834
0.0779812
0.116853
-0.0197813
-0.0929922
-0.187834
0.192484
-0.0392695
-0.153215
0.0459496
-0.252056
-0.172372
0.424428
-0.14056
-0.102087
0.242647
0.048629
-0.0161363
-0.0324927
0.414012
-0.184497
-0.229515
-0.260758
0.507743
-0.180213
0.0298755
-0.0283242
-0.0311649
0.0594892
-0.307753
0.635457
0.0325074
0.0465961
-0.0791035
-0.380714
-0.270302
0.438474
-0.230483
0.0212688
0.102449
0.240847
-0.370826
0.129979
0.0320704
-0.0946976
-0.0706181
0.0339102
-0.213461
-0.0778033
0.259298
-0.0850592
-0.174238
-0.303878
-0.186081
-0.147822
-0.0323908
-0.374855
0.230306
0.144549
-0.162376
-0.131654
-0.185291
-0.0467625
-0.0336466
-0.125295
-0.132868
0.258163
0.128636
-0.253931
0.113913
-0.136815
-0.0029022
0.00207929
0.000822901
-0.0986684
0.0208726
0.16298
-0.293686
0.130706
-0.115988
-0.125223
-0.0852972
-0.0320499
-0.0340646
-0.0902036
0.0476868
-0.0323018
-0.015385
-0.107829
-0.0129562
0.120785
-0.105196
0.12526
-0.020064
0.0906901
-0.178202
0.0875121
-0.0029641
0.000369642
-0.100016
0.0288975
0.0711187
-0.0673454
0.0604396
0.115638
-0.0882292
-0.363741
-0.228847
-0.0170794
-0.0283924
-0.187086
-0.0839352
0.472349
0.0977464
-0.310414
0.0685481
0.241865
-0.411365
-0.665975
0.438874
0.2271
0.03641
0.012219
-0.120519
0.0153226
0.266638
0.455065
-0.294876
-0.160189
-0.607663
0.385001
0.222661
-0.103591
-0.133653
0.130592
0.143979
-0.0427498
0.0688997
-0.0261499
-0.319981
0.129002
0.190979
-0.0812956
0.171986
0.195622
0.305725
0.23535
-0.541075
0.357334
-0.258387
-0.098947
0.0170967
-0.0647966
0.0476999
0.339834
0.161924
0.0420124
0.0442136
-0.086226
0.0233671
-0.301191
-0.202464
0.226728
-0.487486
0.183241
0.303409
-0.140429
-0.147407
0.013476
0.00713721
0.0124269
-0.124353
0.144775
-0.0204217
-0.0866489
0.0528484
-0.117633
0.133621
-0.0159879
0.134394
-0.056566
-0.0778278
0.0355167
0.0956083
-0.131125
-0.197307
-0.19425
-0.0858566
0.0210231
-0.0140092
-0.127897
-0.0293015
-0.136976
0.166278
0.263543
0.181542
-0.0320146
-0.151117
-0.0931662
0.0464584
-0.015697
0.0219576
0.557207
-0.322856
-0.234352
0.224014
-0.289131
0.00950067
-0.00078335
-0.00871732
0.18392
-0.178398
0.107536
0.0120527
-0.119589
0.105802
-0.137664
0.0318624
0.0342876
-0.0711389
-0.173451
0.516293
-0.583202
0.176738
-0.0170868
-0.0812609
0.0661582
0.296149
-0.362307
-0.268923
-0.327812
0.118757
-0.0112209
0.113077
-0.146487
0.0334098
0.244833
-0.0485885
0.0762605
-0.027672
-0.154561
0.479528
0.182565
0.438206
0.135212
-0.0221357
-0.0140608
0.105891
0.165
-0.224926
0.0236573
8.19484e-05
-0.0237392
0.0262905
-0.150743
0.124453
0.289223
0.0681108
-0.106853
0.26149
-0.119122
0.139677
-0.179229
-0.189337
0.368566
-0.262234
-0.142816
0.40505
-0.475897
0.266205
0.209692
-0.325567
0.174363
0.151204
0.0211216
-0.0706571
0.34856
-0.54832
0.19976
0.1664
-0.418456
-0.0707801
-0.060238
-0.044516
0.0939138
-0.0493977
0.0933746
-0.120435
0.0385811
-0.0132386
-0.2076
0.418162
-0.101231
0.117501
-0.0162701
0.485954
-0.202779
-0.283175
-0.100398
-0.288955
-0.0259951
0.408955
-0.38296
-0.191279
-0.395373
0.307006
-0.0401406
0.0875215
-0.0473809
0.313882
-0.381831
0.0679492
-0.125887
0.55454
-0.197422
0.178411
0.0190117
0.00219989
0.0476549
-0.0877954
0.017904
0.0545475
0.157185
-0.205654
0.0484695
-0.461362
0.298207
0.163155
-0.293038
0.182141
0.110897
0.038394
0.0323186
-0.0707126
-0.0198553
0.125657
-0.202919
-0.227585
-0.199807
0.0232401
-0.0313496
0.0834995
-0.0254262
-0.0365784
0.0568905
0.0589666
-0.0828147
0.0382987
0.146005
-0.134669
-0.283004
0.164911
-0.295971
0.150439
-0.0909711
0.0391309
0.0306083
-0.0313374
0.000729095
-0.180549
0.234322
-0.498834
0.472838
0.477786
-0.137952
-0.103241
0.00283879
0.00992119
-0.150586
0.39475
0.426156
0.0516303
0.0441717
-0.0651303
0.0209585
0.054897
0.0794968
0.139709
-0.0152054
-0.124503
0.199361
-0.196437
-0.0133184
-0.0156732
0.0323579
-0.0166847
0.317874
-0.00933513
0.0569819
0.0277169
-0.0846988
0.332197
-0.229727
-0.10247
-0.359887
0.177491
0.0310039
0.18227
-0.301277
0.119007
0.0500869
0.466206
-0.0279016
-0.169521
0.234908
0.097289
-0.160992
-0.137237
0.29823
-0.0223785
0.0604763
-0.0380979
-0.00525959
0.0148623
-0.00960275
-0.31666
0.246795
0.0698649
0.0360674
0.120511
-0.156578
-0.2968
0.135808
0.0883238
0.0946162
-0.18294
0.0763794
-0.0420917
0.0545453
0.0526105
-0.107156
0.00725237
0.0250396
-0.0322919
0.333806
0.117464
-0.451271
-0.262095
0.160008
0.206545
0.20756
-0.414105
-0.151466
0.51005
-0.542688
0.255649
-0.406234
-0.119845
-0.114268
0.234113
-0.118625
-0.206942
-0.00535216
0.00135064
-0.0258691
-0.000275474
0.0261445
0.258202
0.150975
-0.124684
0.158769
0.0565461
0.122075
-0.186723
0.0646474
0.322848
-0.119219
0.176442
-0.0192572
-0.214968
-0.281245
0.00452829
0.0163469
-0.292199
0.512713
-0.220514
0.312351
0.284663
0.19971
-0.230755
0.0590009
0.0888561
-0.126711
-0.282204
0.0183791
-0.0198707
0.00149165
-0.0498095
0.0260445
-0.609061
0.391577
0.217484
-0.120298
0.0804784
0.0398192
-0.136782
-0.1832
0.114937
0.154723
-0.26966
-0.00449514
0.302146
-0.00550514
-0.0203639
-0.149027
0.444344
-0.295318
-0.0389262
0.0819493
-0.0430231
-0.269883
-0.246591
0.516475
0.38487
-0.574567
0.189697
-0.148975
0.176848
-0.027873
0.541101
-0.604151
0.06305
-0.353938
-0.255123
0.493705
-0.302075
-0.19163
0.146341
-0.408575
0.04316
-0.00500115
-0.0256569
0.155906
0.171896
0.0852861
0.57899
0.12212
-0.121693
-0.000427009
0.239946
-0.424444
0.0219116
-0.0203933
0.45225
-0.120845
0.0996886
0.286969
0.168095
0.0395271
-0.0835119
-0.170756
0.369402
-0.198646
-0.0303861
0.0523628
-0.0219767
0.0553675
-0.0279174
0.272749
-0.157812
0.198247
-0.109923
0.14114
-0.216311
0.0751709
-0.026291
-0.149529
0.17582
0.164109
-0.417459
-0.130784
-0.255754
0.0440498
0.123203
0.240293
-0.160433
0.272562
-0.0322691
-0.401537
0.270754
0.120811
-0.294434
0.194117
-0.0248311
-0.169286
0.0713143
0.112606
-0.432139
0.310911
0.26802
-0.578931
0.159269
-0.13155
0.15212
-0.0205704
-0.529123
0.447064
0.0820593
0.286059
-0.114891
-0.171168
-0.00294743
-0.487974
-0.131428
-0.185231
-0.21303
0.521913
-0.308883
0.153245
-0.182546
0.138566
-0.102516
-0.0360501
0.0246742
0.0367212
-0.0613954
0.216515
-0.59
0.00904545
0.0262325
-0.035278
-0.226491
0.532216
0.0451098
-0.0420739
0.0214859
0.303173
-0.429884
-0.0119519
-0.102521
0.114473
-0.395226
0.208551
0.186676
-0.239502
0.392524
-0.153022
0.0127433
0.0727394
-0.0854827
0.195423
-0.00130599
-0.523713
0.310683
0.0224018
0.6174
-0.354086
-0.263314
0.235637
0.139344
-0.102872
-0.0364721
-0.159684
-0.117594
0.277278
0.151903
-0.0166597
0.55334
-0.242429
0.0273154
-0.0284777
0.0310913
-0.0026136
-0.0664905
-0.0335257
-0.203716
-0.171138
0.126713
0.298027
0.0646626
-0.36269
-0.437157
0.180597
0.192232
0.0803304
0.00137749
-0.00859084
0.00721335
0.0213765
0.000568487
-0.021945
0.0300659
0.0433255
-0.0733914
-0.237438
-0.223924
-0.0831535
0.0457053
-0.159414
0.198051
-0.0386363
0.0556011
-0.108071
0.0524694
0.100325
-0.0730742
0.0644809
0.0471318
-0.111613
0.31959
0.180143
0.105916
-0.105277
-0.205137
0.0400003
0.0415055
-0.0815058
-0.190203
0.244775
-0.0545727
0.0280315
0.106729
-0.0284627
0.133069
-0.236661
0.487661
-0.141452
-0.110781
-0.00816401
0.118945
-0.0021927
-0.026285
0.0111538
0.0274272
-0.0215025
-0.0643541
0.541962
0.216711
0.313405
0.101621
-0.0515591
0.0211638
0.0103578
-0.0315216
0.155896
0.173899
0.0562664
-0.0391697
-0.0611573
-0.0965841
0.157741
-0.0223885
0.0793704
0.209142
-0.00666963
-0.0574949
-0.0383342
0.0958291
0.226559
0.191817
-0.0156005
0.0412497
-0.148803
0.0118264
0.113882
0.0360385
-0.0664246
-0.35856
-0.307415
-0.0366237
0.021627
0.0149967
0.207047
-0.423743
0.216696
-0.156612
0.192532
-0.0359199
-0.0864307
0.0396682
0.0242675
-0.153688
0.0099012
-0.426027
-0.103096
0.128572
0.0213091
-0.149881
0.127109
-0.361783
0.109268
-0.0625339
0.0267542
0.15619
-0.182944
-0.221242
0.114389
0.0516209
-0.229214
0.177593
0.132307
-0.244224
0.111917
-0.206799
0.285122
-0.244498
0.0771515
-0.0446441
0.152989
0.420659
0.0008777
-0.00463152
0.331405
0.270156
0.140555
0.00225736
0.108305
0.208976
0.00760583
-0.0303686
0.186645
-0.0726537
0.113244
-0.0405905
0.119811
-0.185356
0.065545
0.00566982
0.0174182
0.240419
-0.139187
0.0190653
0.0642856
0.0370066
-0.101292
0.0320349
-0.0795998
0.0778011
0.00179871
-0.190391
0.0476947
0.142696
0.112622
-0.15378
-0.0567037
0.0778253
-0.0401626
0.461003
0.0436636
0.0330603
-0.00231804
-0.00122489
0.00354292
-0.0308163
0.0960966
-0.0652803
0.0927375
-0.106983
0.0142451
0.31149
-0.148982
-0.162508
-0.0153301
-0.0142573
0.0295874
-0.0639852
0.0301311
0.0403161
0.274316
-0.146471
0.200876
0.219624
0.280782
-0.0474641
-0.156444
-0.114357
0.270801
0.00750269
0.326304
-0.18252
0.331108
-0.148587
0.146499
-0.0301559
0.0685499
-0.0756996
-0.00101462
-0.105822
0.106837
-0.0188695
-0.110059
0.196308
-0.0387001
-0.157608
0.134003
-0.249991
0.291103
0.326297
0.0416557
-0.106203
0.0645472
-0.0654005
-0.0188356
0.431347
0.180613
0.00507542
-0.611746
-0.287869
0.17418
0.143244
-0.169535
-0.0111965
0.0386725
-0.027476
-0.12956
0.0119273
0.0257927
-0.0356221
0.00982941
0.0320771
-0.0188944
0.00779107
0.150645
0.415445
0.0782599
-0.219713
0.146375
-0.0119458
0.104683
-0.0227737
-0.130522
-0.186981
0.524899
0.0293414
-0.0724855
-0.290204
0.204511
0.135688
-0.195946
0.0602582
-0.238881
-0.198276
0.0212478
-0.0698363
0.486379
-0.111209
0.00168026
-0.181355
0.157286
0.0240691
0.021002
0.135751
-0.156753
-0.522144
0.229945
0.222743
0.167032
-0.389776
-0.0389803
-0.0598406
0.0988208
0.0218959
0.123683
0.520707
-0.261596
0.024454
0.166743
-0.191197
0.034781
-0.0276438
0.182238
0.129252
0.227369
-0.407538
0.706126
-0.441497
-0.264629
-0.0235281
-0.0399257
0.399981
0.0876801
-0.0372892
0.0857341
-0.0484449
0.190829
-0.444389
0.25356
-0.162204
-0.0912416
0.0434912
0.0477505
-0.0108858
0.0553279
-0.0444421
-0.00140071
0.00019483
0.00120588
-0.0136723
0.00461843
-0.581308
0.517704
0.0636039
0.21128
0.193086
-0.598514
0.298138
0.300376
0.269118
0.437008
-0.267026
-0.0118295
0.125746
-0.00451778
0.117082
-0.112564
-0.0271169
-0.121889
0.149006
-0.00260116
0.29875
-0.218808
-0.220405
0.439213
0.0416863
-0.0640648
-0.000451988
-0.0109192
0.0113712
-0.0411105
-0.166425
-0.0975291
0.0335471
0.063982
-0.184052
0.28199
-0.0979385
-0.413935
0.175054
0.354132
-0.128533
-0.2256
0.179526
-0.173961
-0.00556507
-0.126245
0.0154638
0.0368293
0.00325151
-0.0131869
0.0113175
0.141498
0.0505712
-0.259231
-0.0418421
0.071908
0.134137
-0.135236
0.121977
0.109289
-0.0120727
-0.0972162
-0.0959936
-0.0948308
0.190824
0.430558
-0.203999
-0.522627
0.304894
0.217733
0.353075
0.174872
-0.527946
-0.09533
-0.172199
-0.187688
-0.107493
0.285413
-0.17792
0.0776267
-0.0080776
-0.102153
-0.0108367
0.11299
-0.0125962
-0.000590658
0.0442865
-0.0678146
0.563174
-0.0373933
0.101874
0.0599015
0.0209154
-0.0808169
-0.0869993
-0.00805281
-0.194992
-0.432623
0.19928
0.00451066
-0.0841105
-0.012828
-0.0130859
0.0259138
0.295426
-0.538708
0.398061
0.140646
0.190815
-0.158311
0.29983
0.174903
-0.047209
0.512371
-0.438867
0.28984
-0.0860084
0.0248724
0.0611359
-0.112329
-0.0119719
0.124301
-0.0173118
0.0177625
-0.000450658
-0.120793
-0.152195
0.272988
0.325095
0.27192
-0.0344083
-0.134335
0.0738389
0.0322507
0.0138569
0.0320353
-0.0458922
0.0251429
0.0810099
-0.0764992
0.187702
0.0246373
-0.212339
-0.0556719
0.110217
-0.365629
-0.242034
-0.506628
0.0345075
0.472121
-0.577223
0.288959
0.288265
-0.0184684
-0.0181553
-0.143573
-0.0226378
-0.305916
-0.0957989
-0.586905
0.286039
-0.385627
0.204849
-0.0240008
0.0252761
-0.00127538
0.316323
0.035148
0.104196
0.0164873
-0.0976436
0.048076
0.119232
-0.0678458
0.117817
-0.0499713
-0.100052
0.0117204
-0.0895977
-0.184811
0.152796
0.387371
-0.100402
0.00888338
-0.0273518
0.00640233
0.018057
-0.0244593
0.0161816
-0.572753
0.226437
-0.0941297
-0.0858198
0.107519
-0.0216992
-0.00775273
-0.123797
-0.40271
-0.135997
-0.207107
-0.200409
-0.288964
-0.235854
-0.242829
0.108988
0.0759635
-0.0401805
0.393255
0.0464922
0.0277034
-0.0741956
0.00748405
-0.179748
-0.140848
-0.142156
-0.0446747
0.0866871
0.230495
-0.223561
0.423392
-0.19983
0.329585
-0.148213
0.259679
0.267598
-0.527277
-0.104628
0.0837067
-0.297329
-0.279894
0.322293
-0.0142069
0.00894735
0.151996
-0.24738
0.474108
-0.022292
-0.027254
0.142329
-0.0403543