/*--------------------------------*- C++ -*----------------------------------*\
| =========                 |                                                 |
| \\      /  F ield         | OpenFOAM: The Open Source CFD Toolbox           |
|  \\    /   O peration     | Version:  v2012                                 |
|   \\  /    A nd           | Website:  www.openfoam.com                      |
|    \\/     M anipulation  |                                                 |
\*---------------------------------------------------------------------------*/
FoamFile
{
    version     2.0;
    format      ascii;
    class       volVectorField;
    location    "50";
    object      ddtCorrDdt0(U);
}
// * * * * * * * * * * * * * * * * * * * * * * * * * * * * * * * * * * * * * //

dimensions      [0 1 -2 0 0 0 0];


internalField   nonuniform List<vector> 
14479
(
(-0.0170341 0.0081994 0)
(0.00358331 0.0347992 1.40852e-20)
(-0.0125121 0.00892605 -5.57321e-21)
(0.0503188 0.0209917 5.27682e-22)
(0.00874963 0.0333901 0)
(0.0835212 0.0200436 7.62617e-22)
(-0.000182839 -0.000290883 1.32384e-20)
(-0.00309376 -0.000117961 -1.44122e-20)
(-0.00128553 0.0092747 0)
(0.0702153 0.0135047 0)
(-0.00651004 -0.0396962 -1.31313e-20)
(0.0507553 0.0204228 3.29737e-21)
(0.035651 0.0118265 -6.937e-21)
(0.0332116 0.0106808 7.26275e-21)
(0.0126997 0.0134485 0)
(0.0221201 0.0344098 1.54029e-20)
(0.0462521 0.0231468 5.18405e-21)
(-0.0230766 -0.00428009 -4.06916e-21)
(0.037775 0.0185265 1.33892e-20)
(-0.063687 0.000408861 8.07939e-21)
(-0.00103344 0.00198075 0)
(-0.00524804 0.0104958 7.01355e-21)
(0.00458524 0.0244371 -8.60472e-21)
(-0.0147339 0.046052 7.38741e-21)
(-0.00215237 0.00403622 5.39149e-21)
(0.0291903 -0.019898 2.88887e-20)
(-0.0102172 0.0121041 -1.01936e-19)
(0.0698982 0.0128957 -7.55704e-21)
(0.0668636 0.035089 1.64929e-21)
(0.0129745 0.0147178 5.17807e-22)
(-0.155329 -0.0280792 -4.22593e-20)
(0.116302 0.0397462 0)
(0.0370173 0.0192081 -6.51781e-21)
(-0.00327335 0.000587323 2.1915e-20)
(-0.00901044 -0.000255773 0)
(-0.00233159 -0.000260685 4.32436e-21)
(0.000433862 0.000892858 1.37632e-21)
(0.0161775 0.015298 -2.662e-22)
(-0.00776801 0.0137872 1.65457e-22)
(-0.0720525 0.0534185 0)
(0.0079498 0.0110763 2.56003e-21)
(-0.0046029 0.0167929 0)
(0.000166638 0.0135432 8.37218e-21)
(-0.0167992 0.0116602 0)
(0.00682806 0.04782 -1.06232e-20)
(-0.0585748 -0.0272969 0)
(-0.00502507 -0.000854335 0)
(0.00951737 0.00335616 3.40216e-20)
(-0.0115733 0.0107569 8.52194e-21)
(-0.0260598 0.078257 -9.36325e-20)
(-0.00148604 0.00511803 0)
(0.036862 0.0118214 -2.11154e-21)
(-0.0151582 0.096085 0)
(-0.0310287 0.0266413 1.70876e-20)
(-0.00999254 0.0050378 -9.34393e-21)
(-0.00153046 0.00854392 -2.20905e-22)
(-8.31365e-05 0.0592521 -1.2974e-20)
(0.0763826 0.0137857 0)
(-0.00243504 -0.000147754 0)
(-0.0411173 0.0371401 0)
(-0.000249361 0.0118718 -9.37734e-22)
(-0.0069526 0.00163656 0)
(0.000465598 0.0698157 5.57973e-20)
(-0.00113519 0.0378763 3.2718e-21)
(0.00773782 0.0152565 -2.50071e-21)
(0.0686511 0.0131024 0)
(-0.02682 0.0274096 0)
(-0.000108563 0.0117512 -8.79142e-21)
(0.0188789 0.042776 4.00896e-21)
(0.0339664 0.0182263 0)
(0.0712338 0.0163335 4.63622e-20)
(-0.0505452 0.00555315 0)
(0.0354767 0.0266284 1.28149e-20)
(0.0301643 -0.0204009 -1.25436e-21)
(-0.000985763 0.00203463 0)
(-0.00269027 0.0108188 -5.66612e-21)
(0.0702082 0.0157642 -9.99535e-20)
(0.0299419 0.0177231 -2.11601e-21)
(0.0458126 0.00774134 1.56267e-21)
(0.0664578 0.0140963 -3.77409e-20)
(0.0603043 -0.0419306 0)
(-0.000136126 0.000156804 3.37864e-21)
(-0.0214785 -0.00581556 -1.02809e-20)
(-0.0552309 0.00454488 0)
(-0.00711396 -0.00713974 2.24447e-20)
(-0.0600877 0.0260784 0)
(-0.0352118 0.00826704 -1.52015e-20)
(-0.000657002 0.00272994 2.42229e-21)
(0.0681198 0.014688 1.32107e-19)
(-0.00166694 0.00407412 -1.25401e-21)
(0.0758272 0.0182825 -6.7555e-21)
(0.073718 0.0132473 -8.74797e-20)
(0.105299 0.0154389 0)
(0.0263665 0.0278308 3.44057e-21)
(-0.0191626 -0.0100188 1.78972e-20)
(0.0370077 0.0137007 5.72286e-21)
(-0.00839105 -0.00387836 8.78729e-21)
(0.0762104 0.0184988 1.23639e-20)
(-0.0237511 0.00138965 0)
(0.067478 0.0147672 2.97037e-21)
(-0.146215 -0.0270536 0)
(0.0754113 0.013284 0)
(-0.0402642 0.0440911 0)
(-0.00188768 0.000534822 0)
(-0.017658 0.00296519 2.44604e-20)
(-0.00250499 -0.000413071 1.12475e-20)
(0.0090817 0.0164151 1.962e-21)
(0.0343921 0.0273119 -1.01177e-20)
(-0.00515349 0.0632897 -5.15497e-22)
(0.00930999 0.0110799 -4.22809e-21)
(-0.0182037 0.00722838 5.09075e-21)
(-0.00898744 0.0095517 0)
(0.00145705 0.0130477 -5.58259e-20)
(-0.0244715 0.0331208 3.33394e-21)
(-0.0039307 0.0113383 0)
(0.00245751 0.0181215 4.54543e-20)
(-0.00241008 0.00700026 0)
(-0.00771261 -0.00923146 7.8474e-20)
(0.00255602 0.00995664 1.79356e-22)
(-0.0460825 0.00601283 -7.62674e-21)
(-0.00818873 -0.00145754 6.5485e-21)
(-0.000265435 0.00192507 0)
(0.106388 0.0413115 0)
(-0.0123516 0.0182401 -4.50368e-21)
(0.0296364 0.0339585 5.44915e-21)
(-0.00476354 -0.000946734 1.63415e-20)
(-0.0121259 -0.00643989 1.44736e-20)
(0.00114544 0.00614364 5.37858e-21)
(-0.00429259 -0.00232763 0)
(0.076717 0.013623 0)
(-0.00529977 -0.00247197 1.20703e-20)
(0.0273999 0.0208974 -4.43011e-21)
(0.0366801 -0.0268031 0)
(-0.00486067 -0.00148663 -2.07361e-20)
(-0.0334327 0.017051 -1.54489e-20)
(0.0218 0.0207113 -8.28233e-22)
(0.011431 0.0805032 -6.21441e-21)
(0.000159556 0.0116633 6.81751e-22)
(0.0365427 0.0114018 -4.5858e-23)
(0.0517774 0.0215588 -9.62401e-21)
(-0.00654444 -0.0013695 2.00098e-20)
(0.0730295 0.0154206 -5.86346e-21)
(-0.0158529 0.017554 0)
(0.152935 -0.477279 -2.67106e-21)
(-0.00334201 0.0287185 7.83504e-21)
(-0.00703803 -0.00664258 -3.68248e-20)
(0.0493194 0.000545339 0)
(-0.00566156 0.000721542 5.74027e-21)
(-0.0183066 0.0281907 0)
(-0.00856355 0.0109494 -9.35801e-22)
(0.0369272 0.0146292 -9.61327e-21)
(-0.00683754 0.012477 6.14766e-21)
(-0.00115224 0.00209914 1.40177e-21)
(0.0635002 0.00594532 -2.57058e-20)
(0.057177 0.0146767 0)
(-0.0239348 -0.0238358 3.88831e-21)
(0.0688204 0.00863072 -1.12809e-20)
(3.29649e-05 -0.000482424 -6.05011e-21)
(0.0402091 0.0146334 1.27824e-21)
(0.0429211 0.00834696 -2.00791e-21)
(0.0680026 0.00721804 3.01709e-20)
(0.0262946 0.0342282 -5.8328e-21)
(0.0417674 0.00826648 -1.65032e-21)
(-0.0374751 0.00741954 8.83172e-21)
(0.0672647 0.0114926 -3.32049e-21)
(0.0166618 0.00440178 -3.07534e-20)
(-0.00366538 -0.00359025 1.24624e-20)
(-0.0400069 0.0263578 0)
(-0.00117388 0.00359035 0)
(-0.00961024 -0.00306412 8.08273e-21)
(-0.00669605 -0.00229264 -2.80799e-20)
(-0.0377473 0.0419338 0)
(-0.000733155 0.00682024 6.91837e-21)
(-0.0491514 0.00514058 1.00956e-20)
(-0.000863294 0.00576527 -1.24062e-21)
(0.0259051 -0.0838017 5.17549e-20)
(-0.000490988 0.00258824 -4.62631e-22)
(-0.00963171 -0.00433407 -6.78898e-21)
(-0.0213269 0.031648 0)
(-0.000318362 0.0118589 -9.84739e-21)
(-0.108396 -0.0206579 -2.02874e-20)
(-0.000989141 0.00173451 0)
(0.00180427 0.00911197 0)
(0.103516 0.0140571 2.09757e-21)
(-0.000241139 0.00192573 0)
(0.00974055 0.0222522 2.01944e-20)
(-0.00267816 0.0133658 -6.79688e-21)
(0.00169471 0.00527055 4.82804e-21)
(0.0380305 -0.0098499 6.01147e-21)
(-0.314415 0.591285 -4.10207e-20)
(-0.000233598 0.00212572 2.77788e-23)
(0.062964 0.0138286 -1.83568e-21)
(-0.0176099 0.0174246 0)
(-9.32781e-05 -0.000344606 3.73373e-21)
(0.0699968 0.0150111 -1.46474e-20)
(0.0428067 0.00792803 2.53867e-21)
(0.0132535 0.0218054 -5.15885e-21)
(0.0560727 0.014497 -4.72628e-21)
(-0.0230856 0.00354675 -1.32745e-21)
(0.000193713 0.0065465 6.70318e-21)
(-0.00195086 0.0135784 -3.60694e-20)
(0.0275734 0.0208251 -4.09374e-21)
(0.0326214 0.013803 -9.46228e-22)
(0.017156 0.0164921 -9.61981e-22)
(0.0719411 0.0162637 1.15237e-20)
(0.00124777 0.0166542 4.61759e-21)
(0.000832261 0.00651839 0)
(-0.0394083 0.00668546 -4.93091e-21)
(-0.00859878 -0.00241055 0)
(0.013629 0.0580186 -2.10735e-20)
(0.0273072 0.0185006 5.46551e-21)
(0.0666631 0.0039763 0)
(0.00232503 0.0104977 0)
(0.00362693 0.0218024 1.21373e-20)
(-0.00147346 0.00449314 -9.92688e-21)
(-0.0106656 0.0167679 6.80347e-21)
(0.0665968 0.0135867 1.58386e-21)
(-0.00763794 6.57306e-05 0)
(5.47579e-05 0.00225543 0)
(-0.017763 0.0291675 9.21559e-21)
(0.0268591 -0.0163086 0)
(0.0800824 -0.0119913 -1.61746e-23)
(0.0600082 0.0133087 0)
(-0.0217255 0.00520505 -1.85086e-20)
(0.01062 0.00633065 3.0078e-20)
(0.0613534 0.0306001 0)
(-0.0071806 0.00632074 -6.31813e-22)
(-0.00954183 -0.000310475 0)
(-0.011835 0.0535909 0)
(-0.000618112 0.00230138 -2.31736e-21)
(0.00136691 0.0095052 -3.60419e-21)
(5.85889e-06 0.000123632 8.20326e-22)
(-0.0174866 0.0158052 0)
(0.0264401 0.00799878 2.38396e-21)
(0.00558687 0.0151368 -9.75795e-21)
(-0.000236106 0.016167 2.97979e-21)
(-0.00784439 0.063072 -8.07043e-22)
(0.00446793 0.00947288 -8.84491e-22)
(0.000244086 0.00250634 -3.05396e-21)
(-0.0042184 0.00776509 -1.36904e-21)
(0.0594182 0.0323307 -8.88717e-22)
(-0.0280349 0.0229688 3.22892e-21)
(-0.0141623 -0.0100018 -1.24895e-20)
(0.0263619 -0.0273848 -7.25846e-20)
(0.0657161 0.0084569 -2.98938e-21)
(0.0280962 0.0183423 -4.30406e-21)
(-0.00800438 0.00216118 0)
(-0.0019555 0.00709497 0)
(-0.107849 -0.0235169 -8.30063e-20)
(0.066537 0.0143126 2.3237e-20)
(-0.00278471 0.000270327 1.4277e-20)
(-0.0432527 -0.00111344 2.16468e-21)
(-0.00106862 0.000181403 -3.11135e-22)
(-0.00446892 -0.00158561 -9.09803e-21)
(0.0595374 0.012592 -1.7202e-20)
(0.0842492 -0.0209711 -3.50651e-21)
(9.69802e-05 0.0024736 2.42635e-21)
(0.0376736 0.0439107 5.31725e-21)
(-0.0482834 0.110218 0)
(-0.00415668 0.0388738 -8.4339e-21)
(0.060625 -0.0423595 -1.98662e-21)
(0.0225335 0.0380856 1.43056e-21)
(0.0684995 0.0153661 1.45838e-20)
(-0.0296382 0.0334493 1.89026e-20)
(-0.000181419 0.0024505 0)
(-0.000298331 -0.023458 7.6266e-21)
(0.000239295 0.00415883 0)
(0.0608124 0.0131936 -2.75274e-21)
(0.0407066 0.0240052 -1.07698e-20)
(0.0159585 0.0426026 4.06457e-21)
(0.0483883 0.00174822 0)
(0.000831513 0.00578506 -7.01903e-21)
(0.00731292 0.00333094 0)
(0.00131015 0.00773261 0)
(-0.00264648 0.0100251 -2.37088e-22)
(-0.00214532 -0.00725696 -8.14572e-22)
(0.0326035 0.028578 1.26943e-21)
(-0.0077387 -0.000480623 -8.06723e-21)
(0.0731063 0.00384949 -7.72047e-21)
(0.0638424 -0.00995556 3.4894e-23)
(0.00043599 0.00518122 6.53871e-22)
(0.078414 0.00335712 0)
(0.0674189 0.0063099 0)
(0.0703477 -0.0441331 0)
(-0.000164815 0.000496429 5.56527e-22)
(0.000378299 0.00209897 -3.04282e-21)
(-0.00418913 0.020057 -2.71243e-20)
(0.00164013 0.00763591 3.77489e-21)
(0.0204012 0.0312708 -4.75257e-21)
(0.0760897 0.017525 -1.13095e-20)
(0.0354283 -0.0470481 5.73014e-20)
(-0.0213097 -0.000746299 -2.23418e-20)
(0.00735996 0.0486943 -1.27205e-23)
(0.08248 0.0182499 -3.05884e-21)
(-0.000408218 0.00689724 0)
(-0.0106155 0.0249993 4.64164e-21)
(-0.00408819 0.0101352 0)
(0.0139909 -0.0117634 -1.37655e-20)
(-0.00332878 -0.00473423 -1.23236e-23)
(-0.000374338 0.0151324 -3.89597e-21)
(-0.00151748 0.00349136 6.87985e-21)
(0.106227 -0.000975593 -1.39656e-21)
(-0.00719865 -0.00145522 -3.49212e-22)
(-0.022138 -0.0267562 -2.30569e-20)
(-0.0228755 0.0189204 -1.28953e-20)
(0.00776308 0.00282639 -1.31437e-21)
(0.0405879 0.011504 2.79912e-21)
(0.00747147 0.020539 0)
(-0.00731926 -0.0037662 -1.13246e-20)
(-0.010498 -0.00493689 7.52014e-21)
(0.0795738 -0.0106451 0)
(-0.0215983 -0.00681627 0)
(0.0438106 0.03747 1.60677e-21)
(-0.00570817 0.000174175 -1.9446e-21)
(-0.00355459 0.00979267 5.09664e-22)
(7.91634e-05 -0.000444585 1.67524e-21)
(0.0523991 0.0207974 5.5216e-21)
(-0.00591885 -0.027516 0)
(-0.000830726 0.00313939 -1.06462e-21)
(-0.0015349 0.000302042 -1.07872e-20)
(0.00436512 0.0214555 0)
(0.00023306 0.00205261 3.9045e-21)
(0.000487771 0.0103911 4.07989e-21)
(-0.00663848 -0.000773176 0)
(0.0432849 0.0215854 0)
(-0.0398043 -0.0103309 -1.54959e-21)
(0.0389187 0.0171894 0)
(0.0413793 0.0492548 0)
(0.0575857 -0.0174992 0)
(-0.00439077 0.00510136 3.12043e-21)
(-0.0284945 -0.025207 0)
(-0.0541062 -0.0102906 0)
(0.0547581 0.0147691 2.28838e-21)
(0.0263624 0.00987449 -4.78578e-21)
(0.0365532 0.0249302 1.68838e-21)
(-0.00207624 0.000359048 0)
(-0.00188532 0.0195356 0)
(-0.0311579 0.0369392 4.30192e-22)
(-0.0194426 -0.0287934 -7.33931e-20)
(-0.00647942 0.0251429 -2.22878e-21)
(0.0366364 0.0212684 0)
(-0.0190587 0.013182 0)
(0.0796588 0.0191079 8.564e-21)
(-0.00321889 0.000889595 0)
(0.0405113 0.0242137 6.54725e-21)
(-0.00387229 -0.00427319 -3.72658e-21)
(0.071079 0.0175229 0)
(0.0623239 0.0137926 -6.80381e-21)
(-0.00435201 -0.00439402 1.51774e-20)
(-0.00782398 0.0390002 -5.25794e-21)
(0.0260027 0.0272168 -3.91171e-21)
(0.0715624 -0.000397352 0)
(-0.00716517 0.0121785 -1.43302e-21)
(-0.00188769 0.00334545 0)
(-0.00310178 -0.00548969 0)
(-0.000492091 0.00151824 -4.83028e-21)
(-0.0044808 0.00148691 8.93241e-21)
(0.0822559 -0.00786395 8.70052e-23)
(-0.0152903 0.00393757 0)
(-0.00241177 0.00702553 1.91144e-22)
(-0.00301808 0.00862401 1.13e-21)
(0.0378345 0.0313243 0)
(0.118849 0.0123126 -1.98551e-20)
(-0.00198984 0.00768925 0)
(0.0682697 0.00226681 4.61149e-21)
(-0.0272356 -0.00704201 0)
(0.0286616 0.0122662 -1.30775e-20)
(0.0232414 0.00905745 2.39372e-21)
(0.0527824 -0.0151921 1.05334e-21)
(0.013185 0.0420086 7.31381e-21)
(-0.00594976 -0.000725478 0)
(0.0323997 0.0282187 4.60824e-22)
(-0.0947417 0.02568 2.62395e-20)
(0.00658308 -0.016506 0)
(0.0129492 -0.0111389 -5.82109e-22)
(0.0225318 0.0384595 1.31444e-21)
(-0.0592206 0.00279702 -8.40774e-21)
(0.00179544 0.0336796 1.02084e-20)
(0.145209 -0.0204975 2.78348e-21)
(0.000487036 0.0121373 1.67021e-20)
(-0.00573992 0.00114201 0)
(-0.0248522 -0.0127265 -6.24631e-21)
(0.0382403 0.0198901 1.3243e-20)
(0.00494149 0.0637257 0)
(0.0328877 0.0283136 0)
(-0.0127479 0.0150166 -6.27575e-21)
(-0.000441745 0.00128142 1.03462e-21)
(-0.0156984 0.0439694 -3.69433e-21)
(0.000356873 0.003034 -3.60202e-21)
(0.00826148 7.4555e-05 5.95254e-22)
(-0.0228739 0.0253238 1.35763e-21)
(-0.0364615 0.000846827 9.27314e-21)
(-0.0140273 0.0583544 1.16819e-19)
(0.00188641 0.0018583 -5.19298e-22)
(0.0340908 0.0135126 -3.01188e-21)
(0.0667351 0.00444284 -1.09095e-20)
(-0.11788 0.00978643 3.86687e-20)
(0.0674409 0.0946824 0)
(-0.00517873 0.00395553 -2.8082e-21)
(-5.76114e-05 0.000366471 5.05743e-21)
(0.0245316 0.0358399 5.69385e-21)
(0.00171231 0.001911 4.54659e-22)
(0.0396986 0.0240551 6.07991e-21)
(-0.0267757 0.018472 6.0039e-21)
(0.000619732 0.0202479 -7.86663e-21)
(-0.0151714 -0.00549815 -1.43547e-20)
(-0.00935682 -0.00228095 9.32897e-21)
(0.104411 0.00137579 1.33962e-21)
(-0.0173952 0.0923038 0)
(-0.00495636 0.0037434 0)
(0.0711123 0.0153247 0)
(0.0711685 0.0155536 -1.91686e-20)
(-0.000340211 0.00141426 -4.3401e-22)
(-4.83318e-05 0.000580535 -3.35144e-21)
(-0.256788 0.15848 -3.09427e-19)
(-0.00278361 0.00114205 -8.45998e-21)
(-0.0488498 0.548565 2.56571e-18)
(-0.0321845 0.081081 0)
(-0.000104172 0.000194573 -3.33604e-21)
(-0.0069394 0.0218375 1.14147e-21)
(-0.0117084 0.00816667 -7.77873e-21)
(0.00165012 0.0389697 -1.16332e-20)
(0.0299988 0.00908522 2.14178e-21)
(-0.0163841 -0.00612827 -5.93475e-21)
(0.0348084 0.0167152 0)
(-0.00750067 0.0107394 -6.68853e-22)
(0.0805854 -0.00831394 -1.11421e-22)
(-0.00102215 0.00235729 2.09087e-21)
(-0.00301436 0.0200145 -1.95097e-20)
(0.00233187 0.00565437 9.29006e-20)
(0.0755021 -0.0283529 0)
(-0.0112086 0.0340804 -1.03737e-20)
(-0.0114174 0.00370459 -1.6167e-21)
(-0.00666547 0.018753 4.2904e-21)
(0.00148006 0.0106228 -7.10801e-22)
(0.0647668 0.0102464 0)
(-0.0243187 -0.0318721 2.46148e-20)
(0.0725129 -0.0111939 0)
(-0.0417203 -0.0115273 1.83284e-21)
(-0.0204278 0.0423361 -6.12858e-21)
(0.00752619 0.00450165 7.526e-22)
(0.0707519 0.015388 0)
(0.0458997 0.0152664 0)
(-0.00115905 0.00251138 -1.93904e-21)
(-0.0295274 0.0358053 0)
(-0.0159624 0.0133069 0)
(-0.0405272 0.0326175 -2.13702e-20)
(0.0395094 0.0243306 -5.22796e-21)
(-0.0129 -0.00191457 -6.99687e-21)
(-0.0121183 0.00440182 -4.0795e-21)
(0.000245369 0.00151127 0)
(-0.170554 -0.18432 -1.49296e-20)
(-0.0205187 -0.00364159 4.18341e-21)
(-0.0344043 0.0153437 -5.70099e-22)
(1.3991e-05 4.37917e-05 -1.01649e-21)
(0.0253357 0.00640702 3.32792e-21)
(-0.00673785 -0.000690341 0)
(-0.0374407 -0.00206667 0)
(0.00719655 0.0402852 8.21831e-21)
(0.029947 0.0331313 0)
(-0.0182036 0.001551 9.09871e-20)
(0.000508978 0.00590456 1.33974e-21)
(0.0370922 0.0114163 1.4693e-21)
(0.0293067 0.0902375 3.39044e-21)
(0.0312599 0.00914214 -8.13499e-22)
(0.00303864 0.00220745 6.80009e-22)
(-0.00939658 0.0126986 0)
(0.0340716 0.0275924 0)
(0.0295721 0.0104885 -1.15781e-21)
(-0.00477428 -0.00183502 -2.47775e-22)
(-0.00316084 -0.000446236 -1.84692e-20)
(-0.000927785 0.000231578 -2.65434e-21)
(0.0247454 0.0111131 0)
(0.0339944 0.012938 1.70108e-21)
(0.0753687 0.0170276 9.58678e-21)
(0.00621537 0.0130648 -6.00411e-20)
(0.0395483 0.0301703 3.09455e-21)
(0.00538124 0.00301213 0)
(-0.00164247 -0.00473575 1.95554e-21)
(6.56161e-05 0.0307581 7.19797e-21)
(-0.00312754 0.0110207 0)
(0.0212342 0.0321819 5.6432e-21)
(-0.0372702 -0.00297865 2.74339e-21)
(0.0239775 0.0363512 -8.72947e-20)
(-0.00951174 -0.0136701 -1.95184e-20)
(-0.0518512 -0.0526394 0)
(-0.00513086 0.00247764 2.47015e-21)
(0.0158021 0.0433918 -4.14715e-21)
(0.147965 -0.0644467 3.47592e-20)
(0.0658023 0.00722609 0)
(-0.00113145 0.0332331 1.90599e-21)
(-0.000182506 0.000214486 1.63974e-21)
(-0.00264494 0.00118288 0)
(0.0678321 0.0149852 3.57941e-21)
(-0.00702248 -0.00106506 5.53221e-21)
(-0.00672579 0.000198564 7.52516e-21)
(-0.0162077 0.0312959 -2.31545e-21)
(0.0543162 0.0238529 5.16751e-21)
(0.00135843 0.00350103 2.92291e-21)
(-0.021279 0.0158298 -1.44824e-20)
(-0.00051488 0.00856863 2.62043e-22)
(0.00424718 0.00401937 -1.69645e-22)
(-0.0156548 0.00389234 -5.34387e-21)
(0.00106328 0.00377424 -3.97586e-21)
(0.0450206 0.0171981 -3.96899e-21)
(0.00246157 0.00122383 0)
(0.0369733 0.0108962 -3.2173e-21)
(-0.038342 -0.00444948 0)
(-0.00747398 0.00147642 1.67539e-20)
(0.031459 0.0171922 3.3418e-21)
(-0.000714229 0.0495268 -7.10804e-21)
(-0.0364159 0.00430577 0)
(-0.0175719 0.00564541 0)
(0.0510898 -0.00300218 -3.63636e-21)
(-0.00527164 0.000594483 5.64121e-21)
(-0.000495319 0.00191097 2.9512e-22)
(-0.0001178 0.000763588 7.42402e-23)
(-0.000483604 0.00315505 3.94138e-22)
(0.00709524 0.00226176 1.00314e-20)
(-0.00332059 0.0447788 0)
(0.0419968 0.0111244 5.3578e-21)
(0.0415374 0.0447132 0)
(0.039209 0.0111337 -5.79221e-21)
(0.000283166 0.0216728 8.11134e-21)
(0.0662921 0.00546057 0)
(0.0649951 0.010794 0)
(-0.0059451 -0.0020461 5.7805e-21)
(-0.0192065 -0.00806447 0)
(0.0326622 0.0214592 -4.01627e-22)
(0.0330179 0.0204116 -7.47195e-21)
(0.000160783 0.00128113 0)
(0.00141433 0.03073 0)
(0.030696 0.00865872 1.09972e-21)
(0.00596795 0.0389821 -9.16936e-21)
(-0.0183814 -0.00562932 -2.26018e-20)
(-0.062277 0.00102365 0)
(0.0141973 0.0462591 1.75088e-20)
(0.0842436 0.0169403 -7.25756e-21)
(-0.0628369 0.048717 0)
(0.0273199 0.0332603 7.85106e-21)
(0.0784962 0.0164739 -7.94618e-21)
(0.0218149 0.0352083 -9.93211e-21)
(-0.0355844 -0.000681335 -7.39077e-21)
(0.0146427 0.00165256 1.00495e-20)
(-0.00518201 0.00341116 -3.00884e-21)
(0.0002861 0.00342299 -3.86068e-21)
(0.0379002 0.020427 0)
(0.000278952 0.00158396 -7.44492e-21)
(-0.00871736 0.00938613 0)
(-0.0339335 -0.0018246 1.51854e-20)
(-0.0208781 -0.00602919 -3.09718e-20)
(0.0305233 0.0578153 1.90236e-20)
(-0.00417788 0.00178689 1.20005e-20)
(0.000552696 0.00296565 7.69764e-21)
(0.081095 0.0267405 -1.84834e-21)
(-0.000252026 0.0144205 5.91624e-21)
(-0.00358413 0.0009082 2.38692e-20)
(0.0100058 0.00390994 3.39728e-21)
(0.0560158 0.0252349 2.11836e-20)
(0.00844528 0.00340183 -1.66485e-21)
(-0.00841056 0.00809297 -8.05947e-21)
(0.0496541 -0.00314745 1.05636e-20)
(-0.00257963 0.0166454 7.17729e-21)
(0.071031 -0.0122086 0)
(-0.00688566 0.000999174 1.51309e-20)
(0.0851581 -0.0173512 2.36628e-20)
(0.00441049 0.0221989 -5.10518e-21)
(-0.00545952 0.00151813 -8.34909e-21)
(-0.00876723 0.00313548 -8.78548e-21)
(-0.0174025 -0.0042759 -1.06979e-20)
(0.00301229 0.0168225 0)
(-0.00421643 -0.00137044 -2.32037e-20)
(0.0658799 -0.0133759 8.45439e-21)
(-0.0693068 0.166792 4.73043e-20)
(-0.0135465 0.0152985 1.71592e-20)
(0.0586741 0.0207246 5.41714e-21)
(-0.000790118 0.0176915 1.08867e-21)
(-0.00501753 -0.00420944 0)
(-0.00152748 0.00564332 4.50375e-20)
(-0.0254357 0.0439235 -9.44031e-22)
(0.0464988 0.0156919 0)
(-0.00548332 -0.004033 -2.71011e-20)
(-0.0135653 0.0235628 0)
(-0.0166013 -0.00848998 -8.39493e-21)
(0.0196825 0.0358519 -4.89657e-21)
(-0.00559658 0.00492901 -1.08857e-20)
(-0.00440237 7.73854e-06 -1.06091e-20)
(0.062215 0.0137175 0)
(0.0544374 -0.0150839 0)
(0.0208695 0.0101286 1.53571e-20)
(0.0169839 -0.0380303 -8.23399e-21)
(-8.61399e-05 0.000274826 0)
(-0.000745519 0.00288309 0)
(0.0329824 0.037738 -3.60183e-21)
(0.0474274 0.0117679 0)
(0.0318488 0.011528 0)
(-0.00188869 0.00102285 -3.39369e-21)
(0.000314491 0.00217827 0)
(-0.00234075 0.0124733 3.95003e-21)
(0.0005637 0.00478275 -3.65958e-21)
(0.0500134 0.00571797 0)
(-0.000909188 0.00441817 1.25424e-21)
(0.112024 0.0408332 -8.8433e-20)
(0.0448242 0.0109554 3.73806e-21)
(0.0611037 -0.0173098 6.05545e-21)
(-0.00456859 -0.00210137 9.5623e-21)
(0.04793 0.0132903 2.64381e-21)
(0.0462827 -0.00261309 -7.34559e-21)
(0.000545172 0.00618534 4.88401e-21)
(-0.0158949 0.0283183 2.4227e-21)
(-6.24369e-05 0.00872239 0)
(0.0603 0.0368733 2.61286e-21)
(-0.0066021 0.0224484 0)
(-0.00159404 0.00469747 7.8783e-21)
(-0.000470365 0.00229751 4.85985e-21)
(0.000214484 0.00324421 -2.77942e-21)
(0.0572214 -0.0130331 0)
(0.0309711 0.0490012 -4.11623e-20)
(0.0407989 0.00947767 1.32056e-20)
(0.000786761 0.00389359 -1.17511e-21)
(-0.00459693 0.00177792 7.58669e-21)
(-0.0411027 -0.00887931 3.39612e-20)
(-0.0219016 -0.0311695 -3.12474e-20)
(-0.0178369 0.0111712 1.76109e-20)
(0.0503543 0.00522875 1.42514e-21)
(0.00961381 0.00625144 -9.30787e-21)
(-0.00566902 0.005035 0)
(-0.000808665 0.00374838 -2.00037e-23)
(-0.0211553 0.00445005 2.8383e-20)
(0.0628662 0.013828 6.6261e-21)
(-0.0328801 0.00929037 7.08122e-21)
(-0.0241946 0.010479 0)
(-2.84673e-05 0.000696482 -5.43955e-21)
(0.0205988 0.0500878 4.75734e-21)
(-0.00166412 0.0262094 -2.89399e-22)
(-0.000802946 0.00244578 -1.36369e-21)
(-0.00423084 0.000148641 0)
(0.00210839 0.0177093 -2.11451e-21)
(0.0777496 -0.0473873 -1.77619e-24)
(0.000353379 0.00268152 1.64607e-21)
(0.0801429 -0.0555353 0)
(0.0964857 -0.032326 0)
(-0.000620588 0.00165185 8.81482e-22)
(0.0329143 0.0220789 0)
(0.0837328 0.0154352 6.68831e-21)
(-0.00490998 -0.00163212 7.62685e-21)
(0.00012232 0.0113642 -2.33154e-20)
(-0.00444683 0.00987241 0)
(-0.0314738 -0.00771324 1.8066e-20)
(0.0186004 0.0352603 7.4793e-22)
(0.0059303 0.03984 8.43862e-21)
(-0.0368317 0.00851606 -1.21513e-20)
(-0.00100562 0.00179661 -1.73776e-22)
(0.0628432 0.0336261 -1.20544e-21)
(0.0680706 0.0147868 -2.43858e-20)
(0.0483962 -0.0294462 6.62288e-21)
(0.0339382 0.012092 -4.36809e-22)
(0.00141871 0.0169222 0)
(0.00117351 0.00550337 3.51338e-21)
(-0.00859695 -0.0155982 0)
(-0.0205071 -0.00875545 2.12356e-20)
(-0.00181494 0.000145342 5.73874e-21)
(-0.00788135 0.00323118 7.86553e-21)
(0.0646926 0.0116736 -1.03508e-21)
(0.0225319 0.0298743 -3.20228e-21)
(-0.00544881 -0.00606605 1.42201e-20)
(-0.00200867 0.0148572 0)
(-0.0191214 0.0569811 -2.02448e-21)
(0.0398922 0.0225669 0)
(-0.000798429 0.00193748 3.59131e-21)
(-0.0019261 0.000990762 0)
(0.00378578 -0.00230379 0)
(0.119286 0.0101563 1.68636e-20)
(0.0114537 0.0122883 0)
(-0.0596693 -0.215965 -1.0915e-19)
(0.198721 -0.364069 2.65895e-20)
(0.0302681 0.0183875 -9.60239e-22)
(0.000183992 0.0141199 0)
(0.113536 0.0147515 -1.67049e-21)
(-0.0360901 0.00444432 9.71496e-22)
(-0.0043019 0.00619215 2.78444e-21)
(-0.0134469 -0.00942284 -2.1352e-21)
(0.0650589 0.0146195 0)
(-0.000952782 0.00324754 -4.51173e-21)
(0.0595334 0.0126312 0)
(-0.0134346 0.00750305 0)
(0.0625255 -0.00865057 -3.77063e-22)
(0.00886374 0.00390987 0)
(0.00438204 0.0147034 1.50581e-20)
(0.0325696 0.0184932 -6.07802e-22)
(-8.82068e-05 0.00762584 0)
(0.00259164 0.0333249 0)
(0.0546055 0.00838738 -3.85638e-22)
(-0.00301341 0.0198116 0)
(-0.0149952 0.00185819 1.71222e-21)
(0.0293904 0.0319161 0)
(0.0311497 0.0199182 -1.25839e-21)
(0.0239232 0.0358179 -8.83542e-22)
(-0.00480209 0.0283286 -5.85681e-22)
(0.0130282 0.0442546 5.84963e-21)
(0.0694032 -0.00367618 -4.18707e-22)
(0.0373413 0.0290587 -1.22782e-20)
(0.0414252 0.0148824 7.19033e-22)
(-0.00372267 0.00310873 1.02157e-20)
(0.142048 -0.0157798 0)
(0.0360777 0.0186483 0)
(-0.0125445 0.0399537 8.75261e-21)
(0.0366194 0.0230984 -3.24826e-21)
(-0.0109708 -0.00552928 -6.96018e-21)
(0.078406 -0.0514106 0)
(-0.0011167 0.00222877 -6.18409e-21)
(0.000460511 0.0133601 -8.50223e-23)
(0.0702591 0.0134944 3.63929e-20)
(0.0678504 0.0177451 1.23696e-19)
(0.0694743 0.0162739 -7.32198e-21)
(-0.00765292 0.00124975 0)
(0.00118574 0.00843828 -2.94413e-21)
(0.0633895 0.0144333 -3.33135e-20)
(0.062925 -0.0117169 -4.12001e-21)
(-0.00610117 -0.00225293 0)
(-0.00295131 -0.152402 0)
(0.0899312 0.0219511 3.84343e-21)
(-0.00111236 0.0117868 -1.85945e-21)
(0.0507394 0.00653535 0)
(0.0300915 0.020758 3.28988e-22)
(0.00213986 0.0100655 -6.9467e-21)
(-0.0496953 -0.00653867 3.16592e-20)
(0.0710916 0.0160355 -5.29785e-21)
(0.0276959 0.0329869 -9.63359e-23)
(-0.00241974 0.00200389 4.64232e-21)
(-0.00454781 0.00879191 0)
(0.0208717 0.00474915 0)
(1.77805e-05 -9.38812e-05 -1.2169e-22)
(-0.00334061 0.00327523 -5.54694e-21)
(-0.00360404 0.00045405 0)
(-0.00566993 -0.00277068 -1.28477e-20)
(0.0051571 0.013786 0)
(-0.0102315 0.00116541 -4.51408e-20)
(-0.00200267 0.014116 -1.89886e-21)
(-0.000264304 0.00205031 6.01169e-23)
(-0.00197127 0.00540604 0)
(-0.00477222 0.00133423 1.88766e-20)
(2.36251e-05 -9.06929e-06 -8.0659e-21)
(2.45751e-06 -0.000139289 -6.13131e-22)
(0.000548896 0.0104051 -4.16496e-21)
(0.0022107 0.0235056 -4.76072e-22)
(0.0085918 0.00859178 5.82981e-23)
(0.0100832 0.0124357 2.41905e-21)
(0.036086 0.0331859 -1.28286e-20)
(0.0566018 0.0237295 -2.80063e-21)
(-0.0128948 0.0272216 5.2894e-21)
(-0.000267812 0.0126778 -7.42883e-21)
(-0.00340923 0.00553155 -2.66945e-21)
(-0.0073449 0.00501324 0)
(0.00386245 0.0215117 -2.21785e-20)
(0.104688 0.013277 0)
(-0.0168304 -0.00410731 3.21714e-20)
(0.0600209 -0.0171443 3.28381e-21)
(0.00174782 0.00507023 -2.38726e-20)
(-0.0153179 -0.00533063 1.88393e-20)
(0.00870221 0.0505318 6.50542e-21)
(0.0072072 0.00751974 4.01202e-20)
(0.0629059 0.00923473 -4.42986e-20)
(0.0691499 -0.00267665 0)
(-0.00283958 0.00367713 0)
(0.0155404 0.0430065 0)
(-0.00076182 0.00218009 2.77343e-21)
(0.0570959 -0.0159306 -3.79847e-21)
(0.0667167 0.0150539 -4.49728e-21)
(0.0102836 -0.00762206 1.12927e-21)
(0.0727887 -0.0934495 1.00744e-19)
(0.0668553 0.01116 0)
(0.0678901 0.0136823 0)
(-0.0198186 0.0201566 0)
(-0.00281128 0.00704757 -2.14205e-21)
(0.00924465 -0.00947617 -8.74942e-22)
(0.00438438 0.0229838 1.28965e-21)
(0.0588887 0.0254126 -2.7826e-20)
(0.00157495 0.0136935 -6.22775e-21)
(0.0673473 0.014661 1.06697e-19)
(0.0270815 0.0334433 0)
(-0.000259317 0.00975696 3.02335e-21)
(0.000287959 -0.0043374 0)
(0.00657539 0.00869967 8.14855e-22)
(-0.0022244 0.00150527 2.45777e-21)
(-0.0130018 0.0189916 -6.16075e-21)
(0.0291584 0.0191033 1.97661e-21)
(-0.000395997 0.00414446 2.8431e-22)
(-0.0122488 0.010666 -2.76443e-21)
(0.0451425 0.00395248 6.15162e-22)
(-0.000468012 0.00137364 0)
(-0.143305 -0.0283472 1.5985e-19)
(0.0135216 -0.012468 0)
(0.0653624 -0.0104889 0)
(0.0238099 0.0368659 0)
(-0.141371 -0.159117 8.15379e-20)
(0.00562139 0.00763781 -2.41329e-22)
(0.0781177 -0.00424008 -4.62524e-21)
(0.00226519 0.0868487 -1.38206e-20)
(-0.00805445 0.067143 -7.53541e-21)
(0.0368749 0.0124676 9.49682e-21)
(0.00397633 0.00559506 -1.41845e-20)
(-0.0540261 0.0262628 0)
(-0.0328403 0.0248461 -6.77178e-21)
(-0.00525153 -0.00112779 -9.47762e-21)
(0.0826183 0.0065922 -1.02793e-21)
(0.0296045 0.00955997 0)
(-0.00233278 0.00101259 -1.46756e-22)
(0.0508599 0.0144542 0)
(0.0242805 0.00641797 0)
(0.00552125 0.0072223 1.54749e-22)
(0.0358096 0.0211767 -4.78128e-21)
(-0.00394062 0.0190805 0)
(0.00554933 0.0223238 4.51471e-21)
(0.0937779 0.0223485 -2.43151e-21)
(0.0667569 0.0131746 -6.63667e-21)
(0.00638404 0.0680366 3.48749e-21)
(0.00165682 0.00316651 4.26e-23)
(-0.0238569 0.0316073 -1.33446e-20)
(-0.104677 -0.010435 1.18205e-19)
(0.000198126 0.0170792 -9.22302e-21)
(0.0859994 0.0195298 0)
(0.00543387 0.012148 -1.24772e-20)
(0.0619462 0.00269454 -9.28545e-21)
(0.00191419 0.0256214 5.88181e-22)
(-0.0252646 -0.00367643 9.3069e-21)
(-0.013983 -0.00441062 0)
(0.000410007 0.00952838 6.18049e-21)
(-0.00903342 0.00519712 -7.3762e-22)
(-0.00370997 0.00455608 -5.07416e-21)
(-0.0626413 0.0206867 -4.75742e-22)
(0.0323808 0.0297547 0)
(0.126922 -0.00715647 6.5541e-20)
(0.0316809 0.0303111 2.82821e-21)
(0.0324084 0.0376172 -5.65694e-21)
(-0.0281101 0.0266814 -3.53878e-21)
(0.0066373 0.026222 -2.72234e-22)
(0.00337213 0.0129832 0)
(0.0647998 0.0140649 0)
(0.0349296 0.0129109 -2.25061e-19)
(0.00753916 0.00248913 -1.28983e-20)
(-0.00526662 -0.00476252 1.71096e-20)
(-0.00146688 0.0217774 1.15222e-19)
(-0.0390018 0.0323088 9.32467e-21)
(-0.000639043 -0.00879221 0)
(-0.00674153 0.00676384 9.62325e-22)
(0.0237901 0.0363182 1.80381e-21)
(-0.0097384 -0.00238066 0)
(-0.00221564 0.00129901 -1.25479e-20)
(-0.0162873 0.040972 -6.41437e-21)
(0.0311845 0.0205 1.36482e-21)
(-0.0115808 -0.00580089 -7.20758e-22)
(-0.0120695 0.0366013 -3.23739e-20)
(-0.000394465 0.00192874 0)
(0.032769 0.0195811 9.16183e-21)
(-6.60331e-05 0.00769728 7.87851e-21)
(0.0664226 0.00676119 -8.92984e-21)
(-0.0181196 0.00282398 -4.20454e-21)
(-0.00273072 0.00217739 4.58371e-21)
(-0.0193058 0.0347569 -4.86072e-22)
(-0.00700594 -0.00300945 2.3376e-20)
(0.000954659 0.0150342 -5.63927e-21)
(-0.0148775 0.00333311 2.78792e-21)
(0.0687337 0.0164 0)
(-0.0211791 -0.00888199 -2.95562e-20)
(0.0658622 0.014309 2.21932e-21)
(-0.00893986 0.000472339 0)
(-0.00211873 0.000949491 7.46838e-21)
(-0.00317431 0.00276711 2.77398e-21)
(-0.00438442 0.00303122 5.99575e-21)
(-0.00701543 -6.02137e-06 1.66435e-20)
(0.0817343 0.00873631 4.6457e-21)
(0.0360195 0.0119517 -3.08193e-21)
(0.0670399 0.0141687 -5.75571e-21)
(0.0810667 0.00919306 -2.09175e-21)
(0.0342636 0.0192537 4.97976e-22)
(-0.0116267 0.0275487 0)
(0.036092 0.00999181 0)