/*--------------------------------*- C++ -*----------------------------------*\
| =========                 |                                                 |
| \\      /  F ield         | OpenFOAM: The Open Source CFD Toolbox           |
|  \\    /   O peration     | Version:  v2012                                 |
|   \\  /    A nd           | Website:  www.openfoam.com                      |
|    \\/     M anipulation  |                                                 |
\*---------------------------------------------------------------------------*/
FoamFile
{
    version     2.0;
    format      ascii;
    class       volScalarField;
    location    "100";
    object      ddt0(k);
}
// * * * * * * * * * * * * * * * * * * * * * * * * * * * * * * * * * * * * * //

dimensions      [0 2 -3 0 0 0 0];


internalField   nonuniform List<scalar> 
13851
(
1.49686e-08
0.00425971
-4.88638e-07
6.57353e-09
2.87414e-08
4.26705e-05
2.30511e-09
-1.3639e-07
-5.61154e-09
-1.60482e-06
3.48302e-05
-0.0104005
-0.000537977
-0.0100802
1.44929e-09
5.06288e-08
-4.50856e-09
-6.06278e-08
-0.000418665
3.08544e-09
-2.75056e-09
-3.88558e-07
7.69709e-09
-5.75341e-10
7.13805e-09
-1.10987e-07
2.20285e-08
-0.000363483
5.15869e-09
-1.03851e-08
7.8075e-05
1.35912e-08
-4.80642e-07
-0.00371156
6.52488e-10
6.41757e-07
0.000203614
0.000135948
-1.98327e-06
-0.00193858
-3.25296e-09
-1.48188e-08
0.000470879
-1.14331e-05
-0.00149899
-0.0156618
-0.000409962
-0.000808883
2.67024e-08
-0.00024841
4.70858e-08
-3.59365e-07
-6.42755e-05
-3.49026e-09
1.5519e-09
9.62456e-09
-8.18141e-09
0.000428897
-2.02782e-08
-5.09367e-08
0.00020953
-0.00393682
8.13391e-07
6.89557e-08
0.0052395
-4.35058e-09
0.000233574
0.000189099
9.07592e-09
-5.9316e-08
2.44513e-05
0.000248523
0.00350611
-4.4629e-09
4.17265e-10
-1.84757e-09
-3.94232e-07
8.23205e-05
-2.51851e-08
1.92316e-05
-1.84307e-08
0.000269912
1.0439e-09
-0.00970556
-1.30974e-07
-0.01043
1.94175e-06
-0.00201154
-2.96235e-09
-2.07598e-08
6.56063e-07
-2.12331e-06
0.000540277
-3.01099e-08
-3.12065e-08
-9.69849e-08
8.59755e-09
-0.000407453
-0.000859523
6.03179e-08
0.00701755
-1.68949e-08
-5.96278e-09
-4.69143e-09
1.38383e-08
-6.86515e-06
-9.45271e-09
-2.59421e-09
0.000219025
8.09747e-05
2.55769e-09
-5.44945e-09
1.14506e-06
1.06522e-08
2.16258e-09
0.0017689
-0.000490435
-3.70998e-09
-4.96666e-11
1.8333e-09
0.000785065
-4.85441e-09
-0.00060472
0.00592783
-0.000151953
1.29891e-07
-0.000128326
-1.81161e-08
-8.47184e-09
-4.50017e-07
-1.80335e-09
1.29938e-09
3.11183e-05
1.79443e-09
0.00599372
1.01947e-09
-2.23918e-09
0.000243328
-0.00141475
-0.011273
0.00597618
1.47203e-09
-5.85727e-10
-6.93368e-09
9.31782e-09
0.00067513
-1.30335e-05
-3.36781e-08
1.31705e-08
-0.00155611
1.19482e-07
-4.77575e-10
-0.00323709
-1.40104e-08
-1.64707e-08
-5.36398e-09
-1.90985e-09
-4.88926e-09
-3.4454e-07
2.19116e-08
1.56355e-08
7.47604e-08
9.4423e-05
-5.50673e-09
1.0497e-08
-8.51278e-09
-4.06024e-05
3.92434e-08
1.14947e-08
-0.000334964
6.79375e-05
2.00857e-09
2.93219e-09
-0.0131666
1.65688e-09
-0.000944245
-1.91e-08
-5.14707e-10
-0.000467851
6.46312e-09
-1.69656e-08
0.000246235
-6.49026e-09
-3.71478e-07
2.18383e-09
-5.80653e-09
9.76592e-09
2.18172e-09
-3.97625e-08
-2.89453e-06
8.60368e-05
-6.80523e-05
4.02717e-09
-4.81046e-08
-0.000773385
6.44895e-09
-8.68497e-11
0.00129881
-6.58696e-09
-7.20836e-09
1.14399e-07
-0.0249758
5.25761e-09
1.10438e-08
-5.46175e-07
-1.14042e-08
0.0227458
1.1489e-08
7.4352e-05
-1.28976e-08
7.73848e-05
6.59531e-09
0.000667026
1.74122e-08
-1.11686e-08
-0.00131938
-9.03222e-07
-0.00870851
-4.83726e-09
7.58923e-05
5.20507e-10
-1.10597e-08
-0.000218366
-3.10947e-07
0.000101981
1.20273e-08
-2.5867e-08
1.48838e-08
0.000846961
1.40554e-08
-1.25701e-07
0.00231503
-4.19395e-09
7.22322e-09
-5.56392e-08
-2.00616e-07
0.0269401
0.00514925
-1.02186e-08
1.08079e-08
4.63547e-05
0.000409075
1.57099e-08
-1.53236e-06
5.72423e-09
8.60981e-05
-4.06914e-09
0.00159827
-2.15625e-08
2.89855e-09
-1.0381e-07
0.000245798
-1.39149e-08
-1.56549e-08
2.20857e-08
-0.00799395
-1.44856e-06
0.000243169
0.000117414
9.57952e-09
-1.83942e-08
-5.82341e-08
0.00722015
-2.7218e-08
-0.000547178
8.52334e-09
-2.1984e-08
-9.13016e-09
-0.000241967
1.29785e-05
9.99783e-09
-1.11514e-08
0.00309008
-2.49371e-08
4.26093e-08
5.06698e-09
0.000393833
-0.000108845
0.000112245
-0.000768513
1.78955e-08
-1.89679e-08
8.83007e-09
2.98566e-08
0.00538084
-0.0028112
-1.0147e-09
9.65363e-09
0.00223178
0.000110245
-1.24409e-06
-4.23818e-09
1.89036e-07
-2.70146e-08
5.56119e-05
-0.000559167
-1.75472e-09
-0.0130003
1.13737e-08
8.71714e-05
4.6643e-08
-9.99473e-09
0.000118301
-3.82819e-09
-4.0219e-06
1.88017e-06
-4.95065e-09
1.34028e-08
-3.14989e-08
-1.19996e-08
0.00359511
-1.8486e-09
-8.17779e-09
-0.000299926
5.48019e-09
1.73598e-08
2.40291e-07
0.000128286
-2.61182e-08
-7.3502e-09
-2.25484e-08
9.57528e-10
0.000138751
3.19639e-07
4.15913e-09
-4.78883e-09
3.59364e-09
-8.01438e-08
-1.03794e-08
3.61177e-09
-1.0578e-08
3.20201e-09
-0.000863324
0.0145851
-0.000372087
-7.23699e-08
0.000132066
0.00278624
-6.22056e-09
-4.75303e-08
-4.35065e-08
-1.56599e-06
2.81142e-07
-5.94963e-08
-0.000438275
1.12738e-08
0.00243847
5.45701e-05
3.585e-09
0.000211908
0.000255163
0.00242911
2.34252e-09
-1.08835e-06
0.000790231
8.8115e-09
8.8523e-05
-2.68496e-09
-1.26154e-09
2.52905e-09
-2.55745e-08
-5.54827e-09
5.26107e-05
-0.000102902
-3.71647e-09
3.00606e-08
7.88275e-09
-0.0145163
2.35002e-07
-0.00727536
-0.000302293
-1.828e-09
-1.11951e-06
6.98064e-08
-0.00685307
2.9781e-09
-2.66019e-09
1.50779e-07
0.0066351
-3.51334e-10
0.00545783
6.893e-07
-1.95964e-07
-0.0015741
0.00145908
0.00114172
-8.88719e-08
4.02206e-09
1.9094e-10
-3.35236e-08
-7.28293e-09
-0.0124637
4.3709e-08
0.000109258
2.17928e-05
5.78436e-09
1.33228e-08
-0.000892866
3.02598e-05
0.00131069
-0.000500722
2.61142e-07
3.78666e-08
-7.24958e-09
0.00228013
4.53146e-09
3.18765e-08
-5.4817e-08
-1.87004e-08
1.1972e-08
-1.65362e-10
-3.45112e-08
1.7049e-08
6.78458e-07
0.00022824
-7.87844e-08
-1.00947e-08
1.35702e-07
0.00169819
1.57665e-08
0.00256549
-1.6125e-08
-0.00261938
-1.89975e-09
4.46311e-09
-1.78726e-08
0.000970308
0.00145325
-1.80864e-07
1.82113e-07
0.000211281
-0.00483796
3.10761e-06
5.29102e-10
-9.3526e-08
1.90552e-09
0.00158812
6.04204e-09
0.00236642
0.00152274
-5.19816e-07
7.49088e-05
-8.69189e-09
-0.000419805
0.00119196
0.00627372
4.64707e-09
1.86438e-08
-1.58253e-08
3.00195e-05
3.11834e-10
1.15874e-08
1.10688e-07
-2.9304e-07
-2.49177e-07
0.00153833
-4.66292e-09
-3.25533e-09
0.000134186
1.75199e-08
-1.56582e-08
0.00339836
1.64422e-09
1.84687e-08
-1.4854e-09
3.50822e-07
-8.23899e-10
-1.83088e-08
-8.90476e-09
-0.000379668
-2.5544e-09
2.54137e-08
-1.5681e-09
-8.88847e-08
-0.00150957
1.05038e-08
-3.31946e-09
4.66449e-09
7.42278e-09
0.000197604
9.99572e-09
9.28468e-06
-1.98418e-08
-8.2289e-09
0.00165238
7.19824e-05
-2.66349e-09
-2.46055e-07
2.56044e-08
-0.000153271
-0.0108203
-2.69317e-09
-0.000277517
1.80835e-08
-8.74581e-08
6.41957e-10
0.000616918
1.89597e-09
0.000127934
-8.4968e-07
-1.88925e-08
3.28585e-08
-3.99087e-05
-6.96e-08
-0.000251045
-1.97614e-09
0.00314169
1.69022e-10
1.09763e-08
-7.41055e-09
-9.71628e-11
3.84262e-05
-4.08712e-08
-1.17453e-07
-0.000279658
-1.87644e-06
1.14774e-08
-0.000664974
0.000787152
-3.56181e-08
7.27395e-08
-0.000364823
0.00543566
8.56068e-05
2.54332e-09
0.000537164
-0.0178324
-0.0166123
-3.30984e-09
-8.55361e-07
-0.00152076
-0.00041859
-0.0102283
0.00161189
0.00186347
7.30082e-09
0.002105
0.000154191
4.74056e-09
-7.1378e-05
-9.35764e-09
6.39022e-05
-2.04719e-08
5.43441e-09
-8.61184e-09
1.15014e-08
-9.20039e-08
-4.14225e-09
-0.00164606
0.00274816
1.88641e-09
0.000416135
8.70885e-05
3.75751e-05
0.000928512
2.13924e-08
-1.74146e-08
-6.67906e-09
-0.000110455
-0.000662062
-1.91179e-08
3.41814e-08
7.37205e-07
3.81524e-09
7.17568e-07
0.00378735
0.00152512
-8.24788e-08
4.25404e-05
0.000180202
6.33414e-09
-2.2681e-08
0.000487428
1.26746e-05
-2.66746e-08
2.55186e-08
-6.88556e-06
-1.12685e-08
-3.56008e-09
0.00229071
1.33811e-08
-9.40406e-09
1.10338e-08
-5.93964e-09
0.000146025
-4.5056e-08
1.99716e-08
1.13367e-08
0.00903927
0.00144762
-3.81176e-09
-4.53509e-09
2.495e-08
2.47822e-09
0.00620983
0.00164145
0.00131109
-0.00768389
0.00101123
3.80042e-08
5.33505e-05
7.04574e-05
2.71109e-08
4.01093e-09
-1.13127e-08
2.60368e-07
4.96262e-08
-0.000545063
0.00381168
2.87768e-08
7.55526e-09
-8.26461e-09
9.5517e-08
1.5749e-09
6.4663e-05
-3.13368e-08
-1.10857e-08
-1.22376e-07
-4.50026e-09
-3.3056e-08
-2.50521e-07
1.50605e-08
-1.60557e-08
2.18477e-07
3.60785e-10
-2.51821e-08
0.000597167
-2.30747e-07
1.54301e-07
-1.05137e-07
-4.73369e-09
0.000122303
-5.11121e-08
-0.00255177
-1.86078e-08
1.90144e-09
0.000228529
1.04575e-08
-0.00229126
6.96848e-05
-0.00305858
0.00541078
-8.83824e-09
0.00024644
4.8166e-08
9.929e-10
2.59588e-09
-1.92939e-09
-1.38665e-06
-7.21429e-08
2.37427e-07
1.01574e-08
0.00586803
-1.93217e-06
0.00768173
9.62147e-09
1.80993e-10
6.67517e-09
-2.32287e-07
0.00382167
1.54045e-08
-4.14916e-08
1.32005e-07
-8.38619e-09
2.00113e-09
-4.58219e-09
4.5296e-05
-0.00106424
-6.11212e-09
1.37244e-09
3.40478e-08
-3.76233e-09
0.00232561
-0.000247692
9.44461e-08
-0.000255701
0.00434043
-6.00525e-09
-5.90071e-08
0.00638203
-7.08301e-09
-0.00806826
-1.32645e-08
-5.69714e-08
1.56988e-08
-6.89264e-08
0.000510161
-1.68631e-08
0.00154498
3.92186e-09
-2.13316e-08
7.65726e-05
1.09324e-09
1.19263e-08
-1.25342e-05
1.25501e-08
1.27143e-08
0.00280136
-0.0187356
2.62222e-08
-0.000464108
0.00159161
2.86128e-08
1.38886e-08
-8.53142e-05
2.22656e-07
2.82236e-08
6.39157e-05
2.32322e-09
9.32281e-09
-5.21707e-10
-0.00160022
0.000202013
-5.24211e-10
7.7125e-09
-0.00121916
-2.3066e-08
5.52021e-09
7.90051e-05
-0.0169376
5.96259e-05
-1.67209e-09
9.80862e-10
6.12904e-05
-0.00086567
2.7217e-07
3.77387e-09
0.000167335
-3.22731e-09
-0.00127852
5.20432e-06
-4.95485e-07
-1.4384e-08
-0.0064471
-9.99405e-08
4.05553e-09
0.000171914
1.53269e-09
7.62426e-09
-4.19287e-11
7.76236e-09
-0.000631442
6.03509e-08
-8.21191e-08
4.62675e-08
-0.000181567
8.30549e-09
0.00609157
9.94962e-09
-3.9939e-08
1.95977e-09
2.5719e-09
-3.19587e-10
2.84896e-06
2.56714e-09
-6.17108e-09
0.00135532
-1.16753e-09
7.1985e-05
8.59864e-09
3.16748e-10
-6.6182e-08
0.00213293
0.000748377
2.18347e-09
0.00121629
-0.000369434
-1.14582e-08
-2.23453e-05
-3.29313e-08
4.57973e-09
5.34876e-06
0.000466201
0.000468667
-8.94914e-09
5.32929e-10
-4.24565e-09
0.000110532
-6.67096e-07
9.86607e-07
5.08156e-09
5.23055e-06
3.56667e-09
-2.2933e-09
-2.50068e-08
-0.000539745
-1.33042e-07
0.00551959
9.73093e-10
-1.00534e-07
-1.6122e-08
0.000136794
-2.26921e-08
0.0132353
-0.000257304
9.64817e-09
-0.00724485
2.18603e-05
0.000803099
-0.0179016
-0.000187705
-6.43308e-05
3.66986e-08
1.02053e-08
-4.26812e-09
0.000879416
-0.00910164
-5.51409e-10
-1.06427e-07
1.66871e-08
-0.000141985
6.22151e-10
-0.000510193
6.32166e-09
-5.78167e-09
-0.00051081
6.49687e-05
0.000988567
3.7783e-09
-7.62957e-09
-0.000824365
3.61343e-05
-7.38389e-08
6.16831e-09
0.000162132
0.00130118
0.0043779
8.53723e-09
1.59438e-08
9.42242e-09
4.36787e-09
0.00365233
-2.23695e-08
2.66255e-05
2.80611e-07
3.41579e-08
-0.00149086
0.000593342
8.71184e-05
-1.08561e-08
1.87816e-08
2.96912e-09
1.50699e-07
3.64763e-08
-0.00750052
1.09384e-09
6.67367e-05
-2.42841e-09
-1.00454e-07
2.61125e-09
0.000135625
3.51409e-08
4.08772e-08
-0.000302628
3.53911e-08
4.51288e-07
-4.78308e-10
-1.00038e-07
-0.00249146
-3.26443e-06
-1.33302e-08
5.9377e-05
-9.40165e-09
-0.0157443
-0.000477465
-1.17332e-08
8.28999e-05
0.00687007
7.70102e-05
0.000410571
1.88819e-07
9.89492e-10
7.77487e-05
-5.4749e-10
0.00536219
7.30185e-05
-6.54503e-09
6.81898e-09
0.000382865
0.000312331
0.00972837
6.88124e-09
3.14912e-09
-0.00844786
7.5586e-05
-9.67798e-08
5.25189e-09
-9.01979e-09
-0.00075292
-0.00192924
-2.82362e-08
6.43426e-09
-1.14815e-08
8.73121e-09
1.61961e-09
0.000894306
1.2307e-08
0.00266921
0.00362207
-4.62025e-09
-7.42526e-09
3.64414e-09
5.1875e-09
3.86339e-05
3.90842e-05
-4.96787e-09
0.0134102
-4.18241e-09
3.25567e-08
2.25433e-09
-4.78362e-09
6.21603e-09
2.40755e-09
5.85711e-05
-5.3466e-09
2.82493e-08
-1.40034e-08
-8.86367e-09
0.00103852
-0.000838059
5.49805e-10
0.0035413
9.04281e-07
-0.000122341
6.7682e-08
-3.99326e-08
2.5786e-05
-4.70649e-08
-1.30796e-07
-0.00886843
0.00406124
0.000965591
-5.15426e-08
-0.00181117
-8.50315e-09
2.79077e-08
-2.32175e-08
0.0102531
3.82831e-10
0.00201097
4.24712e-09
7.38036e-09
-0.0156688
6.16343e-08
-0.000553427
3.06565e-09
7.1668e-09
4.76328e-07
7.06538e-09
-2.16562e-09
2.21637e-07
-3.64758e-08
0.000106258
-6.66038e-09
2.85052e-05
-0.000874573
-1.08541e-07
-0.0178299
-6.49106e-09
-9.41522e-09
2.0769e-07
1.04711e-08
1.00235e-08
-1.96142e-08
-1.299e-08
-1.43653e-09
-1.23061e-08
2.44694e-09
8.88929e-05
-0.00178799
2.46409e-06
-0.000389663
9.46962e-05
-7.12729e-09
-0.00231205
1.44094e-08
-7.33202e-09
0.000574233
6.6497e-05
0.00397475
3.94425e-09
-0.000278041
-0.000252334
0.00126983
-6.89729e-09
-0.000622135
6.19649e-08
-2.91262e-08
2.92401e-07
2.19677e-09
0.00180274
1.35696e-05
-0.000776142
-4.32303e-09
-5.89715e-09
0.000118587
1.09232e-08
0.0024239
-0.000266633
0.00459018
-0.000427887
-0.00159347
-2.68896e-08
-1.06994e-08
-8.70146e-07
-1.04383e-07
-3.80294e-09
1.64304e-05
-7.04504e-08
-2.67487e-08
-1.05246e-08
0.000676432
3.05624e-09
0.000204057
-0.000208893
0.00658477
-3.14231e-05
7.90725e-09
-6.95249e-09
6.21894e-09
0.000500571
-4.20188e-05
6.43135e-09
2.12022e-08
-3.21201e-10
5.43536e-09
-7.60744e-10
-6.92111e-10
-8.81519e-09
-4.40798e-08
0.000184678
-6.03999e-08
-1.76793e-07
1.13395e-09
-2.05561e-08
-0.00043133
4.34777e-09
-0.00311
0.00256545
1.73584e-08
-4.9882e-09
2.65865e-08
-7.08758e-09
2.68601e-10
-4.72838e-09
9.23782e-05
-6.17231e-08
-0.000408163
-1.05079e-08
-0.0023899
-1.03151e-08
1.32212e-08
6.4695e-09
-0.00354077
0.00350452
1.42164e-08
-3.58983e-08
1.227e-06
5.96396e-05
7.78358e-09
0.00261096
-1.61237e-06
0.0155867
-9.31505e-07
-1.88159e-05
-1.50068e-08
-2.34889e-08
0.00129605
8.2551e-05
-0.000868795
-0.0253716
-5.26472e-09
2.68656e-06
-1.12644e-08
-2.06406e-09
3.87892e-09
1.69912e-09
7.89448e-05
1.00905e-08
-2.36694e-08
-0.000167901
-5.0934e-06
-1.23719e-05
3.29885e-09
-2.05099e-08
6.68395e-09
-1.3107e-08
5.94931e-09
-0.00652672
-0.00493483
0.00361709
-1.17774e-09
-3.38647e-08
1.64408e-08
0.00521032
-0.000582684
-9.01783e-07
7.30467e-09
-5.00379e-09
0.000155171
-8.35321e-08
0.00128609
0.00041163
1.0572e-05
-2.21268e-10
5.84286e-05
2.74418e-08
-2.19641e-08
-4.61637e-08
3.5627e-05
0.000157153
5.85754e-08
0.000170758
-1.84878e-08
-6.54179e-08
2.97343e-09
0.00151698
2.13602e-07
7.99367e-05
-0.000158876
1.59345e-08
2.29347e-08
8.8846e-09
4.15588e-05
2.5293e-05
-1.56957e-09
-0.00672514
7.61539e-05
-0.00892824
0.000214484
-2.21398e-09
8.97989e-09
4.74171e-05
-0.000255739
-0.000191957
1.45935e-09
-1.37305e-08
-7.32771e-09
8.14271e-05
-5.77956e-08
-3.96866e-08
1.65595e-05
-5.99463e-07
0.0259446
1.91659e-05
-0.00415301
-1.43842e-08
0.000167957
-4.03915e-08
-3.09623e-09
-1.01496e-07
0.000568321
8.3877e-09
-6.80622e-09
-0.000796618
-1.4974e-05
3.11317e-08
6.44667e-09
0.00192359
-1.40163e-10
0.000162369
-4.62662e-09
0.00456374
-6.01823e-09
1.72004e-08
0.00277067
-0.000549992
2.82432e-08
0.00115852
0.00290548
0.00708589
-0.000489604
0.016738
8.24328e-07
-1.6999e-08
0.0025998
2.66258e-09
-1.68574e-10
-3.04056e-09
0.00302822
-8.76707e-09
0.000172959
-3.29936e-09
1.44887e-08
0.000154811
-4.9614e-07
0.00274331
-9.46598e-09
-6.65091e-08
-7.3897e-09
4.06041e-08
0.000190729
0.00412012
7.58076e-10
-5.65887e-08
0.000285733
-7.97184e-09
-2.76938e-09
7.64209e-05
-2.80073e-08
8.94418e-08
-1.29687e-07
-0.0163102
0.00166598
0.000205147
0.00022505
-1.29426e-06
-0.00232834
-0.00030724
0.00551405
8.49838e-08
1.62271e-09
-2.58869e-08
1.78497e-09
1.21029e-09
0.00454664
7.72031e-05
-2.11812e-08
-0.00337952
3.47011e-07
0.000161396
5.55467e-05
-1.65368e-06
-1.908e-08
1.95752e-05
-0.000138435
-2.9149e-08
1.44209e-08
-1.39573e-05
-5.68678e-05
0.00353782
4.35363e-05
2.69881e-07
6.93104e-05
4.06453e-05
4.19446e-08
2.0746e-09
-4.94693e-09
0.000117291
5.64252e-09
5.7492e-05
1.37804e-09
2.69793e-08
7.91753e-09
-0.000605065
0.000141576
0.00269821
7.59297e-09
9.45491e-05
-2.95565e-08
5.8376e-09
-2.80872e-10
-8.73069e-11
0.000328439
1.40514e-08
6.86905e-05
-0.00111527
6.48907e-05
-3.44174e-08
-9.72557e-09
2.97941e-07
4.99554e-09
1.18948e-07
2.70749e-09
-5.98633e-09
7.17315e-09
-6.91172e-10
2.12791e-07
7.57263e-09
5.32797e-08
3.46945e-08
5.77312e-08
0.000321346
3.95414e-05
-2.717e-09
-1.91464e-08
1.43961e-08
2.46054e-06
8.58278e-07
0.000505921
-4.77387e-05
3.61039e-08
5.49528e-09
9.60062e-10
-3.33597e-05
1.05671e-09
-0.000784861
-1.89981e-09
-2.67972e-09
-2.35512e-09
-0.000224846
6.83057e-08
1.08457e-08
6.93682e-07
3.79548e-09
8.94329e-08
-0.000367357
-0.000396597
-3.94079e-08
8.41964e-09
-5.71127e-05
-1.11833e-09
-2.95804e-09
-1.78463e-05
7.03305e-05
7.07601e-09
1.97528e-08
5.80569e-05
0.000124561
-1.72461e-08
2.2308e-08
6.15026e-05
1.28172e-08
-0.000131536
8.28474e-05
0.00015403
-1.26356e-08
1.31748e-06
-8.05359e-09
9.48455e-05
1.00322e-07
-8.53168e-08
-6.44771e-08
0.0026357
-1.51441e-08
0.00015742
0.000587852
-9.26762e-09
-0.000513946
1.64813e-08
2.34918e-09
0.000738325
1.24426e-08
3.41426e-09
-4.56258e-09
-1.15857e-06
-2.97586e-05
5.13914e-07
-2.33581e-08
-3.00202e-08
-4.0441e-08
0.000695984
0.000155989
0.000140369
0.000239593
1.02723e-08
9.48944e-08
1.97277e-07
0.00148434
-7.67232e-07
-0.00016254
1.52157e-08
5.94255e-07
-2.27358e-09
-0.00871891
1.67862e-07
-5.16569e-09
0.00673514
-9.43722e-07
-1.44916e-08
-5.05487e-07
-1.76166e-08
2.52788e-09
2.41924e-08
7.06042e-08
0.000549405
9.36566e-08
-4.67955e-07
8.77788e-08
-3.64727e-08
-0.00082908
2.60824e-05
0.000128136
4.55268e-09
4.69845e-09
4.49242e-05
0.00259273
0.00160713
5.76894e-06
-2.76736e-09
0.000186476
0.000669896
-1.02939e-09
1.93109e-08
3.39746e-10
1.16739e-09
-9.7564e-09
-1.80664e-05
-0.000340751
0.000145345
-3.94553e-09
0.0012229
8.63286e-05
-8.29954e-09
-8.5971e-06
-0.00376234
0.00128715
-1.79036e-08
-3.42081e-08
-2.84424e-09
3.3223e-09
1.85553e-08
1.49693e-08
0.000115202
-4.88539e-05
-0.000545914
-0.00291129
1.95174e-08
1.63468e-07
3.42487e-07
2.28523e-09
1.66906e-09
6.48673e-09
-0.000504342
-3.79107e-09
9.70835e-05
1.89798e-07
-1.94538e-07
1.81794e-06
7.5616e-05
7.52172e-05
0.000101703
-1.76535e-08
1.40125e-08
1.70697e-06
3.24813e-05
-0.000163828
-3.28279e-08
-1.63512e-09
-1.56288e-09
-3.19577e-07
3.10508e-08
1.01245e-07
0.00264495
-7.8983e-10
-2.93283e-09
4.88478e-08
-4.96475e-05
4.21842e-05
-0.0010046
5.80756e-09
1.28522e-07
-3.18801e-09
0.000106841
8.49673e-09
7.75338e-05
2.81323e-08
-2.25853e-08
5.30469e-08
-3.5889e-09
4.15028e-06
-4.64644e-08
-3.46851e-08
0.0013065
-0.000130203
-1.50746e-08
-1.65197e-09
-2.18612e-08
6.84149e-05
0.0012923
3.28674e-09
7.2179e-09
0.000616977
2.82711e-10
3.34802e-05
1.19482e-08
-3.06773e-07
-5.9687e-07
-0.0146672
1.45205e-07
-1.28701e-08
1.72551e-08
4.37234e-08
-1.21554e-05
-8.08123e-09
-0.00646673
0.00472988
-0.00114444
6.95612e-05
1.49019e-07
0.000167827
3.52244e-09
0.00124742
-1.66682e-08
-0.000376914
0.00062375
-0.00282357
-0.00196768
0.00116254
1.01475e-07
1.30754e-05
2.96199e-09
2.97893e-05
0.000831417
-3.00373e-05
0.00091006
1.8548e-08
8.87348e-05
-0.00379719
1.68704e-07
-2.08499e-09
2.14222e-08
6.09595e-05
-7.54446e-09
1.82143e-08
-2.41406e-08
-8.69379e-09
-5.87482e-09
-3.28059e-09
-0.000505377
8.3398e-05
3.93331e-08
0.000556063
-0.000562464
3.72839e-08
-1.91364e-09
7.12583e-09
1.2263e-08
7.27389e-05
0.000113838
1.89056e-08
6.58544e-10
0.00797429
-6.89707e-07
-4.39885e-08
-0.000454811
4.38384e-08
0.000103269
-3.69268e-08
-9.08022e-08
-1.477e-08
3.27636e-08
1.32667e-07
-0.000738155
-0.00152088
6.61432e-05
-4.41225e-07
0.00964095
-1.67817e-08
3.85409e-08
6.45893e-09
-0.000231315
0.00269395
0.00385681
2.06754e-05
-6.96043e-09
1.01502e-08
-4.0788e-10
3.4807e-10
5.15039e-11
0.0015436
6.88835e-08
0.00035262
1.56215e-07
0.0011279
0.00197019
8.34149e-05
3.03316e-07
1.17969e-08
0.000299055
3.2088e-07
0.00832323
4.98538e-05
-2.84248e-09
-0.00043776
7.91856e-08
0.00513567
0.00070992
1.80855e-07
-0.00043139
0.000351075
-1.39557e-09
-5.03344e-08
1.26174e-08
0.00328258
-0.00016654
3.43632e-08
2.11983e-08
0.000215588
6.88335e-05
-2.72843e-07
0.00167378
-4.04695e-08
-3.70181e-09
-2.17288e-09
-0.0109763
6.58932e-05
-1.24354e-06
4.64275e-08
-0.00057153
-0.0169645
-5.18678e-09
9.46969e-09
2.0746e-08
-5.18334e-05
-0.000279374
-1.73331e-08
5.57508e-05
-1.03372e-08
4.41334e-09
-2.10691e-08
-0.00429004
0.00147438
-1.47595e-05
0.00162111
-8.1824e-09
-9.68388e-09
2.16856e-09
-0.000363518
2.39563e-09
0.00970961
1.31647e-08
0.00302636
-1.43573e-08
1.06772e-08
-1.15869e-07
0.0014464
0.000628153
8.89745e-08
0.00410396
-1.52268e-08
1.61228e-08
9.51148e-10
-8.71281e-08
4.5312e-08
1.27103e-07
-1.19193e-07
-4.18532e-05
-5.05408e-08
-3.99837e-08
0.00156572
-0.00069673
1.52897e-08
6.70931e-05
7.39056e-05
1.43792e-08
-0.00326492
1.18774e-08
0.00456327
2.52241e-10
-2.26078e-07
2.73589e-09
0.0124784
3.29908e-05
-1.70306e-05
7.28393e-05
9.46786e-09
-1.5113e-08
4.98466e-09
6.56127e-05
-1.20409e-08
2.29259e-09
-0.00141835
-1.63263e-06
0.00243492
0.000165243
-6.14957e-08
-2.48728e-08
7.00433e-09
0.00910882
7.63162e-08
9.70656e-09
1.20828e-07
1.07236e-07
-4.75132e-08
1.06225e-09
-0.00289833
-2.77583e-10
0.000193569
-0.00306833
1.49321e-07
1.74144e-05
8.16699e-09
0.000108812
-1.76687e-09
0.000906708
0.00597147
-2.69213e-09
-1.04994e-08
1.18783e-08
2.06472e-08
-7.02464e-08
6.88832e-10
-0.00122006
6.73788e-08
-3.11605e-05
1.75774e-05
-6.51117e-09
7.55067e-09
-3.90739e-09
0.000127448
8.83501e-09
-3.12471e-09
-6.69617e-05
4.5994e-09
0.00415431
6.20567e-05
4.22081e-08
1.26546e-08
6.69571e-08
-6.94821e-10
-6.37736e-09
1.6552e-05
2.32419e-09
1.43873e-08
-0.000534383
8.39657e-05
-8.59484e-05
1.24356e-09
-0.00116335
-0.00142097
-1.55424e-08
-0.000218014
-0.000302209
1.04448e-08
-2.47247e-09
-9.03784e-10
0.000198286
0.00207381
-0.00255489
-3.10624e-10
1.95204e-08
-1.2874e-08
1.33005e-08
-2.4608e-07
9.19819e-10
-0.000203004
-0.000704414
0.00011324
4.58636e-09
1.74549e-08
1.60835e-08
0.00402225
7.21607e-09
0.00110607
5.95501e-06
-0.000151349
0.00392084
-0.00157474
0.00136584
8.85549e-09
-0.000827083
-0.000335431
4.31024e-08
9.08639e-10
-8.1998e-09
5.7303e-05
0.000962642
-0.0030985
8.87287e-09
0.000110106
-1.70615e-09
2.70063e-06
-1.78341e-08
1.02695e-08
2.14075e-08
1.0667e-08
0.00306624
-2.28742e-08
0.00929336
-0.0164922
0.000434378
-7.85387e-08
-1.12946e-08
0.00130178
-4.21808e-05
1.69628e-09
0.000995924
3.33593e-09
-1.1932e-09
-1.58872e-08
-1.3396e-06
-1.42842e-08
0.00123194
1.37053e-07
-0.000379184
-8.8853e-08
-0.000245863
0.00100417
-1.86742e-05
-1.18305e-09
3.00319e-07
-4.9964e-07
0.00256999
-1.3067e-10
3.42369e-09
4.17661e-10
0.00325634
-3.7467e-10
-0.000672126
0.000721255
-4.84073e-08
-2.87237e-07
1.40854e-08
-0.000754759
2.77878e-08
7.424e-05
4.77713e-09
0.000408251
-1.7887e-08
-7.51324e-09
0.000952284
-0.000483043
-5.81533e-09
6.50285e-10
-7.4144e-09
-0.00231351
-6.67813e-06
0.00393363
-0.000326481
2.73611e-08
4.52569e-07
-0.000159859
-1.35082e-09
2.68092e-06
-1.92238e-09
3.76249e-08
1.58738e-08
0.000505908
0.000147392
-1.22846e-08
6.47604e-05
2.53833e-08
-3.12703e-08
-0.000637257
0.000631363
9.72706e-08
8.57245e-05
0.00103324
1.25265e-08
-0.00311606
-8.68264e-09
3.30865e-08
2.63289e-08
0.000781378
-1.58329e-09
0.00208434
-0.000124266
-2.31708e-07
5.70825e-09
-1.2274e-07
7.75143e-05
-3.04096e-08
0.00245741
-1.15937e-09
-7.99636e-09
7.13194e-05
-8.86742e-05
-8.90575e-09
1.13698e-05
-0.00299652
0.00143996
8.27113e-09
-2.10774e-05
0.00202131
0.00387405
-8.11136e-09
8.46386e-07
-6.14581e-09
5.80013e-05
-1.50322e-06
-0.000429602
-0.00230514
3.87708e-08
-6.95377e-09
5.15053e-09
0.00370686
0.000251676
0.00659448
0.000912076
-1.50426e-08
7.75672e-05
-9.43908e-05
-1.29431e-07
0.000488993
8.04708e-05
-1.55931e-07
0.00134036
-9.02369e-09
-2.05962e-08
0.000210934
-0.000656584
-2.19718e-07
0.00279977
2.83581e-09
1.02358e-08
0.0233693
0.000141136
0.000167413
3.46922e-05
3.56671e-08
1.58683e-08
-2.42397e-09
2.96067e-05
-0.000808682
2.37593e-10
-7.81202e-09
-0.00401396
1.47498e-08
6.69897e-10
-0.0004101
0.000966481
1.60524e-08
4.62232e-09
2.59796e-08
-1.01802e-08
0.00723531
-3.42736e-09
-8.78474e-09
1.42801e-08
-0.00102198
0.00718721
-0.0008202
0.000831633
-6.43629e-09
-3.49668e-08
6.2138e-05
-6.22179e-05
2.24545e-08
0.000233396
-2.43831e-09
1.13686e-09
-1.63723e-08
1.91399e-08
-5.1762e-07
-4.98168e-09
0.00211443
8.59502e-08
-1.68556e-09
-9.64665e-09
0.00193194
0.00596727
8.12544e-05
6.66228e-09
5.3555e-09
1.9e-05
-0.00579786
-6.06163e-09
1.66348e-09
-7.39236e-09
-0.00219516
1.92072e-09
-2.87495e-09
-5.88318e-08
-4.36664e-09
6.93781e-05
8.75279e-06
1.53597e-08
-1.06999e-08
6.07072e-09
7.93521e-09
-0.00698224
-0.00223119
-8.93718e-08
0.000228598
1.10697e-05
-3.78441e-08
-6.16501e-10
-2.22988e-08
-8.6257e-09
-8.92255e-09
9.83085e-10
-1.7903e-07
-0.000654473
4.05108e-10
-9.26393e-08
9.43536e-05
-0.000175714
1.68368e-08
-1.40164e-10
-1.1915e-08
0.0167492
-8.44015e-09
0.00246621
0.000174169
-4.93429e-07
1.77232e-08
7.5267e-05
8.13404e-09
2.71692e-05
2.87697e-09
-8.58388e-10
2.57766e-10
-9.86652e-10
8.61661e-07
-0.000669028
2.15871e-05
-6.38969e-08
-0.00280957
-0.00486659
-0.00322699
1.21631e-09
0.000126248
0.00113362
-1.305e-07
0.0083547
-0.000315844
-6.50102e-09
-0.00174719
-6.55146e-09
-1.16883e-08
-0.00276891
1.36659e-09
-2.43212e-08
0.0223294
-3.67619e-05
-0.01506
-4.99695e-05
2.95143e-09
1.13464e-06
-6.42827e-10
-0.000212284
-8.4549e-09
0.000111933
0.000796084
-0.000659042
-0.00406434
-3.31884e-10
-1.84143e-09
-5.708e-08
-0.00961061
7.41245e-05
2.40063e-07
0.000204162
-2.37435e-09
0.000236106
3.90775e-05
0.000315246
-5.42867e-08
-2.14435e-09
-2.92759e-09
-1.8779e-09
-9.44629e-09
-3.10708e-09
-3.11249e-08
7.55217e-05
-4.19057e-09
7.27696e-05
0.00117496
0.00212343
6.96681e-07
-1.3236e-08
-9.68142e-09
-2.40485e-09
1.28506e-09
2.36597e-08
-0.00313581
0.00437957
9.75481e-05
0.000105084
1.71394e-08
0.00133732
1.08848e-06
1.88497e-05
5.33757e-05
1.16103e-08
7.03846e-09
0.00174173
6.93393e-09
5.9105e-09
0.00154921
7.22976e-05
0.000182618
2.31981e-09
-8.89644e-09
-1.3399e-08
3.80639e-08
0.0029752
-2.12118e-10
3.74156e-08
-0.000149281
2.2753e-09
-0.00380498
2.55711e-08
0.0179806
-1.1422e-08
0.000130901
-0.011951
1.91786e-07
-2.06705e-06
-2.48413e-08
6.38398e-05
1.00439e-08
2.70828e-08
-2.05816e-09
2.3858e-08
-0.00963843
-1.40186e-09
-0.000349709
1.63725e-09
-6.13939e-10
-9.76711e-10
9.39562e-05
-4.54637e-08
-8.02702e-08
0.00372417
3.62648e-10
5.04121e-07
0.00131872
1.65185e-07
-5.84395e-09
7.9201e-09
-4.52828e-09
-4.30751e-07
1.02803e-08
4.52464e-09
0.000103184
0.000131666
6.26187e-05
0.000246591
-0.000365645
0.00164635
-6.91792e-08
0.000117298
6.14238e-08
-8.78159e-09
3.72196e-09
3.46946e-09
-1.91974e-09
5.68742e-05
1.62719e-05
-4.95432e-08
-0.000708906
8.61257e-05
-5.62965e-08
-1.42666e-09
-1.09991e-09
0.00227078
-0.00051433
7.67614e-05
-0.0190291
7.55209e-05
8.67851e-11
-0.000219843
-6.76846e-08
0.000277454
0.000218325
9.62706e-09
8.37618e-09
0.00179312
1.24307e-07
-0.0156832
-1.55496e-08
0.000153842
0.00186086
7.33706e-05
-7.54729e-08
4.6181e-08
0.000106342
5.36089e-08
6.28816e-05
8.40719e-05
6.58722e-05
9.37698e-09
0.000185966
-1.22842e-08
3.51869e-08
-3.95975e-08
5.46723e-05
-0.000802336
5.73308e-05
-1.35813e-09
2.53349e-07
-2.54984e-07
1.53973e-09
-0.000234499
-5.15841e-09
-1.30612e-07
7.59351e-05
6.49992e-09
0.0024918
0.015468
8.03595e-05
0.00105133
0.00165646
-0.00192168
1.36905e-09
7.88502e-05
3.66022e-09
1.75673e-08
-3.80942e-08
3.98428e-08
6.72125e-05
-2.03039e-08
5.55055e-09
-1.91264e-09
7.15029e-09
0.00372936
-8.49905e-09
-4.5897e-08
-0.00254615
-4.81345e-10
3.39272e-05
-2.56225e-08
-4.65386e-10
0.000824977
-3.89263e-05
9.97797e-10
0.00116456
-3.36166e-08
8.98604e-05
0.00278963
1.51172e-08
6.52218e-08
-7.12682e-09
0.000112321
7.6353e-05
-3.66369e-08
-0.00288573
2.69083e-08
-1.21007e-08
0.0225145
5.53355e-09
-6.84176e-09
0.000153773
-1.73435e-08
-9.0894e-09
-1.32736e-09
3.13291e-07
8.523e-09
9.88164e-05
-0.000205728
-1.46967e-05
0.00419265
2.75605e-09
-3.77515e-07
6.87345e-09
0.000123493
3.71223e-05
0.00180517
-1.58499e-08
2.19172e-09
7.88769e-09
3.76855e-08
-0.000232985
-7.67872e-09
-0.00396115
8.17276e-09
-0.00321818
-3.56889e-09
1.99551e-05
0.000165879
-2.93906e-08
4.20704e-05
0.00298616
-0.000392701
7.70826e-05
1.28031e-09
0.00016201
0.000180928
4.92772e-05
-1.00131e-09
0.00026763
4.48877e-05
-0.00309374
-2.69175e-08
-0.00034128
0.00145399
0.000137375
-2.05743e-08
-9.6926e-05
1.16025e-09
-3.63048e-08
-2.2943e-09
3.99231e-10
7.26879e-08
0.00289173
-0.000480707
-0.00104972
0.000237859
-3.20274e-09
6.55437e-09
-4.7419e-08
-4.80896e-10
0.00175466
-2.06604e-08
7.9237e-09
0.000138132
6.30855e-05
-2.64565e-07
-3.28807e-08
3.20126e-09
-1.16942e-06
0.00145253
7.21366e-05
0.00126507
4.53732e-08
7.52444e-05
1.09553e-08
1.29258e-09
1.14124e-08
8.25473e-05
8.82607e-05
-0.000209173
7.07928e-05
1.06559e-09
-4.50438e-09
1.13011e-08
-4.80844e-08
2.78059e-08
0.0047399
0.000219748
-2.02969e-08
-0.000163758
0.000112135
0.000924489
-0.0178343
-7.17224e-09
3.38644e-08
-0.000256866
1.55834e-08
4.34597e-06
3.77344e-08
1.40777e-09
-0.00322528
7.00131e-05
6.63061e-09
-7.93624e-09
-9.09599e-11
-6.18978e-07
0.00478293
-0.000887683
0.000122051
1.14098e-08
4.92926e-08
9.82903e-05
-4.08965e-08
3.3798e-08
0.00278904
0.00153492
0.00016569
0.000112175
2.39561e-09
-0.00016218
-3.38058e-08
3.77014e-09
2.22231e-08
-2.19621e-07
0.000158624
5.35395e-05
-0.00211279
-0.00475689
-2.31666e-07
6.67062e-09
2.17476e-09
-1.17458e-08
3.11696e-09
-3.27243e-08
0.000131785
9.2843e-05
-1.94861e-08
0.00766611
1.21676e-08
-2.44125e-07
1.96717e-09
7.5986e-05
-7.4979e-06
4.42744e-09
1.16134e-05
-6.92274e-08
-0.0147542
5.25933e-05
7.66572e-07
0.000790569
-1.3295e-08
0.00180926
4.61537e-07
0.000166446
0.000996621
1.15279e-08
-2.49332e-07
1.51028e-08
-0.000618949
0.0010813
-8.73838e-08
0.00420778
-4.22672e-05
-0.00218625
-4.18347e-07
9.15932e-06
-2.62977e-07
-5.13895e-09
1.20054e-08
-2.86048e-08
1.24528e-08
-2.28456e-07
5.81854e-09
7.05045e-08
0.00182059
3.41543e-07
1.58628e-08
9.14964e-09
-2.28923e-08
9.20124e-08
1.62987e-09
-0.00262298