/*--------------------------------*- C++ -*----------------------------------*\
| =========                 |                                                 |
| \\      /  F ield         | OpenFOAM: The Open Source CFD Toolbox           |
|  \\    /   O peration     | Version:  v2012                                 |
|   \\  /    A nd           | Website:  www.openfoam.com                      |
|    \\/     M anipulation  |                                                 |
\*---------------------------------------------------------------------------*/
FoamFile
{
    version     2.0;
    format      ascii;
    class       volScalarField;
    location    "100";
    object      k;
}
// * * * * * * * * * * * * * * * * * * * * * * * * * * * * * * * * * * * * * //

dimensions      [0 2 -2 0 0 0 0];


internalField   nonuniform List<scalar> 
13851
(
7.52443e-05
0.020211
0.000118324
7.45856e-05
0.000121095
0.000109549
8.97504e-05
9.63054e-05
6.0955e-05
0.000130309
0.00179666
0.0231548
0.0169665
0.019914
8.69234e-05
8.83611e-05
8.69901e-05
8.1027e-05
0.00819189
6.11633e-05
7.47394e-05
0.000116449
5.18639e-05
6.21205e-05
5.28623e-05
9.64559e-05
8.95045e-05
0.00537325
7.55019e-05
8.14545e-05
0.000122986
8.69998e-05
0.00011514
0.00441376
6.23494e-05
0.000259311
0.00649731
0.00136605
0.000141833
0.00533458
7.44644e-05
4.60523e-05
0.0124672
0.00226739
0.00260473
0.0374014
0.00247247
0.0088393
8.9623e-05
0.000154872
0.000116239
0.000193053
0.0174203
8.58168e-05
7.52975e-05
4.59523e-05
5.58519e-05
0.0219217
8.12559e-05
8.83033e-05
0.00123842
0.0358694
9.06241e-05
0.000133739
0.00661431
7.54241e-05
0.009989
0.00264709
9.34144e-05
8.0814e-05
0.0144176
0.0167295
0.0215937
8.63464e-05
7.31035e-05
6.14455e-05
0.000113711
0.0146947
9.81787e-05
0.0159607
8.72873e-05
0.00247032
8.30014e-05
0.0274735
9.26348e-05
0.0223894
8.23301e-05
0.0358458
8.85879e-05
5.32974e-05
0.000260684
6.8701e-05
0.0027493
8.9696e-05
8.87151e-05
5.8554e-05
0.000122671
0.0224174
0.000447104
5.90508e-05
0.0238821
0.000100528
7.6932e-05
9.16214e-05
4.82889e-05
8.40981e-05
0.000103919
4.52353e-05
0.0240903
0.000126749
6.12108e-05
5.33491e-05
7.13632e-05
7.43405e-05
6.12533e-05
0.0147586
0.0229991
4.59061e-05
6.89729e-05
7.5499e-05
0.0126992
9.12493e-05
0.0182556
0.00635089
0.0102776
4.95925e-05
0.0103139
9.93786e-05
7.42946e-05
0.000195144
7.46647e-05
6.47879e-05
0.0162289
8.33879e-05
0.0147005
6.514e-05
4.60456e-05
0.0158018
0.0420725
0.0479677
0.0247637
7.44363e-05
6.30688e-05
4.74016e-05
8.47992e-05
0.00241593
7.33305e-05
0.000195537
8.95791e-05
0.00321283
0.000120165
7.38202e-05
0.0184531
5.55318e-05
8.73187e-05
8.45209e-05
6.79743e-05
8.16254e-05
0.000192166
0.000115587
4.43376e-05
9.1041e-05
0.0211799
6.44901e-05
8.36836e-05
4.69679e-05
7.99855e-05
9.37188e-05
7.4252e-05
0.0177617
0.0133837
5.74952e-05
6.83017e-05
0.0470195
6.44388e-05
0.00886829
9.85187e-05
6.41061e-05
0.00970217
4.50729e-05
8.72634e-05
0.0183251
8.38383e-05
0.000121525
4.43093e-05
5.36906e-05
7.57764e-05
7.33551e-05
0.000130758
0.000129618
0.00244036
0.0193141
5.33784e-05
9.28649e-05
0.0324487
8.68187e-05
6.30402e-05
0.00508997
6.37488e-05
6.1696e-05
4.9753e-05
0.040321
7.83014e-05
7.8824e-05
0.000110897
8.3971e-05
0.0358189
8.75617e-05
0.0225761
4.45947e-05
0.0283999
7.70584e-05
0.00326915
4.47342e-05
4.70609e-05
0.000968192
9.10888e-05
0.0401349
8.56137e-05
0.0232985
8.73796e-05
8.74335e-05
0.0250699
0.000185154
0.0301036
5.41909e-05
9.05174e-05
4.93762e-05
0.0244394
4.46419e-05
9.57611e-05
0.000966847
5.74493e-05
5.33126e-05
0.000110348
8.73216e-05
0.037251
0.0124318
4.72686e-05
7.91478e-05
0.000105965
0.00623033
4.46258e-05
0.000116058
4.57395e-05
0.0286403
0.000101115
0.00463639
8.41346e-05
8.56136e-05
6.77119e-05
0.00623973
8.39403e-05
8.44075e-05
0.000102421
0.00456173
0.000121554
0.017165
0.0074261
8.8104e-05
4.71824e-05
8.01415e-05
0.00361667
4.91867e-05
0.0147071
8.67472e-05
8.41296e-05
8.95533e-05
0.0247113
7.00612e-05
6.75177e-05
8.71461e-05
0.0013473
9.68889e-05
8.77788e-05
6.48721e-05
0.00244724
6.55923e-05
0.0320604
0.00194122
4.45351e-05
4.43803e-05
4.73289e-05
0.000101135
0.00249107
0.00723681
6.15408e-05
8.97646e-05
0.000931766
0.00234002
0.000236978
8.13195e-05
8.79612e-05
9.40507e-05
0.00236912
0.0133905
8.38579e-05
0.0241418
6.51343e-05
0.0288511
9.09069e-05
8.66282e-05
0.0314777
7.81005e-05
8.30624e-05
0.0265008
6.16631e-05
9.77633e-05
8.96348e-05
8.11379e-05
0.0438252
8.39234e-05
8.32679e-05
0.0243781
4.63887e-05
8.57675e-05
5.03168e-05
0.0317543
0.000170708
8.55734e-05
0.000101832
8.69776e-05
0.0114568
6.89451e-05
5.17336e-05
6.80104e-05
0.000167863
9.0233e-05
8.77657e-05
9.00363e-05
7.8489e-05
8.28636e-05
0.00216064
0.0216137
0.0198524
8.1006e-05
0.0312025
0.0222084
8.6395e-05
9.2938e-05
0.000239909
7.11237e-05
9.38277e-05
0.000165568
0.00940841
6.86059e-05
0.00260825
0.0274763
8.71434e-05
0.00068666
0.00064376
0.00752761
8.78327e-05
9.57483e-05
0.0248464
6.84097e-05
0.00258392
6.79292e-05
8.76075e-05
4.54693e-05
4.51562e-05
6.79726e-05
0.0277974
0.00328318
7.98869e-05
9.69497e-05
4.64385e-05
0.0265834
9.00291e-05
0.00365878
0.0187858
7.97018e-05
9.34316e-05
8.92663e-05
0.00578884
7.38719e-05
4.61261e-05
6.92761e-05
0.0260788
7.31376e-05
0.0440878
6.77435e-05
0.000175702
0.0166199
0.00251739
0.00270537
6.59885e-05
6.64413e-05
8.77372e-05
8.03725e-05
0.000101646
0.0207446
9.40411e-05
0.0301359
0.0268885
4.65588e-05
8.82777e-05
0.018974
0.0172533
0.000589361
0.0234428
6.96395e-05
8.9538e-05
5.68743e-05
0.0208058
5.89732e-05
8.82578e-05
6.58756e-05
8.80751e-05
4.82064e-05
6.13953e-05
4.68629e-05
0.000131562
9.21645e-05
0.0141027
8.05521e-05
0.000103742
7.70886e-05
0.00590526
8.56438e-05
0.00859656
8.65128e-05
0.00151122
4.58751e-05
6.13202e-05
5.4304e-05
0.00581776
0.00439925
0.000177235
7.69771e-05
0.011996
0.00340557
8.01618e-05
7.47345e-05
0.000111559
7.38559e-05
0.00589517
4.7992e-05
0.0116681
0.00453061
0.000111046
0.0207471
6.37678e-05
0.000259214
0.00407368
0.0283064
4.43868e-05
9.01216e-05
9.88887e-05
7.30593e-05
5.87383e-05
8.24809e-05
0.000115975
0.000174999
8.2308e-05
0.0287169
5.42475e-05
6.81873e-05
0.0193714
8.37262e-05
4.42652e-05
0.0346354
6.62496e-05
7.51731e-05
6.00935e-05
8.82579e-05
8.10259e-05
4.45754e-05
6.34203e-05
0.0241562
8.29517e-05
9.4704e-05
6.5445e-05
7.29764e-05
0.000953605
7.70314e-05
7.25612e-05
7.02549e-05
7.00664e-05
0.00992155
8.45648e-05
8.71398e-05
8.40769e-05
5.60888e-05
0.0240898
0.0198147
8.45418e-05
7.33642e-05
8.59335e-05
0.00630094
0.0309856
6.84497e-05
0.00325182
7.42739e-05
0.000120582
8.76517e-05
0.0283193
4.57566e-05
0.0171699
0.000121425
4.61815e-05
7.28736e-05
0.0195927
9.61316e-05
0.00267757
6.88728e-05
0.00235528
7.58349e-05
6.31717e-05
6.46638e-05
8.92881e-05
0.0200041
0.000110179
0.000187228
0.00799125
8.93642e-05
4.45142e-05
0.0215315
0.00421499
8.75421e-05
9.09712e-05
0.00610388
0.00509707
0.0278214
8.57182e-05
0.0292991
0.0314859
0.0488321
8.40079e-05
7.34234e-05
0.0095017
0.000301653
0.00510509
0.00426583
0.0154214
8.15631e-05
0.0162334
0.018603
4.57276e-05
3.59183e-05
0.000111612
0.0169342
8.40331e-05
8.00223e-05
6.78766e-05
7.64608e-05
0.000129472
8.63878e-05
0.0354927
0.0287949
6.24001e-05
0.0173548
0.0198363
9.18718e-05
0.003836
9.4308e-05
4.42994e-05
6.10646e-05
0.00142266
0.02238
8.74946e-05
0.000132782
0.000260853
4.58183e-05
7.94349e-05
0.00627936
0.00304923
0.000164852
0.0207923
0.0188404
7.42708e-05
8.84065e-05
0.021361
0.0265333
0.00018169
9.41006e-05
9.45011e-05
4.51833e-05
7.53534e-05
0.0130537
4.57444e-05
8.37512e-05
4.49436e-05
6.74113e-05
0.0194984
0.000129928
7.59852e-05
4.56213e-05
0.0480847
0.00476025
6.5844e-05
5.43816e-05
4.9377e-05
8.74816e-05
0.0265881
0.0041281
0.00353876
0.0546346
0.00192203
9.35267e-05
0.01459
0.0208932
6.88502e-05
9.3411e-05
4.42506e-05
5.00814e-05
8.96067e-05
0.0234693
0.00249438
0.000132134
8.8832e-05
6.07774e-05
8.76035e-05
6.19488e-05
0.00268688
0.000115681
8.39918e-05
8.15921e-05
5.88732e-05
8.98406e-05
0.000185206
8.81574e-05
7.34611e-05
9.04262e-05
8.53216e-05
0.000121624
0.00421529
0.000175663
8.7415e-05
0.000189176
6.07516e-05
0.000166506
6.82041e-05
0.0544973
7.72809e-05
5.82175e-05
0.0224575
7.95239e-05
0.016014
0.0275771
0.0363594
0.0319314
5.91167e-05
0.0188166
4.46047e-05
6.70248e-05
4.5591e-05
6.74917e-05
4.49121e-05
8.06258e-05
8.73833e-05
4.55505e-05
0.0217054
0.000128929
0.0232149
6.68044e-05
4.52174e-05
4.9653e-05
0.000211377
0.0369042
0.000103644
8.98779e-05
4.47227e-05
5.69059e-05
6.29382e-05
6.75767e-05
0.0028195
0.0271847
8.5304e-05
4.54321e-05
8.96543e-05
6.79522e-05
0.00633549
0.0197534
8.80499e-05
0.0215584
0.00366431
7.34464e-05
0.000184548
0.0272673
9.39725e-05
0.0214532
8.70283e-05
8.04026e-05
0.000103028
8.01138e-05
0.0035546
8.4397e-05
0.00916417
4.74738e-05
9.416e-05
0.0225165
6.06249e-05
7.85797e-05
9.50926e-05
6.32134e-05
8.70202e-05
0.00123625
0.0389947
0.000114302
0.0126025
0.00301614
4.49097e-05
6.66856e-05
0.028613
0.000240535
8.86797e-05
0.0277345
5.81436e-05
9.54812e-05
4.59173e-05
0.00169857
0.0107214
8.33274e-05
7.45786e-05
0.000701847
8.88123e-05
4.9482e-05
0.0162948
0.00660825
0.0221605
4.62361e-05
8.54981e-05
0.0147803
0.0126955
0.000222332
6.19153e-05
0.0247181
8.37077e-05
0.000802382
0.000199159
0.00011472
8.54594e-05
0.0364553
6.66836e-05
6.10576e-05
0.0051376
5.89642e-05
8.35745e-05
8.11537e-05
6.04593e-05
0.0181728
8.89951e-05
0.000165679
7.60286e-05
6.13542e-05
6.10782e-05
0.00278621
6.57011e-05
6.64655e-05
4.56715e-05
7.30477e-05
7.0628e-05
0.0261353
6.80633e-05
4.64837e-05
0.0114184
8.85123e-05
0.0171615
4.98818e-05
6.26632e-05
0.00011457
0.00780554
0.00375902
6.1459e-05
0.000597626
0.0221915
8.43746e-05
0.0266306
9.39424e-05
6.01488e-05
6.20529e-05
0.0136999
0.000285718
8.50132e-05
6.2593e-05
4.53783e-05
0.00433329
0.000122985
9.95817e-05
8.36105e-05
6.21029e-05
8.58241e-05
6.23062e-05
0.000132115
0.00420918
0.000128719
0.00320319
8.5429e-05
0.000121526
0.000126969
0.0316236
8.3018e-05
0.0292673
0.00642953
8.88998e-05
0.0189296
0.000124992
0.0237347
0.0352012
0.0242241
0.00467396
9.21952e-05
6.04223e-05
7.9907e-05
0.0233
0.0242989
6.66876e-05
5.5575e-05
0.000111933
0.00257663
4.66585e-05
0.016268
5.80509e-05
8.09954e-05
0.0197409
0.014645
0.00362742
6.66196e-05
8.81258e-05
0.0144765
0.00225818
0.000169488
6.87373e-05
0.0207627
0.00308258
0.0290057
0.000103485
9.65291e-05
8.2828e-05
8.78799e-05
0.0229658
0.000102184
0.0165944
6.99058e-05
9.37246e-05
0.0193789
0.0234986
0.0181995
8.55544e-05
9.30991e-05
6.55818e-05
8.7888e-05
7.83071e-05
0.0230239
9.58569e-05
0.026597
4.67286e-05
0.000113394
7.46651e-05
0.000405373
9.37354e-05
9.27959e-05
0.0217153
9.81836e-05
8.93173e-05
6.2403e-05
0.000113013
0.0077538
9.90063e-05
8.33557e-05
0.0136221
4.9137e-05
0.0318938
0.00381923
8.18958e-05
0.0287882
0.0248983
0.0181318
0.0046087
6.92405e-05
6.76267e-05
0.0213529
9.21176e-05
0.0133574
0.022906
6.72422e-05
8.98331e-05
0.00474787
0.00408883
0.0305346
8.36868e-05
5.54088e-05
0.0200538
0.0224896
0.000164807
8.48359e-05
6.86062e-05
0.00393925
0.0262306
0.000129464
4.65472e-05
9.25703e-05
6.36636e-05
7.14783e-05
0.00130892
5.76394e-05
0.0136078
0.00472863
8.08133e-05
6.34318e-05
6.74401e-05
8.1492e-05
0.0147269
0.0192765
9.01409e-05
0.0307827
7.48143e-05
8.98097e-05
6.73639e-05
6.39667e-05
7.93976e-05
8.04467e-05
0.0183363
8.42809e-05
0.000102886
8.5302e-05
8.5333e-05
0.00190083
0.0118253
6.84398e-05
0.0230223
0.000102139
0.00841657
8.94354e-05
9.04303e-05
0.0149993
9.00803e-05
8.63903e-05
0.0234709
0.0116267
0.0198
9.38412e-05
0.00290415
7.70921e-05
9.71992e-05
0.000101356
0.0309472
6.16731e-05
0.0448829
6.64251e-05
6.70547e-05
0.0245082
5.00078e-05
0.0135708
8.55535e-05
6.49501e-05
7.85167e-05
6.54185e-05
8.84467e-05
4.47598e-05
8.68517e-05
0.00206237
6.75117e-05
0.00208501
0.0251451
0.000104804
0.0416981
8.78083e-05
6.57761e-05
5.08216e-05
7.628e-05
6.51363e-05
0.000123431
9.02338e-05
6.25808e-05
7.49054e-05
5.24563e-05
0.0170533
0.027666
9.68166e-05
0.0233407
0.00335791
7.48829e-05
0.00789928
8.88579e-05
6.76986e-05
0.00314126
7.71082e-05
0.00556865
7.34486e-05
0.00236382
0.00406917
0.0276562
5.83233e-05
0.0173985
8.86185e-05
8.87236e-05
4.47428e-05
5.85303e-05
0.0174706
0.000116189
0.00793637
6.0575e-05
8.21558e-05
0.0111852
8.22455e-05
0.00815124
0.00448074
0.0279055
0.00945469
0.00351838
5.49795e-05
7.82756e-05
9.3547e-05
7.33817e-05
9.09186e-05
0.000234165
9.4648e-05
9.03167e-05
6.82503e-05
0.0304501
6.23873e-05
0.0165971
0.0128907
0.0119107
0.00076632
8.9905e-05
4.8865e-05
7.41959e-05
0.00299354
0.005218
5.82415e-05
8.03513e-05
6.03069e-05
0.000121209
4.729e-05
6.02516e-05
8.71045e-05
9.2135e-05
0.0087809
8.72023e-05
8.18463e-05
7.10302e-05
0.000103667
0.0172044
9.08638e-05
0.0158977
0.017086
0.000124664
4.79508e-05
9.84285e-05
7.95814e-05
5.12362e-05
7.4105e-05
0.0146668
0.000170872
0.00471061
9.12607e-05
0.0012199
8.14495e-05
4.94949e-05
7.72643e-05
0.00722133
0.017079
4.4353e-05
9.18785e-05
9.36732e-05
0.0205623
7.07613e-05
0.0228459
4.48232e-05
0.0400254
0.000117472
0.0257938
0.000133824
0.000123307
0.00549366
0.0206834
0.00380608
0.0405687
5.47072e-05
0.000246039
4.71555e-05
8.36572e-05
9.12075e-05
8.37134e-05
0.0208435
8.81279e-05
8.92893e-05
0.00451607
0.000309396
0.00981761
8.62619e-05
8.86776e-05
8.35618e-05
4.91048e-05
8.01819e-05
0.0211743
0.00356926
0.0120847
7.1833e-05
9.0186e-05
6.89075e-05
0.00622886
0.0236375
9.31284e-05
4.87268e-05
9.03497e-05
0.0305634
9.54322e-05
0.0147001
0.0233605
7.14763e-05
4.78061e-05
0.0157532
7.96846e-05
9.64893e-05
8.99124e-05
0.0275164
0.00283893
0.000173542
0.00018825
7.73555e-05
7.2988e-05
8.15683e-05
0.0196919
8.97778e-05
0.0199923
0.000179718
9.09328e-05
0.000214812
8.5963e-05
0.0275122
0.00282186
4.87974e-05
0.00297593
0.0232345
0.00461048
0.0224614
7.84343e-05
7.83719e-05
0.0149132
0.0183463
0.0276839
8.09844e-05
8.90242e-05
8.02466e-05
0.017293
0.000204917
8.65686e-05
4.96721e-05
0.000127694
0.0287829
0.015043
0.00562498
8.71595e-05
0.0232262
8.88862e-05
7.22987e-05
0.000205483
0.041192
8.93694e-05
6.59895e-05
0.0103001
0.0265864
4.93131e-05
7.131e-05
0.0459544
4.8327e-05
0.00163181
7.21801e-05
0.0049915
7.78419e-05
0.000103317
0.0134259
0.023772
8.68841e-05
0.0138932
0.00479631
0.0205901
0.012647
0.03756
7.35481e-05
7.69719e-05
0.015321
7.22841e-05
8.68424e-05
4.89543e-05
0.00611411
7.30904e-05
0.00466807
6.62327e-05
6.13315e-05
0.0141836
0.00010828
0.0118929
8.48154e-05
5.47076e-05
6.4623e-05
9.32365e-05
0.0157347
0.0225746
6.50044e-05
0.00011144
0.00254943
7.67828e-05
5.83473e-05
0.0221704
9.31281e-05
8.86744e-05
0.000186056
0.0458065
0.017964
0.014087
0.0211428
7.41737e-05
0.0014158
0.00467148
0.0302282
0.000111165
4.53212e-05
0.000179925
7.64188e-05
7.37244e-05
0.0316569
0.0224033
7.94094e-05
0.0179372
0.000120562
0.0161903
7.99773e-05
8.55565e-05
7.53863e-05
0.000128026
8.47858e-05
5.2458e-05
8.70166e-05
0.0266274
0.0226448
0.0220687
0.0267988
8.83309e-05
0.0283282
0.0276602
9.28712e-05
7.91923e-05
6.97358e-05
0.00236433
7.16959e-05
0.00270827
7.7926e-05
8.71252e-05
7.95806e-05
0.0179127
0.0305291
0.0304575
7.41092e-05
0.0165291
8.27819e-05
8.41038e-05
7.26383e-05
4.88574e-05
0.0212542
8.56284e-05
0.0211802
0.0244695
2.81309e-05
0.000165141
9.02791e-05
9.0387e-05
7.94795e-05
0.000203065
6.41057e-05
8.52113e-05
7.40425e-05
7.3333e-05
0.000232818
8.77642e-05
8.99742e-05
5.24196e-05
9.003e-05
0.000702029
0.0152062
6.88739e-05
9.92601e-05
5.12011e-05
0.000100724
4.93073e-05
0.0228772
0.000243538
9.34312e-05
8.94528e-05
8.66283e-05
2.95423e-06
7.48158e-05
0.000601416
8.92085e-05
6.09973e-05
6.26855e-05
0.0246172
8.909e-05
7.52582e-05
7.0838e-05
5.20349e-05
0.000111401
0.0237111
0.0139628
9.37041e-05
8.21368e-05
7.22161e-05
4.52077e-05
6.31147e-05
0.000565572
0.026578
4.95089e-05
8.42313e-05
0.000166903
0.0174627
8.74893e-05
8.69898e-05
0.0256361
8.59795e-05
0.000105612
0.00384527
0.0306661
7.7627e-05
4.9917e-05
7.94273e-05
0.0297825
0.000185201
9.40178e-05
0.000168142
0.031641
8.90246e-05
0.0289037
0.0153807
7.42558e-05
0.019038
0.000124622
8.33028e-05
0.0220799
8.56687e-05
6.70539e-05
5.81301e-05
0.000280843
4.20193e-05
0.000241737
8.44947e-05
9.09637e-05
9.37301e-05
0.0033849
0.0052187
0.0299997
0.00244667
8.88305e-05
0.000186335
0.000192148
0.022687
0.000114523
0.00250351
7.20241e-05
7.05816e-05
5.87232e-05
0.0121106
8.67895e-05
7.92908e-05
0.0337208
0.000244067
9.01391e-05
6.20873e-05
4.45213e-05
5.14487e-05
9.83229e-05
8.98327e-05
0.0118024
0.000110974
0.000108505
0.000102104
0.000165081
0.0170496
8.99012e-05
0.0296838
6.87119e-05
6.33971e-05
0.00126085
0.0354331
0.0211866
8.99318e-05
6.32244e-05
0.0143007
0.00261028
6.08969e-05
9.07229e-05
6.85785e-05
9.66684e-05
0.000114941
3.9601e-05
0.0186757
0.0041129
8.73295e-05
0.0246558
0.0130219
8.73279e-05
0.000114207
0.0419252
0.0213442
8.87364e-05
0.000119532
4.45238e-05
8.15643e-05
5.27535e-05
8.45123e-05
0.030211
0.0202976
0.0181717
0.0187562
8.98118e-05
8.72186e-05
9.79504e-05
4.91623e-05
7.40341e-05
5.88948e-05
0.0233121
7.06287e-05
0.0276198
8.74984e-05
8.81353e-05
0.000226136
0.00154829
0.0155298
0.0185073
9.62758e-05
4.66233e-05
5.07959e-05
0.0168791
0.0118888
8.85464e-05
6.75594e-05
5.69295e-05
0.000106464
8.85143e-05
0.000210862
0.0177081
9.06349e-05
5.82233e-05
0.000171394
6.75129e-05
0.0145525
0.019116
7.14623e-05
0.00011539
7.41538e-05
0.03173
4.74292e-05
0.0286806
4.90626e-05
9.07513e-05
8.00353e-05
8.83201e-05
9.95476e-05
9.08697e-05
9.8803e-05
0.0251702
0.023002
8.84321e-05
8.91839e-05
7.55528e-05
0.0177297
0.0286945
6.32482e-05
4.8407e-05
0.00272274
4.5596e-05
0.0207866
4.90225e-05
8.27695e-05
0.00011082
0.0124706
8.67814e-05
7.25313e-05
9.0424e-05
0.000115314
0.026836
7.6749e-05
0.0138343
0.0178736
0.0197314
0.000704384
8.64696e-05
0.0169242
9.23066e-05
0.00193627
8.17137e-05
0.00226926
0.00238007
0.0213902
0.0286031
0.0182997
5.01407e-05
7.13938e-05
6.55486e-05
0.012709
0.0032679
0.026021
0.0240645
8.53455e-05
0.0163906
0.0059263
8.70456e-05
7.93328e-05
8.77499e-05
0.0215055
8.53119e-05
0.000115023
7.48788e-05
7.68175e-05
6.4125e-05
8.09719e-05
0.0229615
0.00170045
8.8061e-05
0.031831
0.0142547
4.97449e-05
8.18567e-05
5.76018e-05
7.1973e-05
0.0281201
0.00221657
8.41885e-05
8.57805e-05
0.0142238
0.000117368
9.74664e-05
0.0142903
8.76865e-05
0.0293152
9.36652e-05
8.10069e-05
8.16245e-05
7.48459e-05
0.000114086
0.00406295
0.00213202
0.0232618
0.00011142
0.0614429
6.53238e-05
8.76625e-05
5.4437e-05
0.0198801
0.0378153
0.00345948
8.19825e-05
8.83373e-05
8.19496e-05
6.83187e-05
8.89018e-05
5.90858e-05
0.018403
8.78005e-05
0.0188107
8.68709e-05
0.0241761
0.0110321
0.0285603
6.92044e-05
9.05547e-05
0.0276171
8.89574e-05
0.0269095
0.0233102
6.28892e-05
0.000113329
8.87423e-05
0.0284194
0.0158839
8.77106e-05
0.000141451
0.00516712
6.97465e-05
9.05336e-05
9.21803e-05
0.0479296
0.00303051
8.75894e-05
8.98001e-05
0.00201125
0.0010975
0.000187061
0.00987417
0.000180634
7.23982e-05
6.22811e-05
0.0156016
0.0258273
0.000118027
9.28032e-05
0.02316
0.0328538
6.57946e-05
8.56014e-05
8.76701e-05
0.0262109
0.0246286
8.422e-05
0.0173092
8.86501e-05
6.98206e-05
7.88914e-05
0.0184333
0.00286791
3.83631e-05
0.0204506
7.95011e-05
8.48701e-05
7.07039e-05
0.0194341
7.74482e-05
0.0609077
7.51361e-05
0.0201146
9.00071e-05
7.61998e-05
0.000174716
0.017485
0.00289405
8.91627e-05
0.0200309
4.43666e-05
8.38103e-05
8.56749e-05
9.52791e-05
0.00010938
0.000109598
8.50135e-05
0.0249338
8.8777e-05
0.000180074
0.00074162
0.0162182
6.62374e-05
0.0202601
0.0238185
9.21395e-05
0.00329605
0.000112012
0.0266859
8.42316e-05
0.000108618
6.27521e-05
0.0240649
0.013768
0.000108487
0.0283624
7.92508e-05
0.000101781
7.92744e-05
0.0178106
4.70645e-05
6.80731e-05
0.00642251
0.000127267
0.0318102
0.0154311
0.000111238
8.82261e-05
5.79079e-05
0.0117947
7.94752e-05
5.26882e-05
0.000210328
4.46479e-05
9.7125e-05
8.13807e-05
0.0196048
7.61335e-05
0.00234705
0.00220656
7.92846e-05
0.000133433
9.92343e-05
0.0319469
7.27011e-05
0.0142353
0.0246117
6.21271e-05
8.27833e-05
8.31808e-05
8.98323e-05
9.29325e-05
6.85951e-05
0.00467398
0.000120117
0.000198122
9.41227e-05
7.43285e-05
8.59503e-05
5.67617e-05
0.0197536
8.38889e-05
7.49487e-05
0.00339434
9.05834e-05
0.0194426
0.027977
0.000132095
7.5257e-05
8.90913e-05
8.4398e-05
8.83606e-05
7.45834e-05
4.86435e-05
9.02653e-05
0.0174627
0.029688
0.00806025
8.40595e-05
0.0217852
0.0175752
9.04293e-05
0.000120066
0.0241532
8.4907e-05
8.94889e-05
8.44406e-05
0.0211361
0.0378725
0.00746221
4.84913e-05
8.68682e-05
6.82341e-05
8.92273e-05
0.000187128
7.69175e-05
0.000104647
0.0140236
0.0287336
6.19428e-05
8.95007e-05
9.13338e-05
0.0478884
4.4306e-05
0.0348028
0.0201829
6.55305e-05
0.01098
0.020923
0.0158874
6.93895e-05
0.00763273
0.00652463
9.00979e-05
5.78262e-05
6.85325e-05
0.0279593
0.0203394
0.0251051
5.10826e-05
0.0297692
8.35765e-05
0.000246513
5.33182e-05
8.32276e-05
8.91813e-05
6.18758e-05
0.0405035
9.10267e-05
0.0344689
0.0287969
0.0337883
9.58854e-05
0.000103476
0.0373302
0.0264042
6.67453e-05
0.0129272
5.71127e-05
4.60921e-05
8.19837e-05
8.99464e-05
5.39501e-05
0.025921
7.85912e-05
0.000151236
8.55199e-05
0.0191094
0.0295506
8.63873e-05
6.15603e-05
9.87269e-05
0.000114908
0.0408422
6.58241e-05
4.44167e-05
7.86465e-05
0.0342489
7.03179e-05
0.000394607
0.0245627
9.61393e-05
0.000104462
6.65612e-05
0.00459432
8.73848e-05
0.0288049
5.52361e-05
0.0157261
9.36663e-05
8.5546e-05
0.0255722
0.030877
5.34305e-05
0.000112389
8.50141e-05
0.0226489
3.32815e-05
0.00433906
8.05187e-05
8.60513e-05
9.83208e-05
0.0219071
5.36706e-05
8.22967e-05
6.7892e-05
0.000120826
9.29105e-05
0.0216519
0.0187652
8.50561e-05
0.0203758
8.70666e-05
9.63136e-05
0.0234972
0.0241678
8.5862e-05
0.0205884
0.00177202
9.02233e-05
0.00145255
0.000181374
9.24766e-05
9.03483e-05
0.0237516
5.3701e-05
0.0273401
3.93875e-05
0.000153633
8.6049e-05
8.1229e-05
0.02001
9.66356e-05
0.0258878
8.79108e-05
8.67844e-05
0.000145323
0.0233316
9.19936e-05
0.0270848
0.00427286
0.0268693
7.76848e-05
0.0230058
0.0158504
0.0421764
8.67989e-05
5.12259e-05
7.02364e-05
0.0280462
6.27387e-05
0.00469198
0.00344736
8.50535e-05
5.07464e-05
8.56036e-05
0.0436159
0.0168495
0.0227546
0.0308878
7.08094e-05
0.0208277
0.0256091
0.000187412
0.0208855
0.0207713
8.45366e-05
0.0266693
8.94087e-05
9.1896e-05
0.0199508
0.0196461
4.91176e-05
0.0176898
7.4522e-05
8.44251e-05
0.0265865
0.0188393
0.028449
0.0129552
8.72893e-05
8.58469e-05
7.7115e-05
0.0259774
0.0290248
7.75232e-05
0.000100596
0.0044179
8.60895e-05
8.23032e-05
0.0227442
0.0440089
8.32998e-05
8.83772e-05
8.99265e-05
7.94373e-05
0.0076941
8.94728e-05
6.26745e-05
8.45111e-05
0.000550144
0.0507233
0.000124148
0.024888
8.48364e-05
8.28325e-05
0.0224383
0.0261545
8.33548e-05
0.000209444
8.52101e-05
9.26659e-05
7.26354e-05
4.94669e-05
0.000107979
6.31647e-05
0.00102029
8.59962e-05
6.17795e-05
8.26096e-05
0.0175458
0.0235705
0.018025
8.61903e-05
8.57935e-05
0.0270501
0.00294488
8.91604e-05
6.57667e-05
9.02152e-05
0.00286379
8.20384e-05
6.25464e-05
8.78854e-05
8.23569e-05
0.0227668
9.35591e-05
8.4921e-05
8.57021e-05
4.82508e-05
7.74738e-05
0.0159189
0.00700582
0.000114748
0.0226124
9.07491e-05
8.6252e-05
8.4371e-05
8.49639e-05
7.04707e-05
8.59093e-05
7.7556e-05
0.000112314
0.0234282
6.81489e-05
0.000157638
0.0180053
8.23141e-05
7.45005e-05
6.84517e-05
9.01855e-05
0.0233716
7.03208e-05
0.00660392
0.0055844
8.67857e-05
5.7159e-05
0.0132338
4.70008e-05
1.42674e-05
5.39364e-05
4.71689e-05
7.06526e-05
5.92517e-05
7.55274e-05
0.0185228
0.000124044
9.24565e-05
0.00846127
0.00272453
0.0169837
9.25585e-05
0.0190285
0.0229725
0.000155441
0.020653
0.0232405
0.000164225
0.00409555
8.89789e-05
5.36348e-05
0.033522
7.0287e-05
8.61595e-05
0.0328447
0.000137451
0.0295371
0.000240689
6.33586e-05
5.22351e-05
8.215e-05
7.752e-05
5.31134e-05
0.000292185
0.0311242
0.0230789
0.00396351
8.10546e-05
5.36885e-05
0.000116349
0.0209839
0.0230409
0.000164026
0.00902331
6.83782e-05
0.0117091
0.0220886
0.000229459
8.09491e-05
8.1146e-05
4.43637e-05
7.90299e-05
7.42349e-05
7.2499e-05
8.60771e-05
0.0220422
0.00012007
0.0206924
0.00274382
0.0117515
0.000261319
8.16287e-05
5.41682e-05
6.05288e-05
5.40957e-05
8.88779e-05
0.00616641
0.0190273
0.0102826
0.0296833
9.10325e-05
0.0314235
0.000208689
0.0272734
0.0238926
7.73946e-05
5.99931e-05
0.00268127
8.00045e-05
5.34776e-05
0.00313562
0.0229035
0.013798
8.25244e-05
8.3328e-05
6.50991e-05
9.12891e-05
0.0163961
5.73066e-05
7.68968e-05
0.00600243
4.48992e-05
0.00274238
9.09419e-05
0.0258937
8.63538e-05
0.00389282
0.0234822
8.75701e-05
0.0254619
0.000162595
0.0214451
4.74743e-05
8.39827e-05
6.54385e-05
8.73205e-05
0.0223948
5.20633e-05
0.0188859
6.04859e-05
6.42806e-05
8.90901e-05
0.0292889
9.76578e-05
0.000160983
0.00617833
5.71837e-05
9.11114e-05
0.0233232
9.90221e-05
5.35948e-05
6.94805e-05
7.89401e-05
8.80314e-05
6.58993e-05
6.13298e-05
0.0308268
0.0289984
0.0281434
0.0010942
0.00714034
0.0289385
0.000115554
0.0306245
0.000180558
4.72618e-05
4.97328e-05
4.57507e-05
7.81115e-05
0.0264995
0.026291
5.02365e-05
0.0164374
0.0302077
9.31169e-05
6.77934e-05
9.14797e-05
0.024607
0.0222903
0.0222942
0.0186409
0.0231442
4.56075e-05
0.00391727
0.000145541
0.000547657
0.0207881
8.33961e-05
0.000183751
0.0254312
8.66613e-05
0.0255799
7.76677e-05
0.000416583
0.0270387
0.0264987
0.000119534
8.8408e-05
0.0144191
0.00018448
0.026962
0.0283883
0.0226212
0.000164254
0.0215549
8.3141e-05
7.07564e-05
9.90679e-05
0.0181064
0.00162102
0.0214223
6.1189e-05
0.000163009
0.000110563
6.23153e-05
0.023745
8.46708e-05
0.000186896
0.0170916
8.55564e-05
0.0189998
0.0233537
0.0284568
0.0233303
0.0100457
0.00467485
6.73622e-05
0.0269946
6.0161e-05
5.51646e-05
9.56301e-05
8.7225e-05
0.0241538
8.83463e-05
8.82124e-05
8.65349e-05
5.96167e-05
0.0187046
8.36898e-05
0.00016762
0.00231756
6.24664e-05
0.0217194
0.00014595
6.74167e-05
0.0227357
0.00354932
8.59202e-05
0.00054657
8.58185e-05
0.0299306
0.00341821
5.0183e-05
0.000165938
8.40138e-05
0.0280068
0.0233174
0.000116092
0.015953
7.59834e-05
9.03227e-05
0.0287965
9.05986e-05
6.97916e-05
0.0134944
9.81449e-05
6.89682e-05
6.19054e-05
0.000191233
8.2842e-05
0.016955
0.00399007
0.000106053
0.0271303
0.000103852
0.000106093
6.71874e-05
0.0284891
0.0150317
0.0357886
8.68332e-05
5.05446e-05
0.000115054
8.68616e-05
0.00476188
6.99582e-05
0.00545025
6.58161e-05
0.00148456
6.21044e-05
0.000165398
0.000415879
0.000164692
0.0218558
0.0248259
0.0238155
0.0224643
4.61557e-05
0.00839842
0.0102659
0.0171676
5.72558e-05
0.00119173
0.0147627
0.0305562
0.000166285
0.00857921
0.000385632
0.0294887
0.0001003
0.00321414
6.16116e-05
9.94599e-05
9.88362e-05
8.34575e-05
0.000114935
0.0301778
0.000210401
0.0329942
0.0106308
7.74277e-05
6.51818e-05
7.5342e-05
8.35264e-05
0.00384487
5.77536e-05
6.34657e-05
0.0311432
0.00130449
8.29786e-05
0.000147175
6.31714e-05
0.000123901
0.0230388
0.0239303
0.0242281
9.19766e-05
0.0236668
7.17501e-05
5.5215e-05
9.09368e-05
0.0199223
0.00192793
0.00370133
0.00154321
8.74934e-05
6.32114e-05
8.32943e-05
8.93067e-05
9.04612e-05
0.0236258
0.0111334
8.80067e-05
0.024219
0.0167311
0.00620387
0.0212088
8.49483e-05
8.98155e-05
0.000182089
8.59012e-05
4.73193e-05
8.84261e-05
8.80057e-05
0.0302281
0.0240527
5.739e-05
9.76501e-05
8.86506e-05
0.00011044
0.0452001
0.0184999
0.0292042
6.98814e-05
0.000126314
0.0292711
0.000125192
0.000165813
0.00251554
0.0239145
0.0296456
0.0309343
5.7826e-05
0.020732
5.0799e-05
7.53529e-05
8.15835e-05
0.000104896
0.0294876
0.0133922
0.00609208
0.026813
0.00010241
5.28603e-05
6.79339e-05
8.2864e-05
7.34929e-05
9.71881e-05
0.0301573
0.0308237
0.00012112
0.00721084
7.76641e-05
0.000101994
6.34927e-05
0.0279888
0.000108396
6.98381e-05
0.000206846
0.000147982
0.0198605
0.0204375
0.000190802
0.0148921
8.51347e-05
0.0383653
0.0021567
0.0201149
0.00321447
7.17821e-05
0.000101541
8.34607e-05
0.022828
0.0217494
9.36353e-05
0.0463913
0.00216127
0.0417264
0.00010893
0.000232264
8.64809e-05
7.0402e-05
0.000170994
0.000101885
8.80116e-05
0.000101154
8.93898e-05
8.90337e-05
0.0240543
0.000234369
8.12108e-05
8.71884e-05
9.31071e-05
8.62136e-05
6.77637e-05
0.0188761
0.000158564
0.0010727
0.0205135
8.27102e-05
0.0233333
8.96663e-05
7.72718e-05
8.29621e-05
0.0231839
8.89208e-05
0.0276875
0.029032
0.000104049
8.8573e-05
0.000168841
0.0275066
0.000191672
0.0161013
8.13431e-05
0.000100107
5.64527e-05
0.0250474
0.00453741
8.12685e-05
5.32784e-05
8.82474e-05
8.99814e-05
8.46904e-05
0.000101663
9.74008e-05
8.40459e-05
8.62583e-05
0.0291211
0.023741
0.000998878
9.5882e-05
4.64381e-05
0.0285449
9.26086e-05
0.000110914
0.0116917
9.91226e-05
0.0251713
5.37503e-05
9.12224e-05
7.64957e-05
8.57774e-05
7.64195e-05
0.0241377
0.00210428
0.0176828
8.74097e-05
0.0247465
0.00144518
9.02703e-05
0.0268454
0.000111866
0.00120878
0.0231619
8.71933e-05
8.72232e-05
9.79015e-05
0.000109722
7.14233e-05
0.00609828
0.0208617
0.00344908
7.04229e-05
0.00164255
0.00272363
0.0262816
8.11071e-05
9.7169e-05
6.23734e-05
8.74928e-05
0.0196209
8.75405e-05
8.83264e-05
6.9017e-05
6.86024e-05
0.00498184
0.0197527
7.26381e-05
0.0111239
0.00108073
5.2896e-05
5.88902e-05
0.0250724
0.000163902
0.000148767
8.39136e-05
8.8174e-05
0.000148509
5.53542e-05
6.93482e-05
0.0331993
8.91633e-05
0.0241124
0.000126527
8.93873e-05
0.0290558
0.000164816
0.000261277
7.03754e-05
0.00563195
9.30757e-05
8.87324e-05
0.0286585
9.57773e-05
7.729e-05
0.000123466
8.81526e-05
7.11091e-05
5.05635e-05
0.0232347
8.14789e-05
0.000105707
0.0161334
0.000144658
5.98726e-05
0.00775032
9.21639e-05
0.05546
0.000439772
0.020399
0.000152843
0.0257251
6.4602e-05
0.000119295
9.05527e-05
7.64058e-05
0.00479039
0.0120899
9.15314e-05
0.00670074
5.87445e-05
0.000115181
0.0205931
9.02513e-05
0.0033096
0.0177741
0.0561053
0.028974
0.00113528
4.54165e-05
6.31097e-05
0.000108892
8.69135e-05
0.00935926
0.0294724
0.0277966
0.0179499
0.0290107
6.82201e-05
0.0188021
8.70561e-05
8.98989e-05
8.33137e-05
0.00553352
0.000312718
0.000120443
7.03801e-05
0.0143529
8.84584e-05
0.0181704
5.48647e-05
0.000104456
9.21609e-05
0.000115284
9.38034e-05
0.000149707
8.77359e-05
0.000858337
0.000184593
7.0766e-05
0.0249943
0.00188024
9.33945e-05
8.38473e-05
8.89783e-05
7.88298e-05
6.82375e-05
0.000111105
4.05207e-05
0.0231908
0.000837568
0.000127566
0.012952
5.36423e-05
0.0244268
0.000110718
0.0171677
8.59356e-05
8.57413e-05