/*--------------------------------*- C++ -*----------------------------------*\
| =========                 |                                                 |
| \\      /  F ield         | OpenFOAM: The Open Source CFD Toolbox           |
|  \\    /   O peration     | Version:  v2012                                 |
|   \\  /    A nd           | Website:  www.openfoam.com                      |
|    \\/     M anipulation  |                                                 |
\*---------------------------------------------------------------------------*/
FoamFile
{
    version     2.0;
    format      ascii;
    class       volScalarField;
    location    "100";
    object      p;
}
// * * * * * * * * * * * * * * * * * * * * * * * * * * * * * * * * * * * * * //

dimensions      [0 2 -2 0 0 0 0];


internalField   nonuniform List<scalar> 
13851
(
-5.40678e-05
-0.0115666
-0.0263128
-6.4998e-05
-0.0415342
0.000621841
-0.0148257
-0.0248195
0.000350846
-0.00837639
-0.00132388
-0.00380132
-0.0612509
-0.103947
-0.0092131
-0.0106787
-0.0192916
-0.000934067
-0.0481499
0.000303496
-0.000255759
-0.0279493
0.000447675
2.67109e-05
0.0005607
-0.0234531
-0.0268395
-0.109611
-0.000344211
-0.00597394
7.15926e-05
-0.019531
-0.0250756
-0.00772927
-3.47573e-05
-0.068063
-0.0727183
-0.0349615
-0.00851353
-0.00567137
-0.00352216
0.000399288
-0.158466
-0.00713739
-0.00629923
-0.104931
-0.00700329
-0.0116088
-0.0274683
0.00322278
-0.0517366
-0.0579365
-0.120877
-0.00917458
-0.00472055
0.000396131
0.000558619
-0.122779
-0.00597144
-0.0152307
-0.0338281
-0.00179751
0.00550182
-0.0449116
-0.00574565
0.000986928
-0.0724601
-0.00750006
-0.0372404
-0.00065128
-0.0750745
-0.0736718
-0.00617598
-0.009209
-0.00404835
0.00059039
-0.0284565
-0.100837
-0.0364456
-0.0757159
-0.0165825
-0.0023404
-0.00957739
-0.1422
0.0050186
-0.00231232
0.00247367
0.0304656
-0.0245269
0.000941885
-0.0676258
0.00273222
-0.00681991
-0.0277683
-0.024942
0.000590651
-0.0427899
-0.0814036
0.00268075
0.0005385
-0.160135
-0.0423763
-0.0031852
-0.0310045
0.000112347
0.00470212
-0.0455441
0.000239307
-0.0743268
-0.000296163
0.000266109
0.000948158
0.00270928
4.56254e-05
0.000297965
-0.00560683
-0.0767588
0.000345681
-0.00151897
-0.0040967
-0.15593
-0.0303589
-0.0605728
-0.00877073
-0.0116253
0.00105948
-0.0166082
-0.03915
-0.000289918
-0.0419873
-0.00360737
-0.000697433
-0.077662
-0.0096286
-0.00426228
-0.000963716
0.000345624
-0.0734225
-0.0244275
0.00137093
-0.15629
-0.00440236
0.00118824
0.000722372
-0.0140577
-0.00921666
0.000511233
-0.0405414
-0.0144239
-0.0034535
-0.0594521
-0.00387578
-0.119418
0.000609195
-0.0199144
-0.013574
-0.000803889
-0.00777901
-0.0570116
-0.0506017
9.01622e-05
-0.0329833
-0.123775
-0.000625958
-0.00530541
0.000594706
0.000452201
-0.038301
-0.000450457
-0.0855478
-0.0997254
0.000477972
-0.000882033
-0.00637227
-0.000646008
-0.00789869
-0.0381488
0.00126747
-0.0519587
0.000231186
-0.0191941
-0.0725207
-0.00973157
-0.0289517
3.99142e-05
0.000610648
0.00101989
-0.00407748
-0.0404094
0.0100585
-0.00744909
-0.121475
0.000956159
-0.034353
-0.0023579
-0.0188974
0.00115919
-0.00303797
0.00120338
0.000589356
0.0010057
-0.0538394
-0.00226371
-0.00701532
0.00113264
-0.00992515
-0.0462781
-0.0210274
-0.0840981
0.000138872
-0.0817117
-0.00333082
-0.0116842
0.000153794
0.00065309
0.00213005
0.00228037
-0.111928
-0.00931649
-0.0845874
-0.0210497
-0.0170987
-0.0882699
-0.0506291
-0.0780843
0.000662143
-0.028937
0.000149219
-0.127763
0.000134539
-0.0221623
-0.0143932
0.00047238
0.000960246
-0.0511796
-0.000343937
-0.0474905
-0.00213786
0.000689953
-0.00718996
0.00246824
-0.00614501
0.000153879
0.00238088
0.000151158
-0.080426
-0.0420186
-0.0112181
-0.0127024
-0.0137469
0.002364
-0.00859386
-0.0127389
-0.0132417
-0.0484323
0.0143746
0.00975742
-0.0746844
-0.134808
-0.0105512
0.000663807
-0.000679997
-0.0194655
0.000877647
-0.041565
-0.018435
-0.0128243
-0.0276291
-0.0861714
0.00157612
0.00245748
-0.0194505
-0.00842311
-0.0359844
-0.0102061
-0.000675708
-7.86051e-05
0.00165403
-0.0750972
0.0024323
0.000119766
8.40335e-05
1.40156e-05
-0.0478419
-0.0132331
-0.00630709
0.000424868
-0.00949805
-0.00754379
-0.00719128
-0.0404781
-0.0064731
-0.0153445
-0.0371398
-0.00718248
-0.0452654
-0.00693045
0.00752938
-0.000694157
-0.0801707
-0.0326798
-0.0184007
-0.076212
-0.00590491
0.00350989
-0.090619
0.000376317
-0.0442116
-0.0270337
-0.00641211
-0.0202066
-0.0065339
-0.0115826
-0.0884107
0.000467792
-0.0141475
0.00110082
-0.0760857
-0.0644243
-0.00942462
-0.0450375
-0.00965506
-0.129675
0.00203791
0.00055464
-0.000158652
-0.0638373
-0.0286235
-0.0206458
-0.00939503
-0.00607927
-0.0112438
-0.0019313
-0.165162
-0.052291
0.00173012
-0.0749417
-0.0257891
-0.00920756
-0.0340596
-0.0392274
0.00242902
-0.00103621
-0.0577117
-0.0439441
0.00166034
-0.0147406
-0.0859548
-0.00919553
-0.00166209
-0.00207832
-0.0356377
-0.0209869
-0.00144379
-0.127145
-0.000834234
-0.0113755
-0.00011041
-0.00958264
0.000120099
0.000219381
-0.00104308
-0.0849959
-0.00816002
-0.00778393
-0.0436594
0.000500622
0.00935597
-0.00505473
-0.0104435
-0.072698
-0.00762808
0.00173533
-0.025468
-0.00793161
-0.00335152
0.000360388
0.00130539
-0.16277
-0.0039854
-0.0191691
0.00227632
-0.0589357
-0.0890701
-0.00630343
-0.005754
0.0019615
-0.00113728
-0.00912298
0.00124177
-0.0457157
-0.0956701
-0.0394821
-0.079096
-0.0878765
0.000537845
-0.0107685
-0.0651073
-0.0768319
-0.0112935
-0.0787312
0.00143121
-0.0259343
0.000600673
-0.0278696
0.000437317
-0.0117541
0.00185649
-0.0135344
6.16429e-05
0.000386322
0.000575177
-0.0457125
-0.000267206
-0.127512
6.12816e-05
-0.0459608
0.00195326
-0.011408
-0.0124029
-0.0365601
-0.0180558
0.00482355
0.000314933
0.000357172
0.000708486
-0.0342955
-0.0107171
-0.0475567
0.00188738
-0.12427
-0.00623588
0.00343782
-0.00386387
-0.0521162
-0.00341417
-0.00977142
0.00018744
-0.0308213
-0.0182014
-0.0223174
-0.0869279
0.00126997
0.00126267
-0.0189985
-0.158504
4.75217e-05
-0.026715
-0.0374712
0.00150932
0.000398359
-0.0107282
-0.0586886
-0.0575893
0.000842309
-0.00378606
0.000651848
-6.01829e-05
-0.155021
-0.00467283
8.58252e-05
0.0276566
-0.00108238
8.27661e-06
0.000288361
-0.000259515
-0.00730714
0.000126506
0.00119816
-0.0838208
-0.00969302
-0.0401133
-0.00101537
0.00296458
0.00277723
-2.78346e-05
-0.00221466
4.80402e-05
-9.05972e-05
-0.0019961
-0.0133899
0.00276418
-0.0097794
0.000566398
-0.145514
-0.0862166
-0.0103489
0.0030971
-0.0130194
-0.00330719
-0.136203
-0.000122079
-0.01119
-0.0035275
-0.0374113
-0.0140924
-0.132654
0.000278291
-0.120845
0.0112445
0.000425602
0.00321268
-0.0930706
-0.0213305
-0.0070021
-0.0016028
-0.0178721
-0.00479358
-0.000359251
-0.000551743
-0.0136768
-0.0767207
-0.048515
-0.0625618
-0.0637663
0.00435064
0.000120834
-0.0405152
-0.012733
-0.0200505
-0.032411
3.01446e-05
-0.0131398
-0.0798866
-0.00868159
-0.130838
-0.117288
-0.0654743
-0.00579221
0.00347577
-0.00640354
0.00151766
0.0173948
-0.00427114
-0.0365588
-0.00734969
-0.0415109
-0.0756797
0.000283349
0.00174417
-0.0497291
-0.0863562
-0.0122213
-0.00761868
-0.000854954
-0.0051819
-0.0413014
-0.000691035
0.0289899
-0.00578655
-0.000278559
-0.15588
-0.0969777
0.00605963
-0.0159703
-0.0390628
5.1388e-05
0.000374809
0.000487079
-0.0437821
-0.020593
-0.060772
-0.0679006
0.000371617
0.00181477
-0.0227216
-0.0324225
-0.0544698
-0.0768258
-0.0762546
-0.003452
-0.0137695
0.00322844
-0.0895372
-0.0644299
-0.0400962
0.00646166
0.000237405
-0.00494826
-0.0348958
0.000350203
-0.0116976
0.000204825
-0.00160442
-0.0755932
-0.0434735
0.00190837
0.000331012
-0.0154844
-0.00262211
-0.00087469
0.00062955
0.000876679
-0.00915482
-0.160231
-0.0100347
-0.013156
-0.061394
-0.0136121
-0.0391153
-0.0864203
-0.0833682
0.00171295
-0.0368592
3.32392e-05
0.00108164
-0.0140275
-0.0750888
-0.0141322
-0.0601354
-0.0221482
0.00029612
-0.00854198
0.00114101
-0.00618629
-0.0486426
-0.00961553
0.00148202
0.000369153
-0.0286811
-0.0465999
-0.0147807
-0.00324658
-0.00602719
-0.0130013
-0.040799
-0.0353674
-0.0506523
-0.00676271
-0.0650801
0.000272197
-0.0050521
0.00167964
-0.0732135
-0.00366734
0.000511532
-0.0751871
-0.00372211
-0.103199
-0.0842297
-0.126648
0.023656
0.000408027
-0.075101
0.000165762
-0.00142865
0.000253037
-0.00161641
0.000102328
0.000598409
-0.00102563
0.000312195
-0.0396611
0.0120632
-0.0386001
-0.000631156
0.000176276
0.000582956
-0.0380632
-0.00233045
-0.0515497
-0.0286821
0.000207899
0.000607625
-0.000328621
-0.000535755
-0.0713787
-0.00468435
-0.0127503
0.000283233
-0.0138183
-0.000636944
-0.0240973
-0.12081
-0.00919045
-0.074101
-0.0192147
-0.0032997
-0.0615176
-0.162384
-0.0375811
-0.00359625
-0.0161715
-0.000986748
-0.0507191
-0.000290276
-0.00715851
-0.0101532
-0.00913145
0.00025559
-0.0425388
-0.086627
0.00076089
-0.00346168
0.00759502
-0.000339543
-0.0189255
-0.00933357
-0.024896
-0.0473442
-0.0403354
-0.00450442
0.000187449
-0.000685615
-0.134013
-0.0674945
-0.000567166
-0.0841076
0.000630743
-0.00885304
0.000314268
-0.011423
-0.074119
-0.0075401
-0.00189216
0.00239161
-0.0251467
0.000571116
-0.161011
0.0153864
-0.103719
0.000436279
-0.0128698
-0.0910451
-0.116545
-0.0671354
0.00110909
-0.0768002
-0.00987683
0.003078
-0.0296302
-0.0224314
-0.0141979
-0.12727
0.00225518
0.00133982
-0.0723882
0.000393457
-0.00226884
-0.00730559
0.000297091
-0.164829
-0.0170429
-0.0560108
0.00183867
0.00232127
0.00027517
-0.0145801
-0.000670693
0.00236666
0.000241361
-0.00319245
-0.00286095
-0.0903103
-0.000987188
0.000437061
-0.0101574
-0.0141792
-0.0911016
0.000339757
0.00114338
-0.0544164
-0.0218535
-0.00228783
-8.69303e-05
-0.00622798
-0.0658666
-0.0132626
-0.0864517
-0.0417553
0.000304097
0.00251404
-0.160102
-0.00166831
-0.0117342
-0.000313177
0.000266552
-0.0171091
-0.0213519
0.00500363
-0.00681196
0.00264442
-0.0088263
0.00111352
-0.0617405
-0.0090271
-0.0390926
-0.0192443
-0.0126291
-0.0386581
-0.0547309
-0.0747497
-0.00704726
-0.0456757
-0.0608878
-0.0144453
-0.118838
-0.00329804
-0.017238
-0.0312761
-0.0947905
-0.00941086
-0.0128724
0.000277992
0.00149267
-0.125147
-0.140262
7.55698e-05
0.00059937
-0.0511281
-0.00203068
0.000479236
-0.119504
0.000611738
-0.00866054
-0.157681
-0.0933067
-0.00438763
-0.00138256
-0.00951894
-0.117786
-0.0706633
-0.0634922
0.00146795
-0.0522378
-0.0329403
-0.00735313
-0.044353
-0.0426401
-0.0110346
-0.014025
-0.00414013
-0.0524613
-0.0767773
0.00183591
-0.0384992
-0.162082
-0.0209891
-0.0975959
-0.0112704
-0.0387798
-0.000824879
-0.00739264
-0.00324051
-0.00993047
-0.00935725
-0.0776311
0.000480123
-0.0536362
-0.00432813
-0.0308742
-0.0399808
-0.0377938
-0.0787202
-0.0459519
0.000387447
-7.02274e-05
-0.0531696
-0.00961398
0.00500463
-0.010723
-0.0944094
0.000844294
-0.0291027
-0.00962999
-0.009834
-0.0836584
-0.162986
-0.0921455
-0.00980782
0.00201598
-0.000233247
-0.106036
-0.00928235
-0.00980559
-0.0824761
-0.000799183
-0.0244016
-0.0336899
-0.00475829
-0.0328104
-0.0113099
0.000598916
-0.00320843
-0.0846878
-0.0541127
-0.0117118
0.00126529
-0.0127231
-0.146458
-0.0548677
0.000454214
-0.0135239
-0.000457744
-0.00221415
-0.000324716
0.000633084
-0.0390359
-0.00977867
-0.00852678
0.001247
-0.000154583
-0.00775299
-0.0797457
-0.0882983
-0.0274045
-0.0461281
-0.00447024
-0.0257076
-0.000219998
-0.000515063
-0.00705026
-0.00822669
-0.081096
-0.0103403
-0.0502423
-0.0112811
-0.0123842
-0.000545051
-0.112271
-0.00144667
0.00637318
0.00623168
-0.0703475
-0.0176608
-0.0229139
-0.0772057
-0.0291778
-0.000582687
-0.00856107
-0.0337075
-0.124711
-0.026786
-0.00182161
-0.00379415
-0.0450023
-0.0435216
-0.0347005
-6.99343e-05
-0.0112874
-0.000634886
-0.000683371
-0.0790889
0.000937481
-0.0515212
-0.0144349
-0.000604144
0.00173232
-0.000742432
-0.00958715
0.000275732
-0.0157796
-0.0713202
-0.000857812
-0.0696566
-0.146331
0.000592844
-0.0276316
-0.0136564
-0.000645812
0.000886239
-0.00500899
-0.000732488
-0.0556121
-0.0192745
0.00034723
-0.00199766
0.00063339
-0.100063
0.00114755
0.00580007
-0.0845291
-0.0720736
-0.00483731
0.00455358
-0.0229035
-0.000977614
-0.011997
0.00664752
-0.0219137
-0.0042049
-0.00791107
-0.00591351
-0.128781
0.000364463
-0.0571306
-0.0168988
-0.0245628
0.000281893
0.000594386
-0.0372345
-0.000995583
-0.00457966
0.000721725
-0.00891556
-0.0153414
-0.0101702
-0.0286259
-0.0108902
-0.00185324
-0.0558575
-0.00782181
0.000603535
-0.00649005
0.00201254
0.00268312
-0.0299488
-0.0311411
-0.0275851
-0.0197999
0.00121461
0.010941
0.000398832
-0.125286
-0.0729842
-0.016908
-0.0594706
-0.00888923
0.000798217
-0.00192266
-0.00288439
-0.015546
0.000387599
-0.00060376
0.000724595
-0.0526847
0.000570315
0.000689153
-0.0172009
-0.0324249
-0.073579
-0.000384119
0.000475642
-0.00301605
-0.0532368
-0.0346587
-0.0228154
-0.114846
-0.0353816
-0.0568743
0.00067349
-0.045123
-0.00754683
0.000629642
-0.00204807
-0.104069
-0.0640771
-0.00865941
-0.0305058
0.00337326
-0.00843741
0.000133601
-0.00484008
0.00435473
-0.0163066
9.37833e-05
-0.0314697
-0.000236689
-0.0799885
-0.000132593
-0.0103149
0.000277713
-0.0448226
-0.0145391
-0.0838991
-0.0619907
-0.0554923
-0.0348124
-0.0953793
-0.00825969
-0.0371966
0.000643118
0.0013373
0.000555704
-0.011241
-0.0329827
-0.0116192
-0.0906272
-0.0175826
-0.0259719
-0.0127877
-0.0563587
-0.00512203
-0.00948541
-0.0240188
-0.00745553
0.000816997
0.00201353
-0.00285142
-0.00913792
-0.0185798
-0.00357339
-0.0299645
0.00153822
-0.01678
-0.0755372
0.00238429
0.00079479
-0.0185108
-0.131398
-0.0200517
-0.0294006
-0.0232732
0.00352018
0.000660366
-0.0768855
0.00220321
-0.0347016
-0.0276212
-0.0843518
-0.00456051
-0.0424867
-0.00680713
-0.00330356
0.00257784
-0.00908217
-0.128863
-0.000181027
-0.0918812
0.00210871
-0.0322849
-0.0650758
-0.0170905
-0.0831214
-0.0706515
0.000487326
0.0323401
-0.0874578
0.0316653
-0.0747925
-0.00652463
-0.00654275
-0.0835522
-0.031569
-0.138066
-0.00689222
-0.0138715
-0.00808605
-0.0951286
-0.0666226
-0.0153667
0.00684723
-0.0230066
-0.0616193
-0.0773233
-0.010303
-0.0107035
-0.0766931
-0.0252374
-0.00209701
-0.0638508
-0.000807952
-0.0151154
-0.000485113
-0.110526
-0.0853692
0.00097222
-0.00317305
-0.00702708
0.00052407
0.000176644
-0.00363635
-0.0237153
-0.00608024
-0.0503574
-0.0142104
-0.077687
-0.0185617
-0.161702
-0.0108232
-0.0449995
-0.0565035
-0.0480466
0.00298783
-0.00588625
-0.0374342
0.000118374
-0.00958597
0.000816727
-0.0238644
-0.00314589
-0.0721095
-0.000531152
0.00127702
-0.123386
-0.0176267
-0.0349387
-0.0144314
0.00093238
-0.000578493
-0.0378887
-0.0756544
-0.156225
-0.000877898
-0.0482216
-0.0110307
-0.00437733
0.000625421
-0.0946482
-0.0353448
-0.00854516
-0.0616489
0.00573788
-0.0106873
-0.0749869
-0.0749686
0.00237004
0.00161607
-0.016375
0.00397828
-0.0465353
0.00016251
-0.0631832
-0.00554314
-0.00434478
0.00387812
-0.0902193
-0.00426157
-0.112017
0.00125315
-0.119416
0.00665944
0.00473309
-0.00446966
-0.00156977
0.000742574
0.000983832
-0.0190464
-0.0903294
-0.102465
-0.0174358
-0.0821115
-0.00206556
-0.077337
-0.0853254
-0.0369243
-0.00691032
-0.00152133
-0.00534038
-0.00297635
-0.0721395
-0.00603601
-0.0174993
-0.00419145
-0.039435
-0.075854
-0.131361
-0.00153456
-0.0770755
-0.00715411
-0.00435344
-0.00393413
0.000480511
-0.122026
-0.0117782
-0.0823214
0.00145369
0.00691417
-0.0627043
-0.0090636
-0.00396692
-0.00713825
-0.0667143
0.00127093
-0.0153407
-0.00166622
-0.00366795
-0.0660313
-0.018662
-0.0159615
0.000984277
-0.0148019
-0.0313019
-0.0793788
-0.00103938
-0.0400892
0.000204514
0.00860784
0.00112198
-0.0226631
0.00349992
-0.0394469
-0.0261362
-0.00926263
0.00502598
-0.00390868
0.00188138
-0.00950148
0.000718458
0.00110147
-0.0920057
-0.0254572
0.00077844
0.00169484
0.000515378
-0.0571535
-0.0858306
-0.0362745
-0.0360408
-0.00948084
0.00169405
0.000143244
0.0005589
-0.0573947
-0.0782101
0.000376302
-0.00375801
0.00552515
-0.0777082
-0.0165599
-0.0170527
-0.0786589
-0.0168412
0.00147772
-0.072658
-0.0746034
-0.00587674
0.00123947
-0.00732905
-0.0776435
-0.0658703
-0.022771
-0.0621694
-0.130395
-0.0217204
-0.0759971
-0.0264223
-0.00228559
-0.0361031
-0.0567145
-0.00811265
-0.121481
-0.0126325
6.30494e-05
0.000565157
-0.0546127
0.00395367
-0.0668489
-0.0138378
-0.0234559
-0.0413781
-0.00289841
-0.0727106
-0.076428
-0.0115352
-0.0192391
-0.0660491
-0.038095
-0.133989
-0.012653
-0.00456771
-0.00309784
0.00130663
0.000585154
0.013034
-0.00176954
-0.00720479
0.00628786
-0.002204
-0.0219187
0.00148865
0.00012278
0.000478484
-0.00428835
-0.0165114
-0.0112715
-0.0448014
-0.0206966
0.00135107
-0.0391586
-0.0234348
0.0103152
-0.0776321
-0.00090863
0.000186701
-0.0710245
-0.120793
-0.134136
0.00233289
-0.000127144
-0.131921
-0.0121567
0.000757513
-0.0317089
-0.00210727
-0.0423348
-0.0519554
0.00127357
-0.121447
-0.0723252
-0.0196488
-0.0104915
-0.106652
-0.010535
0.00292423
-0.0345509
-0.141893
-0.0246665
-0.0570731
0.000112102
-0.00710687
0.000970557
-0.0110508
-0.0779636
-0.0765674
-0.110145
-0.0664959
-0.0238585
-0.00520978
0.000224734
0.000535041
-0.00432633
0.000554248
-0.0764621
-0.00247739
-0.0803017
-0.00281902
0.0046384
-0.0346136
-0.0712036
-0.0945145
-0.0775543
-0.0411879
0.000556311
0.00094997
-0.077435
-0.072481
-0.0246148
-0.00170816
0.000474911
-0.0260296
-0.0176507
-0.0658954
-0.0403981
-0.0250407
0.00058252
-0.0652077
0.000987275
-0.0801479
0.00124485
-0.00317122
-0.0468736
-0.00238434
-0.0784466
0.000678804
-0.0775741
0.00096722
-0.0245336
0.00271795
-0.00913049
0.00921574
-0.0297975
-0.040324
-0.127598
-0.0997519
-0.0237145
-0.0220725
-0.00463203
-0.0775684
-0.129212
-0.000351801
0.000736929
-0.0103557
0.000269423
-0.0741672
0.000243519
0.000599841
-0.0192257
0.0183507
-0.00114605
0.00037363
-0.0141478
-0.0561899
-0.0877194
-0.00574321
0.0115901
-0.144834
0.00723754
0.0114927
-0.0043671
-0.121707
-0.0355249
-0.0239146
-0.00852671
-0.00752643
-0.0108982
-0.163365
-0.142034
-0.0421881
0.000961956
0.00302766
-0.000349885
-0.0784787
-0.00898854
-0.0917384
-0.125597
-0.0110396
-0.0275342
-0.00812372
-0.0037656
-0.00475167
-0.0144435
-0.079439
-0.0128996
-0.0562251
-0.000666764
-0.00430261
-0.000582577
-0.008771
-0.0636207
-0.0713882
-0.0141956
-0.129338
-0.0552541
0.000939911
-0.00882512
0.000691508
0.00280273
-0.0767483
-0.071394
-0.00980966
-0.00504028
-0.0147007
-0.0210324
-0.0395351
-0.118326
-0.0140967
-0.0790798
-0.0415228
-0.000299532
-0.00856776
-0.000460169
-0.0456002
-0.0070084
-0.00263931
-0.0794861
-0.0249958
-0.00795593
0.00177675
-0.0216603
0.000717263
-0.11396
-0.112402
-0.0146724
0.00555048
-0.023312
-0.00936661
-0.00195879
-0.00959734
0.000547702
-0.14162
-0.016638
-0.122213
-0.00724288
-0.0151844
-0.023552
-0.0815726
0.00212749
-0.0309495
-0.136433
-0.00259338
-0.0151322
-0.0771179
-0.000313286
0.00335184
-0.0240317
-0.153575
-0.165283
-0.00571173
0.0069128
-0.00842963
-0.00169541
-0.000431093
-0.00907707
-0.0917576
-0.00608049
-0.0213631
-0.0142139
-0.00638782
0.00863321
-0.0491518
-0.0170147
-0.0624091
0.0027543
-0.000224663
0.0188602
-0.0778242
-0.0108299
-0.0375441
-0.0675552
-0.0650724
-0.000390688
-0.0107923
-0.021922
-0.0893642
-0.0870796
-0.00963936
-0.0819409
-0.0193598
-0.00146862
-0.0063823
-0.08249
-0.0274526
0.00185857
-0.137599
-0.00468247
-0.0147643
-0.00244642
-0.166065
-0.00579327
-0.0125205
0.000279176
-0.0151822
-0.0182464
-0.00539609
-0.0449765
-0.145532
-0.0136605
-0.00928289
-0.0376343
7.45117e-05
-0.0112479
-0.0110168
-0.0249949
-0.0435281
-0.0452981
-0.000922752
-0.0833732
-0.0249377
-0.0393705
-0.0123968
-0.0185207
0.000539879
-0.0825593
-0.0817325
-0.0346035
-0.0103436
-0.0554003
-0.145215
-0.0121144
0.00222041
0.000663535
-0.024527
-0.0799538
0.000980146
-0.0827153
-0.0033636
-0.0515938
-0.00518903
-0.0860123
0.000620688
-0.00190415
-0.0112231
-0.00572496
-0.130322
-0.0758294
-0.0563259
-0.0199208
0.000576389
-0.0307768
0.00280948
0.000976407
-0.0668863
0.000146464
-0.0400324
-0.00896078
0.00833443
-0.00499189
-0.00989389
0.00156183
0.00322875
0.00210558
-0.00524987
-0.073488
-0.00213833
-0.00797543
-0.0191561
-0.000230854
-0.00960987
-0.0109608
-0.0184676
-0.0227544
-0.00202923
0.000527592
-0.056072
0.00367252
0.0100966
-0.00261231
-0.0152312
0.000708216
-0.0797843
-0.0114523
-0.00383357
-0.067702
-0.0294349
-0.0256773
-0.0830427
-0.0607602
0.000473832
-0.0141937
-0.0136508
-0.018935
0.00434266
0.000775908
-0.0288485
-0.114581
-0.077367
-0.0709381
-0.0130903
-0.155496
0.00361386
-0.019023
0.00282077
-0.0838695
-0.00982787
-0.0261084
-0.00903694
-0.0759766
-0.118398
0.00197079
0.000756209
-0.0195654
0.00132508
-0.0142801
-0.0530599
-0.00465004
0.0028559
-0.108128
-0.0789791
-5.14796e-05
-0.0268273
-0.0297264
-0.0910346
7.3135e-05
-0.124819
-0.115963
0.00455025
-0.0259962
-0.0433206
-0.0343161
0.00110093
-0.000856803
-0.00161401
-0.0230591
0.000561574
-0.00175825
-0.0829185
-0.146957
-0.151748
0.000611091
-0.0787095
-0.011344
-0.0358359
0.000865444
-0.0106877
-0.0216428
-6.96884e-05
-0.110663
-0.0243035
-0.0169858
-0.0782308
-0.126649
-0.0190116
-0.0523336
-0.11982
-0.0887304
-0.00122471
-0.163579
0.000681001
0.000373648
-0.00878325
0.000998656
0.000911123
-0.127328
0.0026737
0.0025077
-0.000858157
-0.117328
-0.129099
0.00399724
-4.62544e-05
-0.000187439
-0.00875076
-0.11048
0.000635688
5.27577e-05
-0.00609105
0.0193907
-0.000171084
0.00399774
-0.126086
-0.0393058
-0.0246737
0.000533107
0.00240515
-0.0161277
-0.0772217
0.000611052
-0.159796
-0.0403808
-0.0123465
-0.127581
-0.133962
0.000710121
-0.0571251
-0.0134085
-0.156268
0.00191849
-0.00815552
0.00289622
-0.0149128
0.00179195
-0.0598293
0.000944122
0.000940812
0.00127032
-0.0570814
-0.0365582
-0.120094
-0.117372
-0.0122824
-0.0812501
-0.0186391
-0.0328064
-0.0687571
-0.12613
-0.00159543
-0.0982623
-0.0281106
-0.0143874
0.00332474
-0.0652954
-0.0362225
-0.0234966
-0.0195706
0.000718379
-0.131311
0.00205789
-0.0260223
-0.00932094
0.000965
-0.0897798
-0.0340116
-0.0086191
-0.0185979
-0.0191363
-0.00532983
-0.0287976
-0.0353507
-0.0867754
-0.0109816
-0.128864
-0.00532066
-0.0274653
-0.0339547
-0.101219
-0.0102175
0.000968664
-0.000821855
-0.0838741
0.00161466
0.00272337
0.00255301
-0.0139196
0.000838129
-0.00997736
-0.100533
-0.0734339
-0.160855
-0.128803
-0.00262051
-0.060099
-0.0865648
-0.0640029
-0.149805
-0.0928121
-0.0011173
-0.12411
-0.0254085
-0.0348547
-0.0751942
-0.0407448
0.00106642
-0.131223
-0.00203502
-0.0105699
-0.0567696
-0.115905
-0.0755086
-0.0793396
-0.0105145
-0.0148577
-0.00506276
-0.0821422
-0.137519
-0.0062346
-0.0507622
-0.010569
-0.0112271
-0.0100131
-0.0781935
-0.0426783
-0.0110996
-0.0104536
-0.0224294
-0.0051419
-0.0183526
-0.0181303
0.000717629
-0.0104263
0.0267015
-0.0257614
0.00865585
-0.0140527
-0.0121982
-0.00770355
-0.100933
-0.0867055
-0.00446216
-0.00711442
-0.00919062
-0.029832
0.000288949
0.0011501
-0.0145811
0.000607277
-0.00571811
-0.00402791
0.000500914
-0.0077455
-0.0316734
-0.0224579
-0.0943194
-0.0114764
-0.00610207
-0.0842976
-0.0092021
-0.0261002
0.000554399
-0.0106784
-0.000920965
-0.00983447
-0.000174075
-0.0196535
-0.00938592
-0.0955292
0.00555454
-0.0135869
-0.0157503
0.000728055
-0.00517153
-0.00611873
0.00231979
-0.049086
-0.14802
0.00873426
-0.0156539
-0.00894172
-0.0120211
-0.00103716
-0.014552
-0.00404255
0.00776272
-0.0657789
0.00112477
-0.0475545
-0.100951
0.00207277
-0.00373585
-0.00199434
-0.0273316
-0.0529493
-0.00113212
-0.029596
-0.0725781
0.00563882
0.0010508
-0.10152
0.000677828
0.00393284
0.000641812
0.000694151
-0.000206673
0.00076769
0.00434205
-0.0549573
0.00502982
-0.0216945
0.0159224
0.0129259
0.00768917
-0.0354787
-0.111966
-0.141181
-0.0427116
-0.0480521
-0.0813193
-0.0612348
0.00404726
-0.0179554
0.000908713
0.00930813
-0.00194548
-0.0172288
-0.0596218
0.00114923
0.00966072
0.00977151
4.90299e-05
0.00113258
-0.00985801
0.00215349
0.000860569
-0.000291984
-0.130171
-0.0673885
-0.0106487
-0.00884458
0.000745019
-0.0530434
-0.0799987
-0.0910795
-0.0276081
-0.073592
-0.0016483
-0.0732349
-0.074994
-0.00199879
-0.00542522
-0.00896628
6.95621e-05
-0.00354352
-0.00270377
-0.00194356
-0.0169708
-0.0972804
-0.0509332
-0.0853362
-0.00321328
-0.0363696
-0.0681063
-0.00840863
0.00067794
0.00115781
0.000636463
-0.0174709
0.00300356
-0.0428535
-0.0128404
-0.0783812
-0.029027
-0.128257
-0.0356082
-0.0866332
-0.0776523
-0.0051922
0.00069218
-0.0034787
-0.00779699
0.00071781
-0.017877
-0.093208
-0.0748593
-0.00975905
-0.0109911
0.00168443
-0.0154893
-0.0389956
0.000677573
-0.00030185
-0.0668648
0.000100278
-0.00771218
-0.0143238
-0.055017
-0.015345
-0.0724466
-0.0665952
-0.0041988
-0.0830173
-0.0563286
-0.080044
0.000703207
-0.00983892
-0.000398153
-0.0131619
-0.056515
0.000686431
-0.119756
0.0010975
-0.000661366
-0.0102253
-0.0808698
-0.0411736
-0.0523445
-0.00650386
0.000453607
-8.89349e-05
-0.124681
-0.00255978
0.000915988
0.00123843
-0.0067354
0.000532983
0.000467322
0.000634478
-0.0769992
-0.0777005
-0.0831962
0.00438099
-0.0524117
-0.129334
-0.0570744
-0.0770031
-0.0369935
0.000651711
0.000497798
0.000301341
-0.00554711
-0.0817242
-0.0831228
0.000846734
-0.116345
-0.0769667
-0.0393143
0.00108898
-0.00829563
-0.0133378
-0.0738608
-0.0923484
0.0344932
-0.0890994
0.000265996
-0.0521813
-0.0421298
0.00193704
-0.0747316
-0.0095186
-0.0648626
-0.127817
-0.00573604
-0.0685367
-0.00461465
0.000103919
-0.129258
-0.0788143
-0.0578977
-0.0151236
-0.108512
-0.0655694
-0.0762683
-0.0812683
-0.0981963
-0.0603001
-0.0258649
-0.0108608
0.00201685
-0.0419068
-0.0803094
-0.00144999
-0.0786358
-1.67734e-05
-0.0295587
0.00703068
0.000130771
-0.0834803
-0.00983136
-0.0633207
-0.0932061
-0.00980734
-0.0433833
-0.0512092
-0.0783905
-0.0197857
-0.0357824
0.00153499
-0.000297548
-0.0808238
0.00110396
0.000940377
-0.0360089
-0.0205817
-0.0791238
-0.0235885
-0.00668521
-0.0184611
0.000732045
-0.0404963
-0.0120274
-0.0613097
0.0043313
-0.000211702
-0.0748538
-0.044573
0.0011627
-0.120237
-0.0696394
-0.00922853
-0.00925159
-0.0157833
-0.0777431
-0.00443869
0.000857786
-0.064679
-0.0126182
-0.0790129
-0.0856916
-0.0503462
-0.00118711
0.00126175
-0.0108854
-0.0645895
-0.0294937
-0.000603851
-0.075804
-0.0494398
-0.0019821
0.000455637
-0.035884
-0.0104384
-0.103038
-0.0565804
0.000302889
-0.142694
-0.0523582
-0.0235534
-0.000121482
-0.0782679
-0.0781857
-0.115463
-0.0104071
0.000831087
-0.0430766
-0.0098831
-0.00568207
-0.000640761
-0.0077243
0.000390323
0.0261981
-9.28511e-05
-0.000146629
-0.0300892
-0.0620553
-0.0759439
0.00853172
-0.08104
-0.0882613
0.000383505
-0.0739831
-0.0739185
-0.0805437
0.00046349
-0.0345586
-0.0818627
-0.139518
-0.0633626
-0.0411954
-0.000704299
-0.0770369
-0.0508782
-0.0654981
-3.13501e-05
-0.0431501
-0.049213
-0.00925552
-0.0552638
-0.134939
0.00367768
-0.131198
-0.0724165
-0.00617751
-0.000354287
0.00188072
-0.00940877
-0.0137485
0.00066417
8.51082e-05
-0.0755878
-0.0710344
-2.54319e-05
-0.0468841
-6.47437e-05
-0.0107024
-0.131781
-0.08086
-0.131174
-0.0347749
-0.0827649
0.000821739
0.000586515
-0.0282278
-0.0941174
-0.0709992
-0.0486889
-0.0713616
-0.0192204
0.000250703
-0.00935672
-0.0182951
-0.0308018
-0.154886
-0.0737764
-0.0182816
-0.0841797
-0.107591
-0.0033868
-0.0915677
-0.0110418
-0.0251436
0.0112218
-0.010775
0.00121254
-0.0230399
-0.0228449
-0.000260262
-0.0798034
0.000694725
-0.0485205
-0.0195509
-0.0161012
-0.0892454
-0.0250375
-0.0780949
1.48462e-05
-0.0601549
-0.0796159
-0.0586607
-0.0642497
-0.00535358
-0.0160679
-0.0744783
-0.0769446
0.000619267
-0.0293014
0.000850116
-0.000583456
-0.00890003
-0.0271259
-0.0754981
-0.091941
-0.00865405
-0.149395
-0.0269002
0.00071205
-0.00180036
-0.0105292
-0.0030487
-0.0382982
-0.0766429
-0.0767309
-0.0586913
-0.0198565
-0.00505753
-0.0243997
-0.000392308
-0.0780129
0.00165171
-0.000103846
-0.0255267
-0.0492276
0.0210982
-0.0779441
-0.0342329
-0.153271
-0.0134593
-0.103892
-0.0697386
-0.0762407
-0.00570416
0.000713907
-0.0218664
-0.010918
-0.069491
-0.127863
-0.0250333
-0.0214881
-0.0659001
-0.0273538
-0.023715
0.00609338
-0.000273015
-0.00279402
-0.0648267
-0.00137839
-0.022647
-0.019254
-0.0208444
-0.0150103
-0.125296
-0.0664857
-0.00687989
-0.0113423
-0.030942
-0.0052495
0.00118997
-0.019682
-0.0401751
0.00287362
-0.162466
-0.00985933
-0.0786502
-0.0104424
-0.000364718
-0.0097304
-0.0802614
-0.0041416
-0.0749394
-0.0623983
-0.0219411
0.00679255
-0.0628544
0.000317798
-0.0655085
-0.00476366
-0.00381641
-0.0498662
0.000929658
-0.0754351
0.00145867
-0.00308075
0.000685266
-0.00360142
-0.0290858
-0.0127717
-0.0505124
-0.0474662
-0.0120093
-0.00321597
-0.0341443
-0.171064
0.0010123
-0.0377068
0.000485518
-0.00316241
-0.0351046
-0.0545061
-0.0181202
-0.0501085
0.0146509
0.000725463
-0.00827711
8.17664e-05
-0.00303999
-0.00532105
-0.0750396
0.00373978
-0.0296601
-0.0018154
-0.0844727
-0.0711349
-0.0301347
-0.00239208
-0.054373
-0.0708865
-0.159436
0.00108488
-0.0203132
-0.0484097
-0.0260401
0.00174764
-0.0696488
-0.0756668
-0.0127923
-0.002803
-0.0710017
-0.0224068
0.0353032
-0.00823213
-0.0377919
0.000718339
-0.0122489
-0.0365242
-0.014933
-0.0192283
-0.00196786
-0.00208127
0.014899
-0.100391
-0.00186653
0.0195291
-0.0704814
0.000720669
0.00103503
-0.0752445
-0.0368613
-0.0515176
-0.0101141
-0.0216051
1.86091e-05
0.000638413
-0.00125074
-0.0574239
-0.0225971
-0.075199
-0.0586661
-0.0268953
-0.0752924
-0.0251896
-0.0369711
-0.00253614
5.43602e-05
-0.0389705
-0.0244811
-0.00260077
-0.0381832
-0.00490725
-0.0147011
-0.0230438
0.00206431
0.00078181
-0.0297983
-0.00891989
0.00196993
-0.0308456
-0.0398027
0.000728536
-0.0333139
-0.0348146
-0.0689215
-0.022097
-0.0806722
-0.0283214
-0.0791349
-0.000718857
-0.0493599
-0.0309705
-0.00559571
-0.00289965
-0.0202746
-0.0332645
-0.00676944
0.000906989
-0.0450821
-0.0787464
-0.0299607
-0.00182915
-0.0102963
-0.0225476
0.00695974
0.0266374
0.0013806
7.79099e-05
0.00336215
-0.0026242
-0.0145918
0.020268
-0.0787334
-0.023546
-0.0817032
-0.00197642
-0.0232576
-0.0101634
-0.0232187
-0.0110121
0.000785583
-0.0269592
0.00573626
-0.00189949
-0.161059
-0.0225482
-0.0899292
0.000953533
-0.00248256
-0.0351735
-0.0578945
-0.019815
-0.0534882
-0.0209901
-0.0350245
0.00424489
-0.00264337
-0.149654
-0.0715025
0.00798789
-0.00823463
-0.0205899
-0.00670019
-0.000716987
-0.0554566
0.00147344
-0.150027
-0.0677388
-0.0552253
-0.00914547
0.00096112
-0.0210735
-0.0534141
-0.0148606
-0.00703298
-0.00569997
-0.000861036
-0.0044779
0.0018288
0.010241
-0.0798373
-0.00555089
-0.00451855
-0.0801363