/*--------------------------------*- C++ -*----------------------------------*\
| =========                 |                                                 |
| \\      /  F ield         | OpenFOAM: The Open Source CFD Toolbox           |
|  \\    /   O peration     | Version:  v2012                                 |
|   \\  /    A nd           | Website:  www.openfoam.com                      |
|    \\/     M anipulation  |                                                 |
\*---------------------------------------------------------------------------*/
FoamFile
{
    version     2.0;
    format      ascii;
    class       volVectorField;
    location    "100";
    object      U;
}
// * * * * * * * * * * * * * * * * * * * * * * * * * * * * * * * * * * * * * //

dimensions      [0 1 -1 0 0 0 0];


internalField   nonuniform List<vector> 
13851
(
(1.01857 -0.0074288 0)
(0.597405 0.157903 4.53886e-21)
(1.05099 -0.0520907 8.23469e-21)
(1.01847 -0.007184 0)
(1.06345 -0.0406953 0)
(1.02868 -0.0429087 0)
(1.02694 -0.000174799 0)
(1.04537 -0.0377788 8.24466e-21)
(1.01102 -0.000859821 5.02098e-23)
(1.02032 -0.0641348 -4.0725e-21)
(0.939319 -0.0948923 0)
(0.602248 -0.171848 -1.44135e-21)
(0.949996 -0.0591128 -8.78522e-21)
(0.282486 0.241427 -2.55762e-20)
(1.01786 -0.000190656 7.55935e-24)
(1.02916 -0.0260671 -8.05874e-24)
(1.03708 -0.0170644 3.17382e-21)
(1.02071 -0.0168497 -6.04368e-22)
(1.02316 -0.0535909 -8.78354e-21)
(1.01091 -0.000862831 -1.12681e-22)
(1.01834 -0.00717933 1.05539e-22)
(1.05252 -0.0501625 2.6878e-21)
(1.00776 -4.45468e-05 9.32533e-23)
(1.00878 -0.000135303 2.59042e-24)
(1.0069 -6.0324e-05 0)
(1.04399 -0.0387073 -8.39625e-22)
(1.04416 -0.0113196 0)
(0.0118097 -0.11108 2.40485e-20)
(1.01855 -0.00757389 9.38027e-24)
(1.0245 -0.0144513 -6.8621e-22)
(1.02107 -0.0540059 0)
(1.03751 -0.0178629 0)
(1.04889 -0.0519016 -1.41921e-20)
(0.869809 -0.122383 0)
(1.00937 -0.000133176 3.66737e-25)
(1.08488 -0.0280637 -9.60926e-21)
(1.06551 -0.029175 -5.06212e-20)
(1.06709 -0.0482122 0)
(1.02044 -0.0682928 1.48101e-21)
(0.865243 -0.0931018 2.32593e-22)
(1.01643 -0.0050555 2.50621e-22)
(1.00961 0.000111058 -6.53588e-23)
(-0.0103079 0.082278 4.80174e-20)
(0.900678 -0.114121 0)
(0.88205 -0.123686 0)
(0.0921964 -0.165452 -1.83565e-21)
(0.862814 -0.114402 -9.37214e-22)
(0.851647 0.159288 2.95381e-21)
(1.04495 -0.011669 -1.25248e-20)
(1.01181 0.0193119 -1.41531e-21)
(1.07065 -0.0322667 3.00948e-20)
(1.07579 -0.0409768 2.61536e-20)
(-0.0255141 -0.110667 0)
(1.01838 -0.000242813 -3.43424e-21)
(1.01432 -0.000519147 0)
(1.00977 0.000119204 0)
(1.00897 -8.56957e-05 4.48774e-24)
(-0.0160271 -0.124789 -4.90883e-20)
(1.02427 -0.0140268 -1.18561e-21)
(1.02789 -0.00213914 -2.7902e-21)
(1.06621 -0.0486015 0)
(0.529759 -0.0112774 -2.20244e-23)
(1.00051 -0.0266428 2.18305e-21)
(1.06634 -0.0415956 9.88084e-22)
(1.05008 0.0365198 -1.21486e-21)
(1.0193 -0.0069832 -3.85393e-22)
(1.04469 -0.0293097 0)
(0.860494 -0.0758558 -6.15737e-22)
(1.0564 -0.0219374 7.3258e-22)
(1.02005 -0.0165222 1.95138e-22)
(0.541374 -0.000736918 4.30456e-20)
(0.997882 -0.0297911 0)
(0.582892 0.170186 -5.24375e-21)
(1.0183 -0.000285963 3.05325e-21)
(1.01323 -0.000805413 6.92876e-22)
(1.0128 -0.00111037 1.40672e-22)
(1.05241 -0.0488535 0)
(0.628502 -0.00962742 4.33326e-20)
(1.05695 -0.0326043 -1.52542e-20)
(0.535964 -0.00346815 9.78588e-21)
(1.03066 -0.00497576 -6.44675e-21)
(0.885832 0.048248 3.61995e-23)
(1.01997 -0.00284533 -6.71138e-21)
(0.0988766 -0.129001 0)
(1.00224 -0.0311936 -2.67512e-21)
(0.628382 -0.170133 1.09538e-21)
(1.01529 -0.0270812 -1.24415e-21)
(0.651706 0.0222317 -1.48865e-20)
(1.04254 -0.0163042 0)
(1.01439 -0.000305938 0)
(1.08438 -0.0283494 0)
(1.02406 0.00526103 0)
(0.860255 -0.0389063 -8.18759e-22)
(1.04636 -0.0194564 0)
(1.04284 -0.0156151 4.3252e-21)
(1.00831 -7.59363e-05 -4.54729e-23)
(1.06454 -0.040624 0)
(0.726255 -0.0840059 2.81293e-20)
(1.0117 0.0247182 1.33412e-21)
(1.00746 -1.30027e-05 0)
(0.0810898 -0.0571587 1.78073e-20)
(1.06225 -0.0302799 -8.5811e-21)
(1.0194 -0.00865394 0)
(1.04811 -0.00488387 1.84792e-21)
(1.00763 1.91051e-05 0)
(1.00225 -0.0217656 1.4178e-21)
(1.06516 -0.0306274 0)
(1.00898 0.000127179 3.96009e-23)
(0.931605 -0.0288914 0)
(1.03855 -0.0419284 3.98765e-22)
(1.00774 -3.87241e-05 -5.70766e-23)
(1.01472 -0.00031673 0)
(1.02331 0.00362555 -6.81034e-23)
(1.00383 2.08169e-05 0)
(1.00856 -5.45572e-05 0)
(0.746208 0.112825 1.60502e-21)
(0.745483 -0.0810231 -7.3593e-21)
(1.00821 8.0866e-05 0)
(1.01021 -0.000213119 -2.82295e-23)
(1.01331 -0.000428999 7.64546e-22)
(-0.0172918 0.0851021 6.63053e-22)
(1.04736 -0.00531277 -2.87669e-21)
(0.928429 -0.0612341 0)
(0.80102 0.015376 -4.96075e-21)
(0.885143 0.142118 -3.18003e-21)
(1.01585 -0.00131242 1.67339e-22)
(0.908701 0.118861 -9.10389e-21)
(1.05956 -0.031595 2.48229e-21)
(1.01819 -0.00696863 4.53499e-23)
(1.06632 -0.0465458 -1.61144e-20)
(1.01628 -0.00489046 7.09567e-22)
(1.01031 -0.000965427 1.1722e-22)
(0.560758 -0.00398864 -2.9777e-20)
(1.01991 -0.00262963 5.36168e-21)
(0.740422 0.0818709 2.36531e-21)
(1.01044 -0.000431097 3.42047e-22)
(1.00813 7.39335e-05 1.20957e-22)
(1.00382 -0.030348 3.80835e-21)
(0.0973282 0.18317 0)
(0.309082 0.183354 8.78508e-22)
(0.0281312 -0.081984 -5.13084e-23)
(1.01427 -0.000468636 -1.33594e-21)
(1.01735 -0.000907684 5.04024e-22)
(1.01213 5.48841e-05 0)
(1.03114 -0.0136023 -1.5996e-21)
(0.906109 -0.0990112 5.52601e-21)
(1.02184 0.00323235 -2.90721e-22)
(1.06588 -0.0467722 2.46814e-20)
(1.02636 -0.000219175 6.64008e-21)
(0.878857 -0.113922 1.33153e-21)
(1.07733 -0.0233899 -3.46992e-20)
(1.01342 -0.000540191 -1.3345e-21)
(0.301225 0.229707 -4.09327e-20)
(1.00901 -8.44154e-05 -2.28092e-22)
(1.03637 -0.0104099 0)
(1.03056 -0.0134484 6.40718e-21)
(1.01305 -0.00246516 0)
(1.02516 -0.012996 2.61852e-21)
(1.07504 -0.041823 -2.60586e-20)
(1.06972 -0.0325431 -2.81924e-20)
(1.01161 0.00040466 -6.61774e-25)
(1.05137 -0.0160318 0)
(-0.0212993 -0.12485 2.64545e-20)
(1.01021 -0.000912638 -1.29602e-22)
(1.02575 -0.0177509 0)
(1.01086 9.22296e-05 -2.01065e-22)
(1.02279 0.00470267 2.80363e-22)
(1.05744 -0.0218307 4.02112e-22)
(1.01808 -0.00691655 0)
(0.609497 -0.129247 0)
(0.613449 -0.00674182 -5.17735e-20)
(1.00895 -0.000274978 0)
(1.01317 -0.00256233 6.53901e-22)
(0.296992 0.198958 -9.70515e-22)
(1.01004 -0.000833117 0)
(0.837653 0.164612 2.37138e-21)
(1.05847 -0.0315335 7.52635e-21)
(1.01628 -0.000837714 0)
(1.01157 -0.0551136 -1.55368e-20)
(1.00949 0.000168134 0)
(1.03739 -0.0192539 -3.85593e-21)
(0.983672 -0.0296611 0)
(1.01972 -0.00216519 0)
(1.05442 -0.0507783 -6.06287e-21)
(1.00866 0.000118139 -6.3265e-25)
(1.00806 -9.51267e-05 0)
(1.01917 -0.00693254 0)
(1.01416 -0.00055885 -3.6877e-22)
(1.06362 -0.0435353 0)
(0.990806 -0.0294206 -3.65515e-21)
(0.863801 -0.0893094 2.07332e-21)
(-0.0326193 -0.113913 0)
(1.01543 -0.000438234 -4.50063e-22)
(1.05376 -0.024124 -3.05483e-21)
(0.579467 -0.00060531 -1.19897e-22)
(1.03513 -0.0102354 6.17268e-23)
(1.01691 -0.00108175 4.77386e-22)
(0.854465 0.0475043 -7.89851e-22)
(1.01633 -0.000873294 0)
(1.01293 -0.00114365 -1.40594e-22)
(1.01613 -0.00144729 -1.68028e-22)
(0.277675 -0.155336 3.09654e-20)
(1.00817 -0.000116184 7.17848e-22)
(1.01759 -0.00371587 0)
(1.00687 -0.0401541 1.28256e-22)
(1.02008 -0.00228005 -6.11846e-21)
(0.482138 0.0419029 -1.21246e-22)
(1.03897 -0.0169309 7.19274e-21)
(0.645461 -0.0132047 -2.87457e-20)
(1.01031 0.000279781 -2.13453e-23)
(0.810494 -0.030385 -3.21952e-20)
(1.01929 -0.0083774 0)
(0.847831 0.071506 -1.9351e-21)
(1.00918 0.000181386 -1.73053e-23)
(1.0117 9.50475e-05 0)
(0.963333 -0.0381667 6.0684e-22)
(1.01123 -0.0332044 1.09021e-22)
(-0.00542608 -0.156603 1.90508e-21)
(1.01807 -0.000585194 4.18152e-21)
(0.656246 -0.0148729 2.8539e-20)
(1.03898 -0.0174866 -1.3223e-20)
(1.03137 -0.00515681 9.15757e-21)
(0.820171 -0.0518232 0)
(1.07068 -0.0442891 -3.63376e-22)
(0.753304 -0.0239754 0)
(1.00697 -6.9219e-07 2.11932e-22)
(1.04791 -0.0221266 0)
(1.00676 -8.93699e-06 3.83524e-23)
(-0.077629 -0.0874694 3.1316e-20)
(1.00937 0.000201933 7.44936e-23)
(1.04231 -0.038087 -5.99811e-21)
(1.07771 -0.0756616 3.9357e-21)
(1.00875 -0.000249971 -4.83431e-23)
(1.01507 -0.000428115 0)
(1.07005 -0.0293474 1.56465e-20)
(1.02919 -0.0225822 -4.43834e-23)
(0.550302 0.0348292 -1.81349e-20)
(1.01417 0.0525978 1.47227e-21)
(1.0121 7.22474e-05 0)
(1.01784 -0.00378751 1.00537e-21)
(1.01064 -0.0493561 0)
(1.02027 0.049056 0)
(1.014 0.000654885 0)
(1.00366 -0.0424935 -1.43022e-22)
(1.00849 3.41691e-05 -4.81458e-23)
(0.716837 -0.0214277 2.90967e-20)
(1.06206 -0.0312702 0)
(0.847678 -0.0580345 -2.38778e-21)
(1.02981 -0.0138255 3.2021e-21)
(1.03207 -0.0189356 0)
(1.01551 -0.00726956 -4.85755e-22)
(1.01684 0.0496993 0)
(1.02733 -0.00822907 0)
(1.03039 -0.0140035 -1.66337e-21)
(1.06742 -0.0260653 -1.81228e-20)
(0.929827 0.0360154 0)
(0.993871 -0.0248032 3.6415e-21)
(0.991445 -0.0306299 -1.65611e-20)
(0.615396 -0.0154088 1.74292e-21)
(1.02011 -0.000237253 0)
(1.01175 8.46373e-05 0)
(1.01947 -0.0149707 0)
(0.968821 -0.159834 0)
(1.01369 -0.000304677 -2.87893e-22)
(0.955382 -0.0529696 0)
(1.0347 -0.0104025 -1.19332e-20)
(1.02727 -0.00784471 -3.11767e-21)
(1.04611 -0.0188752 0)
(0.841818 -0.0521394 0)
(1.01445 -0.00921377 6.20978e-22)
(1.01459 -0.00670644 2.59818e-23)
(1.03588 -0.010689 -1.21549e-20)
(1.05057 -0.103631 1.14889e-21)
(1.05624 -0.0315024 -1.47749e-20)
(1.02874 -0.0250536 -4.50749e-21)
(1.01041 -0.00104532 -2.69957e-22)
(0.87663 0.023867 8.19402e-22)
(1.00664 0.00539322 -9.60083e-22)
(0.763971 -0.0234578 0)
(0.933655 -0.0803545 1.20445e-21)
(1.01425 0.000669959 0)
(1.01002 0.000273721 0)
(1.0078 2.0102e-05 0)
(1.06682 -0.0254415 6.06104e-21)
(0.948926 -0.178064 0)
(0.818397 0.162003 2.43596e-21)
(1.01194 -0.00104838 1.59441e-22)
(1.0182 0.000310761 -1.06922e-21)
(1.03324 -0.116176 -1.32133e-21)
(0.91822 -0.00939434 -1.31339e-21)
(1.06626 -0.0473288 1.50488e-20)
(1.0245 -0.0136744 1.55248e-21)
(1.02815 -0.00246777 0)
(1.05656 -0.0247039 0)
(0.923917 0.020054 9.89723e-22)
(0.970915 -0.0548534 1.52954e-20)
(1.02669 -0.0178724 0)
(0.614272 -0.16892 1.15309e-22)
(1.01062 -0.00117359 -1.45408e-22)
(0.730324 -0.022832 -2.76456e-20)
(1.05099 -0.015524 1.1569e-20)
(1.0362 -0.0170025 3.28005e-21)
(0.771344 -0.0249648 2.1449e-20)
(1.02011 -0.00747241 1.1073e-21)
(1.00522 -0.0265188 0)
(0.772195 -0.0340524 1.2025e-20)
(1.0117 -0.00101803 0)
(1.06334 -0.0244435 -9.01017e-21)
(1.04572 -0.0200823 0)
(1.02422 -0.0132767 -7.0778e-22)
(0.109471 0.162527 -4.16085e-21)
(1.02644 -0.0179785 -2.93594e-21)
(1.0261 -0.00821867 -5.60468e-21)
(0.796138 -0.062217 1.01609e-20)
(1.00991 0.000116093 8.70877e-23)
(1.03251 -0.0195075 -1.57542e-21)
(1.01718 -0.00196766 -6.53366e-22)
(0.791605 -0.024879 -1.88353e-20)
(1.08166 -0.0276626 0)
(1.0183 -0.000654649 0)
(1.06463 -0.0288678 0)
(1.01847 -0.000260857 0)
(0.657659 -0.0269112 -1.46042e-20)
(1.01696 -0.0106628 -4.53864e-22)
(1.008 -7.6603e-05 -4.95177e-23)
(1.01438 -0.0029173 1.13878e-22)
(1.08106 -0.0280473 0)
(1.04746 -0.0211295 -1.45749e-20)
(1.03692 -0.00949545 -7.58297e-21)
(1.01802 0.00036503 -1.04482e-21)
(1.0201 -0.00738824 0)
(1.02564 -0.00814096 4.85244e-21)
(0.916038 -0.105897 5.50799e-22)
(0.469972 0.138812 0)
(0.588807 -0.108559 2.29657e-20)
(1.01498 -0.0156356 3.43378e-22)
(0.797765 -0.0259434 -9.27889e-21)
(0.837753 -0.0108558 0)
(1.01783 -0.000165174 -1.74657e-21)
(1.05354 -0.0251407 -3.18962e-21)
(1.06649 -0.0473859 -1.51623e-20)
(1.02049 0.00965361 9.70654e-22)
(1.03575 -0.0295082 -1.07007e-22)
(1.07555 -0.03825 0)
(1.00875 -0.0532655 4.92706e-21)
(1.0201 -0.00336073 0)
(0.840171 -0.176238 1.32915e-20)
(0.755111 -0.027555 0)
(1.01795 -0.000131417 0)
(1.0371 0.00556487 -6.38708e-22)
(1.03895 0.00148193 5.45802e-22)
(1.02866 -0.0781902 0)
(1.03721 -0.00918535 7.66393e-21)
(1.03886 -0.0308962 1.21508e-21)
(-0.080214 -0.0966855 -3.85306e-20)
(1.01337 -0.0026721 -2.06026e-22)
(0.829081 -0.186272 -7.63898e-21)
(1.01433 -0.00286496 7.01269e-23)
(1.01831 -0.000221041 9.72529e-22)
(1.00875 3.57214e-05 6.45963e-23)
(1.00913 0.000139993 -1.93909e-23)
(1.01258 -0.00225496 -2.56939e-22)
(0.776544 -0.0293589 3.80001e-20)
(0.908832 0.1284 0)
(1.01955 -0.00502615 1.29126e-21)
(1.06273 -0.023596 -8.16541e-22)
(1.01058 0.000126058 0)
(0.579297 -0.177475 0)
(1.02291 -0.02547 -1.72181e-21)
(0.840966 0.173333 -8.38274e-22)
(0.613331 -0.120038 -1.44036e-20)
(1.01957 -0.00522625 1.28498e-21)
(1.01217 -0.0362502 -1.49552e-21)
(1.04411 -0.0210317 -6.41998e-21)
(0.830465 0.173827 -1.28907e-23)
(1.01561 -0.00439357 -4.00107e-22)
(1.0083 8.22159e-05 0)
(1.0233 -0.00657592 0)
(0.181411 -0.054337 2.1653e-20)
(1.01371 -0.000711766 0)
(0.148967 0.159722 0)
(1.02354 0.00923736 0)
(1.07659 -0.0387629 0)
(0.568143 -0.148249 0)
(1.04076 -0.0102302 2.1988e-21)
(1.04303 0.00250476 1.37914e-22)
(1.01425 -0.00130653 -6.59427e-22)
(1.01074 -0.00117345 2.23286e-22)
(1.01829 -0.000149308 -3.58881e-21)
(1.01577 -0.0145384 0)
(1.06513 -0.0281387 0)
(0.34959 0.254451 2.79636e-20)
(1.05863 -0.0207116 0)
(0.778428 -0.0255031 2.03469e-20)
(0.768798 -0.0319576 1.23394e-20)
(1.01057 0.000123234 -1.26535e-22)
(1.02045 -0.000213892 -4.74111e-21)
(0.581824 -0.122226 -8.33289e-21)
(0.558113 -0.00343243 0)
(1.06875 -0.0814773 -5.65496e-21)
(0.766168 -0.0754793 0)
(1.02415 -0.00768375 1.37387e-22)
(1.04474 -0.0218566 0)
(1.00748 -8.14388e-05 -2.60764e-23)
(0.873454 -0.0189956 0)
(1.00994 -0.000505669 -9.51732e-23)
(1.03029 -0.0262133 3.07877e-21)
(1.01481 -0.00128965 1.08648e-21)
(1.02523 -0.00138721 0)
(1.00716 -1.06503e-05 5.79224e-24)
(1.01158 -0.00097081 2.06559e-22)
(1.01084 0.000102713 -1.30226e-22)
(1.06671 -0.0407495 -2.1956e-21)
(1.03513 -0.0191749 -6.50816e-23)
(0.692102 -0.0457622 -5.5632e-20)
(1.01847 -0.0160735 1.62012e-22)
(1.06543 -0.0297228 0)
(1.0266 -0.00966153 -1.05691e-21)
(1.02853 0.0243339 5.09763e-21)
(1.03097 -0.0199148 5.12586e-23)
(1.01399 -0.0842824 0)
(1.03573 -0.0164015 9.30202e-21)
(0.961524 -0.0195211 -6.18593e-22)
(1.00811 7.22915e-05 -1.01364e-22)
(1.01137 -0.00094336 -3.62184e-23)
(1.00743 -9.24183e-05 0)
(1.03967 -0.0470239 0)
(0.854496 0.102947 1.64831e-21)
(1.0688 -0.0448277 1.70171e-20)
(1.02584 -0.00793486 6.82848e-22)
(0.676418 -0.0452075 4.43075e-20)
(0.878738 -0.13959 1.95054e-21)
(1.01122 -0.0241121 9.68342e-22)
(1.01299 -0.000473181 1.27441e-21)
(1.07086 -0.0289799 0)
(1.01544 -0.00421653 4.02214e-22)
(1.02018 0.0139193 -7.60874e-21)
(1.00781 -8.67981e-06 0)
(0.951361 -0.109034 -1.21445e-20)
(0.930351 -0.0386592 0)
(1.04428 -0.0515252 5.20741e-22)
(0.641347 -0.0126045 0)
(1.01677 -0.000646873 -2.90233e-22)
(1.01456 0.0133121 6.64259e-22)
(0.906259 -0.0155897 3.38468e-21)
(0.330173 -0.010528 5.35939e-20)
(1.00847 0.000127815 9.68187e-24)
(1.04573 -0.0235879 0)
(1.05802 -0.0326057 8.33154e-21)
(1.01114 -0.0100128 -6.68578e-22)
(1.00944 -0.000406222 -4.17405e-23)
(1.02521 -0.00841101 6.93115e-21)
(1.07667 -0.0229189 -2.19836e-20)
(1.07558 -0.0403743 0)
(1.01786 -0.0196972 0)
(0.435182 -0.18386 0)
(1.00771 1.44663e-05 -4.64048e-22)
(1.01463 -0.00302285 3.20501e-24)
(-0.0536044 0.0284922 2.03947e-22)
(1.02558 -0.017714 5.65695e-22)
(1.00982 0.000258399 -3.12651e-23)
(0.596282 0.0279499 0)
(1.01065 -0.00112113 -4.72423e-22)
(1.01857 -0.00736378 2.72272e-23)
(1.00988 -0.000610428 -5.95625e-23)
(1.02495 -0.0157867 -3.78732e-23)
(1.02417 -0.0119308 -1.70443e-21)
(1.01008 0.000271461 2.27138e-23)
(1.01683 -0.000764447 -2.63494e-22)
(0.809245 -0.0642558 3.97597e-21)
(1.0203 -0.00305467 0)
(1.05925 -0.0225695 0)
(1.01034 -0.000492984 -4.46278e-22)
(1.01244 -0.00617754 -5.17276e-22)
(0.99081 0.0135146 -3.98356e-22)
(1.00357 -4.77409e-06 0)
(1.01539 -0.00447434 6.08783e-22)
(1.00609 6.76778e-06 0)
(1.00591 -5.95992e-05 -1.68502e-24)
(0.828751 0.133805 1.39692e-22)
(1.02768 -0.00741607 0)
(1.01687 -0.0334477 -3.21544e-22)
(1.01963 -0.00194371 -1.22517e-21)
(1.0081 -5.51351e-05 -9.89457e-23)
(0.00202751 0.0170151 -3.79294e-20)
(0.630468 -0.011011 1.00916e-20)
(1.02072 -0.00232266 -1.47513e-21)
(1.01122 -0.0055152 0)
(1.03161 -0.0203777 -6.55908e-21)
(1.00222 0.0671954 6.71287e-22)
(0.0526336 -0.13741 0)
(1.01468 -0.00310001 0)
(0.920601 0.121051 -3.69595e-21)
(1.01587 -0.00454583 0)
(1.06076 -0.0431368 0)
(1.02626 -0.00217479 0)
(-0.128169 -0.0815622 2.71009e-20)
(1.00845 5.41216e-05 -8.76589e-23)
(-0.0260516 -0.0988935 3.88759e-20)
(0.99526 -0.0146498 -5.44274e-21)
(1.00966 0.00011067 7.53335e-23)
(1.01148 -0.00322246 1.09258e-21)
(0.677795 -0.103578 -2.32849e-20)
(1.04121 -0.0392246 1.37902e-20)
(0.864063 0.130732 2.33566e-21)
(1.01109 -0.000260482 5.45558e-22)
(0.854993 -0.13781 8.82565e-21)
(1.01409 -0.000430253 -1.93724e-22)
(1.00968 -0.000671816 6.88776e-23)
(1.01056 -0.00112836 -1.09586e-22)
(1.02517 -0.000191905 0)
(0.575819 -0.00689875 0)
(1.06788 -0.0319505 -1.72467e-21)
(1.07957 -0.0356037 2.26889e-20)
(1.03742 -0.0532486 5.88621e-22)
(1.00749 -0.0304126 2.84984e-21)
(1.01187 0.000410738 0)
(0.84663 -0.0578613 0)
(0.868607 0.0991254 1.11353e-20)
(1.03828 -0.0193895 4.20715e-21)
(1.05094 -0.0167009 1.49241e-22)
(1.00816 0.057839 -7.75265e-22)
(0.805854 -0.000738207 2.81199e-21)
(0.83676 -0.0314252 0)
(1.01782 -0.000122453 0)
(-0.133735 -0.0935251 1.0902e-20)
(0.153484 -0.165427 -4.0908e-21)
(0.16018 -0.160594 -1.71816e-20)
(1.02611 -0.0180123 2.11774e-21)
(1.01051 -0.00224027 -2.18451e-21)
(0.817779 0.127596 5.28681e-21)
(1.00982 0.0126247 5.12577e-23)
(0.940175 0.0496813 2.82981e-21)
(0.843613 0.0402244 -2.87075e-22)
(0.890218 -0.10808 -1.70019e-20)
(1.02494 -0.0132489 -2.78162e-21)
(0.880581 -0.102198 1.73007e-20)
(0.973269 -0.0340913 -4.86992e-22)
(1.00825 6.40061e-05 -1.00094e-22)
(1.00977 0.00749388 3.05351e-22)
(1.06889 -0.0316941 0)
(0.61024 -0.00699866 1.71327e-20)
(1.02955 -0.0142576 1.63238e-21)
(1.01723 -0.00249628 -1.73321e-21)
(1.01286 -0.00237084 4.06649e-22)
(1.01692 -0.00462187 1.56828e-21)
(1.0639 -0.0426159 0)
(1.0282 -0.0184954 1.14893e-22)
(0.690092 0.0409381 1.32283e-20)
(0.439158 -0.176971 2.98385e-21)
(1.00962 -0.000320552 -5.25687e-23)
(-0.0392486 0.0470735 3.5779e-20)
(0.663573 -0.0174507 1.94058e-20)
(0.982148 -0.0259518 7.6634e-22)
(0.873826 0.0580492 -2.90444e-21)
(1.05824 -0.0227045 -4.22315e-22)
(1.00945 0.00022746 1.8766e-23)
(1.01125 -0.000904614 0)
(1.03217 0.0175067 0)
(0.82593 -0.0600782 0)
(1.03707 -0.0107068 2.4697e-21)
(1.07838 -0.0266221 1.19425e-20)
(1.0843 -0.0303597 0)
(1.00973 0.000122128 0)
(1.03101 -0.0121856 -6.03873e-22)
(0.840565 0.0219798 -6.30066e-21)
(1.05697 -0.0771622 2.18908e-20)
(1.07308 -0.0401619 -9.46483e-22)
(0.583062 -0.0077751 0)
(0.97303 -0.0329558 1.75303e-20)
(1.01603 -0.00472019 8.66572e-22)
(1.02552 -0.00114702 0)
(0.533232 0.0742932 -1.30676e-21)
(0.761438 -0.0322327 1.38294e-20)
(1.08147 -0.0303547 1.82812e-20)
(1.0591 -0.0199075 -2.34581e-20)
(0.994238 -0.0255557 0)
(1.00936 0.000147735 -2.37323e-23)
(1.01492 -0.00279946 1.0991e-21)
(0.938419 -0.105021 0)
(1.00951 0.000118767 -1.15576e-22)
(1.02899 -0.0140515 -1.5196e-21)
(1.00945 0.000179076 0)
(1.01038 -0.000888168 -3.09988e-22)
(0.960902 -0.0348943 -4.69819e-21)
(1.06525 -0.0416595 -1.34952e-20)
(1.02371 -0.00826591 0)
(1.00949 0.000121642 1.15677e-22)
(0.195294 0.139126 -3.00574e-21)
(0.863071 0.080085 1.90054e-21)
(1.0108 -0.00126904 0)
(1.00892 -4.41778e-05 0)
(1.01384 -0.000321699 3.01047e-22)
(1.01838 -0.000183778 6.86691e-21)
(0.157605 -0.0732727 0)
(0.842868 -0.0152756 -1.0958e-21)
(0.850189 0.0240539 1.85783e-21)
(0.0824855 -0.150784 0)
(0.846229 -0.163786 -7.06317e-21)
(1.05799 -0.0187376 1.34836e-20)
(0.593096 -0.00446139 3.07867e-20)
(0.628918 -0.0108693 -1.83749e-20)
(1.02084 -0.00313727 -2.4419e-23)
(1.05611 -0.022881 -1.24812e-20)
(1.00952 0.000238072 -1.89053e-23)
(1.01668 -0.00200869 0)
(1.03242 -0.0292979 -6.77844e-21)
(0.833937 -0.0664443 -2.7496e-20)
(0.880851 -0.188296 0)
(1.07775 -0.0269363 1.28219e-20)
(1.04107 -0.0233396 0)
(1.01059 -0.000785285 8.43154e-23)
(1.02721 -0.0240762 -2.82698e-21)
(1.01704 -0.00193035 0)
(0.864093 0.114489 -3.8912e-21)
(1.06822 -0.0347397 0)
(1.01931 -0.00182729 5.89425e-21)
(1.01552 -0.0171025 -3.41235e-22)
(1.00938 -0.000408191 -7.47149e-23)
(1.04699 -0.0176597 -4.33225e-21)
(1.06835 -0.045506 -3.05593e-20)
(1.02724 -0.00206919 7.81009e-21)
(1.01519 -0.00408691 1.22956e-21)
(1.02339 -0.0268871 0)
(1.02574 -0.0045241 1.45838e-21)
(1.06318 -0.0417144 1.17738e-20)
(1.05476 -0.0505175 0)
(1.07071 -0.0435191 3.32455e-21)
(1.02579 -0.0228518 -1.2698e-21)
(1.08209 -0.0299354 0)
(1.0104 -0.00075425 -8.56645e-23)
(1.04402 -0.0697481 4.45738e-22)
(1.01667 -0.00882746 1.60546e-23)
(0.011999 -0.146723 0)
(1.01944 -0.00838962 -1.01126e-23)
(1.00848 -0.000103365 -1.54367e-22)
(0.948692 -0.0286681 1.79349e-20)
(1.02159 -0.0124211 -1.58941e-21)
(0.563501 -0.159071 0)
(0.734964 -0.0246015 -2.67379e-20)
(-0.100434 -0.124391 3.70682e-20)
(0.582816 0.0544921 -7.63369e-21)
(1.00984 -0.000510594 4.45843e-23)
(0.982157 -0.0294536 0)
(1.01473 0.000749336 0)
(1.01059 -0.00100551 3.06455e-22)
(1.00853 5.7768e-05 4.91883e-23)
(1.01063 -0.000997549 9.19303e-22)
(1.01801 0.00124897 0)
(1.01738 -0.0160179 2.6859e-24)
(1.02548 -0.016447 3.97106e-22)
(1.00929 0.00011839 -1.13344e-22)
(0.85144 -0.0185466 6.70486e-21)
(0.991027 -0.0184393 5.66764e-21)
(0.823762 -0.00529977 0)
(1.01237 -0.00204383 0)
(1.00872 6.12273e-05 3.08025e-23)
(1.00858 -6.55132e-06 3.59316e-22)
(1.06593 -0.047693 0)
(0.587935 0.0198301 -2.81407e-22)
(1.07021 -0.0234631 3.15975e-20)
(1.04702 -0.0181976 1.26795e-20)
(1.01489 0.000803697 0)
(1.00803 -5.67772e-05 -1.882e-22)
(1.00999 -0.000237136 -2.63827e-23)
(1.01342 -0.00255905 -3.54484e-22)
(1.07976 -0.039159 2.69206e-20)
(0.376072 -0.102964 0)
(1.02528 -0.00435519 -1.47645e-21)
(1.00927 0.000123002 0)
(1.02538 0.00010372 0)
(1.01335 -0.00257563 2.58642e-22)
(1.00357 -0.108275 -5.46662e-21)
(-0.027684 -0.124948 -3.50664e-21)
(1.02763 -0.025007 2.0366e-21)
(0.693783 -0.0926475 0)
(0.841556 -0.0856151 -4.09602e-22)
(1.01503 -0.00391225 -4.02153e-22)
(1.07868 -0.036005 -1.34334e-20)
(0.290901 -0.0146727 -1.06064e-19)
(1.05688 -0.0237554 0)
(0.613864 -0.168774 -1.32588e-21)
(1.0302 -0.00520831 6.22174e-21)
(1.02001 -0.0155709 -2.82981e-22)
(1.0694 -0.0235486 -2.84117e-20)
(1.0187 -0.0149985 0)
(0.845795 0.0792891 3.46976e-21)
(1.02035 -0.00219798 1.3108e-21)
(0.808109 0.0986507 -8.26086e-22)
(1.00774 -1.08925e-05 0)
(1.06092 -0.0121881 6.83146e-21)
(0.657782 -0.0151076 3.33351e-20)
(1.01343 -0.00105426 -6.69984e-22)
(1.02065 -0.0108106 -2.04309e-21)
(0.993416 -0.0199812 5.08443e-21)
(1.00989 -0.000736429 -1.42969e-22)
(1.037 -0.018491 0)
(1.01103 -0.147222 9.19248e-21)
(0.332508 0.230806 4.94095e-21)
(1.06719 -0.0349978 -9.72237e-22)
(0.977197 -0.0509803 0)
(1.03073 -0.0201661 -1.75398e-21)
(1.00922 0.000171174 3.65909e-23)
(1.01216 -0.00195286 0)
(-0.0508874 -0.00162562 -9.1263e-20)
(1.08387 -0.0300587 6.23068e-21)
(1.03156 -0.0224785 -1.11566e-22)
(0.748158 -0.0262803 4.38904e-20)
(1.01103 -0.00049624 1.15187e-22)
(1.01647 2.61568e-05 0)
(1.00821 6.30331e-05 -6.59288e-24)
(0.853627 -0.181349 0)
(1.03772 -0.0328284 0)
(1.02672 -0.0168503 -2.27087e-21)
(1.01761 -0.00656123 0)
(0.986297 0.0054196 -4.69764e-22)
(1.04263 -0.0130039 0)
(1.00872 -9.57983e-06 -2.65772e-22)
(-0.00512094 0.0358389 -8.32771e-20)
(0.905025 0.0305719 -1.55452e-22)
(0.711666 -0.0359612 0)
(1.00987 0.00011776 3.75331e-24)
(1.02527 -0.00403722 2.71695e-21)
(0.606359 -0.00687738 -2.55576e-20)
(0.00111956 -0.14301 0)
(1.08392 -0.0283329 0)
(1.01655 -0.0017892 0)
(0.91033 -0.0312966 -4.2318e-24)
(1.0202 -0.00256493 4.47736e-21)
(0.973905 -0.0109022 -5.68209e-22)
(1.0632 -0.063533 -3.39327e-21)
(1.04498 -0.0538401 8.02924e-21)
(1.03227 -0.0177126 4.64228e-21)
(-0.0583961 -0.133455 1.1561e-21)
(1.01366 -0.00329093 1.70576e-21)
(1.01588 -0.00208258 0)
(1.07389 -0.0295639 2.49441e-20)
(1.00846 -0.000112225 -1.4685e-22)
(1.00532 -4.72555e-05 7.50383e-22)
(1.02442 -0.0123495 1.72322e-21)
(1.0103 -0.000717349 -6.07997e-25)
(-0.0178279 0.018323 0)
(1.03573 -0.0273122 -4.95889e-21)
(1.07429 -0.0399642 1.96185e-20)
(1.02319 -0.00722903 -3.59005e-22)
(1.00213 0.00528058 1.17192e-21)
(1.0107 -0.000829439 4.40321e-23)
(1.00944 -0.150165 -8.08026e-21)
(1.01014 -0.000174875 0)
(1.01348 -0.00230744 2.91851e-22)
(1.00871 4.62614e-05 1.25601e-22)
(1.01464 -0.00363022 1.20509e-23)
(1.01274 -0.000547773 0)
(0.762738 -0.0340705 -2.95258e-20)
(1.01277 -0.00235986 -4.02725e-22)
(1.00875 8.88418e-05 -1.13957e-23)
(1.00018 0.0719528 3.17064e-21)
(1.02613 -0.00118057 -2.46597e-21)
(0.624148 -0.00944391 -2.35135e-20)
(1.00707 1.12719e-05 0)
(1.01726 -0.0014016 -5.12558e-22)
(1.07294 -0.0283785 0)
(0.978763 -0.114607 0)
(0.902128 0.104457 6.35715e-22)
(1.00972 -0.000262368 6.23809e-24)
(1.05785 -0.0798666 -6.428e-22)
(0.70366 -0.0878315 1.37187e-21)
(1.02774 -0.00778861 -4.97791e-23)
(0.823658 -0.0375505 2.07666e-20)
(1.06007 -0.0122549 1.25383e-22)
(1.01004 -0.000647148 0)
(1.00957 -0.00318761 5.86057e-22)
(-0.0101672 0.0694374 0)
(1.04317 -0.0688163 1.3003e-22)
(1.03024 -0.0187549 3.61658e-21)
(1.00989 -0.000288559 0)
(1.00903 0.000122189 -4.35232e-23)
(0.902096 0.0408652 9.11239e-21)
(1.04417 -0.0588145 -8.38777e-21)
(1.01771 -0.00872888 0)
(1.02651 -0.0175461 0)
(1.00899 -0.00132207 0)
(1.0183 -9.77651e-05 -2.3643e-22)
(1.01707 -0.00155845 0)
(1.07926 -0.024422 2.96743e-20)
(0.87884 0.142003 5.48467e-21)
(1.06259 -0.0437356 -2.76822e-21)
(0.897689 -0.17418 0)
(1.02482 -0.00386432 -6.95862e-21)
(1.06184 -0.0429131 2.86434e-21)
(1.073 -0.0329546 0)
(0.805459 -0.0256167 2.12012e-20)
(1.02629 -0.0165542 0)
(0.338596 0.0410042 1.5943e-20)
(1.0452 -0.0531532 2.1447e-20)
(1.02645 -0.000893056 -2.17637e-21)
(0.379239 -0.167166 0)
(1.03498 -0.0601508 2.56766e-21)
(0.674802 -0.0384763 0)
(0.363604 0.234078 0)
(0.769528 -0.0579675 2.40383e-20)
(1.01597 0.0280627 -1.04675e-21)
(1.03069 -0.0336215 -6.57412e-21)
(1.01013 -0.000681538 5.74742e-23)
(1.01551 -0.0132994 7.46691e-22)
(-0.026647 -0.125016 4.26373e-20)
(0.225457 -0.144772 2.66247e-20)
(1.01405 -0.00253051 0)
(1.0074 -2.72929e-05 5.81341e-24)
(1.07 -0.0303972 -1.70021e-22)
(0.998232 0.0262852 0)
(1.00945 9.23955e-05 0)
(-0.015934 -0.131146 -3.50477e-20)
(1.01079 -0.000473958 -1.16066e-22)
(1.02022 -0.00465893 0)
(-0.0504226 0.0172199 -3.49565e-20)
(0.611778 -0.0078163 -2.22243e-20)
(1.02527 -0.0111589 2.15698e-21)
(1.01064 -0.00102924 0)
(1.01826 -6.27551e-05 -4.96318e-21)
(-0.00180712 -0.140718 2.07672e-20)
(1.08322 -0.0397442 -3.09584e-20)
(1.08062 -0.0300446 -1.60442e-20)
(1.0182 -0.00265938 -5.69879e-22)
(0.625693 -0.0968855 0)
(1.06143 -0.0720242 -8.51408e-21)
(0.661438 0.013113 0)
(1.06411 -0.030836 -2.70461e-21)
(1.06179 -0.0238112 1.84457e-20)
(1.0256 -0.00847573 -2.81573e-21)
(1.02605 -0.00181708 0)
(0.592674 0.156 -3.05848e-22)
(1.07092 -0.0201506 0)
(0.55261 -0.00290233 0)
(1.02296 -0.0102067 1.44755e-21)
(1.0576 -0.020775 0)
(0.0134103 -0.0067857 -6.74789e-20)
(0.654672 -0.0469607 0)
(0.649539 -0.0139101 -2.33082e-20)
(1.02207 -0.00226092 0)
(1.05736 -0.0169113 1.34599e-20)
(1.01069 -0.0012121 0)
(1.02607 -0.0238272 4.38612e-21)
(1.02037 -0.0104952 -1.04939e-21)
(0.555674 -0.168853 0)
(1.01149 -2.31788e-05 -2.74784e-21)
(0.643646 -0.01513 -3.55094e-20)
(1.00932 8.49551e-05 -5.69972e-23)
(1.07217 -0.0283531 -1.16316e-20)
(1.01508 -0.00343821 1.78492e-21)
(1.06969 -0.0687751 1.43068e-20)
(1.0589 -0.0191906 1.68992e-20)
(1.05642 -0.0172224 1.35618e-21)
(0.705836 -0.0901315 -1.80859e-20)
(1.06486 -0.022897 -1.06249e-22)
(1.02554 -0.0144419 3.33623e-22)
(1.00853 -7.58329e-05 1.38766e-23)
(1.07175 -0.0293011 0)
(0.824028 0.171579 -2.68325e-21)
(1.00266 -0.0416267 1.3155e-21)
(1.0282 -0.0142246 -7.13065e-23)
(0.601206 -0.00726561 0)
(1.01334 -0.000252552 -1.43023e-22)
(0.421705 0.226318 0)
(0.950417 0.102824 -1.06891e-21)
(1.02336 -0.00704813 0)
(0.793223 -0.0281472 1.73389e-20)
(0.149043 -0.0488228 2.39739e-20)
(0.635008 -0.0114366 1.87461e-20)
(1.02111 0.0051245 5.17916e-21)
(1.02088 -0.0101612 -9.01215e-22)
(1.01396 -0.00270241 -6.08095e-24)
(0.706129 -0.0372586 0)
(1.01691 -8.16372e-05 4.55471e-21)
(0.738078 0.127826 -1.55525e-21)
(0.641896 -0.0130762 0)
(1.0124 -0.00211032 -1.77686e-22)
(1.04041 -0.00531625 8.6336e-21)
(1.04678 -0.0467802 0)
(0.861127 0.11225 -4.94095e-21)
(0.284695 0.0512267 -2.07001e-21)
(1.02387 -0.00518925 0)
(1.00914 -0.000102656 -2.58512e-22)
(0.615088 0.177748 0)
(0.650457 -0.0141197 0)
(1.07284 -0.0412578 -3.01387e-20)
(1.03011 -0.0180511 -3.81941e-21)
(1.01742 -0.00286476 1.74085e-22)
(0.961461 0.0844658 1.0501e-21)
(-0.102134 -0.0489707 5.50869e-20)
(1.07312 -0.0338017 0)
(1.00884 7.64318e-05 6.25609e-24)
(1.03154 -0.0349817 6.86534e-21)
(1.00991 -0.000759518 -2.63944e-22)
(1.01075 -0.000142831 -1.04408e-21)
(1.04268 -0.00210783 5.47081e-23)
(1.00724 -5.75446e-05 2.54e-22)
(0.952539 -0.0910635 7.11305e-21)
(1.02177 -0.0213767 2.34571e-21)
(1.02024 -0.00488112 6.54084e-22)
(1.01735 -0.000692523 -1.46658e-22)
(1.01415 -0.00273958 -3.96696e-23)
(1.02489 -0.012544 0)
(0.567575 -0.00546528 -1.10272e-20)
(0.660157 -0.10976 -2.01473e-20)
(1.04633 -0.0227889 0)
(0.331261 0.0635121 -8.95582e-21)
(1.01508 -0.00333611 -1.86936e-21)
(1.04467 -0.0234639 1.73897e-21)
(1.01377 -0.00258714 0)
(1.01 -0.000805796 -2.13482e-23)
(1.02063 -0.00709747 0)
(1.0199 -0.00484453 -6.24108e-22)
(0.600472 -0.00735293 -2.37176e-20)
(1.02085 -0.00253883 0)
(1.0689 -0.0244316 -9.10174e-22)
(1.02222 -0.00252228 1.82814e-21)
(1.03084 -0.0191355 3.76281e-21)
(1.04297 0.0033448 -5.36507e-22)
(0.019108 -0.128558 1.79428e-20)
(1.01079 -0.000243668 -6.58937e-22)
(0.521853 0.0431609 1.33949e-21)
(1.01482 -0.00767887 8.56949e-22)
(1.04156 -0.0480724 0)
(1.03657 -0.0280094 4.05865e-21)
(1.04218 -0.0281976 0)
(0.543648 -0.00346401 -1.13406e-20)
(1.04755 -0.0171069 -3.92846e-21)
(1.02848 -0.0207492 -7.01164e-23)
(0.557682 -0.173803 -2.09497e-21)
(0.857724 0.040312 -2.22625e-20)
(-0.0393747 -0.0576036 -3.6264e-20)
(1.04687 -0.0337871 0)
(0.895889 -0.103847 -6.03554e-22)
(1.01928 -0.00802603 -6.17912e-22)
(1.06395 -0.0223453 8.35594e-21)
(1.06331 -0.0300726 1.36503e-20)
(0.280652 0.0676343 0)
(1.0099 -0.000234267 -3.27623e-23)
(0.220132 0.178921 -6.07081e-21)