/*--------------------------------*- C++ -*----------------------------------*\
| =========                 |                                                 |
| \\      /  F ield         | OpenFOAM: The Open Source CFD Toolbox           |
|  \\    /   O peration     | Version:  v2012                                 |
|   \\  /    A nd           | Website:  www.openfoam.com                      |
|    \\/     M anipulation  |                                                 |
\*---------------------------------------------------------------------------*/
FoamFile
{
    version     2.0;
    format      ascii;
    class       volScalarField;
    location    "200";
    object      ddt0(epsilon);
}
// * * * * * * * * * * * * * * * * * * * * * * * * * * * * * * * * * * * * * //

dimensions      [0 2 -4 0 0 0 0];


internalField   nonuniform List<scalar> 
13726
(
4.1412e-10
-1.58637e-05
9.22559e-11
-3.20392e-11
6.36047e-09
1.04218e-10
1.80342e-11
2.08415e-11
-1.29737e-08
-2.54812e-09
-1.53627e-08
-3.45301e-11
1.82583e-11
-2.02488e-05
-3.69972e-11
-4.41293e-11
-1.64763e-07
-9.30471e-11
-4.15548e-07
1.73901e-06
0.000198937
1.03567e-12
-3.91061e-11
2.13541e-10
7.73229e-12
1.04468e-11
2.51762e-10
1.16357e-11
9.92395e-12
-4.08975e-05
7.5591e-05
5.13135e-11
-3.65007e-05
-3.82889e-10
8.23192e-06
7.02674e-06
1.21398e-10
-1.4212e-05
5.43837e-11
5.93352e-11
1.27252e-05
7.77972e-06
5.53498e-12
1.13372e-10
2.61407e-10
2.73114e-10
-4.07323e-08
1.21726e-11
2.74055e-09
1.53094e-11
-7.01336e-06
5.0589e-12
3.3933e-08
-9.47591e-11
-2.50386e-10
3.91179e-11
1.10973e-08
4.6563e-08
-3.10406e-11
8.865e-11
-5.65965e-06
8.20737e-11
-2.20945e-07
3.11066e-12
-3.62957e-05
2.70981e-11
0.000241759
-9.04564e-06
-4.67589e-12
1.90213e-09
2.51648e-06
-1.04676e-11
-9.64332e-12
1.34898e-10
-7.548e-06
1.32094e-05
1.26608e-08
-1.38966e-05
-1.25191e-05
-2.35295e-09
1.97633e-06
4.41492e-09
2.5092e-09
-6.73201e-12
2.69679e-11
-4.11092e-06
-2.03795e-08
-3.87094e-10
3.65743e-11
-4.59881e-05
9.59163e-11
7.00334e-10
-5.44216e-11
-1.85019e-10
-4.55244e-07
-3.49116e-05
4.48076e-10
-2.95357e-11
-6.00494e-11
5.25367e-06
-5.45545e-11
-2.09621e-09
7.19975e-08
-2.77665e-11
-6.05608e-08
-1.61638e-07
8.89976e-09
9.93911e-12
8.2209e-11
1.55418e-10
-1.24809e-08
1.14863e-11
2.10858e-05
1.65475e-05
2.43446e-05
3.65052e-11
2.10984e-05
3.44281e-05
5.68796e-08
2.21442e-10
-0.000122439
-3.13471e-12
-2.02104e-10
9.69506e-07
8.40344e-06
-1.7157e-05
-1.76725e-10
1.8295e-08
2.06147e-11
-2.062e-10
2.45756e-07
9.04816e-05
-2.48747e-10
3.72122e-09
-2.27937e-06
4.37313e-08
-2.58872e-05
-5.70018e-06
2.06213e-06
-2.33786e-05
1.08841e-08
-2.93936e-06
-4.12245e-11
8.79241e-12
1.05777e-10
2.9047e-11
-2.932e-05
-2.48186e-10
-3.41915e-10
-5.64959e-06
-5.52823e-11
8.96584e-12
6.21645e-09
-1.33867e-10
2.71445e-12
-1.39479e-10
-2.20827e-10
1.12599e-06
-3.15522e-07
8.78888e-12
2.35503e-11
2.48659e-11
-1.36062e-06
-2.94028e-05
1.11521e-11
-2.93201e-07
-1.73348e-05
7.5102e-12
2.11059e-10
1.16327e-11
1.31923e-08
1.37722e-10
-5.28833e-06
-3.43156e-11
-3.25463e-05
4.76223e-07
-3.90925e-12
8.94336e-05
4.60318e-06
-2.08581e-12
-4.41358e-05
3.51259e-11
-1.65727e-05
5.08455e-07
9.11529e-12
-5.14483e-11
1.84799e-11
1.35146e-10
2.45313e-11
-1.30238e-10
9.29707e-06
2.92671e-06
-3.66171e-05
-3.51897e-05
-3.59253e-11
1.72119e-11
1.72454e-11
1.00378e-05
1.75186e-06
6.85286e-11
-1.20152e-05
-5.46226e-06
-3.41515e-05
-2.14411e-10
-1.1338e-11
-6.98049e-11
2.35711e-10
4.54635e-06
-1.99989e-10
1.09374e-08
1.8874e-08
-5.33775e-07
-4.19719e-05
3.31692e-12
-3.46964e-05
-1.5235e-05
2.24756e-10
-1.26163e-11
2.68551e-11
6.12642e-06
-1.57269e-12
-5.20952e-10
-1.43901e-05
8.79006e-06
8.22382e-12
1.6023e-07
3.26644e-06
-3.43847e-05
-2.16922e-06
2.62119e-10
1.00574e-06
-4.90543e-06
-4.91827e-05
-2.49711e-05
3.32177e-10
1.11042e-10
7.31973e-07
2.99292e-05
7.63996e-06
5.19583e-05
-1.65804e-11
4.20873e-11
6.32202e-13
7.36371e-06
-2.88327e-05
2.53459e-05
-2.67933e-10
-2.20104e-11
6.70039e-11
6.01166e-08
2.18164e-05
2.29175e-10
1.76602e-05
2.18944e-10
-1.86246e-09
1.66886e-06
-2.00369e-10
-5.54052e-05
-2.5237e-05
1.43536e-10
5.65412e-07
4.25475e-07
4.29264e-10
5.60273e-11
-4.98397e-06
2.80368e-05
-7.95981e-12
3.41478e-11
5.87044e-12
4.94979e-09
1.93732e-06
4.66445e-11
3.87296e-05
-3.4226e-10
9.65679e-07
5.19085e-06
7.82017e-06
1.88428e-05
3.99501e-11
6.9735e-11
-3.55562e-05
-1.49645e-10
5.16351e-06
-9.61198e-12
-1.45823e-05
-9.54248e-12
-5.5414e-06
7.57119e-05
2.68223e-10
2.61173e-11
-1.75863e-05
-5.80416e-12
5.58155e-12
-2.41911e-05
4.43028e-06
3.41055e-10
6.82589e-07
2.85104e-11
9.41798e-05
5.80005e-12
2.63822e-05
1.14495e-05
-2.5613e-08
7.18054e-11
4.22103e-09
2.5493e-07
-5.33771e-05
-3.39428e-05
3.13846e-06
-4.28387e-10
7.81412e-05
-2.9775e-07
6.60315e-05
-0.000100233
-1.28062e-10
-4.74178e-06
7.75806e-12
-2.95619e-06
5.10405e-05
3.28462e-06
0.000173613
4.5251e-07
1.66192e-10
2.22597e-09
1.62767e-07
5.89565e-11
2.78782e-11
-3.90397e-05
-4.08967e-11
1.66557e-06
5.20061e-08
-1.46808e-05
-3.57316e-12
7.15794e-12
-1.68772e-08
8.5866e-11
-4.90421e-12
-6.4941e-12
-6.11502e-11
-8.23495e-09
0.000131347
-1.16867e-05
-3.85661e-05
-9.83284e-06
2.1564e-06
-5.22697e-09
3.63975e-11
4.69626e-09
-3.1612e-06
5.05095e-11
-2.52664e-06
-1.28731e-05
-5.01606e-07
3.55266e-11
1.00067e-10
3.95785e-10
6.86984e-11
-4.95681e-05
1.20324e-10
-1.3708e-10
8.80145e-11
-1.05485e-09
-1.95414e-06
6.01177e-11
2.62276e-10
-4.10819e-05
3.93755e-05
8.69864e-11
1.79533e-11
3.85598e-11
5.94478e-07
1.99804e-11
1.41842e-10
1.6381e-11
1.65051e-05
2.32631e-11
4.00345e-12
-0.000115156
1.33614e-09
-1.07235e-08
1.02706e-11
5.05134e-11
-1.70881e-10
-2.20066e-05
-3.94721e-05
2.04739e-05
-7.81872e-05
-9.96209e-10
-7.25124e-11
9.49684e-11
-1.45423e-11
8.10316e-11
-1.92705e-10
3.05228e-11
-1.63196e-12
-1.74332e-11
9.27772e-06
-2.033e-05
-9.34612e-11
-1.46025e-11
-2.39027e-12
7.14957e-12
-6.43658e-12
-8.23749e-09
1.24876e-11
-1.2006e-09
3.22396e-11
2.02495e-10
-4.99352e-05
-2.14742e-05
-2.77687e-07
-1.2692e-10
0.000176531
0.000115319
-1.97082e-06
-1.11676e-10
3.05639e-05
1.39285e-06
-1.23177e-05
-7.85577e-06
-6.99391e-05
-3.71938e-06
5.91709e-13
-3.28668e-08
2.47989e-06
2.15312e-10
4.13571e-06
1.39224e-10
7.75527e-11
-7.49138e-09
1.25404e-05
7.80169e-07
-3.27482e-06
-4.7486e-06
-2.40589e-10
2.66218e-11
-1.71579e-10
1.26343e-10
-1.46319e-11
-3.93947e-08
-7.65828e-11
7.30619e-07
-1.34476e-12
-9.68239e-05
1.28716e-06
-7.85936e-12
4.0226e-06
1.85718e-12
2.02792e-11
4.21084e-07
1.31872e-10
-3.32391e-06
1.93067e-05
-3.44978e-11
-3.95618e-06
4.85224e-13
4.13655e-05
-2.44755e-06
-2.45129e-11
-2.08084e-11
-5.83734e-10
-2.34967e-06
1.54048e-10
1.33012e-06
1.25456e-06
-3.82667e-11
3.33129e-05
-3.12566e-06
-3.49356e-12
1.30846e-05
4.55501e-09
-2.18534e-11
-6.98637e-11
-4.81288e-11
1.96789e-05
1.37442e-11
1.08446e-05
6.81749e-06
7.99854e-06
-1.63434e-10
-2.16399e-06
2.70177e-12
1.06963e-11
2.87759e-06
-1.80528e-12
7.80861e-11
5.0911e-12
-7.28823e-11
9.26855e-06
1.9208e-05
-9.32309e-11
-1.56215e-08
1.19242e-08
2.14587e-07
-2.2683e-05
7.68865e-12
8.94597e-11
-4.04194e-05
-1.87199e-05
-5.24002e-11
2.99597e-11
-8.22681e-06
7.47869e-09
-2.48017e-08
4.1459e-11
9.11087e-12
7.88026e-06
3.48056e-07
9.93495e-12
1.16771e-10
1.29916e-10
-4.69969e-07
-2.62e-11
1.77181e-09
1.48674e-11
-3.09023e-05
6.51583e-08
-1.95446e-11
3.95326e-11
-2.24667e-12
1.07014e-10
1.27087e-08
-9.13716e-07
-1.41242e-05
1.3583e-08
-9.14957e-09
-9.77353e-06
-9.14233e-09
-5.85955e-12
2.33325e-05
-1.22162e-08
-2.43679e-09
2.56214e-05
-2.21608e-10
-0.000143578
-1.10848e-09
8.67565e-10
4.41382e-06
4.77688e-10
2.42825e-10
1.53199e-06
3.00466e-11
1.73755e-09
1.08738e-11
8.95398e-09
-1.79255e-06
-7.00008e-10
7.81557e-12
6.10117e-06
-6.32026e-11
-2.92806e-11
-6.05832e-06
-2.38103e-11
-1.30939e-05
2.38085e-10
-3.85593e-11
8.45561e-12
1.06767e-06
-8.83303e-05
-5.92661e-06
-4.92592e-07
-1.93388e-10
6.23148e-06
1.4985e-10
-2.26512e-05
2.99046e-06
-8.34148e-10
1.52838e-10
3.23107e-05
-5.31079e-09
-2.40948e-05
4.35238e-12
-1.46087e-11
5.01778e-05
-5.69338e-12
3.34294e-06
9.79477e-11
-1.19291e-10
-5.87108e-09
2.67356e-07
-3.63266e-05
-2.08603e-05
-3.73131e-11
-4.5452e-11
1.27326e-05
-4.01554e-12
6.32876e-06
-5.46008e-06
7.99969e-12
-2.27287e-05
1.89932e-11
-9.44856e-09
-7.31457e-11
2.2668e-10
5.56246e-06
3.47229e-11
1.14762e-05
-1.42114e-10
-3.68772e-05
7.63578e-06
-4.77427e-10
-6.64793e-12
4.83351e-11
3.39698e-11
-5.14718e-12
1.08947e-05
4.0498e-05
4.07154e-05
9.6368e-11
9.53098e-06
2.79044e-05
1.30728e-05
1.4419e-11
-5.11108e-05
8.17433e-08
1.51018e-10
-4.74736e-11
8.73644e-12
1.58614e-05
1.02349e-10
1.03931e-11
1.29954e-09
3.86221e-05
3.5376e-05
-3.5652e-08
-7.78378e-13
-2.7775e-10
8.09308e-09
7.5986e-12
4.50309e-11
-1.0025e-07
7.45164e-10
-2.68211e-05
-2.17662e-11
-1.24471e-05
3.30163e-10
7.51435e-12
-4.27673e-05
-1.30381e-05
1.8431e-11
7.65643e-08
2.14065e-10
-4.96888e-10
2.62744e-06
4.268e-08
-7.79667e-05
1.41394e-10
6.84102e-07
5.67594e-06
-1.71514e-10
2.95101e-08
1.4856e-10
2.23679e-05
1.77133e-11
5.02443e-05
-2.08161e-10
1.57435e-11
-1.01962e-10
-7.45747e-06
1.68645e-11
-8.58412e-11
-2.33796e-11
1.04336e-05
-3.47592e-05
2.70764e-07
-4.02732e-12
-3.12016e-10
1.7921e-05
1.24092e-05
-2.62012e-11
5.89374e-06
1.65669e-07
3.10131e-05
-5.27452e-07
5.82594e-10
3.95919e-09
-1.01826e-05
-1.66556e-11
-8.56411e-11
-1.28032e-05
1.14382e-10
-2.17619e-10
-1.89324e-08
-2.61063e-06
5.67828e-12
-1.06798e-10
-6.8516e-11
-1.34439e-10
-0.000104982
-1.11555e-10
-1.61122e-12
7.32363e-11
-1.07845e-11
6.94173e-12
-1.97597e-10
-1.86119e-10
3.6785e-12
2.23709e-05
-9.58525e-11
-2.833e-11
5.34456e-08
-2.49593e-11
-1.4777e-11
1.27128e-09
9.61392e-11
-3.20455e-08
1.59446e-10
1.37333e-05
-4.02079e-11
-7.61007e-06
-1.40858e-10
-2.50572e-05
-3.22089e-06
7.46336e-10
1.28667e-10
-1.8096e-10
-3.20543e-11
-1.60907e-11
2.8342e-07
2.59371e-09
-4.73409e-11
1.87189e-05
3.1399e-05
1.6008e-05
3.90219e-06
4.31716e-11
-3.70118e-05
-7.25581e-12
2.71664e-14
1.29668e-11
-2.82039e-10
-3.63942e-05
-3.77507e-09
-9.28315e-05
1.95586e-10
-2.97328e-06
-3.64204e-05
-3.07993e-06
-1.55035e-06
1.47022e-10
-5.7048e-11
-1.08482e-10
1.99066e-10
3.87014e-08
2.29173e-05
2.9875e-05
8.11183e-09
-1.0619e-10
8.53818e-12
1.57374e-05
-2.65583e-10
-1.73183e-11
-3.38297e-11
8.09623e-11
3.4411e-06
2.32119e-08
-1.83908e-09
-1.45599e-11
-4.10597e-05
1.20917e-06
-5.27265e-11
4.8623e-07
1.58708e-06
1.90853e-10
0.000157229
-2.58317e-05
-3.76426e-05
6.14312e-11
-2.23636e-09
5.38501e-06
-2.882e-11
4.39698e-07
-2.90456e-10
5.00469e-09
2.02927e-08
4.70109e-11
3.69607e-09
2.35655e-06
3.51315e-11
1.77275e-11
-6.33717e-11
-6.32388e-08
2.26697e-12
-3.5195e-06
2.69441e-05
-1.48494e-11
7.36933e-12
3.4021e-13
8.2225e-06
1.13315e-11
2.11528e-05
8.94219e-05
2.54451e-05
-9.87217e-06
-1.84614e-06
5.00314e-05
2.69079e-05
-7.96628e-11
2.84995e-11
-7.68518e-05
6.65513e-12
1.26055e-05
-1.29442e-05
-2.62429e-05
1.05127e-11
-6.35312e-11
1.26259e-10
8.46229e-05
3.11536e-11
-1.56953e-05
3.79408e-05
-5.84987e-06
2.57028e-05
-2.34673e-07
-2.13128e-05
-1.29671e-09
2.2054e-06
4.06102e-10
3.31806e-06
5.62026e-11
-9.1795e-08
2.83555e-11
-2.18377e-06
2.44596e-10
-5.83623e-09
-1.63906e-10
8.18297e-12
-9.07619e-11
-0.000262854
5.79758e-12
2.27117e-10
-1.45752e-05
-8.34588e-12
-2.45559e-11
-2.98923e-12
-4.23228e-05
-1.84083e-11
1.79654e-10
2.61549e-09
6.15356e-12
-1.33371e-10
1.34624e-11
-9.21152e-06
1.08238e-10
1.18044e-11
3.3181e-07
2.27812e-06
-7.45193e-11
7.63149e-11
-5.02945e-05
-3.90684e-06
-9.16868e-09
2.33409e-11
-4.37642e-05
-4.00827e-05
-1.48203e-07
-1.72855e-08
-1.1836e-05
-6.54039e-11
-1.59171e-09
1.0526e-08
8.82027e-12
3.4777e-11
5.42519e-07
2.08329e-10
2.53035e-05
-6.55438e-11
7.6372e-09
-2.16066e-12
1.41186e-11
5.67716e-07
4.78173e-07
7.03197e-12
-6.33376e-11
-3.03799e-09
5.66737e-10
-3.55156e-11
-5.24727e-11
-1.96256e-05
-0.000196206
-6.84152e-10
-3.94692e-11
-6.04612e-11
1.24969e-11
-1.12907e-06
1.93702e-10
5.33155e-12
-1.13277e-05
1.84983e-10
-1.37324e-08
-1.24954e-11
1.47872e-05
-1.78254e-06
1.77151e-10
-4.92631e-11
2.03184e-06
-1.25529e-05
-1.75302e-11
1.10489e-06
-1.20395e-06
0.000302566
4.587e-05
4.85318e-05
1.57115e-07
4.06047e-07
2.14111e-05
5.38478e-11
7.65307e-12
-3.11135e-05
-5.41362e-11
2.61505e-05
3.93443e-12
2.67039e-06
-2.2458e-05
2.07784e-10
9.43356e-06
-1.14868e-05
-6.74196e-05
3.71723e-10
-9.59051e-13
-1.23835e-11
-8.05157e-09
-2.35787e-05
2.49792e-11
-0.000263708
1.18263e-10
3.60432e-06
1.74253e-09
2.99005e-08
-2.55771e-05
-1.85921e-11
-1.9517e-05
3.08594e-10
-1.15505e-12
-5.78444e-11
3.41681e-05
-5.31845e-09
-4.33084e-10
0.000161922
2.8434e-14
-2.13317e-06
-5.35598e-11
2.19272e-05
-3.02591e-05
-4.12778e-05
6.36539e-12
-1.89359e-11
-4.39971e-09
-9.73377e-11
-2.11547e-05
6.48876e-06
5.11885e-11
1.09526e-08
8.52139e-09
-1.11297e-07
8.05286e-06
-1.6198e-10
2.27531e-05
1.57112e-11
6.34287e-11
-0.000272389
0.000270042
-1.25677e-05
-5.09625e-11
2.58333e-05
-6.0637e-09
1.43782e-05
3.6937e-07
-1.37596e-05
-9.68194e-06
-3.99202e-10
1.71461e-05
3.56146e-06
-6.95257e-05
-2.80278e-05
-4.42547e-13
5.10216e-05
6.7487e-09
3.90196e-09
-7.80236e-09
5.35387e-11
-1.85583e-05
-8.25787e-11
3.70661e-05
-6.01381e-05
-3.29784e-05
-1.73825e-05
-1.73192e-05
1.67038e-05
0.000180754
3.87002e-05
-1.08932e-10
-5.89313e-07
-2.33907e-11
-1.86159e-05
8.79987e-07
1.034e-11
1.96919e-06
-1.67909e-11
3.6424e-11
9.41606e-11
-6.34592e-11
2.27487e-05
-6.27282e-05
3.444e-11
-8.91679e-11
2.96805e-05
-1.98443e-05
-3.16831e-10
-2.87418e-08
2.7315e-05
1.02975e-11
-1.62645e-11
-1.19918e-10
1.46816e-06
-7.58235e-09
-1.44669e-10
-1.40354e-05
2.94363e-10
-0.000115961
4.48802e-06
1.07411e-11
-8.1939e-05
3.2055e-10
-5.00439e-05
-1.84312e-05
-8.56136e-06
1.96867e-10
7.9282e-06
5.24829e-11
-4.34669e-05
-6.32543e-11
-8.97254e-06
2.14765e-11
-1.15538e-11
2.90139e-06
3.48175e-11
1.84883e-12
1.41684e-05
1.85294e-10
3.27323e-10
-1.66702e-05
7.26784e-11
-1.44076e-11
2.08746e-05
1.74981e-05
1.97601e-10
1.52799e-06
1.01333e-11
2.79008e-05
3.41594e-11
2.74831e-10
2.64001e-10
1.16301e-11
1.26888e-10
1.18276e-05
1.00083e-05
2.73102e-11
-1.42993e-05
-6.12355e-10
-1.32089e-06
-1.99386e-11
2.95955e-11
7.00743e-07
2.68699e-07
-6.51667e-11
2.97043e-10
3.4118e-07
9.89181e-12
-4.1121e-08
-1.21733e-10
-1.49207e-05
3.96768e-05
1.66137e-09
-4.48596e-09
-3.32343e-05
-3.88481e-12
3.30788e-10
-3.71998e-06
0.000151823
-3.65055e-08
3.01992e-06
-6.96884e-11
3.99526e-05
1.10365e-05
-1.18519e-12
6.93352e-11
5.03891e-05
-3.30668e-08
-3.16962e-10
-8.07546e-06
5.80219e-11
-3.03939e-10
-1.84862e-09
-1.05895e-10
4.50817e-06
2.51496e-07
3.75559e-12
3.48373e-05
5.86536e-07
3.72705e-11
-1.1472e-08
-1.0862e-05
-1.92424e-05
7.25806e-06
3.4647e-10
-5.24411e-10
1.65208e-05
2.14565e-10
-6.19628e-09
4.13654e-06
2.27649e-13
7.27913e-07
-4.84105e-12
1.53701e-11
-0.000257813
2.49621e-06
-9.35516e-06
-1.78731e-08
1.99912e-10
-1.64923e-11
-3.55426e-05
1.69834e-05
2.82901e-11
3.01852e-08
1.24517e-06
2.39299e-11
9.73273e-11
6.27179e-11
-3.66194e-10
6.24882e-06
-8.23653e-12
2.22453e-12
2.98094e-09
3.04757e-10
0.000292594
2.35181e-05
-3.89337e-05
-9.17501e-09
2.25739e-12
2.01401e-11
-3.39188e-05
1.76407e-08
5.3165e-06
-7.39832e-10
1.14605e-07
1.30818e-10
-1.21298e-10
1.51663e-10
-5.65861e-06
-6.00054e-06
-8.43408e-11
-2.08727e-05
5.94026e-05
1.48125e-11
2.21693e-05
-2.40678e-05
-2.35925e-05
-1.71045e-05
5.18791e-12
2.7387e-05
2.52811e-07
2.94799e-06
8.2618e-11
2.63314e-10
-1.9415e-05
4.17517e-10
1.85507e-10
2.497e-05
3.22808e-09
2.36055e-07
-3.66959e-05
3.068e-10
1.58413e-05
4.66368e-05
5.52919e-11
0.00028798
-7.56963e-06
-7.30873e-11
-1.11279e-10
-5.29001e-06
-4.19145e-10
-9.98251e-11
-2.88953e-10
1.02953e-12
-2.25539e-05
2.58075e-11
-1.08364e-07
4.9546e-06
5.18217e-06
-3.57271e-11
6.91853e-10
-6.89351e-05
5.10856e-12
-5.6163e-11
8.57511e-11
1.72978e-10
2.41799e-10
-1.51145e-05
-5.3133e-11
1.61136e-11
1.80008e-06
5.13412e-12
-4.49402e-05
2.77499e-11
2.90189e-05
9.22536e-11
-0.000111651
1.27613e-05
1.00706e-10
1.25805e-05
4.3353e-06
4.51969e-11
-5.63628e-11
-3.21602e-11
-1.59638e-05
-2.1979e-11
-7.31152e-06
4.45258e-11
1.71341e-11
-5.47703e-06
-1.13855e-05
8.92437e-12
2.37361e-10
-1.43408e-10
1.65995e-09
-1.87164e-11
-1.80439e-09
2.24927e-10
8.15676e-05
-7.92321e-05
-7.40132e-11
5.63759e-11
-3.45522e-06
-2.98532e-05
6.58131e-12
1.63779e-11
1.0354e-05
1.14212e-07
-0.000113646
-3.94217e-10
-7.8066e-11
1.42111e-07
-7.18313e-10
-4.7272e-06
2.53021e-05
-7.77031e-12
-2.35349e-11
-5.43864e-07
-3.12317e-09
2.82116e-11
-1.54165e-05
-3.4856e-05
2.6644e-05
1.48618e-11
3.76526e-09
1.05552e-07
3.42415e-11
3.53527e-10
-1.13535e-05
-1.20519e-09
1.46555e-11
0.000117238
-4.18117e-11
-3.55019e-11
-4.86744e-11
-3.20404e-05
2.72593e-11
9.32296e-06
2.14484e-10
1.74633e-10
5.78946e-11
2.04819e-10
-1.09299e-11
0.000197118
-0.000276039
-4.79286e-11
5.03325e-06
-2.25543e-11
-2.13978e-12
4.57343e-05
-0.000150374
3.16253e-12
-0.000225916
1.22405e-10
1.09459e-11
-2.63133e-11
6.04087e-06
-4.70389e-07
-5.94113e-13
-8.07845e-06
-6.20192e-05
-5.08867e-05
1.58275e-09
0.000116418
-1.78297e-05
-1.04844e-10
1.36268e-05
-5.57311e-12
1.5141e-10
6.3576e-11
-5.5986e-05
-0.000207772
-0.000174463
1.16739e-05
-1.93525e-11
-2.00417e-11
-1.12638e-11
-2.29641e-09
1.36147e-10
1.43364e-11
-1.64374e-10
-2.39558e-11
1.70514e-06
-6.67708e-13
1.2143e-11
1.215e-12
-3.44352e-05
-5.29596e-11
-2.29483e-12
-1.84543e-10
-9.15837e-06
-1.37817e-10
-7.66671e-12
7.00076e-10
5.26418e-06
-3.54226e-11
-9.47233e-09
1.3253e-10
-4.24522e-10
1.5961e-07
-3.27655e-06
1.59879e-10
-3.26427e-06
1.13463e-05
1.38232e-10
-6.17365e-11
-1.14603e-10
3.40369e-11
4.106e-08
-2.21784e-09
-3.31815e-10
-1.8578e-05
1.5777e-11
-2.11296e-10
1.67624e-11
2.23046e-10
-6.20618e-11
2.9276e-11
1.07512e-10
7.44894e-11
1.53534e-08
-1.34534e-05
-9.92961e-07
1.16392e-05
-8.38384e-06
5.2886e-09
1.43462e-11
1.78063e-08
4.28836e-05
1.05869e-10
-7.6537e-06
5.71069e-07
-1.33172e-05
3.20305e-11
-1.25385e-06
1.32641e-10
2.06557e-05
-8.11075e-11
-4.18803e-12
1.12e-10
-1.96691e-11
3.83457e-07
-9.12607e-08
-0.000264065
-2.55005e-05
2.63541e-05
-1.2149e-10
5.22822e-11
-2.13233e-10
-0.000169614
-9.26902e-11
4.10702e-12
-9.15446e-05
-2.51239e-12
4.36912e-05
1.9377e-10
-2.96598e-08
3.80375e-11
-1.12959e-10
1.39723e-06
-1.87905e-11
-6.87003e-08
4.91044e-06
-5.20173e-06
1.06606e-10
-1.10957e-10
-5.43708e-05
5.89552e-06
1.12252e-05
-4.94147e-12
-3.40422e-08
1.87573e-05
1.81005e-05
2.25602e-05
1.36033e-10
-6.09019e-11
3.61211e-11
7.26782e-11
2.00774e-07
-1.00483e-08
1.38647e-11
2.26047e-10
3.47786e-06
1.43728e-05
-3.52849e-06
-2.05199e-10
-5.36867e-06
-2.53746e-11
-2.62602e-11
-3.62903e-07
-1.56427e-10
-1.01587e-08
1.14557e-08
-1.15761e-10
-2.49105e-10
7.39953e-05
1.08357e-05
-1.03571e-05
8.96983e-10
-3.25977e-05
-6.32337e-12
9.45472e-11
-3.33323e-05
1.45188e-12
2.83085e-10
3.89387e-05
-8.29718e-05
-2.70386e-10
2.47839e-06
1.28742e-10
-4.57419e-05
1.37549e-11
2.25556e-06
-8.58788e-11
1.12664e-09
-6.78195e-05
-5.44869e-05
-2.02059e-05
3.33633e-09
9.0625e-13
9.19858e-10
3.07311e-10
-3.51601e-10
3.6423e-09
-0.000185577
-7.08273e-09
3.82357e-11
-1.1594e-09
-3.00822e-10
3.16004e-08
1.56471e-10
2.59498e-11
3.10784e-11
2.44835e-06
4.66279e-06
3.61341e-11
4.78065e-09
-5.23152e-10
-1.25071e-11
-1.09353e-08
2.68912e-08
2.28998e-11
7.33049e-05
6.5229e-06
9.79198e-11
2.57595e-11
-1.758e-10
-8.5191e-05
-1.49217e-09
2.01786e-11
-7.52859e-11
1.33819e-11
-8.22086e-11
0.000108592
1.53249e-06
-4.59219e-10
-3.25486e-05
-2.76906e-10
-6.05389e-09
1.77636e-08
1.05034e-09
-4.63501e-05
7.28654e-12
-0.000175088
-3.13195e-06
-4.67173e-10
-7.9765e-11
-7.28701e-11
-9.83168e-13
-1.03043e-10
-0.000204761
-5.52815e-08
7.57755e-07
5.35742e-11
4.3832e-12
-1.61893e-05
-0.000104873
2.30944e-06
7.75377e-06
8.02278e-09
5.64602e-11
1.14336e-06
-3.21547e-05
4.95758e-12
-7.03153e-05
-6.69838e-05
-3.57462e-11
2.65724e-08
3.60583e-11
-9.93152e-12
2.04708e-12
1.91805e-10
-1.65961e-06
-5.47636e-05
8.44356e-11
1.06476e-11
-7.53752e-05
-6.14431e-06
-7.23193e-07
-2.57056e-05
5.00495e-06
-6.35078e-10
-1.01647e-10
1.13427e-10
1.67459e-11
1.07471e-11
-6.84324e-13
-1.28023e-05
1.10813e-09
2.55055e-11
-5.02106e-05
5.969e-12
3.96346e-06
2.4313e-11
-4.56182e-06
1.20119e-05
-2.26232e-11
8.89591e-11
2.52038e-05
-1.81899e-05
1.11331e-05
-1.50391e-05
5.61132e-06
3.33583e-05
1.52398e-08
-1.01989e-05
-2.77499e-05
1.41401e-11
-9.38028e-12
1.07608e-06
-1.14526e-11
7.57719e-12
7.6226e-12
-1.38939e-11
-2.56525e-10
4.70912e-05
2.35278e-10
2.92326e-10
-2.67094e-09
4.60292e-11
0.000218655
-9.46085e-07
9.21174e-11
-0.000108881
-7.00412e-09
8.40407e-06
5.57809e-09
3.50427e-05
-2.65957e-09
-2.46543e-06
-2.3306e-05
-3.63326e-11
-2.08854e-10
-7.32847e-06
1.67785e-10
-2.94807e-05
2.8486e-05
-3.29662e-05
-1.68244e-09
-4.01347e-10
1.14773e-11
-6.32456e-06
-8.23803e-06
-2.53433e-05
1.80526e-11
-1.89604e-09
1.03623e-12
-7.3655e-05
4.69887e-07
4.53023e-06
-9.22103e-06
2.39256e-06
0.000159563
-4.59343e-05
4.05411e-11
1.1171e-07
1.4083e-05
-4.09457e-05
1.82543e-09
-6.32693e-10
-2.13669e-06
2.34208e-11
-3.63475e-10
5.55058e-11
-4.44032e-10
3.95736e-06
6.05133e-07
1.39293e-11
-2.10395e-10
9.70397e-12
7.25647e-08
-4.53706e-05
1.78928e-10
2.92716e-06
-4.15545e-08
9.88991e-06
2.6661e-12
-4.0133e-10
2.79649e-11
6.08044e-06
3.66965e-06
-3.71256e-05
3.74601e-11
1.34382e-11
0.000130857
2.43859e-10
0.000310137
1.85628e-10
-6.42983e-06
-1.94695e-05
3.25879e-11
4.93954e-11
-2.49182e-05
4.06569e-12
-1.20587e-10
-1.45574e-07
3.13076e-07
-3.10379e-11
3.53293e-06
1.69462e-07
-5.56466e-06
-4.16764e-06
-6.47392e-06
2.12008e-09
-1.01894e-06
-5.86682e-06
-2.05545e-05
5.95403e-07
-3.91193e-06
2.00414e-10
3.26543e-09
4.42176e-11
1.31809e-11
-6.32799e-05
3.81747e-08
-2.04625e-08
1.56857e-10
5.34952e-08
-6.12915e-05
8.72936e-11
1.12304e-11
1.51646e-11
-7.06431e-05
6.6545e-11
4.87226e-05
3.27588e-09
4.46962e-05
-1.30739e-05
2.69904e-13
1.22285e-06
-4.22724e-05
1.37084e-05
-5.565e-11
8.91803e-12
-9.15145e-12
-3.33498e-05
1.27574e-10
1.51787e-07
-1.03036e-10
-9.63649e-07
-2.16132e-10
-1.40374e-05
-4.23683e-07
6.14785e-06
7.76866e-05
6.50329e-07
-2.08978e-09
9.71283e-11
-4.76583e-06
2.42026e-11
1.02437e-05
1.25253e-10
1.49913e-06
-7.20867e-11
-5.28456e-11
-3.34905e-05
8.52576e-11
-5.23642e-07
-1.41611e-05
-0.000176845
-2.68059e-11
3.25038e-05
1.93875e-11
-4.10167e-05
4.63226e-07
5.38722e-11
2.3422e-10
3.3704e-11
0.00016108
-0.000259876
-4.19429e-05
1.26252e-06
-5.02612e-12
-2.99435e-10
1.27512e-05
8.66631e-12
3.22721e-05
3.12591e-12
9.97271e-05
2.01238e-10
-2.32806e-08
-1.58866e-11
-1.04867e-06
1.35794e-05
-3.57877e-08
1.9565e-10
-8.0427e-11
4.38449e-06
-4.43766e-10
2.34446e-11
-1.23848e-08
8.33179e-07
3.69342e-07
1.14833e-10
-2.80674e-11
-1.55846e-09
-5.76422e-06
1.32156e-09
-1.20834e-05
-5.58036e-10
-2.65521e-09
-4.09339e-05
2.29739e-05
7.31546e-10
-4.20629e-06
7.97115e-12
-3.60199e-05
-8.8439e-06
-2.23777e-05
-4.99715e-11
1.40352e-07
4.43492e-07
6.60985e-11
-4.04261e-05
9.95421e-11
-5.06408e-11
3.44981e-13
-2.25157e-10
-2.2152e-07
8.06616e-07
3.64694e-12
2.35636e-10
-0.000293267
7.07656e-12
1.17611e-12
6.35464e-11
-3.37428e-05
2.16072e-11
-2.65347e-10
1.30801e-10
-2.9419e-11
-2.34995e-05
3.22554e-10
-3.21703e-05
4.48747e-12
3.88533e-05
-1.93009e-05
-1.22288e-10
6.06164e-11
0.00025933
-3.58349e-11
-4.94523e-11
1.70612e-07
4.77028e-07
5.9137e-10
-8.2862e-07
-1.59917e-11
1.50583e-06
2.45502e-10
2.03446e-10
2.20596e-10
8.88967e-08
1.20071e-11
-8.59389e-07
0.000147574
-0.000224622
3.15761e-07
-5.00597e-05
1.13799e-06
5.70842e-06
2.0595e-06
-9.44124e-06
-1.08049e-09
2.96307e-10
-4.84167e-05
-3.75212e-11
1.568e-05
-1.3699e-07
2.70531e-10
-3.1933e-05
3.5479e-05
1.55743e-11
1.29757e-11
-1.12383e-05
1.10234e-05
1.77121e-12
-7.35099e-05
2.53719e-10
2.00125e-12
1.5511e-05
-1.69299e-05
1.56643e-11
2.24101e-10
-8.97432e-11
-4.88246e-05
-1.44439e-10
-7.96278e-07
-7.93631e-06
-9.94912e-11
6.86781e-12
1.00812e-09
-4.75189e-05
2.3213e-10
2.90238e-10
-6.21547e-07
6.60305e-12
1.06326e-10
-0.000216239
1.65668e-11
-3.24979e-05
1.03989e-10
1.23802e-10
3.25579e-05
-2.83853e-10
9.96931e-07
-1.60982e-05
-0.000254346
-3.63003e-11
-8.66779e-06
-3.99762e-05
-1.14419e-10
-6.1455e-12
1.38172e-06
-6.14882e-09
7.22433e-12
5.53844e-08
-8.28557e-06
2.03123e-11
-6.51701e-05
-4.36273e-06
0.000238073
-4.39263e-06
2.73823e-11
1.16578e-11
1.393e-11
1.84197e-13
3.10798e-05
-6.26232e-11
1.51108e-06
-2.27744e-11
-1.53537e-05
1.01484e-11
-3.78282e-07
-2.40104e-05
-1.87104e-10
-8.88902e-05
-1.35222e-08
6.97255e-10
-3.309e-06
-4.18079e-05
-1.85479e-10
-1.63375e-11
3.96268e-06
1.26957e-10
-4.63261e-08
2.72427e-05
1.11954e-05
2.19435e-05
4.69731e-06
3.7936e-06
6.10272e-10
2.77341e-05
-2.8325e-05
-2.0795e-05
-1.3906e-10
-6.99701e-06
-2.35443e-10
-1.41194e-10
8.81745e-07
0.000246784
-1.74513e-05
-9.21078e-12
-5.11158e-11
1.67131e-10
4.22747e-11
1.24815e-11
7.75287e-11
5.58239e-10
9.25988e-12
-4.73505e-10
0.000234826
-0.000232637
-8.77882e-06
7.07949e-11
-7.66288e-06
-4.68368e-05
-5.93782e-10
1.43895e-06
1.71361e-11
7.95392e-11
4.06641e-11
5.54973e-08
4.68891e-06
-7.44737e-09
6.26217e-08
-6.56517e-06
-1.14412e-10
1.00516e-11
-1.07362e-06
2.86558e-10
5.48953e-07
-6.74518e-12
-1.4729e-06
1.13148e-06
-1.87808e-05
-2.58778e-10
3.15987e-11
-5.25715e-11
-1.53732e-10
5.72207e-12
-2.04321e-10
-0.000192065
7.4241e-11
3.58995e-06
-1.53036e-06
9.05534e-08
-4.48341e-08
-1.60574e-05
-5.80973e-06
-8.42749e-12
4.8263e-09
2.33667e-10
7.47193e-06
-6.19727e-05
-1.44168e-10
-1.22535e-05
-4.09768e-11
3.13531e-11
-2.22273e-06
-6.22327e-05
-5.20562e-11
4.03654e-08
6.79107e-11
-3.54165e-10
5.64248e-12
-2.15117e-10
1.71679e-06
-2.12038e-10
-1.01223e-10
-1.13187e-09
-5.36593e-06
-6.80262e-11
-4.57127e-07
-5.89423e-05
-6.55035e-10
2.4557e-08
-2.76736e-11
2.6199e-10
-2.61082e-09
7.15156e-08
4.9547e-11
-4.31336e-05
9.90597e-06
-1.67638e-05
2.63913e-05
2.43964e-10
-8.93113e-11
-1.64984e-08
0.00024437
-3.44444e-06
-5.56398e-06
6.07299e-12
-3.51337e-05
1.88829e-05
0.000210106
-3.86061e-05
8.66001e-11
1.65636e-11
0.000318652
2.06672e-06
1.56973e-08
-3.49318e-12
-7.66328e-11
-5.64629e-05
6.82174e-12
1.15419e-10
-4.29841e-05
4.90293e-09
3.2334e-11
-1.84653e-05
-1.69968e-12
5.12993e-11
-4.89277e-12
-0.000275862
-0.000264315
-0.000245043
-4.73363e-06
6.16808e-06
-1.79932e-05
2.28542e-05
4.51855e-11
-5.63572e-06
7.86191e-11
0.000187216
4.17322e-05
-2.41216e-05
-1.02639e-05
-6.69228e-06
-4.64928e-09
-1.22679e-06
4.46037e-06
-8.3487e-10
-3.40582e-07
-8.05109e-05
-3.08375e-06
1.80423e-06
-1.47921e-05
-3.99771e-05
-1.90774e-09
7.53643e-10
-1.0331e-11
1.60766e-11
2.4497e-09
-7.62849e-06
2.59662e-10
5.34111e-05
-6.72077e-11
-1.56418e-07
3.7485e-08
9.64623e-07
5.96279e-11
7.81929e-07
2.81494e-05
2.65015e-10
-9.15911e-06
-2.74098e-07
-2.24519e-05
6.04396e-07
2.26861e-05
-6.85623e-11
-1.62066e-11
6.2732e-11
2.45645e-05
-8.79362e-09
-1.01277e-05
-2.0697e-10
6.2836e-11
-5.94005e-07
-7.28291e-05
2.88116e-10
3.40115e-13
-3.97928e-05
1.22717e-10
4.65043e-06
-9.70673e-07
1.42819e-11
-5.13407e-06
0.000202467
-3.13632e-11
-2.63477e-05
-1.79114e-05
2.62171e-05
8.86171e-05
-1.64839e-09
2.49845e-05
-2.17261e-09
-4.51263e-10
8.2315e-09
-5.53843e-12
6.94557e-08
-1.84381e-05
-6.87177e-08
-1.30017e-07
0.000175798
-4.23365e-08
8.79439e-13
-2.56539e-09
1.25879e-06
4.75701e-11
-0.000224981
-1.12157e-10
-5.70593e-08
-4.06101e-05
-2.20401e-05
-1.52337e-05
4.91207e-06
-5.46275e-06
7.99039e-12
-8.16508e-08
-5.02931e-05
-0.00026637
-6.03844e-12
1.1029e-10
-1.43458e-05
1.16145e-10
-4.04659e-11
-3.12019e-08
2.42234e-09
4.25034e-05
9.78711e-12
-9.47031e-07
-2.43006e-07
4.54173e-06
-1.05062e-07
-5.02638e-11
-7.70516e-09
-9.10573e-12
2.13518e-10
6.38936e-06
-1.51344e-10
-6.63662e-05
-8.67727e-06
7.85081e-11
1.41675e-11
6.6099e-06
-1.06606e-07
-2.30341e-08
1.61433e-07
-3.08048e-09
7.79934e-06
2.36614e-08
-3.75211e-05
-1.72342e-05
2.12627e-05
-1.31877e-05
4.512e-05
-3.22829e-05
-1.89357e-05
3.64005e-05
1.83801e-10
3.51174e-11
7.26138e-08
2.6003e-05
-4.82376e-08
-9.51858e-05
0.000253369
2.67321e-11
-1.36529e-11
9.27321e-06
2.47232e-07
1.26475e-05
8.80077e-06
3.06897e-05
-1.7927e-10
2.09637e-10
9.40431e-11
5.92028e-05
1.81939e-08
2.87954e-05
4.94228e-11
-0.000195931
-4.47389e-05
4.81357e-11
-6.10974e-11
-2.7285e-06
-1.45429e-08
-0.000303654
-5.70281e-11
-3.95278e-10
1.11058e-10
1.80516e-10
1.34649e-11
-1.30858e-05
-3.3422e-11
4.45713e-06
-1.1012e-11
-8.76875e-06
-2.37266e-10
7.4751e-08
-5.57174e-10
1.62652e-10
5.93867e-11
-0.000228282
3.7078e-07
-5.62035e-06
2.443e-06
-3.75187e-06
2.31936e-05
8.67079e-08
1.52478e-05
-0.0002636
-5.97088e-06
1.02958e-06
2.09631e-07
2.98065e-09
2.7942e-11
-5.36461e-07
8.12972e-10
3.40189e-11
1.63337e-05
-5.20132e-05
-5.11422e-08
-1.3874e-05
-2.59272e-05
5.85863e-12
-2.13716e-10
2.38133e-05
1.18082e-10
1.37011e-05
4.22703e-06
1.95253e-11
-0.000277635
-6.60338e-06
2.09534e-09
1.47188e-07
1.58813e-07
-1.09939e-05
1.96352e-10
2.67467e-06
-1.32939e-05
1.09724e-10
-1.66041e-05
-4.60625e-07
-5.80224e-08
-8.34699e-05
3.95306e-11
0.000309454
1.33762e-06
6.96705e-09
1.84451e-06
-1.36683e-11
3.23511e-12
-3.72648e-08
-2.69143e-07
-6.98718e-06
-1.05888e-05
-1.82389e-05
2.36761e-11
-2.585e-11
-1.78209e-05
7.59018e-07
5.91192e-06
-6.98202e-10
-0.000133239
6.8851e-11
2.23715e-12
8.81673e-06
-8.23872e-08
1.68587e-06
-2.32106e-08
-4.82229e-10
1.86932e-09
-3.92055e-05
-1.86521e-08
-0.000209175
2.16731e-05
9.32973e-06
2.7449e-05
2.14512e-05
-1.00171e-05
6.8305e-07
-1.24068e-05
4.33334e-05
-1.67532e-08
3.94634e-07
2.4498e-11
2.93266e-08
-2.83009e-07
2.03565e-08
3.55623e-11
2.69792e-05
2.21005e-06
1.93959e-05
6.75558e-07
1.52255e-09
6.71824e-05
-1.75199e-07
-4.44104e-05
-1.26327e-10
-2.0212e-05
6.1078e-06
2.76866e-07
-8.91428e-08
-1.53998e-05
2.10849e-09
6.16529e-11
3.75384e-11
2.27916e-05
-9.48192e-10
1.00072e-11
-2.15617e-08
-1.5121e-05
-2.25405e-11
1.46545e-10
-1.65818e-05
-4.87841e-05
1.17811e-09
1.33e-10
1.08819e-07
8.61724e-12
1.03292e-05
-1.75679e-05
-1.6819e-11
1.9183e-05
1.29752e-10
3.23037e-13
2.29637e-06
5.83569e-10
-2.01319e-10
3.26165e-09
2.17969e-06
0.000325128
2.53253e-05
-3.04532e-10
2.44716e-05
-1.23362e-10
1.69473e-10
-7.03351e-07
-2.73633e-05
8.40535e-09
-1.42062e-05
-3.94666e-06
2.73444e-07
1.96481e-09
-1.67544e-05
-6.62833e-07
-5.47689e-06
-3.21251e-09
3.12908e-05
6.18083e-09
7.33483e-11
-1.99895e-07
-4.67414e-10
1.35945e-11