/*--------------------------------*- C++ -*----------------------------------*\
| =========                 |                                                 |
| \\      /  F ield         | OpenFOAM: The Open Source CFD Toolbox           |
|  \\    /   O peration     | Version:  v2012                                 |
|   \\  /    A nd           | Website:  www.openfoam.com                      |
|    \\/     M anipulation  |                                                 |
\*---------------------------------------------------------------------------*/
FoamFile
{
    version     2.0;
    format      ascii;
    class       volScalarField;
    location    "200";
    object      ddt0(k);
}
// * * * * * * * * * * * * * * * * * * * * * * * * * * * * * * * * * * * * * //

dimensions      [0 2 -3 0 0 0 0];


internalField   nonuniform List<scalar> 
13726
(
-5.95661e-09
-7.16488e-05
3.0908e-08
-5.1067e-09
1.68334e-06
-9.11789e-09
-3.43628e-09
1.95837e-08
2.07244e-06
-1.10763e-07
2.37924e-06
-2.10874e-09
-2.31054e-09
-0.000122048
1.82542e-09
-1.28969e-08
4.33049e-07
-1.75299e-08
6.90979e-05
-6.7471e-05
0.000447596
-1.77921e-09
-4.33918e-08
4.71014e-09
6.48304e-09
-3.63104e-09
8.33865e-08
-1.89518e-09
-9.23398e-10
-3.87361e-05
-2.31145e-05
2.40926e-09
-8.2915e-05
5.38822e-08
2.90063e-05
2.80649e-05
3.22858e-08
-7.75901e-05
3.60072e-08
2.95795e-08
0.000196725
5.00177e-05
1.071e-09
1.82993e-08
2.47002e-08
-4.76282e-09
-0.000602314
-5.58579e-09
-3.28232e-07
3.04635e-10
0.000100925
-1.48078e-09
-2.65992e-06
-2.2592e-08
-4.01031e-08
1.33002e-08
-7.42575e-07
-3.49311e-06
-4.11743e-08
-1.50662e-08
0.000214451
2.86758e-08
-5.24833e-05
-1.07164e-08
-6.14236e-05
3.57974e-09
0.000360543
1.14911e-05
-1.59539e-09
-1.28162e-06
-0.00063033
1.1517e-08
-6.42518e-09
2.54943e-08
5.12942e-05
9.82148e-05
-4.46665e-08
-0.000230349
3.07626e-05
-3.52013e-07
3.97158e-05
-2.30164e-07
-1.36209e-06
4.88074e-09
1.45537e-08
-5.5368e-05
1.27444e-06
-5.92551e-08
-3.60101e-11
0.000169163
1.23439e-08
5.05555e-07
-4.72742e-08
-3.88225e-08
1.06146e-05
-9.66913e-05
-1.04871e-07
-1.83276e-09
5.40652e-08
6.32243e-05
8.43113e-09
-1.01874e-07
-3.33341e-06
-3.12122e-09
-3.02106e-05
-2.31378e-06
-1.49164e-06
-3.49234e-09
1.45546e-08
-6.39777e-08
-1.10433e-07
8.11632e-09
4.34106e-05
-6.22228e-05
7.29774e-05
1.01488e-08
0.000472624
-4.2835e-05
-3.30949e-06
4.69304e-08
-3.64222e-05
-6.9595e-09
5.418e-09
6.94739e-05
7.66076e-05
-8.68661e-05
3.972e-08
-1.43146e-06
4.02021e-09
2.89255e-08
0.000202893
0.000800733
4.38191e-08
-3.12537e-07
-1.2535e-05
8.14121e-07
-6.81038e-05
7.87446e-05
-6.40961e-05
-0.000250369
-5.76039e-07
-1.10522e-05
2.06316e-09
-8.08004e-11
-5.40125e-09
-2.29095e-08
0.000353444
-3.96373e-08
-5.42638e-08
5.21676e-05
2.28523e-08
-7.68355e-09
-2.70591e-07
-1.56509e-08
-4.00107e-09
-5.52739e-08
-4.28734e-08
-0.000184517
1.12447e-05
9.53512e-10
3.43482e-09
-2.64884e-09
-5.56236e-05
-0.000155739
-1.52195e-09
-3.82386e-05
-0.000309342
8.11161e-09
7.86916e-08
-1.73526e-09
5.86849e-07
2.95375e-08
-0.000395489
-4.91785e-08
-0.000237989
1.99044e-05
-9.75281e-09
-0.000108569
8.7056e-05
-9.92661e-09
2.43485e-05
2.08447e-08
-9.08643e-05
-4.98408e-06
-2.2999e-09
-1.74344e-08
4.54833e-09
7.09055e-08
-3.14422e-08
-2.40791e-08
-0.000176533
-0.000380336
-3.84711e-05
-4.75866e-05
-5.65964e-09
4.1363e-10
1.9192e-09
0.000425102
-0.000390826
2.48209e-09
-3.85447e-05
0.000188363
-7.10529e-05
1.38524e-07
-6.04769e-10
-1.21035e-08
2.32912e-08
3.05025e-05
-3.26621e-08
-3.72695e-07
2.54322e-06
9.72296e-06
-6.46763e-05
-7.13068e-09
-0.000248628
2.3626e-05
8.88355e-10
7.13131e-10
7.78626e-09
-0.000127425
4.88815e-08
6.67003e-08
-0.000189234
3.88386e-05
1.69211e-09
0.000382343
-1.39476e-05
-0.000211353
-0.000202293
6.76914e-08
1.32185e-05
-4.20093e-05
-9.54202e-06
-0.000276579
3.77089e-08
1.93733e-08
1.02372e-05
-6.96503e-05
0.000588869
0.000175529
-1.45271e-08
2.39045e-08
-1.14847e-08
6.6206e-05
-0.000324617
0.000587584
-8.081e-08
-7.45494e-08
-1.07911e-09
9.61117e-08
5.11718e-05
2.68397e-08
-0.000128193
1.08463e-07
2.71081e-07
-7.04847e-06
3.57168e-09
1.18174e-05
-0.000146442
6.82527e-08
5.26396e-05
9.91211e-06
-5.4341e-09
2.0761e-10
9.63645e-05
-7.68227e-06
1.0596e-08
-4.11159e-09
1.51152e-09
7.17402e-08
0.000199977
9.55862e-09
4.39023e-05
9.70524e-08
8.61692e-06
0.000314985
8.3846e-05
0.000709355
-9.64608e-09
2.76844e-09
-0.000330655
-2.87681e-08
-9.6371e-06
-1.4405e-07
-2.33214e-05
-1.2361e-09
-7.59624e-05
0.000300341
1.29538e-07
4.46924e-09
-8.36304e-05
-7.84774e-08
-6.75525e-09
-0.000139676
3.33576e-05
1.70518e-08
3.20061e-06
1.56081e-08
0.000728521
3.24655e-09
0.000813689
3.75367e-05
7.70561e-09
4.2941e-08
-1.74566e-07
-2.24256e-06
-0.000323728
5.80752e-05
1.28985e-06
-5.08229e-08
0.000588671
-6.58153e-05
-4.33228e-05
-3.28885e-05
-1.25311e-08
0.000304358
1.05093e-08
-5.56535e-05
0.000154975
3.31595e-05
0.000861478
4.29469e-06
1.41761e-08
9.86406e-08
-1.08176e-05
1.10039e-08
3.34927e-08
-0.000366966
-2.35113e-09
-3.851e-05
-2.09647e-06
-5.69652e-05
-3.39969e-09
-1.24797e-07
1.04402e-07
1.43926e-08
-1.07553e-09
-4.08341e-08
-1.54564e-08
1.97047e-07
0.000516865
-4.26254e-06
-0.0002191
-8.20147e-05
1.7313e-06
-7.80898e-07
1.29387e-08
-3.63658e-08
-2.42425e-05
-1.84274e-08
-1.16639e-05
-9.10693e-06
5.72502e-05
4.97774e-08
-1.90289e-08
9.80385e-08
1.18532e-08
-0.000331903
5.96179e-08
2.99481e-08
2.34895e-08
4.74023e-08
-0.000110654
-1.53184e-08
-9.49908e-08
3.09573e-05
1.74685e-05
-2.87232e-08
1.41824e-08
-2.34157e-09
-1.10652e-05
-1.25839e-09
1.01285e-08
8.55721e-09
0.000545148
1.83828e-08
6.54928e-09
-0.000350472
3.02503e-08
1.50659e-07
6.62367e-09
2.6368e-09
-4.93408e-08
-0.000128829
-0.000379777
3.44684e-05
-0.000181651
6.66977e-08
6.93518e-09
3.17098e-08
-1.46624e-08
2.37685e-08
-1.20304e-08
2.12156e-08
-3.49209e-10
-1.80167e-08
-7.98656e-05
-0.000129912
1.64969e-07
-5.62892e-09
-1.88068e-08
-2.80526e-09
-2.56927e-08
1.3654e-07
-3.68608e-08
5.37225e-08
-1.08827e-08
5.55887e-08
5.50989e-05
-0.000488264
1.04666e-05
-4.73746e-08
0.0007711
0.000621393
1.26915e-05
-4.64642e-08
0.000242754
-2.28145e-05
-8.4123e-05
0.000110667
0.000115888
0.000227118
-8.61304e-10
-2.42292e-07
-1.16138e-05
7.32437e-10
-1.48864e-05
3.67986e-08
-9.42759e-10
2.31887e-07
7.80927e-05
8.68351e-05
4.28913e-05
8.67129e-05
-7.16353e-08
1.00825e-08
-3.8319e-08
-7.80397e-10
2.02221e-08
-5.03095e-07
-1.70586e-08
-1.34949e-06
1.11054e-08
-0.00052733
1.22852e-05
-1.11285e-08
3.82291e-05
-1.51773e-09
2.51204e-09
2.9322e-06
1.1062e-10
-1.98061e-05
9.47199e-05
3.91868e-09
-3.29739e-05
7.29304e-10
5.91699e-05
-1.82872e-05
-6.53705e-09
-1.32187e-08
-1.34812e-07
-0.000111717
-9.75217e-08
3.61045e-07
-5.30934e-06
-4.44683e-08
1.26498e-06
-4.51653e-05
-5.51037e-10
5.964e-05
-2.41558e-07
-2.05958e-09
-1.40082e-08
-2.47872e-08
0.000101375
-2.90622e-09
0.000507766
-7.85993e-05
9.18067e-05
-8.88017e-08
0.000600213
-2.41656e-09
-4.28604e-09
2.94889e-05
-9.17748e-09
-1.5233e-09
1.27703e-08
-1.44457e-09
2.71751e-05
9.97681e-05
-3.45418e-08
1.90411e-06
-6.11185e-07
-4.48658e-05
-0.000129678
-4.75907e-08
4.91168e-08
-0.000219104
-0.000112135
7.84583e-08
-2.19687e-09
0.000449923
-5.29301e-07
-3.65824e-07
-9.8143e-09
-9.35458e-10
0.000298763
7.76944e-06
2.96023e-11
3.89396e-08
-5.42877e-10
-4.80131e-05
-1.48401e-08
5.40651e-08
-1.43878e-09
-6.71605e-05
3.50279e-07
2.39235e-08
-2.17949e-08
1.3913e-08
6.28465e-08
-4.10169e-07
-1.99029e-05
0.00019832
-7.97493e-07
1.29927e-07
-3.72143e-05
1.04475e-06
-8.0489e-09
0.000107225
-1.70892e-07
-1.30024e-07
6.54003e-05
-2.59057e-08
-0.000338342
2.79922e-08
-1.84452e-07
6.40541e-05
-4.44507e-08
6.63903e-08
1.2868e-05
-2.07484e-09
7.84267e-08
5.21337e-09
2.66128e-06
-2.91531e-05
-1.36671e-07
4.63112e-09
-6.22902e-05
-1.0076e-08
-1.05243e-08
0.000503164
1.63747e-08
0.000114609
2.14908e-08
6.82707e-08
1.12999e-08
2.16732e-05
-0.000588914
-4.37792e-05
0.00014753
-3.43093e-09
-6.0459e-05
-1.20795e-08
0.000152109
-0.000188099
-1.38587e-07
-5.10921e-09
0.000131595
-9.30733e-08
0.000311384
-8.35319e-09
4.06446e-09
0.000249507
3.48733e-08
3.38675e-05
5.17058e-08
-5.07942e-08
4.92203e-07
9.11035e-07
-0.000128925
-7.44898e-05
9.14225e-09
-2.09558e-08
-3.65727e-05
2.49763e-08
8.27988e-05
0.000571285
-1.29596e-08
-0.000360966
-2.17252e-07
-1.25673e-07
-1.67871e-08
-3.35042e-09
3.7159e-05
2.80827e-08
0.000433635
-1.22479e-08
-4.55811e-05
-2.28689e-05
4.04894e-08
-2.05174e-08
1.53976e-08
-1.21182e-08
7.2547e-09
0.000106282
5.3765e-05
0.000710149
-2.33188e-08
-0.000345992
0.000114739
9.29107e-05
-1.01342e-07
-0.000457403
-6.06953e-06
2.3804e-09
1.99828e-08
6.99444e-09
-5.02666e-05
4.81433e-08
-3.43344e-10
-2.12945e-07
4.84563e-05
0.000114555
4.59484e-08
4.48995e-09
-2.58665e-08
-4.55903e-07
9.38788e-09
5.78602e-10
5.61578e-06
-5.06711e-09
-1.80488e-05
1.77439e-09
-9.16998e-05
1.02802e-07
-1.81872e-08
-4.24936e-05
-5.5883e-05
6.71263e-10
-0.000587477
1.21149e-08
-2.99489e-08
1.24708e-05
1.53849e-07
-0.000199654
8.14195e-08
1.11179e-06
3.55211e-05
-3.07477e-08
-4.11641e-07
2.28156e-08
0.000210943
-6.11087e-10
0.000943011
3.15495e-09
6.33499e-09
-2.24772e-08
-0.000302259
3.95768e-09
-9.17621e-09
5.63968e-09
1.60651e-05
-0.000216199
-1.82778e-05
3.6177e-10
-1.14036e-08
-7.40094e-05
-0.000120585
-5.7083e-09
5.96834e-05
2.7742e-07
5.15636e-05
8.23988e-05
1.56983e-06
-2.67652e-07
4.43565e-05
-1.3103e-08
-2.2031e-08
-0.000184738
2.91838e-08
-2.74371e-09
1.76664e-05
8.72597e-05
-2.72663e-08
-3.41897e-09
-2.1785e-08
-4.31881e-08
-0.000326147
-1.40712e-07
-8.00093e-10
1.15577e-08
2.01899e-09
-1.52223e-08
-3.39513e-08
-2.08089e-08
-1.20156e-11
-1.48928e-05
-1.27623e-09
-1.15675e-07
-3.65521e-06
3.80648e-08
8.48006e-09
4.23918e-08
1.92402e-09
-5.81334e-07
8.38232e-08
0.000129828
-8.22831e-09
2.3952e-05
-2.73573e-08
8.98649e-07
-3.12179e-05
-1.10647e-07
2.23986e-08
4.1557e-09
4.02095e-08
-5.54858e-09
3.43141e-07
3.83908e-07
-2.98885e-09
2.67557e-05
4.78825e-06
6.95235e-05
8.95334e-06
-6.28696e-09
-5.78819e-05
5.38383e-09
-5.22417e-09
7.15041e-09
-3.09071e-08
-5.78559e-05
-9.78128e-08
-0.000415592
4.4479e-08
4.07357e-05
0.00010568
3.09749e-05
6.34586e-05
-1.22778e-07
-2.86994e-08
7.84691e-09
1.78578e-08
-1.41908e-06
0.000104194
2.02851e-05
-3.24808e-07
-3.30515e-08
-3.5814e-09
5.81801e-05
-3.92954e-08
-6.39376e-10
-1.57481e-08
8.78283e-09
-3.0843e-06
8.77248e-07
1.44603e-07
-6.09578e-09
-0.000532821
1.88506e-05
1.79715e-08
7.32831e-06
-2.78923e-05
4.97081e-08
0.000293472
-0.000147431
-0.00016362
-4.44338e-10
-4.59198e-08
5.50671e-05
-4.80547e-10
1.00043e-05
-1.97618e-08
-3.18752e-07
-1.20997e-06
-4.20382e-09
3.01126e-07
-3.01689e-05
9.94045e-09
2.9618e-09
6.34455e-09
6.78628e-06
-3.51455e-09
0.000235103
0.000563179
-1.59101e-09
-8.99146e-09
-7.34941e-09
-0.000486539
-2.10196e-09
-0.000235249
0.000663406
-7.25844e-05
-0.000115849
-5.20338e-05
0.000214612
0.00010541
-2.44717e-08
2.29486e-08
-1.9454e-05
1.31503e-10
5.8177e-05
-5.15406e-05
-2.84968e-05
-5.38441e-09
1.36624e-08
8.48776e-09
0.000681227
3.3305e-09
-7.82735e-05
0.000595851
0.000215382
0.000254398
-3.85378e-06
-0.000125718
4.40335e-08
8.54035e-05
1.36792e-07
-1.7176e-05
7.18466e-10
-3.28092e-08
1.62304e-08
8.12161e-06
5.8818e-08
2.23394e-07
-1.04185e-07
1.59594e-08
-7.00401e-09
-0.00060396
3.96488e-09
5.16495e-08
-2.27266e-05
-9.48195e-09
-3.40266e-08
-5.95295e-09
-6.40787e-05
-1.08924e-08
-1.02441e-09
-3.66299e-08
-2.33156e-09
4.00653e-09
1.98572e-08
0.000146675
-6.33142e-09
1.07324e-09
-2.81185e-06
-4.74629e-05
-3.28382e-08
-1.42751e-08
-0.000318128
-3.84088e-05
1.06708e-07
7.07023e-10
-9.61526e-05
-0.000125369
9.91154e-06
2.02317e-06
-9.29275e-05
-1.39227e-09
9.13503e-08
1.39889e-08
-2.64484e-09
4.95259e-08
8.68844e-06
-1.38816e-07
0.00040949
1.79212e-09
-7.15969e-07
6.41702e-09
9.76126e-08
-3.10152e-06
4.64107e-06
1.84102e-09
-1.95569e-08
4.90791e-07
1.14596e-08
2.31718e-08
-2.70236e-09
1.56693e-05
-0.000481041
-1.13537e-07
-1.55673e-09
-7.86879e-08
-6.04651e-09
-1.0872e-05
2.29713e-08
-1.13231e-08
-8.46797e-05
1.10529e-07
-4.30776e-07
1.74611e-08
-0.000111104
0.000469707
3.13459e-09
-3.41707e-08
3.94841e-06
0.000118634
-3.94873e-10
1.17424e-05
-3.32503e-05
-6.2869e-06
0.00023345
0.000143076
9.97029e-06
-1.84007e-05
0.000375611
2.22073e-10
-2.79333e-09
-3.62099e-05
-3.79073e-09
0.000131209
-7.15494e-09
4.3914e-06
-0.000119549
2.92923e-08
0.000126477
-3.52378e-05
-0.000631191
6.33214e-08
-6.46385e-11
-1.55716e-08
5.03685e-07
-7.83051e-05
-3.45089e-09
-0.000425994
6.54047e-08
3.05975e-06
3.5733e-07
-7.02672e-06
-0.000560266
-2.41663e-08
2.86197e-05
2.11334e-07
-1.42486e-09
-2.11693e-08
0.000264696
1.63979e-07
-4.20327e-08
0.000354234
-4.94731e-08
-0.000659514
-2.55972e-08
-6.96597e-05
-1.54246e-05
-0.00011055
6.20784e-09
8.34716e-10
-8.53442e-08
-4.56419e-09
1.69237e-05
-4.46026e-05
-3.18497e-11
-7.35633e-09
6.5945e-07
-1.73713e-06
0.000105931
-4.06422e-08
4.89171e-05
-1.85167e-08
1.03866e-09
-0.000454595
-4.70486e-05
-6.09235e-05
2.96156e-08
-2.58509e-05
-8.72201e-08
0.000110147
-1.16371e-05
-0.00011287
-8.15661e-06
-4.93776e-08
0.000215992
5.10873e-05
-0.000251525
-0.00014914
-6.12091e-10
0.000227273
6.67148e-07
7.48466e-08
3.09653e-07
6.83811e-09
-0.000602424
-1.87003e-08
7.3296e-06
-0.000202125
-6.96568e-05
-3.44221e-05
-9.17633e-05
9.57399e-05
-0.000272198
5.57786e-05
1.13854e-08
0.000153617
-5.76448e-09
-8.06673e-05
6.8281e-06
-6.90704e-09
1.16895e-05
-2.61165e-08
-3.95232e-09
-1.02829e-08
-1.05507e-08
-1.56388e-05
-0.000657439
5.15019e-09
-4.88877e-09
0.000320694
-7.6346e-05
-1.09531e-08
-7.66543e-08
0.000181654
2.84744e-09
-2.49055e-08
-8.42459e-10
1.01849e-05
1.67674e-07
-1.14475e-08
-0.000706334
1.34229e-08
-1.04846e-05
-1.08751e-05
1.84271e-09
-5.26956e-05
5.08968e-08
-0.000236301
-7.60236e-05
-1.21503e-05
5.32769e-08
0.000667106
7.34349e-09
-0.000170599
7.52719e-09
-6.13568e-05
1.78556e-09
-8.45362e-09
8.03389e-05
1.75011e-08
8.00502e-09
-0.000311561
1.4051e-07
7.93167e-09
-2.03606e-05
4.51866e-09
-5.07855e-09
0.000135962
-6.8245e-05
4.37899e-08
4.65268e-06
2.74193e-09
-8.29434e-05
1.57601e-08
6.18491e-08
4.58784e-08
3.82825e-09
1.90606e-08
0.000510946
8.98975e-05
-4.01101e-10
-9.67567e-05
-4.45421e-08
-6.06977e-05
1.99107e-08
-9.07025e-09
2.4201e-05
7.60219e-05
-2.13988e-08
5.11533e-08
1.28617e-05
1.34309e-08
-6.75829e-08
-3.14268e-08
-9.21637e-05
0.000648603
-2.24875e-07
1.35056e-06
-0.000237482
1.04465e-08
8.97162e-09
-0.000201301
-0.000271009
-2.63813e-07
5.15828e-05
2.13133e-09
0.000265395
0.000128029
-1.78013e-09
-1.91345e-08
0.000192662
9.46299e-09
-4.69243e-08
0.000250961
8.52986e-08
-6.05545e-08
3.7731e-07
-9.99702e-09
7.45489e-05
0.000115447
-2.10733e-09
-2.2353e-05
1.44228e-05
-1.08548e-09
2.55974e-07
0.000280606
-8.69254e-05
0.000159076
1.63545e-08
-1.18743e-08
6.40778e-05
4.94099e-08
5.55195e-07
7.20251e-05
5.71234e-09
7.78355e-06
-2.22925e-08
1.12217e-08
-0.000565717
-3.80555e-07
5.42085e-06
-2.97063e-07
1.20674e-08
7.44647e-10
-6.32257e-05
0.000407139
-1.05685e-10
1.39463e-06
-1.80681e-05
-4.59305e-09
-2.58649e-08
-1.37507e-08
-2.56125e-08
6.49017e-05
-4.35573e-09
-2.83976e-09
-2.40645e-07
1.08878e-08
0.000213319
8.5254e-06
-0.000453962
-1.32478e-07
-5.01991e-09
-1.92678e-08
-0.000137737
-4.51407e-06
6.51592e-06
2.7867e-07
-1.08781e-07
3.75686e-08
-1.96242e-10
2.54121e-08
-0.000142892
0.000121535
-4.91959e-08
-5.74272e-05
0.000336659
-1.23159e-09
2.37704e-05
-0.000123972
-5.983e-05
0.000455159
-2.59472e-10
0.000290774
-6.62734e-05
1.51305e-05
-9.22836e-09
9.87489e-08
0.000108479
6.41398e-08
1.15809e-08
-8.50625e-05
-6.18696e-07
-2.16595e-05
-0.000142103
-1.86657e-07
0.000119428
0.000243505
-2.32195e-08
0.000457617
0.000156222
9.86748e-09
-3.41119e-10
-4.95444e-05
-5.37723e-08
1.00432e-08
-3.43975e-09
-2.88542e-09
0.000163406
1.41089e-08
-1.00201e-06
0.000501238
-0.000122542
-3.78127e-08
1.70278e-07
-0.000257692
-7.95027e-09
-3.77798e-08
-1.05334e-08
2.85494e-08
2.89459e-08
-0.000217161
-1.24597e-08
-9.84176e-09
9.91393e-06
2.06991e-08
-0.000431708
-4.9445e-09
6.16227e-05
-8.81368e-09
-0.000483157
-0.000208475
-1.58605e-09
0.000397061
-7.43341e-05
1.15138e-08
1.57709e-08
-3.44548e-08
-9.68042e-05
1.82248e-08
0.000401712
-2.24973e-09
8.87293e-09
-0.000138389
-1.27009e-05
1.90052e-08
3.65644e-08
-1.88877e-08
-6.25175e-08
-3.37335e-09
8.11464e-10
-4.64297e-08
0.000373752
-0.00063938
1.57945e-08
3.54343e-09
9.2899e-05
-4.41318e-05
1.19868e-08
-2.0581e-09
7.57539e-05
8.1781e-06
-0.00030253
4.60426e-08
5.36654e-08
0.000514895
2.7596e-07
4.87314e-05
4.76783e-05
-1.15533e-08
-3.1512e-08
6.62494e-05
1.34096e-06
4.76688e-08
-0.000359749
-0.000204749
-1.74091e-05
6.28318e-09
-1.62238e-08
-3.52636e-08
-3.32599e-08
3.97337e-08
-0.000795733
-1.23209e-07
3.51899e-09
-0.000465057
-3.64476e-08
-1.04893e-08
2.48826e-07
-0.000329956
-1.04441e-08
0.00012859
3.78156e-08
1.18141e-08
1.16821e-08
5.49798e-08
-2.77574e-09
0.00049967
-0.00038628
1.76461e-08
4.64062e-05
-3.38184e-09
-2.32623e-09
3.76822e-05
-0.00041681
-5.68173e-09
-0.000412288
2.94667e-10
1.1667e-09
-2.23892e-08
7.00944e-05
9.51489e-06
-5.66086e-09
3.92944e-05
-0.000251001
-0.000178553
-2.11967e-07
-4.69216e-05
-6.41729e-05
-5.17436e-08
-0.000130619
-1.0593e-08
2.84233e-08
2.95976e-08
-2.9499e-05
-0.000453591
-0.000319608
-0.000214959
1.04125e-08
2.42788e-08
-1.79568e-08
-6.07278e-09
2.14913e-08
-7.95616e-09
-1.06003e-08
-2.35565e-08
9.70497e-05
-5.20257e-09
1.24077e-09
-1.44073e-09
-0.000237471
-1.71103e-08
6.13845e-09
-4.76161e-09
-7.64606e-05
-5.08619e-08
-8.78854e-09
8.07997e-08
0.000408598
-6.08095e-09
1.68957e-07
7.02727e-08
3.04481e-08
-1.24447e-05
0.000267002
1.04447e-08
0.000328851
-0.000537915
1.59042e-08
4.69819e-09
-4.63529e-08
9.22775e-09
2.40776e-08
-2.18854e-08
-2.83247e-08
-7.35712e-05
3.26168e-09
3.7941e-08
7.3185e-09
3.64366e-08
-1.34746e-08
6.93532e-09
1.31138e-08
1.10495e-09
-4.71341e-07
-8.03385e-05
-5.65518e-05
-0.000103057
-0.00020892
4.32397e-07
-4.53226e-10
-4.6136e-08
0.000253961
4.35439e-08
-4.32212e-05
-2.7617e-06
-9.77306e-05
1.0906e-08
0.000100115
2.54996e-08
0.00035161
1.60127e-08
4.14159e-09
6.22944e-09
-2.8254e-08
-7.99339e-07
-1.82114e-06
-0.000255783
-0.000242163
-6.38855e-05
-2.19208e-08
2.35633e-10
-3.29313e-08
-0.000357893
-1.87138e-08
1.84208e-09
-0.000239299
8.30796e-09
0.000160748
1.50636e-08
-3.56513e-08
-6.901e-10
-3.50413e-09
2.0663e-05
-4.59049e-09
8.61312e-06
-0.000136267
-2.03298e-05
-1.07315e-08
-4.84029e-08
-3.58016e-05
4.07719e-05
0.000485253
8.6304e-09
-7.28503e-07
-0.000281752
3.40675e-05
-0.000137077
2.01655e-08
1.03423e-08
3.99153e-10
4.2031e-09
-1.54508e-05
7.70706e-08
4.15318e-09
7.10426e-08
8.11524e-05
0.000165089
0.000208178
-5.29518e-09
-9.81087e-05
2.10306e-08
4.0026e-09
-3.09423e-05
1.89719e-09
5.55461e-07
3.07292e-07
-3.60501e-08
-4.9227e-09
0.000369496
0.00017219
-7.58798e-05
2.7724e-11
-0.00028939
-1.18605e-08
5.65188e-08
-0.000237707
-1.31266e-08
2.44539e-08
-0.000426866
-0.000678311
-5.3745e-08
-3.89599e-05
5.80741e-09
-0.000158609
-3.64232e-10
8.76173e-05
-9.46636e-09
-7.08245e-08
0.000156064
-0.000187977
-7.08362e-05
-1.29075e-07
-2.49662e-08
1.05023e-06
1.14124e-07
-5.93437e-08
-1.90696e-07
-0.000668242
7.56542e-07
-3.19482e-08
2.09211e-07
1.56156e-08
1.17373e-07
9.02626e-08
2.17082e-08
1.50879e-08
-2.36031e-05
0.000295915
2.48807e-08
-6.63804e-07
7.45911e-08
-3.2966e-08
5.96895e-08
9.96663e-07
-1.82953e-08
-0.000289873
3.96988e-05
1.36422e-10
1.7245e-08
2.31529e-08
-0.000148685
3.61252e-07
-2.17771e-08
-2.55173e-08
1.62674e-08
-2.29e-08
-9.42113e-05
-2.54147e-05
-1.01212e-07
-7.11794e-05
-3.69492e-08
7.94073e-08
-4.56983e-06
-2.59758e-08
-0.000101198
-8.35871e-09
-0.000383357
-6.38679e-05
1.53186e-07
1.76143e-08
5.40542e-08
-8.15827e-10
6.02973e-08
-0.000391639
2.26889e-06
1.04039e-05
1.06225e-08
-3.73345e-10
-9.28117e-05
-0.000512726
1.0257e-06
-0.000600832
-7.55957e-07
6.94493e-09
3.67955e-06
-0.00017025
5.58132e-09
-0.000177489
-0.00018004
-5.48822e-09
2.17146e-07
1.03638e-08
-1.04044e-09
1.39076e-09
-3.0943e-08
-3.16839e-05
-0.00019977
1.99804e-08
-7.80766e-09
-6.20105e-05
-5.80892e-05
4.72968e-05
-0.000253807
0.000167366
-1.15655e-07
-6.89854e-09
3.72856e-08
1.44171e-09
-1.22614e-08
-1.38212e-08
-9.72626e-05
-2.85054e-07
-2.31742e-08
-0.000485757
-1.12379e-09
-0.000163344
-3.30847e-08
-3.19527e-05
-5.53792e-05
-3.33073e-08
-3.27881e-09
-0.000106051
-9.35918e-05
6.21811e-05
-3.73583e-05
0.00038465
1.05643e-05
-1.08628e-07
-2.14616e-05
-0.000129813
2.55019e-09
1.59351e-08
1.85961e-05
5.70798e-09
2.33336e-08
1.38671e-10
3.15236e-08
-3.48942e-08
0.000124957
3.1712e-08
3.4141e-08
-1.09319e-07
1.74408e-08
0.000288922
-0.000197813
-3.26478e-09
-0.00144293
1.84701e-07
0.000318154
2.57278e-07
5.51879e-05
-1.30004e-07
5.42944e-05
7.64039e-05
-3.69334e-08
7.26544e-09
0.000162632
-7.28852e-08
-0.000482521
3.38703e-05
-1.80049e-05
-6.9217e-09
2.42876e-07
-1.14877e-09
-3.17706e-05
-7.72311e-05
-0.000213966
-4.92459e-09
2.68676e-07
-3.09825e-08
-0.0002997
6.16435e-06
0.000133491
0.000153315
0.000518008
-0.000136311
-0.000120564
9.99885e-09
-2.19478e-06
9.39909e-05
5.43555e-05
-1.22107e-07
-4.17024e-08
-5.57644e-05
1.57758e-09
-3.36377e-08
-2.19515e-08
-2.64691e-08
1.61438e-05
-6.79e-05
-4.69357e-09
-4.74612e-08
1.84787e-08
3.3512e-06
-0.000178161
6.21786e-09
2.86387e-05
1.0406e-05
0.000189115
-2.61751e-08
-8.21295e-08
-1.86455e-08
3.94555e-05
0.000213758
-0.000155431
2.2174e-09
1.33873e-08
0.00101758
7.5562e-08
0.000559879
2.51084e-08
2.43738e-05
-8.17788e-05
-1.73214e-08
-1.2788e-08
-4.79131e-05
9.42331e-09
1.56275e-08
8.28216e-06
2.15826e-05
2.05953e-08
-0.000196548
4.77051e-06
-7.28405e-05
-1.89001e-05
-5.08352e-05
-2.0953e-07
8.20125e-05
0.000532871
-7.9621e-05
1.19588e-05
3.17454e-05
1.80974e-08
-6.40019e-07
-2.70798e-09
1.583e-10
-0.000456819
6.24173e-07
9.42379e-06
1.39567e-08
4.87186e-07
-0.000780788
9.07122e-09
3.13667e-08
2.67484e-08
8.09345e-09
3.19158e-08
0.000211909
-7.99524e-07
0.000152601
-2.87288e-05
-9.54547e-10
3.69864e-07
-0.00013073
0.000593451
-3.57678e-08
-2.61384e-09
-2.5128e-08
-5.99166e-05
-2.89659e-10
-7.85927e-07
-5.23595e-08
-0.000171063
4.01641e-09
-8.82992e-05
-1.9294e-05
0.000113687
0.000464613
2.95987e-06
-1.02258e-07
2.95547e-08
-3.60533e-05
3.81468e-08
-0.000332973
-2.59208e-09
6.13758e-06
1.66239e-08
-9.76201e-09
-0.00016218
9.39527e-09
5.34115e-06
-9.69128e-05
-0.000403689
-2.52014e-09
0.000106855
2.60167e-08
-0.000156705
7.83524e-05
1.59135e-09
3.58716e-08
4.0512e-09
2.99802e-06
-0.000494015
-0.000183374
1.90603e-05
-2.40509e-09
-3.25874e-08
6.14909e-05
3.06174e-08
0.000171367
-1.42472e-09
1.31318e-06
1.86801e-07
5.14685e-08
1.73988e-08
-4.89476e-08
0.000227584
6.44273e-08
4.21496e-08
-1.99234e-08
5.28516e-06
-7.00029e-08
-1.77313e-08
-8.97293e-08
4.16656e-06
5.04838e-06
3.67433e-08
-6.99591e-09
3.72961e-07
0.000115496
-3.35219e-07
-0.000245115
-9.81406e-08
-3.766e-08
0.000128883
9.88941e-05
1.53286e-07
-6.32418e-05
-2.85397e-09
-4.28306e-05
-8.49955e-05
-0.000106183
-2.95827e-09
-6.33136e-06
2.14875e-06
5.09237e-09
-0.00017667
3.33837e-08
1.47607e-09
2.50098e-08
-2.96861e-08
-2.58692e-05
1.41706e-05
5.04583e-09
5.77252e-08
-0.000357264
1.26818e-08
1.40248e-09
-1.07951e-08
-6.9242e-05
2.85203e-09
-7.6035e-08
2.40391e-08
5.06782e-09
-7.8395e-05
5.57548e-08
-7.32746e-05
-3.29664e-09
-6.81648e-05
-0.000124481
2.51239e-08
-6.0435e-09
0.000133953
9.3417e-09
1.4107e-08
1.21902e-05
3.41231e-06
4.86926e-08
-4.24702e-06
-1.58938e-08
1.71054e-05
2.91671e-08
5.23105e-09
4.39957e-08
1.00981e-05
-5.33763e-09
-9.30238e-05
-0.00049654
-0.0004019
2.95866e-05
-0.000224451
2.16214e-06
4.78361e-05
6.80459e-06
-7.92679e-05
1.04223e-07
5.38859e-08
-0.000126344
6.6811e-09
2.20066e-05
-5.25375e-05
1.0926e-07
-4.34291e-05
-0.000402432
1.51209e-08
3.32363e-09
-6.52667e-05
7.03082e-05
-7.23945e-09
-0.000209769
6.08862e-08
-2.15485e-08
-0.000104709
0.000101744
9.52304e-09
9.51523e-08
-1.1474e-08
-0.000147904
-3.15479e-08
4.85772e-06
-5.75864e-05
-6.17588e-08
-5.49009e-09
-8.6066e-08
-0.000165985
6.0257e-09
2.15999e-08
3.9003e-05
3.47755e-09
-8.64456e-08
-0.000428322
-1.4584e-08
-0.000157308
-6.87634e-08
-1.36267e-08
0.00048334
-4.69628e-08
-5.92997e-07
-8.58887e-05
-0.00040071
4.79374e-09
-2.36056e-05
-0.000223754
-5.59894e-08
-5.32638e-11
-0.000879331
-1.75144e-05
9.0988e-09
-9.6577e-08
-8.31548e-05
1.23626e-08
1.35812e-06
-6.66499e-05
0.000667096
7.45107e-05
2.8115e-08
-5.84441e-09
1.06407e-08
7.52068e-09
9.22479e-05
4.39574e-09
1.86595e-05
-4.51186e-09
-9.04001e-05
-3.55632e-09
3.03631e-07
-2.42979e-05
-1.90007e-08
-0.000773126
-3.28569e-07
-1.69372e-07
-6.38172e-05
-0.00035905
-7.81114e-08
2.12206e-08
3.58766e-05
5.71442e-08
-4.35989e-07
-6.55865e-05
0.000149988
0.000372441
4.42907e-05
3.66327e-05
-6.04665e-08
-8.2266e-05
8.24826e-05
0.000129496
-6.44505e-09
-6.88279e-05
4.23572e-08
-1.98391e-08
1.03451e-06
0.000768506
-9.86096e-05
-3.9143e-09
-1.23241e-08
-1.08323e-07
-4.39491e-09
6.8133e-09
-2.0041e-08
8.07181e-09
8.18077e-09
-6.21717e-08
-8.216e-05
-0.000429464
-7.21364e-05
1.31387e-08
-0.000246271
-0.000141747
-1.31624e-07
3.89631e-05
-1.26811e-09
6.42212e-09
-1.33808e-08
-3.04448e-07
4.29162e-05
-1.57075e-07
-4.26801e-06
-7.58872e-05
2.88513e-08
3.17891e-09
-2.65323e-05
2.65061e-08
-8.62682e-07
-7.11954e-09
4.57686e-05
1.64826e-05
-8.5342e-05
-6.07763e-08
5.24574e-09
1.81002e-09
-1.00891e-07
6.17074e-09
-8.40634e-08
-0.000399423
1.85754e-08
-4.42535e-07
0.000105293
-5.58865e-07
-1.15118e-07
-9.87995e-05
-7.40482e-05
1.81577e-10
9.36641e-08
7.25793e-09
0.000338216
-0.000392692
-5.97771e-08
-9.27229e-05
6.99002e-09
1.80183e-09
0.000145349
1.50499e-06
-7.69965e-09
-5.33169e-07
9.98037e-09
-3.85911e-08
-3.30607e-09
-2.74893e-08
1.52517e-05
-1.43719e-08
-1.1756e-08
-8.47667e-08
0.000195026
-7.55784e-09
3.01843e-06
6.81817e-05
1.67339e-07
-1.81053e-07
-3.67917e-09
1.55923e-07
-1.5451e-07
1.57008e-06
2.79476e-08
-7.35505e-05
0.000602665
-5.55455e-05
-9.48884e-05
4.73681e-08
2.68133e-08
1.25427e-07
-0.00028602
-2.30537e-05
-7.14412e-05
2.24627e-09
-0.00057178
0.00013939
-0.000291014
-4.54988e-05
4.09263e-09
4.47029e-08
0.000286718
-3.15293e-05
3.08801e-07
1.19376e-08
-8.20271e-09
6.25502e-05
-2.49691e-09
3.23571e-08
5.70137e-05
-2.33094e-07
-1.68547e-08
-9.61377e-05
1.34603e-09
-5.50493e-08
6.14551e-09
-0.000146046
-0.000356011
-0.000419046
0.000172652
5.31902e-05
-4.24314e-05
-6.543e-06
-7.14442e-10
-5.51111e-05
3.2279e-08
3.03031e-05
0.000256845
-5.14395e-05
-8.63475e-05
-2.43289e-05
-6.94781e-08
-4.03082e-06
3.79404e-05
8.39312e-08
-1.51534e-05
-0.000129031
-5.57535e-05
-1.09026e-05
3.41379e-05
-0.00011441
-5.81404e-08
-1.37223e-07
-7.09602e-09
1.19189e-10
-2.34222e-07
-7.05258e-05
4.76292e-08
0.000184413
-1.04381e-08
-1.80292e-06
1.38035e-06
1.17918e-05
2.8969e-08
1.67315e-05
-4.64052e-05
-8.029e-08
-7.34425e-05
-1.31258e-05
-8.09232e-05
7.1758e-08
0.000112645
-1.06024e-08
1.6241e-08
1.77272e-08
-6.29728e-05
2.89492e-07
-8.99727e-05
-5.62489e-08
-1.16247e-08
-1.32257e-05
-0.000107163
-1.59053e-08
1.15608e-08
0.000117061
6.92416e-08
9.63317e-06
-2.93545e-05
2.24187e-08
-0.000161705
-0.000111309
-2.98121e-09
8.5451e-06
-6.7034e-05
-0.00060303
0.000884396
-1.4827e-07
-0.00010263
-1.0515e-07
-8.27847e-08
6.54854e-07
1.39554e-09
2.09248e-05
-8.32653e-05
6.17375e-07
5.41336e-06
0.000958907
-3.24094e-10
3.20265e-08
-5.64183e-08
2.21836e-05
5.68922e-09
-0.000511373
-7.44308e-09
-1.15777e-06
-7.01441e-05
-4.37832e-05
-4.36442e-05
-0.000128767
0.00015406
-8.68583e-09
4.59747e-07
-0.000265916
-0.000604255
-3.68309e-09
-6.69825e-09
-9.52585e-05
-2.87276e-09
-7.87961e-09
8.93804e-07
-1.48495e-07
-3.37308e-05
8.8934e-10
-1.35097e-05
-7.08172e-06
4.3829e-05
-1.54454e-06
7.08982e-09
3.07532e-08
-4.28862e-09
2.56239e-08
-0.000201853
-5.82641e-09
-5.2549e-05
-8.03488e-05
3.0773e-08
5.56025e-09
5.36902e-05
1.57983e-06
4.33449e-08
-2.43968e-06
-9.48725e-08
9.18737e-05
7.74428e-07
-0.000181491
-9.64097e-05
0.000465875
-2.56185e-05
0.000257265
-0.00121795
-8.52323e-05
-4.39422e-05
1.7316e-08
-9.8692e-09
2.24572e-07
-3.68277e-05
4.62905e-07
-0.00044177
0.000885015
-1.46146e-08
-4.09752e-08
0.000389816
8.27069e-06
3.51083e-05
0.000148923
-5.58339e-05
5.49865e-09
1.02901e-08
1.19327e-08
0.000802987
1.59382e-07
0.000173143
1.00738e-08
-0.000421994
-0.000197143
3.46989e-08
8.62025e-10
-8.0411e-05
5.03515e-07
-0.000223962
-1.69024e-08
-7.3124e-08
7.44885e-10
1.05919e-07
5.25422e-09
-9.86635e-05
-2.34054e-08
3.75167e-05
-4.46151e-09
-1.11615e-06
-1.18677e-08
8.13643e-07
1.60332e-07
5.77753e-07
4.14445e-08
-0.000175219
-2.60822e-06
-0.00032065
1.10575e-05
0.000123241
-0.000152738
4.69298e-07
-0.00039938
-0.000696034
6.6862e-05
6.7276e-06
1.64461e-05
-4.22957e-08
-1.67658e-09
-9.70985e-07
1.75695e-07
-2.39521e-08
-0.000509747
-0.000272516
-2.03874e-07
-1.5217e-06
-0.000324114
-1.1713e-09
2.82846e-09
-7.70434e-05
1.29242e-08
-0.000169624
3.89745e-05
-1.79785e-08
-0.000275674
-5.11029e-05
-2.09846e-07
9.98773e-06
-2.05906e-05
-9.23985e-05
3.5027e-08
6.13625e-05
-3.07001e-05
1.3567e-08
-5.31852e-05
-1.09657e-06
-6.6675e-07
-0.00020979
2.26076e-08
0.000648105
8.89418e-05
-4.58585e-07
-3.17318e-06
7.17092e-10
8.44099e-09
-2.19192e-07
-4.09105e-06
-6.01e-05
-0.000135439
-8.63107e-05
2.27376e-08
1.04616e-08
-0.000291743
-2.12612e-05
8.25386e-05
-1.43249e-07
-0.00056749
1.30835e-07
-2.23971e-09
8.89934e-05
1.17721e-05
8.00786e-05
3.83771e-08
-6.53325e-08
-9.58269e-09
-0.000191716
1.97729e-06
-0.000775854
-0.000208444
1.25071e-05
9.64234e-05
9.59197e-05
-0.000182974
-0.000352476
-9.70411e-05
0.000224401
6.80092e-08
1.35261e-05
-2.31833e-09
1.17624e-06
-1.40109e-05
1.07643e-06
-3.69802e-10
-0.000118174
-0.000119139
9.35333e-05
0.000129876
-1.22532e-08
-0.000116457
2.83482e-05
-0.000252443
6.7533e-08
-4.98864e-05
-0.000137963
-2.61806e-05
-8.85023e-07
-3.62237e-05
5.01503e-08
1.62947e-09
3.19423e-08
0.000153356
-1.33583e-07
7.54206e-09
-3.72487e-07
-0.000240082
-4.86079e-08
2.47179e-08
-4.83003e-05
-0.00019283
-1.01196e-08
1.57485e-07
-3.28407e-06
3.81649e-09
7.78345e-05
-8.96071e-05
-1.24786e-08
-0.00016937
-2.34318e-09
-2.14208e-08
5.23105e-05
-1.16288e-07
-9.15663e-08
-2.29509e-07
3.16621e-05
0.000314406
-7.30969e-05
-3.31306e-08
-5.22051e-05
-8.49504e-09
1.24355e-08
-2.60969e-05
-5.39441e-05
-1.99458e-07
7.17268e-06
0.000111716
0.000191571
3.06773e-07