/*--------------------------------*- C++ -*----------------------------------*\
| =========                 |                                                 |
| \\      /  F ield         | OpenFOAM: The Open Source CFD Toolbox           |
|  \\    /   O peration     | Version:  v2012                                 |
|   \\  /    A nd           | Website:  www.openfoam.com                      |
|    \\/     M anipulation  |                                                 |
\*---------------------------------------------------------------------------*/
FoamFile
{
    version     2.0;
    format      ascii;
    class       surfaceScalarField;
    location    "200";
    object      ddtCorrDdt0(phi);
}
// * * * * * * * * * * * * * * * * * * * * * * * * * * * * * * * * * * * * * //

dimensions      [0 3 -2 0 0 0 0];
oriented        oriented;


internalField   nonuniform List<scalar> 
20362
(
0.000130698
0.000160887
-0.000291587
-4.03632e-05
-7.03986e-06
4.74104e-05
-3.61928e-06
1.9373e-06
1.68434e-06
8.52461e-05
-5.06246e-05
-3.46194e-05
-8.1002e-05
0.000159829
-7.88253e-05
0.000116585
3.95187e-05
-0.000156105
3.40991e-05
-3.25477e-06
-3.08443e-05
1.61077e-05
-1.57314e-05
-3.76187e-07
0.00010725
4.32262e-05
-0.000150474
-3.33803e-05
1.22373e-05
2.11434e-05
0.000160852
-5.36019e-05
-4.41914e-05
1.19794e-06
4.29935e-05
-8.27433e-07
8.95395e-07
-6.79056e-08
5.97557e-05
-1.32122e-05
-4.65389e-05
5.50557e-05
3.0191e-05
-1.88648e-06
1.94127e-06
-5.47853e-08
-1.04077e-05
-0.000184847
0.000195254
1.56042e-05
-2.20363e-06
-1.34038e-05
-0.00013008
0.000137568
-7.48711e-06
0.000257441
0.00034231
-0.000599764
0.000432314
-1.05534e-05
-0.000421769
5.54211e-07
1.3897e-06
-1.9438e-06
4.91963e-06
-5.12127e-06
2.00441e-07
-2.02062e-06
-1.59606e-06
-5.68202e-07
3.90465e-07
1.77614e-07
2.88336e-05
-5.00553e-06
-2.38279e-05
1.34805e-05
-4.88664e-06
-8.5932e-06
2.55644e-05
3.26931e-06
-2.7571e-07
-2.92644e-07
-7.24719e-05
6.9126e-05
3.34582e-06
0.000123484
-9.81302e-05
-2.53417e-05
-5.17691e-05
-5.04264e-05
0.000102195
-6.11628e-05
-7.5168e-05
0.000136332
7.1863e-05
-2.7717e-05
-4.41462e-05
-0.000119006
0.00164018
-0.00152118
-7.50716e-05
6.69382e-05
8.13183e-06
-6.96151e-06
-1.40347e-06
8.365e-06
2.87467e-05
-6.91051e-05
-3.31883e-06
4.77809e-06
-1.45902e-06
-6.62648e-06
-9.2816e-07
7.55669e-06
-0.000176232
0.000182752
-6.51989e-06
-0.00167623
0.00155723
2.07892e-07
-5.22633e-08
3.27237e-06
1.24438e-06
-4.51652e-06
-0.000223553
0.000354251
6.42609e-08
-3.32469e-06
3.26089e-06
-0.00116974
0.0011659
3.84664e-06
-8.32698e-06
1.38025e-05
-5.4757e-06
7.76831e-05
-1.99169e-05
-5.77648e-05
1.02778e-07
3.05664e-07
-4.08577e-07
0.000245862
-0.000355733
1.56621e-05
-2.39891e-05
0.000551796
-0.00122337
0.000671576
5.55628e-06
1.00461e-05
3.48606e-06
4.18236e-07
-3.90216e-06
1.72889e-06
-3.39796e-07
-1.38912e-06
-0.00125921
0.0010357
0.000223507
-0.000707413
-1.20095e-05
1.90553e-05
-7.04579e-06
-8.20294e-07
-2.28503e-06
3.10532e-06
0.000119324
0.00113313
-0.00125245
3.63318e-06
-3.60732e-07
4.65179e-05
-3.68648e-05
-9.64658e-06
-2.26642e-06
2.82083e-06
6.40546e-05
-8.72389e-07
-6.31808e-05
-4.28733e-05
3.85117e-05
4.36151e-06
0.000474067
-4.17535e-05
9.4057e-05
2.39088e-06
-9.64469e-05
7.46475e-07
2.73943e-05
-2.81408e-05
0.000156731
-0.000140176
-1.65548e-05
-0.000318513
-0.000851232
-2.43969e-06
1.85474e-05
3.00417e-06
-2.37182e-06
-6.32666e-07
-1.21496e-06
1.70626e-06
0.000131104
-0.000140156
9.05292e-06
-0.000976899
0.000748517
0.000228382
1.18324e-05
0.000144899
-0.000395667
-5.27105e-07
0.000396198
0.000159204
-2.80944e-05
2.05384e-05
-1.76248e-05
-2.9155e-06
4.04768e-05
-0.000216708
-3.92509e-05
5.83309e-05
-1.90819e-05
-1.38075e-05
-2.09975e-05
3.48057e-05
1.86044e-06
-1.39299e-06
-4.6737e-07
-5.72861e-06
2.40992e-06
-4.42542e-05
7.88065e-06
3.63774e-05
-4.46709e-05
5.28731e-05
-8.20669e-06
-3.17395e-06
1.10391e-06
2.07083e-06
-1.36622e-07
-4.97881e-08
1.86304e-07
0.000285294
-0.000182879
-0.000102413
1.29879e-06
-4.08793e-07
-8.89832e-07
7.98504e-05
3.67672e-06
-3.61226e-06
-9.82517e-07
4.47053e-06
-1.35769e-05
2.74213e-05
-1.38426e-05
5.69194e-05
-0.000118082
-3.05769e-05
4.29263e-05
-1.23505e-05
-3.31926e-05
-1.09989e-05
3.95727e-06
-1.12733e-06
-2.8258e-06
0.000573966
-1.45172e-06
3.96098e-06
-2.50873e-06
2.4486e-07
-3.36252e-05
0.000252767
-0.00100843
0.000755666
1.34092e-06
-9.32948e-07
-4.06535e-07
0.000159443
-0.0010635
0.000904056
0.000201764
-0.000212171
-4.70432e-05
3.32368e-05
-8.93731e-06
5.91214e-06
3.02525e-06
8.38839e-07
-7.46488e-06
-3.50548e-05
4.47638e-06
-7.60444e-05
5.83624e-05
1.76828e-05
-1.01731e-06
1.27369e-08
1.00455e-06
-8.06137e-05
0.000140473
-5.98543e-05
-0.000586578
0.000293649
0.000292925
-0.000519394
-0.000179996
0.000699392
-5.69663e-06
-1.83637e-06
7.53511e-06
-0.000585332
-0.000126291
0.000711625
-0.000186585
0.00017159
1.49959e-05
-0.000814854
0.00106762
3.5324e-06
-1.5951e-06
7.69807e-05
-7.69808e-05
1.7959e-06
1.20819e-06
-1.49058e-06
-1.9019e-06
3.39442e-06
-0.000128108
-1.97249e-06
1.70343e-05
0.000121657
-0.000138681
3.01598e-05
4.27422e-05
-7.29014e-05
2.83222e-06
1.12567e-06
0.000971994
6.37055e-05
-1.02089e-06
3.76257e-09
-0.000159666
2.62139e-06
0.000157041
0.00104265
-0.000923329
-0.000291103
-3.46626e-05
0.000325754
6.41772e-05
-0.000223844
2.67799e-05
5.09018e-05
-5.96149e-05
5.60129e-05
3.60177e-06
-5.64902e-05
0.000167628
-0.000111138
1.2544e-05
5.15145e-05
0.0072185
-0.00471538
-0.00250312
0.00116269
0.00105084
0.00110734
-8.16945e-05
-0.00102565
2.2922e-05
3.25189e-05
-5.54403e-05
-7.38101e-05
1.41888e-05
-6.11981e-07
5.04933e-06
-4.43726e-06
1.13149e-05
-1.17533e-05
4.38623e-07
-4.69386e-05
0.000163522
-1.02116e-05
3.25018e-06
0.000262007
2.32835e-05
2.46739e-06
-3.14453e-06
-1.57785e-06
-1.59534e-06
-2.58754e-06
-2.17741e-06
5.00617e-06
-1.47545e-06
1.67688e-06
-2.02254e-07
3.87334e-05
-7.79856e-05
-5.22931e-07
1.64082e-05
-1.75724e-06
-1.3831e-06
3.14048e-06
-5.05156e-06
4.59909e-06
4.52821e-07
-0.000170409
-0.000680782
0.000851196
-2.61423e-05
1.25666e-05
-1.03852e-07
5.65571e-07
-4.61167e-07
2.6503e-07
-1.62232e-07
-8.54814e-07
2.74405e-08
2.78303e-05
1.86918e-05
-3.77567e-05
-4.63657e-05
8.41656e-05
2.82539e-05
-3.50161e-05
6.76221e-06
-0.00163181
0.00179125
0.00055714
0.000550199
1.60331e-06
3.24958e-05
3.65046e-06
-1.20614e-06
-2.444e-06
-7.07103e-07
1.25363e-07
5.81758e-07
-0.000225852
0.000583358
-0.000357507
1.63977e-06
-3.39663e-06
-0.000635561
0.000465154
-2.89812e-06
-1.12551e-06
4.0222e-06
0.000119856
-0.000182523
6.26623e-05
0.000716348
-0.000557032
-0.000159317
-6.59663e-06
-2.51579e-06
9.1129e-06
8.97998e-05
3.3668e-05
8.86731e-05
6.02474e-05
-0.000148907
-1.45021e-06
-2.52755e-08
-3.46559e-05
-0.000162878
0.000197537
-1.82666e-06
1.28545e-06
5.41171e-07
-5.8774e-05
8.89344e-05
2.94707e-05
1.11082e-05
2.07051e-07
2.32857e-06
-2.94058e-06
1.5714e-06
-1.50043e-06
-7.12491e-08
1.09253e-06
2.55809e-06
-5.01964e-07
5.42203e-06
2.71054e-07
-5.32368e-06
-0.000386862
-0.000199719
0.00123524
-0.00188701
0.00065177
-3.21737e-05
-4.02989e-05
6.08019e-05
8.32415e-06
9.51966e-06
-1.19593e-05
-2.3445e-05
5.16989e-05
-4.24283e-06
-1.4535e-06
1.36092e-05
0.000108212
-0.000121818
0.000916727
1.72896e-06
4.70406e-05
-2.8535e-06
-4.41865e-05
0.00466165
0.00255685
-7.9351e-05
6.92152e-05
1.01364e-05
2.93719e-05
4.24912e-05
1.05135e-06
8.0911e-07
6.42219e-06
-4.61771e-07
-5.96033e-06
-3.70931e-06
3.84843e-07
-5.16252e-05
9.03712e-06
4.25881e-05
1.88582e-06
1.07224e-06
-2.95773e-06
-8.59948e-05
2.95239e-05
5.64698e-05
0.000103339
1.93132e-05
8.10966e-06
-9.56241e-06
-6.97886e-05
9.90017e-06
-6.30697e-06
-3.59327e-06
0.000259619
-0.000139763
8.24081e-05
7.68064e-05
-3.91378e-06
1.89524e-06
-8.88234e-08
3.9485e-07
-3.06066e-07
1.3507e-05
-1.45193e-05
1.01312e-06
0.000163757
0.000126207
-0.000289966
-4.26233e-06
2.37631e-07
4.02469e-06
-3.38084e-06
-8.2476e-06
0.00163651
-0.00115145
-0.000485049
-4.28523e-06
-7.07861e-05
-9.53617e-07
3.54025e-06
-2.58662e-06
-0.000133004
0.000146614
1.8981e-05
7.7396e-07
-1.97638e-05
0.000138401
-8.52886e-06
-0.000129875
0.000464923
-0.000124401
-0.00034052
-3.5293e-06
9.13555e-07
2.61598e-06
3.39299e-05
-4.19847e-06
-2.97319e-05
3.64777e-05
1.05627e-05
0.00011949
-0.000154144
-3.66359e-05
-0.000359036
-6.5214e-07
1.6301e-06
-9.78067e-07
-1.2274e-06
-1.53784e-07
1.38156e-06
-1.97783e-06
1.10425e-05
-9.06364e-06
-0.000186684
9.99083e-08
0.000636133
0.000311253
-0.000947393
-0.000202446
0.000101556
0.000100889
6.87698e-07
6.5277e-07
-5.43219e-06
6.26885e-06
-5.23482e-06
-3.70241e-06
-3.95341e-05
8.63836e-05
0.0020215
-0.000384991
-2.90968e-05
-1.80824e-05
6.07331e-06
-9.31644e-06
-5.77851e-06
1.50948e-05
2.90528e-06
-7.89252e-06
4.9872e-06
-0.000295155
0.000103198
0.000191951
4.63308e-05
-0.000126944
-1.867e-06
0.000136393
0.000328531
-1.46328e-05
6.63174e-06
8.00132e-06
-2.74363e-05
-3.03837e-05
5.78178e-05
-7.47451e-05
-0.000413781
0.000488528
1.7207e-06
-3.21154e-06
0.000247486
-0.000186932
-6.05547e-05
-2.70549e-05
-5.7547e-05
8.46304e-05
-9.64509e-06
-4.98746e-06
0.00144675
-0.000995473
-0.000451267
-1.59755e-05
1.39977e-05
-2.58358e-05
2.29592e-05
2.87793e-06
2.29895e-06
-4.11854e-06
1.81975e-06
0.000545317
-0.000299476
-4.06014e-05
0.000114399
-7.37933e-05
-1.09751e-07
1.70335e-06
-1.59353e-06
-1.39842e-06
1.71529e-07
3.25e-07
-6.40867e-09
-3.18408e-07
-0.000101781
2.84e-05
7.33812e-05
0.000988708
-0.000254343
-0.000734366
1.46e-05
-7.96827e-06
-0.000134149
1.75962e-05
0.000116554
5.83721e-05
-2.90001e-05
4.45608e-05
-1.06335e-05
-0.000219072
0.0013522
0.000107206
-0.000127099
1.98935e-05
0.000171184
-0.000756516
2.5353e-06
1.23113e-06
-3.76649e-06
4.91677e-05
-0.000100937
0.0013244
-0.000767263
-3.88108e-06
1.14784e-05
7.50785e-06
-2.35689e-06
1.54924e-05
-1.31357e-05
-7.04462e-05
0.00010295
-3.25028e-05
-1.69985e-06
-1.86564e-07
-6.11979e-05
5.97531e-05
1.44598e-06
-0.000290888
0.000256745
3.4134e-05
3.83548e-06
-1.28437e-05
-3.00295e-05
5.43693e-05
-1.16265e-05
-1.16733e-05
-1.13697e-05
1.45988e-05
-3.22908e-06
-6.47938e-05
-1.4601e-05
-3.70243e-05
3.09003e-07
-3.26232e-06
2.95296e-06
-0.000491492
-0.00022955
0.000721038
5.79432e-06
-1.24404e-06
-4.55024e-06
0.000305927
-0.0003406
-1.27755e-06
3.58437e-07
9.19155e-07
-0.000360381
0.000296691
6.36655e-05
9.35472e-05
-8.45495e-05
-8.99745e-06
1.28042e-05
-0.00010806
9.52566e-05
2.68301e-06
-1.35904e-06
-1.3239e-06
-0.0010435
0.000356818
0.000686679
1.16829e-05
2.73277e-06
4.65556e-05
-0.000216882
0.000170327
4.3779e-05
0.000138345
-0.000182115
-5.96592e-06
9.45491e-06
-3.48806e-06
-2.99788e-06
7.87753e-06
-4.87765e-06
0.000161342
-0.000377926
0.000216583
-0.000397141
0.000654578
-9.78549e-05
-2.67938e-07
6.74185e-05
4.44547e-06
-4.9309e-06
4.85471e-07
0.000475676
0.000513032
-8.177e-06
6.33956e-07
7.5432e-06
-4.14256e-05
-2.82427e-06
-0.000120847
-8.1598e-05
2.98426e-05
1.08275e-05
-4.06708e-05
-8.51128e-05
0.000391035
7.77451e-05
-0.000569239
-1.40145e-06
-4.25374e-07
-0.000449404
0.00182412
-0.00149833
-0.000325779
8.82153e-06
1.32261e-06
1.36046e-06
0.000174569
0.00114983
-4.69401e-07
8.7916e-07
-4.09571e-07
1.35952e-05
1.91859e-05
-3.27715e-05
-0.00181033
0.000801893
6.09649e-05
-2.55129e-05
-3.54501e-05
1.70648e-06
-6.70034e-07
-1.03766e-06
-9.32402e-07
1.64248e-05
8.00543e-05
-9.77556e-05
1.77018e-05
6.99907e-07
3.02299e-07
-1.00292e-06
8.87924e-07
8.1764e-07
1.05862e-05
8.46921e-06
-3.28455e-05
-1.9887e-05
5.27325e-05
-2.38897e-06
6.36275e-05
-6.12388e-05
-0.000118182
-0.000172705
0.00010338
-9.3222e-06
-4.41215e-05
6.58868e-06
-6.77878e-05
7.81949e-06
-1.37842e-05
-7.34383e-06
2.7884e-05
2.383e-06
-2.38277e-06
-3.20578e-05
-6.97232e-05
-6.02166e-05
-0.000142015
0.000202233
2.20129e-06
-3.83215e-07
-1.81269e-06
-7.51674e-05
1.99722e-05
5.51979e-05
3.29337e-05
5.15546e-06
-0.00011076
0.000105604
0.000137339
-0.000310534
0.000173194
2.49945e-07
-1.23574e-07
-1.26288e-07
-2.43668e-06
-7.50501e-06
7.96749e-06
-4.62453e-07
0.000305979
-0.000259425
3.42116e-06
4.57868e-06
-8.00013e-06
-4.43051e-06
1.69244e-07
6.8181e-07
-6.11375e-06
1.62647e-05
-1.76817e-06
-1.44961e-05
0.00217817
-0.00101548
1.40218e-06
-8.90725e-06
1.31785e-05
5.90087e-06
-1.90787e-05
-0.000119095
-2.17833e-06
-0.00013197
4.86915e-06
-5.37259e-06
3.41149e-05
1.4042e-06
-3.5519e-05
4.04254e-05
-3.86611e-05
-1.76373e-06
0.000500677
-0.000575421
3.48519e-07
5.46985e-07
-9.25975e-05
0.000229937
4.72055e-06
8.7872e-06
-9.76567e-05
-0.000262735
-3.18283e-05
6.59429e-05
-5.04825e-07
4.00989e-07
-9.93148e-05
-4.58896e-05
0.000145205
6.56886e-05
-2.67647e-05
-3.89239e-05
6.78601e-06
-2.44134e-05
3.99133e-06
-4.94493e-06
1.28241e-07
-2.64907e-07
1.50452e-06
-2.63103e-06
7.2991e-05
-1.32135e-05
1.48765e-05
6.08349e-05
-7.57145e-05
8.39564e-05
-0.000124549
-2.00049e-06
0.000159889
-0.000157893
-1.37589e-05
1.03784e-05
-3.54767e-06
-3.63847e-07
3.91151e-06
2.08057e-06
3.37448e-06
-5.4551e-06
4.45142e-06
1.13543e-06
-5.58668e-06
-4.85422e-07
1.18492e-06
1.80867e-06
-3.26017e-06
-4.07956e-06
-1.16519e-05
-1.52333e-06
-2.18105e-07
1.7415e-06
7.99639e-06
-2.69117e-06
-5.30506e-06
-0.000268942
0.000115676
0.000153266
-5.78727e-05
3.4578e-07
-4.86672e-06
-2.25018e-05
2.73672e-05
-2.63868e-07
1.74983e-07
-2.35854e-06
6.81e-06
-1.96703e-06
2.93018e-06
-9.62698e-07
-2.44714e-06
-1.02763e-06
3.47494e-06
-4.84527e-05
4.60637e-05
-3.43867e-06
2.61856e-06
2.50609e-06
2.60521e-06
5.39127e-06
4.38529e-06
-3.20346e-06
-1.18027e-06
2.26478e-05
0.000224838
-0.00239665
0.000794318
0.00160233
-1.28643e-05
-1.32778e-05
3.32192e-06
-1.26518e-06
-2.05669e-06
-0.00045872
0.000373608
0.000341306
-0.000179964
0.000426005
-9.24473e-05
-0.000333557
3.28841e-06
3.88247e-07
-8.51145e-05
-6.16719e-05
0.000146787
0.000465211
0.000803165
7.82757e-05
-4.95288e-05
-2.27424e-05
-0.000546266
0.000569016
-5.09877e-05
-0.000131891
0.00160064
-0.00112497
4.05822e-06
5.84187e-06
-0.000138405
4.68199e-06
0.000133724
-2.15674e-05
2.2014e-06
1.93725e-05
-0.000103709
0.000107003
-3.29391e-06
-1.00864e-05
2.83531e-07
1.88101e-06
-2.16412e-06
2.14946e-06
-4.83908e-07
-1.66879e-06
1.13075e-05
5.23196e-05
0.00017263
9.89511e-05
-0.000145252
4.6308e-05
0.000101092
-9.59365e-05
-5.1396e-05
0.000150336
-2.61849e-07
-3.1045e-06
3.36674e-06
-0.000180956
-3.99727e-05
0.000220928
5.14988e-06
-7.04677e-07
-0.00012801
2.43008e-05
7.59167e-07
9.78904e-06
-1.05482e-05
-1.95727e-05
-0.000118833
1.51618e-06
-5.06391e-06
2.06181e-05
-5.18467e-06
-1.54343e-05
-2.09158e-05
-0.000160039
0.00020721
-0.000191739
-1.54764e-05
0.000794091
1.42089e-05
-4.68923e-06
1.15261e-05
-3.91353e-05
2.76081e-05
-1.1075e-07
4.358e-07
-2.04845e-05
5.89962e-05
-0.000153032
0.000474615
-0.000321586
2.25085e-05
8.44944e-05
-1.9154e-05
-0.00051071
-0.000466187
-2.29483e-05
2.41463e-05
-3.9491e-05
-6.72289e-06
4.62185e-05
-1.47363e-06
-4.96243e-08
-0.000331437
0.00021059
-3.95902e-05
9.47632e-08
1.19229e-06
-1.58179e-06
3.89429e-07
-2.92905e-06
2.40619e-06
7.06924e-06
-1.89717e-05
1.19036e-05
-0.000121018
-2.66688e-05
0.000147686
-9.93673e-06
2.31155e-05
0.00028847
-0.000165369
-0.000123092
0.000444463
-0.000597497
2.85502e-06
-3.11669e-06
-0.000195043
-2.07528e-05
2.86348e-05
1.32576e-06
-1.43544e-06
-0.000115284
0.000132327
3.18698e-05
2.64599e-05
-2.85322e-08
-8.99509e-07
9.27681e-07
-4.94559e-05
5.62386e-05
-6.78299e-06
7.55761e-06
3.82025e-05
-0.000102143
6.39409e-05
6.41278e-06
1.24719e-06
-7.65915e-06
-0.000167341
0.000803475
-0.000327584
0.000229628
9.7931e-05
-0.000185701
0.00093422
-8.40915e-05
2.51544e-05
5.8937e-05
-0.00222593
0.00405999
-0.00183406
1.52053e-05
1.10453e-05
-2.62504e-05
3.23242e-05
-6.75976e-06
1.14564e-05
1.8386e-05
-9.80795e-07
-1.03888e-05
-3.99434e-05
6.24519e-05
4.15808e-08
1.11059e-06
-1.15218e-06
-5.51064e-05
5.65039e-06
8.92618e-05
0.000117218
-7.90152e-05
1.12033e-06
2.20155e-06
-0.000115783
7.11124e-05
0.000476735
-0.00083569
0.000358947
7.29675e-05
-9.59821e-05
2.30143e-05
3.62644e-05
-4.94807e-05
-6.53722e-06
8.34257e-06
-1.80504e-06
-3.92707e-06
7.34831e-06
0.000152589
-6.82984e-05
-8.42918e-05
2.92888e-05
4.72702e-05
-7.65561e-05
1.06677e-06
2.32075e-07
-4.39855e-07
8.16785e-09
4.33025e-07
-0.00514619
0.00409372
0.00105247
0.000628216
-0.00015148
9.79906e-05
-8.5186e-05
-1.11899e-05
-3.32991e-06
-1.50574e-06
-8.31721e-07
2.33741e-06
0.00100152
-0.00122059
5.02554e-06
1.48079e-05
-1.98337e-05
1.35585e-05
-1.90175e-05
5.45914e-06
-1.76163e-06
2.04648e-06
-8.41444e-07
-1.16611e-06
2.00734e-06
-2.90902e-07
1.48326e-06
3.37877e-05
3.19007e-05
2.47775e-05
7.54661e-06
-0.000139544
-0.000114524
0.000254061
-0.000113116
-0.000182038
-4.39458e-06
5.07387e-06
-1.04161e-05
3.87736e-06
2.88963e-06
-7.77578e-06
1.55813e-06
-4.17504e-05
-4.42465e-05
1.47948e-05
-2.05956e-05
5.80767e-06
0.000411896
0.00118874
-3.88511e-05
6.1773e-05
8.99319e-05
-9.87601e-06
6.0005e-05
-0.000180466
0.000120461
1.18696e-05
4.10024e-05
5.97156e-06
-1.03765e-05
4.40503e-06
-0.000282905
-4.46719e-05
-5.74687e-05
-1.85766e-05
2.84439e-05
-1.62063e-05
4.33798e-05
-0.000562774
-8.00963e-07
-1.25099e-06
2.05181e-06
0.000190914
-4.38307e-05
-0.000147082
-0.000256062
0.000293996
-3.79372e-05
-0.000593965
0.000364145
0.000229821
-0.000608693
0.000917315
-0.000308627
-1.99348e-05
-3.50054e-06
2.05301e-07
3.29482e-06
-1.34333e-05
-4.81703e-06
1.82492e-05
-4.54545e-07
1.46232e-08
-7.15074e-05
-4.59149e-06
1.35663e-07
4.45529e-06
-0.000159058
-8.17163e-05
-1.612e-05
3.09127e-05
1.32827e-05
-6.21286e-06
-2.51636e-06
6.25801e-07
1.89098e-06
0.00224108
-0.00295298
0.000711894
-1.30644e-06
1.35427e-06
-4.77885e-08
-2.80293e-06
1.62038e-06
1.18282e-06
-0.00428752
-0.000858673
1.38694e-05
-4.56977e-05
7.51804e-07
-1.59334e-06
0.000178298
-0.000273818
9.55269e-05
5.93951e-07
9.7745e-07
-5.66705e-05
3.94313e-05
1.72376e-05
-1.03732e-05
0.000217613
0.000164493
0.000123968
-0.000947857
-0.00251988
3.33932e-05
-0.000289455
2.78032e-05
-0.000148821
-1.74195e-06
-1.96717e-06
-0.000249654
0.000246576
3.07771e-06
-0.000195361
0.00243644
-9.23816e-05
8.29013e-06
-2.87249e-07
5.15739e-06
-0.000133637
0.000127725
5.91624e-06
4.73092e-05
-5.00641e-05
2.75516e-06
0.000261264
-0.000310675
4.94118e-05
4.51152e-06
1.11263e-05
2.43221e-06
-5.41341e-05
-1.66876e-05
7.0823e-05
1.45848e-06
-1.79829e-06
2.23535e-05
0.000219469
-4.11708e-05
7.56551e-06
3.63902e-06
-1.12046e-05
1.86531e-05
0.000247994
-0.000477542
8.63086e-05
1.43672e-05
-0.000100681
8.10788e-05
-8.08987e-05
-1.80461e-07
6.72896e-05
-5.34203e-05
-1.93011e-06
-7.15294e-08
2.00166e-06
0.00180463
-0.000612151
-0.00119248
-3.74954e-07
2.02611e-06
-1.65099e-06
-2.0901e-05
0.00186779
3.89711e-06
8.40376e-05
0.000221941
2.42236e-06
3.80033e-05
5.62271e-06
5.27398e-05
2.33931e-05
3.54611e-07
-3.03785e-06
2.68312e-06
6.34951e-05
-2.51018e-05
-3.83936e-05
-5.45346e-06
1.0597e-06
-0.000116662
2.48304e-06
-2.84683e-06
3.63626e-07
0.000151676
-0.000211892
0.000160932
8.76822e-05
-0.000248619
3.77551e-05
2.06171e-05
6.30357e-07
-1.03912e-06
5.35347e-07
4.56426e-06
3.00397e-06
-7.56806e-06
3.04769e-07
-1.69778e-06
2.93906e-05
-3.05895e-05
1.19761e-06
0.000137086
-0.000119489
-0.000898561
0.00164727
-0.000748715
-2.8837e-06
2.14908e-06
7.34797e-07
-0.00215001
0.00155287
0.000597138
0.00057211
-0.000528729
-4.95618e-05
-7.75371e-05
-9.38696e-06
1.87439e-05
-9.3568e-06
0.00136847
-0.0011939
3.02191e-06
1.76052e-05
-1.57354e-06
1.82362e-06
-2.5961e-06
1.6029e-06
9.93026e-07
2.78513e-06
3.21499e-06
-5.99979e-06
-0.000198624
-7.03164e-05
-2.8374e-06
4.91789e-06
7.98868e-07
-3.64375e-07
-4.34538e-07
-0.000583659
-1.03095e-05
0.00016865
-8.39185e-05
-8.4729e-05
2.64056e-05
-0.000160038
-0.000121358
1.32982e-05
9.839e-07
1.43203e-06
-2.41559e-06
-8.82419e-06
5.82533e-06
-1.25825e-05
4.51017e-05
4.53857e-06
-1.75345e-06
2.00566e-06
3.773e-07
-2.05558e-05
-3.61143e-05
0.000331309
4.33684e-05
-0.000374679
-1.52966e-05
-8.9173e-05
0.000104466
2.98671e-06
-7.38252e-07
-2.24833e-06
-2.60885e-05
-4.78633e-05
7.39517e-05
2.12448e-05
-2.21099e-05
8.64594e-07
-2.04358e-06
5.37704e-07
-1.21887e-06
6.20209e-05
2.01607e-05
4.08027e-05
-1.96712e-06
-0.00168542
-0.000464587
-3.5016e-06
1.21656e-06
-7.04748e-05
4.27575e-05
-2.51758e-05
2.87934e-05
-3.61696e-06
-0.000101248
0.000204445
0.000118061
-0.000120062
-3.26307e-06
-1.29109e-05
0.000487525
4.88943e-05
-2.64608e-06
0.000152263
-0.000146479
-5.78491e-06
-2.4999e-05
1.42494e-05
1.07496e-05
2.03901e-05
-0.000105505
3.98729e-06
-2.18891e-06
-1.7981e-06
0.00078062
-0.00167918
-1.3786e-05
-7.19144e-05
8.57043e-05
4.7299e-07
-5.94445e-07
1.21516e-07
3.65635e-06
-1.2284e-06
-2.42748e-06
0.000317692
-0.000233656
1.63711e-06
2.35042e-06
-2.1954e-07
-1.08689e-06
5.33253e-06
0.00062882
0.0011758
-0.00146731
-0.000929342
-0.000986432
-0.000823896
-7.5535e-06
1.74924e-06
5.80434e-06
-1.9122e-06
-0.000144164
0.000146078
-0.000672072
0.000558072
0.000113993
-0.00037842
-2.35388e-06
-2.41636e-06
4.77029e-06
4.0877e-05
6.1061e-06
-4.69809e-05
0.000297444
-0.000310356
-0.000159731
0.000186139
4.40675e-05
-0.000590334
1.2087e-05
-2.98949e-05
3.70668e-05
-7.17456e-06
-0.00162723
0.00126669
0.000360535
-8.16663e-07
7.88071e-07
6.80473e-07
2.30624e-06
-0.000130034
0.000293791
-1.20684e-05
1.65035e-06
8.76091e-05
-0.000101395
-0.000508311
0.00206144
-0.00155312
0.000643008
0.000803741
-2.58579e-06
1.28689e-06
1.299e-06
-0.000111775
7.92611e-05
3.25131e-05
3.27055e-07
3.3295e-06
-3.75466e-07
3.37768e-06
-3.00202e-06
9.15997e-05
5.42019e-05
4.16689e-05
-9.58711e-05
-1.92184e-06
1.09613e-06
8.25854e-07
-1.23286e-05
2.60658e-07
1.09937e-07
9.77843e-08
6.26457e-07
1.31478e-06
-1.88665e-06
3.69576e-06
-2.37149e-08
2.50713e-06
4.95294e-07
-2.46193e-06
1.52446e-05
9.03664e-05
-0.000105599
-6.53186e-05
-4.64565e-05
-1.93234e-05
0.000788278
0.00103584
3.59218e-07
-2.05315e-06
1.69297e-06
9.38783e-07
-1.05531e-06
1.16565e-07
-5.89415e-05
0.000210584
-0.000151645
4.88495e-06
-1.97966e-06
7.83959e-05
5.35511e-05
-0.000131947
-1.58473e-05
1.11875e-05
4.66005e-06
1.03863e-05
1.90039e-05
-3.09835e-06
1.95991e-07
2.90247e-06
0.000103483
1.00255e-06
-9.02442e-07
-1.00256e-07
-0.000113415
9.81153e-05
4.67961e-05
-5.35212e-05
-4.07285e-05
-1.65985e-05
5.73261e-05
-5.42884e-06
5.20376e-06
2.24714e-07
6.87476e-06
-6.10205e-06
-7.72798e-07
2.0275e-06
-1.67028e-06
3.7464e-07
-4.8051e-06
4.43048e-06
-0.000307496
0.000555484
0.000127052
0.000456306
-2.72384e-06
-0.000100036
7.01101e-05
4.42838e-05
-0.000294624
1.17097e-05
1.41114e-05
3.64875e-05
-5.06009e-05
-1.48156e-07
8.22993e-08
6.58302e-08
-8.11481e-05
4.02834e-05
4.08646e-05
3.57283e-06
1.08719e-06
-1.04557e-06
4.46231e-06
2.51023e-06
-6.24175e-07
-4.4767e-05
-3.63811e-05
4.09568e-05
-3.92135e-05
-1.74296e-06
-0.000100587
0.000115462
-1.34115e-05
-1.15876e-05
0.000281936
0.000144063
-0.000227008
-0.00664228
0.0019269
-0.000984216
7.93563e-05
-6.00427e-06
1.41246e-06
-1.86743e-06
5.48532e-08
1.81539e-06
-3.46967e-06
1.69816e-07
3.2998e-06
6.12618e-05
0.000740629
-0.000148241
4.60975e-05
7.24173e-05
-0.000232147
6.82572e-05
-2.03462e-06
-3.08718e-06
1.52814e-06
1.62801e-07
-1.69144e-06
-0.000106266
0.000131651
-2.53784e-05
-2.36638e-06
-3.73402e-06
1.89395e-05
-1.77413e-06
3.14521e-06
-1.37103e-06
-2.57436e-06
-5.59046e-05
7.00155e-05
-4.67054e-05
1.92718e-05
9.44764e-08
-2.46577e-06
-0.000165131
0.0015336
-2.05429e-05
2.0866e-05
-3.22835e-07
-1.02512e-06
-1.57079e-06
8.17605e-06
1.29695e-05
-2.11467e-05
-0.000596883
0.000183103
-3.33983e-06
1.11574e-06
2.22378e-06
0.000119259
0.000215878
-0.000335139
-8.42556e-05
7.09861e-05
1.32113e-05
0.000103114
-1.58959e-05
-8.7217e-05
-3.94517e-07
2.69358e-06
-0.000114508
1.02813e-05
0.000104227
-5.98064e-06
4.68581e-05
-1.18549e-06
9.65538e-07
1.20645e-05
-1.50618e-05
2.9972e-06
-0.00014361
0.000141698
-4.24776e-05
-0.000774424
-2.47504e-07
9.92149e-08
0.000163574
-4.41084e-05
-0.000119465
3.5064e-05
-1.58728e-05
-1.73399e-06
-2.26485e-06
2.75497e-06
0.000831561
-0.00133987
-2.59848e-06
6.82433e-07
1.91587e-06
8.62949e-05
-0.000219299
0.00065433
1.72272e-07
-1.10513e-06
-2.91288e-07
7.80669e-07
-4.89834e-07
1.96183e-06
-3.73592e-06
-9.85827e-05
-9.31393e-05
7.99272e-10
-7.0785e-07
2.90633e-05
0.000820609
-0.000849664
-0.000242136
8.96956e-05
3.76511e-05
-0.000127344
0.000779242
0.00139893
9.6637e-05
-2.36694e-05
-9.46317e-05
4.04986e-05
-8.93998e-05
-5.88404e-05
-3.11494e-06
-5.09259e-08
-1.81594e-06
-0.000237983
0.000196083
4.19021e-05
-1.15e-07
-1.16252e-06
1.81711e-06
-8.63664e-05
-0.000144298
0.000204304
6.53085e-05
-0.000204853
-1.79068e-07
4.8468e-07
-3.21913e-06
-2.61221e-06
5.83283e-06
2.66344e-07
1.41862e-06
-1.68505e-06
-1.06688e-05
2.64875e-05
-1.58292e-05
-6.61621e-05
1.57355e-05
-5.5786e-05
0.000204266
-0.000148485
-1.90931e-05
0.000201845
0.000374134
-1.88831e-05
0.000212177
-0.00019329
-4.27166e-05
0.000385035
-5.17444e-05
-3.25147e-05
-0.000354205
0.000313085
4.11204e-05
-2.35945e-05
-3.3405e-05
1.37744e-05
1.96306e-05
-3.27967e-05
0.000193725
3.22795e-06
4.36913e-07
-3.66474e-06
2.46563e-05
0.000138919
-5.59992e-06
-3.94412e-06
9.54398e-06
0.00119661
-0.0012617
6.50801e-05
1.61985e-06
-8.72988e-06
7.11023e-06
-1.78291e-05
5.73022e-05
-3.94727e-05
-4.53404e-06
5.37673e-06
-8.42357e-07
1.83043e-06
-0.000124526
6.81841e-05
5.63403e-05
-2.18911e-05
-0.000232126
0.000254019
-9.77931e-07
-4.73382e-07
1.45098e-06
3.09e-06
-2.45735e-06
-6.32546e-07
-6.53445e-06
6.72194e-05
-6.06842e-05
-0.000395943
4.17377e-05
1.84337e-06
-8.47701e-07
-9.95653e-07
-1.61314e-07
-1.33881e-06
7.50006e-05
-5.7848e-06
-3.15555e-06
-1.6495e-06
0.000238926
-7.80403e-05
3.1838e-05
-0.000146346
6.25566e-07
-3.68396e-07
-2.5727e-07
-8.69185e-05
9.19393e-05
-5.02094e-06
1.18043e-06
-5.2259e-07
-6.57707e-07
0.000210538
-0.000124244
1.58908e-06
-1.32355e-06
-5.9975e-07
6.545e-07
-5.44631e-08
0.000362584
0.000138094
0.00161479
-2.07901e-06
-3.88111e-06
0.00010183
-6.23119e-05
0.000477977
-0.000140735
-0.000337242
-3.9948e-05
1.23089e-05
2.7637e-05
-5.55256e-05
7.07293e-06
-1.9144e-08
1.54715e-06
-9.12463e-05
0.000146378
-5.51307e-05
-3.72894e-05
0.000123598
-2.6288e-05
1.34243e-05
0.000156383
2.19349e-05
-0.00017832
-5.77499e-05
6.43364e-05
-1.06435e-06
-6.33947e-08
1.12776e-06
0.000466817
-4.51397e-05
-0.000421678
-0.000164176
0.000348537
-0.000184358
-5.09761e-07
-8.97073e-08
-2.37303e-06
-2.04265e-07
2.57727e-06
-1.095e-05
2.19708e-06
-0.000134359
0.00113588
-3.81242e-05
5.92897e-05
-2.11658e-05
-5.51423e-06
-0.000164978
0.000170493
4.62534e-06
-2.16166e-05
1.67504e-05
1.71703e-05
1.22999e-05
-1.72391e-05
1.20486e-05
-7.62731e-07
-1.75354e-06
-9.66249e-07
-1.08805e-05
2.95324e-05
0.000266658
6.46478e-05
1.46438e-07
-9.09223e-07
7.63132e-07
4.86924e-06
0.000139314
-0.000114863
-2.44415e-05
0.000124055
-9.94151e-05
-2.46431e-05
6.29801e-05
-5.25866e-05
-1.03936e-05
1.38644e-06
-4.47571e-07
3.80872e-06
-1.54749e-06
1.52835e-06
-6.21933e-05
8.58278e-05
-2.36326e-05
-1.25375e-06
1.07842e-06
1.75444e-07
-9.62715e-07
-1.081e-06
5.21897e-05
3.29283e-06
1.4756e-05
-1.80493e-05
-6.71446e-05
4.27317e-05
-1.77473e-06
-2.78692e-06
4.5627e-06
0.000197457
7.13055e-06
-0.000204587
0.00362462
0.00106308
-0.0046877
3.78566e-06
-2.5536e-06
4.56627e-07
-9.26114e-07
6.9598e-06
7.66766e-06
-1.46268e-05
0.0019927
-0.00158081
-1.21816e-06
5.32084e-06
-1.87553e-05
-3.68698e-05
-0.000110929
-0.000373229
0.000484158
-1.35944e-05
-3.05481e-05
4.41428e-05
7.40189e-05
-7.90163e-06
1.99656e-05
0.00167805
0.00046147
-0.00213952
0.00034634
-4.96812e-05
-1.49713e-06
-2.62138e-06
-1.24823e-06
2.70188e-07
6.90486e-05
7.97867e-05
-0.000148837
-1.73415e-06
0.000108348
0.000463765
1.16557e-06
1.76478e-06
-2.659e-06
9.62032e-06
7.54684e-05
-4.61733e-05
-9.28822e-06
7.88493e-06
-6.48682e-05
9.41975e-05
-2.93291e-05
-3.47136e-06
0.00141376
-0.00157889
-4.65663e-06
8.19779e-07
3.83646e-06
-7.74365e-07
2.57034e-06
-6.58731e-07
1.34348e-06
-6.8487e-07
-7.53507e-05
-1.23082e-05
7.17369e-05
-5.94281e-05
2.21407e-05
9.08305e-06
-3.12238e-05
-0.000164498
8.1927e-05
8.25685e-05
-4.96513e-06
-1.08822e-05
-8.6519e-06
5.99228e-06
8.0709e-05
-7.70923e-05
-3.61874e-06
0.00115366
-0.00163833
0.000484665
0.00239108
-0.000686281
-0.0017048
-3.67595e-07
5.50451e-07
-1.82748e-07
0.000525399
-1.04391e-05
-2.29658e-05
-1.45833e-06
-4.63252e-07
-4.20331e-06
2.1245e-06
-0.000177072
0.00015819
-5.1682e-05
3.38531e-05
-1.07722e-06
2.52555e-06
-1.44824e-06
0.000354439
-0.000235182
1.21632e-06
6.27e-07
-0.000246651
0.00201184
-0.00176516
-1.35302e-07
1.72366e-06
-0.00116355
0.00119263
0.000156394
-8.73412e-05
-0.000128536
-1.45356e-06
-1.04449e-06
2.49633e-06
2.22411e-06
2.51701e-05
3.46527e-05
6.30414e-06
1.88089e-06
-1.82523e-06
2.58942e-05
-0.000103447
0.000191127
5.37975e-06
-4.29624e-06
-1.08351e-06
0.000132442
-0.000296628
-9.89957e-05
3.87287e-05
6.02683e-05
6.5787e-06
3.79823e-05
0.000433797
-2.77064e-06
3.28132e-07
2.43913e-06
-0.000838987
-0.000324557
2.36556e-05
-2.69102e-05
1.73819e-06
4.6349e-07
-4.04425e-05
-0.000391165
0.000280237
-0.000200084
-4.9939e-06
0.000131178
-4.14809e-05
8.09584e-06
-5.66999e-05
7.84786e-06
4.88521e-05
0.00117593
-0.00267426
0.00220566
-0.00142642
-0.000146227
0.000107394
3.88366e-05
5.5065e-06
2.37135e-06
0.000402962
0.00112583
-0.0015288
3.31413e-05
6.28975e-06
-0.000340026
0.000283818
5.62094e-05
2.66291e-05
2.14954e-06
6.4285e-05
-8.09722e-05
-6.33843e-05
-3.56126e-05
-5.45179e-05
0.000106514
-5.1996e-05
0.000387494
7.9322e-05
-3.12238e-06
3.46227e-08
3.08816e-06
-0.00163886
0.00243318
1.52101e-06
-2.862e-06
1.34264e-06
-9.20783e-05
8.99001e-05
-0.000240911
-0.000126555
0.000367464
-7.13436e-05
5.90358e-05
9.1647e-06
-9.87209e-05
8.95567e-05
2.75061e-05
-8.62806e-05
-0.000125404
7.5843e-05
-9.5261e-05
0.000275731
-0.000180468
7.28321e-05
-0.000156749
2.7248e-05
9.21055e-05
-0.000119353
0.000715781
-0.00177522
0.00105943
-1.05467e-06
1.22597e-06
-7.49144e-05
-1.31074e-05
8.80218e-05
-7.09286e-06
-1.01479e-05
5.49305e-06
-5.69965e-06
2.07435e-07
-2.99919e-05
-6.8252e-07
2.41231e-07
4.41367e-07
1.21889e-05
-1.34015e-05
1.21251e-06
-2.07311e-06
-8.10584e-07
-6.60016e-09
1.09781e-06
-1.0913e-06
-4.43166e-06
9.48044e-05
-0.000387857
0.00180162
-3.14381e-07
-4.1184e-05
1.59863e-05
2.51976e-05
-0.000416205
0.000121561
7.362e-06
7.37171e-05
-7.62614e-06
-1.44409e-06
9.07056e-06
-0.000110291