/*--------------------------------*- C++ -*----------------------------------*\
| =========                 |                                                 |
| \\      /  F ield         | OpenFOAM: The Open Source CFD Toolbox           |
|  \\    /   O peration     | Version:  v2012                                 |
|   \\  /    A nd           | Website:  www.openfoam.com                      |
|    \\/     M anipulation  |                                                 |
\*---------------------------------------------------------------------------*/
FoamFile
{
    version     2.0;
    format      ascii;
    class       volScalarField;
    location    "400";
    object      ddt0(epsilon);
}
// * * * * * * * * * * * * * * * * * * * * * * * * * * * * * * * * * * * * * //

dimensions      [0 2 -4 0 0 0 0];


internalField   nonuniform List<scalar> 
13726
(
1.1401e-11
5.02853e-07
-8.02302e-11
-9.34114e-12
-4.89349e-08
1.67708e-11
9.92661e-12
-9.07682e-12
-5.05839e-08
-3.01853e-10
-4.55638e-08
-5.8596e-12
-1.46771e-12
-1.66011e-06
-2.17425e-11
-9.40478e-12
4.02588e-08
1.85563e-11
-1.92886e-05
-2.15077e-06
-4.20738e-05
-4.94717e-13
6.35586e-11
-7.03711e-11
3.87922e-13
5.19102e-12
9.6359e-11
4.89669e-12
6.07755e-13
-9.29905e-07
-3.82783e-05
1.90981e-11
-8.01094e-06
-2.06255e-10
3.08817e-07
2.05636e-06
2.69851e-11
7.22357e-08
-2.577e-11
-7.43576e-12
1.00896e-06
3.36617e-07
-1.94543e-12
-2.40384e-12
1.94864e-10
2.39862e-11
-2.85499e-06
-6.62198e-12
-4.6137e-10
-3.16694e-13
-1.19266e-05
-6.89776e-12
-3.67836e-09
4.73113e-11
1.16558e-10
3.70832e-11
-2.32679e-09
-5.63827e-09
-2.11644e-10
4.03843e-11
1.89483e-06
-3.6004e-11
-3.66189e-06
-3.15228e-13
1.58019e-06
1.49332e-11
-5.00776e-05
-1.09342e-05
-1.07299e-11
-3.65157e-08
-2.75183e-06
-4.83199e-12
5.33998e-13
1.1278e-10
-1.84365e-05
1.38935e-06
-5.99315e-08
1.37065e-05
-1.62709e-05
-6.82101e-09
-5.12037e-07
-2.78909e-10
2.22739e-09
-3.19676e-12
-4.30982e-11
-2.333e-06
-2.565e-08
1.66758e-10
3.74461e-13
1.81799e-05
-1.62252e-11
-4.62065e-08
1.50827e-10
1.09933e-10
1.21594e-06
-6.58872e-06
1.75364e-09
-7.25131e-12
-5.12364e-11
9.52046e-08
-1.10331e-10
-1.59261e-10
2.28299e-09
-4.60193e-12
-8.53447e-08
3.87726e-08
4.04663e-09
-1.97011e-12
-1.14747e-11
1.35821e-09
4.07769e-10
-3.10399e-12
-2.58713e-05
7.42593e-06
3.95767e-06
2.02935e-11
3.3589e-06
1.52105e-05
-1.2857e-09
-7.0206e-11
-4.29363e-08
1.54527e-12
-3.29013e-11
-1.83908e-05
-3.30376e-05
-5.38592e-07
3.19574e-11
-4.15337e-09
1.43143e-13
4.67977e-12
7.65452e-07
1.73014e-05
-6.23179e-12
-3.70547e-10
7.49489e-06
-2.21262e-08
1.12075e-06
-8.9801e-08
-9.6724e-07
-1.31033e-06
9.17585e-10
1.05846e-05
-1.30016e-11
-4.5103e-12
2.29425e-11
9.1247e-11
1.83104e-05
1.0002e-10
1.52108e-10
-1.7615e-05
-1.04271e-11
-6.95989e-12
-2.85004e-10
1.00233e-10
-6.98586e-12
2.55025e-10
1.07337e-10
-2.44341e-06
1.06553e-06
-3.0185e-13
1.83013e-13
-2.32123e-12
-3.52267e-06
-5.42553e-07
6.99172e-12
-1.30645e-07
-2.01838e-06
9.70618e-12
-1.11969e-10
-1.02245e-12
3.94271e-09
1.47577e-10
-4.50176e-06
1.2644e-10
5.43664e-08
6.4187e-07
-2.24139e-12
-3.04537e-05
-3.63547e-05
-6.65774e-12
-1.75808e-05
-4.2528e-11
-1.15645e-06
7.58796e-07
-3.81983e-12
-3.21293e-12
-1.01638e-12
-1.41099e-10
5.83558e-11
-6.9587e-11
6.96886e-06
-1.33312e-06
-9.06766e-07
-4.63914e-07
2.0287e-11
8.88917e-12
8.79e-13
8.31093e-05
-1.65658e-06
5.34884e-11
-1.36634e-06
-1.19572e-07
6.49654e-07
-2.17808e-10
-4.75661e-12
2.79348e-12
4.59539e-11
1.19729e-07
7.56498e-11
5.25884e-11
-3.81393e-08
1.33006e-06
7.37269e-07
-2.30313e-13
1.07108e-06
-1.6263e-05
-7.00915e-11
9.17365e-14
-7.97298e-11
1.77803e-06
-1.51222e-10
-3.28369e-10
-1.18656e-06
2.17548e-06
-1.57399e-11
7.04342e-05
-4.46955e-06
-7.95519e-06
1.38564e-05
-1.42893e-10
1.63909e-06
-2.30643e-06
-1.40776e-05
9.5544e-06
-1.57472e-10
5.39701e-11
1.27665e-06
2.25897e-05
2.74503e-06
9.02436e-06
1.13508e-11
-3.02333e-11
5.25735e-12
-1.07205e-05
-1.79319e-06
2.02462e-05
-1.92044e-10
4.64978e-10
-2.27016e-12
-1.75656e-08
-2.44746e-05
-9.12816e-12
1.31365e-05
2.401e-10
-8.45294e-10
5.40573e-07
-1.87064e-11
-1.27854e-05
1.39982e-07
1.94685e-10
5.56184e-07
1.13123e-06
-8.09173e-10
-1.61542e-12
-8.80162e-06
-3.70633e-05
2.1258e-12
3.62598e-11
-5.50447e-13
4.31723e-09
1.02487e-06
3.15502e-10
-2.62562e-06
-2.29248e-10
1.79296e-06
4.45852e-06
-1.85913e-05
6.63778e-06
5.71897e-11
2.84725e-11
-1.72146e-06
1.49984e-10
1.59479e-06
6.24012e-10
-8.40672e-06
-1.06082e-11
-1.57908e-06
-3.88885e-05
1.21439e-10
1.24691e-11
-1.25293e-07
4.82217e-10
1.20214e-12
-3.52753e-07
1.38456e-07
-1.47263e-11
1.53898e-07
-3.55345e-11
9.68663e-06
-1.0605e-12
2.15456e-05
2.03504e-06
1.74814e-09
2.96762e-11
-2.17844e-09
2.23597e-06
-3.7042e-05
-2.262e-05
5.99523e-07
7.03622e-12
-3.93169e-06
-1.75191e-06
-3.66263e-05
-1.72676e-06
-5.16173e-12
7.7526e-07
-7.97029e-12
-2.9803e-06
1.0516e-05
4.13457e-07
-1.52249e-06
2.05186e-07
-4.30262e-11
8.91891e-10
2.57773e-08
3.44555e-10
3.86575e-11
-1.97514e-06
-6.06542e-12
-3.42384e-06
7.09269e-09
1.03174e-06
-1.01066e-11
6.38318e-10
-4.02049e-09
-2.38913e-11
-9.16048e-12
-1.76448e-10
8.49181e-13
-1.76931e-09
-6.55395e-05
-9.73959e-06
-8.15414e-06
-1.55672e-06
1.35779e-06
-3.73925e-09
1.72755e-11
3.42457e-09
-5.17272e-07
-7.55716e-12
2.76498e-06
-9.65324e-06
-1.56759e-05
3.80962e-11
1.67405e-10
-5.779e-11
9.3066e-12
-2.99332e-05
-6.68581e-11
-1.59396e-10
-3.7699e-11
-3.22874e-10
-1.22091e-06
-3.81361e-12
-6.10756e-10
-1.87351e-05
3.2676e-06
2.56946e-11
1.10937e-11
1.60955e-11
2.90719e-07
-9.37238e-13
4.08129e-11
-9.85134e-11
1.52523e-05
8.01441e-12
-8.27121e-13
6.44291e-05
2.7498e-09
-1.25155e-08
-1.01935e-11
7.54146e-12
-9.10515e-11
-1.28615e-06
4.96589e-05
-3.85675e-05
4.23767e-06
-3.5673e-10
-8.41275e-12
1.08371e-11
2.32011e-11
8.81173e-12
-3.16001e-11
-8.1862e-12
2.28741e-12
8.63154e-11
3.09491e-07
3.24804e-07
-4.67757e-10
-3.30346e-12
1.74102e-11
-2.36974e-12
1.15793e-10
-1.03005e-09
1.06666e-10
-3.77012e-10
1.13849e-10
-6.50686e-11
-1.5991e-05
-4.53853e-06
9.23078e-07
1.13887e-10
-1.17399e-05
-1.16546e-05
1.20464e-06
2.39651e-10
1.0912e-05
7.71556e-07
-5.22452e-07
-1.03901e-05
1.80508e-05
6.03666e-07
-8.19472e-13
1.63596e-09
1.24397e-07
4.44688e-11
-6.62965e-07
-4.71322e-11
-2.01771e-12
-2.47131e-09
-3.89198e-05
-3.30786e-05
-1.38754e-05
-3.15317e-05
-1.60268e-10
5.77443e-11
-2.15848e-12
3.35996e-11
2.28486e-11
3.93035e-09
8.27948e-12
1.32085e-06
4.648e-11
4.20415e-05
4.34392e-07
1.73823e-11
9.6188e-07
-1.67242e-12
1.28002e-11
-6.29685e-07
3.77801e-11
3.87566e-06
3.10819e-06
-3.94923e-12
1.67152e-06
1.56219e-12
1.04404e-05
1.70912e-06
3.62834e-12
1.23522e-10
-1.69161e-10
4.64627e-07
-5.18244e-10
-1.56608e-06
-1.5516e-06
-2.23468e-10
1.32905e-05
-1.77421e-06
-1.93108e-12
-3.4177e-05
-2.96775e-10
-3.67097e-12
6.35382e-13
2.4388e-11
-1.66636e-05
-2.0843e-12
2.9791e-06
-7.81969e-06
-3.75389e-07
-2.30189e-10
2.85769e-07
-1.02383e-11
7.74381e-12
2.73305e-07
4.19986e-13
3.07604e-11
-3.80459e-12
4.71464e-12
1.97772e-06
-1.76718e-05
1.38124e-10
-2.9316e-08
2.46721e-09
1.30749e-06
-1.88662e-06
2.36516e-10
-1.2912e-10
3.10882e-06
-2.35106e-06
2.3698e-12
-1.34651e-12
-1.61132e-07
1.86742e-09
2.15459e-09
-5.04846e-11
1.00484e-12
5.45362e-06
8.60556e-07
-2.44916e-12
-5.6967e-11
-2.01688e-10
-3.36718e-06
6.65042e-12
3.44534e-09
7.04509e-12
-3.98866e-05
-2.45104e-08
-6.84586e-11
1.95012e-10
8.19553e-11
-6.7555e-11
5.20538e-11
-1.45544e-08
-7.68418e-07
2.24292e-09
-7.31376e-09
-1.47533e-05
-1.61883e-08
-1.84027e-12
-2.17331e-05
4.17129e-10
-2.4817e-10
3.47425e-06
-2.02122e-11
4.83043e-05
-9.51381e-12
1.61091e-10
-1.31332e-06
-7.9886e-10
-1.1049e-10
3.39938e-07
-6.39701e-13
-9.66046e-10
1.66302e-10
-2.59924e-09
-5.62322e-07
-1.57812e-10
5.77944e-12
-7.14488e-07
-3.22662e-11
-1.29189e-11
-5.05003e-08
8.45501e-12
-1.45704e-05
-2.22096e-10
5.36855e-11
-3.42647e-12
-3.87563e-06
3.94326e-05
-2.30232e-06
4.0255e-07
1.31469e-11
2.86059e-07
1.55986e-10
-2.65724e-05
-5.24006e-07
-3.79917e-10
-1.42321e-11
3.15311e-06
-1.84313e-10
8.89639e-06
-3.13797e-12
-9.42935e-15
1.65877e-05
5.82801e-12
6.82865e-07
5.94886e-11
6.37717e-12
-1.53357e-08
7.11559e-08
-4.23099e-06
-1.51312e-06
8.30927e-12
1.48262e-11
1.90719e-06
3.3862e-11
-1.96258e-05
1.61531e-07
-2.05438e-12
-2.49602e-06
1.63536e-12
4.30799e-11
-1.4462e-12
8.3259e-11
2.31556e-07
-5.89337e-11
3.54607e-06
7.69091e-11
-1.57604e-06
8.51377e-06
-2.58039e-10
3.42331e-11
-4.53359e-12
4.01435e-11
-2.73093e-12
5.20197e-07
-1.67973e-06
4.69706e-06
1.17858e-10
-8.98386e-07
2.52343e-08
-1.90347e-05
-3.21324e-10
-1.44115e-06
8.49451e-07
1.91145e-10
-1.05802e-10
-4.87925e-12
2.61867e-07
-7.44176e-11
2.42481e-12
2.18238e-10
2.59077e-05
2.85423e-06
6.32099e-09
3.08315e-12
-4.50435e-11
-9.4648e-11
-5.26205e-12
1.45907e-11
-4.16446e-06
1.43463e-10
-1.33311e-05
-2.95076e-11
-1.21477e-06
-5.9356e-10
-1.41594e-11
-4.34972e-07
2.55234e-07
-1.2113e-10
-3.34181e-06
1.13256e-11
-1.95523e-10
4.81655e-07
-9.30161e-09
5.25149e-06
-1.73375e-10
-1.78417e-08
2.03465e-07
-1.54699e-11
-5.14761e-08
-3.26573e-10
5.67129e-06
1.87135e-12
7.84434e-06
-1.15648e-11
2.34619e-11
2.35789e-11
1.80438e-06
1.35332e-12
-1.15874e-11
-3.2136e-11
1.85573e-06
-4.7557e-06
-2.07767e-08
-4.93693e-13
-5.47394e-11
8.33981e-06
8.22124e-06
5.26292e-12
1.10561e-06
-1.35598e-08
1.20079e-06
-3.15135e-06
-5.04109e-08
-1.77147e-09
1.12645e-06
1.19862e-12
-1.53613e-11
2.91294e-06
1.59882e-10
-3.83537e-12
6.7557e-08
1.1603e-06
-3.85175e-11
6.16284e-12
4.70729e-11
8.34218e-11
5.70212e-05
-3.40397e-10
-1.65756e-12
1.44257e-10
9.90384e-12
-4.48698e-13
2.88586e-11
1.2243e-10
2.43519e-12
-2.82973e-05
4.76707e-12
-3.59768e-10
8.76985e-09
-3.35341e-11
-1.45549e-11
-2.25592e-11
-4.66684e-12
1.85639e-09
-3.22491e-10
1.41574e-06
1.90816e-11
-1.25252e-05
7.14799e-11
-1.54358e-05
1.74026e-06
2.6117e-09
1.26165e-10
-4.24921e-11
-4.93309e-12
1.20127e-11
6.23537e-08
1.92132e-09
1.49903e-11
-3.12811e-05
-3.84821e-05
-1.37948e-05
1.931e-06
1.61341e-12
3.98817e-07
-2.07886e-12
-1.6241e-12
-2.28068e-12
6.37956e-11
3.53161e-07
-2.86326e-10
6.79638e-05
-3.2854e-10
2.29414e-06
-2.2312e-05
-6.37305e-08
8.1975e-07
-1.5013e-10
1.60652e-10
-3.48841e-11
1.05105e-10
5.10095e-09
-1.55953e-05
1.16373e-06
1.23512e-11
7.99098e-11
4.67585e-12
-3.03412e-05
9.7907e-11
-1.06969e-11
2.09374e-11
1.23702e-10
1.80351e-06
-7.22285e-09
-6.02519e-11
1.04632e-12
-2.62918e-06
1.26815e-06
-1.27711e-10
4.64165e-07
7.80514e-07
-7.21083e-11
-4.28097e-05
8.7843e-07
-2.05747e-06
-2.83081e-12
-1.93806e-09
1.24637e-06
1.29822e-11
1.62099e-06
-4.5823e-11
-1.24881e-09
4.25403e-09
3.42136e-12
1.14249e-08
-2.73056e-06
3.88141e-11
-7.33403e-12
-5.96642e-11
2.03297e-08
-5.7755e-13
2.28712e-05
3.99373e-06
-3.90409e-12
-2.84515e-13
1.99389e-11
2.35896e-05
-1.27777e-12
-1.88093e-07
6.15567e-07
-9.16533e-06
-1.91838e-06
1.38817e-06
2.02644e-05
-1.49498e-05
1.14009e-11
-5.5583e-11
1.72533e-05
-1.09106e-12
2.42718e-06
-1.63331e-05
-2.69069e-05
-6.28191e-13
6.57204e-16
-5.01907e-11
-3.1751e-05
1.43929e-11
-1.40956e-05
7.04804e-06
-1.18896e-07
2.47424e-05
1.89242e-07
7.48248e-07
-2.37238e-10
-3.26125e-05
2.87423e-10
4.80916e-07
-1.02976e-11
2.60346e-08
-1.44165e-11
1.26527e-07
-9.7689e-11
-2.61771e-09
2.6278e-10
-5.99199e-11
-2.24113e-11
-6.39945e-05
-2.76911e-12
-1.02237e-10
-3.46777e-06
-8.33631e-10
1.19499e-11
-5.14999e-12
1.2205e-06
8.58528e-12
1.89346e-11
2.0794e-10
-9.8047e-13
-1.8673e-10
-8.60121e-12
-3.02208e-07
-2.875e-11
-4.36663e-13
1.03266e-07
-7.10246e-07
1.44827e-11
1.79218e-11
1.34465e-05
-4.74365e-06
-7.5007e-10
2.21509e-12
-7.43945e-06
-4.89387e-06
7.73911e-07
-2.40965e-08
-1.85723e-06
9.07426e-11
1.9368e-10
6.8915e-10
-8.75209e-13
-4.15335e-13
9.66744e-07
2.12314e-09
6.81079e-06
-1.1316e-11
1.2139e-08
-9.29188e-12
-5.30054e-11
7.46914e-07
1.66438e-06
7.55895e-12
7.75763e-11
-9.45893e-09
1.06554e-10
-6.98125e-12
-8.90504e-12
-1.63674e-05
-8.09645e-05
-3.58767e-10
-1.27136e-12
2.48071e-10
-1.76034e-12
-6.32863e-06
-2.77791e-11
-6.27598e-12
-7.20601e-07
-1.0675e-10
-1.26194e-08
-1.55826e-12
3.59765e-05
1.59882e-06
1.33805e-12
9.67688e-12
9.31559e-07
-8.28144e-07
7.72082e-11
3.76831e-07
-1.50522e-06
-6.50251e-05
9.44304e-06
2.16864e-05
1.53012e-06
-2.77553e-08
-6.1976e-07
-1.16318e-12
-3.57864e-12
-1.2066e-05
1.27415e-11
-8.15692e-07
-5.48334e-12
7.0896e-07
-2.616e-06
6.72735e-11
-2.72479e-06
-3.36603e-06
-2.52441e-06
-9.12119e-11
2.71567e-12
2.93792e-12
-2.24794e-08
6.50612e-07
-7.7823e-12
1.21676e-05
-2.40766e-10
1.59651e-07
-4.03387e-09
-2.172e-08
-5.51055e-06
1.64757e-11
-2.23267e-06
1.9423e-10
-2.91062e-12
2.48569e-11
3.63885e-05
-1.72878e-09
1.91667e-10
-4.2219e-05
1.64743e-11
-4.10276e-06
-5.21158e-11
9.39788e-07
-1.44445e-05
-6.1331e-06
2.6676e-12
-7.1011e-12
-3.4727e-10
-5.43507e-11
-1.70202e-05
1.34642e-05
-9.48051e-13
-2.49772e-10
-8.22627e-09
1.82324e-06
-3.15923e-06
9.67639e-12
2.05696e-06
8.86882e-12
-3.52587e-11
-3.34411e-05
-5.07154e-05
-1.36175e-05
7.77893e-12
-1.53794e-05
-1.54408e-10
3.7983e-06
6.76205e-08
-1.5898e-06
-1.74856e-05
5.45265e-12
2.72259e-06
-3.82807e-06
1.15775e-05
-1.05022e-06
-2.61524e-13
1.43915e-05
-7.61126e-09
2.3882e-09
-4.1356e-11
-1.18824e-12
-4.74916e-06
2.89384e-11
1.7706e-06
-5.73392e-05
1.42047e-06
-8.31391e-06
-1.67335e-06
-2.00548e-05
-1.48541e-05
3.19303e-05
1.62718e-11
1.08802e-06
-3.76431e-12
-2.28515e-06
1.92222e-06
-5.26469e-13
4.00191e-07
6.49703e-12
-5.23222e-13
1.08209e-10
-5.77459e-12
-3.24909e-05
-3.47546e-06
-4.18946e-11
1.0239e-11
-2.25313e-05
-1.81895e-06
2.48638e-11
-9.33632e-10
2.66815e-06
2.09375e-11
-1.72386e-11
1.45288e-11
1.69612e-06
-2.02668e-10
-3.97549e-11
-4.69162e-06
5.62095e-11
-4.41547e-06
1.58057e-06
-3.33274e-12
1.73326e-05
-7.44242e-11
4.05022e-06
-2.93841e-06
-1.63669e-05
-9.35474e-11
4.65161e-06
3.08944e-11
-2.00337e-06
3.93597e-12
2.24966e-06
6.07123e-12
1.11538e-12
-5.32182e-07
-2.99664e-11
1.16872e-11
-1.89462e-06
-6.27187e-10
8.72165e-11
-9.89577e-06
-1.31605e-11
3.70226e-12
2.38947e-06
6.85346e-07
6.97441e-11
8.95136e-07
-3.98102e-12
3.11467e-05
-6.33714e-12
-1.20502e-10
-6.21625e-12
-1.05409e-12
2.336e-11
2.81431e-06
-3.84378e-07
-2.01805e-12
-1.49625e-06
-4.83499e-11
8.70067e-07
-1.10343e-11
-3.7353e-11
1.58889e-07
3.49635e-07
3.66661e-11
-8.63512e-11
6.94256e-07
-7.20165e-12
2.45241e-09
1.14264e-10
-1.10631e-06
-3.70857e-06
-4.81867e-10
-1.25379e-08
5.88955e-06
-8.54517e-13
8.16297e-11
1.04688e-05
-1.0853e-05
2.65044e-09
-1.04832e-05
-5.25801e-12
1.46142e-05
-1.46049e-06
-2.14819e-12
3.44749e-11
5.53703e-05
1.47663e-09
1.20541e-10
6.19344e-07
8.28311e-10
1.36511e-10
-1.64129e-09
2.49783e-11
3.55462e-07
9.43289e-07
-7.18976e-12
7.28757e-06
6.72231e-07
1.19983e-12
-4.29554e-09
4.54977e-05
-1.76945e-05
9.32109e-07
6.39266e-11
-8.77089e-13
-2.86582e-05
-4.93018e-11
-1.33019e-09
-1.68125e-05
8.19002e-12
4.23133e-07
3.35625e-11
-1.16007e-12
-7.3721e-05
-2.49561e-06
-4.17862e-07
7.94584e-10
-7.25291e-11
1.02452e-12
-9.77741e-06
3.39256e-06
-8.67522e-12
3.00485e-08
-2.43178e-06
-1.69931e-12
3.28485e-11
1.57048e-10
-2.9986e-11
-1.18073e-05
6.06956e-12
-5.16041e-13
-5.43063e-10
5.38118e-11
-6.19663e-05
-2.24933e-05
4.12237e-05
-6.1351e-09
-6.74834e-13
-3.21355e-11
-3.27644e-06
-1.03204e-08
1.82491e-06
-1.63771e-09
2.66285e-08
-9.40503e-11
3.28226e-11
1.34773e-10
3.50201e-06
-3.49961e-05
1.41108e-10
-1.75641e-06
-3.0422e-05
-2.27864e-13
6.55868e-06
-2.70828e-06
-1.08143e-06
-5.68701e-08
1.56607e-12
3.16374e-06
-3.13235e-07
4.45703e-07
1.6158e-11
-2.30845e-10
-2.99109e-05
-1.10802e-10
2.04569e-10
-1.14806e-05
1.03391e-08
-1.81739e-06
-3.35387e-06
-5.82602e-09
4.18471e-06
1.17304e-05
1.1598e-11
-5.69853e-05
-3.80274e-07
3.20032e-11
1.24197e-11
1.65708e-06
1.01201e-10
4.54734e-11
-4.04765e-11
2.7697e-11
-2.56878e-05
-7.17554e-12
1.10746e-08
2.25555e-06
-5.77852e-07
8.09252e-11
5.76975e-10
1.13083e-05
-4.29353e-13
2.36998e-11
1.22675e-10
3.67607e-11
5.46118e-11
1.30832e-05
6.08915e-12
2.42318e-11
2.00753e-06
2.29366e-11
4.61563e-05
6.90075e-13
-4.18829e-05
-2.08714e-11
6.15166e-05
-5.40176e-07
-3.90839e-13
7.74419e-06
-3.71646e-07
8.51379e-12
-2.3717e-11
1.15835e-11
-1.63744e-06
-1.08445e-11
5.54624e-07
1.33724e-11
3.84997e-12
1.68258e-06
-4.46917e-06
-1.24646e-11
-7.20014e-11
-4.71001e-11
-7.60435e-11
7.3349e-11
-3.515e-10
4.94549e-11
-2.82644e-05
-1.33659e-06
-1.09292e-12
2.11551e-11
-3.40637e-05
-9.12758e-07
2.19393e-11
-4.89641e-13
-3.1283e-05
8.57007e-07
4.51116e-05
-2.85495e-10
6.62953e-11
2.03296e-06
-1.81749e-09
-1.33121e-05
-4.09907e-05
-1.04922e-11
-1.80771e-11
-3.02203e-06
-1.06454e-08
-1.28925e-11
3.43496e-05
-1.24014e-07
-1.40231e-05
-6.68288e-13
1.2406e-09
2.00613e-08
-2.67447e-12
-5.23995e-11
-4.84371e-06
-2.31967e-10
-2.24671e-12
5.75477e-06
1.82427e-11
-3.25817e-11
-1.00832e-09
-3.46356e-05
1.44896e-11
-3.89177e-05
-7.97511e-11
3.95048e-11
4.76303e-11
1.49536e-11
-1.22796e-11
-3.89927e-05
8.12968e-05
-3.81174e-11
8.74796e-07
9.69487e-12
6.10189e-13
-4.04318e-06
8.32182e-05
-1.0219e-11
9.1081e-05
8.22729e-13
-4.84613e-12
-1.63414e-11
-1.98021e-06
1.36763e-06
-1.44338e-12
-1.55957e-05
5.739e-06
-6.87769e-05
-6.12461e-10
-3.75491e-05
-3.28818e-06
-1.53289e-10
1.42505e-06
-3.89604e-12
-1.34275e-11
1.737e-11
-1.12896e-05
7.42383e-05
-8.18035e-05
1.51202e-07
-9.10773e-12
-1.4169e-11
3.63571e-11
-4.08644e-10
-1.1045e-10
2.17765e-12
1.04307e-10
6.70932e-11
-2.65942e-06
-2.05078e-12
2.84476e-11
-4.99315e-13
-5.21492e-07
2.98765e-11
5.81463e-13
-4.25497e-11
1.73008e-06
9.33131e-11
8.82831e-12
6.67842e-10
2.82857e-08
-2.96102e-11
-5.15089e-09
7.81696e-10
-1.92082e-10
1.59465e-07
1.21789e-06
9.47474e-11
4.17792e-07
2.5534e-05
-9.12966e-11
-1.36888e-12
4.55245e-11
1.43541e-11
4.74097e-09
-4.41954e-10
1.1708e-10
-2.703e-06
2.55474e-12
-1.12383e-10
-1.86547e-11
4.56782e-11
1.53731e-11
4.11272e-11
-1.32581e-11
3.58193e-11
5.33135e-09
3.54137e-06
5.39021e-07
2.29757e-07
6.25404e-06
-6.11645e-09
-1.51594e-12
-4.77297e-09
6.17831e-05
-4.10795e-12
-1.7468e-07
6.86174e-07
-1.89295e-06
1.23898e-12
-4.77912e-06
-1.32711e-10
3.26624e-06
-1.98674e-11
4.22681e-12
4.46251e-11
-2.04906e-10
2.67142e-06
6.842e-09
4.08671e-05
7.63511e-06
-2.78602e-05
5.13995e-11
-7.43184e-13
-1.60717e-10
1.90352e-05
1.16311e-11
1.01772e-11
2.87631e-05
1.01027e-12
3.74309e-05
-8.02352e-12
1.93212e-09
9.64581e-13
-3.27293e-11
1.07272e-06
-2.62127e-12
6.71492e-07
3.85234e-05
-9.79121e-08
2.83694e-12
-8.87209e-11
-1.12921e-05
1.52816e-05
2.30985e-05
1.28856e-11
3.55086e-09
-7.94157e-06
-3.58464e-05
-2.6172e-06
2.55351e-11
1.9642e-11
1.64839e-12
-1.1288e-11
-2.15138e-08
-5.59545e-10
-6.96984e-13
-1.57061e-12
-2.16615e-05
7.75892e-07
3.4732e-07
-4.85157e-09
-1.16977e-06
-1.35849e-11
4.43501e-13
8.61671e-07
4.38368e-11
-1.0129e-08
2.73831e-09
-4.19234e-11
-4.30402e-11
1.03247e-05
4.21655e-06
-1.36243e-06
-7.29059e-10
1.19428e-05
-8.33512e-12
-1.1989e-10
-1.0397e-05
-6.94545e-13
-6.37074e-11
5.44345e-06
-2.11928e-06
-9.89086e-11
-1.57193e-07
-2.10846e-11
-2.94696e-06
-9.73046e-12
1.44418e-06
-1.28439e-10
1.7935e-09
2.46346e-05
-5.15325e-05
-1.84182e-06
-8.79641e-11
1.54631e-11
-3.26012e-08
8.27683e-11
-1.41637e-10
-2.56842e-08
-8.40828e-05
-6.66037e-09
3.67056e-12
-6.44694e-10
-8.63293e-11
2.57145e-09
-1.79061e-10
1.07347e-12
6.42322e-12
8.86975e-07
2.89206e-06
-5.48085e-12
7.25127e-10
-4.75199e-10
3.16521e-11
-2.96056e-10
-5.45992e-09
-1.10565e-11
-9.03548e-06
4.04063e-07
2.99685e-11
3.90902e-11
-9.94217e-11
7.13736e-06
-2.3355e-09
1.30178e-11
6.9405e-12
1.41434e-12
-1.14528e-11
-2.96992e-05
-6.44589e-08
3.81855e-11
1.15559e-06
-8.70868e-11
-7.3381e-10
-1.30728e-08
-2.79719e-09
-7.10285e-06
4.88951e-13
6.15475e-05
-2.96736e-06
-3.6819e-10
-1.51037e-11
-2.63427e-10
1.32786e-11
-1.35019e-10
2.9617e-05
-5.41012e-09
1.50316e-06
2.66884e-11
5.20308e-12
-1.31888e-06
5.33219e-05
2.21925e-06
-3.79808e-06
1.37998e-08
1.26574e-11
8.97516e-07
7.85463e-07
-1.30013e-13
1.05878e-06
3.29937e-07
-1.52927e-13
-1.13249e-08
3.7604e-11
7.26549e-12
-1.04174e-12
3.53305e-11
-1.69148e-07
-7.70848e-05
1.67856e-11
1.96776e-12
-1.14592e-06
-1.78964e-07
4.12435e-07
8.97385e-06
7.99925e-07
-3.09661e-10
-6.83992e-11
-3.86986e-11
4.56538e-13
-8.17372e-12
1.2744e-13
-2.0823e-06
-3.64107e-10
1.47946e-11
1.70936e-05
-4.93198e-13
5.23139e-06
2.85941e-11
-7.89383e-06
3.93813e-06
-7.58201e-13
1.4686e-11
1.32972e-05
-2.31552e-06
2.47626e-06
-3.88731e-06
1.06947e-06
-4.97068e-06
1.04421e-08
-1.49763e-06
-2.94986e-06
5.79895e-12
2.1681e-11
8.44914e-07
-2.97946e-12
2.58004e-11
4.16816e-12
-1.55165e-11
1.89184e-09
1.69914e-05
7.04454e-11
3.43587e-11
-1.80159e-10
-1.86659e-10
-4.79192e-05
-1.1471e-06
1.55789e-11
4.94319e-05
-5.49537e-09
3.3543e-06
1.82558e-09
4.07686e-05
-3.75097e-10
-1.62254e-05
-2.68646e-05
1.1169e-10
1.04117e-11
-3.28313e-07
-2.39824e-10
3.12288e-05
7.03392e-06
-1.4383e-05
-2.893e-10
-1.19083e-09
5.43808e-13
-1.09342e-05
-1.77845e-06
2.50474e-06
-2.82888e-11
-8.90071e-09
-1.36719e-10
1.53192e-05
7.86803e-07
2.02118e-06
-5.99403e-08
1.32445e-05
-2.47123e-05
-5.62421e-06
4.4558e-14
2.44284e-09
-1.79927e-05
-2.02735e-05
-3.25417e-09
-9.03697e-11
-2.28646e-06
6.15383e-12
-3.55484e-11
1.35496e-11
2.91753e-12
6.59654e-07
-3.86715e-07
-5.50276e-13
1.03104e-10
-1.38832e-11
6.85966e-08
-1.46275e-06
-1.07635e-10
1.58069e-07
1.31969e-06
-1.35779e-06
1.65259e-11
1.37978e-10
-9.71195e-13
4.75504e-07
2.10628e-06
-2.56636e-06
-2.2405e-12
2.53595e-11
-4.95244e-05
-1.24836e-10
-5.91007e-05
4.42265e-11
-1.52221e-05
-1.49384e-06
-1.23842e-10
4.85955e-11
-1.14436e-06
1.05561e-11
1.59634e-10
1.55016e-06
8.17003e-07
1.07308e-11
1.70757e-05
-9.44333e-09
-2.33676e-06
-1.03713e-05
1.79235e-07
-2.84664e-09
-4.06783e-06
1.35249e-06
-1.26758e-06
1.55778e-06
-1.16874e-05
-2.07837e-11
-2.63364e-09
-2.62939e-12
8.45068e-12
-6.183e-07
6.84427e-09
9.84654e-07
-2.79388e-14
-3.71923e-09
1.87363e-05
1.37282e-11
1.109e-11
3.66575e-11
-3.15421e-06
-2.18059e-11
8.76435e-06
1.05092e-09
3.10414e-05
-4.94326e-06
-3.76049e-12
1.34398e-06
-4.666e-06
5.7429e-06
4.26231e-11
-3.80925e-13
-1.10026e-11
-9.83114e-06
8.69144e-10
2.84394e-08
1.31095e-10
-3.41814e-08
-1.6387e-10
-7.25998e-07
-1.66388e-06
1.67181e-06
8.10419e-06
7.77285e-07
-2.89607e-10
-1.04857e-10
1.58006e-06
8.54182e-11
-1.43847e-06
2.35883e-11
8.7113e-07
-7.06446e-11
-1.07465e-11
-1.32176e-06
-1.04943e-11
-8.13114e-08
1.21259e-06
-1.35426e-05
4.16942e-11
-1.20291e-05
-2.18759e-10
-2.81945e-06
8.58095e-07
1.57195e-11
-5.33115e-11
9.1724e-12
-3.32746e-05
-3.83127e-05
-5.14071e-07
6.59489e-07
-4.75377e-12
-2.0287e-10
-3.5584e-05
-1.04572e-11
5.43062e-06
7.28647e-12
-3.90942e-05
-3.74666e-10
6.655e-10
-1.6223e-11
1.64902e-06
3.34601e-06
-3.4232e-09
5.40276e-11
-3.18394e-11
7.32775e-09
6.02562e-11
4.66498e-11
-5.60058e-10
8.24465e-07
7.17137e-07
-9.2387e-12
-2.97433e-12
-2.52275e-09
-3.51419e-05
-2.4816e-09
1.10977e-05
-1.3676e-10
-5.4651e-10
-1.70522e-05
-1.78072e-05
1.33789e-09
-1.71748e-06
-1.21055e-11
-1.19091e-05
-2.68515e-06
-1.75151e-05
-9.04133e-12
-1.73834e-08
6.64708e-07
3.80196e-11
-1.09859e-06
-5.28761e-11
-2.62326e-12
-1.12155e-10
1.35198e-10
-1.44983e-07
5.07132e-07
1.46751e-11
4.10317e-13
0.000101319
-2.35416e-11
8.59235e-12
1.15155e-11
2.62384e-07
6.69446e-13
-1.10152e-10
-1.86247e-11
-1.81178e-11
-5.19432e-07
-6.67403e-10
-8.29636e-06
-1.59627e-12
-6.23731e-06
1.23773e-06
6.09124e-11
-2.99329e-11
-5.1268e-05
-1.24356e-11
8.04057e-12
4.69179e-07
7.10488e-07
-3.57815e-09
1.76934e-06
6.43282e-12
3.66039e-07
8.24045e-11
7.3514e-11
-1.33952e-10
1.15023e-06
-1.14353e-11
-7.05505e-07
-2.89101e-06
4.26882e-05
-2.6917e-07
-4.4257e-05
9.82514e-07
1.43908e-06
8.41234e-07
-6.96771e-07
3.04093e-11
-5.458e-11
-5.25688e-06
-2.02171e-11
5.92618e-06
-2.74354e-07
4.55789e-11
2.13583e-06
1.19018e-05
-4.714e-11
-4.12067e-12
3.25003e-07
2.54155e-06
1.26645e-12
1.25625e-05
-1.68853e-10
3.532e-12
3.46111e-07
-3.08167e-05
-5.07451e-12
2.32828e-10
1.59801e-10
-3.73084e-06
1.25697e-10
1.56097e-06
-1.11718e-05
-1.54776e-10
-6.56427e-12
1.61328e-09
-2.43887e-06
6.83674e-11
8.44814e-12
-2.83892e-06
5.54902e-13
-5.29403e-11
-1.724e-06
1.44169e-11
-1.76577e-06
-1.04492e-11
-2.67434e-11
1.06481e-05
8.51325e-11
1.19971e-06
-3.04946e-07
6.21808e-05
2.01929e-11
-1.54939e-05
3.25581e-06
1.40188e-10
8.67901e-12
-4.22896e-06
-4.49848e-08
-1.43783e-11
-8.25578e-10
-2.45323e-06
-1.98299e-11
-7.31247e-06
-3.29707e-06
-3.5195e-05
-1.14443e-05
-8.05367e-11
4.27439e-12
7.27293e-12
-8.77203e-13
-5.466e-07
-9.7205e-11
1.48921e-06
7.44822e-12
-8.99118e-07
-3.28153e-12
9.34503e-08
-2.75391e-06
-1.35595e-10
-3.36591e-06
3.94326e-10
-2.83902e-10
-2.53989e-06
1.29377e-05
2.20387e-10
2.08119e-11
2.53204e-07
-4.55824e-11
-2.23851e-09
3.58829e-05
-3.8719e-05
-1.63145e-05
6.25648e-07
4.23034e-07
2.90416e-09
1.33223e-05
-2.61257e-05
-2.9403e-05
-1.56355e-10
-8.81661e-07
-1.86046e-10
3.88122e-11
9.24095e-07
-2.91904e-05
-2.05155e-06
-3.22973e-13
-1.0603e-11
1.14684e-09
-3.42631e-12
-7.93554e-12
3.17895e-11
3.11461e-11
1.03484e-12
-4.65229e-10
-3.67192e-05
4.31551e-06
-3.99848e-07
-6.86202e-11
1.25909e-05
-4.15073e-06
-1.37541e-10
1.05162e-06
1.84774e-12
-2.44415e-11
1.03902e-11
-1.94338e-09
1.02934e-06
-2.13289e-11
-3.74524e-09
-3.08178e-06
-1.45134e-10
-6.32456e-13
6.96037e-07
9.1895e-12
6.5437e-07
2.63334e-11
-1.33341e-05
4.83982e-07
-1.14591e-06
1.48595e-10
1.89763e-11
3.81485e-12
-1.65489e-10
-1.78588e-12
7.03097e-11
7.4525e-05
2.70856e-11
3.21584e-06
4.18378e-07
5.75425e-09
2.34353e-09
-1.75819e-06
-2.93622e-06
8.32991e-12
3.79422e-10
-4.53048e-11
1.20546e-06
2.02634e-05
1.24492e-10
-1.38473e-06
-3.97208e-12
-2.38702e-13
6.06472e-07
-9.14627e-06
-1.17166e-11
1.39905e-08
3.11399e-11
2.1354e-10
-1.12922e-11
-5.10076e-11
3.17355e-07
7.59897e-11
5.89786e-11
-1.62617e-10
1.62633e-05
1.33316e-11
1.7005e-06
-8.34732e-06
-3.65199e-10
-3.86249e-09
-2.65011e-12
3.45963e-10
-3.4337e-10
1.42592e-08
-1.18623e-10
-9.32243e-06
2.69965e-05
-4.1168e-06
2.24812e-05
-5.91748e-11
2.92644e-11
-1.06965e-09
-3.87339e-05
-8.59034e-06
-1.9929e-06
-2.97532e-13
-3.85035e-06
4.9371e-06
-2.37333e-05
-1.17803e-05
3.74071e-11
-1.98379e-11
-7.02171e-05
2.40159e-07
3.21066e-09
-2.65487e-11
-8.91555e-12
-1.06337e-05
-9.12782e-13
-1.49282e-10
-1.9555e-05
-4.18754e-10
2.23848e-10
-2.42297e-06
3.32375e-11
-3.56919e-10
-1.20624e-12
6.36875e-05
0.000103911
0.000103079
-3.29901e-05
1.32052e-06
-2.67244e-06
-2.5008e-05
1.34394e-12
3.7299e-06
-5.14449e-12
-3.65724e-05
1.34497e-05
-1.22399e-06
-1.16196e-06
-5.27782e-07
-1.22191e-10
5.9157e-07
2.52548e-07
-8.27934e-10
4.34404e-07
3.096e-06
-1.76917e-06
2.93254e-07
-1.8075e-05
-4.95617e-06
-2.03883e-10
-1.17926e-10
7.19105e-13
-9.04153e-13
-5.34055e-10
-2.06053e-06
1.50487e-11
1.40795e-05
-3.85602e-12
2.25939e-09
9.18862e-09
-2.34452e-07
-4.7415e-11
1.22747e-06
-5.64108e-06
1.14487e-09
1.50057e-06
1.3733e-07
-1.92621e-07
7.67183e-07
-4.18936e-05
3.82651e-11
-1.84714e-11
2.10594e-11
-2.24579e-05
-3.86887e-09
-2.103e-06
8.89799e-11
5.36033e-14
2.75132e-07
-1.56427e-06
1.1366e-09
1.32181e-12
-1.89363e-05
-2.17679e-10
7.81474e-06
3.18967e-08
-4.42477e-11
-1.63823e-06
-2.8424e-05
-6.99443e-12
-1.7089e-05
-3.43521e-06
2.53779e-05
2.14846e-05
-2.64944e-10
1.15806e-06
-1.07689e-10
-1.04734e-10
-3.18447e-08
1.96645e-12
5.18541e-08
-2.47004e-06
6.76589e-09
-2.54005e-08
3.00492e-08
1.90786e-09
-1.73316e-11
-3.51592e-10
-2.05401e-07
1.94667e-11
6.66148e-05
1.05454e-12
5.61303e-09
-9.53473e-06
-1.72771e-06
-4.67106e-06
9.76676e-07
-3.37923e-05
-2.36922e-12
1.00697e-08
9.17295e-06
-6.38686e-05
-5.06897e-12
-2.12694e-11
-1.41479e-06
-1.71476e-11
-3.19389e-12
1.6253e-08
-1.82648e-09
2.59076e-05
-3.02216e-12
1.84044e-06
2.33035e-08
5.70068e-07
3.20893e-08
5.08669e-11
-6.01824e-10
1.26915e-11
4.13523e-11
2.19934e-05
-1.97981e-11
-6.2384e-06
-3.12074e-06
-6.91247e-12
1.49689e-11
1.5859e-06
-2.45159e-09
1.02383e-09
-4.35246e-09
-5.18656e-10
-2.7463e-06
-1.39614e-08
2.03424e-07
-1.92769e-06
1.13899e-05
-4.34507e-06
2.0974e-05
2.9234e-05
-6.13837e-07
3.56271e-05
-3.49876e-11
2.07959e-10
-5.16258e-09
2.17588e-06
1.48411e-08
6.76328e-05
-2.99709e-05
2.67368e-10
1.51867e-10
8.10013e-09
5.25599e-07
2.15832e-06
-8.21679e-07
-3.11939e-05
-9.68368e-11
2.43098e-10
-5.73281e-11
4.71848e-06
5.74609e-10
6.0352e-06
9.28085e-12
-1.15343e-05
5.72516e-07
-2.34665e-11
-2.10539e-11
-5.19215e-07
2.85903e-09
0.000110461
7.33341e-11
9.05086e-11
-1.18262e-11
6.17142e-10
-3.04015e-12
1.44686e-06
1.50034e-11
3.94035e-07
-1.31341e-12
-5.18895e-06
-1.8337e-11
-1.84133e-08
-3.86393e-10
-7.71998e-10
8.62407e-12
-1.11557e-05
-1.04584e-08
1.43453e-05
-1.46283e-06
1.15594e-05
-5.90898e-06
-1.06221e-08
1.689e-05
-8.69982e-05
-2.22044e-05
8.75281e-07
-3.31236e-08
-5.1832e-10
-5.81676e-12
1.53747e-07
-2.5859e-09
-1.03168e-11
-1.68152e-06
6.54661e-06
5.21495e-09
-1.1401e-05
-3.859e-06
-2.20165e-12
-4.56854e-11
3.109e-05
-2.27706e-10
2.47395e-05
3.29435e-07
3.46694e-11
9.35686e-05
1.49336e-06
-3.99499e-10
-2.46801e-08
-1.00727e-06
-2.32434e-06
-1.00988e-12
-7.40967e-06
-5.23362e-06
-8.65652e-12
-3.8984e-06
3.07844e-06
5.53128e-09
8.8847e-06
-2.59148e-11
-6.12629e-05
9.88412e-07
-2.79848e-08
1.30304e-06
-9.91599e-12
3.27624e-12
1.62147e-09
1.40677e-07
-1.15831e-06
-2.01931e-06
-1.87309e-06
1.26819e-11
3.98761e-11
1.56837e-05
-2.30785e-06
-3.56325e-05
-1.67553e-10
-0.000107469
5.19486e-10
-9.86811e-13
-2.25263e-05
-1.31196e-08
-2.27498e-05
4.96466e-10
-2.03068e-11
1.90592e-09
1.15878e-06
-2.75965e-08
-3.52394e-05
2.29704e-05
9.8923e-06
-1.61724e-05
-1.92166e-05
-1.85907e-06
1.61594e-05
-1.75385e-06
3.27481e-05
2.90523e-10
-4.02726e-07
2.71879e-12
1.37624e-08
4.51844e-07
-2.8014e-08
9.55709e-12
-1.93593e-05
3.81004e-05
-4.14916e-05
1.35014e-06
1.68613e-09
4.12531e-06
-8.13835e-08
-7.61922e-06
-1.63549e-10
-2.03089e-06
9.64761e-09
-6.48507e-08
3.51406e-08
-3.59582e-06
-8.3195e-10
-2.09957e-12
-9.91441e-11
5.55109e-06
-1.78098e-10
3.97017e-13
1.90686e-09
3.68979e-06
-6.37169e-11
-2.00586e-11
-3.45327e-06
-2.67842e-07
1.9973e-09
1.86936e-10
4.73045e-08
8.61602e-12
-1.23956e-05
-1.51053e-06
5.72881e-12
1.14977e-05
-1.7862e-11
1.89318e-10
1.58747e-06
1.42201e-09
-1.53889e-10
-2.98483e-10
-3.05394e-08
-8.0231e-05
2.43886e-05
-3.31741e-11
-2.05933e-05
3.94062e-11
-8.12514e-11
-1.86338e-07
-6.44132e-07
-5.23999e-10
-1.96576e-05
-1.4549e-07
6.86545e-07
-4.7008e-09
3.43664e-07
-5.3547e-06