/*--------------------------------*- C++ -*----------------------------------*\
| =========                 |                                                 |
| \\      /  F ield         | OpenFOAM: The Open Source CFD Toolbox           |
|  \\    /   O peration     | Version:  v2012                                 |
|   \\  /    A nd           | Website:  www.openfoam.com                      |
|    \\/     M anipulation  |                                                 |
\*---------------------------------------------------------------------------*/
FoamFile
{
    version     2.0;
    format      ascii;
    class       surfaceScalarField;
    location    "400";
    object      phi;
}
// * * * * * * * * * * * * * * * * * * * * * * * * * * * * * * * * * * * * * //

dimensions      [0 3 -1 0 0 0 0];
oriented        oriented;


internalField   nonuniform List<scalar> 
20362
(
0.368382
0.110299
-0.47868
0.000337751
0.000305195
-0.000642946
-0.119402
-0.278635
0.398037
0.331213
0.112491
-0.443704
0.155056
-0.164153
0.00909713
0.381912
0.0591495
-0.441061
0.294846
-0.522611
0.227765
0.639436
-0.475641
-0.163795
-0.175169
-0.00602781
0.181197
0.243643
-0.284702
0.0410589
-0.174926
-0.00024303
0.693682
-0.347807
-0.345874
-0.474517
0.645937
-0.17142
0.00723195
-0.00845525
0.0012233
0.477327
-0.146114
-0.60021
0.605885
-0.00567544
0.208022
-0.065375
-0.142647
0.530292
-0.255711
-0.274582
-0.0114979
0.012211
-0.000713014
0.204495
-0.087805
-0.11669
-0.113059
0.116409
-0.00335058
0.658639
-0.350273
-0.308365
0.501788
-0.397
-0.104788
0.277663
-0.397065
-0.59148
0.598495
-0.00701527
0.638969
-0.582868
-0.0561008
0.304759
-0.00456738
-0.300192
0.0641958
0.574773
-0.562096
-0.0293842
0.00389807
-0.00391375
1.56815e-05
0.00410941
-0.0581563
0.0540469
-0.376191
-0.225137
0.601328
0.00230932
-0.0115582
0.00924885
0.0575645
-0.340609
0.283045
0.619185
-0.298349
-0.320836
0.0155491
-0.0131286
-0.00242048
-0.333041
0.263304
0.0697371
-0.00071585
0.0010536
0.343166
-0.529756
0.18659
-0.45166
0.0254026
0.426257
-0.0873826
-0.133891
0.221273
0.317316
0.301868
0.294165
0.383545
0.532938
-0.433808
-0.0991298
-0.123364
0.491746
-0.338208
-0.0611855
0.399393
0.752559
-0.337244
-0.415315
-0.062524
-0.381736
0.44426
0.233564
-0.243211
0.0096468
0.424839
0.12849
-0.553329
0.0740903
-0.0451569
-0.511291
0.448767
-0.692611
0.552882
0.139729
0.302594
0.227698
0.360685
-0.341835
-0.0188498
0.601947
-0.0652613
-0.536686
0.541427
-0.729713
0.188286
-0.151184
-0.266928
0.0263281
0.2406
-0.426795
0.314784
0.112011
-0.190579
0.0394368
0.151142
0.0795087
0.453429
0.000786868
-0.00126404
0.000477173
0.253335
0.405303
-0.00164331
9.67679e-05
0.00154654
-0.426444
0.61986
-0.193416
0.000450352
-0.113509
0.00466418
-0.00100543
-0.00365875
0.0630193
-0.533051
0.470031
-0.186589
0.176079
0.0105099
0.370044
0.382515
0.23027
0.409166
0.705454
-0.522468
-0.182986
0.35597
0.105307
0.0121087
-0.0110631
-0.00104564
-0.00726682
0.0912583
-0.0839914
-0.00532897
-0.18126
-0.00670516
-0.0871835
0.0938887
0.0120387
7.00014e-05
-0.267774
0.245972
0.0218014
0.136373
-0.223755
-0.0124814
0.207383
-0.194902
-0.263054
0.171876
0.0911777
0.650006
-0.445339
-0.204667
0.507231
-0.164065
-0.00280702
0.0029924
-0.000185384
0.229613
0.00815311
-0.237766
-0.184056
-0.269867
0.453923
0.280021
-0.64501
0.364988
-0.0945967
0.107749
-0.013152
0.634309
-0.43903
-0.195279
-0.0198709
0.134982
-0.47319
0.306
0.0546847
0.00105756
-0.00101791
-3.96533e-05
0.00745951
-0.00515019
-0.309364
0.0296181
0.279745
0.387068
0.306614
0.267703
0.28501
-0.552713
0.072844
0.261111
0.138443
-0.399555
0.24079
0.00285355
-0.607721
0.548135
0.0595866
0.668883
-0.434633
-0.23425
-0.344256
0.508894
-0.164638
0.039444
0.168578
-0.117717
-0.145337
-0.661363
0.466186
0.195178
-0.0250448
-0.426615
-0.121248
-0.188116
0.197894
-0.00506475
-0.19283
-0.555192
0.116933
0.438259
-0.0306359
0.0293123
0.0013236
-0.00484961
-0.15424
0.15909
0.119054
-0.141526
0.022472
0.567447
-0.272158
-0.29529
0.354721
-0.523975
0.169254
0.0078866
0.0275318
-0.0354184
-0.102403
-0.505319
0.0994215
-0.378057
-0.00386202
0.00386202
0.412792
0.292662
0.29189
-0.384879
0.0929898
-0.0116467
0.000148775
0.00113881
0.0269797
-0.0281185
-0.000844213
-0.000182373
0.00102659
-0.250078
0.517781
-0.51864
-0.211073
-0.498299
-0.0568926
0.52273
-0.487848
-0.0348815
-0.166191
-0.0243881
0.132792
-0.1261
-0.00669194
0.469623
0.053107
0.207176
0.0263882
0.00506455
-0.00455784
-0.000506712
0.150868
-0.171052
0.0201845
-0.000495929
-0.00114738
0.0990322
0.375409
-0.474441
-0.274335
0.335677
0.266631
-0.156447
-0.110185
-0.033708
0.224579
-0.190871
0.00350628
0.00155826
0.126507
-0.507008
0.380501
-0.368206
0.546251
-0.178044
-0.0988725
0.480784
-0.0880904
-0.244951
0.00893395
-0.103531
0.0836636
0.256202
0.185528
-0.369584
0.00114787
-0.451925
0.201846
-0.54006
0.597981
-0.0579212
0.209802
-0.222284
0.357634
-0.448272
0.120967
0.232492
-0.353459
-0.0646884
-0.216131
0.280819
-0.214356
0.46517
-0.250813
0.00127835
-0.000220794
0.0124847
0.486111
-0.498595
0.599725
-0.174886
-0.576354
0.101837
0.00162723
-0.000840358
0.0116971
-0.0118881
0.000190989
-0.10171
-0.47618
0.57789
0.335169
-0.679426
0.114229
0.152402
0.462517
-0.167671
0.136681
0.25802
-0.3947
-0.628033
0.255682
0.372351
-0.373305
0.523364
-0.15006
-0.244533
0.3655
0.217265
-0.431622
-0.364279
0.283296
0.080983
0.0857296
-0.0897845
0.00405482
0.469661
-0.234946
-0.234715
0.406096
0.167178
-0.573274
0.07343
-0.0693206
0.00567513
0.0260513
-0.0317265
-0.497297
-0.0427628
0.022505
-0.0267461
0.0042411
-0.150212
-0.262937
0.41315
-0.000417006
-0.000427207
-0.00224577
-0.599093
0.230887
-0.384792
0.511299
0.575172
-0.573021
-0.00215182
-0.267297
0.403978
0.169684
0.332104
-0.273607
0.208919
0.167844
-0.172693
-0.663267
0.406621
0.256647
0.00123711
0.00266096
-0.00296392
-0.00094983
0.557525
-0.327255
-0.587837
0.486127
0.232165
0.335282
0.21593
-0.0683227
-0.147607
-0.293223
0.601947
-0.000359945
0.000149853
0.000210092
0.432411
-0.333379
0.00286421
-0.00222495
-0.000639253
0.366213
-0.308648
0.382716
0.267289
0.292064
-0.527649
0.235585
-0.329473
0.268287
-0.0050382
0.000775803
0.00426239
-0.332491
0.430348
-0.097857
-0.203197
0.0040898
0.199107
-0.0132851
0.000256201
-0.00127411
0.000595594
0.00226861
-0.385079
0.570768
-0.185689
0.0903552
-0.00462552
0.00455131
0.00748741
-0.0993209
0.376984
-0.448851
0.625571
-0.176719
0.400888
-0.079037
-0.321851
-0.0732496
0.016593
0.0566566
0.24443
-0.343441
0.0990107
0.173543
0.0562867
-0.148796
-0.33299
0.481787
0.000318466
0.0152306
-0.216087
0.561807
-0.34572
0.0346958
0.181234
0.000479659
-0.00104563
0.00056597
0.0777726
0.0148811
-0.0926537
-0.0180905
-0.0947136
0.112804
-0.156106
-0.280031
0.436136
-0.00222996
-0.00263959
0.00486955
2.817e-05
-0.000388115
0.0262551
-0.00375012
0.103093
-0.109798
-0.43508
0.0678801
0.367199
0.337216
-0.488092
0.150876
-0.00058879
0.000363883
0.000224907
-0.0391353
0.0470219
-0.525991
0.594672
-0.0686815
0.0287845
0.0361856
-0.0649701
0.329721
0.339163
-0.447731
0.422686
-0.163668
-0.497695
-0.000994619
0.0032903
0.313995
-0.462791
0.141726
0.0383167
-0.305244
0.322008
-0.328078
0.00606933
-0.339369
0.644379
-0.30501
-0.178399
-0.00853711
0.186936
-1.94244e-05
-0.0306165
-0.07911
0.0688357
-0.0869262
-0.257716
0.32612
-0.0684035
0.0190503
-0.256233
0.237183
0.40137
-0.169501
-0.23187
0.412074
-0.120185
0.00529422
-0.028199
0.0229047
-0.0112656
0.0118091
-0.000543438
-0.371868
0.114152
0.367734
-0.501972
0.134238
-7.8014e-05
-0.000510776
-0.289978
0.279239
0.0107391
-0.557359
0.680549
-0.12319
0.0601319
0.0139584
-0.00301434
0.0461278
-0.0431135
-0.0541773
0.520413
-0.466236
-0.149781
0.486996
0.343048
0.30199
-0.645037
0.320118
-0.306811
-0.0133071
0.387672
0.161799
-0.549471
0.214861
0.111259
0.00111075
-0.0230048
0.0218941
0.0967341
0.269479
-0.00751699
0.00528703
0.211128
-0.171691
0.0114454
-0.0118896
0.000444231
0.453082
-0.0983606
-0.288368
0.394552
-0.106184
0.253923
-0.630114
0.307903
-0.193674
-0.0582792
0.000770266
-0.000290607
-0.303828
0.137684
0.166144
-0.00386207
0.00370928
0.000152789
-0.509323
-0.090887
-0.00149685
0.000769773
0.000727079
-0.156062
-0.0153662
0.171428
-0.0671089
0.153824
-0.580268
-0.000670852
0.000488479
0.0181805
-0.283012
-0.306958
0.58997
0.000431445
-0.000330251
-0.00470795
-0.346363
0.254108
0.0922552
-0.506351
0.206145
0.300206
0.346788
-0.525242
0.178455
-0.115019
-0.011081
-0.638023
0.273122
0.364901
0.142048
-0.138219
-0.00382894
-0.0197182
0.0203918
-0.000673599
0.203964
-0.0313033
-0.172661
0.481652
-0.490708
0.00905588
0.675742
-0.124827
-0.550915
-0.000731749
-0.00121141
0.278168
-0.117577
-0.160592
0.0272387
-0.00288793
-0.0243507
-0.000483416
0.000177715
0.000305701
0.283693
-0.285571
0.00187855
-0.115073
0.0203947
0.094678
0.0268216
0.177674
-0.0015446
-0.0566117
-0.00326643
0.08429
-0.457516
0.373226
0.53138
-0.143708
-0.609032
0.24289
0.366142
-0.00077428
-0.00203274
-0.04917
0.0779545
0.00446293
-0.0035093
-0.000953626
-0.124423
0.00940393
-0.205383
-0.300968
0.254681
-0.404893
-0.496669
0.0981966
0.49327
-0.591466
-0.113217
0.0334686
0.448183
0.128419
0.179484
0.329801
0.181205
-0.511006
-0.000852946
0.0015028
-0.000649857
0.182553
0.365582
-0.000900889
0.00065096
0.000249929
0.724769
-0.265141
-0.459629
0.292856
-0.155172
-0.182229
0.177655
0.00457412
-0.287678
0.485719
-0.19804
0.448419
0.27635
-0.241283
0.267611
0.380324
0.141189
-0.521514
0.0206896
-0.198793
0.178103
-0.16933
0.0132674
0.00394874
0.000715441
-0.0120118
-0.000970058
-0.000526793
-0.000880874
0.000397458
-0.183574
-0.0841999
0.611622
-0.611622
0.268142
0.0519761
0.301175
-0.0585676
-0.242607
0.50043
-0.177632
-0.322798
0.00640086
0.000219386
-0.00662025
8.66687e-05
0.000637204
-0.00816593
0.00752873
0.132206
-0.480726
0.348519
0.248412
0.108291
-0.356704
-0.423403
-0.328155
0.489313
-0.161158
0.0367226
0.241446
0.361906
-0.2033
-0.158606
-0.0910839
0.335514
-0.0203484
-0.427382
-0.212006
-0.0122682
0.224274
-0.0180317
-0.256303
0.228953
-0.557108
0.148889
0.0798965
-0.228786
0.000492593
0.0309906
-0.0298798
0.570269
-0.400586
0.299602
-0.485059
0.185456
0.546582
-0.337062
-0.209519
0.105112
0.296258
0.345827
0.30011
-0.334223
0.466429
0.322066
0.0788227
0.00733584
0.134712
0.516852
-0.21725
-0.390906
0.403391
-0.0751769
0.00714509
0.0680318
-0.0871546
-0.220291
0.307446
0.242772
0.00320078
0.31511
-0.531197
-0.178512
0.458533
0.415733
-0.130723
-0.000131298
0.00736324
0.00215707
0.0725223
-0.0746793
0.0351942
-0.0382085
0.0419742
-0.0275831
-0.0143911
0.23673
-0.0631871
0.527842
-0.150519
-0.377323
0.0621228
0.23013
-0.292253
0.267385
-0.478381
0.210996
-0.493808
0.20613
0.389317
-0.128206
-0.0424068
-0.433234
-0.509642
-0.0439937
0.553636
0.301093
-0.00518224
-0.295911
0.0653197
-0.0455278
-0.0197919
3.36481e-05
0.0117754
0.0797103
-0.316711
0.237001
-0.557999
0.109148
0.489573
-0.222188
-0.437979
0.653835
-0.215856
-0.366429
0.163235
0.203194
0.197072
-0.176382
-0.154806
-0.271989
0.0247247
0.00370426
0.297389
0.35691
-0.499165
0.142255
-0.0322569
0.0375511
-0.347974
0.477695
-0.129721
0.000453977
0.000824376
0.358486
-0.259917
-0.0985687
0.0015423
-0.125966
-0.0515113
-0.0635614
-0.128739
-0.00999306
0.138732
0.42744
-0.292458
0.0136327
-0.0879884
0.0743558
0.197517
-0.0378714
-0.000359605
-0.000356245
-0.0745198
0.011163
0.0633568
0.0712012
0.0365474
0.406879
0.1245
0.24345
-0.628529
0.143883
-0.189065
0.0451824
-0.000999799
0.000266499
0.0007333
-0.638909
0.39266
0.246249
-0.000229533
0.186491
0.285211
-0.471702
0.112985
0.330756
-0.443742
-0.0287661
-0.170027
0.0408693
0.0244406
-0.0265912
0.00215065
0.00612631
-0.0054891
0.000468725
0.0239719
-0.262833
0.260317
0.00251589
-0.102236
-0.374204
0.476441
0.503214
-0.418924
-0.414305
-0.224604
-0.254496
0.322446
-0.0679496
0.20132
-0.0574372
0.198806
0.329036
0.000806195
0.000215331
-0.00102153
0.361633
-0.46387
0.127312
-0.020052
-0.10726
0.264278
0.329732
0.227793
0.00365063
0.00118843
-0.00483905
-0.222009
0.565056
0.183294
0.436566
-0.00434783
0.176952
-0.172604
-0.0551275
0.447787
0.00184303
0.0929325
-0.100199
0.101396
-0.449203
0.000365695
0.00842908
-0.00879478
-0.46034
-0.0493017
0.0249562
-0.0741262
0.00654983
-0.00618413
0.631598
-0.41183
-0.219768
0.25855
0.0990832
-0.276228
0.126986
0.149242
0.0318248
6.69593e-05
-0.0318917
-0.163343
0.312232
-0.00473792
0.0350246
-0.0302867
0.169778
-0.174126
-0.265055
0.00222156
0.093792
0.000929649
0.00206275
0.428162
-0.48234
-0.0309404
0.0320792
0.0030385
0.204345
0.120302
-0.453316
0.333014
0.332858
-0.490881
0.158023
-0.186317
0.00977519
-0.0122921
0.00251694
-0.554423
0.12033
0.434094
-0.460519
-0.0654714
0.139279
-0.134194
-0.00508475
0.102273
-0.0110152
0.390827
-0.181673
-0.209155
0.530401
-0.0854391
-0.444962
-0.578544
0.146243
0.4323
0.531447
-0.467251
0.00290913
0.00155379
-0.612434
0.329423
-0.430626
0.375499
-0.0265655
0.485355
-0.45879
0.487792
-0.154934
-0.0193998
0.0114726
-0.00169742
0.230949
0.127537
0.00310127
0.226512
0.688402
-0.299447
-0.388955
-0.0190032
0.0189838
1.94404e-05
-0.00423595
-0.00421929
0.368733
-0.348258
-0.020475
0.268179
0.0937265
-0.0334388
0.0322223
0.00121656
-0.00189752
0.00362039
-0.00172287
0.342593
0.291715
-0.631805
0.285459
0.346346
-0.404261
-0.0389014
0.443163
0.283435
0.404966
0.0162053
0.187759
-0.382791
0.303754
-0.364987
-0.175088
0.540075
0.0561832
0.154944
0.000861236
-0.00130011
0.000438877
0.204171
0.378923
-0.583094
-0.298995
0.485487
-0.402057
0.331708
0.0703492
0.32606
0.305538
-0.273709
0.186555
-0.0346562
0.566103
-0.193795
0.00537332
0.188421
0.0338105
-0.21221
-0.421513
0.401164
0.333048
0.0356846
0.224488
-0.229056
-0.195802
-0.00283432
-0.200363
-0.000985814
-0.000710925
0.00169674
0.52319
-0.116311
-0.197512
0.163804
-0.180706
-0.00152234
0.033775
0.00804363
-0.0418186
-0.233919
0.242072
-0.633703
0.349965
0.283738
0.144551
-0.0052713
-0.0115233
0.209418
-0.196339
-0.0883629
0.128794
-0.00974048
-0.436077
0.334687
0.101391
0.0758382
-0.0628497
-0.0129885
-0.380774
0.44983
-0.069056
-0.503648
-0.0490321
0.55268
-0.0747862
-0.0237782
0.0985644
-0.210082
0.244214
-0.342213
0.0979994
0.00177108
0.00259929
-0.00437037
-0.4856
-0.146205
0.157102
-0.352462
0.291371
0.0610918
0.0214296
0.153278
-0.00199242
0.00100661
-0.0993041
-0.176924
-0.567145
0.162726
0.40442
-0.475424
-0.101674
0.577098
-0.55213
0.19619
0.35594
-0.571492
0.188031
0.383461
0.10163
-0.505892
0.365321
0.151532
-0.367629
-0.0344281
-0.50555
0.197893
0.307657
0.195993
0.37918
0.0231208
-0.00963546
-0.0134854
0.127636
-0.000324392
0.0324773
-0.0372152
0.325266
-0.223808
0.0560874
-0.436861
-0.000287914
0.0321127
0.0419253
-0.371398
-0.00267456
0.0431369
-0.0404623
-0.54804
0.0726156
0.242998
0.14783
0.20091
0.36936
0.00856536
-0.0344226
0.0258572
-0.236089
0.04137
0.194719
-0.0928339
-9.96667e-05
0.0929336
-0.192997
-0.368465
0.572636
0.00546016
-0.0772763
0.0718161
0.468652
-0.533913
0.000141326
-0.194623
-0.310927
0.343296
-0.275059
-0.0682368
0.0088524
0.487756
-0.281612
-0.000538074
0.00786441
-0.00732634
-0.0015855
0.00102252
0.000562989
-0.135861
0.501182
-0.215422
-0.318071
0.533493
-0.113977
-0.31386
0.427837
0.307875
0.208399
-0.516274
-0.000201305
0.4915
-0.387245
0.217181
-0.180458
0.266908
0.279674
0.183946
-0.189011
-0.110557
-0.358439
0.246071
0.112368
0.00434686
0.000137335
-0.00448419
-0.442293
0.0207805
-0.0724393
-0.129684
-0.204895
0.334578
0.0261853
0.274989
-0.00183286
-0.0182795
0.0201123
0.361575
-0.264841
0.118014
-0.557043
-0.297591
0.538985
-0.231459
-0.307526
0.119091
-0.564429
0.00823193
0.0187231
-0.026955
0.000574188
-0.023579
0.494808
-0.236123
-0.258685
-0.14029
0.441697
-0.301407
0.125514
0.322394
-0.447908
0.0617202
0.0670738
-0.00131949
-0.0105701
-0.0884252
0.291222
-0.202797
0.326883
-0.198464
-0.000699041
0.00150524
0.35782
-0.109407
-0.130515
0.407076
-0.27656
0.128108
-0.512629
0.38452
0.0278476
0.0374721
-0.275321
0.337444
0.634613
-0.447567
-0.187046
0.0694541
-0.573102
-0.00577016
0.114687
-0.108917
-0.0368219
0.0453873
0.15808
-0.189383
0.208105
0.338929
-0.547034
0.24817
0.0355223
0.0412991
0.18328
-0.403217
0.531326
0.526244
0.085378
0.0169233
0.0061975
0.636842
-0.400218
-0.236624
-0.00679991
-0.00319413
0.00999404
0.433442
-0.013339
-0.420103
0.000682952
-0.00120392
0.000520964
0.279251
-0.230458
-0.0487937
-0.474372
0.109385
0.000297263
-0.00326118
-0.000489786
-0.000411103
-0.104369
-0.351024
0.476537
-0.0885299
0.403314
0.0155789
-0.356188
0.001842
-0.00519957
0.00335757
-0.204201
0.195664
0.0201932
0.021781
-0.0992269
0.00170552
0.175246
0.00401661
0.255205
-0.175886
0.166985
0.00890075
-0.288781
0.0421615
0.246619
0.067031
-0.0533983
0.67406
-0.404002
-0.270057
0.215923
0.278885
0.564719
-0.329811
-0.234907
0.576599
-0.210592
-0.366007
0.416138
-0.379597
-0.0365409
0.0266502
0.19053
0.417527
0.256532
-0.421052
-0.131078
-0.180861
0.294216
-0.408193
0.134814
-0.482788
-0.32534
0.507893
-0.204171
0.592354
-0.388183
0.287711
0.235677
-0.523388
0.0379979
0.0657826
-0.103781
-0.116242
0.189492
-0.551241
0.361749
-0.0112119
-0.00552782
0.0167397
0.181473
-0.179768
0.00367176
-0.0404937
0.0719097
-0.0607467
0.000192666
-0.245462
0.225134
0.0203283
-0.348167
-0.113833
0.462
-0.284804
0.405106
0.0111706
0.422271
-0.00961085
-0.0636387
0.12873
0.204318
0.321882
0.242837
0.0884339
0.40086
-0.489294
0.475998
-0.108264
-0.496815
0.410034
0.0867813
-0.149026
-0.340296
0.489323
0.294135
0.122002
0.257703
0.105764
-0.363467
0.000661281
-0.126834
-0.163734
0.290569
-0.612722
0.372787
0.239935
0.283155
-0.154424
0.480837
-0.186672
0.181878
0.424007
0.207833
0.181484
-0.329752
0.200068
0.109225
-0.547204
-0.00146615
0.0383244
-0.0368583
0.358795
-0.507822
-0.251768
-0.473596
0.571793
0.173992
-0.51932
0.345328
0.337346
0.16751
-0.504856
0.30657
-0.422864
0.116293
-0.487419
0.148049
-0.177042
0.00327933
0.173763
-0.0685263
0.281169
-0.212643
-0.0262053
0.0344372
-0.239117
-0.303714
0.542831
0.00512088
0.154986
0.330891
-0.485876
-0.0108765
0.00407661
-0.000417056
0.00884614
-0.290087
0.291944
-0.00185655
-0.378012
0.123548
0.254465
0.0638724
0.196701
-0.260574
0.513942
-0.339949
-0.24987
-0.310431
0.560302
0.197528
0.290228
0.169139
0.354225
-0.488987
-0.0324066
0.0442065
0.00192136
0.121197
0.0233532
0.000775481
-0.0099219
0.00914642
-0.237745
0.491835
-0.25409
0.00328469
-0.00155574
-0.00172895
-0.572636
0.416356
-0.442922
-0.392299
-0.0440088
-0.288482
0.00147555
0.00180914
-0.277724
0.0465437
0.231181
-0.0822032
0.0843603
-0.00377065
-0.28501
-0.145211
0.0164717
-0.0349314
-0.183696
0.559105
0.127832
-0.308507
-0.0969708
-0.255492
-0.208122
-0.29162
0.499742
-0.125816
-0.311348
0.437164
0.69678
-0.331198
-0.0117549
-0.000537184
-0.0444405
0.0481123
0.213892
-0.094504
-0.302496
0.552929
-0.191184
-0.361745
-0.0270963
0.0271787
-8.23465e-05
0.275542
-0.0944586
-0.484085
0.487233
-0.320261
-0.166972
-0.0998891
0.0135936
-0.0128181
-0.235937
0.254987
0.0351929
-0.557661
0.132217
0.194666
0.00298491
-0.00186539
-0.00111951
0.275214
-0.40573
-0.00173519
-0.00060589
0.00234108
0.115991
-0.285492
-0.471174
0.346543
0.124632
0.102394
-0.0745003
-0.0278941
0.000103299
-0.0139963
0.013893
-0.00125415
0.00957793
-0.00832378
0.00255855
-0.559917
0.326897
-0.113415
-0.213482
0.00431513
-0.015527
-0.522183
0.101132
0.000172588
-0.000240052
6.74649e-05
0.414807
-0.127096
-0.204163
0.397333
0.207369
-0.445114
0.118506
0.0921414
-0.210647
0.00173944
-0.000236634
-0.182833
-0.142846
0.396463
0.48187
-0.393436
-0.579416
0.151724
0.427693
0.174582
-0.139886
-0.308052
0.132285
-0.566918
-0.463173
0.581556
-0.118383
0.153465
0.333768
-0.100334
0.080282
-0.180198
-0.447835
0.312242
-0.441984
0.129743
0.0962203
-0.00147357
0.0396848
-0.0382113
-0.311538
0.293506
-0.0178826
-0.00112059
-0.087247
0.0927072
-4.09634e-05
-0.011714
-0.171764
0.217919
-0.426041
0.111447
-0.101862
-0.00958443
-0.176879
-0.461144
0.00308053
0.0173113
0.0422858
-0.00851082
0.0162099
-0.210005
-0.369599
0.498088
-0.403783
0.20412
0.199663
-0.376021
0.447173
-0.0711517
0.00406929
-0.168526
0.164456
-0.498446
0.273309
-0.0393024
-0.0026139
0.0419163
0.132088
-0.265979
0.534041
-0.115819
0.111217
0.00460223
-0.174796
0.086991
0.0062116
-0.0061083
0.25883
-0.446285
0.187455
0.000388463
0.38267
-0.140592
-0.242078
0.0218974
-0.0237302
0.431358
-0.266073
-0.165285
-0.0946979
0.213204
0.194377
0.322837
-0.517214
0.348134
0.129158
-0.477292
0.228726
-0.322179
0.0934529
0.0229012
-0.179949
0.157048
0.206456
-0.34315
0.136694
0.50313
0.605296
-0.19957
-0.405726
0.100086
-0.0960911
-0.00399446
-0.359629
-0.205505
0.565134
0.143193
-0.449872
0.30668
-0.00107646
-0.00144897
0.00252543
0.466126
-0.207296
0.659581
-0.239436
-0.420145
-0.0859089
-0.487112
-0.00261226
0.000387304
-0.400789
0.0903574
0.486949
-0.376651
0.0955944
0.231302
0.628711
-0.184979
-0.443732
-0.326442
0.386859
-0.0604172
0.354911
0.201427
-0.556338
0.156288
0.0182941
0.0510673
-0.427089
-0.485254
0.545162
-0.0599075
-0.252453
0.357565
0.07759
0.556258
-0.320673
0.409987
-0.350838
-0.0056659
-0.116238
0.121904
0.000133281
-0.000327321
0.00019404
0.179931
0.0171407
0.217526
0.335403
0.000691167
0.0124441
-0.0131353
-0.01006
0.00952193
0.00184499
-0.00139101
-0.166231
0.00468363
0.161547
-0.00233628
0.00136622
0.343401
-0.486508
0.143108
0.360572
0.173968
-0.53454
0.430195
-0.128755
-0.30144
-0.48154
-0.00371398
-0.503986
-0.0425356
0.546522
0.000783222
-0.260469
0.2349
-0.178717
-0.158931
-0.353894
0.512826
-0.204059
0.28434
-0.0802806
0.558
-0.211224
0.290935
-0.00304226
0.000796488
-0.000698535
0.000913866
-0.180964
-0.386181
-0.376898
-0.224295
0.233148
0.266415
0.370427
-0.22046
-0.340525
0.560985
-0.504806
0.00914107
-0.010713
0.00157196
-0.00290442
0.110701
-0.107797
-0.0797384
0.285372
-0.205634
-0.156391
0.493737
-0.141802
-0.347372
0.564897
0.00482594
-0.0202795
0.0154536
-0.116827
-0.251738
0.368565
-0.248356
-0.226016
0.000323346
-0.0762512
0.297472
-0.221221
0.228157
-0.224956
0.277714
-0.400835
0.123121
-0.00314849
0.0505435
-0.047395
-0.348788
0.416648
-0.0678594
0.093912
0.30064
0.506352
-0.176551
0.000617002
-0.000929016
0.000312013
0.375774
0.147417
-0.144691
-0.00128244
0.00305352
-0.00106277
-0.114267
0.114472
-0.000205336
0.0616152
-0.0763139
0.0146987
-0.0930172
1.11993e-05
0.000161388
-0.506084
0.584256
-0.0781714
-0.124814
-0.013405
0.356298
0.324251
-0.487196
0.127567
-0.00108863
0.0103254
-0.00923679
-0.519137
0.113328
-0.0516075
0.269429
0.384405
0.000511262
0.00010574
0.0030333
-0.00493082
-0.0626426
0.325947
-0.042374
-0.00809591
0.0504699
0.000161451
0.360641
-0.228424
-0.109048
-0.249924
0.358972
-0.229348
0.64214
-0.208284
0.568547
-0.360263
-0.00960891
0.000589964
-0.00172646
0.0011365
0.182141
-0.577455
0.395315
-0.096458
-0.000158193
0.0966162
0.200429
-0.268955
5.69525e-05
0.00045431
-0.0269869
0.165291
-0.138304
-0.467062
0.635623
-0.168561
0.365733
-0.524252
0.158519
-0.211572
0.548509
-0.336937
0.510587
0.200366
0.182304
-0.421687
-0.191035
0.208225
0.348032
-0.106694
-0.00912568
0.195504
-0.172603
-0.44326
0.123487
0.319774
0.0264334
0.075961
0.373136
0.286445
0.402369
-0.0668698
-0.3355
-0.456697
0.507765
0.428087
-0.115845
0.0126639
-0.0137525
-0.00936884
-0.325805
-0.27792
0.603725
0.0804852
-0.613536
-0.110542
-0.167182
0.0865272
-0.378147
-0.00173546
-0.00127308
-0.0170064
-0.591416
0.34999
0.241426
0.296113
0.134082
0.114751
0.0446759
-0.159427
-0.00675618
-0.000760807
0.173848
-0.454732
0.141049
0.313684
0.311596
0.116492
-0.196298
-0.326313
0.315551
0.184879
-0.0993625
-0.00738657
-0.10688
0.00298346
-0.126069
0.0318066
-0.0332802
-0.189546
0.0158886
0.00476158
-0.0206502
0.655002
-0.161733
-0.101254
-0.210284
-0.00516949
-0.046497
0.0516665
-0.0944276
-0.191144
0.120594
-0.41332
0.292725
-0.0329864
0.0233509
0.0850622
-0.104259
0.0191971
-0.0120194
0.477535
-0.00398888
-0.0732874
0.152098
-0.0373465
0.0613717
-0.315544
0.254172
0.525688
-0.165116
-0.548247
0.200812
0.347435
0.151481
0.326213
0.26866
-0.475624
0.206965
0.00874893
0.0222416
-0.00313734
-0.15271
0.155847
0.00240469
-0.00181473
-0.00162348
-0.00243407
0.00405756
-0.000805469
0.000388463
-0.0145409
0.0132215
-0.091859
-0.00369099
0.09555
0.112919
0.00176789
0.638247
-0.210651
-0.427596
-0.40102
0.27571
0.12531
-0.454785
0.58707
-0.000411644
0.000858994
-0.00044735
-0.000396071
-0.000302464
0.149709
0.374618
-0.524326
0.00444129
-0.31586
0.514066
-0.198207
0.183977
-0.578635
0.394658
-0.433296
0.293006
-0.384458
0.537432
-0.152974
0.0026193
0.0357051
0.13996
0.220681
-0.203769
0.302702
-0.413945
0.111244
0.150111
-0.0289135
-0.000940046
-0.000645458
-0.0538088
0.280319
-0.22651
-0.164344
-0.0243888
0.188733
0.462765
-0.342171
0.211336
0.365263
-0.317139
0.297951
0.000528137
-0.000123831
-0.000404306
0.357537
0.168151
-0.134666
-0.320066
0.493911
-0.128178
-0.100292
0.00270374
0.00115828
-0.000464994
0.0194488
0.333481
0.301132
-0.00193252
0.113379
-0.0881053
-0.00954523
-0.0238936
0.000479758
-0.000891402
0.0256198
-0.0307893
-0.289266
0.388687
0.0932319
-0.448883
0.355651
-0.105211
-0.506411
0.0126692
-0.0139234
0.331782
0.156011
-0.225758
0.0317649
0.193993
0.363686
-0.55487
-0.594524
0.38624
0.0640119
0.00789778
0.291139
0.106229
-0.397368
0.591941
-0.431545
-0.160396
-0.335674
-0.106311
0.207041
0.0722103
0.634377
-0.367963
-0.00623968
0.0046162
-0.525484
0.453014
0.0724695
0.172413
-0.442335
0.269922
-0.101724
0.304376
0.0887364
-0.393113
-0.000743286
-0.00018573
-0.142409
0.46726
-0.324851
-0.0422838
0.308778
0.122581
0.134209
0.274461
-0.40867
-0.298255
-0.608679
0.38667
0.30988
0.131389
-0.441269
0.468246
-0.375014
0.0274872
0.561063
-0.00053574
-0.000668176
-0.20347
-0.0574022
0.260872
-0.126323
0.0861774
0.0401455
-0.336383
-0.588356
0.167323
0.421033
0.391914
-0.548696
0.156782
0.553713
0.577937
-0.309277
-0.401487
0.112221
-0.00134485
0.0022675
-0.000922647
-0.505619
0.162274
0.343345
-0.00701268
-0.170029
0.498
-0.343014
-0.000706299
0.000334351
0.000371948
0.0252965
-0.214012
-0.0124289
0.22644
0.20885
-0.223128
0.0142784
0.0722846
-0.0818955
-0.356313
-0.27739
0.27647
0.357907
0.0054279
-0.138606
0.133178
0.010793
-0.102652
-0.0979503
0.351455
-0.253505
-0.00104854
-0.00224665
0.00329519
0.209901
0.1913
-0.401201
-0.0864921
-0.00149633
0.00674161
-0.0491156
-0.593773
0.0105672
0.583206
0.340124
0.0313368
-0.371461
0.150609
-0.00839844
-0.142211
0.184547
-0.181268
0.2526
-0.296609
0.339195
-0.471872
0.132677
-0.0686925
0.296388
-0.227695
0.41764
-0.16504
-0.23087
-0.0253628
0.360344
-0.150443
0.229299
-0.388481
0.159182
0.0010528
-0.127979
0.126926
-0.468311
0.219955
0.0362807
0.000895956
-0.00224081
-0.153175
0.207903
-0.0706198
-0.137283
0.109852
-0.186103
0.0762513
0.0501033
-0.0527172
-0.158692
0.38799
0.35975
0.202122
-0.561872
-0.257279
0.00221595
-0.363054
-0.10812
-0.15782
0.515357
-0.0077217
0.322925
-0.465335
0.00152651
-0.0032617
-0.349662
0.519905
-0.170243
-0.336019
0.00269211
0.0973934
-0.189493
-0.466682
0.346732
0.11995
0.194567
-0.178362
0.35056
-0.258305
-0.434944
0.539512
-0.104569
-0.0104171
-0.00114106
-0.425692
0.324376
0.101317
-0.615815
0.363906
0.251909
-0.140183
0.417817
-0.277634
-0.00182236
0.0237197
0.455862
-0.20018
-0.0490635
0.389188
-0.0866418
0.258709
-0.194836
-0.00482856
0.00378002
0.421394
-0.248981
-0.184562
0.538763
-0.354201
0.219387
-0.216349
-0.114174
0.473924
0.114922
0.0331302
-0.0739917
0.000315885
0.0736758
0.0271967
0.34121
0.357277
-0.698487
-0.456422
-0.0403931
0.00413423
-0.00738375
0.00324952
0.000754359
-0.263892
0.0106644
0.253228
0.480148
-0.282621
-0.0673989
0.335578
-0.297205
0.4155
-0.118295
0.113286
-0.135019
0.135168
-0.000148967
0.0349356
0.000509135
-0.0354448
-0.108725
0.000184516
0.00150437
-0.00168889
0.0745312
-0.00260163
-0.0719296
0.111919
-0.505839
0.39392
-0.075743
-0.00183651
0.00486981
0.0018651
-0.00168058
-0.4716
0.350072
0.121529
0.346037
-0.652995
0.322383
0.140382
0.24669
0.20349
-0.45018
-0.00171394
-0.00348563
-0.0338921
0.44388
-0.287476
0.0346158
0.000319875
-0.260491
0.301624
0.00173979
0.037945
-0.022972
0.250202
-0.22723
-0.0120084
0.0168343
-0.00399709
0.00813132
0.0185566
-0.23837
0.219813
-0.00585587
0.0217445
0.0576263
-0.207083
0.547419
-0.340336
0.10003
-0.116159
0.0161282
-0.127487
0.169862
0.34408
-0.118116
0.420817
-0.0113858
0.0109688
0.136783
-0.406649
-0.0969137
-0.254678
0.351592
0.637629
-0.369162
-0.268467
-0.155237
0.512793
-0.357556
0.0416045
0.00153242
-0.542342
0.193307
0.349035
-0.179333
0.153369
0.0259642
0.194411
0.400261
0.411237
-0.164547
0.149919
0.321905
-0.471824
-0.37559
0.234998
0.095889
-0.0108268
-0.158181
0.499391
-0.329087
0.537312
0.332896
-0.169662
0.298367
0.143329
0.401157
-0.0967814
-0.0920332
0.00484967
0.130258
0.363619
-0.518856
0.00011166
0.000416476
0.216233
0.375708
-0.0839886
0.00999691
-0.425824
-0.189991
-0.0438447
0.0430709
0.000773739
0.0696506
-0.372073
0.302422
0.093831
-0.0935151
-0.309234
0.406301
-0.0970671
-0.476627
0.0594189
0.175481
0.237079
0.174158
0.0853589
0.237087
0.356712
0.331479
-0.54305
-0.00125882
0.00055252
-0.171951
0.446034
-0.274083
-0.133585
-0.338287
-0.372084
-0.176164
-0.469833
0.144028
-0.0120183
0.151788
-0.139769
0.000441803
-0.00151826
-0.422321
0.250371
-0.0859471
0.314673
-0.606122
0.191403
0.41472
-0.125112
0.431683
0.321227
0.185125
-0.0138143
0.231209
-0.217395
-0.0910451
-0.389681
0.0704168
0.00411444
-0.401395
0.296281
0.105114
0.474484
-0.142702
0.204873
0.334113
0.0296068
-0.00355542
-0.00165422
0.00289132
0.329132
0.199978
-0.529111
0.507962
-0.396043
-0.000939852
-0.000555141
-0.000744972
-0.0732801
0.0104304
0.26845
-0.212164
-0.108247
0.308613
-0.437436
0.0886471
-0.0348757
-0.229017
0.0622354
0.000976077
-0.0632115
0.00036177
-0.114581
-0.161458
0.0700059
-0.0937841
0.210481
-0.00163099
0.382933
-0.188555
-0.00444094
0.0769632
0.220358
-0.0567823
-0.163576
-0.0301466
-0.00313362
-0.102273
-0.506406
-0.262665
0.324036
0.192548
0.287601
-0.447427
-0.0565591
-0.282318
-0.119169
0.142887
0.261196
-0.0270695
-0.234127
-0.189756
0.462877
0.108526
-0.112217
0.0240994
0.503323
-0.527423
-0.421313
-0.167044
-0.294746
0.25987
-0.262537
0.260437
0.00209995
0.173476
-0.52066
0.347185
0.042436
-0.0419269
-0.30863
0.451823
-0.371348
0.254521
-0.191843