/*--------------------------------*- C++ -*----------------------------------*\
| =========                 |                                                 |
| \\      /  F ield         | OpenFOAM: The Open Source CFD Toolbox           |
|  \\    /   O peration     | Version:  v2012                                 |
|   \\  /    A nd           | Website:  www.openfoam.com                      |
|    \\/     M anipulation  |                                                 |
\*---------------------------------------------------------------------------*/
FoamFile
{
    version     2.0;
    format      ascii;
    class       volScalarField;
    location    "200";
    object      ddt0(omega);
}
// * * * * * * * * * * * * * * * * * * * * * * * * * * * * * * * * * * * * * //

dimensions      [0 0 -2 0 0 0 0];


internalField   nonuniform List<scalar> 
13726
(
2.14694e-07
-0.000158396
-0.0758256
-0.0139028
2.97887e-08
-0.0670328
1.6776
0.000103639
-0.000444162
-0.0197952
-1.83022
-0.00712135
-0.342514
-0.0016825
0.022812
-7.78848e-05
0.0189931
-0.0847619
-1.46165
0.000144023
0.00118608
6.07811e-06
5.83008e-06
0.0879884
0.234928
-0.00171386
0.000497737
0.00026066
1.66039e-05
-0.00195803
-0.000294038
-5.73475e-05
0.0415511
-0.000953888
-0.000218895
0.267113
-4.05057e-08
1.41104e-06
-0.00234597
-0.159844
-0.00231318
-0.000334085
0.00353529
1.37861e-08
0.000283879
-1.93377e-06
-0.000359702
-0.109582
-2.66895e-05
9.99076e-06
0.000323192
-0.154167
-0.000423752
1.4826e-08
-0.000457787
4.34602e-07
-1.03784e-06
7.47133e-06
1.4997e-06
-4.37047e-06
-6.12301e-08
-2.31421e-06
0.00157118
0.0875878
-0.0221207
3.81774e-06
2.66066e-11
-0.000371613
0.000613683
-0.000358896
-4.69316e-07
-0.0763399
0.000102576
-0.0208946
0.00185293
0.00150133
2.38028e-07
0.102699
-0.0405542
0.102174
0.124429
0.00417628
-0.000162205
1.06206e-06
0.0001213
-0.674705
0.000635515
0.171611
-0.198073
-0.000471685
-0.000521041
-6.18495e-06
-6.05643e-05
8.62778e-06
-1.1992e-08
0.37246
7.85431e-06
-0.00190247
0.0138721
0.049362
0.00175907
-0.00274122
6.72533e-05
-2.24257e-06
-0.000471033
0.000562771
-0.0542312
1.50885e-05
3.11854e-08
5.30508e-05
-6.46967e-08
0.000179753
-3.06851e-08
-0.00165403
5.87209e-05
0.0257662
2.88764e-10
-0.00668042
-4.03273e-05
5.02833
-0.00778158
0.225032
-0.00243742
0.00120877
-2.72602e-08
1.66619e-07
-1.17893e-05
-0.00769915
-0.000252307
0.0982393
1.27458e-08
-0.0705177
2.43562e-07
-0.000331295
0.00105892
1.89184e-08
-0.0570232
2.54402e-05
2.06864e-06
-0.000185428
7.43954e-06
1.66165e-08
0.745978
2.05712e-07
-0.807619
1.38903e-05
-0.0160843
-0.000312598
-0.00201595
-6.21903e-05
0.0119209
-4.36816e-09
-0.0108339
0.416235
9.9599e-09
-0.00755446
-0.000740557
-5.22605e-05
-0.0115297
0.0330348
-0.00057738
-0.00119225
1.92457
0.0270754
-0.000833358
-6.19988e-05
-8.71921e-07
-1.96908e-06
-0.00185965
7.91275e-08
5.56312e-07
0.00187125
0.000495994
-6.60771e-05
-8.34447e-05
-0.000543492
-0.120872
1.88062
-2.85574e-05
-0.0415993
-0.00218475
0.00304418
-0.00225506
-0.00376028
0.0626276
-0.000954059
-0.0246621
0.000121552
0.0211612
-2.68672e-06
0.00097989
2.48673e-05
-9.69611e-07
2.60672e-07
0.0380353
-0.00150117
-1.60195e-05
0.0354061
-6.22133e-06
0.000167608
0.00147347
1.33585e-08
-1.10622e-06
-0.00135098
1.49229e-06
-0.000273903
0.00115812
-2.12535
6.73849e-07
0.0935482
1.37681e-06
-0.00264309
-0.000804531
1.8225e-05
-1.55899e-08
-1.09603
-0.00386275
9.91239e-06
-0.0823921
0.385726
-2.12586e-06
9.01796e-07
-0.0118539
-0.000199675
0.0355812
-0.000152639
1.14052e-05
0.863291
1.59357e-06
-0.00925732
-0.000640921
-0.0611603
-0.124091
-0.12263
-0.000924106
4.12085
4.20405e-11
-0.00173191
-1.25753e-05
-0.00201771
1.21348e-07
0.000710361
1.04785e-09
0.0744613
0.000773478
0.0274928
0.000122601
-1.11172e-06
-0.00188879
4.9162e-05
0.00586724
0.0314818
-7.01459e-07
-0.000424785
-7.31366e-07
1.3545
-5.67135e-08
0.00072368
0.0705856
9.61345e-07
1.29004
-8.14249e-08
-1.97748e-07
-9.80639e-06
3.64176e-08
-0.00212119
-7.50275e-05
0.000120043
-0.0129707
0.178512
0.000990178
-3.20393e-10
0.0774126
0.0474993
-0.00940582
2.24262e-05
-0.00215915
0.000640626
-0.0187897
-0.000319866
2.33508e-06
2.30697e-05
0.00167511
0.0867683
0.00989848
0.012612
0.00271785
0.000206271
0.239273
0.0169353
0.0637899
-0.000559276
-0.0118122
-2.94509e-05
-0.00036729
-0.061331
4.69412e-11
-0.822323
-3.04026e-05
0.0819423
-0.000607908
-0.000452625
-0.000591216
-0.146717
-0.00208797
-0.00031869
-1.22508e-08
1.75395e-07
0.00234056
1.1152e-06
0.00705157
0.00154875
0.000426437
0.000564573
-0.00636158
-0.00147022
-0.000143794
-0.764596
-9.31826e-08
0.0895044
3.34293e-06
-0.000620833
0.0464994
-0.00134732
3.79146e-07
2.92992e-05
-0.13829
-0.05285
-0.00642343
1.52162e-06
-1.43479e-05
-9.99594e-05
-0.0818331
-4.9942e-06
-0.000561161
-0.00455378
2.42591e-05
0.00237391
0.00292006
-2.523
6.12974e-05
-1.57381e-07
-0.272482
0.116963
0.000796326
-1.14657
7.7064e-07
0.000428986
-4.78214e-05
-6.73284e-07
-4.52458e-06
0.00729155
-0.000303064
9.92191e-08
-1.86722e-05
-0.000541984
0.00698056
0.352793
0.0271438
-7.70645e-06
0.000638728
0.000126988
5.2494
0.301293
-4.944e-07
7.87639e-07
-0.275758
-0.000775447
0.00156218
-0.351158
8.97626e-05
-0.001643
-5.76146e-05
-0.000234093
6.08477e-05
-0.0389456
7.90757e-06
-5.05781
0.000234592
-0.0140182
0.00273689
-0.00253837
-0.00254678
1.08287e-06
0.0091757
-2.39629e-05
0.0217151
-0.00490133
-0.000214389
-3.76821e-08
1.80709e-06
3.45832e-06
-0.0336543
0.000197598
-0.000621053
-0.00231392
-0.0940967
1.30011
-0.00040155
0.00126348
0.0572629
-2.04479e-06
-0.000741426
0.000350008
0.000390223
4.73877
0.00855657
0.0110189
0.00413647
-0.001307
0.0738326
-0.000141115
0.0104338
-0.000133952
-0.0186067
4.52944e-07
-0.404109
2.46902e-06
8.93607e-05
-4.38353e-06
4.56126e-06
0.000809653
2.11828e-06
-4.56626e-08
0.00163925
6.39102e-05
0.000247256
-0.000674293
0.00136668
8.1738e-07
-0.00252626
2.14201e-07
-0.000409892
4.2755e-08
-0.119365
9.29761e-09
-7.35405e-06
1.76553e-07
0.00668463
0.00609558
-3.06665e-05
0.000468662
-2.90484e-07
-0.306008
-5.29312e-05
-5.46618e-05
-0.0535381
0.00416541
0.000288013
0.46426
-0.000126565
-3.82755
2.35429
3.20209e-06
0.0112015
0.405029
-0.000130402
5.65358e-05
0.00103851
-0.000381996
-5.65366e-07
-1.92765e-08
2.42373
-0.00220473
0.0457719
-0.202864
6.95904e-09
0.0933011
-3.13134e-07
-0.00800514
-2.287e-07
-9.01965e-07
-0.0887874
0.067024
0.243008
-0.0452896
0.0133136
0.000423812
6.6294e-05
0.00316907
1.75509e-07
2.29514e-06
5.46109e-05
0.00271102
-0.000102241
-0.0016027
3.31388e-06
0.0744229
-0.0150567
0.0625359
-0.0164553
-7.7157e-08
0.00159342
-0.0344244
0.013951
-0.000223816
0.000429765
1.33005e-07
-7.12131e-08
0.000355886
-0.996615
-0.0120162
-0.000304171
0.000140627
1.9449e-07
-0.515167
1.46805e-05
2.42764e-05
-0.000908933
-0.0281774
1.07093e-05
6.72099e-05
1.12048e-07
-5.13663e-07
-6.38422e-07
0.000384974
4.23865e-08
-3.02084e-06
-0.00107023
-9.72539e-07
0.000259313
2.74478e-06
0.000448084
-1.10601e-06
-1.17068e-05
0.481127
-5.57907e-07
0.0255836
-0.0691941
0.000164985
0.116235
2.53919e-05
1.90803e-05
-0.0151025
0.0339666
-0.0165011
-0.00577572
-1.16051e-09
-0.000746653
4.60296e-07
-4.43915e-06
-1.06489
-0.0477032
0.00029018
-2.23333e-08
6.6667e-07
-2.04874e-06
-0.000280638
-0.000283337
0.222372
5.24106e-06
-0.383258
-0.000378823
-0.00261294
-2.51452e-05
0.000459194
0.000505409
-0.0215384
1.88926e-07
6.69461e-06
7.30558e-05
-0.050749
8.985e-05
-0.0455334
0.00470128
0.101153
0.000329607
5.93321e-05
-0.46648
-0.00593558
0.00290318
-0.130428
6.03188e-06
0.000477184
-0.00242793
-0.017666
0.154575
-1.79011e-07
2.98123e-07
5.95117e-09
7.32909e-07
1.14054e-05
-0.00836479
5.14528e-05
3.44978e-05
-4.38672e-06
1.13491e-10
-0.000144479
-7.71949
0.0318647
0.00505648
-0.0012595
-0.000133747
1.06839
-0.000537898
0.001598
-4.30463e-06
6.50532e-05
0.103074
2.12004e-09
-0.137165
7.56976e-11
-3.16294e-05
7.87978e-05
-0.120774
-0.127916
0.000833796
5.26365e-07
0.528203
-1.0239e-09
-0.00193155
-0.000287096
-3.43301e-09
4.23511e-05
-1.01078e-08
-2.81732e-05
-7.4447e-10
0.000129404
0.0328315
4.55029e-07
-8.99207e-08
0.000182394
-5.10554e-07
0.140587
-0.0137262
-0.0483798
0.000129443
-1.9308e-09
-0.000121282
6.54926e-05
0.000947279
0.000184793
-0.0314148
2.48578e-07
0.00118199
0.36088
-4.71067e-06
3.37211e-07
-1.0732e-06
0.0557903
6.14627e-12
-1.73166e-05
3.6995e-09
-2.38718e-06
5.64656e-07
-0.0094904
2.79735e-06
0.00952703
-1.38766
-2.74368e-07
-1.13587e-07
-1.88608e-06
0.832809
-0.000404444
0.0223143
1.99883
4.81525e-08
-0.442469
0.078532
-0.000225558
-6.06773e-05
1.0944e-05
-0.00118155
2.57597e-07
4.18209e-07
0.0193076
0.10496
-0.000526023
-0.123598
0.000815317
-0.126664
-7.22549e-09
-0.0236229
-0.00011296
0.275168
9.67346e-07
-7.35529e-05
3.67935e-05
1.59364e-06
-1.10683
1.07716e-05
0.000229978
0.000286675
0.0265764
0.0469625
-2.27054e-06
-0.0616978
-0.0506514
0.0578671
0.00917921
0.00241902
-2.19302e-06
0.0936797
-2.5978e-07
0.000271322
6.93627e-07
2.25528e-07
0.0235243
4.27143e-05
0.00226352
8.68872
0.395487
1.21547e-07
0.000462686
0.0157271
0.000140555
3.31621e-05
-0.00691811
3.10761e-06
-3.76056e-06
-0.0507547
1.08455e-07
-1.68497e-07
0.000186033
-0.215911
-1.00105e-08
-0.124057
3.84715e-08
2.53584e-06
-0.00111624
3.97802e-07
-1.65515
-0.00526003
8.66543e-05
-2.21164e-05
-1.46177e-08
2.35532e-05
-7.43677e-06
2.65852e-06
-1.53337e-05
0.451418
-2.51688e-05
-0.00012689
0.000658004
0.0462298
0.893572
-6.25248e-06
0.000234379
-0.00178523
-0.00203554
-0.0498382
-0.000276841
0.00122707
-0.000300876
0.0168507
1.16407
-0.0119282
0.0208246
7.78016e-10
0.0115197
2.99481e-05
5.40504e-11
4.03274e-06
-3.32617e-06
-1.01692e-07
-0.0693435
0.000728627
-4.15149e-10
-4.85544e-06
-1.33105e-08
-0.00023891
-4.2301e-05
-0.313205
-1.65251e-05
-0.000152086
-1.39404e-05
5.14887e-09
1.03288e-07
0.341851
-5.25825e-08
0.0968445
9.37664e-06
3.02563e-07
-2.75512e-07
-2.99188e-06
1.40438e-06
0.00158893
0.0235261
-0.000489001
0.0513473
0.00050852
-0.00508028
-0.000703008
-1.02405e-06
7.93126
-0.0050664
0.000120571
5.92328e-07
0.000244082
1.52556
0.00844106
-7.93842e-07
2.15977e-05
-0.0645621
0.000324034
-0.0236617
0.00430316
-0.775126
0.000167987
1.10592e-08
-0.000554589
-0.083595
-2.56628e-06
-8.38101e-09
-0.0170599
-0.00180842
-4.71161e-09
-0.00746581
-2.28574e-08
-2.7398e-09
0.00187271
0.131335
5.97313e-05
-0.0334389
0.000974265
6.09385e-06
-0.000127736
-0.000202953
-3.48186e-06
-1.14426e-07
9.79652e-08
1.05781e-05
-0.746327
3.1876e-10
6.87802e-06
0.0188634
-0.0450138
0.00215152
-9.38355e-05
-0.793986
-5.995e-07
0.00526767
9.27579e-07
-6.22081e-07
2.18857e-07
4.15923e-11
-1.60441e-06
-0.00237692
3.22203e-06
5.2093e-08
0.000805389
-0.0237341
-0.0067222
0.406429
-0.000158665
-1.43157e-07
6.7768e-05
-0.692505
-0.000859447
6.87178e-07
-0.000275509
1.55991
0.205838
0.0022207
-0.197443
0.00164841
1.15544e-05
1.20826e-06
-0.0169246
-0.0150769
-0.000137373
5.12887e-07
4.54668e-07
-0.0167824
-0.000296855
2.98727e-07
2.66797e-07
1.02778
-0.0153391
0.000945607
2.50725e-07
0.000622014
0.0139938
-1.00456e-06
1.61193
-1.91932e-05
-1.21628e-05
-9.96877e-05
-2.20081e-05
2.84672e-08
0.00010644
-4.36328e-05
-1.4376e-05
0.247192
0.00612164
2.01747e-05
0.00327142
-1.79497e-05
-1.49659e-05
-0.0209449
-0.00407777
-0.0143966
2.51636e-06
1.97061e-06
7.40292e-07
4.15963e-07
1.12055e-07
-1.78554e-06
-0.000403664
4.22682e-06
-0.0149061
0.0294428
5.44022e-07
0.000615925
0.000196094
-0.000854814
-0.000225543
-6.71122e-05
7.58935e-07
0.0388066
8.46404e-08
-1.38602e-09
-2.51705e-05
-0.00760875
-1.5894e-06
0.0522412
0.0639395
-1.70902e-07
-0.00854732
-2.14289e-05
-6.0758e-06
5.19165e-07
0.0185927
9.86292e-08
-0.282087
-8.92482e-08
-8.0568e-08
0.000775488
4.42128e-08
-4.36913e-08
-6.05849e-07
-1.8486e-07
0.0431839
-0.000361375
-4.20649e-05
-1.05417e-09
-0.000206815
-2.38655e-07
0.000155863
0.879653
-6.0139e-10
-0.000169723
-6.41211e-06
4.18004
-1.44162e-06
-0.0377507
-0.0940213
4.26989e-05
0.000227293
0.000332294
0.00121484
-1.43685e-07
6.61019e-07
-0.000330744
-0.000169644
7.65287e-05
2.85124e-06
8.11654e-07
7.3213e-05
0.000720347
-2.55854e-06
-3.7231e-09
-0.000672616
-0.000312852
-1.74968e-08
-1.57465e-05
-0.111243
-2.36297e-07
2.28628e-05
-4.10616e-07
-0.000160732
0.000704079
0.0825857
1.30613e-08
-0.0122261
9.65911e-09
-0.00508425
-0.147734
-3.49111e-07
0.0269769
1.9486e-06
-4.26421e-06
0.00235063
0.000202476
-2.76557e-07
0.00429695
1.73558e-10
-8.90742e-05
-0.000930521
3.62936e-05
-0.000433918
-3.14338e-08
3.4078e-05
-0.05565
-0.186994
-4.22064e-06
-4.57118e-06
1.78957e-07
-5.06472e-06
0.000272167
-0.0330166
-0.0562723
-0.852411
3.61838e-07
-0.338914
0.000235057
0.0153438
1.07229
-0.0080058
3.30896e-07
-4.77463e-05
2.97555e-06
-4.64497
-6.52324e-05
0.000744472
-0.0105249
-0.000193263
1.0808e-07
-0.000480287
-0.0513679
-1.00574
-2.21179
2.58781e-07
2.57504e-07
3.08502
-0.0150302
-4.49739e-06
0.125567
-0.000532745
-0.600455
0.000152464
0.0240635
1.78714e-06
0.00075917
0.000118685
-4.46034e-05
-0.0316835
2.32537e-08
-0.0401591
1.27428e-06
0.000125538
1.07064
-0.640622
-0.00167995
-1.09671e-07
0.00385097
-6.0619e-06
0.0164724
0.00023569
-0.000360674
-2.66951e-05
6.15767e-05
-7.92454e-05
-6.50034e-06
3.65995e-06
0.0818824
-4.68087e-08
-0.027178
2.0255e-09
-0.00150186
0.00242411
-0.000273699
7.71525e-05
0.0160502
-2.50536e-05
0.0128122
-0.000255344
0.000336399
-0.138485
0.768958
-0.181651
0.000766574
0.000215569
-0.774797
-1.28639
-4.21702e-07
-0.0112025
0.0399136
3.22233
-0.00851216
-3.25267e-06
0.000836519
-0.00692887
1.27932e-06
-9.09703e-08
-5.31613e-07
7.91497e-06
1.44197e-05
4.61489e-06
-4.35711e-06
9.35305e-06
-0.0481732
-0.000113942
0.0506424
0.00325072
-3.93059e-05
-0.000139719
3.77811e-10
-0.00424344
-0.0267778
0.00353922
3.77826e-06
0.000418824
-2.9364e-09
-4.78791e-06
0.000216683
0.0456799
0.00157557
-0.0133133
-0.0375554
-0.000444292
-1.24523e-06
0.000760427
-0.0150345
0.000214488
0.000183763
2.67916e-08
-0.177911
3.74897e-05
-0.00053009
1.03434e-05
0.00422641
1.06001e-07
-0.00218859
-0.000582918
0.000655395
0.000183814
-2.7731e-08
1.82007e-06
0.000901708
-0.0511521
-0.000614868
-3.4119e-08
0.000191322
0.138026
-6.03364e-06
5.7746e-08
-1.18498e-07
0.291288
-3.28896e-08
0.359309
2.1816e-06
-1.1866e-07
0.226663
-0.578548
0.0278329
0.0391886
-6.12541e-08
-3.76863e-06
3.44477e-09
-3.53441e-08
-9.63993e-07
-0.00209165
-0.0287679
-0.000476426
-2.08427e-06
4.33359e-08
0.288689
0.113701
8.18085e-05
-0.894671
-3.8566e-05
1.50602e-05
3.18523e-06
0.00203005
-0.00185753
-0.00434269
-0.0899581
-2.27715e-06
0.000142501
-0.648189
-6.49332e-06
0.00368712
-0.0027911
0.000327557
2.28598e-06
1.34553e-07
1.66819e-07
0.103663
2.77626e-06
4.48836e-07
0.287462
0.000122591
-0.105999
0.106381
9.19452e-09
-0.0111316
0.0231334
-3.45483
2.78477e-06
-8.20482e-07
-0.103824
-0.0721302
2.70493e-06
-6.4995e-08
5.68617e-08
-7.8459e-05
-4.60642e-07
0.00183403
6.23286e-08
3.11503e-07
-0.108223
-0.00123178
0.0464875
-2.51948e-06
3.02783e-11
0.0338679
-2.10961e-05
-4.94272
-0.0116441
-0.0666676
-0.084523
0.000130217
-0.00485631
-5.39409e-08
7.41925e-08
7.93378e-09
-0.0281021
-0.000563456
3.50951e-07
-0.000887533
-1.61074e-08
1.87301e-05
-0.0118844
3.05391e-06
-0.0017204
0.0127797
0.000687571
0.00107117
0.000146413
0.109959
5.91901e-05
-3.44387e-06
-0.0128
0.069541
1.50422e-07
3.41475e-05
-0.0117685
-0.001571
-1.99749e-09
1.21398e-06
2.66718e-07
-1.92269e-09
6.72709e-05
2.01224e-07
-0.244258
-0.000262816
-1.98707e-06
0.365176
9.35891e-05
1.61707e-07
-1.94261e-05
2.68912e-07
0.0470483
1.21877e-08
4.71952e-08
-0.00873428
-7.64758e-05
-4.6698e-07
-0.0283784
-0.000608431
-0.0115317
-0.268692
-0.0933484
-0.0155462
7.73581e-08
0.0498871
2.3833e-07
1.85609e-08
5.42428e-05
1.54609e-07
-0.148892
0.000103964
1.88412e-06
-0.000414295
0.00858198
-1.02648e-07
-0.0661138
-0.000253441
0.00190921
0.000134025
-5.39031e-05
2.62427e-06
0.000194888
0.00398193
-7.0123e-05
-0.011202
-0.0358978
-0.0182726
-2.02701
-0.000605103
0.792428
0.118544
3.25262e-05
0.011405
-0.000152753
9.34149e-08
-0.277959
-5.28999
-0.00854777
7.57902e-07
-1.1058e-05
0.766059
0.470597
-0.00200088
-0.000112
2.56078e-05
-0.00125725
0.000390537
-4.86115e-05
-1.81529e-07
0.0179125
0.00296884
-0.0465134
1.02576e-05
-9.71944e-07
-0.00487878
-0.000166858
-0.219093
-1.26993e-05
-0.00131452
-0.00147035
-0.000681092
4.18215e-05
-0.441668
-2.42892e-05
0.000754778
1.46904e-07
9.51838e-07
0.000294369
-0.000781493
-4.22478e-07
-0.571647
-0.0254016
2.05451e-05
0.00244192
0.00110232
0.0162914
-0.000129993
-0.0022757
-0.000396295
-8.57565e-07
-0.0117108
-1.07622
0.000417544
2.19284e-07
0.00100704
0.00997414
-0.00702208
-0.00292553
0.000141124
0.0192815
-0.000365423
1.15558
-0.0242459
-1.91333
-0.00068316
-6.06174
-2.27467e-05
0.0922151
-8.97885e-10
3.41029e-06
0.816467
0.0491434
-2.6176e-07
6.66305e-05
0.0274144
0.00116918
0.00944772
0.00302976
4.16313e-06
-0.0401736
-0.00064333
0.0398203
-0.0830076
-0.00047256
0.048591
-0.000290267
-0.00083687
-5.32727e-06
-0.000688988
-0.0615485
-1.88317e-05
2.69496e-07
-0.432577
-0.0364309
0.738571
-7.78119e-08
-0.028597
0.000622659
-0.000158451
6.87906e-06
0.00040838
0.00567036
0.302618
1.29286e-06
-0.749818
0.251265
2.12564e-05
9.02548e-05
1.92635e-06
0.0335134
-6.86449e-05
-0.0118716
-0.00229111
0.0095094
3.55007e-05
-0.000768465
4.66691e-11
-0.000316991
-4.3334e-06
0.000657696
-0.00314293
0.000151999
-0.000471744
0.0507892
-4.21113e-06
4.00474e-06
-0.176716
1.18874e-08
-0.148908
-3.655e-06
-0.00631082
0.634635
0.00240813
-0.718921
0.0703124
-4.57379e-08
0.000767764
-0.0875383
4.60647e-07
-0.556348
0.00693572
6.75124e-05
-0.000816666
0.000238133
-0.0432485
-0.121277
-1.92602e-08
-3.10412e-07
-0.00281988
-0.246247
-2.83139e-09
-0.000196903
0.0402719
6.24215e-11
0.0405069
-4.39914e-05
-0.0235872
0.000768959
-0.114089
-0.00160453
-0.000227195
0.0241575
9.32463e-06
0.0423201
-0.00220491
0.0589682
0.00758549
6.17759e-07
-0.267448
-6.235e-07
0.045285
0.00354073
0.0279721
1.66525e-05
0.0210395
-0.000100746
0.113604
0.00537372
-0.0038185
3.12486e-08
-0.0198057
-0.000135959
-0.13909
0.0807339
3.12572e-05
-0.000613622
0.0505089
-3.05448
4.90228e-07
-0.0127634
2.33609e-06
-0.0114536
-1.04568e-06
-1.72755e-06
0.0190893
-3.44695e-07
-0.00438375
0.00196859
-0.00197869
0.020167
1.44833e-07
-1.6517e-05
-0.000110578
-0.0352117
-0.424617
0.000209702
1.14946e-06
1.16996e-06
-0.000135177
0.000189535
0.00114301
8.31607e-06
-18.4833
0.00392905
-2.18802e-07
0.000590702
0.053562
-4.61816e-06
6.80087e-07
-1.74746e-05
1.08209e-05
-0.000116968
-7.96301e-05
-0.000261313
-0.0129147
-1.06665
-1.8492e-06
-0.00415576
-4.16895e-05
0.00587939
-2.03982
-0.405821
0.00715351
-6.26489e-08
1.40014e-08
0.0209841
2.66959e-08
-5.62808e-05
0.360376
-1.25714
-8.27466e-07
1.23505
-0.00209423
0.024207
0.0363153
0.138775
-6.18182e-09
0.115873
8.94268e-05
-0.000189821
3.2312e-08
4.5981e-08
0.00300287
-0.0249053
5.60555e-09
0.000281851
-0.0845211
1.51762e-05
-0.00120688
-0.00248025
0.0632673
-0.00157827
0.000158763
2.78452e-08
0.00034397
-2.7454e-07
1.48197e-05
0.00231289
-3.86558e-05
-2.90547e-06
-0.00774236
0.0333413
-0.000503148
-5.51609e-05
0.00803368
-0.000261075
-8.65218
-0.000806221
-0.000299647
-0.0184785
-0.153916
0.0055838
-0.34754
-0.0712701
-0.0236605
-0.809667
0.000182348
15.9949
-3.7014e-05
5.78217e-07
0.209539
-2.27021e-05
-0.000338857
-0.450124
-0.0114063
14.7747
1.79218e-08
0.00727549
-0.0553439
-0.0002075
-0.129994
-0.00462473
0.0246119
0.0604722
0.00595877
0.00618219
-2.33276e-06
0.00452903
0.0216881
-0.0737789
0.000181025
-0.00085003
-4.37834e-06
-1.44293e-07
0.066859
-0.0145395
-0.180552
0.000128568
-0.000664638
0.000127351
6.97976e-05
0.0217606
-0.000103735
1.39276
-0.0689377
-0.000630081
0.00175888
0.0264114
0.024563
-0.548267
3.28035e-05
-1.50289e-07
0.64739
-3.99488e-06
-0.0005055
1.29575e-08
4.70018e-07
-9.22723e-05
0.0230139
0.204018
-0.00131732
-0.014832
0.000122414
1.78924e-06
0.0188468
-4.48713e-08
4.37104e-07
-8.74835e-05
-0.0539758
0.0085531
-3.95624e-07
-1.66024e-07
-0.0230873
-5.13173e-05
-0.00382401
-0.0421449
0.00023785
0.0413178
-0.0481029
2.6325e-11
0.0492374
0.000810853
-1.0401e-09
-0.189371
-0.855439
-5.25686e-06
3.7101e-06
-0.0166903
-1.5146e-05
-0.100049
0.0609533
-0.183761
0.000726284
3.13507e-05
0.021336
0.000676313
6.88659e-08
0.00647667
3.20967e-06
-0.00190718
-0.000663908
0.106535
9.71029e-07
-3.79549e-05
0.0065928
0.0810227
0.00735675
0.0221525
4.47486e-06
-7.1097e-08
-0.000233558
0.0179303
-0.848289
1.32947e-06
0.0154016
-0.0634634
-0.166811
0.0147105
8.39964e-06
-0.000477821
0.00773088
-0.141949
0.000188912
-1.40342e-06
3.76421e-05
-0.000340276
-0.000110036
0.0103608
4.86546e-06
-1.92371e-05
2.1e-11
-0.010091
0.00102236
0.0804331
0.117093
2.18979e-07
-0.00975829
0.0491257
-0.000539381
1.88028e-09
0.0523472
-0.187832
0.303614
-2.63162e-05
1.18763e-05
-0.0160241
0.0178906
-0.0854901
-9.45888e-06
3.63527e-05
-0.000201488
0.045645
-0.524279
-0.00972418
0.000328075
0.00169376
-1.22872e-08
-1.03959e-06
0.0147855
0.0021089
0.000304488
-0.0328512
-0.000460995
2.50587e-05
-0.00445578
0.204664
-0.00210445
7.92664e-05
-0.0180724
0.000630221
-0.0269571
1.06658e-06
1.0389e-07
-0.0172351
-0.0542351
0.60477
7.73519e-07
0.00040097
-0.000814269
-4.57881e-07
2.68897e-09
-2.80044
-0.0523131
-0.863357
-0.17674
1.57571e-07
-5.31507e-05
1.58036e-06
-2.92753e-05
0.134213
0.0712404
5.77315e-07
1.16612e-05
7.38918e-05
0.000101249
-0.227992
-0.055007
0.00146141
7.59192e-07
8.32135e-06
-0.0192082
-0.405673
0.0114279
-0.111321
0.287929
-0.000777449
-0.000230107
1.06404e-05
0.000258565
-0.00824049
-1.35746
5.57288e-09
-1.94124e-06
-0.00758956
0.110135
2.97029e-07
0.166574
-0.00568951
4.43158
-9.78586e-09
0.000350187
0.0774965
0.715679
-0.0293687
0.00429725
-1.71187e-06
-0.00057027
0.000332367
0.00142092
0.377754
-1.90387e-05
0.0130642
-7.91808e-08
-0.0100105
0.00596867
9.81646e-09
0.000302015
-0.30646
0.376394
-1.04514
1.27173e-07
0.0422385
0.082124
-0.139342
2.75441e-08
8.54639
-0.789627
0.00500345
0.00104091
9.93972e-12
-2.56707e-07
0.0221171
1.41655e-06
0.0435264
4.79281e-06
-9.50765e-05
0.413031
0.00193218
0.00552223
0.546804
0.00687247
1.83618e-09
0.19735
0.00239329
0.00859753
-0.00145786
1.67063e-07
0.106615
-0.000194731
3.37636e-05
-0.00535005
0.106723
-1.65712e-05
-7.82577e-07
6.24016e-05
0.0471372
-0.00575228
0.0331842
0.00782883
-0.115927
0.205334
2.24126e-05
-1.40861e-08
0.0124856
6.1639e-09
12.1106
-6.79916e-09
-9.3448e-06
-0.000128818
-0.0301856
-0.000324578
0.0487063
-2.98787e-05
0.00691057
-0.0129804
1.96161e-07
0.000243056
-0.000134389
-0.226721
-0.150993
0.0264252
0.000210532
0.00738659
-0.0038454
0.00140491
0.000538563
0.000187617
-0.000408262
-0.0200165
-0.000676248
-0.00576629
-4.50207e-08
-0.0135136
-1.86497e-07
-2.19246e-05
0.00179996
-0.201867
-0.00196173
0.313215
-0.00378654
-0.000887765
0.0101026
0.000888772
0.0363875
-0.00152158
0.000461508
0.193934
0.319306
-0.00018895
-0.502153
-0.0438041
0.0327065
-2.17087e-05
-0.000560628
3.30203e-06
-0.000684198
-3.67274e-10
-1.35534e-05
-3.08359e-08
0.0191116
0.00890083
0.000717897
0.0403396
-1.66553e-10
9.0764e-08
-0.0611314
0.000357615
-2.18842e-05
0.00122718
-2.29282e-07
-0.0627375
-0.0269305
0.088431
-1.2184e-05
-0.000771606
0.000243283
3.12863e-06
-0.0305915
-0.128849
-0.00115016
0.0483459
0.0245423
0.0583249
-5.03299e-07
-0.000119532
3.79765e-07
0.000101065
-1.02833e-06
0.000861072
-1.29126e-06
0.0394503
-0.199858
1.56982e-07
0.00957114
-2.42942e-05
0.00177119
0.0021994
-0.000815955
0.000260339
-0.0116681
3.8142e-05
-2.81974e-05
3.15631e-05
0.000614096
2.12364e-06
-4.08167e-10
0.000163218
-0.000176417
-0.00621161
-5.21447e-07
-0.307076
-0.00125309
-1.88081e-08
0.212045
-5.74806e-06
0.266723
-0.0211725
2.58916e-06
4.34064e-05
7.67035e-06
0.00952374
0.000323677
0.0029596
-0.00608645
-6.13809e-05
0.0205561
0.00332923
-0.000221415
-1.06507e-07
-4.82117e-05
-0.0135663
-0.000336363
2.59757e-07
-0.00164883
-0.000916815
-0.00011504
0.231761
-0.0113413
0.000104128
-5.72549e-05
6.02085e-07
-0.000692536
0.00018106
-0.000317078
0.0949423
-0.0017302
-0.037831
-0.00060873
7.59006e-05
0.000130927
0.00166028
5.0682e-07
-0.000279905
0.00403752
0.192492
-0.117401
-0.176128
-0.000593951
-0.0745018
-3.07551e-05
-3.47955
0.00263035
-0.000149235
0.00105445
-0.000555962
-3.15949e-07
-1.7782e-07
-0.000666054
0.230716
0.176589
-8.0299e-07
0.0315473
-0.220394
-0.000527467
-5.36157e-05
1.19164e-09
0.00443994
2.71466e-06
1.09504e-05
0.000546358
0.841592
0.196781
-0.000103392
-0.000309181
-0.156885
-0.0122616
-4.28472e-07
0.0430475
0.0106746
-0.840445
-5.15113e-07
0.00025463
4.2641e-10
-0.01536
-0.0013214
0.168298
-0.000534879
-0.00140342
0.00161663
-0.00797463
0.333893
0.000687766
0.0531435
9.4585
0.00797882
7.67885e-08
-0.00158513
0.201925
0.0594553
0.200032
-1.67383e-06
9.74142e-10
0.00211868
1.38189e-05
-2.49213e-05
0.00765633
-0.000942552
-3.08846e-06
1.0425
-0.0127343
-7.53658e-05
-0.00848767
-0.00482073
-1.41589e-05
-6.31597e-07
-1.0175e-06
0.105966
0.000188624
-2.17333e-10
-8.39224e-05
0.175356
-0.0768849
0.00325133
-0.00147705
0.00589775
1.95965e-08
-0.000531841
0.000155269
-0.03285
-4.03771e-07
2.26304e-05
-3.90487e-06
1.5005
-1.06168e-07
-1.6057
-0.0077054
-0.223237
1.80294e-06
-0.453857
-0.443002
1.06866e-06
0.00016428
0.0231017
0.0171442
0.0436406
0.000161276
-1.5988e-07
1.44278e-07
0.400059
0.00921818
-1.16114
0.000532704
-1.54041e-07
-0.000410365
-5.0522e-07
0.0270797
-7.31832e-06
0.00406573
-3.49705e-06
-0.00254776
-0.0325367
-0.000482295
-7.51126e-06
0.00151077
-4.97547e-05
1.91628
1.0194e-07
0.00337199
-1.64451e-06
-0.00157514
0.000263409
-3.4377e-05
-0.00117009
7.06288e-08
-0.0266579
0.49962
-0.000404974
0.000466655
-0.000756745
-2.28919e-05
0.00147132
1.79582e-05
0.00921662
4.62011e-07
0.00377045
-0.000326094
0.000332722
-0.0206643
5.29388e-05
-0.000257076
-0.000964912
-2.87213e-05
2.35831e-05
0.227458
-0.00180325
-0.0848223
-2.17623e-05
-7.5792e-08
-0.0333268
-0.000106674
-4.68603e-05
8.02115e-08
-1.89992e-07
-0.000156789
7.78444e-05
0.00722081
-7.6074e-08
-0.0475256
0.0201809
-0.000826615
2.06588e-05
-4.22193e-07
-0.00107324
-0.108284
1.12225e-07
-3.83048
0.0169476
-0.00185621
-0.000213321
-3.47919e-05
0.0479406
-4.29957
0.00103248
7.08155e-09
0.000320119
8.72644e-07
-1.3449e-06
0.000266722
5.49413
-0.0204482
4.64954e-06
-0.0136099
-0.00193527
6.58009e-07
-0.000957101
0.000211361
-0.00625831
2.47383e-05
-0.000117408
9.27124e-05
-6.58993e-07
-0.000408582
0.120586
3.0122e-05
-1.4629e-05
-0.00084796
-0.000315479
8.09934e-10
-9.408e-07
-0.00257644
0.108844
-0.000108438
-0.344174
-0.00138891
0.000966587
2.50997e-07
1.95071e-06
0.00468249
-1.24103e-08
-0.000103368
-0.000386546
-2.84563e-06
-0.00141932
0.22869
-0.00482035
-0.394321
0.639035
-0.000208026
-0.100433
-0.0464023
2.83079e-06
2.15555e-06
-0.52276
0.181922
1.40054e-07
-0.00387223
0.288243
0.194809
1.35181
0.500018
0.000195053
0.346112
-1.6302
-1.46633e-06
0.00282499
-0.0222008
0.0107681
-0.00598144
3.57971e-05
-2.5976e-07
0.0206539
-0.000250027
-0.865399
4.18833e-09
1.41856e-06
0.0795998
-0.00060022
-0.144718
-0.809746
0.251045
-2.88758e-08
-4.22825e-06
1.9433e-05
0.00832617
-1.02011
-0.000220727
0.000883488
-0.0204862
-1.16484e-05
-3.14505
0.0201947
-2.60811e-05
0.062585
5.61106e-07
-0.308295
-0.0679143
-0.000742645
-9.65238e-07
7.3071e-05
1.40136e-06
1.74289e-05
0.0743333
-1.14263e-05
0.000395846
-1.65029e-06
5.14359e-05
-0.0239844
-0.00010702
0.112572
2.48184e-09
-0.011404
-0.593042
1.59894e-06
0.33698
0.0248122
0.0264914
0.997268
0.245618
-0.00151987
-7.5247
-5.13186e-05
4.83746e-06
-0.0162137
0.00617039
-4.14141
-0.262395
0.123872
2.18317e-09
3.64492e-07
0.567984
-1.24544e-05
0.0146417
6.60298e-07
-0.0648872
6.61684e-06
1.52974e-09
-6.68198e-10
-5.36043e-07
0.397565
0.0179
0.0722082
1.25356e-05
-0.301418
0.0622875
-1.43689
-0.0152513
1.41489
-1.2365
-0.676281
0.45672
0.0353053
-0.409832
0.0103574
-0.07082
-0.000886793
1.10128
22.8005
-4.76919e-06
0.000459057
0.144775
-0.216802
0.0223249
-1.37159e-06
-1.53441e-06
0.00398086
-0.00194468
-4.55587e-06
4.46063e-05
0.0170946
-0.000573379
3.67384e-06
8.06626e-05
0.000241472
0.000911829
-0.371406
-0.00723555
0.1908
-0.00966563
1.08657
-1.18667e-09
-1.93932e-05
0.000655578
2.41473e-07
-0.0499822
1.59589e-05
-0.000953073
0.473008
-0.000200295
-0.00232384
-0.00176944
0.00753656
-2.16027e-06
-0.00218166
-1.30218e-06
1.67994
3.70976e-09
0.000594328
0.000429003
4.00455e-07
0.00891267
1.60495e-09
2.5428
1.90702e-06
9.04619e-06
1.10926e-07
0.0736778
-0.00288696
-0.00107075
4.10541
-4.58159e-05
-0.043545
-0.009957
-0.355689
-8.39175e-06
-5.96089e-05
-0.000720743
-0.00349225
-6.28441
-0.000107125
-3.85602e-07
5.83743e-06
-0.384734
-0.00144769
-2.90471e-07
-0.0224056
4.45158e-05
0.847237
-0.103237
0.0452155
-0.170731
0.000254352
-7.45828e-07
-0.000628107
-1.06754e-06
-0.000223977
-3.16311e-05
0.253869
-8.17868e-06
1.17146e-06
-0.0237479
-0.180083
4.38021e-05
0.0724856
-0.0614375
-0.000112276
-1.60273
-0.145405
-0.000635511
-1.09106e-07
1.35339
-0.000294243
1.06308e-06
-1.30708e-06
-0.0255736
-1.55773e-06
1.11609e-06
0.0142301
-1.84266e-05
0.000207301
-5.12115e-07
1.1625
-0.0155413
-0.000960322
-0.0610301
-0.00874216
3.46112e-05
-0.0286045
6.35239e-06
0.916757
-3.86087e-07
-0.00224854
-0.00893005
-7.37821e-06
1.55708e-06
-0.248595
0.0087906
0.000632072
-0.229727
0.000508474
1.59391
-1.97672e-06
3.48161e-10
4.28692e-05
0.000166835
0.000577245
7.6006e-05
-0.00122631
0.00980736
0.00767915
0.615078
-3.49553e-05
3.90826e-06
5.94506e-08
0.00862856
1.08141e-07
-0.248247
-1.54043
-0.0363872
0.495869
0.00167984
-0.036793
-3.96818e-07
-1.44302e-06
0.00834156
1.79979e-06
-0.000820701
-0.00812766
-0.229687
-0.853522
-0.307904
0.103059
0.439231
0.108133
-0.0380761
0.000589059
-7.92472e-06
0.00036334
18.6251
0.0340618
-7.80889e-10
-0.00026927
-0.000391704
-5.7153e-06
-0.0445806
0.000380425
-0.00147037
7.11308e-05
-0.00539879
-1.20798
9.33754e-07
-11.3825
-9.14846e-05
0.0815365
-2.83151
-5.06089e-05
-2.63365e-06
-0.0453917
-0.556785
-3.37955e-06
-1.9512e-06
-0.512773
0.353335
-2.63766e-06
-0.000968835
0.440363
-2.71676e-05
-9.01744e-05
-0.34607
-0.0158009
-0.00137892
0.175764
-0.00399966
0.329496
-0.0056849
-4.92623e-07
-4.42311e-05
-0.01266
-1.66659e-07
0.206277
3.41679e-07
8.69501e-05
-6.35309
4.88889e-10
-2.48478e-06
-0.000112538
6.12505e-05
-1.05416
7.66772e-05