/*--------------------------------*- C++ -*----------------------------------*\
| =========                 |                                                 |
| \\      /  F ield         | OpenFOAM: The Open Source CFD Toolbox           |
|  \\    /   O peration     | Version:  v2012                                 |
|   \\  /    A nd           | Website:  www.openfoam.com                      |
|    \\/     M anipulation  |                                                 |
\*---------------------------------------------------------------------------*/
FoamFile
{
    version     2.0;
    format      ascii;
    class       surfaceScalarField;
    location    "200";
    object      phi_0;
}
// * * * * * * * * * * * * * * * * * * * * * * * * * * * * * * * * * * * * * //

dimensions      [0 3 -1 0 0 0 0];
oriented        oriented;


internalField   nonuniform List<scalar> 
20386
(
-0.510245
0.297888
0.212357
0.16385
-0.194334
0.0304843
0.0335637
-0.00697403
-0.0265897
-0.0340636
0.0336914
0.000372125
-0.562018
0.299298
0.262719
0.00785155
-0.00907058
0.00121903
-0.022655
-0.070248
0.092903
0.0871758
-0.123007
0.0358312
-0.0582823
-0.0732032
0.131486
-0.0201805
-0.0340774
0.0542578
0.0699453
-0.0767885
0.0068432
-0.00207963
0.00334438
-0.00126475
0.0341178
-0.0887341
0.0546163
-0.143378
0.134208
0.00917084
0.00915851
0.0890381
-0.0981966
0.194235
-0.172249
-0.0219863
-0.12729
0.0751862
0.0521037
0.00427537
0.00134132
-0.00561669
0.0575665
0.0123788
-0.0208375
0.202521
-0.181683
-0.0858251
0.122932
-0.0371065
-0.369799
0.236653
0.133146
-0.12916
-0.237527
0.366686
-0.000318587
-0.0729257
0.0732443
-0.0106079
-0.068671
0.0792789
0.0156797
0.0197786
-0.0354583
0.128809
-0.217938
0.089129
0.251776
-0.122966
0.100651
-0.142469
0.0418179
0.102484
-0.143528
0.041044
-0.0392965
0.126472
0.227178
-0.130488
-0.0966903
0.053627
-0.0226815
-0.0309454
-0.152853
0.0121305
0.140723
0.162978
-0.146984
-0.0159941
-0.0991892
0.0885814
-0.280524
-0.281494
-0.444129
0.297655
0.146474
0.101057
-0.15934
-0.000856782
-0.00896041
0.00981719
0.153089
-0.0506054
-0.15818
-0.0278742
0.186054
0.0304852
-0.123505
0.0930193
-0.310495
0.573645
-0.263149
-0.167609
0.318087
-0.150478
-0.199003
0.45924
-0.260238
-0.0407046
0.204554
0.0169483
0.0729091
-0.0898574
-0.141475
-0.0461458
0.187621
-0.137981
0.178361
-0.0403803
0.0573473
0.0552477
-0.112595
-0.0586062
0.092724
0.123698
-0.023047
-0.297112
-0.213133
-0.0264326
-0.114518
0.140951
0.254361
0.152836
-0.407197
-0.253363
-0.190767
-0.14938
-0.220419
-0.178154
-0.183921
0.362075
0.162193
-0.286345
0.124151
0.336332
-0.624503
0.288172
0.512035
-0.332132
-0.179904
0.1784
-0.0165944
-0.161805
0.0915785
-0.0918971
-0.0135167
-0.0660747
0.0795914
0.252512
-0.381671
0.384748
-0.641672
0.256924
0.185304
-0.196531
0.011227
-0.134186
-0.0186673
0.0473032
-0.188779
0.23925
-0.388082
0.148832
-0.00019893
0.0337626
-0.187299
0.0493186
-0.0902463
-0.00691776
0.0971641
-0.144549
0.143128
0.00142125
0.00393677
0.169535
-0.173472
0.35299
-0.386534
0.0335438
-0.0213026
0.00572072
0.0155819
-0.0673792
0.0765378
-0.0771554
0.114873
-0.0377179
-0.000828937
-0.00988548
0.0107144
-0.0153794
0.0153818
-2.37645e-06
-0.17507
0.299527
-0.124457
0.44492
-0.221313
-0.223607
0.141363
-0.125623
-0.0157398
0.0874978
-0.0431985
-0.0442993
0.18924
0.0330507
0.0205762
0.0936159
-0.0021368
-0.0914791
0.196102
-0.168252
-0.0278498
0.181939
-0.207523
0.0255841
0.260537
0.0845617
-0.345098
-0.149673
-0.122099
0.271773
0.135593
-0.264476
0.128883
0.678344
-0.37348
-0.304864
0.0197874
0.0630764
-0.0828638
0.292362
-0.0318249
-0.134707
-0.00882083
-0.0345957
-0.051835
0.0864307
0.025256
0.0471252
-0.0723813
0.168013
0.0103865
-0.0451809
0.0250004
0.0183562
-0.127664
0.310074
-0.18241
0.0286799
-0.186859
-0.00416145
0.156813
-0.152651
0.00611372
0.00173783
0.299079
-0.163486
-0.650998
0.42864
0.222358
0.190599
0.00363625
-0.454306
-0.0146759
0.468982
-0.249204
0.0815949
-0.321952
0.659967
-0.338015
-0.131928
-0.0114507
0.205695
-0.226532
0.0211674
-0.104118
0.0829501
0.646051
-0.374915
-0.271136
0.0368926
0.00240606
-0.0392986
-0.185019
0.221496
-0.0364774
-0.0781728
0.0555178
-0.11729
0.0314647
0.0355757
-0.105824
-0.0349138
0.0922611
0.00314297
-0.147692
0.259104
-0.539627
0.490325
-0.153993
-0.273113
0.184017
0.0890953
-0.0669827
0.046259
0.0207237
-0.295387
0.120318
0.0237524
-0.0245813
-0.0493403
0.567532
-0.518192
0.0171595
0.0764564
0.418214
-0.180179
-0.238034
0.194958
-0.214888
0.0199302
-0.117185
0.151634
-0.034449
-0.503646
0.0512938
-0.118714
0.0674206
-0.1706
-0.102513
0.285461
0.208899
-0.494361
-0.18969
0.159606
0.0300844
0.146465
0.180813
-0.327278
0.24776
-0.558255
-0.105798
0.0724256
0.0333719
0.256865
0.188055
-0.0981919
0.027982
0.0702099
0.204057
-0.41601
0.211953
0.0640691
0.0462238
-0.110293
0.156888
-0.0318455
-0.125043
0.090526
-0.104043
-0.184052
0.0324143
0.151637
-0.139721
0.0137114
0.12601
-0.608291
0.286339
0.0796754
0.0402297
-0.119905
-0.0759039
-0.0298936
-0.291422
0.539182
-0.129302
0.147718
-0.0184163
0.041502
0.100408
-0.14191
-0.3043
0.154626
-0.0321365
0.111812
0.0238051
0.0272941
-0.0510992
0.165135
0.0309672
0.0991215
0.128057
0.0865721
-0.0627933
-0.0237787
-0.0130602
0.0287398
-0.169036
0.195554
-0.0265183
-0.315159
0.154595
0.160564
-0.23063
-0.233324
0.463954
-0.233502
0.419024
-0.185522
-0.00681277
0.142806
-0.135994
-0.212687
0.511985
-0.467233
0.171215
0.296018
-0.124634
0.151291
-0.0266573
-0.182808
0.167294
0.0155138
0.122959
-0.149391
0.197744
-0.152499
-0.045245
-0.0738735
0.220988
-0.147114
-0.000839395
-1.73866e-05
-0.0311258
-0.0514481
0.082574
0.323329
-0.11054
-0.212789
-0.0216726
-0.0453101
-0.143717
0.00900974
-0.123817
-0.0159039
-0.0102419
0.0402239
-0.029982
-0.00234607
0.0392387
-0.0295721
-0.000689683
0.0302618
-0.144094
-0.0279811
0.172075
-0.00573373
0.00475654
0.000977188
-0.237328
0.215253
0.0220753
0.0220805
-0.0231082
0.00102775
-0.243531
-0.108223
0.351755
0.113747
0.0161133
-0.12986
-0.347423
0.216441
0.130982
0.21389
0.178153
-0.392043
0.155111
0.146885
-0.301996
-0.026458
0.0352595
-0.00880151
-0.0676167
0.109119
-0.22173
0.0376783
-0.016853
0.0381189
-0.0212659
-0.405793
0.233284
0.17251
-0.183105
0.178943
0.00570134
0.163834
0.0742384
0.493293
0.0879075
0.265083
-0.0581543
-0.135101
0.193255
-0.152745
-0.141921
0.294666
0.161818
-0.219972
-0.0577807
0.0749402
-0.0486518
0.0739079
-0.242733
0.463339
-0.220606
-0.0469178
0.0204597
-0.342644
0.16449
-0.0278588
-0.0062048
0.0223021
-0.191338
-0.139343
-0.180802
0.320145
-0.310826
0.61123
-0.300404
-0.0626434
-0.0355485
0.106721
-0.124621
0.0178997
-0.186607
0.333071
0.0464934
-0.0877611
0.0412678
-0.0353569
-0.0468376
0.0821945
0.358999
0.040624
-0.399623
-0.22193
-0.245302
-0.142551
0.110414
-0.145818
0.313701
-0.167882
0.0219663
-0.0220195
5.32589e-05
-0.23724
0.163367
0.173161
0.158197
-0.331359
0.0359847
0.0505874
0.396536
-0.111075
-0.115982
0.122461
-0.00647897
0.0350221
0.0107146
-0.0457367
0.032663
-0.056341
0.023678
-0.013172
0.0512418
-0.0380698
0.0484906
-0.0158276
-0.157959
0.0977469
0.060212
-0.0363999
-0.0440349
0.0804347
0.570096
-0.586652
0.0165563
-0.154954
0.0735955
0.0813583
0.0313932
-0.274925
0.009452
-0.0101408
0.000688828
0.616528
-0.341327
-0.275201
-0.0213964
-0.103878
0.125275
-0.474794
0.0140898
0.460704
-0.0965687
0.0194133
-0.0221686
-0.025885
0.0480535
-0.0941019
0.00253648
0.0915654
0.12365
-0.0169287
-0.281449
0.487439
-0.20599
-0.0824855
-0.0340279
0.116513
0.172269
-0.0515222
-0.0757677
-0.0460816
0.0292285
-0.430474
0.209161
0.0294917
0.365094
-0.125844
0.0282466
-0.0849621
0.0567156
-0.329998
0.496334
-0.166336
0.126893
-0.0131459
-0.0235461
-0.00602598
0.215077
-0.45781
-0.021809
-0.0206245
-0.264909
0.46597
-0.201061
0.154363
0.144716
0.181376
-0.367982
0.334688
0.0835261
0.0291228
0.00376611
-0.0328889
-0.169587
-0.0558486
0.225435
-0.0211423
0.12844
-0.107298
0.0732351
0.071025
-0.14426
-0.127507
0.0633073
0.0642
-0.0323919
0.105627
0.10369
-0.578484
-0.0846289
-0.0428785
0.0540309
-0.0886266
-0.0334631
0.0975322
-0.115606
-0.199554
0.0568568
0.219094
-0.152385
-0.0667086
-0.101621
0.0438401
-0.166229
0.159416
-0.197913
0.452275
-0.150269
0.32343
0.0259426
0.115771
-0.0778344
-0.037937
0.118168
-0.114888
-0.00328044
0.109225
-0.0451507
-0.0640743
-0.101919
-0.0530353
0.000890479
-0.151672
0.150782
-0.0374857
0.0839791
0.0196575
-0.0153821
0.0522175
-0.110823
0.0586054
-0.00072878
0.135222
-0.134493
0.0339148
-0.0398946
0.00597983
-0.146102
0.16326
-0.0002822
-0.020463
-0.0149341
0.0353971
0.543718
-0.158971
0.0484021
-0.0772274
0.0288253
-0.29106
0.12046
-0.0167763
-0.0124535
0.0292297
-0.140986
0.14781
-0.00682401
-0.015488
0.0111676
0.00432037
-0.144305
0.186525
-0.0422206
-0.0411472
0.0279753
-0.141963
0.109571
0.146758
-0.125437
-0.0213209
0.24488
-0.536302
-0.245989
0.494688
-0.248699
0.138406
-0.132513
-0.00589222
0.142175
-0.389326
0.247151
0.13307
-0.122444
-0.010626
0.157798
-0.115621
-0.0421769
0.0344454
0.000814173
0.184288
-0.170587
-0.0137008
-0.00522615
-0.0101533
0.045826
-0.0108039
0.252887
-0.204247
-0.0486401
0.0248545
0.2461
0.432244
-0.0236691
0.00689285
0.251658
-0.407524
0.155866
0.00503017
0.133376
0.0207199
-0.0210801
0.000360163
0.129003
-0.128113
-0.500408
0.301405
0.0485052
0.133434
-0.0515994
0.0297904
-0.00337548
-0.00933041
-0.00615758
0.218958
-0.440575
0.221617
-0.143317
0.297681
0.116827
-0.280996
0.164169
-0.0294934
0.0090304
0.250854
-0.391534
0.14068
0.00302025
-0.132322
-0.122639
0.0401531
-0.16661
0.0331638
-0.0537969
-0.104162
-0.0324236
0.0334558
-0.00103222
-0.196915
-0.0390001
0.235915
0.18189
-0.0526618
0.079522
-0.0268602
-0.0963544
0.0445194
0.11122
-0.132617
0.0251362
0.0303478
-0.055484
0.231798
-0.496205
0.264407
2.3833e-05
0.0290989
-0.108644
-0.218634
-0.391559
0.158057
0.287381
-0.125188
-0.0456184
0.0353765
-0.0698473
0.216616
-0.146769
0.272702
-0.413467
0.140765
0.222166
0.101164
0.121506
0.0417538
0.0185156
-0.134498
-0.0852268
0.0625863
0.0226405
0.00535472
0.0167258
-0.234658
0.404346
-0.169688
-0.0732127
-0.0692562
0.0211345
0.100655
-0.0368502
-0.0638046
-0.0230428
-0.0630626
0.0861055
-0.589866
0.27904
0.149489
-0.302234
0.0290023
0.0437751
-0.0727774
-0.0790049
-0.0368567
0.115862
0.0102561
-0.131342
0.121086
-0.0505794
-0.0338876
0.0844671
-0.0598992
0.265594
0.123789
-0.0471087
-0.0766808
-0.265487
0.0959005
-0.00424419
-0.136742
0.0960984
-0.293013
-0.0180894
0.0489209
-0.0308314
-0.188496
0.337351
-0.148856
0.0945099
-0.0662633
0.0642407
0.0595488
0.0233828
-0.0234712
8.84342e-05
0.00925297
0.0257565
0.0132664
-0.0390229
-0.132461
0.113912
0.0185487
-0.26861
-0.0982726
0.00802624
-0.0249863
0.147945
0.036376
-0.0622322
0.0258562
0.00310648
0.0313389
0.149922
0.163779
0.427957
0.23201
-0.160664
-0.113683
0.274347
0.427857
0.0620763
0.0340347
-0.0961109
0.188773
-0.150323
-0.0384504
0.147242
-0.0257358
0.0272358
-0.144193
0.116957
0.0326856
-0.0430158
0.0103303
-0.0462029
0.10579
-0.059587
0.0342672
-0.148873
0.159124
-0.0102504
-0.0959686
0.179061
0.244136
-0.423197
0.0512495
0.151157
-0.210618
0.0594617
0.0162899
0.202804
0.0496232
0.0510316
-0.0457002
0.00223301
0.0434672
-0.131019
0.0782864
0.0527329
0.11537
-0.084885
-0.00556392
0.158917
-0.153353
-0.0222467
0.0244736
-0.00222685
0.034569
0.218318
-0.0985006
0.00439866
0.247695
-0.163758
-0.0839372
-0.110614
0.1241
-0.0134861
0.392829
0.218401
-0.0367951
0.0851971
0.395433
-0.181543
-0.22841
0.158562
0.06873
0.314621
-0.383351
-0.219594
0.440646
-0.221052
-0.00450934
0.129877
-0.125368
0.321236
0.379752
0.236776
0.147171
-0.115019
-0.0321515
0.206139
-0.289788
0.0836488
0.195027
-0.0381626
-0.156864
-0.0330359
0.134093
0.0015338
-0.000913435
-0.000620362
0.325292
-0.493997
0.168705
-0.0919079
0.134904
-0.0429966
0.225891
0.286145
-0.115393
0.153537
-0.0381442
0.0127275
-0.478163
0.465436
-0.0326806
0.00025696
0.620772
-0.303993
-0.316778
-0.174443
0.333625
-0.159182
0.503156
-0.205268
-0.0222764
0.0229264
-0.0236727
0.000746298
-0.0377697
0.243909
0.193455
0.0275328
0.299586
-0.173606
-0.12598
-0.0373571
-0.0338321
0.0711892
-0.215856
0.0308371
-0.133798
-0.157262
0.0708961
-0.0539478
0.00107955
0.00837245
0.15295
-0.0176586
-0.135291
0.0695199
-0.0497325
0.203509
0.0799409
-0.28345
0.0527813
0.0375774
-0.0903588
0.047614
-0.0787398
0.175839
-0.00427637
0.0376092
0.0535414
-0.0911506
-0.291269
0.141513
0.149756
-0.284167
0.194642
0.0895257
-0.135083
-0.0137903
-0.153269
0.15254
0.13451
-0.3393
0.204789
0.419828
-0.4071
0.0501289
0.0355044
-0.0856333
0.115042
-0.148078
0.0944108
-0.0323346
-0.0449753
0.0607773
-0.015802
0.608571
-0.324484
-0.284087
0.0466597
-0.111243
0.0645834
0.504662
-0.571153
0.066491
0.00617391
0.0172089
-0.0617227
0.334425
0.50174
-0.207219
-0.294521
-0.0350687
0.0890996
-0.0173943
0.0304308
-0.0130365
-0.0780218
-0.0141794
-0.0912478
0.105427
0.0908974
-0.0532881
-0.118159
-0.131045
0.0205548
0.130231
-0.150785
-0.0155448
-0.10796
-0.420895
0.20799
0.212904
-0.270281
0.445088
-0.174806
-0.169096
-0.0682317
-0.000845441
0.00237924
-0.00930702
-0.198952
0.208259
0.143057
-0.123307
-0.0197495
-0.345348
0.156852
-0.0646477
0.0196724
-0.0501127
0.085928
-0.0358152
-0.0715511
-0.0136756
-0.0153066
0.0350852
-0.536929
0.321991
0.214938
0.0722864
0.00254061
0.0313742
-0.128939
0.120338
0.00860103
-0.176518
-0.0393376
0.185706
-0.227329
0.0416231
0.261747
0.0729408
-0.336487
0.530097
-0.19361
0.208972
-0.218279
-0.0272622
-0.062532
0.0897943
0.00983972
0.0806863
0.161143
-0.150886
-0.313026
0.179227
-0.208134
-0.0358422
0.0669887
-0.0311465
-0.256585
-0.0857514
0.342336
-0.275471
0.136127
0.126815
-0.0176009
-0.109214
-0.0302064
0.0144509
0.0157556
0.125212
0.174315
-0.15272
-0.0453048
0.198025
0.0283454
-0.490812
0.462467
-0.295938
-0.293928
-0.214936
0.367772
-0.0435952
0.194752
0.419849
-0.391504
0.184752
0.234271
0.0137769
-0.00513665
-0.00864022
0.232783
-0.430697
-0.00301123
-0.197405
-0.22349
-0.0591292
0.0410398
0.22253
0.125144
-0.0859932
0.0506363
0.32382
-0.187828
-0.135993
0.105256
-0.0300696
0.0440987
-0.0942114
0.167228
-0.178076
0.0108483
-0.0805643
0.0299848
-0.201736
-0.333758
0.18349
-0.019965
0.00540409
0.0165622
0.00286326
-0.0037767
-0.000146224
-0.456427
-0.0669062
0.523333
0.0324164
-0.562579
0.266641
-0.00862405
0.265489
-0.0685236
-0.0082649
-0.000702309
-0.00836827
-0.123879
0.152071
-0.0281916
0.12749
-0.583917
0.523967
-0.239588
-0.284379
-0.22452
0.420497
-0.195977
0.0466693
0.148289
0.0538377
-0.208733
0.154895
-0.0597312
0.023889
-0.384196
0.230736
0.153461
0.0636991
-0.0909613
0.0247778
-0.139296
-0.136545
0.0674023
0.0691428
0.249073
-0.288073
0.0178669
0.141248
0.0802485
-0.0192937
-0.0109127
0.246972
-0.492961
0.16426
0.169365
0.144715
0.0767205
-0.221435
-0.00404227
-0.00169146
0.153784
0.0939117
0.105266
-0.0323565
-0.119761
0.0278528
-0.0186885
-0.00261417
0.0088704
0.3112
-0.205449
-0.105751
0.0714623
-0.04246
0.000739337
0.0130375
-0.155915
0.0402943
0.0233159
-0.0759778
-0.294006
0.180584
0.113422
-0.150026
0.145517
-0.06629
-0.0702552
0.0118474
-0.0621444
0.0283687
0.0337757
0.210557
-0.396106
0.185549
-0.0792208
0.43822
-0.300864
-0.307427
-0.159324
0.484616
0.329802
-0.165541
0.0353121
-0.0376581
-0.198672
0.0459517
-0.0310107
0.212832
-0.181821
-0.182399
0.380995
-0.198596
0.393907
0.252144
0.03581
-0.288177
0.252367
-0.0304229
0.0805518
-0.046055
0.0129557
0.010373
-0.0233287
0.123647
-0.129211
-0.130828
-0.0204811
0.151309
0.0361785
0.0336649
-0.0698434
0.137815
-0.160578
0.0227634
-0.0131697
-0.129381
-0.24692
0.0535924
0.193328
0.118149
-0.24127
0.12312
-0.0235884
-0.0310299
0.0546183
0.285376
-0.531641
0.246265
-0.0137373
0.0534677
-0.0397303
0.168803
-0.236062
-0.0108584
-0.0806469
0.026322
-0.0160781
0.00711765
-0.0540231
-0.0996577
0.153681
0.418393
-0.185609
0.0468505
0.0310453
-0.0778958
-0.589224
0.327703
0.261522
0.158472
-0.143297
-0.015175
-0.0235506
0.161365
-0.592584
0.339787
0.252797
0.181074
0.113388
-0.294461
-0.596731
0.346654
0.250078
0.257163
-0.1039
-0.153263
0.601562
-0.346482
-0.25508
0.0362738
-0.0210121
0.11005
0.238907
-0.524809
0.285903
-0.307232
0.165312
0.184955
-0.0281424
0.308532
-0.497085
-0.01783
0.106411
-0.00506393
0.0377495
0.000822377
0.000518939
-0.0345541
-0.148253
0.280015
-0.582619
0.302604
0.267406
-0.150579
0.156275
-0.184149
-0.124023
-0.0216596
0.145682
-0.133906
0.1517
-0.017794
-0.00174901
0.346196
0.177771
0.00650131
0.0121171
-0.0186184
-0.033278
0.0116477
0.237426
0.358563
-0.517887
0.180492
-0.308156
0.00258958
-0.0248363
-0.330377
-0.258847
-0.0650859
0.24616
0.324968
-0.54023
0.215261
0.180815
0.278426
-0.152121
-0.100159
0.117083
-0.0169242
-0.446585
0.24918
0.0329919
0.0762331
-0.0495781
0.101794
-0.0522156
0.256584
-0.553696
-0.272721
-0.229962
0.502683
-0.428516
0.0892161
0.0788156
-0.0319651
-0.105142
0.223291
0.0369235
-0.0513399
0.0144164
0.0687395
-0.032561
-0.265141
-0.271789
-0.0475354
-0.033989
0.0815244
-0.024646
0.00725164
0.0227097
-0.272441
0.217715
0.0547263
-0.186026
-0.198171
0.0111
0.119135
-0.130235
-0.773323
0.296352
0.476971
0.247462
-0.478092
0.0394376
0.00682143
0.0310767
-0.025356
0.00137804
0.0930849
-0.041791
-0.0228783
0.134099
-0.0633799
0.0496426
-0.214656
0.425177
-0.210521
-0.0391388
0.0238322
0.132231
-0.186254
-0.0337722
-0.052221
0.26811
-0.276734
0.274519
-0.118127
-0.156392
-0.131428
0.163843
0.195689
0.0988864
-0.0633107
0.23525
-0.0544748
-0.180776
0.00921018
0.185817
-0.2098
0.10118
0.10862
-0.0946555
-0.0240589
-0.0602466
0.0948771
-0.0346305
-0.145518
-0.143933
0.289451
-0.0812316
0.119104
-0.037872
-0.000385583
0.00514213
-0.00999427
-0.111434
0.103033
0.00840163
-0.0897076
0.0995473
-0.116487
-0.312029
0.00234004
-0.0122255
-0.503639
0.344817
0.158823
-0.0411909
-0.0922066
0.133398
-0.299026
-0.263554
-0.458679
-0.314644
-0.112793
0.104736
0.00805664
-0.271001
0.127416
0.143585
-0.00510186
0.133753
-0.128651
-0.0649276
-0.0200346
0.027483
-0.0948106
0.0673276
-0.489947
0.406606
0.0833411
-0.194859
0.0779821
0.116877
-0.0197546
-0.0930381
-0.187814
0.192522
-0.0392364
-0.153286
0.0460267
-0.252072
-0.172344
0.424416
-0.140551
-0.102095
0.242646
0.0483038
-0.0158659
-0.0324379
0.414026
-0.184497
-0.229529
-0.260758
0.50773
-0.180206
0.0298832
-0.0281755
-0.0312462
0.0594216
-0.307752
0.635455
0.0324483
0.046642
-0.0790903
-0.380705
-0.270293
0.438449
-0.230459
0.0212587
0.102439
0.240851
-0.370822
0.129971
0.032023
-0.0945551
-0.0702952
0.0338953
-0.213486
-0.0777829
0.259301
-0.0850652
-0.174235
-0.303868
-0.186079
-0.147807
-0.0323983
-0.374861
0.230304
0.144557
-0.162357
-0.131649
-0.185274
-0.046823
-0.0337413
-0.125331
-0.132823
0.258154
0.128617
-0.253948
0.113927
-0.136805
-0.00314761
0.00213217
0.00101545
-0.0991116
0.0209388
0.162965
-0.293695
0.13073
-0.116027
-0.125243
-0.0852379
-0.0320519
-0.0340671
-0.0902074
0.047507
-0.0319276
-0.0155794
-0.107804
-0.0129855
0.120789
-0.105195
0.125268
-0.0200727
0.0907061
-0.17819
0.087484
-0.00281183
0.00013422
-0.100097
0.0288886
0.0712081
-0.0673426
0.0604249
0.115773
-0.088537
-0.363733
-0.228851
-0.0170671
-0.0285513
-0.187066
-0.0839345
0.472349
0.0977465
-0.310401
0.0685577
0.241843
-0.411353
-0.665966
0.438868
0.227098
0.0363028
0.012001
-0.120524
0.0153283
0.266638
0.455053
-0.294853
-0.160199
-0.607649
0.384991
0.222658
-0.103567
-0.133673
0.130534
0.143985
-0.0428919
0.0688739
-0.025982
-0.319972
0.128998
0.190973
-0.0812844
0.171991
0.195594
0.305727
0.235345
-0.541072
0.357329
-0.258381
-0.0989473
0.0170631
-0.0646954
0.0476323
0.339828
0.161912
0.0419911
0.0443369
-0.086328
0.0233629
-0.301181
-0.202459
0.226724
-0.487483
0.18327
0.303387
-0.140422
-0.147373
0.0134673
0.00710723
0.0125502
-0.124338
0.144743
-0.0204054
-0.086603
0.0528308
-0.117628
0.133627
-0.015999
0.134381
-0.0565487
-0.0778324
0.0356518
0.0955112
-0.131163
-0.197322
-0.194238
-0.0859832
0.0210556
-0.0140573
-0.127906
-0.0292958
-0.136969
0.166265
0.263532
0.181556
-0.0319939
-0.151111
-0.093047
0.0468441
-0.0157208
0.0222221
0.557194
-0.322853
-0.234341
0.224053
-0.289139
0.0093469
-0.000786204
-0.0085607
0.184002
-0.178301
0.107546
0.0120116
-0.119558
0.105866
-0.137751
0.0318853
0.0343256
-0.0711206
-0.1734
0.516295
-0.583201
0.176713
-0.0171067
-0.0814231
0.0661552
0.296148
-0.362304
-0.268924
-0.327807
0.11874
-0.0111939
0.113026
-0.146404
0.0333772
0.244837
-0.0492678
0.0762426
-0.0269748
-0.154559
0.479527
0.182564
0.438208
0.135296
-0.0222698
-0.0139673
0.105546
0.165031
-0.22493
0.0235741
9.75354e-05
-0.0236716
0.0262833
-0.15072
0.124437
0.289194
0.0681349
-0.106867
0.261462
-0.119121
0.139676
-0.179195
-0.189342
0.368537
-0.262229
-0.142822
0.405052
-0.475889
0.266202
0.209687
-0.325532
0.174358
0.151174
0.0210897
-0.0706678
0.348561
-0.54832
0.19976
0.166376
-0.418448
-0.0708106
-0.0602086
-0.0444342
0.0938801
-0.0494459
0.0933738
-0.120432
0.0383119
-0.0131757
-0.207608
0.418166
-0.101257
0.117506
-0.0162489
0.485964
-0.202779
-0.283185
-0.100377
-0.288949
-0.0259958
0.408952
-0.382956
-0.191279
-0.395373
0.307006
-0.0401193
0.0875137
-0.0473944
0.313867
-0.381823
0.0679567
-0.125884
0.554525
-0.197339
0.178378
0.0189617
0.00216095
0.0476627
-0.0877821
0.0178363
0.0545893
0.157195
-0.205628
0.0484334
-0.461352
0.298201
0.16315
-0.293013
0.182093
0.11092
0.0382322
0.0325503
-0.0707825
-0.019808
0.125674
-0.202917
-0.227557
-0.199791
0.0232731
-0.0308655
0.0836468
-0.0255865
-0.0365579
0.0568513
0.0589202
-0.0827733
0.0383391
0.145914
-0.134814
-0.283031
0.164903
-0.295969
0.15045
-0.0911499
0.0397018
0.0306959
-0.0314041
0.000708173
-0.180508
0.234346
-0.49883
0.472834
0.477782
-0.137954
-0.103239
0.00307989
0.00990473
-0.150601
0.394737
0.426124
0.0516574
0.0444444
-0.0652562
0.0208118
0.0549026
0.0794785
0.139731
-0.0152661
-0.124465
0.19937
-0.1965
-0.0133002
-0.0156775
0.0322518
-0.0165742
0.317876
-0.00934396
0.056791
0.0278403
-0.0846313
0.332199
-0.229732
-0.102467
-0.359876
0.177477
0.0310031
0.182286
-0.301293
0.119007
0.0500868
0.466208
-0.0279123
-0.169427
0.234928
0.0972702
-0.160968
-0.137243
0.298211
-0.0225292
0.0606152
-0.0380861
-0.00523421
0.0150416
-0.00980739
-0.316664
0.246796
0.0698679
0.0360637
0.120482
-0.156545
-0.296794
0.135826
0.0883446
0.0945462
-0.182891
0.0763018
-0.0419762
0.05455
0.0526102
-0.10716
0.00748881
0.0248531
-0.0323419
0.333787
0.117471
-0.451258
-0.262109
0.160014
0.206562
0.207531
-0.414092
-0.151472
0.510035
-0.542684
0.255621
-0.406222
-0.119689
-0.114371
0.23406
-0.118615
-0.206917
-0.00529758
0.00125531
-0.0258366
-0.000278942
0.0261155
0.258169
0.150967
-0.124684
0.158767
0.0564855
0.122187
-0.186808
0.0646212
0.322783
-0.119274
0.176433
-0.0192377
-0.214967
-0.281238
0.00451245
0.0162075
-0.292211
0.512714
-0.220503
0.312352
0.284663
0.199748
-0.230758
0.0589082
0.0888101
-0.126721
-0.282173
0.0182975
-0.0197616
0.00146407
-0.0496369
0.0260486
-0.609051
0.391569
0.217481
-0.120282
0.0804544
0.0398278
-0.136787
-0.183184
0.114957
0.154652
-0.269609
-0.00448501
0.30214
-0.00548648
-0.0203501
-0.149033
0.44432
-0.295287
-0.0389533
0.0819821
-0.0430288
-0.269874
-0.246595
0.516469
0.384881
-0.574562
0.189681
-0.149021
0.176893
-0.0278721
0.541085
-0.604132
0.063047
-0.353933
-0.255118
0.49371
-0.302063
-0.191647
0.146347
-0.408577
0.0430463
-0.00492736
-0.0256597
0.15589
0.17185
0.0853124
0.57899
0.122109
-0.121691
-0.000417278
0.23995
-0.424447
0.0219346
-0.0202033
0.452251
-0.120835
0.099693
0.286945
0.168108
0.0392794
-0.0833142
-0.170761
0.369396
-0.198635
-0.0304977
0.0524261
-0.0219284
0.0552926
-0.0279985
0.272816
-0.157859
0.198279
-0.109935
0.141166
-0.216485
0.0753186
-0.0262516
-0.149557
0.175809
0.164098
-0.41746
-0.130784
-0.25575
0.0440139
0.123214
0.240288
-0.160347
0.272544
-0.0322558
-0.401528
0.270744
0.120832
-0.294439
0.194124
-0.0248448
-0.169279
0.0712723
0.11273
-0.432128
0.310912
0.268018
-0.57893
0.159299
-0.131699
0.152262
-0.0205629
-0.529106
0.447052
0.0820544
0.286046
-0.114896
-0.17115
-0.00312239
-0.487959
-0.131425
-0.185239
-0.213032
0.521904
-0.308872
0.153247
-0.182543
0.138527
-0.102632
-0.0358943
0.024727
0.0367101
-0.0614371
0.216519
-0.589999
0.00903279
0.026366
-0.0353988
-0.226486
0.532213
0.045019
-0.0420452
0.0214206
0.303145
-0.429866
-0.0119402
-0.102522
0.114462
-0.395222
0.208548
0.186674
-0.239502
0.392507
-0.153004
0.0126361
0.0726945
-0.0853306
0.195408
-0.00128394
-0.523703
0.310671
0.0223923
0.6174
-0.354086
-0.263315
0.235701
0.139389
-0.102873
-0.0365157
-0.159677
-0.117599
0.277276
0.151889
-0.0166667
0.553339
-0.242427
0.0272966
-0.0286451
0.0312725
-0.00262741
-0.0665369
-0.0335598
-0.203688
-0.171173
0.126717
0.298028
0.0646642
-0.362692
-0.437153
0.180569
0.192213
0.0803302
0.0013021
-0.0083534
0.0070513
0.0213356
0.000576973
-0.0219125
0.0301107
0.0432549
-0.0733656
-0.237434
-0.223917
-0.0830161
0.045659
-0.159316
0.198027
-0.0387105
0.055458
-0.10802
0.052562
0.10059
-0.0731072
0.0644693
0.0471399
-0.111609
0.319584
0.180144
0.105902
-0.105277
-0.205124
0.0404688
0.0408666
-0.0813354
-0.19018
0.244761
-0.0545808
0.0280478
0.106741
-0.0284546
0.133044
-0.236611
0.487652
-0.141456
-0.110767
-0.00815226
0.118919
-0.00222221
-0.0264229
0.0111076
0.0272044
-0.0214091
-0.0645742
0.54196
0.21671
0.313386
0.101347
-0.0517237
0.0217304
0.0101893
-0.0319197
0.155919
0.173882
0.0561966
-0.0391335
-0.0611963
-0.0965004
0.157697
-0.0224967
0.0792877
0.209161
-0.00664075
-0.0574774
-0.0382982
0.0957756
0.226547
0.191846
-0.0156877
0.0414442
-0.148806
0.0118364
0.114033
0.0359987
-0.0664964
-0.358556
-0.30741
-0.0367916
0.0217464
0.0150453
0.207048
-0.423738
0.21669
-0.156619
0.192538
-0.0359186
-0.0865963
0.0397733
0.0240969
-0.153646
0.00992877
-0.426013
-0.103093
0.128541
0.0213653
-0.149906
0.12711
-0.361769
0.109276
-0.062616
0.0265362
0.156264
-0.1828
-0.221224
0.114357
0.0516446
-0.229233
0.177588
0.132316
-0.24423
0.111914
-0.206782
0.285117
-0.244493
0.0771425
-0.0446942
0.152993
0.420652
0.00120557
-0.00498227
0.331406
0.270156
0.140607
0.00219945
0.10835
0.208963
0.00765335
-0.0303733
0.186648
-0.072617
0.113201
-0.0405835
0.119786
-0.18535
0.0655639
0.00560142
0.0173249
0.240347
-0.139167
0.0190891
0.0644836
0.0365791
-0.101063
0.031978
-0.079602
0.0777595
0.00184246
-0.190335
0.0476796
0.142656
0.112583
-0.153774
-0.0567945
0.0778842
-0.0399474
0.460998
0.0436646
0.033102
-0.00214147
-0.00125672
0.00339819
-0.0305869
0.0958598
-0.0652729
0.0927223
-0.106978
0.0142556
0.311492
-0.148992
-0.1625
-0.015333
-0.0142435
0.0295764
-0.0638986
0.0300665
0.0403101
0.274311
-0.14648
0.200879
0.219618
0.280796
-0.0475121
-0.156447
-0.114372
0.27082
0.00749113
0.326296
-0.182483
0.331084
-0.148601
0.146634
-0.0304318
0.068664
-0.0757171
-0.000879778
-0.105898
0.106778
-0.0190053
-0.109934
0.196283
-0.0386838
-0.157599
0.134031
-0.250058
0.291103
0.326297
0.0416421
-0.106188
0.0645456
-0.0653796
-0.0188325
0.431338
0.180624
0.00508202
-0.611745
-0.287866
0.174183
0.143276
-0.169528
-0.0111242
0.0386085
-0.0274844
-0.129567
0.0119384
0.0257397
-0.0356012
0.00986157
0.0322651
-0.0189987
0.0078138
0.150658
0.415434
0.0782762
-0.219495
0.14605
-0.0119263
0.104649
-0.0227798
-0.130489
-0.186993
0.524895
0.0292643
-0.0724629
-0.290257
0.204506
0.135705
-0.195945
0.0602399
-0.238936
-0.198217
0.0210949
-0.0703627
0.486368
-0.111202
0.00169959
-0.181369
0.157247
0.0241219
0.0210156
0.135725
-0.156741
-0.522147
0.229936
0.222753
0.167021
-0.389774
-0.0389547
-0.0598693
0.098824
0.021622
0.123682
0.520701
-0.261597
0.0243773
0.166819
-0.191196
0.0350523
-0.0279451
0.182218
0.129274
0.227356
-0.407536
0.706116
-0.441491
-0.264625
-0.0233562
-0.0400238
0.399967
0.0876851
-0.0373529
0.0856926
-0.0483397
0.190827
-0.444366
0.25354
-0.162201
-0.0912049
0.0435368
0.0476681
-0.010886
0.05542
-0.044534
-0.00128575
0.000132987
0.00115276
-0.0139991
0.00466873
-0.581296
0.517694
0.0636014
0.211273
0.193073
-0.598507
0.298142
0.300365
0.269114
0.437002
-0.267035
-0.0118245
0.125737
-0.00464016
0.117142
-0.112502
-0.0270977
-0.121887
0.148985
-0.0025954
0.298744
-0.218803
-0.220395
0.439198
0.0416485
-0.0641777
-0.000415431
-0.0108746
0.01129
-0.0411253
-0.166398
-0.0975386
0.0334608
0.0640778
-0.184043
0.281974
-0.097931
-0.413951
0.175015
0.354087
-0.128487
-0.225601
0.179547
-0.173935
-0.00561253
-0.126209
0.0154423
0.0370044
0.00321952
-0.0130486
0.0113571
0.141493
0.050446
-0.259179
-0.0417857
0.0718964
0.134125
-0.135193
0.122024
0.109291
-0.0120644
-0.0972268
-0.0961202
-0.0946358
0.190756
0.430543
-0.203997
-0.522609
0.304874
0.217736
0.353083
0.174864
-0.527947
-0.0955352
-0.172219
-0.187657
-0.107468
0.285401
-0.177933
0.0775573
-0.00803738
-0.102139
-0.0108361
0.112975
-0.0127075
-0.000341038
0.0443788
-0.0677349
0.563173
-0.0374075
0.101877
0.0599146
0.0208488
-0.0807633
-0.0866591
-0.00815147
-0.194967
-0.43261
0.199287
0.00446477
-0.0840667
-0.0128322
-0.013098
0.0259302
0.295432
-0.538714
0.398063
0.140651
0.19082
-0.158238
0.29975
0.174892
-0.0471935
0.512371
-0.438852
0.289818
-0.0858606
0.0245412
0.0613193
-0.112339
-0.0119655
0.124304
-0.0172878
0.0177682
-0.000480439
-0.120757
-0.152153
0.272909
0.325095
0.27192
-0.0344022
-0.134246
0.0738555
0.0319344
0.0137626
0.0321282
-0.0458909
0.0252911
0.0809483
-0.0764836
0.187831
0.0245291
-0.21236
-0.0556803
0.11023
-0.365622
-0.242027
-0.50663
0.0345144
0.472115
-0.577223
0.288962
0.288261
-0.0185645
-0.0182272
-0.143485
-0.0227446
-0.305899
-0.0957375
-0.586905
0.286041
-0.385622
0.20482
-0.0241644
0.0252359
-0.00107158
0.316323
0.0352882
0.104101
0.0168244
-0.098056
0.0480428
0.119251
-0.0677918
0.117787
-0.0499951
-0.100094
0.0117401
-0.0895745
-0.184773
0.152779
0.387361
-0.100416
0.00886582
-0.0274303
0.00624705
0.018472
-0.024719
0.0161778
-0.572721
0.226376
-0.0940602
-0.0860817
0.106958
-0.0208761
-0.00792234
-0.123777
-0.402711
-0.136003
-0.207098
-0.200426
-0.288958
-0.235852
-0.242832
0.108988
0.075967
-0.0401736
0.393257
0.0465611
0.0275319
-0.074093
0.00748945
-0.179738
-0.14089
-0.14214
-0.0448087
0.0867998
0.230452
-0.223538
0.423353
-0.199815
0.329579
-0.148203
0.259668
0.267611
-0.527278
-0.104652
0.0836394
-0.297331
-0.279892
0.322282
-0.0144213
0.00918707
0.151971
-0.247383
0.474107
-0.0223713
-0.0272091
0.142251