/*--------------------------------*- C++ -*----------------------------------*\
| =========                 |                                                 |
| \\      /  F ield         | OpenFOAM: The Open Source CFD Toolbox           |
|  \\    /   O peration     | Version:  v2012                                 |
|   \\  /    A nd           | Website:  www.openfoam.com                      |
|    \\/     M anipulation  |                                                 |
\*---------------------------------------------------------------------------*/
FoamFile
{
    version     2.0;
    format      ascii;
    class       volScalarField;
    location    "450";
    object      ddt0(omega);
}
// * * * * * * * * * * * * * * * * * * * * * * * * * * * * * * * * * * * * * //

dimensions      [0 0 -2 0 0 0 0];


internalField   nonuniform List<scalar> 
13308
(
-0.00847542
-0.000831956
0.376057
-5.02013e-08
1.43927e-05
-0.000150407
2.17892e-05
0.436123
9.0701e-06
6.47716e-06
-0.00116202
-0.0143009
-0.501779
2.12704e-05
-5.70356e-05
1.59499e-05
2.75966e-05
-9.18392e-06
-0.00357186
0.000317682
2.05364e-05
-1.60983e-06
-2.72579e-06
-0.0869838
0.602806
3.36595e-05
0.0705139
-8.1811e-07
-1.94254
2.43731e-07
-0.892399
0.88338
-0.0959335
-0.660899
-0.0111053
-3.62344e-05
-1.80025e-06
4.56392e-06
-2.51302e-05
-5.59297e-05
-0.00287943
0.000262939
0.212664
-0.00169772
0.191004
0.448379
-3.01875e-05
2.29748e-06
0.000779419
-1.38026e-07
0.658137
0.000710945
-7.1689e-07
0.509496
0.000292476
0.000137018
-5.66052e-05
2.01428e-06
6.88973e-06
0.00755651
-1.06871e-05
1.8179e-06
-0.000291162
-1.40785e-05
3.74525e-05
-2.57053e-05
-0.000224367
-4.6184
0.271189
-3.39128e-06
9.58998e-10
-0.000280972
7.37447e-06
-0.000161615
-0.000403076
3.0737e-06
-13.7343
0.00913588
-1.15887
-0.000363866
-2.52802e-07
0.00142657
-4.53225e-06
4.14428e-06
0.513844
1.47924e-05
-2.33344e-07
0.00131485
0.00358097
2.02844e-05
6.28795e-06
1.02454
-0.0190431
-0.00540224
-0.00029046
-0.000730151
-6.77749e-07
-0.243125
-0.00149808
-0.000631312
0.00123817
2.40777e-06
-2.34622e-05
1.81631e-05
7.41657e-06
-9.02855e-08
0.274292
0.00642589
-0.000366971
1.00106
-0.00506575
0.851627
6.54955e-06
0.398312
0.00291073
0.321378
0.00131871
0.0016759
-1.733e-05
-0.00416776
-2.96066e-05
7.15891e-06
1.72125e-05
7.80181e-05
0.00969531
-8.7083e-05
-0.0907152
9.34001e-06
-6.81415e-07
-0.955166
0.500502
-0.000255019
-3.23244e-05
0.00184299
1.20151e-05
-0.000274913
1.27288e-05
-1.97373e-05
0.517551
-1.36583e-05
0.000626215
2.88751
-1.74507
0.000948163
-0.000645157
-0.155134
0.000494595
6.74037e-06
3.72673e-06
-0.376746
-0.208799
-2.73587e-05
0.000133133
2.00902e-05
5.81437e-07
-0.000204331
-7.6726e-07
-0.000750938
0.201322
-1.33634
-0.00619134
-0.430487
0.00198418
6.10726e-05
9.00228e-06
0.0513582
-0.00146862
0.137416
0.560963
0.00376168
0.139194
6.54055e-05
-0.0464321
-0.136159
0.000226329
-9.80612e-09
-0.000335352
0.397248
-5.03787e-05
3.02814e-05
-0.0131771
-0.000162002
7.59166e-05
0.134213
0.000120857
-4.99519e-06
1.22582e-05
-2.30269e-05
7.67859e-06
-0.000733243
-0.000408202
-0.000475229
0.0919027
-0.228405
0.170037
0.597993
0.00542134
-5.8677e-07
5.0693e-05
0.152131
0.127101
0.00165505
0.00355599
-0.000246317
0.00294158
0.133834
-3.96438e-05
-5.46004e-05
3.62496e-06
-0.000470798
0.00165735
-1.3692
-2.2628e-11
-0.710793
0.00306409
-0.000558388
8.0312e-06
-0.197356
-6.5666e-06
-4.75987e-06
-0.00012987
6.03894e-08
7.2586e-05
-0.00925471
1.3704e-06
0.0210704
-0.00105851
-1.17306e-05
1.56769
0.000190772
-0.000336252
1.46549e-06
-1.73885e-05
-2.8283e-05
-0.000695063
-0.000195719
1.9523e-06
-3.85258e-06
-0.00042567
1.42996e-05
-0.000201427
0.000423609
6.35324e-06
0.552765
-0.000506615
0.00011983
0.311722
-0.00015855
2.26492e-05
5.35357e-05
-0.0254633
3.01733e-06
-0.0690847
1.83033e-09
-1.42582e-08
0.000714403
-7.46946e-07
1.37173e-05
-2.63136e-06
0.00113584
0.000769979
7.53718e-06
3.68967e-05
-1.00042e-05
-1.45855
-5.88406e-05
0.949967
-0.0203619
0.951978
0.0019962
1.02779e-06
-0.00199814
-0.000142902
-1.95261e-05
0.143997
0.445788
-3.24609e-06
-0.000162656
-0.273449
-0.000133703
0.000172108
6.78933e-06
-0.097865
0.00474821
-0.0185848
1.39225e-07
6.69898e-06
-0.0257093
-3.42786e-05
-0.000167447
0.850915
5.02061
-1.46039
5.46478
-0.000263522
1.64899e-06
0.000217653
9.78045e-07
1.23936
5.95291e-05
10.6698
0.000396832
0.00125034
2.12242e-06
-0.00456406
1.90887e-06
0.00253627
0.00680495
0.000134463
1.33834e-06
-0.00156998
-0.000634015
0.61355
-0.000100141
0.0547281
0.682842
-0.386811
-0.000675419
0.0597269
0.00133668
0.000122018
-0.000574174
0.000303649
-3.72725e-05
0.00148251
-0.027154
-2.72317e-05
5.4145e-06
0.000493705
4.62192e-05
0.168342
0.558303
0.000958922
-0.000707768
0.00196149
0.724156
0.0363979
-0.000175072
6.83425e-05
0.000157734
-0.583511
1.85359e-06
-0.000773839
-0.000962503
7.86208e-05
1.75993e-06
-0.000127008
1.39363e-05
1.67861e-05
-3.93851
-0.000123946
8.52967e-05
-0.00064353
4.34978e-05
-0.0136236
8.79656e-05
0.00183413
-0.50665
0.0307126
1.21231e-05
-0.0011365
-0.000870536
-0.0801514
-9.06296e-05
0.141863
-7.39792e-05
-0.00388906
0.554671
-6.69322e-06
0.00178642
-0.167546
0.159281
0.0403562
-0.0460419
0.000667233
0.000153125
-0.0718776
-4.86515e-05
-0.00234262
-2.07312e-05
4.4472e-06
-0.00862678
5.85038e-06
-0.0209521
0.00735516
2.07005e-05
-4.95939e-05
0.000474554
6.11249e-05
0.133447
9.67145
-0.000508271
-0.001354
0.387273
-0.000593104
-0.00684881
5.47229e-06
-0.000446422
-0.415095
-6.84614
0.000175436
0.00281113
1.76388e-05
0.0311552
-0.000357342
4.27784e-07
-6.16233e-05
-6.25282e-07
1.16318
-0.000537941
0.0697287
20.6519
-0.328157
-5.98255e-05
0.432878
-1.33061e-07
-0.00481851
4.46801e-06
-1.13255e-06
-9.47706e-05
-0.000607133
4.7211e-06
0.0112477
-0.000590778
0.462061
0.00151543
7.40257e-05
-0.246778
0.571651
-0.932428
-5.61518e-05
0.168229
-6.70403
-0.00486395
4.3476e-06
0.0103479
-1.67599e-05
-0.000542094
-0.000375421
-0.000264874
-6.45338e-07
7.80808e-06
1.00246e-05
0.00289319
-2.91448e-05
-0.0502665
0.221249
6.138e-07
-8.94112e-05
0.180097
0.178163
6.0684e-05
0.00010739
-7.36136e-05
0.00689455
0.172068
-4.193e-05
6.94897e-05
-0.553008
-0.14405
-7.02073e-05
0.00038837
-0.000309778
7.24102e-10
0.000104031
-0.000970001
-3.25739e-06
-3.22454
0.000198262
-9.80198e-05
0.000666786
1.04991e-05
0.00566751
-0.249232
-6.47566e-07
2.51534e-06
-0.000329673
1.34872e-06
0.00322711
3.17556e-11
-0.00894065
-1.23694e-08
-0.00445532
0.00607886
1.43421e-05
-1.03253
-0.000569632
0.198007
2.26717e-07
-0.00155221
-6.02935e-05
0.173857
-8.96169e-06
0.000313851
-0.000121583
0.00255302
0.102516
5.0852e-06
9.6758e-05
-2.0167e-05
-0.000242637
-0.0688149
0.00414944
0.910897
0.000617331
-19.5331
4.56039e-06
0.383866
-7.26139e-05
-0.112769
-0.00041481
0.222786
-0.388908
-0.000525609
-0.000212634
0.393572
-0.716534
7.6526e-06
0.0065196
-5.14498e-05
-0.0347469
0.982404
0.000135735
0.289201
-0.814145
-0.74949
0.029841
-0.00723454
1.12883
-0.00633402
2.45185e-06
1.99651e-06
-0.327749
-0.000446251
0.000819007
-0.000307029
0.00133787
-0.000434849
-0.00410174
1.91907e-06
-0.0352155
0.361522
0.0498825
-0.000505347
3.22366e-06
-0.00965523
7.28329e-07
0.443316
0.224882
0.098791
-5.33806e-07
3.09865e-06
-0.0563083
2.45432e-06
-0.00330457
-2.98845e-06
0.000357306
-1.88623e-05
0.425816
-9.58101e-07
1.22061e-05
-1.47294e-07
-0.02069
-1.83662e-05
4.07881e-06
0.00171837
0.0995348
-0.00580404
-3.08635e-09
-1.54773e-06
0.0303869
-1.06413e-06
9.45571e-06
0.315587
-4.73027e-07
0.26472
9.76798e-05
-3.92278e-08
-0.00201956
-0.000260891
0.000809997
0.000666031
0.00104173
0.000205589
-0.00992924
2.20904e-06
-0.000350716
3.04026e-07
0.0041327
-0.25806
1.06406e-05
1.42109e-05
6.66527e-06
-0.0296873
-0.000306873
-0.000750739
-0.000430924
0.0088737
-0.000235318
12.2553
0.0790062
-1.12679e-07
-1.14751e-07
-5.85946e-05
4.69986e-05
5.97928e-05
-2.90654
0.00969447
0.0480668
-4.95234e-05
-3.03519e-07
-1.08324e-06
-0.00465216
-0.986422
0.000159645
-0.333449
8.12666e-05
1.95831e-06
-1.66889
0.18256
1.38021
0.0011721
0.00457685
-0.513356
0.950698
-8.06779e-07
26.6142
-0.229834
0.00244226
0.000802629
4.81522
-6.75421e-05
-1.05598e-06
3.54272e-06
0.00864876
1.98564e-06
3.74875e-05
2.41774e-06
0.000110227
-1.27357
0.0227014
0.803001
0.124912
-8.28017e-07
1.62733e-05
2.89566e-05
0.000119683
-4.86611e-07
-6.113e-07
-0.000438645
0.216543
-1.13337e-05
-0.418844
6.04995e-06
-1.10775
0.00139051
5.26687e-05
1.65379e-05
4.46866e-06
0.00189507
0.000296825
-5.00333e-05
-8.60323e-05
0.276003
0.0123661
-8.51843e-07
0.0136084
4.98343e-06
6.84689e-07
7.04116e-07
-0.0776687
-0.00457278
0.00239873
-0.000792902
2.05095e-05
0.000655204
0.000852389
1.3833e-06
0.000499936
0.664121
1.94668
0.00623655
1.0589
6.27949e-10
9.28724e-05
-4.52711
1.17347e-07
-0.00163868
0.000267719
7.3383e-06
-5.78916e-05
0.000103203
-12.1048
-1.59774e-07
0.000230231
-0.00147094
-0.723228
-2.63049e-06
2.69004e-07
0.0011953
8.85822e-07
-0.000967606
-20.6195
-0.00275899
3.17047e-07
1.0268
0.33207
0.0106415
1.11155e-06
1.16274
-0.00217367
-0.338335
-0.000572813
-1.25595e-06
1.96037e-06
8.01994e-05
9.23266e-08
0.00963839
9.43576e-05
0.502833
7.51905e-06
-0.00155779
-0.642874
4.83137e-06
6.78488e-07
0.00340354
0.288079
-0.00947935
0.104317
3.68056e-07
2.26421e-06
1.92833
-6.40284e-09
3.83731e-06
6.32038e-06
14.8697
0.00142291
0.780942
5.32267e-06
0.0340066
0.28201
2.83803e-06
-0.00012141
0.00287128
7.54795e-06
-3.02409e-08
-0.000284949
-0.001002
-0.025153
-0.000268193
0.57978
-2.03226e-05
-0.247562
1.28511e-05
0.22488
-1.45217
6.77427e-07
1.55625
-0.00014157
2.35633e-07
3.37754e-05
-0.0064819
1.38457e-06
3.06026e-06
1.78813e-05
1.01573e-06
-6.65535e-05
1.71593e-05
-0.767611
-0.000229125
0.0248646
2.01455e-06
-0.000128974
0.0123765
-2.20958
-0.00244318
0.476735
-0.313701
1.23903e-10
0.500721
-0.000113479
6.21444e-05
1.54495e-05
0.000158187
-3.20319e-07
0.000299813
0.48189
0.84177
1.23727
-0.000215301
-1.78217e-06
5.40456e-05
2.04048e-05
0.000529613
-0.179022
2.06177e-06
0.000970166
0.00057427
0.0699786
-1.10832e-09
7.19806e-07
2.91398e-06
3.40506e-06
-1.07486e-05
8.36191e-06
-0.0154728
-1.18364e-06
-0.000129559
5.09383e-07
-0.139953
7.62496e-05
-0.352916
-0.000189186
-0.628124
-0.00130601
-7.16077e-05
-0.00176183
-0.000431669
8.07664e-07
0.000659769
-0.000188836
0.0701192
0.144373
-1.14388
-0.00155598
1.04235e-05
5.07883e-05
1.02898e-05
1.13209e-05
-0.00440154
3.04025e-06
-2.34716
0.000568653
-0.00157821
-0.000555433
6.04003e-05
2.06166e-06
0.000116228
1.45157e-05
-0.00531038
-8.23287e-05
0.000147076
0.0908203
-0.00130831
2.601e-07
0.00024489
1.72537e-05
-0.000383771
9.72509e-06
-0.0193043
-0.000172233
-0.631139
0.486009
-1.88412e-05
1.79377e-05
1.24668e-05
2.43121e-07
-4.75665e-07
-0.000396517
-7.03509e-05
2.0752e-06
3.73088e-05
1.62099e-07
0.000102106
0.0432505
-0.00265433
0.00137209
0.10383
3.80601e-06
8.33772e-07
-2.01018e-07
0.000507369
-0.0919889
6.82941e-06
-2.13647e-06
-1.60132e-05
-0.00862039
-0.0535245
-0.00138963
-0.000140495
0.0607249
0.00292554
-1.2806e-06
-6.18611e-05
-0.00019791
2.61385e-06
-1.35326
-9.76509e-05
-0.289393
0.58765
-0.000193001
0.395806
-0.000117039
0.19945
-0.000159879
1.05702
1.21561
-5.5369e-07
-0.000281755
-0.000111088
-7.47918e-06
0.00432629
0.421274
-0.000220374
3.94846e-10
9.73883e-06
0.000848419
-0.131242
0.436703
7.27497e-06
-0.0234631
0.000279179
-0.000190548
7.4855
3.35979e-05
1.76987e-05
-0.446361
0.000102659
-0.000176226
-9.4067e-08
-9.97656
4.44049e-06
0.0501494
-1.48718
-0.000375373
-0.0128033
-0.48668
-8.31068e-05
0.000869611
3.91101e-06
0.000294384
0.0231625
-7.22941e-07
-0.748593
-1.34189e-06
0.000219814
-3.35931e-07
-0.0834201
0.00154081
-0.265902
-0.35605
1.31644e-05
0.274003
-0.00764051
0.587822
5.83522e-07
1.88049
0.0630204
2.52638e-06
-0.00153529
-1.09502
0.0028459
-5.69031e-06
1.81892e-07
0.000101548
-0.662081
-0.000116797
-0.000451148
-0.0017048
1.81584e-06
-1.64418e-06
-2.07958e-05
8.32892e-06
0.00127807
2.24949e-05
2.16021e-06
-3.02591e-08
1.11973e-05
8.22906e-06
-0.00026
1.81679e-06
-0.00488521
7.25299e-06
6.85056e-07
-3.0836e-07
20.2647
3.25295e-06
-0.000338566
5.24891e-06
0.596859
0.00122212
12.271
-1.14262e-06
0.00138474
-0.181858
-0.000226629
-0.784709
-5.65998e-05
0.000110712
0.319936
0.00241629
0.067441
-0.102841
2.60668
-6.24054e-07
1.19675e-05
1.18555e-05
0.00162165
0.00305515
2.93931e-06
4.02395e-05
1.90998e-06
0.00093294
-0.000195784
1.981e-05
0.297748
0.924968
-1.84368
0.000209238
-7.45587
0.00091298
-0.00075334
0.067159
-0.015046
2.37817e-10
0.105226
-2.78945e-09
-5.42643e-05
0.177725
0.000829671
-7.35944e-06
0.292606
4.26157e-06
-0.0084983
-0.000327317
-4.02594e-05
-0.000572319
-0.897392
-0.178982
-0.105624
-0.490059
0.457274
0.0157884
0.000157771
-0.273664
1.21824e-06
0.257488
2.40119e-06
-0.000309752
-0.00045146
0.0938663
1.23066e-05
3.26105e-05
0.000542752
0.00504471
-0.00329754
-0.0189294
-0.106242
-7.29815e-06
4.12173e-10
6.94256e-10
1.30809e-05
0.000293608
-0.000782447
-0.000128308
-0.000236244
1.56117e-05
4.67942e-05
1.18659e-06
-0.00145449
-0.600829
-3.7458e-05
-0.718708
2.90882e-05
1.92921e-06
0.00079558
4.0194e-06
-1.66867
-1.02107e-06
-0.000540948
5.10024e-06
-0.000109205
-0.000927573
1.05216e-06
-0.000473559
0.000699212
8.236e-07
7.62676e-06
-0.000421538
-3.86014e-06
0.0493909
0.0015672
-0.00478371
9.58726e-05
8.49672e-05
-0.000398499
-1.16578e-06
0.000153264
-0.000178185
-0.000708724
0.0077728
-0.0207824
0.000631697
1.29115e-05
0.0619857
7.64681e-07
0.000543458
-0.0188129
1.02168e-05
5.46233e-06
-0.00170224
-0.00058377
3.98929e-05
-0.000144401
-5.79826e-06
-0.000179223
-1.44209
0.716287
-0.000167093
-2.06106e-05
2.82928e-07
0.000261663
-0.129677
1.67324e-05
-8.13638e-05
-9.51406e-06
-3.3973e-05
-0.116959
1.7426e-05
6.10162e-06
0.225002
3.06968e-06
0.127398
0.00143071
-0.000197066
5.64293e-05
0.349152
-9.67703e-05
-0.000803977
2.20721e-06
-0.000499432
-0.000743235
-0.00177696
0.0239633
0.0139146
-7.8391e-06
-8.67699e-07
0.000242018
-2.13169e-07
-0.000229324
0.000207752
2.27255
-0.00112927
-0.000876974
2.39588e-06
-0.00262998
-7.16637e-07
-4.0328e-07
2.08322e-05
0.00123491
-5.35697e-05
2.93285e-06
3.93174e-06
-0.0848673
0.000113834
0.00236505
-2.72341e-07
4.97237e-05
-0.0291265
0.000293938
0.864018
-0.00105343
-0.00422517
1.40657
-1.06469e-09
4.71048e-05
4.5361e-06
0.00028888
1.05149e-06
-0.000213388
-0.0158344
1.44009e-06
-0.00117559
8.66496e-05
-8.22974e-05
0.401122
0.0770156
1.2668e-05
0.000726719
3.62038e-06
0.000335222
-0.234956
-0.000303582
-1.16078e-06
2.80244e-06
4.25979e-05
2.38405e-05
-1.38132e-06
-1.2949e-07
-0.254458
0.787343
7.96789e-05
7.14135e-06
5.65696e-06
-4.04176e-07
1.03423e-05
0.00225595
-1.20946e-05
-0.458271
-0.000216175
-0.274808
0.630287
-2.66202e-07
0.000307093
-1.37693e-05
-5.00588e-06
-1.19755
0.627805
0.00180787
0.00580042
-0.00216137
0.716376
1.99417e-06
-0.0023475
-1.03884e-05
-1.06865
0.00041109
0.00173346
-0.0407437
0.00101949
-0.214396
6.24079e-05
-0.00395349
-1.19182e-06
-0.467713
0.342971
-5.74166e-05
0.361856
7.4455e-05
1.64361e-05
-0.156564
-0.00143324
-5.84788e-08
-0.00817837
2.58209e-06
3.75124e-06
4.32392e-06
-5.74331e-05
-0.00084874
0.000776756
0.556896
-0.0113968
4.16273e-06
-8.80109
-0.000153173
6.56162e-06
-0.176969
-0.0410475
-3.9044e-05
-8.32232e-06
-3.68606
0.00106231
2.22658e-05
1.09576e-05
0.00322042
0.000195356
5.63577e-05
-1.72791
-1.22635e-07
1.47196e-06
2.56211e-05
0.000393386
3.32104e-06
0.681056
2.55897e-06
0.000302287
2.5907e-06
-0.000306004
-0.00235787
-5.5755e-07
0.0690073
0.00476958
1.89656e-05
-0.000577769
-0.00119932
-2.93623e-07
0.000988266
-0.000427385
1.44433e-07
-0.00184506
-1.59924e-09
0.120598
0.0361237
-1.6211e-06
0.623641
-0.000272859
0.000137585
-0.850533
0.00038666
2.50061e-07
8.40968e-07
-0.233321
-0.0394254
-5.53588e-07
-4.79418e-07
-0.0839904
-0.264127
-1.43292e-05
0.140304
-0.238131
-0.309231
-5.24356e-05
4.1477e-05
-8.59632e-09
2.82319e-05
0.000531673
-9.81367e-07
1.99622e-06
0.000516472
2.47493e-06
0.000192909
0.254852
-0.00661932
0.404131
-0.00138889
-9.46045e-05
-0.000435376
-0.000107332
-1.59449e-05
7.72361e-05
-3.07391e-05
6.37211e-05
-0.0288325
-1.56928e-06
5.0101e-06
0.000655238
0.0012049
0.00134795
-0.195756
7.4753e-10
-5.45653e-07
-0.0128562
1.3874e-06
1.7152e-06
-0.0100255
9.63016e-06
0.58756
-3.28332e-05
1.64547e-05
-4.19715e-06
-0.00075641
9.68269e-06
-2.33502e-06
-4.44545e-05
8.89967e-05
3.234e-07
0.913027
0.000929839
-1.24885
3.98775
0.388425
0.19206
-0.000157115
-0.00136083
0.251294
0.292425
8.61749e-05
3.67044e-12
-0.000148555
1.20267e-05
4.94983e-05
-0.0845475
0.00079446
-1.21933e-06
0.0156938
-0.739545
1.06369e-05
0.845322
0.0234786
4.39194e-05
2.26455e-06
0.000454564
0.000517612
-0.000534417
0.224648
-0.000520284
0.000827702
-4.4353e-09
5.19899e-06
-3.25168e-07
5.99199e-05
0.000718463
-0.367909
2.43606e-05
0.238864
-2.20412e-05
0.00112845
-2.94512
-1.01768
-1.12454
2.99452e-06
1.01163e-06
1.38872e-05
-0.407641
-0.0854554
0.0105979
-0.00136631
-0.106177
-3.50522e-06
7.85672e-07
0.000127082
-2.39997e-06
0.000534486
-3.22669e-05
-0.000186896
0.141215
-0.00273623
-2.8275e-06
7.43325e-06
-0.00127901
0.000831717
0.185974
0.0255683
-2.50114e-06
0.206347
0.000554658
0.000126731
-0.00198033
0.258169
-1.29678e-05
-0.000644797
0.0217159
-0.000169315
2.81508e-05
4.38118e-06
0.000420713
0.000112367
9.94588e-06
8.94499e-05
0.478651
0.00411682
-0.000283599
0.00566005
-0.862699
0.271541
1.63932e-05
3.93631e-06
7.43755e-07
0.411499
2.01757e-06
-9.42381e-05
0.823236
1.25057e-06
-0.00802968
-4.79567e-05
-1.52416e-06
2.42931e-06
0.0224005
0.450622
-0.118066
1.07146e-05
3.50882e-05
-0.767291
8.06274e-06
0.109158
-0.0420866
0.0574714
-0.00150172
-7.74034e-05
0.000973622
0.000634894
0.506735
1.57724e-05
0.0758916
7.99354e-05
1.82007e-06
8.47039e-07
1.03274e-06
-4.84025
-0.000156655
-0.000297155
0.000121468
1.20188e-06
1.8293e-05
0.749892
8.10326e-05
0.000158233
-2.50261e-05
1.13991e-05
0.148069
1.80607e-06
0.208572
3.07839e-05
-0.0109377
4.34125e-06
-0.00136554
0.00412119
-0.00207931
2.17486e-05
-3.30833e-06
6.60935e-06
1.11349e-05
-0.0493172
0.0561917
4.88668e-07
0.000128148
3.42977e-05
8.24623e-05
-0.000122978
-1.73649e-08
-0.0589749
0.0133531
0.00143115
-0.000107107
-1.3775e-06
-0.395486
-2.06679e-05
-0.0454485
0.636066
7.35608e-06
9.32691e-07
0.000360242
0.000125642
-0.497491
4.82799e-07
-0.970403
2.5438e-05
3.04358e-05
0.000190186
0.000149426
0.000570802
0.129714
-0.000104481
0.402177
-0.227232
1.02033e-06
0.339752
-1.14735e-06
2.73358e-10
-3.99489e-05
0.00136098
-0.0132958
-0.000629456
2.2719e-06
-0.000218651
3.26112e-05
-1.16984e-06
-0.0495177
2.30691e-06
1.00863e-05
3.79283e-05
-0.000730512
-0.321895
-0.000553433
0.000196885
-4.38723e-05
0.00183001
2.10162e-05
1.11639e-05
-2.14684e-05
0.00273893
0.00180145
1.6674e-07
8.10366e-06
-0.0184047
1.15125e-05
7.17051e-06
0.132038
0.01633
0.00040026
0.0403227
-0.000251674
-0.000154783
-0.305472
0.0124509
0.000614752
-0.000215725
-0.103186
0.00657752
2.63191e-06
-0.000331851
-0.00138355
0.000111421
1.84388e-05
1.31887e-08
-0.0499668
-3.73526e-08
-0.605559
-0.000481957
1.04356e-05
1.20526e-06
1.04431
-1.16475e-05
4.15288e-05
2.43667e-05
-0.0320752
-2.42603e-07
1.32828e-06
8.6985e-06
0.000146851
2.02328e-06
9.32336e-07
1.95711e-05
0.00488734
0.173569
0.000187078
0.000302844
0.00895651
0.0881335
-0.000291082
0.00101088
5.86542e-06
1.89978e-05
-0.710846
0.035335
0.00162713
-2.75299e-05
-0.000117111
-0.000113333
-0.0020672
4.02267
5.5252
0.00238681
-0.000867669
0.00162034
-0.271416
-0.00777545
-0.174257
0.108113
-3.04528e-05
0.373625
-1.31282e-05
-0.714014
6.87615e-06
0.00817427
-5.99225e-05
-0.00324174
-7.35827e-07
9.4667e-06
-0.00107466
0.426388
0.000367959
-0.000204558
2.32339e-06
-0.200345
4.30279e-06
1.55058
5.2338e-06
2.35657e-05
4.15198e-06
-5.28421e-05
3.89712e-06
-0.00099945
-0.136048
-3.2812e-06
0.000272886
0.00348663
1.27854e-05
-4.93096e-06
0.000304651
-0.97245
2.93021e-05
0.000679841
0.012673
-3.58925e-09
-0.000239862
2.24549e-06
-4.04779
-0.000699261
-0.000808844
0.00196648
-0.146637
-4.20063e-05
1.7276e-06
0.00199749
0.0479233
4.53816e-06
3.61354e-06
-0.00537273
0.0496605
1.58485e-05
-0.00119525
-0.000128671
-0.568268
-0.0314559
-0.000611716
2.24103e-05
1.94648e-06
-4.48245e-05
-0.00652884
2.19204e-05
5.31742
0.000671763
-0.00160451
-0.000217194
7.95855e-05
3.21238e-05
0.000258655
1.55254e-05
2.09865e-06
0.355208
-4.33467e-05
-0.00122872
0.000417111
0.00128247
0.00078901
0.000240163
8.58162e-05
-0.0827104
-8.32857e-05
1.79174e-05
0.00303004
-0.00264718
3.18954e-05
4.86374e-08
-0.0576353
3.00759e-08
-0.00153668
-0.00655377
1.55973e-05
-0.000571822
-0.821202
-0.00042734
-0.000180217
-0.0792548
-0.0239905
-0.00039088
0.0343061
-2.32775e-05
-9.06527e-05
0.111969
2.13219e-06
-1.43856
0.00147525
0.00245023
-0.00162036
0.691899
1.69269e-05
-0.00134521
-0.148312
-5.64864e-08
0.204548
0.00345998
-0.000588973
-1.59171
2.6601
0.230591
4.9433e-06
6.517e-10
7.17134e-05
-0.272854
-0.000553364
-4.00973
0.00726972
-0.00282008
-0.0545517
-0.000187656
0.00502799
-6.42746e-05
2.9111e-05
-0.00102502
-9.29364e-07
0.00225883
-0.389062
0.00450733
3.77978e-06
0.299272
-0.00031691
0.00334375
5.18399e-05
-0.000834287
8.03458e-06
0.198158
0.042668
-0.525244
-1.65639e-05
-0.204394
0.111059
2.6829e-07
-0.504512
1.06338e-05
3.75543e-05
-0.000525805
0.000285036
-5.34971e-07
-0.000722738
1.64273e-06
-0.00230905
0.00375326
-2.27074e-05
0.486278
-3.10939e-05
-0.000489823
0.0003976
-0.000216382
0.0155909
-0.630086
0.000449612
-6.29683e-07
-1.0284e-08
1.24535e-05
0.00354928
0.000213862
-0.0143661
3.61009e-06
8.21838e-05
0.000130642
2.0097e-05
0.214687
3.17114
0.000747132
0.670292
-0.770446
1.11168e-05
-0.452932
0.000271722
-0.000116656
-0.790941
0.000309229
-0.489768
-0.00207812
-0.105544
-6.12811e-05
-0.00313276
-0.125125
-0.239618
0.00213203
-0.000159738
2.13343e-05
0.120596
-5.19234e-05
0.0716588
-0.000368314
-0.0934299
-0.75574
-0.0037547
-50.6859
1.07498e-05
1.86086
4.98658e-05
0.000782622
-0.00165334
-7.75912e-05
-0.00565504
-0.118248
1.80549e-05
0.000122198
-0.00204267
0.000104482
-7.03663e-06
-0.00194005
0.180214
-7.15172e-06
0.00016296
-0.00110087
0.00143291
0.342083
3.50795e-06
-0.155687
-0.263169
-1.66656e-05
-0.00184448
5.19869e-06
1.8293e-06
0.321351
-2.0396e-05
0.000896706
2.87654e-06
-0.00134917
-0.000176846
-0.0232131
-0.000660393
0.000117916
5.95383e-06
0.000150185
2.52275e-05
7.91436e-05
-8.18147e-05
-6.58809e-06
-0.000122706
-0.145705
-3.44649e-10
0.833265
-1.47263e-06
0.746253
0.00030486
-0.0266177
-3.77338e-05
0.00100376
-0.0685075
-0.00319637
-0.623164
-0.938401
3.55665e-06
4.65292e-06
-0.204079
0.0101564
0.000291947
-0.000338884
-0.175686
2.50613e-06
0.000473021
9.51252e-07
4.69663e-06
8.41235e-07
-0.00153457
-0.00320795
4.92574e-06
-0.00349843
-4.08949e-07
3.69685
-0.0250332
7.57886e-06
2.33128e-09
-6.61181e-05
-8.13207e-07
1.18681e-06
-0.00198167
2.00004e-06
-0.00378356
-0.000236171
-3.93029e-05
0.00153453
1.4578e-07
3.5038e-07
-0.124882
0.000978488
0.012927
-5.51743e-07
-0.000343724
-0.031383
3.8616e-06
0.00436997
7.33937e-05
-0.000242276
-0.000200084
0.00247902
-0.00263743
9.06458e-05
5.4108e-05
-0.000298828
0.706046
-2.24675e-05
0.98644
0.68558
1.32311e-05
-0.000227609
0.124326
0.0800989
0.000221972
2.41453e-06
-0.000124899
-0.004233
5.29876e-06
-0.000252885
0.0511897
0.000116974
-0.000466523
-7.02634e-05
9.06119e-10
1.31147e-05
0.0727646
3.58403e-05
-0.00104347
-1.44893e-05
-0.00290525
2.1477e-05
1.22475e-06
-0.0276806
-8.36457e-05
-4.82868e-05
-0.0546333
-0.0142042
-9.51632e-07
-0.000183506
0.000485714
1.64398e-06
0.328251
-0.000584398
0.231301
-6.04635e-08
3.4309e-06
-1.32285e-10
0.00223079
-0.00207458
0.0136504
-1.73939e-09
-0.130434
-0.00198064
0.105313
4.55976e-07
-0.587429
-0.532607
1.09566
-1.43567e-09
-0.000888291
-0.00141036
0.000884609
-0.107595
0.414196
0.671085
-0.00439235
-0.0204349
-3.98233e-05
0.205058
0.000765546
-0.0957309
-0.00505577
0.000953631
7.30799e-09
-0.00270286
-0.000689829
2.33615e-05
7.20822e-07
4.18235e-06
1.95984e-05
0.000374188
2.36828
-0.115808
-0.000553963
-0.000159525
8.53042e-07
0.000857842
-3.3116e-05
-0.000206415
2.40534e-05
0.000335339
-0.0600916
3.69808e-05
5.65028e-05
8.00761e-06
-0.00150007
0.000248348
1.63817e-06
0.000661014
-0.00119998
-0.0981168
1.90716e-05
0.000515636
-0.000207817
2.42488e-05
0.017139
-0.000172045
6.48346e-05
0.0798997
1.21117e-05
-0.0004491
0.225468
8.38331e-06
-1.26394e-06
0.0319542
0.00142677
0.0443654
-0.000582954
-0.000912222
1.35231e-05
-1.80011e-09
0.000414783
0.232732
-0.000154469
0.000223054
0.000580747
3.71397e-06
0.0175124
0.34616
-0.000145614
4.18224e-07
2.29775e-05
-3.66269e-07
0.000226565
-0.00286023
3.34953e-05
-0.000177009
-0.00381033
0.00930288
1.64624
6.01102e-05
-0.00408469
-0.0015991
-0.622261
0.00210317
0.00020034
-6.88826e-05
-0.000102404
-0.106369
0.000457377
1.34622
-0.000315191
1.70586e-05
4.73484e-05
2.35444e-05
0.653931
0.00015145
3.09357e-05
-1.85793e-06
-5.00452e-06
0.000113227
5.204e-06
8.90475e-05
-0.00817389
0.00112902
-0.000262916
-0.000214696
0.000287007
3.11212e-06
3.32786e-06
0.36556
-0.170576
0.0340974
0.241159
5.17415e-06
0.000576094
-4.27633e-06
-0.0298745
0.228292
-3.36985e-05
-0.374625
-0.00368774
-0.000171332
-9.99833
0.866133
4.49217e-05
7.67362e-05
-4.47891e-06
-1.04854
-0.000322396
4.84974e-06
-0.246232
0.429192
-0.207912
0.134386
-0.000352737
-0.00146248
0.000180106
-1.77946e-06
0.00060113
1.62892e-05
-1.52871e-06
-0.000148521
-0.18624
-0.00140363
1.09605
-0.00150385
2.10119e-05
0.138356
0.0306478
-0.00763285
-0.00256677
-1.75979
0.117171
0.223394
0.200947
-0.142174
-4.52965e-05
-6.43702e-07
0.000905873
0.00100067
-1.23155e-05
-0.000668735
2.10801e-05
-0.458511
0.000129184
0.0150749
7.53974e-07
3.15728e-05
-0.610901
-0.0937296
0.705456
-0.000126056
3.33016e-05
0.0626725
0.728298
-0.0968569
0.00378692
2.12041e-06
-2.93261e-05
1.60533e-06
7.21663e-05
5.68503e-06
-0.00135513
2.01759
-0.00183409
-0.191082
-1.74143
6.69486e-07
-0.000662827
7.76587e-06
3.02266e-06
0.44108
-0.0307449
0.000271085
-5.66086e-06
-1.26812e-07
-0.0619086
-0.000110029
1.33526e-06
8.47187e-06
3.90542e-06
0.00029411
-1.25808e-07
-1.22178
8.8852e-07
5.65331e-06
0.705294
-0.000761975
-1.25289e-05
-0.00181621
-0.695365
-0.112153
-0.097684
-8.26579e-05
1.86951e-06
-5.02556e-05
0.0305523
-9.98196e-06
0.245798
7.08135e-06
-5.32174e-05
-1.30478e-07
-6.32166e-07
0.000150656
0.00180976
9.21129e-06
5.4587e-05
1.70488
8.56388e-06
2.67972e-05
0.000578302
-2.46581e-09
5.19121e-06
1.37921e-06
-0.288384
-8.71823e-07
1.99515e-05
0.0898723
-1.28151e-06
5.76221e-06
-0.000989232
0.151964
0.000102602
-2.66063
0.502384
0.00603293
-3.44077e-05
1.22218e-05
-0.000396955
-6.03628e-05
6.55514e-06
-0.0889824
0.00158184
1.27994
-0.0170202
-0.000322611
0.00132601
0.00381592
-0.184981
0.000751183
0.234482
-0.00016375
0.349589
0.266297
4.53056e-05
-5.45697e-05
-1.83639e-05
0.537626
-8.64312e-07
2.51754e-06
1.51681e-05
0.00901913
3.0521
0.117421
3.35115e-06
0.000312438
1.29895
-0.000217083
0.0539131
0.99801
0.0581353
5.83966
7.49894e-06
0.000173847
-0.00306152
-5.7479e-05
3.78344e-05
-0.00556089
0.353098
-9.78365e-05
0.150682
-6.61442e-07
5.46804e-05
1.1755
3.13843e-05
-0.0172997
1.84632e-05
-4.00284e-05
-1.07996e-07
0.138337
0.815584
-0.000324574
-0.000283835
5.01859e-07
-9.93088e-06
0.00628327
3.47254e-05
0.00688639
0.34465
3.6039e-06
0.0674146
1.35457e-06
-5.55627
-1.43336
-0.000370434
-1.67754e-06
-0.0109108
3.99145e-07
1.12653e-05
-0.000192658
-3.18188e-06
-2.24762
8.65695e-06
0.0129755
-2.64779
-4.98538e-05
1.30072
0.182882
-0.739146
4.04329e-05
-5.52409e-07
0.000630642
0.000144892
2.76969e-06
1.40371e-06
2.54187e-05
0.00174467
-0.0568799
1.92864e-06
-0.223697
8.16256e-07
-0.00530913
-9.73524e-06
6.00848e-07
-0.806865
0.00250305
0.494293
-0.00229474
-9.94071e-05
1.6907e-05
0.000480663
4.7622e-05
4.12708e-07
-1.08803e-05
0.900684
0.0118758
0.000399985
-0.000318721
1.86628e-05
0.0825221
0.000257903
-0.252722
2.68834e-06
-0.432654
0.000942714
-0.000452032
0.440457
0.000908277
-0.000298477
-0.000254432
2.22017e-06
-0.98568
-2.23829e-05
0.000139249
-0.615611
2.84712e-06
1.01407
0.130452
-0.000968422
-0.00100226
-0.0421129
1.20298
-2.92538e-05
-0.0670982
0.00189068
2.09467e-06
-0.0005596
-0.501109
-8.38589e-06
6.88291e-06
-0.701302
-2.62268e-07
0.000711725
-1.83257e-06
0.000184242
0.62094
1.30863
-0.000182566
0.00036178
-4.24434e-05
2.54021e-05
0.220029
4.74501e-05
3.69399e-06
-0.57628
0.000346905
3.28195e-05
0.0182936
-9.36051e-05
-0.000413273
-0.00118158
-0.0542292
-2.23072e-06
0.000179664
0.934141
-0.0245924
-2.33648e-06
-0.200043
5.68758e-06
-4.06799e-05
-0.760275
1.03036e-06
6.76205e-06
-0.0666348
6.02679e-06
-0.000404403
6.64879e-05
4.97647e-06
-5.38782e-07
-0.000229744
0.000371373
-8.0033e-05
-0.107854
-0.0111577
-0.000667003
2.66474e-05
0.124314
0.180112
0.000641282
-0.444404
0.102734
0.384399
-0.000295848
0.0744371
-1.60596
0.000147825
0.697987
-0.275181
-0.00641172
-0.650614
-0.000134388
-0.00101855
0.156889
-0.00020145
-0.593573
0.0178312
-0.0977181
0.000230155
1.73661e-05
-7.4854e-07
-0.560673
3.61657e-05
6.54815e-05
0.252216
2.10731e-06
7.85883e-06
-0.000170595
1.28742e-05
-0.012435
-0.0770116
-0.000103135
0.000151818
-0.00538331
-0.238241
0.00589112
6.3512e-05
-0.000769203
-0.00432748
0.000578123
-7.72096e-06
0.0103108
-0.000196124
0.0103929
7.70904e-05
-0.0140181
-2.47083e-07
-0.000331913
6.83802e-06
1.52978e-06
-0.00240624
0.00136988
-1.26361e-07
0.0167195
-0.000447393
-0.0005111
5.23655e-06
-0.000533417
0.000467051
0.00147262
0.0130832
0.898549
-1.64292e-05
4.4098e-07
9.74308e-06
-0.0296063
0.0314747
1.36153e-06
3.15097e-05
2.72395e-05
0.0033952
1.77188
0.000286065
1.33696
0.000321082
0.0920218
0.000995146
0.000254388
-0.751879
-0.109737
-0.000864801
0.00997126
-8.95413e-07
-9.5109e-08
-1.47464
0.00748695
0.0125522
-0.000531075
0.000158293
0.0982408
9.58359e-07
-0.000306633
9.63052e-10
-0.000239461
1.14765
0.885667
4.06428e-05
9.61731e-06
0.153431
2.36355e-05
-0.00794387
1.39961e-05
0.0456812
0.00156109
0.0364165
-0.000186637
4.48038e-06
-0.809891
6.31963e-07
-0.000407347
0.594288
0.00306335
0.626304
2.78885
0.000495805
0.00110475
0.00233936
0.48827
4.48718e-06
0.662592
0.00176448
1.04184e-05
2.9036e-07
0.000417886
7.33556e-05
0.00235527
3.04764e-07
0.440062
-2.9841e-06
-1.7456e-05
2.20012e-06
9.58905e-06
-0.00455479