/*--------------------------------*- C++ -*----------------------------------*\
| =========                 |                                                 |
| \\      /  F ield         | OpenFOAM: The Open Source CFD Toolbox           |
|  \\    /   O peration     | Version:  v2012                                 |
|   \\  /    A nd           | Website:  www.openfoam.com                      |
|    \\/     M anipulation  |                                                 |
\*---------------------------------------------------------------------------*/
FoamFile
{
    version     2.0;
    format      ascii;
    class       volScalarField;
    location    "450";
    object      nut;
}
// * * * * * * * * * * * * * * * * * * * * * * * * * * * * * * * * * * * * * //

dimensions      [0 2 -1 0 0 0 0];


internalField   nonuniform List<scalar> 
13308
(
0.000825817
0.000996953
0.00103
0.00296571
0.00230869
0.00123441
0.0012625
0.000781634
0.00264589
0.00672342
0.000958043
0.000851449
0.000743033
0.00139061
0.00243431
0.00354407
0.00234004
0.00659146
0.000852972
0.00130095
0.00422973
0.00673827
0.00673733
0.000211191
0.00100077
0.00347894
0.000693651
0.0067365
0.000331714
0.00672975
2.16416e-05
0.000310936
0.000815847
0.000932512
0.000746147
0.0032683
0.00673939
0.00381921
0.00503661
0.0010484
0.00103961
0.0023897
0.00126065
0.00129383
0.000504731
0.00039324
0.00422597
0.00672755
0.00178796
0.00672632
0.000177347
0.00152885
0.00672814
5.53556e-05
0.00143806
0.00228332
0.00192638
0.00672934
0.00672387
0.000476487
0.00353484
0.00672958
0.00158102
0.0018591
0.00343981
0.00312093
0.00159019
0.000959124
0.000950487
0.0067622
0.0067239
0.00147756
0.00678254
0.00202805
0.00226916
0.00672681
0.000943707
0.00106705
0.000805352
0.00154757
0.00673912
0.000955063
0.00359373
0.0063083
0.00050453
0.00132454
0.00671821
0.000579276
0.000666758
0.00400153
0.00672417
0.00112071
0.000929762
0.000529682
0.000706886
0.00109701
0.00673724
0.000844916
0.0010741
0.000832317
0.00112755
0.00672827
0.00319742
0.00186764
0.00677767
0.00671977
0.000446172
0.000568619
0.00142324
0.000730078
0.00159889
0.000408442
0.006724
0.000487187
0.000978867
0.000574766
0.00111981
0.000805674
0.00175021
0.00139385
0.000895944
0.00673403
0.00515081
0.00102826
0.00154248
0.00109688
0.000429772
0.00340479
0.00672631
0.000291488
0.000943023
0.00134381
0.00364141
0.00110567
0.00599607
0.00139864
0.00189079
0.00451314
0.000774513
0.00191274
0.000410276
0.000910434
0.00109602
0.00107918
0.00115708
0.000117674
0.00109167
0.00672482
0.00673683
0.000905279
0.000463489
0.00292954
0.00160403
0.0043313
0.00672564
0.00146947
0.0067199
0.00148825
0.00123006
0.00116271
0.00102411
0.000314111
0.000971901
0.00280197
0.00674265
0.000153601
0.000721472
0.000572895
0.000931569
0.000483762
0.00116898
0.00149184
0.000508868
0.000653279
0.00146127
0.00672507
0.00172411
0.000897877
0.00356345
0.0039629
0.00101534
0.0017872
0.00327877
0.000821412
0.000953914
0.00253278
0.00543649
0.00224965
0.00673844
0.000839473
0.0012974
0.00149342
0.000100638
0.000309622
0.000512442
0.000977444
0.00107546
0.00371088
0.00347955
0.00109357
0.000655744
0.000801338
0.00120824
0.00224305
0.000411364
0.000915332
0.00131382
0.00148232
0.00541312
0.00166616
0.000989476
0.000271643
0.00672417
0.000459423
0.00115995
0.000788621
0.00677507
6.97235e-05
0.00677189
0.00586944
0.00201415
0.00672259
0.00306181
0.00106434
0.00672352
0.00122564
0.00131121
0.00672828
0.000394666
0.000883778
0.00168025
0.00672397
0.0067765
0.00210373
0.000930367
0.00168497
0.00493702
0.00672604
0.00131439
0.00667007
0.00197637
0.000415412
0.00673278
0.00117959
0.000394805
0.000793974
0.000474641
0.001379
0.00650756
0.00109656
0.00107015
0.00672317
0.000160357
0.00672319
0.00672479
0.000923273
0.00672684
0.00630663
0.00305775
0.00111709
0.00112552
0.00677894
0.00441054
0.0024317
0.00066444
0.00328963
0.000813594
0.000753848
0.000470402
0.00109704
0.00672402
0.00117013
0.00143123
0.00132643
0.00146503
0.00160943
0.00672479
0.000632513
0.000920902
0.00186095
0.00158043
0.00344136
0.000904315
0.000813664
0.000655408
0.00672275
0.0067388
0.000426734
0.00410866
0.0013344
0.0010455
0.000699315
0.000708897
0.000945893
0.000819401
0.0067402
0.00173209
0.00269441
5.79786e-05
0.00329865
0.001018
0.00178648
0.000825676
0.00671573
0.00119087
0.00665189
0.000731922
0.000452678
0.00147552
0.00672243
0.00113567
0.000771263
0.000315163
0.00177015
0.00139458
0.000561666
0.00118465
0.00139573
0.00136979
0.00132114
0.00119152
0.00114605
0.00183275
0.00381947
0.00105092
0.00125307
0.00218437
0.00631477
0.00131515
0.00172687
0.000771521
0.00176429
0.000637466
0.000891694
0.00125094
0.000401823
0.00109745
0.00120265
0.00278393
0.00147938
0.000680238
0.00672627
0.000723577
0.000788078
0.00128737
0.00672424
0.00161448
0.00280823
0.00267966
0.000101301
0.00207137
0.00167825
0.000577331
0.00116316
0.000271068
0.00272235
0.00113891
0.00101285
0.000812688
0.00469831
0.000461905
0.00171526
0.000793137
0.00131066
0.00089873
0.00220458
0.000271289
0.000847114
0.00673099
0.00111054
0.000952964
0.000535781
0.000725492
8.14893e-05
0.0012412
0.00101395
0.000246044
0.00210101
0.000138114
0.00178827
0.00488747
0.00125751
0.00410548
0.000121633
0.000556746
0.00422161
0.00179676
0.000913198
0.00371458
0.000371948
0.00104346
0.00132955
0.00132987
0.000830586
0.00172104
0.000175717
0.00673662
0.00124915
0.000990301
0.000588842
0.000638494
0.00078965
0.00388635
0.00131547
0.00134608
0.00673017
0.00188463
0.00671994
0.00101614
0.000932847
0.000176121
0.00105595
0.00100405
0.00250119
0.000283932
0.00151075
0.000730042
0.00646972
0.00671776
0.00161876
0.00176814
0.00673144
0.000444121
0.00115854
9.45695e-05
0.000807902
0.000961867
0.000328305
0.000902087
0.000761097
0.00190883
0.000529966
0.00101002
0.000928669
0.00672675
0.000968157
0.00360666
0.00194774
0.00135063
0.00108733
0.00671815
0.00673611
0.00269448
0.000668815
0.00537183
0.000904055
0.0010667
0.0067204
0.000824717
0.00164735
0.000646064
0.00245096
0.00120418
0.00128133
0.00142464
0.000806886
0.00342353
0.0024562
0.000910596
0.000779826
0.0022034
0.00100183
0.00155659
0.00672339
0.00152524
0.0012584
0.00392764
0.000519363
0.00173948
0.00227608
0.000531384
0.00165241
0.000673612
0.00174443
0.00671828
0.00673057
0.00140224
0.00672951
0.00111879
0.00672626
0.00111803
0.0067205
0.00109738
0.000254086
0.00558029
0.000310096
0.00127474
0.000251196
0.00672475
0.00118074
0.001613
0.000897108
0.00356144
0.00134846
0.00244697
0.00100988
0.000610907
0.00493083
0.00102379
0.00281042
0.00124737
0.00108929
0.000985734
0.000324478
0.000945816
0.000615753
0.00623351
0.000636031
0.00125641
0.000320002
0.00117902
0.00122637
0.000857541
0.000977561
0.0024074
0.000713779
0.00109657
0.00674007
0.00100097
0.00217144
0.000471775
0.000612821
0.00272943
0.000920805
0.000162684
0.000189366
0.000576882
0.0010773
0.000223127
0.000728945
0.00672184
0.00672673
0.000474961
0.001093
0.00139411
0.00119003
0.00124903
0.00128333
0.00197484
0.00672665
0.000878379
0.000993613
0.00110859
0.00188634
0.00672238
0.000925911
0.00672695
0.00107472
0.00100646
0.000651456
0.0067195
0.00672675
0.000438197
0.00672629
0.000802189
0.00672878
0.000659244
0.00335941
0.000556044
0.00673818
0.00673695
0.0067203
0.0010949
0.00145449
0.00673058
0.000697888
0.00106872
0.000833499
0.00672543
0.00672056
0.000410391
0.00671806
0.00216561
4.79777e-05
0.00671949
0.000901814
0.0015574
0.00672559
0.000229911
0.00146273
0.00172046
0.00155771
0.00104582
0.00215286
0.000965387
0.00672769
0.00169984
0.00534472
0.00128134
0.00142079
0.00232733
0.00674375
0.00117222
0.000537413
0.00146118
0.000903874
0.00163795
0.00101038
0.00167212
0.000973236
0.000248811
0.00671979
0.00671941
0.00431633
0.00180688
0.00225695
0.000218716
0.000230691
0.000596885
0.00212699
0.00671943
0.00673751
0.000240482
0.000446706
0.00110345
0.000633815
0.00171387
0.00672471
0.000228715
0.000900309
0.000686174
0.000885555
0.000715072
0.000286215
0.000798943
0.00672058
0.000630668
0.000882755
0.000995113
0.000525147
0.00110414
0.00204342
0.00671819
0.00672177
0.000898642
0.005125
0.00251423
0.00240723
0.00117418
0.00113944
0.00125774
0.000278873
0.000279213
0.00671857
0.00298695
0.00267661
0.000858295
0.00672242
0.00671865
0.00114906
0.00120165
0.00353154
0.000132856
0.00675125
0.00028449
0.000980675
0.0025886
0.00353447
0.00671948
0.00120558
0.00101865
0.00191691
0.00211207
0.00117115
0.000867896
0.00672053
0.000987133
0.00489695
0.00674117
0.0037111
0.000433283
0.00132303
0.000914685
0.00113494
0.00319107
0.000923681
0.000468025
0.00671676
0.00181398
0.000510064
0.00058899
0.00114322
0.000173288
0.00672213
0.00181913
0.000811624
0.00672303
0.00109525
0.001683
0.00579869
0.00274805
0.00231771
0.000584657
0.00672581
0.0016698
0.0012289
0.000876536
0.00672876
0.00672617
0.00103589
0.00672679
0.00155135
0.00105865
0.000966801
0.00672254
0.00094454
0.000776777
0.000969349
0.00672764
0.000788261
0.00103661
0.000528373
0.00093881
0.00671792
0.00672197
0.00210739
0.00672
0.000304693
0.00232696
0.00134294
0.00673025
0.00134821
0.000974793
0.00627164
0.00672502
0.001156
0.000614469
0.000210557
0.00132574
0.00671807
0.00672681
0.000498333
0.00672543
0.00672781
0.00255357
0.000637469
0.000991687
0.000283988
0.00672675
0.000689888
0.00100685
0.00671959
0.000868528
0.00100026
0.00673034
0.00671989
0.00164138
0.00134789
0.000357745
0.00216102
0.000833835
0.00427103
0.000543601
0.00347739
0.000848939
0.0011321
0.00672698
0.00105794
0.00164264
0.00672324
0.00114259
0.000361501
0.00589867
0.00577234
0.0032722
0.00673758
0.00115947
0.00305376
8.71876e-05
0.00167497
0.000860567
0.00672691
0.000991744
0.00025557
0.000710277
0.00131169
0.000261226
0.000454626
0.00672625
0.000546515
0.00197542
0.00485629
0.00503112
0.0020792
0.00671826
0.00218307
0.000509752
0.00103063
0.00111927
0.00129943
0.00672268
0.00202361
0.00445983
0.000797048
0.000158608
0.00671969
0.0011974
0.000677516
0.00116471
0.00672454
0.00672208
0.00673202
0.0067219
0.0030444
0.00674194
0.00013493
0.00671791
0.0017401
0.0067191
0.000985287
0.00165566
0.000352209
0.00134441
0.000164679
0.00111342
0.0020003
0.00139854
0.0015065
0.00671926
0.00156729
0.00161889
0.00209758
0.00107626
0.000956995
0.000929341
0.00310143
0.00343691
0.000718045
0.00678922
0.000602129
0.00673961
8.72136e-05
0.000968452
0.00087598
0.00142314
0.00210389
0.00671836
0.00118406
0.00510759
0.000462738
0.000807694
0.000869195
0.00127197
0.00100747
0.0067184
0.0013827
0.00491708
0.00114792
0.00673754
0.00102384
0.00132044
0.00117992
0.000431676
0.00130025
0.0040155
0.00386739
0.00672374
0.00672207
0.000961371
0.00233123
0.00672739
0.00198011
0.00672349
0.00132872
0.000428655
0.00116894
0.00161896
0.00060648
0.00672706
0.00116363
0.00672165
0.000598488
0.000893372
0.00251121
0.00672624
0.00117232
0.000255797
0.00105415
0.00132415
0.00187892
0.000231769
0.000360078
0.00671788
0.00312428
0.00197313
0.00673112
0.000663741
0.00230044
0.000516413
0.00060566
0.000990645
0.000924622
0.00140512
0.00083216
0.00170402
0.000825041
1.50799e-05
0.00671813
0.00123718
0.00243242
0.00324825
0.00100601
0.000653369
0.00202324
0.00672605
0.00256288
0.00140963
0.000751344
0.000362997
0.00673614
0.00107168
0.00203498
0.00116695
0.000818125
0.00322915
0.00376671
0.00055011
0.00271637
0.00231698
0.00672022
0.000560317
0.00673501
0.00116751
0.000339734
0.0011475
0.00113151
0.00135487
0.000923143
0.000724916
0.00672177
0.0011099
0.00124738
0.00671924
0.000410696
0.00671843
0.000500585
0.00672242
0.00118905
0.000740855
0.00104136
0.000847429
0.00673554
0.000293631
0.000373109
0.00025014
0.00671928
0.000531494
0.00110791
0.00671828
0.00152205
0.00100808
0.000228725
0.00193084
0.00672184
0.00221572
0.000316527
0.00154766
0.0011438
0.001067
0.00673119
0.00560941
0.00113403
0.00673437
0.00121752
0.00155295
0.00671744
0.00672635
0.00673407
0.00673256
0.00100955
0.00672691
0.000755241
0.00673304
0.00422132
0.0067222
0.000986008
0.00671991
0.000967611
0.00497894
0.000361318
0.00122506
0.000573849
0.00405838
0.00057465
0.00112059
0.00242013
0.000924097
0.00260485
0.00126896
0.000894688
0.00109318
0.00167526
0.00118228
0.000310254
0.00672054
0.00191205
0.00424695
0.000395947
0.00147735
0.00672039
0.00284675
0.00671859
0.000758613
0.00170875
0.00306968
0.000944886
0.000879042
5.3997e-05
0.00132697
0.00103392
0.00106811
0.00108444
0.000548375
0.000203223
0.00672626
0.000930946
0.00672564
0.0016219
0.00027329
0.00100532
0.00676942
0.00124736
0.00672758
0.00090879
0.00106661
0.00284296
0.00122817
0.000355759
0.000916245
0.000893892
0.00144777
0.00154889
0.000378061
0.00202296
0.000713602
0.00672333
0.000309136
0.00671842
0.00179484
0.000790524
0.00103142
0.00673315
0.00351423
0.000542202
0.000953377
0.00122329
0.00124078
0.00131412
0.00616004
0.00672607
0.00672605
0.00178064
0.00168503
0.00113603
0.002838
0.00237473
0.00673504
0.00116281
0.00672342
0.00111384
0.000459404
0.00189035
0.000222511
0.00111889
0.00671976
0.000154869
0.00673087
0.000147823
0.00671778
0.00152405
0.00672588
0.0019393
0.00150041
0.00672732
0.00137563
0.000630526
0.00672339
0.00563163
0.00172417
0.00550144
0.000854866
0.000577446
0.000814658
0.0012598
0.00158373
0.00135207
0.00671829
0.00125631
0.000827757
0.00176271
0.000934411
0.00105514
0.00109279
0.00673614
0.000955423
0.00672447
0.00148514
0.000130288
0.00677629
0.00673364
0.000920868
0.000782316
0.00243362
0.0008579
0.00556579
0.000872022
0.00124564
0.00141156
0.00205643
0.00126287
0.00671942
0.00333565
0.00103522
0.00673442
0.00194421
0.00605147
0.00276883
0.000984997
0.00140542
0.00607876
0.000993674
0.00673536
0.000560615
0.000431816
0.00199785
0.00128037
0.000369333
0.00197303
0.00109279
0.00671808
0.000954273
0.00116416
0.000995838
0.000112015
0.000608483
0.00676453
0.00676295
0.00140339
0.00672565
0.0021873
0.00299053
0.000240853
0.00100284
0.00134717
0.00667805
0.00076239
0.00672381
0.00671949
0.00388542
0.000408684
0.00204648
0.00673418
0.00672674
0.000929419
0.00200367
0.00132179
0.00672193
0.00386333
0.000385371
0.000965459
0.000852981
0.00145347
0.00123019
0.000910085
0.00672562
0.00148919
0.00671874
0.00144937
0.00672297
0.000966423
0.000711379
0.00672525
0.000929249
0.00278091
0.00190755
0.00056016
0.000729064
0.00445244
0.000575835
0.00672386
0.00108444
0.00127582
0.0013297
0.006718
0.00582613
0.0016458
0.00155986
0.00672448
0.00672559
0.000466311
0.00111693
0.00126695
0.00673431
0.00673492
0.00672573
0.00661046
0.000175246
0.00622579
0.000980409
0.00167025
0.00105563
0.00106682
0.0067378
0.000874653
0.00413784
0.00180672
0.000240644
0.00121406
0.000947341
0.000960275
0.000725163
0.000927387
0.00673146
0.000867886
0.00677076
0.00121429
0.000990715
0.000521718
0.000649747
0.000528851
0.000505406
0.00240379
0.00101552
0.00671842
0.00129972
0.000833434
0.00255897
0.000792043
0.00115104
0.00393874
0.000700467
0.0012308
0.0054426
0.000689511
0.00672129
0.00671898
0.00672014
0.00108034
0.00018226
0.00116559
0.000151224
0.000535033
0.00470944
0.000854608
0.00237691
0.00672293
0.000935393
0.000823043
0.0020114
0.00364421
0.000301409
0.00143813
0.00348112
0.00675053
0.00116005
0.000914098
0.00104096
0.000132
0.00672574
0.00672691
0.00167335
0.000754136
0.00672042
8.02085e-05
0.00672745
0.00132504
0.00672945
0.00201073
0.000341033
0.00671944
0.000977976
0.00107667
0.00431018
0.000846377
0.000956092
0.00672589
0.000984758
0.00227182
0.00672615
0.000974111
0.00672453
0.0012877
0.000677299
0.0056728
0.000873704
0.00105763
0.00107085
0.00128102
0.00161875
0.00671783
0.00672334
0.000544903
0.000246335
0.00646096
0.00671769
0.000751685
0.00112994
0.00517311
0.00102616
0.000758606
0.00108823
0.00143059
0.00138265
0.0067256
0.00136721
0.00127537
0.00106395
0.0067265
0.000583145
0.00672471
0.00136887
0.000972408
0.000426492
0.00130758
0.00115347
0.00199011
0.00182811
0.00125226
0.00146054
0.00156894
0.00132644
0.00113589
0.00106061
0.00671785
0.00673198
0.00101923
0.00155028
0.000740261
0.00103104
0.00672429
0.00675533
0.00085222
0.00467574
0.00672498
0.000717204
0.00672799
0.00114993
0.00205151
0.00205695
0.00672687
0.00127865
0.00379802
0.00672398
0.00349497
0.00128259
0.00671875
0.000954798
0.00144389
0.000368336
0.000498012
0.0012152
0.000241818
0.00165755
0.00149167
0.000893693
0.00124001
0.00220816
0.00672604
0.00131239
0.00260585
0.00104085
0.00132331
0.00126295
0.00671786
0.000751613
0.000407119
0.00440478
0.000828199
0.00026486
0.00196164
0.00569768
0.000558342
0.00114907
0.00116231
0.000842167
0.00167628
0.000351048
0.00672179
0.00673399
0.00671901
0.00147702
0.00139401
0.00025731
0.00263565
0.000374536
0.00105211
0.000667894
0.00119576
0.00104036
0.000205151
0.00671869
0.00671968
0.00264219
0.000936631
0.000683095
0.00135101
0.00105729
0.000777464
0.00671935
0.00672347
0.00148036
0.00675363
0.00117094
0.0019418
0.00223362
0.00111814
0.00129005
0.00254495
0.0067391
0.000944178
0.00133237
0.00125449
0.0011516
0.00310565
0.00104782
0.000981886
0.000427308
0.00113239
0.00106125
0.00215717
0.00186726
0.00119485
0.00044948
0.0014676
0.00630569
0.00110616
0.00160785
0.00552951
0.00113678
0.000784228
0.000773946
0.000554155
0.00100946
0.000761799
0.000678387
0.00192261
0.00672045
0.00671856
0.000584019
0.006727
0.00195606
4.56453e-05
0.00672641
0.000183934
0.00349226
0.00672771
0.00673927
0.00103626
0.00032635
0.00150091
0.00543652
0.001182
0.00151879
0.00334258
0.000418817
0.00117106
0.000981336
0.00136883
0.00199685
0.000960405
0.00148187
0.000189237
0.0012385
0.000718934
0.00165232
0.00672024
0.00672306
0.00672581
0.000570635
0.00286168
0.000872444
0.00120093
0.00672601
0.00358501
0.000411875
0.00172393
0.00117627
0.00216433
0.00673103
0.000478277
0.00672618
0.000817301
0.00402589
0.000370003
0.00672336
0.000915654
0.00111841
0.000871875
0.00309707
0.00492208
0.00347596
0.00406692
0.00108631
0.000747934
0.00141493
0.000656417
0.00147497
0.00119707
0.00188064
0.00672528
0.000979895
0.00077656
0.0014992
0.00216213
0.00591305
0.000180628
0.000899815
0.000397733
0.000662016
0.00211782
0.00671885
0.000461783
0.000940157
0.000561062
0.00672522
0.00109869
0.00556436
0.00444631
0.00112798
0.00160994
0.00135089
0.000696347
0.00136051
0.000211019
0.0012282
0.00390334
0.000839493
0.00671786
0.00672607
0.00300456
0.00117003
0.000347467
0.000186895
0.00672734
0.00127725
0.00138382
0.00675773
0.00104627
0.00671896
0.00345462
0.00331932
0.00132415
0.00129701
0.00167561
0.00174227
0.00295749
0.0023047
0.00332391
0.0018984
0.00120164
0.0015466
0.000595842
0.00236377
0.0023494
0.000566071
0.00674344
0.00672336
0.00142111
0.000954567
0.00121252
0.000662504
0.00193472
0.00106308
0.00091582
0.00063503
0.00124877
0.00117681
0.000845151
0.00109514
0.00673258
0.00225599
0.00118132
0.00115286
0.00416648
0.00672009
0.00147218
0.00672116
0.00103086
0.00226422
0.00519293
0.00676958
0.000966207
0.00464933
0.00144892
0.00663771
0.000856289
0.00672745
0.006726
0.00571241
0.00144807
0.00672088
0.00672309
0.00368103
0.000212532
0.000185461
0.000840567
0.00141677
0.00087228
0.000937932
0.00232494
0.00133741
0.00673509
0.0029712
0.00124887
0.00113034
0.000807474
0.00195919
0.00235911
0.00220948
0.00163114
0.00105127
0.000791209
0.00106338
0.000971498
0.00162184
0.000452105
0.000384247
0.0011222
0.00120927
0.00138438
0.00153114
0.00249995
0.000709459
0.00673437
0.000372853
0.00584265
0.000337471
0.00671911
0.0067315
0.00144171
6.37353e-05
0.00109518
0.00131234
0.0067271
0.00134255
0.00672179
0.00015851
0.00672495
0.00418007
0.00673388
0.000404108
0.00672031
0.000738213
0.00108731
0.00672503
0.00324403
0.00104751
0.00338572
0.00672888
0.00117414
0.000495177
0.00252418
0.00072616
0.00133398
0.00672313
0.00171511
0.00671848
0.000956428
0.00125712
0.000899429
0.00132308
0.00129126
0.00255327
0.00672122
0.000597425
0.00100579
0.0029908
0.006721
0.000210349
0.000713859
0.0067516
0.000768703
0.000837825
0.000423904
0.000795915
0.00166149
0.00590688
0.00672706
0.00141231
0.000993656
0.00193834
0.000882011
0.00145292
0.0013349
0.00144461
0.00140773
0.000689769
0.00176723
0.00148469
0.00672379
0.00122118
0.00254519
0.000943663
0.00012976
0.00117031
0.000805729
0.000859836
0.0015352
0.000945772
0.00183852
0.00673635
0.000464687
0.00123
0.00358194
0.00671772
0.00126655
0.00672231
0.0010236
0.000757834
0.00657584
0.000706721
0.00103032
0.00114569
0.00226963
0.000189366
0.00103943
0.000624147
0.000400045
0.00119707
0.00143297
0.000983561
0.00600063
0.00124257
0.000998954
0.00105441
0.00103746
0.000267676
0.00445384
0.000976162
0.00104836
0.00672088
0.000753055
0.00120566
0.00123026
0.000170193
0.000214773
0.0012032
0.00672481
0.00672403
0.00173781
0.000817218
0.00165005
3.11366e-05
0.000808026
0.00116613
0.000671912
0.0030119
0.000262122
0.00112489
0.00202479
0.000417975
0.00671772
0.00100737
0.00107361
0.000369022
0.00672684
0.00143577
0.00125372
0.00142693
0.00221681
0.00102114
0.00402508
0.000692195
0.0015562
0.00113603
0.000725774
0.000946517
0.00131562
0.00673477
4.58021e-05
0.00673339
0.00274172
0.00149766
0.00081422
0.00671932
0.00127187
0.00672609
0.0010547
0.000670584
0.00265908
0.000951083
0.00621838
0.000875251
0.000885996
0.00179584
0.000283638
4.80921e-05
0.00101065
0.0066874
0.00672486
0.00678216
0.000895076
0.0013681
0.00125122
0.00672033
0.00118345
0.00113257
0.00187964
0.000971208
4.47964e-05
0.00104343
4.8731e-05
0.000810774
0.00627822
8.89037e-06
0.000960095
0.00206846
0.000927603
0.00167212
7.90652e-05
0.00126653
0.00162802
0.00224418
0.00104764
0.000154981
0.000247995
0.00101762
0.00182527
0.00443668
0.00127291
0.00681985
0.00109525
0.00117155
0.000541326
0.00117856
0.00111961
0.000643501
0.0067347
0.000478615
0.00138422
0.00125756
0.00100927
0.0020919
0.000582134
5.02288e-05
0.00386845
0.000684919
0.00092905
0.00163975
0.00676185
0.000291003
0.00174814
0.000880706
0.00131043
0.00127649
0.00100236
0.00126546
0.00672144
0.00119012
0.000259499
0.00284926
0.000410018
0.00673543
0.00672383
5.00466e-05
0.00397905
0.000782876
0.00672687
0.00130189
0.00195132
0.000909152
0.0010358
0.00180901
0.00673474
0.00150606
0.00406682
0.00121644
0.00234764
0.00251972
0.000573864
0.000961372
0.00672546
0.000277967
0.00675842
0.000360018
0.000906392
0.000158053
0.00466232
0.00108606
0.000949201
0.00102894
0.000999046
0.00116801
0.00667602
0.00673517
0.00132767
0.00140772
0.000750759
0.00156888
0.000972232
0.00672704
0.00125835
0.00671877
0.00672547
0.00672507
0.00105189
0.00117409
0.00672275
0.000967974
0.00671941
8.77712e-05
0.00108634
0.00385289
0.00672229
0.00207002
0.00673835
0.00672959
0.00143292
0.00671843
0.000998842
0.00175711
0.00245522
0.00105917
0.00672456
0.00672037
0.000133323
0.000961819
0.000980591
0.00672073
0.00142051
0.000886378
0.00671804
0.00136202
0.00140781
0.00129317
0.00177971
0.00118182
0.000425089
0.00136122
0.00136183
0.00081529
0.000255922
0.00503593
8.30861e-05
0.000109516
0.00259508
0.00134676
0.00123347
0.00083115
0.00207931
0.00676661
0.001233
0.00112161
0.00673306
0.00334399
0.000121498
0.0011342
0.00096456
0.00157345
0.0067216
0.0067413
0.000673765
0.000793369
0.00125191
0.0039093
0.000392803
0.00657249
0.00672332
0.000320754
0.00121603
0.00231807
0.000564478
0.00156684
0.00317465
0.0015535
0.00144327
0.006719
0.00086186
0.0015381
0.00119155
0.00672576
0.00672044
0.00672434
0.0013592
0.000875883
0.000908918
0.00672509
0.00177534
0.00110491
0.00139108
0.00672415
0.00113135
0.000565895
0.000218225
0.00672488
0.000438557
0.00125875
0.00142648
0.00102621
0.000894613
0.000376935
0.00102437
0.000660473
0.0033245
0.00118895
0.000807618
0.000706922
0.00133258
0.0011792
0.00672329
0.000972534
0.00125094
0.0031182
0.0067233
0.00672788
0.00254407
0.000511793
8.63523e-05
0.00108423
0.00154337
0.00103501
0.00671907
0.000923161
0.00546022
0.00146252
0.00193588
0.00148244
0.000861307
0.00341587
0.00231844
0.00341388
0.00096023
0.00145105
0.00672323
0.000956316
0.00139733
6.78875e-05
0.00523156
0.00123362
0.00221879
0.0033918
0.000986605
0.00230893
0.00296681
0.00110632
0.00673416
0.00124747
0.000634867
0.00673379
0.0067182
0.000123188
0.000366448
0.0007894
0.00142932
0.00131416
0.00561071
0.00672488
0.000897528
0.000334791
0.00108844
0.000931631
0.000836645
0.0067401
0.00103658
0.000409112
0.00156646
0.00672685
0.00191872
0.00672153
0.00112199
0.000262027
0.00271502
0.00292278
0.000188727
0.000147026
0.0002292
0.00173796
0.000300422
0.000883716
0.000197566
0.00104807
0.00104445
0.00193772
0.0025113
0.00106811
0.000986163
0.00225296
0.0020033
0.00493442
0.00329632
0.00170203
0.000853292
0.00146179
0.00332753
0.00673435
0.00157868
0.00125338
0.00543056
0.00144141
0.000903643
0.00164393
0.00169938
0.00176653
0.00214843
0.00672456
0.00673177
0.000832269
0.000991365
0.00095919
0.00103969
0.00672638
0.000567732
0.00241782
0.000442169
0.000127479
0.00204672
0.000900563
0.000307304
0.00107117
0.00085093
0.000169517
0.00243065
0.00135139
0.00673224
0.00129796
0.00141948
0.00672556
0.000867
0.000827001
0.00132962
0.000831214
0.00135508
0.000883542
0.00200819
0.00672771
0.000688379
0.0051872
0.0067502
0.00204977
0.00062987
0.000442422
0.00027331
0.00146582
0.00442597
0.000686108
0.000412724
0.000234271
0.000352696
0.000255787
0.00126456
0.00106191
0.00094511
0.000227625
0.00171901
0.00671924
0.00133177
0.000988114
0.001326
0.00101696
0.00312959
0.000337558
0.000641077
0.00067415
0.00674436
0.00295967
0.000195298
0.000878171
0.00112924
0.00182897
0.00216937
0.00123051
0.000693605
0.00114246
0.00131247
0.00672051
0.00438942
0.00672522
0.00279463
0.00386549
0.000984049
0.000237801
0.000778088
0.00125235
0.000802623
0.00672951
0.00109567
0.00674679
0.00302482
0.00113033
0.00105615
0.000961649
0.00327787
0.006729
0.000203775
0.00210524
0.0067234
0.0060601
0.00672713
0.00146411
0.00672556
0.00044923
0.00672489
0.00672879
0.000201828
0.00093761
0.00665515
0.00107945
0.000209433
0.000657856
0.000272949
0.000516223
0.00673279
0.00393249
0.000395733
0.00666921
0.000397448
0.0025346
0.00138812
0.0067213
0.00671896
0.00287668
0.00156004
0.00198121
0.00152009
0.000138261
0.00556216
0.0018977
0.0007493
0.00672423
0.00261566
0.00671853
0.000384343
0.00672693
0.0012415
0.000892944
0.00673507
0.00354958
0.000780897
0.000958818
0.00251179
0.000225555
0.000711545
0.00102137
0.00253997
0.00292055
0.00100654
0.000566915
0.00673067
0.00073299
0.000390195
0.000210916
0.000784835
0.00146306
0.000770248
0.00111117
0.000241967
0.000580036
0.000581709
0.00121865
0.000885334
0.000991399
0.00135678
0.00269923
0.00428739
0.000507196
0.00334021
0.00672053
0.00494238
0.000146113
0.00101907
0.00139865
0.00672895
0.00135823
0.000397193
0.0014076
0.000900786
0.00126843
0.000997021
0.000865939
0.00512159
0.000532153
0.000114779
0.0017635
0.00193527
0.000925571
0.000228241
0.0014817
0.000939544
0.00671958
0.00197589
0.00128369
0.00211024
0.00110242
0.00188202
0.00479147
0.00672615
0.00112839
0.000910321
0.00045401
0.00113099
0.00672933
0.00128711
0.000761038
0.00131444
0.000118077
0.00100648
0.00672853
0.0006587
0.00671988
0.000681528
0.000831375
0.000910842
0.00673716
0.000408323
0.00672693
0.00437281
0.000881717
0.00672878
0.000973437
0.0035498
0.000198791
0.000227329
0.00312908
0.000177822
0.000818671
4.774e-05
0.00323203
0.00671927
0.00111859
0.00329943
0.000804662
0.00672668
0.00579192
0.000957989
0.000543285
0.00186249
0.000862618
0.006719
0.000136165
0.002957
0.00672349
0.001304
0.00098731
0.000961499
0.000836674
0.00149239
0.003932
0.00102618
0.00120426
0.00672161
0.00153918
0.000765408
0.000176543
0.000875243
0.000867092
0.00301129
0.0010609
0.00066174
0.00122016
0.00672389
0.000679573
0.000578262
0.00149191
0.000387264
0.00150966
0.00208072
0.00140552
0.0067272
0.000746555
0.0057573
0.000715825
0.000866859
0.00672609
5.36671e-05
0.000124253
0.000526944
0.00109793
0.0012597
0.00108455
0.0025066
0.00111883
0.00100175
0.00673697
0.000580998
0.000844881
0.00454358
0.00672335
0.000145992
0.00671915
0.00122505
0.00672928
0.00165215
0.000816957
0.000115108
0.00147218
0.00167367
0.00238342
0.00520971
0.000160836
0.00515814
0.00672523
0.000194105
0.000613807
0.00303821
0.00165864
0.00217757
0.00160502
0.000803717
0.00112498
0.00673926
0.00144706
1.39252e-05
0.000139362
0.00192765
0.000179558
0.0047987
0.00420623
0.000889381
0.00672872
0.00269117
0.000217301
0.00673114
0.000915289
0.00120129
0.00672884
0.00671961
0.00188336
0.00129049
0.00167939
0.0011343
0.000547819
0.000454338
0.00334891
0.000895702
0.000649754
0.000810815
0.000223271
0.000213625
0.00102847
0.00145807
0.000683741
0.00114147
0.000698351
0.000154222
0.00076626
0.00101237
0.000135409
0.00121877
0.00139305
0.0010856
0.00105074
0.00100263
0.000646434
0.000187698
0.00257165
0.00357119
0.00672624
0.00119511
0.00115092
0.000579199
0.0011596
0.00672083
0.00439779
0.00150998
0.00433097
0.000434824
0.00185144
0.00224908
0.00143249
0.000883333
0.00114868
0.000902363
0.00106984
0.00135251
0.000413392
0.000894148
0.00228295
0.000150035
0.00173622
0.000614966
0.00197569
0.00114559
0.00671986
0.00153108
0.00676961
0.00672297
0.000614489
0.00112169
0.00672062
0.000172088
0.00096532
0.00147749
0.00673071
0.0012353
0.00112684
0.000808046
0.000359862
9.29067e-05
0.00202573
0.00672245
0.00677242
0.000241122
0.000745254
0.00672334
0.00189777
0.00160904
0.000512922
0.00119917
0.000444954
2.57382e-05
0.00142739
0.00101234
0.00120874
0.00148871
0.000140308
0.00116418
0.0012703
0.00130721
0.00671823
0.00672557
0.000114281
0.00086669
0.00120321
0.00126887
0.00127084
0.000944985
0.0067264
0.000622854
0.00672446
0.00104908
0.00040574
0.000106271
0.00141699
0.00571052
0.00106636
0.00154598
0.000197622
0.00461528
0.00112215
0.000209567
0.0010486
0.00106356
0.0064255
0.00117614
0.00672809
0.00179557
0.000851075
0.000242244
0.00105537
0.000330557
0.000632207
0.000653221
0.000282846
0.000125131
0.0067321
0.000897086
0.000765444
0.00360611
0.00672708
0.00119079
0.00168125
0.000830813
0.00673866
0.000133533
0.00186923
0.00157176
0.00672881
0.00672582
0.000388835
0.0067254
0.000557356
0.00453995
0.00672376
0.00103716
0.000644237
0.00500775
0.000509874
0.00672899
0.00107902
0.0015727
0.00496067
0.00227642
0.00044385
0.00049756
0.00053022
0.00098406
0.0067249
0.00117193
0.00113995
0.000436327
0.000485774
0.00116916
0.00123635
0.000254389
0.000586187
0.000334121
0.000277359
0.00247956
0.00671947
0.00296409
0.00258636
0.00223676
0.000290901
0.000709305
0.000890417