/*--------------------------------*- C++ -*----------------------------------*\
| =========                 |                                                 |
| \\      /  F ield         | OpenFOAM: The Open Source CFD Toolbox           |
|  \\    /   O peration     | Version:  v2012                                 |
|   \\  /    A nd           | Website:  www.openfoam.com                      |
|    \\/     M anipulation  |                                                 |
\*---------------------------------------------------------------------------*/
FoamFile
{
    version     2.0;
    format      ascii;
    class       volScalarField;
    location    "450";
    object      omega;
}
// * * * * * * * * * * * * * * * * * * * * * * * * * * * * * * * * * * * * * //

dimensions      [0 0 -1 0 0 0 0];


internalField   nonuniform List<scalar> 
13308
(
0.053514
0.0338497
0.125728
0.0220686
0.022155
0.0277642
0.0231419
0.0949884
0.0223923
0.0218706
0.0411053
8.18989
0.122822
0.0231343
0.0224957
0.0221261
0.0222243
0.0217
0.0493129
0.0300928
0.021986
0.021579
0.0215687
0.837867
0.147497
0.0221415
8.16818
0.0215823
12.6821
0.0215808
0.624602
1.54826
0.194642
5.00919
0.0507115
0.0220763
0.0215668
0.0218899
0.0220675
0.0240413
0.026202
0.0234909
0.0900604
0.0267786
2.06685
15.1357
0.0219608
0.0220935
0.0265854
0.0222671
1.75912
0.0339069
0.02158
17.0056
0.0276631
0.0234245
0.0252963
0.0219919
0.0218727
0.0404037
0.0222372
0.021997
0.0270097
0.0238646
0.0221205
0.0232466
0.0332078
5.12514
6.36451
0.0216959
0.0222035
0.0268683
0.0216566
0.0253159
0.0230235
0.0221388
5.08744
0.0510501
0.132272
0.0269242
0.0215387
0.0377151
0.02199
0.0220282
1.96739
0.0232425
0.0218861
0.0361793
0.0369753
0.0219789
0.0218882
2.28992
0.0505939
0.0550097
0.0274337
0.0462015
0.0215326
0.0981672
0.0268165
0.0402668
0.0411626
0.0220871
0.0219636
0.0227591
0.0216362
0.0220031
0.110496
0.040275
0.0300028
0.16816
0.057259
1.6681
0.0218822
1.72654
0.0410973
0.195743
0.0278902
0.0320515
0.0244326
0.057574
0.0272542
0.0221053
0.0221442
0.0231423
0.0836633
0.0233971
1.82682
0.0221583
0.0222571
0.144562
0.135433
0.0297031
0.0220712
0.0388087
0.0221402
0.027039
0.0224632
0.0219554
0.137121
0.0227473
0.216254
5.23927
4.35361
0.0311197
6.49971
0.10019
0.0266875
0.0217202
0.0220617
5.0426
1.70608
0.0224754
0.0302625
0.02189
0.0215872
0.0267855
0.0220281
0.0256839
0.0982531
4.07316
0.0491008
1.37489
0.0324279
0.0224727
0.0215329
0.0888624
0.0326013
0.194355
0.112913
0.0607645
0.108946
0.0332188
2.20493
0.108576
0.0308502
0.0222476
0.0255848
0.10794
0.0219737
0.0219492
0.048274
0.0243552
0.0221795
2.96298
0.0245829
0.0225516
0.0221414
0.0233797
0.0220043
0.0314369
0.029508
0.0297821
0.0902264
1.32501
0.094528
0.114002
0.0524949
0.0221337
0.0221466
0.0991095
0.203626
0.0328812
0.0387382
0.0230617
0.0349966
0.116573
0.0246599
0.0250023
0.0220677
0.027115
0.0403324
1.20186
0.0222139
0.12614
0.0377147
0.0385101
0.0216151
0.129428
0.0216888
0.0217019
0.0223974
0.022141
0.0221514
0.0487463
0.021718
0.0994024
0.0320246
0.0222723
2.38767
0.0370679
0.0270362
0.0221306
0.0219218
0.0232375
0.0296073
0.0232758
0.0216597
0.0214795
0.0296476
0.0218918
0.0237642
0.035378
0.0221112
0.116322
0.0346592
0.0247498
0.194869
0.0250963
0.0221386
0.030433
0.0512459
0.0217132
0.0940631
0.0221748
0.0222368
0.0390145
0.0215872
0.0218876
0.0221087
0.0319676
0.0412692
0.0216313
0.0221397
0.0231717
4.18983
0.0219512
0.19684
0.0487008
1.77107
0.0484632
0.0215571
0.039056
0.023046
0.027103
0.105227
0.115024
0.021481
0.027634
0.0988164
0.0254688
0.0233909
0.0221079
0.0813723
0.0587817
0.05608
0.0221492
0.0221697
0.0584613
0.0219839
0.0292857
0.196615
5.15037
0.164622
4.52022
0.0369728
0.0215635
0.0251137
0.0221853
15.5336
0.0221293
4.50659
0.0278454
0.0411405
0.0217464
0.051369
0.0220456
0.0442406
0.0417503
0.0229859
0.0216984
0.0330713
0.0431972
1.80518
0.022889
0.0887636
7.03356
0.0929172
0.0298535
0.0910844
0.0345345
0.0230732
0.054891
0.0276643
0.0219298
0.036311
0.0507038
0.0229065
0.0220214
0.0342356
0.0226492
0.0851217
0.104174
0.0334396
0.0244378
0.0330534
2.66098
0.0829548
0.0252848
0.0221843
0.0304827
0.171715
0.0221654
0.0291767
0.0244893
0.033934
0.0221249
0.023621
0.0223376
0.0221747
0.431722
0.025613
0.0233206
0.0361861
0.0251587
0.0601897
0.0225016
0.0381652
0.180057
0.0904583
0.0221222
0.0412581
0.0301765
8.34064
0.023563
0.0999419
0.0242855
0.0357724
0.110966
0.0222696
0.0341426
0.0725042
5.50217
0.0741108
0.102198
0.0312729
0.0246996
0.0881114
0.0230553
0.094032
0.0248933
0.0221263
0.0575755
0.0221613
0.0653853
0.0514177
0.0220262
0.0251071
0.0408307
0.0221783
1.51825
4.40285
0.0286399
0.0270853
9.96719
0.0288558
0.0547022
0.0220211
0.0243604
0.1381
4.86378
0.0586338
0.0425572
0.0220188
0.0522938
0.0287784
0.0215769
0.0226562
0.0220221
0.193865
0.0424738
0.0982301
4.48807
0.0923322
0.0223389
1.21369
0.0276032
0.0560403
0.0220266
0.0218937
0.0243698
0.0279305
0.0221178
0.0567954
0.0287998
1.316
0.0444687
0.0241662
1.35079
0.123797
0.158934
0.0228368
1.7346
3.95705
0.0406492
0.0217839
0.0491313
0.0219231
0.0229058
0.0272704
0.025541
0.0219192
0.0219486
0.0221818
0.0377713
0.0219423
5.14361
0.0842366
0.022019
0.0251788
0.11179
0.0946128
0.0222867
0.0249342
0.0273817
0.0432036
9.07269
0.0220178
0.0228139
0.117727
0.0758923
0.0242219
0.0431213
0.027722
0.0221826
0.0244012
0.0325849
0.0219178
3.62404
0.0276723
0.0223448
0.0351187
0.0239721
0.0561658
0.105328
0.0219256
0.0222272
0.0290138
0.0222302
0.042457
0.0222924
0.0482482
0.0220273
0.0400402
0.0460877
0.0217635
1.34177
0.0239979
1.20568
0.0215559
0.0379209
0.0328928
3.53993
0.0219293
0.0569304
0.0256963
0.0527558
0.09655
0.0220253
0.0226638
0.0222656
0.0252543
6.54137
0.0458725
1.51649
0.0384251
4.58874
0.0220458
0.102642
0.0343464
1.58724
0.0241604
3.64118
2.31455
0.040955
0.0249152
0.273655
0.168836
0.0221636
0.0556279
0.0238289
0.0576539
6.22505
0.0228576
0.149785
0.190974
2.08907
0.0801513
0.0456831
1.25791
0.0537173
0.0219868
0.0221703
1.67505
0.0460329
0.0297103
0.0262231
0.0374384
0.0317017
0.0925322
0.0221818
0.117826
4.45338
8.79155
0.0264039
0.0219903
0.0471392
0.0222181
8.32539
0.118308
0.0862681
0.0219505
0.0221319
0.0859232
0.0220098
0.0551465
0.021482
0.0560697
0.0219784
0.114535
0.0215236
0.0218846
0.0220535
0.0519927
0.0247597
0.022119
0.0291351
0.0771828
0.0517762
0.022261
0.0220354
1.68473
0.0218871
0.02221
17.4933
0.0219445
8.5016
0.0272071
0.0222604
0.0409702
0.0250071
0.029618
0.0288691
0.0387263
0.0227679
0.0531858
0.0220058
0.0322059
0.0221285
0.0664364
0.0946005
0.0232943
0.0221196
0.025139
0.0757969
0.0264157
0.0372026
0.0265204
0.0513219
0.0274834
4.85803
1.22712
0.0220101
0.0219328
0.0218976
0.0232096
0.0251324
1.16978
0.0489856
0.0868447
0.0244602
0.0219324
0.0215188
0.0510375
1.6408
0.0248495
0.188332
0.0231922
0.0216904
0.579783
0.157665
0.300962
0.0361227
0.0528116
1.40971
0.253333
0.0220418
5.19369
0.0913018
0.07593
0.0324206
4.02386
0.0232408
0.0218943
0.0217009
0.060516
0.0220943
0.0221405
0.0225946
0.0431657
0.118565
7.724
1.95214
0.0895765
0.0219527
0.0221948
0.0221354
0.0233207
0.0220032
0.0219632
0.0422833
0.0920027
0.0219691
1.06908
0.0216705
1.36556
0.040193
0.0230737
0.0222298
0.0217634
0.0394764
0.0241467
0.0243456
0.0230068
3.41735
0.052837
0.0220563
0.0796104
0.0221249
0.0221392
0.0219302
1.7069
0.058837
0.0395904
0.0245936
0.0219908
0.0361298
0.0329818
0.0218144
0.0277053
2.49806
6.28707
0.046309
1.54832
0.0221372
0.0255013
3.15355
0.0221584
0.053409
0.0278112
0.0218568
0.0230044
0.0251129
5.59469
0.0222704
0.0253679
0.0341659
0.12542
0.0214566
0.0220234
0.0300574
0.0217345
0.0310188
3.32359
0.0425975
0.0217047
4.55029
0.167347
0.0503888
0.0217302
0.156135
0.030954
6.31327
0.0246768
0.0218935
0.0217123
0.0229924
0.0220089
0.0455628
0.0232204
0.134999
0.0221645
0.0329162
4.76775
0.0218538
0.0216879
0.0455846
2.18174
0.0444547
0.0974543
0.0218144
0.0221487
3.72971
0.0222611
0.0222416
0.0223686
4.57817
0.0588231
1.19942
0.0217846
0.0810373
0.0818828
0.02177
0.0370174
0.0388193
0.02216
0.0218151
0.024932
0.0337511
0.0646392
0.0248118
0.122832
0.0221222
1.7943
0.0220451
0.0916418
0.162726
0.0222228
0.138799
0.0284993
0.0221682
0.0276547
0.0717217
0.0218588
0.0218225
0.0221058
0.0221284
0.025342
0.0219797
0.516552
0.0303062
0.167459
0.0221866
0.045137
0.0483051
4.69306
0.0334643
1.07323
1.82367
0.022292
2.21375
0.0235643
0.0217675
0.0219763
0.0253206
0.0218908
0.0230913
8.20553
4.73056
3.3966
0.0297952
0.0220032
0.022395
0.0219979
0.0252117
0.0981949
0.0217552
0.0294783
0.0469748
5.27252
0.0222273
0.0219718
0.0221875
0.0217176
0.0221217
0.0221366
0.0739431
0.0219242
0.0239238
0.021899
0.0649012
0.0251415
1.39982
0.0244549
0.176474
0.0421985
0.0226962
0.0256641
0.0266766
0.0219034
0.0284411
0.023107
0.0731561
0.0922648
4.42322
0.0554183
0.0221035
0.0221117
0.0245041
0.0217643
0.0552776
0.0221272
0.277655
0.0367242
0.0483993
0.0392132
0.0241996
0.0217843
0.0274458
0.0219735
0.0396718
0.0251267
0.0250463
7.33317
0.0358835
0.0218225
0.0285688
0.0219847
0.0288222
0.0218612
0.0491362
0.0248469
4.86197
0.105025
0.023533
0.0220389
0.0219951
0.022187
0.0215845
0.034137
0.0228374
0.0220184
0.0224243
0.0221763
0.0294373
0.0910584
0.0440891
0.0371675
1.88701
0.0217716
0.0234171
0.0220977
0.0292457
5.25087
0.0224971
0.0222662
0.0286353
0.0413404
0.0717373
0.0354477
0.0229283
1.00762
0.0327138
0.021887
0.0222988
0.0232718
0.0219773
0.130963
0.0244514
7.00758
0.0969283
0.0522043
0.0938502
0.02426
3.10378
0.0255558
0.154915
0.783036
0.0219714
0.028624
0.0231417
0.0218924
0.0424101
2.73702
0.023929
0.0222847
0.0221863
0.0297077
0.0727746
1.54574
0.0221838
7.99467
0.0242448
0.0330063
5.8636
0.0219749
0.0221573
0.120091
0.0222717
0.0226761
0.022062
4.74452
0.0219944
3.8864
1.80217
0.028599
0.0768518
0.111997
0.0237752
0.0400348
0.0217317
0.0247819
0.118228
0.0219998
0.137383
0.0219454
0.0279809
0.0220154
7.32108
0.0421937
0.0874985
0.237799
0.0218296
14.6775
0.0414753
1.47376
0.0219162
6.02785
0.0707661
0.0217957
0.0329367
0.20278
0.0394626
0.022165
0.0221035
0.0232281
1.39711
0.027018
0.0289659
0.0447292
0.0219734
0.021809
0.0295281
0.0219484
0.0643522
0.022645
0.021695
0.0222876
0.0218219
0.0218409
0.0587074
0.0221998
0.050457
0.0218655
0.0219175
0.0220205
3.72607
0.0217561
0.0404379
0.0218253
11.64
0.0328131
4.36264
0.0221292
0.0332442
0.0798721
0.022943
3.23482
0.0236339
0.0293634
0.226294
0.0423604
0.0765764
0.138961
13.9484
0.0220622
0.0242584
0.0219534
0.0350786
0.0533881
0.0217131
0.022119
0.0218036
0.0265857
0.0229034
0.022155
0.136671
0.225326
0.719108
0.0248158
2.56368
0.0299109
0.0432525
0.0829128
0.0447823
0.0222924
9.8248
0.0222691
0.0231154
14.9178
0.0564317
0.0216545
0.11998
0.0217762
0.054322
0.0255678
0.0222441
0.0297644
1.4137
0.0919638
0.0822516
0.133431
0.119779
1.57856
0.0234761
0.123481
0.022112
1.3777
0.0217197
0.0290489
0.0293577
0.0820665
0.0218347
0.0219443
0.0284088
0.0467653
0.0398604
0.0480136
0.10366
0.0216755
0.0222854
0.0222845
0.0227539
0.0279119
0.0433168
0.0228239
0.024012
0.0218359
0.0236938
0.0221231
0.0288698
0.140301
0.0234962
0.28449
0.0240548
0.0217508
0.0595688
0.0220829
0.591473
0.0219055
0.0286726
0.0218282
0.0229915
0.104521
0.0219131
0.0292994
0.0282582
0.0220047
0.0218809
0.0300359
0.0218661
3.42462
0.0319683
0.0398901
0.0229388
0.0319178
0.0320974
0.0219042
0.023032
0.0268789
0.0282088
0.113194
0.0514124
0.0308605
0.0219119
0.103025
0.022006
0.0256068
0.0869102
0.0216101
0.0219424
0.040519
0.0244252
0.0221504
0.0429737
0.021867
0.0307203
3.12992
0.136674
0.0231964
0.0232388
0.0219192
0.0232457
0.133175
0.0218948
0.0255603
0.0216862
0.0221834
0.0775564
0.0260431
0.0218139
0.0875345
0.0221922
2.70247
0.0508364
0.0229746
0.0233103
1.90435
0.0226626
0.0430231
0.0217285
0.0410148
0.0374511
0.0446305
0.0735482
0.048725
0.0216418
0.0216836
0.0274783
0.0222622
0.0232139
0.0233502
0.643595
0.0505493
0.029566
0.021681
8.20024
0.0215332
0.0220233
0.0220293
0.0289749
0.0228747
0.0219992
0.0217465
0.118382
0.023386
0.0378379
0.0219751
0.0219474
1.57955
0.0282864
6.41995
0.107011
0.0432919
3.35644
0.0222684
0.0231243
0.0217689
0.0257388
0.021583
0.0428834
0.0729461
0.0221563
0.0415178
0.0232593
0.0247096
2.15072
0.0801956
0.0218895
0.0580517
0.0217826
0.0264446
6.73594
0.0268764
0.0219059
0.0216794
0.0230415
0.0230177
0.0215279
0.0222633
0.138007
5.24102
0.0237826
0.0218728
0.0218165
0.0220027
0.0219559
0.0468214
0.0216826
4.41864
0.0300085
0.0931192
0.191891
0.0215052
0.0247077
0.0218438
0.0223444
0.899004
0.156089
0.0264463
0.0518085
0.0421022
5.54306
0.0221804
0.0297332
0.0216657
0.151925
0.0248799
0.0339057
0.0782633
0.0334892
1.98892
0.0223179
0.0487794
0.0219358
0.101398
0.0848871
0.0223105
2.22833
0.0250542
0.0221092
0.0761832
0.051488
0.021811
0.0424572
0.0217103
0.0217631
0.0217505
0.0359472
0.0583613
0.0342856
0.754981
0.0497876
0.0220886
5.21595
0.0235091
0.0218419
0.0756186
0.118591
0.0228927
0.0220811
0.833617
0.0270371
0.0219928
0.0219782
0.036388
0.0270331
0.0239005
0.574782
0.0222716
0.0222043
0.0227165
0.0252351
0.0216913
0.605287
0.0222337
0.0246963
0.0220801
0.0248275
0.0600169
0.0220176
5.60466
0.0393832
0.0220094
0.0287469
0.0378716
0.0222742
0.0370215
0.0229384
0.022275
0.0333853
0.0222271
0.143052
0.0844223
0.0221237
0.238001
0.0510039
0.0419795
0.0774153
0.027268
0.0218305
0.0221287
6.59263
0.102677
0.0216905
0.0218751
2.18645
0.0850103
0.0218496
4.53657
2.57004
5.95188
0.0255889
0.0231882
0.0222676
0.0238278
0.0254364
0.0430707
0.0221544
0.0243746
0.0216114
0.0378902
0.097557
0.0546894
6.14355
0.0342396
0.0250354
0.025589
0.0262634
0.0224772
0.0264664
0.032698
0.0235543
0.0727583
0.0219036
0.0219425
0.0426895
0.0319713
0.0379669
0.0883671
0.0222182
0.0216689
0.0518259
0.0218753
0.0215957
0.0519182
0.0219061
4.86126
0.0225351
0.0223596
0.0222573
0.0284419
0.022111
0.0215164
0.0220389
0.0298473
0.0218659
0.208012
0.0274609
0.15731
3.86379
0.109374
0.980838
0.0271015
0.0408588
0.113086
5.32348
0.0254698
0.0222841
0.0327388
0.022172
0.0271302
7.88667
0.0330254
0.0219121
0.0495895
1.99625
0.0218856
0.165064
0.070544
0.0252083
0.021811
0.0295346
0.0322842
0.0323514
0.227448
0.0299165
0.0320856
0.0221255
0.0218592
0.0220151
0.0228245
0.028527
0.123994
0.0221459
1.6421
0.0252728
0.0255275
0.107297
3.17974
0.345297
0.0217047
0.0217563
0.0221024
5.21273
0.212303
0.0495863
0.0404507
0.195379
0.0218912
0.0221399
0.0237004
0.0216711
0.0255081
0.0224092
0.0230244
0.0771032
0.0401349
0.0225002
0.0218853
0.0376929
0.0376414
0.117444
0.0767476
0.0221474
4.5303
0.0464953
0.0364163
0.0346991
0.106806
0.0261237
0.0278985
7.71417
0.0271502
0.0271634
0.0220637
0.0341138
0.0229928
0.0218844
0.0350077
10.5821
0.0401459
0.0308703
0.0433454
5.92509
8.43008
0.0223118
0.0216127
0.0217874
7.07613
0.0220703
0.0227944
0.7474
0.0222741
0.0670927
0.0220643
0.0222772
0.0220528
0.0491787
1.38293
0.112539
0.0219759
0.0252002
0.130412
0.0221283
15.2355
8.54459
2.76883
0.0296518
0.0223612
0.028934
0.0300226
1.35862
0.0239004
0.0796012
0.0235654
0.0218818
0.0220956
0.0220375
7.59013
0.0258647
0.0259124
0.0243636
0.0219142
0.0220134
1.83507
0.0230539
0.0242128
0.0233014
0.0222533
1.87947
0.0216774
2.58478
0.0219162
0.0536992
0.0217903
0.0289052
0.052555
0.0439868
0.0221266
0.0218222
0.0221248
0.0220449
0.0582963
0.0728439
0.0235854
0.0259797
0.022895
0.0307757
0.0230522
0.0222557
6.25072
0.0579318
0.0332128
0.0227334
0.0218351
1.21795
0.0239636
0.0944471
0.183804
0.0223021
0.021882
0.0279582
0.024042
8.4781
0.02204
0.183101
0.0218436
0.0219951
0.024842
0.0235739
0.0348667
0.0977623
0.0395195
1.00781
0.0888609
0.0220314
9.33105
0.0219297
0.0222853
0.0222373
0.0336874
0.0551989
0.0595258
0.0217416
0.023669
0.0230289
0.0217451
6.87756
0.0218267
0.0218455
0.0221493
0.0262073
0.0764475
0.0277039
0.0303102
0.0220342
0.0329701
0.0220313
0.0226226
0.0274187
0.0269906
0.0425143
0.0223716
0.0222605
0.189564
0.0217232
0.0218466
0.0891005
0.0557768
0.0274211
0.0697701
0.0234781
0.0346316
5.91415
0.0521245
0.027574
0.0258126
0.0844891
0.0491468
0.0217437
0.0330124
0.0351454
0.0241777
0.0219878
0.0220392
0.115673
0.0220928
2.98298
0.0227394
0.0217479
0.021689
5.05775
0.0221272
0.0246502
0.0233928
0.0759901
0.0222522
0.0219093
0.0218242
0.0265191
0.0216091
0.0221059
0.0220238
0.0422829
0.108518
0.0357245
0.0242156
0.0564885
5.45633
0.0231575
0.0270526
0.0221972
0.0221392
0.143959
3.9728
0.0527012
0.0224249
0.0234513
0.0230718
0.0409603
3.55019
4.919
0.038217
0.0406666
0.0256179
0.118312
0.0502041
0.0750509
0.11196
0.0232156
0.093702
0.0221154
0.170715
0.0222061
0.0528531
0.0217597
0.0559648
0.0219882
0.0222462
0.025301
0.806273
0.0263778
0.0285406
0.0222888
6.70969
0.0217268
1.3134
0.0219107
0.0220911
0.0220255
0.0313942
0.021707
0.035999
0.0743656
0.0215124
0.0226022
0.0474707
0.022111
0.0222548
0.0302623
0.218441
0.0227088
0.025513
0.0494593
0.0221743
0.0233515
0.0218116
3.88266
0.0256486
0.0265646
0.0322738
0.0882012
0.0229577
0.0217268
0.0602542
7.4356
0.0221607
0.0219127
0.0424051
0.0777518
0.0222879
0.0361046
0.0349379
0.10704
0.0790586
0.0275931
0.021967
0.0220859
0.0289259
0.0726214
0.0224356
4.09995
0.0554083
0.0264021
0.0328855
0.0239998
0.02826
0.0263446
0.0226601
0.0216126
4.8748
0.0222732
0.0382831
0.0654512
0.0332979
0.0372615
0.0241136
0.0271359
0.0712012
0.0230163
0.0219043
0.0491486
0.0536465
0.0221524
0.0218336
7.42958
0.0220542
0.0356353
0.0496839
0.0218592
0.0352976
2.99181
0.0371862
0.0231406
0.0779207
0.0512364
0.0275225
0.061348
0.022422
0.0232368
0.0866977
0.0221046
3.11833
0.0406884
0.0312845
0.0267478
1.55662
0.0218866
0.039457
0.129269
0.0220806
0.118166
0.0359624
0.0297805
0.46802
1.76776
5.26445
0.0217803
0.0222077
0.0229224
0.223131
0.02905
1.64326
0.0508083
0.0377227
0.111992
0.0226775
0.0401876
0.0283902
0.0224383
0.0330919
0.0219112
0.0418446
0.110259
0.0464979
0.0217205
0.116913
0.0364815
0.0554393
0.0221655
0.0375073
0.0220872
0.161102
0.0564216
0.0976584
0.0259075
0.0825448
3.17998
0.0215821
0.147319
0.0217648
0.0227778
0.0260981
0.0254994
0.0220168
0.033349
0.0220724
0.0399117
0.078152
0.0220676
0.134478
0.0217505
0.0278238
0.0383731
0.0228806
0.0593248
0.624276
0.0264203
0.021758
0.0222388
0.0216251
0.0385253
0.029528
3.45044
0.0216967
0.0239167
0.0252433
0.0233404
5.41139
1.14077
0.0359806
0.96484
0.137336
0.0218647
0.417901
0.0468351
0.0249573
0.202793
0.0263407
0.321958
0.0390379
0.0961656
0.0227356
0.0410218
0.383851
17.4082
0.0400357
0.0230097
0.0219055
0.0948599
0.0221427
2.84195
0.029213
0.201392
2.95046
0.0387466
5.27064
0.0221204
0.36898
0.0237451
0.0320905
0.031875
0.024904
0.0466175
0.871483
0.0220059
0.0271158
0.0363544
0.0229188
0.0216435
0.039927
0.104896
0.0282937
0.0320918
0.0323874
0.0258935
5.42421
0.0219176
7.05285
0.0981026
0.0223063
0.031856
0.0220259
0.0216394
0.314277
0.0218516
0.0450445
0.022101
0.0268312
0.0241667
0.0990828
0.0325804
0.0235092
0.0220659
0.0246352
0.0219865
0.0229666
0.0255452
0.0221435
0.0288709
0.0874169
0.0222621
1.34042
0.0216365
1.83764
0.0404493
0.0710854
0.0218295
0.0348096
0.0766352
0.0364936
0.153492
0.156478
0.0220655
0.022121
0.101542
0.0516518
0.0235664
0.0265377
0.108244
0.0217591
0.028201
0.0218702
0.0218351
0.0221691
0.0287272
0.0391737
0.0217932
0.0446251
0.0220233
1.33069
0.052784
0.0220719
0.0221444
0.0249975
0.0215107
0.0221779
0.031311
0.0218207
0.0393986
0.0245661
0.0222912
0.0289345
0.0220484
0.0220459
0.224017
0.0370447
6.73015
0.0220745
0.0245596
5.53657
0.0217783
0.051997
0.0245354
0.0314429
0.0231427
0.0363945
0.0341257
0.0270066
0.023334
0.0390586
0.945666
0.0218059
0.957175
0.852768
0.0228421
0.0245621
5.04252
0.0746391
0.0251909
0.0219522
0.0244663
0.0369734
0.022061
0.0226498
0.0846691
0.023382
0.0393833
0.0270914
0.0221113
0.022145
0.0821552
0.0250053
0.0327424
0.0218765
0.036823
0.0217297
0.0220956
0.0615344
0.0296158
0.0228813
0.0746234
0.0603754
0.0221488
0.0261865
0.0268037
0.0218358
0.233289
0.0252799
4.25589
0.0222723
0.0216964
0.0222199
0.0502133
0.0379238
0.0856378
0.0222483
0.0944262
0.0387701
0.103407
0.0220008
0.112644
0.134154
0.607752
0.0222403
0.032602
0.0309375
0.0310433
0.0681337
3.89995
0.112398
0.0383063
0.0633072
0.0220803
6.24652
0.0248702
0.0752558
0.0478698
0.034993
0.0221802
0.037786
0.0373738
0.0220959
0.0220136
0.0217649
0.0221149
0.0312554
1.05286
6.52316
0.0283341
0.0255491
0.0218863
0.0289892
0.0217429
0.0233728
0.0228594
0.0265047
0.0740445
0.0219096
0.0246501
0.0221431
0.0383479
0.0257439
0.021642
0.0385705
0.0295366
0.916881
0.0219879
0.0313841
0.023356
0.0221319
0.0836334
0.0234193
0.0221508
0.0640569
0.0221286
0.0252698
2.93125
0.0218476
0.0219432
0.0778954
0.0556336
0.0767974
0.0274751
0.0315761
0.0217245
0.0222404
0.027001
1.6089
0.0320694
0.0474285
0.0398864
0.021721
0.0507672
0.10471
0.0231945
0.0220309
0.0223621
0.0220095
0.0392469
0.0450817
0.0224588
0.0226164
0.0743782
0.0660501
0.27573
0.0228019
0.0430234
0.0283344
0.798953
0.0342301
0.0241847
0.023768
0.0225263
0.0761654
0.0242982
0.0692893
0.0259134
0.0219619
0.0221013
0.0246156
0.224461
0.0320533
0.0220954
0.0216286
0.0250965
0.0261908
0.0219848
0.0233377
0.0536483
0.0258799
0.024026
0.0243895
0.0243497
0.021919
0.021749
2.37308
0.169946
0.0719265
3.63595
0.0219016
0.0267311
0.0222567
0.0622875
1.11053
0.0238875
0.067412
0.0351173
0.0235073
4.13487
0.450524
0.0229377
0.0232448
0.0216269
3.40809
0.0259033
0.0217876
0.0855937
0.24156
0.087615
0.242993
0.0255704
0.0392383
0.0249976
0.0222584
0.0797913
0.0219549
0.0218022
0.0230613
0.0840347
0.028056
1.32158
0.0340677
0.0219442
2.19091
1.82641
0.0416913
0.0341861
0.4637
0.0805342
0.0781918
0.198608
0.84768
0.0237707
0.0220052
0.0276535
0.0503781
0.022974
0.0502692
0.0220935
0.374129
0.0303925
0.074506
0.0216729
0.0221295
0.772678
0.073828
5.66918
0.0250517
0.0231169
4.26225
0.17263
0.0822477
0.0537808
0.0218869
0.0218399
0.0221567
0.0231662
0.0221046
0.0492606
0.445022
0.0401075
7.71697
0.0873055
0.0222271
0.0353653
0.0220309
0.0225422
0.174751
0.0965782
0.0257139
0.0220679
0.0221865
0.079893
0.0226617
0.0221066
0.0221093
0.0217163
0.0242749
0.0222645
0.0352338
0.0221784
0.0221435
1.06762
0.0364596
0.0216773
0.0333197
0.812782
0.0912241
1.22287
0.0316808
0.0220308
0.0218915
0.0638812
0.0216809
8.03388
0.0229962
0.0249626
0.0220988
0.0219814
0.0227195
0.0426392
0.0228775
0.0228026
0.667677
0.0220792
0.0224525
0.0252282
0.0222158
0.0221728
0.0218049
1.68636
0.0222946
0.0293054
0.0796615
0.0215354
0.0220833
0.0768505
0.082335
0.0232047
0.493468
0.219811
0.0434325
0.0227854
0.0222835
0.0608121
0.0301147
0.0221835
0.0829108
0.042172
0.170402
0.0480108
0.0330496
0.032441
0.0488319
0.990031
0.0321313
0.101809
0.025027
0.155695
0.0860503
0.0237644
0.0221949
0.0219326
2.65988
0.0220643
0.0218972
0.0220303
0.0710217
3.41586
6.17568
0.0220999
0.0241202
0.265597
0.0263232
0.0752643
0.149761
0.0775313
5.62617
0.0219832
0.0288989
0.0585447
0.0249229
0.0224408
0.0479058
0.0702123
0.0328554
0.0937239
0.0220188
0.0231638
0.158447
0.0221939
0.0521445
0.0253741
0.0219009
0.0222874
8.19663
4.1019
0.0341704
0.0291096
0.0221927
0.0229964
0.0484467
0.023656
0.0776044
6.75072
0.0221082
0.0991022
0.0217109
4.56188
3.25111
0.0251869
0.0217882
0.0825498
0.0222691
0.0219626
0.0246849
0.0222373
3.34333
0.0220882
0.0571567
0.299267
0.0227846
0.127532
0.248733
0.247064
0.0221256
0.0220171
0.0352856
0.022532
0.0245436
0.0222876
0.021749
0.0495594
0.0767013
0.0223099
4.9744
0.021764
0.0639338
0.0223282
0.0215503
0.105407
0.0385807
6.4315
0.0407508
0.0228657
0.0221311
0.0254578
0.041693
0.0216787
0.0238589
0.0982491
0.061633
0.0459676
0.0267896
0.0222781
4.10758
0.0267
7.28952
0.0219221
0.0915006
0.0293266
0.0318489
0.121483
0.0253065
0.0245749
0.0265665
0.0222761
0.143829
0.0217393
0.0264919
5.27114
0.0221045
0.538741
1.03177
0.0277573
0.0417216
7.34134
3.029
0.0221129
3.71309
0.0374546
0.0221213
0.0314907
6.00105
0.0218391
0.0218606
0.246021
0.022022
0.0269894
0.021643
0.0274191
0.191142
1.79834
0.0266879
0.0351936
0.0224908
0.0218238
0.806156
0.0218211
0.0216804
0.995771
0.0283557
0.0224899
0.0481146
0.0228562
0.0246629
0.0343367
0.055114
0.0217978
0.0241402
0.577374
0.0687744
0.0224072
1.11878
0.0220836
0.0218558
0.229483
0.0222019
0.0221173
0.0735173
0.021949
0.0260945
0.0241445
0.0221538
0.0220244
0.0233885
0.0320663
0.0263854
2.96434
0.0581829
0.0313232
0.0220963
0.12924
0.191595
0.0370116
0.945779
0.307203
0.184066
0.0256452
0.160474
2.76491
0.0269207
0.326802
0.0892097
0.0406334
0.416446
0.0324113
0.0273157
2.72808
0.0412057
0.113738
0.0832089
0.447848
0.0230201
0.0219685
0.0222751
0.098684
0.0233786
0.0252826
4.94482
0.0216817
0.0219346
0.0289968
0.0220413
0.0528082
0.0860835
0.0228734
0.0269787
0.0473165
0.0855377
0.0483749
0.023975
0.0267528
0.0486131
0.0346568
0.0251902
1.01436
0.0247445
0.0876932
0.0227711
0.0491393
0.0220426
0.0292014
0.0216023
0.0216359
0.0286688
0.032163
0.0220514
0.0689113
0.0416046
0.03211
0.0218403
0.0287271
0.0377166
0.0284537
0.0510985
0.466837
0.0223011
0.021553
0.0215947
0.073164
0.0737608
0.0215669
0.0225699
0.0227217
0.0922705
3.22184
0.0283183
1.07845
0.0295432
0.0763906
0.0304701
0.0294894
0.357668
0.0855662
0.0256036
0.0497978
0.0219479
0.0222653
0.741528
0.0702504
4.55334
0.0288639
0.0229295
0.0795152
0.0222734
0.0282568
0.0222226
0.0384026
3.41949
0.59644
0.0230791
0.0220205
4.53742
0.0228558
0.0467209
0.0219535
0.0782546
0.0402054
0.0615298
0.0486426
0.022061
0.103477
0.0216444
0.0244649
4.81293
0.0401122
0.11965
0.357705
0.0278677
0.0332364
0.0351048
0.75778
0.0220802
0.225781
0.0501848
0.022038
0.0222886
0.0311163
0.0227357
0.0342233
0.0215475
0.906644
0.0252666
0.0300292
0.0220883
0.0218956
0.0342099
0.0221708
0.0315197
0.0218863
0.0221922
3.83827
0.0306845
0.022121
0.0323506
0.0218075
4.83011
0.0237458
0.0218337
0.0251837
0.0331502
0.0259094
0.0274184
0.146712
0.0220925
0.0778758
0.0278589
0.0495808
0.0290727
0.0324485
0.0897316
0.0544533
3.56342
0.251032
0.0528413
0.0222602
0.0219428
0.0226698
0.0222529
0.0237654
1.24966
0.0689703
0.220471
0.0385416
0.0240192
0.0219497
0.0221819
0.0221775
0.127491
0.024182
0.0221746
0.05779
0.562805
0.0221129
0.0221465
0.022194
0.0219375
1.70998
0.0358038
0.0219501
0.0217307
0.0813044
0.155511
0.0478682
0.0216772
0.0220913
0.178932
0.0744389
0.0283125
0.0246092
4.97165
0.0879748
0.0810646
3.89773
0.0754473
0.0215418
0.0393342
0.0243034
0.292731
0.031025
0.0963405
0.0232033
0.0319314
0.0354565
0.0498549
0.0399806
0.0229384
0.157529
1.8745
0.0932943
0.0219833
0.0222448
0.0216937
0.0218511
2.02148
0.0336772
0.027613
0.130285
0.0578414
0.0264728
0.0546052
0.0245706
4.19534
0.0340792
0.0491687
0.0256291
0.0345147
0.0438261
0.0549993
0.0867464
0.0220517
0.0385153
0.0221581
0.082192
0.0289517
0.0218765
0.0754707
0.0219134
0.0253575
0.0229388
0.0345951
0.0216398
0.0519625
0.0248373
0.0415859
0.0228511
0.0218017
0.0267745
0.0221706
0.023455
0.164174
0.0293221
0.0254512
0.0217431
0.0220884
0.0356149
0.0368932
0.158719
0.0216325
0.0275242
2.10399
0.0953391
0.0221024
0.133522
0.0219032
0.0969135
0.0928325
0.0284368
0.967215
0.0219365
0.0407445
5.64545
0.0831738
0.0283468
0.025626
0.0268583
0.0268607
4.89489
0.0220829
0.0351165
0.0324101
0.0234498
0.0616044
2.02983
2.37417
0.221045
0.0218509
0.330954
6.87346
0.0323807
0.0251753
0.166323
0.0220195
0.0233031
0.203428
0.16542
0.0220683
0.0227969
0.0218685
0.0411057
0.0749275
0.0397897
0.0220214
0.136753
0.0327401
0.809849
1.38948
0.0784585
0.028245
0.328844
0.103964
0.0220809
0.0216032
0.0225002
0.0408809
1.38605
3.43848
0.0821896
0.375282
0.111746
0.0219119
0.354368
0.0349023
0.129817
0.0219672
0.0220793
0.024041
0.112337
0.0328761
0.0954814
0.0236852
2.72014
6.47027
0.0514268
0.049242
0.0782147
0.0240885
0.0408359
0.0220789
0.024692
0.0612474
0.0222836
0.0354069
2.22734
0.0221243
0.0356156
0.0220364
0.0226305
0.583137
0.0220973
0.0775602
0.175378
1.34355
0.0222236
0.0222402
0.130155
0.0220852
0.0580356
0.0287004
0.0218284
0.0970778
0.0222581
0.494644
0.0221801
4.0187
0.021638
3.28613
0.0855843
3.00391
0.733079
0.0223949
0.0253032
0.0261821
0.0231873
0.0220929
0.0771988
0.0892695
0.166467
0.021865
0.0993345
0.891121
0.0222876
0.0983458
0.0387416
0.0792259
0.0952992
0.0232684
0.0763857
0.0887056
0.0216059
0.0236415
0.0217061
0.0867161
0.490489
0.170855
5.96665
0.121679
0.628197
0.0793624
0.072116
0.0220962
0.146129
0.0237194
0.0221043
1.18773
0.0786957
0.0218071
0.0262511
0.0257979
2.90068
0.022041
0.0247196
0.100659
0.0837947
0.0261684
0.0878264
1.77286
0.0854832
0.0509882
0.563106
0.0220047
6.24426
0.0251173
0.0235547
0.0354164
2.55817
0.0216807
0.0444612
0.0221283
0.0218567
0.0416117
3.01454
3.14447
0.0370434
0.0235939
0.0814089
3.65377
0.0265034
0.0222763
0.0416418
0.055181
0.0867798
0.0927183
0.02211
0.0285972
0.0220718
0.0365352
7.26752
0.03023
0.0385659
0.119419
0.0215403
0.0219925
0.0443567
0.035463
0.0221142
0.914386
0.0262787
0.35112
0.128979
0.0221023
0.0239867
0.0790501
0.0268706
0.0215871
0.0220742
5.29818
0.0276357
0.021742
0.126072
3.11768
0.0239989
0.0395474
0.0300188
0.0244707
6.31287
0.0333331
0.0218323
0.0886799
0.0409452
6.07777
0.0230347
0.0228504
0.0778636
0.0361456
0.0220704
0.0389091
4.3874
0.0624342
0.022119
5.00755
0.0410153
0.0236247
0.022302
0.0501135
0.02274
0.784347
0.134028
0.0242595
0.0336929
0.0410856
0.0754341
0.19153
0.0324939
0.0392868
0.0237789
0.022329
0.0227911
0.0246149
0.0782971
0.127149
4.95456
0.0796872
0.0334056
0.0233499
0.0241102
0.0230327
0.0262609
0.0279667
0.0741918
0.023084
0.0226166
0.159966
0.0359875
0.0220814
0.0222684
0.180896
0.02189
0.380939
0.0220959
0.0281592
0.021716
0.0360703
0.0226789
1.42601
0.0233516
3.95489
0.0356946
0.0234347
0.0792188
0.0282939
0.0393455
0.353855
0.0228228
0.580023
0.055788
0.0283122
0.0222375
0.0224113
0.0816274
0.0836651
0.0264305
0.0220899
0.0220852
0.022542
0.0222431
0.0308829
0.022315
0.0359614
0.0220621
0.0221086
0.0220621
0.156727
0.561443
0.0222745
0.0252362
0.0890351
0.0354828
0.0226887
0.0219763
0.0220714
0.0757209
0.0949311
0.0411202
2.67321
0.0221849
0.242623
0.170628
4.12208
0.0221101
0.0272037
0.0243729
0.0221461
0.0268482
0.184704
0.0844151
0.0331918
0.0253053
0.0280655
0.0220898
0.0226102
0.0230233
5.33301
0.028265
1.01606
0.029252
0.0222627
0.234083
0.14901
7.07493
4.01325
0.0270272
0.0528723
1.95266
0.0472947
0.0220173
0.0229186
0.0231902
0.0219707
0.0884205
5.7011