/*--------------------------------*- C++ -*----------------------------------*\
| =========                 |                                                 |
| \\      /  F ield         | OpenFOAM: The Open Source CFD Toolbox           |
|  \\    /   O peration     | Version:  v2012                                 |
|   \\  /    A nd           | Website:  www.openfoam.com                      |
|    \\/     M anipulation  |                                                 |
\*---------------------------------------------------------------------------*/
FoamFile
{
    version     2.0;
    format      ascii;
    class       volScalarField;
    location    "300";
    object      ddt0(epsilon);
}
// * * * * * * * * * * * * * * * * * * * * * * * * * * * * * * * * * * * * * //

dimensions      [0 2 -4 0 0 0 0];


internalField   nonuniform List<scalar> 
14033
(
2.39611e-05
-0.000108338
1.9796e-11
-8.893e-11
-1.54556e-12
1.35031e-10
9.63925e-07
-2.00185e-09
-6.59965e-11
-0.000120017
-6.13753e-10
1.49777e-10
3.08417e-11
2.99482e-11
-6.1656e-13
-1.3876e-11
7.95177e-11
2.64453e-05
3.27081e-11
-6.16121e-11
8.84584e-11
3.51967e-10
3.61456e-09
-2.05912e-12
-1.54206e-09
3.14608e-11
-2.03062e-08
3.26117e-09
-2.72652e-05
8.29066e-07
-2.3602e-10
-2.25189e-09
-1.74319e-07
1.32841e-10
-2.1702e-05
-1.582e-11
-0.000147929
-7.95599e-05
-4.64492e-12
2.1525e-10
0.000295834
7.49647e-12
-7.88781e-12
5.85968e-12
1.52166e-09
3.45569e-11
4.84929e-05
-6.46637e-11
-7.78499e-09
-0.000138733
-6.72024e-11
-1.81084e-11
-0.00102471
-0.000105895
7.71348e-11
2.7898e-11
-6.94378e-06
-0.000137232
8.1578e-10
-3.00421e-10
-1.21578e-09
-0.00015829
8.39266e-10
-2.78214e-11
6.47024e-13
9.47748e-13
1.6283e-05
-1.02327e-08
1.942e-10
1.23154e-10
5.35904e-13
8.81429e-12
4.48215e-05
1.60536e-10
-4.66413e-10
1.44283e-11
-6.54729e-11
2.41655e-10
5.07724e-05
2.83398e-07
-7.28967e-11
4.68167e-05
-0.000933581
3.84226e-11
2.91396e-12
7.38327e-12
2.60367e-11
-6.5793e-05
9.20789e-05
1.75319e-10
-1.42193e-11
-7.60113e-11
-2.15358e-10
7.07852e-05
-3.57168e-10
5.13934e-07
4.44715e-11
3.14669e-11
-0.000133855
-9.54496e-13
-1.72473e-12
-1.13047e-10
-8.16273e-11
1.44296e-10
6.83574e-05
-5.15889e-09
8.57277e-05
5.22323e-11
-5.36311e-09
-4.12065e-13
-8.9418e-07
9.10175e-11
3.44099e-12
1.62224e-07
1.3591e-10
2.07449e-10
3.49034e-07
-5.35514e-12
0.000155776
-1.94178e-07
1.02827e-11
-7.77583e-10
-3.92307e-06
-5.25034e-11
-5.42659e-05
2.638e-10
8.11864e-12
-1.18165e-07
0.000343316
-6.98813e-12
2.87773e-05
3.25601e-12
-2.73716e-12
-9.73723e-05
2.03257e-05
-3.64652e-11
2.6308e-09
-8.58373e-13
7.97045e-11
-1.53818e-11
-3.71826e-10
0.000240901
-2.63869e-09
3.63769e-10
-1.13498e-05
-4.38656e-09
2.31467e-11
-6.70443e-10
-0.000159527
3.77626e-05
-3.68512e-06
-4.54492e-10
-5.88412e-13
-1.30659e-08
-3.16325e-10
-0.000163053
-3.23192e-11
1.42558e-11
-1.22705e-10
-7.05749e-13
-7.92172e-11
-1.71611e-09
-0.000104891
-4.98037e-11
-2.60525e-10
1.77e-11
-6.7266e-11
-8.37959e-10
-0.000492901
-6.37829e-11
1.5926e-10
1.43996e-09
4.17306e-10
0.000408195
1.28829e-11
-1.78895e-11
2.79869e-08
0.000380416
1.36029e-10
2.42782e-10
1.26127e-06
0.000508768
-1.86402e-11
9.02705e-11
-1.7476e-12
8.20325e-05
-0.000138615
-3.75374e-10
-0.000154241
6.28958e-05
3.2224e-05
6.82432e-11
-8.31944e-09
-3.50755e-10
-6.53032e-05
0.000126407
5.52377e-10
0.000344491
4.53731e-11
4.39552e-12
4.61272e-11
1.03035e-10
-1.33888e-12
2.11003e-06
-1.33627e-10
-8.51133e-13
-8.42884e-10
-9.35193e-06
3.94564e-11
9.82077e-08
0.000365372
-9.3678e-06
0.000126572
-9.49302e-05
-2.66247e-12
-1.02006e-10
2.07402e-12
3.59438e-06
-1.85605e-11
1.4338e-08
4.07907e-11
-3.09882e-11
2.73202e-11
2.14302e-14
2.97573e-11
1.5016e-09
3.43824e-09
1.04273e-10
6.66611e-11
2.60029e-11
1.80323e-12
-2.41043e-08
-5.2794e-10
-1.30265e-12
2.43605e-06
-0.000136747
-1.65133e-08
-6.84852e-12
-2.54906e-11
-4.16801e-11
-5.97436e-07
4.35437e-11
-7.99475e-12
3.11625e-12
5.12352e-11
2.19602e-11
0.000125617
0.000405699
1.60624e-11
3.89738e-10
-9.16514e-11
0.000464934
2.80279e-11
0.000150769
4.22977e-11
1.41374e-05
-6.02344e-11
1.71989e-11
-1.08438e-11
6.28657e-05
1.46427e-11
0.000254193
3.83332e-07
9.36919e-09
4.67747e-10
-2.37248e-06
-2.26665e-10
3.56643e-07
1.1598e-07
0.000301405
3.00005e-10
-0.000134817
1.82877e-12
2.0295e-10
3.1245e-05
-2.16254e-11
1.46763e-12
6.74349e-09
1.16674e-11
0.000132269
-3.91395e-08
-7.35668e-12
1.20824e-06
-1.0217e-10
-3.0364e-05
3.4066e-05
6.92318e-05
-1.30198e-11
-5.54671e-05
4.59217e-05
-2.12238e-10
-1.20157e-10
-2.18265e-09
-3.1615e-05
-1.79824e-10
-3.14858e-11
4.31549e-11
4.68238e-12
-1.86152e-12
-4.55472e-11
-6.28507e-12
-3.91937e-05
1.40836e-05
-4.8494e-10
8.35811e-09
-5.71429e-08
7.46422e-11
-6.97318e-11
0.000118709
2.04283e-10
5.99546e-09
-2.35097e-11
1.04615e-07
-2.78807e-09
-2.29108e-05
1.9092e-07
-9.89447e-12
5.23735e-10
3.68535e-10
0.000547856
-7.70714e-05
-1.87131e-08
1.00991e-10
-1.55255e-09
6.00301e-07
-5.05156e-06
-6.9099e-10
-3.67299e-10
6.88624e-05
1.95542e-10
3.5927e-10
5.79027e-05
-0.000663355
-2.09012e-10
-4.42608e-13
-0.000107549
1.72655e-09
-1.94875e-11
-0.000116467
-2.83233e-10
0.000409291
-7.47633e-10
3.97057e-12
-2.8834e-10
-1.67955e-07
-1.68234e-09
-2.59824e-11
-2.35977e-10
0.000188729
7.54971e-07
4.02833e-11
1.35356e-11
9.17145e-05
4.03367e-10
5.05073e-11
-3.06244e-12
4.05326e-10
-0.000211056
4.51209e-10
-1.14265e-10
8.21628e-11
-6.66634e-09
-3.01776e-06
-3.84916e-11
3.32827e-12
-2.6317e-08
-1.26887e-08
8.45541e-12
3.69475e-10
7.08618e-12
7.80335e-10
1.75712e-11
3.19915e-10
4.76224e-10
5.01496e-09
8.3116e-05
2.64888e-10
-8.93509e-11
9.99597e-05
-3.47267e-13
-4.61493e-11
-4.74632e-09
3.60525e-11
-3.26261e-07
4.41282e-06
-6.00762e-11
1.03783e-06
4.00502e-12
-7.23797e-11
-3.54804e-09
-6.79548e-11
0.000425255
-2.96077e-11
-7.65097e-11
-1.4927e-05
3.14008e-05
-9.58368e-06
8.6932e-05
-6.62418e-08
3.85165e-10
-3.6341e-06
1.23406e-12
4.89759e-12
2.96093e-10
-3.75175e-08
-1.82672e-11
1.09735e-10
-3.77516e-12
4.49766e-11
-5.87448e-05
-0.000154071
1.64827e-07
1.09421e-11
-9.55827e-05
6.43935e-10
2.23872e-11
-8.55075e-09
1.66813e-10
-6.65091e-11
-3.3126e-06
-4.48274e-10
-5.71142e-07
-6.51437e-10
1.35954e-12
-6.0045e-12
4.78632e-10
1.51073e-11
-6.72107e-13
1.74521e-10
2.54663e-11
-6.03717e-09
1.08709e-10
2.41584e-10
1.53061e-10
-5.14663e-09
-5.18052e-12
1.39801e-10
-1.33802e-10
-1.57821e-08
2.15998e-06
5.506e-05
-4.69188e-12
-6.02734e-11
2.20819e-11
1.12002e-10
-6.43487e-13
-3.50424e-10
-8.49247e-05
2.17953e-06
3.02402e-11
0.00011777
-3.69617e-12
2.00307e-12
-8.96745e-07
3.0801e-10
1.24349e-05
-1.22612e-05
5.76831e-11
-2.20198e-13
-4.65544e-10
1.9122e-10
1.64738e-05
0.000107125
-1.68221e-06
7.74105e-13
-3.55823e-11
3.92316e-05
-2.83036e-11
2.53274e-11
0.000136348
2.48899e-10
1.28757e-10
-3.88444e-11
-2.42512e-10
-2.67053e-10
-2.20156e-05
-2.03465e-11
-3.77077e-06
-3.53456e-11
-5.21664e-05
2.94514e-11
0.000114399
-1.54438e-10
0.000184936
8.02897e-05
8.1073e-11
-0.00196089
5.53525e-13
-3.83699e-09
-5.4743e-12
4.58252e-11
-0.00187676
-0.000614905
1.98711e-10
-2.464e-11
-3.05634e-11
2.30892e-09
5.55208e-05
-3.31299e-10
5.24464e-07
4.98018e-10
-2.31018e-09
2.77724e-05
-3.21644e-06
8.75978e-09
5.32062e-12
-4.07577e-12
0.000150874
-5.56806e-11
-4.37722e-09
6.39185e-13
-7.25913e-13
0.00011674
1.08238e-11
-2.52463e-11
5.56612e-11
-8.37733e-10
4.12559e-12
2.06124e-05
3.05289e-05
1.14958e-11
-2.11775e-06
6.22686e-12
-3.87249e-11
-1.73482e-11
3.8408e-10
1.94406e-10
2.98454e-10
-3.02306e-10
-1.91198e-11
1.76835e-10
-2.43836e-12
-0.000218174
-1.6248e-11
2.61187e-11
-2.12199e-10
4.1204e-11
-1.16987e-11
2.30227e-11
1.43804e-08
-2.045e-08
4.28861e-05
-1.13006e-12
-9.2435e-12
-7.32015e-06
2.24851e-10
9.11346e-06
8.63587e-12
0.000125206
3.4405e-10
1.36006e-10
0.000313428
-2.72659e-12
2.17261e-12
2.26974e-09
1.6797e-08
1.19445e-11
2.74908e-10
-5.15929e-10
-0.000141889
-1.98825e-10
9.00982e-05
-6.72823e-10
-2.33842e-10
-1.91856e-10
9.4153e-11
-7.05099e-06
-2.16357e-11
7.86653e-12
-4.40303e-11
0.000209787
0.000110565
3.46921e-05
5.81063e-12
-0.000136739
3.8221e-11
-0.000370552
0.000271456
-1.07889e-10
-0.000131436
-1.37952e-10
1.04501e-11
1.18595e-11
2.13875e-12
1.38866e-11
1.44539e-07
1.97964e-11
-1.58521e-08
8.70208e-12
1.41358e-11
-0.000169326
-7.33631e-11
2.95873e-11
-7.58111e-08
-3.63416e-11
1.24121e-10
-3.43635e-12
0.000242047
4.63547e-11
1.916e-10
2.46735e-10
5.14394e-12
4.1142e-10
1.62725e-05
7.82494e-11
0.00125533
2.44494e-05
-7.21315e-05
-6.75754e-09
-1.0475e-05
-2.94847e-09
4.54674e-08
-2.37881e-11
3.88633e-11
9.14468e-06
8.13573e-12
2.23824e-10
8.36051e-11
-0.000322441
0.000531149
0.000409972
-3.57852e-12
-1.20432e-10
1.37892e-11
2.41431e-10
-8.75019e-10
7.35194e-06
-2.1302e-09
-8.88246e-09
2.78042e-10
1.24755e-12
1.92886e-10
1.50009e-12
2.93444e-07
1.24891e-10
-4.42834e-05
-4.06503e-12
3.25203e-11
2.58997e-08
2.43857e-11
2.65644e-08
1.5992e-10
-5.98281e-10
0.000143623
-2.61092e-08
-1.50646e-05
-8.68736e-09
-2.72849e-12
-2.86096e-11
-2.24806e-10
-4.57377e-10
4.34798e-09
3.17767e-10
-3.34807e-11
6.66e-10
1.62055e-06
4.8986e-12
-5.45632e-11
-0.000999973
1.50075e-11
-1.4561e-14
1.46428e-11
-2.33624e-05
1.76239e-06
2.1694e-11
-6.15774e-05
-1.14461e-09
-5.49449e-05
-1.0284e-10
2.7945e-11
-1.51626e-09
1.20782e-05
-2.60963e-05
1.38892e-10
5.32898e-12
1.63472e-10
2.81706e-11
-3.86135e-06
-2.05611e-07
-6.49323e-10
-8.0713e-05
3.87756e-06
-1.5584e-12
9.86321e-07
0.000111684
5.80583e-11
1.1398e-10
0.000256485
-3.79553e-08
6.29356e-12
0.000121537
1.64101e-10
-9.05895e-05
2.30254e-10
8.37931e-08
-0.000119783
0.000516962
2.4519e-06
-7.77881e-11
5.59674e-12
-6.46506e-05
2.42091e-10
-4.92423e-09
1.71444e-10
1.32294e-10
-1.10153e-10
1.01613e-10
-8.21326e-06
-5.37126e-10
2.81813e-10
5.54011e-05
-9.69703e-11
-3.71826e-12
4.12815e-12
-9.28964e-05
-3.17908e-10
-4.56824e-11
-2.7084e-11
-7.16176e-13
1.28185e-10
8.1177e-10
-5.47727e-07
2.09706e-10
-1.6045e-12
5.36944e-05
3.36505e-11
-1.32865e-06
-6.214e-10
2.4279e-10
3.65865e-10
-7.95464e-13
3.51177e-08
1.66113e-09
3.88686e-10
-2.50858e-10
2.1401e-10
4.46539e-05
-2.26125e-11
-0.000289228
4.42654e-09
-0.000144425
-7.13848e-10
6.07133e-10
0.00025573
0.00020483
-1.79248e-10
2.06176e-10
2.39163e-12
0.000408601
-0.000211061
5.50389e-10
-3.07592e-11
-7.55385e-11
-1.00741e-10
-4.24335e-10
0.000602285
6.70089e-12
-4.55342e-08
0.000124892
-0.000142191
-5.5412e-12
1.0487e-06
2.69778e-07
2.19914e-10
-8.00997e-12
-3.60569e-11
-5.74053e-05
3.80256e-13
2.20216e-10
-7.75044e-10
-4.16287e-11
-5.8475e-11
1.25606e-10
2.26887e-06
-6.15751e-11
-5.58148e-10
-1.10296e-05
-2.53761e-05
-2.27067e-09
4.85336e-11
6.00201e-11
4.7189e-11
0.000317297
2.01627e-10
4.07832e-11
-6.00713e-12
-0.000110373
1.73426e-11
2.67146e-08
-6.94107e-11
-0.000195696
-3.60183e-06
-3.95568e-10
-2.55688e-07
-0.000109026
-5.905e-12
-3.93699e-08
0.000188401
1.69902e-08
-3.36519e-06
1.25997e-09
0.00053803
-4.2217e-11
-2.56641e-06
-5.41794e-08
0.000346498
-1.13338e-10
-0.000181325
-2.84203e-10
-1.73019e-10
2.99444e-10
-1.11125e-10
1.01616e-10
-1.2837e-09
9.62869e-11
1.80606e-10
1.69207e-11
9.5787e-09
6.66561e-05
-2.20608e-09
1.62718e-08
1.15737e-11
-1.34241e-11
-1.08106e-10
1.87854e-08
1.22385e-10
-6.78505e-10
-7.89843e-12
-8.35147e-11
-2.67577e-06
1.54295e-11
5.38238e-10
-0.000723576
-1.71749e-11
3.15551e-12
-1.8384e-08
-9.38537e-06
6.96158e-11
-8.21609e-05
-3.41628e-12
-2.33064e-11
-3.31358e-12
8.86708e-13
-0.000227301
-1.76984e-09
-7.33021e-10
1.16058e-10
1.01487e-12
4.41613e-11
1.05184e-11
3.57e-10
9.48258e-13
6.92272e-12
-3.85712e-06
-1.94509e-12
-7.02476e-11
-1.74611e-10
-7.47124e-11
1.00916e-11
-1.72159e-09
3.16929e-11
-5.0307e-06
-2.13119e-10
1.29544e-08
-2.34246e-10
-2.9558e-07
6.60973e-11
-4.3848e-08
3.67323e-10
-0.00022154
-1.17482e-10
1.98468e-12
-3.68508e-10
-2.25714e-05
-3.10763e-10
1.23611e-10
1.42736e-07
-0.000164257
0.000256713
-3.76184e-06
-3.46322e-11
2.57338e-10
-7.81929e-05
-5.23071e-10
-5.0976e-11
0.000597641
-1.34639e-10
-3.71314e-12
3.37353e-12
-1.79506e-10
8.5811e-11
-9.87087e-11
2.32311e-11
1.32398e-10
1.76211e-10
-4.50982e-11
-7.48128e-11
-1.84633e-10
-0.000139236
-6.70404e-13
2.29237e-11
0.000123802
0.000329678
-1.25605e-09
-3.14284e-10
-4.03696e-12
3.98386e-05
9.32594e-05
1.27135e-10
-4.68499e-10
-6.25897e-11
-2.28842e-10
-3.97449e-06
2.21549e-10
1.69267e-10
-2.59912e-11
-8.47169e-12
-2.35012e-11
1.94568e-05
-1.17132e-10
1.09396e-12
0.000111692
-4.87208e-07
1.3111e-10
1.12521e-05
1.40398e-07
-5.65523e-08
-6.35591e-11
-2.30719e-09
2.2787e-10
-2.52864e-12
7.66521e-11
1.84551e-05
7.7202e-11
4.35532e-08
2.25352e-11
-8.98353e-11
1.94933e-12
4.09784e-12
5.40042e-11
-3.7897e-08
6.57031e-09
0.000400671
-9.64398e-12
2.37294e-10
2.9989e-06
-1.3138e-10
2.50906e-10
-3.35854e-09
2.92081e-10
-9.54396e-05
-1.15872e-09
2.83856e-11
3.50458e-11
5.12803e-11
-6.26913e-05
-1.67045e-10
-3.1548e-10
-0.000325537
-1.40885e-11
0.000453735
2.32324e-12
2.01196e-10
1.86505e-10
-1.69943e-11
0.000106239
-0.000121475
8.26656e-11
9.24804e-13
1.04744e-09
-6.8551e-11
-2.26275e-11
4.59671e-11
1.32128e-12
1.04415e-10
7.93507e-05
4.2997e-05
-6.85591e-07
0.000249258
6.64923e-05
9.48735e-11
-4.7379e-11
2.06002e-11
1.38828e-11
1.26687e-10
5.30812e-10
1.04713e-09
1.48732e-11
9.07134e-11
2.95141e-05
-2.14861e-11
-6.96363e-13
2.71809e-11
4.4331e-12
1.95953e-09
8.3746e-11
-2.87867e-09
0.000521165
6.9373e-11
1.21615e-11
7.1739e-12
1.97391e-10
-1.5184e-10
3.04562e-12
8.57686e-10
4.4185e-05
-0.000138736
1.27025e-14
-2.21138e-12
-5.23833e-06
3.81378e-07
-1.93852e-07
-1.43023e-09
2.11777e-10
4.15069e-11
2.36518e-10
2.92046e-12
-9.6343e-12
5.16242e-05
7.60459e-12
-1.33702e-10
-4.38912e-08
2.37442e-08
8.57404e-05
3.7245e-05
4.16287e-10
-2.21147e-10
-3.63465e-10
-2.91942e-11
-1.76382e-05
-2.44303e-07
3.82916e-11
-2.08156e-08
1.06819e-10
1.87708e-11
6.54588e-06
3.31247e-05
3.4108e-13
5.18833e-10
1.02119e-12
1.47163e-08
4.06253e-11
1.84366e-10
-5.35192e-11
2.01667e-10
7.08175e-07
-3.71587e-10
8.99795e-05
2.82749e-11
4.5899e-11
1.96022e-12
-9.14264e-11
-0.000139457
-1.19414e-05
1.80457e-10
6.16746e-09
-1.38624e-07
-1.49919e-05
1.61354e-10
-8.99895e-06
6.9592e-08
-9.52966e-12
2.30152e-10
1.4878e-10
-6.79252e-11
8.94214e-12
-3.36026e-13
6.23587e-11
0.000304754
0.000114575
0.000295641
-7.1587e-10
1.39321e-11
0.000252042
-3.96116e-10
1.82945e-10
-1.428e-10
-2.21763e-10
2.3353e-10
8.33383e-11
-2.61156e-09
-8.09465e-10
-2.65296e-09
-0.000150694
3.074e-10
3.66485e-11
3.82994e-10
-7.65781e-11
-3.82401e-08
4.03463e-10
-4.55571e-11
1.61145e-13
-2.61973e-10
1.30396e-08
-1.36082e-11
-3.74087e-10
8.84058e-12
-3.13363e-11
-7.19589e-05
2.25153e-10
1.44093e-11
8.0768e-13
1.3093e-06
1.00905e-11
-1.50777e-07
-0.000130457
2.6729e-11
-1.2155e-10
-6.1927e-11
2.00659e-09
3.2506e-10
-7.57602e-05
-1.7041e-08
3.61541e-08
7.42356e-11
-1.19329e-05
-4.39988e-08
-3.45021e-05
-7.24715e-11
7.85256e-12
-6.17329e-11
-0.000119291
1.72335e-08
-5.59248e-11
-1.91418e-11
6.79173e-13
5.24761e-13
8.79143e-05
4.25726e-10
0.000136067
1.69758e-09
2.02696e-12
-0.000153291
-1.29501e-11
-9.75968e-11
-3.45497e-06
3.00017e-10
-1.13485e-11
-3.7035e-10
-0.000143147
5.07685e-13
-3.43524e-11
-4.26346e-05
3.8096e-12
3.72585e-09
1.12954e-08
-6.31686e-06
3.67637e-10
1.97187e-10
1.92957e-11
-5.30542e-10
2.80261e-11
1.13907e-12
0.000243238
1.74901e-12
7.39081e-13
5.90306e-08
-7.17262e-12
-1.03902e-06
-1.92319e-12
7.33425e-11
2.79431e-13
3.1752e-11
-1.49748e-10
6.68474e-05
-1.86361e-12
2.57187e-12
-4.19354e-12
5.58685e-05
-0.000139369
2.87924e-12
-1.21195e-09
1.95285e-13
0.000135443
4.88678e-09
7.60132e-12
-1.26418e-12
-1.81267e-05
3.83957e-05
4.06605e-08
-2.83839e-10
-1.01623e-09
-1.18844e-09
-5.37619e-11
-9.53438e-12
8.00124e-13
3.22604e-05
4.28706e-11
8.52495e-09
-6.84648e-08
-3.41977e-11
2.84485e-11
3.94972e-10
8.77418e-09
5.79783e-12
4.36516e-11
2.93956e-11
2.92284e-05
9.85408e-09
2.81778e-12
0.000104577
8.79221e-12
-6.11089e-06
-3.65195e-11
0.000100017
-1.05977e-14
-0.000105391
-5.372e-08
-7.46792e-12
-9.07096e-12
8.06025e-05
-2.30213e-11
5.30782e-05
2.29822e-11
-2.1061e-11
1.34081e-05
1.63379e-11
9.60821e-12
-1.25237e-11
-1.42495e-09
-8.29073e-06
3.9934e-08
5.22874e-05
6.4974e-11
7.968e-11
-2.7035e-11
8.58907e-05
0.000100795
0.000250933
1.27385e-05
5.92524e-11
0.000278549
-1.14107e-10
-8.99782e-12
3.86911e-12
-9.34957e-09
-1.0618e-11
1.68398e-10
-2.49996e-05
-7.31201e-06
-2.3058e-11
-1.33205e-11
-1.39875e-10
8.05631e-11
-2.35854e-11
-6.87054e-12
-6.04903e-13
4.1168e-12
-7.58356e-12
-6.13013e-10
-7.48451e-11
-0.000139598
-1.24099e-11
-5.93327e-11
2.17839e-09
3.84707e-10
-1.16439e-10
3.18053e-11
1.68816e-10
6.66283e-06
3.76013e-12
-3.54824e-06
5.10665e-05
-2.66847e-10
-1.23517e-09
1.93343e-06
1.63614e-10
0.000591487
7.07863e-05
-1.00989e-08
-1.01702e-05
1.20167e-10
1.62531e-09
1.45347e-05
7.49678e-11
6.54191e-11
-1.36846e-09
-2.9008e-11
-0.00012935
3.0895e-05
3.5083e-10
2.47538e-10
2.28314e-11
4.72016e-12
-6.5456e-12
-1.65582e-09
1.98871e-05
5.47314e-12
-8.02196e-11
6.52662e-07
-6.5627e-12
1.1381e-09
3.18598e-07
-6.93719e-10
4.68226e-06
2.89678e-12
0.000249657
1.59359e-11
-1.01015e-05
-0.00014891
-8.97376e-05
1.225e-09
7.51774e-11
-3.2835e-05
5.97066e-12
-5.82928e-09
-1.09387e-05
7.05729e-10
-0.000212823
-3.05961e-11
0.000100915
-2.99391e-08
-7.06869e-11
-1.75235e-06
-2.43829e-06
-3.37209e-10
-2.23797e-06
3.25258e-11
1.72328e-11
-2.93364e-12
0.000121075
3.39076e-11
-8.45026e-10
-3.27799e-08
-1.87902e-10
0.00033367
2.26065e-08
-2.0414e-06
7.33104e-10
7.83406e-11
4.00516e-10
3.72607e-12
-9.14597e-11
-6.29209e-10
3.53137e-08
6.4999e-13
1.85798e-10
6.18027e-05
-5.48502e-12
-1.54235e-05
-5.89089e-05
-4.71559e-11
-2.02854e-05
3.38361e-10
-1.38911e-07
-2.05552e-11
-3.86191e-13
7.55757e-12
0.000259423
3.02494e-12
2.35619e-11
2.7215e-08
4.80722e-05
1.40273e-10
0.00044209
2.36534e-08
-2.18196e-08
-3.21778e-09
1.21739e-10
1.87211e-10
7.53006e-06
-3.03214e-05
5.25522e-11
9.05476e-05
2.53711e-10
3.21827e-08
0.000175789
-8.44704e-06
8.15069e-11
-3.25217e-09
5.31742e-11
6.49518e-10
1.68655e-11
3.38909e-05
3.51798e-11
6.65681e-12
-0.000161143
-6.03752e-11
-2.32902e-11
5.35183e-11
1.62701e-11
-1.36775e-11
1.97838e-08
-0.000121035
5.46798e-05
4.01041e-05
-7.92863e-10
8.13698e-10
-2.87691e-11
2.9751e-12
-2.20997e-06
7.71669e-12
4.3854e-10
-1.51859e-11
3.25434e-11
1.83715e-12
-9.13357e-11
-4.7185e-11
5.14324e-11
8.88323e-13
-2.02776e-09
1.4694e-08
4.45932e-05
-3.45944e-10
-0.000147683
-1.91577e-07
1.25919e-05
-3.07323e-09
-4.28778e-05
-5.9609e-13
-4.38916e-06
-8.77552e-10
-1.57842e-05
3.46891e-12
6.83491e-12
3.86831e-11
2.44369e-12
-1.62058e-11
7.60371e-12
9.70766e-06
1.09561e-10
0.000290565
-0.000710459
-7.15757e-08
-7.03368e-10
0.000331587
6.99461e-13
-4.02817e-06
-2.92369e-09
7.56243e-07
-4.51053e-11
1.52483e-10
8.15445e-11
4.2564e-08
-5.01826e-11
-3.04805e-07
1.79725e-11
4.35955e-05
1.30285e-11
-0.000133773
0.000100173
7.12155e-10
5.28922e-09
-0.000599427
6.69464e-10
-0.000130735
-2.28881e-09
-1.24584e-11
1.17441e-10
-1.02756e-10
-5.33416e-12
9.47331e-05
1.61503e-05
4.6137e-12
0.000136641
-1.08592e-09
7.59767e-13
5.85724e-09
-1.06169e-10
-4.91828e-08
-2.58784e-12
0.000214706
4.09035e-11
3.73163e-10
-5.69453e-11
-1.89107e-11
1.98197e-08
7.15035e-06
0.000312603
1.64257e-12
5.32215e-12
0.000316505
6.34408e-05
-2.77152e-10
9.15183e-05
-5.53459e-10
6.92069e-05
-5.9265e-05
-2.93917e-09
1.22192e-05
-2.18599e-12
-1.10919e-10
7.89372e-11
-3.69936e-11
-8.02547e-05
0.000206189
-1.98422e-10
0.000349129
1.00461e-11
-8.57731e-12
-5.62306e-05
-1.92848e-12
-1.47381e-10
5.19032e-10
1.2988e-05
-1.22007e-05
2.27516e-10
-2.86384e-10
-0.00013547
-0.00174109
-6.72363e-10
1.38285e-08
-3.40934e-11
2.76181e-12
-2.92665e-10
6.06585e-10
-7.89754e-12
2.60897e-07
-7.8015e-10
2.489e-08
-1.85368e-10
-1.90403e-11
-1.18824e-08
-8.63844e-12
-3.19276e-10
0.000187427
1.9927e-08
-5.34637e-08
1.18041e-11
4.63925e-09
2.26719e-07
-3.48527e-11
1.24604e-10
-5.23092e-11
-6.69417e-10
1.63039e-11
1.13754e-10
1.59875e-07
6.76629e-12
1.88478e-11
-2.56027e-14
0.000411844
3.99315e-13
8.99191e-11
1.0348e-09
-5.17439e-12
1.44253e-12
1.65147e-07
-7.03523e-12
5.24553e-06
1.40498e-10
-2.3434e-09
1.56966e-10
-0.000146893
-2.03716e-05
1.0864e-11
0.000106933
1.96522e-11
9.10773e-11
0.000110443
2.29694e-12
-3.55805e-05
1.25767e-06
-3.15667e-11
6.29311e-06
2.00624e-10
1.01846e-10
5.66132e-12
-5.94723e-13
-7.63685e-12
4.85632e-11
-4.0094e-12
-1.47393e-07
-5.29872e-11
0.000152706
-1.28947e-10
3.17054e-06
9.17917e-08
1.36656e-08
-7.37286e-12
-4.45211e-06
-3.7465e-11
0.000215978
-0.00126731
2.04421e-11
4.90845e-05
-3.81463e-11
5.22914e-06
0.0014528
1.08809e-09
-1.08989e-08
-3.02717e-10
6.81958e-09
9.01829e-11
0.000151012
-1.0021e-10
-5.83084e-11
5.47897e-05
1.65856e-10
-1.12887e-12
7.31699e-05
6.09134e-12
1.21945e-11
-1.40731e-11
-7.92697e-11
4.1263e-10
1.87388e-10
-1.25033e-10
1.30495e-06
5.82326e-11
0.000250453
0.000228262
-1.34777e-11
-3.50469e-05
2.00039e-10
-1.42941e-06
-4.49173e-05
-1.41186e-11
-1.03775e-10
0.000272763
0.000257264
4.47601e-05
1.32069e-05
-4.01055e-11
3.4067e-11
-5.81069e-11
-4.54604e-08
1.65703e-12
5.33838e-07
1.27416e-10
6.11931e-10
-1.07835e-10
0.000269787
4.77417e-10
-0.000986418
-2.38877e-10
7.796e-05
1.77226e-11
-2.09926e-09
1.95075e-10
-5.11219e-11
-1.33812e-12
-6.35551e-05
-4.35952e-11
5.85989e-11
0.000282344
-1.7215e-10
-5.00938e-11
2.46736e-13
2.5692e-10
0.000256276
0.00019536
-3.03023e-12
-1.50859e-05
2.20349e-10
3.3123e-11
-8.77534e-11
-1.71471e-11
6.52684e-05
-5.81036e-06
9.94185e-12
-0.000167791
5.24704e-07
-2.51718e-10
-0.000126776
-2.73889e-05
5.73234e-06
1.02506e-09
-3.28695e-11
-1.63303e-10
6.58399e-12
-6.58561e-13
-6.49818e-05
2.02157e-06
-2.18426e-10
2.74357e-09
-1.16497e-10
-2.19562e-09
0.000282397
6.31752e-11
4.07397e-06
-0.000148987
-1.56645e-11
5.53724e-05
2.15011e-12
7.45675e-06
1.47801e-10
-2.53026e-09
0.000104629
0.000117974
2.15745e-11
-1.82457e-06
1.04486e-11
-8.76664e-06
-1.80342e-09
5.87629e-10
-8.13016e-05
5.47336e-12
-1.81945e-09
-1.14688e-06
-6.43144e-08
-1.95703e-12
-1.65242e-09
3.14744e-05
-1.89894e-06
8.47062e-10
4.92872e-11
-1.44267e-07
-1.9366e-08
-2.28497e-09
1.51663e-11
-7.49701e-08
-3.41e-09
-2.41297e-09
4.26188e-11
1.29387e-07
-1.45949e-05
1.08675e-10
-3.79319e-08
5.63638e-11
2.61677e-11
-0.000162495
3.57579e-11
4.30358e-10
0.000348112
6.21692e-05
-4.84361e-11
-2.27436e-05
4.09313e-07
-1.75e-05
3.88756e-11
2.63397e-11
2.44545e-10
-6.05558e-09
-2.57834e-09
-3.51869e-11
5.22396e-05
1.30528e-10
3.9635e-11
-3.05654e-10
-1.26683e-10
-2.18065e-05
-1.53579e-09
2.5087e-10
-3.09126e-08
-1.90259e-09
-2.75237e-11
-5.24009e-05
-1.82772e-11
8.35574e-11
0.000112423
9.95768e-12
-4.15603e-05
-3.27977e-11
-3.50709e-11
-1.13687e-11
-3.96379e-11
-2.66039e-09
-1.04995e-11
1.27227e-07
2.86329e-08
-1.05303e-05
-9.702e-12
-1.83372e-09
0.00022934
-1.68172e-11
3.25258e-11
2.66556e-12
-2.34471e-10
-2.58445e-10
-5.86749e-11
-1.01803e-10
0.000243102
-1.76885e-07
0.000385889
1.5951e-11
-1.55836e-11
3.02007e-08
5.03964e-12
-5.76706e-12
1.385e-10
4.88672e-11
-1.11307e-11
6.76378e-12
8.33249e-12
-1.56608e-10
0.000234085
-2.71947e-12
-2.10038e-09
1.22125e-10
0.00025819
-5.55949e-06
-1.49571e-05
1.32113e-11
7.96821e-11
-6.43713e-11
7.10756e-05
3.63482e-11
0.000355264
-2.15067e-09
5.85697e-11
-2.23097e-10
1.59038e-11
1.59433e-12
-1.70907e-12
-6.64917e-05
3.04542e-05
-2.75796e-12
-1.99127e-05
3.84687e-11
0.000131516
5.68732e-11
-0.00104379
0.000179396
3.53443e-10
-3.42845e-13
1.14304e-10
-0.000316921
-2.97238e-11
8.5219e-11
3.35692e-12
-5.79643e-10
3.4756e-08
-8.05772e-11
0.000102161
-1.52237e-08
2.19942e-12
7.03778e-11
-5.69324e-11
-4.06938e-05
-3.93396e-09
-1.02036e-10
2.08501e-05
-1.98433e-09
2.35344e-10
-0.000165251
1.38912e-11
-1.53938e-09
-3.59353e-10
-1.9886e-10
1.27992e-08
2.61847e-11
-4.97202e-07
-7.53138e-10
5.5704e-10
1.05713e-05
-7.90809e-05
3.47015e-10
2.52647e-10
-2.11782e-10
-1.37028e-10
-1.31566e-10
8.90612e-12
2.6982e-07
-1.24175e-06
1.03439e-09
2.46518e-10
1.06031e-12
2.15867e-07
-7.82145e-05
-0.00138477
2.21981e-10
0.000240363
3.06981e-08
-1.84165e-07
7.05879e-12
1.79353e-07
1.92199e-05
2.13605e-07
3.1286e-11
1.81867e-11
-3.0552e-08
1.3617e-12
4.65798e-12
3.16789e-10
0.000244593
-1.35622e-07
5.25613e-12
0.000112015
-1.7672e-10
9.78359e-11
2.64735e-10
9.67505e-13
-1.29562e-11
1.18425e-10
0.000265373
2.06668e-10
1.10137e-10
-5.87241e-10
-1.14075e-11
6.92834e-12
0.000202011
2.26346e-11
-2.16227e-11
1.20108e-11
1.01226e-09
-4.69319e-11
5.74476e-13
-7.42805e-11
-2.34276e-06
2.39713e-11
9.34372e-11
5.47707e-12
2.36912e-12
-2.04648e-08
5.30234e-11
2.51113e-12
1.44045e-07
7.33211e-11
-1.14895e-11
2.84136e-11
-0.000101661
3.34291e-08
-1.51293e-11
-2.65282e-05
2.18518e-10
-8.47118e-08
9.49005e-11
-3.07469e-12
2.22106e-10
-1.00284e-10
-6.36238e-11
1.51936e-11
7.52967e-05
3.89584e-08
2.2258e-09
5.26602e-10
1.58743e-06
-1.33295e-10
3.82804e-10
6.90738e-12
-1.77271e-10
0.000120069
9.94208e-12
5.24804e-08
-2.49853e-10
2.09905e-10
-2.53437e-10
-2.97041e-13
3.14213e-08
-1.44206e-12
-6.45309e-10
-6.38498e-05
-0.000157943
-2.33727e-11
-3.19668e-10
-5.95699e-11
7.57247e-12
1.44888e-10
-2.42412e-13
1.15488e-12
2.69531e-07
-1.88412e-11
1.61683e-10
2.76545e-11
-5.03473e-13
-1.99595e-09
0.000227063
0.000234238
-1.73935e-09
-4.20316e-05
-9.0354e-05
1.27784e-10
-0.000654239
-5.57647e-12
-1.80441e-09
-5.29812e-05
-1.40181e-06
7.21399e-11
0.000146016
3.48189e-08
-1.42232e-06
-3.14535e-06
1.09555e-06
1.22155e-10
2.46382e-07
8.61541e-11
-1.22193e-08
0.00011242
9.69094e-05
-1.70277e-10
-2.53063e-13
0.000333213
7.49788e-05
1.0778e-11
-1.69814e-10
3.27704e-10
-2.11146e-10
1.62794e-10
3.47862e-06
-6.40287e-05
9.15776e-09
-6.28684e-10
-0.000160267
-5.02137e-11
-0.000148082
2.12177e-08
-2.7452e-05
9.90503e-10
-7.21599e-08
3.10318e-10
-0.000141812
-3.0155e-11
-1.42956e-11
-2.17435e-11
-1.42815e-09
3.77437e-08
-5.2435e-12
-4.53249e-11
-3.8672e-11
-2.33533e-10
-6.15553e-12
-3.01117e-10
-1.58024e-10
3.42133e-10
-9.80768e-07
3.87173e-07
0.000101205
1.05321e-08
1.23095e-10
1.4608e-10
-3.10214e-10
2.06888e-09
2.82908e-12
-7.05035e-08
4.37435e-12
1.51176e-11
-1.37918e-10
-4.05672e-12
-9.91654e-05
1.58181e-11
-4.95922e-11
-8.5292e-11
9.18826e-11
-1.50349e-10
-1.60781e-11
2.85299e-10
3.30317e-12
1.8482e-10
4.65804e-10
-1.43727e-10
3.24068e-06
0.000465445
1.187e-11
4.92642e-05
-1.19214e-07
1.68076e-11
-4.87918e-08
0.00021835
-5.98248e-11
-0.000113629
-5.55775e-10
3.04597e-06
2.67813e-10
1.24685e-05
2.00043e-10
1.01369e-08
-1.2558e-05
-2.4847e-11
3.14499e-05
1.11153e-11
-1.64094e-11
4.01736e-10
-1.20981e-10
-3.09239e-11
-0.000111017
9.50991e-11
-1.2951e-09
-8.27518e-05
-6.66516e-12
2.13329e-11
2.39158e-10
5.14638e-07
3.14945e-11
4.42102e-10
3.2782e-09
1.97119e-06
-1.69838e-10
4.40906e-12
-0.00150029
-1.48707e-10
7.50207e-06
4.17488e-07
-2.20244e-09
-3.0419e-10
-1.22938e-09
-2.35299e-10
6.61289e-11
3.3337e-08
4.74581e-09
-1.44583e-12
-1.04191e-09
1.73911e-06
2.82279e-10
2.12824e-10
4.97573e-12
9.27467e-11
-1.34787e-10
1.67927e-09
-8.99024e-06
1.85514e-11
-4.91103e-05
-6.67821e-10
-8.22094e-11
0.000109526
-1.86512e-11
0.00024578
8.35785e-10
-1.58115e-05
-3.47662e-12
0.000222941
-1.7495e-10
-1.24847e-10
-0.000145895
-9.68676e-11
-0.000141869
9.00141e-13
3.8699e-08
1.22709e-05
1.32006e-10
-7.92399e-11
6.23698e-05
-4.29989e-11
5.6751e-11
-1.71737e-10
4.16247e-05
-0.00012379
6.8702e-05
8.97351e-12
2.56644e-06
-2.18339e-10
3.51172e-11
1.05669e-10
-2.54097e-11
-3.00623e-11
-2.09984e-10
6.30664e-05
-7.35269e-11
3.75404e-10
3.74793e-06
0.000204188
-1.50686e-12
-4.1786e-10
9.38322e-13
6.71792e-08
-0.000149635
-2.7089e-10
-0.000776902
-0.00105451
-1.9579e-10
-1.65309e-10
1.59072e-11
-4.45251e-11
-1.08784e-10
0.000157105
2.97412e-11
2.74764e-07
-1.34267e-10
-3.21572e-08
3.54454e-10
1.09174e-10
-1.88071e-11
6.1028e-09
0.000176444
5.50083e-05
3.1571e-11
9.32132e-12
0.000433947
-7.30007e-11
1.90135e-11
9.28249e-11
-3.4554e-11
-5.99294e-05
9.85668e-11
-4.79158e-05
7.57599e-10
1.14928e-10
7.13311e-05
5.3023e-11
-3.0766e-11
-3.21426e-11
-2.50988e-10
5.50355e-10
3.28702e-09
-1.68215e-05
0.000432596
7.4501e-11
-1.27492e-09
6.6724e-05
6.66884e-08
-3.80325e-10
3.29646e-11
-7.45543e-05
7.15055e-10
-3.66024e-05
6.73612e-11
-6.73201e-11
-3.63876e-10
-1.32219e-11
0.00010974
-0.000112705
2.60882e-10
-0.000140376
4.23304e-08
-1.08743e-05
-6.84639e-05
3.52749e-11
-1.59933e-11
-1.30515e-10
2.60507e-11
4.87786e-11
-6.85944e-12
4.46672e-10
5.48031e-06
-0.000431037
-3.87581e-11
-8.68429e-09
-7.99877e-11
-4.26619e-05
-3.66658e-09
3.80276e-06
1.40928e-10
-1.13621e-10
3.66899e-09
-5.42758e-05
-3.56741e-06
-8.19323e-11
-3.66562e-11
-3.2182e-09
7.33017e-05
-1.38293e-09
1.01133e-05
-2.19353e-10
2.50827e-06
5.84063e-10
1.61845e-11
-4.06861e-10
-2.91982e-11
-1.86283e-11
8.96413e-05
6.16717e-12
-3.88827e-11
-0.000235805
0.000111615
1.9454e-10
-3.15653e-11
1.38562e-10
-0.000114217
-2.35718e-10
2.39845e-10
1.52076e-06
1.387e-10
8.01638e-05
-2.97945e-08
-7.03043e-05
-0.000163852
-2.22748e-05
-4.63205e-12
1.93526e-06
-3.7263e-12
-5.00455e-05
-1.88679e-09
-4.5064e-08
-8.9071e-05
-5.03574e-05
8.23955e-09
0.000121181
3.33642e-05
1.7957e-08
2.15271e-05
8.43288e-12
-3.2387e-11
-1.49982e-05
-6.82238e-08
-1.70619e-09
1.86087e-10
-1.18972e-10
-7.74018e-11
7.88102e-10
1.85772e-10
3.69025e-05
-3.20716e-05
1.5323e-11
1.59708e-10
-2.98831e-13
-1.54628e-11
-9.12729e-12
7.82914e-11
1.46766e-10
1.66087e-10
-4.48376e-10
6.26178e-12
1.99719e-08
1.11051e-10
2.73129e-11
2.57063e-10
-1.23793e-09
0.000114863
1.51719e-07
-2.30322e-05
1.20815e-11
4.34103e-05
-6.36275e-05
5.80845e-10
-4.5569e-05
6.16937e-08
1.67441e-05
-3.6636e-11
0.000280424
-1.53103e-10
-6.42708e-09
-9.31342e-05
1.4434e-11
-2.14631e-09
2.65965e-06
-9.92797e-11
4.35946e-05
-1.51895e-11
-1.55736e-10
1.72486e-07
1.37606e-10
-1.62655e-05
-8.48192e-11
-4.03875e-10
-1.3968e-05
-2.8327e-10
-4.90024e-05
-7.21205e-09
0.000373971
-4.42122e-08
-4.21288e-05
-8.35753e-08
4.91038e-12
2.07568e-12
-2.77127e-11
-2.61077e-10
-3.04481e-11
-2.22252e-09
3.28411e-11
-4.02897e-05
-5.50934e-10
-3.38345e-10
2.26162e-11
2.01974e-10
4.53646e-10
2.51183e-11
5.69343e-05
-1.85236e-06
-1.12034e-10
5.75691e-10
0.000206906
-1.50641e-10
5.39145e-11
-1.09823e-08
0.000170069
0.000365169
0.000151192
-4.17495e-11
-1.19693e-10
1.15735e-10
6.88179e-05
-1.16702e-10
-0.00011456
2.51229e-11
-2.4839e-10
-5.29909e-11
-2.37932e-10
-7.96035e-13
-3.51969e-10
2.18061e-08