/*--------------------------------*- C++ -*----------------------------------*\
| =========                 |                                                 |
| \\      /  F ield         | OpenFOAM: The Open Source CFD Toolbox           |
|  \\    /   O peration     | Version:  v2012                                 |
|   \\  /    A nd           | Website:  www.openfoam.com                      |
|    \\/     M anipulation  |                                                 |
\*---------------------------------------------------------------------------*/
FoamFile
{
    version     2.0;
    format      ascii;
    class       volVectorField;
    location    "300";
    object      U_0;
}
// * * * * * * * * * * * * * * * * * * * * * * * * * * * * * * * * * * * * * //

dimensions      [0 1 -1 0 0 0 0];


internalField   nonuniform List<vector> 
14033
(
(1.04663 -0.0372363 0)
(0.696307 -0.0159532 -1.85661e-21)
(1.02292 3.90132e-05 0)
(1.02241 -0.000107525 -1.64319e-22)
(1.02256 9.92373e-05 0)
(1.02366 0.0010708 1.61281e-22)
(0.807244 0.00263164 -3.46958e-23)
(1.02327 -0.000962014 -3.15435e-22)
(1.02244 -0.000100034 3.4977e-22)
(0.828109 -0.0260571 4.65793e-21)
(1.02742 0.000709561 0)
(1.05691 0.00891704 0)
(1.02843 -0.00289295 3.47444e-22)
(1.02827 -0.00269278 5.8514e-22)
(1.02189 0.000114372 -6.75724e-25)
(1.04589 0.00540653 0)
(1.03148 0.00240465 -1.04533e-21)
(0.507565 -0.0464529 0)
(1.02507 -0.00111353 0)
(1.03303 0.00573992 2.2693e-21)
(1.0427 0.00512898 3.21493e-21)
(1.05657 0.00925039 5.24796e-21)
(1.05522 -0.0175535 -1.29022e-20)
(1.02262 0.000105949 -3.54911e-25)
(1.02714 0.000548296 0)
(1.02496 -0.00104162 0)
(1.06574 -0.00884563 -2.41053e-22)
(1.06387 0.01182 -1.11233e-20)
(1.0669 -0.0289679 4.85985e-21)
(1.06826 0.0149451 0)
(1.03686 -0.00340806 -1.71125e-21)
(1.0234 -0.000876219 2.84275e-22)
(1.06997 -0.00761809 0)
(1.03559 -0.0155098 2.18977e-21)
(1.02701 -0.0344671 1.18269e-21)
(1.02253 -0.000199856 2.60581e-23)
(0.922374 -0.0315565 -1.2386e-20)
(0.787998 -0.028499 -5.09138e-21)
(1.02328 7.10703e-05 1.13092e-23)
(1.03027 -5.1082e-05 3.38032e-21)
(0.776622 -0.0449468 9.14695e-22)
(1.04226 0.00537256 -5.0088e-21)
(1.02626 0.000395861 0)
(1.02248 -3.66877e-05 7.92285e-24)
(1.02718 0.000740175 2.35735e-23)
(1.02632 0.000405886 0)
(0.820946 0.0132219 9.5571e-21)
(1.02373 0.000959769 -6.74468e-23)
(1.06538 -0.0158277 1.82909e-20)
(0.965527 -0.0254415 1.02613e-20)
(1.02651 0.000691254 8.27153e-22)
(1.02242 -0.000243018 0)
(0.726393 -0.0531866 -1.50606e-20)
(0.952037 -0.044342 1.54269e-20)
(1.03163 0.00265096 1.25134e-21)
(1.02865 -0.00287423 0)
(1.07291 0.0128277 -2.31544e-20)
(0.671848 -0.0322421 -2.6945e-21)
(1.03554 -0.0158712 -1.92875e-21)
(1.03642 -0.00336242 -1.61078e-21)
(1.02793 -0.000103378 -3.49599e-24)
(0.9583 -0.0273055 -2.96592e-20)
(1.04865 -0.0137497 3.19557e-21)
(1.02613 0.00035927 -5.47571e-24)
(1.02269 -4.1158e-06 0)
(1.02469 0.000215011 -6.99624e-23)
(1.04616 -0.0361777 0)
(1.06492 0.00373917 -2.27218e-20)
(1.02766 -0.000139747 2.12162e-23)
(1.03165 -0.00598516 -1.03489e-21)
(1.02233 -2.27394e-05 1.15835e-23)
(1.01952 0.000606579 9.71716e-24)
(0.814058 0.0132617 -6.00149e-21)
(1.03127 0.00626604 0)
(1.04353 0.00931742 -6.50952e-21)
(1.02354 8.2396e-05 2.00277e-23)
(1.02345 0.00250949 -3.97295e-23)
(1.03162 -0.00640121 -2.13462e-21)
(0.463199 -0.0211259 0)
(1.06873 0.0129983 -8.57487e-21)
(1.02635 0.000450541 -2.3767e-23)
(0.521129 -0.0249905 1.39563e-21)
(0.738347 -0.0517245 -3.23753e-20)
(1.02424 -0.000170098 -2.86627e-22)
(1.02256 -4.71543e-05 0)
(1.02044 0.000227233 -3.26462e-22)
(1.02496 -0.00202098 0)
(0.941205 -0.0454283 -9.88159e-21)
(0.832808 0.0129771 9.48195e-21)
(1.03266 0.00599147 -4.33401e-21)
(1.02254 -0.000136639 4.52223e-22)
(1.02631 0.000435601 0)
(1.02476 2.82767e-05 0)
(1.04861 0.0041393 -1.3978e-22)
(1.02786 -0.000242895 -4.63512e-23)
(1.02094 -0.00341439 0)
(1.02676 0.00067207 0)
(1.02163 8.38898e-05 -8.55116e-25)
(0.84892 -0.0401011 0)
(1.02201 -6.55846e-05 2.68436e-22)
(1.0248 0.000225735 9.49805e-23)
(1.02354 0.000899147 2.88074e-23)
(1.02733 -0.000256411 1.40773e-23)
(1.02508 0.000471855 0)
(0.815789 0.0133894 9.94577e-21)
(1.06867 0.000321317 -1.17281e-20)
(0.853283 0.0128718 0)
(1.02433 -0.000199064 0)
(1.06427 0.00396415 1.11897e-22)
(1.02223 1.23758e-05 -8.59471e-23)
(0.835911 0.0110346 0)
(1.01758 -6.137e-05 0)
(1.02317 -5.18558e-05 -6.1914e-23)
(1.03009 0.0070045 0)
(1.01107 2.17435e-05 0)
(1.02318 0.00249477 3.71393e-25)
(1.07131 0.0114954 1.74829e-20)
(1.02378 0.000112191 -3.21251e-24)
(1.06064 0.00398012 -3.79403e-20)
(1.0694 -0.00826664 0)
(1.02086 0.000143947 0)
(1.05372 0.0024997 2.72699e-21)
(-0.0220796 0.0679145 2.69712e-20)
(1.02521 -0.00220873 -1.22658e-21)
(1.04591 -0.00106127 -1.23713e-20)
(1.02478 7.05805e-05 0)
(1.0236 0.000160494 -6.9915e-23)
(1.02593 0.00620251 1.44601e-22)
(0.688228 0.0205084 1.046e-20)
(1.02398 0.00136714 0)
(0.816039 0.0134275 5.35839e-21)
(1.02258 -1.43327e-05 2.16206e-23)
(1.02336 0.00012384 5.53766e-26)
(0.929209 -0.00473214 -2.25829e-21)
(0.829914 0.0116686 0)
(1.03204 -0.0054633 -1.30771e-21)
(1.0651 0.0107183 9.57107e-21)
(1.02271 1.49145e-05 0)
(1.02403 0.00146283 2.53224e-22)
(1.02467 0.000135046 -1.87161e-23)
(1.03832 -0.00878665 0)
(1.06467 0.00652469 1.42804e-20)
(1.05997 -0.00127131 -4.87535e-21)
(1.04658 0.00361661 0)
(1.06518 -0.0290396 7.47878e-21)
(1.02736 0.000800672 -5.5982e-23)
(1.02085 0.000125417 -1.45749e-22)
(1.05463 -0.00536412 0)
(0.930605 -0.0290707 4.09816e-20)
(0.963205 -0.0271299 -6.82613e-22)
(1.02403 -0.00277244 2.11687e-21)
(1.038 -0.00839707 1.73499e-21)
(1.02258 7.27065e-06 -7.83873e-23)
(1.02338 -0.000642531 8.6783e-22)
(1.02361 0.000794148 -6.55577e-23)
(0.802249 -0.000309372 1.61182e-20)
(1.02512 0.000663815 4.71155e-23)
(1.02377 0.00034587 1.84141e-22)
(1.02513 0.000617447 -4.52555e-22)
(1.02211 0.00010659 0)
(1.0251 -0.00413731 0)
(1.06599 -0.00986674 -1.13745e-20)
(0.948416 -0.00936541 3.96235e-21)
(1.02293 0.000225606 0)
(1.04448 -0.000250472 1.89546e-21)
(1.02187 0.000153525 0)
(1.03704 -0.00812458 1.7792e-21)
(1.05062 0.00603396 0)
(0.281946 -0.0477928 2.65608e-20)
(1.02531 -0.000855588 6.46208e-23)
(1.04626 0.00503244 3.05739e-22)
(1.06557 0.0103189 -1.24309e-20)
(1.05678 0.00821242 -5.92437e-21)
(0.438426 0.025003 -4.8805e-22)
(1.02359 7.58122e-05 -2.03402e-23)
(1.02519 -0.000763756 -5.62195e-23)
(1.07085 -0.00127395 8.49364e-21)
(0.71573 0.0217356 -1.03829e-20)
(1.05637 0.00782528 0)
(1.04656 0.00412915 -4.33423e-21)
(1.04564 -0.0329674 -2.92492e-22)
(0.694041 0.0226485 -5.00459e-21)
(1.03639 -0.00213101 2.80223e-21)
(1.02628 0.00024645 7.5026e-23)
(1.02248 -7.76301e-05 -5.55493e-23)
(0.836935 0.012324 9.3106e-21)
(0.873983 -0.0137799 0)
(1.02383 0.00178888 0)
(0.265665 -0.0514871 0)
(0.836283 0.0126546 -1.02421e-20)
(1.07859 -0.0132423 -1.03366e-20)
(1.03679 -0.00717256 3.11051e-21)
(1.02353 -0.000597434 -6.14616e-22)
(1.02388 0.00189851 1.61611e-22)
(1.04863 -0.00349203 0)
(0.848713 -0.0410249 -8.7436e-22)
(1.04883 -0.0127375 0)
(0.705973 0.018659 -1.25255e-20)
(1.0224 -8.83914e-05 -3.19262e-22)
(1.02267 -0.000217708 1.38476e-22)
(1.02495 -0.00108542 -2.11886e-22)
(1.03687 -0.00664903 -5.34409e-23)
(1.02274 -3.46516e-05 -1.72583e-22)
(1.04713 -0.0342723 0)
(1.03738 -0.00852607 1.68297e-21)
(1.02277 3.37873e-06 1.2781e-22)
(1.05323 0.00217396 2.55879e-21)
(1.07449 0.0129525 3.21932e-20)
(1.04239 0.00600747 2.86272e-21)
(1.04323 0.00156142 0)
(0.669368 0.0217011 -1.84511e-20)
(1.07272 0.0133798 0)
(1.07586 0.0041204 0)
(1.05688 -0.0044434 0)
(1.02283 6.45219e-05 -4.11482e-24)
(1.02518 -0.00394991 1.52868e-23)
(1.02203 -5.74287e-05 3.86554e-22)
(0.994601 0.00248146 -8.77429e-22)
(1.02107 -0.000333373 1.42017e-22)
(1.03342 -0.0183073 -7.40589e-22)
(1.04195 0.00627555 5.18558e-21)
(1.02588 0.000294611 0)
(1.02575 0.000308642 -1.00624e-22)
(1.02514 -0.00210239 7.97828e-23)
(1.02174 0.00110587 -3.61197e-22)
(1.028 -0.000485194 0)
(1.05458 -0.0167203 -2.51771e-21)
(1.03754 -0.00594614 -3.28187e-21)
(1.02229 -7.3587e-05 3.25116e-22)
(1.02591 -0.000133106 4.26035e-24)
(1.02167 2.87108e-05 -7.70062e-23)
(1.06805 -0.000504859 1.28064e-20)
(1.0223 0.0028357 0)
(1.02394 0.000118573 -5.89449e-24)
(0.985029 0.00243437 9.61869e-22)
(0.883959 -0.0160396 1.69356e-20)
(1.06587 -0.0149946 1.15329e-20)
(1.02589 -0.000140587 -3.81651e-24)
(1.02224 -4.27367e-05 9.40318e-23)
(1.02326 0.000194388 -1.28297e-23)
(-0.0340064 0.0525536 1.23097e-20)
(1.03205 -0.00582663 2.70662e-21)
(1.02174 -1.7308e-05 -2.80942e-22)
(1.02224 5.23628e-06 -2.46987e-23)
(1.03743 -0.00646569 0)
(1.02591 -0.000130748 2.17012e-23)
(0.811586 0.0144811 -2.23372e-20)
(0.511495 0.0130461 2.47345e-20)
(1.02508 -0.00173508 -6.36442e-22)
(1.02804 0.000249309 -3.40067e-23)
(1.02223 0.00102301 1.52332e-22)
(0.668057 0.0201389 9.83735e-22)
(1.02585 -9.20286e-05 -2.32551e-23)
(1.07333 0.00497117 -1.29531e-20)
(1.02231 -6.05811e-05 -3.42834e-22)
(0.710772 -0.00225337 -1.25708e-22)
(1.02335 0.000216745 -3.35943e-22)
(1.02566 -0.00135379 0)
(1.02581 -7.50555e-05 0)
(1.06347 -0.0317692 0)
(1.0232 7.63214e-05 -6.0385e-23)
(0.624323 -0.0470946 0)
(1.03503 0.0110689 -1.29018e-22)
(1.03262 -0.0183537 -6.23844e-22)
(1.03696 -0.000267138 1.30288e-21)
(1.02791 0.00326253 -4.13033e-22)
(1.02217 0.00265641 -4.94112e-23)
(1.06816 0.0131881 0)
(1.0342 0.00299175 3.449e-22)
(0.715215 0.0185719 1.84806e-20)
(1.03161 0.0061019 -1.27239e-21)
(0.906597 -0.0123555 1.88294e-20)
(1.0224 -3.35952e-05 0)
(1.04705 -0.00849994 -1.07258e-22)
(1.06838 -0.0229469 -1.66255e-20)
(1.02216 -3.45754e-05 0)
(1.02171 2.94741e-05 9.28485e-23)
(1.06426 0.0114327 2.91975e-20)
(1.02501 -0.00163715 -3.19065e-22)
(1.04414 -0.0356152 0)
(1.06961 -4.93153e-05 6.54114e-21)
(1.02294 0.00021638 -1.56611e-22)
(1.02177 -0.0113496 2.68802e-21)
(1.04459 0.00670758 0)
(0.332579 -0.0582906 1.32734e-20)
(0.93738 -0.0279428 0)
(0.808267 0.0136181 -3.29392e-20)
(1.02587 -8.38789e-05 0)
(0.582656 -0.0325068 0)
(1.07812 -0.0120645 2.25449e-20)
(1.02468 8.6711e-05 -7.14383e-22)
(1.05633 0.00678103 1.47738e-20)
(1.05925 -0.000932357 -1.40982e-20)
(1.03803 -0.0334759 -1.41088e-22)
(1.02513 -0.000611052 0)
(1.02645 0.000318572 1.25462e-23)
(1.02601 0.000265361 0)
(1.02222 -5.36502e-05 3.34717e-22)
(1.02632 0.000288589 0)
(1.02477 -0.000999204 0)
(1.02592 0.000282355 0)
(1.03914 -0.0400116 0)
(0.689164 -0.00238905 0)
(1.03342 0.00510094 0)
(1.02895 -0.0163476 4.01727e-22)
(1.04097 0.00341136 6.4037e-23)
(1.02531 0.00372824 0)
(1.02626 0.000263139 0)
(0.826065 0.0133667 1.44637e-20)
(1.03018 0.00170698 1.64541e-21)
(1.06475 0.00948809 1.17941e-20)
(1.02325 0.000218475 1.67149e-22)
(1.06274 -0.0181687 1.48579e-20)
(1.06058 -0.000749817 -1.77926e-21)
(1.06858 -0.0272564 1.79359e-20)
(1.0402 0.00290591 0)
(1.0217 3.68868e-05 -5.25743e-22)
(1.03049 -0.0119327 -2.29513e-21)
(1.02557 -0.00610225 -3.82214e-22)
(0.663416 0.0167165 0)
(0.692971 -0.0132546 6.20721e-21)
(1.06716 -0.00039503 2.37724e-20)
(1.03423 -0.00743684 3.10768e-21)
(1.0282 0.000111433 -6.89649e-23)
(1.02019 -0.00432421 0)
(0.905538 -0.0481295 0)
(1.03378 0.00526417 1.85785e-21)
(1.02743 -0.00032998 3.3285e-23)
(0.842889 0.0125163 -9.67959e-21)
(1.05119 -0.011354 0)
(1.02579 -0.00635225 1.64409e-22)
(0.516691 -0.0180384 3.26813e-21)
(0.76789 -0.0560812 1.79346e-20)
(1.04439 0.000194271 -6.02303e-22)
(1.02186 2.88605e-05 1.04452e-23)
(0.935854 -0.00787052 -1.26747e-21)
(1.06523 0.0113028 -1.31572e-20)
(1.02476 -0.000913823 -4.07856e-22)
(0.900026 -0.0057062 0)
(1.03098 0.00418996 -3.23932e-21)
(0.683576 0.0208608 -1.73779e-20)
(1.06032 -0.00667847 7.3023e-21)
(1.02332 0.000235205 0)
(1.03066 0.00403541 2.92078e-21)
(1.03484 0.00157057 7.65871e-25)
(1.02791 0.000418938 -1.50655e-23)
(1.05187 0.00717517 1.11313e-20)
(1.02318 0.000792325 -7.24707e-24)
(0.817423 -0.0446677 0)
(0.811716 0.0016778 1.30584e-22)
(1.02605 0.000264732 0)
(1.02669 -0.000112566 0)
(0.829414 0.0127599 -8.5613e-22)
(1.05134 -0.0123868 7.16981e-21)
(1.02483 -0.000915485 3.04837e-22)
(1.02312 6.54159e-05 0)
(1.02557 0.00389965 0)
(0.825137 -0.0273151 0)
(1.02799 -0.000398821 1.54486e-23)
(1.02506 0.000512035 5.13572e-22)
(1.02488 -0.000986548 0)
(1.03088 0.00214321 -4.22135e-23)
(-0.0265249 0.059568 1.1669e-20)
(1.02439 -0.0016498 -6.12289e-22)
(1.02017 0.000276238 7.04834e-22)
(1.02185 -0.0116099 1.54231e-21)
(1.02902 0.00179472 8.09018e-23)
(1.02544 0.000182773 0)
(1.03268 -0.000535198 0)
(1.02591 0.000285887 0)
(1.02786 -0.000499576 -5.47959e-24)
(1.02579 0.000268049 -3.64033e-23)
(1.01065 -1.24127e-05 1.2005e-23)
(1.02414 0.00127535 0)
(1.06457 0.00887687 -1.18082e-20)
(0.581308 -0.0222993 -3.36474e-21)
(1.03335 0.000270183 1.82208e-21)
(1.03711 0.00912548 0)
(0.9567 -0.0420558 1.72436e-21)
(1.02182 -1.46442e-05 -9.32101e-25)
(1.02592 -0.000123854 0)
(1.01866 -0.00558819 -2.23061e-21)
(1.02574 -0.00135396 -2.58832e-23)
(1.03991 0.00234104 -6.06333e-25)
(0.89458 -0.0491317 -8.9706e-21)
(1.02218 6.40528e-05 -3.89178e-23)
(0.855276 0.00979843 0)
(1.02572 -0.000135749 -1.2229e-23)
(1.04504 0.00625587 -1.72934e-21)
(1.06203 0.00611689 -8.52717e-21)
(1.02622 0.000260379 -7.76214e-23)
(0.688865 0.0191977 0)
(1.03654 0.00758976 2.75799e-21)
(1.02502 -0.00372479 -5.46738e-22)
(1.03726 0.010685 0)
(0.473435 -0.0140071 0)
(1.03342 -0.0276673 -8.15343e-22)
(0.68753 0.00264425 1.99654e-20)
(1.05537 -0.02161 -1.08717e-20)
(1.02276 0.00267382 0)
(1.0287 0.00456851 0)
(1.02571 -0.00147026 0)
(1.02391 0.00016051 -6.06657e-23)
(1.02655 -5.69644e-05 -8.73371e-24)
(1.01903 -0.00600621 2.30147e-21)
(1.02193 0.0011134 1.92164e-22)
(1.02858 -0.0116201 -1.22244e-22)
(1.02333 7.87279e-05 -9.97462e-24)
(1.02589 -0.00145938 6.83738e-23)
(1.0301 -0.000715041 -2.26906e-22)
(0.81776 -0.00212116 -3.2544e-22)
(1.07151 0.0108109 -8.74428e-21)
(1.02269 -7.59009e-05 2.21448e-22)
(0.680071 -0.0344156 7.82479e-22)
(1.02782 -0.000422412 0)
(1.02713 -0.00143529 2.9622e-22)
(1.0248 0.00126524 -7.43094e-24)
(1.02555 0.00429704 6.88014e-23)
(1.02524 -0.000706901 0)
(-0.0226324 0.0628852 -4.75897e-20)
(1.03834 -0.009861 -1.92399e-21)
(1.02757 0.0035258 0)
(1.05163 0.00312075 3.77672e-21)
(1.01931 0.00058933 0)
(1.02211 -1.35116e-05 2.31941e-22)
(1.02304 0.00271108 0)
(1.0287 -0.0121535 -2.05966e-22)
(1.0219 0.000113846 6.51793e-24)
(1.04647 -0.00980474 0)
(1.02503 -0.00212388 0)
(1.02357 -0.000398318 5.2827e-22)
(1.02997 0.000145421 5.4317e-22)
(1.03623 -0.00547195 2.68633e-21)
(1.02533 1.74793e-06 8.65943e-23)
(1.02485 0.00105038 4.1164e-24)
(1.02473 -0.000821104 0)
(1.03306 -0.00338499 -1.73922e-21)
(1.02302 0.000743753 0)
(1.03655 -0.0257617 3.58799e-21)
(0.848214 0.00205001 -7.44251e-23)
(1.0674 -0.0297357 -1.19208e-20)
(1.02574 -0.000144235 -1.5789e-23)
(1.02645 -0.000112401 0)
(1.02101 -2.16768e-05 0)
(1.02426 -0.00164854 -1.20914e-21)
(1.02257 -2.63235e-05 1.996e-22)
(1.05143 0.00748037 -3.89293e-21)
(0.972923 -0.0126077 0)
(0.849395 0.00194511 -1.61444e-22)
(1.02376 -0.000273152 2.62084e-22)
(0.81839 0.0138681 0)
(1.02649 -0.000379294 2.28007e-23)
(1.02199 -0.000234283 -8.31958e-23)
(1.02963 0.00235773 7.02149e-22)
(1.01108 -6.95624e-05 -8.77682e-24)
(1.07679 -0.0138032 0)
(1.03289 0.00186598 -4.38091e-22)
(1.0232 -0.000136308 1.32285e-22)
(1.02183 0.000122686 0)
(1.04793 -0.00308052 -9.57859e-21)
(1.0302 -0.000219377 -2.56721e-21)
(0.823576 0.0119522 -2.91222e-21)
(1.04808 -0.0372527 0)
(1.07116 0.0138797 -7.62132e-21)
(1.0218 -1.59553e-05 3.26797e-24)
(1.02208 6.12958e-05 0)
(0.989526 -0.0410011 -2.00586e-21)
(1.0212 -0.000332814 -6.07599e-23)
(1.02589 -0.00010477 2.11236e-23)
(1.05076 -0.0339705 0)
(1.03318 -0.00371629 0)
(1.04661 -0.0103927 -6.50726e-21)
(1.02484 0.000338679 -5.94144e-22)
(1.02131 0.00384919 2.58248e-22)
(1.02671 0.000894177 0)
(0.731517 -0.000748302 0)
(1.02487 -0.00155759 0)
(1.07031 0.0139882 1.25917e-20)
(1.02511 -0.0035854 -2.95144e-23)
(1.02499 -0.0373315 0)
(1.02544 0.000513351 1.16638e-22)
(0.838324 0.0133106 4.38338e-21)
(1.02112 0.00362331 0)
(0.810699 -0.0428204 9.44905e-22)
(0.828612 0.0133305 1.01687e-20)
(1.02601 0.000336145 2.90123e-23)
(0.591787 -0.0618931 6.93732e-22)
(1.02295 -2.58868e-05 -4.28778e-22)
(1.06373 0.00323659 5.58083e-21)
(1.023 0.000237545 9.89901e-23)
(1.02793 0.00370633 2.43745e-21)
(0.535218 -0.062284 3.41595e-20)
(0.59478 -0.0634652 1.37008e-20)
(1.05668 0.0072065 -1.66189e-20)
(1.02474 0.000311555 -1.43187e-22)
(1.0331 0.000437449 0)
(1.06481 0.0116322 -6.38576e-21)
(0.841383 -0.00418693 4.2453e-22)
(1.03659 -0.00253381 0)
(1.02104 -0.00372021 1.92525e-21)
(1.02538 0.00415343 0)
(1.02371 -0.000355081 -1.05531e-21)
(1.07771 -0.013002 0)
(0.96761 -0.00144015 -2.78945e-22)
(1.05481 -0.0207571 0)
(1.02371 0.000168881 4.47015e-23)
(1.02149 -1.68467e-05 1.56625e-22)
(0.927748 -0.0435174 1.70715e-21)
(1.02306 -0.000113204 0)
(1.06237 -0.0106858 1.39446e-20)
(1.02387 -4.47217e-05 0)
(1.02162 -1.58778e-06 4.58331e-22)
(0.832725 0.0132723 0)
(1.02591 -0.00014845 -4.30236e-23)
(1.02493 -0.00166104 6.88629e-22)
(1.03239 -0.0049441 0)
(1.05535 -0.00580503 0)
(1.0235 5.65223e-05 -1.77527e-23)
(0.788832 0.00062576 -4.39485e-22)
(0.94786 -0.00367768 7.66859e-22)
(1.02521 0.000243758 5.17173e-23)
(1.04284 0.0100396 0)
(1.02506 0.000233964 -5.49588e-23)
(1.02561 -0.00144666 4.77886e-23)
(1.02493 0.000167563 0)
(1.03234 -0.00059581 0)
(1.03035 -0.00639251 0)
(1.02119 0.0032387 0)
(1.02763 0.003578 -1.61855e-21)
(1.02623 -0.00156124 0)
(1.03608 -0.00783167 0)
(1.02499 -0.00188599 1.59913e-22)
(0.815508 -0.0253444 0)
(1.02448 4.64154e-05 -3.39928e-22)
(1.02106 0.000110218 -2.09643e-22)
(1.02607 -0.00203743 -2.42395e-24)
(1.02488 0.000392349 3.68614e-22)
(1.02132 0.000163433 -6.72791e-22)
(1.02132 0.000165943 -3.84749e-22)
(1.0715 -0.000533036 -2.80754e-20)
(1.03137 -0.0188465 -8.67943e-22)
(1.06424 -0.0249806 7.60092e-21)
(1.02183 2.09711e-05 0)
(1.02492 0.000198383 0)
(1.04 0.00822291 0)
(1.03706 0.000214419 0)
(1.02376 -0.00258417 0)
(1.02557 0.000256459 -4.88848e-24)
(1.07287 0.00687653 -1.32989e-20)
(1.02517 -0.00624912 3.63353e-22)
(1.02634 -5.48935e-05 0)
(0.700254 0.0198977 -1.27949e-20)
(1.02323 0.000113429 -1.85496e-24)
(1.0257 0.000272748 4.06858e-23)
(1.02433 0.000313332 0)
(1.06404 -0.0177728 -2.44716e-20)
(1.02442 6.39355e-05 6.78332e-24)
(1.03661 -0.00581396 0)
(1.05109 0.0034083 0)
(0.918632 -0.0142473 -3.39012e-20)
(1.03449 -0.0136322 2.77385e-21)
(0.827781 0.0133958 8.74424e-22)
(1.04594 -0.00214823 -4.31432e-21)
(1.03119 0.00806168 -2.31086e-21)
(1.04355 0.00138093 0)
(1.01828 0.00231257 -9.1636e-22)
(1.0326 -0.0267288 -1.60091e-21)
(1.03241 -0.00530153 0)
(1.02003 0.000150533 8.82284e-22)
(1.02365 -0.000243683 -5.26314e-22)
(1.06033 0.00565146 0)
(0.95212 0.0111601 0)
(1.02695 -0.0200497 -3.60074e-22)
(1.02124 0.000152439 8.38776e-22)
(0.532208 -0.0634339 -1.18389e-20)
(1.02355 -0.000312715 -2.49932e-22)
(0.359816 -0.0550326 -2.58573e-20)
(0.716691 0.0187197 0)
(1.03661 0.00873767 0)
(0.916227 -0.010426 1.69328e-20)
(1.04353 0.00170333 0)
(1.0311 -0.00374127 -1.72007e-21)
(1.02602 0.00028101 2.10372e-23)
(1.02378 0.000150486 8.10165e-23)
(1.02398 0.00010512 0)
(1.06706 -0.0208647 -1.0604e-20)
(1.02968 -0.00270251 0)
(1.06553 -0.0139181 5.31777e-21)
(1.02328 8.89338e-05 2.23426e-23)
(1.02473 -0.00145985 0)
(0.763435 -0.013077 0)
(1.03637 0.00731093 0)
(1.02252 -0.000244903 0)
(1.02668 -0.0200472 5.27717e-23)
(1.02632 -0.00218316 0)
(1.02353 -0.00029613 2.29026e-22)
(1.02373 0.000119635 1.93206e-25)
(0.976924 0.0133946 0)
(1.02117 -0.000179398 0)
(1.03008 -0.00612012 6.22101e-22)
(1.02145 0.00117934 0)
(1.0262 0.00030761 1.58076e-24)
(1.02493 -0.00599338 0)
(0.812769 -0.00133106 3.35294e-22)
(1.04167 0.00719065 -4.9927e-21)
(0.449413 -0.00916925 -1.05467e-20)
(0.848542 -0.0522647 8.48167e-21)
(0.831016 0.00713802 -3.55151e-20)
(1.06262 0.00277964 0)
(1.04367 0.00715629 7.02344e-24)
(1.02443 0.000249268 -2.79794e-22)
(1.02396 0.00026472 0)
(1.02961 -0.00244091 0)
(1.02495 0.000398237 -4.51036e-22)
(0.79221 -0.00204599 2.00502e-22)
(1.02366 0.000158014 0)
(1.02618 -6.15912e-05 0)
(1.02489 -0.000967149 2.21477e-22)
(0.785441 -0.0233821 -1.17619e-20)
(0.682478 0.025096 -1.5948e-20)
(0.708087 0.0225414 4.4421e-21)
(1.0218 -7.66415e-05 0)
(1.02529 -0.0021908 8.36201e-22)
(1.04209 0.00685646 2.77861e-21)
(1.02624 -0.000350659 1.1122e-23)
(1.05007 0.00617303 -1.35939e-20)
(1.0393 0.00557959 2.71091e-23)
(1.04099 -0.0186823 0)
(1.03049 -0.0187815 1.28092e-22)
(1.05341 0.00804702 2.01528e-20)
(1.0221 -2.00668e-05 -1.80825e-23)
(1.02809 -8.5462e-05 0)
(1.0222 -1.80087e-05 0)
(1.06891 0.0125658 1.03148e-20)
(1.03141 -0.00320442 -1.07773e-21)
(0.933751 -0.0189884 0)
(1.0224 4.46655e-05 -4.90533e-24)
(1.03082 -0.00354207 6.48346e-23)
(1.06447 -0.0135917 -2.19504e-20)
(1.02386 9.55079e-05 -8.86151e-24)
(1.0619 -0.0102044 -1.81331e-20)
(1.02537 8.76847e-05 -3.02779e-22)
(1.02828 -0.000135457 2.26445e-23)
(1.04317 0.0139125 -7.31151e-21)
(1.06738 0.00701306 7.83067e-21)
(0.867884 0.00871126 0)
(1.0631 0.00337382 -5.51812e-21)
(1.02222 -2.41276e-05 -2.93627e-22)
(1.023 0.000230851 9.32813e-23)
(1.02728 -0.000437996 9.67299e-24)
(1.04434 0.008488 -3.60883e-21)
(1.02827 -0.0168407 -3.23469e-22)
(1.0309 0.00593502 0)
(1.02478 -0.00156908 0)
(1.02429 -0.00581021 -3.73583e-22)
(1.02501 -0.00219227 1.03999e-21)
(1.02314 -2.92326e-05 -2.55441e-23)
(1.02151 0.000419743 -2.89111e-25)
(0.739222 -0.0553184 -3.15661e-20)
(1.0253 0.000245292 -4.78531e-23)
(1.02286 7.26623e-05 1.03308e-23)
(1.02659 4.12687e-05 -1.78236e-23)
(0.961211 -0.0186624 0)
(-0.0410067 0.0433095 0)
(1.03121 0.00658879 -1.7648e-21)
(1.05074 -0.00548779 0)
(1.02678 -0.000210219 -2.38961e-23)
(1.02793 -0.0329288 1.73515e-22)
(1.02598 -3.87211e-05 0)
(1.02641 3.89952e-05 2.13085e-24)
(1.02718 -0.000147071 1.13817e-23)
(0.470444 -0.0423792 0)
(1.03186 -0.0262742 1.47654e-21)
(1.03106 -0.00308589 7.99687e-22)
(1.0248 -0.000886969 -2.81463e-22)
(1.02166 0.00120173 -2.04028e-22)
(1.02338 -0.000287368 2.02354e-22)
(1.04395 -0.0391504 2.0241e-21)
(1.02756 -0.0193815 -1.91393e-22)
(1.02494 0.00547287 5.45586e-23)
(1.05439 -0.00217356 2.64932e-20)
(1.02192 -0.0111774 -1.49491e-21)
(1.02221 0.000100185 0)
(1.04427 0.00129797 0)
(1.04313 -0.0374356 1.27221e-20)
(1.02591 -0.000143834 0)
(1.02524 0.00557688 -8.36996e-22)
(0.990618 0.0128214 0)
(1.06694 0.00669887 -7.4361e-21)
(1.02546 0.000257683 0)
(0.809768 0.0138556 0)
(1.02243 -0.00742458 3.44515e-22)
(0.944893 -0.0063895 -4.54337e-21)
(1.0463 -0.00828108 -2.35451e-21)
(1.02158 -0.00207641 0)
(0.950966 -0.0124242 1.71592e-20)
(0.69444 0.0208683 -3.39814e-20)
(1.07155 0.0118799 0)
(1.02265 0.000234277 -3.04324e-22)
(1.02334 8.02021e-05 0)
(0.00668745 -0.00500863 3.01245e-21)
(1.02448 -0.0121902 -3.25019e-22)
(1.06199 0.00292788 -9.69979e-21)
(1.03069 0.000243873 -1.59369e-21)
(1.0388 0.00555682 -4.09463e-21)
(1.02763 -0.00109423 1.40301e-22)
(1.02228 0.00122516 2.27936e-22)
(0.849849 -0.00676497 3.8707e-22)
(1.02698 -0.00731767 -7.31365e-23)
(1.02447 -0.00546906 0)
(1.07796 -0.00983925 -2.2496e-20)
(1.02202 0.00101262 -3.34691e-22)
(1.02281 -0.000167171 -1.59226e-22)
(1.02245 0.00020366 4.54248e-23)
(1.05867 -0.00648589 0)
(1.03896 -0.00973867 -7.1788e-21)
(1.03428 -0.00686484 0)
(1.02213 -0.000231735 3.82469e-23)
(1.02231 -5.73969e-05 -5.0602e-22)
(1.04268 0.0047509 0)
(1.02831 0.000367655 4.62571e-23)
(1.04457 -0.0296738 4.88182e-21)
(1.05304 0.00778348 -1.09357e-20)
(1.02233 0.000188106 0)
(0.86853 -0.0511381 -8.36201e-21)
(1.02174 -3.46055e-05 3.32519e-23)
(1.04582 -0.0309577 0)
(1.05103 0.00648932 3.68625e-21)
(1.0265 -0.00038867 1.1253e-23)
(1.02549 0.00206849 0)
(1.02185 -9.04835e-05 -9.83192e-24)
(1.07422 0.00339514 -9.93784e-21)
(1.02731 -0.000264596 -3.30349e-23)
(1.02827 -0.0131686 8.08093e-23)
(1.03166 0.00803282 1.20333e-21)
(1.02989 -0.0117847 0)
(0.86885 -0.0199162 -2.55722e-21)
(1.02232 9.46536e-05 1.43326e-22)
(0.796034 -0.025071 0)
(1.02957 -0.0167268 0)
(0.858326 -0.0327501 7.80094e-21)
(1.03807 0.00192246 0)
(1.02827 0.00012451 1.26355e-23)
(0.986314 0.0139695 0)
(0.732777 0.0179292 -2.35557e-20)
(1.02575 -0.00173883 -1.06842e-22)
(1.02719 -0.000423502 3.62582e-24)
(1.02201 1.03238e-05 1.81332e-23)
(0.706322 0.0216657 4.46349e-21)
(1.02027 -0.0417549 -1.00198e-20)
(1.03034 -0.0178449 5.36769e-22)
(1.02651 -0.000138012 -1.72649e-24)
(1.02219 9.7182e-05 -3.61984e-23)
(1.02988 -0.000806035 1.94234e-22)
(1.04145 -0.0179619 0)
(0.676185 0.0213325 9.20021e-21)
(1.0231 -2.09455e-06 2.64817e-23)
(1.02233 -0.00200897 -5.59814e-22)
(0.818646 0.0136889 2.37836e-21)
(0.908036 -0.0163049 3.48401e-20)
(1.0245 0.00020104 1.54384e-23)
(1.02569 -0.0222502 0)
(1.02039 -0.0037624 -1.99139e-21)
(1.02965 -0.0075498 -1.80669e-21)
(1.02634 -0.000122056 5.74196e-24)
(1.02086 0.00317463 0)
(0.828202 0.00839235 1.24705e-20)
(1.02205 -5.33915e-05 1.57685e-22)
(1.03061 2.95264e-05 -7.31012e-22)
(1.05891 -0.00511445 0)
(1.02366 -0.000216423 -2.29147e-22)
(1.02553 0.000195129 -1.77555e-24)
(1.03625 -0.00727893 0)
(1.04444 0.0043323 -5.44783e-23)
(1.01715 -7.86137e-05 4.59409e-22)
(1.04483 -0.00307862 1.41935e-20)
(1.06681 -0.0262406 -2.91719e-20)
(1.03256 -0.0270197 4.38641e-21)
(1.02529 -6.24414e-05 4.51537e-23)
(1.02495 -0.00110813 2.71024e-22)
(1.03894 0.00598469 -4.44316e-21)
(1.02991 0.00194682 -6.79532e-22)
(0.716256 0.018227 2.34557e-20)
(1.01674 -4.82184e-05 3.33167e-26)
(1.02349 -0.000304528 5.16475e-22)
(1.02371 0.000133035 0)
(0.907785 -0.00462884 0)
(1.0244 0.000295246 6.38898e-23)
(1.02415 0.000225281 0)
(1.01626 0.000117455 4.78446e-23)
(0.825549 -0.0413719 0)
(1.03325 -0.0279482 0)
(1.02664 -0.000307599 2.33947e-23)
(1.03676 -0.0268366 3.44862e-21)
(0.860177 -0.0407779 2.27289e-20)
(1.0269 -0.00368061 0)
(1.06989 -0.00102906 -2.17787e-20)
(0.138018 -0.0392012 0)
(1.06955 0.00988543 -9.64229e-21)
(1.06793 -0.0217045 -1.19959e-20)
(1.06035 -0.00743871 -4.30209e-21)
(0.66992 0.0153771 0)
(1.04112 0.00698535 4.91404e-21)
(1.06864 0.0154084 0)
(1.03538 -0.0252802 -2.71859e-21)
(0.326255 0.00760762 0)
(1.02158 0.000330768 -1.8061e-22)
(0.795144 -0.00150003 0)
(1.02662 -0.00719594 7.28254e-23)
(1.02961 -0.000750234 0)
(1.03335 -7.23311e-05 4.59907e-23)
(1.02619 -0.00206386 2.30133e-23)
(1.02487 -0.000922453 -2.60411e-22)
(1.05812 -0.00291012 1.50654e-20)
(1.02932 -0.00337684 1.22147e-21)
(1.0261 -0.000317438 0)
(1.02613 -0.00157073 0)
(1.04103 -0.0204272 -6.89812e-21)
(0.887623 -0.0417945 1.06484e-21)
(1.06243 0.00673774 1.82454e-20)
(1.02416 0.000527532 3.14655e-23)
(1.0229 -0.000161606 0)
(1.02397 0.000342563 -8.69556e-23)
(1.02552 0.00190573 -8.61318e-22)
(1.03026 0.00341912 6.35344e-22)
(1.02808 -0.0126695 0)
(1.04548 -0.0019183 0)
(1.02497 0.000232923 -1.7794e-23)
(1.03321 -0.00278752 1.51755e-21)
(1.03425 -0.0272864 0)
(1.02391 4.78269e-05 2.99773e-23)
(1.02221 -0.0078511 4.23232e-22)
(0.518988 -0.0621227 1.74676e-20)
(1.02466 0.000386212 0)
(1.02206 -2.33436e-05 3.49741e-23)
(1.02089 -0.0115474 -1.04978e-21)
(-0.0198864 0.0861107 -3.52735e-20)
(1.02603 -5.56722e-05 0)
(0.932209 -0.00366474 -1.94285e-20)
(1.0227 6.13153e-05 0)
(1.02457 -0.00178742 8.84103e-22)
(1.0233 9.38202e-05 -4.61636e-24)
(1.02225 -5.19363e-05 0)
(0.800811 -0.0521228 -3.41215e-20)
(1.05866 -0.00149063 1.34073e-20)
(1.0454 -0.00324938 -7.66259e-21)
(1.03091 0.00214034 -3.15292e-21)
(1.02265 1.70384e-05 -7.66208e-23)
(1.02511 -0.00115973 1.91223e-22)
(1.02405 5.67245e-05 -2.35814e-23)
(1.03312 -0.000222283 0)
(1.02262 -9.71465e-06 9.77668e-23)
(1.02509 -0.00185025 4.80485e-22)
(-0.0202894 0.070278 -3.07869e-20)
(1.02233 4.78588e-05 0)
(1.02669 -0.00361767 0)
(1.02748 -0.0011379 -1.61803e-22)
(1.02928 -0.00318687 -5.75059e-22)
(1.02431 -5.66681e-05 6.18903e-24)
(1.06337 0.00770505 3.47673e-21)
(1.02598 -0.00145356 0)
(1.02993 0.00354478 0)
(1.01851 0.00249705 0)
(1.05475 -0.0183235 1.2739e-20)
(1.02597 -0.00190793 2.52631e-24)
(0.849486 0.00236037 -4.82771e-23)
(1.02693 -0.00133673 -4.5423e-22)
(1.05113 -0.0229239 0)
(1.03296 -0.000716734 -3.45116e-21)
(0.809272 -0.0443714 -1.13976e-20)
(1.03262 0.00161664 0)
(1.02189 3.10956e-05 0)
(1.02096 0.00280585 -4.02025e-22)
(-0.0217606 0.0421365 -1.75953e-20)
(1.03147 0.00732411 -2.26086e-21)
(1.04036 -0.00787035 3.09532e-21)
(1.06758 -0.0194449 0)
(0.840619 -0.0165655 -2.18109e-20)
(0.996705 0.0125669 0)
(1.06257 -0.0305837 2.34463e-20)
(1.02161 0.000291958 3.77106e-22)
(1.04624 -0.0073904 -5.32845e-21)
(0.824389 0.00704477 3.54614e-20)
(1.0539 -0.00563061 -2.40855e-21)
(1.04602 0.00593357 4.72453e-21)
(0.676778 0.0228798 0)
(1.02399 0.0017022 0)
(1.02323 8.73493e-05 8.81971e-24)
(1.02346 6.50157e-05 0)
(1.03159 0.00687414 1.05213e-21)
(1.02715 0.000821568 1.31501e-21)
(1.04275 0.00312648 0)
(1.02054 0.000306022 0)
(1.02827 -0.00247198 -5.80412e-22)
(1.04715 -0.00909285 5.58236e-21)
(1.02508 0.000459602 -5.97824e-22)
(1.02458 -0.00203993 -5.06746e-22)
(1.02526 0.00178687 2.95673e-22)
(0.85674 -0.0129649 0)
(1.02179 -1.46181e-05 -4.56436e-25)
(1.02466 -0.000482553 0)
(0.825101 0.0135797 2.33659e-21)
(0.659187 0.0197271 7.08502e-21)
(1.02721 -0.00010434 1.27799e-23)
(1.02515 0.00330926 0)
(1.02284 0.000100812 -2.05638e-25)
(0.843741 -0.00510181 0)
(0.855364 0.0125823 0)
(1.03273 -0.00478706 1.68185e-21)
(1.02076 0.0029526 5.18218e-22)
(1.02733 -0.000682517 0)
(1.02656 -0.000321416 -9.78834e-24)
(0.990846 -0.000240329 3.35215e-22)
(1.03033 -0.00660353 0)
(1.03462 -0.00769688 -5.28046e-21)
(1.03506 -0.015043 -8.3359e-22)
(1.02735 -0.00047547 4.61721e-23)
(1.02492 0.000375587 7.51294e-22)
(0.747423 0.00216423 -2.67895e-22)
(1.02616 -0.00226132 2.79564e-23)
(1.02234 7.66657e-06 1.67507e-23)
(1.07593 0.00183598 3.06777e-21)
(1.02256 -0.00230923 0)
(1.03056 0.00208568 6.75107e-23)
(0.963102 0.0110185 -2.49752e-24)
(1.07493 0.00251881 5.05227e-21)
(1.02745 -0.018277 1.97795e-22)
(1.02571 -3.5816e-05 0)
(1.02688 -0.000271819 4.57858e-23)
(1.02417 -0.0117451 6.16947e-22)
(1.02233 -3.74084e-05 1.00207e-22)
(1.02925 0.00199912 -1.18535e-21)
(0.6412 -0.00404816 -1.68194e-21)
(1.02463 -0.000444062 0)
(1.0696 0.0105627 -1.2524e-20)
(1.02474 0.000388218 0)
(1.02579 -4.16731e-05 0)
(1.02247 8.61815e-06 -1.61597e-23)
(1.02546 0.00019915 0)
(1.02475 0.000367193 0)