/*--------------------------------*- C++ -*----------------------------------*\
| =========                 |                                                 |
| \\      /  F ield         | OpenFOAM: The Open Source CFD Toolbox           |
|  \\    /   O peration     | Version:  v2012                                 |
|   \\  /    A nd           | Website:  www.openfoam.com                      |
|    \\/     M anipulation  |                                                 |
\*---------------------------------------------------------------------------*/
FoamFile
{
    version     2.0;
    format      ascii;
    class       volScalarField;
    location    "400";
    object      omega;
}
// * * * * * * * * * * * * * * * * * * * * * * * * * * * * * * * * * * * * * //

dimensions      [0 0 -1 0 0 0 0];


internalField   nonuniform List<scalar> 
13726
(
0.0221589
0.0247662
5.51311
7.11298
0.0219276
8.41036
0.367838
0.0370329
0.0290224
5.57272
0.296634
7.81668
0.0982906
0.0351685
0.0799897
0.0243756
0.0682145
11.684
0.31176
0.0226901
0.0478535
0.022038
0.0217938
0.104299
0.0814678
4.56554
0.0227793
0.0227783
0.0384905
0.0338351
0.0364841
0.0242046
8.21158
0.0388673
0.0300224
0.0818533
0.0219398
0.0220669
0.029137
13.0343
0.0330857
0.0254971
0.0444528
0.021979
0.0224674
0.0218434
0.0246717
0.121905
0.025378
0.0263904
0.0548157
0.102721
0.037628
0.0221712
0.0317228
0.0219688
0.0220749
0.0220324
0.0219252
0.0220481
0.0218856
0.0216803
0.0246649
0.0975382
0.0482618
0.0217928
0.0222062
0.0262199
0.0386539
0.0254568
0.022066
7.50644
0.0266205
0.0699329
0.03272
0.0258024
0.0218004
11.1793
0.0817719
0.0796585
10.8329
8.29975
0.0222081
0.0220279
0.0369695
0.221304
0.0260143
8.25643
0.150119
0.0251153
0.0237208
0.0220844
0.0219564
0.0220623
0.022244
0.187462
0.0221138
0.0331233
0.169481
0.342709
0.0244692
6.07759
0.0369274
0.0219669
0.0257302
0.0252939
7.96745
0.0220649
0.0216583
0.0244579
0.0220715
0.0225195
0.0221079
0.0351011
0.0226958
0.0867153
0.0221734
4.15021
0.0240979
0.44745
0.0434997
0.331705
0.0569425
0.0328415
0.0219438
0.0219486
0.0223611
3.71719
0.0222621
11.4405
0.0220783
0.139946
0.0220681
0.0251204
0.032086
0.022079
0.0835766
0.0223458
0.0218868
0.0241978
0.0219524
0.0219857
0.0917354
0.0220204
0.15577
0.0218513
0.0582292
0.0299251
0.0467461
0.0235348
0.052964
0.0221142
0.0418564
0.118261
0.0219776
0.032724
0.0339854
0.0219245
0.0409813
5.62394
0.0252591
0.02459
0.224692
5.12947
0.0260111
0.0223207
0.0217864
0.0219064
0.0298724
0.0219221
0.0220062
0.0337645
0.0262212
0.0306079
0.0251576
0.023083
10.3083
5.42821
0.0221046
3.75033
0.0329296
0.051724
3.72796
3.87963
7.9166
0.0264055
7.51233
0.023187
7.65695
0.0218876
0.0420403
0.0219298
0.0218613
0.02204
10.3403
0.0351812
0.023585
5.69696
0.0218488
0.0250136
0.0258449
0.022071
0.0217976
0.0237465
0.0220324
0.0236785
0.116701
0.22346
0.0219867
9.99187
0.0219286
5.457
0.0262412
0.0218283
0.0220776
0.192448
0.0484246
0.0219167
0.165109
0.216601
0.0217013
0.0220103
0.0390309
0.0224809
8.0016
0.0228764
0.0218945
0.304347
0.0218824
0.0502215
3.66273
5.74113
6.90173
6.18401
0.0332309
9.04241
0.0222507
0.0299111
0.021893
7.18041
0.0222658
0.0343901
0.0222618
0.0820908
6.65775
0.0566044
0.0474533
0.0219713
0.0549309
0.0224363
0.0688651
5.7305
0.0220336
0.0253076
0.0220609
3.15267
0.0219231
0.0410422
6.1144
0.0219904
3.54202
0.0219575
0.022077
0.0218705
0.0220632
5.27358
0.0226387
0.0343998
0.0458518
0.0772232
0.0445054
0.0222702
0.0761563
0.148773
0.0559656
0.0222819
0.0499324
0.0239036
0.115293
0.0284451
0.0219633
0.0218718
0.0329519
0.0832966
0.0551423
0.0629617
0.0297563
0.0298853
0.19201
14.1011
0.073882
0.02966
13.6234
0.0219178
0.0300884
6.09271
0.0221955
0.187816
0.0223939
7.35567
0.0288255
6.89241
0.0257594
7.57319
0.0425767
0.0369628
0.0219831
0.0221186
0.0426128
0.0216498
0.0541489
0.0333805
10.3157
0.0264886
7.05935
3.66196
0.0230785
0.176097
0.0222343
9.53804
0.0220522
0.0428507
8.07988
0.0309555
0.0218456
0.023723
3.49404
8.84853
7.50893
0.0218831
0.0220654
0.0222976
7.79664
0.0219071
0.0320154
0.0531658
0.0219526
0.0340596
0.0332213
7.22922
0.0223089
0.0219768
0.122143
0.190175
0.0335207
19.7039
0.0218555
5.24601
0.0219397
0.0219116
0.0220424
3.78007
0.0232325
0.0220448
0.0221018
0.0301507
0.0519292
0.254541
6.13536
0.0218344
0.0383279
0.0372586
0.492745
0.120917
0.0220837
0.0220262
0.633614
0.034512
0.0266564
0.107128
0.0226695
0.0506102
0.0225893
0.0287151
0.0223042
4.46697
0.0216933
1.59596
0.0504703
7.85321
0.054663
3.95076
0.0399992
0.0218527
0.0682091
0.030085
5.09393
10.171
0.0224988
0.0220987
0.0220456
0.0218797
0.0523285
0.0252426
0.0296229
0.0386486
11.1907
0.544554
0.0266301
0.0270442
0.101313
0.0216303
0.0260761
0.0232608
0.0239404
0.484021
5.03874
0.0592535
0.0460178
0.0255667
7.85569
0.0230945
0.0521585
0.023367
0.0509119
0.022068
0.171686
0.0218563
0.0231314
0.0218974
0.0218467
0.0281188
0.0216365
0.0222529
0.0325792
0.0222249
0.0249806
0.0290166
7.77859
0.0216339
0.0350063
0.0216753
0.0286399
0.0218242
4.88202
0.0222626
0.022011
0.0221524
5.72256
7.72588
0.0222469
0.0232099
0.0220097
1.71614
0.0240026
0.0223915
0.128451
7.20975
0.0269468
0.212171
0.0221302
0.567649
10.7442
0.0218509
0.0569228
0.129987
0.0222483
0.0227069
0.0269495
0.0289941
0.0219381
0.0217592
4.27824
0.0284745
0.0568955
7.32832
0.0220318
0.0982853
0.0219349
6.352
0.0220398
0.0216017
0.139035
7.09143
0.0916597
0.0742723
0.122477
0.0225177
0.0284257
0.0438339
0.0216773
0.0219444
0.023063
7.74801
0.0223456
0.038576
0.0216813
6.62232
0.107038
0.293281
4.51389
0.0221592
0.0340707
13.4771
0.0605154
0.023625
0.0240237
0.0220563
0.021612
0.0223624
0.392803
0.04709
0.0264926
0.022316
0.0219347
2.58885
0.0218334
0.0218489
0.0369693
5.53632
0.0222095
0.0236355
0.0228846
0.0220959
0.021966
0.0231778
0.0222221
0.0219043
7.30581
0.0219672
0.0264742
0.0216818
4.31427
0.0219619
0.0220201
0.168541
0.0220516
0.0652478
0.0904306
0.0257313
0.123509
0.0218558
0.0218631
5.74434
6.46853
7.75577
7.76863
0.0222667
0.0289865
0.0221009
0.0220181
0.318126
8.33539
0.029346
0.0222744
0.0217453
0.0219267
0.0250465
0.0223777
2.99363
0.0218436
0.396673
0.0324391
0.042648
0.0223081
0.0270871
0.0242151
6.43022
0.0221244
0.0220154
0.02266
7.72907
0.023504
0.115807
0.0337686
11.0642
0.0392898
0.0221948
1.04867
8.31888
0.034071
0.125262
0.022162
0.0277653
0.0427306
0.0523442
3.6602
0.0219332
0.021695
0.0221275
0.0216251
0.0220281
3.63934
0.0237469
0.0226115
0.0219545
0.0221619
0.0225241
7.86812
0.0701597
17.1924
0.0259186
0.028642
0.206629
0.0249775
0.0372519
0.0224835
0.0226723
5.39255
0.0221765
3.38553
0.0221788
0.0224722
0.0226023
6.26785
15.2212
0.0297782
0.0219613
0.122657
0.0222701
0.0319953
0.0247579
0.0220008
0.0221864
0.0222516
0.0225584
0.0222449
0.0253621
0.0757976
0.021787
0.0220358
0.0255458
0.0220986
0.0809814
11.3444
9.81654
0.0261805
0.0219815
0.0223491
0.0250907
0.0290896
0.033304
8.27443
0.0217393
6.43413
0.188172
0.0222987
0.0216245
0.0219601
8.17939
0.0222843
0.0222158
0.0222505
0.0218353
0.0220329
0.0778061
0.0216761
0.0639908
0.279155
0.0221777
0.0219057
0.021946
0.129544
0.0227319
9.72106
0.326575
0.0221695
0.0953526
8.85759
0.0288729
0.0229033
0.0218413
0.0262725
0.023419
0.021792
3.81503
11.2495
0.0376084
0.0731295
0.0328993
3.13438
0.0220394
4.52807
0.0284504
0.146466
0.0220191
0.0223183
0.0233978
0.0219492
0.279102
0.0231043
0.0252069
0.022834
0.0854951
0.0968962
0.0220215
0.0740164
7.63879
10.1653
0.0516826
0.0458261
0.0219479
10.1273
0.0218191
0.0344822
0.0221127
0.0233608
0.0534668
0.022149
0.027288
3.75112
0.207252
0.0220948
0.0253457
0.0537247
0.0223
0.0264757
3.6394
0.0218359
0.0220746
6.44512
0.0220536
0.0221175
0.0254445
4.7464
0.0222615
0.133658
0.0217961
0.0216849
0.0380468
0.0220334
0.460722
14.0709
0.0222471
0.022479
0.0221007
0.0253394
0.0218482
0.0221458
0.0218591
0.230541
0.0225844
0.0225527
0.0318718
8.97596
0.410128
0.0221144
0.0226282
0.0418334
0.0453148
6.94372
0.0406907
0.036333
0.0237609
8.27623
0.224438
0.0747024
0.0381741
0.0220123
3.81217
0.0221571
0.0222424
0.022051
0.0216896
0.0218459
6.41633
0.0360121
0.0222923
0.0216722
0.0216828
0.0227899
0.0223669
2.26963
0.0218985
0.023672
0.022211
0.0220349
0.0219437
3.47371
0.021597
0.17255
0.0298208
0.0218255
0.0221224
0.0220495
0.0221032
0.0339249
14.135
0.0318079
0.15266
0.0351123
0.0552638
0.0263298
0.0219146
1.95292
0.0409329
0.0247392
0.0219359
0.0248832
0.565316
6.60062
0.0221316
0.0222468
7.86949
0.0252596
0.0580216
0.0291812
0.169096
0.0241509
0.022272
0.0240796
0.153093
0.0220407
0.0222647
0.0566047
0.0320369
0.0220203
0.107588
0.0222429
0.0222505
0.0315536
0.0903822
0.0225877
7.88882
0.0284696
0.0219406
0.0224022
0.028905
0.0219941
0.0221392
0.0220705
0.0219745
0.295297
0.0222706
0.0218334
0.0596691
0.111021
0.0334088
0.0222859
20.3063
0.0219288
0.0469121
0.0220498
0.0216551
0.0219535
0.0222648
0.022037
0.0522522
0.0217722
0.0220346
0.025061
7.74508
0.0541116
0.109776
0.0237318
0.0217247
0.0221516
0.333354
0.0293693
0.02204
0.0237277
1.42535
3.63534
0.0831083
0.12114
0.0261481
0.0222939
0.0220278
1.66208
8.45786
0.0225109
0.0219557
0.0215869
0.077812
0.0302548
0.021619
0.0215836
5.66913
0.05523
0.0424167
0.0220443
0.0228607
5.41204
0.0220961
0.381232
0.0220145
0.0219522
0.0231407
0.022065
0.022264
0.0248963
0.0220115
0.0219549
3.87476
7.42798
0.0219584
0.0321156
0.0219603
0.0232377
0.161443
0.0491761
10.0838
0.0217637
0.0220554
0.0218111
0.021618
0.02193
0.02161
0.0227515
0.0219731
7.51357
8.18824
0.0221193
0.0290086
0.0232326
0.0255467
0.0221122
0.0238334
0.0218651
6.5543
0.0220415
0.0222919
0.0225348
0.0330142
0.0215258
7.97228
5.89267
0.0217916
0.0588836
0.0218986
0.022115
0.022067
6.61793
0.0215374
0.158017
0.0219185
0.0222733
0.0259523
0.0220103
0.0218524
0.0220326
0.0221451
5.59506
0.0281418
0.0225792
0.022284
0.0344835
0.0220571
0.026592
6.7877
0.022263
0.0336411
0.0216709
4.08975
0.0220575
4.23744
5.23637
0.0221506
0.0232823
0.0238095
0.0254062
0.0220778
0.0218063
0.0259129
0.0221557
0.022237
0.0218051
0.0220169
0.0236562
0.0251458
0.0219317
0.0222317
0.0260848
0.0313319
0.0219397
0.0220391
14.8623
0.0216194
0.0219618
0.0218131
0.0245362
0.0318743
3.99164
0.0222507
4.39913
0.0220293
0.107718
3.68139
0.0215237
0.0529311
0.0219042
0.0219461
0.0485502
0.0236869
0.0218158
0.0482046
0.0222655
0.0222952
0.0277534
0.0220021
0.0301048
0.0222248
0.0324967
8.48459
0.259466
0.0218507
0.0220521
0.0220508
0.0218316
0.0222781
7.48377
8.0849
0.0143848
0.021729
1.10718
0.0229634
0.0491909
0.198588
0.0542641
0.0219043
0.0220446
0.0220405
0.576518
0.0224493
0.0295024
0.0627036
0.0227235
0.0217302
0.0397649
5.99235
20.7518
3.04412
0.0221707
0.0216036
0.511107
12.6298
0.0220377
4.076
0.0257324
0.380361
0.0227017
0.0717572
0.0219522
3.96016
0.0248543
0.0267783
4.04196
0.0219053
4.66418
0.0219111
0.0245757
0.280696
2.68679
0.0323747
0.0219456
0.0340846
0.0218386
0.0917164
0.029216
0.0251567
0.0224568
0.0224952
0.022739
0.0219085
0.0217073
0.13579
0.0219709
8.16801
0.0222315
0.0302746
0.0330655
0.023259
0.0249194
0.0888911
0.0232193
6.212
0.0227389
0.0416728
0.100691
0.182128
0.172808
0.0249065
0.0335607
0.323279
13.7958
0.0219268
6.13743
7.82224
0.69233
0.0510771
0.0219761
7.19659
2.34107
0.0218956
0.022021
0.0219199
0.0218769
0.0219704
0.0217592
0.0218088
0.0228205
0.668876
0.0231331
0.0706833
0.0585288
0.0237451
0.0225316
0.0222518
0.0594498
0.058695
0.0333224
0.0217677
0.0239683
0.0222696
0.0220364
0.0249644
5.4605
0.0357617
4.32522
4.07743
0.0314958
0.0220268
0.0245507
0.0526496
0.0287565
0.0246927
0.0219759
0.177683
0.0218457
0.0233813
0.0218317
0.0978838
0.021784
0.0394847
0.0355256
0.0265552
0.0271912
0.0220459
0.02191
0.0342506
6.94
0.0291873
0.021937
0.0234676
15.0786
0.0219777
0.0220714
0.0221842
3.06045
0.0217263
0.210606
0.0216602
0.0219455
0.207717
0.439475
8.24926
6.75873
0.0217264
0.0218294
0.0220326
0.0221462
0.0221065
0.0391498
0.0517359
0.0285261
0.0220501
0.0217026
3.54099
17.0838
0.0235885
0.171578
0.0220006
0.0218293
0.0220068
0.0251326
0.0406325
3.74022
8.42585
0.0219537
0.0223008
0.150504
0.0219442
0.0358687
0.0454729
0.0229144
0.0219476
0.0215938
0.0221585
0.0768317
0.0219567
0.0220986
0.242288
0.0487273
8.97961
2.72911
0.0222433
0.0529724
0.149172
0.20734
0.0218108
0.0217901
0.16427
7.77755
0.0220485
0.0222047
0.0221094
0.0223423
0.021998
0.0524556
0.0222666
0.0215365
0.0887357
0.0356447
8.55915
0.0221936
0.0222913
4.25683
0.0226426
0.519592
3.56558
4.10736
0.14166
0.0223177
0.0511564
0.0217119
0.0220592
0.0221517
5.67689
0.0278765
0.0216024
0.0247289
0.0221341
0.0218096
8.72628
0.0220488
0.0287819
0.0742492
0.0261738
0.0407616
0.0256024
0.0793101
0.0246536
0.0216601
4.3227
12.4059
0.0224904
0.0228163
0.0460911
0.0306704
0.0222116
0.0220509
0.0217967
0.0219929
0.0255847
0.0221525
0.273181
0.024424
0.0222368
0.208467
0.0227006
0.0220262
0.0218619
0.0221573
0.0693742
0.0221651
0.0218272
6.62581
0.0258188
0.0221165
6.32014
0.028259
8.38883
0.098707
0.137972
5.48004
0.0220449
9.50921
0.0221897
0.0221729
0.0222368
0.0220788
5.27154
0.0262574
0.0220039
0.0227799
0.0576129
0.0219111
8.07543
0.0222521
0.0353278
0.0231863
0.0229495
0.0219106
0.027719
0.043453
0.0244313
7.00662
6.76597
3.52357
0.369846
0.0252033
0.168449
0.085108
0.0220752
0.0513455
0.0223347
0.0218038
0.268036
1.95522
4.22842
0.022047
0.0219689
0.240293
0.398739
0.0389865
0.0227488
0.0226138
0.0320383
0.0327195
0.022488
0.0220656
3.79338
0.0451687
0.0709822
0.0220371
0.0219081
0.070542
0.0346913
0.198288
0.0228512
0.0277132
0.0340393
0.0246109
0.0236766
0.165865
0.0221004
0.036238
0.0221968
0.022012
0.0419186
0.0257688
0.0220408
0.362908
12.9372
0.0220811
0.0625027
0.0282637
3.85139
0.0222992
0.0699553
0.0250377
0.0221464
0.0538189
0.506997
0.0279842
0.0218008
0.0298516
0.0993801
0.0382459
0.0664768
0.0225012
0.0761503
0.0256271
14.1036
20.4557
0.438727
0.0334531
2.56914
0.0253093
8.69906
0.0220507
0.0220811
17.1163
7.27522
0.0221323
0.0222788
0.100967
0.0293865
0.0584926
0.0318429
0.0216809
7.70341
0.0235785
8.49953
2.58524
0.0232617
0.126109
0.0347561
0.0254977
0.0218269
0.0243242
7.61649
0.0221453
0.0220501
4.25935
0.129899
0.294366
0.0219108
6.32997
0.0293164
0.0255828
0.0218215
0.0275682
0.0514081
5.89342
0.0218607
0.307877
0.126223
0.0220271
0.0249475
0.0218755
6.84204
0.0403717
15.6303
0.0464211
0.0578254
0.0221401
0.0273023
0.0222842
0.0290495
0.0228696
0.0308307
0.0316999
0.0229849
0.070441
3.66778
0.0219832
0.0224917
0.141149
0.0221459
3.05108
0.0217832
7.73369
1.1096
0.04548
0.267246
0.123323
0.0219276
0.030277
8.75903
0.0221101
0.149999
12.1673
0.0221761
0.0256245
0.0231109
5.99139
0.2533
0.0221471
0.0221225
0.0280701
0.130365
0.0220449
0.030464
7.36859
0.0222182
6.79286
3.77645
9.09336
0.0337532
3.1412
0.0331075
0.0224553
5.39923
0.0223395
6.50204
0.0396703
7.9506
8.31328
0.0218028
0.220706
0.0218684
6.64313
0.0463812
5.31504
0.0226255
6.85974
0.0241635
6.16432
0.445536
0.030506
0.0221671
3.55187
0.0352145
0.0849497
6.94717
0.0235625
0.0250274
0.0820989
1.00495
0.0219045
0.043606
0.0216657
6.63997
0.0215983
0.0218252
12.6007
0.0215431
0.0426426
0.025413
0.0332537
0.049744
0.0220309
0.022078
0.0226476
0.0794257
0.1146
0.0229862
0.0219989
0.0221144
0.0221267
0.0349028
0.0315015
0.021997
2.14696
0.0312112
0.0220733
0.0312554
7.28925
0.0216831
0.0217835
0.0218406
0.0220742
0.0227365
0.0224587
0.0232087
8.17069
0.282425
0.0219566
0.0433157
0.0218258
0.0479832
0.306382
4.71031
0.0407901
0.0219247
0.0221864
6.7643
0.0221752
0.0220097
0.120869
0.292975
0.0220125
5.7853
0.0585261
5.65212
6.66001
0.12857
0.021825
6.23247
0.0234269
0.0238028
0.0220439
0.0215989
9.98432
0.118028
0.0220717
0.0545947
0.0701599
0.0220118
0.0581105
5.10892
0.199292
0.036212
0.0237587
0.0221304
0.0236521
0.0220374
0.0235002
0.0588934
0.0221021
0.0218663
7.35646
9.27808
0.0310908
0.0224331
0.0410731
0.0253393
0.843756
0.02529
0.0226722
4.35163
0.346253
0.0494904
0.558824
0.198128
0.0448646
0.0800082
0.0257945
1.54663
0.0314564
0.0216398
6.86314
0.0221099
0.0278111
1.25075
3.56709
2.60268
0.0219021
0.0395249
6.40145
0.0231083
0.125667
0.0431953
0.114502
8.97385
5.6857
5.60628
0.0219397
5.07021
5.19445
0.146366
0.0309781
0.0245577
0.0218981
0.021868
4.7708
4.34338
0.221047
0.0233786
0.0394588
0.0341075
0.022562
5.31407
0.024765
4.90649
7.90852
0.0276424
0.040102
5.60704
0.0749474
0.23573
0.0223325
0.0219211
0.239918
0.0219772
0.0244374
0.0220369
0.0220708
0.0223701
8.36359
0.120551
0.033905
0.070841
0.0368289
0.0217428
0.0438113
0.0219957
0.0219173
0.0346253
7.92663
8.28134
0.022084
0.0221511
4.57583
0.0220109
0.0282217
6.18249
0.0223115
8.28201
0.0777986
0.0222692
9.2719
0.0263908
0.0222842
0.125261
4.2098
0.0248504
0.0220356
5.12236
0.0220736
10.6305
0.100911
0.133329
0.0409566
0.0220449
0.0410571
0.0240553
0.0222729
0.0389548
0.0220533
0.0416225
0.0243909
11.5547
0.0216653
0.0223689
3.8495
0.440635
5.62355
0.05931
0.0217098
0.0223124
0.0256383
0.141285
0.303987
0.0218297
0.13724
8.10617
7.39548
0.0419584
0.0219339
0.0239347
5.88528
4.32814
0.022216
0.0218289
0.0232942
0.0230498
0.0226123
0.0460157
0.0218274
0.0218597
0.0222628
0.0470328
0.0442297
0.0695002
0.0782409
0.0231903
0.0526166
3.06224
0.0389103
0.0220335
0.25448
3.75292
0.16213
0.0275953
0.0218385
0.168037
3.00439
0.108375
0.0219328
0.0256879
0.0247909
3.86084
6.37082
3.71273
0.0261562
7.47442
0.021924
0.021709
0.0458346
0.0425502
0.0240081
9.04276
0.0268581
0.0221485
0.038409
0.147883
0.0456467
0.0222743
0.0495652
0.0241026
0.0459787
0.0220806
0.0222865
6.00292
0.0809907
2.97465
0.0220751
0.0395976
0.0277375
0.0217592
0.0220513
0.198956
0.115181
4.76673
4.22185
0.0215347
0.0219901
0.021554
0.0294704
0.125738
7.02063
0.0219089
0.0220191
0.0230398
0.0269285
4.33888
2.46384
0.0405606
0.0219791
0.0263424
0.0950092
19.4281
0.0432083
4.6019
4.34568
0.0338136
0.0236895
0.0220445
0.0243526
3.93876
0.182925
0.022286
0.021977
5.77647
0.0925332
0.0219242
7.73111
4.41123
0.460673
0.0220888
0.024625
9.89118
3.6739
5.91851
4.12705
0.0220115
0.0233745
0.0276615
0.0260887
0.122602
0.0218744
0.0427196
0.0218372
0.0404237
8.97108
0.0220262
0.0224995
3.29228
3.33743
3.5147
0.0220757
0.0908842
0.205421
7.57886
0.0222725
2.1847
14.4262
5.85242
0.0345408
0.0222686
0.0220536
6.82972
0.0220582
5.42916
0.024732
0.0228773
3.23469
0.0261325
0.0666121
3.40975
0.0613434
0.0222491
0.105504
0.0298147
0.160906
0.0351733
0.0220794
0.0864831
0.0253246
0.0222425
0.0395243
3.69103
0.0220546
0.0216612
0.0230429
5.48234
0.339271
6.46381
8.04009
0.105085
3.53473
0.0221534
0.0217093
0.0566481
0.0220275
2.52569
0.0222719
0.0219354
0.0254981
4.65945
0.0281484
6.45238
0.0218745
0.0672136
0.0455325
0.0219876
0.023005
0.0234074
0.219049
12.1544
7.81817
0.0251553
4.91587
0.0439801
5.65001
0.0329107
0.0244773
0.0404033
5.94716
0.0291568
0.058676
0.0220771
0.0521961
0.0220925
0.0259438
0.0287806
3.24592
0.115612
2.75561
0.0298971
0.035828
3.88789
0.0298598
8.29171
0.0274619
0.0258857
0.152284
2.22004
0.0249145
3.8685
6.11529
7.22672
0.0221222
0.0247459
0.0220403
0.034315
0.0219412
0.0220203
0.021745
3.8208
5.50393
0.0252835
0.231797
0.0222724
0.0220094
0.0777561
0.0250016
0.026552
0.0239652
0.0221265
0.0760781
7.65241
7.38886
0.0218285
0.0282778
0.0291501
0.0219208
4.28742
9.30126
0.0237321
7.38389
5.48353
0.0790668
0.0220132
0.0224068
0.0218109
0.0238032
0.0216558
0.027815
0.0219616
0.0539373
0.114408
0.0217704
3.91539
0.0220888
5.79968
3.21549
0.0286626
0.0250582
5.75985
0.022213
0.0218473
0.0218428
0.039977
0.0218915
0.0220827
0.0249012
0.0230687
9.57371
0.0220148
1.79094
0.0288138
0.0220658
0.513613
0.0274388
2.99349
0.052548
0.0219402
0.0231306
0.0221237
3.99798
0.0249891
0.0396345
0.0496739
0.0219833
8.01367
0.0453141
0.0293482
0.0217564
0.0218297
3.62615
0.0279112
0.0237003
0.0257471
0.0244055
0.0227657
13.1995
4.60777
0.0224254
0.0225416
0.0220551
0.0258959
0.0262173
0.0222928
0.372901
0.0316478
6.05083
0.0271694
0.0273468
0.0246665
0.0250411
0.0221283
0.0238269
0.0313157
0.340602
0.114961
16.9482
0.0277182
0.0900145
0.0224122
0.453678
0.0300677
0.0232403
0.0392261
0.0280477
0.0220242
0.0216512
0.0249688
0.10785
2.87784
0.0221152
6.91491
1.97432
0.0320765
0.02205
0.0222857
3.84011
0.021706
0.0221097
0.0240705
0.322669
3.30356
0.022539
0.0282396
8.76107
4.44577
0.0220169
6.9977
3.95329
0.324088
0.0219414
0.0238739
0.0221256
0.087268
0.0336133
14.9653
0.0294374
0.0316169
0.0339005
4.60579
3.10183
0.030233
8.43288
1.71523
0.067455
0.0220837
0.0336993
0.231995
0.0650661
5.31559
0.0221586
0.0222721
3.71959
0.0249836
0.0220554
5.57106
0.0287615
0.021956
0.314973
0.063055
0.022953
0.0620766
7.39142
0.0231251
0.0221378
0.0280354
5.09853
0.0275432
0.0221071
0.0225099
5.53391
0.0967677
0.0316708
0.0495894
0.0593739
0.0215832
0.0379818
0.0224595
16.1127
0.0217681
0.0226304
0.0223006
0.319408
0.0218334
1.87774
0.0573458
2.68724
0.0218554
0.180206
5.36013
0.0219801
0.0229493
0.0480786
6.46271
13.0584
0.0260288
0.0221035
0.022083
5.20616
0.0542522
0.234429
0.0245163
0.0221533
0.0371379
0.0219898
0.0701893
0.0218337
0.0518651
0.0218307
0.0530384
4.57883
0.0245338
0.0220338
0.0367673
0.0223367
0.282473
0.0220195
0.0484201
0.0219357
0.0458224
0.0286539
0.0221701
0.0472501
0.0215359
7.48748
2.63849
7.13036
0.0244679
0.0285117
0.0364827
0.0438566
0.0219478
3.58882
0.0216402
0.137915
0.0244829
0.0246419
0.119864
0.0223555
0.0246517
0.0280533
0.022493
0.0249852
3.66869
0.0288249
0.123055
0.0359028
0.0222652
0.114801
0.0248263
0.0222653
0.0222735
0.0224589
0.0250519
0.0235107
4.51302
0.0219657
6.26814
7.06563
0.0346221
0.0218399
0.0220303
0.0367152
9.31947
0.0217831
0.222163
7.50139
0.0457171
0.0296178
0.0274591
4.09673
0.223126
0.0281325
0.022166
0.0310085
0.0219958
0.0220809
0.0304289
1.22067
0.104703
0.0218315
0.136422
0.0306671
0.0218714
0.03689
0.0234195
0.0328345
0.0218304
0.0223732
0.0269329
0.0219306
0.0265913
4.9291
0.0224894
0.022029
0.0267435
0.0324772
0.0221467
0.0221039
0.0316514
0.100975
0.0229047
3.43983
0.0335214
0.031708
0.0219853
0.0218961
0.056595
0.0221766
0.0233423
0.0240794
0.0218201
0.0428069
2.93563
4.24405
4.17078
0.0884687
0.0292081
1.18665
6.4435
0.0217364
0.0219058
0.174137
2.73432
0.0216661
7.55306
0.446233
4.21686
3.26301
0.338863
0.0322111
10.9947
0.158298
0.0220154
0.0262469
8.96057
0.0430317
0.0406797
0.0222571
0.0215782
0.0438229
0.0246557
0.138504
0.0218807
0.0219075
0.0988604
0.0734018
2.39021
0.121478
0.35624
0.0221413
0.0219744
0.0221732
0.0827587
0.215782
0.0244243
0.0248734
5.86928
0.0221104
0.697161
5.79151
0.0219065
5.75107
0.0220404
4.14536
9.7732
0.0261894
0.0220161
0.0244808
0.0219596
0.022022
7.40832
0.0221059
0.0233603
0.0217192
0.0230187
3.86878
0.0235398
0.106191
0.0221708
7.25814
0.378262
0.0218304
0.282594
8.64327
6.50932
0.338947
7.17996
0.0330684
6.82878
0.0226775
0.0228242
0.0883999
0.0386455
4.91616
5.61629
0.249026
0.0222929
0.0217801
1.70637
0.0220371
0.05648
0.0216601
3.40366
0.0219362
0.022088
0.0221717
0.0220677
8.34755
0.0663875
9.25393
0.0219351
0.10911
0.0781425
2.63645
0.0508414
15.2458
0.028037
0.246419
1.14874
0.0829117
0.338978
0.0833943
0.083732
0.0433745
0.161533
3.74743
0.0218021
0.0320307
0.147636
3.99704
0.170338
0.0220224
0.021878
4.96275
0.0399058
0.021866
0.0224969
7.104
0.0354739
0.0219742
0.0224822
0.0230795
0.0236624
3.65369
0.12895
0.216339
2.74345
0.188081
0.0221006
0.0217901
0.0240743
0.022086
0.0943176
0.0225144
0.0316185
1.73294
0.0235988
6.29868
0.0280939
7.83851
0.0219709
0.0420389
0.021634
0.33391
0.0221332
0.0242727
0.0298993
0.0220465
0.306947
0.0222725
0.329083
0.0218498
0.0224857
0.0220556
9.30167
0.0442488
0.0265335
0.607402
0.0234669
0.105589
6.50813
6.44046
0.0223904
0.021956
0.0352318
0.0496975
0.270281
0.0247259
0.0216011
0.0220618
0.117735
0.0338263
0.0215773
0.153042
0.0225615
22.9988
0.142717
0.168531
0.170155
0.022594
0.0221387
0.0242928
0.0220753
0.0221701
0.0218882
7.80908
0.0221324
0.0218948
0.0459961
0.234162
0.0222148
6.06809
13.2837
0.0223425
0.332373
14.0136
0.0325131
0.0220736
0.424856
0.02964
0.0218198
0.021895
0.103879
0.0216589
0.0215613
0.0454704
0.0218251
0.0224138
0.0221511
0.236455
5.57746
0.0333331
2.98111
6.34021
0.0222194
7.53179
0.0216796
3.40749
0.026067
0.0348
0.0707796
0.0219798
0.0220942
0.166414
0.0441581
0.0236852
0.223641
0.0245525
0.712159
0.021834
0.0221199
0.02401
0.0335319
0.0285542
0.022328
0.0322944
0.0392605
5.03043
0.113509
0.022181
0.0218784
0.0221686
0.0365895
0.0221447
0.510757
0.586628
11.4276
0.176
0.0343239
0.0798969
0.0220735
0.0216393
0.0831683
0.0218427
0.0275654
4.25883
1.95016
0.406873
0.134278
0.0991481
0.109492
0.0835026
12.7763
0.0235579
0.0219311
0.028812
15.8676
7.17497
0.0220632
0.0224848
0.0261879
0.0219405
0.0678046
0.0251616
0.0323063
0.022231
3.99653
9.09276
0.0219135
1.39499
0.0222815
2.37666
2.32874
0.022051
0.0228518
0.0795012
0.284213
0.021933
0.021983
0.238409
2.52572
0.0220045
0.0351077
5.52686
0.0223643
0.0223278
5.35821
3.5223
0.0265827
5.0717
3.85417
4.64197
0.0353994
0.0221893
0.0220173
0.0678705
0.0220958
5.18976
0.0216594
0.0226621
1.87579
0.0222515
0.0215832
0.0251245
0.0227653
0.244678
0.0224107
0.36586
7.33437
0.11077
5.59077
0.131639
3.54867
0.037855
0.0225092
13.8652
0.0220806
6.74455
3.87253
0.165871
0.0779625
1.50356
19.0808
0.0220564
0.0219858
0.0246365
0.0218079
1.15252
0.0220859
0.668174
0.0227534
2.16825
0.0221326
0.022173
3.62038
0.0219772
6.08678
0.229101
3.67202
0.0216433
0.022242
0.0483769
3.76925
0.0401464
0.0454581
0.0219399
0.0221337
0.133407
0.022041
4.43096
0.0230358
0.352818
0.0229094
0.0861085
5.07868
0.0428633
0.0218994
0.0233799
14.1027
0.0306059
3.11638
3.92098
0.353609
0.0222503
0.0299878
0.0372933
0.0236535
0.0575269
0.0221883
0.0219933
0.0231116
1.02894
0.0217855
0.0316192
0.0235243
0.0221206
0.0220249
0.0290346
0.137515
0.0223823
0.0556932
0.0310933
0.042654
0.0500937
0.0220903
0.0220876
0.342705
0.398221
20.3408
0.0243858
4.33639
0.0218101
0.022266
0.022053
0.0222485
0.0679872
14.3871
0.238509
0.0292181
15.6475
0.022112
0.0432068
0.153689
9.3363
0.0277454
0.383162
0.0443871
0.0278496
6.75664
0.0231474
0.0507766
0.040964
0.156055
0.279472
0.150515
0.0221027
0.0229049
4.67087
0.0290867
0.0280496
0.0220415
0.0228875
0.0441891
0.0218897
0.0437597
0.0335649
0.25764
0.0476601
0.0246243
0.0222929
0.024557
0.0283387
0.0755455
0.024204
0.130491
0.102985
0.0434285
0.0261439
0.0217075
0.0462527
0.0216867
0.0223225
12.839
2.38826
11.0636
0.0219761
0.0220903
0.0399371
0.167898
0.02297
0.0321611
0.0221524
0.0287575
0.285159
0.0216712
4.33086
0.0322505
0.0614866
0.0438319
0.0511563
0.0366474
0.0224173
0.0365102
7.05489
0.0219211
12.0729
0.0219398
0.0354901
0.0794675
3.00762
3.93357
0.0224301
4.10807
0.0270549
0.0222012
0.0216335
0.188453
12.9976
0.0223553
0.0229085
0.0481349
0.0532621
0.468925
0.0225102
4.75587
0.0910052
0.0360017
0.0454577
0.0220798
0.0222443
0.0518496
0.0229918
0.0220017
0.022683
0.0221571
0.0227551
8.90001
0.0294624
0.176322
0.0222401
0.036907
0.702316
0.0219375
0.0331913
11.1425
0.0251038
0.0215863
0.0220166
0.186094
0.0217058
0.0224268
0.0225887
0.0220132
0.184442
0.0219202
4.66921
8.10526
0.0221551
0.0231556
0.0221231
0.0288367
0.0377968
0.0376465
0.0752673
0.022835
3.90283
16.8352
0.0280563
0.0220426
0.0293724
11.8898
0.0222192
0.0215261
4.39325
10.9722
0.0223638
5.82607
0.140033
5.03009
11.9874
0.127772
0.022138
0.0392179
3.87212
0.0220521
0.303414
0.0222643
11.4275
0.0472629
0.0416947
0.0222712
0.0307511
0.0218407
0.0221766
4.01954
9.39
0.0222854
0.0220361
0.0222837
0.0215894
3.53928
0.0294863
5.54486
0.0393575
16.5874
0.0226021
0.0218859
4.18276
2.1193
4.56767
0.789962
4.40423
6.03822
0.0381603
0.0218031
0.0268104
0.0333307
0.34977
0.0544321
0.0353415
0.0470162
0.0999683
0.0219426
18.3591
10.5764
0.0218509
13.6263
0.0220177
3.18297
0.26837
0.175574
7.52444
0.0231543
0.252124
0.0239697
11.197
0.0217651
0.0449605
0.0221575
3.53572
7.90129
0.0233382
0.0217021
0.317679
8.56494
0.0697659
2.28132
0.0218288
16.1588
0.0224685
1.37715
7.93154
0.454647
0.0339838
0.0220444
0.0216332
0.0221159
0.0318208
0.108989
0.80982
0.0529455
0.0703237
0.0381521
3.92801
0.121423
0.21206
10.7987
0.0225474
0.164142
0.0442024
0.0354688
5.99743
0.0296346
16.5534
0.0216742
13.689
11.425
0.0450311
0.0529928
0.166683
0.021699
0.0278818
9.76177
0.165432
0.0275458
0.0463074
12.2239
0.0356117
0.0927313
0.0284485
0.0251655
4.53247
14.2113
0.0217911
15.5297
9.68374
0.0247931
0.0398732
0.139916
15.1864
0.0218538
0.0327462
0.113966
0.0507854
0.0284221
0.0378645
8.6669
0.0221251
0.0919143
0.022067
0.0218073
0.0369932
0.0220243
11.8332
0.02816
9.53895
3.93206
13.872
3.63155
7.59834
0.0275232
0.0367294
0.041705
0.0230718
0.02217
0.024354
0.0223248
0.09116
4.00428
10.0971
8.77204
5.39594
8.21293
0.0221071
0.0220287
0.0220339
0.0220353
0.315741
0.0220271
0.0222115
0.0236165
7.00733
0.194977
0.0231179
0.024586
0.0293976
10.6139
8.53267
4.087
0.0464755
0.0285942
0.130853
7.63944
3.52532
0.0223757
0.0712667
2.86178
0.0390078
0.023007
5.85227
0.0229811
0.0234878
7.88755
0.0230699
0.157238
0.022344
13.0074
0.0219401
0.0272066
0.0221704
6.15949
0.0231784
0.0234788
0.114064
0.0484471
11.0083
0.0216253
0.184624
0.0376073
0.0242272
5.85348
4.80275
0.0318422
0.112336
4.31005
0.0220146
0.0421834
0.0219993
0.0220142
0.0220457
0.262215
0.0220868
0.476047
0.0220157
0.0282318
0.0217765
0.0222838
0.0220189
8.75936
0.0637533
0.0220245
2.55595
0.0417233
0.0222528
0.022031
0.0278625
0.0294034
9.43996
12.9329
0.0220367
7.03197
4.34011
6.39416
0.0274185
2.31981
0.0220462
0.0644311
0.0220571
0.0381365
0.0260376
3.89417
0.0220686
9.12873
0.0220813
0.0220954
0.0300742
0.0218613
0.396967
0.02756
9.6691
0.3408
7.40768
0.370772
6.38448
0.0281956
0.0221097
11.3498
0.0232472
0.35974
0.813743
0.340307
0.0219427
0.0288467
0.0229631
0.113628
0.0258093
0.0218593
0.115042
5.09565
0.0286461
0.0909496
0.0408811
0.269712
3.88311
8.66398
4.76307
0.0279944
8.28254
6.52883
10.4096
0.260684
10.1261
0.0233481
0.266053
0.176606
0.0222092
9.30936
5.55435
0.0222863
0.0220242
0.160975
7.34508
5.80468
10.7371
0.198489
0.0323192
0.142093
0.127415
0.0273837
6.8682
8.06292
0.0265878
0.0222392
0.0636106
0.0286654
8.61882
0.0417915
0.02207
7.44186
0.0217127
0.0218839
0.0219874
0.0218646
6.39127
0.0221712
0.165943
0.303689
0.0219138
0.0287604
0.0257727
8.23827
0.979567
0.120091
0.0222639
0.22271
0.0220644
8.80495
6.96399
0.0215177
5.81026
3.69003
0.0220143