/*--------------------------------*- C++ -*----------------------------------*\
| =========                 |                                                 |
| \\      /  F ield         | OpenFOAM: The Open Source CFD Toolbox           |
|  \\    /   O peration     | Version:  v2012                                 |
|   \\  /    A nd           | Website:  www.openfoam.com                      |
|    \\/     M anipulation  |                                                 |
\*---------------------------------------------------------------------------*/
FoamFile
{
    version     2.0;
    format      ascii;
    class       volVectorField;
    location    "100";
    object      ddt0(U);
}
// * * * * * * * * * * * * * * * * * * * * * * * * * * * * * * * * * * * * * //

dimensions      [0 1 -2 0 0 0 0];


internalField   nonuniform List<vector> 
13308
(
(-0.000331471 0.000429634 -5.08345e-21)
(0.000359542 0.000835698 -6.62627e-21)
(-7.04754e-05 -0.000102386 -5.35915e-21)
(0.000155253 1.58457e-05 7.83676e-21)
(0.00010444 -1.50486e-05 -1.19212e-21)
(0.000463345 0.000419422 9.12881e-21)
(0.000149613 1.02321e-05 0)
(0.000300067 0.000251743 6.81536e-21)
(0.000143675 4.14887e-08 2.11698e-21)
(5.91097e-05 -9.23212e-08 -3.51534e-21)
(0.000133943 0.000187507 8.92725e-22)
(0.000134449 0.000106028 0)
(-0.0005305 0.000160484 0)
(0.00014961 7.49358e-06 2.59586e-21)
(0.000142089 -3.97624e-06 -9.29156e-21)
(9.86154e-05 -1.94793e-05 -2.85156e-21)
(0.000217285 -0.000175415 -6.22187e-21)
(6.60445e-05 -2.62532e-05 0)
(-0.000269153 0.000472565 1.13934e-20)
(0.000737174 0.000654384 1.19399e-20)
(7.62711e-05 4.89291e-05 -2.65475e-21)
(-1.96105e-06 -2.05761e-05 9.17859e-22)
(-5.97845e-06 -1.92295e-05 -6.37146e-21)
(-0.000174894 0.000246183 0)
(-5.8407e-05 -8.72932e-05 2.05874e-21)
(0.000202244 -2.5673e-05 -2.02697e-20)
(-0.000254629 -4.61463e-05 7.73189e-21)
(-1.271e-07 -1.95584e-05 7.11899e-21)
(-0.000235847 -5.2119e-05 -4.06318e-21)
(-6.38082e-06 -1.52145e-05 -1.57814e-20)
(0.000283319 -1.46037e-05 0)
(1.90771e-05 -9.48072e-05 -5.35529e-21)
(-0.000322038 0.000206004 0)
(0.000159195 5.71671e-05 0)
(-0.000297193 0.000465825 -1.18975e-23)
(0.000159226 1.92436e-05 0)
(-6.81794e-06 -2.13493e-05 0)
(0.000110263 -2.97944e-05 0)
(0.000151417 1.3547e-05 -7.98237e-21)
(0.000218953 0.000120069 -4.19073e-21)
(0.000221781 0.000102618 2.75517e-23)
(0.000291353 0.000120717 -1.44051e-20)
(0.000340901 0.000249112 -7.99497e-21)
(0.000229323 0.000123595 -1.26136e-20)
(6.56581e-05 -6.94454e-05 4.77831e-21)
(0.000417791 4.98584e-05 0)
(0.00015156 -3.84347e-07 0)
(1.0453e-05 0.000104441 5.58468e-21)
(0.000265293 0.000241922 1.30698e-20)
(-7.23843e-07 -1.76239e-05 0)
(0.000298905 3.7484e-06 0)
(0.000495783 0.000967162 0)
(-8.09081e-06 -1.4036e-05 0)
(-0.000168368 -3.26112e-05 1.98935e-21)
(0.000454038 0.000399596 -1.28592e-20)
(0.000286023 0.000112086 1.59068e-20)
(0.000465253 0.000214746 -1.09247e-20)
(4.5011e-05 0.000107759 0)
(5.98938e-05 2.13666e-06 4.84156e-21)
(0.000319645 0.000202045 0)
(0.000229206 -0.000165817 0)
(4.37481e-05 0.000111444 1.07096e-24)
(0.000297276 0.000283897 -1.72696e-20)
(0.000215392 0.00011343 -1.89114e-21)
(0.000192564 -4.08882e-05 1.0658e-20)
(0.000469955 -0.000182021 0)
(0.000401387 0.000812729 -9.51264e-21)
(1.26183e-05 -1.72174e-05 0)
(-0.000255446 -4.84916e-05 -5.10239e-24)
(6.04077e-05 -2.19816e-05 0)
(-2.48782e-06 -1.39707e-06 1.15532e-20)
(0.00031069 0.000285101 6.57227e-21)
(1.99729e-05 -7.63051e-05 0)
(0.00074265 7.19086e-05 1.07695e-20)
(0.000279257 7.60655e-05 -6.45711e-21)
(2.45493e-06 5.50704e-05 -3.06597e-22)
(0.000161349 2.79293e-05 -6.3708e-21)
(-5.62668e-06 0.000182197 -1.92271e-20)
(-0.000278265 0.000173469 1.39774e-20)
(0.000326323 0.000296648 -3.71005e-21)
(-1.6878e-05 -2.07753e-05 -9.7523e-21)
(0.000344643 0.000119618 0)
(0.000155523 -0.000128614 -8.00145e-21)
(4.35768e-05 0.000138772 -8.67203e-21)
(5.65597e-05 -8.04774e-05 -8.31123e-21)
(4.98759e-05 9.73474e-05 0)
(3.38006e-05 5.12382e-06 -4.65114e-21)
(0.000300811 0.000168073 0)
(0.000309721 0.000173862 -5.50695e-21)
(7.39366e-05 5.17298e-05 0)
(5.88353e-05 1.52054e-05 0)
(-0.000991472 -3.03372e-05 0)
(3.31453e-05 0.000148627 1.07037e-20)
(0.000456495 0.000221053 6.37485e-21)
(0.000210884 9.34074e-05 1.05085e-20)
(4.38647e-05 0.000181852 1.31157e-20)
(-1.88997e-05 -1.93391e-05 0)
(-0.000204452 2.98519e-05 7.81381e-21)
(0.000229056 0.000124997 1.82956e-20)
(-2.16013e-05 0.000566928 -7.12072e-21)
(-0.000107284 0.000684321 0)
(1.30074e-05 0.000111566 0)
(0.000157044 -1.11243e-05 8.84061e-21)
(0.00017376 4.34889e-05 -1.76096e-20)
(1.14747e-05 -7.27272e-05 1.27495e-21)
(2.24717e-05 5.14476e-05 0)
(-0.000922161 0.000638932 -4.33089e-21)
(0.000308501 0.000201036 -4.85741e-21)
(0.000677542 0.000632742 0)
(-0.000462052 8.29548e-05 0)
(0.000223669 -6.68636e-07 0)
(2.54924e-05 -8.63739e-05 0)
(5.91247e-05 9.15572e-06 0)
(9.09701e-05 0.000167162 -1.01227e-20)
(-9.9052e-05 0.000664531 0)
(-0.000299487 0.000220287 -2.51676e-21)
(7.04122e-05 0.000110701 -3.65142e-21)
(0.000284694 0.000106198 0)
(0.000291428 0.000175235 -4.72314e-21)
(0.000236722 -7.69625e-06 -4.44081e-21)
(0.000203506 8.67181e-05 0)
(1.04352e-05 0.000120708 -3.27736e-21)
(3.61546e-06 0.000127661 7.01518e-23)
(4.76119e-05 9.99344e-05 0)
(0.000503534 -9.55279e-05 0)
(0.000119078 2.86315e-05 2.1071e-23)
(9.76853e-05 -7.39692e-05 0)
(1.76044e-05 0.000190632 -5.69755e-22)
(-1.05175e-06 -2.04953e-05 8.37361e-21)
(0.00155147 0.000867881 0)
(-5.00389e-05 -4.81808e-05 4.21364e-21)
(0.000355732 0.000484608 4.28325e-21)
(0.000153723 1.68907e-05 5.09185e-21)
(4.86174e-05 0.000320327 -7.1141e-21)
(4.45269e-06 0.000132032 -9.71335e-21)
(0.000251576 0.000228203 3.708e-21)
(0.000149725 6.74439e-06 -4.90386e-21)
(0.000153301 -6.31078e-06 -7.85153e-21)
(-0.000448671 9.94228e-05 -8.66726e-21)
(0.000172761 4.28488e-05 1.24265e-20)
(-0.00103503 0.000653796 -2.48806e-21)
(0.000152704 5.76912e-05 1.60493e-20)
(0.000192393 4.97418e-05 8.24039e-21)
(0.000273489 0.000108985 -4.08481e-21)
(0.0002024 0.000146068 -6.39674e-21)
(0.000158768 0.000429402 1.05952e-21)
(0.000268278 0.000248524 -2.22851e-20)
(4.44889e-06 -6.39705e-06 -9.52588e-21)
(2.72224e-05 0.000154601 -3.27634e-21)
(-0.000159797 3.81392e-05 -3.34228e-21)
(-0.000583315 0.000255612 -1.42932e-20)
(0.000146747 6.3127e-06 5.62732e-21)
(0.000694337 0.000670481 -9.96368e-21)
(0.000105172 -3.14422e-05 0)
(-8.78637e-06 -1.42069e-05 0)
(0.000253629 0.000225619 -3.29631e-21)
(1.55043e-05 4.55457e-05 0)
(0.000220328 0.000101687 0)
(0.000534289 -6.44261e-05 0)
(0.000155442 6.27719e-05 6.90063e-21)
(0.000347 6.27581e-06 -2.15478e-21)
(0.00010292 -7.9253e-05 -2.59894e-21)
(0.000290176 0.000109232 0)
(0.000145286 1.45897e-06 -4.84498e-21)
(-2.55975e-05 -3.69882e-06 1.19136e-20)
(0.00022311 0.000392251 0)
(0.000226631 0.000137955 -2.58333e-21)
(-0.00103314 0.000668266 -1.02428e-20)
(-7.71394e-05 -6.48919e-05 2.30171e-21)
(-0.000713697 0.00101231 -6.03383e-21)
(0.000102203 0.000185176 -8.12003e-21)
(0.000530266 0.000929579 -5.58949e-21)
(-0.000156728 -7.6434e-05 0)
(-0.000524102 0.000142709 1.56717e-20)
(0.000200999 0.000217983 -9.82728e-21)
(-1.20278e-06 -6.03819e-06 0)
(0.000741773 8.193e-05 -5.89299e-21)
(0.000118596 -4.24343e-05 0)
(0.000136054 1.20065e-06 -7.8765e-21)
(0.000117691 -2.57956e-05 -8.41678e-21)
(0.000372164 4.22635e-05 0)
(0.000299283 0.000172028 -4.77662e-21)
(0.000207341 -8.21958e-06 -5.75762e-21)
(-0.000166886 -7.47601e-05 -1.02725e-20)
(0.000171843 4.37668e-05 -2.82038e-23)
(0.000157744 1.88747e-05 0)
(7.14834e-06 0.000122768 1.08418e-20)
(0.000498875 -0.000174997 0)
(-3.15504e-05 -1.69439e-06 -9.35843e-22)
(0.00027554 0.000111176 9.08929e-21)
(0.00037928 0.000480851 1.05611e-21)
(0.000388005 0.000507492 -1.2063e-21)
(0.000158428 0.000301615 -4.51385e-21)
(-0.000622103 0.00029532 5.93288e-21)
(-0.000884124 0.000658574 -7.4424e-21)
(-7.09279e-05 -4.4309e-05 -1.27509e-20)
(-4.40577e-06 0.000172578 1.39409e-20)
(1.1364e-05 0.000183111 8.92232e-21)
(0.000196252 -0.000170974 0)
(0.000122046 0.000171452 6.46016e-21)
(-0.000625284 0.000417173 0)
(0.000213934 0.000155209 0)
(0.000193094 0.000140429 0)
(0.000260399 9.89725e-05 7.06078e-21)
(0.000230376 0.000179585 0)
(-5.45114e-05 -3.57024e-05 -1.22995e-20)
(0.000178902 4.82477e-05 3.84351e-21)
(0.000248433 0.000172247 -1.05448e-20)
(2.82224e-05 0.000153453 0)
(0.000391203 0.000335422 -7.11623e-21)
(-4.20711e-05 0.000582312 8.86023e-21)
(-0.000136044 0.000223448 -1.5448e-24)
(-2.07184e-06 -1.68418e-06 -1.57266e-20)
(0.00134297 0.000839489 0)
(0.00019689 0.000141497 0)
(0.000354114 0.00011828 2.04896e-22)
(1.47931e-06 -7.42745e-05 0)
(3.06303e-05 0.000532932 -2.08649e-24)
(5.9753e-05 -3.75353e-05 0)
(6.81078e-05 -3.7423e-05 -1.42029e-20)
(0.000138659 -8.87601e-06 9.72668e-21)
(-6.28089e-07 2.04681e-05 0)
(0.000116693 -3.36001e-05 0)
(0.000163837 0.000136046 0)
(3.18551e-05 -5.25858e-05 -7.90303e-21)
(-0.000546235 0.00014206 -1.04479e-20)
(0.000223171 0.000139051 -4.41055e-21)
(1.51406e-07 -1.92084e-05 -1.65605e-21)
(0.000121242 -0.000474178 -3.52774e-21)
(0.000328106 0.00010062 -1.02007e-20)
(0.000314518 0.000296594 0)
(2.29143e-06 4.52378e-05 1.15115e-20)
(8.64286e-06 -5.29307e-06 -2.87339e-21)
(0.000425088 -5.31059e-05 7.92993e-21)
(0.000243543 0.000117893 0)
(0.000177393 4.7795e-05 0)
(2.58043e-05 -7.23557e-05 -8.7947e-21)
(-2.29543e-05 -3.69689e-06 -2.44804e-21)
(0.000411128 0.00050683 2.08153e-21)
(7.64485e-05 -4.86807e-06 9.36614e-21)
(0.000203721 9.48372e-05 3.71006e-21)
(0.000230324 0.000184266 0)
(9.38023e-06 0.000115897 5.85317e-21)
(0.00012334 -6.46574e-05 -5.04891e-21)
(0.00011606 0.000177473 -7.16266e-21)
(0.000130413 5.62383e-05 -4.53786e-21)
(-0.000624638 0.00042423 0)
(0.000236879 0.000165883 -1.48692e-20)
(1.78836e-06 0.000134987 0)
(0.00020832 0.000227537 0)
(2.22429e-05 0.000146901 0)
(2.98791e-05 -5.10014e-05 5.88346e-21)
(0.000234431 0.000413103 -9.26865e-22)
(-2.67925e-06 -3.11816e-07 7.39635e-21)
(-1.3134e-06 -6.88735e-06 0)
(0.000326161 8.3287e-05 -1.36194e-20)
(-7.14544e-06 -1.49675e-05 -7.16133e-21)
(7.43261e-05 -3.14178e-06 -8.87546e-21)
(0.000110403 -3.21469e-05 -3.72169e-21)
(0.000283743 0.000104816 0)
(0.000127472 0.000186704 6.81034e-21)
(7.37623e-06 -7.71647e-05 4.39168e-21)
(0.000208773 -7.03589e-06 4.57012e-21)
(0.000464738 -0.000209518 3.45628e-21)
(0.000122502 3.59499e-05 -4.10453e-21)
(0.000131408 -2.74183e-06 0)
(-0.000407829 6.83436e-05 0)
(0.00038161 4.19688e-05 -9.29905e-21)
(8.02593e-05 0.000169051 -7.22449e-22)
(0.000167018 0.000131253 0)
(-1.77511e-05 -7.78551e-06 -1.83594e-23)
(0.000169969 0.000165673 0)
(7.71351e-05 6.86113e-05 2.26968e-21)
(0.000235578 0.000131409 -6.42953e-21)
(0.00055467 -5.24504e-05 0)
(0.000694519 -9.12889e-05 -3.51717e-24)
(-2.21675e-05 -3.36944e-06 0)
(7.26131e-05 0.000109092 1.33508e-20)
(-0.000202505 1.33423e-05 -9.66236e-21)
(0.000482361 0.00022497 0)
(4.90053e-05 9.68233e-05 0)
(0.000111196 -3.18163e-05 -7.05033e-21)
(-0.000184628 4.76474e-05 7.38945e-21)
(-0.000668577 0.00103072 -1.26451e-20)
(-0.000437399 0.000593337 0)
(-1.87586e-06 1.40867e-05 0)
(2.46636e-06 7.14177e-05 5.216e-21)
(0.000375764 0.000336296 5.91699e-21)
(0.000156154 -0.000114414 0)
(0.000559171 0.00055327 4.68968e-21)
(-1.70302e-05 -0.000126962 -1.05841e-20)
(-0.00117577 -8.20858e-05 -7.33012e-21)
(-0.000448091 0.000172043 -1.51602e-20)
(0.000150087 2.11276e-05 1.40471e-20)
(0.0003309 0.000104856 0)
(-8.91388e-06 -2.1127e-05 0)
(0.000239469 0.000162758 2.07826e-20)
(2.4519e-05 0.000182402 -1.08958e-20)
(-0.000139361 -2.60606e-05 0)
(9.6711e-05 -3.27676e-06 -7.51865e-21)
(8.69177e-05 7.25141e-07 -7.64257e-21)
(0.000397153 0.000385971 0)
(7.1839e-05 0.000228463 7.76583e-21)
(1.33688e-05 -9.94496e-06 -9.92491e-21)
(0.000159873 0.000124178 1.4312e-21)
(3.71353e-05 0.000149371 0)
(-0.000171587 0.00114275 9.55817e-21)
(0.000309261 0.000215523 1.03021e-23)
(5.10958e-05 9.89151e-05 0)
(2.07601e-05 -4.52754e-05 -9.33491e-22)
(0.000209819 0.000577591 0)
(-0.00015809 0.000711704 -9.55948e-21)
(0.000277498 0.000158772 -2.54705e-21)
(0.000137027 2.49147e-06 -1.54891e-20)
(0.000532136 -0.000106852 -1.58546e-21)
(4.54736e-05 3.25121e-05 -9.301e-21)
(0.000267379 5.9524e-05 0)
(0.00060714 0.000608881 -2.3456e-21)
(0.000552502 -8.85398e-05 1.58639e-21)
(0.000136236 0.000277759 3.51544e-21)
(7.73868e-05 6.82805e-05 2.86861e-21)
(0.000212714 1.67225e-05 4.39916e-21)
(0.000417845 0.000383738 0)
(0.000140447 -0.000105138 0)
(0.000335346 0.00110855 0)
(0.000351762 -1.94061e-07 3.09132e-21)
(0.000254667 9.17559e-05 -1.99141e-20)
(4.33465e-05 0.000134402 -5.16707e-21)
(0.000444826 0.000957555 3.07768e-21)
(0.000116832 2.7e-06 2.50559e-21)
(-0.000465987 0.000241296 7.7729e-21)
(0.000703907 5.83384e-05 -6.56956e-24)
(0.000249217 0.000161601 1.47496e-20)
(0.00012465 5.16495e-05 -3.34159e-23)
(0.000214128 0.000153076 2.61804e-21)
(0.000306028 0.00013979 0)
(0.000486416 -0.000103926 0)
(0.00020003 6.71585e-05 4.89117e-21)
(0.000198852 -1.38935e-05 -5.77548e-21)
(0.000505423 0.000649289 0)
(-0.00056489 0.000384565 0)
(6.36909e-07 2.43506e-05 -1.00136e-20)
(0.000234367 0.000113023 0)
(4.4845e-05 9.85036e-05 2.53473e-21)
(0.000427884 0.000907058 0)
(2.92223e-06 5.21787e-05 -5.94928e-21)
(0.000201375 8.97571e-05 3.87882e-21)
(0.000142475 8.24206e-07 0)
(0.000116574 -3.16288e-05 -7.35704e-21)
(-0.000192458 -1.22696e-06 8.40084e-21)
(0.000325826 0.000230031 1.21483e-20)
(0.000176485 4.69524e-05 0)
(0.000301963 0.00016134 4.82366e-23)
(0.000255524 0.000178447 0)
(0.000371389 0.000357478 6.51101e-21)
(0.00014436 3.44152e-07 5.44008e-21)
(0.000205802 0.000129088 0)
(0.000264718 0.000214789 -2.42351e-21)
(0.000297609 8.60776e-05 8.35356e-21)
(1.06986e-05 0.000181533 -5.90791e-21)
(0.000300105 0.000215275 4.62083e-21)
(0.000631132 0.000646562 0)
(-7.9734e-05 4.38286e-05 6.72453e-21)
(0.000121676 3.28223e-05 -1.09606e-20)
(-0.000554026 0.00015124 5.07387e-21)
(0.000278879 0.00016515 -1.7355e-20)
(0.000120936 0.000184688 -3.59809e-21)
(0.000100561 -7.76602e-05 0)
(4.25268e-07 -2.19417e-05 9.89231e-21)
(0.000138387 0.000288962 6.5894e-21)
(-0.000349171 0.000129302 7.8805e-21)
(-0.000254724 7.51766e-06 9.74387e-22)
(-0.000518821 0.000323448 -7.60544e-21)
(-3.46338e-05 0.000348541 -2.53862e-21)
(0.00026377 0.000106906 0)
(0.000171775 4.81693e-05 -6.94701e-21)
(0.000558751 0.000444932 0)
(0.000177118 4.99376e-05 -6.29471e-24)
(0.000313757 0.000499029 7.80173e-21)
(0.00024577 0.000166592 0)
(9.90045e-06 0.000175372 6.12024e-21)
(0.000213891 9.31802e-06 5.51861e-21)
(1.87252e-05 0.000189489 5.96318e-22)
(0.000146431 0.000331107 1.19209e-20)
(0.000437127 0.000217704 1.01001e-23)
(7.7942e-05 6.21071e-05 3.27605e-21)
(0.000467445 0.000198529 -9.44067e-21)
(8.23422e-05 0.000225897 -8.26623e-21)
(0.000199596 -1.86548e-06 -4.56119e-21)
(-0.000672074 0.00028597 3.2222e-21)
(-0.00047963 1.07296e-05 1.23053e-20)
(0.000237621 0.00029881 -2.01057e-20)
(0.000230521 0.000133322 0)
(0.000434384 4.11965e-05 -6.71733e-21)
(0.000241641 0.000309138 -2.38552e-21)
(0.000254434 0.000340746 -1.88001e-21)
(4.1812e-05 0.000133694 3.90265e-21)
(4.73335e-05 9.64624e-05 -1.10336e-20)
(0.000759555 0.000301268 5.33158e-21)
(0.000101173 2.15116e-05 -3.56213e-21)
(-0.000463748 0.000647057 7.15927e-21)
(0.000351702 7.24719e-05 7.18118e-21)
(7.72364e-05 5.67021e-05 1.44724e-21)
(0.000161885 0.000119099 0)
(0.000231792 0.000302697 2.16616e-20)
(-6.51495e-06 -1.59255e-05 7.56264e-21)
(2.46366e-05 0.000137412 -1.54399e-21)
(1.74468e-05 4.85179e-05 0)
(1.94915e-05 0.00025094 0)
(-5.28404e-05 0.000367813 -1.90529e-20)
(0.000290822 0.000486518 0)
(1.93872e-05 -1.02219e-05 0)
(0.000289584 6.13308e-05 -4.15903e-21)
(0.00013537 -1.25135e-05 0)
(-0.000721477 0.000320301 -9.1409e-23)
(0.000326571 0.000334627 -1.39653e-20)
(-0.000584668 0.00099142 5.61992e-21)
(4.15212e-05 0.00013881 4.15138e-21)
(3.04271e-05 4.27231e-06 0)
(0.000277625 0.000168481 1.90078e-20)
(0.000629214 0.000411933 0)
(7.54514e-06 0.000103448 -5.69483e-21)
(-0.000487719 0.000721799 1.37169e-20)
(0.000251506 0.000315976 4.02106e-21)
(0.000167083 -0.000489498 -4.29467e-21)
(-0.000181654 0.00118784 0)
(6.62104e-05 8.54062e-05 -5.41537e-21)
(-0.000227298 0.000235239 0)
(-1.28675e-05 -0.000137536 -5.5559e-21)
(-0.000258446 0.000189375 -5.31064e-21)
(0.000128747 4.85229e-06 9.29486e-21)
(-0.000356002 0.000232578 0)
(-1.14861e-05 -2.0808e-05 -3.61792e-21)
(0.000349756 8.35648e-05 0)
(5.92954e-05 -5.79496e-05 1.79391e-23)
(-5.22597e-05 0.000194411 0)
(0.000142849 -9.56951e-05 0)
(0.000270134 7.83526e-05 5.89095e-21)
(0.000374085 0.000338154 0)
(0.000200073 6.97083e-05 -4.55376e-21)
(3.21584e-05 1.65182e-05 0)
(6.4214e-05 6.24265e-05 1.22436e-21)
(4.98604e-05 0.000137181 0)
(0.000302553 0.000178817 1.44401e-21)
(0.000155336 -1.7566e-05 -2.1819e-20)
(7.70899e-05 4.97066e-05 -5.5693e-21)
(0.000140491 0.000147096 -7.11078e-21)
(2.00921e-05 5.88706e-05 0)
(0.000106847 7.56947e-05 -3.6538e-21)
(0.000669086 9.16077e-05 1.0577e-20)
(-0.000717048 0.000394106 -9.91594e-21)
(0.000132115 -1.69019e-05 9.67569e-21)
(0.00018998 5.78901e-05 -1.72677e-20)
(0.000402265 0.000352095 1.06967e-20)
(0.000359963 6.90182e-05 -3.71823e-21)
(0.000397117 0.000133802 -1.89103e-20)
(0.000143542 6.01927e-06 5.02812e-21)
(0.000237981 8.19049e-05 -1.78711e-20)
(0.00023502 2.03294e-05 0)
(-0.000575808 0.000236432 4.3094e-21)
(0.000266708 0.000158745 0)
(-6.24657e-05 0.000351264 1.05554e-20)
(0.000652387 0.000392736 1.96374e-21)
(-2.61018e-06 -4.0911e-07 -9.37058e-21)
(0.000313441 0.000173288 -1.33592e-20)
(0.000239392 0.000569446 0)
(0.000125384 -7.1891e-06 0)
(-1.69138e-05 -0.000457077 5.43348e-21)
(0.000388601 0.000367616 -1.1187e-20)
(0.000161927 3.11426e-05 2.59785e-21)
(0.000200508 0.000183731 -3.80676e-21)
(0.000212253 0.000111029 -1.01558e-20)
(-0.000455872 0.000703154 -1.29457e-20)
(0.00044513 -0.000146987 -8.99302e-21)
(3.15116e-05 1.85086e-05 -9.24116e-21)
(-1.40753e-07 -1.42934e-05 -4.84072e-21)
(0.000255167 0.000111847 0)
(-7.81775e-07 -1.62717e-05 0)
(0.000119373 0.000180717 -7.51339e-21)
(-1.85949e-08 -9.77989e-07 -7.86078e-21)
(0.000334585 9.63872e-06 0)
(1.72268e-05 5.55655e-05 0)
(0.000307573 6.65347e-05 0)
(0.000227296 0.000271855 1.97372e-21)
(8.24964e-05 -2.62179e-05 6.76376e-21)
(-5.96687e-05 -0.000113805 -5.3202e-21)
(0.000196169 6.81352e-05 -4.73583e-21)
(0.000119218 -7.50942e-05 -5.51478e-21)
(-1.68149e-05 -8.46137e-06 1.28928e-20)
(0.000325435 8.59653e-05 1.26966e-20)
(0.000583157 0.000936097 -2.91423e-21)
(-0.000163133 -7.22235e-05 -6.10296e-21)
(0.000143178 -4.0237e-06 -7.81167e-21)
(-0.000443177 0.000658173 0)
(0.000325772 0.000244477 -1.30248e-20)
(-0.000117803 0.000237203 0)
(-0.000848744 0.000640844 4.27234e-21)
(4.56069e-05 0.000135309 2.08668e-21)
(2.55825e-05 0.000133973 6.02586e-21)
(0.00013983 -3.15195e-06 0)
(0.000198748 6.52683e-05 -9.89541e-21)
(-3.09943e-05 7.73711e-05 -7.16031e-21)
(5.62845e-05 0.000178067 4.77549e-21)
(-5.18782e-05 -0.000106935 -5.92535e-21)
(6.11718e-05 0.000311175 5.79744e-21)
(-2.09038e-05 -1.42497e-05 0)
(3.79302e-05 0.000150388 4.67824e-21)
(-0.000532013 0.000161339 -9.61895e-21)
(0.000380497 0.000902559 1.03221e-20)
(0.000123024 -6.71425e-05 -2.89833e-21)
(0.000196731 6.71244e-05 0)
(-3.14537e-05 -4.74908e-05 1.5107e-20)
(0.000107533 0.000157178 1.20832e-20)
(-1.63384e-05 0.00106372 -4.04325e-21)
(0.000234362 0.000156088 4.92143e-21)
(0.00105011 0.00030742 7.84376e-21)
(0.000185283 0.000174435 8.61416e-24)
(3.19503e-06 8.65087e-05 -5.39595e-21)
(8.07249e-06 0.000135329 -5.93259e-21)
(0.000208722 0.000104281 1.90062e-20)
(-0.000463569 0.000606221 -7.31398e-21)
(-3.16742e-05 2.66033e-05 0)
(0.000244421 8.87863e-05 6.17143e-21)
(0.00066226 0.000108399 0)
(-0.000131152 0.000240566 -8.18069e-21)
(6.97329e-05 -0.000461832 0)
(-0.000717296 0.000468107 -1.51157e-20)
(0.000363581 5.0439e-05 0)
(0.000236559 0.000217505 -5.37874e-21)
(-0.000344257 0.000477337 0)
(3.4692e-05 7.75622e-05 0)
(-5.61208e-08 2.01515e-05 5.01907e-21)
(-0.000426099 0.000246487 6.15685e-21)
(-0.00019991 0.000532486 0)
(0.000224377 0.000160413 -1.17942e-21)
(0.000238886 0.000187298 -2.95253e-21)
(0.000212631 0.00012936 -4.40013e-21)
(0.000264415 0.00010602 -5.46426e-21)
(0.000667321 -0.000157159 0)
(-1.41643e-06 8.78115e-06 8.5957e-21)
(-3.79304e-05 -3.85616e-05 4.15405e-21)
(-9.65553e-05 3.93108e-05 -9.32001e-22)
(0.000138292 -0.000107071 -3.84867e-21)
(0.00023732 0.000194104 -6.65745e-21)
(3.46842e-05 8.0071e-05 -1.32073e-20)
(3.71599e-05 0.000174206 1.11326e-20)
(-3.44271e-07 -1.45829e-05 -4.54079e-21)
(0.000401769 6.17737e-06 3.5275e-21)
(-0.000485148 0.000107178 1.04242e-20)
(-0.000702214 0.000418132 1.20133e-20)
(3.45724e-05 4.13791e-05 5.05073e-21)
(2.22082e-06 6.03129e-05 0)
(0.00054374 0.000407192 0)
(3.55644e-05 0.000112129 1.02129e-20)
(-0.000342823 0.000408715 1.41498e-23)
(-2.21994e-05 -2.9721e-06 0)
(-0.000606572 0.00107915 -1.53318e-20)
(0.000157238 -2.20476e-06 -4.6787e-21)
(-0.00051053 0.000150428 -4.90225e-21)
(-2.19677e-05 -2.06937e-05 8.27975e-21)
(7.57851e-05 -9.05951e-06 -8.69884e-21)
(6.47697e-06 3.11508e-06 -4.50224e-21)
(-9.75846e-05 0.000210341 0)
(0.000177035 4.73733e-05 0)
(7.15312e-06 9.8231e-05 0)
(0.000122876 0.000125218 -4.41948e-21)
(4.52952e-05 -2.33581e-05 -6.64614e-21)
(-0.000305154 0.000427203 -5.19155e-21)
(-6.45466e-07 -4.47021e-06 0)
(1.68056e-05 6.17292e-05 0)
(0.000193822 1.48954e-06 -6.61085e-21)
(3.24644e-05 4.14624e-06 7.05221e-23)
(9.29884e-05 1.3441e-05 -1.28658e-20)
(-0.000104752 -1.6987e-05 -8.51405e-21)
(3.59731e-05 3.91287e-05 -1.01453e-20)
(0.000440723 0.000145032 1.29178e-20)
(0.000254533 0.000240003 -1.89283e-21)
(-3.74923e-07 -1.38844e-05 -5.68719e-21)
(0.000116592 0.000207565 0)
(0.000232999 0.000160321 -1.01218e-20)
(0.000228535 0.000153808 0)
(0.000253505 0.000105696 0)
(0.000172628 0.000171583 0)
(0.000239205 7.54205e-05 1.1198e-20)
(-0.000114392 0.000213879 0)
(3.85537e-05 0.000111907 3.42776e-21)
(0.000616514 0.000895123 -1.39261e-20)
(3.91692e-06 0.000158921 5.65921e-21)
(0.000138979 6.10081e-05 0)
(0.00045131 -0.000132282 7.03078e-21)
(0.000238672 0.000115178 4.65633e-21)
(-3.00921e-05 -3.13005e-06 -1.72846e-20)
(0.000194218 6.14248e-05 4.50259e-21)
(-0.000552265 0.000329113 0)
(0.000246718 0.000208376 0)
(0.000318699 8.8823e-05 1.25469e-20)
(0.000251749 0.000219908 0)
(-0.000141037 0.000268392 0)
(0.000341748 0.000335853 1.06074e-20)
(0.000153841 3.2116e-05 -7.43533e-21)
(-0.000383465 0.000263147 0)
(2.02709e-05 4.91881e-05 5.14103e-21)
(3.76269e-05 3.42619e-05 1.39969e-20)
(0.000123025 -8.17206e-06 -1.9429e-21)
(0.00015423 1.02816e-05 -2.86213e-21)
(0.000251364 0.000178057 6.25691e-21)
(-3.73553e-05 -0.000111809 5.85021e-21)
(0.000223479 0.00029558 2.7678e-21)
(-0.000808385 0.000657154 -4.04691e-21)
(0.000307511 0.000178731 2.50489e-20)
(3.73212e-05 3.17484e-05 -9.06176e-21)
(-2.37059e-05 -1.91092e-05 -7.85137e-21)
(0.00024795 0.000323867 0)
(4.06431e-05 0.000185713 -1.23855e-20)
(0.000196886 6.70695e-05 -5.38567e-21)
(-0.000567858 0.000392022 5.67059e-21)
(0.000222701 0.000100015 9.22008e-24)
(2.82687e-05 -4.7285e-05 -9.51944e-21)
(-4.18423e-05 -0.000287593 -3.27189e-21)
(0.000682767 0.000158422 0)
(0.00104921 -0.000132922 -7.19659e-21)
(0.00029291 0.00104799 1.78343e-21)
(-0.000136537 0.000240193 6.75621e-21)
(0.000112762 0.000141722 -1.39658e-20)
(-4.94314e-05 0.000218406 -1.89367e-21)
(1.46427e-05 5.78267e-05 5.26944e-21)
(-4.97635e-05 -2.18085e-05 4.73545e-22)
(-3.94046e-05 -2.38604e-05 0)
(-0.000328489 0.000141783 0)
(0.00021812 0.000155969 -3.73679e-21)
(0.000212013 4.18443e-05 7.3728e-21)
(0.000241364 0.000112445 8.0273e-21)
(3.26123e-05 6.51605e-06 -3.74041e-23)
(1.9124e-05 -4.46362e-05 -1.39281e-23)
(0.00027652 -4.24069e-05 5.20817e-21)
(4.47335e-05 0.000156317 6.24095e-21)
(6.30506e-05 0.000110791 5.62293e-21)
(0.000155569 1.68094e-05 0)
(0.000249157 5.87912e-05 -1.80105e-21)
(8.49731e-05 0.00037203 -8.0445e-24)
(-0.000251821 -0.000288111 8.44562e-21)
(0.000265489 0.000197135 -2.82853e-21)
(0.000508232 0.000449896 0)
(2.83776e-05 2.74213e-05 -9.82564e-21)
(9.13745e-05 1.88728e-05 7.75223e-21)
(9.44123e-05 -3.61952e-07 0)
(7.79634e-05 6.71284e-05 -3.09376e-21)
(3.03937e-05 8.22398e-05 1.72572e-20)
(2.65455e-05 2.92513e-05 -1.31659e-21)
(0.000107933 0.000190066 4.00477e-21)
(0.000133718 0.0001558 -7.54051e-21)
(0.000161761 -1.41073e-05 9.4239e-21)
(0.000168847 -7.94545e-06 1.10776e-20)
(-2.7514e-05 -1.69365e-06 2.53376e-21)
(-3.17015e-05 -0.000102586 1.70325e-21)
(0.000335148 7.97986e-05 6.32367e-21)
(0.000409753 -6.43693e-05 -7.18153e-21)
(0.000225362 -0.000150467 -1.43453e-20)
(2.4179e-05 -3.2685e-05 1.73025e-21)
(3.67308e-05 0.000313312 7.15208e-21)
(7.38885e-05 7.82002e-05 -5.24058e-21)
(0.000273505 0.000165455 0)
(0.000212495 8.76318e-05 0)
(-3.26242e-05 -5.28123e-05 -1.36303e-20)
(-0.000145745 0.000253153 -6.5977e-21)
(9.74623e-06 4.26841e-05 -9.51948e-21)
(0.000174104 5.87057e-05 0)
(9.35581e-06 0.000174648 -1.6187e-21)
(6.70555e-06 0.000124926 -7.89895e-21)
(0.000119574 -3.02092e-05 0)
(-0.000182874 0.000214691 6.56672e-21)
(0.000241172 -2.3389e-05 -4.99014e-21)
(0.000114609 0.000216501 -4.63479e-21)
(0.000123182 5.89804e-05 1.41302e-20)
(9.58909e-05 -2.73318e-05 -7.81031e-21)
(0.000304856 0.00101541 0)
(0.000250943 0.000153458 0)
(2.5057e-05 -4.45973e-06 0)
(0.000713654 0.000394267 1.69698e-20)
(1.69351e-05 0.000290301 -5.98083e-21)
(7.70743e-05 1.26656e-05 -7.75338e-21)
(7.73887e-05 0.000173695 5.33067e-21)
(3.63035e-05 0.000331894 -4.93182e-21)
(-2.08165e-06 2.11598e-06 3.69222e-24)
(0.00064611 0.000153775 0)
(-0.000778429 -5.46111e-05 0)
(-2.33267e-06 1.05762e-05 -4.78108e-21)
(0.000277859 -5.47846e-06 4.45331e-21)
(0.000426874 0.000402076 1.89116e-21)
(8.83982e-05 -5.40219e-05 0)
(0.000429955 -0.000213086 -1.53963e-20)
(0.000243801 0.000171634 0)
(-0.000884099 -9.91414e-05 0)
(-4.34535e-07 -1.07918e-05 5.04494e-21)
(0.000219963 0.000102695 -2.08358e-20)
(0.000152943 0.000240736 -7.15439e-21)
(-8.33746e-05 -0.000110926 1.09648e-21)
(-2.26101e-05 -3.10907e-06 -2.62555e-21)
(3.08412e-05 0.000114083 6.653e-21)
(0.000266533 0.000115379 1.18637e-20)
(4.98896e-05 -5.95426e-05 -9.80124e-21)
(0.000189976 0.000256609 1.32361e-20)
(-0.000424683 4.99137e-06 -5.6581e-21)
(-0.000136922 0.000737738 -4.97489e-21)
(2.38328e-05 -4.74091e-05 7.40424e-21)
(0.000381259 6.52245e-05 0)
(0.000293393 3.32036e-05 -2.2637e-21)
(-5.08292e-05 0.000179371 -6.51256e-21)
(4.69469e-05 -5.56092e-05 -2.99605e-24)
(-0.000237557 8.07273e-05 8.51709e-21)
(0.000193615 0.000264914 -8.49826e-21)
(-0.000201755 1.74132e-05 2.49713e-21)
(0.00012513 5.96177e-05 -1.1372e-20)
(3.16732e-05 5.2413e-06 0)
(2.55807e-05 -4.86944e-05 0)
(0.000173038 4.43515e-05 -2.06735e-20)
(2.15543e-05 5.35045e-05 0)
(0.00023521 0.000275187 7.31506e-22)
(0.000226204 0.000102757 0)
(0.00029267 6.08603e-05 -2.81637e-20)
(1.0002e-06 4.1677e-05 -1.20582e-20)
(0.000189205 0.000185722 -6.09389e-21)
(-5.80997e-05 5.7749e-05 0)
(9.60107e-05 -5.00086e-05 -1.23131e-20)
(2.54087e-05 -4.57696e-05 0)
(8.20008e-05 0.000180579 4.82337e-21)
(0.000222208 3.22189e-05 6.94445e-21)
(0.000121486 0.000231307 1.02972e-21)
(9.57356e-05 -2.27807e-05 4.78071e-21)
(2.72894e-05 -9.85769e-06 -1.06429e-20)
(1.49224e-06 4.2506e-05 9.35152e-21)
(3.66969e-05 -0.00045722 6.19361e-21)
(-7.67463e-07 -5.34429e-06 6.76312e-21)
(2.2115e-06 -2.00202e-05 -2.63116e-21)
(3.51096e-05 0.000148388 -2.45885e-23)
(4.43019e-05 2.72078e-07 7.37671e-21)
(0.00025424 -2.59909e-05 0)
(-0.000291321 0.000251721 -6.07246e-21)
(6.17099e-05 -5.79585e-05 -4.52127e-25)
(-0.00067616 0.000484973 7.72042e-21)
(0.000282689 0.0002152 -6.60689e-21)
(2.48744e-05 -3.09601e-05 2.6237e-23)
(0.000308779 8.64485e-05 -1.91958e-20)
(0.000116326 0.000222421 -1.30004e-22)
(1.68274e-06 4.76439e-05 4.73975e-21)
(2.58868e-05 -4.22104e-06 0)
(0.000228166 0.000152276 -5.29773e-21)
(0.00015989 0.000236805 1.02004e-20)
(0.000489241 0.000263463 0)
(0.00021745 0.000153288 1.37058e-20)
(0.000296487 7.824e-05 2.08728e-20)
(1.2196e-05 0.000192955 7.7244e-21)
(-0.000443479 0.000238216 0)
(6.94726e-05 8.45284e-05 -1.02255e-20)
(-0.000474541 0.000208985 -7.09815e-21)
(7.29761e-05 0.000359481 8.86486e-21)
(1.15462e-06 -1.46828e-05 2.50649e-21)
(-0.000307953 8.5547e-05 -9.41957e-21)
(0.000247464 0.000271633 5.08194e-21)
(-2.20433e-06 4.68289e-06 4.46091e-21)
(0.000228517 0.000200379 9.04013e-21)
(0.000515687 0.000271156 -1.12442e-21)
(8.81984e-05 -5.40072e-05 6.686e-21)
(8.72114e-05 -5.40832e-05 -6.2202e-21)
(0.000107843 -2.82899e-05 7.79716e-21)
(6.25251e-06 0.000122479 2.70027e-21)
(0.000195235 6.57011e-05 -4.44884e-21)
(9.57497e-05 -2.97042e-05 7.25546e-21)
(-3.3738e-05 -0.000292479 -1.24766e-21)
(0.000544404 0.000647733 0)
(0.000304829 2.70772e-05 -1.10221e-20)
(-7.91036e-07 5.75577e-06 -9.15641e-21)
(9.22197e-05 0.000179552 -9.73325e-21)
(0.000232221 0.00028766 -1.65081e-21)
(-0.00108997 -9.07043e-05 0)
(0.000186122 0.000187729 0)
(-0.000814374 0.000347306 0)
(-5.10545e-05 0.000245732 0)
(-1.70396e-08 -7.1763e-07 7.61135e-21)
(-0.000201389 -5.07479e-05 0)
(0.000270651 0.000132645 4.18383e-23)
(8.82991e-05 -2.38035e-05 0)
(7.20913e-05 6.16377e-05 -5.1148e-21)
(0.000634822 0.000127817 -5.74345e-21)
(3.4197e-05 7.13366e-06 5.36507e-21)
(0.000285781 8.28307e-05 1.32671e-20)
(-3.7669e-05 2.57472e-05 -1.03167e-20)
(0.000391814 9.87424e-05 0)
(0.000253429 7.92191e-05 -1.20035e-20)
(0.000544134 0.000584991 -4.86372e-21)
(3.04609e-05 8.46554e-05 6.26708e-21)
(8.4817e-05 4.58636e-05 -5.02266e-21)
(8.40535e-05 2.20039e-05 -7.28331e-21)
(0.000110217 7.50618e-05 2.45388e-22)
(0.000364458 0.000416256 0)
(1.47499e-05 -8.03695e-06 -6.00937e-21)
(0.00026168 0.000111712 -1.07581e-20)
(-0.000224413 0.000528277 0)
(-0.000237516 -4.0657e-05 -7.85269e-21)
(-1.67776e-06 -3.09144e-06 -8.15836e-21)
(3.86847e-05 7.0717e-05 -5.90279e-21)
(8.99997e-07 2.25013e-05 0)
(2.83197e-05 -5.06141e-05 -6.18999e-21)
(1.42521e-05 0.000192043 -7.67659e-21)
(7.88721e-06 0.00013382 1.04292e-20)
(0.000196375 0.000465368 7.43978e-21)
(2.86369e-05 9.5094e-06 0)
(0.000207432 0.000101113 -8.28809e-21)
(4.0568e-05 1.45914e-05 0)
(3.90055e-06 -0.000155187 5.14722e-21)
(0.000248275 0.000170279 0)
(0.000127454 0.00013447 3.31916e-21)