/*--------------------------------*- C++ -*----------------------------------*\
| =========                 |                                                 |
| \\      /  F ield         | OpenFOAM: The Open Source CFD Toolbox           |
|  \\    /   O peration     | Version:  v2012                                 |
|   \\  /    A nd           | Website:  www.openfoam.com                      |
|    \\/     M anipulation  |                                                 |
\*---------------------------------------------------------------------------*/
FoamFile
{
    version     2.0;
    format      ascii;
    class       volScalarField;
    location    "100";
    object      ddt0(k);
}
// * * * * * * * * * * * * * * * * * * * * * * * * * * * * * * * * * * * * * //

dimensions      [0 2 -3 0 0 0 0];


internalField   nonuniform List<scalar> 
13308
(
-5.07582e-08
4.23121e-08
2.48308e-06
-2.87325e-08
-9.2278e-09
-3.00179e-09
4.48903e-09
4.0629e-06
3.11233e-09
-4.46184e-08
-1.47483e-08
5.20421e-05
-2.94927e-05
-1.99785e-08
-3.36826e-08
-4.38808e-08
-4.51702e-08
-5.83464e-08
-3.17318e-08
2.17214e-08
6.11672e-08
4.31596e-08
3.0156e-08
-5.59995e-05
1.32621e-06
2.00906e-09
3.06588e-05
1.39202e-08
1.10691e-05
-1.50407e-08
-6.04972e-05
1.23651e-05
-5.76078e-05
-1.79487e-05
-3.81752e-08
2.21927e-08
4.22405e-08
-7.03031e-09
5.04375e-08
2.40964e-08
1.94354e-08
5.86826e-08
1.08604e-05
6.88066e-09
3.47623e-06
1.89978e-05
6.92839e-08
4.39496e-08
-6.44138e-08
1.21472e-07
-3.86918e-05
5.76304e-08
-1.0006e-08
1.23772e-05
1.80616e-09
2.89359e-08
2.06675e-08
-8.5895e-09
9.7656e-09
-5.75139e-09
-3.71999e-08
-4.3373e-09
5.13282e-09
3.58367e-08
1.76102e-08
-3.91952e-08
3.62366e-08
3.9153e-06
3.5047e-05
-1.24411e-08
-4.52278e-09
2.90056e-08
-3.23347e-08
2.02783e-08
-8.41949e-08
2.29517e-08
-1.1072e-05
-8.74271e-08
-5.73444e-05
7.17105e-08
-8.32859e-09
7.74391e-08
1.64348e-08
-1.17423e-07
4.61158e-06
-5.08745e-08
3.13516e-08
-4.13139e-08
-5.16217e-08
8.68387e-08
4.24535e-08
7.34154e-06
-9.7437e-08
1.90292e-07
-1.63211e-09
-7.56863e-08
-1.48014e-08
-3.54804e-07
-1.48318e-09
-3.89558e-08
-3.7928e-08
-9.45358e-08
-1.54363e-08
5.66252e-08
-1.41758e-07
-5.53493e-08
-1.60747e-06
-7.38724e-09
6.98707e-09
-2.70075e-05
-1.61833e-09
1.07141e-05
4.45047e-08
-5.7686e-05
-3.76197e-08
-5.95784e-05
1.37087e-08
3.15853e-08
4.65559e-08
6.68326e-10
-3.82834e-10
-3.01246e-08
-4.63195e-09
-5.86461e-08
4.55206e-07
-8.80106e-09
-2.21002e-06
5.36712e-09
-1.87252e-07
7.82894e-05
-3.28057e-07
1.56686e-08
2.07263e-08
1.78402e-08
-8.74248e-08
-4.54009e-08
-6.4636e-08
-7.20657e-09
-2.96522e-05
9.75839e-08
-1.56059e-05
-1.35562e-05
-1.88403e-05
2.12596e-08
5.55359e-05
3.93216e-06
-6.10298e-08
4.90483e-09
-1.03778e-08
-1.4018e-05
-3.2741e-05
-9.52046e-08
5.2876e-09
-2.74807e-08
-4.05693e-09
-4.1473e-08
-1.82498e-09
2.60533e-08
2.63131e-06
-1.83565e-05
1.78284e-08
-3.94782e-06
2.76012e-08
-8.3609e-08
-1.10539e-08
9.07035e-07
-3.43098e-09
-1.08933e-05
5.92855e-07
-1.60462e-07
1.63352e-06
4.08311e-08
6.0809e-05
-2.81153e-05
-1.15946e-08
-2.16463e-09
2.01044e-08
1.62592e-06
2.11079e-08
-1.13588e-08
7.08614e-08
5.19582e-08
-2.16294e-08
5.29741e-05
3.78723e-08
1.28325e-08
-1.45929e-07
-3.87023e-08
2.408e-09
1.44421e-08
1.3645e-08
1.39703e-08
-2.49253e-07
-3.43526e-05
-3.6123e-07
-2.63526e-07
-9.53984e-08
-2.58127e-08
-7.00891e-08
1.14285e-06
-3.59796e-05
-7.28795e-10
7.26487e-08
4.20219e-08
6.92322e-08
-6.6801e-07
3.83143e-08
7.2101e-08
6.22956e-09
7.25016e-08
-4.04338e-08
-5.51154e-05
-1.37393e-08
3.84963e-05
6.49321e-08
9.05417e-08
-7.50253e-08
1.29911e-05
-5.05493e-09
5.29111e-08
-8.96174e-08
3.95328e-08
6.78767e-08
1.25741e-07
3.84257e-09
-1.37578e-05
-3.20294e-09
-1.32094e-08
-4.76295e-06
1.00483e-07
4.76518e-08
-7.65581e-08
3.40031e-09
-1.17831e-08
-1.20726e-08
5.34891e-08
5.05453e-09
-9.04702e-09
1.08177e-08
2.17118e-08
-7.31439e-09
7.20871e-08
6.5554e-08
2.66766e-06
-2.32139e-07
-1.6183e-08
-3.40236e-05
1.45559e-08
-2.40425e-08
-1.37299e-08
-9.92365e-08
-2.3164e-08
-1.73974e-06
6.31796e-08
-9.4525e-08
9.32826e-08
-1.61768e-08
2.16234e-08
5.54742e-08
3.43785e-08
-1.73905e-08
1.01565e-08
4.433e-08
-1.0972e-08
-1.39448e-05
1.02019e-07
-2.71592e-05
8.18589e-08
-5.62974e-05
1.24501e-07
-2.03325e-08
3.31597e-08
-1.16591e-08
1.74086e-08
1.02081e-07
-6.94599e-06
-6.67754e-09
-3.0666e-08
-3.29909e-07
4.83141e-08
-5.17595e-08
7.82154e-08
-2.96962e-07
-1.16519e-07
-6.80438e-08
-4.61283e-08
7.14783e-08
1.14733e-07
-7.60652e-08
-1.65171e-08
6.24895e-06
4.14249e-06
-4.35719e-05
-1.05822e-05
9.5978e-08
2.84174e-08
2.96158e-08
3.40164e-08
1.01714e-05
3.407e-08
-1.7394e-06
4.18192e-08
-4.21398e-08
2.87027e-08
1.34451e-07
-9.30541e-08
1.17358e-08
-3.36887e-09
-5.7163e-08
4.77848e-08
-2.43823e-08
-3.02588e-08
-1.32598e-05
3.1113e-08
-1.19533e-08
-1.13887e-05
6.22087e-06
-4.31361e-10
-5.91405e-08
3.3958e-08
-1.23024e-08
2.52717e-09
2.18019e-08
-4.34336e-08
6.70169e-08
3.4864e-08
2.65404e-08
-7.81609e-08
4.36018e-08
1.31185e-08
-2.7231e-07
2.6196e-06
4.39406e-08
-1.57935e-08
-1.22967e-09
-2.77708e-07
1.89299e-06
1.24074e-08
2.13805e-08
9.33207e-09
-4.01275e-05
-1.35785e-08
-2.35318e-09
-2.25708e-08
5.44143e-08
-5.09939e-08
-1.42221e-08
6.37046e-08
1.41938e-07
0.000486357
-1.61902e-08
8.44262e-08
-4.00946e-08
4.36041e-08
-5.5629e-09
-6.86248e-08
5.59628e-08
0.000100671
7.75251e-06
-2.69976e-08
1.47411e-10
-5.46185e-09
4.6241e-05
-9.60271e-09
-7.5245e-06
1.84927e-08
2.99505e-07
3.42388e-06
-6.8662e-08
3.50884e-08
1.46809e-07
-5.1061e-06
1.74792e-08
5.64819e-07
2.99633e-08
3.6216e-08
2.69819e-06
1.17443e-08
2.84405e-06
5.58441e-08
-1.46362e-08
-5.98042e-09
3.09508e-08
-2.3515e-06
1.40479e-07
8.16589e-08
4.09154e-09
-4.10897e-08
2.21909e-08
-3.11099e-05
-8.67802e-06
7.24003e-09
8.39698e-09
2.33335e-05
1.58123e-08
1.01456e-07
-2.13661e-07
-2.00283e-08
2.34916e-06
-9.11755e-06
-6.49974e-08
1.03571e-07
-5.31799e-08
1.45657e-07
1.35074e-08
-1.53329e-08
-4.92122e-08
1.14781e-08
-4.47306e-05
5.38823e-10
1.14601e-06
4.17889e-06
7.75745e-06
-5.64588e-08
-3.16362e-05
9.4684e-08
-7.76199e-08
1.16607e-07
8.02769e-08
3.42132e-08
-1.28056e-08
8.72684e-08
-6.41742e-08
2.69041e-08
-9.53795e-06
1.22689e-08
1.74076e-08
-5.08097e-05
6.79745e-06
-6.19069e-05
2.40663e-08
-4.06258e-05
6.27363e-06
1.08241e-07
-4.5157e-08
-9.15115e-08
-4.26113e-08
-6.73466e-08
7.5952e-08
-1.26232e-08
-1.22541e-08
9.94344e-08
-7.53998e-09
-2.1618e-08
9.98531e-08
-1.6212e-05
7.82115e-07
-5.74739e-08
3.49515e-08
1.17746e-06
-1.74776e-06
-6.21356e-08
3.52198e-10
5.03114e-08
7.87107e-08
4.25179e-05
4.97851e-08
3.19387e-08
4.5471e-06
-1.45531e-06
-1.41838e-08
-3.24649e-09
-1.00192e-08
8.8508e-09
5.88283e-08
-1.81025e-08
7.0716e-08
1.53291e-05
5.4945e-08
-7.58937e-08
6.41152e-08
1.52798e-08
-6.47804e-08
7.1388e-07
-6.4228e-09
5.88779e-08
1.96091e-08
1.5969e-08
-2.20061e-08
-9.75487e-09
-1.19001e-09
-2.09867e-08
-2.24247e-08
8.5137e-08
1.32399e-07
3.4e-05
2.43867e-08
-9.22426e-06
2.57523e-08
9.69271e-08
4.41448e-08
4.55237e-05
1.38196e-08
-6.63127e-08
-2.86525e-08
-6.26188e-08
-4.23194e-07
4.84094e-08
-3.62326e-08
1.30306e-07
6.81829e-09
5.31955e-05
-7.16413e-08
3.049e-05
1.3868e-08
5.36818e-06
-1.02536e-07
-2.09399e-06
4.62856e-08
-6.8876e-06
6.93887e-08
1.46448e-05
-4.73163e-05
9.07532e-08
-1.47785e-08
-0.00016355
0.000107681
1.08965e-07
-9.41465e-08
1.08165e-08
-6.91732e-08
-8.69522e-06
4.14556e-08
3.29141e-06
4.15052e-06
1.24204e-05
-7.77178e-07
8.23016e-08
-1.26875e-05
-5.50172e-08
-5.57965e-09
-5.07338e-09
-3.78106e-05
-2.92715e-08
1.25072e-08
3.57121e-08
5.0375e-08
2.76664e-08
-5.51173e-06
3.82914e-08
-7.01503e-07
-1.18207e-05
1.68755e-05
2.4496e-08
-7.58004e-09
-8.50423e-08
-1.60693e-07
2.23558e-05
-3.17409e-05
-1.25323e-06
-5.2453e-08
-5.06307e-08
1.65471e-06
2.84317e-08
-5.66897e-08
1.21953e-09
-5.91567e-08
3.15762e-08
-2.63954e-06
-8.6692e-09
1.48159e-08
1.99977e-08
-7.63822e-08
3.40954e-08
2.76636e-08
3.10872e-08
-1.12135e-07
-3.05792e-08
-3.59967e-08
-7.78645e-08
-3.36512e-05
3.82133e-08
2.4759e-08
5.98692e-06
-6.60045e-08
4.20649e-05
-4.33264e-08
1.15494e-07
9.19184e-07
7.58812e-09
1.29123e-08
1.7286e-08
1.30611e-08
-3.44973e-09
-7.3081e-08
4.44372e-08
2.95303e-08
-2.91379e-08
1.20396e-07
1.81097e-06
9.59756e-09
-1.51255e-08
3.16217e-09
-2.69728e-07
-1.89066e-09
8.83706e-08
-3.17039e-08
-4.10897e-08
8.98679e-08
-1.31426e-05
-4.39964e-05
4.34581e-08
-2.33603e-08
1.51024e-08
-3.2359e-08
9.04866e-08
2.84593e-05
7.92832e-08
-1.39405e-07
5.69072e-08
4.09396e-08
7.24542e-08
1.82947e-08
-5.74087e-05
1.57848e-08
-3.98461e-05
-4.96223e-08
-7.29895e-08
0.000120668
5.59448e-06
0.000171262
6.81205e-08
-5.47102e-08
-5.99605e-05
-3.35979e-05
-9.74513e-08
7.28682e-06
-5.15242e-07
2.44815e-08
9.17569e-08
-1.61575e-05
2.33847e-08
-1.39905e-08
2.55626e-08
3.14926e-08
4.89305e-08
-2.33006e-09
-3.18552e-08
-7.01369e-08
-2.48441e-05
2.73185e-05
2.75509e-06
1.59128e-06
-4.05787e-08
5.98469e-08
1.61504e-08
-2.80891e-08
-6.43772e-08
-2.4691e-08
-3.59187e-08
1.50036e-06
-5.12486e-08
-3.46237e-05
1.15564e-08
2.43491e-05
9.73892e-08
-5.67086e-08
-1.241e-08
-2.36333e-08
3.88956e-10
2.24029e-09
1.47012e-09
-7.78041e-08
1.62888e-05
-5.05822e-08
-3.48771e-08
-5.20159e-08
-8.65619e-09
-1.22957e-09
-1.97246e-08
-4.79577e-05
7.15075e-09
-2.03046e-08
1.96089e-09
3.75512e-08
6.5221e-08
3.6684e-08
6.88393e-08
3.55174e-09
0.000104357
-6.63364e-06
-6.05073e-08
0.00011164
-1.54174e-08
1.03618e-08
3.99725e-06
6.52944e-08
-5.48658e-08
1.83054e-08
-3.7652e-08
2.09145e-08
4.73342e-08
3.0141e-06
9.30319e-08
4.57299e-08
1.41255e-08
-5.66982e-07
6.61323e-09
-1.78764e-09
-1.40585e-08
-1.53334e-08
3.3789e-08
-5.6628e-06
-3.63704e-08
2.1297e-08
5.23159e-06
5.12061e-06
-9.98422e-08
-9.4894e-09
-4.73481e-05
3.73197e-08
-6.85105e-06
-1.33753e-09
-7.05928e-08
1.86493e-08
1.46747e-08
-5.45316e-08
6.59724e-08
-2.35967e-08
4.21157e-06
-2.63397e-08
2.23809e-09
-1.10111e-05
2.51068e-08
-8.14719e-08
-7.18834e-08
-4.18226e-05
-1.06812e-06
7.48708e-07
-6.33225e-08
4.51091e-08
6.75454e-06
-1.46644e-08
-3.55651e-08
2.54659e-08
-6.77408e-07
1.10947e-08
-4.8841e-05
-2.41036e-08
-3.6799e-07
2.92016e-06
-1.32463e-08
7.90183e-08
-1.28428e-08
-5.40888e-08
2.58545e-08
-1.45617e-08
9.63078e-09
4.01819e-07
-2.93212e-08
4.4825e-06
-4.1071e-08
-3.70002e-05
-3.50577e-08
-7.58704e-08
-5.36249e-06
1.28899e-07
-4.00284e-05
5.31843e-09
-3.63168e-08
7.72573e-10
3.70624e-07
-2.04774e-08
2.05309e-08
-7.66163e-08
1.33604e-07
-1.54549e-08
1.13099e-08
0.00012035
5.66258e-09
5.22181e-06
7.52611e-08
-6.22594e-08
6.4576e-08
3.6967e-06
2.10959e-09
-2.87602e-05
0.000117878
2.92451e-09
7.77496e-05
5.73822e-08
-3.84169e-09
-2.48226e-08
-9.85917e-09
2.56689e-08
-8.3526e-08
-9.7158e-06
1.30964e-05
-2.66063e-05
2.85484e-10
2.51573e-08
3.92608e-08
9.78773e-08
3.48751e-08
4.98e-06
-8.83009e-09
-3.48791e-09
-3.57387e-08
5.05248e-05
-1.83667e-08
5.31058e-08
7.71468e-08
-7.44644e-09
1.73758e-08
-3.35487e-08
1.68782e-06
5.65219e-08
-2.89729e-08
-3.13604e-08
3.61505e-05
4.78679e-08
-6.01148e-05
5.83819e-08
5.75082e-06
1.07919e-07
-3.44067e-08
2.66253e-08
-8.0846e-09
2.50129e-08
-6.54565e-09
-2.58717e-08
-2.38994e-07
5.87386e-07
-3.30118e-06
-9.75368e-08
-6.99278e-08
-1.1666e-07
4.5324e-08
7.84759e-09
-9.86109e-09
-2.39547e-07
0.000134144
9.57684e-08
-8.72372e-08
-1.05041e-08
6.36761e-08
1.73612e-08
9.51097e-09
-3.31396e-08
7.22246e-09
3.07037e-08
4.71916e-08
3.06293e-05
5.48992e-08
-2.38242e-08
-3.6128e-09
1.19152e-07
3.67213e-08
-3.09003e-09
7.32764e-09
2.22971e-08
5.61395e-05
-3.09345e-05
1.53054e-08
-2.94339e-08
5.88445e-08
2.55122e-08
1.3679e-08
4.88868e-08
5.98947e-08
2.4902e-08
5.81552e-08
6.01739e-08
1.83135e-08
3.30948e-07
-5.17652e-08
-8.20421e-08
-3.85413e-05
-6.68965e-08
1.43386e-08
1.73042e-08
1.46379e-08
-1.11308e-05
-4.3278e-08
-6.67032e-08
3.96356e-08
-1.09969e-07
1.65302e-06
4.82525e-08
-3.87863e-08
-4.67283e-05
-3.83291e-08
-9.08155e-08
-8.11182e-08
7.19655e-08
-3.74791e-08
-5.20972e-05
5.93535e-08
-5.93489e-06
-3.57119e-05
-9.50709e-08
6.85174e-07
1.30067e-08
4.99418e-05
8.21061e-10
-4.91242e-05
-2.0046e-05
7.16741e-09
5.9125e-09
1.01229e-07
8.59196e-09
-1.79907e-08
7.75882e-05
6.77618e-08
1.07442e-08
-7.41172e-09
1.98591e-08
2.80809e-07
-4.70485e-05
4.31103e-08
3.37159e-05
6.95494e-08
-1.68803e-09
1.32216e-08
-7.44629e-08
1.57643e-08
1.8411e-06
-1.72925e-08
-3.70936e-08
2.28278e-08
-1.80589e-06
-2.56059e-09
4.6771e-05
2.50257e-05
3.75823e-08
8.77333e-08
5.77075e-06
5.22927e-08
1.13768e-07
-7.1162e-09
2.76288e-08
5.35175e-08
-7.03971e-08
9.21608e-06
-1.71298e-08
4.73009e-08
2.58576e-09
1.46769e-05
1.5802e-08
7.44919e-07
1.6188e-05
-9.88758e-08
-8.23392e-07
1.61947e-08
8.61871e-05
8.64379e-09
-1.45109e-06
2.425e-07
9.78013e-09
-3.30436e-09
6.88499e-05
1.35419e-07
1.93092e-08
1.79721e-08
8.41783e-08
-5.9341e-05
9.43104e-08
3.68407e-08
-3.3028e-08
-2.76297e-08
-5.7248e-08
1.58359e-08
-6.20635e-09
1.39214e-07
1.58931e-08
-1.11125e-08
2.2108e-09
-1.80729e-07
-8.9585e-08
-1.75846e-08
4.45496e-08
-2.30093e-08
5.97602e-08
2.99366e-08
-7.35106e-09
-7.44599e-07
4.46332e-09
-3.56825e-08
3.44529e-08
8.35425e-06
-3.51019e-08
-2.33465e-06
-9.22556e-08
8.86765e-08
1.19714e-06
5.78893e-08
-2.39314e-05
-3.84103e-08
2.80113e-08
-2.2678e-05
-8.2874e-08
-3.83661e-07
6.08707e-06
1.23936e-05
2.36578e-08
2.95891e-09
-4.89152e-08
5.88908e-08
-5.11457e-08
-1.54299e-08
-1.11841e-07
9.602e-09
-7.64983e-08
-9.52713e-09
-1.89335e-08
1.83528e-06
-1.88157e-05
2.74841e-05
1.48317e-09
5.86493e-06
1.2726e-08
-3.57043e-09
-5.90487e-08
-3.52957e-08
-5.65914e-09
1.54137e-05
-1.42034e-08
-4.82436e-08
7.46497e-06
-3.32505e-08
4.61513e-08
3.74652e-05
-2.72735e-08
-5.14934e-08
-1.26653e-08
7.27519e-08
6.33201e-09
0.000121892
-4.07902e-07
-3.19173e-07
-3.0326e-05
-1.02459e-05
3.96247e-05
-4.44529e-08
-1.52035e-05
8.14018e-08
-4.58843e-05
-6.4522e-09
-1.48594e-08
1.19039e-08
4.29397e-07
-1.10453e-07
-3.60585e-08
-8.00769e-08
-7.14752e-08
-1.13732e-08
-2.63871e-08
5.79674e-07
6.23832e-08
5.37374e-10
5.20934e-08
5.8723e-08
-1.40838e-09
-1.77264e-08
-4.04547e-08
4.99571e-08
-1.09713e-07
-2.7905e-09
5.29097e-08
2.76887e-08
-1.39598e-05
-4.13971e-08
9.46417e-05
3.51097e-08
1.68755e-08
1.38522e-07
-2.1854e-08
7.8821e-05
1.89023e-07
-2.2969e-08
-5.51698e-09
-9.61255e-08
1.69866e-06
5.32849e-08
5.11482e-09
5.85551e-08
2.0116e-07
-3.14589e-08
-7.61419e-09
2.5564e-08
5.39318e-05
9.44474e-08
1.08103e-07
-3.26942e-08
-5.63836e-10
-2.07586e-08
1.78823e-09
-6.01762e-08
-6.17154e-08
3.37169e-08
1.70689e-05
-9.60683e-08
3.61698e-08
4.34582e-08
-8.3213e-08
7.67766e-08
2.30995e-08
7.65228e-06
-3.93256e-08
-6.61328e-08
-7.40442e-08
5.94758e-09
-1.8435e-08
6.76219e-08
5.35341e-08
3.6575e-08
-1.80486e-05
5.90228e-05
4.22709e-08
4.63893e-09
1.64215e-08
-6.21609e-08
-4.07271e-07
3.31359e-08
4.44196e-10
1.26487e-08
1.20851e-07
-3.26593e-07
2.88791e-08
1.11469e-07
1.51191e-07
-4.58906e-09
0.000102705
1.18812e-07
-8.48403e-08
2.43443e-08
8.88454e-05
6.54301e-08
-5.15171e-09
-1.79569e-08
8.31733e-08
-7.5904e-08
-2.70675e-08
1.21554e-06
1.03264e-07
5.08798e-09
-3.5952e-08
4.47133e-08
-2.56805e-07
3.35397e-08
-4.01462e-08
0.000145729
-3.12679e-08
6.67717e-09
9.28493e-09
4.1743e-05
1.66339e-08
2.56185e-08
-1.93549e-08
4.38401e-08
3.29596e-08
1.11553e-08
-6.9138e-08
4.89847e-07
6.61492e-08
1.06663e-08
9.5916e-08
2.78252e-10
-4.17227e-05
1.9352e-08
2.46461e-05
7.22747e-07
-4.16413e-08
-3.45065e-06
-2.93406e-08
1.7668e-08
1.40363e-08
2.20463e-08
-1.39703e-08
6.63223e-08
-1.52528e-06
-3.97678e-08
1.18039e-07
-1.57664e-08
-2.558e-08
7.52143e-06
-1.77781e-07
-7.56665e-08
-6.69501e-08
-1.35854e-08
1.41915e-08
9.36397e-06
-5.83473e-09
2.1061e-09
4.83351e-08
3.35028e-08
2.84757e-08
1.43679e-08
6.20215e-08
-1.32517e-05
1.09476e-05
9.6681e-09
-7.44674e-09
-1.35793e-07
-2.68815e-08
8.28051e-08
3.2439e-07
9.9308e-09
-7.18114e-06
3.9575e-09
1.24983e-06
-5.30936e-05
-9.92929e-08
3.95439e-08
-3.58082e-08
-1.57688e-08
-6.43318e-05
2.66822e-05
1.44154e-09
-5.23143e-08
-2.46549e-08
1.65409e-05
2.25142e-08
2.95966e-08
2.39408e-08
6.13856e-05
2.72781e-08
8.59422e-08
-1.27912e-07
5.99259e-08
6.64974e-05
2.07839e-08
-2.76808e-08
6.74232e-09
4.97958e-07
-1.12511e-06
-2.4809e-09
-4.97253e-05
1.01843e-08
4.86756e-08
-1.37809e-06
-1.28377e-08
1.10989e-08
1.06392e-07
-2.04448e-09
-2.8999e-08
-5.01925e-09
7.49314e-08
3.48142e-07
3.05677e-08
-1.80192e-05
1.12921e-07
-3.587e-08
-2.76395e-06
2.40581e-08
-5.28493e-08
-2.77568e-07
2.00006e-06
5.14054e-08
-6.91702e-08
0.000150047
8.83437e-09
-1.315e-07
1.15964e-08
-4.17341e-08
-1.39739e-08
7.26011e-09
-6.97035e-05
-7.03393e-08
-6.68321e-08
-9.09198e-10
-2.30969e-08
-1.94845e-09
-2.99869e-05
-1.28221e-08
-1.44508e-09
-5.27328e-08
-4.11062e-08
1.70253e-07
9.19333e-08
2.47066e-05
-2.72461e-08
-1.08775e-07
2.02591e-08
1.1032e-07
1.53357e-07
6.7897e-09
-5.45637e-08
6.75409e-08
-1.32061e-08
-7.20782e-09
4.50455e-06
-1.08964e-06
-1.87153e-08
-3.3119e-05
-9.15992e-09
3.14668e-08
-2.77944e-05
1.80317e-08
1.24644e-07
-3.32843e-08
-7.36455e-06
-1.0855e-06
-6.26415e-08
6.06526e-08
-5.04406e-05
-2.98258e-07
2.68508e-08
-1.25799e-05
-3.7871e-05
1.63793e-06
-1.97816e-08
2.71288e-08
-3.14279e-08
1.79653e-08
1.84687e-08
-7.45904e-08
-1.55566e-08
-3.40583e-08
2.50612e-08
4.17174e-08
-7.15469e-08
1.88778e-07
3.21283e-05
-4.90906e-08
2.25032e-08
6.57776e-09
3.05408e-08
7.08203e-09
1.43057e-08
3.05437e-08
6.58132e-09
2.73277e-06
-8.82821e-08
8.64349e-08
-3.59209e-08
2.4582e-09
6.72609e-08
3.71581e-07
-2.57266e-08
1.05666e-08
-3.90885e-08
-3.42162e-09
-2.11601e-08
-4.99784e-08
-3.80042e-08
2.45534e-05
1.43039e-08
-8.84238e-08
6.40654e-08
-1.85307e-08
1.4667e-07
6.15053e-09
2.47635e-08
5.17e-09
1.30088e-08
5.59187e-05
3.35008e-08
1.6865e-05
1.1573e-05
5.05968e-07
-1.36152e-05
7.54756e-08
-5.14968e-08
-4.78629e-07
7.13014e-05
-2.39335e-08
2.12221e-08
3.99596e-08
-1.98658e-08
-2.82076e-08
1.8624e-05
-3.11696e-08
6.68174e-08
1.23872e-07
0.000110329
3.54911e-09
-5.77607e-05
2.11816e-06
1.1674e-09
6.1553e-08
-6.41563e-08
-5.52397e-10
-3.13566e-09
-8.06779e-06
1.10176e-08
3.0761e-08
-5.78226e-08
4.95863e-08
1.96884e-08
-1.35873e-08
-2.1008e-08
0.000137807
-8.13571e-08
6.53184e-05
5.28363e-09
-4.45904e-08
8.08133e-05
-2.44057e-05
9.85372e-05
-1.43693e-08
-4.31392e-09
9.48404e-08
-7.12084e-06
-4.94063e-05
1.4173e-07
-5.75188e-08
-2.74517e-05
-2.7824e-08
-4.6697e-09
3.28147e-08
4.19236e-08
1.01786e-08
2.95812e-08
6.48606e-08
8.28156e-07
-3.40026e-08
7.51603e-08
-6.61922e-09
9.79681e-08
3.37176e-08
-7.44945e-06
-7.22244e-08
-1.48521e-07
7.12208e-05
-2.4206e-08
4.82772e-08
-4.57411e-08
1.36287e-06
6.72883e-08
3.81422e-08
8.84813e-05
4.09722e-08
8.29805e-08
1.45166e-07
3.40323e-08
1.88458e-08
6.54845e-09
1.82503e-08
2.16721e-05
-4.15407e-08
6.81453e-09
-5.50632e-09
2.3965e-05
3.20745e-05
-6.44856e-08
-9.15489e-09
2.3329e-08
1.55764e-05
-2.90591e-07
5.00928e-08
-4.04507e-06
2.90395e-08
-4.19062e-07
3.07626e-08
2.2209e-09
2.29997e-08
1.28661e-07
-2.89801e-05
2.92108e-06
1.06366e-07
2.53859e-08
-8.32047e-05
3.4864e-08
1.50235e-05
1.82031e-05
5.49542e-06
-3.44832e-09
-5.44263e-08
2.23143e-08
-2.30738e-08
-1.14497e-05
4.96695e-08
-3.86726e-08
-3.4476e-08
1.84698e-08
1.0571e-07
-5.86388e-08
-2.15381e-06
7.06515e-08
3.70305e-08
3.52918e-08
3.08256e-08
-6.81567e-08
1.47637e-05
5.88966e-08
1.80687e-08
-3.28803e-08
-3.84648e-08
-3.71566e-05
-2.73507e-08
-2.13374e-05
-1.61612e-07
7.46968e-08
5.98039e-08
3.18991e-08
1.20265e-08
-6.10563e-09
-5.90745e-08
-4.3097e-08
3.56966e-08
-2.06994e-08
8.47309e-08
-5.9522e-08
2.535e-08
-1.4022e-08
-1.29544e-08
3.00251e-08
4.1168e-08
-3.07793e-08
3.69867e-05
-9.71585e-08
6.76596e-09
5.57671e-08
1.40683e-08
7.29289e-05
3.1711e-09
-2.66575e-05
-6.09448e-05
-2.02452e-10
-3.20632e-08
-8.31143e-08
-4.23378e-08
2.6608e-05
-1.40045e-08
-6.0999e-06
2.6129e-08
5.47696e-08
1.23868e-08
-8.5393e-09
6.82343e-08
-1.34376e-07
-3.99681e-09
-5.40366e-05
6.17662e-07
4.00488e-08
3.27187e-05
-3.74319e-08
2.77498e-08
8.99812e-08
3.17461e-08
3.85451e-08
3.41075e-06
-6.27363e-08
7.20468e-08
3.20496e-08
3.69048e-08
5.24634e-05
3.25223e-08
4.10323e-08
-4.08286e-09
2.31366e-08
-3.67009e-05
9.82846e-08
1.01144e-08
7.89078e-08
9.79944e-10
3.28341e-08
4.72288e-08
2.02571e-08
2.51484e-09
1.83878e-08
-2.02102e-08
-6.40762e-08
-2.08582e-05
8.86165e-10
-7.28499e-08
1.43012e-06
5.63521e-08
9.92546e-10
-8.41123e-08
-4.15147e-08
2.63282e-08
2.4027e-05
1.42423e-07
3.34463e-08
1.44624e-08
-3.45522e-07
1.30558e-07
4.80008e-08
-3.73815e-10
3.44252e-08
2.57909e-08
-1.38253e-07
-3.82145e-08
7.39636e-07
2.537e-08
-1.13914e-05
-3.76888e-08
-6.5423e-08
-5.38908e-08
1.03795e-05
2.41627e-08
-1.54661e-08
-1.63234e-08
7.60541e-07
6.13448e-08
2.77541e-08
6.01144e-08
2.90698e-08
-1.39566e-08
1.13595e-07
-1.82339e-07
-1.51674e-07
8.24489e-07
6.05401e-10
3.55825e-08
-5.32442e-08
1.58007e-05
1.96673e-08
3.03652e-08
-7.99299e-08
-2.12139e-08
-1.07873e-05
4.16327e-05
-5.77579e-08
-1.14229e-08
-1.80677e-08
7.76431e-08
3.01463e-08
-1.7728e-05
-7.06419e-06
6.28221e-08
3.62e-08
1.60465e-08
1.58954e-06
1.21468e-07
-6.73804e-07
3.78994e-07
4.56809e-08
2.96065e-06
1.32528e-07
-3.59015e-05
-1.50113e-07
2.49233e-07
8.62e-08
8.27304e-08
-9.17801e-08
-3.54785e-08
4.35589e-08
4.57191e-05
-3.23151e-08
3.34474e-08
1.07106e-08
8.67235e-06
-2.15453e-09
5.6512e-06
-7.02251e-10
9.1777e-08
-1.06394e-07
2.4488e-08
3.49464e-08
-1.78945e-08
-8.28248e-07
2.83168e-09
-4.30279e-08
-7.38442e-08
7.255e-08
2.69947e-08
-1.59536e-08
7.32815e-05
3.71826e-09
-2.18254e-08
1.24999e-07
-2.37522e-07
7.16134e-08
1.81647e-08
-2.2237e-06
-6.00663e-09
4.65862e-08
-5.60239e-09
1.37798e-07
-1.08955e-08
3.58671e-08
2.22762e-07
5.12036e-05
8.42161e-08
1.00798e-07
-2.84873e-07
-2.93427e-07
4.72532e-09
4.89106e-08
-7.77314e-09
-2.25491e-05
-2.1069e-07
7.29685e-08
4.98013e-08
-3.14114e-08
4.10279e-08
2.8487e-08
5.98682e-08
-4.97134e-06
-4.76806e-08
1.96774e-08
4.3603e-08
2.55806e-08
3.33313e-08
3.46022e-08
-3.98016e-08
-2.1586e-08
5.67995e-05
9.4769e-08
-2.35816e-08
-5.75171e-07
1.69968e-08
7.67983e-08
3.15906e-08
4.23793e-08
-3.01663e-07
2.89847e-08
4.60792e-08
9.86906e-08
6.28903e-08
9.26109e-08
5.11452e-08
2.13457e-05
-3.88029e-08
4.21757e-08
-2.65609e-08
1.8628e-07
4.25543e-08
-2.20665e-05
-3.06326e-08
7.21127e-08
-2.21161e-06
-9.18281e-08
2.81277e-08
2.61263e-07
-5.34554e-08
1.7167e-08
3.11906e-07
-3.27842e-08
-2.22497e-05
-1.69635e-08
2.56039e-08
1.98838e-08
9.19506e-06
-6.71134e-08
-7.19514e-08
1.51113e-06
-6.03679e-09
2.00614e-06
-3.18181e-08
6.41173e-09
1.67411e-05
-3.37514e-05
7.09836e-05
4.31261e-08
-1.24158e-08
1.10004e-08
-9.08247e-06
2.90307e-08
0.00017869
-4.82694e-08
-4.81225e-08
-1.59876e-05
6.45241e-08
1.58623e-07
3.57162e-08
-7.4746e-08
4.31813e-08
-6.42112e-08
-2.10986e-08
2.43481e-06
2.12241e-07
2.4568e-08
1.04268e-05
-3.5825e-10
-3.59493e-08
-5.01945e-08
-5.58379e-09
8.65851e-08
-1.72586e-05
1.26709e-07
-3.35092e-06
4.88159e-09
-2.10243e-07
-2.37848e-05
-8.68925e-09
-7.71645e-05
1.23417e-08
8.19287e-08
1.26468e-08
1.36561e-09
-1.46961e-07
-2.8415e-09
1.00619e-07
-2.19109e-08
-2.26683e-07
7.88484e-08
9.30641e-06
-1.75764e-07
2.00378e-08
-1.13268e-10
4.16618e-08
2.0304e-07
0.000131853
-2.36929e-08
-1.02449e-08
-4.14655e-08
4.47811e-08
-1.81417e-08
2.42301e-08
-2.90372e-05
1.03722e-08
-4.73411e-09
3.73619e-10
-3.7921e-08
1.93697e-05
0.000125314
3.84108e-08
7.67863e-05
9.7726e-05
2.75443e-08
-6.51221e-05
-2.46062e-08
1.01092e-08
4.04103e-06
3.25908e-08
-5.82141e-05
-1.80952e-08
6.07872e-07
4.22786e-08
-2.13082e-08
-4.37251e-05
1.50498e-05
-4.98426e-09
2.84993e-08
5.44751e-09
1.21547e-06
-5.50997e-09
-3.33585e-05
4.24338e-08
-1.87351e-05
-2.59592e-05
-1.3337e-08
1.41646e-06
-1.76649e-07
0.000214908
-2.35888e-08
-2.87881e-08
3.62263e-08
-1.72272e-09
6.3378e-08
0.000109956
2.69845e-08
3.70798e-09
-1.43094e-08
5.49922e-08
-1.10317e-10
3.41648e-08
9.60952e-07
4.4632e-08
2.96857e-08
-9.98844e-09
-2.58453e-09
5.81025e-05
1.70145e-07
7.05645e-05
3.4606e-06
-7.0233e-08
-1.31177e-08
1.39472e-08
-1.82257e-08
-1.67109e-05
1.07889e-08
8.65031e-08
-4.05061e-09
1.97537e-08
-2.56104e-08
7.10932e-07
-5.7783e-10
4.3437e-08
-6.08728e-08
3.68873e-08
1.46612e-07
2.23548e-09
-3.02561e-08
4.4728e-08
-6.16591e-08
3.26003e-07
-4.02779e-08
-6.07803e-05
-4.89497e-09
9.12831e-05
9.50177e-08
1.7234e-06
2.97645e-08
3.3517e-09
-1.57709e-07
-2.64218e-08
-3.5935e-06
1.15861e-05
4.39652e-08
9.7936e-09
4.85404e-07
-5.82772e-08
-1.55725e-08
1.96841e-08
9.72648e-07
1.37828e-07
-2.50863e-08
-1.18181e-08
-7.01773e-08
-3.285e-08
9.88678e-10
-1.77384e-08
6.8304e-08
-3.37989e-09
-9.89676e-08
0.000281167
-9.02574e-08
-5.02385e-08
-5.19198e-09
2.97495e-09
-4.03698e-08
-1.28587e-07
3.8709e-08
-3.37616e-08
-3.39007e-08
-1.56246e-08
9.54344e-08
2.71122e-09
-2.03124e-08
-1.93172e-08
-1.9063e-05
3.3704e-08
4.46232e-05
8.57944e-08
5.40684e-08
1.49201e-05
1.29846e-08
-2.25603e-08
3.83171e-08
-8.62803e-09
-1.88339e-08
4.3342e-08
1.11433e-07
2.18671e-08
3.87947e-09
-1.41752e-08
8.96657e-05
2.67853e-08
-5.41779e-05
-6.29502e-05
1.57927e-08
1.82551e-08
5.91437e-05
-6.54239e-08
6.36992e-09
-8.09266e-09
2.38781e-08
2.46603e-08
-6.92521e-08
-7.59781e-08
-1.28856e-06
-9.78127e-09
2.0145e-08
2.72833e-09
5.51712e-08
-1.72924e-08
-3.73731e-07
-1.487e-08
-2.74937e-09
-9.99515e-09
5.82868e-08
-9.79608e-09
-6.21013e-09
1.31625e-07
-1.615e-08
-2.81449e-08
-1.57322e-07
7.39637e-08
-1.15845e-07
1.04255e-08
-6.24602e-08
2.4712e-08
5.16051e-05
-1.56668e-08
5.63718e-05
1.00444e-07
1.33583e-09
-6.96564e-08
-3.37078e-09
-1.58645e-08
1.23385e-07
4.7823e-08
-0.000126439
1.8707e-09
2.68477e-06
3.13019e-08
3.46432e-06
-9.56715e-06
8.6819e-05
4.53657e-08
7.06467e-08
3.6797e-08
1.97573e-08
-2.74027e-07
7.22377e-05
1.76637e-05
-4.66196e-08
3.56155e-07
2.12621e-08
5.78131e-05
5.99116e-08
-1.82101e-07
1.21154e-07
6.61963e-11
-2.46717e-07
1.04556e-08
-2.66061e-08
-7.51725e-08
1.14532e-07
-2.70549e-08
6.80608e-08
8.6214e-08
0.000115441
5.04464e-05
2.45252e-08
3.64618e-08
-1.72752e-08
2.59801e-08
-1.48203e-07
-4.89679e-08
5.38028e-08
2.2654e-08
-1.71894e-07
-1.2392e-07
-8.48082e-10
-2.33719e-08
1.05625e-07
1.94502e-08
-7.16584e-09
1.89179e-09
1.16958e-08
7.17088e-05
1.87026e-07
-1.47158e-08
-3.0716e-08
1.28865e-08
1.25125e-05
7.28671e-08
-9.60131e-10
2.15906e-07
-2.25528e-08
5.91016e-09
7.29246e-05
-3.12248e-08
-4.55724e-08
1.30326e-06
1.90809e-07
-1.20675e-07
-8.00127e-09
2.38749e-09
3.01617e-09
-3.15404e-08
2.36196e-08
9.77123e-05
-5.92241e-09
-2.41728e-08
6.85127e-09
-8.98508e-09
-8.79042e-08
-2.15733e-06
-5.144e-08
-3.21044e-08
-1.63945e-08
-3.48836e-08
7.67354e-08
7.91886e-08
8.12781e-08
-2.6779e-08
-2.73083e-06
2.64705e-07
0.000109964
6.45064e-08
1.49238e-08
-2.99745e-08
7.65305e-05
6.80164e-09
-1.83171e-08
2.38571e-08
-1.05075e-07
5.34468e-07
1.11359e-08
9.55989e-05
1.07967e-08
-6.08312e-08
-8.69011e-08
3.26837e-08
9.46853e-05
3.00454e-08
-7.49521e-10
-9.56374e-08
4.81567e-08
1.53114e-08
-4.87207e-08
3.62959e-08
-6.85994e-08
1.83113e-08
-4.90896e-08
7.30754e-08
-2.72984e-08
-7.49212e-08
3.73018e-08
-4.72738e-05
-2.3437e-05
7.21282e-07
8.73766e-07
8.1141e-08
1.94906e-08
-8.48734e-08
3.52634e-07
-1.64155e-05
-4.12968e-09
3.04763e-05
2.41009e-08
3.30854e-08
1.86444e-06
0.000312706
5.53139e-08
1.89902e-08
2.90338e-08
-1.04098e-05
-7.7177e-10
1.95442e-08
5.29208e-07
4.38401e-05
-2.41592e-06
7.28434e-06
3.0711e-08
-7.49652e-08
2.59618e-08
-1.16724e-08
-1.68734e-07
-1.94687e-08
-7.42205e-09
4.0899e-08
-6.1184e-07
-1.03272e-07
0.000106842
1.77082e-08
7.76944e-08
-2.35721e-05
3.49912e-05
-2.78565e-08
1.69374e-07
3.79758e-06
9.5892e-07
-5.77888e-08
-3.28131e-06
-4.37696e-05
5.83927e-08
-3.65301e-08
4.43487e-08
-3.59296e-08
6.48462e-10
-4.90899e-08
1.14242e-07
5.87721e-05
-4.92303e-08
-2.29225e-07
-7.98308e-09
1.4094e-07
-3.6043e-05
2.79945e-08
4.19354e-05
-2.79526e-10
-2.949e-08
2.1795e-05
-3.24993e-05
1.65679e-06
-2.14949e-08
3.5749e-08
3.58252e-08
-3.57029e-08
1.20321e-08
-7.44747e-08
-9.7023e-08
-3.64082e-05
-1.33502e-08
5.71445e-05
0.000155966
-2.45175e-08
2.62201e-08
1.68895e-07
-4.50788e-08
7.11294e-05
1.29495e-06
4.97212e-08
7.42903e-08
-1.53477e-07
5.38063e-07
-9.68907e-08
-2.11403e-08
-4.34468e-08
2.88944e-08
9.52118e-09
-1.45211e-07
2.13821e-05
-5.82388e-08
3.46602e-08
-4.87063e-05
6.25671e-08
2.04977e-08
5.63748e-09
-3.22296e-05
-2.67235e-05
-4.48136e-05
6.42787e-08
6.38257e-08
1.27221e-07
2.96724e-07
2.24012e-09
5.79646e-06
3.16714e-08
1.25092e-08
-3.96527e-08
-8.87752e-08
1.00683e-07
-8.8422e-08
-9.47361e-08
-1.46785e-08
-2.9554e-05
-7.00958e-08
1.4952e-08
-2.60216e-08
9.64695e-08
1.33744e-08
3.58859e-08
-5.31114e-05
4.55243e-09
3.83945e-08
-1.92167e-07
-6.96859e-10
-1.2416e-08
1.08175e-08
-2.04977e-07
-5.31456e-08
0.000107864
-2.17981e-05
-2.98488e-09
7.81905e-08
1.74817e-09
3.90926e-08
-2.20924e-08
-2.43049e-08
4.00142e-08
6.72558e-08
-5.84692e-05
1.15994e-07
3.24286e-08
3.06792e-08
-1.19936e-08
-2.88251e-05
9.5081e-08
-1.59943e-07
3.95806e-09
6.02649e-06
8.31118e-07
1.89946e-08
5.9666e-08
9.0207e-08
0.000104655
2.39399e-08
9.23165e-08
-1.96147e-07
2.10003e-06
-1.57774e-05
1.46246e-05
-8.18993e-08
1.69009e-08
9.84848e-05
1.38166e-08
-1.47284e-08
-4.06755e-05
-2.07525e-07
7.96912e-06
-1.13478e-07
-4.52623e-08
3.874e-06
5.06348e-08
-4.9126e-08
1.05229e-07
0.00013115
4.02533e-08
1.90419e-07
-5.55913e-08
-3.13156e-08
4.03789e-05
-7.37507e-08
6.04043e-08
-3.0252e-09
9.73476e-09
-3.33066e-07
1.69668e-05
8.19087e-06
8.72417e-08
4.19966e-08
-1.53955e-08
8.48507e-10
-3.10984e-08
-2.99643e-08
8.23455e-07
3.64356e-05
-7.65369e-09
-5.636e-06
-2.44174e-08
3.65763e-06
-2.25238e-05
1.82778e-10
3.98615e-09
-5.67201e-08
-1.17477e-09
-5.44128e-08
-1.42589e-08
7.97279e-08
-1.97808e-05
-1.70482e-08
-8.00352e-08
7.77085e-05
-5.68955e-08
9.10735e-05
2.61145e-05
8.09795e-05
8.30295e-08
-1.06452e-07
7.97281e-09
-2.02166e-08
5.24331e-08
-8.28443e-08
6.29321e-08
-3.21858e-08
-2.67784e-08
-4.76188e-08
-3.53349e-06
5.97186e-09
2.05152e-07
-7.55045e-08
5.29057e-10
-1.37968e-06
-1.55674e-08
4.17644e-05
-1.53455e-08
-1.17848e-08
1.12473e-09
4.11612e-08
-1.9874e-10
1.71326e-08
-7.10825e-09
6.72215e-05
3.45008e-07
-2.63611e-08
4.98782e-08
-2.90699e-08
3.10821e-05
-1.04749e-07
4.83141e-05
-1.01747e-07
1.08404e-06
-6.72608e-08
4.08827e-08
9.37108e-06
4.10576e-08
5.71679e-08
4.7344e-09
-1.88337e-08
1.76949e-05
-1.37376e-07
-1.99912e-08
-5.23656e-06
-4.97041e-08