/*--------------------------------*- C++ -*----------------------------------*\
| =========                 |                                                 |
| \\      /  F ield         | OpenFOAM: The Open Source CFD Toolbox           |
|  \\    /   O peration     | Version:  v2012                                 |
|   \\  /    A nd           | Website:  www.openfoam.com                      |
|    \\/     M anipulation  |                                                 |
\*---------------------------------------------------------------------------*/
FoamFile
{
    version     2.0;
    format      ascii;
    class       volScalarField;
    location    "100";
    object      epsilon_0;
}
// * * * * * * * * * * * * * * * * * * * * * * * * * * * * * * * * * * * * * //

dimensions      [0 2 -3 0 0 0 0];


internalField   nonuniform List<scalar> 
13308
(
2.47801e-06
1.86342e-06
7.13409e-05
1.9092e-06
2.33011e-06
1.78853e-06
2.17835e-06
5.43379e-06
2.06777e-06
2.50429e-06
2.16445e-06
0.00784523
3.92541e-05
2.16981e-06
2.10344e-06
2.31965e-06
1.67329e-06
1.84257e-06
2.32633e-06
1.77653e-06
2.53298e-06
1.76398e-06
1.74706e-06
0.00118895
3.1005e-05
1.75901e-06
0.00736874
1.77758e-06
0.0145246
1.79747e-06
0.00397213
0.00232829
0.000319505
0.00563782
2.3787e-06
1.91518e-06
1.73549e-06
2.03123e-06
1.93452e-06
1.93739e-06
2.03605e-06
1.82256e-06
8.55267e-06
2.01148e-06
0.00240112
0.0189298
1.8447e-06
3.2459e-06
1.86738e-06
4.11139e-06
0.0048544
1.85217e-06
1.81207e-06
0.0149032
1.79184e-06
1.823e-06
1.76544e-06
2.8464e-06
2.49191e-06
2.51341e-06
1.67805e-06
2.85565e-06
1.84277e-06
1.94555e-06
1.74901e-06
1.66978e-06
1.84995e-06
0.00512662
0.00572798
1.85053e-06
3.79769e-06
1.83817e-06
1.67479e-06
1.69799e-06
1.80833e-06
3.44764e-06
0.00538119
2.38384e-06
0.000356207
1.82951e-06
1.6802e-06
2.35342e-06
1.69381e-06
2.84364e-06
0.00238789
2.48058e-06
2.59416e-06
2.37484e-06
2.39676e-06
2.56105e-06
2.53443e-06
0.00396923
2.46167e-06
3.15105e-06
2.199e-06
2.29619e-06
1.69016e-06
4.22237e-06
2.01955e-06
2.01373e-06
2.04294e-06
3.20558e-06
1.82215e-06
1.99487e-06
1.67743e-06
2.96689e-06
5.36375e-06
2.51525e-06
1.78099e-06
6.43155e-05
2.93864e-06
0.00233247
2.52816e-06
0.00156721
2.04533e-06
0.000341713
2.3864e-06
2.19064e-06
1.83965e-06
2.94941e-06
2.19549e-06
3.20551e-06
3.27884e-06
2.49202e-06
6.07236e-06
2.2966e-06
0.00227666
2.89415e-06
4.06125e-06
0.0001652
6.9867e-06
1.82738e-06
1.92932e-06
2.04417e-06
3.24725e-06
1.88647e-06
2.05983e-06
1.82476e-06
6.18565e-05
2.00165e-06
0.000164611
0.00564671
0.00509614
2.18395e-06
0.00700911
9.20413e-06
1.86302e-06
2.14579e-06
2.9939e-06
0.00560669
0.00127436
2.07892e-06
1.7819e-06
2.04608e-06
1.8363e-06
1.88195e-06
3.06666e-06
2.035e-06
5.79235e-06
0.00508203
2.71402e-06
0.00209425
2.20062e-06
2.08334e-06
1.77176e-06
7.35716e-06
2.08504e-06
6.78421e-05
1.9813e-05
2.63306e-06
5.09835e-06
1.84024e-06
0.00311504
4.17345e-05
1.97005e-06
4.03601e-06
1.69903e-06
5.31977e-06
1.933e-06
2.06036e-06
2.59506e-06
1.83634e-06
1.77123e-06
0.0033474
2.18281e-06
2.04359e-06
3.27582e-06
1.66782e-06
1.69828e-06
2.19307e-06
1.82046e-06
1.81905e-06
8.38659e-06
0.00117825
3.8036e-06
6.03464e-06
2.43261e-06
3.02447e-06
1.67018e-06
4.77625e-06
0.000221963
2.05997e-06
2.18787e-06
1.83729e-06
2.40687e-06
4.54391e-06
2.16831e-06
1.89014e-06
3.02653e-06
1.80446e-06
2.01181e-06
0.00132354
3.85362e-06
9.29551e-05
2.16829e-06
2.3746e-06
1.65936e-06
1.76576e-05
1.78973e-06
1.78638e-06
2.10911e-06
3.50627e-06
2.19592e-06
2.54034e-06
2.09915e-06
1.73811e-05
2.0875e-06
4.1169e-06
0.00664732
2.29388e-06
1.8347e-06
3.45303e-06
2.17219e-06
1.70409e-06
2.22192e-06
2.03966e-06
1.68971e-06
1.68293e-06
1.81376e-06
2.43338e-06
1.97161e-06
2.41995e-06
3.25298e-06
6.58174e-06
2.54446e-06
2.2837e-06
0.000242829
1.91864e-06
3.2494e-06
1.95993e-06
2.4562e-06
2.10421e-06
8.08878e-06
3.64804e-06
3.96657e-06
2.31485e-06
1.83169e-06
2.46179e-06
2.23959e-06
2.18909e-06
2.15971e-06
1.66085e-06
1.77061e-06
1.66439e-06
0.00627628
1.94558e-06
8.29023e-05
2.64427e-06
0.00156252
2.53614e-06
1.78956e-06
2.14654e-06
2.42527e-06
2.00054e-06
6.00408e-06
2.1134e-05
1.69009e-06
2.38568e-06
4.27227e-06
1.76047e-06
2.47385e-06
2.23662e-06
4.11537e-06
2.54843e-06
2.48613e-06
3.54424e-06
3.44088e-06
3.59327e-06
1.70323e-06
1.78684e-06
0.000209537
0.00580338
0.000119821
0.0051849
2.29939e-06
1.72527e-06
1.91287e-06
2.80834e-06
0.0146881
2.36822e-06
0.00505113
1.80574e-06
2.13743e-06
2.22548e-06
2.75414e-06
2.90882e-06
2.07333e-06
2.55687e-06
2.49565e-06
2.07728e-06
1.88865e-06
2.07682e-06
0.0046978
2.22504e-06
6.60704e-06
0.00857911
9.39005e-06
1.78646e-06
6.77972e-06
1.99556e-06
2.41814e-06
2.82836e-06
1.79947e-06
1.70519e-06
1.89708e-06
2.7595e-06
1.83898e-06
2.8488e-06
1.85709e-06
2.29278e-06
3.84052e-06
7.52228e-06
2.33989e-06
2.28711e-06
2.06836e-06
0.00529572
6.0175e-06
2.11699e-06
1.78652e-06
1.80943e-06
0.000247716
3.57413e-06
2.22224e-06
2.42353e-06
1.85684e-06
3.41615e-06
1.96933e-06
2.05685e-06
2.20156e-06
0.00918069
1.82297e-06
2.05026e-06
2.37621e-06
1.88915e-06
3.75505e-06
2.09704e-06
2.1812e-06
0.000193184
1.45244e-05
3.0476e-06
2.55813e-06
1.78768e-06
0.00766939
2.28989e-06
9.70033e-06
1.84956e-06
2.56459e-06
1.29877e-05
4.06337e-06
1.98652e-06
4.25835e-06
0.00692315
3.69885e-06
1.38593e-05
2.12557e-06
2.19174e-06
7.02856e-06
2.01786e-06
7.22559e-06
1.89271e-06
3.07912e-06
2.94511e-06
2.86892e-06
5.01859e-06
2.97936e-06
2.55502e-06
1.76015e-06
2.13838e-06
1.78881e-06
0.00121278
0.00506973
1.8813e-06
2.00779e-06
0.0103081
1.87899e-06
3.65743e-06
2.86573e-06
2.42799e-06
9.43288e-06
0.00656649
2.46971e-06
2.42368e-06
2.54871e-06
2.6911e-06
1.88775e-06
1.79476e-06
2.57601e-06
3.03729e-06
0.000606176
2.1212e-06
7.82399e-06
0.00477242
1.1172e-05
2.12116e-06
0.00113305
1.82931e-06
2.43465e-06
2.86843e-06
2.62321e-06
1.84773e-06
1.76106e-06
3.3011e-06
2.4494e-06
1.87335e-06
0.00585224
2.07235e-06
2.40402e-06
0.00130378
0.000450302
0.000375086
2.23324e-06
0.00135092
0.00547541
2.38135e-06
2.24746e-06
2.4236e-06
1.71651e-06
1.81534e-06
1.81051e-06
2.13827e-06
2.69481e-06
2.63049e-06
2.66709e-06
2.43009e-06
1.80473e-06
0.00595247
4.51517e-06
3.02186e-06
2.33073e-06
7.21478e-06
4.13632e-06
2.12475e-06
2.14087e-06
1.80207e-06
2.45284e-06
0.00902475
1.92713e-06
1.85037e-06
7.21136e-06
4.23702e-06
1.86104e-06
2.1363e-06
1.75466e-06
3.71399e-06
1.82433e-06
1.87571e-06
1.95048e-06
0.0077075
1.8068e-06
1.97247e-06
2.45974e-06
1.95254e-06
2.42552e-06
6.17765e-06
2.70328e-06
3.82813e-06
2.08913e-06
3.86417e-06
2.1933e-06
4.26878e-06
2.68252e-06
3.05427e-06
2.34133e-06
2.87984e-06
1.92249e-06
0.00246189
2.03675e-06
0.0019719
1.78453e-06
2.29386e-06
1.83181e-06
0.00350312
1.85212e-06
2.44539e-06
1.82334e-06
2.44478e-06
3.80511e-06
2.81905e-06
2.5711e-06
2.06307e-06
2.12417e-06
0.00678547
2.29679e-06
0.00249496
2.04293e-06
0.0062198
2.88961e-06
4.88539e-06
1.86431e-06
0.00215061
2.03316e-06
0.00324229
0.00169426
2.00025e-06
1.92834e-06
0.000114123
0.000462933
3.40213e-06
2.53361e-06
1.95809e-06
2.49994e-06
0.00771315
1.84844e-06
1.01652e-05
2.17145e-05
0.00683593
3.88396e-06
2.54691e-06
0.00419631
2.45057e-06
2.88989e-06
3.5989e-06
0.00131393
2.17819e-06
2.01243e-06
1.91353e-06
2.16643e-06
2.13649e-06
1.58283e-05
3.64998e-06
4.68566e-06
0.00510039
0.00978961
1.91051e-06
2.89423e-06
2.34614e-06
3.83383e-06
0.00945294
6.27335e-05
4.04387e-06
2.77185e-06
3.41674e-06
6.50439e-06
2.9101e-06
2.52259e-06
1.68602e-06
2.41998e-06
1.83826e-06
5.66549e-06
1.66518e-06
2.43157e-06
3.13993e-06
2.4667e-06
2.17845e-06
3.31472e-06
2.36101e-06
4.67261e-06
2.43176e-06
4.09493e-06
3.08581e-06
0.00190023
2.59849e-06
2.40061e-06
0.0165723
2.76257e-06
0.00891427
1.88335e-06
4.0911e-06
2.82707e-06
1.92431e-06
2.01278e-06
2.09025e-06
2.13422e-06
1.84376e-06
2.46366e-06
2.89862e-06
1.82245e-06
3.15046e-06
3.08022e-06
6.00431e-06
1.88128e-06
1.81549e-06
2.13728e-06
3.735e-06
1.89433e-06
2.27201e-06
1.88515e-06
2.40273e-06
1.82322e-06
0.00500385
0.00123629
2.99851e-06
2.71482e-06
1.94166e-06
2.16047e-06
1.89641e-06
0.00234141
3.11131e-06
3.6989e-06
1.82787e-06
2.72921e-06
1.66714e-06
3.36887e-06
0.00149924
2.10396e-06
0.000259605
1.89922e-06
2.03917e-06
0.00633053
1.1408e-05
0.00036798
1.8971e-06
2.44426e-06
0.00154746
0.000273171
3.09895e-06
0.00701035
4.30661e-06
3.84935e-06
2.34228e-06
0.00411537
1.87492e-06
2.62386e-06
2.08624e-06
3.12513e-06
2.77063e-06
2.61563e-06
2.05258e-06
2.37585e-06
0.000820447
0.00956807
0.00480307
8.27041e-06
2.80503e-06
2.41681e-06
2.37954e-06
2.41148e-06
2.94495e-06
2.83568e-06
2.18665e-06
4.72338e-06
1.80591e-06
0.00172718
1.7044e-06
0.00235372
2.34454e-06
1.70678e-06
1.68593e-06
2.24915e-06
2.0685e-06
2.396e-06
1.85956e-06
1.90979e-06
0.0030563
2.44411e-06
3.16345e-06
4.19326e-06
3.0968e-06
3.27413e-06
2.04894e-06
0.00140305
3.00838e-06
2.10763e-06
2.29689e-06
2.32166e-06
1.89773e-06
2.32598e-06
2.40866e-06
1.74741e-06
0.00425839
0.00718181
2.29929e-06
0.00383096
3.4981e-06
1.72155e-06
0.0058817
3.58756e-06
2.78737e-06
1.7981e-06
2.22145e-06
1.66673e-06
1.9067e-06
0.00854312
4.14733e-06
2.01868e-06
2.00965e-06
0.00020878
1.68905e-06
2.97236e-06
2.20617e-06
2.12898e-06
1.94928e-06
0.00529589
2.06713e-06
2.09229e-06
0.00632252
1.36597e-05
2.45983e-06
2.1179e-06
0.000313744
1.94299e-06
0.00776827
2.29269e-06
2.62478e-06
2.11024e-06
2.02482e-06
2.98999e-06
2.90195e-06
1.89261e-06
1.12848e-05
3.52336e-06
2.03585e-06
0.00522417
2.11232e-06
2.0389e-06
2.26126e-06
0.00192901
2.98654e-06
4.662e-06
2.39042e-06
3.48798e-06
0.00761062
4.09539e-06
3.95151e-06
2.64822e-06
0.00607274
3.01707e-06
0.00124594
2.23438e-06
3.69742e-06
5.17666e-06
2.26417e-06
2.26433e-06
2.08973e-06
3.49508e-06
2.39378e-06
1.9364e-06
2.00974e-06
3.62086e-06
1.93955e-06
1.07852e-05
2.90362e-06
0.00133933
2.60365e-06
3.91419e-06
0.000536507
3.8636e-06
0.000250208
1.8916e-06
3.62521e-06
1.94113e-06
3.98971e-06
2.22572e-06
2.132e-06
2.26855e-06
3.27396e-06
2.13945e-06
2.31164e-06
0.00634333
1.80268e-06
1.34016e-05
3.67799e-06
2.2534e-06
3.11582e-06
0.00588379
2.04325e-06
0.00108645
0.00380456
4.26975e-06
0.00343578
1.8474e-06
1.91618e-06
2.58508e-06
1.71835e-06
2.60513e-06
1.80395e-06
0.00909203
0.00631354
0.00354932
1.79333e-06
2.92403e-06
2.4399e-06
2.46105e-06
2.32164e-06
1.51475e-05
2.25228e-06
2.19236e-06
2.20709e-06
0.00491094
3.92052e-06
2.83612e-06
3.61372e-06
2.12479e-06
2.8707e-06
3.24639e-06
5.72949e-06
2.71792e-06
1.96654e-06
2.62577e-06
0.000597091
1.90131e-06
0.00154518
1.81261e-06
1.97689e-05
2.41911e-06
2.27759e-06
2.02328e-06
1.89127e-06
2.64002e-06
1.89884e-06
2.13705e-06
5.34106e-06
4.50181e-06
0.00567687
2.53768e-06
2.26046e-06
2.29405e-06
2.39977e-06
1.84417e-06
2.42083e-06
3.24824e-06
0.00767684
2.27833e-06
2.38225e-06
2.32026e-06
2.0235e-06
2.29322e-06
1.94339e-06
2.59686e-06
2.54213e-06
2.31234e-06
2.32143e-06
0.00952059
1.90226e-06
2.41069e-06
1.89895e-06
2.52801e-06
2.11876e-06
1.69024e-06
2.67809e-06
2.10909e-06
0.00463309
0.000322619
2.35607e-06
2.60905e-06
2.44974e-06
3.71092e-06
1.84788e-06
1.86474e-06
1.7515e-06
2.95155e-06
2.45041e-06
3.66854e-06
1.8306e-06
7.43695e-06
2.22046e-06
2.22619e-06
0.00137584
2.21617e-06
2.36452e-06
3.32978e-06
2.3605e-06
0.00616627
2.04791e-06
4.10494e-06
2.11876e-06
2.85652e-06
4.82728e-06
1.89963e-06
2.14163e-06
0.00118304
2.44417e-06
2.59942e-06
1.984e-06
1.85966e-06
2.77038e-06
0.000169726
1.81678e-06
0.00768101
0.000401309
2.4298e-06
5.0726e-06
1.99036e-06
0.00335839
1.7124e-06
0.000201313
0.00465144
2.86091e-06
1.8907e-06
1.86116e-06
2.02552e-06
2.19638e-06
0.00375009
1.69842e-06
4.22006e-06
2.65984e-06
2.01977e-06
4.43944e-06
0.00134222
3.54658e-06
0.00995098
2.01817e-06
2.06915e-06
0.00614214
1.74643e-06
2.79651e-06
1.01079e-05
2.13751e-06
1.84675e-06
3.19361e-06
0.0060989
2.79455e-06
0.00369916
0.00659275
2.14055e-06
4.14442e-06
7.83661e-06
2.42223e-06
2.39414e-06
2.15279e-06
2.09519e-06
4.71015e-06
2.96073e-06
3.42031e-05
2.77748e-06
2.38802e-06
2.98562e-06
0.00873259
2.0283e-06
4.61503e-06
0.000351674
2.30099e-06
0.0175434
2.60343e-06
0.00315206
2.67693e-06
0.00871945
3.3349e-06
2.33642e-06
2.07798e-06
0.000288181
2.73143e-06
2.90322e-06
3.34365e-06
2.05616e-06
0.00147759
1.8131e-06
1.86585e-06
2.10321e-06
2.75525e-06
2.10838e-06
1.8296e-06
2.64524e-06
3.00398e-06
2.55014e-06
2.10223e-06
4.23119e-06
2.28959e-06
2.34936e-06
2.98468e-06
3.73778e-06
2.25911e-06
2.41525e-06
1.86411e-06
2.99609e-06
0.00463286
2.22421e-06
2.12364e-06
2.14826e-06
0.0146837
1.90182e-06
0.00686311
1.68421e-06
2.35694e-06
5.53136e-06
1.75145e-06
0.0026486
1.66957e-06
1.83754e-06
8.97516e-05
2.36699e-06
5.13475e-06
8.00663e-06
0.0134448
3.1952e-06
1.99845e-06
2.40038e-06
2.45964e-06
2.79293e-06
2.12189e-06
2.28221e-06
2.34806e-06
2.27846e-06
2.04007e-06
2.83385e-06
8.27136e-06
0.000174981
0.00555049
2.08512e-06
0.00448827
2.0237e-06
2.35417e-06
3.57447e-06
3.0101e-06
4.27336e-06
0.0107369
4.13894e-06
2.15168e-06
0.0154974
2.89331e-06
1.7464e-06
0.00028932
2.21883e-06
2.47304e-06
2.12819e-06
2.07502e-06
1.80709e-06
0.00345516
4.10502e-06
3.86116e-06
9.84163e-05
3.25827e-05
0.00261052
1.9929e-06
2.59705e-05
3.37145e-06
0.00128979
2.15835e-06
1.78684e-06
2.22996e-06
4.89439e-06
2.33219e-06
1.749e-06
2.37086e-06
2.3167e-06
2.14534e-06
2.61945e-06
6.00324e-06
1.74421e-06
4.23075e-06
4.22229e-06
2.20409e-06
1.75289e-06
2.04673e-06
2.04938e-06
1.69166e-06
2.31758e-06
2.33762e-06
3.41557e-06
2.15988e-06
0.000107658
1.97773e-06
0.00510735
2.17282e-06
2.21512e-06
4.11522e-06
3.13499e-06
0.00929129
2.6577e-06
1.78026e-06
2.36482e-06
1.91434e-06
5.36562e-06
2.59781e-06
2.03914e-06
2.36427e-06
2.93863e-06
2.40734e-06
1.79383e-06
2.24573e-06
0.00353945
2.32841e-06
2.34982e-06
2.48429e-06
2.09454e-06
1.87337e-06
2.6498e-06
2.48159e-06
2.27983e-06
1.7426e-06
2.71374e-05
2.43205e-06
2.16712e-06
2.51774e-06
4.01023e-06
2.93118e-06
1.98821e-06
6.92316e-06
1.64659e-06
2.63241e-06
1.98958e-06
2.39319e-06
2.35426e-06
2.30549e-06
2.25493e-06
2.16592e-06
0.0028739
8.09079e-05
1.74301e-06
2.29741e-06
2.68225e-06
1.79925e-06
0.000254946
2.48366e-06
1.71786e-06
1.774e-06
2.08162e-06
3.94181e-06
1.99637e-06
2.17533e-06
4.20548e-06
3.58823e-06
0.00424696
2.85716e-06
1.80158e-06
2.36751e-06
0.00343586
2.20989e-06
2.35673e-06
2.18006e-06
2.47913e-06
2.22613e-06
2.10097e-06
5.75733e-06
2.76439e-06
1.74928e-06
1.81755e-06
1.96171e-06
4.09771e-06
1.75013e-06
1.79817e-06
0.00784347
2.47521e-06
2.03909e-06
1.72538e-06
0.00718285
1.74289e-06
3.05147e-06
2.58245e-06
2.35184e-06
2.00356e-06
2.81466e-06
2.15879e-06
5.13194e-06
2.06701e-06
2.18763e-06
2.84948e-06
2.07101e-06
0.00180788
2.15117e-06
0.00586745
6.03484e-06
2.21585e-06
0.0045564
4.1374e-06
2.28618e-06
2.26564e-06
1.99461e-06
1.8413e-06
2.30512e-06
4.35477e-06
3.53899e-06
2.43203e-06
1.88903e-06
1.95132e-06
0.00245683
3.8316e-06
1.86938e-06
2.5214e-06
2.26659e-06
2.07851e-06
0.00837819
1.84631e-06
2.64171e-06
1.73156e-06
2.19495e-06
2.29535e-06
1.73563e-06
4.10007e-06
7.05641e-05
0.00663691
2.25038e-06
2.42916e-06
2.27388e-06
2.91651e-06
2.64281e-06
3.03516e-06
1.76737e-06
0.00502031
1.80661e-06
5.57417e-06
0.000247043
1.64311e-06
2.4123e-06
2.09541e-06
2.68286e-06
0.00447199
4.44379e-05
2.07454e-06
2.34322e-06
2.03001e-06
0.00575104
3.58309e-06
2.1655e-06
1.75479e-06
0.000295835
2.30933e-06
2.38055e-06
3.42277e-06
2.34832e-06
0.00305242
2.14574e-06
2.29548e-06
2.74893e-06
6.6138e-06
4.40536e-06
2.66979e-06
0.00169236
2.15039e-06
2.65015e-06
4.14775e-06
2.50276e-06
2.12304e-06
2.5273e-06
2.11071e-06
2.2518e-06
2.21183e-06
2.24919e-06
4.12149e-06
1.99349e-06
0.00169595
2.86775e-06
2.8508e-06
0.0059854
1.85474e-06
2.4258e-06
3.83207e-06
7.08738e-06
2.01045e-06
1.69799e-06
0.00787854
2.03727e-06
2.40354e-06
1.73476e-06
2.19244e-06
2.18377e-06
2.25075e-06
0.00374397
4.15772e-06
3.76591e-06
2.5365e-06
2.36108e-06
2.0724e-06
0.000966637
3.91034e-06
2.08346e-06
3.15987e-06
1.75161e-06
3.41035e-06
3.02451e-06
0.00489869
2.00345e-06
2.51597e-06
2.22726e-06
2.33164e-06
4.16742e-06
2.16131e-06
1.82312e-06
4.17154e-06
1.88896e-06
3.91903e-06
8.0013e-06
3.93636e-06
3.1317e-06
0.000161011
2.50475e-06
2.01867e-06
0.00090978
1.7879e-06
2.43907e-06
3.44663e-06
0.0073806
7.46379e-06
1.81047e-06
2.56547e-06
0.00165059
5.53381e-06
2.10869e-06
0.0054899
0.0020358
0.00779555
1.84339e-06
2.37643e-06
4.13321e-06
2.16141e-06
2.10694e-06
2.38212e-06
3.5247e-06
2.43737e-06
1.88518e-06
2.18198e-06
6.9741e-06
3.14024e-06
0.00687412
1.92277e-06
1.75297e-06
1.70871e-06
1.92046e-06
2.64249e-06
2.01015e-06
1.85226e-06
2.34454e-06
5.04336e-06
2.65453e-06
2.65065e-06
2.07674e-06
2.10241e-06
2.36417e-06
4.37592e-06
3.88183e-06
1.8384e-06
2.38505e-06
1.94618e-06
1.85546e-06
2.31972e-06
2.56946e-06
0.00461976
2.20544e-06
2.41631e-06
4.05214e-06
1.78238e-06
2.77248e-06
1.71008e-06
1.91704e-06
1.80101e-06
2.52871e-06
0.000384959
1.95303e-06
5.24701e-05
0.00769404
9.68052e-06
0.00184036
1.8269e-06
2.29901e-06
4.08525e-06
0.00557027
1.84396e-06
4.22025e-06
1.84733e-06
2.69024e-06
2.17381e-06
0.00939779
1.90699e-06
2.68525e-06
2.88089e-06
0.00386466
2.40429e-06
0.00024693
4.92926e-06
1.72224e-06
2.15968e-06
2.32964e-06
2.1049e-06
2.09701e-06
5.05942e-05
1.81303e-06
2.42037e-06
3.45431e-06
2.39585e-06
3.00922e-06
2.44327e-06
1.90751e-06
0.00604109
2.30552e-06
0.00282523
2.16335e-06
2.36122e-06
0.00578841
0.00240928
0.00513502
2.11761e-06
2.22649e-06
2.80609e-06
0.00758486
0.000132459
2.62008e-06
2.28121e-06
8.72184e-05
2.58594e-06
3.48865e-06
2.16878e-06
1.85004e-06
2.11458e-06
2.54479e-06
1.74317e-06
4.44353e-06
2.01591e-06
1.91725e-06
2.40832e-06
2.33563e-06
2.17771e-06
5.58288e-05
4.05827e-06
2.7292e-06
0.00540424
2.21261e-06
2.45492e-06
1.92795e-06
6.23366e-06
1.75784e-06
1.73848e-06
0.0110125
2.38761e-06
1.81863e-06
2.94508e-06
1.98123e-06
2.19756e-06
2.39782e-06
1.90508e-06
0.0112345
2.00877e-06
2.33902e-06
2.21785e-06
0.00576283
0.00709088
2.66878e-06
1.90986e-06
2.31753e-06
0.0064854
3.14962e-06
2.21608e-06
0.00368165
4.16148e-06
4.7784e-06
1.95672e-06
4.15735e-06
2.93303e-06
2.48777e-06
0.00116749
5.91378e-06
2.62169e-06
1.88682e-06
0.000158876
2.63535e-06
0.0148622
0.00978773
0.00524618
1.99227e-06
1.96796e-06
2.09794e-06
1.96701e-06
0.00203235
2.4149e-06
3.52949e-06
1.98503e-06
2.56005e-06
3.30194e-06
3.03293e-06
0.00914811
1.75629e-06
2.20179e-06
2.16772e-06
2.60983e-06
2.49693e-06
0.00243409
2.05964e-06
2.1855e-06
1.70159e-06
3.96153e-06
0.00192244
2.00941e-06
0.00225938
1.74592e-06
3.23021e-06
2.28783e-06
2.147e-06
2.56677e-06
2.13567e-06
2.17506e-06
2.09722e-06
2.74595e-06
2.57179e-06
2.87381e-06
3.45526e-06
2.08938e-06
2.34165e-06
2.43319e-06
1.94965e-06
1.94191e-06
4.07926e-06
0.00585646
2.7032e-06
2.05845e-06
1.98003e-06
2.10847e-06
0.00276917
2.40296e-06
0.000282703
0.000331001
2.66734e-06
2.57535e-06
2.3793e-06
2.44571e-06
0.00773827
3.05489e-06
0.000141464
1.94465e-06
1.64291e-06
2.30135e-06
2.28178e-06
1.87174e-06
3.94121e-06
2.04342e-06
0.00124445
6.35804e-06
2.80157e-06
0.00952087
2.74306e-06
4.22367e-06
2.05415e-06
1.97117e-06
3.22889e-06
4.28825e-06
2.14614e-06
2.43385e-06
2.30716e-06
1.96801e-06
0.00724849
2.41699e-06
2.12996e-06
2.48569e-06
1.98498e-06
0.000788849
1.82178e-06
1.80873e-06
1.94007e-06
2.05741e-06
1.69086e-06
2.20127e-06
1.79401e-06
2.03486e-06
2.03108e-06
2.07766e-06
2.68726e-06
6.90726e-05
1.7988e-06
2.4323e-06
8.04019e-06
2.71033e-06
1.78597e-06
3.34062e-06
2.09805e-06
2.00408e-06
0.00882322
2.99139e-06
1.95041e-06
2.10707e-06
4.01434e-06
2.54898e-06
2.11307e-06
2.05359e-06
1.90175e-06
2.17199e-06
2.39272e-06
3.10234e-06
7.00955e-06
3.30799e-06
0.00263047
1.80508e-06
1.89417e-06
1.80169e-06
0.00639434
3.0383e-06
1.94868e-06
1.91514e-06
5.075e-06
4.00672e-06
2.59621e-06
2.18533e-06
1.93263e-06
1.90119e-06
3.34327e-06
2.52234e-06
2.88865e-06
8.65501e-06
2.3114e-06
2.00394e-06
2.57387e-06
0.0053384
1.82954e-06
1.99026e-06
3.62658e-06
2.59768e-06
0.000155382
0.00367242
2.39968e-06
2.53114e-06
1.75725e-06
1.85338e-06
2.27308e-06
0.00391235
0.00595081
2.18189e-06
2.0017e-06
2.03752e-06
8.01792e-06
3.02849e-06
4.66418e-06
5.25466e-06
2.26595e-06
8.5638e-06
2.2165e-06
0.000118427
3.66968e-06
3.24581e-06
1.95986e-06
3.38219e-06
2.92326e-06
3.92833e-06
2.01145e-06
0.00231267
2.16749e-06
1.86076e-06
4.22992e-06
0.00813814
2.14574e-06
0.00429584
2.61088e-06
2.68472e-06
2.90904e-06
2.35693e-06
2.10848e-06
2.32776e-06
5.02254e-06
1.70626e-06
1.81696e-06
2.33874e-06
2.66726e-06
3.99982e-06
1.9666e-06
0.00348892
1.97158e-06
2.34163e-06
2.48864e-06
3.66114e-06
1.84267e-06
2.37828e-06
0.00346039
2.0488e-06
2.21885e-06
2.03541e-06
4.77589e-06
1.67372e-06
2.12655e-06
3.61982e-06
0.00795018
2.09456e-06
2.65217e-06
2.8713e-06
3.54888e-06
1.76897e-06
2.29893e-06
2.28575e-06
0.00023541
4.18601e-06
1.81486e-06
2.54894e-06
3.21595e-06
1.83052e-06
3.79248e-06
2.55515e-06
0.00557566
2.88613e-06
1.99943e-06
1.8436e-06
2.16247e-06
2.33931e-06
1.93501e-06
2.29302e-06
1.89289e-06
0.0047415
2.08422e-06
2.27852e-06
4.80253e-06
2.00572e-06
2.32879e-06
2.4108e-06
1.95603e-06
3.59691e-06
2.06791e-06
2.49809e-06
2.7798e-06
2.6141e-06
2.49563e-06
2.4536e-06
0.00926206
3.13252e-06
1.90506e-06
2.24016e-06
2.35592e-06
2.27172e-06
0.00240707
2.23858e-06
1.84573e-06
5.97645e-06
2.49997e-06
2.32761e-06
3.63763e-06
2.65993e-06
2.2849e-06
4.15738e-06
3.07896e-06
0.00265996
2.14902e-06
2.18366e-06
2.03368e-06
0.00230785
1.64379e-06
2.25149e-06
7.08489e-05
3.26704e-06
7.09022e-06
2.18834e-06
1.99914e-06
0.00440137
0.00485869
0.00570665
2.25318e-06
3.8295e-06
2.18833e-06
5.85129e-05
1.87199e-06
0.0104386
2.31148e-06
2.20106e-06
2.8456e-05
1.99072e-06
2.74623e-06
2.14079e-06
2.41307e-06
2.4066e-06
2.67579e-06
2.18469e-06
7.59524e-06
3.07703e-06
2.0913e-06
7.0292e-05
2.15854e-06
2.88712e-06
2.60011e-06
2.24724e-06
2.8117e-06
1.72948e-05
2.86512e-06
1.37391e-05
2.33463e-06
4.26975e-06
0.00302087
1.78658e-06
0.00352333
1.8723e-06
1.76087e-06
1.97671e-06
2.23664e-06
3.0258e-06
1.88068e-06
3.16719e-06
1.99196e-06
3.76977e-06
2.25661e-06
3.12506e-05
1.88258e-06
2.14448e-06
2.02739e-06
2.13344e-06
3.59304e-06
0.00300946
2.17853e-06
2.07991e-06
3.94108e-06
1.64003e-06
1.98339e-06
1.83786e-06
0.00293152
2.08618e-06
2.18884e-06
2.15263e-06
1.99065e-06
0.00845376
0.00803037
2.2237e-06
0.00356432
0.00439683
2.37631e-06
0.00121562
2.21066e-06
1.76483e-06
9.51923e-05
1.94497e-06
0.00102889
2.10622e-06
5.58187e-06
2.13729e-06
2.11105e-06
0.000990642
0.0144235
2.0789e-06
2.08533e-06
2.05466e-06
4.95405e-06
2.28381e-06
0.00198267
1.85119e-06
0.000212714
0.00198775
2.07853e-06
0.0074506
3.27705e-06
0.0059012
2.19434e-06
1.88423e-06
2.16433e-06
1.77604e-06
2.76103e-06
0.00291432
2.4888e-06
2.20525e-06
2.20755e-06
2.31667e-06
1.76688e-06
2.70699e-06
6.456e-06
2.12406e-06
1.84236e-06
1.86981e-06
2.04696e-06
0.00600647
2.66409e-06
0.0102027
1.36098e-05
1.99953e-06
2.38115e-06
2.8918e-06
1.94468e-06
0.0014454
2.08518e-06
2.54109e-06
3.28111e-06
1.9978e-06
1.87347e-06
4.66916e-06
2.03329e-06
2.06412e-06
3.02602e-06
1.78995e-06
2.48092e-06
2.44043e-06
1.83457e-06
2.64677e-06
2.31935e-06
4.58889e-06
4.09376e-06
0.00147552
1.76995e-06
0.00406235
1.99391e-06
5.42685e-06
1.98332e-06
2.0932e-06
3.60912e-06
2.17588e-06
2.2002e-05
4.0019e-05
3.02203e-06
3.27244e-06
4.88945e-06
2.68385e-06
2.39201e-06
1.90038e-06
6.67328e-06
2.18656e-06
1.90188e-06
2.54561e-06
2.38311e-06
3.60919e-06
2.06313e-06
2.11299e-06
2.30255e-06
2.15265e-06
3.05163e-06
0.0113221
2.49915e-06
2.7891e-06
3.54074e-06
1.72078e-06
1.64715e-06
3.59637e-06
2.16392e-06
2.40323e-06
2.0116e-06
1.76735e-06
2.15745e-06
2.04388e-06
3.08898e-06
3.129e-06
0.00351693
2.14697e-06
0.00658917
3.23686e-06
1.80113e-06
0.00510922
2.28875e-06
2.72258e-06
1.89799e-06
1.86415e-06
1.93313e-06
2.1313e-06
2.49942e-06
1.98653e-06
2.30863e-06
2.02817e-06
0.00273562
1.99219e-06
0.00154534
0.00131966
1.67537e-06
2.11434e-06
0.00488175
3.3792e-06
1.71185e-06
1.65022e-06
2.11168e-06
2.11721e-06
3.05201e-06
1.81376e-06
6.75977e-06
2.39704e-06
1.96895e-06
1.92065e-06
3.38372e-06
3.31279e-06
3.62437e-06
2.35122e-06
1.87031e-06
2.06959e-06
2.48089e-06
1.88674e-06
3.30022e-06
3.55408e-06
1.9705e-06
2.05531e-06
3.35748e-06
3.21464e-06
2.71548e-06
1.96583e-06
1.87289e-06
2.43825e-06
0.000146725
2.04339e-06
0.00407349
4.16097e-06
2.0874e-06
3.87846e-06
2.65836e-06
2.0799e-06
3.82017e-06
4.03017e-06
0.00372729
1.97496e-06
5.30649e-06
2.91755e-06
8.5835e-06
1.72205e-05
0.00244808
3.98467e-06
2.32836e-06
1.92148e-06
1.90806e-06
3.80363e-06
0.00512697
2.22684e-05
1.99261e-06
3.90802e-06
1.94975e-06
0.00647362
2.4046e-06
3.74546e-06
2.66532e-06
1.90805e-06
3.68965e-06
2.05707e-06
1.99926e-06
2.58671e-06
2.97134e-06
2.19511e-06
2.52306e-06
2.30796e-06
0.00638477
0.00681501
1.75013e-06
2.20279e-06
2.59052e-06
2.10179e-06
1.86533e-06
2.13282e-06
2.08849e-06
1.94241e-06
3.45532e-06
1.73593e-06
1.77334e-06
2.58622e-06
2.36021e-06
1.98339e-06
1.95519e-06
2.02801e-06
2.03052e-06
0.00252236
2.49552e-06
1.87572e-06
1.76254e-06
2.60108e-06
1.11001e-05
1.83839e-06
2.1806e-06
3.2029e-06
3.31233e-06
2.0367e-06
0.00373773
2.36324e-06
2.77529e-06
6.08881e-06
3.46903e-06
3.76197e-06
1.77778e-06
1.85874e-06
1.89621e-06
3.98058e-06
2.21063e-06
0.00329676
2.01899e-06
2.23358e-06
2.23456e-06
2.07549e-06
2.38328e-06
7.48876e-06
2.14297e-06
3.00387e-06
2.66433e-06
2.97769e-06
1.97099e-06
2.90735e-06
1.92475e-06
1.85644e-06
6.03428e-06
4.54847e-06
0.00496252
2.194e-06
2.77395e-06
2.19717e-06
0.00242203
2.08418e-06
2.30367e-06
2.02677e-06
1.84434e-06
4.13203e-06
2.30536e-06
0.0027044
1.72291e-06
2.5604e-06
2.18201e-06
1.89472e-06
6.87887e-05
1.83214e-06
2.46178e-06
1.87178e-06
2.00917e-06
1.94074e-06
2.65509e-06
2.26385e-06
2.40773e-06
1.99957e-06
1.87381e-06
1.78993e-06
1.76724e-06
2.63548e-06
2.13197e-06
0.00190789
1.78213e-05
4.25147e-06
0.0039756
2.56943e-06
2.3823e-06
1.98655e-06
3.65649e-06
0.00190509
1.89954e-06
0.000640135
2.54439e-06
2.44347e-06
0.00676252
0.00819849
1.8799e-06
2.31596e-06
1.87689e-06
0.00284157
1.9617e-06
2.26827e-06
5.63547e-06
0.000235749
3.50797e-05
0.000252274
1.99972e-06
2.2528e-06
1.71065e-06
4.04996e-06
3.46854e-06
2.41757e-06
2.09613e-06
2.07668e-06
4.04072e-06
2.37333e-06
0.00366089
2.0044e-06
2.38819e-06
0.00214918
0.00268565
2.82233e-06
2.50379e-06
0.00316963
5.21959e-06
4.06282e-06
3.21965e-05
0.00112402
1.94002e-06
2.98412e-06
1.9595e-06
2.36951e-06
2.44979e-06
2.44774e-06
2.70373e-06
0.00394202
2.34798e-06
3.47885e-06
1.89953e-06
2.10061e-06
0.00155693
3.70382e-06
0.00541236
1.77171e-06
1.78136e-06
0.00375716
6.2393e-05
6.44543e-06
2.75934e-06
2.57582e-06
1.98925e-06
3.54452e-06
2.02973e-06
2.93043e-06
2.42182e-06
0.00379571
2.0447e-06
0.0104244
0.00542152
3.84954e-06
1.90843e-06
2.77322e-06
1.85977e-06
0.000111544
5.25366e-06
2.21323e-06
2.23476e-06
3.64104e-06
5.30909e-06
1.84088e-06
3.34346e-06
3.09995e-06
2.08678e-06
2.11769e-06
4.10509e-06
0.00316667
3.65683e-06
3.44517e-06
0.00158182
2.30516e-06
1.69176e-06
2.0537e-06
0.00163437
0.000302029
0.00166764
2.30859e-06
2.93706e-06
1.80427e-06
3.82993e-06
1.69768e-06
0.0159885
1.88646e-06
2.03375e-06
3.33998e-06
2.89727e-06
1.76272e-06
2.38051e-06
2.1514e-06
2.4563e-06
0.00477428
2.90095e-06
2.54099e-06
2.35121e-06
3.85842e-06
2.63801e-06
2.36271e-06
0.0017126
4.27644e-06
1.84418e-06
3.75644e-06
1.70619e-06
2.77217e-06
3.53216e-06
3.92767e-06
1.78841e-06
0.00648449
8.3081e-05
2.22198e-06
1.74552e-06
2.72239e-06
3.11711e-06
2.32513e-06
3.60704e-06
3.67726e-06
2.69202e-06
0.00263051
2.66146e-06
1.85457e-06
2.39008e-06
2.58114e-06
0.00174197
2.34065e-06
1.20462e-05
2.12748e-06
1.23926e-05
4.43883e-06
2.17771e-06
2.06067e-06
1.78677e-06
0.00425795
1.64747e-06
2.60632e-06
2.72252e-06
4.99649e-06
0.0031287
0.00737007
3.25122e-06
2.11637e-06
0.00377383
1.97381e-06
3.86488e-06
0.000683228
4.11582e-06
0.00623024
2.63248e-06
2.3284e-06
4.29322e-06
1.88199e-06
2.30894e-06
2.41957e-06
0.00232632
1.83641e-06
4.21676e-06
3.02872e-06
1.98681e-06
0.000285649
2.51527e-06
2.78496e-06
1.78283e-06
1.70313e-06
4.23455e-06
0.00921123
0.00599954
2.40381e-06
1.85885e-06
3.67352e-06
2.36942e-06
2.26719e-06
2.1939e-06
6.13485e-06
0.00757399
3.29456e-06
6.84694e-06
2.12196e-06
0.00645567
0.00328474
2.23897e-06
2.20215e-06
3.67727e-06
4.11236e-06
2.44755e-06
2.3536e-06
3.90791e-06
0.00287515
2.78548e-06
3.98708e-06
0.00552805
1.72377e-06
0.00199007
0.000330427
0.00202617
2.20176e-06
3.02712e-06
1.91216e-06
1.81136e-06
2.41863e-06
4.22489e-06
1.91204e-06
2.30308e-06
3.60377e-06
2.6985e-06
0.00761568
2.25014e-06
4.57169e-06
1.99107e-06
1.7757e-06
3.09313e-05
2.08832e-06
0.00572451
2.05091e-06
2.46227e-06
2.4154e-06
2.2135e-06
2.10476e-06
2.03918e-06
2.06406e-06
0.00111904
4.35476e-06
2.19221e-06
2.21802e-06
2.71904e-06
0.00373309
2.36902e-06
0.00989963
2.65565e-06
9.23683e-06
2.31953e-06
2.1591e-06
1.80082e-05
2.02444e-06
1.80583e-06
1.91006e-06
4.16043e-06
2.41195e-05
1.87415e-06
2.29803e-06
0.00748435
3.30235e-06
0.00183313
0.00215938
2.35305e-06
2.17395e-06
0.00898346
0.0022082
2.21988e-06
0.00298654
2.00671e-06
3.24869e-06
2.3267e-06
0.00977123
2.07158e-06
2.4741e-06
0.00129585
3.05549e-06
2.20866e-06
1.92436e-06
1.83099e-06
7.79485e-05
0.00775417
1.90375e-06
1.87848e-06
2.21875e-06
1.94008e-06
0.00117259
1.94792e-06
2.01992e-06
0.00113689
2.32113e-06
1.85374e-06
2.68893e-06
1.88277e-06
1.75595e-06
2.27937e-06
2.87942e-06
2.18795e-06
2.19011e-06
0.00138739
4.99512e-06
2.08799e-06
0.00118834
2.93372e-06
1.8116e-06
0.00050336
3.71959e-06
2.76504e-06
5.39484e-06
2.67655e-06
2.18043e-06
2.15662e-06
3.49414e-06
3.05219e-06
1.85259e-06
1.87912e-06
1.92526e-06
0.00236249
3.43765e-06
2.38133e-06
2.43461e-06
5.57957e-06
6.40341e-05
2.3335e-06
0.00137975
0.000933947
3.42294e-05
1.83364e-06
1.82711e-05
0.00195451
2.29892e-06
0.000974879
1.03357e-05
2.34416e-06
0.00117376
1.88117e-06
1.9707e-06
0.00194665
1.99841e-06
8.5538e-06
7.07804e-06
0.00153055
1.78267e-06
2.42903e-06
4.1686e-06
1.05586e-05
2.27754e-06
2.40734e-06
0.0045524
2.05233e-06
2.40309e-06
1.82314e-06
2.76501e-06
3.08942e-06
6.9103e-06
1.89832e-06
1.94827e-06
2.60026e-06
4.45204e-06
2.26827e-06
2.30942e-06
1.98849e-06
2.93879e-06
2.26565e-06
1.70169e-06
0.00343185
1.74488e-06
7.94701e-06
2.15565e-06
2.61598e-06
3.12232e-06
1.86489e-06
1.6684e-06
1.9414e-06
2.39865e-06
2.03559e-06
3.15108e-06