/*--------------------------------*- C++ -*----------------------------------*\
| =========                 |                                                 |
| \\      /  F ield         | OpenFOAM: The Open Source CFD Toolbox           |
|  \\    /   O peration     | Version:  v2012                                 |
|   \\  /    A nd           | Website:  www.openfoam.com                      |
|    \\/     M anipulation  |                                                 |
\*---------------------------------------------------------------------------*/
FoamFile
{
    version     2.0;
    format      ascii;
    class       volScalarField;
    location    "100";
    object      epsilon;
}
// * * * * * * * * * * * * * * * * * * * * * * * * * * * * * * * * * * * * * //

dimensions      [0 2 -3 0 0 0 0];


internalField   nonuniform List<scalar> 
13308
(
2.47799e-06
1.86344e-06
7.13423e-05
1.90921e-06
2.33012e-06
1.78854e-06
2.17836e-06
5.43249e-06
2.06776e-06
2.50428e-06
2.16445e-06
0.0078458
3.92198e-05
2.1698e-06
2.10343e-06
2.31966e-06
1.67328e-06
1.84257e-06
2.32631e-06
1.77654e-06
2.53296e-06
1.76399e-06
1.74707e-06
0.0011888
3.10077e-05
1.75902e-06
0.00736901
1.77758e-06
0.0145251
1.79747e-06
0.00397189
0.00232834
0.000319386
0.00563778
2.37868e-06
1.91519e-06
1.7355e-06
2.03122e-06
1.93453e-06
1.93739e-06
2.03606e-06
1.82257e-06
8.55456e-06
2.01149e-06
0.00240113
0.0189305
1.84471e-06
3.24588e-06
1.86737e-06
4.11135e-06
0.00485427
1.85219e-06
1.81207e-06
0.0149037
1.79184e-06
1.82301e-06
1.76545e-06
2.84641e-06
2.49192e-06
2.51342e-06
1.67804e-06
2.85566e-06
1.84276e-06
1.94555e-06
1.74902e-06
1.66977e-06
1.84997e-06
0.00512667
0.00572825
1.85053e-06
3.79769e-06
1.83817e-06
1.67479e-06
1.698e-06
1.80832e-06
3.44765e-06
0.00538115
2.38381e-06
0.000356087
1.82952e-06
1.6802e-06
2.35344e-06
1.69381e-06
2.84368e-06
0.00238791
2.48056e-06
2.59416e-06
2.37484e-06
2.39676e-06
2.56101e-06
2.53444e-06
0.0039694
2.46164e-06
3.15113e-06
2.19901e-06
2.29616e-06
1.69016e-06
4.22259e-06
2.01956e-06
2.01372e-06
2.04293e-06
3.20557e-06
1.82214e-06
1.99488e-06
1.67745e-06
2.96689e-06
5.36251e-06
2.51526e-06
1.781e-06
6.4276e-05
2.93866e-06
0.00233251
2.52816e-06
0.00156704
2.04532e-06
0.000341598
2.38641e-06
2.19065e-06
1.83965e-06
2.94942e-06
2.1955e-06
3.20552e-06
3.27884e-06
2.49201e-06
6.07716e-06
2.2966e-06
0.00227665
2.89414e-06
4.0612e-06
0.000165419
6.98802e-06
1.82739e-06
1.92933e-06
2.04417e-06
3.24724e-06
1.88647e-06
2.05982e-06
1.82476e-06
6.1815e-05
2.00167e-06
0.000164585
0.00564668
0.00509609
2.18396e-06
0.00700964
9.20549e-06
1.863e-06
2.14579e-06
2.9939e-06
0.00560678
0.00127427
2.0789e-06
1.78191e-06
2.04609e-06
1.83629e-06
1.88194e-06
3.06666e-06
2.035e-06
5.79468e-06
0.00508199
2.71404e-06
0.00209423
2.20062e-06
2.08333e-06
1.77176e-06
7.35691e-06
2.08504e-06
6.78284e-05
1.98144e-05
2.6333e-06
5.09807e-06
1.84026e-06
0.00311527
4.17009e-05
1.97006e-06
4.03601e-06
1.69903e-06
5.32071e-06
1.933e-06
2.06037e-06
2.59509e-06
1.83634e-06
1.77124e-06
0.00334762
2.18281e-06
2.04359e-06
3.2758e-06
1.66782e-06
1.69828e-06
2.19307e-06
1.82048e-06
1.81907e-06
8.38698e-06
0.00117816
3.80346e-06
6.03592e-06
2.43258e-06
3.02447e-06
1.67016e-06
4.77651e-06
0.000221892
2.05997e-06
2.18789e-06
1.8373e-06
2.40688e-06
4.54437e-06
2.16832e-06
1.89015e-06
3.02651e-06
1.80448e-06
2.01181e-06
0.00132338
3.85361e-06
9.3049e-05
2.1683e-06
2.37462e-06
1.65935e-06
1.76587e-05
1.78973e-06
1.78639e-06
2.1091e-06
3.50626e-06
2.19594e-06
2.54038e-06
2.09915e-06
1.73686e-05
2.0875e-06
4.1169e-06
0.00664732
2.29391e-06
1.8347e-06
3.45304e-06
2.17219e-06
1.70409e-06
2.22191e-06
2.03968e-06
1.68971e-06
1.68292e-06
1.81377e-06
2.43339e-06
1.97162e-06
2.41996e-06
3.253e-06
6.58443e-06
2.54444e-06
2.28369e-06
0.000242763
1.91865e-06
3.24938e-06
1.95993e-06
2.45617e-06
2.1042e-06
8.08915e-06
3.64805e-06
3.96657e-06
2.31488e-06
1.83169e-06
2.46183e-06
2.23958e-06
2.1891e-06
2.15971e-06
1.66085e-06
1.77062e-06
1.66438e-06
0.00627626
1.94561e-06
8.28575e-05
2.6443e-06
0.00156235
2.53618e-06
1.78955e-06
2.14655e-06
2.42527e-06
2.00055e-06
6.00548e-06
2.11064e-05
1.69009e-06
2.38568e-06
4.27246e-06
1.76048e-06
2.47383e-06
2.23661e-06
4.11527e-06
2.54826e-06
2.48611e-06
3.54425e-06
3.44089e-06
3.59337e-06
1.70323e-06
1.78683e-06
0.000209549
0.00580361
0.000119754
0.00518486
2.29942e-06
1.72527e-06
1.91288e-06
2.80834e-06
0.0146885
2.36822e-06
0.00505113
1.80576e-06
2.13742e-06
2.22549e-06
2.7542e-06
2.90879e-06
2.07333e-06
2.55688e-06
2.49563e-06
2.07729e-06
1.88864e-06
2.07681e-06
0.0046978
2.22504e-06
6.62482e-06
0.0085791
9.39581e-06
1.78646e-06
6.76942e-06
1.99556e-06
2.41813e-06
2.82838e-06
1.79948e-06
1.70517e-06
1.89709e-06
2.75953e-06
1.83899e-06
2.84887e-06
1.8571e-06
2.29279e-06
3.84066e-06
7.51501e-06
2.3399e-06
2.2871e-06
2.06836e-06
0.0052958
6.01804e-06
2.11699e-06
1.78653e-06
1.80943e-06
0.000247638
3.57415e-06
2.22224e-06
2.42352e-06
1.85686e-06
3.41616e-06
1.96933e-06
2.05686e-06
2.20158e-06
0.0091898
1.82297e-06
2.05027e-06
2.37621e-06
1.88916e-06
3.75515e-06
2.09703e-06
2.18121e-06
0.00019334
1.45348e-05
3.0476e-06
2.55814e-06
1.78768e-06
0.00766987
2.2899e-06
9.69483e-06
1.84955e-06
2.56468e-06
1.29926e-05
4.06335e-06
1.98653e-06
4.25868e-06
0.00692328
3.69904e-06
1.38619e-05
2.12558e-06
2.19174e-06
7.02943e-06
2.01786e-06
7.22663e-06
1.89272e-06
3.07913e-06
2.94513e-06
2.86892e-06
5.01852e-06
2.97941e-06
2.55505e-06
1.76016e-06
2.13836e-06
1.78882e-06
0.0012127
0.00506988
1.8813e-06
2.0078e-06
0.0103085
1.87899e-06
3.6575e-06
2.86573e-06
2.42799e-06
9.43512e-06
0.00656646
2.46969e-06
2.42371e-06
2.54875e-06
2.69116e-06
1.88775e-06
1.79476e-06
2.576e-06
3.03729e-06
0.000606003
2.1212e-06
7.82485e-06
0.00477247
1.11803e-05
2.12116e-06
0.00113297
1.82933e-06
2.43462e-06
2.86857e-06
2.6232e-06
1.84773e-06
1.76105e-06
3.30112e-06
2.44937e-06
1.87335e-06
0.00585218
2.07236e-06
2.40403e-06
0.00130364
0.000450313
0.000374961
2.23325e-06
0.0013508
0.00547547
2.38138e-06
2.24746e-06
2.42358e-06
1.7165e-06
1.81534e-06
1.81054e-06
2.13828e-06
2.69481e-06
2.63051e-06
2.6671e-06
2.4301e-06
1.80474e-06
0.00595249
4.51597e-06
3.02186e-06
2.33073e-06
7.21879e-06
4.13587e-06
2.12475e-06
2.14088e-06
1.80209e-06
2.45286e-06
0.00902538
1.92714e-06
1.85038e-06
7.21493e-06
4.23672e-06
1.86104e-06
2.1363e-06
1.75466e-06
3.71398e-06
1.82433e-06
1.87571e-06
1.95049e-06
0.00770766
1.80682e-06
1.97246e-06
2.45975e-06
1.95254e-06
2.4255e-06
6.17558e-06
2.70328e-06
3.82812e-06
2.08914e-06
3.86416e-06
2.1933e-06
4.26877e-06
2.68253e-06
3.05427e-06
2.34134e-06
2.87987e-06
1.92251e-06
0.00246201
2.03675e-06
0.00197187
1.78453e-06
2.29389e-06
1.83183e-06
0.00350331
1.85213e-06
2.44537e-06
1.82334e-06
2.44474e-06
3.80499e-06
2.81903e-06
2.57109e-06
2.06309e-06
2.12418e-06
0.00678594
2.29677e-06
0.00249507
2.04293e-06
0.00621987
2.88955e-06
4.88482e-06
1.86432e-06
0.00215059
2.03318e-06
0.00324237
0.0016941
2.00025e-06
1.92834e-06
0.000112019
0.000463199
3.40214e-06
2.53358e-06
1.95809e-06
2.49991e-06
0.00771323
1.84845e-06
1.01526e-05
2.17025e-05
0.00683607
3.88386e-06
2.54695e-06
0.00419632
2.45055e-06
2.88988e-06
3.5989e-06
0.00131382
2.17818e-06
2.01243e-06
1.91355e-06
2.16644e-06
2.1365e-06
1.58415e-05
3.64999e-06
4.68616e-06
0.00510043
0.00978982
1.91053e-06
2.89424e-06
2.34612e-06
3.83383e-06
0.00945327
6.26898e-05
4.04355e-06
2.77184e-06
3.41673e-06
6.5051e-06
2.91008e-06
2.52258e-06
1.68602e-06
2.41991e-06
1.83827e-06
5.66429e-06
1.66517e-06
2.43159e-06
3.13993e-06
2.46666e-06
2.17846e-06
3.3147e-06
2.36102e-06
4.67259e-06
2.43174e-06
4.09493e-06
3.08581e-06
0.0019001
2.5985e-06
2.40059e-06
0.0165726
2.76256e-06
0.00891486
1.88334e-06
4.09107e-06
2.82717e-06
1.92432e-06
2.01278e-06
2.09025e-06
2.13423e-06
1.84376e-06
2.46362e-06
2.89862e-06
1.82246e-06
3.15045e-06
3.08025e-06
6.00081e-06
1.88128e-06
1.81549e-06
2.13729e-06
3.7351e-06
1.89433e-06
2.27204e-06
1.88515e-06
2.4027e-06
1.82324e-06
0.00500381
0.00123617
2.99851e-06
2.71482e-06
1.94166e-06
2.16048e-06
1.89644e-06
0.00234151
3.11135e-06
3.69926e-06
1.82788e-06
2.72923e-06
1.66712e-06
3.36891e-06
0.00149907
2.10396e-06
0.000259527
1.89921e-06
2.03916e-06
0.0063318
1.14085e-05
0.000360578
1.89712e-06
2.44422e-06
0.00154728
0.000273057
3.09894e-06
0.00701045
4.30672e-06
3.84935e-06
2.3423e-06
0.00411531
1.87492e-06
2.62386e-06
2.08625e-06
3.12514e-06
2.77064e-06
2.61566e-06
2.05257e-06
2.37584e-06
0.000820358
0.00956832
0.00480316
8.27174e-06
2.80502e-06
2.41679e-06
2.37953e-06
2.41147e-06
2.94496e-06
2.83567e-06
2.18664e-06
4.72389e-06
1.8059e-06
0.00172706
1.7044e-06
0.00235381
2.34457e-06
1.70678e-06
1.68593e-06
2.24914e-06
2.06849e-06
2.396e-06
1.85956e-06
1.90977e-06
0.00305638
2.44407e-06
3.16345e-06
4.19303e-06
3.09681e-06
3.27411e-06
2.04895e-06
0.00140291
3.00838e-06
2.10762e-06
2.29689e-06
2.32164e-06
1.89775e-06
2.32599e-06
2.40867e-06
1.74741e-06
0.00425889
0.0071818
2.29928e-06
0.00383148
3.4981e-06
1.72155e-06
0.00588187
3.58755e-06
2.78737e-06
1.79811e-06
2.22145e-06
1.66673e-06
1.90672e-06
0.00854337
4.14719e-06
2.01869e-06
2.00965e-06
0.00020877
1.68905e-06
2.97234e-06
2.20616e-06
2.12898e-06
1.94928e-06
0.00529601
2.06712e-06
2.09229e-06
0.00632268
1.36688e-05
2.45981e-06
2.11791e-06
0.000313643
1.943e-06
0.00776835
2.29269e-06
2.62478e-06
2.11024e-06
2.02481e-06
2.98999e-06
2.90198e-06
1.8926e-06
1.12917e-05
3.52337e-06
2.03585e-06
0.00522422
2.11232e-06
2.03889e-06
2.26124e-06
0.00192886
2.98637e-06
4.66215e-06
2.39041e-06
3.48798e-06
0.00761072
4.09539e-06
3.95151e-06
2.64821e-06
0.00607276
3.01707e-06
0.00124581
2.23438e-06
3.69743e-06
5.17616e-06
2.26417e-06
2.26436e-06
2.08973e-06
3.49509e-06
2.39379e-06
1.9364e-06
2.00974e-06
3.62101e-06
1.93955e-06
1.07919e-05
2.90362e-06
0.00133923
2.60364e-06
3.91437e-06
0.000536467
3.86363e-06
0.000250124
1.89159e-06
3.6252e-06
1.94114e-06
3.9899e-06
2.22572e-06
2.13201e-06
2.26852e-06
3.27398e-06
2.13946e-06
2.31162e-06
0.00634439
1.80269e-06
1.34106e-05
3.67796e-06
2.25339e-06
3.11586e-06
0.00588407
2.04325e-06
0.00108638
0.00380508
4.26975e-06
0.00343611
1.8474e-06
1.91618e-06
2.58504e-06
1.71835e-06
2.60513e-06
1.80395e-06
0.00909207
0.00631374
0.00354924
1.79333e-06
2.92404e-06
2.43991e-06
2.46106e-06
2.32165e-06
1.51437e-05
2.25228e-06
2.19236e-06
2.20708e-06
0.00491125
3.92052e-06
2.83615e-06
3.61374e-06
2.12479e-06
2.8707e-06
3.24638e-06
5.7299e-06
2.71793e-06
1.96654e-06
2.62577e-06
0.000597188
1.90133e-06
0.001545
1.81263e-06
1.97674e-05
2.41914e-06
2.2776e-06
2.02329e-06
1.89127e-06
2.64002e-06
1.89884e-06
2.13705e-06
5.34186e-06
4.50207e-06
0.00567698
2.53765e-06
2.26042e-06
2.29403e-06
2.39978e-06
1.84417e-06
2.42081e-06
3.24827e-06
0.0076772
2.27835e-06
2.38223e-06
2.32027e-06
2.02351e-06
2.29322e-06
1.9434e-06
2.59687e-06
2.54215e-06
2.31236e-06
2.32144e-06
0.00952086
1.90228e-06
2.41069e-06
1.89895e-06
2.528e-06
2.11878e-06
1.69024e-06
2.6781e-06
2.1091e-06
0.00463338
0.000322553
2.35608e-06
2.60904e-06
2.44976e-06
3.71093e-06
1.84788e-06
1.86475e-06
1.75151e-06
2.95154e-06
2.45041e-06
3.66855e-06
1.83061e-06
7.43761e-06
2.22045e-06
2.22618e-06
0.00137573
2.21615e-06
2.36452e-06
3.32977e-06
2.36051e-06
0.00616628
2.0479e-06
4.10494e-06
2.11878e-06
2.85653e-06
4.82726e-06
1.89964e-06
2.14162e-06
0.00118291
2.44415e-06
2.5994e-06
1.98399e-06
1.85967e-06
2.7704e-06
0.00016964
1.81679e-06
0.00768117
0.000401231
2.42977e-06
5.07298e-06
1.99036e-06
0.00335859
1.7124e-06
0.000201231
0.00465131
2.86091e-06
1.8907e-06
1.86118e-06
2.02551e-06
2.19637e-06
0.00375042
1.69843e-06
4.22006e-06
2.65985e-06
2.01978e-06
4.43988e-06
0.00134208
3.5466e-06
0.00995129
2.01818e-06
2.06916e-06
0.00614216
1.74642e-06
2.79653e-06
1.01091e-05
2.13753e-06
1.84675e-06
3.19361e-06
0.00609908
2.79455e-06
0.00369936
0.006593
2.14056e-06
4.14435e-06
7.84126e-06
2.42224e-06
2.39417e-06
2.15279e-06
2.09519e-06
4.7102e-06
2.96073e-06
3.4215e-05
2.77748e-06
2.38804e-06
2.98562e-06
0.00873276
2.0283e-06
4.61507e-06
0.000351687
2.30098e-06
0.0175433
2.60345e-06
0.00315241
2.67692e-06
0.00871959
3.33497e-06
2.33642e-06
2.07798e-06
0.000288323
2.73142e-06
2.90321e-06
3.34364e-06
2.05616e-06
0.00147742
1.81312e-06
1.86586e-06
2.1032e-06
2.75518e-06
2.10839e-06
1.82961e-06
2.64522e-06
3.00404e-06
2.55014e-06
2.10222e-06
4.23117e-06
2.28955e-06
2.34936e-06
2.98467e-06
3.73774e-06
2.25908e-06
2.41525e-06
1.86412e-06
2.9961e-06
0.00463302
2.22421e-06
2.12363e-06
2.14826e-06
0.014684
1.90181e-06
0.00686331
1.6842e-06
2.35695e-06
5.53266e-06
1.75145e-06
0.00264849
1.66957e-06
1.83755e-06
8.97136e-05
2.36698e-06
5.13586e-06
8.00353e-06
0.0134451
3.1952e-06
1.99845e-06
2.40039e-06
2.45965e-06
2.79293e-06
2.12188e-06
2.28218e-06
2.34806e-06
2.27845e-06
2.04005e-06
2.83385e-06
8.27497e-06
0.000174909
0.00555078
2.08512e-06
0.00448844
2.0237e-06
2.35417e-06
3.57442e-06
3.01012e-06
4.27336e-06
0.0107371
4.13894e-06
2.15169e-06
0.0154976
2.8933e-06
1.7464e-06
0.000289404
2.21882e-06
2.47302e-06
2.12819e-06
2.07503e-06
1.80709e-06
0.00345567
4.10522e-06
3.86089e-06
9.78842e-05
3.25797e-05
0.00261067
1.9929e-06
2.59537e-05
3.37146e-06
0.00128967
2.15835e-06
1.78684e-06
2.22996e-06
4.89459e-06
2.33218e-06
1.74899e-06
2.37084e-06
2.31668e-06
2.14534e-06
2.61946e-06
6.00297e-06
1.74422e-06
4.23076e-06
4.2223e-06
2.20407e-06
1.75289e-06
2.04672e-06
2.04936e-06
1.69167e-06
2.31757e-06
2.33763e-06
3.41555e-06
2.15989e-06
0.000107634
1.97773e-06
0.00510802
2.17282e-06
2.21513e-06
4.11533e-06
3.13499e-06
0.0092916
2.65772e-06
1.78026e-06
2.3648e-06
1.91432e-06
5.36514e-06
2.59782e-06
2.03914e-06
2.36427e-06
2.93865e-06
2.40734e-06
1.79383e-06
2.24574e-06
0.00353966
2.32843e-06
2.34985e-06
2.48428e-06
2.09454e-06
1.87336e-06
2.6498e-06
2.48157e-06
2.27982e-06
1.74261e-06
2.71607e-05
2.43202e-06
2.16713e-06
2.51772e-06
4.01044e-06
2.9312e-06
1.98822e-06
6.92394e-06
1.64661e-06
2.63241e-06
1.98959e-06
2.3932e-06
2.35426e-06
2.3055e-06
2.25494e-06
2.16594e-06
0.00287382
8.02671e-05
1.74301e-06
2.29742e-06
2.68225e-06
1.79926e-06
0.000254941
2.4837e-06
1.71786e-06
1.774e-06
2.08164e-06
3.94149e-06
1.99639e-06
2.17535e-06
4.20493e-06
3.58823e-06
0.00424744
2.85721e-06
1.80158e-06
2.36752e-06
0.00343623
2.20988e-06
2.35673e-06
2.18006e-06
2.47915e-06
2.22613e-06
2.10096e-06
5.75771e-06
2.76443e-06
1.74928e-06
1.81755e-06
1.96172e-06
4.09794e-06
1.75013e-06
1.79817e-06
0.00784402
2.47521e-06
2.03908e-06
1.72538e-06
0.00718324
1.74289e-06
3.05148e-06
2.58241e-06
2.35185e-06
2.00356e-06
2.81465e-06
2.15878e-06
5.13246e-06
2.06702e-06
2.18763e-06
2.84949e-06
2.07102e-06
0.00180774
2.15117e-06
0.00586765
6.03588e-06
2.21584e-06
0.0045564
4.1374e-06
2.28619e-06
2.26564e-06
1.99463e-06
1.8413e-06
2.30513e-06
4.35436e-06
3.53898e-06
2.43206e-06
1.88902e-06
1.95131e-06
0.00245685
3.83178e-06
1.86938e-06
2.52139e-06
2.26658e-06
2.07851e-06
0.00837834
1.8463e-06
2.64171e-06
1.73156e-06
2.19496e-06
2.29536e-06
1.73563e-06
4.10001e-06
7.05452e-05
0.00663709
2.25038e-06
2.42917e-06
2.27385e-06
2.91653e-06
2.6428e-06
3.03519e-06
1.76737e-06
0.00502041
1.80662e-06
5.57508e-06
0.000246942
1.64313e-06
2.4123e-06
2.09541e-06
2.68286e-06
0.00447174
4.42248e-05
2.07454e-06
2.3432e-06
2.03001e-06
0.00575119
3.58314e-06
2.16551e-06
1.75479e-06
0.000295976
2.30934e-06
2.38056e-06
3.42233e-06
2.34833e-06
0.00305267
2.14576e-06
2.29546e-06
2.74893e-06
6.61403e-06
4.40514e-06
2.66979e-06
0.0016922
2.1504e-06
2.65016e-06
4.14742e-06
2.50277e-06
2.12304e-06
2.52733e-06
2.11071e-06
2.25179e-06
2.21183e-06
2.24921e-06
4.12159e-06
1.99349e-06
0.00169589
2.8678e-06
2.8508e-06
0.00598537
1.85474e-06
2.4258e-06
3.83206e-06
7.08814e-06
2.01046e-06
1.69798e-06
0.00787976
2.03728e-06
2.40354e-06
1.73477e-06
2.19244e-06
2.18377e-06
2.25075e-06
0.0037437
4.1578e-06
3.76588e-06
2.5365e-06
2.36107e-06
2.07239e-06
0.000966564
3.91033e-06
2.08346e-06
3.15987e-06
1.75161e-06
3.41044e-06
3.02453e-06
0.00489886
2.00345e-06
2.51597e-06
2.22727e-06
2.33166e-06
4.16763e-06
2.16131e-06
1.82312e-06
4.17152e-06
1.88896e-06
3.91903e-06
7.99549e-06
3.93618e-06
3.13171e-06
0.000160945
2.50476e-06
2.01867e-06
0.000909695
1.78791e-06
2.43909e-06
3.44661e-06
0.00738074
7.46387e-06
1.81047e-06
2.56548e-06
0.00165043
5.53415e-06
2.1087e-06
0.00548995
0.00203566
0.00779565
1.84338e-06
2.37644e-06
4.13321e-06
2.16141e-06
2.10694e-06
2.38211e-06
3.52471e-06
2.43735e-06
1.88519e-06
2.18199e-06
6.97502e-06
3.14032e-06
0.00687444
1.92276e-06
1.75298e-06
1.70871e-06
1.92048e-06
2.64248e-06
2.01016e-06
1.85226e-06
2.34455e-06
5.04288e-06
2.65451e-06
2.65068e-06
2.07673e-06
2.1024e-06
2.36419e-06
4.37604e-06
3.88183e-06
1.8384e-06
2.38503e-06
1.94618e-06
1.85545e-06
2.31973e-06
2.56946e-06
0.00461993
2.20544e-06
2.41631e-06
4.05217e-06
1.78237e-06
2.7725e-06
1.71008e-06
1.91705e-06
1.80101e-06
2.52872e-06
0.000385078
1.95303e-06
5.24963e-05
0.00769418
9.68175e-06
0.00184032
1.82692e-06
2.299e-06
4.08564e-06
0.00557073
1.84395e-06
4.22026e-06
1.84734e-06
2.69024e-06
2.17381e-06
0.00939796
1.90699e-06
2.68526e-06
2.88094e-06
0.00386515
2.4043e-06
0.000246827
4.92958e-06
1.72224e-06
2.1597e-06
2.32963e-06
2.10489e-06
2.097e-06
5.05716e-05
1.81304e-06
2.42037e-06
3.45431e-06
2.39585e-06
3.00922e-06
2.44326e-06
1.90751e-06
0.00604234
2.30552e-06
0.00282547
2.16336e-06
2.36121e-06
0.00576188
0.00240918
0.00513564
2.11761e-06
2.22649e-06
2.80612e-06
0.00758492
0.000132384
2.62013e-06
2.2812e-06
8.71796e-05
2.58594e-06
3.48863e-06
2.16878e-06
1.85004e-06
2.11458e-06
2.54479e-06
1.74318e-06
4.44335e-06
2.0159e-06
1.91726e-06
2.40833e-06
2.33566e-06
2.17772e-06
5.5809e-05
4.05835e-06
2.72919e-06
0.00540469
2.2126e-06
2.45494e-06
1.92794e-06
6.2336e-06
1.75786e-06
1.7385e-06
0.0110133
2.38762e-06
1.81865e-06
2.94511e-06
1.98123e-06
2.19757e-06
2.39782e-06
1.90509e-06
0.011235
2.00876e-06
2.33902e-06
2.21786e-06
0.00576304
0.00709118
2.66877e-06
1.90985e-06
2.31753e-06
0.00648556
3.14954e-06
2.21607e-06
0.0036817
4.16145e-06
4.77848e-06
1.95673e-06
4.15735e-06
2.93305e-06
2.48782e-06
0.00116741
5.91192e-06
2.62173e-06
1.88683e-06
0.000158992
2.63539e-06
0.0148628
0.00978792
0.00524637
1.99227e-06
1.96794e-06
2.09795e-06
1.96701e-06
0.0020323
2.41491e-06
3.52957e-06
1.98504e-06
2.56004e-06
3.30198e-06
3.03292e-06
0.00914812
1.75631e-06
2.2018e-06
2.16773e-06
2.60982e-06
2.49688e-06
0.00243414
2.05964e-06
2.1855e-06
1.70159e-06
3.96152e-06
0.00192231
2.0094e-06
0.00225929
1.74591e-06
3.23026e-06
2.28782e-06
2.14701e-06
2.56679e-06
2.13566e-06
2.17506e-06
2.09723e-06
2.74594e-06
2.57177e-06
2.87387e-06
3.45539e-06
2.08938e-06
2.34165e-06
2.43319e-06
1.94966e-06
1.94194e-06
4.07926e-06
0.00585675
2.70313e-06
2.05846e-06
1.98004e-06
2.10849e-06
0.00276943
2.40297e-06
0.000282648
0.000330878
2.66733e-06
2.57534e-06
2.37928e-06
2.44569e-06
0.00773854
3.05489e-06
0.00014144
1.94465e-06
1.6429e-06
2.30137e-06
2.28178e-06
1.87175e-06
3.94136e-06
2.04342e-06
0.0012443
6.3581e-06
2.80157e-06
0.00952141
2.74306e-06
4.22367e-06
2.05417e-06
1.97118e-06
3.22894e-06
4.28898e-06
2.14612e-06
2.43386e-06
2.30716e-06
1.96801e-06
0.007249
2.417e-06
2.12997e-06
2.4857e-06
1.98499e-06
0.000788711
1.82181e-06
1.80873e-06
1.94009e-06
2.05742e-06
1.69086e-06
2.20127e-06
1.79402e-06
2.03487e-06
2.03109e-06
2.07765e-06
2.68725e-06
6.90435e-05
1.7988e-06
2.43228e-06
8.05637e-06
2.71036e-06
1.78598e-06
3.34062e-06
2.09805e-06
2.00408e-06
0.00882346
2.99145e-06
1.95041e-06
2.10707e-06
4.01421e-06
2.54903e-06
2.11309e-06
2.05359e-06
1.90176e-06
2.17199e-06
2.39272e-06
3.10234e-06
7.01082e-06
3.30799e-06
0.00263053
1.80508e-06
1.89418e-06
1.80168e-06
0.00639445
3.0383e-06
1.94868e-06
1.91513e-06
5.07606e-06
4.00674e-06
2.59621e-06
2.18533e-06
1.93264e-06
1.90119e-06
3.34328e-06
2.52233e-06
2.88865e-06
8.6565e-06
2.3114e-06
2.00395e-06
2.57385e-06
0.00533852
1.82955e-06
1.99027e-06
3.62657e-06
2.59766e-06
0.000155353
0.00367261
2.39966e-06
2.53113e-06
1.75724e-06
1.8534e-06
2.27309e-06
0.00391228
0.00595078
2.1819e-06
2.00171e-06
2.03752e-06
8.01948e-06
3.02854e-06
4.66536e-06
5.25429e-06
2.26597e-06
8.56801e-06
2.21651e-06
0.000118374
3.66965e-06
3.24589e-06
1.95987e-06
3.38225e-06
2.92326e-06
3.92832e-06
2.01146e-06
0.00231283
2.16748e-06
1.86077e-06
4.22992e-06
0.00813829
2.14573e-06
0.00429594
2.61087e-06
2.68473e-06
2.90904e-06
2.35693e-06
2.10848e-06
2.32776e-06
5.02405e-06
1.70626e-06
1.81695e-06
2.33871e-06
2.66727e-06
3.99983e-06
1.9666e-06
0.00348924
1.97159e-06
2.34163e-06
2.48868e-06
3.66113e-06
1.84269e-06
2.37828e-06
0.00346039
2.0488e-06
2.21887e-06
2.03541e-06
4.77663e-06
1.67371e-06
2.12655e-06
3.61992e-06
0.00795077
2.09456e-06
2.65218e-06
2.87125e-06
3.54881e-06
1.76897e-06
2.29894e-06
2.28575e-06
0.000235366
4.18597e-06
1.81488e-06
2.5489e-06
3.21594e-06
1.83053e-06
3.79227e-06
2.55515e-06
0.00557576
2.88614e-06
1.99944e-06
1.84361e-06
2.16247e-06
2.33932e-06
1.93501e-06
2.293e-06
1.89289e-06
0.00474181
2.08423e-06
2.27853e-06
4.80261e-06
2.00573e-06
2.32881e-06
2.41081e-06
1.95604e-06
3.59699e-06
2.06791e-06
2.49809e-06
2.77985e-06
2.61413e-06
2.49565e-06
2.4536e-06
0.00926226
3.13253e-06
1.90507e-06
2.24015e-06
2.35592e-06
2.27173e-06
0.00240698
2.23858e-06
1.84574e-06
5.97651e-06
2.49993e-06
2.32762e-06
3.63774e-06
2.65992e-06
2.28491e-06
4.15723e-06
3.07897e-06
0.00265986
2.14902e-06
2.18367e-06
2.03369e-06
0.00230788
1.64381e-06
2.25148e-06
7.08494e-05
3.26705e-06
7.08993e-06
2.18834e-06
1.99915e-06
0.00440152
0.00485858
0.00570712
2.25318e-06
3.8295e-06
2.18833e-06
5.84904e-05
1.87199e-06
0.0104401
2.31146e-06
2.20106e-06
2.84381e-05
1.99073e-06
2.74629e-06
2.1408e-06
2.41308e-06
2.40661e-06
2.67579e-06
2.18469e-06
7.67415e-06
3.07713e-06
2.09131e-06
7.03103e-05
2.15854e-06
2.88713e-06
2.60014e-06
2.24725e-06
2.8117e-06
1.72786e-05
2.86518e-06
1.37511e-05
2.33463e-06
4.26991e-06
0.00302085
1.78658e-06
0.00352302
1.8723e-06
1.76088e-06
1.97671e-06
2.23664e-06
3.02579e-06
1.88068e-06
3.16724e-06
1.99196e-06
3.76991e-06
2.25661e-06
3.12643e-05
1.88257e-06
2.14449e-06
2.0274e-06
2.13344e-06
3.59312e-06
0.00301
2.17853e-06
2.07991e-06
3.94108e-06
1.64002e-06
1.98339e-06
1.83788e-06
0.00293145
2.08618e-06
2.18882e-06
2.15264e-06
1.99065e-06
0.00845396
0.00803096
2.22372e-06
0.00356471
0.00439712
2.37629e-06
0.00121544
2.21065e-06
1.76484e-06
9.52058e-05
1.94497e-06
0.00102874
2.10621e-06
5.58255e-06
2.13727e-06
2.11104e-06
0.000990528
0.0144236
2.0789e-06
2.08533e-06
2.05467e-06
4.95399e-06
2.28382e-06
0.00198257
1.8512e-06
0.000212681
0.0019877
2.07852e-06
0.00745064
3.27705e-06
0.00590323
2.19432e-06
1.88423e-06
2.16435e-06
1.77606e-06
2.76106e-06
0.00291475
2.48877e-06
2.20526e-06
2.20755e-06
2.31667e-06
1.76688e-06
2.70702e-06
6.45695e-06
2.12407e-06
1.84237e-06
1.86981e-06
2.04696e-06
0.0060069
2.66412e-06
0.0102033
1.36078e-05
1.99953e-06
2.38115e-06
2.89183e-06
1.94467e-06
0.00144534
2.08519e-06
2.54112e-06
3.28108e-06
1.99781e-06
1.87347e-06
4.66919e-06
2.0333e-06
2.06413e-06
3.02601e-06
1.78997e-06
2.48095e-06
2.44043e-06
1.83457e-06
2.64678e-06
2.31934e-06
4.58868e-06
4.09376e-06
0.00147534
1.76994e-06
0.00406279
1.99393e-06
5.4272e-06
1.98332e-06
2.09321e-06
3.6092e-06
2.17588e-06
2.19951e-05
4.00485e-05
3.02203e-06
3.2724e-06
4.8893e-06
2.68386e-06
2.392e-06
1.90039e-06
6.64425e-06
2.18663e-06
1.90188e-06
2.54561e-06
2.38309e-06
3.60918e-06
2.06313e-06
2.11299e-06
2.30255e-06
2.15265e-06
3.05162e-06
0.0113243
2.49911e-06
2.7891e-06
3.54074e-06
1.72078e-06
1.64717e-06
3.59635e-06
2.16394e-06
2.40323e-06
2.01159e-06
1.76736e-06
2.1575e-06
2.04388e-06
3.08898e-06
3.129e-06
0.00351677
2.14698e-06
0.00658954
3.23686e-06
1.80115e-06
0.00510934
2.28875e-06
2.72257e-06
1.89799e-06
1.86415e-06
1.93315e-06
2.13131e-06
2.49946e-06
1.98653e-06
2.30864e-06
2.02816e-06
0.00273597
1.99218e-06
0.00154517
0.00131948
1.67537e-06
2.11435e-06
0.00488209
3.37922e-06
1.71184e-06
1.65022e-06
2.11169e-06
2.11722e-06
3.05199e-06
1.81375e-06
6.75964e-06
2.39703e-06
1.96896e-06
1.92066e-06
3.38372e-06
3.31278e-06
3.62434e-06
2.35121e-06
1.87031e-06
2.06959e-06
2.48091e-06
1.88674e-06
3.30022e-06
3.55418e-06
1.9705e-06
2.0553e-06
3.35842e-06
3.21464e-06
2.71548e-06
1.96583e-06
1.87288e-06
2.43825e-06
0.000146802
2.04339e-06
0.00407375
4.16095e-06
2.0874e-06
3.87846e-06
2.65836e-06
2.07989e-06
3.81988e-06
4.03017e-06
0.00372726
1.97497e-06
5.30577e-06
2.91754e-06
8.66171e-06
1.72104e-05
0.00244841
3.98466e-06
2.32837e-06
1.92149e-06
1.90806e-06
3.80357e-06
0.00512743
2.22962e-05
1.9926e-06
3.90818e-06
1.94976e-06
0.00647411
2.40462e-06
3.74562e-06
2.66536e-06
1.90805e-06
3.68964e-06
2.05706e-06
1.99926e-06
2.5867e-06
2.97132e-06
2.1951e-06
2.52305e-06
2.30798e-06
0.0063855
0.00681545
1.75014e-06
2.2028e-06
2.59053e-06
2.10181e-06
1.86532e-06
2.13282e-06
2.08849e-06
1.94241e-06
3.4554e-06
1.73591e-06
1.77335e-06
2.58621e-06
2.36024e-06
1.98339e-06
1.95519e-06
2.02801e-06
2.03052e-06
0.00252261
2.49554e-06
1.87572e-06
1.76253e-06
2.6011e-06
1.11058e-05
1.83841e-06
2.1806e-06
3.20303e-06
3.31231e-06
2.0367e-06
0.00373804
2.36325e-06
2.77529e-06
6.0895e-06
3.46911e-06
3.76212e-06
1.77778e-06
1.85874e-06
1.89621e-06
3.98058e-06
2.21064e-06
0.00329715
2.01899e-06
2.23356e-06
2.23456e-06
2.07549e-06
2.38325e-06
7.48669e-06
2.14297e-06
3.00385e-06
2.66433e-06
2.97768e-06
1.97101e-06
2.90738e-06
1.92476e-06
1.85644e-06
6.0341e-06
4.54862e-06
0.0049631
2.19399e-06
2.77397e-06
2.19716e-06
0.0024223
2.08419e-06
2.30367e-06
2.02679e-06
1.84433e-06
4.13223e-06
2.30536e-06
0.0027088
1.72292e-06
2.56036e-06
2.18204e-06
1.89473e-06
6.81662e-05
1.83215e-06
2.4618e-06
1.87177e-06
2.00918e-06
1.94074e-06
2.65514e-06
2.26387e-06
2.40771e-06
1.99958e-06
1.87379e-06
1.78995e-06
1.76725e-06
2.63546e-06
2.13198e-06
0.00190773
1.73786e-05
4.25148e-06
0.00397562
2.56941e-06
2.38231e-06
1.98654e-06
3.65664e-06
0.00190503
1.89954e-06
0.000640225
2.54434e-06
2.44347e-06
0.00676256
0.00820006
1.87991e-06
2.31597e-06
1.87689e-06
0.00284152
1.96169e-06
2.26827e-06
5.63619e-06
0.000235801
3.50694e-05
0.000252297
1.99973e-06
2.25279e-06
1.71066e-06
4.04996e-06
3.46861e-06
2.41759e-06
2.09613e-06
2.07668e-06
4.04025e-06
2.37331e-06
0.00366139
2.0044e-06
2.38821e-06
0.0021491
0.00268578
2.82235e-06
2.50385e-06
0.0031697
5.22181e-06
4.06244e-06
3.21831e-05
0.0011239
1.94003e-06
2.98411e-06
1.9595e-06
2.36949e-06
2.4498e-06
2.44773e-06
2.70373e-06
0.00393958
2.34797e-06
3.47883e-06
1.89953e-06
2.10062e-06
0.00155681
3.70358e-06
0.00541265
1.77172e-06
1.78136e-06
0.00375729
6.23515e-05
6.44715e-06
2.75936e-06
2.57583e-06
1.98926e-06
3.54449e-06
2.02973e-06
2.9304e-06
2.4218e-06
0.00379552
2.0447e-06
0.0104248
0.00542283
3.84952e-06
1.90844e-06
2.77326e-06
1.85977e-06
0.000111617
5.25439e-06
2.21325e-06
2.23479e-06
3.64104e-06
5.3095e-06
1.84087e-06
3.34347e-06
3.09996e-06
2.08679e-06
2.1177e-06
4.10516e-06
0.00316694
3.65684e-06
3.44518e-06
0.00158167
2.30517e-06
1.69177e-06
2.0537e-06
0.00163426
0.000301973
0.00166749
2.3086e-06
2.93711e-06
1.80428e-06
3.83006e-06
1.6977e-06
0.0159888
1.88646e-06
2.03375e-06
3.33997e-06
2.89726e-06
1.76273e-06
2.3805e-06
2.1514e-06
2.4563e-06
0.00477412
2.90093e-06
2.54099e-06
2.3512e-06
3.85842e-06
2.63802e-06
2.36272e-06
0.00171243
4.27644e-06
1.84419e-06
3.75614e-06
1.70619e-06
2.77217e-06
3.53218e-06
3.9276e-06
1.78841e-06
0.00643349
8.30396e-05
2.22199e-06
1.74553e-06
2.7224e-06
3.11711e-06
2.32513e-06
3.60707e-06
3.67717e-06
2.69204e-06
0.00263028
2.6615e-06
1.85458e-06
2.39008e-06
2.58114e-06
0.00174187
2.34067e-06
1.20024e-05
2.12749e-06
1.23997e-05
4.43852e-06
2.1777e-06
2.06069e-06
1.78678e-06
0.00425844
1.64747e-06
2.60633e-06
2.7225e-06
4.99681e-06
0.00312862
0.00737027
3.25124e-06
2.11638e-06
0.00377427
1.97381e-06
3.86486e-06
0.000683048
4.11567e-06
0.00623033
2.63245e-06
2.32839e-06
4.29397e-06
1.882e-06
2.30895e-06
2.41959e-06
0.00232684
1.83642e-06
4.2164e-06
3.02872e-06
1.98682e-06
0.000285733
2.51526e-06
2.78496e-06
1.78284e-06
1.70315e-06
4.23462e-06
0.00921148
0.00599969
2.40382e-06
1.85885e-06
3.67352e-06
2.36942e-06
2.26718e-06
2.19389e-06
6.13548e-06
0.00757445
3.2946e-06
6.84288e-06
2.12196e-06
0.00645596
0.00328466
2.23896e-06
2.20215e-06
3.67712e-06
4.11236e-06
2.44757e-06
2.35359e-06
3.90796e-06
0.00287506
2.7855e-06
3.98715e-06
0.0055293
1.72377e-06
0.00199042
0.000330456
0.00202644
2.20177e-06
3.0271e-06
1.91217e-06
1.81135e-06
2.41865e-06
4.22488e-06
1.91205e-06
2.30306e-06
3.60367e-06
2.69849e-06
0.00761575
2.25014e-06
4.57182e-06
1.99106e-06
1.7757e-06
3.09219e-05
2.08831e-06
0.00572482
2.0509e-06
2.46226e-06
2.41539e-06
2.21352e-06
2.10476e-06
2.03919e-06
2.06406e-06
0.00111923
4.35491e-06
2.1922e-06
2.21804e-06
2.71904e-06
0.00373325
2.369e-06
0.00990003
2.65565e-06
9.2429e-06
2.31952e-06
2.15912e-06
1.80224e-05
2.02445e-06
1.80585e-06
1.91007e-06
4.16043e-06
2.45169e-05
1.87414e-06
2.29803e-06
0.00748449
3.30228e-06
0.00183316
0.00215945
2.35305e-06
2.17394e-06
0.00898365
0.00220824
2.21991e-06
0.00298655
2.00671e-06
3.24867e-06
2.32672e-06
0.00977182
2.07157e-06
2.4741e-06
0.00129574
3.05548e-06
2.20867e-06
1.92437e-06
1.831e-06
7.78967e-05
0.00775506
1.90376e-06
1.8785e-06
2.21873e-06
1.94007e-06
0.00117244
1.94792e-06
2.01991e-06
0.00113678
2.32113e-06
1.85374e-06
2.68895e-06
1.88278e-06
1.75595e-06
2.27936e-06
2.87946e-06
2.18795e-06
2.1901e-06
0.00138724
4.99496e-06
2.08796e-06
0.00118822
2.9337e-06
1.81162e-06
0.000503336
3.71963e-06
2.76506e-06
5.39514e-06
2.67655e-06
2.18043e-06
2.15663e-06
3.49414e-06
3.0522e-06
1.85261e-06
1.87912e-06
1.92527e-06
0.00236237
3.43774e-06
2.38133e-06
2.43461e-06
5.58121e-06
6.40065e-05
2.33351e-06
0.00137957
0.000933831
3.42424e-05
1.83363e-06
1.82548e-05
0.00195445
2.29891e-06
0.000974728
1.03779e-05
2.34417e-06
0.00117358
1.88117e-06
1.97071e-06
0.00194654
1.99843e-06
8.56087e-06
7.07716e-06
0.00153045
1.78266e-06
2.42905e-06
4.1686e-06
1.05692e-05
2.27755e-06
2.40734e-06
0.00455264
2.05232e-06
2.40311e-06
1.82315e-06
2.76505e-06
3.08947e-06
6.90629e-06
1.89832e-06
1.94827e-06
2.6003e-06
4.45271e-06
2.26826e-06
2.30942e-06
1.9885e-06
2.93883e-06
2.26566e-06
1.70169e-06
0.00343239
1.74488e-06
7.94716e-06
2.15564e-06
2.61599e-06
3.12232e-06
1.8649e-06
1.6684e-06
1.9414e-06
2.39866e-06
2.03559e-06
3.15108e-06
4.68973e-06
2.02204e-06