/*--------------------------------*- C++ -*----------------------------------*\
| =========                 |                                                 |
| \\      /  F ield         | OpenFOAM: The Open Source CFD Toolbox           |
|  \\    /   O peration     | Version:  v2012                                 |
|   \\  /    A nd           | Website:  www.openfoam.com                      |
|    \\/     M anipulation  |                                                 |
\*---------------------------------------------------------------------------*/
FoamFile
{
    version     2.0;
    format      ascii;
    class       volScalarField;
    location    "200";
    object      omega;
}
// * * * * * * * * * * * * * * * * * * * * * * * * * * * * * * * * * * * * * //

dimensions      [0 0 -1 0 0 0 0];


internalField   nonuniform List<scalar> 
14479
(
0.0518635
0.0406955
0.0282285
1.44357
0.197725
2.84397
0.0222682
0.0218909
0.0225611
1.73303
0.127391
1.47116
2.36969
3.88311
1.29054
6.89128
0.821762
17.4917
2.42995
0.115808
0.0220551
0.0241018
5.25064
0.242501
0.0225933
0.0651922
0.0583131
1.72841
1.17378
1.2684
19.1244
2.05085
2.2637
0.0219783
0.0235682
0.0223367
0.0221356
3.7012
0.0278923
0.208855
1.27426
0.0275031
0.0308938
0.0261365
9.90776
0.0841132
8.3556
8.02129
0.0239427
0.077117
0.022129
3.14633
0.317724
0.126826
0.0238606
0.0224056
0.0894893
1.61749
0.0234186
0.127043
0.0280427
0.022509
0.460388
0.149825
3.35164
1.8833
0.0362984
0.029394
6.5925
4.26141
2.72284
0.126984
1.47782
8.36617
0.0220591
0.0225501
2.74745
1.39459
1.76197
2.83487
11.6003
0.0221675
0.0355976
0.126949
0.0236272
0.0779748
0.176313
0.0221252
2.90928
0.0222621
1.892
1.81668
5.12111
1.2888
0.0363622
2.16431
0.023468
1.9504
0.031267
1.71044
16.778
1.60808
0.125915
0.0219576
0.0321743
0.0232174
3.34245
1.57823
0.0932052
1.28907
0.0313355
0.0242604
5.96171
0.136444
0.0587323
0.0263689
0.0225058
0.354726
0.0242067
0.149514
0.0234331
0.0221247
1.91877
0.0319015
1.3803
0.0221428
0.0276131
0.0224252
0.022039
1.61026
0.0224088
4.11063
9.44303
0.0222042
0.0891028
0.108011
0.479414
0.0227032
3.13308
1.46543
0.0229031
4.08694
0.0270407
0.378801
0.132514
0.0235379
1.43464
0.0226252
0.0477585
0.0238141
2.0908
0.0284055
0.0220583
0.265492
0.562803
0.0428964
1.7456
0.0222735
2.51547
1.82087
1.73002
4.34932
1.85073
0.168589
1.63726
5.62053
0.0220966
7.97411
0.0221429
0.0235718
0.022618
0.0770132
0.0223575
0.143052
0.022262
0.248638
0.0221168
0.0239817
0.112635
0.0238487
0.528615
0.0220563
0.02414
3.71377
0.0221001
0.0792203
0.0306994
0.026841
0.389623
0.584354
0.0221187
1.7956
0.0323387
0.0222766
3.73693
1.78537
0.389948
2.12425
0.033554
0.0222409
0.0260014
2.70645
4.34281
0.311473
2.93237
0.0254106
0.0227142
0.131425
0.0240328
0.078055
1.35476
1.78541
0.0242052
0.0291407
0.0221308
0.153022
1.72318
2.51176
0.0221326
0.0463735
0.371783
1.42286
1.86263
0.0393887
2.00073
1.57337
0.024073
0.0239325
0.072592
0.022121
0.0234603
0.0222405
0.0363981
3.77088
0.0264543
0.0253862
0.0914336
2.2815
0.0221248
0.0234799
1.53691
0.129191
0.031952
0.0693763
1.763
1.36181
0.0226292
0.0222672
18.3864
2.56825
0.0218219
0.121631
0.0220895
0.0220962
2.72803
0.290317
0.0221453
0.490146
0.0676995
0.253787
12.0101
5.33076
2.95542
0.0885612
0.0221474
0.0383694
0.0221397
1.82933
1.25666
6.38445
1.46313
0.0224534
2.66715
0.0230916
0.0239531
5.89862
1.65886
0.0232762
1.71977
1.35465
3.04911
1.71693
1.70728
12.6347
0.0221931
0.0221359
3.16806
0.0228365
1.65002
3.05823
1.83934
8.14286
0.108861
3.7647
0.0223415
0.0479968
0.0226207
0.0647937
0.0221502
0.0340452
0.0221434
1.68699
0.0225268
0.0531866
0.0463297
3.29699
2.46176
0.295767
0.0255772
0.0272838
1.40558
0.121256
0.159861
0.0227026
0.0234476
0.0222678
1.49364
0.0563627
0.0221121
0.0220444
0.0239181
0.0221269
0.0235298
5.83639
0.274729
10.3713
2.59436
0.183363
1.75476
0.0223568
0.044106
0.0603077
2.15658
2.742
0.546861
0.0221158
0.0301646
0.141159
0.275454
0.0604568
2.71807
0.0358918
2.71166
0.0219799
1.25995
0.0222323
1.78018
1.82155
0.0222591
0.0627835
1.26618
1.76975
0.028049
0.0221297
4.08695
0.022084
0.0223362
1.4263
0.0274661
0.0224572
0.0225016
1.31312
1.97827
0.0225516
1.78052
0.0360374
0.064797
2.81687
1.83921
4.58046
0.170099
2.25135
0.0843709
4.55644
4.91723
5.84902
0.118959
0.0546309
4.00737
0.0225614
0.0226077
0.0371387
0.158951
0.0647467
2.13168
0.123058
0.0220875
0.257201
0.0221028
0.148368
0.0653951
0.0421906
1.94176
3.69744
4.00697
1.82691
1.07864
12.2449
0.0223622
0.0221748
4.81701
3.0228
1.24271
0.0364642
1.91524
0.0269065
2.42429
1.74975
0.0785648
0.0222778
1.7456
2.69314
0.0220991
0.022166
4.5018
0.0219733
0.674746
0.30871
0.0221799
0.0335012
0.0300553
0.040487
3.20907
0.127841
2.38402
0.0399127
1.40971
0.0220764
0.0287939
0.540612
16.2636
0.136916
1.7765
0.025074
0.0399558
1.64974
0.0526118
1.84755
9.23414
0.272616
2.6548
1.73434
1.68827
0.0220721
0.138906
0.033294
0.069137
1.24555
0.0306666
0.0268761
0.0221363
1.39465
0.136498
0.123932
0.0222934
0.243983
0.0225585
0.131517
4.3302
1.39563
0.0310917
0.0224331
2.59412
0.175786
3.11618
2.90952
0.0294429
1.53455
3.21146
0.022077
0.0224458
0.0220128
2.14141
1.54248
3.67014
1.63812
1.44419
2.61951
0.0543409
0.300062
0.0242736
1.7471
0.0690335
0.221676
0.026389
0.074893
0.0223221
6.03037
0.370729
1.78132
4.47472
0.0221742
0.0219753
1.71014
6.2609
0.0228824
0.0511611
1.49937
0.225555
0.0300444
0.0271255
0.235735
0.0315838
0.022279
1.47948
4.61748
2.07144
0.0422319
0.0234355
1.44075
0.0391104
0.0794911
0.0361837
3.52456
0.0222348
0.0221217
0.0221813
0.0221463
11.4549
0.150893
2.37643
1.43239
2.50494
2.11163
1.76488
1.65466
0.0224984
0.0307573
4.61136
1.28319
0.0221502
0.158051
3.48608
3.96678
0.0526068
0.117378
0.2104
6.90355
0.597908
2.83805
3.9557
2.40426
0.0458947
5.67884
0.0226822
0.0221025
2.77189
0.0221333
0.0250532
0.0458617
0.0402069
0.287054
0.0220723
0.022117
1.18242
0.0225311
7.63879
2.74714
1.5226
2.40257
0.0393435
1.40787
0.0312444
1.80699
0.0225615
0.273156
0.055042
0.0222115
0.0229408
0.0319615
0.0305929
0.022091
1.71404
4.45197
0.0307898
1.65668
2.24192
0.0224612
0.0310313
0.171758
1.64026
0.0225248
0.0559607
0.0298448
2.51543
0.0225128
0.0220651
1.80706
1.8135
4.99795
0.0643875
0.022183
0.0221749
7.85089
4.20005
4.19663
0.0219771
0.0221403
0.0259484
0.0223404
1.70264
0.0221226
5.76575
2.2551
13.7373
0.022158
2.18302
1.3984
0.0234832
0.0731415
0.0230487
1.54172
0.0498547
0.0221225
0.0221196
0.022169
1.74321
0.297337
1.88414
0.0222737
0.0220816
0.0594742
0.0448057
0.0297003
1.66903
7.98762
0.0223533
0.0220815
0.0351131
1.80981
0.0637742
0.0367673
0.0221863
0.483596
0.0462689
0.022094
0.0219557
2.89758
11.1624
0.0221417
13.7181
0.297778
0.022095
4.51524
4.70352
0.0224709
0.0253846
0.0229275
0.0381374
2.3323
4.8669
0.176272
0.0220825
1.57517
2.84599
10.8027
1.48559
0.0515871
0.0221583
0.0270067
9.97671
0.0219124
0.0228986
1.68321
1.44701
0.0258131
0.0229669
0.474187
2.43284
0.0220624
0.0219736
0.0307304
1.92042
1.29461
3.79922
0.240006
1.49462
0.0352687
5.17658
0.0681178
0.0222961
0.0305092
2.43284
0.0221292
2.56174
0.0318569
1.35438
6.08239
0.053168
4.58244
0.0228834
0.0474869
1.7947
2.0954
2.79263
3.47197
1.54185
3.60061
0.0276825
0.440134
1.36878
1.33429
2.48446
0.0221608
3.40342
2.53227
0.292216
2.55393
0.0266732
12.5267
0.0220654
0.0267196
2.68184
2.71018
2.77327
0.0227995
0.0226983
2.75924
1.74034
0.157772
0.540176
5.12836
0.025775
1.70769
5.1793
0.0239977
5.97826
1.73396
2.95125
0.0220328
0.0232828
2.70588
0.0222714
0.0221391
0.0219393
0.0224691
0.0611949
0.0645599
0.0257192
0.0221094
0.0222584
0.0221751
0.0222841
0.0222772
0.0236698
2.00469
2.74033
1.27422
1.42433
1.54524
0.200693
0.0340248
0.0225169
0.0247834
0.0657856
3.81648
0.0276883
1.76637
0.039246
0.0307241
0.455702
0.0372216
4.74948
1.37363
0.0222548
5.44817
0.022107
1.83049
2.90408
0.1441
0.0890912
1.73948
1.83736
0.0511906
0.0222766
6.232
1.75894
1.57424
0.0238493
2.78736
3.87967
0.022247
23.7567
2.2904
0.0219715
0.0449599
1.32253
0.224452
0.0278795
1.51164
0.0220822
12.8218
4.43013
1.70121
4.8464
7.56195
1.29412
0.431952
0.338504
0.178989
2.00897
0.059603
0.0766609
0.109864
0.0224877
1.4893
3.13838
0.0219699
2.07027
3.30463
1.28921
2.4084
0.0232665
0.0378682
4.06862
1.71971
0.0864239
2.56548
0.0550146
20.8629
0.0259192
3.48017
0.0269098
1.81312
0.0389124
12.1696
0.140303
0.0238141
0.0591206
0.0222572
0.0896448
3.04736
24.6199
3.33425
1.38766
0.14583
1.84592
0.0254745
1.75683
0.558558
5.64246
0.0225905
0.0345041
0.101806
4.34579
0.024521
3.94451
0.361393
0.0219691
0.0689386
4.95467
0.134976
0.368508
3.84987
1.31776
0.022657
1.70656
0.0296091
0.0220258
0.0581058
0.0226081
0.0293957
0.0252962
2.78678
0.0319416
1.73513
0.0228859
0.0219678
0.0221288
0.0222248
2.28837
1.51455
2.63184
1.71671
1.51792
4.25238
0.0624892
2.00127
4.23353
2.13896
4.11888
0.487759
1.47328
0.0385806
0.0223252
0.0225341
0.0222675
0.110554
0.104477
0.0224249
0.075502
0.0549174
0.0827645
1.31335
0.0225225
0.022248
0.0861592
8.5933
1.35666
0.0355461
1.28893
0.0220214
0.1263
0.0228926
0.0243372
0.0221265
0.0247671
0.0507595
4.3783
1.84713
1.71919
3.07055
0.0220791
0.102926
1.30144
0.0221688
0.0221508
11.8668
2.18116
6.6774
0.0253684
0.553561
1.74438
1.02992
0.0219481
0.0221234
2.9447
0.302382
1.3703
0.0323312
1.81297
2.62638
0.0883913
0.0220118
0.520919
1.47319
3.40599
3.44908
1.35866
0.367389
0.0249178
19.9754
0.0222615
0.0346591
0.0219392
0.0279375
6.98591
1.70535
0.285606
0.0221247
3.68169
0.0309367
1.65778
1.93646
0.069639
0.0242665
0.069601
1.72442
0.0221084
0.0235605
0.0225602
2.72561
0.0220372
0.0222735
2.0153
6.59987
0.237175
0.0611742
0.0222616
0.0223524
9.07632
5.18826
2.5818
0.0222437
0.670951
1.46268
0.0323856
0.0218698
0.0335449
26.1207
0.0832487
1.78528
0.0257944
1.2813
0.13173
0.0408639
0.339466
0.107073
0.0221741
0.276274
0.0222553
0.0314717
1.97817
1.9711
0.0221552
1.06997
0.0225377
0.0323968
0.0222327
0.025341
1.72044
0.0223022
1.46436
0.0392702
2.81269
0.0220221
0.0729952
2.30464
0.0220758
0.0285211
1.84712
1.85235
0.0592223
2.26906
0.0543094
18.5742
0.0226344
0.0392651
1.4902
0.0677092
0.0221632
0.022488
1.69582
0.022073
5.38346
9.20644
0.107272
0.0505679
5.33227
7.59296
1.80469
0.0222566
0.0502819
0.0743427
0.0381689
0.0221558
0.0925109
4.48618
0.0736716
2.1361
0.0244762
1.4509
10.036
0.210769
0.276284
1.01955
0.0221741
0.168191
0.0604411
2.68131
1.77394
0.0280306
1.70409
1.49212
0.0576757
0.571432
3.26802
4.53964
0.521452
0.0224382
0.37822
0.0221702
0.0221327
0.0277999
0.0221611
2.98558
2.54169
3.96163
1.77575
2.34093
2.35938
1.39277
2.2236
0.0676295
0.0409338
14.2595
2.53876
12.5326
0.0221986
0.0222794
1.67227
0.0257827
0.0397207
0.022121
0.104441
0.0229072
2.16234
0.0338195
0.2338
0.0337292
1.70977
0.285505
1.95879
0.022252
0.0242057
0.116156
0.585096
0.0226762
0.0369116
0.0413641
0.206599
1.78017
0.0265019
0.0220232
0.0564589
3.38661
0.0221575
0.0501898
3.01851
4.12941
1.2631
0.0379784
8.93946
0.0220022
0.0222403
3.09155
0.181725
0.111038
0.0221263
0.107011
1.64997
1.40601
4.39057
0.0225154
0.0222282
3.13562
1.35776
0.115943
1.39657
0.0736438
0.0222362
0.0262935
2.59851
0.0230797
1.70577
0.243707
0.0252999
1.40025
0.370568
1.35326
0.0222584
0.0390111
0.715672
0.0333969
1.72263
1.3823
3.67529
0.0409852
0.0559035
0.0263741
2.41295
0.0221298
0.0380701
0.113203
0.0220875
0.199813
0.0243659
0.02229
0.696143
1.84071
2.52123
8.76656
0.722609
0.0311619
0.0621728
0.022167
0.029933
0.0219347
3.32536
0.207483
0.0391735
0.0352921
0.0585003
8.42771
0.129463
0.0220573
1.25899
1.95864
1.48876
0.0221315
0.0222331
0.0237702
8.38855
3.56633
1.47896
0.24043
10.6035
0.131023
0.0228108
0.0364137
0.0312793
2.68
4.20763
1.36891
0.0240746
0.035177
0.0231092
0.0219824
0.0221732
0.022039
0.0220192
1.42705
2.76382
0.0538707
1.81172
1.27507
0.0272367
0.0358979
8.89354
0.0223332
0.0280811
1.78697
0.0221296
0.0220335
0.0361325
1.69836
0.0220625
5.56626
0.234231
0.0221559
0.0220694
2.64362
18.5463
2.09105
0.0303311
0.022132
0.345346
0.0318002
0.0220315
1.45731
0.0224115
2.05478
0.156663
1.39493
0.0540137
2.21758
0.0366286
0.0218011
2.12267
1.47232
0.0234115
2.74861
0.0865039
0.0347038
1.94639
0.023214
0.0221132
1.29709
5.93539
1.48593
1.83188
0.0219517
0.083612
0.392814
0.726859
2.09253
0.0369942
0.0283045
0.0959634
0.0379366
0.0384974
0.0302634
0.0222247
3.26631
0.0312606
0.0221112
2.44046
0.714205
0.409791
1.22225
0.0291288
0.0222663
4.65888
0.0496411
2.5143
0.116434
1.38328
0.45882
0.0226181
0.0394199
5.18154
7.83419
0.0297979
1.72784
1.74082
2.75166
0.0219741
0.0220271
0.132917
1.63346
1.92747
3.34069
13.5121
0.0219569
0.0221611
1.74289
0.140742
1.04261
0.333191
0.0240778
2.24956
0.0606243
0.0820245
1.77867
0.0221841
0.230477
0.0390601
0.0595775
0.0576409
0.147863
0.0221292
1.4958
6.34272
1.83106
0.0693476
0.0224254
0.0356671
0.0401578
2.18974
0.0231673
0.0221434
0.0431014
7.75276
0.0221075
0.374078
0.0492056
2.3397
1.53001
1.37382
0.930732
0.531297
1.30651
0.0227694
0.0220975
0.484321
0.0225791
2.34109
2.8058
0.0220801
0.0409861
0.0222763
0.0221417
2.19395
0.0887485
2.90039
0.0232023
0.0859218
0.0221602
1.59643
0.0225023
0.0361693
1.89074
0.023338
1.40926
1.14598
0.156276
4.13629
1.67518
0.0321627
0.0220823
4.58007
0.0516222
13.033
0.0266059
3.3602
0.0221812
1.51338
2.80947
0.11165
1.72865
1.40271
0.840146
0.0238921
1.83858
0.33851
1.41754
0.0221124
0.0235737
0.0616869
0.41996
2.88242
0.128999
0.024211
0.0994909
0.0254619
0.0359999
1.35684
0.0500796
0.0224272
1.32573
1.15742
5.76717
0.0616865
1.73366
0.0612462
1.66751
0.0550709
0.0350052
0.0292362
0.556996
0.0596607
18.9352
2.91455
0.123417
0.0221388
12.9998
1.41443
0.0742047
0.0220662
1.50878
0.498573
0.0329427
0.0220659
1.83686
1.3592
0.147613
0.707735
0.0972543
0.0261426
1.65866
0.660717
1.81807
9.92551
1.62105
4.12433
13.2099
0.0297606
2.70524
1.27804
0.0629093
2.25031
0.0222579
3.20197
2.01462
2.81926
0.0221439
0.0256351
0.0583772
0.0238386
1.72788
0.0602078
0.603047
0.0336494
0.138579
1.23003
0.0243315
0.0224334
0.0219731
0.0235238
0.0463231
4.73222
3.17588
0.0345988
0.0356135
0.0288797
5.46425
5.94392
3.77494
0.120997
0.0221022
0.0306056
2.61246
0.208977
2.10983
1.41115
0.0224684
0.214836
2.19461
1.66667
0.0222691
0.022127
0.0239887
0.0850648
1.57858
0.0220583
0.109795
0.0246679
0.0221169
0.0226972
1.69155
0.022152
1.89746
0.0226793
0.0253036
2.80802
0.0220513
5.26305
1.40043
0.136948
6.38579
0.0338684
1.78914
1.52727
1.5178
1.54649
1.6708
1.40237
2.40214
1.29869
0.117161
21.8278
0.110323
2.96089
0.198266
0.116914
4.31885
9.79027
2.77405
0.122465
1.64363
3.85007
16.8138
2.2577
11.9017
6.00371
0.0221579
0.478033
0.0225721
3.15407
1.3545
0.0258975
1.84142
0.677535
0.0260336
3.12124
0.0220488
0.0877083
1.34889
0.0226935
27.5099
21.5688
0.186847
2.20283
0.0228764
0.0610415
2.2629
0.0222478
2.44716
0.129623
0.0233856
3.65364
0.245096
2.66118
8.70769
0.148093
3.33508
2.935
0.189456
8.79079
2.2988
0.0567411
0.0221692
0.0238592
1.4569
3.85883
0.0275831
1.44347
0.0222146
2.76673
1.23447
1.77565
1.73076
0.0267373
2.40836
0.0557038
13.1462
1.46717
1.78066
0.0390163
1.69535
0.0316869
0.0667684
2.25066
0.10538
1.83018
0.0886307
0.0316417
2.80431
2.13113
12.6723
0.0492754
0.0410383
1.60131
0.0222719
0.0222896
0.0303504
0.0224056
12.7074
12.795
0.0222673
1.27079
1.96488
0.0567864
0.0286759
0.0245668
0.267088
0.0250974
0.0221578
0.0222078
3.12077
1.78545
1.54512
0.0313804
1.34606
4.01368
3.78411
0.022052
0.0218581
0.022097
0.0850502
0.0541113
2.32791
0.0648806
0.0301029
0.253739
0.0229319
0.0221525
0.0255612
0.11765
0.0691479
1.41716
0.977429
0.0221584
4.8082
0.0434965
0.0907309
0.105388
0.0448227
0.0263536
1.7773
0.0222913
0.0222515
3.86346
15.0194
0.0568391
1.47457
0.0503512
1.60382
0.20615
1.8219
1.53359
0.0221198
3.06913
0.0219741
0.0221354
3.8134
2.18956
0.0221403
1.55235
3.28212
0.121986
0.0222293
0.978772
2.02636
0.0948666
1.27965
1.41353
0.0220303
1.32587
0.0443442
1.49749
13.7475
0.0221764
6.52947
0.0324002
0.0222102
0.0254484
0.0221018
0.210178
1.67246
0.0223023
0.162793
0.255407
0.0383459
0.02502
1.41092
0.0218346
1.51455
13.0092
0.0385538
0.0547306
0.0220332
18.2093
0.0221652
0.0640314
0.024386
3.69702
0.794911
1.48557
0.0512227
11.2087
15.0405
1.23877
0.021847
5.13028
0.154252
3.14081
0.0236224
3.90034
3.03658
1.31393
0.106121
0.0221127
0.0222331
0.11033
1.44826
0.0222567
1.40445
0.0226306
2.19482
0.0272131
1.42595
0.0773015
0.0220397
0.0228356
2.6888
3.92871
1.57411
3.8137
1.77265
2.018
1.21016
0.0512074
0.0221384
0.0266066
0.0257712
11.1902
2.45393
0.0710267
0.0288863
6.14937
1.38858
1.31055
2.88795
1.47142
0.0219423
0.023789
0.044288
0.0844692
1.55779
0.0223993
2.47496
0.0221519
1.94817
0.907316
0.0251332
1.44949
3.53646
1.25645
1.54527
0.035491
0.127564
0.0257346
0.0496549
0.101345
1.8192
0.252262
0.244167
0.0221489
0.0220212
0.039141
12.4081
5.30311
0.164815
0.0220591
0.0225477
0.0222807
6.79418
0.512079
0.0246249
0.0902007
4.31667
5.06413
0.0411192
14.4833
3.68015
0.0222082
1.57279
0.0989338
0.0221147
0.022491
0.0282432
0.0222013
2.32304
0.0231653
0.0248254
0.0223241
0.0349186
0.0221815
0.0226097
1.59723
0.023955
1.55872
2.04695
0.0244405
3.17725
1.3856
6.88811
0.0304511
1.45706
22.4319
1.8906
20.5991
0.0222598
0.153392
1.74099
0.0221626
0.118233
0.0259375
0.737952
0.0817176
0.0360445
0.0548936
8.89155
0.0820663
0.121254
0.0274391
2.8551
0.0379607
1.43995
1.47143
1.79854
18.7283
0.0222757
0.0289964
0.0221599
4.01566
0.0223535
0.095833
0.0678535
19.3132
4.59322
1.38912
0.0243092
1.70211
21.1992
0.0232643
1.80832
0.214798
2.2106
5.95394
0.025061
0.0235729
4.757
1.2857
2.20798
1.60843
1.65656
0.0221224
1.67098
2.58523
3.13282
1.76121
0.0267134
0.0301738
0.0433982
0.0228797
0.129272
13.0553
0.131469
0.030302
0.0221543
7.42947
1.75969
0.212715
2.95288
0.0399716
1.23336
3.0487
0.0222529
6.02735
1.42574
2.48478
0.0582842
18.4671
0.0221702
0.0504035
1.73217
1.42638
0.310425
0.102784
1.60379
8.41855
1.97736
0.0226415
19.5009
7.31653
0.36327
17.5648
0.0296419
1.09863
0.0224422
0.0289595
0.0224761
0.0595635
0.0229635
0.0474791
0.0944631
0.16687
0.0236801
1.69565
0.0309125
0.0222168
0.024393
0.0489869
6.08686
0.0221286
1.24678
2.93707
0.127973
0.0285275
1.24644
1.34644
0.0222588
0.051377
0.0222499
0.0260174
2.59763
0.82359
1.96934
1.75802
2.07851
0.022167
8.62888
0.0224657
0.0368936
2.66264
1.29915
0.0231852
1.20511
0.0926427
0.0227516
0.222373
0.0224098
3.32488
0.0230705
7.88042
1.8653
0.0280294
2.44328
0.0222301
0.0221475
2.56021
0.0495232
1.38804
1.59358
1.71528
0.0220226
0.0598642
0.0564242
0.0382488
0.0319256
14.9429
0.0458422
0.022232
0.038379
0.065515
1.33087
4.00039
0.0222233
0.051726
1.47227
2.76499
0.0524742
1.43233
0.0236643
0.0293141
0.058675
0.0221564
0.0314301
0.022256
1.73601
0.0704546
2.53009
3.83006
1.81086
1.89122
0.0220224
0.0262487
0.0481284
0.0221593
0.317499
1.76613
1.60023
0.0260621
1.01955
0.0221408
0.214742
1.25621
1.55159
1.57064
1.82586
3.01271
18.1291
0.0256906
0.022149
1.27122
0.0274416
0.0222434
0.0221376
3.70829
0.217495
0.103298
2.00371
0.0221607
1.43188
0.0563861
1.80224
2.93695
4.86204
0.0279753
0.05911
2.9079
0.0531825
0.28521
0.144431
0.0341329
0.125082
0.0301182
7.4727
3.08025
1.74848
0.0493459
0.0220812
14.4061
2.98061
1.52362
0.0222399
1.3398
1.72652
1.38884
2.25468
1.88251
0.0300227
1.68981
2.96101
1.9042
0.0225959
4.24371
0.0229038
0.442518
1.89982
8.37392
2.55413
0.0222864
0.0349292
0.0731468
1.64033
0.036364
2.06567
0.0246623
0.343886
5.5961
0.0224265
0.0222036
0.10944
0.0248898
0.0232715
4.34552
2.49538
0.0487322
0.022777
1.40958
0.0241532
0.0221402
0.0232086
1.67524
1.42485
1.5821
0.0229963
6.77848
0.022263
2.27338
2.74936
0.0221928
0.0421815
0.0302884
6.17936
0.0502377
0.0768271
10.184
0.0230715
5.61128
0.0219824
0.0227717
0.0220593
0.0221525
0.0224658
0.0233454
0.642004
1.89897
0.209801
0.0383698
0.142642
10.3282
0.88145
4.23257
8.54806
0.0221938
3.08573
0.113492
4.69759
0.028394
4.88417
0.0239727
0.0886535
0.0281494
5.41418
0.0221056
1.27697
18.81
0.0240942
0.0751152
4.3297
0.0474924
0.033047
0.0222434
5.36289
0.0234352
0.521026
0.0222808
0.0232458
1.41308
1.92135
2.51282
0.0222896
0.0257924
3.34406
0.0221604
0.0220456
12.5206
3.6048
1.58035
0.022238
0.0351084
0.0221527
1.71868
0.049257
0.0232016
2.21825
0.373427
0.0464577
1.6941
0.092502
0.02216
0.0281715
0.022203
1.6015
0.0220907
0.0245397
0.0221914
0.166111
0.0221741
0.0221292
0.023414
7.18225
0.0351745
0.0252551
0.0558556
0.111045
0.0443132
1.34437
1.87909
0.0286404
0.0221858
0.0567994
0.213516
0.0990048
7.95711
1.42779
0.0232179
1.57739
0.0220642
2.26181
1.76745
1.80321
0.0230824
1.46461
0.0221341
0.0280927
0.0483492
0.0557656
0.0399541
2.44518
0.0240973
0.0258974
0.142396
2.2673
0.0450928
0.0700492
8.50254
0.0255044
0.773083
0.0323143
1.11972
0.0290325
0.799812
0.313062
0.205615
0.0314378
0.0236048
1.77734
2.24842
2.5196
0.0236242
0.0676826
19.0236
0.0466874
0.0219801
0.0548982
0.0238334
0.0233896
0.130311
0.0724683
1.52263
1.89564
14.2369
0.0248507
2.73103
2.50728
2.31845
2.32367
0.0236445
0.0221506
0.0224534
11.274
0.519123
0.0341776
5.3168
1.72717
0.0236745
0.0465253
4.37364
1.63629
0.0225593
15.7697
0.0220558
4.5026
0.714076
16.6985
0.0364196
0.0528959
2.76347
0.260231
2.42731
2.48149
1.34282
0.0236051
0.0261023
0.0566493
0.0222793
0.0368574
3.04069
1.95706
0.0222644
0.0220754
0.161864
1.46838
0.278382
0.0360202
2.55785
0.0247176
2.27454
0.221408
1.3491
0.0224989
0.0244726
2.30806
15.6808
2.55638
1.84854
0.238497
1.6333
3.76322
0.0220318
1.4044
0.0399561
0.02207
0.0220217
1.17131
0.311569
0.0220162
0.0221617
4.21061
0.0231553
0.329572
0.0226152
0.0223301
0.266324
2.23625
0.0225037
1.81509
0.690681
0.0220325
0.0399425
0.195911
0.136679
0.123043
2.46279
0.0239914
0.930481
1.34477
0.252284
0.0238271
1.36615
0.0232413
0.0876431
0.0236967
0.686235
4.08835
0.0224245
0.390245
2.04084
0.029193
0.0221194
0.03362
13.9534
2.28302
1.832
0.111795
0.445301
7.9294
4.96427
0.0226403
2.40458
0.585036
0.105463
1.78172
0.353815
1.1147
1.71498
4.69541
0.0382476
1.67006
15.7781
15.986
1.78565
2.30597
0.0241197
0.043403
1.70494
2.2282
0.0221485
0.0222966
5.90441
0.0222629
1.49424
1.77691
2.45517
3.48308
0.0327943
0.603985
2.41335
0.021966
0.0222582
0.0504462
0.344197
1.59868
1.47717
1.14431
1.77207
0.0350136
1.63102
1.59879
1.84215
0.0603973
0.0527083
1.75018
5.03356
0.0228443
1.35331
0.144011
0.0494194
0.0222046
2.71019
1.74116
0.0221409
0.0222027
0.0229648
0.0222329
0.932516
1.76933
0.0341954
2.15928
0.397411
0.0221466
1.57407
0.0274567
0.0250025
14.4886
0.0221788
0.0257102
1.26434
0.0615339
0.132767
0.0226102
0.0224445
1.51195
0.0549082
3.33663
1.39495
2.21205
1.63969
0.0217973
2.74252
0.0234961
1.75484
0.0221359
15.6614
1.39711
0.0253988
1.74134
1.85557
0.0253449
0.219407
0.0219604
5.85472
0.339843
0.0312366
0.0221153
0.0531417
0.0222756
2.27888
0.0467958
0.0220685
0.0222602
3.02329
0.26687
0.0414632
0.0219914
12.0244
0.0269111
1.27843
0.0237615
0.0262168
0.0259975
0.0511135
0.0222359
0.266947
0.0257914
1.79598
0.0254354
0.024961
0.813358
2.81938
0.0233714
3.02206
0.026315
0.0418942
0.0221328
1.39085
0.506954
0.181762
1.68438
0.0220741
0.200849
0.238294
3.86015
1.22105
0.0221507
2.06558
1.41139
0.0572664
2.59088
0.0308576
0.0558788
10.7188
0.0218368
0.0252596
1.01721
2.84887
0.0226258
0.0571846
1.28149
0.0238485
1.53273
1.91616
2.8576
0.619173
0.0244897
1.58755
0.0251176
0.0237984
0.518619
0.103135
0.0566471
0.022908
0.0398043
0.053035
0.022274
0.0224308
0.0299446
0.0369779
0.0221503
0.025247
0.0223149
0.129268
1.42675
0.0575543
0.0219953
0.0904677
1.67104
0.0382735
0.0227948
0.0222368
0.879044
0.0217948
4.48122
0.0229562
0.0503801
0.0220186
0.095468
0.0837587
0.0350657
0.0831747
0.0292329
1.81672
7.57854
0.0221398
0.0221566
0.0226812
1.34635
1.54345
1.61883
0.162212
0.182265
0.0219779
0.0225524
0.423435
3.08225
2.61055
0.05416
2.44394
0.0221949
0.345303
0.0220312
0.262016
0.0560498
1.92729
0.0237482
0.0483371
0.0220621
0.263012
4.50435
0.0342983
1.32805
2.29417
1.71605
0.40334
0.0293736
0.0299151
0.0221623
4.15442
0.0286259
0.117524
0.527981
0.0368941
0.0222271
0.0251983
0.0224118
3.82204
0.0260881
0.0235256
2.04055
0.0221082
0.0400016
0.0948718
0.0250179
0.220106
0.022348
0.0531799
0.0292674
0.0982373
0.0222434
0.022239
0.318009
0.208509
2.26972
0.629204
0.826151
1.7311
0.022185
1.6832
0.185289
3.13551
0.420954
0.0243228
0.0657648
0.0276144
0.0225909
0.022608
1.84857
0.175879
0.037518
2.06321
0.025756
2.74494
0.0331213
0.0544172
0.023776
9.67648
2.04763
2.75018
0.0258586
0.0220453
0.0364092
0.0240125
1.42716
0.179534
0.0310538
0.0222092
0.171263
0.102699
0.0229164
4.83386
3.25851
0.0461453
1.83107
0.0469001
1.4365
0.0280873
0.0594161
2.61259
0.149439
0.0389774
0.525041
0.110894
0.0257975
0.0221101
0.0221151
0.160205
1.97162
0.0366684
4.03187
1.38002
0.113299
0.052166
0.0248774
0.0222417
0.0241125
0.0967469
0.208527
0.0765288
1.73877
1.78825
0.0221837
0.0224586
3.49628
0.023048
0.0219535
0.0225019
0.166655
1.75747
0.0233461
0.32918
0.0220292
0.0241219
0.0555804
9.2306
1.47136
0.116734
11.7522
0.20898
3.39285
4.92311
1.37361
0.0220279
0.0221294
0.0238727
0.0498508
2.08648
2.78268
1.43552
0.0358769
0.0225799
0.0228575
0.0502429
7.12724
0.0222154
0.0548984
0.099693
0.0360256
0.0222433
0.0345429
2.16826
0.0233815
0.0225958
0.0223012
0.0222354
0.0221522
1.8306
0.0507078
0.879563
0.0459211
0.231548
1.28932
4.75265
0.0230429
13.0262
1.27028
0.294506
0.117776
0.102825
0.0231679
0.0484177
7.73057
0.0224333
8.86397
0.0587398
10.8401
0.0227034
1.74292
0.0267225
0.0792625
0.235184
0.0220576
0.0665485
1.85772
0.475566
0.416784
0.0252079
0.0221418
0.652901
0.0232171
2.34241
0.0237935
0.0523078
0.584437
0.289875
0.0221357
1.19393
0.301724
0.0224109
0.0655842
0.0832617
0.211728
0.0223739
2.99135
0.0286164
1.76963
0.0221245
0.0249499
1.38322
0.223462
28.3611
0.0221417
1.44405
1.42115
2.08899
0.0284891
0.0390464
2.59627
3.52391
1.23486
0.0221696
0.111397
0.360998
0.0385826
0.025005
22.6567
0.0985341
0.0220829
0.0264774
2.21818
0.0221389
0.0220501
0.134236
2.73461
0.0221337
0.085615
0.0235331
1.98652
0.552757
2.80148
0.0558873
0.0221295
0.0423964
0.0378229
2.34499
0.0878719
6.1646
0.0270777
0.0675186
0.059895
5.86837
5.00579
0.0221704
0.0612284
1.72511
0.0512496
0.0296464
0.0253821
1.25019
0.0991964
0.0242417
0.0279958
1.94104
0.0233388
0.0412339
0.0221357
0.0282351
0.0221677
0.024325
0.293414
1.90811
0.0279447
0.187647
2.38044
1.37267
0.022188
0.0394106
0.0220377
2.85224
0.048131
0.0573021
0.0218462
0.0249657
0.0239179
2.16146
2.22891
0.022097
0.969671
0.0232142
1.57452
1.61561
5.80137
2.57373
0.198664
3.19346
0.367877
0.0232154
0.0242765
0.0232098
11.3832
13.0984
0.0221123
5.5202
0.0481264
0.0294953
10.727
4.18675
0.0221336
0.263176
0.0925517
4.61778
16.9202
6.22343
0.0221573
0.217276
1.27377
0.0588984
0.0219648
0.0283378
1.30044
11.8156
0.0221954
0.0362791
0.0233027
0.0236881
0.0280298
0.112494
0.413412
0.283432
0.0321705
0.0452097
1.53515
0.0393749
0.0930975
0.024425
0.0231528
0.11692
4.76323
0.0234817
17.5557
0.372803
0.0222804
0.0323791
0.0226367
0.0500382
0.022159
0.0279769
0.074169
1.36365
1.65198
15.7405
0.0543628
1.79616
1.7725
1.78902
0.0226596
1.37643
1.81988
0.12184
4.07948
1.27725
1.72251
0.0221226
0.107084
0.0476071
0.0233091
2.41126
5.0747
1.79395
11.7885
0.069292
2.05813
3.76742
1.20321
0.0221418
3.09454
2.5852
0.0246246
0.0250384
2.16442
5.49351
0.0241483
0.0242876
0.0221308
0.0519309
0.0222006
1.88297
2.52589
0.0222423
1.63464
0.0384453
0.0254836
1.81857
0.0915802
0.0276551
0.0326645
2.49383
1.55916
0.0222598
0.0225016
9.44868
0.024746
0.509899
1.87959
1.71171
1.85344
1.69172
1.56059
0.0243103
0.100331
0.0217425
0.0687364
0.0226458
12.8217
10.196
1.43526
4.75255
0.0314778
0.08553
1.36855
0.0482314
4.27473
0.02601
1.56893
1.5889
0.0231678
1.57111
0.841491
1.83537
0.0856895
1.73189
0.0258653
0.0229634
3.7516
4.80392
2.36128
0.0236913
12.7649
0.298657
1.44802
0.0635559
0.0228737
0.219006
0.0316465
6.82943
2.53339
2.68855
7.38536
6.77267
1.75978
0.0220277
0.0278616
0.611206
0.527962
0.0237061
0.0222243
0.035565
1.7905
0.0294369
0.0239798
5.42534
0.0325117
0.0234162
1.08453
6.85481
0.0259454
1.27007
0.027305
2.08727
1.07699
2.10929
0.0221841
13.2032
0.0341264
0.0221383
0.0219684
11.3741
0.0492231
0.0221816
0.403856
0.566748
0.0509577
1.61329
0.0338384
0.0476628
4.50894
0.0258401
1.76582
0.0235576
0.0227479
7.28654
0.0236652
8.60941
0.0247792
1.59218
0.0425358
1.79064
3.92216
2.62065
0.0260264
0.145959
3.90341
0.234372
0.022317
9.87279
0.0250206
0.0487552
0.036531
0.076009
12.9285
6.23235
0.863677
0.192014
0.0235373
0.0468984
0.0237832
0.0467385
0.0274862
0.0315664
0.0221205
0.0249097
1.97293
2.39525
2.09646
0.024767
15.19
0.0949395
0.0220101
1.33258
0.0227633
0.0219392
0.29354
0.0898852
1.64594
0.0985625
0.105072
0.0233761
0.0308071
0.0226193
0.0839588
1.34516
1.4301
0.0221563
0.0253281
4.27065
0.0237288
0.0226057
0.0222647
0.193619
0.0508088
8.59033
0.472203
0.828824
0.0221809
0.169793
0.0221503
0.0234239
0.128262
0.490921
1.31018
1.50238
2.87148
0.0335482
0.0371015
6.87188
0.0229346
2.68361
5.67767
0.0221967
12.1104
0.0221915
0.114889
0.0222743
0.0361771
1.52219
0.0495182
0.0255596
2.06461
0.0343388
0.787101
0.0262337
1.13819
0.0280448
1.77197
0.350048
0.0274677
0.0872755
0.0223431
0.0221888
10.2685
0.0302547
0.194046
0.0280508
2.46406
0.115165
0.0355039
0.0224584
0.0278564
0.337368
0.0239743
1.84252
0.728703
1.84731
0.248327
0.0221354
0.201844
0.726069
3.44485
3.35069
0.458941
1.81546
0.0317073
1.27317
6.91828
14.8736
0.087028
0.0974384
1.91252
0.02625
0.0298529
0.0288897
0.0221514
0.0236223
0.0222897
0.0448469
0.0230914
1.80353
0.521879
1.58813
0.0368767
16.522
0.02229
0.0435307
9.58432
7.01283
0.0222215
7.74913
0.197038
0.0222912
0.144819
0.0300367
0.0998194
0.173908
1.83576
0.0400424
0.0222939
0.664133
0.0354422
0.0222912
0.02211
5.47626
0.0501509
0.0232597
12.4652
1.58879
0.102296
0.0879181
0.0341366
1.71088
0.421415
5.00435
1.29804
0.0313262
4.9493
0.139045
1.64702
0.0659819
2.60044
1.58025
1.25028
1.63711
1.41246
0.108619
3.71362
0.210991
1.65494
0.0219739
0.0283878
3.03421
0.156969
0.02331
0.143095
2.44375
3.19254
1.63195
0.033578
0.208992
0.0289916
5.27193
0.0344818
1.4412
0.0297844
4.24372
3.6912
0.0434731
0.0222694
0.0271528
1.732
2.52607
12.2283
0.0221451
0.0288616
2.36131
0.0271181
2.45008
0.247156
0.0313602
16.1241
0.943886
1.84505
0.0442482
1.90659
0.0226738
2.19895
1.84924