/*--------------------------------*- C++ -*----------------------------------*\
| =========                 |                                                 |
| \\      /  F ield         | OpenFOAM: The Open Source CFD Toolbox           |
|  \\    /   O peration     | Version:  v2012                                 |
|   \\  /    A nd           | Website:  www.openfoam.com                      |
|    \\/     M anipulation  |                                                 |
\*---------------------------------------------------------------------------*/
FoamFile
{
    version     2.0;
    format      ascii;
    class       volVectorField;
    location    "200";
    object      U_0;
}
// * * * * * * * * * * * * * * * * * * * * * * * * * * * * * * * * * * * * * //

dimensions      [0 1 -1 0 0 0 0];


internalField   nonuniform List<vector> 
14479
(
(1.21649 -0.166839 0)
(1.06973 -0.252334 -3.6598e-20)
(1.10562 -0.132865 -4.20667e-20)
(-0.171111 -0.0390389 1.16903e-20)
(0.979303 -0.517018 0)
(-0.221528 -0.0432236 1.52126e-20)
(1.00018 -0.00548907 -3.50144e-21)
(1.03391 -0.00578105 -2.91659e-20)
(1.0363 -0.0653912 0)
(-0.295868 -0.156188 0)
(0.987199 -0.461587 1.74221e-20)
(-0.175796 -0.0390778 5.71462e-20)
(-0.19436 -0.0353924 -1.94964e-19)
(-0.194807 -0.0352018 2.01619e-19)
(-0.154812 -0.0317388 0)
(-0.114972 -0.0179911 -9.07481e-20)
(1.34376 -0.20763 1.04081e-19)
(0.52974 0.0884533 8.63164e-21)
(0.222788 -0.0441157 -2.94262e-19)
(1.35692 0.0521577 1.488e-19)
(1.01433 -0.0217188 0)
(1.04413 -0.115715 2.01413e-20)
(-0.136806 -0.0262741 5.27309e-20)
(1.31378 -0.232988 1.48918e-19)
(1.03565 -0.0662419 1.32935e-20)
(0.728082 0.0667057 6.37513e-20)
(0.948259 -0.339191 -1.8259e-20)
(-0.295073 -0.155402 8.68865e-20)
(1.33474 -0.340949 3.92345e-20)
(-0.150893 -0.0310528 2.13169e-20)
(0.446121 0.0389296 8.49089e-21)
(-0.219455 -0.0469408 0)
(0.199239 -0.0435111 3.51159e-19)
(1.03706 -0.0116346 3.97706e-20)
(1.09704 -0.0419752 0)
(1.04986 -3.60574e-06 6.85309e-21)
(0.994177 -0.0239512 6.40971e-21)
(-0.137957 -0.0251893 1.6077e-21)
(1.09076 -0.141164 1.31534e-21)
(0.830902 0.249942 0)
(-0.150321 -0.0326041 1.82574e-19)
(1.08703 -0.141606 0)
(0.871677 -0.115012 3.6019e-20)
(1.12993 -0.0808463 0)
(-0.0894525 -0.0314767 5.70876e-20)
(1.30234 -0.121189 0)
(-0.167626 -0.0303778 0)
(-0.642528 -0.120302 -1.89247e-19)
(1.09261 -0.0648364 3.36081e-20)
(0.709385 0.0827841 -1.4509e-19)
(1.01838 -0.0380439 0)
(0.500594 -0.068109 -1.31226e-19)
(1.16988 -0.496979 0)
(1.29838 -0.197947 -1.02863e-19)
(1.09208 -0.061752 -3.71896e-20)
(0.985533 -0.0528803 2.66487e-22)
(1.18953 -0.29397 -1.32661e-19)
(-0.278517 -0.114725 0)
(1.04965 -8.46776e-05 0)
(1.32011 -0.163791 0)
(1.09769 -0.140916 -9.04082e-21)
(1.06789 -0.0320101 0)
(0.412438 -0.199598 1.30426e-19)
(1.26799 -0.276406 5.86155e-20)
(1.38388 0.0536028 -2.66663e-19)
(-0.347886 -0.0784637 0)
(1.19139 -0.0916224 0)
(0.889449 -0.109846 -4.29357e-20)
(0.395719 -0.0538787 9.44828e-20)
(0.626736 -0.0653538 0)
(-0.486605 -0.144527 -3.38282e-19)
(1.37992 0.0342743 0)
(-0.0404398 -0.022038 2.55418e-19)
(0.193853 -0.0791653 -1.11813e-19)
(1.01318 -0.0219962 0)
(1.03273 -0.0654413 -1.75381e-20)
(-0.474257 -0.14882 2.29543e-19)
(-0.167496 -0.0332027 -5.54964e-20)
(0.153993 -0.0906691 2.60775e-19)
(-0.489084 -0.144353 2.62856e-19)
(0.468079 -0.14837 0)
(1.00256 -0.00318639 4.9146e-21)
(1.19531 -0.0342124 -3.72818e-20)
(1.37487 0.0440296 0)
(1.09877 0.00283274 4.02564e-20)
(1.29694 -0.111209 0)
(1.42054 0.108315 -1.7608e-19)
(1.0099 -0.0338845 2.16826e-23)
(-0.485355 -0.145346 -2.57575e-19)
(1.01964 -0.0540496 -1.51636e-21)
(-0.350451 -0.153595 8.98952e-20)
(-0.343691 -0.0793068 5.14573e-20)
(-0.275338 -0.0527527 0)
(-0.103458 -0.0242357 7.81661e-20)
(1.19449 0.00488494 7.28405e-20)
(0.208048 -0.0591661 9.65969e-20)
(1.09916 -0.0140341 1.91591e-20)
(-0.362349 -0.152166 -1.50465e-19)
(1.1761 -0.0325471 0)
(-0.187697 -0.142817 -6.61646e-20)
(0.56242 0.0570774 0)
(-0.263599 -0.115577 0)
(1.32002 -0.162947 0)
(1.02144 -0.00496184 0)
(1.18062 -0.0394193 7.75377e-20)
(1.04915 -0.000833273 2.18342e-20)
(1.35366 0.0608907 2.17982e-19)
(-0.032321 -0.0202043 -2.07543e-19)
(1.19003 -0.312013 -4.98117e-21)
(-0.15376 -0.0326061 -2.93443e-19)
(1.17003 -0.0593449 2.62967e-20)
(1.10251 -0.0673385 0)
(0.911002 0.0928463 2.14046e-20)
(1.30498 -0.195903 1.41817e-19)
(0.957585 -0.329464 0)
(0.954158 -0.128099 -5.26666e-20)
(1.03073 -0.0679564 0)
(0.417831 -0.201152 1.74829e-19)
(0.937801 -0.0731239 1.21566e-21)
(1.3943 0.0893184 -1.55969e-19)
(1.0945 -0.0381454 1.8708e-20)
(1.00576 -0.0195958 0)
(-0.213311 -0.0473123 0)
(1.13372 -0.141223 -3.16755e-20)
(-0.131009 -0.0489586 7.39366e-20)
(1.06552 -0.00743831 3.12986e-20)
(1.14679 -0.0280906 4.22128e-20)
(0.977152 -0.0439119 3.47451e-20)
(1.06242 -0.00381001 0)
(-0.281571 -0.111338 0)
(1.07441 -0.00953774 2.36879e-20)
(1.28947 -0.175603 -2.02718e-19)
(0.24433 -0.0877309 0)
(1.06679 -0.00928852 -4.04489e-20)
(1.32626 -0.088156 -1.25435e-19)
(1.15581 -0.36242 -6.45586e-21)
(0.739334 -0.594847 1.20731e-20)
(0.966798 -0.0574567 5.7578e-21)
(0.513543 -0.072272 -1.24941e-21)
(-0.170755 -0.0401656 -2.0288e-19)
(1.08066 -0.0360004 4.7528e-20)
(-0.215247 -0.0421234 -1.29274e-19)
(1.13589 -0.0805474 0)
(0.62492 0.253385 4.48343e-20)
(1.26222 -0.26408 1.05529e-19)
(1.09538 0.00540542 -6.57785e-20)
(-0.023117 -0.0831698 0)
(1.06026 -0.0549068 2.75672e-20)
(1.19653 -0.172289 0)
(1.0587 -0.110544 -4.28997e-21)
(0.191939 -0.0579177 -1.8398e-19)
(1.10808 -0.134642 4.68554e-20)
(1.01486 -0.0238329 2.33335e-21)
(1.32874 -0.214549 -7.82047e-20)
(1.34308 -0.208744 0)
(1.19708 0.0501689 1.83017e-20)
(-0.326933 -0.142626 9.89621e-20)
(0.999908 -0.00448176 -2.72899e-20)
(0.522191 -0.0622022 -1.24295e-19)
(0.176352 -0.0900771 -1.55417e-19)
(-0.320119 -0.139294 -3.04152e-19)
(0.323966 -0.0214885 -1.51787e-19)
(0.184188 -0.0848421 -1.1884e-19)
(1.41719 0.0865174 2.10152e-19)
(-0.14556 -0.121678 1.52418e-19)
(-0.626861 -0.119266 1.62893e-19)
(1.06525 0.00180394 1.94801e-20)
(0.854546 0.0811151 0)
(1.01779 -0.0363431 0)
(1.10136 -0.0170801 1.8432e-20)
(1.08045 -0.00772233 -5.59094e-20)
(1.2979 -0.112666 0)
(0.985262 -0.0531724 1.96132e-20)
(1.39115 0.08125 2.02763e-19)
(0.998408 -0.0514888 1.07303e-20)
(1.11359 -0.496062 -4.64775e-20)
(1.00737 -0.0319028 1.73895e-22)
(1.11046 -0.0140434 -1.60361e-20)
(0.933024 -0.445105 0)
(0.995252 -0.106772 1.07159e-20)
(0.675647 -0.69844 1.32487e-21)
(1.01268 -0.019964 0)
(0.942107 -0.0734044 0)
(-0.273444 -0.0530869 -6.34499e-20)
(1.00791 -0.023588 0)
(1.08381 -0.361867 -4.53142e-20)
(0.877764 -0.11363 -2.89532e-20)
(0.893673 -0.0725683 2.99997e-20)
(0.77867 -0.603824 3.40882e-20)
(0.682018 0.300348 -8.54706e-20)
(1.00588 -0.0225516 2.00351e-22)
(-0.0861448 -0.132302 5.18053e-20)
(1.18193 -0.049625 0)
(1.00026 -0.00507419 7.47286e-21)
(-0.213523 -0.0419376 -3.28718e-19)
(0.163153 -0.0871071 1.70346e-19)
(0.754459 -0.578146 -3.58455e-20)
(0.139784 -0.0933744 1.90248e-19)
(1.15683 -0.129727 -9.49571e-21)
(0.998614 -0.0523681 -1.02781e-20)
(0.952347 -0.123023 4.21823e-20)
(1.33552 -0.183769 -1.72007e-19)
(0.77897 -0.0836276 -7.58756e-20)
(1.27221 -0.371226 5.53358e-20)
(-0.214488 -0.0422594 2.5682e-19)
(0.95107 -0.117172 1.6162e-20)
(0.96933 -0.0595776 0)
(1.39596 0.0274902 -1.97191e-19)
(1.11018 -0.0141199 0)
(1.08673 -0.365462 5.19386e-20)
(-0.0688035 -0.0542187 1.05416e-19)
(-0.113513 -0.110471 0)
(0.97648 -0.108984 0)
(0.890343 -0.107543 5.90697e-20)
(1.02153 -0.0380131 -1.28467e-20)
(1.33709 -0.158687 1.17336e-19)
(-0.183352 -0.145567 -3.02836e-20)
(-0.168347 -0.0315748 0)
(0.994118 -0.0233548 0)
(1.18861 -0.178444 9.34919e-20)
(0.883016 -0.593887 0)
(-0.219732 -0.0713368 -1.79653e-20)
(-0.0166325 -0.125052 0)
(1.21077 -0.0252751 -9.40769e-20)
(0.263269 -0.549086 8.90422e-20)
(-0.181363 -0.0444561 0)
(1.05185 -0.11295 -3.27754e-21)
(1.09783 -0.0660205 0)
(0.76664 0.126085 0)
(1.00916 -0.0344591 2.22017e-23)
(0.963715 -0.0838057 -2.41673e-20)
(1.0006 -0.00534489 1.65319e-22)
(1.0627 -0.221016 0)
(-0.193037 -0.0349272 -3.59815e-20)
(0.902064 -0.0636961 -5.43504e-20)
(0.951243 -0.114554 2.23117e-20)
(1.19151 -0.302062 -2.73067e-21)
(0.254991 -0.476441 -1.0996e-21)
(0.993453 -0.0218496 -1.4385e-20)
(1.03892 -0.0914065 -1.51863e-20)
(-0.176695 -0.044038 -9.33503e-20)
(1.33721 -0.145795 6.38937e-20)
(1.17661 -0.0552114 -3.55802e-20)
(0.72609 0.0682423 -1.42784e-19)
(-0.131959 -0.126032 5.40996e-20)
(-0.0544481 -0.0541623 -9.53034e-20)
(1.07348 -0.0323353 0)
(1.02023 -0.0544244 0)
(0.125653 -0.00041572 1.41577e-20)
(-0.412522 -0.133102 -3.10319e-19)
(1.03267 -0.0044128 2.89728e-20)
(1.34702 -0.118551 4.82683e-20)
(1.01321 -0.00237873 -5.98595e-22)
(1.06387 -0.0054795 -1.71849e-20)
(-0.418739 -0.132064 2.6268e-19)
(1.33428 -0.206849 -4.07283e-20)
(0.995486 -0.0280836 1.21717e-20)
(1.33389 -0.343714 1.23296e-19)
(0.71771 0.0363997 0)
(1.31838 -0.226032 -1.60118e-19)
(0.549317 -0.159365 -6.05727e-20)
(0.439845 -0.0401576 3.62233e-20)
(-0.212822 -0.0417236 3.30706e-19)
(1.32616 -0.0921348 1.5289e-19)
(1.00387 -0.0309765 0)
(1.08175 -0.221273 4.71514e-20)
(1.0029 -0.028915 0)
(-0.0334632 -0.126536 9.50892e-20)
(-0.115953 -0.0331619 -2.21298e-19)
(0.3441 -0.0481296 9.63081e-20)
(-0.00087594 -0.0837363 0)
(0.974312 -0.043061 -4.52382e-20)
(-0.341736 -0.0635865 0)
(0.952761 -0.0437398 0)
(0.998951 -0.107944 3.41866e-21)
(-0.316917 -0.0560086 4.7786e-20)
(-0.0314245 -0.0185105 2.90385e-20)
(1.09327 -0.034543 -2.13079e-20)
(-0.305262 -0.0650062 2.23758e-19)
(-0.144935 -0.0759769 1.5325e-22)
(-0.343386 -0.0632402 -4.92565e-20)
(-0.315332 -0.0677996 0)
(-0.299265 -0.137739 0)
(0.542317 -0.165215 0)
(1.00238 -0.0108171 3.43033e-22)
(0.99434 -0.020282 -1.40863e-20)
(0.116903 -0.0963673 -1.40554e-19)
(0.951901 -0.0462564 3.21607e-20)
(-0.0730424 -0.0193192 -1.03983e-19)
(-0.217372 -0.0427557 -2.38929e-19)
(0.945726 0.113595 -4.58401e-20)
(0.688364 0.111761 4.09559e-20)
(1.14732 -0.354174 -8.40599e-23)
(-0.220953 -0.0430141 -6.27635e-20)
(0.987594 -0.0494863 0)
(1.19674 -0.171965 3.99091e-20)
(1.00735 -0.0702542 0)
(0.709054 -0.0937327 -3.25592e-20)
(1.06689 0.00129035 1.21996e-22)
(1.00364 -0.215735 2.51457e-21)
(1.01939 -0.0354316 1.09206e-20)
(-0.228263 -0.0592405 -2.81559e-19)
(1.07329 -0.0300242 -9.431e-24)
(1.25361 -0.00729066 -1.48574e-19)
(1.18825 -0.172211 -1.32405e-19)
(-0.187009 -0.0342068 -7.45472e-20)
(0.459642 -0.0864172 -1.30069e-19)
(1.27009 -0.363758 0)
(1.12781 -0.0303718 -3.25805e-20)
(1.14358 -0.0225659 2.1263e-20)
(-0.215764 -0.0723359 0)
(0.968417 -0.459263 0)
(1.1343 -0.43116 4.5821e-21)
(1.06284 -0.0587932 -2.56864e-20)
(1.04306 -0.0899182 2.2105e-21)
(0.999813 -0.00523068 7.64982e-21)
(-0.175709 -0.0399825 1.20022e-19)
(1.05778 -0.311856 0)
(1.00727 -0.0311484 2.51119e-22)
(1.0191 -0.00304362 -2.27394e-20)
(0.97715 -0.107875 0)
(0.993045 -0.0185134 1.91231e-20)
(0.965315 -0.0891676 2.74771e-20)
(-0.391425 -0.0855424 0)
(1.34933 -0.197221 0)
(0.627108 0.0891512 2.05422e-21)
(0.234538 -0.0402439 0)
(0.975649 -0.505657 0)
(-0.273695 -0.0625174 0)
(1.0436 -0.0502793 7.63057e-21)
(1.2045 0.0488031 0)
(1.26195 0.0185038 0)
(0.164256 -0.0923778 -8.82009e-20)
(-0.191655 -0.0349585 1.28075e-19)
(1.35115 -0.191347 4.76735e-20)
(1.02289 -0.00282149 0)
(1.01028 -0.190525 0)
(1.31315 -0.186532 8.43104e-21)
(0.838082 0.268248 5.68565e-20)
(1.22226 -0.205153 -2.61808e-20)
(0.225931 -0.0331703 0)
(1.18677 -0.100428 0)
(-0.219638 -0.0430589 1.65695e-19)
(1.03563 -0.0123459 0)
(-0.110242 -0.032903 1.34701e-19)
(1.06917 0.000350142 -1.26236e-20)
(-0.337026 -0.0760165 0)
(-0.0697563 -0.130259 1.91484e-19)
(1.0702 -0.00092886 2.74706e-20)
(1.23149 -0.19378 -5.47107e-20)
(-0.109457 -0.0251098 -8.65352e-20)
(-0.315466 -0.0663802 0)
(1.09751 -0.13608 -1.08063e-20)
(1.01766 -0.0392271 0)
(-0.319883 -0.0565292 0)
(1.00887 -0.0185545 -6.96881e-21)
(1.05789 -0.0349714 2.21703e-20)
(-0.22812 -0.0709461 -1.45028e-19)
(1.14697 -0.027494 0)
(1.02413 -0.0663498 4.80905e-22)
(1.02745 -0.0674015 3.07897e-21)
(-0.0742879 -0.0396402 0)
(-0.231041 -0.0533266 -1.97476e-19)
(1.02959 -0.0669666 0)
(-0.309342 -0.0640425 -1.52654e-19)
(1.1999 -0.042525 0)
(0.692693 -0.115839 -4.01508e-20)
(-0.19102 -0.0347639 7.44281e-20)
(-0.279032 -0.0615409 -4.85059e-20)
(0.167587 -0.0203242 1.61278e-19)
(1.38789 -0.105221 0)
(0.0770305 -0.017711 1.22384e-20)
(1.31741 -0.079918 1.40765e-19)
(0.769416 -1.0014 0)
(0.00260147 -0.0510211 2.82606e-19)
(0.551887 -0.0572552 3.53681e-20)
(1.36182 0.0416347 -1.51668e-19)
(0.839932 -0.288442 -2.59631e-20)
(1.32025 -0.320479 7.29597e-20)
(1.00591 -0.0735122 6.55163e-21)
(1.0602 -0.0536 0)
(1.19839 0.00176589 -2.78899e-20)
(0.996812 -0.473936 -1.80405e-20)
(0.692912 -0.0465741 0)
(0.0603183 -0.018438 0)
(1.25913 -0.250116 -7.52373e-20)
(1.00795 -0.0153982 1.55932e-21)
(1.3093 -0.260382 -1.12032e-19)
(0.99042 -0.020806 -1.79129e-20)
(1.34831 -0.147974 1.4302e-20)
(1.23861 -0.186225 1.81561e-20)
(1.22105 -0.0466019 5.14173e-20)
(0.999599 0.186875 -1.62854e-20)
(-0.184418 -0.0338475 -1.1377e-19)
(0.673562 -0.0729357 -2.44795e-19)
(-0.0842855 -0.104826 2.12811e-19)
(0.716633 -0.762025 -2.15961e-21)
(0.492094 -1.24087 0)
(1.04166 -0.0471912 -7.018e-21)
(1.00222 -0.00698284 6.02204e-21)
(0.386449 -0.0310765 1.43377e-19)
(-0.340458 -0.0624388 -2.52121e-20)
(-0.117619 -0.0320444 1.27441e-19)
(1.18421 -0.122425 3.86386e-20)
(-0.0986775 -0.0274502 -3.26392e-19)
(1.14017 -0.0169121 -3.88663e-20)
(-0.168304 -0.0319334 -1.59287e-19)
(-0.231801 -0.0586317 2.25211e-19)
(0.715212 0.113556 0)
(1.05714 -0.0334399 0)
(-0.294801 -0.158649 0)
(-0.494128 -0.140637 1.26902e-19)
(1.00806 -0.0255268 -6.73884e-22)
(1.00261 -0.00823362 -4.03175e-21)
(-0.00441137 0.188525 2.17863e-19)
(1.03154 -0.0104309 -1.68915e-20)
(1.0022 0.199612 3.31106e-20)
(1.16866 -0.480284 0)
(1.00195 -0.00309048 -4.84712e-21)
(1.10795 -0.192663 8.40187e-21)
(1.12546 -0.137052 -4.99647e-20)
(1.06291 -0.24742 3.89684e-20)
(0.769192 -0.0790043 1.38716e-19)
(1.3644 -0.1125 -1.0535e-19)
(0.204086 -0.0421246 0)
(1.06249 -0.233873 1.35342e-20)
(-0.219872 -0.0725447 1.36119e-19)
(1.01359 -0.0261698 2.14584e-21)
(1.0127 -0.187411 4.66093e-22)
(0.954891 0.309049 -1.63518e-20)
(0.582729 -0.237752 0)
(1.26302 -0.263564 -1.38895e-19)
(-0.167064 -0.0287425 9.51194e-21)
(1.09429 -0.0901903 5.47524e-20)
(1.06773 -0.238672 -6.44662e-21)
(-0.101731 -0.117958 0)
(1.25092 -0.00373194 1.71192e-19)
(-0.0817848 -0.0633222 0)
(0.633037 0.0877306 -2.43544e-21)
(1.31619 -0.253367 -1.44554e-19)
(-0.345101 -0.0648996 -1.07331e-19)
(-0.283985 -0.158534 0)
(-0.192107 -0.0356425 0)
(1.01387 -0.0262386 -1.93671e-21)
(1.30829 -0.187707 0)
(1.15733 -0.135665 0)
(0.741824 0.0908728 -5.31976e-20)
(-0.111447 -0.0311745 -1.09264e-19)
(1.16665 -0.0548234 -3.48155e-20)
(1.10896 -0.106165 -2.14313e-20)
(0.994646 -0.0158225 0)
(0.728499 -0.730652 2.02316e-21)
(1.3461 -0.130825 1.41282e-19)
(1.33651 -0.138927 -2.81368e-20)
(1.00014 -0.0024644 -4.41252e-21)
(1.32348 -0.218614 4.56568e-20)
(1.06888 -0.0348932 0)
(1.34811 -0.120628 0)
(0.102279 -0.0231066 2.19577e-19)
(-0.139094 -0.0499453 0)
(1.16586 0.0119902 -2.85137e-20)
(0.978831 -0.0508267 8.0023e-21)
(0.558822 -0.078511 -1.28113e-19)
(1.1515 -0.431865 -3.46586e-20)
(0.72216 -0.082819 -5.12422e-20)
(-0.182832 -0.0342158 1.28498e-19)
(1.11972 -0.137396 0)
(-0.0410941 -0.020346 0)
(-0.193054 -0.0350114 -3.50963e-20)
(1.06382 -0.00525913 -1.17445e-22)
(1.04904 -0.000739721 -3.55579e-20)
(1.01231 -0.00221714 -4.98124e-21)
(-0.186742 -0.0345632 0)
(0.0565007 -0.0614109 1.2816e-19)
(-0.216029 -0.0428299 1.9812e-19)
(0.328898 -0.508969 -2.23572e-19)
(-0.159419 -0.0505261 4.08759e-20)
(-0.184649 -0.0339954 0)
(0.851495 -0.270554 2.68467e-20)
(1.32179 -0.24681 1.67637e-19)
(1.0566 -0.108552 0)
(-0.0637303 -0.0179517 1.24403e-19)
(1.28287 0.0516549 5.63313e-20)
(0.619701 -0.441169 -1.50098e-19)
(1.13919 -0.0451702 -6.10513e-20)
(0.732727 0.0941186 0)
(1.05387 -0.0366773 8.31789e-21)
(0.332208 -0.0427195 -1.01345e-19)
(0.713638 0.325567 4.62225e-20)
(-0.11679 -0.119998 0)
(0.060173 -0.0264892 1.32583e-19)
(1.0027 -0.0154656 -1.0138e-21)
(1.03045 -0.01075 0)
(-0.198936 -0.145356 -7.11541e-20)
(-0.16759 -0.0300688 -6.98444e-20)
(1.08074 -0.0328239 1.60913e-20)
(1.21648 -0.172791 -2.74905e-20)
(-0.172012 -0.0419075 1.04022e-19)
(1.41035 -0.118554 8.60153e-20)
(1.15789 -0.0849185 -7.41624e-20)
(0.899313 -0.0820273 1.80896e-21)
(1.41097 -0.119878 -5.68779e-21)
(1.14323 -0.124582 -3.15743e-20)
(0.987411 -0.0492713 -1.84945e-20)
(-0.183145 -0.0356446 -1.02332e-19)
(-0.408824 -0.0974519 0)
(0.202646 -0.0645747 -1.83933e-19)
(1.21946 -0.0439 0)
(1.09546 -0.0364575 4.42169e-20)
(-0.171093 -0.0337064 8.7414e-20)
(1.07131 -0.22072 -2.31077e-20)
(1.31104 -0.0708605 0)
(1.19316 0.00441392 0)
(-0.300293 -0.0567439 1.78658e-19)
(1.05855 -0.0254191 1.45773e-20)
(1.00591 -0.02082 4.65595e-22)
(1.00241 -0.0121474 2.75681e-23)
(1.00383 -0.0354498 -1.11425e-21)
(-0.651354 -0.120301 -5.72204e-20)
(1.26208 -0.291276 0)
(0.400945 -0.0904887 -1.75615e-19)
(-0.153848 -0.047754 0)
(0.492313 -0.0838668 2.78088e-19)
(-0.0897761 -0.0259635 3.35182e-19)
(-0.129209 -0.11782 0)
(-0.10732 -0.11977 0)
(1.07639 -0.0123586 1.22864e-20)
(1.16341 0.0120237 0)
(0.667393 -0.0667937 6.59689e-20)
(-0.157184 -0.0324057 -1.85489e-19)
(0.995392 -0.0191375 0)
(1.27036 -0.286152 0)
(0.775029 -0.0821833 7.47635e-20)
(0.0719102 -0.0223849 -2.48538e-19)
(1.25432 -0.00975105 -6.79138e-20)
(1.36039 0.059896 0)
(1.13193 -0.464223 -5.91114e-20)
(-0.289401 -0.0549285 3.71009e-19)
(0.944661 0.291286 0)
(0.0886951 -0.0125999 1.93973e-19)
(-0.218557 -0.0428679 -1.52843e-19)
(0.00456247 -0.0132757 -2.38251e-19)
(1.21757 0.0348487 -3.16381e-20)
(-0.622146 -0.120474 -4.78904e-20)
(1.06291 -0.0582947 2.98326e-22)
(0.989963 -0.02085 -2.09517e-20)
(0.246234 -0.0358708 0)
(0.994017 -0.0165134 -3.60063e-20)
(1.09822 -0.0886412 0)
(1.21854 0.0281155 6.27763e-20)
(1.21935 -0.0586029 -1.21626e-19)
(1.1243 -0.515167 4.3878e-20)
(1.04709 -0.0191994 2.42032e-20)
(0.990139 -0.0222367 3.99911e-20)
(1.33709 -0.333557 -3.8846e-20)
(1.0073 -0.0695039 4.88762e-21)
(-0.528989 -0.122649 -1.07472e-19)
(-0.186936 -0.0343194 1.8637e-19)
(-0.174396 -0.0427344 2.35718e-19)
(-0.185315 -0.0343242 -1.25083e-19)
(1.0788 -0.242274 -4.92554e-20)
(-0.159475 -0.0601903 1.63827e-19)
(0.85458 -0.0522456 2.55128e-20)
(-0.109061 -0.0685532 0)
(1.0724 -0.0302194 3.33862e-20)
(1.32829 -0.213296 7.46288e-20)
(0.87366 -0.285397 -1.11154e-20)
(1.05675 -0.0253374 -2.16206e-20)
(1.08186 -0.0353081 -1.88e-20)
(1.17588 -0.0579549 -3.85095e-20)
(0.855437 -0.0499142 0)
(1.04858 -0.0193431 -4.08842e-20)
(-0.182735 -0.0817053 -1.13827e-19)
(0.13163 0.112556 7.49368e-22)
(1.13938 -0.12627 1.01578e-19)
(-0.189036 -0.0422105 1.11673e-19)
(1.4943 0.12516 8.06982e-20)
(1.0761 -0.00311854 0)
(0.939733 -0.171342 6.42438e-20)
(1.30684 -0.217167 8.63407e-22)
(-0.190979 -0.0359079 0)
(1.07821 -0.00524911 -5.28363e-20)
(1.14975 -0.258631 0)
(1.15965 -0.00114229 -2.45771e-20)
(0.00314184 -0.012743 -1.2638e-19)
(1.06967 -0.0323519 -2.05695e-20)
(1.05007 -0.0172892 -2.61918e-20)
(-0.0694761 -0.130542 0)
(-0.28102 -0.0625514 0)
(-0.612736 -0.121146 -5.07631e-20)
(0.716416 0.0388416 -2.07391e-20)
(1.00212 -0.00786891 0)
(1.00167 -0.042458 0)
(0.566393 -0.0877385 -8.98229e-20)
(-0.200304 -0.0350608 0)
(0.813622 -0.0844802 0)
(1.02363 -0.0100356 -7.15786e-21)
(0.994879 -0.0208472 0)
(0.981105 -0.134049 2.19748e-20)
(0.979804 -0.0443047 -2.26371e-20)
(0.115938 -0.0981686 0)
(1.00429 -0.0304271 -5.10427e-21)
(0.59528 -0.983714 1.64527e-20)
(0.326729 -0.098939 7.24987e-20)
(0.303453 -0.13278 -7.92479e-20)
(1.06525 -0.00759689 1.83027e-20)
(-0.200816 -0.0353125 7.47213e-20)
(-0.152103 -0.0596944 -1.25345e-19)
(0.958642 -0.0795917 3.03296e-20)
(1.14519 -0.316322 1.60797e-20)
(0.985341 -0.0789307 0)
(-0.177456 -0.0448704 1.8842e-19)
(1.10814 -0.258831 0)
(1.01494 -0.0369014 5.80691e-21)
(1.00645 -0.0292706 -1.99109e-21)
(1.00166 -0.0423417 -3.64223e-21)
(-0.279293 -0.0633402 0)
(0.559345 -0.437328 -9.30985e-20)
(0.18904 -0.0795601 1.44114e-19)
(0.988901 -0.0458341 -3.96484e-21)
(1.05087 -0.0191969 1.56861e-20)
(1.26472 0.0133594 4.51231e-20)
(1.20788 0.0526848 -7.08495e-20)
(1.15344 -0.0871466 7.5452e-20)
(0.100989 -0.096231 -8.80645e-20)
(-0.648269 -0.119275 4.50319e-20)
(1.05596 -0.0388209 0)
(1.01088 -0.0263622 2.69885e-21)
(1.18745 0.00870233 1.09981e-19)
(-0.0837915 -0.131898 -1.83914e-19)
(1.26582 -0.120065 1.16941e-19)
(1.20009 -0.0258849 0)
(1.00204 -0.00769098 -5.58052e-21)
(1.32164 -0.335268 8.9465e-20)
(1.09242 -0.261773 -1.9678e-21)
(1.01036 -0.0262414 2.68365e-22)
(1.04876 -0.00969725 0)
(1.48273 0.0973147 -1.52087e-19)
(1.16555 -0.391527 -6.53197e-21)
(0.995146 -0.0275485 7.75441e-21)
(0.692807 -0.225141 0)
(1.33265 -0.221722 0)
(1.00937 -0.0261781 3.7602e-21)
(0.628007 -0.0619613 0)
(-0.290776 -0.0549374 -3.4286e-19)
(1.07624 -0.0029788 1.5127e-20)
(0.991056 -0.140526 -6.54719e-21)
(1.01276 -0.0827683 0)
(1.20659 -0.0191823 4.48045e-20)
(-0.0127208 -0.0141721 1.76746e-20)
(0.121971 -0.027966 2.23006e-19)
(1.41896 0.101884 -1.35197e-19)
(1.0119 -0.0256279 2.80732e-21)
(-0.181942 -0.044743 -1.04766e-19)
(-0.498844 -0.140983 1.61892e-19)
(0.466451 -0.128517 1.11023e-19)
(0.0323768 -0.0627665 -2.5877e-20)
(1.051 -0.296428 0)
(0.982355 -0.0284409 2.05131e-20)
(1.1404 -0.0167656 0)
(0.659511 0.107919 -3.88239e-20)
(1.02296 -0.00362043 1.28057e-20)
(1.08173 -0.0310488 1.93646e-20)
(-0.107821 -0.123893 5.19923e-20)
(-0.0884937 -0.0213576 -7.1566e-20)
(1.13063 -0.0354431 4.02312e-20)
(1.01081 -0.0870318 0)
(0.645367 -0.649533 -2.85398e-21)
(0.160028 -0.0279364 0)
(1.01109 -0.0182305 5.55627e-21)
(1.02305 -0.00948733 0)
(1.06633 -0.171551 0)
(-0.22749 -0.0527578 1.6389e-19)
(-0.154981 -0.0321055 0)
(0.930984 -0.938688 6.01421e-20)
(0.630239 0.223459 1.30175e-19)
(0.0296234 -0.0497632 -2.58075e-20)
(0.874668 -0.176051 0)
(-0.272242 -0.0524317 3.63353e-20)
(1.28123 0.0475915 5.90971e-20)
(1.03913 -0.0481264 7.02615e-21)
(1.16367 0.00183128 -7.40731e-21)
(-0.402386 -0.122305 0)
(1.01479 -0.0365091 -3.06035e-21)
(-0.408126 -0.1227 0)
(1.13454 -0.14364 0)
(-0.132848 -0.0771587 -6.20489e-20)
(-0.579508 -0.12267 0)
(0.86921 -0.282942 3.31911e-20)
(0.71895 -0.0754513 -1.25169e-19)
(0.988429 -0.0782207 0)
(1.10105 -0.259547 0)
(0.0886023 -0.111187 -8.3728e-20)
(1.50045 0.153051 0)
(-0.168005 -0.0289566 -9.66458e-21)
(0.202485 -0.0150284 0)
(0.0405353 -0.0473991 -2.30926e-20)
(0.160184 -0.0170435 -2.46354e-20)
(1.02141 -0.185305 1.74969e-21)
(1.31008 -0.32067 1.08759e-19)
(-0.151021 -0.0829414 -7.34105e-20)
(-0.052205 -0.0359734 -2.33316e-19)
(0.492882 -0.0614089 -7.50718e-20)
(1.04038 -0.0336536 2.59876e-20)
(1.32228 -0.321879 0)
(0.213803 -0.0376396 0)
(1.31586 -0.254437 1.95977e-19)
(0.180986 -0.0292956 1.61384e-19)
(1.13607 -0.0125698 -1.87028e-20)
(0.963985 -0.313515 0)
(1.01534 -0.0260836 -9.32333e-21)
(0.912854 -0.0918274 -6.40548e-22)
(-0.51089 -0.133595 -2.2863e-19)
(-0.42485 -0.145726 -1.94068e-19)
(-0.464335 -0.153041 6.04849e-20)
(1.08204 -0.024976 0)
(0.970214 -0.0615703 -1.85876e-20)
(-0.424131 -0.141616 3.35086e-19)
(-0.283265 -0.0635708 9.33707e-20)
(1.37962 -0.118391 0)
(0.785813 -0.649295 0)
(-0.229414 -0.0426542 4.42049e-20)
(0.980006 -0.133368 -1.00182e-20)
(0.108871 -0.101866 0)
(0.896933 -0.103402 3.18206e-20)
(0.938833 -0.0651013 -4.78695e-20)
(0.953225 0.118678 -8.53679e-21)
(-0.279983 -0.158074 7.80211e-20)
(0.10573 -0.0123028 -4.2304e-22)
(1.02854 -0.0224092 1.05121e-20)
(1.04436 -0.0868807 0)
(-0.137642 -0.0213578 0)
(1.00053 -0.00389632 2.14365e-24)
(1.0371 -0.0325188 -1.38755e-20)
(1.04763 -0.00882159 0)
(1.07628 -0.00785932 -2.56083e-20)
(0.773294 -0.274894 0)
(0.698271 -0.0892203 -1.09289e-19)
(0.987093 -0.145145 -8.03032e-21)
(1.00672 -0.0230601 3.54774e-22)
(1.01624 -0.0546233 0)
(1.05571 -0.0234131 4.69312e-20)
(1.00012 -0.0031488 -1.49128e-20)
(1.00022 -0.00240193 2.50607e-22)
(0.93908 -0.0691315 -3.05258e-20)
(-0.0910164 -0.0248089 -1.80809e-20)
(1.44838 -0.0648802 3.25913e-21)
(-0.150894 -0.0320439 1.34117e-19)
(-0.151941 -0.0497899 -1.64351e-19)
(-0.177781 -0.0425128 -5.64887e-20)
(1.13978 -0.450203 5.82425e-20)
(1.06411 -0.207936 -2.21234e-21)
(1.02648 -0.0666573 -7.18179e-21)
(1.06329 -0.119792 0)
(0.760625 -0.264385 -8.38078e-20)
(-0.270185 -0.0523996 0)
(1.15053 -0.00937502 9.32484e-20)
(-0.268826 -0.0624306 -1.81712e-19)
(0.809297 -0.025218 -8.10764e-20)
(1.1636 0.00410666 5.51969e-20)
(1.30966 -0.346725 2.67609e-19)
(0.817849 -0.0134074 1.09616e-19)
(-0.302107 -0.0559031 -3.88504e-20)
(-0.147633 -0.0843646 0)
(1.03689 -0.045348 0)
(0.288361 -0.0309842 0)
(1.008 -0.0271532 1.20505e-21)
(-0.274146 -0.061737 2.15005e-19)
(-0.474124 -0.149815 3.4413e-20)
(1.34702 -0.149853 2.82466e-20)
(0.691258 0.111668 2.61424e-19)
(-0.325732 -0.0708285 0)
(-0.341464 -0.0755768 0)
(1.20832 -0.175683 0)
(1.01745 -0.0537629 -2.9282e-21)
(-0.314516 -0.0557029 4.56256e-20)
(-0.100097 -0.0244273 3.85808e-20)
(-0.180364 -0.0428542 -2.57161e-19)
(0.943723 -0.0776629 -4.01082e-20)
(-0.432698 -0.152299 -2.41224e-19)
(0.246755 -0.0173397 0)
(0.988995 -0.0460067 1.32902e-20)
(0.258595 0.136222 0)
(1.46535 -0.0512386 4.61922e-20)
(1.02705 -0.0113145 5.16628e-21)
(1.08876 -0.256892 2.72733e-20)
(-0.160655 -0.0324188 5.17659e-20)
(1.42083 -0.109322 8.22344e-21)
(1.09932 -0.13376 -2.23476e-20)
(0.0382642 -0.081796 5.03818e-20)
(1.00862 -0.0167939 0)
(0.760191 0.0887803 -3.58638e-20)
(-0.314835 -0.0562738 0)
(-0.195558 -0.0901672 0)
(0.373755 -0.0307554 0)
(0.986281 -0.917271 -9.02576e-20)
(-0.151512 -0.034366 -5.40798e-20)
(1.34163 -0.211768 -7.35723e-20)
(0.927769 -0.582431 6.36096e-21)
(1.28043 -0.277912 -7.77515e-20)
(0.184375 -0.0633482 1.3959e-19)
(0.759196 -0.239057 -4.98318e-20)
(1.30916 -0.0683023 0)
(1.31032 -0.160383 -4.99296e-20)
(1.07162 -0.0274426 -2.61009e-20)
(-0.274342 -0.0792861 4.14721e-20)
(0.776837 -0.0749502 0)
(1.0281 -0.0118612 -3.06277e-22)
(-0.35353 -0.0764831 0)
(-0.129846 -0.019879 0)
(-0.151051 -0.0341236 -6.55329e-20)
(0.175514 -0.0334873 -1.69029e-19)
(1.04681 -0.0901188 0)
(1.0763 -0.223609 2.46539e-20)
(-0.228434 -0.0428966 -4.51722e-20)
(-0.188381 -0.145774 1.18071e-19)
(0.771416 -0.359478 1.25456e-20)
(-0.182037 -0.0338309 1.90059e-20)
(1.23935 -0.145736 -1.15317e-19)
(0.140811 0.000885838 -2.02923e-20)
(0.915099 -0.0940215 -5.47496e-20)
(-0.22361 -0.042809 0)
(0.900671 -0.0623986 -9.0723e-20)
(-0.389392 -0.109833 1.94195e-19)
(0.810976 -0.0172627 1.03271e-21)
(-0.374128 -0.0792709 -2.04499e-19)
(1.37277 -0.101047 0)
(0.946687 -0.0794756 3.77651e-20)
(1.16417 -0.253087 -5.62053e-21)
(1.03878 -0.0454791 -1.29738e-20)
(1.31014 -0.112302 -4.75217e-21)
(0.177483 -0.0184363 0)
(0.313592 -0.214611 -3.67384e-19)
(0.219537 -0.0182913 8.49433e-20)
(-0.13573 -0.0482241 -7.70181e-20)
(1.33167 -0.163969 -6.61538e-20)
(-0.0920391 -0.023011 -8.72938e-21)
(0.926835 -0.102395 0)
(-0.130641 -0.138189 0)
(1.0377 -0.623047 -1.3468e-19)
(-0.523626 -0.129225 1.06613e-19)
(1.07847 0.00184516 2.93647e-20)
(0.881219 -0.173825 6.32861e-20)
(1.30538 -0.168303 9.95606e-20)
(-0.318231 -0.0566064 0)
(1.05929 -0.10743 4.41356e-21)
(0.201114 -0.0153942 4.69793e-20)
(0.453233 0.0362855 0)
(1.02566 -0.0107956 -2.64458e-20)
(1.2415 -0.198366 -9.61305e-20)
(0.797283 -0.0852071 2.29086e-19)
(1.36484 -0.111934 -2.65524e-20)
(0.423929 -0.154478 -6.69069e-20)
(-0.182249 -0.0333411 0)
(-0.161393 -0.0329993 2.34831e-19)
(0.972926 -0.0602693 4.48724e-20)
(-0.191034 -0.131285 1.35447e-19)
(1.16133 -0.0558407 -3.1006e-20)
(1.03021 -0.0206282 1.01035e-20)
(1.21241 -0.198752 -5.04837e-20)
(1.08033 -0.0076052 4.56877e-20)
(0.994287 -0.17424 -6.37882e-21)
(1.09066 -0.0965259 2.59129e-20)
(-0.454913 -0.156396 0)
(1.18206 -0.0415254 -9.37068e-20)
(-0.155967 -0.14092 -5.31756e-20)
(1.08391 -0.0285284 0)
(1.025 -0.0107948 1.57508e-20)
(1.0358 -0.0331048 6.85591e-21)
(1.04689 -0.035665 1.58262e-20)
(-0.165598 -0.0291811 -1.47901e-19)
(-0.282637 -0.084536 -1.55235e-19)
(0.596924 -0.0723605 2.61714e-19)
(-0.197451 -0.147713 1.07857e-19)
(-0.280743 -0.087049 7.75021e-20)
(0.606232 -0.0611916 -7.00478e-20)
(1.19118 -0.234268 0)
(0.199209 -0.0695652 0)
(0.0800301 -0.0206894 -2.7648e-19)
(0.144219 -0.090097 -4.09186e-20)
(-0.328794 -0.0580069 -9.18935e-20)
(1.32121 -0.33548 -1.06959e-19)
(-0.266335 -0.0804457 0)
(0.921637 -0.231651 -2.3574e-20)
(0.9814 -0.0464723 0)
(1.04406 -0.0630762 1.54987e-20)
(1.01444 -0.0528001 0)
(0.942675 -0.444543 0)
(1.35136 -0.0387712 -1.55291e-19)
(1.07441 -0.00976344 0)
(1.26595 0.0865823 0)
(1.23597 -0.150257 1.23623e-21)
(0.792104 -0.339802 0)
(-0.0691287 -0.0379053 7.12936e-21)
(1.07803 -0.00548752 0)
(1.00039 -0.0036118 -5.77667e-21)
(1.31235 -0.111915 -1.48526e-19)
(-0.59128 -0.118681 0)
(-0.0853146 -0.0662721 -1.34529e-19)
(1.19483 -0.0339514 -4.08324e-20)
(-0.145788 -0.0344758 0)
(1.01844 -0.00182051 2.34911e-20)
(1.33781 -0.139072 -1.74843e-19)
(1.0093 -0.0806009 0)
(1.06085 -0.113161 0)
(1.00481 -0.0295812 1.30722e-21)
(1.10328 -0.0965438 -3.29396e-20)
(1.21366 -0.159439 2.32524e-20)
(0.817721 -0.0865766 2.89209e-21)
(0.122411 -0.109844 0)
(-0.300356 -0.0646491 -2.06156e-19)
(0.733804 -0.0786207 -1.23651e-19)
(1.01278 -0.0263379 0)
(0.908358 -0.435201 0)
(-0.140415 -0.0342924 0)
(1.06751 0.00060429 -1.02968e-20)
(0.995988 -0.014359 -1.50429e-20)
(0.714325 -0.202693 0)
(0.0796031 -0.0204884 0)
(-0.299688 -0.054036 -2.60914e-19)
(0.999053 -0.141353 -3.22474e-21)
(0.692299 0.389871 4.47645e-20)
(-0.290704 -0.15926 0)
(1.20538 -0.558887 -1.92642e-20)
(1.0209 -0.0048563 0)
(0.992282 -0.0185504 -3.63552e-23)
(0.0130947 -0.0149409 0)
(1.33757 -0.217538 -4.2657e-20)
(-0.173434 -0.0352942 2.48846e-23)
(0.931716 -0.184281 -3.57731e-20)
(-0.0908623 -0.123202 0)
(1.49492 0.131831 8.9759e-20)
(1.31617 -0.104649 2.14575e-19)
(1.06104 -0.00506437 -2.51112e-20)
(1.23509 -0.472204 6.49359e-20)
(-0.193001 -0.0968424 1.27931e-19)
(0.73287 -0.082589 -3.08258e-19)
(0.519602 -0.0627829 7.34682e-20)
(-0.0809616 -0.0677432 5.94164e-20)
(0.558486 -0.466307 7.07284e-24)
(0.976727 -0.120975 9.43154e-21)
(0.117183 0.0174456 0)
(1.00025 -0.00069838 0)