/*--------------------------------*- C++ -*----------------------------------*\
| =========                 |                                                 |
| \\      /  F ield         | OpenFOAM: The Open Source CFD Toolbox           |
|  \\    /   O peration     | Version:  v2012                                 |
|   \\  /    A nd           | Website:  www.openfoam.com                      |
|    \\/     M anipulation  |                                                 |
\*---------------------------------------------------------------------------*/
FoamFile
{
    version     2.0;
    format      ascii;
    class       volVectorField;
    location    "500";
    object      ddt0(U);
}
// * * * * * * * * * * * * * * * * * * * * * * * * * * * * * * * * * * * * * //

dimensions      [0 1 -2 0 0 0 0];


internalField   nonuniform List<vector> 
13308
(
(0.00771541 -0.00501005 0)
(0.0549213 -0.187553 -6.73579e-21)
(-0.0529851 -0.0407694 5.20765e-20)
(-0.000273182 3.47312e-06 -2.16804e-22)
(0.0157737 0.0117762 -4.34549e-21)
(-0.000209425 3.40003e-05 -4.73868e-23)
(0.00311884 0.059427 -1.50477e-20)
(-0.00210078 -0.000164477 0)
(0.0277563 0.0447599 0)
(-0.0993097 -0.0478278 -6.24648e-20)
(0.148199 0.0128287 0)
(0.0285845 -0.103694 -3.36466e-20)
(-0.000231986 -5.14899e-07 0)
(-0.000845118 -1.09288e-05 0)
(-0.00023668 1.92798e-05 0)
(-0.0963336 -0.0754457 0)
(-0.00768867 -0.00456954 -1.06618e-21)
(0.0619984 -0.19263 -6.38587e-21)
(-0.141002 0.202282 -5.31059e-20)
(-0.0724582 0.124706 3.92065e-20)
(-0.00132235 0.00695204 -3.18568e-21)
(0.0269166 -0.171915 1.00091e-19)
(0.0493215 -0.144231 -4.50724e-21)
(0.00240032 0.00831627 -6.909e-21)
(-0.100058 -0.078645 0)
(0.0437907 -0.0675795 7.39862e-20)
(0.010111 0.0098279 3.69463e-21)
(0.13608 0.0328459 2.11536e-20)
(0.00727331 0.0197509 3.84146e-21)
(-0.0231286 0.0379281 0)
(0.147587 -0.144879 -2.39155e-19)
(-0.0177168 0.02751 0)
(0.0538087 -0.126558 0)
(0.0134543 0.00672794 0)
(0.0436826 -0.184871 -1.03645e-19)
(-0.00809691 0.00359396 -2.40739e-21)
(0.00994519 0.0335127 1.446e-20)
(0.0506383 -0.1436 2.05269e-21)
(-0.00496183 0.00250197 6.10809e-23)
(-0.0740117 -0.0458269 -3.0634e-20)
(-0.0006199 0.000167106 0)
(-0.0011637 0.000534359 -1.05793e-20)
(-0.0551202 -0.254808 -4.28142e-20)
(-0.000494654 -0.000402609 -1.54771e-21)
(-0.00565031 0.00150396 0)
(0.0877735 0.0660789 0)
(-0.000235517 -2.56949e-06 8.96931e-25)
(-0.00014701 -4.06394e-05 2.51519e-24)
(0.00401243 0.00314402 1.10032e-23)
(-0.0361514 -0.0285109 -4.70512e-20)
(-0.000647814 -6.12764e-05 -1.93744e-23)
(0.00145422 -0.00193385 0)
(-0.0532032 -0.234601 7.91992e-21)
(-0.0434636 0.0300145 2.45837e-20)
(0.088355 0.037366 5.91023e-19)
(0.0289259 0.0165972 5.05651e-20)
(-0.000535858 -0.000297451 -6.9443e-22)
(0.00256438 -0.00101102 -3.44294e-21)
(-0.00295653 0.00560372 -3.61421e-21)
(-0.00314837 0.0056016 0)
(-0.179092 -0.00551035 1.07389e-20)
(0.0390676 -0.0871956 8.47697e-20)
(0.00183863 -0.0012373 5.27456e-21)
(-0.000808755 0.000591074 0)
(-0.000414072 -3.5967e-05 -1.67724e-21)
(0.0555378 -0.129649 9.42481e-21)
(-0.000552181 1.53804e-05 -1.58696e-21)
(0.0849575 0.13499 0)
(-0.000207129 1.76837e-05 -1.5826e-22)
(-0.101216 0.0293794 0)
(0.404206 0.00112786 0)
(-0.00594022 0.00173777 3.14702e-22)
(0.00432984 -0.0108064 -5.74687e-21)
(-0.0225594 0.0393512 6.69689e-21)
(0.0949965 0.0313492 1.40971e-20)
(-0.000889524 0.000953822 -9.48591e-21)
(-0.000312491 -6.99479e-05 0)
(0.0364053 0.0150775 -2.62342e-20)
(-0.000431531 -0.000926191 -5.88142e-22)
(0.0165697 -0.0269372 1.31276e-21)
(-0.00236694 -0.00232655 -3.64314e-21)
(-0.00044458 -1.31675e-05 0)
(-0.00157126 0.00254692 7.43718e-21)
(-0.000656088 0.00712017 0)
(0.0214301 0.112412 0)
(-0.00125934 0.00568902 0)
(0.144517 0.0488297 -3.30983e-20)
(-0.146948 0.469058 3.70405e-20)
(-0.0327944 0.0972095 6.05733e-22)
(-0.0728035 0.108932 -3.6475e-20)
(-0.00250734 0.00111967 3.7086e-20)
(-0.000550923 3.77731e-05 0)
(0.0153521 0.0013573 -1.22148e-20)
(-0.00409028 0.0126728 6.57067e-21)
(-0.000652629 -7.0655e-05 -4.38404e-22)
(0.000660424 0.00285684 -5.89645e-21)
(-0.0010081 0.000729553 -5.68739e-23)
(0.0190273 -0.0254733 7.19588e-22)
(0.40311 0.104954 4.29283e-21)
(-0.104244 0.0169226 0)
(-0.00299564 0.00101984 -7.82813e-22)
(-0.000454754 0.000101819 -7.47919e-21)
(-0.000501985 -3.93373e-05 1.6508e-21)
(-0.00648617 0.0155527 0)
(0.109276 0.0260676 -1.13195e-20)
(0.115407 -0.152822 -2.71376e-21)
(-0.0475687 -0.0457879 -4.20557e-20)
(-0.000205751 2.9082e-06 1.32266e-22)
(0.0154052 -0.0552056 0)
(0.0467447 -0.0675736 -6.35415e-20)
(-0.00133661 0.0048118 1.1181e-20)
(0.00401735 -0.0386161 1.02886e-20)
(0.0025806 0.0103866 3.03138e-21)
(-0.000375188 -0.000813185 5.55883e-22)
(0.00313701 0.010692 -3.4412e-21)
(-0.143123 0.184328 7.19719e-20)
(0.0906978 0.02936 -1.91701e-20)
(-0.00203346 -0.292766 3.62496e-21)
(0.00926861 0.0150203 -1.27718e-20)
(0.00210723 -0.00101978 0)
(0.00416568 0.00852818 4.89221e-21)
(-0.0123629 0.00869877 0)
(-0.0004692 -0.000487838 -1.60445e-22)
(-0.0157088 -0.00805882 -5.81408e-22)
(0.0173701 -0.059038 -2.11318e-21)
(-0.0221974 0.0575477 0)
(0.0264541 0.110217 7.32108e-20)
(0.0366289 0.105119 -6.46918e-20)
(0.00548953 -0.00976888 3.97541e-21)
(-0.0552883 -0.020684 0)
(0.351177 0.083199 0)
(0.00896691 0.0228201 8.57905e-21)
(-0.000873037 0.000617913 7.63575e-21)
(0.00083675 0.00192062 4.08312e-21)
(0.0246148 0.0325309 -5.81382e-22)
(-0.0138866 -0.0143428 -6.00977e-21)
(-0.000516346 5.41244e-05 0)
(0.0152875 -0.0775343 0)
(0.0592713 0.00507296 0)
(-0.00281862 -0.000897517 -1.18571e-20)
(0.00103965 -0.00871041 -1.5435e-20)
(-0.00177646 0.00245949 0)
(-0.00109236 0.000215092 0)
(-2.62084e-05 0.0094116 0)
(-0.00289115 0.00695599 -7.20572e-21)
(0.0174879 -0.0501673 -1.0681e-20)
(0.0119609 -0.0173929 0)
(-0.0796608 0.0961759 -5.99454e-20)
(-0.00195134 -0.00250682 8.72026e-21)
(0.0170517 0.0324651 -1.3138e-20)
(0.0896373 0.0408254 8.69656e-19)
(-0.000536032 1.47857e-05 0)
(-0.239272 -0.0485357 2.37106e-19)
(-0.151871 0.0608528 7.39806e-20)
(0.0224513 -0.0508557 0)
(0.0489802 0.0214078 1.16168e-20)
(-0.000222475 -2.05497e-05 -2.98086e-23)
(-0.000691817 0.00022389 2.00699e-21)
(-0.000624777 4.19718e-05 0)
(0.115214 0.203528 0)
(-0.0888229 -0.0531467 8.81262e-20)
(0.0018055 -0.00204275 2.7979e-21)
(-0.00105085 0.000505416 3.09322e-21)
(0.0353897 -0.0881927 -7.17256e-20)
(0.0443919 0.0179977 -1.32669e-20)
(-0.0146273 0.0577103 0)
(0.0290514 -0.156687 2.04687e-19)
(-0.000653513 0.000179018 -1.58489e-22)
(0.00998448 -0.0560826 6.02913e-20)
(0.00315668 -0.000778649 -7.14773e-21)
(-0.00111794 0.00043768 -3.61652e-20)
(-0.0177546 -0.266533 -1.07359e-19)
(-0.000525252 5.5911e-06 -1.63579e-21)
(-0.0259237 -0.0141424 2.87458e-20)
(0.109982 0.0343588 -1.38488e-20)
(0.0317798 -0.112723 9.24916e-20)
(0.034954 -0.161589 -6.30944e-21)
(-0.0410186 -0.0331844 -2.39765e-20)
(0.0132207 0.0471947 8.70034e-21)
(-0.000289166 -4.39779e-06 -5.23353e-22)
(0.00814573 -0.137531 3.37194e-20)
(-0.0462286 -0.234445 -1.26001e-21)
(-0.000536076 5.11482e-05 1.67419e-21)
(-0.0965578 -0.0233713 -6.18959e-22)
(-0.00220574 -0.105795 0)
(-7.30513e-05 -1.02462e-05 2.72597e-22)
(0.0203738 0.0140804 -4.66952e-20)
(0.163325 -0.119342 0)
(-0.021473 0.0407237 0)
(-0.115464 -0.203227 0)
(-0.121051 -0.165116 0)
(-0.0803126 0.126223 0)
(-0.00382245 0.00523199 2.63961e-21)
(0.0286706 -0.0688231 -1.03745e-19)
(-3.98086e-05 0.00113866 1.21317e-20)
(0.031445 -0.108366 -7.69699e-20)
(0.000240374 -0.00235515 2.68868e-20)
(0.0127018 -0.0227679 -3.88457e-22)
(0.0343242 0.203926 8.62915e-20)
(-0.000482855 0.00140413 -1.26517e-20)
(-0.0911873 -0.0952639 4.50942e-20)
(-0.0489064 -0.236177 2.62924e-20)
(0.122829 0.0392429 2.37439e-20)
(0.0320103 0.0193908 -3.10922e-23)
(-0.070341 -0.0360383 0)
(0.0995204 0.00496446 1.91275e-21)
(-0.0775791 -0.0380413 -3.8427e-20)
(0.103683 0.080033 -1.33427e-19)
(-0.135358 -0.253929 1.66103e-20)
(0.0968872 0.0355144 -7.31451e-19)
(-0.132903 -0.261144 -3.196e-20)
(-0.0550446 -0.0774912 3.43863e-20)
(0.0031387 -0.014734 -5.26734e-21)
(0.000253794 -0.011763 -4.60469e-20)
(0.0535998 -0.0474893 -1.23363e-19)
(-0.0142335 0.00299386 0)
(-0.000229984 -2.04511e-05 9.34019e-23)
(-0.189688 0.475207 6.90344e-20)
(0.10158 0.190423 2.40205e-20)
(0.0696132 0.164888 1.89772e-20)
(0.152424 0.037167 3.8508e-22)
(-0.000560223 -1.2451e-06 -3.82702e-21)
(0.042007 0.0214106 0)
(-0.000169414 9.08183e-05 -2.64081e-23)
(-0.0134845 0.000163832 0)
(-0.107753 -0.162536 1.26585e-19)
(0.0168387 -0.0394386 0)
(0.0971782 0.0228294 2.17988e-20)
(0.0312934 0.0147506 1.95694e-21)
(0.0942005 -0.0109873 -2.81657e-21)
(-0.0549311 -0.0175927 3.43712e-20)
(-0.014511 -0.00258012 -6.41667e-22)
(-0.0474968 -0.0333165 1.28131e-20)
(0.0172873 0.14666 0)
(0.0102717 -0.00314366 0)
(-0.000314371 -0.0116086 2.46289e-20)
(0.0569909 -0.213056 0)
(-0.0342856 -0.10535 0)
(0.0659457 -0.0485259 -1.8681e-20)
(-0.0177599 -0.00104077 7.42901e-21)
(-0.00135593 0.00812853 0)
(0.0104401 -0.00244722 0)
(-0.00178273 0.00669092 1.76406e-20)
(-0.000251891 8.22044e-05 1.09307e-23)
(0.0432138 -0.0746061 -2.87871e-20)
(-0.00434232 -0.137448 -8.63232e-22)
(-0.0824979 -0.0557248 -3.18084e-20)
(-0.0849456 0.131607 7.25911e-20)
(-0.000149148 6.81144e-05 0)
(-0.00908739 -0.110073 -3.92191e-21)
(0.0530425 -0.0468154 1.18934e-19)
(0.0504385 -0.115272 3.41494e-20)
(-0.000508915 5.42888e-05 2.21944e-21)
(0.0417066 -0.082205 3.87181e-22)
(0.0853515 0.185291 7.44457e-20)
(-0.0159608 0.001786 5.13405e-21)
(-0.255556 -0.0952979 -7.74609e-20)
(-0.000551619 1.22162e-05 2.11958e-21)
(0.0201663 -0.0454801 0)
(0.0344517 0.0166025 -1.09032e-19)
(-0.0280477 0.0346802 0)
(-0.0976026 0.121466 0)
(-0.000372548 -0.0165609 0)
(-0.000259211 -0.00263236 9.33177e-21)
(0.0371659 0.0154728 -1.2096e-20)
(0.00677742 0.0232875 -4.95667e-22)
(0.0626845 -0.0279571 4.84194e-20)
(-0.00075199 0.000431059 0)
(0.162678 0.0552842 0)
(-0.085935 -0.147566 0)
(-0.139295 -0.102091 4.39508e-20)
(0.0104435 0.00535067 -1.52733e-20)
(-0.000831756 2.34636e-06 1.34606e-21)
(0.0560522 0.0104797 0)
(-0.000858111 -0.00138412 8.77388e-23)
(-0.000468487 -2.80839e-05 8.58156e-22)
(0.00115221 0.00431619 1.04516e-21)
(0.0602409 -0.00947325 -1.92276e-20)
(0.00255064 0.00473804 1.24783e-20)
(0.0372865 -0.0141401 -1.63096e-20)
(0.0379687 -0.109329 -3.29578e-20)
(-0.000779665 -8.9966e-05 -7.49019e-21)
(-0.034945 0.0959228 -5.40192e-22)
(-0.0161555 -0.0025251 -3.02696e-21)
(0.201535 -0.103244 0)
(-0.156684 -0.105336 7.46865e-21)
(-0.000271858 -0.00262549 -4.76744e-21)
(0.008193 -0.00131773 0)
(0.0529197 -0.0188347 4.10679e-21)
(-0.132295 -0.100777 3.70346e-20)
(-0.00132936 0.0320664 -1.41239e-21)
(-0.000679579 4.92708e-05 7.06183e-21)
(-0.0142322 -0.0601118 -3.775e-20)
(-0.0451115 -0.233706 -2.5218e-22)
(-0.000897989 0.000676951 0)
(0.0888936 -0.0155006 -3.45462e-21)
(0.0277772 0.0103329 -1.07599e-19)
(-0.0317603 0.0344719 -7.93345e-22)
(0.0356012 -0.0101359 -1.53274e-20)
(-0.108355 -0.157086 -3.23455e-20)
(0.0533084 -0.121065 1.61566e-20)
(0.00783265 -0.0224272 -1.35071e-20)
(0.0403307 -0.0623512 -7.98437e-20)
(0.00452926 0.1297 9.60973e-21)
(0.0268508 0.206549 -2.02197e-20)
(0.00282485 0.00152517 3.98376e-22)
(-0.00760831 0.0236652 4.99922e-21)
(-0.0239625 -0.0164341 5.42553e-20)
(-0.0743547 0.121592 -3.33949e-20)
(-9.59188e-05 -1.8217e-06 0)
(0.0159206 -0.265879 3.39278e-20)
(-2.15694 0.528377 -4.23659e-18)
(0.00550208 0.0317653 1.07679e-20)
(0.123326 0.0351595 4.4761e-21)
(-0.0598288 -0.214094 0)
(0.105612 0.034351 0)
(-0.000198519 -2.42301e-05 -1.0935e-21)
(-0.000908754 0.000632709 0)
(-0.000761035 -3.66993e-05 -6.80298e-21)
(-0.0133235 -0.0570434 -1.60671e-20)
(-0.00051994 9.80544e-05 -1.19963e-20)
(-0.000386866 -5.82666e-05 0)
(-0.0506561 -0.0133333 0)
(-0.000284947 -5.18277e-05 0)
(-0.150379 -0.19203 3.57542e-19)
(0.00163232 0.00711142 -6.77542e-22)
(-0.0147716 -0.000962227 9.39277e-22)
(-0.000857221 -0.000217311 0)
(-0.0065187 0.00128861 -4.53439e-22)
(-0.00277756 0.0367287 -5.19814e-21)
(0.05021 -0.106401 -4.51087e-20)
(-0.000566082 -0.000142611 -4.66563e-22)
(-0.0787224 0.129017 6.6236e-21)
(-0.00172503 0.00040985 0)
(-0.000287374 4.0873e-05 -3.71526e-22)
(0.0811653 0.0246799 9.11818e-21)
(-0.095192 -0.124742 0)
(-0.000891461 -3.05344e-05 -5.18207e-22)
(0.0138403 -0.0322276 0)
(-0.0870118 0.0787621 0)
(0.0070031 0.00794186 -1.81516e-20)
(-0.00110902 0.000776563 0)
(-0.000715803 -0.000395227 -1.00034e-21)
(0.0170101 0.0142787 4.09723e-21)
(0.0974519 -0.0225917 0)
(-0.111218 -0.0947568 4.77434e-20)
(0.0325658 -0.0687947 -2.20891e-20)
(0.0295413 -0.064148 6.75215e-21)
(-0.000509315 -1.17147e-05 0)
(0.000214239 0.0104734 -1.01848e-20)
(0.00429627 0.000287694 7.44838e-21)
(0.0915887 0.0101022 5.83677e-20)
(-0.0658959 -0.165162 0)
(-0.000628334 -5.17674e-06 0)
(0.00475869 0.00285694 -7.80128e-22)
(-0.00196381 0.00429871 -4.82492e-21)
(-0.0464073 -0.246366 0)
(0.00272257 0.00201613 0)
(0.0376562 -0.0344277 2.08183e-20)
(0.100477 0.198204 1.96419e-20)
(-0.0813115 -0.382419 -1.56407e-20)
(0.022285 0.0375961 6.36901e-22)
(0.00318746 -0.000531245 0)
(-0.122622 -0.105603 -3.73778e-20)
(-0.0318499 -0.229863 -6.42362e-20)
(0.0484353 -0.0677759 1.65381e-20)
(-0.000696056 -0.000545295 9.53054e-22)
(-0.00025401 9.74838e-05 -1.94556e-23)
(0.00285992 0.000297204 -7.4344e-21)
(0.0009338 0.000629647 -5.81948e-21)
(-0.0803135 -0.0987716 0)
(0.450736 -0.28987 7.14437e-19)
(-0.0682829 0.0913793 0)
(-0.000628716 -2.00547e-05 1.92321e-22)
(0.00222253 -0.000492544 7.09892e-21)
(0.0322325 -0.0148808 0)
(0.0322793 -0.0935754 1.43752e-19)
(0.0473329 -0.0962772 1.10323e-20)
(-0.00216989 -0.00207136 -4.692e-21)
(0.0665528 0.00440806 -1.1031e-20)
(-0.00448685 0.00148929 -5.89193e-22)
(-0.00182448 6.85909e-05 5.84554e-22)
(0.0628306 0.0984598 -1.50273e-20)
(0.00776429 0.00300274 5.95497e-20)
(0.000697147 0.00317057 -4.56092e-21)
(-0.045268 -0.240508 0)
(0.007051 -0.0303211 -8.97223e-21)
(-0.00636428 0.00901549 0)
(-0.000546022 1.77469e-05 1.55662e-21)
(-0.0929956 -0.0052566 2.98014e-21)
(0.000449734 0.00965699 5.67142e-21)
(0.0156936 -0.00449654 -7.96443e-22)
(-0.0209796 0.0535604 -3.04737e-22)
(-0.0986807 -0.11597 -6.06818e-20)
(-0.0141914 -0.295778 1.0103e-20)
(-0.0308857 0.0366004 -1.1372e-20)
(-0.0266 -0.0231173 1.92789e-20)
(-0.000605909 -6.59068e-05 0)
(0.0871174 0.00481018 0)
(-0.000795055 0.000478082 2.06586e-20)
(0.0607633 0.177031 0)
(-0.000291036 -5.24699e-07 7.2937e-22)
(-0.0801915 0.0291266 0)
(0.0485988 -0.068561 -1.69347e-20)
(0.000147338 -0.000352339 -2.30206e-23)
(0.0715828 -0.172701 6.47983e-20)
(-0.000201944 -1.31344e-05 -2.74122e-23)
(-0.000413959 -0.000391164 2.0497e-22)
(0.340999 0.0939804 -6.69036e-21)
(0.0936264 0.0287149 1.35482e-20)
(-0.00596805 0.00267932 9.56983e-22)
(-0.0795799 0.0669909 -6.15713e-20)
(0.0073844 -0.0995992 0)
(-0.000606457 -3.06801e-05 1.86164e-21)
(-0.000558052 9.89431e-05 1.74188e-21)
(0.00154359 -0.138902 -3.22312e-21)
(-0.00467292 0.000784518 -6.05114e-23)
(-0.000562556 0.000127246 0)
(-0.00480326 0.00843828 -2.66214e-21)
(0.036293 -0.0184931 5.29556e-21)
(0.0458072 -0.0251947 1.6072e-21)
(0.00248086 -0.00101918 0)
(0.001627 -0.00127162 -1.14504e-20)
(-0.00323114 -0.00177334 0)
(0.00513857 0.00827972 5.50322e-21)
(-0.0486757 -0.0542129 8.77438e-20)
(-0.0927402 0.0691245 0)
(-0.000728723 -0.00484009 -5.33553e-21)
(-0.0451033 0.0125367 -1.77189e-20)
(0.0789687 0.0860316 1.18729e-20)
(-0.151712 -0.0945258 0)
(3.86544e-05 -0.00018061 -3.38153e-22)
(-0.0261882 0.0468081 4.02223e-21)
(0.186306 0.185486 2.47742e-21)
(-0.000300934 -0.0015626 -6.77376e-21)
(-0.00025427 -6.428e-05 2.0092e-22)
(0.0274335 -0.0947414 -7.00343e-20)
(-0.000534062 3.71786e-05 2.67939e-21)
(0.00538062 0.0130863 -6.17229e-21)
(-0.0671258 -0.0366255 7.08215e-20)
(0.0103696 -0.0176588 8.07092e-20)
(0.0730891 -0.174538 0)
(-0.0265084 -0.0328539 -9.07288e-20)
(0.00255737 0.00061464 4.05042e-21)
(0.0252995 -0.225045 7.00154e-20)
(0.00155197 0.00194138 1.29298e-20)
(-0.0319483 -0.218448 1.84673e-20)
(-0.0532351 -0.231748 0)
(-0.000556286 5.73179e-05 -2.5032e-21)
(-0.0126823 -0.118351 0)
(0.00659594 0.0001699 0)
(0.213304 0.161227 -7.0591e-20)
(0.0404196 -0.0926703 2.00176e-20)
(0.128222 -0.0961044 0)
(0.00223515 0.00464995 4.1469e-21)
(-0.00597747 0.0230671 4.21227e-21)
(0.0028326 -0.000836669 -8.08897e-20)
(-0.0271277 -0.117335 -2.19859e-20)
(0.0458832 -0.141737 0)
(-0.0789167 0.0231762 0)
(0.0576685 0.143739 0)
(0.0505768 -0.201834 2.29536e-21)
(-0.000524447 -0.000149415 -2.45419e-21)
(-0.114086 -0.057042 0)
(0.00264544 -0.00094323 0)
(0.0602997 0.0129162 -1.73589e-19)
(-0.000907977 -4.62436e-05 5.75126e-22)
(-0.0032297 -0.00135284 0)
(-0.000167284 -0.000288203 -3.63967e-21)
(-0.073521 -0.141749 -6.12299e-20)
(0.0794682 0.105464 -3.39432e-20)
(-0.000993278 0.00113826 0)
(0.0382496 -0.142052 -5.54476e-20)
(-0.0025055 0.000362859 2.13718e-21)
(-0.0656061 -0.188562 -1.77515e-20)
(0.0470252 -0.0869115 -1.14574e-20)
(0.0268812 0.0242483 1.26579e-20)
(-0.000735815 0.00591057 0)
(-0.019224 -0.0886591 5.08778e-20)
(-0.000761135 -0.000149188 0)
(0.0148229 -0.02502 2.06981e-21)
(-0.000537827 6.99567e-05 0)
(0.0158936 -0.0314348 0)
(-0.00031637 -0.00157317 1.07674e-20)
(-0.0659584 -0.0342815 -4.6634e-20)
(-0.00335857 -0.000604606 0)
(0.00435648 0.00160298 0)
(-0.0314956 -0.145376 6.25668e-21)
(0.00114814 0.00444717 -1.16803e-20)
(-0.000512286 5.08313e-05 -2.60787e-21)
(-0.000675014 6.81283e-05 6.37476e-21)
(-0.00926042 0.0187675 3.11153e-22)
(-0.0275268 -0.143919 -1.29036e-20)
(-0.000298512 -6.37824e-05 2.88146e-24)
(0.000303424 -0.000178751 1.43474e-22)
(-0.00374824 -0.00119676 2.27555e-23)
(-0.000227115 1.38242e-05 0)
(-0.028414 0.0404063 4.72002e-20)
(0.355133 0.259672 -1.90104e-19)
(0.215886 0.189891 6.06531e-20)
(-0.0259172 -0.124771 4.27126e-21)
(0.0524633 0.0134987 0)
(-0.0146416 -0.33916 2.83314e-21)
(0.0587917 0.00790741 4.10219e-21)
(-0.00654981 0.00734335 0)
(0.0028019 -0.000113272 -4.1998e-21)
(-0.115581 -0.0467579 4.67754e-21)
(-0.022869 -0.0320265 1.12228e-19)
(-0.000224146 -4.41117e-05 2.42418e-21)
(0.0114037 -0.0632317 1.33492e-20)
(0.0244096 0.0254665 0)
(-0.0246769 0.0481781 1.95656e-20)
(-0.00398541 0.00104448 2.37932e-21)
(-0.000808387 0.000734946 0)
(0.0024494 0.00756808 -1.08822e-22)
(0.0024386 0.00963079 0)
(0.0210773 -0.0136212 1.90287e-20)
(-0.000926026 -0.000163596 0)
(-0.0271586 0.00743016 -1.26941e-20)
(0.0474772 -0.082827 1.39849e-20)
(-0.14084 -0.305256 0)
(-0.0716736 -0.141401 0)
(-0.00582988 -0.114672 0)
(0.013615 -0.00170349 6.71282e-22)
(-0.000188742 -2.85366e-05 0)
(-0.0164708 -0.0619219 9.909e-21)
(-0.000738077 -0.000531453 -7.14226e-24)
(-0.000247998 -5.31561e-05 -2.02488e-22)
(-0.0325194 -0.127225 -6.28553e-21)
(-0.0223657 0.0668153 0)
(-0.0655622 -0.0418703 1.36518e-20)
(0.0170978 -0.00851404 -3.09101e-20)
(0.0375967 -0.0760742 4.3096e-20)
(-0.0409198 -0.188976 -5.73139e-20)
(-0.000154068 1.34427e-06 -8.5368e-23)
(0.0880674 0.023369 -4.30826e-21)
(0.0542841 0.0826649 1.21114e-20)
(-0.0514531 -0.252397 -1.38999e-20)
(-0.000349346 -8.13443e-05 3.24731e-22)
(0.104846 0.137969 6.06715e-20)
(-0.000665166 -0.000175553 4.73528e-22)
(-0.0311333 0.0325666 -5.202e-21)
(-0.000509104 9.61972e-05 -2.74393e-21)
(0.117564 0.0155785 1.89058e-20)
(-0.00393895 -0.000332161 -3.19359e-21)
(-0.12522 -0.178928 2.61841e-19)
(0.100391 0.494501 -1.67784e-20)
(-0.0260446 -0.223369 7.41496e-20)
(-0.000524394 6.51176e-05 -2.81454e-21)
(0.00109792 -0.00242135 1.18364e-20)
(0.0379423 -0.0791434 0)
(0.00636175 -0.201908 -5.60444e-21)
(0.384496 0.0199845 0)
(-0.0521508 0.102622 0)
(0.0461202 -0.071294 6.75749e-20)
(-0.0184043 -0.0907494 -2.175e-20)
(0.0784321 -0.170699 -4.9967e-22)
(0.0273723 0.0110553 9.0727e-20)
(0.0579 -0.0855941 0)
(0.0830746 -0.176413 -9.21691e-22)
(0.010918 6.58015e-05 0)
(-0.000467961 0.000103081 5.21539e-21)
(0.000782243 -0.00230311 0)
(0.140739 -0.0336405 0)
(-2.96475e-05 -0.000751291 1.3504e-21)
(-0.020437 -0.0786872 -3.08888e-20)
(0.0271141 0.00775792 -8.80108e-20)
(-0.000950095 0.00117497 0)
(-0.00999779 -0.13014 -2.63533e-20)
(-0.0174484 -0.126751 -3.77464e-21)
(0.278654 0.0903271 4.93903e-19)
(-0.000469221 -0.000212378 0)
(-7.82576e-05 -0.000572217 -1.37389e-21)
(-0.000462475 -0.000190783 0)
(0.15575 0.1515 -4.95144e-20)
(0.0046491 0.0254608 7.26389e-21)
(-0.000643479 -2.269e-05 2.31401e-21)
(-0.000878837 0.00130658 -6.91139e-21)
(0.17332 0.217899 -2.9662e-19)
(-0.000491294 -5.9811e-05 0)
(-0.0966287 -0.138926 -5.50822e-21)
(0.032725 0.0146621 -1.3763e-20)
(0.00341325 -0.00597982 4.88848e-21)
(-0.0395753 0.0050771 1.70316e-20)
(-0.000732754 0.000412884 0)
(-0.000527355 -9.61576e-05 0)
(-0.000909528 0.000325042 0)
(-0.0234347 -0.00802655 -9.51266e-21)
(-0.00409883 0.00936891 3.38244e-21)
(-0.000217626 -1.84517e-05 7.06551e-23)
(0.0948402 -0.00869454 -9.74641e-21)
(-0.000582102 -5.9477e-05 1.52886e-21)
(0.000678211 -0.000767111 -3.3052e-24)
(-0.000150145 0.000101144 0)
(-0.0004877 5.13879e-05 0)
(0.0282977 -0.0352202 0)
(0.0479112 -0.0919531 -8.50722e-22)
(-0.000690273 8.3209e-05 -2.56797e-21)
(0.0149874 0.0136043 0)
(-0.00085372 0.000814909 5.4471e-21)
(-0.000485464 8.41315e-05 0)
(-0.000664837 7.09599e-05 0)
(0.0143796 -0.00583619 -1.28103e-20)
(0.00457876 -0.0222749 1.61372e-20)
(-0.0050625 0.00123629 0)
(0.00251972 0.0031929 -7.1649e-20)
(-0.000682491 -6.55308e-05 -4.66857e-21)
(0.0738472 0.29602 -1.01903e-19)
(0.0103069 0.00166098 7.84018e-21)
(-0.051858 -0.255247 6.50868e-20)
(-0.0434346 -0.239604 1.14911e-19)
(0.00414162 0.0129587 -1.21723e-20)
(0.0107541 0.00856372 -1.48439e-20)
(-0.000176869 -1.39623e-05 -5.06509e-23)
(0.163682 -0.0800007 0)
(0.119545 0.199942 1.2078e-19)
(-0.00475434 0.0177447 0)
(-0.000214849 2.47473e-05 2.44653e-22)
(0.0690848 0.0145855 1.33657e-20)
(0.0786148 0.024795 2.37916e-20)
(-0.0537075 -0.0118421 1.92399e-20)
(-0.00103927 -2.57169e-05 0)
(0.0079415 0.00316764 -3.34366e-22)
(0.0573481 -0.0170573 -1.83223e-20)
(0.0290842 0.0105384 -1.16771e-20)
(0.0716744 0.0217224 -8.73599e-20)
(-0.00211615 -0.00243694 1.04749e-21)
(-0.000512023 0.000111805 2.63078e-21)
(-0.0523448 0.0250964 0)
(0.0658153 0.0212997 -1.58266e-19)
(-0.0172282 -0.00764404 -3.96818e-21)
(0.0861212 -0.173399 0)
(-0.0394615 -0.0230803 -9.46611e-21)
(-0.0538273 -0.0261781 3.02446e-20)
(0.019712 -0.185198 2.95222e-20)
(-0.0171046 -0.0851695 0)
(-0.0234491 -0.0108345 9.10081e-21)
(-0.00534095 0.0014171 3.24415e-22)
(-0.0438437 -0.229497 0)
(0.00875382 -0.0604146 -1.97e-21)
(-0.00566248 0.000393104 -5.19379e-22)
(-0.00131665 0.000761941 -2.1751e-21)
(0.0246968 0.00842437 0)
(0.027676 -0.0572311 -1.46441e-20)
(0.0143355 -0.0136593 3.33899e-21)
(0.0446966 0.0971316 -4.45834e-21)
(-0.000287346 0.00354103 6.1491e-20)
(-0.000897637 0.00105589 3.60331e-21)
(-0.000202466 0.000132064 0)
(-0.0452333 -0.0409894 3.69095e-20)
(-0.0620779 0.217443 0)
(-0.000502095 -1.37293e-05 0)
(-0.0335263 -0.19524 5.43072e-20)
(-0.00290714 0.00173329 3.11799e-21)
(-0.0202374 0.283824 0)
(-0.000738747 0.000394814 0)
(-0.000471699 -0.000203858 0)
(0.0339126 0.142497 0)
(0.0816381 -0.193704 0)
(0.0208622 0.00903169 0)
(-0.0175416 -0.0740753 -2.74122e-21)
(-0.00680321 -0.195302 1.0874e-19)
(-0.0428697 0.00701307 -1.27563e-20)
(0.102011 0.0899752 1.93764e-20)
(-0.0170228 0.000409023 0)
(0.067118 0.0971895 0)
(-0.0446415 -0.23994 -7.73022e-21)
(-0.000315611 -3.71857e-05 2.74417e-22)
(-0.0791653 -0.0462885 3.06894e-20)
(0.0124298 -0.0194823 7.71814e-20)
(0.0216058 0.182241 -1.19183e-20)
(0.00159019 0.00179607 2.4561e-21)
(0.068456 0.0324179 0)
(-0.000242891 2.10912e-05 -5.179e-23)
(-0.000555867 2.71363e-05 0)
(0.0177252 -0.0492537 0)
(0.0327524 0.170432 4.37033e-21)
(0.0945616 0.073573 2.91547e-20)
(-0.0729893 0.118495 3.16577e-21)
(-0.0894974 0.0240515 0)
(0.00106396 0.0097988 3.78662e-21)
(-0.0171357 0.0620662 5.06497e-21)
(-0.00710353 -0.0177038 1.31422e-20)
(-0.000203499 0.000110647 0)
(0.0122563 -0.00530105 0)
(-0.00032232 -2.61248e-05 2.09302e-22)
(0.0192138 -0.0435194 1.26391e-19)
(0.0133712 -0.0508422 0)
(0.058119 0.091211 -1.874e-21)
(-0.0566029 0.124358 3.81133e-20)
(-5.80039e-05 -0.000173825 3.53454e-22)
(-0.0622796 0.119455 -4.4445e-20)
(-0.00393551 -0.0228989 0)
(0.0935695 0.0134524 -2.08045e-22)
(-0.169735 -0.0883337 -1.16885e-20)
(0.00341869 -0.00533902 1.96494e-21)
(-0.000807913 -0.00024013 4.06839e-22)
(0.00248215 -0.000897912 -3.93327e-21)
(-0.000834966 -0.000240093 0)
(0.121531 0.185889 8.88579e-20)
(-0.00176977 -6.62491e-05 3.75127e-21)
(-0.123478 -0.140088 0)
(-0.0762326 0.395536 -1.1652e-20)
(-0.0429911 0.0241735 -1.00425e-20)
(0.00189866 0.00191194 -3.49733e-20)
(0.000368038 0.00139375 2.03123e-21)
(-0.114199 -0.197656 0)
(-0.0459649 -0.0474701 -4.65638e-21)
(0.114005 0.0590412 -1.0075e-19)
(0.00280929 0.00139824 -4.46864e-21)
(-0.000551872 -0.000122462 0)
(-0.000601109 -0.000427269 1.06234e-22)
(0.0609379 0.0268614 8.50527e-19)
(-0.000923048 0.000130592 5.49591e-22)
(-0.014017 -0.0428813 6.01288e-21)
(0.01394 0.000750193 0)
(-0.0019398 -0.000208707 2.7516e-21)
(-0.000153629 6.76888e-07 1.04229e-22)
(-0.000654549 0.000321305 0)
(-0.000576733 -4.38411e-05 -2.11921e-21)
(0.00229591 0.00231854 2.17907e-22)
(-0.00104192 0.00123564 0)
(0.0183743 -0.00407866 0)
(-0.138652 -0.297492 -2.27671e-21)
(0.0924604 0.0561319 -2.87353e-20)
(-0.000883198 -0.000165615 0)
(-0.0307064 0.0484882 -2.55457e-20)
(-0.0499113 -0.231374 0)
(0.0067837 -0.00952299 -9.75594e-21)
(0.0484963 -0.0646727 4.92755e-20)
(-0.00728784 -0.00169162 -2.43905e-21)
(-0.00256625 0.0024259 1.51413e-21)
(-0.00754327 0.00334829 3.3383e-21)
(-0.00322091 0.0019705 2.07017e-20)
(-0.0510113 -0.0243699 -7.66488e-20)
(-0.00692024 0.00704513 4.06282e-22)
(-0.170694 -0.0849714 0)
(0.089972 0.0297287 -1.12229e-20)
(-0.185038 0.691495 0)
(0.00110345 0.000941251 -7.5137e-21)
(-0.000499172 -0.000202583 1.46252e-21)
(0.0958812 0.0658583 -2.33897e-19)
(-0.00156952 -0.0014749 -1.79947e-21)
(0.0548967 -0.0413239 0)
(-0.000293788 -0.00177328 -7.87823e-21)
(-0.000359783 -0.00221255 0)
(-0.0924677 0.0259753 0)
(0.00388408 0.00215446 -3.89205e-22)
(-0.00014472 0.000246002 0)
(-0.0728604 0.0163603 -2.08952e-20)
(0.0121907 0.0372386 0)
(0.0472309 0.0257272 -4.1471e-19)
(0.0570057 -0.177596 -3.21527e-20)
(0.225227 -0.0717906 3.19074e-21)
(0.0240392 -0.052401 2.51458e-21)
(-0.00029042 1.92289e-05 -1.68044e-22)
(-0.000197741 -2.29067e-05 0)
(0.00461695 0.0145319 -5.25997e-21)
(0.120472 0.0496855 8.06749e-20)
(0.0792901 -0.00703933 0)
(0.00250659 0.00162081 0)
(-0.000881014 0.000574195 -1.08984e-20)
(0.0479324 -0.0242119 0)
(0.0312535 -0.0334103 -7.35692e-20)
(0.000513324 -0.000790805 -1.73686e-22)
(-0.000450288 4.98441e-05 1.45541e-21)
(0.0931571 -0.186685 0)
(0.00990183 -0.0714279 1.07128e-19)
(0.0319803 -0.00797551 0)
(-0.00282968 0.000688926 0)
(-0.000296434 -7.03077e-05 -2.88136e-22)
(-0.000879874 8.0243e-05 2.05664e-23)
(-0.0010098 -0.00131868 -5.50865e-22)
(0.00102076 -0.00110622 5.98417e-21)
(-0.000267881 -6.34863e-05 0)
(-0.0022281 0.00281914 -1.39584e-20)
(-0.00241456 0.00287876 4.78474e-21)
(0.0479128 -0.0648908 -1.11481e-19)
(-0.000225462 -3.98786e-05 -9.34993e-23)
(0.0353365 0.00117523 -5.80662e-21)
(0.0814595 0.246197 0)
(-0.155605 0.132023 -7.88851e-20)
(-0.0176921 0.0360797 -1.14945e-21)
(-0.000506898 2.74469e-05 6.58638e-22)
(-0.000119294 -0.000321247 0)
(-0.0604197 0.120071 -3.78299e-20)
(0.079621 0.192492 -8.87567e-20)
(-0.0723399 0.100631 1.00764e-20)
(0.0761475 0.0227203 3.96933e-22)
(-0.0434626 0.0547147 0)
(0.145143 0.0138044 -6.56308e-21)
(-0.000635306 -1.98855e-05 1.55037e-22)
(0.0217937 -0.0385646 0)
(-0.00620212 0.00432566 -6.44919e-22)
(-0.0458309 -0.247583 0)
(-0.00052518 4.10287e-05 0)
(-0.0747353 -0.0364103 3.44849e-20)
(-0.000910087 -0.000250337 8.47493e-22)
(-0.00115316 0.012726 8.22018e-21)
(0.0121197 -0.0232156 -3.84807e-22)
(-0.0122011 0.0470057 1.68684e-21)
(-0.000459765 6.2556e-05 0)
(-0.000635783 5.10632e-05 2.29017e-23)
(-0.00207538 -0.00165276 -7.42083e-20)
(-0.000316939 -1.93355e-05 0)
(0.0228366 0.00566582 1.24401e-19)
(-0.0417398 -0.239042 0)
(-0.116481 0.401885 0)
(0.00102074 -0.0120206 -3.88131e-22)
(-0.00092505 0.000921653 -2.50662e-21)
(-0.0718577 -0.0432216 0)
(0.00322332 0.00147092 0)
(-0.000106812 0.000254929 5.35775e-24)
(0.0711412 0.0130625 -3.3988e-20)
(0.080081 -0.0057993 -3.12461e-20)
(0.0104867 -0.202307 4.01127e-20)
(0.013754 -0.060646 -1.48937e-19)
(-0.0517413 -0.017302 3.79634e-20)
(-0.00236016 0.00301007 0)
(0.0109319 -0.0151852 5.65307e-22)
(-0.168711 0.604353 2.49665e-20)
(-0.000124399 -0.000107903 0)
(-0.00610171 0.00847818 0)
(0.0416298 -0.128042 4.43383e-20)
(0.00310771 -0.00509635 -2.35801e-21)
(0.00268215 -0.00288581 -4.60193e-21)
(0.0964915 0.329977 8.88629e-21)
(-0.0371894 -0.0575403 -8.24616e-20)
(-0.000447087 0.000183516 -8.50492e-21)
(0.0799355 -0.195742 1.93083e-20)
(-0.000121379 -0.000101229 0)
(0.00401104 0.0101873 -1.14096e-21)
(-0.0377439 0.0594131 1.09585e-20)
(0.00734936 -0.0806075 0)
(-0.00631685 -0.0679528 6.36797e-20)
(0.0169998 -0.0130222 1.00244e-20)
(-0.00028702 8.83551e-06 3.20382e-22)
(-0.00768925 0.0107979 -1.48343e-21)
(-0.00227803 0.00524134 0)
(0.0525848 -0.0298447 1.91047e-20)
(0.0506957 0.0303685 8.4649e-19)
(-0.00032475 -0.000392285 2.09496e-21)
(0.0184618 -0.12177 2.20989e-20)
(-0.143664 0.0164434 -3.61143e-21)
(-0.00140163 -0.0170392 0)
(-0.000263363 -5.74954e-05 0)
(-0.000170571 -0.00201581 -4.35479e-21)
(-0.0869244 -0.0518913 0)
(-0.000527381 1.15245e-05 3.30908e-21)
(-0.00154643 -0.0178598 0)
(-0.0413003 -0.151442 4.11114e-20)
(-0.0747089 -0.0464373 0)
(-0.00026429 -0.00111665 1.74159e-21)
(0.100706 0.224489 -5.22638e-20)
(0.140219 0.168475 -2.74874e-20)
(-0.025199 -0.232929 -9.09253e-21)
(-0.0126527 -0.126251 1.907e-21)
(-0.026684 0.0387658 0)
(-0.000467704 0.00146192 0)
(-0.000112251 0.00013043 0)
(-0.00198233 -0.00227107 -7.75458e-22)
(0.000342219 0.00432727 0)
(0.000464022 -0.0232133 6.64781e-22)
(0.00637737 -0.0678733 -1.51553e-19)
(0.0317757 0.00481488 -5.3684e-21)
(0.0564549 -0.0248371 9.44632e-21)
(0.0180545 -0.241444 8.18743e-23)
(0.0474371 -0.0799002 9.25328e-20)
(-0.0629781 -0.0264213 0)
(-0.000538099 0.000243829 -1.61228e-20)
(-0.0492096 -0.263932 1.55737e-19)
(-0.000490968 0.00175228 8.86734e-21)