/*--------------------------------*- C++ -*----------------------------------*\
| =========                 |                                                 |
| \\      /  F ield         | OpenFOAM: The Open Source CFD Toolbox           |
|  \\    /   O peration     | Version:  v2012                                 |
|   \\  /    A nd           | Website:  www.openfoam.com                      |
|    \\/     M anipulation  |                                                 |
\*---------------------------------------------------------------------------*/
FoamFile
{
    version     2.0;
    format      ascii;
    class       volScalarField;
    location    "500";
    object      nut;
}
// * * * * * * * * * * * * * * * * * * * * * * * * * * * * * * * * * * * * * //

dimensions      [0 2 -1 0 0 0 0];


internalField   nonuniform List<scalar> 
13308
(
0.00722087
0.0293551
0.0340619
0.00657535
0.000903215
0.0065476
0.00105607
0.00170238
0.000808217
0.00175803
0.00521116
0.0185438
0.00656077
0.00681676
0.0065322
0.0292101
0.00452192
0.0296847
0.0203133
0.0361097
0.00561526
0.0238521
0.0290989
0.00107115
0.0340301
0.0307718
0.00103134
0.00512074
0.00103469
0.00149498
0.0307915
0.00112866
0.0338225
0.000756561
0.0167177
0.0047329
0.00112962
0.0287334
0.00232316
0.0346685
0.00687428
0.0015328
0.0312441
0.00704472
0.00351438
0.00086469
0.00656189
0.00661999
0.00698361
0.0354178
0.00619956
0.006522
0.0198743
0.00316317
0.0101108
0.0158774
0.00701498
0.00639224
0.00206155
0.00138564
0.00998538
0.0388259
0.00646363
0.00698618
0.00626809
0.0330626
0.00694696
0.000845498
0.00643829
0.00207779
0.0216653
0.00287415
0.00595788
0.0011692
0.000640047
0.0067225
0.00706119
0.0129482
0.00704357
0.00900409
0.00564629
0.00712445
0.00674599
0.0012244
0.00103593
0.00166215
0.00578442
0.00506743
0.0153
0.0328167
0.00308406
0.00697093
0.000976225
0.00559431
0.00646934
0.0067845
0.00154187
0.00857322
0.0252373
0.00262972
0.00302639
0.00680794
0.00666843
0.00553146
0.0034214
0.0306596
0.0329942
0.0064018
0.0253384
0.0314069
0.00150402
0.000596114
0.0062957
0.00707344
0.00638361
0.0191297
0.00082374
0.0453164
0.00105179
0.00637395
0.000829617
0.00542496
0.00707041
0.00801149
0.0254081
0.0131465
0.000914323
0.00118906
0.00571684
0.0255612
0.0312203
0.00495021
0.00631812
0.00676187
0.000844972
0.0071864
0.00697383
0.0268742
0.00386793
0.00171176
0.0327216
0.00126562
0.00701403
0.00633804
0.00347366
0.00233099
0.00857533
0.0341872
0.00611874
0.00457612
0.00906891
0.00623413
0.0017495
0.0103477
0.00798151
0.00400332
0.00634757
0.00711529
0.00683481
0.0152065
0.00164672
0.00646125
0.00699729
0.0389111
0.00401254
5.08451e-05
0.0217816
0.00711906
0.0289679
0.000879851
0.00142184
0.046115
0.00608817
0.0338397
0.0042843
0.0298717
0.0257247
0.0356008
0.00458633
0.00634599
0.0240649
0.0188071
0.00692058
0.00183825
0.0321319
0.00714512
0.0192685
0.0303708
0.00127744
0.0207732
0.0213427
0.0371523
0.00163097
0.0173054
0.00219762
0.0240897
0.00131391
0.00720665
0.00847994
0.00233877
0.0236163
0.0172904
0.00393006
0.000852468
0.027599
0.000753582
0.0329482
0.000435405
0.0333155
0.00701519
0.0334273
0.00141898
0.000574767
0.0338526
0.0394863
0.00556374
0.00638224
0.00400822
0.01373
0.000760378
0.0120327
0.00637759
0.0041219
0.00703893
0.00556182
0.0278416
0.00257825
0.00364213
0.0151672
0.000470607
0.0328454
0.00564965
0.0351407
0.000932787
0.00695865
0.000879813
0.0148996
0.0408927
0.00698008
0.00579065
0.00119595
0.00653868
0.00550863
0.00683954
0.0110951
0.0218539
0.00235847
0.00336088
0.00704615
0.0300217
0.0397978
0.0350828
0.00667767
0.0390508
0.018329
0.00557437
0.00240644
0.00635699
0.00705182
0.0136977
0.00143974
0.00282558
0.000784815
0.0065985
0.00415072
0.00507312
0.011801
0.00698269
0.015099
0.0206631
0.0133802
0.000937232
0.00669873
0.00390253
0.00700592
0.00610127
0.00667706
0.0110155
0.000824949
0.00377177
0.0311863
0.00647261
0.0146646
0.00568058
0.0310469
0.0406432
0.00664355
0.00699263
0.00291674
0.020317
0.00114528
0.00709488
0.0152861
0.0181569
0.00702379
0.00418703
0.0174355
0.0016378
0.00354888
0.022851
0.0343022
0.00610439
0.0339646
0.0013041
0.00121783
0.00697463
0.00112148
0.0342675
0.0107798
0.00714364
0.0421012
0.00142659
0.00113021
0.00398248
0.0265055
0.00402651
0.00628998
0.00702539
0.00673565
0.0134502
0.00688498
0.00710966
0.0256027
0.00705059
0.0138399
0.00629316
0.00566798
0.00388753
0.0051172
0.00409187
0.0349627
0.00682481
0.007581
0.00692562
0.00652793
0.00374759
0.0235598
0.00706981
0.00292107
0.0253392
0.000756146
0.0042472
0.00705667
0.000866363
0.00340987
0.0171607
0.00207888
0.00219168
0.00162829
0.00559923
0.000610901
0.00699782
0.018345
0.00704719
0.00708914
0.00655832
0.0202646
0.00684231
0.00265427
0.021816
0.0381647
0.00107759
0.000743997
0.00979456
0.0175674
0.0383567
0.00703761
0.00688658
0.00595789
0.000982567
0.024249
0.00306096
0.0014923
0.00628974
0.00645746
0.00407211
0.0383785
0.0369567
0.00602835
0.0165179
0.00310846
0.00688484
0.0200028
0.000829396
0.00669737
0.0185706
0.000643234
0.0018118
0.00697099
0.00182637
0.00568374
0.00631009
0.011433
0.022582
0.0455045
0.0014927
0.00998009
0.00704564
0.00345479
0.00266148
0.0122881
0.0062726
0.00207798
0.0382435
0.00710548
0.0111508
0.00633173
0.0070894
0.0341417
0.00365042
0.00675309
0.0019699
0.00381513
0.00702624
0.00700207
0.0244338
0.00351191
0.00701221
0.00159395
0.00321061
0.00316608
0.00638144
0.00093899
0.00639106
0.00639452
0.0296102
0.0266416
0.00156207
0.00544732
0.0179864
0.0360615
0.00714405
0.00901752
0.000988856
0.0068964
0.00701625
0.038087
0.00697451
0.00106764
0.0344792
0.0329429
0.0235715
0.0360314
0.00641426
0.0172136
0.000977185
0.0424621
0.015926
0.00697775
0.0277336
0.00731262
0.0247807
0.00156988
0.00818908
0.00124578
0.00114642
0.000986602
0.00753722
0.029741
0.00225181
0.0119013
0.0121708
0.00660804
0.00166247
0.00645758
0.00276619
0.00706233
0.00634546
0.00709084
0.0223165
0.000541319
0.00512104
0.0289487
0.00468112
0.0120294
0.0375874
0.00440325
0.00143339
0.0393092
0.00705718
0.0185464
0.00570651
0.0214173
0.00685239
0.00209964
0.00477797
0.00695637
0.0445482
0.00123708
0.00697116
0.0070714
0.00107188
0.0420214
0.0070556
0.00709655
0.00380398
0.00656082
0.00590896
0.0101439
0.0276548
0.0180607
0.0051759
0.0240752
0.0106009
0.00172571
0.00663685
0.00477434
0.0361511
0.00620291
0.0261844
0.0044572
0.0130452
0.00296034
0.00698689
0.00113986
0.000859044
0.000853264
0.00629445
0.0106624
0.0375488
0.0416195
0.0129283
0.030117
0.00655112
0.00648098
0.0165875
0.00707411
0.0070034
0.0512712
0.0122256
0.00185576
0.000697925
0.0399329
0.0125019
0.00712086
0.00355089
0.0156473
0.026414
0.00707216
0.000417598
0.00702631
0.013288
0.0068553
0.00344219
0.00225574
0.0184872
0.00802026
0.038256
0.00697254
0.00678731
0.0396512
0.0315533
0.024592
0.01411
0.0349784
0.037163
0.0242725
0.0173906
0.0148964
0.0228615
0.00516038
0.00682525
0.00675681
0.00261567
0.00706825
0.0134481
0.0190756
0.00437215
0.0251873
0.0221781
0.0144958
0.00702827
0.0070773
0.00703403
0.000552351
0.00111499
0.0070689
0.00326988
0.00239936
0.00667541
0.0230323
0.00426437
0.00579181
0.0022959
0.0069748
0.00703303
0.0070342
0.00316111
0.00128976
0.00636427
0.00933827
0.00700543
0.00700677
0.00703495
0.00635927
0.029221
0.0369785
0.00709777
0.0211759
0.00236707
0.00642549
0.00706746
0.00453512
0.00604567
0.00433289
0.000794056
0.00710976
0.0374111
0.0052983
0.0205203
0.0188912
0.000955057
0.00094695
0.00642863
0.00856916
0.000712106
0.00111362
0.00649828
0.00867591
0.00353293
0.00160122
0.00704467
0.00731608
0.0171104
0.00431273
0.00319867
0.00570027
0.00673776
0.00194259
0.0053304
0.00564141
0.0225341
0.0274198
0.0343452
0.0251394
0.05324
0.00353959
0.00241472
0.0149418
0.026452
0.00689865
0.00705202
0.0194652
0.00893438
0.000646392
0.016082
0.00090674
0.00244141
0.00701728
0.0104882
0.000888889
0.00651529
0.0186727
0.00295495
0.0039566
0.00696248
0.00699753
0.00126419
0.0169398
0.0008249
0.0528483
0.00133505
0.00163603
0.000773921
0.0056697
0.00124089
0.0196645
0.00652703
0.0343548
0.0326948
0.0155592
0.00687427
0.00382354
0.00654704
0.00697435
0.0266364
0.00556631
0.000913236
0.0123606
0.00151031
0.0011565
0.0106195
0.00568419
0.00702382
0.00495961
0.0065315
0.0273468
0.0307318
0.00117301
0.0203263
0.00713934
0.0335488
0.0057652
0.000807929
0.0386033
0.0046201
0.00707176
0.00670097
0.00707943
0.00174929
0.00688528
0.00150303
0.027391
0.00146254
0.000908878
0.00684336
0.00145513
0.0311104
0.00322803
0.00634304
0.00683443
0.0070488
0.00884767
0.00649444
0.000745481
0.000846168
0.00685019
0.00711838
0.00686729
0.00702277
0.00682713
0.00171019
0.0063072
0.0412135
0.000897098
0.00680237
0.0103364
0.0245723
0.00091505
0.0346019
0.00590141
0.00234834
0.00478827
0.00521244
0.0344561
0.00216889
0.0411702
0.00385117
0.00808801
0.0013373
0.00700971
0.00569086
0.00428554
0.0377573
0.00701071
0.00675038
0.000971742
0.00702959
0.00713534
0.00197531
0.000954358
0.0110984
0.0122763
0.0308344
0.00911269
0.00651183
0.00616678
0.000930413
0.00433943
0.00098672
0.0069011
0.00387914
0.00313281
0.0296309
0.0070161
0.00665607
0.0159689
0.0252567
0.000771811
0.00447139
0.00706024
0.00702422
0.00673749
0.00124694
0.0070416
0.00317054
0.00658388
0.0396997
0.00679837
0.00397602
0.0358952
0.0169481
0.0101519
0.0067713
0.00706646
0.024983
0.00656222
0.0116293
0.00384219
0.0125383
0.00165313
0.0054683
0.0275865
0.00256404
0.0144203
0.00687203
0.0335361
0.00701375
0.00545097
0.0105042
0.0106211
0.0066035
0.00708077
0.00136012
0.00654004
0.0220179
0.0141571
0.00337816
0.00583073
0.0069869
0.0263411
0.00688111
0.00713602
0.0161716
0.00817588
0.0341109
0.0189571
0.0332709
0.00165685
0.00638824
0.00769586
0.0070775
0.00223541
0.0300529
0.00712757
0.00664453
0.0245185
0.0289463
0.00686366
0.0145002
0.00707384
0.00106973
0.00935101
0.0284571
0.0361485
0.00351516
0.00652771
0.00172937
0.00192608
0.0116197
0.012899
0.00687798
0.00158515
0.00733246
0.000745681
0.00703921
0.00680456
0.0336102
0.00615948
0.00311387
0.0507897
0.0144721
0.00698461
0.0303551
0.00313217
0.0182239
0.0281003
0.00944588
0.00693873
0.00705675
0.00651558
0.00540296
0.0333311
0.0284588
0.0042318
0.00304544
0.0375859
0.0344973
0.0335457
0.00686884
0.021223
0.0016925
0.0356868
0.00198434
0.00167528
0.0115255
0.00258352
0.0182819
0.04597
0.00732086
0.0251563
0.021808
0.00200943
0.0010072
0.000810554
0.00446782
0.00696887
0.0178358
0.00708516
0.00275131
0.00673301
0.00673712
0.00467732
0.00103787
0.00481718
0.00686934
0.0439124
0.0259788
0.0402904
0.00499696
0.00706307
0.0372164
0.00652872
0.00651357
0.0310334
0.00702984
0.0070264
0.00182163
0.00149924
0.00664675
0.0489231
0.039717
0.00827423
0.00826655
0.00697564
0.00617989
0.000724614
0.000792426
0.0362688
0.00696158
0.0332375
0.00505824
0.00127149
0.0207114
0.00687889
0.00693378
0.00124425
0.00646128
0.00705824
0.00647502
0.0273435
0.0213092
0.0062633
0.0176397
0.014549
0.00253794
0.00534372
0.00686727
0.00595398
0.00657285
0.0140429
0.000373425
0.0205633
0.0129265
0.00922524
0.00678797
0.000778769
0.0194963
0.000867112
0.00160874
0.00323398
0.0141554
0.033211
0.0064794
0.0308065
0.0528521
0.00637555
0.00104778
0.00697854
0.000675774
0.00255234
0.0123883
0.000845925
0.00489275
0.00583309
0.00179857
0.0373029
0.00646872
0.045384
0.00470231
0.00476689
0.00172113
0.00605918
0.000803487
0.00700404
0.00647681
0.00407975
0.0067408
0.000803072
0.00129106
0.00625631
0.00596399
0.0206823
0.00706229
0.0069314
0.00209363
0.0134857
0.00407871
0.00580895
0.00483418
0.00770927
0.000661944
0.000701564
0.00458142
0.00696315
0.00652278
0.000482192
0.0397279
0.00429592
0.0022052
0.00428614
0.00634591
0.00259584
0.00776851
0.00248348
0.00685719
0.0042379
0.012386
0.00703346
0.00710895
0.00500564
0.00626438
0.0105852
0.00698432
0.0197103
0.000708817
0.00143498
0.00842051
0.00165534
0.013579
0.00591486
0.0156321
0.0102828
0.0365897
0.00657322
0.0274236
0.00392979
0.00200184
0.0012365
0.004177
0.0347947
0.00653892
0.00615706
0.00621264
0.00697729
0.00566322
0.0381248
0.0181934
0.0197297
0.0342609
0.00318972
0.0206305
0.00708303
0.00697695
0.0059944
0.00270485
0.0197894
0.0397959
0.00693511
0.0179695
0.00617365
0.0349153
0.040857
0.0220167
0.00671891
0.00686124
0.000740413
0.00701326
0.00636059
0.00699302
0.0254579
0.00350441
0.0161155
0.00303516
0.00402985
0.0147916
0.00657053
0.0303724
0.00441124
0.00237574
0.0120976
0.0325051
0.00160259
0.0173078
0.0148092
0.0044863
0.00409156
0.00672076
0.0271926
0.00709165
0.00285469
0.00231226
0.00653018
0.00703644
0.0101534
0.0385169
0.024156
0.013292
0.0240907
0.0250249
0.00702358
0.0162706
0.003312
0.00230823
0.00143795
0.0186446
0.00692027
0.00236957
0.00219054
0.00678949
0.0403043
0.00249717
0.0069567
0.0333823
0.00661344
0.000974145
0.0143549
0.000751255
0.0303395
0.00534608
0.00698359
0.00161287
0.0303088
0.00195077
0.00286908
0.00802946
0.0070613
0.007079
0.00211504
0.00169784
0.00706407
0.00256724
0.00665776
0.00160782
0.0176153
0.00120808
0.0296789
0.00673916
0.00527933
0.0270199
0.00502708
0.00544225
0.0279694
0.0232866
0.0477391
0.00354799
0.0134344
0.00245009
0.00835778
0.000775707
0.00115262
0.00374375
0.00178488
0.0228538
0.0164553
0.00696386
0.00101979
0.00103719
0.00617889
0.00124126
0.0114579
0.00673214
0.00502501
0.00665793
0.00225146
0.00254965
0.0069385
0.00704819
0.00104105
0.000269775
0.00489829
0.00685092
0.0025719
0.00727775
0.0261498
0.00810821
0.0268292
0.00469991
0.0021449
0.00644936
0.0135826
0.00512499
0.0321554
0.0226796
0.0255226
0.0363801
0.00536618
0.00664476
0.00685667
0.00181243
0.00467777
0.0351406
0.00702863
0.0046417
0.00504462
0.0248395
0.000712949
0.0102009
0.0205011
0.00113559
0.0057975
0.00685747
0.00368876
0.00553106
0.00302597
0.0134372
0.000910946
0.00694263
0.00662698
0.00684843
0.000720657
0.00110425
0.0176567
0.00455337
0.00587604
0.00708298
0.00694721
0.00347097
0.0300416
0.00583868
0.00707207
0.00487206
0.0129704
0.0301513
0.00505942
0.00706461
0.00488788
0.0067759
0.00699828
0.000955639
0.000885771
0.0104455
0.0396401
0.0289425
0.000573056
0.0086394
0.00152759
0.0408462
0.00362052
0.0189873
0.00694354
0.0143941
0.0298022
0.0179073
0.00301558
0.0135143
0.00557672
0.00358019
0.0299686
0.00328911
0.0472388
0.0297355
0.00328146
0.000746174
0.0170038
0.0036192
0.0132249
0.00216817
0.0195975
0.0257694
0.024291
0.00935715
0.0221595
0.00668771
0.0301483
0.00176374
0.00262644
0.00685398
0.00186892
0.0404506
0.000546782
0.00101795
0.00113357
0.00796369
0.00414457
0.014184
0.00348967
0.00568516
0.0020452
0.0131725
0.00636955
0.0369347
0.00625275
0.01228
0.000857773
0.00245803
0.034098
0.0308421
0.00678032
0.0267602
0.0096412
0.00701706
0.00200344
0.0334931
0.00437428
0.0337284
0.00691699
0.00672701
0.0144056
0.00701269
0.0318056
0.0148062
0.0165471
0.016113
0.00714491
0.000720429
0.00711586
0.0266864
0.0281914
0.0207037
0.00121874
0.00701079
0.0147661
0.00994192
0.000730844
0.0127935
0.006963
0.014322
0.00708334
0.00168817
0.00384437
0.00702951
0.00560322
0.00636409
0.0348746
0.0190196
0.00709412
0.00712987
0.016066
0.00871026
0.00218713
0.00509614
0.0405633
0.00673814
0.0237886
0.0095833
0.000734753
0.0068394
0.00447916
0.0179796
0.0303471
0.00566345
0.00703571
0.00796354
0.00698699
0.0520225
0.0241546
0.0070907
0.00544628
0.0433832
0.00305346
0.000730006
0.00628234
0.00149032
0.0178485
0.0035891
0.0165562
0.00706716
0.0045204
0.00115061
0.00701015
0.00208904
0.0310252
0.00371517
0.0102415
0.0106118
0.00675432
0.0208983
0.00307073
0.00706854
0.0154165
0.00426608
0.0145212
0.00626687
0.0078929
0.006827
0.00698726
0.00720442
0.00447877
0.0189469
0.00713857
0.00724052
0.00694436
0.00423286
0.00639095
0.00370475
0.0109869
0.0251883
0.00304985
0.00412293
0.00245339
0.0153368
0.0284459
0.00939875
0.00176621
0.00680627
0.00646811
0.00672544
0.000675707
0.00520232
0.0021908
0.0202613
0.00693286
0.0380135
0.0353814
0.00628941
0.0133133
0.00666336
0.00615198
0.0386835
0.0102605
0.00707912
0.00677589
0.00397124
0.00102593
0.0183066
0.00542228
0.0342448
0.00558515
0.00345008
0.0149962
0.00153299
0.00653417
0.0225526
0.000789353
0.00365813
0.00278688
0.0311154
0.0314973
0.006996
0.0171549
0.00673309
0.00689344
0.00467772
0.0109533
0.0288446
0.0228079
0.000649347
0.00501691
0.026878
0.00338691
0.0353628
0.00906968
0.00579125
0.00101425
0.00621752
0.00669257
0.0369783
0.0069417
0.021452
0.00408776
0.00191718
0.0109434
0.00705669
0.00583612
0.00177267
0.0167957
0.0440162
0.00359105
0.000741413
0.00700498
0.011852
0.0068877
0.0358243
0.0221109
0.000695125
0.00718538
0.00701624
0.0017308
0.0070475
0.00104479
0.00139484
0.00522032
0.00686141
0.0341711
0.00707009
0.0157973
0.00689255
0.0394325
0.03388
0.00460821
0.00553917
0.000941173
0.0365321
0.000481474
0.00706002
0.0084442
0.000812704
0.00485698
0.011751
0.00704558
0.000859625
0.000642176
0.00523261
0.00256392
0.0071266
0.00293152
0.00758373
0.0045117
0.00137873
0.00699787
0.0406493
0.0140322
0.00116913
0.00935898
0.00518813
0.0179199
0.00105845
0.00699489
0.0134784
0.0274166
0.00187705
0.00157868
0.00705483
0.000861086
0.00253878
0.00114531
0.0238156
0.0147257
0.00444577
0.00714188
0.0337978
0.00669893
0.00627621
0.00706702
0.0178561
0.0326245
0.010573
0.00098268
0.00709057
0.00645821
0.0368895
0.0182909
0.0363041
0.000670442
0.0390157
0.00247103
0.0394068
0.00125525
0.000409344
0.00696393
0.00672433
0.00709102
0.0175408
0.00702581
0.00648106
0.0102957
0.0288118
0.026022
0.016339
0.0069794
0.0223405
0.00600961
0.00330394
0.00687845
0.0231292
0.00670747
0.00661477
0.0253312
0.0502207
0.00664757
0.00523789
0.00690802
0.0110954
0.00137136
0.0175229
0.000914975
0.000611408
0.0184468
0.0368808
0.0295255
0.00702095
0.0142643
0.00454248
0.00586505
0.00708764
0.00156633
0.00707009
0.00676296
0.00683678
0.00700139
0.00434403
0.00667491
0.0061584
0.0140576
0.0205528
0.0348429
0.00660879
0.00677873
0.0304865
0.0070702
0.0320192
0.00684313
0.00844988
0.0265
0.00249156
0.00432758
0.00612608
0.00591716
0.00721382
0.00247543
0.000647498
0.0254548
0.0202267
0.0119741
0.00191341
0.0177349
0.00185526
0.0070181
0.000799283
0.00691873
0.00201933
0.00461977
0.00359433
0.00682634
0.00706917
0.0380799
0.00684842
0.000999968
0.0302641
0.00708673
0.0172324
0.00683135
0.0066669
0.00705136
0.00931105
0.00683052
0.00641953
0.0286909
0.0070646
0.00976544
0.00391917
0.0246668
0.0253372
0.00700325
0.00692478
0.00684318
0.00710162
0.00710497
0.00703815
0.00708213
0.00165514
0.00689313
0.0325944
0.0348222
0.00589212
0.00649532
0.000751697
0.00627959
0.0430981
0.000986482
0.0187187
0.0360171
0.00692944
0.0185624
0.0233192
0.00684087
0.00407587
0.021759
0.00668838
0.00711201
0.0211649
0.00564038
0.00712572
0.00205453
0.00622738
0.0295158
0.0100605
0.0140079
0.00658353
0.0237337
0.019218
0.00513609
0.00649836
0.00135275
0.00712595
0.000852689
0.0363718
0.00695654
0.0100118
0.0209487
0.00386333
0.00864443
0.00662074
0.0346846
0.00655102
0.0398794
0.0326464
0.00685459
0.00698511
0.0260141
0.00469139
0.0149472
0.00625894
0.0199748
0.00484128
0.0149582
0.00667865
0.0373944
0.000952917
0.0328246
0.00472685
0.00371146
0.0180599
0.00863066
0.00248831
0.00445272
0.000876218
0.0188113
0.0226809
0.0269316
0.0229938
0.0333068
0.0146105
0.0114674
0.0290925
0.0198275
0.00632137
0.0206815
0.010465
0.0257931
0.00119556
0.00702323
0.0401448
0.00278676
0.0389111
0.0313221
0.0469257
0.0217097
0.00693554
0.00694785
0.00710271
0.0180405
0.00667151
0.0214075
0.00578502
0.00414476
0.00430875
0.0299724
0.00689098
0.0310394
0.0121727
0.00705237
0.0157414
0.00621261
0.0022779
0.00447146
0.00689662
0.0402318
0.0062689
0.00272474
0.0345803
0.0272916
0.00421834
0.00681965
0.0071106
0.0323865
0.0374305
0.00712916
0.0368263
0.00379721
0.0015035
0.0158659
0.00715086
0.00668565
0.0055593
0.0473045
0.00695194
0.0230479
0.0065672
0.00714262
0.0067477
0.0282017
0.00710617
0.0105607
0.00178349
0.0141587
0.0210594
0.0024456
0.0371546
0.0066979
0.000764977
0.0403653
0.00645721
0.0149069
0.00624425
0.0231338
0.0015395
0.0296027
0.0298237
0.000586441
0.0267629
0.00269337
0.0119644
0.0222041
0.000793481
0.0402435
0.00655923
0.0209046
0.0191788
0.00153397
0.00700169
0.00703613
0.00713824
0.000695003
0.000809223
0.00550337
0.018343
0.036915
0.0143605
0.0151859
0.000722672
0.000904253
0.00887916
0.00703468
0.00844023
0.0271817
0.00277404
0.0105741
0.00707227
0.00668309
0.00536405
0.0335455
0.0196006
0.00712425
0.00636843
0.00710448
0.0160273
0.0139524
0.0320434
0.00990879
0.0063513
0.00164009
0.00313729
0.0068161
0.0154465
0.00604916
0.00655377
0.00697096
0.00586292
0.00704025
0.0341197
0.038683
0.00296804
0.00703369
0.00522683
0.00709192
0.00388625
0.000818828
0.0241078
0.00413282
0.00867943
0.000793468
0.00163656
0.00702912
0.00232019
0.00974614
0.0223028
0.00699327
0.00139599
0.00107889
0.0181237
0.0324108
0.0260703
0.00824378
0.00597237
0.0304176
0.00320616
0.0257455
0.0328049
0.00685658
0.00531874
0.00246987
0.0315576
0.00288575
0.0246522
0.00970684
0.00245537
0.0209637
0.00693538
0.00704157
0.0282881
0.036127
0.0261464
0.00436582
0.00928458
0.00364555
0.0257809
0.0398371
0.0062499
0.0390669
0.00223731
0.00735536
0.0218298
0.00703051
0.0193042
0.000672883
0.033774
0.015368
0.0368511
0.00709483
0.000883277
0.0319574
0.039489
0.0048544
0.00655168
0.028384
0.0070538
0.0181239
0.000717654
0.00379764
0.00695925
0.00486012
0.000859582
0.0329592
0.00671494
0.00208997
0.0203157
0.00712572
0.00260143
0.00530215
0.0405036
0.00169813
0.00653819
0.0218396
0.00661678
0.00887619
0.00684143
0.00313804
0.0284405
0.00519087
0.00374914
0.00713764
0.0203929
0.00571922
0.00306048
0.016908
0.0392923
0.0234826
0.00108982
0.00711785
0.0172118
0.00164321
0.00800351
0.00677677
0.0132708
0.00922675
0.00145971
0.0044726
0.0134548
0.00185824
0.00148247
0.019426
0.0328572
0.00133328
0.0135349
0.00113032
0.00927161
0.0229649
0.00700032
0.00711064
0.00697853
0.0457101
0.00406771
0.033128
0.0134582
0.0245009
0.019726
0.0296537
0.0064087
0.00683365
0.0220983
0.029933
0.00707946
0.00482551
0.0007592
0.00598431
0.0021569
0.0284841
0.0313194
0.0399043
0.00200879
0.00138868
0.0054473
0.00133631
0.00618546
0.0425651
0.0120309
0.0246537
0.0128896
0.00862185
0.0107027
0.0198227
0.0277433
0.00710329
0.0269033
0.00453939
0.00149259
0.000505475
0.00705472
0.00701635
0.0215556
0.00309717
0.00460431
0.0202587
0.00383803
0.00693553
0.0375789
0.0259283
0.0283478
0.00483031
0.0221456
0.00681004
0.000950306
0.0219631
0.0473883
0.0174684
0.00680362
0.0225497
0.00230701
0.024232
0.00673829
0.0069908
0.00665293
0.00518828
0.00482532
0.00165319
0.0306857
0.00310314
0.0356765
0.035159
0.0261586
0.000827808
0.00693745
0.00831153
0.0275466
0.0199239
0.00694423
0.0190107
0.0262564
0.0390841
0.00603059
0.00186914
0.00959188
0.00167803
0.0106267
0.000978957
0.0281411
0.00712082
0.0278021
0.00683478
0.0081423
0.00608243
0.0196737
0.0355799
0.0284607
0.029723
0.00671329
0.00478923
0.00105842
0.00674339
0.0219656
0.00676123
0.0343048
0.00433525
0.0237474
0.04357
0.0108856
0.000441007
0.00467843
0.0193357
0.00662696
0.0326654
0.00126423
0.00408626
0.0366286
0.00240192
0.0304282
0.02073
0.0343409
0.00559107
0.00887865
0.0327347
0.0264482
0.0353818
0.00682513
0.00661216
0.00642016
0.00532046
0.00680189
0.00819101
0.0266428
0.0207954
0.00616651
0.0342215
0.00116633
0.000683152
0.0282378
0.00187151
0.00683296
0.040737
0.000805825
0.00178474
0.00177373
0.0218716
0.0175449
0.00803507
0.0341365
0.00707635
0.0284768
0.0406857
0.0403835
0.0107411
0.0279022
0.039301
0.00734716
0.0308003
0.00584228
0.0295286
0.00222464
0.0149072
0.00367059
0.0401351
0.0219737
0.00470233
0.00687999
0.00628851
0.00646942
0.00688732
0.0434455
0.0299615
0.00703674
0.0364781
0.0362771
0.0199381
0.0180026
0.00595335
0.0371688
0.0015741
0.0355543
0.0380213
0.00638382
0.0379348
0.0266141
0.00576845
0.0316688
0.0342593
0.00529977
0.00904927
0.00170141
0.00247088
0.00712176
0.0265345
0.0270341
0.00117657
0.0293898
0.0267825
0.00546664
0.0177767
0.0341367
0.00944674
0.0132777
0.00999558
0.0295337
0.00600888
0.0309583
0.00699027
0.00965074
0.00307475
0.0186796
0.00986525
0.00697717
0.0114773
0.0258935
0.0295474
0.0351149
0.0015815
0.0215436
0.0271475
0.00678762
0.0199872
0.0166342
0.0029308
0.0263167
0.00615886
0.0160014
0.00624436
0.00629695
0.00713145
0.0258466
0.0403396
0.0149427
0.0171647
0.000754918
0.0206701
0.0309686
0.00708307
0.00661577
0.0193465
0.0380243
0.00682817
0.0289431
0.0347218
0.0190516
0.0408582
0.0354292
0.0230496
0.000908306
0.0345437
0.00629666
0.0255242
0.00683607
0.0069573
0.0200919
0.0198994
0.00404934
0.0114942
0.00627234
0.00708064
0.00712537
0.00349718
0.0178035
0.025186
0.0070559
0.0111169
0.0197729
0.00483067
0.0288491
0.0406412
0.00712825
0.00621105
0.00669358
0.0118746
0.00435428
0.00439049
0.00703643
0.00361084
0.000991142
0.00707532
0.000962281
0.017745
0.0247615
0.00085699
0.00117966
0.0318606
0.0220217
0.0252565
0.00556702
0.00490211
0.0377463
0.00707233
0.0358635
0.0025647
0.0391001
0.000838216
0.0489869
0.0408176
0.0231239
0.000729066
0.000750025
0.03587
0.0236941
0.0361064
0.01686
0.00903742
0.00806861
0.00617586
0.0406412
0.00654748
0.00883602
0.0136467
0.0351628
0.0266389
0.0128828
0.00713938
0.0467054
0.00547892
0.00691471
0.000950522
0.00139598
0.0070605
0.00686068
0.00113509
0.0409348
0.0271314
0.0361784
0.0288574
0.00926046
0.020582
0.0400878
0.0155487
0.00710536
0.0302431
0.000833936
0.0406066
0.020355
0.0383478
0.000965465
0.0271241
0.0273019
0.0157996
0.00137039
0.0325985
0.0032662
0.040269
0.000801472
0.0180572
0.0225867
0.0278183
0.0102347
0.0351298
0.00298333
0.037108
0.000900631
0.0257646
0.00229126
0.0126721
0.00587947
0.0034269
0.027586
0.0393944
0.000852745
0.00613682
0.0117237
0.00505409
0.000705505
0.0076671
0.00302224
0.00713139
0.0287398
0.00642864
0.0070621
0.0342318
0.00192453
0.00169123
0.0179494
0.00180434
0.0383282
0.00711941
0.00139998
0.025612
0.00611706
0.00490385
0.00687369
0.00372832
0.00332916
0.00589926
0.00322433
0.0042379
0.0076348
0.00268046
0.0402811
0.00646274
0.0147711
0.000817763
0.0391681
0.000733152
0.0424917
0.00708961
0.00404513
0.00105863
0.0238793
0.0154041
0.0063846
0.020084
0.00138673
0.0438205
0.0289579
0.00700595
0.00975674
0.0176999
0.000936674
0.0349378
0.0212093
0.000692074
0.00577964
0.000882852
0.00116255
0.00572396
0.000704013
0.00388144
0.0136855
0.0186047
0.0275902
0.000910303
0.0013516
0.00928834
0.0252439
0.0226084
0.000763997
0.0012317
0.0354213
0.00508338
0.00915679
0.0066711
0.00571918
0.00116279
0.00630464
0.0172365
0.0165339
0.00598802
0.0151413
0.0184783
0.0434132
0.00079802
0.00671987
0.00597547
0.00625152
0.00461456
0.00654988
0.0186751
0.00546065
0.00163867
0.00184873
0.000805177
0.0314236
0.000934425
0.0276882
0.0042823
0.0293782
0.00116047
0.00261233
0.0275729
0.00577844
0.00816881
0.0311813
0.000938089
0.00115638
0.00102956
0.00109907
0.00579217
0.00712978
0.00224219
0.0191452
0.0335393
0.00578136
0.00222523
0.0339636
0.0315314
0.00957596
0.0337917
0.0123199
0.0214869
0.00702857
0.00144422
0.0236592
0.00690271
0.0213414
0.0290752
0.00203098
0.000793404
0.0197748
0.0383869
0.00329554
0.0133724
0.00709715
0.00630483
0.0205849
0.0287116
0.0101592
0.00133207
0.00105049
0.00576438
0.0178941
0.0228088
0.0191052
0.00626499
0.006922
0.00194604
0.040256
0.0258132
0.00343579
0.0345829
0.00591175
0.04358
0.00561583
0.0188438
0.00772353
0.00387181
0.00147954
0.000957664
0.00277852
0.0205618
0.034861
0.00715763
0.000866409
0.00289757
0.0263771
0.00814632
0.0021165
0.00692788
0.00552988
0.0214135
0.0225631
0.00165529
0.0336588
0.00560282
0.0268087
0.00712452
0.0324619
0.00133521
0.00716816
0.0310791
0.00121631
0.000411181
0.00637221
0.00122246
0.00668292
0.0101131
0.0080998
0.0142594
0.0120808
0.000910519
0.009107
0.00660468
0.00803402
0.0126263
0.0106075
0.00623627
0.00572734
0.00679553
0.00097606
0.00104833
0.00455806
0.00102782
0.00702135
0.0522561
0.00714611
0.0354022
0.00128625
0.00707021
0.0382495
0.00695595
0.00706373
0.030966
0.0068608
0.00371857
0.00711706
0.0341913
0.0400693
0.0469356
0.00713583
0.00669531
0.0250328
0.00556455
0.0398643
0.00904306
0.013525
0.0224328
0.00091676
0.00707786
0.0198533
0.0133834
0.000656716
0.0066043
0.00110128
0.00337706
0.000889109
0.00100556
0.0317263
0.00710182
0.00577185
0.0152185
0.00288474
0.0280071
0.00195875
0.00614908
0.00106908
0.0046216
0.00711607
0.0226175
0.0296637
0.00470241
0.037419
0.00110158
0.00668159
0.0174834
0.0244696
0.00702168
0.0448075
0.00926232
0.00212668
0.000790023
0.0109997
0.0124044
0.00160191
0.00683299
0.00161235
0.00713957
0.0334302
0.0055249
0.00703698
0.00620025
0.000869022
0.000175713
0.00172284
0.00677816
0.00364625
0.00841057
0.00713543
0.000869497
0.006843
0.00722425
0.0175355
0.00704172
0.00921629
0.0207794
0.000765932
0.0113092
0.0373972
0.000855288
0.0095975
0.00117998
0.00682334
0.0316615
0.0024161
0.00555248
0.00277995
0.00351148
0.000699978
0.00395422
0.0305065
0.0069336
0.00704372
0.00702021
0.0128821
0.00659266
0.000782096
0.0068392
0.00581934
0.0067827
0.0383312
0.00572776
0.0371673
0.0261428
0.0221574
0.0226786
0.0353768
0.000753079
0.0181155
0.00662647
0.000802032
0.0342752
0.00429288
0.000686414
0.00115132
0.00565187
0.000760826
0.00987814
0.0364685
0.00706728
0.00164318
0.000791746
0.00093756
0.00762266
0.00701065
0.0071642
0.00660112
0.00820464
0.00525384
0.00209834
0.0070724
0.00328648
0.0069618
0.0264883
0.0231134
0.0114395
0.00686368
0.0266992
0.00338999
0.000921063
0.00711498
0.0367076
0.014489
0.0168872
0.0179357
0.00228085
0.00497953
0.0069504
0.037593
0.00762002
0.0341899
0.00216947
0.00097422
0.00217848
0.0234164
0.0315588
0.00711204
0.00584054
0.00701778
0.00710504
0.00215643
0.00697845
0.00554942
0.0267537
0.0183969
0.00428543
0.029271
0.00333854
0.00220852
0.0376845
0.00654733
0.00229164
0.00704404
0.000839856
0.00258929
0.0350119
0.0360512
0.0155445
0.0346087
0.0017685
0.00653673
0.00635195
0.00555902
0.00260444
0.0108322
0.000689618
0.00479206
0.00599798
0.00953899
0.00213209
0.0404955
0.00189543
0.00570697
0.00458213
0.0359332
0.0263158
0.00593308
0.0147347
0.00640129
0.0302477
0.03764
0.00206101
0.0291412
0.00655982
0.0171369
0.00713305
0.0179581
0.0068455
0.0368822
0.0386346
0.00761944
0.0070644
0.000772163
0.00931502
0.0365473
0.0010328
0.00410782
0.00145814
0.0276264
0.0405039
0.00674823
0.0236779
0.00713312
0.00189923
0.00265146
0.010457
0.0245783
0.005577
0.00552301
0.00211088