/*--------------------------------*- C++ -*----------------------------------*\
| =========                 |                                                 |
| \\      /  F ield         | OpenFOAM: The Open Source CFD Toolbox           |
|  \\    /   O peration     | Version:  v2012                                 |
|   \\  /    A nd           | Website:  www.openfoam.com                      |
|    \\/     M anipulation  |                                                 |
\*---------------------------------------------------------------------------*/
FoamFile
{
    version     2.0;
    format      ascii;
    class       volScalarField;
    location    "500";
    object      p;
}
// * * * * * * * * * * * * * * * * * * * * * * * * * * * * * * * * * * * * * //

dimensions      [0 2 -2 0 0 0 0];


internalField   nonuniform List<scalar> 
13308
(
0.00691958
-0.292125
-0.750406
0.00468063
-0.200953
0.00121863
-0.0662644
-0.114454
-0.134925
-0.0598635
-0.037546
-0.0850561
0.00143795
-0.0414066
0.000946337
-0.721708
0.00738963
-0.295849
-0.128605
0.0851042
0.00901465
-0.692594
-0.749141
-0.14096
-0.71656
-0.818434
-0.146651
-0.0508557
-0.156238
-0.0266796
-0.37973
-0.0442789
-0.815325
-0.236159
-0.108627
0.00828113
-0.078739
-0.744988
-0.0768144
-0.737193
-0.0655573
-0.124578
-0.147665
-0.0256911
-0.0687582
-0.228309
0.000749645
0.00449661
0.00771496
-0.755372
-0.0307002
-0.0207088
-0.50202
-0.088069
-0.733532
-0.740229
-0.0256064
-0.0166258
-0.104797
-0.10136
-0.0843038
-0.83829
-0.0178611
-0.0773207
-0.000954641
-0.807234
-0.0122139
-0.219415
0.00740997
0.0521113
-0.579942
-0.0733109
0.000819987
-0.0367485
-0.141604
-0.00367486
0.00367871
-0.738514
-0.0281316
0.000330312
-0.0399841
0.00414711
-0.0031847
-0.122576
-0.0621464
-0.118886
-0.734955
-0.219722
0.016817
0.0768113
-0.0848361
-0.0114852
-0.131994
0.0107735
-0.0319765
0.0114771
-0.128903
0.00217607
-0.506841
0.0459422
-0.0822798
-0.0701726
-0.00325794
0.0115195
-0.0180825
-0.350776
-0.757135
0.00737359
-0.791379
-0.823092
-0.146957
-0.441002
0.0157318
-0.0284201
0.0160203
-0.105163
-0.247407
-0.109953
-0.14171
-0.00915642
-0.159246
0.012697
0.0097918
0.00379376
-0.0294118
0.0212531
-0.0177549
-0.0318188
0.000554891
-0.724852
-0.472143
0.0124455
-0.0786271
0.0118852
-0.155962
0.00509224
-0.0141878
-0.0326806
0.0068649
-0.131455
-0.743482
-0.144887
-0.0623678
0.0167269
-0.110608
-0.00936028
-0.000751735
0.0745114
-0.0419503
0.015892
-0.735408
-0.00662692
-0.074827
-0.0669247
-0.498347
0.0119964
0.00841282
0.00896833
-0.0666585
-0.0469436
-0.078896
-0.0192689
-0.0612211
-0.835214
0.0142945
0.0255513
-0.692436
0.00895898
-0.785596
-0.214347
-0.148294
-0.11132
-0.00713185
-0.745939
-0.731906
-0.779674
-0.709072
-0.752591
0.018264
0.00825383
-0.04268
-0.449965
-0.00955662
-0.0407754
-0.771999
0.00926666
-0.74044
-0.39364
-0.0268244
-0.0712313
-0.0655589
0.0824429
-0.108849
-0.0816145
-0.118425
-0.790303
-0.146446
-0.000711305
0.0397922
-0.12281
-0.721158
-0.481214
-0.0672934
-0.162836
-0.718924
-0.304458
-0.727549
-0.175104
-0.0886708
-0.734066
-0.0910285
0.00446726
-0.287008
-0.744978
-0.810645
0.0118558
0.00842285
-0.13269
-0.0283812
-0.128287
-0.0557871
-0.00805745
0.0134139
0.000646861
0.0141136
-0.654394
-0.00740069
-0.0102911
-0.739132
-0.328043
-0.738988
0.0120293
-0.748809
-0.0466103
0.00668341
-0.28312
-0.461025
-0.0127555
-0.455723
0.0127658
-0.120416
0.00626897
0.0102984
0.00066815
-0.0410678
-0.677523
0.00658418
0.0816063
0.000691579
-0.758113
-0.811018
-0.828427
-0.0689804
-0.838886
0.0274074
0.0126948
-0.0989396
-0.00894034
-0.108286
-0.739238
-0.0200328
0.0727488
-0.281484
0.00611165
0.0153639
0.0118957
-0.0713945
-0.0772952
-0.0510913
-0.68425
-0.00311653
-0.166233
-0.0408378
0.0101344
-0.0326388
-0.00133804
0.0124024
-0.0295613
-0.20991
-0.00408982
-0.799951
-0.0597146
0.0185328
0.0124335
-0.42273
-0.0294795
0.00569026
0.00639022
-0.00569194
-0.0544423
-0.11726
-0.00588968
-0.641909
-0.473889
0.00959715
-0.0836781
-0.736054
-0.0172864
-0.00380676
-0.660649
-0.822073
0.0109126
-0.815762
0.0314952
0.0213631
0.00713888
-0.0696044
-0.746971
0.0851301
0.00919723
-0.102763
-0.594273
-0.125888
-0.0621698
-0.12504
-0.732523
0.00538137
0.0096675
-0.0598871
-0.631084
-0.068216
0.00407477
-0.724318
0.0041715
-0.690197
0.0165285
0.0117161
-0.0871056
-0.0714051
0.0249712
-0.831846
-0.0251581
0.0853813
-0.00152232
0.00596015
0.00336024
-0.70417
0.0095847
-0.00635138
0.0757076
-0.188287
-0.0868744
-0.0359124
-0.21955
-0.0116293
-0.058313
-0.00790993
-0.00875419
-0.0682369
0.00664257
-0.295261
-0.424274
-0.116165
-0.00559545
0.00781545
-0.000193803
-0.301223
0.00729473
-0.00639325
0.0106679
-0.151926
-0.142218
-0.213813
-0.000888547
-0.5067
-0.833834
-0.0367659
0.000484429
-0.014904
-0.209193
-0.728573
-0.437354
0.0623798
-0.0294431
-0.0139549
0.000253582
-0.832285
-0.840786
-0.0396165
-0.029486
-0.066135
-0.000697584
-0.00359714
-0.229722
0.0121066
-0.484688
-0.421241
-0.0845335
-0.0112969
-0.036232
0.00592224
0.00650169
0.024622
-0.710373
-0.113887
-0.0179271
-0.0932328
-0.00483412
-0.00747925
-0.102139
-0.0221757
0.00817517
0.0408674
-0.831456
0.00070607
-0.0948553
0.00838013
0.0096437
-0.445328
-0.00547241
0.00839047
0.0537868
-0.0304518
-0.0048768
-0.0117178
-0.701855
-0.0633936
-0.0111676
-0.0923588
-0.00107209
-0.00707922
-0.0123587
-0.181131
-0.049189
0.0157449
-0.757411
0.0708838
-0.114981
-0.0947397
0.00174227
-0.0305242
0.0094649
0.0238557
-0.187104
0.00417269
0.00377077
-0.825352
-0.0123236
-0.110789
-0.740801
-0.74332
-0.691009
-0.75847
-0.0116998
-0.480604
-0.203235
-0.103531
-0.51118
-0.00970294
-0.740529
0.00730306
-0.219874
-0.0229046
-0.449191
-0.144394
-0.0829717
-0.228162
-0.0390309
-0.756554
0.0342697
-0.0100246
-0.439951
-0.0167401
-0.080494
-0.00990229
-0.731362
0.0096224
-0.0479272
-0.0220968
-0.693438
-0.202604
-0.0865257
-0.74125
-0.0624675
-0.0436687
-0.842015
0.0147855
-0.139983
-0.0248665
-0.0344314
-0.00254107
-0.0674928
-0.00261704
0.00443931
0.0127709
-0.0515399
0.00752603
-0.039619
-0.144493
-0.014296
-0.00929258
-0.0624758
-0.0448952
0.00380953
0.000526193
-0.053842
0.00111428
-0.0874886
-0.663233
-0.193804
-0.668398
-0.732451
-0.133006
-0.0631741
-0.0839793
0.00908531
0.0230298
-0.755372
0.00427717
-0.792955
0.0161002
0.0195735
-0.075722
0.00973827
-0.133316
-0.284036
-0.284718
-0.0558594
0.0183152
-0.841755
-0.112668
-0.103894
-0.756787
0.00700939
0.00838685
-0.65082
-0.0335032
0.00390357
-0.0360553
0.0212695
0.00995401
-0.284312
-0.828619
-0.617344
0.00906695
-0.000521017
0.0164238
-0.284764
0.00375169
-0.198044
-0.0277362
0.0217376
-0.0694869
-0.0268005
-0.0722501
-0.665371
-0.732654
-0.091891
-0.0132314
0.0066962
-0.834446
-0.0918864
-0.548319
0.0136386
-0.825622
-0.0207798
-0.688581
-0.737846
-0.541576
-0.667102
-0.00267724
-0.0703833
0.00668044
-0.0452395
-0.0256634
-0.641432
-0.733503
-0.0884338
-0.71894
-0.69592
-0.640936
-0.0223792
-0.0244158
-0.0234199
-0.147898
-0.101033
-0.00551904
-0.099704
-0.228423
-0.00260445
-0.687823
0.0143293
-0.0165928
-0.00122216
-0.0760035
-0.0288366
-0.0601202
-0.0222087
-0.0980875
0.00840342
-0.0556257
-0.00426879
0.000507593
0.000476764
-0.0156645
-0.777496
-0.838913
-0.00645848
-0.741029
-0.122206
-0.0147114
-0.0086771
-0.00349019
0.0103626
-0.058986
-0.220954
-0.00449927
-0.0423454
-0.00340835
-0.227364
-0.377603
-0.222075
-0.199787
0.00816907
-0.458538
-0.104438
-0.0768852
0.00735055
-0.0116942
0.0108696
0.00674503
-0.0599266
0.00712597
-0.0401652
0.0160919
-0.738123
-0.0420895
-0.0175904
0.000868102
-0.738595
0.0119966
-0.662933
-0.0550315
-0.743378
-0.0908355
-0.0337906
-0.0213825
-0.0683201
-0.30204
-0.793573
0.00836211
-0.0562459
-0.737307
-0.0932448
-0.335667
0.0146494
-0.155974
-0.104329
0.000401502
-0.0889045
0.0546134
-0.00383092
-0.613464
-0.0782039
-0.268645
-0.0736268
-0.0213527
-0.0818359
-0.548932
-0.193244
-0.0414738
-0.180166
-0.00351888
-0.189055
0.0122226
-0.101435
-0.39133
0.00551786
-0.732994
-0.744851
0.0670955
0.00670147
0.0133323
0.00162285
-0.0114273
-0.787606
0.053034
-0.194687
-0.00720624
0.00651791
-0.128887
0.0258545
0.0106427
0.000517071
-0.00410832
0.00465759
-0.783269
-0.786772
-0.169791
0.0900415
0.00938163
0.0814628
0.010563
-0.27209
-0.00564741
-0.0172662
0.00815864
0.00866791
0.00802067
-0.211233
-0.000179578
-0.135021
-0.183412
-0.00488127
-0.197505
0.00656846
-0.164146
-0.0518474
-0.0922088
-0.0099418
-0.023991
-0.0267185
-0.737989
-0.052464
-0.455641
-0.167137
0.000506752
0.00900161
-0.0698472
-0.00419543
0.00699713
-0.13714
0.00576961
-0.105257
-0.172916
-0.0430209
0.0167783
-0.269078
-0.333939
-0.822973
0.0090168
-0.0813572
0.00897856
-0.0630139
-0.740942
-0.0796425
-0.00501415
-0.00085675
-0.567922
-0.147447
-0.024508
-0.397423
-0.0625323
-0.800078
-0.031182
0.00520951
0.00434099
0.00720318
0.00536263
0.0235267
-0.115619
-0.7392
-0.420284
-0.427035
-0.115841
0.00579857
0.00515249
-0.148627
-0.0812062
-0.348992
0.00713838
-0.0844641
-0.00361868
-0.77474
0.000672731
-0.070217
-0.536581
-0.792323
-0.245174
-0.062189
0.00405119
-0.0339781
-0.036235
-0.149561
0.00407081
-0.0835135
0.000256114
-0.821666
0.00353647
0.00487103
-0.00567533
-0.112891
0.0195345
-0.0116456
-0.0218522
0.0890967
0.0305538
-0.00936749
0.00751721
0.0167882
-0.0632382
-0.0286757
-0.778372
-0.0787402
-0.537302
-0.0102046
-0.730674
-0.0390486
0.0084463
-0.000618061
0.0218003
-0.0699758
-0.00729234
-0.133431
0.00561608
-0.734027
-0.504328
-0.0345392
0.0101058
0.00989104
-0.717594
0.00731713
0.00549641
-0.0225415
-0.449409
-0.0714295
-0.0408243
-0.7395
-0.114166
8.47052e-05
-0.534609
0.00904097
-0.088805
-0.782404
8.5859e-05
0.00815292
-0.0781291
-0.763349
-0.0746342
-0.48992
0.00900398
-0.135589
0.0160336
-0.0312862
-0.0153559
-0.00596951
0.00609469
-0.0781494
-0.109398
-0.0358386
-0.737317
-0.056539
-0.128728
-0.0755113
-0.415027
0.003854
0.00507626
-0.723099
-0.0077677
-0.0149446
-0.0369381
-0.00638101
0.00323641
0.000260286
-0.280584
-0.504342
-0.0468584
0.0232473
0.00581613
0.000511815
-0.0400676
0.00967779
-0.750914
-0.789661
0.00418145
-0.00230641
-0.088453
-0.826157
-0.738221
-0.0741478
-0.302879
-0.104806
-0.835922
0.0302173
-0.110898
0.02038
-0.104277
-0.678407
-0.13794
0.00723254
-0.74421
-0.695742
0.0490377
-0.0600099
-0.159128
-0.0152006
0.00563685
-0.430528
-0.00786478
-0.0279721
-0.0127957
-0.0650704
-0.0769177
-0.174695
-0.734606
-0.0707669
-0.117708
-0.00736068
-0.0993018
0.0147696
0.00866472
-0.819669
0.0015901
0.00134545
-0.79705
-0.0184453
-0.0617964
0.00771034
-0.140032
0.00395684
-0.0392746
-0.805971
-0.734683
-0.107261
-0.0122963
-0.0126525
-0.200607
-0.247686
-0.745448
-0.0639802
-0.0736995
-0.019383
-0.137095
-0.204951
-0.0554012
0.00617811
-0.121324
0.00677406
-0.0184477
-0.00479019
-0.0106619
-0.0420256
0.00803377
-0.0912288
-0.637824
-0.0124708
-0.0507416
0.00647774
-0.0579386
-0.0399159
-0.00954353
0.0267335
-0.688094
-0.444879
-0.0185065
-0.0132824
-0.156802
-0.685462
-0.199179
-0.103686
-0.0817513
-0.0153059
-0.0137332
-0.0035742
-0.33084
-0.0367013
0.00821102
-0.161913
-0.0619177
-0.399112
0.0209305
0.0225816
-0.149459
0.0197907
0.0102434
-0.123203
-0.0125508
0.00296244
-0.126262
0.0177906
-0.0611941
-0.0734544
-0.0197334
-0.230039
-0.0223356
0.00725672
-0.0276123
-0.0320275
-0.179501
-0.124065
0.0122028
0.0105224
-0.555623
0.00875012
0.00382564
0.00426176
-0.0238056
-0.0637616
-0.0690775
-0.0378175
-0.575449
-0.291013
-0.28842
-0.72992
0.00896369
0.00667025
-0.248774
-0.101825
-0.0376796
-0.115225
0.00273336
0.00840954
-0.0468912
-0.733528
-0.100972
-0.0709055
0.00255878
-0.393858
0.00901036
-0.00505767
-0.0695889
0.0127097
-0.00374409
0.0089959
-0.738592
-0.219751
-0.211205
-0.859121
-0.0412875
-0.368182
-0.0684774
-0.215505
-0.00233466
-0.0414951
-0.0573429
-0.710314
-0.0052336
-0.0108063
-0.111956
-0.0136067
-0.830058
0.00220934
-0.0265215
0.0045779
0.0200805
0.0211614
-0.837846
-0.509586
-0.087644
-0.725247
-0.0978642
-0.699566
0.00996292
-0.0748254
-0.0287631
-0.106748
0.0711429
-0.153292
-0.0410716
-0.556868
0.0201424
-0.207236
-0.767786
-0.121051
-0.0260004
-0.0739783
-0.2717
0.00777365
-0.0256183
-0.00457524
-0.705687
-0.0141126
-0.0113282
-0.00506254
-0.00412034
-0.00566965
-0.0114062
-0.783507
-0.0607181
0.00362388
-0.735691
-0.824024
-0.103027
-0.049364
-0.00626762
-0.02925
0.00764043
0.00892117
-0.741061
0.00756303
-0.0376029
-0.117861
0.00798319
0.00337364
-0.736858
-0.0382547
-0.736784
-0.0781661
-0.738092
-0.702666
-0.0175043
-0.670578
-0.00719799
-0.0985528
-0.021728
-0.39754
0.0036217
-0.0202174
0.00352566
-0.0636669
-0.815398
-0.106271
-0.0036436
-0.754484
-0.00342647
-0.100009
-0.525905
-0.274652
-0.759206
-0.0750625
0.000545834
-0.118326
-0.796546
-0.0365323
-0.00738408
0.020926
0.00982013
0.00869009
-0.0588283
-0.0447815
0.00483872
-0.0085237
-0.00445294
0.0176319
-0.536241
-0.128727
-0.763202
0.000635866
-0.0149706
-0.797755
-0.0721175
0.00047968
-0.752466
-0.325181
-0.173713
-0.015865
-0.00246556
-0.120427
-0.672417
-0.365508
-0.143557
-0.0911678
0.020147
-0.737344
-0.294967
0.00509011
-0.103255
-0.177868
-0.00970937
-0.114626
-0.0528899
-0.0642245
-0.0827688
-0.00298706
-0.113432
-0.103192
-0.0529814
0.00375051
-0.169915
-0.28207
0.0161485
0.0068535
0.013571
0.0172077
-0.0382681
0.00984901
-0.0491408
-0.0844133
-0.228535
0.0174551
-0.346545
0.000575113
-0.806807
-0.738313
-0.165038
-0.0825856
-0.0602911
0.00402967
0.00653669
-0.106771
-0.00461844
-0.745331
-0.0292855
0.0199785
0.0208718
0.0638867
-0.146584
-0.739212
-0.336567
0.00937213
0.00778288
0.00602291
0.01615
-0.0436221
-0.0489592
-0.517245
-0.167023
0.00349266
-0.0479251
-0.0672257
-0.396874
-0.215828
-0.0537893
0.0149767
-0.0518352
0.00489769
-0.0736005
-0.0851586
-0.813028
0.0107976
0.00859876
-0.0455822
-0.0319348
-0.779441
-0.0859144
-0.0193579
0.015147
0.00523209
0.00362637
-0.196864
-0.292204
-0.168631
-0.0260189
-0.767425
-0.281629
0.00902444
-0.0542289
-0.786053
-0.00591611
-0.400626
-0.0431613
-0.334781
-0.756302
-0.557335
-0.0872299
-0.0427208
0.00862791
-0.0994096
-0.773541
-0.0896986
-0.143388
-0.777482
-0.00554381
-0.259438
-0.739907
0.0212827
0.0212167
-0.00704021
-0.426401
-0.698089
-0.687511
-0.0450857
-0.741039
0.00338342
-0.783223
0.0201209
-0.728783
0.00619889
0.0371402
-0.817823
-0.412659
-0.170223
-0.090138
0.00907182
-0.0317902
-0.734931
-0.219719
-0.0441943
-0.0103522
0.00790668
-0.0579723
-0.0659564
0.00621151
0.0714971
-0.152652
-0.0745263
-0.0437154
-0.792307
0.00860545
-0.717022
0.0216816
-0.0203689
-0.0289957
-0.819691
-0.0525192
-0.742809
0.00458661
-0.0526731
0.0190237
0.00723514
-0.449676
-0.00817759
-0.580014
-0.530606
0.00716947
-0.271634
0.000354912
-0.733171
-0.708934
-0.740003
-0.0536961
0.00731688
-0.659612
0.0196792
-0.211216
0.0126304
-0.0462708
0.0565782
0.00967689
-0.114722
0.00128551
0.00547292
-0.012826
0.0194165
-0.0437039
-0.679654
0.00889944
0.0043354
-0.304263
-0.0485603
-0.0150922
-0.0382328
-0.767405
0.00386342
-0.74145
-0.202544
-0.164481
0.00101434
-0.0613382
-0.0216617
-0.763625
0.0252646
-0.0381793
0.00711237
0.00719754
-0.0606028
-0.741383
-0.0047011
-0.258036
-0.115071
-0.0178214
-0.296846
0.00716304
-0.123826
-0.600624
-0.0181721
0.00917697
-0.033091
-0.0863247
0.0066976
0.000618897
0.00202764
-0.734326
-0.0787993
0.0029607
0.0150172
-0.039058
-0.660584
0.0231579
0.00126337
-0.316066
0.0200474
-0.344048
-0.0379583
-0.785764
0.0112345
0.000378342
0.00999902
-0.0170168
-0.58644
0.00922985
0.0124267
-0.054465
0.00677474
-0.0418573
-0.0140679
-0.0201102
-0.741359
-0.0178249
-0.00565819
-0.0309107
-0.735123
-0.743116
0.00492214
-0.107152
0.0113868
0.00758656
-0.0473462
-0.298373
-0.0243075
-0.00784121
-0.628808
-0.0746967
-0.072264
-0.832474
0.0132912
0.0335466
0.00829849
-0.0217899
-0.839559
0.00420309
0.00350957
0.0114081
0.00771578
-0.322518
-0.462428
-0.056781
-0.788425
-0.0583162
-0.0162273
0.0149087
-0.117584
0.000515932
-0.731632
-0.440999
-0.0790163
-0.0329849
-0.0654889
-0.0169911
0.00728312
-0.131902
0.0123013
0.00642814
-0.0981111
0.0208955
-0.75466
-0.632487
-0.342862
0.0164748
-0.762041
-0.0840195
-0.765913
0.0160589
0.0101701
-0.174243
-0.0508729
0.00571273
-0.180642
0.00597827
-0.150614
0.0188482
0.0427183
0.00150595
-0.0341799
-0.378261
-0.106388
0.0105649
-0.0656464
0.0226151
-0.296125
0.00795803
-0.137542
0.00905176
-0.812024
-0.728391
-0.430682
0.0133294
0.00774656
-0.0992631
-0.00787383
-0.111678
-0.108892
0.00607578
-0.0719957
-0.190581
-0.0534272
-0.725367
0.00686508
-0.837482
-0.074176
0.0192873
0.0120598
-0.114475
-0.836379
-0.00995575
0.00785558
-0.446219
-0.268982
-0.0733297
0.000726489
-0.0165728
-0.201183
-0.154076
-0.738527
-0.018138
-0.0112459
-0.00689074
-0.454102
-0.0095669
-0.111177
0.00783297
-0.798538
-0.737875
-0.132354
0.00625474
-0.0249554
-0.53988
-0.175002
-0.00267632
-0.645686
-0.734714
-0.0223935
-0.0454153
0.00797748
-0.162423
-0.0992448
-0.172602
-0.0256022
0.0160685
0.00425095
0.00482487
-0.83995
-0.0051341
0.0128184
-0.00972454
-0.678894
-0.743122
-0.00738909
-0.20096
0.00883536
0.00803644
-0.825131
-0.405318
-0.838659
-0.358151
-0.825814
0.0202493
-0.792764
-0.108473
0.0156533
0.00427561
0.0117463
-0.00998605
-0.279231
-0.00298053
0.0184377
-0.00867652
-0.711634
-0.122289
-0.0297597
-0.0635513
-0.728819
0.0103654
-0.0169553
-0.0663001
-0.0254773
0.00363779
0.011798
-0.0328719
-0.0649541
-0.0379972
-0.0765811
-0.0448669
0.012633
-0.0913837
-0.726751
-0.451275
-0.0956705
-0.274285
-0.820761
-0.70338
-0.0149136
-0.380419
0.0222835
0.0101576
0.00768049
-0.105564
-0.00614694
-0.0378815
-0.0686903
-0.00368037
-0.0668718
-0.0113364
0.000774695
-0.00373667
-0.636
-0.754126
-0.0109778
0.00438939
-0.0535934
-0.0539248
-0.735481
-0.0674353
0.0185473
0.0711424
-0.0640861
-0.0286742
0.00549723
0.00580962
0.0118458
-0.580278
-0.28351
-0.722146
-0.649369
-0.00138383
-0.107565
0.0150472
-0.119049
-0.00684553
-0.250292
0.00907714
-0.0684655
-0.0567114
-0.00539274
0.00696927
0.00873458
-0.753339
0.00854976
-0.155876
-0.447092
0.00860661
-0.0198306
0.00655024
0.0122988
0.0106809
0.0126173
-0.0689621
-0.410043
0.012235
-0.0528048
0.0183874
-0.0499768
-0.789069
-0.734383
0.00946792
-0.042416
0.0111307
0.00983906
0.00888351
0.00151079
0.00390032
-0.0686082
-0.0670644
-0.129773
-0.743808
0.00022885
-0.0220308
-0.194112
0.00564719
-0.0238538
-0.0799596
-0.0329511
-0.017707
-0.0433602
-0.666603
-0.66845
0.0040406
-0.0212909
-0.0329037
0.012035
0.00983603
-0.405642
-0.0137014
0.00973437
0.00309228
-0.401501
-0.77303
0.00223679
-0.0638293
0.00431477
-0.738161
-0.349968
-0.0210594
-0.0545736
-0.133071
0.00696752
-0.161834
-0.193033
-0.0476741
0.000734054
-0.637764
-0.383755
-0.773535
-0.00136627
-0.410315
-0.00377063
-0.816598
-0.730558
-0.0681001
0.00974661
-0.719076
0.0188311
-0.333671
-0.0362048
-0.372722
0.0222686
0.0120761
-0.0399315
-0.800594
-0.088052
0.0628112
0.0042132
-0.0120335
-0.715491
-0.434748
-0.0961998
0.00721055
-0.169684
-0.52058
0.0201089
-0.73397
-0.327659
-0.766837
-0.371945
-0.598567
-0.769612
-0.74073
0.00840673
-0.375303
-0.480994
-0.0336622
-0.0558522
0.00415025
-0.785925
-0.00787432
-0.146205
-0.758474
-0.169917
-0.741251
-0.496089
-0.0747483
0.00290215
-0.587548
-0.491684
-0.730629
-0.0445672
-0.107216
-0.0656397
0.0555136
0.011343
-0.740842
0.0139221
-0.0534448
0.0339613
-0.0584864
-0.388947
0.0172043
0.00578993
-0.817314
-0.000402284
-0.0330717
0.059734
-0.0518263
0.0260578
-0.0377369
-0.0110506
-0.811681
-0.84066
-0.0104217
-0.0140596
-0.413509
-0.116027
-0.50963
0.00189602
-0.0157924
-0.0405663
-0.11709
0.00534321
-0.0396978
-0.0497799
0.00494126
-0.422015
-0.788507
0.004746
-0.00446451
-0.103943
-0.249341
-0.653954
-0.0967923
-0.113636
0.000972512
-0.240658
-0.753578
0.00272691
-0.634539
0.00252126
-0.669197
-0.0493421
-0.0437945
-0.483227
-0.0926487
0.0155636
-0.0261259
0.0228608
0.0430039
-0.409021
-0.792178
0.00182025
-0.709151
-0.609125
-0.0957928
0.00719997
0.00499521
-0.0106262
-0.0691212
-0.134889
-0.0511663
-0.641329
-0.753493
-0.124888
-0.0190935
-0.305232
-0.18666
0.00410962
0.000144822
-0.0445936
-0.764466
-0.0670129
-0.488672
0.00972248
-0.0391512
-0.047707
-0.821054
-0.628804
0.00268404
0.0161903
0.00421042
-0.44501
0.063877
-0.741139
-0.743346
-0.419815
-0.121625
0.0165646
0.0118213
-0.733832
0.0101337
0.00297276
-0.0105274
0.0117145
-0.0157203
-0.405381
-0.839224
-0.397955
-0.00143515
-0.0393972
0.00820598
0.00583164
-0.113106
-0.236915
-0.00134134
0.0163716
-0.355247
-0.0950657
0.00386328
-0.110912
0.0175917
-0.233483
0.00567983
-0.0108429
-0.0975155
-0.586409
0.0494588
-0.712546
-0.620949
-0.0520099
-0.0143992
-0.0956883
-0.746869
-0.744901
0.00698902
-0.00492755
-0.286658
-0.805237
-0.00697833
-0.694
-0.6289
-0.0709916
-0.714785
0.00727702
0.00527582
-0.759123
-0.831474
-0.0982767
0.0113332
0.0697436
0.023214
-0.75953
-0.824708
0.00808258
-0.785602
0.000259166
0.00908642
-0.717867
0.00477074
-0.688749
-0.277766
-0.74676
-0.424913
-0.0192562
0.00851066
-0.157003
-0.109086
-0.837766
0.0181291
-0.473384
-0.741133
-0.0152085
-0.0182273
-0.525024
-0.0772744
-0.00301059
0.0240366
-0.235314
-0.759154
0.0124499
0.011622
-0.740453
0.0087969
-0.0410724
-0.0841749
-0.81606
-0.124372
0.00748618
-0.714055
0.0088508
-0.00273727
-0.0714188
-0.0957223
-0.763362
-0.0598195
-0.0747469
0.00581459
-0.449055
0.0160221
-0.00905054
-0.740369
-0.823062
-0.71148
-0.131706
0.00938991
-0.379002
-0.104249
0.0147558
0.00619924
-0.0181729
-0.872388
-0.122656
-0.020609
-0.0030894
-0.0912698
-0.119031
-0.67623
-0.755059
-0.0516003
-0.356082
-0.124532
-0.992457
-0.280714
0.00779734
0.00782693
-0.0481737
-0.171075
-0.390776
-0.823408
-0.361777
-0.688685
-0.696403
-0.761502
-0.37845
-0.067727
-0.65459
-0.755906
-0.00418482
0.0232949
-0.182572
-0.0215048
0.0227576
-0.758317
-0.80845
-0.823121
-0.0931013
-0.0436599
-0.732835
-0.0660303
0.0128811
-0.0330342
0.0500056
-0.752539
-0.395227
-0.479225
-0.000303722
-0.681474
-0.748858
0.00717103
-0.717597
0.0115411
-0.128123
-0.10515
-0.0568058
-0.00250828
-0.648114
-0.0973223
-0.0222672
-0.123053
0.015795
-0.0449787
-0.799141
-0.732878
-0.7683
0.00432994
-0.353186
0.0120632
-0.208234
-0.660662
-0.164486
-0.284085
0.00163621
-0.7406
-0.108202
-0.698043
0.0123567
0.0133737
0.0128677
-0.470155
-0.0593734
0.00645631
-0.789651
-0.0980899
-0.748442
-0.752604
-0.753245
-0.283023
-0.0777255
0.020115
-0.727498
-0.0202861
-0.030122
-0.243855
-0.0607287
-0.8394
0.0170309
-0.0201982
-0.737911
-0.241038
0.00445809
-0.504234
-0.752985
0.00928125
-0.730466
-0.071417
0.0178402
-0.0234399
-0.40176
-0.821692
-0.747874
-0.804014
-8.76993e-05
0.00535304
-0.569049
0.0179685
-0.684476
0.0119269
-0.804784
0.0113902
-0.255623
-0.0513845
-0.739511
-0.0839417
0.0179005
-0.618427
0.0119644
-0.813276
-0.1424
0.00282511
0.0637549
0.014934
-0.059536
-0.740797
-0.82515
-0.104317
0.0779631
-0.813618
-0.726488
-0.815933
-0.00739893
-0.0515131
0.0139829
-0.0763824
0.0107152
0.0817856
-0.413343
-0.670922
-0.0801173
-0.796695
-0.0110044
-0.412575
-0.767177
-0.0908185
-0.0726268
-0.810162
-0.457587
-0.0666588
-0.0881993
-0.641928
-0.39452
0.00666794
-0.741749
-0.016445
-0.412132
-0.809552
-0.805504
-0.734913
-0.735098
-0.831255
0.0139469
-0.762706
0.0102293
-0.801218
-0.0530745
0.0533148
-0.0857876
-0.73618
-0.725662
-0.0142845
-0.0406334
0.0117732
0.0178179
0.00625227
-0.042036
-0.399067
-0.0560354
-0.822727
-0.82907
-0.277745
-0.723288
0.0164209
-0.838466
0.0133468
-0.372819
-0.842357
0.00884537
-0.742941
-0.735177
0.0114696
-0.766106
-0.772835
0.00896745
-0.72768
0.0116677
-0.10907
-0.000749857
-0.729228
-0.415043
-0.119593
-0.766195
-0.741698
-0.0585748
-0.59633
-0.0684215
0.0123906
-0.372508
0.0185117
-0.794003
-0.0749784
-0.753204
-0.0146669
-0.452358
-0.102911
-0.605477
0.00315975
-0.0155084
-0.405854
-0.136162
-0.765974
-0.758599
-0.0392059
-0.407172
-0.739965
0.0072424
-0.691429
-0.324402
-0.102325
-0.74203
-0.0660772
-0.477348
0.00725397
-0.0134332
0.0090431
-0.475986
-0.808368
-0.610493
-0.551151
-0.44549
-0.0240419
-0.479279
-0.0036012
-0.00469777
-0.398488
-0.804078
0.00676813
-0.748004
-0.169079
-0.583552
-0.795136
-0.828185
-0.710696
-0.170779
-0.733088
0.015779
-0.52346
0.00715221
0.0117622
-0.69008
-0.0887234
0.0100752
-0.00181117
0.00601726
0.00850564
0.00384225
-0.082566
-0.734059
-0.705595
-0.00388015
0.0145509
-0.679273
0.0168831
-0.0693334
-0.806456
0.0089799
0.0141506
-0.00212054
-0.52661
-0.040004
0.00609242
-0.00192387
-0.0737181
-0.527961
0.00818421
-0.495267
-0.264831
-0.740641
-0.206996
-0.100518
-0.753406
-0.65267
-0.74152
-0.0542107
-0.0387203
-0.829786
0.00062362
-0.784947
-0.0652968
-0.824446
-0.455167
-0.0259487
-0.8062
-0.732953
-0.393928
-0.380216
-0.751215
-0.736441
-0.738435
-0.0165516
-0.0430477
-0.107078
-0.607737
-0.804692
0.00258922
-0.709227
0.0236463
-0.760363
-0.727174
-0.470374
0.00207708
-0.190972
0.0122225
-0.0510632
-0.22056
-0.175657
0.0116832
0.0173555
-0.135227
-0.772675
-0.446228
-0.352833
-0.759922
0.00554515
-0.0177591
-0.738368
-0.0104525
0.00897516
-0.78022
-0.214497
-0.175553
-0.248135
-0.822028
-0.116223
-0.734856
-0.365982
-0.66459
-0.0407389
-0.762373
-0.737837
-0.77147
-0.096685
-0.629803
-0.0161761
-0.753142
-0.606392
-0.745877
-0.202723
-0.840812
-0.314272
-0.707492
-0.0542685
-0.00542515
-0.0817784
0.00241908
-0.788537
-0.747869
-0.364853
-0.0179587
-8.15637e-05
-0.425469
-0.439551
0.00764545
-0.0144598
0.00594057
-0.694303
-0.0242289
-0.0556829
-0.801115
-0.0284113
-0.136221
-0.586935
-0.0573333
-0.759684
0.00444238
-0.212286
-0.740582
-0.0355967
0.00639427
-0.00784959
0.0141236
-0.00899095
-0.00967171
-0.0086918
0.0135718
-0.42082
0.0174991
-0.732808
-0.426993
-0.739912
-0.392118
-0.742169
-0.433009
-0.070504
0.00835841
0.0208045
-0.122353
-0.738139
-0.658347
0.00811985
-0.234957
-0.0554439
-0.0779385
-0.744548
-0.0056059
-0.733644
-0.295173
-0.283548
0.0295762
-0.708761
-0.471684
-0.0219232
-0.199066
-0.331369
0.00772346
-0.346073
-0.410534
-0.0945571
-0.626693
-0.776846
-0.505783
-0.565322
0.00503471
-0.775821
-0.698101
-0.541156
-0.0876683
-0.779426
-0.0190882
-0.974833
-0.0587338
-0.115568
-0.117267
0.00827833
-0.0177463
-0.559854
0.00914003
-0.739563
-0.566899
-0.145658
-0.424656
0.00729674
0.0144503
-0.391313
0.00439661
-0.0180373
-0.739416
-0.057857
-0.0151815
0.0233963
-0.437413
-0.796644
-0.0971832
-0.800528
0.0237595
-0.4402
-0.144385
-0.574108
-0.046148
0.0101752
-0.738594
-0.742529
-0.147603
-0.113966
-0.136281
-0.162768
-0.0181825
-0.00817413
-0.584376
-0.253774
-0.734994
-0.0142679
-0.0133515
-0.753252
-0.773863
0.00105246
-0.137776
-0.386763
0.0555374
0.000548831
-0.0100694
-0.740668
-0.0505253
-0.722817
-0.783403
-0.0013088
-0.175888
-0.329332
0.0108687
-0.100586
-0.520918
0.00963496
-0.0661803
-0.29215
-0.0190605
0.0191171
-0.095384
-0.0789732
-0.39274
-0.572004
-0.669627
0.0595855
0.058998
-0.0765371
-0.00455607
-0.767451
-0.742235
-0.00910768
-0.0206488
0.0100998
-0.188957
-0.0644781
-0.658202
-0.433115
-0.0806343
-0.0319157
-0.221082
-0.172821
-0.212772
-0.820629
0.00230308
-0.455681
-0.0299379
-0.739729
-0.417537
-0.0083765
0.00718945
-0.0483513
-0.725797
-0.393032
0.0179281
-0.795504
-0.389607
-0.0232332
0.00193453
-0.809818
-0.181086
0.00560747
-0.271423
-0.568909
-0.223661
0.00843797
-0.181224
-0.0489617
-0.0830615
-0.736466
-0.404069
-0.727339
-0.187638
0.0170111
0.0116772
0.020482
-0.647075
-0.409625
-0.608642
-0.0863212
0.00883462
-0.129464
-0.165916
0.00336883
-0.105805
0.000284977
-0.0695286
0.00758562
-0.748744
-0.0614861
-0.0511023
0.0119859
-0.000396525
0.000273903
-0.725974
0.0115916
-0.0418314
-0.0390216
-0.824277
-0.783657
-0.177124
0.00346703
0.0115111
-0.148211
-0.319534
-0.800005
-0.911623
-0.451274
-0.737963
-0.158041
-0.0517644
-0.615331
-0.0172185
-0.413836
-0.41957
-0.125294
-0.0176031
-0.200699
-0.144116
-0.803497
-0.0167016
-0.0836984
-0.734823
-0.101537
-0.798492
-0.119816
0.0182012
-0.0770541
-0.0607854
-0.0387418
-0.739764
0.0159616
-0.00301487
0.0642412
-0.193171
0.000779229
-0.0224793
-0.725894
-0.00614052
-0.0738264
-0.434054
-0.0624443
-0.198398
0.0130486
-0.638865
0.0142563
-0.0697935
0.0480017
-0.00984191
-0.820543
-0.436794
0.00449795
-0.0459492
-0.13028
-0.340334
-0.0370598
0.011921
-0.0546281
0.0753148
-0.0180472
-0.228491
-0.0734965
-0.407491
0.0806605
-0.030757
-0.993419
-0.668087
-0.268439
-0.591204
-0.836604
-0.183753
0.0035675
-0.0468791
0.0116459
-0.441394
-0.0586374
-0.0356783
0.0223851
-0.114071
-0.197282
0.00912728
-0.0813287
-0.0457179
0.00741055
-0.0030485
-0.0135992
0.0163259
-0.266356
0.00214689
0.0078441
0.0113505
-0.840581
-0.0701134
0.0582188
0.045063
-0.431867
-0.504141
-0.328782
-0.219315
-0.727308
0.0103101
-0.188083
-0.82745
-0.0242043
-0.0495302
-0.050537
-0.066109
-0.230121
0.0173279
-0.810507
-0.0544038
-0.0970676
-0.258269
-0.159502
0.0275217
-0.0148024
-0.490309
-0.365383
-0.649919
-0.049737
-0.100884
0.0160536
-0.0839361
-0.0816756
-0.235483
-0.750824
-0.569023
-0.0641572
-0.799148
-0.0314929
-0.136586
-0.0121233
-0.320128
-0.586205
-0.728932
0.0790089
-0.00536298
-0.0350778
-0.0798812
-0.0293746
0.0776184
0.0430272
-0.122931
-0.144005
-0.114547
-0.333279
-0.735993
0.00901881
-0.0470814
0.00257393
-0.000538035
-0.0626907
-0.07064
-0.0457858
-0.796047
-0.127096
-0.0847176
-0.382692
0.0213394
-0.118812
-0.814324
0.00450357
-0.00415085
-0.0203408
-0.241547
-0.100349
-0.830773
-0.0934144
-0.019852
-0.0599628
-0.0812915
0.00448313
-0.461382
-0.0534405
-0.10559
0.0180398
-0.229192
-0.440382
0.00902174
-0.738397
-0.116642
-0.091868
-0.00449172
-0.0236026
-0.0290333
-0.0367708
-0.723652
-0.0473458
-0.317215
-0.0367097
-0.798466
-0.276285
-0.120806
-0.807359
0.00368547
-0.333536
-0.0120263
-0.256817
-0.0680674
0.0509031
-0.813508
0.015826
-0.442338
-0.329384
0.0534133
-0.107005
-0.214837
0.0201619
-0.397929
-0.759821
-0.818925
0.0112513
-0.240255
0.00335233
-0.00119341
-0.0592029
-0.635325
-0.759971
-0.0381617
0.000188833
-0.114342
-0.0968046
-0.0748347
-0.0671196
-0.150578
-0.83655
0.0115994
-0.00822689
-0.0415936
-0.0375387
-0.108146
-0.036319
-0.831171
-0.0369305
-0.0627221
-0.0435043
-0.82597
-0.0862894
0.00159694
-0.110112
-0.0269576
-0.0952892
-0.147929
-0.033443
-0.195738
-0.706669
-0.0933022
-0.0733338
-0.0289424
0.0117868
0.0576624
0.00322712
-0.0952732
0.0424267
-0.365239
-0.0815752
-0.00027735
-0.0424215
0.00678107
-0.809607
-0.0840539