/*--------------------------------*- C++ -*----------------------------------*\
| =========                 |                                                 |
| \\      /  F ield         | OpenFOAM: The Open Source CFD Toolbox           |
|  \\    /   O peration     | Version:  v2012                                 |
|   \\  /    A nd           | Website:  www.openfoam.com                      |
|    \\/     M anipulation  |                                                 |
\*---------------------------------------------------------------------------*/
FoamFile
{
    version     2.0;
    format      ascii;
    class       surfaceScalarField;
    location    "300";
    object      ddtCorrDdt0(phi);
}
// * * * * * * * * * * * * * * * * * * * * * * * * * * * * * * * * * * * * * //

dimensions      [0 3 -2 0 0 0 0];
oriented        oriented;


internalField   nonuniform List<scalar> 
20537
(
0.000461144
-0.000730121
0.000268989
-0.106188
0.0650752
0.0411129
-0.00514142
0.00740952
-0.00226807
0.000362059
0.000243443
-0.000605497
-0.000721245
-0.00202442
0.00274564
0.0145236
-0.0251943
0.0106707
0.000117015
-4.8999e-05
-6.80484e-05
0.00277398
-0.000130504
-0.00264349
-4.16829e-05
-1.35498e-06
4.30398e-05
0.00892295
0.00408421
-0.0130071
0.0175911
-0.0259593
0.00836813
0.0158445
-0.0417988
0.0259543
-0.00340712
-0.000354606
0.0037617
-0.0250734
0.0169495
0.00812393
5.5168e-05
-3.59781e-05
-1.91904e-05
-0.00161127
-0.0015415
0.00315278
0.000129725
0.000271368
-0.000401113
0.00293636
-0.000530208
-0.00240616
0.00621908
-0.0109394
0.0047203
6.64146e-06
-4.83225e-05
-5.09208e-05
0.000412982
0.00168721
-0.00682862
-6.87136e-06
1.2964e-05
-6.09797e-06
-5.4213e-05
2.04265e-06
5.21728e-05
-1.12598e-05
4.3861e-06
0.00317763
-0.000403701
-0.00038648
-8.26191e-05
0.000469091
-0.000549905
-0.00100334
-2.37497e-05
0.000484887
0.000552733
-8.18851e-05
-0.000470842
0.0323735
-0.0178499
0.000452876
-0.00032316
0.00290206
0.00450747
0.0167613
0.00279264
-0.019554
-5.25276e-05
-1.68265e-06
-0.00105936
-0.000290085
0.00134937
0.00335097
-0.00151915
-0.00183184
-0.00384629
-0.00629212
0.0101383
0.0178447
-0.00892171
-0.00163754
0.0183989
3.94662e-05
2.8907e-05
-6.83582e-05
-1.70269e-05
-1.30918e-05
3.01139e-05
0.0050706
-0.00864361
0.00357299
-0.0268827
-0.0127841
0.0396669
0.00511227
-0.031995
0.0237178
-0.0054441
-0.0182737
-0.00696361
0.0331559
-0.0261923
-0.0174878
0.0192064
-0.00171861
-6.94445e-05
-0.000317025
0.0189084
-0.0107405
-0.0081679
-0.000896035
-0.000384024
0.00128003
-0.0034884
0.00181169
0.00167665
0.0038478
-0.00466519
0.000817413
-6.6057e-05
4.02704e-05
2.57933e-05
0.000110593
-8.58611e-05
-2.47368e-05
1.73661e-05
-3.43816e-05
2.72867e-05
-4.99037e-06
-2.22976e-05
-0.00700115
-0.00484289
0.0118441
0.000242754
0.000309968
2.07189e-05
5.80233e-05
-7.87177e-05
-0.0141779
0.0103316
-0.0182265
0.0386644
-0.0204379
-0.0133716
0.0186358
-0.0052643
0.00250027
7.55016e-05
-0.00257583
-0.0252768
-0.055191
0.0804677
0.00162464
-0.000213512
-0.00141114
0.00183623
0.00151474
-0.00150811
0.0325642
-0.000629909
-0.000133045
0.000762875
0.000781649
0.00215471
-0.00147328
0.00163056
-0.000157282
0.0012723
0.00101155
-0.0022838
-0.0597507
-0.0464373
-3.24187e-05
-3.36362e-05
4.03707e-05
-9.44609e-05
5.40897e-05
-3.80214e-05
-2.26974e-06
4.02927e-05
-0.00186765
0.00355486
-0.00181156
-0.000750273
0.00256181
0.00154678
-0.00164691
0.000100097
-0.00213853
0.000353978
-0.000253446
0.0001866
6.6802e-05
-0.00550709
0.00640939
-0.000902312
-1.75646e-05
-0.00010309
0.000120654
0.00626898
-0.0235094
0.0172404
-0.0114179
-0.00195362
0.045909
-0.0300646
0.0170863
-0.00935693
-0.00772939
0.0737871
-0.067207
-0.00658009
-0.000232783
0.000558062
-0.00032529
1.41649e-08
0.000132557
-0.000132572
-0.00185116
0.000791812
-6.28802e-05
0.00381025
-0.00374737
0.0252444
0.000111878
0.000385479
-0.000497335
0.000191412
-0.000424242
2.71361e-05
-3.12409e-05
4.1023e-06
-0.00300443
0.00228316
-0.00875742
0.00374084
0.0050166
0.0166313
0.00227704
-3.45834e-06
3.05978e-05
-0.0104415
0.000821562
0.00961995
-0.00104325
-4.39657e-05
0.00108717
-0.000231723
-1.44721e-05
0.000246204
0.000194086
-0.000318842
-9.95753e-06
-2.04516e-06
1.19929e-05
-0.0183254
0.0113308
0.00699464
0.000970474
-0.000331853
-0.00063862
2.46694e-05
-2.40783e-05
-5.94371e-07
-0.00141078
0.00213381
-0.0426601
0.0174657
-2.75588e-05
-2.62812e-06
3.01908e-05
-0.000296984
0.000297
-0.00491947
0.00485659
-4.64179e-05
4.64226e-05
-2.01534e-06
-2.5541e-05
-0.0281735
0.0764486
0.000103335
-0.0088607
1.48436e-05
-1.74216e-05
2.58924e-06
-6.98367e-05
7.25262e-05
-2.68835e-06
-2.60821e-05
8.57261e-05
-5.96413e-05
0.00160068
0.00346996
-2.93554e-05
0.000223448
-0.00469773
0.00129063
0.0770626
-0.0184336
0.000945771
-0.00068975
0.00176685
-0.00107709
0.0109622
-0.0293958
0.00120622
-1.00558e-06
-0.0012052
0.000403164
-0.000454088
-0.00512877
0.00693597
-0.00180714
8.72737e-05
-4.78068e-05
4.11199e-05
2.95612e-05
-7.06768e-05
-0.00150471
3.14621e-05
-0.000104936
8.73701e-05
0.0510829
-5.36541e-05
6.9084e-05
-1.54242e-05
1.71187e-05
-2.27476e-06
0.00157457
0.00109086
-0.00266543
0.0553666
-0.0251631
-0.0302035
0.026081
-0.0494984
0.0234174
-0.0071954
-0.00324607
6.11725e-05
4.943e-05
-0.000612147
0.00109278
-0.000480633
-7.09477e-06
-5.21405e-05
5.92236e-05
0.000105286
8.35718e-07
-0.000106131
-0.0423429
0.0295588
0.00405923
-0.00291097
-0.00114826
-0.00778417
0.00265538
3.62462e-05
8.07599e-05
0.0226494
-0.0175371
-0.0003548
0.00016732
-6.95417e-05
9.37653e-05
-2.42166e-05
-0.0134318
-0.0116416
7.8893e-06
1.9397e-05
0.0002794
-0.000307744
2.83371e-05
3.21407e-05
7.31481e-05
-6.133e-05
4.76924e-05
1.36343e-05
-0.000131323
0.000220267
-8.89488e-05
-0.00122853
-0.00225991
0.000641057
-0.00153707
2.13073e-05
-4.03611e-05
1.90603e-05
0.000172654
-4.20281e-05
-0.000130637
0.00162953
-0.0086307
-1.7405e-05
5.85268e-05
-0.00192098
0.00116219
0.000758796
-4.65489e-06
9.01976e-06
-4.36101e-06
0.00290015
0.00115908
-0.000762446
0.000132537
0.000359794
4.33689e-05
-0.0105992
0.0120228
-0.00142363
0.000281706
-0.00209333
2.05383e-05
-2.71619e-05
6.62454e-06
-3.55606e-05
-2.57695e-05
0.0525251
-0.0264441
4.14212e-05
-5.88245e-05
0.0493249
-0.0301185
-0.000270187
0.00147642
-0.000610327
7.65863e-05
0.000533741
-0.00224863
0.00846768
-2.56017e-05
2.04358e-05
5.16877e-06
-0.000342212
-0.000183793
0.000526001
0.00284687
-9.50993e-05
2.77918e-05
6.72971e-05
-0.00172725
-0.00510137
-3.84314e-06
-4.83019e-06
8.67236e-06
-1.75233e-05
2.00665e-05
-2.54286e-06
0.000926522
0.000698123
6.07384e-05
-8.68216e-05
0.0026826
0.00159555
-0.00427815
-0.0243032
0.0290228
-0.00471954
0.0256006
0.00420196
-0.000354131
0.00011807
0.000385968
-0.000504035
-0.0002268
-0.000627567
0.000854342
-0.0452641
0.0270376
0.00031913
-0.000209388
-0.000109754
-0.000788529
0.000176381
0.0489285
-0.0161258
-0.0328027
-0.000125394
-0.000484936
1.92819e-05
-5.73047e-05
-0.00161438
0.000924637
0.0254667
-0.0247063
-0.000760296
-6.88021e-05
9.48571e-06
5.93133e-05
-7.0832e-05
-2.19518e-05
9.27859e-05
0.00708313
-0.00264062
-0.00444251
-9.04827e-05
-4.61494e-06
0.0289432
-0.0172767
-0.0116666
0.000351877
7.52239e-05
-0.000427142
-0.000554489
0.000810781
-0.000256342
-3.32683e-05
4.29922e-05
-9.72506e-06
-0.00227743
0.000769432
0.00150803
-0.000254819
2.31035e-05
0.0233295
-0.0618985
0.038569
3.22768e-05
-1.67712e-05
-1.55056e-05
1.03638e-05
-2.12315e-06
-8.23619e-06
0.0122611
-0.00999547
-0.00226559
-0.00497865
0.0135798
-0.00860114
0.0175319
0.00618585
-8.59904e-05
-3.52723e-06
8.95181e-05
0.000417819
-0.000972333
0.000504913
-0.000153042
-8.93927e-05
-0.000164058
-0.00316509
0.002194
0.000971087
0.0040571
-0.00484089
0.000783828
-0.00181505
0.000943897
0.000871153
-9.97808e-06
1.12129e-05
-1.23073e-06
0.00020156
-0.000693727
0.000492161
-1.08588e-05
9.01239e-07
0.0102788
-0.00934358
-0.000935252
1.56785e-05
1.65986e-05
0.00321628
-3.86506e-05
0.0448595
-0.0136019
-0.0312576
-7.56314e-06
2.81007e-05
-0.000178915
0.000666143
-0.00116703
0.000500893
-0.0151833
0.00846414
0.0067192
0.0215474
0.00739583
-0.0825211
0.0572443
-3.1975e-05
2.48789e-05
-9.54707e-05
2.46261e-05
0.0123419
0.0200317
-0.00699589
0.0188394
-0.0118435
9.10771e-05
-6.78551e-05
-2.32211e-05
0.00291417
0.00416895
1.06427e-05
-1.26877e-05
-0.00101274
0.0011849
-0.000172154
6.56805e-05
-0.00110893
-0.0151257
-0.029556
0.0446817
-1.73552e-05
3.04596e-05
-1.31012e-05
0.000431935
-0.000379308
-5.26519e-05
0.00524528
-0.0045741
-0.000671178
-0.0229876
0.0159917
1.3072e-05
-0.000104789
9.17314e-05
1.47822e-05
0.00101065
-0.000196252
-0.000814403
-0.00753649
0.0380561
-0.0305196
-0.000196119
-0.0241071
0.00207745
-0.000986589
-0.00139507
-0.00460482
0.006
-4.36653e-05
-1.26166e-05
5.62755e-05
-2.16117e-05
-0.00229719
0.00140843
0.000888758
-0.024379
0.0601198
-0.0357408
2.09918e-05
0.0002228
-0.000243789
0.0113451
-0.00392915
-0.00741591
0.000172169
0.000146973
-8.48205e-05
9.78821e-05
-0.000316139
0.000428008
-0.00120375
-0.00196134
0.00138983
0.00315046
-0.00454029
0.00189666
0.00334862
7.00119e-05
0.00556703
0.0386899
-0.0442569
0.00118657
0.000360241
0.000187534
-0.00179879
-4.0935e-05
7.0497e-05
0.0042084
-0.00971548
0.00286038
0.00339743
-0.00625781
-0.0017446
0.000484615
0.00125998
0.0180915
-0.000500387
0.000107806
-1.67244e-05
-2.59868e-05
-1.38398e-06
2.73748e-05
-1.1407e-05
1.03415e-05
1.06756e-06
0.000620122
0.00039054
-0.0466075
0.0222285
-0.0228671
-0.0770394
0.0999065
3.84823e-05
9.71816e-06
-4.82019e-05
-2.28013e-06
3.54878e-05
-3.31998e-05
-0.0340808
0.0396479
-0.0011371
-0.0188799
0.020017
-0.00713303
-0.00065113
0.000312749
-6.99913e-05
-2.07728e-05
4.15023e-05
0.000259839
0.000529126
-0.000788989
-0.00705677
0.00591966
0.007739
0.00360599
-0.000588146
-0.000200877
0.000789011
0.0395253
0.00638372
7.38514e-05
-4.70782e-05
-2.67707e-05
0.000391367
-0.00140406
0.000261773
-8.91349e-05
-2.19449e-05
0.000293327
-0.00176392
0.001592
0.000171922
-0.000129918
0.000147728
-1.78052e-05
-0.0118416
-0.0064838
-0.000434878
0.0026833
-0.00224846
4.45005e-05
-6.01727e-06
0.000954246
-0.000454948
-0.000499365
0.00063961
-0.000254135
0.000130405
0.000182331
0.0193593
0.0360074
-0.00107303
0.000484874
0.000142456
-5.94932e-05
-8.298e-05
-0.00410649
-0.000127498
0.00423403
1.12246e-05
-2.93754e-05
1.81545e-05
0.000598922
-0.000167018
-8.46371e-05
-0.00108637
0.001171
-0.000539266
-0.00120532
-0.000834848
0.00123096
-0.000396149
-6.59991e-05
-1.99887e-05
0.000768577
-0.000791266
2.26935e-05
-3.80461e-06
3.0989e-05
-2.71783e-05
0.00563617
-0.00703121
0.00281394
0.00349619
-0.00631014
-6.12754e-06
1.02693e-05
-4.13954e-06
-5.75223e-06
-3.60961e-06
9.36274e-06
0.000503559
-0.00133837
0.00059981
-0.000398238
-0.000163465
1.31244e-05
0.000150331
3.15131e-05
-0.000144557
1.46376e-05
3.92698e-05
0.000103188
-0.0156661
-0.0102932
0.0145755
-0.0141368
0.0154379
-0.00918455
-0.00625341
-0.00401271
-0.00364137
0.00765409
-0.000980212
-0.0007837
0.0235197
-0.00569536
-0.0178243
2.27532e-05
-0.000870658
0.000643882
0.00228543
-0.00941843
-0.0112773
0.0128115
-0.00153421
-0.0161858
0.0111911
0.00499472
-0.000194572
-0.00195276
0.00214725
-0.00320044
-0.000737026
-0.00150485
0.00224187
-0.0456162
0.0495691
-0.00395293
-0.00178727
0.000449212
0.00133809
1.66003e-05
-5.25812e-05
-0.0138428
0.000100049
0.0137427
-0.0128043
-0.00103851
0.0148107
0.00576757
-0.0205783
-0.000190526
2.70444e-05
-0.0242548
0.00806899
0.00900582
0.001273
-5.90779e-05
2.35163e-05
-0.0601997
0.0145835
3.132e-05
-3.70725e-05
-3.28428e-05
2.90451e-05
6.1277e-07
1.00251e-05
6.43115e-06
1.82381e-05
-4.13185e-05
7.24655e-05
-3.11476e-05
-0.000334616
-0.00145264
-0.00975364
0.0495984
-0.0398448
9.52985e-05
-0.000104732
9.42976e-06
0.000372191
0.000582055
1.17256e-06
-3.1708e-05
3.05345e-05
0.0451519
-0.00562659
0.00209998
0.000847194
-0.00294718
-0.0705916
0.0107983
-0.000365262
-0.010234
4.34189e-06
9.09646e-05
-0.0111703
0.00619163
-0.000384735
-0.000269808
0.000654521
-0.0603182
-0.0102734
4.53554e-05
-9.42222e-05
4.88637e-05
-9.76566e-06
-7.65657e-06
-0.0114636
0.00540286
0.00606075
-0.0180703
0.00735158
0.0107187
0.000101115
0.0895349
-0.0701756
-0.00746703
0.00182228
-0.00201679
0.00409017
0.00793261
0.0294016
-0.0314095
0.00200786
0.0235528
0.00584877
-0.00280694
-0.00142327
0.00423021
7.25942e-05
-1.04131e-05
-6.2178e-05
3.06165e-05
-3.31162e-05
2.50142e-06
0.00113916
-0.00515185
0.000807719
-3.91988e-05
0.0238668
-0.00691729
-1.17719e-05
0.000698122
-0.000686356
-0.00124568
-0.000569377
0.00215844
-0.00223978
8.13362e-05
-1.42293e-05
1.53968e-05
-1.41475e-05
-2.95355e-05
0.0150727
-0.000778282
0.00187004
-0.00109178
0.016949
0.0279104
0.00612182
-0.00601852
-0.00483057
-0.00663303
-0.000756463
0.000371735
1.61259e-05
-1.66729e-05
5.49568e-07
0.0181398
0.00537989
-5.36607e-05
2.08737e-05
3.2789e-05
-0.00194076
0.000399253
1.3133e-06
-0.00280825
-7.25608e-05
2.02749e-05
5.23076e-05
5.85919e-07
2.45811e-05
1.99211e-05
4.00839e-06
-8.65966e-06
0.000280173
0.00222009
-0.0139254
0.0137608
0.000164523
0.00291445
-0.00739948
0.00448506
0.00184315
0.00142753
-0.00327068
0.000179206
0.00854866
-0.00745515
-0.0010935
-0.047024
0.0240364
0.000291063
-0.000618924
0.000327826
0.0287743
-0.0139636
0.000241866
-0.000263831
0.00139283
0.0108682
1.26524e-05
4.46599e-06
4.22539e-05
-1.76705e-05
1.74762e-06
-1.92728e-05
0.0145288
0.00602419
-0.020553
0.00230601
0.00486876
-0.00717477
-0.00572924
0.00165763
0.00407164
0.00557157
0.00297709
0.00855059
-0.0305753
0.0333679
0.0052447
1.61825e-05
-1.12001e-06
0.000667285
9.50074e-05
-4.96467e-05
-0.012507
-0.034517
1.65445e-05
-1.13755e-05
-5.16878e-06
-0.0329404
0.00118667
0.0317538
-0.0763593
0.012676
0.0636833
-0.00142417
0.00592447
-0.00450028
7.60129e-05
-0.000826292
0.000750277
-0.000931372
0.000805981
-0.000402443
-0.00601337
0.00641581
-0.0216545
-0.0547048
0.00820055
-0.0172605
6.90435e-06
-1.0743e-05
-0.000408511
0.000841388
-0.000432881
-0.00191706
0.00657177
-0.00518193
-4.40802e-05
2.36504e-05
2.04356e-05
-0.000140693
0.000110804
2.98862e-05
-0.000186716
-0.000206764
0.00201845
0.00223481
-0.00494925
0.00271444
-0.0247363
-0.0284558
0.0531921
-1.41438e-05
4.16304e-06
6.87597e-06
-1.04867e-05
0.00124907
-0.0122768
0.0110278
-0.000863793
-0.00105722
-2.63289e-05
3.42163e-07
0.00713223
0.0666548
6.66767e-05
5.92051e-06
-0.000486674
2.75643e-05
-5.60699e-05
2.85042e-05
0.000513015
-0.00712282
0.00660981
-0.000138194
-3.61771e-05
0.000174364
-3.46507e-05
-0.000109557
-0.000821816
-0.00427405
0.000167593
3.04118e-05
-0.000133507
0.000625721
0.000291982
-0.00091772
8.42538e-06
-6.2081e-05
0.00627712
-0.00508075
-0.00119637
-0.00650817
-0.00577571
0.0122839
4.4851e-05
-4.48535e-05
7.78266e-05
1.63306e-05
-9.41558e-05
-4.43749e-05
9.93664e-06
3.6487e-05
0.1347
-0.0531016
-0.0815982
4.63863e-06
9.79214e-05
-0.000102579
0.0128454
-0.0222023
0.000100202
-7.24011e-05
-4.28621e-06
2.04106e-05
-0.00555769
-0.00613828
0.011696
0.000527129
-0.000451111
8.72154e-05
-1.65513e-06
-8.55626e-05
0.00420466
0.00207246
-0.00043811
0.000729141
-0.0364162
0.0552556
-0.0172882
0.0235571
2.13953e-05
-1.45199e-05
-0.0323434
0.0225897
-4.76107e-05
-4.66071e-05
-0.002889
0.00377384
-0.00088482
-1.92736e-05
-5.81106e-05
7.73883e-05
0.00460128
-0.0138368
0.00923551
-8.19921e-06
1.42867e-05
-6.09078e-06
-0.00342449
-0.00124069
0.0202205
-0.00926746
-0.010953
-3.10878e-05
1.80016e-05
0.00913714
-0.00493249
-0.00239868
-0.00907304
0.0114718
0.00326362
-4.73882e-05
-0.036452
-0.00996122
0.0464132
-6.67649e-05
-3.06693e-06
-0.105521
-0.00821274
0.113734
-9.00516e-05
4.20404e-06
-5.88364e-06
4.3594e-05
-3.77094e-05
-4.01695e-05
-3.14814e-05
7.16529e-05
-5.85896e-05
-5.43466e-06
6.40129e-05
-0.00214381
0.00136551
0.000567083
-0.00115909
0.000591997
-0.00243615
0.00102512
0.00141097
-0.00486166
0.00440971
0.000451926
0.00216185
4.41798e-05
-2.28674e-05
0.00842114
0.00439539
-0.0128165
0.00413402
-0.00182801
0.000141981
-0.000484204
-0.000582998
0.000540968
0.00913992
-0.0455561
0.0645361
0.0125265
-0.00244007
0.000162673
-4.60048e-05
-6.9025e-06
5.29189e-05
-0.0127365
0.0173378
-0.0227323
0.00692571
0.018541
8.91815e-05
0.00398528
0.00515186
0.0254247
0.0134063
-0.00607868
0.00567623
0.0590734
-0.0666099
0.0333937
0.0155348
-0.0262306
0.0164658
0.00976481
0.000111364
-0.000242691
-0.00372876
-0.0225018
0.00182652
-0.00261433
0.000787774
-1.55688e-05
7.37198e-06
-0.0032183
0.00120815
0.000421505
-0.000641208
0.000219717
-2.17281e-05
5.21744e-05
5.50081e-05
5.15617e-05
-0.000106572
-2.51673e-05
7.28574e-05
6.17367e-05
3.27222e-05
-9.44712e-05
0.00373931
-0.00105671
-0.00490291
0.00529061
-0.000387694
-0.0721093
0.00490224
0.0337403
-0.0584766
-3.47133e-05
5.0611e-05
-1.58947e-05
-0.00960233
0.0108514
0.00110629
-0.00196901
0.000862735
0.019034
-0.0188191
-0.000214964
0.0383109
-0.0341769
-0.000136728
1.62324e-05
-3.48774e-06
-1.27483e-05
4.09007e-05
-0.00549812
-0.0036241
0.00912222
0.0103961
-0.00197503
-0.000127526
-0.0001802
-0.000849719
5.7049e-05
0.000792625
-0.00116225
-0.000610521
0.00177278
2.88474e-05
-1.14821e-05
0.0131283
0.00318788
-0.0163161
-0.0993327
0.0363356
0.062997
-0.0163568
0.0221244
0.00244971
-0.00383538
0.0013857
-0.000654026
-0.00148977
-0.00256224
0.00154056
0.00102169
3.96633e-05
-5.94667e-05
-1.30973e-05
-0.0188769
-0.028443
0.0473198
0.00172356
0.00128272
-0.000933562
-0.000349147
0.000360277
-0.00037205
0.00920976
0.00942608
-1.91706e-05
3.28236e-05
5.33255e-05
-8.61455e-05
-0.0164746
1.99427e-05
8.9046e-06
-2.27643e-05
1.06663e-06
-1.16531e-05
3.20931e-05
-2.68381e-05
-4.46926e-05
7.1527e-05
-0.00025079
0.00207729
-0.00292893
0.00613879
-0.000567206
2.16092e-05
-1.66221e-06
0.0110348
0.0785001
0.037935
-0.0540607
6.36362e-05
5.21207e-06
-6.88509e-05
-1.27556e-05
1.58468e-05
-3.09215e-06
-0.000192814
0.000213803
4.72162e-05
-0.00268027
-0.01539
0.0474416
-0.0625673
0.0707711
0.0238776
-0.0169519
0.0141287
-0.11965
-0.000400212
0.000149824
0.000250374
-0.000387385
0.000808871
0.000380001
0.000430742
-0.00295493
0.0022179
-0.000675152
0.000542045
1.00379e-05
6.19827e-06
-0.00169902
-0.000271115
-0.00175972
0.00203088
0.00415383
0.000765622
-0.00491942
0.0367466
0.0128225
-0.000449454
-0.000400268
-0.000903954
0.000215456
0.00068852
-1.33888e-05
-3.67365e-05
5.0121e-05
0.00147657
0.000603243
-0.00207978
0.00098809
0.000273755
-0.00126184
-0.04857
0.0121181
-0.000316362
0.00146262
-0.00114626
-3.68849e-06
0.000103888
-0.00288229
-0.000759076
-2.27262e-05
-2.13522e-05
-2.94311e-05
-0.000169739
0.000199183
-0.00112256
-0.00460665
9.34167e-05
-3.53896e-05
3.79794e-05
5.70258e-05
0.00430654
-0.00220656
8.63775e-05
-0.000123979
3.76119e-05
0.00171491
0.000919225
0.0136096
0.000861766
0.00319535
0.00215847
-0.00173471
-0.000423741
0.0017279
-0.000445157
2.96186e-05
-4.30073e-05
0.0133846
-0.0380064
0.0246218
-0.00176016
0.0124579
0.0114198
-8.73288e-05
-0.000167478
-3.89905e-05
1.67386e-05
2.22548e-05
-0.0021573
0.000746568
-0.000310284
0.000690041
-0.000379794
0.0127075
-0.00861741
-0.000679471
-0.000761911
0.00144142
-0.0246308
0.00959163
0.0150391
0.0542253
-0.0470931
-2.94297e-05
-2.42304e-05
-0.0011458
9.16e-05
1.62086e-05
4.02598e-05
-6.78653e-05
2.76031e-05
4.11606e-06
1.01742e-05
4.25295e-05
-6.9368e-05
0.000337189
-0.000775985
0.000438797
-0.00129497
0.00313813
0.00437094
-0.00385793
2.24938e-05
-8.91016e-07
-0.0177227
0.0277791
-0.0100564
0.0200243
-0.0251299
0.00740718
1.44967e-05
-6.55271e-05
5.10236e-05
-9.15711e-07
-1.25421e-05
1.34591e-05
1.36675e-05
-2.55744e-06
-1.1113e-05
0.00987452
-0.0075891
0.0345928
0.0112097
-0.0458025
-0.000435004
0.000323021
0.000111989
-0.000345561
0.000114973
-2.33709e-05
-1.61837e-05
-4.8899e-07
-1.28691e-05
-3.64344e-05
4.93013e-05
-1.1046e-05
3.42518e-05
-2.32074e-05
-0.00304614
0.00150089
0.00154529
0.00413111
-0.0271582
0.023027
-4.99973e-05
0.000136365
1.17185e-05
1.07706e-05
-8.09576e-05
2.23631e-05
-5.94676e-05
4.8419e-05
0.0241515
-0.0254389
0.00128741
-0.00400372
0.00399751
6.24048e-06
0.0016641
-0.0125426
0.00476723
0.00777544
0.043772
-0.0519848
8.69132e-05
-4.89322e-05
-0.00182121
-0.00061492
0.0155521
-0.000415317
-0.00377615
-0.0380227
0.000176874
9.73887e-06
-0.00151554
-0.000477566
4.25936e-05
0.00283597
-0.0285048
-3.26544e-06
0.0793465
1.02735e-05
6.27168e-06
0.000434669
-0.000288632
-0.000194136
-0.00063213
1.42421e-05
-7.63895e-05
6.21526e-05
0.000287518
-9.37832e-06
-0.000278148
0.0201913
-0.0109816
-4.19704e-05
3.60856e-05
0.000269071
-0.0678574
0.0337765
-0.0294732
0.0392264
-0.00975324
0.00141943
-0.00173585
-0.0124556
0.0085264
-0.0238263
-0.00758319
-2.84269e-05
6.60704e-05
-5.15732e-05
-0.011739
0.00618127
0.000350923
-0.00151319
-0.0062193
-0.00896401
-0.00159476
0.000915335
1.1237e-06
-1.71645e-05
1.60413e-05
1.454e-06
-2.78794e-05
2.64388e-05
-2.9169e-06
-0.0654243
0.079553
-0.00209234
0.00272872
-0.000636366
-0.000526543
-2.66772e-05
0.000553223
2.29253e-05
4.55744e-05
-6.84942e-05
0.00358137
-0.0100895
-8.05104e-05
0.000269802
-0.000189304
9.42323e-06
4.24447e-06
-0.0015098
-0.0121626
0.0136724
0.0529393
-0.0148832
0.00340702
-0.000908068
-0.00249892
-1.98604e-05
1.53037e-05
-6.52728e-05
-0.000445134
0.00130455
-0.000859445
-0.00122672
-0.000181234
0.00140796
-0.00155743
-0.000293727
0.000668781
0.000319302
-0.000680248
-0.00168727
0.00236754
-0.000109555
0.01072
-0.00932722
-0.0122326
0.0154003
-0.00316776
0.00576364
-0.00718779
0.000333082
-8.27201e-05
-0.000250359
-0.00709887
0.00582546
-0.00229921
-0.00352626
-0.00121608
0.000545936
0.000670148
-0.00204429
0.000525111
-9.40275e-06
-2.95876e-05
-6.87985e-05
-0.000110984
-2.72167e-05
-2.23778e-05
5.19955e-05
0.0133376
-0.0148475
-0.000550846
-0.000518182
0.00106903
0.0022429
0.00145417
0.00468462
0.0107726
-0.00737513
-3.00951e-05
-0.00773758
4.46336e-05
1.75908e-06
-4.63963e-05
0.0044022
-9.05983e-06
1.31813e-05
-1.35058e-05
-6.91118e-05
8.26192e-05
-8.11016e-05
2.44164e-05
5.66972e-05
0.00153762
0.00114565
-6.64872e-05
-1.28522e-05
1.57125e-05
-2.86745e-06
0.00118696
-0.0222272
0.0210403
-8.34756e-05
2.40183e-05
0.000688128
-0.00113329
-8.48923e-06
1.19725e-06
7.29279e-06
-0.000729567
0.000797675
-6.81043e-05
-0.000288791
-0.000276631
0.00056537
0.00246882
0.0216827
0.0677326
-0.0207527
-0.0469799
1.54855e-05
3.03092e-05
-4.57957e-05
0.0501941
-0.0115043
-0.00703888
-0.00550371
-8.01668e-05
-0.00231298
0.0024234
-0.000110444
4.38259e-05
0.00039086
-2.86415e-05
5.62064e-05
0.00961253
-0.00742327
-0.00218927
-0.00457356
-0.00407007
0.01956
0.0306341
-0.000446063
0.000324971
0.000121093
-4.75828e-05
-1.23647e-05
0.0166564
-0.00795548
0.00124981
0.00670569
0.00978405
-0.014672
0.00488796
0.000711063
-0.000911936
0.00199573
0.00761679
-4.56116e-05
-3.83761e-07
-0.00126086
0.000531302
0.0006372
-0.00063506
0.0225723
0.0281732
-0.0507456
0.00495344
-0.0033579
-0.00986083
-1.54235e-05
3.07061e-05
0.00206446
-0.0012003
0.00123889
-3.86152e-05
-0.00175278
0.000325948
-0.000852466
0.0152321
-0.0311891
0.015957
0.000489254
-0.00535093
-1.1638e-05
-7.18421e-05
0.018132
-0.0186906
0.000558519
0.0253624
-0.0119778
0.0160881
-0.0241648
0.00807671
-0.0314491
0.00197602
-0.00467618
0.00256911
0.00210714
-0.0113498
-0.00354477
0.0148946
-0.000479459
-0.00280917
0.00328861
-5.10193e-05
0.00423099
-0.00309183
-0.0200272
0.0151844
-0.00537742
-4.78875e-05
4.27165e-05
5.17636e-06
2.03059e-05
-2.07214e-05
4.21369e-07
-0.000532467
-0.000634518
-0.0052367
-0.00184836
0.00708507
8.22704e-06
4.52951e-06
-1.27574e-05
-0.000198243
-0.00216166
0.00235991
-2.12993e-05
2.24237e-05
5.20395e-05
-0.000102322
5.02752e-05
0.00106083
0.00167132
-0.000553957
-0.0011174
-0.0319397
0.00811341
5.96773e-05
-1.94179e-05
-4.57148e-05
1.28747e-05
0.000161172
-0.00138791
-0.0020903
-0.000955837
-0.00110023
0.000166676
0.00097838
0.000448039
-0.00142641
0.00698296
-0.0161675
0.00104864
-0.0174054
0.0334317
0.00116115
0.00083215
-0.001164
-0.000477171
0.000849311
-0.000101427
4.87583e-05
-6.80151e-05
-0.0718531
0.0121024
-0.000360475
0.000178192
0.000182271
0.000909061
0.000960971
0.0108406
-0.0156712
0.00083065
0.00237821
-0.0172256
-0.00235517
0.0184433
0.00204908
-0.000942834
7.96483e-06
5.78983e-05
-6.58577e-05
4.27703e-05
-9.66212e-05
5.38599e-05
7.41758e-05
-1.05386e-05
0.00276171
0.000381836
-9.4323e-05
0.0416151
-0.0264305
-0.0151847
5.48934e-05
-5.4893e-05
0.001796
-0.000671314
-0.00112469
-1.19476e-06
9.41466e-06
-0.000705023
0.000416234
-4.85121e-05
9.0504e-05
-4.19933e-05
-0.00102065
-0.014973
0.0159937
-3.9914e-05
-0.000141514
0.000184316
0.00850806
0.000434802
0.00014279
-0.000577607
0.00173722
-0.00886002
-3.64352e-05
4.63722e-05
-0.000706161
0.0264579
0.0190659
-0.00241861
-0.0166473
6.20943e-05
6.45882e-05
-0.000126654
0.000144748
0.00152656
0.000160077
6.27236e-05
-0.0132916
-0.0190517
-0.000172067
0.000156325
1.57358e-05
-0.000642724
0.00141217
0.0115403
-0.000771568
0.00145967
-0.0375581
0.0262083
0.00950299
0.00133765
-2.5223e-05
3.33258e-05
-8.09936e-06
0.0026048
0.000802218
5.34119e-06
4.95603e-05
0.0851537
-0.00870506
0.000739087
-6.14102e-05
-0.000677719
3.81638e-05
-7.5125e-05
3.69594e-05
0.000251246
-4.69389e-05
-0.000204292
-0.00815372
-0.0298689
0.0678038
0.0246859
-0.0372468
0.0125609
-2.08741e-05
0.00012443
-0.000103552
1.87356e-05
-2.37262e-05
0.0121027
0.0245836
-0.0366862
0.000789029
-0.000371197
-0.00157364
-0.00226173
-0.00037252
-7.35412e-05
-0.000828279
0.000601715
0.00022656
-0.0188624
0.00557077
0.0115396
0.00721045
-0.0187501
7.43424e-05
-0.00127468
1.4871e-06
-1.43452e-05
0.00235179
-0.00283128
-4.05272e-05
4.41501e-05
-3.62243e-06
5.1476e-05
-4.19904e-05
-0.0101517
-0.00265263
-1.04322e-06
-1.51439e-05
0.0219188
-0.00771745
-0.0142013
-0.0691043
0.0565973
0.000119795
-6.77515e-05
0.000983229
6.09791e-06
0.00010928
0.000538577
-8.36941e-05
-0.000454895
-0.012451
0.0100524
0.000410788
-0.000819321
0.0253392
-0.010107
3.9818e-05
-8.8339e-05
0.000552051
0.000289372
9.31227e-06
2.40122e-05
-5.29681e-05
1.24411e-05
-1.59551e-05
0.000123529
-0.000107559
7.53225e-05
4.4465e-05
-3.47351e-05
-0.000490257
0.000524977
-8.53406e-05
8.36767e-05
-0.00061115
0.000133627
8.14017e-05
-7.34386e-05
-0.000293958
0.0134012
0.00215559
-0.00150428
-0.000651353
2.89962e-05
4.3534e-05
-0.0728455
0.0539686
-0.00489108
0.0146751
-8.67913e-06
0.00401229
-0.0040037
-0.00175437
0.00120353
0.00109465
-0.00015214
-0.000942478
0.000538751
-0.000542722
0.000372997
-0.00262813
0.0110923
0.037839
-0.104986
0.0127302
0.0922561
-0.00279214
-0.00410195
0.00689411
-0.0016781
0.00139016
0.000287994
0.00698328
8.71806e-05
-0.000174499
8.34313e-05
0.000351349
0.000788182
-0.00650318
-2.77692e-05
4.32552e-05
-0.0587072
0.0509254
0.00778174
6.76585e-05
-1.59079e-06
-2.73666e-05
0.0120906
0.0117762
-0.000555005
-0.000218132
0.000773134
0.00535576
-0.00760445
-4.62312e-05
3.36829e-05
0.0056731
2.70987e-05
-3.28995e-05
-1.28087e-05
0.000210441
-9.62078e-05
-0.000114231
0.000131744
4.51123e-05
-0.00160459
-0.000439713
-3.27781e-05
-4.23498e-05
-2.91225e-05
-0.00206116
-0.00484852
0.0163881
-0.00465822
0.00700002
-0.0023418
0.0252031
0.0140233
6.90366e-05
-3.70425e-06
4.83378e-05
-0.00273676
0.00165038
8.7869e-05
-2.61324e-05
-6.77054e-05
-0.00113213
0.000810974
0.000321121
-7.63955e-05
1.33347e-05
6.30799e-05
-1.46731e-06
-2.69503e-05
2.84151e-05
-6.13798e-05
8.43086e-05
1.57266e-06
-7.69928e-06
0.00129885
0.0278902
-0.0237592
0.0171123
-0.000645031
0.00676689
-0.00148258
0.00201009
-0.000527508
6.20148e-05
-2.919e-05
-0.0529024
0.0507385
0.0021639
-0.000343187
-0.000560783
3.96866e-05
-0.0237879
0.0106631
0.0131248
0.0243516
-0.0109522
-0.0133995
0.0466923
0.0280787
-0.074771
-6.86354e-05
-2.58227e-05
0.0263259
0.00683
0.0502681
-0.080137
-0.00864576
0.0239864
-0.0153406
2.41335e-05
-9.77493e-08
-2.40384e-05
0.000190549
-0.0048883
-0.00114927
0.000631091
-0.000236377
0.000155893
0.000154541
5.58974e-05
3.45122e-05
-1.3098e-05
-2.14128e-05
-0.00982223
-0.00983921
0.0196614
0.0183827
0.00697965
0.0576604
7.29551e-05
-5.8711e-05
6.69047e-05
9.69245e-06
-7.66018e-05
0.0284561
-0.0174938
1.41481e-05
-0.000186236
-0.0242522
-0.0137714
-0.005091
0.0495173
-0.0370266
-0.0124907
-0.00110382
-0.00523289
0.00633671
-0.0359899
-0.00324155
0.0392314
1.7986e-05
2.32417e-06
1.22279e-05
7.80908e-05
-9.03136e-05
0.0164723
-0.0053081
-0.0111642
-0.00193425
-0.0031465
-0.000157514
0.000274904
-0.000117419
-0.0132533
-0.00132756
-0.000350518
-0.000118624
4.22209e-05
-0.000811434
-1.68373e-05
-0.0197506
0.0167587
0.00299191
-2.70869e-05
2.56184e-05
-0.00650748
-0.000891974
0.00279673
-0.00386893
0.00107211
0.0814709
0.00368286
-0.00428957
0.00459668
-0.00030713
3.16308e-05
-3.0172e-05
2.45896e-05
-8.34911e-05
5.89025e-05
7.91598e-05
-2.73295e-05
-5.18256e-05
0.0282281
-0.0458041
0.017576
-0.0175855
0.00428594
0.0132995
2.32788e-05
8.55314e-07
-4.17934e-05
4.1792e-05
-1.09001e-05
8.38558e-05
-0.00139767
0.00101358
1.98145e-07
2.11152e-05
-2.13135e-05
6.13963e-05
-7.22937e-05
0.000176724
-0.000266123
0.000719072
-0.000247107
-0.00047197
-0.00209725
4.914e-06
-0.00753104
0.00417726
-0.00194244
-9.6653e-06
-7.14326e-05
-0.000272712
-8.77288e-05
-0.0158376
0.0104822
0.00535538
-0.000346548
0.000104294
-0.00598305
0.00862564
0.0157735
-0.0243991
-0.000652821
-0.000136969
0.000789756
1.02004e-05
2.44986e-05
-3.4687e-05
0.000147369
-0.000602334
8.59304e-05
-3.09317e-05
7.11816e-06
3.148e-06
1.72088e-05
6.19595e-05
0.0029213
-0.00204278
-0.000878506
0.00166421
-0.00116061
0.0265105
-0.0216418
-0.000186884
0.0143014
-7.86119e-05
5.83145e-05
2.02754e-05
-9.09955e-06
-1.75951e-06
-0.000106572
-1.78203e-05
0.00012439
-0.0451811
-0.00772128
0.0267673
0.033402
-0.0601694
-3.10252e-05
-9.33504e-06
0.00028182
0.000437245
0.0114455
-0.0253708
0.000411216
-0.000904377
0.000493152
4.77996e-07
4.43749e-05
0.0192425
0.0331769
-0.0524194
-1.11311e-05
0.000348314
-0.0103132
-0.0180884
0.0284016
0.00605562
0.00164242
-0.007698
0.00229219
0.000149571
-0.00244175
5.18356e-05
0.000585386
-7.77047e-05
-0.00105443
-0.0163923
0.0173115
-0.0012904
-0.000678625
0.00713523
-0.0431251
-0.0172343
-0.00747205
-1.70378e-05
0.0214178
-0.0135874
-0.00783031
-1.01701e-05
1.03668e-05
3.93284e-05
0.000284867
-0.000197587
-8.734e-05
0.000159361
-4.94742e-05
-0.000109892
0.00126567
-0.000987735
-0.000277959
0.000421485