/*--------------------------------*- C++ -*----------------------------------*\
| =========                 |                                                 |
| \\      /  F ield         | OpenFOAM: The Open Source CFD Toolbox           |
|  \\    /   O peration     | Version:  v2012                                 |
|   \\  /    A nd           | Website:  www.openfoam.com                      |
|    \\/     M anipulation  |                                                 |
\*---------------------------------------------------------------------------*/
FoamFile
{
    version     2.0;
    format      ascii;
    class       surfaceScalarField;
    location    "300";
    object      phi_0;
}
// * * * * * * * * * * * * * * * * * * * * * * * * * * * * * * * * * * * * * //

dimensions      [0 3 -1 0 0 0 0];
oriented        oriented;


internalField   nonuniform List<scalar> 
20537
(
-0.375491
0.507066
-0.131575
-0.182631
-0.0620062
0.244637
-0.188775
0.161426
0.0273496
-0.0181162
-0.303019
0.321136
-0.150164
0.16612
-0.0159558
0.320399
-0.47828
0.157881
0.197458
0.201475
-0.398934
0.244855
-0.0914224
-0.153432
-0.455905
-0.0948103
0.550715
-0.0155514
0.189731
-0.17418
0.555913
-0.138066
-0.417848
0.0594921
-0.154793
0.0953011
0.0855198
0.0185964
-0.104116
-0.0453714
-0.00143835
0.0468097
0.675327
-0.544765
-0.130562
0.274081
-0.282406
0.00832538
-0.0468318
0.281341
-0.234509
0.4396
-0.2498
-0.1898
-0.148038
0.149291
-0.00125326
0.0832253
-0.53913
0.347341
-0.365457
-0.0864139
-0.102361
-0.364915
0.585976
-0.221061
-0.691713
0.0986863
0.593027
-0.550843
0.185929
0.213629
0.0312257
-0.0868162
-0.180483
0.267299
-0.0112733
-0.00267035
0.0084772
-0.383968
0.227412
-0.350936
0.123524
0.463811
-0.143412
0.229464
-0.276295
-0.0283169
0.189743
0.399839
-0.479941
0.0801015
-0.603304
-0.0884086
0.112601
-0.126887
0.0142855
-0.00188763
0.0885443
-0.0866567
0.22305
-0.13517
-0.0878796
0.141751
-0.157302
-0.0410237
0.440863
0.0453039
0.336358
-0.381662
0.490158
-0.664923
0.174765
0.00464795
-0.00523769
0.000589739
0.345017
-0.53282
0.187802
0.51911
-0.174093
-0.00628527
0.00155837
0.0047269
-0.532286
0.194887
0.337399
0.264885
-0.507073
0.242187
0.172476
-0.259293
0.300968
0.232642
-0.533609
0.164558
-0.0196039
-0.144954
0.146942
-0.0741069
-0.0728348
0.00471683
-0.0175095
0.0127926
-0.733373
0.37364
0.359733
0.655337
-0.53605
-0.119287
0.663935
-0.173777
0.654136
-0.296436
-0.357699
-0.00962419
-0.00774524
0.0173694
-0.181778
0.409191
0.283306
0.0956649
-0.378971
0.0596644
0.163385
0.0773884
-0.0646313
-0.012757
-0.386666
0.296069
0.0905974
-0.144834
0.131115
0.013719
-0.196363
0.347346
-0.150983
-0.447861
0.147858
0.300003
0.0688126
-0.0707002
-0.559349
0.243574
-0.213281
0.215821
-0.00254025
0.195179
0.244421
0.0176303
-0.0218741
0.00424382
0.0899932
-0.0801824
-0.00981081
0.0772956
-0.259927
-0.291694
-0.441679
0.281202
-0.584838
0.303635
-0.528972
0.433734
0.0952384
-0.138866
0.052452
-0.0280316
0.00132837
0.0267032
-0.00250893
-0.174432
0.176941
0.0208892
-0.00168532
-0.171329
0.430937
-0.259608
0.449536
0.038571
-0.488107
-0.43316
-0.0512178
0.484378
-0.00037646
-0.00298554
0.003362
-0.322871
-0.0637951
0.132641
-0.0731491
0.47393
-0.144797
-0.329133
-0.0156252
0.15983
-0.144205
-0.261487
0.322081
-0.0605944
-0.360362
-0.248822
0.609184
0.0210486
0.0915529
-0.0770974
-0.320532
0.39763
-0.205891
-0.0910197
0.250745
-0.159726
-0.0288346
-0.232652
0.564478
-0.552637
-0.0118411
0.0298603
-0.180024
0.0137759
0.0289804
-0.0427563
-0.182097
0.483064
-0.0246657
0.589144
0.0216545
-0.0404067
0.0187522
0.176376
-0.173593
-0.00278297
0.0763147
-0.3813
0.304985
0.266489
-0.0172303
-0.457868
-0.0993388
0.557207
-0.486745
0.392859
0.0938856
-0.181582
0.178493
0.00308895
0.524942
-0.683126
0.158184
0.07169
0.0114526
-0.143539
-0.334742
-0.542074
-0.0194569
0.561531
0.273841
-0.634203
0.315215
-0.392313
-0.652554
0.652554
-0.0722808
-0.469793
0.323423
-0.0172852
-0.048796
0.0625719
0.0724163
-0.472649
0.400233
-0.574116
0.576016
-0.00190011
-0.192572
0.562558
-0.369986
0.00275824
0.00188971
0.235902
0.0305876
0.0961171
-0.0105974
0.176256
0.495182
-0.230296
-0.775946
0.347585
0.42836
0.270666
0.224516
0.158509
-0.188667
0.030158
0.0329205
0.31442
0.177825
-0.0848846
-0.0929409
0.424735
-0.379431
0.556638
-0.162214
-0.394424
0.0232168
-0.00558645
-0.550931
0.117771
0.289385
-0.572262
0.606843
-0.0345814
0.556245
-0.483829
-0.0733651
0.0904977
-0.0171326
0.0255623
-0.0337765
0.0082142
-0.0258573
-0.00950626
0.0353635
-0.00913377
0.0307883
0.376531
0.278806
0.166711
-0.563492
0.396781
0.719363
-0.383776
-0.335587
0.409558
-0.0840809
-0.325477
-0.172152
-0.360668
-0.446179
0.619096
-0.172917
0.0430933
0.134732
-0.267249
0.464708
0.12811
0.391
-0.00227814
0.129473
-0.422564
0.61553
-0.192967
0.00427437
-0.0496457
0.310604
0.343531
0.362703
-0.207026
-0.155677
0.302284
0.107274
-0.497052
0.188746
0.308306
0.232214
0.128367
-0.360581
0.0126444
0.134297
0.00391642
0.160642
-0.352442
-0.247881
0.600323
-0.0767755
0.225476
-0.1487
0.00793704
-0.0175612
0.164791
0.391847
0.268737
-0.36956
0.100823
0.641869
-0.230186
-0.411683
-0.686049
0.23987
0.00522034
-0.218501
-0.317208
0.350128
0.0359321
-0.00378333
-0.0321488
0.000192577
-0.0282242
0.241188
-0.546242
0.305054
-0.175059
-0.321993
0.00550188
-0.0313592
0.566397
-0.401606
-0.294767
-0.212306
0.184673
-0.0261637
0.534146
-0.508554
-0.0255927
-0.0297362
-0.118302
-0.520355
0.66804
-0.147685
-0.268425
0.0550717
0.213354
0.0166281
-0.130065
-0.361483
0.491548
0.0572992
-0.159661
-0.363178
-0.235821
0.598999
-0.449756
0.616162
-0.166406
-0.175393
-0.272468
0.356187
-0.548759
-0.172444
0.162979
0.0094647
0.216562
0.0029088
-0.219471
-0.288713
0.0192056
-0.0144887
0.267078
-0.544013
0.276934
0.18648
-0.209921
0.0234406
0.0683148
0.00907361
0.399329
-0.177909
-0.22142
0.541581
-0.37487
-0.112852
0.473894
-0.361043
0.459042
0.0751043
-0.428737
-0.100235
-0.305599
-0.470347
-0.0173564
0.019628
-0.00227158
-0.581106
0.0842938
0.496812
-0.539156
0.146751
0.392405
-0.0201532
0.203199
-0.183046
-0.491569
0.361504
-0.0688848
-0.0345396
0.103424
0.148533
0.139365
-0.287898
0.0340788
-0.00254446
-0.0315344
0.128104
0.443495
-0.5716
-0.015597
-0.0385747
0.0541717
-0.352441
0.428756
-0.467164
0.134501
0.332663
0.452722
-0.636181
0.183459
-0.720693
0.431211
0.289482
0.600896
-0.199047
-0.401849
-0.136459
0.391708
-0.255249
0.0019346
-0.00821987
-0.108657
-0.409628
0.518285
0.0358979
-0.00181912
0.264039
-0.115506
0.193582
-0.364911
-0.00123651
0.0483578
-0.0471213
-0.0654423
0.146799
-0.0813562
0.000283811
0.039342
-0.0396258
-0.600369
0.58172
0.0186493
-0.0475489
-0.190065
0.237614
-0.526862
0.0689936
0.00251015
-0.0132903
0.0107801
0.673866
-0.221144
0.2199
-0.00627157
0.369449
-0.345023
-0.0244266
-0.285324
0.526511
0.540919
-0.15557
0.146201
0.00936879
-0.0619562
-0.255133
0.317089
0.0273685
-0.0962532
0.0702968
-0.26666
0.280663
0.4387
-0.454718
-0.0844372
0.110603
0.353208
0.309102
-0.49001
0.180908
0.576214
0.0568104
-0.633024
-0.17989
0.159736
0.457329
-0.556668
0.0325848
0.00466464
-0.0372494
0.194841
-0.0184644
0.453383
-0.439339
-0.0140434
-0.393797
0.292066
0.101731
-0.221619
-0.122425
0.344044
0.662236
-0.38663
-0.275606
0.494628
-0.185526
-0.244743
-0.107247
0.35199
-0.0915133
-0.0309128
-0.12025
0.151163
0.343405
-0.135916
-0.207489
0.230341
-0.0137792
0.00950966
0.080988
0.00532227
-0.0214257
0.0161035
-0.189098
-0.346585
0.535683
-0.44003
-0.444445
0.347518
0.0969268
0.49143
-0.174693
-0.316737
-0.631606
0.208078
0.423528
-0.1336
0.117205
0.0163952
0.187618
0.211711
-0.366159
0.121416
-0.206313
0.115293
0.0521875
-0.053424
0.420777
0.14776
-0.568537
0.298996
0.363241
0.184793
0.583717
-0.193037
-0.39068
0.176586
-0.179095
0.250462
0.0236184
-0.535005
0.372791
0.585395
-0.135859
0.59707
-0.17981
-0.417259
-0.00212167
0.041252
-0.0391303
0.0751513
0.480762
0.0254655
0.550748
0.0800574
-0.558857
0.4788
-0.503636
0.6001
-0.0964637
-0.151126
0.120213
0.0651022
0.426328
0.434781
-0.179068
-0.255713
0.0342498
0.45429
-0.48854
-0.38263
0.497236
-0.114606
0.191266
0.392451
-0.629099
0.250732
0.378367
0.152122
-0.109028
0.149577
-0.331356
-0.104564
0.38787
-0.219046
0.216316
0.00273079
-0.41252
-0.216579
-0.0310142
-0.102586
0.0679919
0.171055
-0.239047
0.141463
-0.00882145
0.434554
-0.570722
0.136169
0.039816
-0.0072312
0.10585
-0.182626
0.0790541
0.202287
-0.0155225
-0.0313866
0.0469091
-0.1409
0.365334
-0.224434
-0.365922
-0.120823
-0.0447617
0.0401029
0.00465878
0.481956
-0.447706
-0.0153178
-0.145451
0.160769
0.225494
0.0252508
-0.222128
0.371706
0.0390437
-0.0134814
0.219779
-0.151787
0.385271
-0.360585
-0.0246855
0.0506807
-0.0596551
0.00897432
0.652433
-0.258017
-0.394416
0.0551904
-0.276809
0.738418
-0.371255
-0.367163
-0.0532354
0.0511138
0.124108
-0.0153708
-0.108738
-0.507722
0.399065
-0.191213
0.0465724
0.144641
-0.261786
0.489952
-0.228166
0.029378
-0.0240557
-0.000378685
0.456161
-0.455782
-0.455972
0.644988
-0.189016
0.610209
-0.250577
-0.359632
0.123956
0.000151931
0.198361
-0.24591
-0.322454
0.0729901
0.249464
0.108073
-0.368543
0.227644
0.326205
0.0590661
0.448725
-0.58679
0.0491246
-0.00930302
-0.0392439
0.0072477
0.0319962
0.0790225
-0.378075
0.299052
0.045536
-0.0610584
0.00708509
-0.102395
0.0953099
0.383633
-0.0187084
0.205189
0.132069
0.0200531
0.537526
-0.337661
-0.199866
0.0456774
0.226889
-0.272566
-0.00150834
0.114838
-0.11333
0.118277
-0.241765
0.519182
-0.277417
0.380498
-0.0661435
-0.314354
-0.00613906
-0.0367868
0.0429259
0.039443
-0.584208
0.662031
-0.0649786
-0.597052
0.15916
0.502871
0.207131
-0.0682795
-0.138852
-0.109241
-0.213213
-0.218303
0.26398
0.0141495
-0.0116393
-0.493745
0.318686
0.0349381
0.34556
0.358961
0.251248
-0.500843
0.239057
-0.112996
0.570325
-0.054523
0.579465
-0.184016
0.552934
-0.368918
0.041249
-0.047388
0.640198
-0.31739
-0.322808
0.314683
-0.441933
0.127251
0.17837
-0.193688
-0.655569
0.359991
0.295578
0.113738
0.0277251
-0.29344
0.227799
0.0656417
0.336507
-0.368199
0.0322771
0.00365498
-0.119719
0.434401
-0.243441
0.106982
-0.0301423
-0.196533
0.226676
-0.143557
0.480064
0.0873396
-0.446949
0.359609
0.159605
-0.632254
0.200413
0.220804
-0.421217
-0.0214597
-0.0189784
0.0404381
0.637389
0.0125815
0.0264621
0.216994
-0.103584
0.102076
-0.0219974
0.0182141
-0.691602
0.153554
0.538047
-0.154464
-0.537137
-0.0181127
-0.334769
0.352882
0.632277
-0.154997
-0.477279
0.514434
-0.528359
0.0139242
0.38444
-0.305417
-0.0866852
-0.104528
0.0391682
-0.0406065
-0.255432
0.216244
0.0391888
-0.0493543
0.0496381
0.0468154
-0.00882498
-0.0379905
-0.398137
-0.257431
0.232341
-0.42144
-0.00696676
0.00545894
-0.0224378
0.0169789
0.0693349
0.300114
-0.0529007
0.00410468
0.452054
-0.251641
-0.214172
0.184029
0.502345
-0.535955
0.0336099
-0.112447
0.119532
-0.436484
0.517191
-0.0807074
-0.107269
-0.175137
0.365492
-0.383605
-0.446857
0.340619
0.106238
0.0535705
0.0949766
0.386979
0.318933
0.322936
-0.124711
-0.0201226
0.242077
0.0713295
-0.313406
-0.012365
-0.014077
0.0264421
0.348085
0.0100798
-0.358165
-0.13501
-0.451559
0.0202676
0.431291
0.275295
0.219333
-0.326977
0.0911676
0.23581
0.172374
0.034757
0.284905
-0.205851
0.159838
0.441059
0.122344
0.433901
0.496374
-0.401397
0.0935171
-0.543273
0.15142
-0.178358
0.0269387
0.18695
-0.479902
0.292952
0.130224
-0.122866
-0.00735869
-0.0508452
-0.400714
0.0170129
-0.181593
-0.298348
0.108008
0.139994
-0.0606603
-0.0949092
0.444117
-0.356778
0.472138
-0.196843
0.66079
-0.500448
-0.160342
-0.173646
-0.0212105
0.194856
-0.294642
0.470271
-0.17563
0.0152398
0.170273
-0.185513
-0.0257693
-0.00371722
0.0294865
0.590491
-0.131449
-0.630416
0.216982
0.413434
-0.535898
0.241256
0.0572099
-0.0282369
0.306562
-0.669741
-0.227465
0.222912
0.00455366
0.0102404
0.559879
-0.139102
-0.487797
0.544305
-0.0565072
-0.401714
0.105449
0.296264
0.130885
0.0290524
-0.103159
0.0730942
-0.359234
0.28614
0.0896718
-0.120062
0.0303902
-0.547562
-0.0528068
-0.56295
0.312373
0.00157411
-0.00850722
0.0069331
-0.0776508
0.346388
-0.458394
0.538452
0.122073
-0.137698
0.464228
0.168049
0.204046
-0.157382
-0.376888
0.53427
0.121897
0.181458
-0.303356
-0.125745
-0.24285
0.368595
-0.430753
0.45922
0.131271
-0.00864139
0.0593221
0.378635
-0.429853
0.203253
-0.197359
-0.00589372
-0.0792999
-0.492962
0.264739
-0.378407
0.113668
-0.62506
0.196404
0.428656
0.563684
-0.563684
0.51712
-0.156827
-0.360292
-0.553868
0.134614
0.51794
-0.208601
0.451499
-0.242898
0.259017
0.108957
-0.367973
0.355646
-0.500443
0.116138
-0.477621
-0.166673
0.669019
0.0405763
-0.0339206
-0.00665573
0.0020241
-0.0277934
0.141197
0.320812
-0.462009
0.394896
-0.130157
-0.283874
-0.043103
-0.228229
-0.261781
0.000404585
-0.000781045
-0.364672
-0.198278
0.307822
0.332376
-0.0759487
-0.371
-0.15669
0.00214873
0.154541
-0.332642
-0.0652299
0.397872
-0.0120719
0.000931204
0.0111407
-0.133212
0.545717
-0.412505
-0.0187148
0.00120535
-0.223801
0.218619
0.00518139
-0.213515
-0.451408
0.217823
0.177073
0.0413341
-0.0119705
-0.0293636
0.206093
0.0138073
-0.395073
0.453477
-0.0584041
-0.519278
-0.0548381
0.347975
-0.440126
0.0921512
-0.571851
0.0358005
-0.169589
0.578558
-0.40897
-0.579261
0.188047
0.391214
-0.447896
0.337667
0.110229
0.026641
-0.0211821
-0.157997
0.156317
0.00168057
0.128082
-0.020438
-0.107644
0.0994095
-0.0886775
-0.010732
0.0688368
0.327292
-0.679734
-0.0958591
-0.00393611
0.0997952
0.493117
-0.306167
-0.0566257
-0.2118
0.00537512
0.220101
-0.474509
0.24628
-0.269623
0.445879
-0.0681088
0.0525118
-0.515619
-0.00992731
0.525546
-0.01225
0.00017809
0.00196296
-0.00742749
-0.00992894
-0.149782
-0.13568
0.353503
0.518733
-0.202834
-0.45877
-0.171646
0.23932
0.104085
0.329875
-0.442727
-0.18106
-0.00845375
0.189513
0.352695
-0.120481
-0.171946
-0.00911386
0.0759239
-0.00496823
-0.0709556
-0.538061
0.404849
0.1383
-0.154081
0.00300532
-0.0247006
0.0216953
0.376773
-0.0847068
0.333001
0.171525
-0.504526
-0.353928
0.542673
0.336033
0.120711
-0.456743
-0.0147629
-0.157681
0.248193
0.0618299
-0.310023
0.0325208
0.127309
0.113121
-0.0234492
-0.437647
0.596459
-0.158812
-0.00634658
0.00792069
0.0012503
-0.0303045
0.0290542
0.464899
-0.410631
-0.0542685
0.227128
0.265989
0.208473
0.580168
-0.478872
-0.101296
0.401563
0.46312
0.0803584
-0.543478
-0.0961354
0.000276354
-0.224507
0.017481
0.119453
-0.118854
-0.000599046
-0.0841496
0.101258
-0.0171084
0.21172
0.452215
-0.388657
0.456338
-0.067681
-0.185004
0.426853
-0.241849
-0.224451
0.156171
-0.143994
0.146711
-0.00271669
0.00249905
0.024142
-0.0045185
0.0748891
-0.0703706
0.348786
-0.107218
-0.339639
-0.115648
0.191449
-0.0758017
0.00205376
-0.0969552
-0.00868889
0.105644
-0.118711
-0.136722
0.36758
-0.0715107
-0.574878
0.313578
0.195532
-0.50911
-0.182099
0.695326
-0.483606
0.283796
0.0929764
0.181976
0.486064
-0.161002
-0.395406
0.556408
0.080175
-0.00425117
0.160975
-0.473246
0.422401
0.295252
0.400075
0.0442565
-0.031675
0.367235
0.106659
0.631431
-0.184236
-0.447195
-0.416089
0.565014
-0.148925
-0.0926151
-0.538991
0.553877
-0.0369556
0.0154959
0.391292
0.0620913
-0.0758728
-0.0206828
0.0132553
0.442831
-0.0948559
-0.0493146
-0.163684
0.212999
-0.0191215
0.0221268
-0.0243275
0.0217831
0.145951
-0.387716
0.0219634
0.193858
0.0608164
0.519352
0.432819
-0.230578
0.0153537
0.215224
0.00237789
-0.0677747
0.0653968
-0.406582
0.340439
0.000965252
0.118488
-0.273815
0.0362806
0.237534
0.0815651
-0.478537
0.396972
-0.309727
0.237429
0.0722978
0.131784
-0.527656
0.395872
0.040032
-0.435105
0.135776
-0.143615
0.0078387
-0.370769
0.486907
-0.305604
-0.0724707
0.0228305
-0.510628
0.146618
-0.225975
0.0793567
0.120631
0.00959318
0.409885
-0.31422
0.104337
0.33978
-0.112505
-0.180935
0.0623787
-0.316749
0.25437
0.151357
0.172854
-0.0214343
0.0438525
-0.109295
-0.298614
0.0717316
0.226882
0.010445
-0.1074
0.471218
-0.389653
0.0722042
-0.363452
0.291248
-0.387009
-0.0183394
-0.0023434
0.134621
-0.487062
-0.633957
0.290961
0.342996
-0.00271299
0.074403
-0.207071
0.422422
-0.21535
-0.00429537
-0.0177021
0.0362826
-0.0393555
0.00307294
0.00446788
-0.0109142
0.00644628
-0.0497968
0.17187
0.081187
-0.517671
-0.0828954
-0.461922
0.487387
0.339453
-0.537178
0.197724
0.123014
0.422703
0.380707
-0.541709
-0.614774
0.273276
0.341499
-0.0259012
0.373986
-0.222512
0.344409
0.703106
-0.407854
-0.113863
-0.019223
0.133086
0.00654028
0.0149488
-0.128812
0.160964
-0.543778
0.382814
0.138043
-0.558725
0.420683
0.628103
-0.14573
-0.482373
0.00164037
0.130428
0.00407032
-0.0827657
0.0786954
0.109815
-0.150564
0.0407491
-0.0596948
0.12921
-0.591132
-0.45299
-0.0829646
-0.135659
-0.454208
0.589867
-0.254974
0.425513
-0.170539
0.0616557
-0.0832033
0.0215477
0.114821
-0.0581261
-0.0566947
-0.252224
0.314603
0.240685
0.462421
-0.136285
-0.311611
-0.470508
0.215535
0.181306
-0.157029
-0.0242768
-0.00729682
0.0197291
-0.0124323
-0.0592645
0.0499458
-0.0574608
0.00751502
-0.302708
-0.137418
0.456823
-0.352486
0.132977
-0.00489467
0.0382315
-0.197083
0.00498742
-0.159781
0.116349
0.314588
-0.249266
0.150637
-0.0408214
0.357598
0.464377
-0.350371
0.238429
0.388738
0.272052
0.130305
0.0530172
0.0294812
-0.0331984
0.152735
-0.545861
0.393127
0.388983
-0.1135
-0.275483
0.286623
0.0809566
-0.568248
0.39866
0.284535
-0.249331
0.440596
-0.0373795
0.0331743
0.0042052
-0.00262021
0.138396
0.132181
-0.0149763
-0.417905
0.57146
-0.454205
0.560605
-0.399641
0.015519
0.0250574
-0.0978857
0.0137362
-0.31157
0.249614
-0.00623398
0.0425165
0.165941
-0.586583
0.420642
-0.00860778
-0.483801
0.492409
-0.415717
0.404
0.0388311
0.0766634
0.0054162
-0.0820796
0.339959
-0.113747
-0.226212
-0.417346
0.0968576
0.320488
-0.194172
-0.430888
0.0716069
0.218922
-0.290529
0.410711
0.217392
-0.000294163
-0.00742541
0.00771957
0.0961643
-0.232081
0.0344522
-0.0346205
0.000168349
0.438918
0.0883678
-0.340592
-0.000947799
0.0234251
-0.0224773
-0.0176431
-0.00171378
0.0193569
-0.0730997
0.0941483
-0.382042
0.513826
0.062514
-0.0715012
0.00898718
-0.189427
0.605972
-0.446134
-0.00967069
0.168261
-0.158591
0.187631
-0.172391
-0.133006
0.319748
-0.186742
0.00640248
0.570435
-0.229561
-0.340874
-0.591732
0.373899
0.217833
-0.0116878
0.100232
-0.1483
-0.485658
-0.581106
-0.361108
0.235363
0.120173
0.351045
0.00685791
-0.00715207
-0.205008
0.0427038
0.162305
-0.114942
-0.356771
-0.116475
0.417631
-0.597442
-0.395312
-0.424023
0.566752
-0.0601015
-0.506651
0.235666
-0.407176
0.53019
-0.124859
-0.352161
0.477019
-0.615827
0.243992
0.371836
-0.00468377
0.0447867
-0.537944
-0.519857
0.0164091
0.503448
-0.237209
0.468594
-0.231384
-0.439438
0.33222
0.0249173
-0.0258651
-0.546959
0.0034325
0.543526
0.526135
-0.378373
-0.147763
0.0822386
0.0405341
-0.122773
0.0322188
0.149087
-0.187481
0.503218
-0.315737
0.188512
0.340391
-0.528903
0.221745
-0.414781
0.000726938
0.0492189
-0.107143
-0.0555115
0.00283892
0.0526726
0.190548
-0.060243
-0.500935
0.343553
0.578319
-0.403142
-0.175176
-0.00386469
-0.001373
-0.293076
0.514821
0.0947864
-0.326974
0.232187
-0.573306
-0.442441
-0.30877
-0.164288
-0.0164741
0.180762
-0.142921
0.261747
-0.118826
-0.193281
0.364336
0.410547
0.167772
-0.498002
-0.017617
0.387082
0.139054
0.0945051
0.0231438
-0.489691
0.319713
0.169977
0.00753203
0.155447
-0.34148
-0.298911
0.387279
-0.149157
0.104647
-0.135265
0.0306187
-0.00983753
0.118709
0.22125
-0.10077
0.049172
0.0515978
0.00857168
0.0908378
-0.36589
-0.0735481
-0.00140476
-0.00521332
0.00661807
0.34174
-0.269536
-0.0756162
0.0618605
0.0137557
-0.0396222
0.00224276
-0.0202349
-0.0290806
0.0493155
0.597167
-0.285623
-0.311544
-0.218861
-0.0100102
0.228871
-0.380762
0.296401
0.0880391
-0.0161192
0.00837393
-0.0043903
-0.530989
0.142289
0.3887
0.588064
-0.596468
0.00840346
-0.00447673
0.150677
-0.367942
0.55374
-0.185798
-0.415628
0.562961
-0.147333
-0.0119087
-0.00953216
0.0214409
-0.398405
0.564347
0.342032
-0.452027
0.109995
-0.00164931
0.0240646
-0.000820397
-0.0232442
0.0519718
-0.469877
0.480316
-0.140863
-0.497008
-0.00383467
-0.00228647
-0.0153567
0.0842423
-0.0225867
0.108878
-0.117567
-0.188909
-0.300352
0.489261
-0.043917
0.0511647
-0.110414
-0.114037
-0.0896497
0.0937201
0.0106125
0.167881
0.175687
0.00268279
-0.0755089
0.0686044
-0.401246
-0.157041
0.234337
-0.00662481
0.147297
-0.140672
-0.0129019
-0.00953591
0.503434
-0.0513805
-0.00225746
0.000581102
-0.00773317
-0.0193412
-0.0562749
0.0248755
-0.0236252
0.318862
0.114833
-0.433695
0.200666
-0.021413
-0.179253
0.474534
0.156897
-0.0611846
0.275658
0.113325
0.131202
-0.11549
-0.0157115
0.654478
-0.654478
-0.0230415
-0.00835814
0.0313996
-0.539872
0.124244
0.12373
-0.0414918
-0.430211
0.534407
-0.104197
-0.136068
-0.0424864
0.178554
-0.168025
0.195632
0.00503416
-0.0284805
0.0358639
-0.160915
0.125051
-0.158215
0.339673
-0.483781
0.618395
0.0630701
0.140015
0.365527
-0.0401456
-0.325382
-0.369589
0.109946
0.259643
-0.000585044
0.0246497
-0.372136
0.580214
0.626603
-0.318781
-0.437638
0.152289
0.285349
-0.0500778
0.0115032
3.14031e-05
-0.00189181
0.0268091
0.375103
0.222064
0.0943455
0.409089
0.0198666
0.389395
-0.409262
-0.000318448
0.0347706
0.124361
0.530116
0.281284
-0.29857
0.000740941
-0.0293552
0.0286143
0.384502
-0.559439
0.174936
0.0855722
0.195403
-0.280976
-0.118694
0.507352
-0.140117
-0.0951842
0.0371359
0.0580483
-0.269642
0.392064
-0.122422
0.21757
-0.514006
0.0789682
0.138576
-0.217544
0.00623703
0.0296609
0.123122
0.0235886
0.319927
-0.22514
0.479177
-0.153123
-0.326054
0.306651
0.319952
0.0105526
-0.00529309
-0.00525952
-0.0158643
0.120511
-0.532306
0.0124495
0.0375712
-0.256432
-0.564792
0.394143
0.170649
0.412027
-0.327733
-0.437356
0.596516
0.0212369
-0.474227
0.158311
-0.182895
0.0245836
0.200657
0.271481
0.450237
-0.108205
-0.104272
0.378827
-0.232741
-0.02037
0.0159083
0.00446163
0.0393881
0.00194597
-0.00943986
-0.218025
-0.0636008
-0.037169
0.0457899
-0.476001
0.206238
0.0166732
-0.0766888
0.466084
-0.404375
-0.160417
-0.151393
0.429572
-0.278179
0.33629
0.113947
0.0227043
-0.00193812
-0.0207662
-0.147754
0.468566
0.107411
0.0432254
0.433142
-0.11428
-0.235806
-0.59182
0.0113235
0.00251577
-0.0138393
0.207421
0.368595
0.0578508
-0.173498
0.107585
-0.250506
0.0344595
-0.110888
0.0764284
-0.241795
0.0367869
0.197929
-0.00328638
-0.194643
-0.00489526
-0.199598
-0.0263764
-0.320479
0.0653455
0.136189
-0.224657
0.404558
-0.1799
-0.0106999
-0.00530492
0.0160048
-0.138273
0.176722
-0.0384492
0.576835
0.418228
-0.283607
0.199454
-0.16359
-0.162981
-0.0460122
-0.315676
0.504187
0.0387457
-0.0028343
-0.0359114
0.409861
0.150744
-0.159276
0.0433903
-0.00422208
-0.192589
0.612537
-0.419948
-0.112234
0.0824981
-0.255431
-0.144707
-0.368389
-0.0961881
-0.490775
-0.00623245
-0.122492
0.509856
-0.387364
0.382756
-0.266408
0.0782646
-0.0899525
-0.408372
-0.151067
0.0620634
0.0221789
0.00305606
0.00749655
0.226842
-0.0226281
-0.204214
0.0315143
0.00165994
0.409223
-0.0217255
0.588478
0.224104
-0.595359
0.444899
-0.108866
-0.398837
0.135027
-0.111816
-0.0232107
-0.0987195
-0.230669
0.329388
0.33803
-0.514557
0.176527
-0.0929842
-0.324362
0.107661
-0.563633
0.0262038
0.045891
0.0689298
0.301732
-0.0541214
0.00122074
-0.00823942
-0.079134
0.0873734
0.433309
-0.119731
0.0445349
0.340637
-0.385172
-0.101387
-0.172428
0.144562
-0.196066
0.500003
-0.303936
0.348894
-0.448603
0.0997094
-0.475034
0.36732
0.107713
-0.420549
-0.164289
-0.338817
0.533704
0.35177
0.155582
-0.0115771
0.0044013
0.00717576
0.406909
0.0944648
-0.501373
0.0199995
0.0761177
-0.212546
0.25525
-0.206023
0.27763
-0.574187
0.451695
0.423974
-0.594076
0.170102
-0.196709
0.101246
0.0954634
0.279381
0.0623598
-0.387669
0.555155
-0.40242
0.351113
0.125576
-0.476689
-0.214173
0.484839
-0.290544
-0.147094
-0.178239
0.630554
-0.323903
-0.119012
-0.135344
0.254355
-0.0103168
0.110846
-0.10053
0.367855
-0.402985
0.0351303
0.483724
0.10434
-0.0937273
0.445446
-0.351718
0.375229
-0.169539
-0.20569
-0.198288
-0.180119
-0.29939
0.0689448
0.230445
-0.145739
-0.19185
0.0535771
-0.341031
0.242312
0.332751
0.146425
0.0734228
0.0388233
-0.112246
-0.147131
0.485161
-0.0331882
0.0191112
-0.106564
0.0933385
0.0132255
-0.00635021
0.287635
0.126981
-0.117902
-0.00907831
0.453123
-0.461731
0.67296
-0.245099
-0.42786
0.125678
0.319086
-0.444764
0.329638
0.107313
-0.436951
-0.184068
-0.30863
0.492699
0.500858
-0.0939496
-0.496261
0.496261
0.168853
0.386302
0.119074
-0.138678
0.571419
-0.145074
-0.426345
0.555914
-0.387062
0.377654
-0.184072
0.209791
-0.20036
-0.0094306
-0.0101311
0.0867945
-0.0722852
0.331505
-0.258411
-0.143493
-0.472334
0.136529
-0.143154
0.123106
-0.0171718
-0.105934
-0.0878613
0.325304
-0.00950868
0.13972
-0.149299
0.0095785
0.135202
-0.0286243
-0.106578
0.580406
-0.172904
-0.407502
-0.151142
0.00569077
0.473554
-0.140553
0.353728
0.29126
-0.324516
0.450194
0.0251565
-0.0251558
-7.28289e-07
0.0132891
0.110667
-0.186535
-0.293367
-0.0634882
0.4118
-0.363975
-0.133017
0.496991
-0.380464
-0.146397
-0.433424
0.124205
0.309219
-0.336972
0.381507
-0.377958
0.204511
0.173447
-0.541344
0.293463
0.195897
0.0138938
0.326674
-0.084597
-0.0230359
0.0218452
0.0011907
0.00981594
0.553868
0.234283
-0.0886073
-0.145676
-0.353901
-0.260873
0.0920301
-0.036722
-0.0553081
0.178844
0.0093556
-0.188199
0.00605337
0.0568852
-0.0629386
0.117619
-0.0231143
0.00507308
0.129953
0.0214695
0.151384
-0.00241099
-0.0278935
0.410366
-0.0425113
0.0163535
0.00327454
-0.582762
0.196856
-0.200597
0.0037416
0.165257
0.406161
-0.0857924
0.221246
0.0277655
-0.249011
0.214063
-0.370718
0.156655
0.0295633
-0.00297053
-0.0265928
-0.0688941
0.2669
-0.198005
0.0289612
0.344931
-0.0162356
0.13076
-0.114524
0.239193
-0.517081
0.391236
0.125845
-0.0804191
0.288368
-0.207949
-0.307029
0.656417
-0.260644
-0.395773
0.38838
-0.0919792
0.212381
-0.133413
-0.0286656
-0.399337
-0.00997126
0.242063
-0.232092
-0.224351
0.488299
-0.263948
-0.242444
0.0428451
0.26994
-0.458849
-0.454628
-0.0580213
0.0621259
0.131788
0.265894
0.407066
0.365095
-0.113217
-0.251877
-0.0117942
-0.000455844
0.210428
-0.00433524
0.179319
-0.139881
-0.0394379
0.0932953
-0.00515341
-0.0881419
-0.503586
0.388718
0.114868
0.397619
0.182788
0.0868395
-0.0729244
-0.0139151
0.289871
0.0985088
0.175451
0.00113499
0.223611
-0.0538812
0.00546373
0.0484175
-0.0870012
0.416639
0.0374187
-0.122303
0.00813186
0.348824
-0.356956
-0.380134
-0.00116618
-0.398686
0.200398
-0.453665
0.346548
0.107117
0.00215376
0.00975676
-0.0119105
-0.240241
0.0276715
-0.156041
0.601308
-0.445267
0.0836138
0.137632
-0.00336314
0.0955586
-0.0921954
0.123797
-0.305917
0.182121
-0.00679712
-0.0470841
-0.0222343
0.0842977
-0.502788
0.564104
-0.0613155
-0.171935
0.0261126
0.145822
0.0324952
-0.00301406
-0.155751
-0.0161841
-0.0792451
0.0694563
0.00978875
-0.502759
0.0432728
0.459486
0.341061
-0.434789
-0.0193353
-0.00047211
0.0198074
0.0107561
0.11235
0.00912489
-0.0132769
0.00415203
0.120988
-0.555789
0.434801
-0.0988176
0.436485
-0.105644
0.00444491
-0.0280701
-0.126443
0.053343
0.275865
0.106892
0.42186
-0.0729661
0.015349
-0.179637
0.134541
-0.0158109
-0.118731
-0.0747881
-0.00877753
0.0835656
-0.39927
0.0654617
0.389111
-0.454573
-0.00834757
0.0708616
0.208884
-0.00813027
-0.200754
0.20299
0.31413
0.0864045
-0.106842
-0.0144509
-0.142561
0.344036
-0.569943
0.411689
0.158254
-0.00319708
0.0145206
-0.0494581
-0.21916
0.566745
-0.113594
0.559941
-0.446347
0.000345825
0.0383999
-0.527598
0.0248101
0.638361
-0.175241
-0.47335
0.248999
0.124145
0.328718
-0.445172
0.116454
0.147618
-0.0402071
0.21135
-0.221321
-0.0556434
-0.105041
-0.236756
0.341797
0.0015265
0.00576412
-0.00729061
0.447198
-0.246541
0.138218
-0.0179945
-0.120224
0.0922349
-0.102552
0.0574906
-0.502814
0.404721
0.0980937
0.367359
0.132125
-0.499484
-0.0221
0.16182
-0.205047
-0.358637
-0.0271287
0.411317
-0.141435
-0.333599
0.331964
-0.00993511
-0.0767216
-0.160082
-0.215333
-0.3764
0.000759928
-0.0248156
-0.179609
0.198208
-0.0185986
-0.0237882
0.36619
-0.218935
-0.147255
0.600928
-0.14397
-0.456958
0.560838
0.203085
-0.205342
-0.0750384
0.0705199
-0.00849531
-0.0254253
0.206512
0.400332
0.00374276
0.152574
0.153269
-0.496949
0.34368
-0.104983
-0.328975
0.433958
-0.16261
0.0308717
-0.0332827
-0.0206926
-0.189228
-0.289665
0.230401
0.110999
0.0219777
-0.212731
-0.165227
-0.0696222
-0.0697354
-0.0989537
-0.403861
0.302562
-0.501609
-0.492838
0.0400937
-0.159106
0.153053
-0.155673
0.539097
-0.401054
-0.0029344
-0.0999777
0.102912
-0.490962
0.357669
0.133293
0.172228
-0.592777
-0.0640001
-0.0295235
0.0935236
0.0296473
-0.0326179
-0.162352
-0.230191
0.392543
-0.00673416
0.0458658
-0.328259
0.285847
0.042412
0.0290232
-0.0282632
0.135361
0.329538
0.000186765
0.392672
-0.342341
0.45493
-0.112589
-0.0488783
0.184803
-0.613394
0.42859
0.330422
-0.500929
0.170507
-0.32646
-0.040442
0.0451007
0.0400239
0.00613091
-0.0461548
0.130494
0.103789
0.0547907
-0.0615879
0.0864218
-0.318097
0.231675
0.0335869
-0.00203128
-0.0315556
0.0467127
0.204795
-0.00171048
0.430057
-0.309069
-0.140955
-0.352345
0.4933
-0.373949
-0.501487
0.374541
0.126947
-0.0551917
-0.0280117
0.606738
-0.438298
-0.16844
0.256892
0.0216406
-0.278533
-0.369423
0.118365
-0.10197
-0.0100108
0.0555467
0.00644827
0.0181788
-0.0246271
0.117049
-0.441485
0.324436
-0.0681364
0.0826033
-0.0144669
-0.225073
0.343782
0.249293
-0.326944
-0.20549
0.509126
-0.311538
-0.21606
0.0148815
0.00248797
0.309395
-0.0735854
0.0252507
-0.0245097
0.0229366
-0.179978
0.330357
0.0915028
0.112453
-0.00357519
0.398848
0.223635
0.253265
-0.0254666
-0.387102
0.235709
-0.00728423
0.0964566
-0.0891724
-0.2763
-0.232254
0.331085
-0.201633
-0.129452
0.436135
0.335532
0.279999
-0.0828535
0.0794904
-0.232574
-0.0963161
0.32889
0.229043
-0.128189
-0.100854
-0.144554
0.474976
-0.00153542
-0.1529
0.0196067
-0.017902
-0.00170463
0.325637
-0.483469
0.157833
-0.13171
-0.0569569
-0.469578
0.0891132
0.351772
-0.0651496
-0.170992
-0.413334
0.584326
-0.00464871
0.0979441
0.028441
0.168415
-0.185097
-0.198872
-0.0855029
0.284375
0.102981
-0.473834
0.370853
-0.142088
0.488083
-0.345994
0.614035
0.324609
0.172627
0.396809
-0.533109
0.1363
0.163208
0.0236536
-0.0438884
0.247973
-0.219012
-0.274597
0.422454
0.54698
-0.231765
0.562964
-0.0317284
-0.531235
0.132671
0.000908517
-0.00367876
-0.0504427
0.11501
0.195623
0.340783
-0.442159
0.101376
0.562176
-0.377373
0.4261
-0.149889
0.508876