/*--------------------------------*- C++ -*----------------------------------*\
| =========                 |                                                 |
| \\      /  F ield         | OpenFOAM: The Open Source CFD Toolbox           |
|  \\    /   O peration     | Version:  v2012                                 |
|   \\  /    A nd           | Website:  www.openfoam.com                      |
|    \\/     M anipulation  |                                                 |
\*---------------------------------------------------------------------------*/
FoamFile
{
    version     2.0;
    format      ascii;
    class       volScalarField;
    location    "150";
    object      omega;
}
// * * * * * * * * * * * * * * * * * * * * * * * * * * * * * * * * * * * * * //

dimensions      [0 0 -1 0 0 0 0];


internalField   nonuniform List<scalar> 
14315
(
13.5292
2.49697
0.025188
0.0518429
0.109187
0.0267163
1.88909
0.0274875
0.0369738
0.0229755
0.0782442
5.1033
14.5336
0.0217493
3.75577
0.0219596
0.0267751
0.0220539
0.0472263
0.0459945
0.0220339
3.7912
0.0449167
4.47479
0.067645
2.40938
0.0220825
1.92386
0.0458084
0.138678
0.0341812
0.0220543
0.0217757
4.3881
2.19665
4.08535
0.67876
0.0267956
0.193545
0.086517
17.9707
2.05603
0.0237946
0.0222202
0.0405741
0.0611203
0.0497801
4.84016
3.72359
0.0220589
5.12928
0.0521597
3.83287
4.61904
0.0315165
4.28359
3.96908
0.039081
0.0220524
0.0249914
0.165408
3.4719
4.0956
0.0220309
0.12894
0.818115
16.4805
0.0221822
0.0220297
0.0322062
4.05482
0.0372483
2.30459
3.7618
0.022093
11.525
0.0286616
5.5261
0.0394662
0.0223933
0.0218666
8.01467
0.0370348
5.64596
0.0220204
0.0241198
15.5134
5.78609
4.65261
0.0712205
0.0372914
0.0607011
0.0218692
0.0237332
3.85928
1.91721
0.0236353
2.06642
1.81589
0.0985224
0.0221887
3.90635
3.95361
0.0218856
0.11723
0.17815
2.36792
1.90882
0.0388106
0.101487
1.96601
0.0222505
2.45201
0.0220774
0.022236
5.58429
0.0220843
4.8452
2.51639
19.3761
0.264374
0.0296731
0.0218776
6.24448
0.0421611
0.0219312
0.264286
0.0218679
0.0222245
0.0579056
1.79578
2.89432
0.387365
1.81669
0.145013
0.022091
0.0223423
2.70505
0.0224698
0.0220968
2.64606
5.63866
0.022294
2.03535
0.0971439
1.70629
0.135376
6.17898
0.0272393
0.0409912
0.0243391
13.0823
0.0228797
0.0268643
0.0989542
4.19223
0.023658
0.021963
0.0265834
2.65208
0.0220562
3.46454
6.20878
4.19372
0.0234718
1.88692
3.999
0.0665344
4.31648
2.59725
6.71637
0.0220087
3.86421
0.0229054
0.0433331
0.745912
0.0222815
3.93077
2.93216
1.85027
0.224196
0.0278695
0.0218727
3.55326
0.03833
0.0258154
0.0759665
0.230172
2.39415
3.94103
0.044288
0.0702832
1.93256
1.74021
0.0218272
2.79369
0.187803
0.0222972
0.0219449
0.0722748
4.16057
0.0274914
5.90315
1.86724
0.0224949
0.377966
0.122729
0.0333289
0.0219639
1.93044
0.198116
0.0223002
3.97592
0.0707524
1.66598
2.64243
6.40577
1.866
1.64822
0.0817309
0.0276305
0.0382676
0.0710832
0.0249079
3.41316
0.0238521
0.0231617
3.09269
2.28082
27.1631
0.0227667
0.0236535
0.0411343
0.0222381
0.0222939
0.149389
0.0409455
0.0353829
2.23604
1.95308
0.0235661
0.0314369
2.96604
5.61825
0.65416
0.071842
3.91998
0.0221811
2.00542
5.78971
0.0218911
0.0218798
4.13185
0.677327
0.0230405
2.44097
0.0321983
0.604345
2.21492
0.155163
0.280785
0.0302726
4.21039
5.58107
3.43416
0.0319373
0.0464622
0.0318679
0.0241099
1.97848
2.5882
0.0253837
4.20818
3.94472
0.0336602
3.60921
14.7795
0.0408758
2.14208
0.21691
0.0353812
0.0257024
1.93719
8.27925
0.0221833
3.91858
3.78254
2.3744
1.87406
9.44254
0.0434858
3.09567
1.9117
2.17045
0.144218
0.062059
1.90944
0.0750604
0.0220793
0.0219428
0.0379744
3.98566
5.94515
2.37069
0.0257009
0.0220205
1.82206
3.65087
0.0220156
0.0219169
4.41748
0.0218432
2.51616
1.9105
0.0525046
0.256394
0.0221825
0.031881
0.0243905
0.0220203
4.93885
0.678855
1.87225
0.0348501
6.38384
0.0218485
1.88885
0.183446
0.074745
0.021897
0.0318923
1.93099
0.0222251
2.17184
3.49495
0.0220711
1.85245
4.32681
4.39833
2.06213
0.0222747
6.41414
0.0219514
0.0221924
4.71866
0.0220114
0.0219021
12.5434
0.122738
1.93344
0.0222708
0.0225862
2.01261
5.62096
1.21746
0.0221309
0.0225912
0.0222931
0.0220117
1.95479
0.0477928
3.37347
6.20394
3.42523
4.29066
2.31023
0.0218702
4.1819
1.91021
0.0339906
0.325218
0.0226953
0.0222717
3.72061
1.86886
0.0462071
0.0241178
0.0220716
0.0221284
3.18153
5.73549
0.0365166
0.0220088
6.74737
0.064487
2.20452
0.0733424
2.37114
2.29353
3.21966
0.0238205
4.90231
4.7617
4.37758
1.96245
2.09456
0.037253
0.0222627
0.0379249
1.59776
0.0239325
0.0280354
0.0221298
5.26362
2.26257
0.311439
1.83378
0.726373
3.37128
0.811711
0.0219481
1.76985
3.03063
0.062744
0.0222199
0.0218321
0.148245
2.11511
0.0220183
0.520092
0.0254343
9.21779
0.166112
0.0282806
0.02223
2.05926
2.44003
0.0711902
0.0406617
0.0328668
2.35952
2.60789
0.022263
0.035382
2.85881
0.0251011
0.0875673
1.88162
0.095554
0.0220675
0.672818
0.0221145
1.84134
0.0220321
0.0264508
0.172879
0.0616483
2.0308
0.0220847
0.024782
9.13459
6.36695
0.0221889
0.0456705
0.0260014
2.77406
0.704103
2.05158
1.78773
0.104845
0.0222749
2.92651
3.82526
0.0819097
2.34403
4.80504
4.43775
0.105049
0.0473939
1.8711
0.0285498
0.113454
1.99429
0.0444322
5.84596
0.0251897
0.0217786
0.0236772
1.92998
4.75942
0.0740148
9.87953
0.108671
6.25574
2.11485
0.203362
0.0222868
1.99974
0.0252619
0.0749318
0.0219508
0.55916
0.0228768
0.0576835
1.28734
1.73839
0.0221871
0.0323114
8.68241
2.70952
0.0748929
2.56171
5.56492
0.0234785
0.0222853
0.0222603
5.37511
0.128851
0.0327466
0.0221627
2.81507
0.0228578
0.0234283
0.0237395
0.600714
4.11011
0.0694701
2.02695
4.88639
0.0775577
4.01893
0.02487
0.0253487
0.0410403
0.609788
1.9827
0.0229867
0.0221801
0.076771
0.0224234
0.0221228
0.0706506
0.0220264
0.0218932
4.51942
5.33784
0.0230359
5.36982
0.0968099
0.0222275
2.16743
0.0247893
1.79221
2.52539
0.023346
0.0572216
0.0248613
0.11343
0.0670782
3.92616
0.0235348
0.0235977
1.83984
2.5573
2.81212
5.83032
0.0386545
0.02215
0.0222279
0.0366004
1.92344
2.37128
1.9098
0.131623
0.183961
0.173092
0.0220843
0.0222347
0.0431474
0.0226417
5.62558
0.0218451
4.48783
0.199502
1.95909
0.0254831
0.0437164
0.0220595
13.8908
0.0217507
3.59621
0.0557001
0.0220875
6.46827
0.0220173
0.0248014
0.023295
0.032055
0.128785
0.023468
4.4202
0.0220333
0.102887
0.0818513
0.0986985
0.0220143
4.52715
0.0305384
2.49201
2.01648
0.0586305
3.71995
2.31462
16.0213
0.0236557
0.0221787
4.4075
0.0226484
0.0306595
2.38147
5.50806
0.180909
1.79126
0.0217604
0.131986
0.028422
0.0943521
0.176276
0.0221936
0.0219328
0.183351
0.541631
0.023083
0.16422
1.86247
0.0220059
0.0222731
2.38259
0.148326
1.86164
0.021737
0.0664356
0.0220667
0.0217704
1.85061
0.0221835
1.76177
0.0421067
4.13549
0.0222409
0.022218
0.0566932
0.0330187
2.19821
2.99174
4.02378
0.0242949
0.0447729
0.0222731
0.0326353
0.686508
6.54407
1.95815
0.0838813
0.153575
13.6007
0.0385441
0.0294723
0.0846231
1.90078
0.0226514
0.0294708
3.36131
4.84823
0.197226
8.70094
0.0219145
0.0265567
1.93118
0.0237436
5.54144
0.0222833
0.123354
0.0221968
0.0443671
0.0223271
0.701556
2.0355
0.0221156
12.8429
0.0221068
0.0222816
0.752578
2.07576
0.0381135
1.95479
3.01556
6.75403
3.42533
0.0223788
0.0232101
0.0225509
0.0229268
0.0560203
0.0228654
7.11361
3.82463
0.037421
0.0306327
0.022608
0.0225422
1.99859
0.0220186
0.0606787
0.0681692
0.0328598
3.95613
0.108526
0.127541
2.53015
0.030963
11.2214
0.0455371
0.0217688
0.0220718
0.0224353
0.0391211
0.0237169
0.0470884
0.0245768
0.0265308
4.58497
0.0217506
0.0248346
0.0834065
0.0238981
0.030423
0.0805101
0.0232596
6.27773
0.0218662
0.0222518
3.80587
2.47308
1.95581
0.486006
0.0220905
1.88216
0.0349432
0.0220685
18.25
0.0220685
0.0220575
0.0578985
0.0220782
3.91846
0.0249756
2.55371
0.0247297
3.72128
0.265353
0.0789167
0.0308147
5.19352
5.4112
1.9827
0.022253
3.66576
0.0350877
2.27292
0.0222767
1.885
3.22511
0.394441
6.71242
0.0220871
15.6717
0.0308222
0.0582138
0.60824
1.913
0.0232929
0.0225052
0.58638
4.44566
11.4598
0.0219508
0.500459
2.98948
2.75023
3.57582
0.024575
1.11375
3.46437
1.87542
0.0457963
8.43037
0.0340873
0.021922
0.0303203
0.0220914
0.0340007
0.187101
4.05282
0.0221014
0.0242017
0.0367025
4.82136
0.0493633
0.026186
0.263055
1.82408
6.24725
0.0239102
2.6062
0.0222651
0.0278151
0.0383503
0.132359
3.76068
0.0219596
1.89169
0.19129
2.19535
0.183867
0.0588134
2.05029
0.0382092
2.39638
0.0222075
0.0246629
0.0350963
0.0805431
0.026311
0.0224464
0.0328671
0.0477309
8.05509
0.0224876
0.0228871
3.30659
2.64212
3.46519
0.0590204
0.0241361
1.89123
0.0249225
0.0219315
5.80184
0.0283559
1.89202
1.95612
1.90845
5.39532
2.19454
0.155648
15.4598
2.76841
0.0304281
0.0221518
0.0220209
0.109064
3.52838
0.139669
4.5235
0.0322047
2.86591
0.292882
0.0303324
16.969
0.041041
2.26374
0.0284796
0.0249501
0.0294958
0.0222435
0.172068
0.026982
0.25393
0.0387259
0.0222518
0.0225045
5.74289
0.0220782
0.0226012
0.021925
0.163281
0.0299122
0.037535
0.0437648
3.94214
0.0232682
0.0218491
0.0223019
0.201251
0.0235258
8.98669
0.0221115
2.28947
0.0219391
1.82695
5.81069
0.0222593
27.5353
2.72053
4.03883
1.89036
0.033301
0.110884
3.47235
3.92977
0.0217579
0.0461021
0.26245
0.0234109
8.9621
0.0247344
5.38294
1.90787
3.96822
0.0381731
4.40551
2.99217
0.0223034
9.42594
0.0220626
0.0235089
1.82295
3.23456
0.0220853
0.0673721
3.25752
0.0249879
2.11186
0.0220835
0.193032
0.0221578
6.19518
4.67593
2.21737
0.0223608
0.0222676
3.39533
0.04688
3.19547
0.0323325
0.0220305
0.212369
2.15514
2.33589
2.66983
0.0219377
3.50939
0.022701
0.0224711
3.42051
5.80226
1.9777
1.9983
4.86788
0.16545
16.6501
4.51241
8.1685
0.198752
4.73709
0.0248756
0.0218853
0.0220261
0.0786267
13.9664
3.59446
0.0222655
2.53743
3.78278
0.0221426
4.64955
0.0319038
0.552446
0.0707636
0.154073
3.64231
6.47005
0.0220436
3.15523
0.0222108
0.023509
0.0347273
0.0224766
0.444032
0.0404648
0.0219472
4.02256
0.0217526
10.5444
0.0238544
1.89748
0.163102
0.0220256
2.14564
3.40299
4.14078
3.84261
1.91173
0.220518
3.27036
4.55435
0.0687992
0.0265451
3.84261
0.0263035
4.75997
0.0721603
0.0237549
3.51817
0.0391779
1.88425
0.022243
0.0340929
2.9987
2.56106
1.98091
0.0403125
1.9644
0.120279
0.0582687
2.30757
1.95377
0.122005
0.103759
0.0334817
0.0220863
0.0312619
3.04858
2.23245
0.0219746
2.30971
2.02825
0.0220406
0.0445299
3.26465
0.0220227
4.06925
3.52382
0.0218688
0.023025
3.37332
0.0306191
0.612908
1.71077
0.0219182
4.20001
0.263651
0.0221055
0.0222867
0.0248876
0.0374614
0.0220973
6.0057
3.38363
0.0275518
0.0731792
1.89579
0.0238147
0.0221026
0.0513093
0.022022
0.0306503
3.95034
0.0277725
0.0814706
2.17701
0.0221064
2.98476
1.89261
0.05624
0.0221986
0.0468289
3.72319
0.0216055
0.0358337
4.76766
1.9103
0.0983952
5.76276
2.34139
2.9461
0.0760154
4.78216
0.0948482
1.85385
0.494391
0.0225994
3.29948
0.0496115
14.5028
0.0813785
4.44197
0.026065
4.34609
0.179806
0.0222249
0.0279497
0.0222282
0.563242
0.0397552
2.07279
11.2952
3.49682
0.0220838
4.90591
5.92608
0.0220497
2.06003
0.0568969
3.23036
5.30202
0.0451946
1.84287
2.54987
0.022332
4.17532
0.0222815
1.97795
0.0228138
0.291012
5.35928
0.0239861
1.96973
0.0286326
0.0528255
0.176655
0.0496118
0.578386
5.73032
0.0648767
0.0810019
0.114932
0.0578371
7.31665
0.0330201
3.94457
2.23992
0.025397
3.2169
0.179528
1.89469
0.0221285
0.025819
8.99216
0.124747
0.026648
1.66384
6.7276
0.149554
3.05783
0.0451441
4.65295
0.0222686
1.03369
1.90775
0.0222572
0.295854
0.0221827
1.78581
0.101843
0.0219078
9.03597
0.0561293
0.0217117
0.164187
10.0743
0.0586264
0.0295263
0.16737
1.66592
0.0295326
0.129762
0.0626046
0.0216497
0.0221082
0.0222555
4.63165
0.0224757
1.89558
0.0225367
0.691159
0.0313878
2.3106
0.337848
0.0258051
0.0220985
0.038764
0.0523829
2.89299
0.0223214
1.94362
0.0834308
0.021951
2.25923
5.96241
3.32683
5.99969
0.0222518
3.09537
2.08424
0.249853
4.88286
3.63177
0.0221846
0.135601
0.0230953
0.0679113
0.0792654
0.0217709
0.0637949
0.0251185
0.0220935
1.63003
6.71524
2.13851
0.0806547
2.4661
10.3339
0.0219522
0.0275887
2.31897
0.0616093
0.0234583
1.58267
2.0019
5.45189
1.83547
2.47812
0.022496
0.346933
0.02305
7.10752
0.0219442
0.109205
0.431753
0.218114
0.030267
0.0220701
1.91191
0.031339
1.606
0.0345603
8.10072
1.61772
7.51035
1.83881
0.0680782
0.1479
0.0266716
1.89778
1.71616
0.19221
2.40302
0.0219206
0.125815
0.0220243
0.21868
0.0245659
5.04271
0.0219478
3.30529
9.89572
0.902322
1.90309
0.0244345
0.0220242
12.498
0.0221803
3.8168
0.0233931
3.26286
0.0220855
3.6011
38.2692
0.0908703
0.0307336
0.312715
2.3518
0.0219414
0.0665655
0.0228544
1.87253
0.0248168
0.320323
2.34087
1.94279
1.82719
1.8934
0.0770838
0.0254937
4.79328
0.0648025
0.0490656
0.222304
0.0221747
0.0376671
0.0216543
0.117085
0.0221767
4.68294
6.63441
0.0839376
0.0256808
0.0219003
13.4338
1.91674
2.9821
0.0219698
0.0222442
3.26118
0.11482
0.0217008
0.463173
0.0507595
0.0236167
0.0220814
0.116935
0.0217765
2.85478
0.147828
0.0322418
0.0220797
0.356876
2.78815
4.24852
20.237
0.0218183
0.0218801
0.754498
0.0393563
9.76264
0.044033
0.0220308
0.0231032
0.25411
0.0222107
0.0415271
0.0219205
0.0221135
0.0222656
4.22823
1.79968
14.7234
8.27334
1.98788
8.30946
0.07911
0.0628446
0.0222519
0.115064
0.0555282
0.0471926
0.0432679
2.39287
0.36597
0.030298
0.025154
8.19598
0.177831
0.0694472
3.69437
2.85846
1.84605
0.0220465
0.0233881
0.0283985
0.0221497
2.07237
7.67886
1.92551
0.326638
0.0483209
2.01718
4.54154
0.0257659
0.771589
0.0289453
0.0219302
0.160148
0.0257747
0.0275736
2.19562
5.05796
10.4817
8.20868
1.94385
0.0221217
0.0222002
4.6593
0.0828662
0.0221486
3.15956
5.42451
0.0220229
0.0242937
0.0340367
0.0221159
0.504381
0.0268113
0.0329518
0.105934
0.0592544
0.110691
0.0435888
0.0220813
0.716761
0.91996
0.021994
0.0635958
0.190146
0.485548
2.19844
0.0221893
3.07672
0.0626522
0.0232012
1.79165
0.0222513
0.0226818
0.0221899
3.41643
5.33878
4.63264
1.8997
5.18997
0.620073
0.420307
0.0415601
0.0220342
0.306715
0.0257118
0.0225008
3.22971
0.0221047
8.82455
0.0618495
0.0221009
0.0242928
0.0826686
1.89423
0.0976725
0.0217254
0.0220901
3.45489
0.0601521
0.0244566
0.0318349
2.6753
0.0255174
5.00737
2.00834
0.0217646
3.29913
0.022698
0.0219082
0.029728
0.0259757
0.0235194
2.02649
2.06292
1.95537
3.51157
0.034264
2.19362
0.0552879
1.85829
7.07466
0.0301049
33.9557
0.0331881
0.0819379
0.0220901
0.0247162
0.0219136
1.84413
1.94433
1.96815
8.08517
0.0218584
0.117813
7.66024
4.57653
4.42103
1.60386
0.021995
0.022037
0.128103
0.0397303
0.0220984
0.0221059
9.53577
0.0221258
0.0537598
4.38398
0.0289109
0.0222437
21.0117
0.0542936
2.16948
0.0219878
0.772194
8.25448
1.42122
21.9309
0.0244331
1.85529
0.116282
0.0716488
0.0218926
2.02049
0.0219895
0.0222729
5.44299
0.022257
4.88353
0.0219464
3.36508
0.0635482
0.361349
0.0221543
2.60379
0.0217981
0.0222513
0.0303103
0.0359116
0.0387736
10.0838
0.227566
1.93267
0.336
0.0772838
0.0399199
0.0291673
3.89922
0.0258457
0.0372998
5.56089
0.0332693
4.51213
5.36813
10.2491
0.0705971
0.0225271
1.71864
5.83708
0.0218484
0.021825
2.00124
0.584633
1.72185
0.0376631
0.0256746
0.021914
1.92425
2.76829
0.0230613
3.89252
8.33697
0.0221273
0.0221759
0.0227587
0.0366752
0.0242955
0.0230123
1.7335
1.88173
3.96346
0.0220357
0.0277699
0.389948
1.19199
0.0221317
2.09241
0.0317587
0.0220551
0.0349693
0.0217121
0.0278896
0.274728
0.0221483
1.45688
4.67153
0.0218539
0.10987
3.32107
0.0534192
0.0314527
8.96884
0.0330874
0.0316129
0.039489
0.0220966
1.84536
4.05861
0.0563709
0.0222756
2.64004
3.5086
0.0340935
0.0502597
2.51665
8.1931
2.38758
2.04285
3.45396
0.0298451
0.023619
0.0219526
1.46211
0.0265813
1.64449
1.87244
0.373733
0.0221258
7.07397
2.25103
0.0220996
0.0456992
0.0257355
3.98088
0.0220047
2.60807
0.0289307
2.09225
0.0219359
4.15877
6.57571
10.045
0.0220663
3.51936
0.0220727
0.0323137
2.34652
0.0219361
0.0221015
0.0266817
0.0221239
1.01026
0.0218201
3.0257
0.0220964
2.09785
6.43581
0.0450935
0.166568
0.0287111
0.0453393
1.90605
12.1203
2.59806
2.01963
3.05659
0.540778
24.442
1.83065
0.0220163
0.0247426
0.0217095
0.0219921
0.0469742
4.26233
5.66765
0.0253869
0.0221043
0.0580984
2.0782
0.0279026
0.0228099
2.0072
0.0306869
0.187101
0.0221069
0.0436016
0.0222858
13.2914
0.0222805
0.176907
0.175108
0.0221401
0.0219221
0.023479
0.037261
0.0263841
1.96827
7.17171
0.0221561
1.9914
5.95686
0.0221043
0.0419291
2.81762
0.114998
2.94084
0.0219983
0.384841
0.0458819
1.81346
0.0218915
0.262362
0.0654879
0.0560032
0.022234
4.02011
14.0973
1.95035
0.0221778
6.48608
3.29631
6.58592
0.022153
0.0233421
6.11194
2.06022
0.0282302
20.536
0.0240173
2.14797
6.21356
1.96237
0.0270418
0.0247955
1.92838
6.24038
2.19503
0.0256137
0.0220502
0.0283503
0.0220582
0.0230416
0.115243
0.0276091
0.0218737
3.24339
2.36819
2.55094
0.0224758
0.0224541
3.15664
5.67332
0.027393
2.58891
2.20575
0.0217603
2.39626
9.78276
2.57023
1.89089
0.0593646
2.09341
0.0851163
0.0736798
0.0613931
0.0255944
1.7028
1.93352
9.78916
0.142491
0.0222426
1.92207
0.0535353
0.022197
1.04262
0.0225729
0.168383
0.0270576
0.0330329
1.99456
0.022064
0.120613
0.0223598
1.91848
0.11477
0.0228184
0.0342661
0.055149
0.0220752
5.17531
0.0293834
0.0220057
0.0232172
3.42586
0.209362
4.88642
3.80655
0.0220741
0.0219894
0.0219919
0.10102
0.0261653
1.90788
3.82091
0.0220011
0.0704604
0.0394047
0.0377776
0.0220688
0.0220823
2.63235
0.0392766
0.0462496
12.0282
0.0221289
0.0294605
15.6173
0.0267704
5.43554
3.23141
2.29469
8.81648
0.236424
6.84149
5.49697
0.0218183
3.20805
0.036296
0.0221177
0.0325664
2.57831
0.030861
0.021781
10.2685
2.93153
4.80521
0.0329638
0.0283278
0.0246082
0.0218908
0.176614
0.0222173
0.0235202
2.18161
1.87757
3.81056
2.40734
2.26973
0.185806
0.0224234
0.0582218
5.96821
0.0220316
0.0358452
3.43777
0.0302331
0.0300885
0.0222536
0.0221021
0.0221099
0.0231615
5.12404
4.13596
0.0221798
0.118095
0.124787
1.81584
0.0318411
0.0230915
0.0290576
0.0220871
5.18922
0.0232415
0.0219892
0.0644763
2.10277
0.0221735
0.0282793
3.74655
0.0361347
0.051992
0.0446994
0.0219151
0.0223825
0.0216405
0.0222805
0.0259839
0.0369961
0.0937622
0.0220705
4.95758
0.0409554
1.81582
0.0369446
0.025329
0.0235706
0.0524127
0.0262156
0.285657
3.86515
0.02225
3.58725
0.0284837
5.00735
0.0230972
0.0262814
0.0220318
2.04327
3.57639
2.49155
3.1726
0.0267737
0.0232969
5.52931
0.189982
0.0994596
0.0298911
0.0257956
0.123823
0.0515714
0.029627
0.463172
4.14683
0.0220159
4.5881
4.27678
1.92595
0.0222662
4.81463
2.84043
0.0219274
0.0248891
0.0220222
0.0333489
4.2845
0.0253302
0.252687
3.69708
2.31702
3.25006
0.106947
0.0403258
0.308361
3.17349
0.0974434
0.191732
0.0218134
0.340594
0.0594479
3.9222
1.23314
0.0233545
0.0218365
0.0221389
3.06144
0.02275
0.0506321
6.78953
0.0223197
2.83166
0.0290373
0.0230551
0.106857
0.0313453
2.14027
0.0221497
12.2249
0.0245154
2.00115
0.263036
4.27713
0.030749
0.0216424
0.0231173
0.0219816
0.0218599
0.704176
0.315803
5.94825
3.23343
1.02704
0.359209
0.0559603
0.0217969
0.0220479
0.023273
0.0254855
3.05866
0.0354713
1.97426
0.0222906
11.1811
2.07505
0.0415073
0.0297126
0.115255
5.38203
0.0302051
0.0231459
0.0408559
13.9574
2.8887
2.87802
0.46276
0.0218571
1.51883
0.0217472
1.88008
2.15354
0.023108
0.0363053
0.0217234
4.5057
3.52264
0.03105
3.47562
4.36009
0.122513
1.9052
0.0242148
1.66341
0.407436
9.83595
0.0727602
11.3319
0.120995
2.23812
0.0335445
0.0326687
8.96301
1.61439
3.38709
0.0263047
4.60165
3.20445
0.0240129
0.0220765
0.0353705
0.0222173
0.022643
0.0220594
0.0294597
0.0288396
2.7678
3.37322
0.0220707
4.66375
3.64036
5.19132
0.0248761
0.0234536
0.0279574
3.02756
2.00294
2.00123
2.41861
0.0968923
0.260477
1.24552
0.0591586
0.0222511
0.0222454
1.85419
0.0505912
5.35711
0.105371
17.4337
1.46655
2.31685
2.55147
0.034234
0.12717
2.55848
2.21706
2.33901
2.78054
0.023618
2.88003
1.95371
1.93788
0.343617
2.28694
0.127981
0.0458379
0.548228
3.97831
0.0219807
0.0261039
0.508638
0.163389
0.0247493
5.46696
15.0537
3.78605
9.78779
1.74162
3.76455
4.28082
0.0221728
2.33064
4.71734
4.17852
2.80919
2.40772
0.202917
3.61144
3.99975
0.0320068
0.033793
0.0225339
0.198537
0.909713
2.98795
1.85753
3.95805
0.101844
2.69063
0.230249
0.0228181
2.65839
0.0257211
2.70434
0.0222257
0.603748
2.02173
0.0226898
0.0234291
0.026464
0.0220524
0.0497084
0.0323619
0.956156
0.0238202
0.157638
1.86245
0.0332953
5.0601
0.0254321
5.21772
0.17756
0.0342493
2.80489
0.0269815
0.0666594
5.51012
2.92687
2.82468
1.39475
0.0617493
0.0361537
1.11179
0.402993
2.72286
0.0231257
2.08543
0.0221076
1.98801
3.27111
0.023779
0.317264
0.0268621
0.0219285
2.54545
0.0220976
0.0449443
2.71749
0.0283576
3.10563
0.0455388
1.77592
5.52071
0.0447131
1.85237
0.0222131
0.213571
0.0492561
2.95077
0.0220815
5.49954
0.0320158
0.0217465
0.190979
0.0349439
0.0223045
0.0219661
0.0659102
8.36476
0.0276379
24.8998
3.97671
0.151093
7.68011
3.33285
0.100713
0.026822
0.424254
1.80911
9.02085
0.028604
0.0220987
0.0252794
0.0222943
0.029357
3.89395
3.22826
0.100687
6.00328
0.103732
1.98235
0.0413711
0.0862354
0.220124
0.0257823
3.0847
0.0632039
3.47401
1.53748
40.5237
0.0236804
1.75985
0.0304188
0.02184
3.12842
0.0220979
0.0536252
0.0219586
0.0239859
1.78209
0.0220313
0.0700946
0.0219441
1.75515
0.0228319
0.0272725
0.0259074
0.131197
0.458208
0.10985
0.0552508
0.279775
0.0352958
0.0715899
0.0258856
0.0625169
1.24236
0.0289384
0.0879212
0.184133
0.0287577
4.27308
3.45954
0.0221781
0.185357
1.79616
12.3313
0.625019
0.181362
0.106568
0.0377457
0.0221624
0.0232303
2.153
2.02327
2.12691
0.0281614
0.0418593
1.92353
0.0434622
1.82606
0.022737
1.77737
0.0388558
1.83027
0.027222
1.09782
2.23453
0.0220763
0.034451
0.0221777
0.0233759
0.242323
2.12716
1.76066
0.0711519
0.0221147
3.34982
2.18963
0.0229519
2.13819
1.91098
0.107029
0.0270245
5.06823
0.0940772
0.0218249
1.70383
8.38343
6.95729
3.71067
5.50224
0.242354
2.7139
0.0386114
0.0221696
0.0302457
0.0355626
0.0307673
1.93567
4.07496
0.0229625
0.689141
2.93805
1.8614
1.83117
4.29089
1.95686
0.0249081
2.55369
2.24518
0.0237976
0.0707799
0.0392936
1.8574
2.73346
0.0219654
0.0529412
2.75353
0.0227017
0.0223957
0.0224695
0.0219467
2.7037
0.0243248
2.59011
0.0222717
2.51117
0.0547068
0.638764
2.99388
2.01246
0.0220216
0.177306
2.97564
0.0218693
2.61979
1.85803
1.45745
0.43423
32.5492
0.0970419
0.0262355
0.0222462
0.0221791
1.94293
0.361813
1.84222
0.0414429
0.180699
0.0224812
2.55823
0.03519
30.6607
3.11067
0.0425136
3.02916
0.0220166
0.0433716
0.036615
0.0273522
0.0229011
0.0219556
0.0236724
0.0672189
0.0556432
1.36109
0.0351248
0.0221001
0.275073
0.25458
0.0220031
0.0427858
0.0223324
9.56303
11.9768
0.0220897
0.0592639
0.974853
0.0540987
0.0218046
10.6651
2.89984
1.8637
0.033276
0.0795904
0.0234084
4.19071
0.164711
0.0371291
2.70669
0.0225603
0.0338591
0.0284826
3.71257
0.021739
0.0220637
2.11338
3.2811
2.0838
0.0232051
2.9501
0.0219253
0.021932
8.20865
0.0245467
2.05531
3.56674
0.0226279
0.0232196
0.0232781
2.18828
0.512019
5.40259
0.0241718
0.34527
0.0229011
4.34631
0.0219507
0.093285
3.53498
0.418951
0.0221216
5.38245
1.87074
2.5931
0.376246
0.0219816
0.0236193
0.267887
2.08856
0.16907
0.0219739
0.0688883
4.4025
0.0279796
0.0219387
2.49139
3.14328
0.0429482
0.418502
5.6942
0.0220501
0.0221682
0.850558
0.0220518
0.022148
1.96599
0.0775215
1.953
0.0221732
0.373647
0.0220076
0.0220079
0.0454789
0.087261
1.92386
7.7886
2.9638
0.0259753
0.0760316
0.0221772
0.0240106
2.4922
1.72339
0.0952614
8.76134
3.52869
0.0221817
0.0307165
7.24088
0.0875553
0.0565124
0.022167
3.12101
0.553145
0.586537
0.0285587
0.0357816
0.0342981
3.19136
0.0279947
0.0296756
0.094994
0.0220203
0.0235137
0.0294309
1.78944
2.66402
0.305154
0.0222657
0.0268551
1.85013
0.243454
0.0336118
0.058838
0.0220953
4.5498
0.0219543
0.0613097
0.0220275
0.246582
0.036943
0.0233192
0.0381885
0.124211
0.0512112
0.0220607
0.0322585
0.0235055
0.0271627
2.47388
3.48484
4.17626
0.0218529
0.0237161
0.0409508
0.0322105
0.285693
0.0220206
0.0218191
0.577328
2.62529
0.0220622
0.0244557
12.1285
0.0263284
0.0936135
2.60678
0.0220819
0.0586424
1.66479
2.77646
0.0508139
0.0300148
1.83472
0.249806
0.0243267
1.77211
24.0605
0.0241988
2.76959
0.0218912
0.059502
3.24973
2.56286
0.050326
0.0219614
0.0221068
3.8014
0.342879
3.52895
0.0236277
0.0531877
0.0288164
2.59647
1.83202
0.022296
2.04487
0.0221076
0.0221632
0.0218978
0.309696
3.41728
0.0221454
0.0470637
0.0378558
1.73476
0.319162
0.0221302
0.0223499
1.79263
3.02792
0.0534017
0.0804541
3.43782
0.0222725
2.92942
0.0581417
18.6167
0.0719347
4.08942
4.52695
1.87303
0.337281
0.0220798
0.0590293
2.02607
0.988147
1.87298
0.0869827
1.92319
0.024286
4.73252
21.317
0.0232167
1.31615
0.0218332
0.84896
0.0218133
0.0232439
0.294633
0.0860334
0.0235494
0.022303
0.0569102
0.0231961
0.0221714
0.074076
0.0230882
0.0519533
9.30757
0.0223319
1.80703
24.6382
0.0227668
1.09679
0.0221203
1.66889
0.0217824
0.0259634
0.0491188
3.99107
0.0272119
1.70772
0.123752
0.0222841
0.0343853
26.6478
2.89915
0.0397436
1.6442
5.8118
9.48168
0.0418561
0.073306
2.16974
0.0220358
0.400295
3.88871
0.022089
0.0223899
0.111846
0.233847
0.0220771
0.022247
3.22944
3.65416
0.0303105
0.0600249
1.74724
0.0308018
5.50323
5.37848
2.89259
0.0222404
0.022089
1.92301
1.77428
2.14143
0.0249909
0.0221825
27.0441
2.86997
2.5768
2.20081
0.0248808
0.0280537
1.97775
0.0255286
0.021835
3.1469
0.0219028
0.022164
2.8466
0.271755
1.98939
0.0236398
0.103863
9.55391
3.52819
0.030494
0.037472
7.91748
0.0260372
0.0233288
0.0630175
0.256638
1.81414
0.0221879
0.0220888
2.07127
0.16509
14.3521
3.59941
1.90801
0.0552074
0.0241047
3.24052
2.13616
0.0221709
1.47089
0.075349
4.54821
0.0219911
0.0341489
0.0315753
0.0445585
0.160123
0.0269091
0.069587
0.0699028
0.0220951
0.0221419
0.0368226
0.0533272
0.0239353
0.0293501
0.0268373
1.0225
0.338652
2.68517
15.9498
1.66327
18.8493
1.84038
0.0221169
0.0382623
0.0253843
2.55868
2.79757
0.18859
10.5582
0.0219542
3.20291
0.02195
1.97062
0.0221053
0.0528885
0.110663
0.0218842
0.0220104
0.0222722
0.0361478
0.457673
0.0221105
18.2279
2.8053
0.0221091
0.0486259
1.61817
0.022001
0.0311175
2.88159
0.0695345
0.105974
0.0345913
0.0554938
0.0221665
0.0321325
1.73438
0.0220059
2.28002
0.0222733
0.0235305
0.0221837
1.7592
0.0231664
3.83406
0.0221234
0.0243432
2.81187
0.87768
1.9013
1.69008
0.028339
4.13934
1.77834
5.99406
0.0221001
0.164776
0.175381
0.25249
0.0235975
8.65777
0.0220631
0.0220287
0.0221767
0.0377107
2.58617
8.89717
4.2359
0.0231293
0.0835026
1.79633
0.0260916
2.20334
1.62756
8.42409
0.104549
0.026846
3.31669
0.0847695
2.37112
0.0354493
0.0221184
0.022395
0.684973
0.0512072
0.0530795
0.0219386
2.75723
0.0235673
0.0214952
0.0217377
1.73256
1.83312
0.598328
0.0220858
0.225394
0.0583659
1.84621
0.204872
0.501925
2.24763
0.321403
0.053239
0.117553
0.0221371
0.16206
0.0217292
0.0220092
1.27482
0.191813
1.24008
2.50178
16.6288
5.76833
0.053531
0.0221055
5.57328
4.88104
1.82165
0.0218543
0.0248397
0.0220784
0.0409765
0.745593
0.0984211
0.0232827
0.0295747
0.0220945
1.98771
5.21556
0.37974
1.85371
0.328278
0.0334842
0.024556
0.583044
3.84516
3.16425
0.0264258
0.0361173
2.12612
0.0280735
5.86196
2.05924
0.0243134
27.3362
0.0220864
0.366295
0.0222668
0.0218925
11.0986
0.0232392
0.0258319
0.0221645
0.0217905
0.222289
0.0221721
0.0787502
1.91404
5.21208
3.97984
0.195575
2.75406
0.0251266
2.15912
0.0234083
1.86412
0.0226572
1.80214
21.1448
0.0361288
3.57103
0.0474976
2.11996
0.0252659
0.0243055
2.99761
3.15177
2.2295
0.0260349
0.130793
0.0271349
0.0220902
0.0220947
0.0239126
0.0238019
2.39787
0.0501608
0.0326512
0.312352
1.93885
0.124586
0.124773
0.0250644
0.910178
0.0265239
0.0582796
0.0470655
0.132769
0.0281676
5.5058
0.0300755
0.0221064
10.9464
3.77985
0.0220063
0.114916
3.03114
5.20384
0.0240812
0.0324404
2.69617
0.0340006
3.79137
0.0221104
0.074325
0.0220914
1.7567
3.01323
0.0802436
0.0302059
13.4575
1.82131
4.91568
5.04598
0.0239155
0.0220807
0.0331461
0.461327
0.0218357
0.0321456
22.8094
0.0299814
0.0593051
20.338
14.8257
1.94753
0.0225217
0.0470091
0.0222597
12.5153
2.66054
4.99394
2.31848
0.0311252
0.0218801
0.0221278
0.0293333
2.81649
0.0920666
0.026373
0.0315711
0.0940587
0.022119
17.4226
0.023196
0.535729
0.0220023
0.0236357
1.80731
4.72282
0.0566767
0.0305144
0.0220967
5.40638
0.500254
1.32455
1.20153
3.6015
0.0221667
5.3417
12.377
0.0342556
0.0516714
0.110627
0.0293465
0.0222318
0.0289213
6.36843
0.0350381
0.0250581
0.0221776
0.0268359
2.70503
0.0562701
0.0217135
0.329245
2.32591
0.102644
0.0392663
1.78167
0.0359884
3.546
0.0227938
0.022286
0.474582
0.03253
0.924922
3.26362
0.0219975
0.123511
2.63722
0.160219
0.0284839
0.0220632
0.0232262
0.0240269
3.97976
0.0221123
0.0242259
0.147221
0.304358
0.0221165
10.5733
0.0283622
0.021846
0.0302001
0.0941772
0.0620144
0.0258163
0.024585
4.53328
10.1218
2.41746
0.0228502
0.259254
0.0223376
0.0220416
0.0303875
0.0293863
0.0281887
0.0258281
1.2518
0.0227087
0.064771
0.0221227
0.0226313
0.0245798
0.0231124
0.0222859
0.0317843
8.35737
0.0228306
0.0226229
0.0222866
3.04312
5.96926
0.0230234
0.0231039
0.436635
0.02772
0.0217549
0.0334903
2.93181
0.0221824
3.1067
0.0225597
0.205876
0.0683627
8.04659
2.85227
5.03081
0.0219959
6.40718
5.27451
0.0226275
5.29962
9.50926
0.0233764
0.0272585
0.0554285
0.0267878
0.112862
0.350144
1.84808
0.0219885
5.142
0.433046
0.252495
9.21978
1.85121
1.03234
0.0340531
0.0225072
0.0252852
6.02994
0.472536
0.0228693
0.0218797
11.3729
0.0291204
0.0217596
0.0262177
0.17439
0.0220043
0.0233521
0.0315786
3.3539
2.20168
0.0292028
0.314059
0.0443196
0.0289803
0.0247274
0.154681
0.0773423
0.0248432
0.023039
0.102483
0.0997097
0.0309196
2.79295
0.0246745
0.0354408
5.273
2.01384
0.0307011
0.0236396
0.0219931
0.220086
0.0492232
0.139893
0.587861
0.14035
0.448096
0.105248
3.0585
0.0703233
3.56112
0.0239554
0.0288235
0.0251728
0.0234882
0.0220004
0.0635192
0.027012
0.0219967
0.577393
0.0236249
2.81992
0.190859
0.02885
2.32058
1.31966
3.81994
0.0254756
0.0396006
5.14515
0.0253329
0.0245934
1.72994
4.6821
0.0247257
0.201783
3.9862
0.0250838
0.051527
0.0295952
0.0351522
0.0564053
1.9128
0.0229835
0.251284
0.0955089
1.96356
0.16313
0.0945339
0.0225198
7.11891
0.0219913
0.238636
0.0220673
0.0305029
0.0506389
0.893061
0.0225008
0.0399266
1.79189
0.0306309
3.00395
0.0690488
1.94616
2.50548
1.61871
0.0236477
0.022526
4.91171
0.0221275
1.99209
0.0222679
2.26909
2.61025
2.51611
2.37761
1.46937
0.0229611
9.09687
0.0329353
0.0300746
3.24084
4.06818
1.92791
0.0321283
19.8576
0.0414037
0.0232872
2.07229
0.0227457
3.0473
0.437489
5.28354
0.021939
3.36731
0.0533603
0.0221454
0.0371863
0.0256655
0.0568316
0.0220784