/*--------------------------------*- C++ -*----------------------------------*\
| =========                 |                                                 |
| \\      /  F ield         | OpenFOAM: The Open Source CFD Toolbox           |
|  \\    /   O peration     | Version:  v2012                                 |
|   \\  /    A nd           | Website:  www.openfoam.com                      |
|    \\/     M anipulation  |                                                 |
\*---------------------------------------------------------------------------*/
FoamFile
{
    version     2.0;
    format      ascii;
    class       volScalarField;
    location    "150";
    object      p;
}
// * * * * * * * * * * * * * * * * * * * * * * * * * * * * * * * * * * * * * //

dimensions      [0 2 -2 0 0 0 0];


internalField   nonuniform List<scalar> 
14315
(
-0.344234
-0.241033
0.00205528
-0.0781465
-0.102614
-0.102566
-0.265917
0.108645
-0.0658021
-0.00239415
0.301567
-0.347736
-0.350481
-0.0428347
-0.360148
-0.01563
0.104978
0.00830145
-0.106396
-0.0983963
0.00340192
-0.344809
-0.15131
-0.348393
-0.0260753
-0.237496
0.0331164
-0.270797
0.228362
-0.247343
-0.135045
0.0112329
-0.044825
-0.317423
-0.348594
-0.354515
0.453688
0.0727253
-0.274536
0.0299252
-0.346164
0.500726
0.0694644
-0.0296799
-0.155634
-0.0187563
0.228631
-0.373622
-0.373196
0.00766439
-0.373917
-0.0907364
-0.356883
-0.363607
-0.1239
-0.349692
0.39837
-0.0826824
0.00885667
0.00390201
-0.26099
-0.270444
-0.349688
0.00291401
-0.247591
0.399113
-0.356461
0.00633225
0.00250201
-0.125746
-0.363919
-0.0859954
-0.351796
-0.359304
0.0154321
-0.364565
-0.0937946
-0.362088
-0.152211
-0.0644729
-0.0280478
-0.224544
-0.0838447
-0.36252
-0.000323244
-0.084279
-0.369959
-0.266012
-0.359898
0.295572
-0.145959
0.108179
-0.028682
-0.0842913
-0.325618
-0.332506
0.0655271
-0.367674
-0.308622
0.265078
0.00692779
-0.373858
-0.350229
-0.0309971
0.260511
-0.269669
-0.373471
-0.348946
-0.148332
-0.225586
-0.333694
0.0574554
-0.373267
0.0338196
-0.00295444
-0.27972
0.0344656
-0.358603
-0.373217
-0.283901
-0.294474
-0.121532
-0.0311488
-0.329647
0.217648
-0.0288993
0.413239
-0.0256499
-0.0579632
0.118472
-0.244804
-0.364389
0.154507
-0.291324
-0.25307
0.0147634
0.0682994
-0.254989
-0.066424
0.0148544
-0.258083
-0.321645
0.0577447
-0.366436
-0.224459
-0.239423
-0.23757
-0.340321
-0.111541
0.216467
-0.00559556
-0.374227
0.0238381
-0.109853
-0.100021
-0.357893
0.07577
-0.0155248
-0.10228
-0.252131
0.00792202
-0.373787
-0.345787
-0.341252
-0.025601
-0.347214
-0.241104
0.201385
-0.361537
-0.366378
-0.340111
-0.0128142
-0.265106
-0.000179722
-0.159845
0.456168
0.0199148
-0.347492
-0.342442
-0.24614
-0.225207
-0.0912776
-0.0300006
-0.303175
-0.139142
0.0748065
0.0408472
-0.276775
-0.353862
-0.292672
-0.14537
0.176775
-0.301936
0.48939
-0.0506078
-0.372199
-0.267251
-0.0287298
-0.0214991
0.29397
-0.324076
-0.0565374
-0.340754
-0.301023
-0.0516046
-0.220431
-0.240692
-0.0796998
-0.015104
-0.316804
-0.226325
-0.0606433
-0.320861
-0.205359
-0.254554
-0.372935
-0.361488
-0.307487
-0.255437
-0.21785
-0.0601839
-0.145827
-0.188584
0.0367318
-0.266746
-0.00876103
-0.0251763
-0.300574
-0.353042
-0.355424
-0.0244875
-0.0262737
0.20701
-0.00569611
0.0203754
0.379681
-0.146963
-0.0811779
-0.350961
-0.336322
-0.0825
-0.124519
0.30386
-0.309258
-0.147314
0.214401
-0.313745
-0.00654487
-0.338854
-0.337996
-0.0463391
-0.0314932
-0.368773
0.459392
0.066983
-0.311532
-0.12464
-0.220527
-0.371449
-0.203662
0.180157
-0.123293
-0.328883
-0.335355
-0.249423
-0.120349
-0.0253471
-0.127674
-0.085247
-0.359894
-0.248163
-0.0850244
-0.293336
-0.278979
0.0468781
-0.302401
-0.284436
-0.151091
-0.37023
-0.187948
-0.136154
-0.0979733
-0.335114
-0.218405
-0.00295524
-0.342671
-0.346974
-0.373023
-0.290192
-0.182022
-0.161077
-0.371658
-0.302933
-0.37082
-0.25378
-0.191918
-0.346071
-0.207987
0.0296863
-0.0211573
-0.148767
-0.371791
-0.339816
-0.247719
0.072232
-0.000245155
-0.242497
-0.344889
-0.00482493
-0.0482876
-0.357845
-0.0332733
-0.372713
-0.336085
-0.0684937
-0.281672
-0.056961
-0.118487
-0.016842
-0.0121665
-0.32499
-0.311474
-0.318139
-0.129578
-0.314543
-0.051237
-0.345476
-0.269815
0.301245
-0.0473357
-0.114767
-0.268682
0.0192858
-0.353343
-0.372085
0.00742051
-0.304556
-0.36982
-0.371646
-0.299061
-0.0297215
-0.340075
-0.0155362
-0.00636434
-0.325046
-0.0126174
-0.0459151
-0.368216
-0.236901
-0.329646
0.0290589
0.070151
-0.236691
-0.296352
0.397111
0.0321874
-0.0536627
0.0218051
-0.00366853
-0.358602
0.224761
-0.248094
-0.340045
-0.253051
-0.321614
-0.372868
-0.0254978
-0.308421
-0.337019
-0.137006
-0.282935
0.0231877
0.0278591
-0.306831
-0.267008
-0.025221
-0.0135117
0.00763642
0.0320575
0.515908
-0.369053
-0.0885869
-0.0124982
-0.34206
0.0735066
-0.286027
-0.191534
-0.312097
-0.290448
-0.263163
-0.0225557
-0.34221
-0.369704
-0.318383
-0.334905
-0.302232
0.134785
0.0287553
-0.147815
-0.237304
-0.0189242
0.121457
-0.0565959
-0.373938
-0.291224
-0.223929
-0.306463
-0.307762
-0.248576
0.477715
-0.0164234
-0.311421
-0.356883
-0.196332
-0.0548673
-0.0333056
-0.241918
-0.370212
-0.0046441
-0.115622
-0.0862317
-0.369893
-0.265247
0.124096
0.0196186
-0.365931
-0.372841
-0.184561
-0.142158
-0.122375
-0.373355
-0.251317
0.0283228
-0.0669606
-0.262014
-0.0959836
-0.2221
-0.31667
-0.105464
0.0299036
0.462877
0.0288504
-0.269205
0.00362346
0.0678606
-0.248997
0.0777125
-0.365661
0.00889282
0.0338041
-0.157938
-0.318959
0.0216492
-0.170202
-0.100308
-0.327173
-0.308719
-0.366789
-0.312294
-0.227646
0.0270391
-0.248005
-0.359277
-0.218931
-0.292256
-0.310976
-0.36909
-0.225751
-0.172489
-0.243686
-0.116235
-0.226003
-0.329859
-0.166741
-0.323484
0.0463886
-0.0420893
-0.0597312
-0.330972
-0.319363
-0.203151
-0.275061
-0.223652
-0.245393
-0.370368
-0.217487
0.0149609
-0.298056
0.0953561
-0.212506
-0.0163829
-0.298337
-0.0175608
-0.0635995
-0.235805
-0.240386
0.00359401
-0.0609399
-0.275951
-0.250474
0.192818
-0.372164
-0.338733
-0.0291118
0.021203
-0.0555778
-0.371563
-0.224643
0.0490418
-0.0574387
-0.249253
-0.00153405
-0.0740516
-0.0642204
-0.224457
-0.357172
0.225258
-0.300584
-0.319159
-0.167016
-0.339523
-0.0958573
-0.0983124
0.2118
-0.239584
-0.331691
-0.00137996
0.00378691
-0.217329
-0.0653936
0.0275064
-0.200556
-0.00168789
-0.0489344
-0.318041
-0.358807
0.0699935
-0.340355
-0.222305
0.00853537
-0.371512
-0.0942077
-0.295236
-0.26482
-0.0718903
-0.173431
-0.0526546
-0.243801
-0.179534
-0.295353
-0.0753318
-0.0294815
-0.249994
0.510697
-0.251951
-0.329145
0.202738
0.0449158
0.0268564
-0.086777
-0.267515
-0.359433
-0.24123
-0.225006
-0.181494
-0.25581
0.0343001
0.00879772
-0.152683
-0.065854
-0.336147
-0.0283897
-0.338163
-0.245398
-0.359423
-0.0404515
-0.162592
0.0126412
-0.289434
-0.0436194
-0.308279
-0.124723
0.032762
-0.336657
-0.00371354
-0.0504962
-0.0434055
-0.119775
-0.217257
-0.00821131
-0.246326
0.00183128
-0.238019
-0.197946
-0.238333
-0.00475925
-0.314995
0.150051
-0.247366
-0.293326
-0.168112
-0.276464
-0.372428
-0.369352
-0.0776527
0.00297215
-0.372311
0.0449951
-0.0155363
0.29932
-0.240127
-0.246851
-0.297371
-0.0423654
0.29118
0.131435
-0.235233
0.366318
0.0209855
-0.0181821
-0.241566
-0.227087
0.00110331
-0.253331
-0.250939
-0.0568343
-0.0628446
-0.295428
0.370684
-0.320383
-0.0468287
-0.191126
0.013486
-0.0453448
-0.240458
0.00263315
-0.238127
-0.146124
-0.321845
-0.0283721
0.0519211
-0.175097
-0.1262
-0.37231
-0.259239
-0.239169
-0.0029722
-0.168673
0.0267053
-0.135088
0.377761
-0.339914
-0.295373
-0.194057
-0.24495
-0.353447
-0.134557
-0.122761
-0.218728
-0.248262
-0.0640998
-0.124555
-0.275339
-0.353885
-0.230328
-0.371069
-0.019059
0.0150285
-0.318262
0.0749151
-0.357376
-0.0629539
-0.216495
0.028149
-0.16374
-0.0602498
0.338384
-0.34056
0.00266906
-0.0252899
0.00239195
0.0192702
-0.159142
-0.365847
-0.148511
-0.357145
-0.265257
-0.371273
0.37184
-0.062618
0.0638336
-0.0436763
-0.0700963
-0.165254
-0.0700347
-0.317278
-0.312872
-0.136741
-0.120736
0.0434846
-0.0658701
-0.236276
-0.0215921
-0.116309
-0.185778
-0.0606023
-0.306864
0.368452
-0.21696
-0.2948
0.0210921
-0.345302
-0.0924708
-0.0439387
0.0141946
0.0481926
-0.0779196
-0.0574978
-0.173201
-0.047693
0.0102389
-0.370532
-0.0472924
0.0475377
-0.158944
-0.0857708
0.031527
-0.219055
0.0617595
0.195042
-0.0297488
0.030623
-0.313297
-0.354766
-0.249625
0.437053
0.0130823
-0.305575
0.181166
0.0124248
-0.368656
-0.00985137
0.0106539
-0.174526
0.00876659
-0.250166
-0.0574643
0.341563
0.0396738
-0.310558
-0.273624
-0.160103
0.0560415
-0.373159
-0.335121
-0.357956
0.0279383
-0.256394
0.159778
-0.372655
0.0149672
-0.264849
-0.368426
-0.109274
-0.360258
-0.000349802
-0.346478
-0.122285
-0.175893
0.322122
-0.333718
-0.00737312
0.0417163
0.468229
-0.289891
-0.192393
-0.0148006
-0.284436
-0.365736
-0.365884
-0.255199
-0.0451536
0.405149
-0.276951
-0.330476
-0.171732
-0.241242
0.178014
-0.0495616
0.0269403
0.0295012
-0.0293166
-0.226072
-0.312193
0.0317623
0.0804698
-0.144732
-0.364227
0.222253
0.0745113
-0.284942
-0.296227
-0.289062
-0.082281
-0.317294
0.0304538
-0.112574
-0.151434
0.306138
-0.372941
-0.0160139
-0.348609
-0.245484
-0.348589
0.379485
0.0674964
-0.271088
0.0848641
0.511709
0.0207584
-0.0886881
0.164566
-0.220633
-0.0983291
0.0486514
-0.0254192
-0.173764
-0.373113
-0.0644308
-0.0187318
-0.340425
-0.278526
-0.370527
0.246995
-5.46553e-05
-0.23797
-0.055375
-0.0185762
-0.238271
0.138516
-0.343807
-0.296592
-0.319575
-0.333303
-0.28477
-0.253412
-0.347051
-0.366596
0.0187132
0.0319992
-0.002487
0.347284
-0.311216
-0.247266
-0.373997
-0.0662976
-0.369541
0.405486
-0.123892
-0.355742
0.199895
-0.280305
0.141909
0.0585997
-0.117982
-0.00576941
-0.252076
-0.00493257
-0.293093
-0.0810144
0.00825017
0.0401864
-0.370904
0.0473687
-0.0432699
-0.0189335
-0.249675
-0.120465
0.126649
-0.155162
-0.37087
0.0602695
-0.0282485
-0.00494213
0.389511
-0.0796115
-0.374196
0.0342961
-0.246465
-0.0328741
-0.298592
-0.276132
-0.00572673
-0.340452
-0.247861
-0.289217
-0.334343
-0.126418
-0.234773
-0.246385
-0.277203
-0.0463234
-0.169708
-0.290377
-0.00546799
-0.26317
-0.0399481
-0.370715
-0.337504
-0.242533
-0.0707313
-0.322722
-0.343336
-0.0587045
-0.374007
0.0108936
-0.0810043
-0.271163
0.464037
0.0485337
-0.136728
-0.243992
0.0597998
-0.34429
0.0308648
-0.248316
0.0313402
-0.346808
-0.314854
-0.0626355
-0.0623523
-0.00563096
-0.276084
-0.155459
-0.281088
0.104328
-0.0470797
0.404099
-0.266918
-0.373175
-0.280257
-0.0338729
-0.251216
0.0131388
0.0361625
-0.239043
-0.321938
-0.340307
-0.282338
-0.319246
-0.250301
-0.271311
-0.349571
-0.32764
-0.247187
0.0137134
-0.00462179
-0.0257204
-0.00146239
-0.215625
-0.3743
-0.369462
0.02728
-0.32755
-0.261422
0.02924
-0.308881
-0.0182604
0.450839
0.281872
-0.253622
-0.258557
-0.345747
-0.00875464
-0.344445
0.019854
0.0345708
-0.129698
-0.0642989
0.0519939
-0.139641
-0.0167021
-0.326729
-0.0456374
-0.262449
-0.0798369
-0.34062
-0.259429
-0.0462879
-0.348858
-0.257488
-0.368606
-0.37261
-0.346957
-0.0849248
-0.242623
-0.373905
0.032404
0.0227521
-0.369816
-0.00253971
-0.330625
-0.203386
-0.0806335
-0.342487
0.0717775
-0.270383
0.00812786
-0.107079
-0.281185
-0.327976
-0.357416
-0.141279
-0.36049
0.297709
0.265606
0.285586
-0.33695
-0.201947
-0.226505
-0.136606
0.0164063
0.052338
-0.281629
-0.288921
-0.0559106
-0.359822
-0.364901
0.00540247
-0.125885
-0.327315
-0.00268194
-0.371596
-0.254761
-0.0419103
-0.0742577
-0.259025
-0.0159445
-0.296655
-0.283089
-0.0189295
-0.325851
-0.281733
0.0209938
0.0133671
0.0929935
0.0891062
0.0312861
-0.27785
-0.235724
-0.0909721
0.268915
-0.350302
-0.0794173
0.0253336
0.135341
-0.0275789
-0.0187505
-0.322696
-0.0930456
-0.213567
-0.291587
0.0220532
0.520686
-0.332151
0.140466
0.00858883
-0.12417
0.361903
-0.0427906
-0.142052
-0.37003
-0.313
-0.144083
-0.323108
-0.354921
-0.245602
-0.211243
-0.309426
0.340724
-0.321916
0.246191
0.0108998
-0.288102
-0.166162
-0.224757
-0.192728
0.299682
0.0994583
-0.373668
-0.103129
-0.0558272
-0.113193
0.0251668
-0.225917
0.191579
-0.342389
-0.374047
-0.304969
0.0461447
-0.255065
-0.307562
0.0103288
-0.36749
-0.170482
0.491721
-0.327778
-0.152334
-0.320212
-0.364181
-0.0583836
-0.275386
-0.0619115
-0.360174
0.0661062
-0.261161
-0.326297
-0.0671818
-0.317527
0.129523
0.0698911
0.389333
-0.168227
0.454988
-0.37034
-0.196574
-0.111924
-0.232377
-0.173625
-0.25587
-0.127051
-0.3684
-0.32125
0.0423699
0.421996
-0.254101
-0.283031
0.0439155
-0.0636628
-0.359018
0.353836
-0.100607
-0.266674
-0.347373
-0.201355
-0.306871
0.23774
-0.113794
0.00494775
-0.317213
-0.349745
-0.0296206
0.229409
0.00145769
-0.264771
0.36951
-0.0224912
-0.36064
-0.172785
-0.0377674
-0.255985
-0.356071
0.258931
-0.12111
-0.255816
-0.267683
-0.122891
-0.116683
-0.178402
-0.0431207
0.014603
-0.0594488
-0.297039
0.0345133
-0.321282
-0.067752
-0.241601
-0.0661165
-0.357981
-0.282921
-0.0624791
0.0284946
-0.147302
0.240789
-0.277659
-0.0637083
-0.309457
-0.218331
-0.0199204
-0.327758
-0.357373
-0.278215
-0.322013
-0.00439762
-0.255701
-0.368881
-0.280252
-0.257443
-0.253591
0.0498647
0.311021
-0.0740597
0.224319
-0.138628
-0.0426256
0.0393729
-0.00113959
0.000282313
-0.243555
-0.346121
-0.269892
-0.194367
0.488194
-0.367287
-0.0226095
-0.110066
-0.283811
0.21281
-0.0636161
-0.320406
-0.246994
-0.294418
-0.252896
-0.313226
-0.0660476
0.210309
-0.0722081
-0.37319
-0.0195407
-0.220273
0.435987
-0.273477
-0.120382
0.0287057
-0.252196
-0.12409
-0.238501
0.164696
-0.266872
-0.242569
-0.282529
-0.313704
-0.200382
-0.204559
-0.105062
-0.314734
-0.269994
0.385414
-0.325401
-0.0192127
-0.217218
-0.00160983
-0.283292
-0.0114341
-0.315383
-0.0164523
-0.342296
-0.373481
0.366604
-0.339017
0.0569437
-0.0281491
-0.363398
0.000240189
0.042364
0.0929158
-0.373864
0.0338808
-0.36604
-0.274085
-0.109033
0.14419
-0.268813
-0.325262
-0.0172667
-0.194723
0.0333494
-0.332569
0.00105233
-0.277551
-0.373126
-0.315494
-0.320924
-0.234822
0.283696
0.0939163
-0.113524
0.147534
-0.176476
-0.205758
0.000615363
-0.14539
-0.0433442
-0.230559
0.00188858
-0.321219
-0.340854
-0.223572
0.0908168
-0.0244079
-0.34712
-0.344403
-0.267441
-0.0143968
-0.00511978
0.451857
-0.228421
-0.0373681
0.340747
-0.0772935
0.0944211
0.0156271
-0.234528
-0.0413034
-0.2686
-0.206799
-0.0844236
-0.000145149
-0.301366
-0.251025
0.48497
-0.262961
-0.0310477
-0.0266942
-0.235408
-0.145789
-0.333616
0.229801
-0.0110542
0.0611241
-0.282685
-0.0290958
-0.00834404
-0.0199689
0.0344078
-0.00434281
-0.370424
-0.31418
-0.356704
-0.280118
-0.25875
-0.268708
-0.219109
-0.107656
-0.00489189
-0.223851
-0.175465
-0.157774
-0.0859183
-0.284757
-0.293179
-0.124762
0.10174
-0.278562
-0.239576
0.288392
-0.326937
-0.279519
-0.320662
0.00550273
-0.00898338
-0.115006
0.0289527
-0.367476
-0.360521
-0.311133
-0.231627
0.230001
-0.265813
-0.373905
-0.0976035
0.320302
0.114217
-0.0184621
-0.260143
-0.0892193
-0.0658099
-0.27365
-0.249318
-0.351779
-0.246443
-0.305116
0.0337893
-0.00627843
-0.309722
-0.217159
0.0329295
-0.366927
-0.371595
-0.0117656
-0.0377543
-0.107426
0.0335788
0.0185261
0.0398279
0.0460998
-0.218453
0.132814
-0.225338
-0.138348
-0.00935739
-0.314186
-0.232117
-0.0165142
0.173883
-0.238336
0.42093
-0.372316
-0.00643102
-0.233845
-0.0464933
-0.0629284
0.504889
-0.00552444
-0.0669411
-0.00495719
-0.24026
-0.372836
-0.266741
-0.257519
-0.33255
-0.310991
-0.228675
-0.140554
0.00055468
0.408925
-0.098893
-0.00285262
-0.257468
0.025123
-0.272163
-0.0537234
-0.00396731
0.0577708
-0.214832
-0.342261
-0.21541
-0.0470613
0.0117755
-0.30466
0.0956566
-0.0899961
-0.0889354
-0.264058
-0.0246222
-0.331551
-0.341977
-0.0411314
-0.234489
-0.00341554
-0.0230724
-0.111709
-0.0262879
-0.0326945
-0.297678
-0.303587
-0.292398
-0.25091
-0.083663
-0.368614
-0.16297
-0.33085
-0.341194
-0.122386
-0.254822
-0.0860922
-0.181821
0.0473135
0.0976217
-0.0209728
-0.329333
-0.338546
-0.306522
-0.261551
-0.0305191
-0.243104
-0.357879
-0.366032
-0.315948
-0.240877
-0.0125232
-0.0247171
-0.103379
0.0796843
0.0118319
-0.0552346
-0.199752
0.0339403
-0.0949474
-0.291768
-0.0857868
-0.00544796
-0.298166
-0.188855
-0.281006
-0.0156395
-0.0568472
-0.27795
0.0672985
-0.36021
-0.0383638
-0.32207
-0.213245
-0.198471
-0.0537047
-0.308613
-0.00895917
0.0307534
-0.342083
0.00484965
-0.317856
-0.0306693
-0.300289
0.135517
-0.284792
0.0323471
0.484912
-0.0487094
-0.00524857
-0.0096449
0.0863627
-0.142601
-0.370026
-0.101845
-0.294283
-0.273636
-0.164607
-0.0939944
-0.116344
-0.293977
0.0230911
0.197952
-0.358804
-0.0957043
-0.323355
-0.335523
-0.354421
0.166426
0.0200068
0.019212
-0.325634
-0.0458066
-0.0309215
-0.305264
0.41009
-0.270457
-0.00396775
-0.0988441
-0.0214992
-0.257795
-0.287988
-0.0718912
-0.321337
-0.359445
-0.00124933
0.0548133
-0.0688678
-0.141789
-0.0881562
-0.0645318
-0.282834
-0.321351
-0.371794
-0.00942403
-0.0821309
0.327162
-0.281369
0.0336911
-0.369251
-0.13081
0.0037169
-0.0928729
-0.0429725
-0.110788
-0.0859215
-0.00307749
-0.311218
-0.323586
-0.0417967
-0.228503
-0.326418
0.0146934
-0.11894
-0.290072
-0.0935277
-0.124009
0.0637219
-0.00496089
-0.29207
-0.29353
0.0103764
0.0132496
-0.296089
-0.281928
-0.11009
-0.0946198
-0.324535
-0.353933
-0.373125
-0.343354
-0.278092
-0.118901
-0.0811725
-0.0314538
0.127259
0.0434185
0.0780166
-0.297569
0.444573
0.0451598
-0.358265
-0.358231
-0.00562389
-0.170044
-0.0994298
-0.261278
-0.00719695
-0.280425
-0.1152
-0.265508
-0.0180406
-0.31338
-0.253931
-0.282787
0.0261286
-0.279538
0.0449776
0.0974059
-0.330845
-0.0177538
-0.00318542
-0.105285
0.00507837
0.483678
-0.0444198
-0.285404
-0.0278419
-0.369389
-0.343091
-0.14317
0.392205
-0.118196
-0.0328369
-0.308913
-0.336722
-0.358487
0.483134
-0.293499
-0.279617
-0.34149
-0.294225
-0.00546321
0.0520196
-0.0465849
-0.0136988
-0.172047
-0.31486
-0.343959
-0.0410302
0.0347974
-0.160432
-0.34531
-0.0689191
-0.0428586
-0.255142
-0.122747
-0.240749
-0.00144204
0.230057
0.0226638
-0.262096
-0.0622371
0.393068
-0.206134
0.0443368
-0.0194405
-0.0652218
-0.14674
0.0316568
-0.304017
-0.339355
0.0308606
-0.328492
-0.325108
-0.00125411
0.218868
-0.263753
-0.196123
-0.267984
-0.0243352
0.433715
-0.0326013
-0.25514
-0.0205612
-0.272169
-0.103637
-0.190157
0.0244873
-0.287663
-0.305201
-0.265276
-0.00644141
-0.336644
-0.233051
-0.357712
0.0468568
0.0330045
-0.370288
-0.365145
0.139817
-0.353094
-0.062649
-0.328562
-0.369412
-0.313534
-0.0868057
0.0939908
-0.247225
-0.332814
-0.318507
-0.0903032
-0.00803268
-0.113411
0.00639394
-0.0418808
-0.202771
0.13474
-0.0270542
-0.22922
-0.373404
-0.32239
0.0193391
-0.0500132
-0.258336
-0.32372
0.124937
-0.333757
-0.357372
-0.0469971
-0.307501
-0.237992
0.515906
-0.272014
-0.170217
-0.25538
-0.149836
0.0874138
-0.132173
0.084162
0.426185
-0.34005
-0.30497
-0.25475
0.0528883
-0.34286
0.173113
0.00938361
0.356379
0.0209674
-0.223777
-0.0925955
0.157164
-0.310232
-0.036815
-0.242627
0.0658369
-0.298954
-0.221161
0.0347165
-0.091256
-0.182685
0.0327455
-0.336083
0.115208
-0.0110995
-0.0359279
-0.261833
-0.248299
-0.253205
0.382524
-0.0207692
-0.0128838
-0.00787884
-0.227723
0.0979857
-0.32843
-0.293869
-0.0117962
0.153851
0.0570655
-0.0920117
0.0272797
0.0153262
-0.265133
-0.15108
-0.166095
-0.334886
0.0138509
-0.10803
-0.278374
0.113418
-0.368984
0.137123
-0.294141
-0.291496
-0.279259
-0.344702
-0.263995
-0.0356499
-0.291775
0.190647
0.00427589
-0.130701
-0.0400351
-0.116253
-0.0482118
-0.293287
-0.261416
-0.352916
-0.124753
0.140533
-0.091465
-0.0225531
-0.255421
0.0484902
-0.0589057
-0.372249
-0.280825
-0.372179
-0.328649
-0.278679
-0.24219
-0.0647347
-0.158419
-0.327409
-0.025302
0.134665
-0.28958
-0.115117
0.0756355
-0.0575111
0.0136531
-0.00402812
-0.0747374
-0.355531
-0.273645
-0.000756776
-0.0919007
-0.245071
-0.29811
-0.0705837
-0.026187
-0.0971729
-0.0226772
-0.315368
-0.0782222
-0.0249196
-0.203359
-0.369773
-0.0045088
0.123761
-0.37223
-0.139591
0.246388
-0.0185219
-0.0544287
-0.0648993
-0.0443544
-0.0221909
0.0474774
-0.0487607
0.211134
-0.00899125
-0.353558
-0.131101
-0.31636
-0.129785
-0.0296215
-0.0415894
0.0140255
0.00370529
0.127735
-0.307075
0.0519796
-0.257157
0.116647
-0.371178
-0.0652721
-0.0244109
0.000716554
-0.366866
-0.282637
-0.304198
-0.284641
-0.10676
-0.0780347
-0.262119
-0.0834329
0.0911375
0.053332
0.0791773
-0.225736
0.00890645
-0.112339
-0.282242
-0.314375
-0.0382387
-0.328173
-0.248254
-0.341405
0.0236078
-0.282605
-0.240176
-0.0184172
-0.0934427
-0.0120648
-0.135717
-0.309738
-0.0303688
-0.251968
-0.372021
-0.373387
-0.23241
-0.213507
-0.0525972
-0.305989
-0.365016
-0.224266
-0.241943
-0.044966
-0.272622
-0.191313
-0.370942
0.283141
-0.079763
-0.0447918
-0.0570527
-0.373199
0.00147281
0.123963
-0.338918
-0.0639339
-0.356272
-0.117429
-0.0762463
-0.234382
-0.120604
-0.368653
0.0308755
-0.343413
0.0684437
-0.364648
-0.262476
-0.316063
-0.0861153
-0.0446371
-0.00445082
-0.0143587
-0.0265663
0.467975
-0.304728
-0.358693
-0.255643
0.46985
-0.280595
-0.187001
-0.0334765
-0.0507571
-0.076371
0.061045
-0.252457
0.14269
-0.311997
0.0533348
-0.347916
-0.355053
-0.151341
0.0735605
-0.229211
-0.355194
0.0660042
0.084394
-0.0494407
-0.350637
-0.372792
-0.35509
-0.309561
-0.052916
0.503837
-0.0402218
-0.251682
-0.28661
0.085473
-0.128129
-0.0424266
-0.344717
-0.24769
-0.0746334
-0.271631
-0.373922
-0.227947
-0.278432
-0.0644588
-0.264541
0.27348
-0.349266
-0.212381
-0.226026
0.129139
-0.372089
0.158604
-0.126806
-0.334126
-0.291592
-0.248012
-0.100155
-0.328009
0.497995
-0.0722856
-0.0513637
-0.139964
0.00894694
-0.0118892
-0.0094774
-0.102537
-0.0395105
-0.238347
-0.233798
-0.0102975
-0.335442
-0.283962
-0.330241
0.0681038
-0.032174
0.114247
-0.244555
-0.276214
0.512616
-0.371693
-0.22211
-0.281836
0.381284
-0.192994
0.0504831
0.0303533
-0.312266
-0.0856037
-0.32545
0.213095
-0.35986
0.417452
-0.272708
-0.249267
-0.0764574
-0.202066
-0.317367
-0.370249
-0.308702
-0.372078
0.0921784
-0.373145
-0.355699
-0.327839
-0.299664
0.48156
-0.204102
-0.169195
0.292046
-0.303787
-0.0102088
-0.101882
0.412113
-0.242859
-0.0920736
-0.320788
-0.367249
-0.327652
-0.35212
-0.299988
-0.3059
-0.311085
-0.000397594
-0.371352
-0.365604
-0.307802
-0.317793
-0.349411
-0.271813
-0.364144
-0.363082
0.0935289
-0.109763
0.0015853
-0.233162
-0.274859
-0.251143
-0.239902
-0.289681
-0.207538
-0.31906
-0.27023
-0.0207936
-0.299086
0.0275682
-0.373648
0.0485431
-0.306223
-0.307875
-0.0322618
-0.0779253
-0.104008
0.00461493
-0.174966
0.167668
0.405144
0.0806849
-0.260903
-0.3436
0.107469
-0.330525
-0.0965368
-0.355326
-0.0999839
0.177969
-0.358972
0.0657587
0.0812445
-0.32134
-0.23887
-0.306057
0.206286
0.192555
-0.042484
0.302851
-0.292062
-0.373622
-0.0609448
-0.36809
-0.00503938
-0.309033
-0.227076
0.0721468
-0.267417
-0.0905268
-0.0187897
-0.256308
0.0302553
-0.150088
-0.327196
0.110275
-0.291832
-0.167882
-0.234917
-0.243145
-0.165796
-0.335908
-0.0060769
-0.212227
-0.172514
-0.37239
-0.028663
-0.323234
0.151084
-0.0395275
-0.223041
0.137004
-0.00460176
-0.0432275
0.281018
-0.345848
-0.110078
-0.29735
-0.305306
-0.25349
-0.359435
-0.360097
-0.238629
-0.0849798
0.401988
-0.278455
-0.348474
-0.114668
0.0220848
-0.0945479
-0.0623727
0.149743
-0.300397
-0.324757
0.354215
-0.336045
-0.207244
-0.354939
-0.146495
0.31672
-0.274315
-0.0998223
-0.341294
-0.194753
-0.244698
0.256153
-0.302461
-0.0807579
-0.286789
-0.0737484
-0.0423824
-0.251136
0.0243988
0.114741
-0.0175618
-0.0818963
-0.282372
-0.00051918
-0.196009
-0.0429637
-0.291431
-0.0380425
0.118182
-0.0984716
-0.105729
0.374315
-0.211737
-0.161387
0.114091
-0.127461
-0.197896
0.0275986
-0.133653
0.322492
-0.105704
0.322752
-0.264129
-0.106736
-0.325091
-0.286315
-0.0017537
-0.26838
-0.310662
-0.294853
0.271661
-0.250736
0.276562
-0.139867
0.0291502
0.0862322
-0.346102
-0.334277
-0.307491
-0.112121
0.201631
-0.355526
0.210845
-0.317843
-0.0392435
-0.300014
-0.139015
-0.245378
-0.0871363
0.490481
-0.343692
0.00221147
-0.138354
-0.00885792
-0.0355266
-0.277952
-0.259828
-0.291932
-0.176504
0.0146593
-0.316031
0.446602
-0.074527
-0.340162
-0.312272
0.112728
0.0359907
-0.338272
-0.205547
-0.0349633
-0.262653
-0.185307
-0.345002
-0.284168
-0.316323
-0.236292
-0.362254
-0.142393
0.0243304
0.00868909
-0.088825
-0.127717
-0.329768
-0.301895
0.0816984
0.473133
-0.359268
-0.327601
-0.312788
-0.305704
-0.316228
0.0793994
-0.352571
-0.267476
-0.083661
0.305092
-0.143405
-0.340452
-0.346932
-0.0131446
-0.171733
-0.344255
0.0326259
-0.0553576
0.0213603
-0.0165808
-0.298757
-0.0900578
-0.23886
0.0227888
0.504365
-0.165526
-0.26734
-0.364532
-0.320509
-0.00134609
-0.266431
-0.277435
-0.0457276
-0.349887
-0.278659
0.446864
-0.270508
-0.276526
0.362109
-0.020998
0.0183437
0.0292417
-0.320443
0.301677
-0.291026
-0.0854654
-0.236125
-0.0554566
-0.306
0.0928885
-0.363945
-0.358708
0.22008
-0.371599
-0.0376363
-0.160573
-0.135463
-0.0853841
0.062374
-0.0156728
-0.082086
-0.200527
-0.0677942
0.49508
0.128269
-0.0561887
-0.275715
-0.277112
-0.0449765
-0.162675
-0.0276041
-0.355529
-0.345938
-0.00804512
-0.168654
0.478952
-0.18082
-0.0333822
-0.360258
0.522225
-0.259318
0.17592
-0.208937
-0.075585
-0.343198
-0.224679
-0.138501
-0.311969
0.010637
-0.108584
-0.104315
-0.336907
-0.0440665
-0.0545162
-0.347092
-0.332422
-0.368388
0.0782608
-0.326757
-0.0195194
-0.0182841
-0.342403
-0.0870132
-0.327902
-0.284215
0.0201768
-0.059162
-0.0743148
-0.369684
0.366019
-0.355883
0.0651936
-0.21783
-0.0444029
-0.353313
-0.0159905
-0.171419
-0.275852
0.452255
0.0305953
-0.372475
0.497698
-0.3531
-0.0397217
-0.00991232
-0.0789102
-0.25857
0.458958
-0.263077
-0.040029
-0.208402
-0.315205
-0.112171
-0.0286432
-0.335192
-0.256249
-0.136267
0.285451
-0.292659
-0.0514694
0.0296314
-0.224179
-0.0099623
0.0535365
-0.346487
0.255994
-0.27963
0.0567423
-0.284084
-0.00642474
-0.00571638
0.230033
0.325339
-0.328239
-0.369676
-0.324079
-0.100159
0.314421
-0.00264836
-0.0744369
-0.367316
-0.236794
-0.184234
-0.241899
-0.268035
-0.0191412
-0.11259
-0.284883
0.0966185
-0.163653
0.0257741
-0.256416
0.460549
0.210532
-0.00709414
-0.143231
-0.135981
-0.294057
0.127611
-0.118883
-0.226794
-0.002557
-0.0796687
-0.118779
-0.283548
-0.239981
-0.271735
-0.00379347
0.06135
-0.3324
-0.28286
-0.136441
0.197376
0.00151473
-0.356645
-0.0399361
0.157206
-0.0397154
-0.23246
-0.139408
0.0654149
0.00811339
-0.196693
-0.162204
0.0113936
0.169923
0.0888369
0.120346
0.498447
-0.24606
-0.309498
-0.0491462
-0.00299563
-0.148191
-0.0875481
-0.300697
-0.0508829
-0.0428607
-0.062353
-0.241587
-0.0380268
0.0612638
-0.366851
-0.0575808
-0.206208
-0.326349
0.0386157
0.0888141
-0.259282
-0.323386
0.0811571
-0.10433
-0.324036
0.27292
-0.0884194
0.506483
-0.346459
-0.0883588
-0.320672
-0.0315921
0.180979
-0.371588
-0.3567
-0.171609
-0.0138144
0.0254412
-0.300362
0.352097
-0.36003
-0.0784119
0.102912
0.0099921
-0.0557097
-0.250456
0.0644616
0.514174
-0.0583302
0.0532786
-0.0244218
0.332003
-0.283418
-0.0593863
0.240042
-0.147158
-0.255105
-0.259661
0.0479692
0.0493515
-0.275407
-0.258694
0.158839
0.251689
-0.263093
-0.00347123
0.043465
-0.17692
-0.339041
0.304861
-0.371399
-0.309417
-0.305457
0.396464
-0.00962078
0.248912
-0.36415
-0.20023
-0.317629
0.32637
-0.301563
-0.0897976
-0.316904
-0.362124
-0.0685169
-0.260618
-0.0485587
-0.201715
-0.0312853
-0.0761457
-0.0624214
0.337213
-0.000217616
-0.0572368
-0.0250724
-0.0570316
0.0468911
0.315229
0.0757501
0.042274
-0.374083
-0.0326234
-0.273385
-0.275889
-0.0375864
-0.240096
0.0137744
0.469752
-0.0313363
0.119816
0.141651
-0.36657
0.131078
-0.244489
0.360859
0.0278978
0.115102
-0.352397
-0.330376
0.212925
0.509486
-0.289648
-0.162272
0.011259
-0.168859
-0.277631
-0.0380128
0.451973
-0.302914
0.00988751
-0.0256548
-0.199892
-0.241497
0.0439188
0.0243728
-0.372937
-0.184918
-0.119428
0.0293218
-0.289504
0.0623474
-0.334606
-0.32376
-0.242978
0.0191224
-0.0171392
-0.278042
-0.280961
-0.369451
-0.0325888
0.00974054
-0.290481
-0.244262
-0.32405
-0.371918
-0.0940044
0.137343
-0.362567
-0.0949766
-0.0431456
-0.273695
-0.0240528
0.025214
-0.25436
-0.257104
-0.345575
-0.0602489
-0.228757
-0.298783
0.521497
-0.121843
0.00478845
-0.340188
0.00883631
-0.0777907
0.27131
0.355318
-0.238541
0.00948127
0.0169156
-0.368309
-0.216103
-0.365784
-0.2651
-0.353387
0.0913393
-0.0865277
-0.253746
-0.369033
-0.00235284
0.501366
-0.199576
-0.364345
-0.0391892
0.148312
-0.00635728
-0.113052
-0.256341
0.0186504
-0.0927143
-0.17808
0.0363456
-0.0139144
-0.120721
-0.176168
0.0584556
-0.115198
-0.0490028
0.319943
0.43399
-0.329293
-0.308642
-0.246069
-0.361153
-0.325133
0.022248
-0.147773
-0.0970239
-0.372979
0.519006
-0.271548
-0.306854
-0.016362
-0.347238
-0.0171123
-0.361653
0.0232639
0.1949
0.162175
-0.049346
-0.0570669
0.0300254
0.169715
0.386444
-0.00173047
-0.32225
-0.277593
0.0438058
0.237581
-0.241455
-0.0129956
-0.0794515
-0.253002
-0.186027
-0.211301
0.118866
0.22889
0.0515833
0.177133
-0.275325
-0.0315671
-0.326283
0.025466
0.0566815
0.0285097
-0.269297
-0.0746929
-0.34558
0.0464787
0.0326279
-0.356393
-0.189908
-0.351933
-0.259886
-0.0404223
-0.295764
-0.306464
-0.247221
0.0264009
-0.238366
-0.0689227
0.406561
-0.0504184
-0.350428
-0.0492488
0.000598474
0.0255035
-0.146463
-0.297216
-0.300915
-0.317623
-0.0759586
-0.218732
-0.302174
0.0496497
-0.263948
0.452964
-0.333059
-0.216758
-0.107294
-0.353272
-0.191205
0.413427
-0.142017
0.0201212
0.0448856
-0.167619
0.179027
0.190042
-0.0172776
-0.361246
-0.011972
-0.0429581
-0.0447511
-0.297924
-0.255293
-0.260517
0.0378977
-0.275984
-0.0583945
-0.323534
-0.273091
-0.0881497
0.190512
-0.265281
0.024857
-0.220652
0.00826359
-0.232879
-0.045988
-0.00704276
0.316805
-0.269506
-0.222941
-0.298205
-0.326968
-0.354909
-0.0684735
0.0349628
-0.331627
-0.315015
-0.287614
-0.0473296
-0.0937352
0.0317046
-0.154998
-0.312501
-0.175948
0.0863035
0.0457185
-0.00807981
-0.362457
-0.316314
-0.275586
-0.305918
-0.0195096
0.0389145
-0.0682424
-0.281557
-0.263658
-0.355654
0.113095
-0.0775484
-0.255362
0.132674
-0.328539
-0.364365
0.0614523
-0.299323
0.0100837
0.431154
0.0248547
-0.0253632
-0.305128
-0.0610977
0.117349
-0.0265148
-0.051439
-0.254248
-0.00142677
-0.214556
-0.353318
-0.362784
-0.342603
-0.269161
-0.312976
0.0868635
0.312075
0.0884768
-0.307369
0.0296718
-0.325021
-0.352968
0.142082
-0.334468
-0.167906
-0.279924
0.0235417
-0.0801494
-0.320248
-0.329838
-0.250714