/*--------------------------------*- C++ -*----------------------------------*\
| =========                 |                                                 |
| \\      /  F ield         | OpenFOAM: The Open Source CFD Toolbox           |
|  \\    /   O peration     | Version:  v2012                                 |
|   \\  /    A nd           | Website:  www.openfoam.com                      |
|    \\/     M anipulation  |                                                 |
\*---------------------------------------------------------------------------*/
FoamFile
{
    version     2.0;
    format      ascii;
    class       volScalarField;
    location    "300";
    object      ddt0(k);
}
// * * * * * * * * * * * * * * * * * * * * * * * * * * * * * * * * * * * * * //

dimensions      [0 2 -3 0 0 0 0];


internalField   nonuniform List<scalar> 
13308
(
1.05059e-06
-0.000632772
5.57955e-05
2.05253e-09
-1.27067e-07
1.64881e-09
8.88475e-07
1.11316e-08
2.11893e-07
-0.00670966
0.0206286
-0.00269097
1.89941e-08
-5.80136e-09
-7.34472e-07
-0.000113668
7.36252e-06
-0.00066893
-0.00179016
-0.00922243
1.46254e-07
-0.000341416
0.00101822
1.37832e-07
-0.000150637
0.000552757
1.36709e-07
0.0193957
1.46134e-07
1.54828e-06
-0.000416059
1.27517e-06
0.00089417
-5.74148e-07
0.00756397
7.14369e-06
8.23638e-07
0.00116871
8.734e-08
-2.92852e-05
5.87186e-09
7.9594e-10
-0.00194929
3.84907e-09
6.54616e-08
0.000976211
-7.34648e-07
1.06622e-08
5.13913e-07
5.28703e-05
1.37336e-08
-6.79421e-08
-0.000567492
0.00825342
-0.000239466
-9.16592e-05
-3.05831e-09
-7.91565e-08
1.56995e-07
1.39538e-07
0.0148532
0.000985923
-8.01057e-08
-1.36942e-08
-3.0096e-09
0.000811236
-1.01912e-09
0.00189596
-1.57299e-09
-2.54456e-05
-0.000595474
7.38342e-08
-1.14627e-05
1.35605e-06
0.00479109
8.69102e-08
5.37433e-09
-7.93329e-05
-6.59033e-09
0.000515224
-8.23865e-08
8.94953e-09
1.00295e-07
1.42993e-07
0.000708166
1.81093e-08
-0.000299949
-0.00972456
-0.00880096
-0.00871305
-4.59242e-09
-1.73017e-09
3.38564e-07
1.82372e-07
5.07453e-09
4.59475e-08
1.44512e-08
0.000994197
-0.0015656
4.98881e-06
-1.09493e-08
9.65701e-09
-2.87249e-09
2.88999e-07
0.0270869
-0.000455124
8.80233e-05
-1.83255e-09
0.000331159
0.000604108
3.46847e-08
-2.14749e-06
-2.18291e-07
9.80093e-09
-2.95152e-07
-0.00688515
0.00151922
-0.00884987
2.15633e-07
-3.458e-08
1.32875e-07
3.8001e-07
-1.18063e-08
-0.000476514
-0.00133859
-0.00106141
0.0018308
0.000896045
-2.39144e-05
-0.000233664
-0.00144797
-1.09279e-06
-1.78387e-08
4.64599e-08
-6.67474e-08
-0.000243187
3.84894e-09
-0.00146273
-1.32625e-06
3.58096e-08
1.80792e-06
3.22979e-08
1.77072e-08
-1.48596e-07
5.43653e-08
-9.05235e-07
-0.000131272
-0.00917367
-8.12278e-08
-2.20602e-06
-0.000313336
-6.50677e-09
-0.0135859
0.0153904
0.00312947
-2.87537e-06
4.6373e-09
1.06276e-08
3.69252e-09
0.00077964
-0.00619356
-8.29326e-08
-8.29867e-10
0.00101049
-3.34176e-06
2.68886e-06
-0.000342084
1.09537e-08
0.000306306
-1.27091e-07
2.0082e-08
-0.00893601
-1.09572e-08
1.18239e-05
-0.000203343
0.000177755
-0.000256019
6.60167e-05
-1.8221e-06
-6.84232e-09
-0.00204973
-0.000550879
1.18528e-09
-0.011456
0.00146694
2.45181e-09
-8.40521e-05
-0.000418025
1.57572e-06
-0.000411764
-0.00278717
-0.012444
5.55062e-08
-0.00243496
4.45585e-08
0.00025341
1.62304e-08
-0.000202197
0.000684351
2.79903e-10
-0.00011913
-0.000553642
0.0071276
-2.60967e-07
-0.000222555
0.000236959
-0.000115572
0.00485078
0.000996198
-0.000208982
0.00279275
-5.98218e-06
-4.82635e-07
1.7286e-05
0.000616501
5.01194e-07
4.01919e-09
-0.0106415
-7.70566e-05
0.00458512
0.0197452
-6.98037e-09
-2.89101e-06
-9.53809e-10
4.47265e-07
-0.000395957
-5.55796e-07
0.0302372
-8.20647e-05
5.09624e-05
-6.12806e-05
8.97984e-07
4.65876e-05
0.00154246
2.45955e-05
-4.09082e-07
-0.00062267
-0.00200299
0.00324637
3.44925e-07
2.16255e-07
3.84437e-05
1.20106e-07
1.7576e-09
0.00272957
0.00229899
-5.22539e-05
-0.00407747
-2.35683e-09
0.00163358
0.000599915
0.000921995
5.01831e-09
0.000934111
-0.00073031
5.56035e-07
-0.0122635
-1.14554e-08
0.0116969
-8.80179e-05
1.64115e-06
-0.000798894
-4.4104e-07
-6.27123e-08
-4.0554e-06
-5.12558e-07
-0.000988438
-2.41197e-08
0.0241027
-0.000308027
-0.00472563
1.15895e-07
-3.15371e-09
-2.77208e-06
-1.90366e-08
-3.08708e-09
4.97723e-08
0.00731039
-1.39653e-07
-1.09141e-06
0.000322531
-5.98531e-09
-0.0067028
5.95472e-07
-0.000404021
-0.0198616
-7.06183e-08
1.11977e-06
-4.06216e-06
0.000618757
4.10338e-07
8.2992e-10
-0.000919257
-0.000576917
4.04187e-08
0.00958703
-7.01439e-05
1.64029e-06
-1.59502e-06
-0.000366377
0.000857544
2.93715e-07
0.000523794
0.00242563
0.00246789
7.30578e-08
8.04099e-07
2.47039e-05
-0.00255716
2.58786e-09
-0.00787214
7.79086e-05
2.79659e-07
0.00899277
0.00473233
-0.000177453
5.69253e-09
3.59687e-08
-1.31746e-09
-0.000949809
7.99442e-09
6.51595e-09
-0.000219254
2.10933e-09
-0.000482558
-2.45103e-07
5.44616e-07
5.1447e-09
8.1795e-08
-1.38207e-06
0.000759224
6.81309e-09
-0.0062106
3.75247e-08
-6.12593e-09
0.00227026
-0.000222073
9.7594e-09
-6.46583e-07
-0.00359704
-3.64413e-08
8.88595e-09
1.6767e-08
-3.87229e-07
0.0177475
0.00474311
-3.2965e-09
4.01171e-06
-4.78595e-08
-5.39755e-08
-5.19098e-07
-0.000481775
0.013406
-5.48786e-09
1.21083e-06
1.20656e-07
-0.000373008
1.24975e-07
3.4099e-06
-0.00100678
-0.00307516
-8.99197e-08
-1.59765e-07
-0.000746997
-0.000638994
0.000767424
-5.53831e-11
1.47216e-09
-8.09448e-08
-4.80222e-08
-9.69502e-05
-2.68761e-05
4.01918e-05
1.47552e-08
-6.27502e-08
-1.87566e-06
0.00107482
0.000913697
-6.71488e-08
0.00773345
8.46225e-09
4.59253e-08
-0.00204899
-2.23783e-07
5.5821e-08
-0.000623188
-1.63096e-06
2.60537e-07
3.8967e-10
-0.011159
-9.00928e-09
0.000247542
-9.73088e-06
-0.000205421
-0.00926121
1.77125e-06
0.00715493
-7.09274e-09
0.0140111
-2.01442e-08
-0.00222975
-7.70892e-09
3.11467e-06
0.000773597
-2.19307e-08
0.00906552
5.40757e-09
-1.03303e-08
-0.0015429
0.0262173
2.88535e-07
1.44953e-05
-0.00176884
-4.00409e-09
1.91548e-09
0.00209283
7.02953e-09
3.97794e-09
2.05255e-07
-1.83621e-06
-4.37871e-06
-6.19669e-08
-1.69652e-09
-1.5749e-08
-2.39828e-07
9.40035e-05
-0.00283415
5.09285e-08
0.00965706
-0.00296064
-0.0160873
-1.03091e-08
-7.50864e-06
0.000527424
-4.80822e-08
2.29326e-09
0.00110605
-1.45188e-09
5.85156e-07
-2.93677e-05
5.14213e-05
-0.000189216
9.45344e-05
-4.7755e-08
-0.000653959
-4.6751e-08
-0.00756116
-0.000583253
3.54064e-09
0.00187096
9.77186e-07
-0.00139675
-0.000642459
-0.00057697
9.92653e-08
6.73748e-07
-1.8065e-07
-0.00289291
0.00125993
3.73414e-06
-0.0027027
-0.000620185
4.16133e-09
-0.00752795
-2.50883e-08
-2.88495e-05
1.95363e-08
-2.77687e-08
-2.51984e-09
-0.000274692
0.00562721
-2.37023e-08
0.00140272
-3.13728e-08
-0.00464635
0.000882467
-2.97639e-06
2.637e-08
-0.00135342
1.56454e-08
-0.000258953
-7.06417e-08
-0.00030588
-5.1584e-08
3.42377e-06
-1.56361e-08
2.93507e-07
-0.00341023
4.00233e-08
5.5208e-09
-3.1895e-09
8.72528e-07
-0.00316934
4.46432e-09
-2.22378e-08
-1.79477e-08
5.89569e-08
0.00795992
-0.00059357
-0.00152492
0.00247213
-4.49555e-05
0.00189503
-0.000747023
2.17379e-07
-1.28433e-07
-2.32535e-06
9.74721e-05
8.46472e-09
0.000328126
-1.79444e-06
-0.000871094
4.22193e-08
5.32493e-08
1.05387e-07
-5.08591e-07
-7.4185e-07
9.39865e-09
-0.0008097
0.000842454
0.00504878
0.0184071
0.0016771
0.000150288
2.63512e-09
-0.000734956
1.37644e-08
9.34529e-10
0.00239122
-0.00067198
3.66693e-06
-5.78173e-07
0.000854109
-0.000534431
9.93265e-10
0.00906231
-0.00219952
-0.000303339
6.27914e-09
0.00492007
1.6272e-08
0.000333584
3.93781e-09
0.0254809
3.93646e-08
-0.000474952
-0.000583711
-0.00634551
-2.37641e-10
-8.91957e-08
0.000903341
-0.00516131
-0.000917685
-0.000851616
0.000631847
-0.00149231
-0.00014359
-7.18564e-05
0.00113658
-0.000229063
-7.04866e-07
8.61346e-10
-8.18273e-08
0.0193352
-1.38888e-09
-0.000637828
-6.45622e-05
-3.35091e-08
0.00209855
0.0023044
-0.000455539
8.45193e-09
-1.16379e-08
-3.24416e-09
0.00176352
4.91484e-07
-5.11817e-09
-1.83623e-09
-0.000385332
-2.87927e-09
-0.000281909
-3.58486e-06
-2.6156e-07
2.02178e-06
-2.44139e-08
4.47489e-09
-1.93751e-08
9.5091e-07
2.1613e-07
6.02554e-09
0.0116293
-1.61508e-09
3.95264e-08
-8.86243e-10
1.66783e-09
0.000283148
0.000871061
8.93043e-09
-8.37108e-05
6.10549e-09
-4.26255e-09
2.81232e-10
-9.66653e-07
2.51437e-07
-3.68141e-09
-1.73767e-07
-8.21751e-09
-0.00435623
-5.2261e-07
-0.000581125
-0.000293217
-1.48656e-07
-6.7144e-08
8.60494e-09
-0.000570272
0.00177572
7.49448e-07
-1.43374e-10
0.00928657
0.000983794
2.74187e-06
-1.43028e-08
4.15325e-06
0.00698105
-3.55202e-06
-6.37474e-05
-4.80726e-08
2.75826e-09
2.42398e-06
-7.44038e-05
2.23511e-07
-0.000199669
0.00281132
-1.00405e-05
-0.0038287
-9.76812e-05
8.29659e-07
3.73954e-08
0.000350122
0.000304014
1.01835e-07
-3.48967e-08
-6.58419e-05
0.00728997
-1.17714e-06
-0.0014093
8.9761e-08
-4.7717e-09
-7.42941e-10
0.00709985
0.00187915
-3.85339e-09
-0.00054529
6.12459e-09
-0.000368654
2.20387e-08
1.34793e-08
0.00372027
-0.000555788
-2.73299e-07
-0.00112961
0.0119721
2.14155e-06
0.0044963
-1.67111e-07
0.00444875
-0.00030115
-4.36385e-09
-5.9331e-05
7.00387e-05
-0.00103024
4.65959e-08
0.000135118
8.04291e-08
-1.52217e-09
0.000320877
0.000316832
0.00198713
0.00741163
-0.0224791
1.60674e-07
-4.09874e-06
2.96305e-06
-1.02548e-09
-8.42028e-07
9.6952e-10
0.000301275
0.000305201
-1.68692e-05
-0.00256768
-1.95774e-08
-0.00713114
1.00526e-06
0.000234668
-0.0306665
-2.54663e-07
4.32508e-09
-1.16527e-07
-1.54852e-09
0.000744501
2.28717e-08
0.00105176
-0.0202203
2.19179e-06
-7.87735e-08
6.36709e-08
0.000327406
0.00341557
0.00352972
-4.42083e-08
1.19475e-08
1.63244e-08
-0.000138414
6.76e-09
-2.03027e-06
1.22705e-07
3.5616e-08
3.86823e-09
-2.45192e-08
5.37201e-10
8.38509e-08
2.5613e-08
0.000467349
0.00333068
0.000725838
-2.91279e-09
-0.0103144
6.83979e-05
-1.2041e-06
0.000765006
7.7643e-07
9.69869e-09
6.99144e-06
-3.36716e-08
1.32787e-06
1.99613e-07
-0.0304956
0.0131617
-0.00559264
4.21315e-08
-1.17703e-08
-0.000482432
1.02936e-08
0.000537737
-2.45582e-08
-6.04133e-08
-0.0223746
1.4141e-07
6.25118e-09
3.34864e-06
3.04598e-07
-0.00013365
-0.000601734
-0.000485721
0.0180157
-5.97543e-09
7.71736e-09
1.7955e-07
0.00506438
-1.72804e-05
6.35425e-08
2.72384e-09
-3.13062e-07
0.000283548
-4.71937e-08
-2.66647e-09
-0.000560861
0.00030917
-5.392e-07
7.36327e-09
3.35727e-09
-5.99118e-09
-4.73975e-08
3.30042e-08
2.02095e-09
-1.87927e-08
1.14793e-07
0.000765157
1.47386e-09
-2.09518e-06
-0.00272546
0.009886
-0.000759615
-5.35714e-09
-5.90816e-09
-0.00500371
0.000199443
0.00662422
0.00121528
-0.00517488
0.0135617
4.60758e-08
0.000277957
1.74493e-07
-0.000455159
-1.79187e-09
-8.60777e-05
-4.48498e-08
-1.0834e-07
-0.000323752
-0.00121037
-8.60809e-10
1.04404e-08
2.8168e-08
-4.09861e-09
-5.96803e-05
-0.000427186
-0.0101062
3.17582e-07
5.63007e-08
-0.000303715
1.56988e-07
8.86548e-09
0.00816491
-0.000400265
-0.00642642
-0.00118347
-3.93194e-05
1.84232e-08
-0.000117914
-0.00611613
-6.0894e-09
2.87473e-07
0.000225343
-6.48101e-07
-1.27427e-07
-0.00572849
0.000128025
-1.54217e-08
-0.000611028
-6.08493e-09
2.38266e-07
-0.0159201
-0.0016921
-0.000471417
-8.68861e-07
-7.7021e-09
4.56468e-07
5.85274e-08
0.00592352
-0.000176872
2.21756e-10
0.0178758
0.0130429
-1.69886e-06
2.43032e-09
-5.68772e-08
-0.000122178
-1.96212e-08
-2.03945e-07
-0.00364893
1.23122e-05
-3.56303e-08
-0.00189808
-0.000125529
-0.000649315
-0.0029027
1.2304e-06
4.90875e-08
-4.2711e-09
-4.68203e-08
-8.73302e-08
8.11793e-05
0.000295228
-1.83739e-06
1.54498e-07
-0.00741514
0.000628108
-5.77555e-05
1.03577e-08
-0.000423301
2.77121e-08
0.000810684
3.47233e-06
1.16903e-07
8.28302e-05
-2.57089e-09
0.000488505
0.0044426
3.76637e-06
-9.19874e-06
0.00228316
0.00168261
0.0154013
1.4665e-07
-2.41232e-07
4.03645e-08
-0.000456431
9.72309e-09
-0.0127856
2.51128e-09
-1.00782e-09
-9.97131e-09
4.32254e-08
-4.51481e-05
-1.31163e-08
-0.00946401
-0.000387231
-0.00797477
-4.60721e-07
7.33849e-09
0.00118772
1.34176e-07
1.47049e-07
0.000319132
-4.00176e-09
-6.75669e-09
-1.17266e-06
3.11307e-08
-3.36312e-10
-0.00354061
0.000558512
-6.12931e-05
0.0108437
-1.37909e-09
-2.74287e-08
-3.20837e-07
-4.81366e-05
4.99737e-05
1.81262e-08
-0.0048263
-2.04735e-07
2.30679e-08
-0.000732931
-3.80811e-08
2.42844e-08
2.03094e-07
1.52002e-10
3.63846e-09
4.89885e-08
-0.000414317
-0.00660139
-1.08931e-08
0.0059236
0.00277314
9.72795e-06
1.18849e-07
4.53797e-08
-3.68652e-08
-3.89246e-08
0.00843282
-1.85492e-06
-0.000304661
-0.000606943
0.0080005
1.17431e-08
9.9063e-08
0.000719631
-4.50934e-08
1.25133e-07
4.0016e-09
0.00414888
-0.000469617
4.56912e-08
-0.000596191
0.000801487
8.23114e-09
5.68012e-08
3.04644e-08
-1.2213e-06
4.04547e-07
-0.000146906
1.00697e-07
2.7286e-05
-1.39436e-06
4.01522e-08
-0.00244396
1.50804e-07
0.00504876
-1.33169e-06
-3.78324e-09
4.76131e-07
-1.9098e-07
-2.41433e-07
-2.34672e-09
-9.04231e-10
0.00694546
7.51987e-09
0.00279446
1.27593e-07
-2.43436e-07
-0.0156063
-0.00125079
1.63705e-08
1.01783e-09
2.54037e-06
0.00378701
8.30231e-09
-5.96378e-08
0.0117617
-0.00397207
-4.74117e-07
-4.17199e-07
-4.10602e-05
2.89425e-08
1.54069e-09
0.00478263
-0.00735936
0.0139299
-5.21386e-09
-1.58858e-06
-6.11448e-10
5.97964e-07
-0.000238059
3.24346e-08
-1.15222e-09
-1.478e-06
-0.000603121
2.51918e-08
-2.6371e-09
3.28972e-08
-2.75754e-07
-0.000339216
2.78742e-08
-7.02421e-05
-2.34859e-07
0.00201194
4.80597e-05
7.026e-07
-0.000630986
3.86392e-08
-0.00108082
3.07327e-05
-0.00275935
3.29274e-09
-0.00017161
-1.09155e-06
8.72549e-06
2.34667e-07
-4.39892e-07
0.000789412
1.27695e-07
-7.7285e-09
1.04785e-08
1.54198e-05
2.5699e-05
0.000836364
-0.0006428
0.00394647
-9.85759e-05
4.93819e-08
-0.000264764
-3.16165e-08
8.3645e-09
7.99753e-09
5.00542e-10
-0.00102723
-0.00139402
-1.32286e-08
-0.000631842
9.38757e-05
-0.00203229
0.000394413
-0.0146166
-9.40688e-09
-7.64502e-09
-5.79501e-07
1.71455e-09
-7.57423e-09
3.95143e-08
-0.000261591
-4.65691e-07
0.0012727
-2.77718e-06
-1.00732e-06
2.23462e-05
2.79787e-09
0.00029029
-2.7051e-08
2.42641e-06
-6.93804e-05
0.000603015
1.56263e-07
0.00727137
-0.000118672
0.0238378
0.00184436
-1.04444e-07
-7.71443e-05
7.94904e-07
0.0162844
-9.40267e-10
4.78786e-09
-3.57257e-08
-0.000167984
-0.00339688
-0.000158372
0.00603419
-4.08113e-05
-0.000251705
-7.54307e-09
0.00151256
-8.36431e-07
4.13741e-08
0.0262695
-0.000547035
1.61919e-09
-0.0153619
4.02253e-06
2.73676e-10
0.000745748
-2.6379e-08
4.60071e-08
0.000105318
6.38126e-08
6.26676e-07
0.000966079
-6.9988e-07
0.000114531
-6.09162e-09
4.14601e-10
2.19004e-08
0.000333866
7.45818e-07
-2.48698e-07
3.81792e-05
-5.84693e-09
3.36137e-09
4.83665e-07
0.0167618
3.36893e-08
-0.0191892
6.19203e-08
2.57351e-06
-0.000631558
2.12351e-08
0.00074184
5.19139e-09
-4.17642e-07
0.000376462
-1.57541e-08
-3.82087e-05
2.40256e-05
-0.00010498
-0.00381409
-4.25048e-07
0.000569376
3.81459e-08
-0.0031316
-3.5945e-06
1.8968e-07
0.00833955
3.58566e-06
-0.000159856
-0.000627921
4.36013e-08
5.36375e-07
2.89806e-08
-1.71695e-08
1.99077e-07
-0.00102711
1.88406e-10
-3.93382e-09
8.86465e-08
2.12431e-08
-5.14811e-08
1.9182e-08
-4.23339e-08
3.25799e-09
0.00460897
-1.07906e-06
4.48348e-08
-0.02551
-4.67192e-05
0.000504908
0.00230524
-0.0027561
3.63319e-08
0.00167118
-2.62398e-07
-0.000625617
-5.65561e-05
0.000407347
-6.14807e-05
-0.0127809
-0.0073406
2.48529e-09
2.47733e-08
4.06985e-08
3.83362e-08
-9.3885e-07
2.73231e-05
-1.81063e-08
-4.87465e-06
-3.40935e-06
-0.00211915
-3.72449e-08
-8.71122e-05
-0.000197577
3.88641e-06
2.96968e-06
6.22458e-08
6.52897e-05
-4.78572e-08
5.91265e-07
0.00137774
1.21622e-07
-3.95784e-08
1.33269e-09
4.4233e-09
-1.88452e-06
0.00264323
0.0158091
-1.53623e-06
4.11639e-09
2.80444e-08
-1.51529e-08
-2.9165e-10
0.000474685
1.00108e-06
7.11435e-09
-3.19417e-08
0.0159772
0.00027098
3.21167e-08
9.34518e-09
-6.77187e-07
0.00924778
-3.68839e-08
-5.31986e-08
-5.29854e-07
-0.000580986
2.92743e-05
0.000125074
-4.71824e-07
0.00335881
5.63652e-07
0.000496883
-9.92748e-07
-0.000577749
-3.63512e-08
-0.000614336
0.00175231
-0.000624646
-2.53099e-08
0.0156081
4.87876e-08
-0.00979686
0.000246943
-0.0121263
0.00351638
0.0002382
-9.49194e-07
-4.3442e-07
-0.000137224
4.73779e-08
-0.00743409
1.09376e-06
-0.000482546
0.00142158
-0.000336149
0.0139081
-0.000107779
2.2548e-08
0.000224167
3.66482e-06
-2.70814e-05
6.47763e-08
6.44809e-06
0.00074247
-2.45421e-06
0.00143829
6.07035e-07
0.00288557
6.51511e-07
-6.88803e-05
-0.000640909
1.35932e-08
-0.0115989
0.00197684
-3.70613e-08
0.00211848
8.19138e-10
0.000183776
-2.3546e-05
1.68395e-07
-0.00886239
0.000331108
-8.78389e-08
0.00123825
2.92133e-05
1.1773e-08
-0.0167643
0.00055043
0.0128055
3.19638e-05
-4.81837e-08
-3.03776e-09
-0.00948322
-3.9127e-08
-0.0005298
0.00315597
-0.000610394
-0.000648004
7.08325e-07
-4.99607e-07
-8.67792e-07
-0.000160865
-0.000292995
-0.000122758
9.3355e-07
-3.20444e-08
0.00190869
-0.00242179
-1.51856e-07
-0.00215206
-7.3944e-10
-0.000637654
-4.20401e-09
1.35599e-08
-2.07923e-06
3.31703e-08
-2.97573e-07
-2.88822e-06
-0.00233774
-0.000357114
2.64481e-09
8.87452e-09
-0.000625062
-0.00768854
-4.52596e-06
1.69563e-07
0.000373303
4.20437e-10
-2.68684e-05
-0.000772849
0.00117001
2.60168e-08
-2.13015e-08
0.00272341
0.000147304
-1.55136e-05
-3.20446e-08
0.00649382
-3.51601e-10
-0.00628716
-7.08015e-05
-6.90057e-09
-0.00970623
-0.0102779
9.76296e-07
-6.74614e-07
-4.21757e-09
4.82938e-08
-0.000502538
4.51458e-07
-0.00326845
-1.8229e-08
3.91064e-09
4.35641e-06
3.08768e-08
2.54473e-06
3.04604e-05
1.38786e-08
-0.00308414
0.00129034
5.0869e-09
0.00224654
1.13321e-06
-1.60182e-08
-0.000624741
0.000284063
-0.000600899
-4.53846e-08
-0.000165467
1.50133e-08
8.33154e-10
0.00596641
-0.00880889
-0.00051505
2.62185e-09
0.00198344
-1.24384e-08
1.07713e-05
-3.85381e-08
0.0300327
0.00509595
-9.00308e-05
8.43988e-07
-9.3727e-07
8.03172e-07
-0.000377664
0.000897999
0.00679804
0.0214349
2.9721e-08
-8.03002e-10
-6.14192e-09
-8.71697e-07
-1.38098e-07
1.56447e-06
-0.00026358
-3.1359e-08
0.00363344
0.000882675
3.51001e-06
-0.0298821
-1.21497e-07
1.8846e-08
0.000910077
-0.00108809
-3.49403e-08
7.00408e-08
-5.08697e-06
-1.93673e-06
-0.000607195
0.0146858
0.00043551
-6.74628e-08
0.0292212
-0.00260762
1.16818e-07
-1.18553e-08
-8.63898e-05
-2.64166e-06
-1.7259e-09
7.83598e-07
-0.00517093
-0.000458854
3.49409e-10
0.00864625
3.27974e-08
3.84111e-08
0.00414274
-0.00119143
0.000759955
-0.000512446
-1.00761e-06
7.07784e-05
0.000116205
7.67743e-09
0.0003545
0.000929928
-3.68437e-07
1.06989e-07
1.97797e-08
-7.26872e-08
-0.00230221
3.61617e-08
-0.00120326
-2.75659e-06
1.71717e-05
-0.000625048
-1.68771e-08
-0.000794631
2.67356e-07
-0.00332108
-0.00723932
-2.50124e-06
-7.43441e-07
-1.62496e-08
-0.000722758
2.26022e-08
0.00129789
-0.000231607
-1.95698e-06
-0.0179505
2.49401e-09
0.02038
3.38914e-08
4.13286e-07
1.30676e-07
0.000474548
1.45272e-08
-0.0255391
9.40259e-09
-0.000433927
-1.88579e-08
0.000897537
0.00617805
-2.71023e-06
3.01995e-07
-2.04803e-05
0.00100078
0.0233584
-8.74556e-09
-0.000177095
-3.93685e-06
-2.24915e-08
0.00152517
5.53455e-09
-4.62752e-08
0.00250166
-8.64785e-05
-0.000116258
1.8387e-08
0.000460179
-0.00367792
0.000368401
4.36436e-08
-1.7964e-08
0.000593592
-7.55403e-05
2.29955e-07
0.00304589
-1.58384e-07
-0.000619015
1.168e-08
2.38454e-08
-0.000316401
0.00191941
1.36224e-06
1.15349e-06
-1.97242e-09
1.42621e-07
3.22643e-08
-9.49317e-08
-0.00333971
9.3816e-05
-1.60475e-06
1.27076e-08
0.000797923
6.73973e-08
1.30014e-06
3.57581e-08
0.00170902
1.07354e-05
-0.00368136
-4.99821e-08
8.06677e-09
5.85131e-09
0.000830314
-0.000710549
0.000887019
-1.23277e-06
0.000722722
-3.35408e-06
0.000500642
3.7495e-07
-2.75253e-07
-4.30133e-08
8.1581e-08
2.46675e-08
-0.000609909
1.80017e-08
-4.10096e-07
-0.0192146
-0.00016272
-0.00136804
0.0105014
3.59642e-08
-0.000240279
2.93888e-07
0.0260562
2.15219e-08
-0.00111188
1.03575e-09
4.43795e-08
0.00142854
-0.00590594
-4.78216e-08
-7.7491e-09
7.41421e-09
0.00324858
6.25358e-07
-0.000384553
-2.25414e-06
0.00224449
-0.000587522
0.00121782
-0.000206098
1.86247e-08
-0.000638517
-7.4159e-06
-2.66742e-06
3.76801e-07
4.60254e-08
-1.25544e-10
-4.92162e-08
-1.74688e-08
8.35121e-10
-1.04445e-08
8.54352e-09
1.30635e-08
0.00155875
-0.000455477
6.66227e-05
-2.16254e-09
-3.61078e-08
-0.00342518
4.47347e-10
-3.81755e-05
9.79974e-09
-3.11629e-05
-0.00274292
-0.0151044
7.19305e-07
5.58713e-05
0.000100521
6.56478e-06
-9.59963e-06
-6.71893e-07
-0.000125184
0.00221201
1.17508e-06
1.04883e-07
-0.00854825
9.9348e-09
3.17289e-08
-4.99237e-07
2.9924e-08
4.46829e-07
-2.30938e-08
0.0147803
1.16074e-07
6.52969e-09
0.000363216
-6.54636e-08
1.51629e-07
-0.000342012
8.42723e-09
-0.00155985
7.1359e-08
-4.94958e-09
-4.48617e-09
0.002351
-1.44776e-08
-0.000175938
-0.0070367
2.01879e-08
-0.000643705
1.73536e-07
0.000272414
-0.000139154
3.07783e-08
-2.55704e-08
-5.97314e-09
-3.00739e-08
2.26962e-08
-2.66309e-08
5.95409e-09
7.64872e-07
2.38425e-08
0.00348733
-7.72256e-08
-0.000144755
-6.75362e-08
-5.20311e-08
4.20252e-09
-0.000436213
0.001529
-3.02226e-05
-0.00052677
-5.35887e-09
-0.000394475
0.00152188
-3.01004e-08
0.00479559
0.00177135
-2.07508e-08
-2.8857e-08
-0.000796781
-2.69336e-07
-2.27582e-08
3.56252e-06
-0.00688144
0.000251246
0.00202187
-0.00170078
4.03676e-09
-0.000139663
-0.000464995
-2.56462e-07
6.4343e-09
1.55015e-08
3.36114e-09
4.50352e-09
-0.0261169
-3.09889e-08
-0.00114853
-0.000287137
-0.000619914
0.00167453
1.02378e-07
-0.00179335
6.73032e-08
0.000808228
-6.39579e-05
7.021e-11
3.85419e-08
-0.000167192
-1.60619e-06
0.000136508
-5.78247e-08
-0.000488324
-8.84696e-06
5.62602e-05
-7.35918e-09
0.000464991
0.00135381
-0.0196691
-1.43613e-06
0.00401022
-0.000419268
0.000621663
0.00401608
-2.1566e-06
0.00210897
-0.000611832
-0.00157185
4.51947e-05
-0.000397105
0.000144098
-0.000633575
0.00311563
0.000121206
-9.45564e-05
-2.99332e-09
-0.000446023
-0.000530302
-0.000475128
1.05045e-06
6.37767e-09
0.000468764
-4.68015e-07
0.00135794
0.000126795
-0.00232275
-9.40529e-05
-0.00391826
-2.9409e-08
-3.32525e-08
0.0010654
-0.00323506
-0.000106546
-1.04965e-08
0.00215317
-3.60975e-08
-0.0246608
0.00390034
-2.00932e-05
0.00178397
1.63447e-08
-0.00988184
8.60633e-09
-0.000691106
1.45299e-05
5.57175e-08
0.000648662
-2.03208e-09
0.00995354
-0.0214966
-0.00322102
-0.0278468
-3.29248e-08
2.57446e-08
0.000464498
0.000969698
1.58126e-08
-0.00490093
0.00372883
1.18183e-07
-0.000612969
-8.32418e-09
1.87684e-09
-2.2398e-08
-0.00955757
4.67853e-08
-0.00127647
-4.09637e-08
1.2507e-08
-0.00744333
0.000340849
2.26638e-08
-0.0110557
0.0202269
-0.00106133
-0.000458928
6.6765e-09
0.0058638
2.66713e-09
-4.21198e-07
0.000355598
1.65504e-07
0.00280113
7.80477e-09
0.00122449
9.43767e-07
-0.00447848
-0.00033152
0.000573926
-0.00262851
0.00526445
-3.02514e-05
-0.00130808
-2.45417e-06
0.000585351
-1.96156e-08
-0.000210337
0.00119499
0.00455635
4.0356e-07
3.84789e-08
3.00083e-09
0.00230223
-3.59387e-05
-3.18584e-08
0.00253163
0.000361246
0.00965548
-0.000765353
4.62006e-07
3.41994e-05
0.00649964
-2.442e-08
0.00197246
0.000132913
1.82612e-07
-0.000486503
4.78576e-09
-3.77508e-08
1.00778e-07
0.000565058
-0.000524719
-1.96718e-08
-4.48422e-07
2.12963e-08
-0.000568868
-0.0187874
-9.38444e-06
-0.000441146
-0.000621236
0.0191888
1.05939e-05
0.00415932
-0.000407547
-0.000212389
4.1307e-08
4.57955e-09
-1.53343e-06
1.68253e-08
-0.00207136
0.000861541
0.00398478
-4.44604e-09
6.92404e-08
4.49005e-09
-5.72277e-06
-4.1445e-06
-0.000349039
0.0150792
0.000344128
-1.75224e-06
1.39432e-07
3.2856e-09
-1.09289e-08
0.000192212
-0.000717683
3.48225e-08
1.96277e-06
5.65496e-07
-0.00058596
-0.0267042
0.000607486
-9.84659e-05
-2.73858e-09
-0.006135
5.16071e-08
2.01659e-05
8.97145e-05
1.52008e-08
-0.00118896
0.00269658
0.000397381
-6.32482e-07
0.000664629
0.0017351
2.17572e-07
-0.000196501
-4.20076e-08
3.20752e-08
2.31122e-05
0.00104764
0.0115468
-3.74763e-05
-0.00039215
-5.67822e-06
9.63866e-05
0.00085863
-1.17693e-08
0.000478594
2.89568e-06
-0.000396393
-0.000171505
-3.16205e-09
0.00133267
-4.5768e-07
1.77954e-05
-0.000615634
0.000550439
8.10034e-09
-1.44456e-07
0.0100572
0.000848956
0.00082506
-0.00445807
-2.37686e-06
2.02174e-08
0.00152973
-3.73168e-06
3.11581e-08
4.41221e-08
-4.06565e-06
-4.51409e-06
0.000122219
-1.83418e-08
2.93187e-06
-0.000107664
1.33606e-08
0.020091
1.39913e-08
0.000650852
4.04793e-08
-1.36922e-09
-0.000368481
-1.36565e-07
-0.029437
2.30694e-08
4.5354e-08
2.99577e-05
-1.01382e-08
3.26465e-09
-8.48822e-10
-0.000627705
0.000447587
-5.67149e-07
-0.000119465
0.000937353
-0.000183417
2.635e-07
-6.34402e-09
-0.000559523
5.60061e-08
0.00143185
-7.87869e-08
-0.000212079
0.00203621
7.31997e-08
3.52643e-07
0.0078208
1.79818e-07
4.14549e-08
-0.000379433
9.60315e-05
9.03818e-07
-0.000618582
3.14739e-07
-0.000117531
-0.000418017
-5.68624e-10
1.13378e-08
-1.58892e-08
-0.00373213
0.000223032
0.000586609
7.00189e-05
-0.000342288
-0.000289744
0.000111828
-0.00825649
-3.90497e-09
0.00142085
0.00145527
1.68911e-08
-4.08023e-06
2.05467e-05
-1.34175e-07
-5.34118e-07
0.0001445
0.000409157
0.000685472
1.33478e-07
1.0395e-06
-0.000236789
0.000451321
2.76236e-05
-0.0233402
-6.60762e-05
4.42153e-05
-6.9117e-05
0.00275036
0.00496572
-0.000453965
3.01459e-05
-9.51088e-09
0.0014957
-4.06262e-06
3.3069e-08
0.000901083
-9.42374e-09
-6.52432e-09
-0.000478609
2.46573e-08
2.40702e-07
0.00388067
6.66536e-06
-2.05333e-08
0.00044604
-4.95194e-05
0.000165146
-9.23553e-07
-0.000371646
2.34414e-08
-1.12151e-07
-0.000391039
-0.000763517
-0.000634188
1.57992e-08
-0.000123221
-2.79717e-09
-0.000381503
3.98281e-08
9.83026e-07
4.24126e-08
0.00447518
-8.12369e-09
2.79194e-06
0.000340763
4.35083e-08
5.40854e-05
4.96524e-05
5.45759e-05
-5.9832e-05
6.03477e-08
-5.94991e-05
-0.000192967
-0.000958779
-1.65759e-08
-0.000655063
-0.00113358
0.000833916
0.000108038
1.36682e-06
-0.000151819
0.00287795
0.00237899
2.62463e-06
0.000160007
-9.96679e-09
-0.000162369
1.98222e-08
0.00152172
2.80768e-08
-0.000596304
0.00117842
2.8016e-05
0.000391041
0.0093955
-1.08049e-06
-7.24312e-06
-6.27004e-08
0.00231939
3.881e-08
0.00133051
-5.56116e-05
-0.000347461
-0.0136566
-0.000115717
0.0018979
-1.49053e-06
0.00151822
-3.74552e-08
0.000503167
1.13215e-07
-1.96999e-06
-0.0165603
5.74492e-06
-0.00595031
-7.5225e-05
0.000606635
-0.00109689
-0.000924478
0.000492093
6.45797e-05
0.00125395
5.05041e-08
-2.85637e-08
0.000652879
3.00255e-08
3.27035e-08
0.000580443
-0.000623719
-0.000408493
-3.04834e-08
0.000470616
1.40481e-06
-2.05317e-06
0.000155027
0.0225137
-1.09465e-08
0.000649083
-2.66481e-06
-0.00122904
3.76137e-07
-0.000439104
-0.000868862
-0.00018712
1.16182e-06
2.01468e-08
-0.000533731
0.000610335
0.000579841
-0.000293335
-0.000136043
0.000959936
0.00137574
0.000143869
5.78739e-07
0.000400856
4.75863e-07
-4.18651e-05
4.60203e-09
0.000254437
-6.53735e-05
-4.24683e-07
5.38655e-10
0.00112351
-8.00341e-08
5.73346e-08
-0.0184678
-0.000391053
-3.3153e-09
0.000621817
0.00111918
-0.000637186
-0.000192042
0.00098401
0.00101531
0.000770788
-0.00171522
0.000971273
6.88513e-07
0.000325796
0.00169087
7.52488e-07
0.00016193
0.000385009
3.33463e-05
-5.9e-05
3.12567e-06
3.08689e-08
-1.12527e-08
-0.000187233
-0.000815411
3.58493e-07
0.000157414
-8.59321e-05
0.00746356
0.00173755
0.00405898
0.00317991
-0.000592797
6.28659e-05
0.000372614
3.36356e-08
6.42386e-05
8.35022e-09
0.0010291
-2.82941e-08
-0.000575762
-0.0016261
7.90073e-09
-0.000689224
0.00127526
0.000144822
9.91433e-05
1.0502e-06
-0.000641046
-0.000100158
1.5864e-09
0.00204508
-0.000600154
5.12085e-09
-7.53555e-05
-8.20416e-09
-0.000648214
-7.4602e-09
-2.67984e-08
9.20392e-09
-0.000247721
0.000703517
0.00281134
-0.000510106
-2.04615e-06
-0.00140735
-0.000460807
7.08392e-09
4.42121e-08
-0.000479239
0.000518372
9.65232e-08
0.00148997
-0.00775924
-0.000597164
0.000544329
0.00101407
0.0018041
8.66395e-08
4.43407e-05
-4.31778e-07
-0.00023633
1.23008e-07
5.82886e-07
-0.000330961
-0.00100895
-3.13902e-06
0.00646983
4.29098e-09
1.02724e-08
2.04306e-08
2.19373e-09
-6.61792e-05
0.000134291
1.82563e-08
0.0025515
0.000131502
-1.11071e-06
-3.91223e-05
0.000642406
1.14926e-08
1.49847e-05
1.01961e-07
0.00252111
3.99339e-07
-2.48001e-06
-1.09816e-08
2.51083e-08
-4.20588e-06
4.42586e-09
-7.66024e-06
-0.000634973
-5.717e-05
-9.59273e-08
4.21992e-07
0.000108258
0.00171569
-6.10238e-05
8.17758e-09
0.00479411
0.000727211
-4.83268e-09
0.0004267
0.00705345
0.000979929
-2.45145e-06
0.000736771
0.000606526
-5.75064e-05
-1.35902e-06
-1.72121e-06
7.63882e-05
-5.57715e-05
3.39715e-05
0.00222459
0.00199865
-0.000303796
-0.00013149
0.000575875
1.26004e-07
-0.00332731
3.34125e-05
0.000346077
-0.000162577
-0.000594672
-2.15492e-08
-0.0137268
3.13195e-07
4.88383e-08
1.60218e-05
6.37845e-08
1.23022e-06
-1.33723e-06
0.00478575
0.000436617
-0.00235813
-0.00227385
0.000300173
0.00074022
-0.00164951
0.000239229
-0.00039992
3.01945e-08
0.000374526
-6.42976e-08
-0.00908276
-0.0006798
0.00107014
0.00214604
0.000201548
-0.00301511
0.00209469
1.11359e-06
0.00013675
-7.86945e-05
0.000416022
-3.43609e-05
0.00248549
0.00346485
6.41965e-05
0.0029056
3.66275e-05
-0.000111779
0.000785451
1.5473e-05
0.00165953
3.9491e-07
0.00545074
2.60277e-08
0.00883555
0.000345567
0.000324361
-1.61786e-06
9.84229e-09
0.00122876
-0.000626076
-3.88027e-06
-0.018612
8.87666e-07
-2.55464e-09
-0.000333952
-4.83662e-09
-2.92374e-08
0.000479625
1.22354e-06
6.70253e-09
-0.000434347
-0.000534996
0.00037356
8.13723e-09
0.000188053
-0.000103552
1.39252e-08
0.000110966
4.40662e-08
3.89429e-06
-7.28647e-07
-4.65655e-08
-7.42562e-07
3.2456e-06
0.000209411
0.00212833
0.000216825
-0.000562676
-0.000114948
-2.12252e-06
0.000308772
-2.19559e-06
-5.55481e-05
1.77838e-08
-6.29373e-06
3.9144e-07
-5.63417e-05
-5.13794e-05
1.09026e-08
-0.000688962
9.6935e-07
-0.00252059
0.00159105
-1.2013e-09
-6.23669e-05
-0.000622218
-6.87686e-06
-0.00639342
-0.000241531
-2.58089e-06
5.27212e-08
3.47411e-05
9.15395e-06
1.69929e-07
-2.69073e-07
-0.000645572
0.00646423
-0.000535957
0.000345497
-2.31923e-07
-1.83812e-05
0.00244796
0.000124141
-0.000406571
-2.93107e-06
5.09295e-07
0.00039316
-3.02181e-07
0.000129801
4.78567e-05
0.00185104
0.00406329
-6.41638e-09
-0.0014305
-0.000483541
2.55191e-07
-0.000132792
-0.000601543
0.00226903
-2.14747e-06
1.93413e-09
0.000803874
3.15124e-05
-1.75497e-06
-5.75731e-08
-7.62953e-05
-1.93813e-08
1.62052e-06
-6.08939e-06