/*--------------------------------*- C++ -*----------------------------------*\
| =========                 |                                                 |
| \\      /  F ield         | OpenFOAM: The Open Source CFD Toolbox           |
|  \\    /   O peration     | Version:  v2012                                 |
|   \\  /    A nd           | Website:  www.openfoam.com                      |
|    \\/     M anipulation  |                                                 |
\*---------------------------------------------------------------------------*/
FoamFile
{
    version     2.0;
    format      ascii;
    class       surfaceScalarField;
    location    "300";
    object      ddtCorrDdt0(phi);
}
// * * * * * * * * * * * * * * * * * * * * * * * * * * * * * * * * * * * * * //

dimensions      [0 3 -2 0 0 0 0];
oriented        oriented;


internalField   nonuniform List<scalar> 
19737
(
-0.00469737
0.00203375
0.00266363
-0.00527178
0.0025437
0.00272802
0.000111119
-0.000267484
0.000156362
-6.44659e-06
5.23871e-07
5.92253e-06
-0.000772558
0.000361395
0.000411161
5.41303e-06
2.30563e-06
-7.7188e-06
-0.00349132
0.00231098
0.00118033
-6.65348e-05
0.000172198
-0.000105661
-0.00122498
0.00268183
-0.00145684
-0.0108141
-0.013842
0.0246561
-0.105964
0.0627601
0.0432038
0.0717905
-0.0190377
9.24674e-06
-3.83356e-06
-4.40516e-06
2.42919e-05
-1.98849e-05
8.52221e-06
4.76312e-07
-8.99917e-06
2.95654e-05
-0.000247522
0.000217956
0.000827618
-0.00509582
0.00426821
-0.00299626
-0.0533634
0.0380912
0.0152722
0.00306091
0.0150608
-0.0181217
0.00342529
-0.00198137
-0.00144392
-0.000216955
0.00087649
-0.000659547
0.00251837
-0.00193289
-0.000585487
-0.000563013
0.000551468
1.15429e-05
0.0002108
-0.000181234
0.000448161
-0.000357277
-9.08814e-05
-0.0012775
0.00110242
0.000175085
-0.0463935
-0.0595703
-0.000437221
-0.000840276
0.000987552
0.00133308
-0.00232063
0.0019416
0.00409855
-0.00604018
0.00329594
-0.00147873
-0.00181721
-0.00129097
-0.000285481
0.00157645
0.00161381
-0.000752731
-0.000861075
0.000609208
-0.0283566
0.0277473
0.00368009
-0.00285248
-0.00167224
-0.00181908
0.00204382
0.000474543
-0.000437878
0.000530173
-9.22932e-05
-0.000275345
0.00014173
0.000133609
2.02348e-05
-1.3956e-05
-6.27676e-06
-1.54296e-05
7.81145e-05
-6.26843e-05
0.0167693
0.00641187
-0.0231813
3.51918e-05
-3.9945e-05
4.7526e-06
0.0005031
-0.000677014
0.000173923
-0.000834466
-0.00163537
0.00246979
4.30925e-06
4.21392e-06
-6.44662e-06
-0.00208002
-0.000922802
0.00300282
0.000265968
-0.000222196
-4.37734e-05
-3.04467e-07
-3.20388e-06
3.50893e-06
-0.000397544
-0.000191524
0.000589068
-0.000240853
0.00015917
8.16979e-05
0.115111
-0.0553058
-0.0598054
-0.000414787
0.000454044
-3.92612e-05
-3.67392e-05
-0.000335002
0.000371745
3.78346e-05
-2.64214e-06
0.000487487
0.000266474
-0.00075396
-0.000393958
0.000701787
-0.000307826
-0.000564587
0.000170627
-0.0856672
0.00913652
0.0765305
0.00100747
-0.000412321
-0.000595124
-0.00023992
0.000727408
4.13427e-05
-1.24823e-05
-2.88601e-05
8.52658e-06
-6.62293e-06
-1.90314e-06
-8.73084e-05
-0.00120366
-1.00069e-05
1.59501e-05
-5.9413e-06
0.00155725
-0.00239173
-8.1432e-06
-1.57646e-05
2.39084e-05
-0.0102001
0.00836898
0.00183116
0.00866963
-0.00899195
0.000322212
0.000105913
-0.00054379
-0.00445191
0.00207604
0.00237587
0.00129664
0.0019993
-0.000228434
-0.00222219
0.00245062
0.00010351
0.000605892
-0.000709399
-3.14118e-05
5.624e-05
-2.4829e-05
0.000313353
-0.000384102
7.07507e-05
0.000207239
-0.00015094
-5.63027e-05
-0.000366634
-0.0107389
0.0111055
0.00045121
-7.54666e-05
-0.000375744
-9.81281e-05
-1.86563e-06
9.99934e-05
0.000653694
-0.000550182
0.000688646
-0.000512995
-0.000175654
0.00292406
-0.00295096
2.68677e-05
-0.000131506
6.49707e-05
-2.09997e-05
-0.000320918
0.000341901
0.01127
-0.00263238
-0.00863758
0.00767098
-0.0391287
0.0314575
0.0192064
-0.0161454
-0.000257274
0.000195234
6.2038e-05
1.54816e-05
-2.53761e-05
9.89436e-06
-0.00151417
0.00139176
0.000122427
0.00450031
-0.00201605
-0.00248426
-7.53182e-06
7.22696e-06
0.000141833
0.0010432
-0.00118503
-8.94608e-05
7.4031e-05
0.0113522
-0.0117188
0.00602029
-0.00848299
0.00246261
-0.00655542
-0.00364471
-0.000121123
-0.000136152
-1.52385e-05
8.1374e-06
7.10115e-06
-1.51152e-05
1.43055e-05
8.09715e-07
0.00257561
0.00192469
0.0434151
0.0227322
-0.0661468
-0.0029866
0.00492817
0.000243983
-0.000132866
-3.01409e-05
2.19979e-05
-8.72242e-06
-0.000194753
0.00020347
0.000302392
0.000145768
-9.53522e-05
0.000169614
-7.42616e-05
0.00101106
-0.000175674
-0.000835386
-0.00335904
0.00479937
-0.00144032
9.04352e-05
0.000116806
-0.00465732
0.00129829
-0.0368274
-0.0165359
0.00072616
-0.00236155
0.00332399
0.014277
-0.017601
-0.000411748
0.000638606
-0.00110498
0.000466379
-0.000485595
0.000984453
-0.000498864
0.00383073
-0.000288284
-0.00354246
2.03072e-05
0.000299037
-0.000319343
-0.0037736
-0.00511047
0.00888407
0.0330717
-0.0259829
-0.00708884
0.00634006
0.0165577
-0.022898
-0.00329992
0.00451008
-0.00121008
-0.00351534
0.00021542
-0.00241288
-0.00203903
0.000302858
-0.000290867
-1.19874e-05
0.00855735
-0.00253708
-9.38871e-05
0.00548163
-0.00538775
2.97488e-05
1.15944e-05
0.00169999
-0.00155815
-0.000862181
0.00205804
-0.00119586
0.0031549
-0.0069285
1.70719e-05
-3.87339e-06
-1.31982e-05
0.019349
0.0137227
0.0140736
0.00435063
-0.0184242
-1.92887e-05
-8.12102e-05
-0.000183614
0.000264822
-0.00013225
3.68981e-05
-3.87764e-05
-1.15261e-05
5.0303e-05
-0.00289376
0.00501017
-0.00211641
0.000306908
-0.00023096
-7.5948e-05
-0.00476283
0.00925397
-0.00449107
0.00966979
-0.00344904
-0.00622075
-0.00404758
0.0232539
4.42668e-05
0.000406943
0.00670992
-0.00882761
0.00211769
-0.000315946
0.000294938
9.76502e-06
7.14573e-06
-1.69099e-05
-0.0149956
0.000521278
0.0144744
-0.0369253
-0.048742
-0.00125744
0.00332319
-0.00206576
0.0162234
-0.0160348
-0.000188609
4.46042e-06
-4.82943e-06
3.68741e-07
-0.000261187
7.5451e-05
0.000185737
9.08155e-06
1.11544e-05
-0.0323849
0.0442843
-0.0118992
-0.0180379
0.00722374
-0.000637464
1.52945e-05
-5.40716e-05
0.000334398
0.000673111
0.0133562
0.00286728
-0.00477594
0.0133465
-0.00857062
-0.000665857
0.000448893
-0.000176693
-8.44943e-05
0.000153514
-0.000162238
8.78529e-05
-0.000385499
0.000297646
-7.80598e-05
-5.41901e-05
0.00784866
0.0137697
-0.0216183
1.29545e-05
-3.18884e-06
-0.000279062
0.000301367
-2.23082e-05
-0.000491622
7.68356e-05
0.000690596
-0.000215112
-0.000475491
0.000109298
0.000767184
0.000217164
4.88026e-05
0.00956154
-0.00285163
1.46448e-05
-1.54725e-05
8.28477e-07
0.0118976
0.0504875
0.000373322
3.58256e-05
-0.000409074
1.57187e-05
4.95099e-07
-1.62134e-05
0.0112648
-0.0251067
8.05159e-05
-0.00137692
0.00129641
0.000133031
-0.000100352
-3.26785e-05
0.000311888
-0.000348623
-0.00177726
0.00587582
0.00304039
-0.00205283
0.0196115
0.00231481
-0.0219263
0.00378273
0.0158288
-0.00231343
0.0173742
0.000133649
0.000173257
0.0150126
0.0567778
0.000144731
-0.00022312
7.8391e-05
0.000767098
-7.64996e-05
-0.0001146
3.65403e-05
0.00273069
0.0069391
0.00674392
-0.00517861
-0.00156529
6.15625e-06
7.19585e-05
0.000331129
-9.82045e-05
-0.000232925
-0.000237981
-2.83771e-06
-0.0258382
-0.0379184
0.0637567
0.000986903
-0.00184908
0.000201447
0.000101418
-0.00133104
0.00296399
-0.00163295
-0.000156492
0.00026912
-0.000112636
0.00294295
-0.00317139
-0.0147629
0.0170777
-0.000446999
-4.46224e-05
0.00710224
-0.0218651
0.0118218
0.00129221
-0.013114
-0.000518311
2.34401e-05
0.000494872
-0.000257359
0.000176145
6.9371e-05
-0.000205037
0.000135662
0.00285482
-0.00445265
0.00159783
5.04419e-06
-5.83793e-07
3.8093e-05
0.0112319
0.0113174
-0.043702
0.000664174
-0.00288637
0.0319709
-0.0783644
1.67083e-05
-1.10321e-05
-5.67534e-06
0.0148801
-0.00152391
-7.08642e-05
2.16485e-05
4.9216e-05
-0.000942068
0.00477278
9.43849e-05
9.37673e-05
-0.00018815
0.00617651
0.00108886
-0.00726538
-0.0144347
0.0578499
0.000382437
-6.90827e-05
0.00108984
-0.00242086
-0.000242807
0.000304466
-6.16678e-05
0.0020442
0.00242493
-0.00446912
-5.03202e-05
-0.000591266
-0.00727231
0.00411217
0.00316014
-8.52383e-05
0.000339439
-0.000254201
-0.0024542
0.00195264
0.000501607
-0.00526285
0.0173039
0.00170698
-0.00296443
-0.00386059
0.00590482
0.000193742
0.000494903
-0.00549061
-0.00178169
0.00140924
-2.15194e-05
2.22511e-05
-7.33038e-07
0.0789498
-0.00228376
-0.000270946
0.00255472
-0.000150148
0.011972
-0.00539434
0.00988041
-0.00448607
-9.87774e-05
2.79132e-05
-0.00163318
0.00171369
-0.000161613
0.000230981
-0.00093792
-0.000338844
0.00127676
-2.05097e-05
1.06678e-05
9.84264e-06
-0.000805719
0.000393379
-0.00785032
0.000138972
0.00771135
-0.00135279
0.00420761
-0.0125231
-0.00247251
7.13733e-06
9.57133e-06
0.0307778
-0.0952854
0.0645082
4.74357e-05
0.00278578
-0.0014527
-0.00786237
0.002468
-0.000368327
0.000283089
0.000936267
-0.00116837
0.00023209
0.0105635
0.00431661
-0.00393435
0.00384052
0.0857519
-0.0707394
-3.30746e-05
2.05934e-05
0.0683032
-0.0363324
0.000343278
-0.000261272
-8.20106e-05
-0.0144189
0.000961487
0.0134574
0.000216348
-0.000701942
-1.61352e-05
1.17301e-05
-0.00196118
9.21266e-06
0.00015693
-0.000166143
-2.28066e-07
8.75535e-06
-0.000415863
-0.00189787
0.00231373
0.0178435
-0.0811403
0.0632968
-0.000604096
-0.000168462
-0.0103226
0.00275602
0.00756663
0.000169693
0.000597403
5.0215e-06
-2.67896e-05
2.17685e-05
-0.0310496
0.0387206
-0.00592423
0.00457145
0.00470772
-0.00648498
0.0225354
0.00112041
-0.0236558
7.24721e-05
0.000863793
-0.0005852
0.000322233
0.010331
-0.0106532
0.0437735
-0.0251057
-0.0186678
-0.00157647
0.00155914
1.73446e-05
8.33866e-05
-3.28239e-05
-5.05564e-05
0.00109663
-0.000500538
-0.0005961
0.000135334
-5.53589e-05
0.000392022
-0.000336662
0.0274227
0.0155515
-0.0429744
0.000393841
-0.000256995
-0.000136845
-0.00199814
0.00299208
-0.000993935
-0.00889812
-0.00142452
0.000222996
-0.000128607
-0.0012234
0.00560186
-0.00537089
-0.000230948
-0.000308249
-4.90212e-05
-0.00344862
0.0047986
-0.00134995
-0.000291301
-0.00315729
-0.00211286
0.00183908
0.000273787
0.00223409
-0.00119897
-0.00103513
-5.04232e-05
-0.00022864
-0.014031
0.0102192
0.00381186
-2.79506e-06
0.000135826
0.0279302
-0.0246062
6.39142e-05
0.000366049
-0.000429958
-0.00018471
0.0222834
-0.0481215
-0.0298501
0.0304592
3.21393e-06
-0.00045021
-2.2758e-06
-2.36352e-06
4.64024e-06
0.000307812
-0.000363171
-1.5677e-05
2.06987e-05
0.00076642
-6.78789e-06
-1.3721e-05
-3.83824e-05
-5.97461e-05
-0.000152734
-0.000138135
3.80497e-05
-2.26817e-05
-1.53684e-05
-2.68191e-05
0.000228102
-0.00020128
0.00190561
-0.00349929
-4.40119e-05
5.84591e-05
-1.44463e-05
0.000609014
-0.012226
0.00745003
0.000591585
0.000323512
-0.000915095
7.85032e-06
2.22848e-07
-8.07328e-06
-0.00415061
0.000151493
-0.00041745
0.000265959
-1.90748e-05
1.94011e-05
-3.26039e-07
-0.029947
0.0292033
0.000743605
-0.000318737
1.78722e-05
0.00030087
-0.000370147
0.000281021
8.9127e-05
-0.000212182
0.00638868
0.0109844
-0.015032
0.000307161
-0.00052749
0.000220329
7.89505e-06
-5.19063e-05
5.41109e-05
-9.88011e-06
-4.4231e-05
0.00094558
0.000668234
0.0205293
-0.0421485
0.0216195
0.0195386
0.0242349
0.00971286
-0.00263113
-0.00708169
0.00495003
-1.79427e-05
1.79425e-05
0.000369327
0.00195806
-0.00232737
3.40195e-05
-0.00055233
0.00129777
0.00300699
-0.00430476
0.0418946
0.0191624
-0.0610568
-5.8152e-05
4.29379e-05
1.52159e-05
0.0014419
-0.00352192
-2.79636e-05
-0.000816865
0.000844832
0.000357423
-0.000771898
0.000414492
0.00113513
-0.00224252
0.00110739
-0.0100143
0.00738321
-0.00274247
-0.00510783
0.0204321
-0.0036629
0.000833062
-0.000387708
0.000475561
-0.014569
-0.000182613
-0.000349531
0.000532087
-0.00040456
-0.000137238
0.000541786
1.78281e-05
3.62826e-05
-2.88135e-05
7.29405e-06
0.000954562
-0.000688087
0.000215966
-6.95888e-05
7.77191e-05
0.000253408
0.000340811
-0.000276896
-0.00506105
-0.00280133
2.27493e-06
-5.4788e-06
0.000320549
0.000634014
-0.00970528
0.00428004
0.00542521
0.00112561
-0.000791183
-0.000417259
-0.000571617
0.000988829
-0.000560929
0.000485462
0.0709793
-0.0531357
-0.000501504
0.000105332
0.000396173
-0.000326524
0.000478018
-0.0366507
0.0232573
0.0133932
-3.06378e-05
0.000633007
-0.000602369
0.00128413
-0.00042423
0.000241614
0.000848848
0.000162213
-0.000756105
-2.23807e-05
0.000778486
4.41416e-06
-1.44194e-05
-0.0162219
0.0274867
0.00244751
-0.00207819
0.00877104
-0.00890385
0.00013282
-0.0134395
-0.00348575
0.0169251
-0.000116053
-0.000202681
0.0146687
-0.000391755
0.00111866
-0.0031168
-0.0124412
0.0364836
-0.0240425
-2.68673e-05
-3.12853e-05
-0.00535406
0.0258835
-6.12708e-05
-1.89511e-05
8.02215e-05
-0.0192446
0.0305622
-1.89764e-06
1.65427e-05
-0.00780345
0.00124804
2.00386e-05
-0.000424607
-0.000450008
0.000196043
0.000253965
-0.0361484
0.00779166
1.8833e-06
4.47961e-06
-6.36272e-06
-0.000201984
0.000222292
0.00622371
0.00233363
0.0407411
-0.0551758
-0.0019347
-0.000850358
0.00278505
-0.00654432
0.00148326
-0.00624904
-0.00922337
0.0154724
-4.80178e-05
2.11497e-05
4.01066e-05
-3.25677e-05
-7.53971e-06
-0.00224928
-3.44803e-05
-0.000107372
-0.00039413
3.97001e-05
4.08835e-07
-2.69189e-05
0.000668652
-0.000641731
-0.00694925
-0.0096921
0.00106639
-0.000745843
0.000502081
-0.000194918
-0.000121904
0.000359623
-0.000237719
-0.00208725
-0.00257007
0.000147271
9.671e-05
-0.00587543
0.0168599
-6.09561e-05
0.000205688
0.0267434
-0.0240314
-0.0126191
0.0229984
-0.000462987
7.39402e-05
-0.000157867
8.39276e-05
0.000157467
-0.013597
0.00268893
-0.00531682
0.00262789
-0.000313783
0.000484894
-0.00017111
-1.29806e-05
2.24579e-05
-9.47731e-06
0.000243427
0.000882213
-1.22528e-05
2.7734e-05
0.00150349
5.56459e-05
-0.000118645
-0.000156704
-7.04503e-05
0.000256158
-0.000185707
0.000910016
0.000567679
-0.0014777
-0.000252438
0.000228968
2.34679e-05
0.000455649
0.000610745
0.00123192
9.17708e-05
-0.00132365
0.000191661
2.43066e-05
-0.0191375
0.0269862
2.2642e-05
0.000136523
1.57796e-05
-5.98101e-08
0.000137222
0.00174205
-0.00187927
-0.00126502
0.00329877
0.00443306
0.00226722
-0.00670028
0.0101824
-0.0164316
0.00290763
-0.00393226
0.00102458
-0.000206898
-0.000356116
0.00180468
-0.00109778
-0.000706899
0.000396491
-0.000406959
1.04679e-05
0.0108636
-0.020087
0.00236954
-0.000325728
-0.00510978
-0.00269366
0.0126415
-0.0318861
-0.000955937
-0.00149829
-1.63151e-06
4.17565e-06
-2.54382e-06
-0.0136439
-0.00439396
0.000857183
-0.000218576
0.000323078
-0.00035308
2.99998e-05
-0.000210383
-0.000159763
-0.000438532
0.000316628
-0.000149389
-1.78913e-05
0.000167285
0.000216867
0.000126416
-0.00295228
0.00236449
0.000587774
4.43933e-05
-3.07143e-05
-1.3679e-05
0.00177481
0.000594721
-1.89337e-05
-0.000254269
0.000273203
0.0146464
-0.000489372
-0.000349879
0.000839178
0.011511
-0.00765508
-0.00385592
-0.000187965
0.000173497
1.44681e-05
-0.027546
0.0169393
0.0106067
-5.47075e-05
4.48268e-05
-0.0185869
0.00488595
0.013701
-1.56549e-05
-2.28714e-06
0.000344179
-0.0189311
-0.000651416
0.000337632
-0.00522335
-0.00174854
0.00697192
0.00048089
-0.000121267
0.00184205
-0.00276486
0.0188698
0.0112071
-0.0300768
-1.83512e-05
-2.22397e-06
1.92957e-05
-5.17726e-05
6.37477e-05
-1.19729e-05
0.00158601
0.000648077
-0.00643629
0.0253061
5.27789e-06
-3.66901e-05
-0.000147338
-0.00030267
0.000322575
0.000158315
2.78167e-06
0.0146886
-0.0699944
-0.00838221
0.000358061
0.00802412
-0.00335425
0.0077873
-0.00212781
-0.000614911
0.00274271
-3.33879e-05
0.000356465
-0.0234383
0.068662
0.01709
-8.70929e-05
-0.000669011
0.00126612
-0.000863249
-0.00040287
0.000827951
-0.0111215
0.0102936
-0.000121807
-0.000130634
5.36938e-06
-7.32157e-07
-4.63695e-06
-0.000306942
6.12892e-05
0.000245655
0.00421106
0.00729994
0.0269335
-0.0205935
-0.000366758
0.000482164
-0.000115408
0.000145942
-0.000499796
0.000353854
-8.24471e-05
0.000633914
-0.00011107
0.000636168
-0.000525097
0.000829253
-0.00111794
0.000288686
3.31356e-05
-3.26999e-05
-4.36538e-07
0.00599331
-0.0143753
0.00838195
0.00019414
-0.000683531
0.0116656
0.0129613
-0.0246269
-0.0305495
0.0724441
-0.00149595
0.00328044
1.18196e-06
7.01701e-07
0.000281947
-0.000782494
-5.56113e-05
9.03918e-07
-1.25654e-05
-4.15114e-07
-0.00203964
0.0136979
0.0265347
-0.00997707
-0.00691401
0.00169068
0.000728991
-0.000840061
-0.000369064
0.000678675
-0.000309591
0.0001047
0.000127176
-0.000231892
8.66346e-05
-8.94291e-05
-0.0216775
-0.00826945
0.0311505
-0.0173101
-0.0138403
-0.000114866
0.0004723
3.50098e-05
2.12298e-05
-9.33462e-06
-3.88898e-05
-1.93933e-07
3.90853e-05
-0.0182517
0.00436202
0.0138896
-4.57053e-06
-0.0408782
0.0636106
-0.000322289
-4.44708e-05
-0.000192053
0.000165237
-0.00884587
0.000463829
0.0170341
-1.61261e-05
-0.000197902
0.000745303
-0.000547392
-0.000785127
0.000416085
-0.0275917
0.0446258
0.00110087
0.00756869
0.0374719
-0.0335418
-0.00393007
-0.000189706
0.000492097
-0.0181694
-0.00937657
-0.000882201
0.00179222
0.000268601
0.000125241
-0.00327246
0.00352072
-0.000248273
0.000548528
-0.00143073
0.00253683
-0.00228244
-0.00025439
-5.89209e-06
1.40287e-05
0.000523831
-0.000721729
-0.0146929
0.0451585
-0.0304656
0.000151826
4.37377e-05
-0.00019556
0.00128137
-0.000999421
-5.30522e-05
0.000336609
-0.000283556
4.037e-05
4.02419e-06
0.00220332
0.00010815
-0.00231146
0.0026007
-0.000397383
-0.00863391
-3.87468e-05
1.90362e-05
1.97098e-05
0.000158302
-6.47137e-06
-1.12507e-05
-2.74964e-05
0.00250816
-0.00526808
0.00275994
-0.00024281
0.0017463
-2.00391e-05
6.29802e-05
6.99728e-06
-6.82678e-05
-0.00160316
-0.0044024
0.00600555
-1.15469e-05
-3.5677e-06
-0.000243397
0.0133
-0.00273647
0.00141817
-0.000109978
-0.00130819
-0.00425663
0.00051513
0.00374151
-2.37916e-05
-9.28219e-06
-6.07212e-06
-3.28171e-05
-1.14847e-05
5.28897e-05
-4.14043e-05
-0.00273265
0.00287882
-0.000146175
-0.00051677
0.000489847
-3.49959e-07
0.101826
-0.0240618
-0.0777638
1.24655e-05
-3.67087e-05
2.42417e-05
0.00100986
-0.000559893
-0.000449963
5.1095e-05
-2.94465e-05
5.73048e-07
1.86642e-06
-2.4392e-06
-0.000214486
0.00020795
6.53121e-06
-0.000767147
1.59065e-05
6.74819e-05
-3.44971e-05
0.000346383
0.00010515
-2.65282e-05
-7.86217e-05
-2.48229e-06
3.05556e-06
-1.27778e-06
-5.0493e-05
0.00379474
-0.00191143
-0.0018833
0.00401581
0.00158607
0.000506038
-0.000375639
-0.000130396
-0.000427642
0.000546112
-0.00011847
9.49174e-05
-5.23927e-05
-4.25195e-05
-0.00643735
-0.00150803
0.0079454
0.00228554
0.000251293
-0.00141144
0.00123801
0.000306332
1.49511e-05
-0.000321234
1.09932e-05
0.000726163
-0.000364769
1.29843e-05
-1.19866e-05
-9.97137e-07
0.00342464
-0.000517024
0.00476641
-0.00225825
0.000605713
-3.39447e-05
1.81805e-05
0.0227761
-0.0687755
0.0459995
0.0175498
-0.0346109
0.017061
-0.00544198
8.88658e-05
0.00535313
-5.32071e-05
4.17234e-05
0.0037221
-0.00498713
0.0668411
0.0186582
0.00564493
-0.000391564
0.000389079
2.4848e-06
-0.000327146
0.000371413
-5.77369e-06
4.14222e-06
-0.00237552
-0.00220221
0.00457773
-1.82028e-05
-0.000373361
0.00727133
-0.00253543
-0.00473589
-0.00136611
0.00191464
-0.0832485
-0.000272599
9.20615e-06
0.000263394
0.0127833
0.0118112
-0.0245944
-0.000647631
-0.00208503
-0.000276728
-0.000400285
-0.000238946
-0.000153429
0.000511896
-0.00244661
8.73595e-05
-2.80978e-05
-5.92605e-05
-0.000264591
7.59727e-06
-0.00872578
-0.000455857
0.000983369
-0.000527512
0.0238874
0.00726297
-0.000141838
0.000309274
-0.000167438
6.59387e-05
-1.33105e-05
-5.26287e-05
-3.08352e-05
4.07421e-05
-9.90694e-06
-0.0283251
0.0158839
-0.0040834
-0.00246549
0.0065489
1.51404e-05
-8.34691e-07
0.000453276
-0.000348588
0.000226545
-0.000279815
5.32691e-05
0.00359904
-0.0052022
3.26843e-05
-5.91893e-06
-2.67654e-05
-3.21514e-05
2.19513e-05
1.02008e-05
-0.00100379
0.00115192
-0.00014815
-0.00161254
0.00201081
-0.000398314
-0.000934076
-0.000532881
0.00146696
-0.0107816
0.0235648
0.00213059
-0.00185598
-0.000737616
-0.00351901
0.00161988
0.000744598
0.00341076
0.00118883
-0.00219263
2.49272e-05
0.000281435
1.03274e-05
1.23831e-06
-1.15657e-05
-0.000119676
0.000261402
0.000181957
-0.00025241
0.0064121
-0.00792316
0.00151108
-0.00092626
0.00126684
-0.000340583
0.0269231
-0.00937327
6.64077e-06
2.60867e-06
-9.08386e-06
-1.62914e-05
0.000101666
-0.000221592
0.000119914
0.00427602
0.00246792
0.00317711
-0.00918515
-0.047347
0.0565322
0.0114475
0.0128114
-0.0242588
-0.000595442
0.0127721
-0.016258
-0.0055904
0.00499278
0.00059762
2.02599e-05
0.00225119
0.00154355
-6.52352e-06
7.04746e-06
0.000161146
-0.000229694
6.85373e-05
-9.30894e-05
-0.00163504
0.00436228
-0.00272727
0.0185956
-0.00837636
0.000115779
-4.18381e-05
-0.00945826
-0.0086634
-0.00650534
0.000914956
0.00271672
-0.000231248
-0.0024855
0.0177026
-0.0148868
-0.00281589
0.00104051
0.000377653
-0.000435203
0.000196543
0.000238656
0.00088809
0.000378035
-0.00025626
-0.000178943
-0.00219465
0.00488359
5.03871e-05
-0.000376911
-0.0131981
0.0118045
0.00139348
0.0361445
-0.0279998
-0.00814426
-0.00400294
0.00162743
-0.000267497
-0.000259993
0.00018951
-0.0013064
0.00111688
-0.00893222
-0.00426593
-0.0519381
-0.0313104
0.0434558
-0.0404509
-0.00300482
-0.000649333
2.29304e-06
5.55775e-06
-4.01384e-05
-0.000358751
0.000423642
-6.48863e-05
1.42587e-06
-2.76665e-05
2.62411e-05
0.000565942
-0.000741615
0.00085499
-0.00063864
-0.000357813
0.000408202
-1.43484e-05
0.000100983
2.25419e-05
-1.95721e-05
-2.96793e-06
-3.5552e-05
-0.000637977
0.0017731
-0.000197143
0.000210998
-1.38549e-05
-0.00365435
-0.00524949
0.0187678
0.00154206
5.56345e-07
2.37353e-05
0.00373237
0.023201
-0.0002339
-0.0010277
0.000571839
0.000539316
-0.000356134
-0.000183185
0.00012371
-0.00294278
0.00281906
7.84562e-07
0.000225759
0.0038038
-0.000220199
-2.53887e-05
0.000245588
-9.87303e-05
-0.000173868
-0.000762638
0.000675545
0.0155786
0.00212401
0.0190636
0.00343819
-0.00930948
0.00587127
5.57397e-05
4.20578e-05
2.65833e-05
-0.00394668
0.00524444
0.000167956
-0.000204295
3.63392e-05
2.42047e-05
-0.000173853
0.00014964
0.000144795
-0.000135585
0.00025031
-0.000698223
0.000447909
-0.0161812
0.0276287
-0.000356702
-0.00175616
-0.000187245
-1.54472e-05
0.000202693
0.0059713
-0.002018
-0.00395329
0.0022964
0.000385443
2.73677e-05
-0.000386115
0.00261148
-0.00156833
-0.00104316
-0.00108722
0.00579495
-0.0592429
0.0900209
-1.32434e-05
-5.83149e-06
-1.86326e-06
-4.11872e-07
0.000855277
0.000129177
0.0454031
-0.00194727
-0.00226509
0.00196493
0.000300171
0.000400463
0.00143861
-2.6636e-05
-1.58667e-05
4.25033e-05
0.0133033
-0.00226733
-0.011036
-0.000198041
-1.64452e-05
0.000261339
0.000748517
-9.6205e-06
-2.48133e-06
1.21022e-05
-0.00173191
0.000119296
-0.000292084
0.000324329
-3.22419e-05
0.000345317
-0.00109805
3.32731e-05
-0.000253473
4.33271e-05
0.0001357
2.12308e-05
0.000333666
-0.000235512
-9.81549e-05
-5.88604e-05
-4.14129e-07
-2.22675e-05
-0.000198801
7.76776e-05
0.000757726
-0.000785689
0.000192058
0.000347259
1.0192e-05
-2.48804e-06
-7.70231e-06
0.00959749
-0.00680456
-0.00279294
-0.00351117
-0.00489608
0.00840728
-0.0272446
0.0653357
0.0164874
-0.010494
-1.02865e-05
2.13075e-06
8.15765e-06
-0.000185715
3.63297e-05
0.0091373
-0.00503964
0.0397685
-0.0489537
0.00671081
0.0224925
-0.00785527
0.0321544
-0.0242991
0.0442619
-0.0287105
-3.08405e-06
-1.85001e-06
4.93395e-06
0.000194483
-0.000218273
2.37809e-05
-0.000214292
-0.000548345
8.89898e-05
-8.32847e-05
-5.70886e-06
1.22887e-05
-1.17925e-05
-0.000276173
-4.99775e-05
2.9217e-05
2.07609e-05
0.00430926
-0.00235117
-0.0117176
0.00826854
-0.0162939
-0.00348641
0.0197803
-1.55129e-05
6.78671e-05
-5.19582e-05
-0.000218494
0.000249618
-3.11228e-05
1.21476e-05
-1.82028e-06
-0.00032162
0.000268569
-6.37055e-05
0.000152703
-0.00820368
0.0110114
-0.00280771
-0.00284649
0.00567904
-0.00283253
0.000537964
0.000281405
-7.99562e-05
-0.000195527
8.28297e-06
0.0495535
0.0214258
0.00396886
-0.000961882
-0.0203373
-0.0156328
0.0359702
0.0633607
-0.000233599
0.00011106
6.11381e-05
0.00779126
-0.00506057
0.00857512
-0.00513694
7.55427e-05
-5.95068e-05
-1.60346e-05
0.000646269
-0.000308984
0.00105723
-0.000748243
0.00104938
-0.00215992
0.00111054
0.000487033
0.00073951
-0.00122653
7.0584e-05
0.00768409
-0.00775466
0.000234539
-8.72718e-05
-6.94809e-06
9.41252e-06
0.00170996
0.000242691
3.05608e-05
4.49825e-05
-0.00094315
9.67571e-06
0.00093348
0.0228542
-0.0191219
-0.0285291
0.0025462
-0.000991275
-0.0163633
0.0173545
0.0058609
-0.00607309
-4.59088e-07
1.98604e-05
0.00118622
-0.000244591
-0.000941622
-0.000125577
-0.000105383
-0.0142992
-0.000360251
0.000395795
-3.55431e-05
-3.32787e-05
1.83817e-05
1.48971e-05
-0.0175305
-0.0817074
0.0908437
0.000758855
8.99929e-05
2.20437e-05
-0.000401106
0.000157745
0.000111373
1.92253e-06
-0.000815937
-0.00155235
0.00236829
0.0138779
-0.0246595
0.0223443
-0.00512348
-0.0172208
-0.000199298
-0.000163817
0.000363118
-0.00625364
-0.0015528
0.00515184
0.000428252
-0.000777821
0.0552027
-0.00471522
0.013776
-0.0136185
-0.000254581
0.000867021
-0.00061244
-8.5063e-05
-1.37144e-05
0.000136856
-0.000464002
0.0022371
0.00207215
-4.09758e-05
0.000261898
-0.000220932
-0.000230795
0.0030386
0.00655888
0.00440519
-0.0217951
0.0342216
-0.0124265
-0.000296946
-0.000267488
0.000564431
0.000185816
-1.813e-06
1.17023e-05
-9.88694e-06
-0.000703446
-6.84479e-05
1.68854e-05
0.000157671
-0.000174555
0.000954221
-0.000362657
0.000861531
0.00053909
-0.000277911
-0.000261177
-0.0111225
-0.00712917
4.69875e-05
-0.00180214
0.00148837
0.000313772
0.00642488
0.0157519
-0.0221768
0.00287783
0.000844268
-0.000302469
0.000252786
4.96805e-05
0.000472896
0.000715206
0.0295689
0.00105688
-0.00020189
-0.0023942
0.00157826
-0.000631954
0.000377373
-0.000332732
0.000165893
0.000166913
6.65897e-05
-0.00649277
-0.00551251
0.0120052
0.000313228
0.000248656
-0.000561881
-1.71286e-05
3.17335e-06
6.51747e-05
3.06616e-06
-6.82417e-05
0.000278069
0.000224012
6.21734e-07
-0.000355421
0.000354798
5.37531e-06
1.7167e-05
0.00374319
-0.00544615
0.00170301
0.0167782
-0.016434
-0.0338679
0.0120728
0.00195472
0.00372292
-0.00567762
7.2148e-05
-2.6807e-05
-4.53406e-05
-0.00101473
0.00125817
0.000319834
0.000608946
-0.000928777
0.00107756
-0.000710457
0.00088015
1.18856e-06
2.83647e-05
-2.95526e-05
4.13636e-05
-0.0101803
0.00908799
0.00109237
-2.36458e-05
3.52474e-06
-2.68952e-06
-8.33776e-07
0.0250851
-0.000137406
-0.000363347
0.000363969
-0.0822557
-0.0130295
6.8664e-06
6.03766e-06
-1.61323e-06
-4.42341e-06
-0.00151021
0.000576134
0.00344287
3.66185e-05
0.000219542
-1.01592e-05
-3.08249e-05
4.09836e-05
-0.00636677
0.00108519
-4.46742e-05
-7.49622e-06
0.000504149
-2.10724e-05
-1.22056e-05
-0.000232218
0.000733666
-0.000501449
-0.000793787
0.000636714
0.000157071
1.96028e-05
-1.71874e-05
-2.41492e-06
-3.83602e-05
3.95484e-05
0.00109274
-0.00057771
-0.000515025
0.00279262
0.0139855
0.00125246
0.00643162
-2.1809e-05
9.20444e-07
2.08888e-05
0.0069195
-0.0352446
-0.00290947
0.00229456
-0.00266254
-0.00919269
0.0118551
0.00117633
-0.00107329
-0.000103048
-0.000760141
0.000949651
4.11583e-05
4.62022e-05
-0.000217121
0.000353977
0.0520751
-0.029299
0.00793114
-0.00710316
0.000385799
-0.000168938
0.00165549
-0.0192221
-0.000164702
0.000477931
0.000299068
-1.39313e-06
-0.000297677
-0.000655342
-0.0011468
-7.90054e-06
0.000199562
-0.000223294
-0.000341292
-0.000104784
-9.40174e-05
0.0473218
-0.0267832
-0.0205386
0.0122907
-0.013282
0.000338698
0.000754039
0.00977151
6.22571e-06
6.75885e-06
0.000134135
-0.000275975
4.71938e-05
-3.18992e-05
0.000684226
7.46299e-05
0.0108188
-0.00348394
-0.00733482
0.0181379
0.000329152
-3.00844e-05
0.00840482
-0.0272464
0.0188416
0.00514002
-0.00798649
6.89833e-05
3.61665e-05
-0.0203838
0.0151209
-0.00122705
0.000693109
0.000533948
0.0193862
0.0080149
-0.00596066
-0.00205428
0.000398666
0.000177181
0.00100904
0.000326837
0.000758357
-0.000458279
-1.31153e-05
-3.18021e-05
1.66153e-06
-0.0398457
0.00853435
0.0313113
-9.07089e-06
1.53907e-06
-0.00166213
-0.00231919
0.00398133
-0.000600045
0.00145211
0.00258048
-0.00403259
-0.00131357
-0.0202166
0.02153
-0.00738221
0.000141243
-0.000374211
0.00023297
-5.93656e-06
-6.62824e-06
-0.00520485
-0.000237125
0.0231012
0.0242205
0.000201229
1.2272e-05
5.67026e-06
0.0196188
-0.0656048
0.0459858
-0.00840541
0.0112385
-0.00283311
-0.000344887
0.000332894
-0.000122193
-0.00031422
-3.88579e-05
-2.04874e-06
0.000556699
-0.000554651
1.09664e-05
8.6366e-06
0.000725133
0.00211661
-0.00284174
-0.00593775
0.0768434
-0.0572246
5.2379e-05
-5.82493e-05
5.86936e-06
0.00722013
-0.00418153
8.61821e-06
9.28851e-07
-9.54719e-06
0.000244854
0.00161746
-0.0018623
0.000234782
0.000219261
-0.00017826
0.000195145
1.956e-05
-1.41836e-05
0.00473748
0.00248265
-0.00266454
0.00109619
-0.000347258
0.000488503
6.20948e-05
-0.000571921
0.000295194
-0.00246222
0.00391434
-0.0127186
0.00230719
0.0104114
0.000438314
-0.000440359
-0.000112199
0.000380799
2.89109e-05
-0.00438026
0.00180206
0.00257822
0.00954714
-2.88473e-05
-0.00951777
0.0022363
-0.00199143
-0.00198439
0.00104035
0.000944052
-0.000260019
-0.000311901
0.00567888
-0.00341166
-0.0133411
0.000622514
0.0288108
-0.035247
2.37913e-05
9.34354e-06
0.000214258
-3.45584e-06
0.00509562
-0.00142321
-0.00367241
-0.0101984
0.00753587
-0.000740204
0.000531072
0.000209125
-0.000646749
0.00257011
-0.00192336
0.00109893
-0.000775418
-0.000678506
-0.000548547
8.72718e-07
2.87993e-06
-3.7528e-06
1.51033e-06
3.85944e-06
0.0139676
-0.00889131
-0.00507628
0.000835263
0.00998351
-0.000524686
0.000718797
-7.92917e-05
0.00131123
0.0265522
-0.0196326
-8.978e-05
-6.96506e-05
7.66485e-05
0.00019226
0.000193532
0.000267652
-0.000325971
5.83202e-05
8.89293e-06
-8.09359e-07
-4.96469e-05
3.63356e-05
-0.0144451
0.00856973
0.0112107
0.00922147
2.28541e-05
1.94315e-06
-2.47972e-05
0.000174811
0.000543163
-0.000718009
0.0117143
-0.010879
0.00403573
-0.00738998
9.68494e-05
-0.000181744
8.48944e-05
0.00119872
-0.038026
6.26294e-06
-6.03993e-06
-8.76062e-06
0.000187154
-0.000981672
0.000794519
-1.69131e-05
-3.81651e-05
5.50787e-05
7.13567e-06
0.000250531
7.67966e-05
-0.000327325
-0.000915141
0.00102444
0.00201684
-0.00266359
0.0178335
0.00451082
0.0089065
0.00460594
-0.00192758
-0.00267836
-0.0262071
0.00559856
0.0206085
-1.98157e-06
-8.30423e-06
-6.04498e-05
-0.000292521
0.000273587
0.00416393
-0.00407507
-0.000209892
-9.99816e-05
0.000309875
-0.000486652
0.000185018
-0.0226526
0.00116652
0.0214861
-0.000298077
-0.025909
-0.0157463
0.07131
-0.0555636