/*--------------------------------*- C++ -*----------------------------------*\
| =========                 |                                                 |
| \\      /  F ield         | OpenFOAM: The Open Source CFD Toolbox           |
|  \\    /   O peration     | Version:  v2012                                 |
|   \\  /    A nd           | Website:  www.openfoam.com                      |
|    \\/     M anipulation  |                                                 |
\*---------------------------------------------------------------------------*/
FoamFile
{
    version     2.0;
    format      ascii;
    class       volScalarField;
    location    "300";
    object      k;
}
// * * * * * * * * * * * * * * * * * * * * * * * * * * * * * * * * * * * * * //

dimensions      [0 2 -2 0 0 0 0];


internalField   nonuniform List<scalar> 
13308
(
5.89597e-05
0.0628775
0.0480159
7.80665e-05
0.000110311
5.14316e-05
0.00014692
9.21357e-05
0.000147948
0.107416
0.0342321
0.0210653
5.25862e-05
7.94248e-05
5.46936e-05
0.0480936
4.01858e-05
0.0638417
0.0356556
0.0348421
8.08585e-05
0.0609856
0.0868812
0.000100359
0.0475615
0.069911
0.000113979
0.0316256
0.000115439
0.000123013
0.0658408
0.000115953
0.0841168
0.000135721
0.0854754
5.42401e-05
0.000147015
0.0886393
9.05294e-05
0.0467378
8.55762e-05
9.35364e-05
0.0742515
7.54569e-05
8.99738e-05
0.00207584
5.79242e-05
8.35508e-05
5.27965e-05
0.046026
8.86584e-05
8.02249e-05
0.0497528
0.0142606
0.0262727
0.0295622
7.54001e-05
7.98604e-05
9.55746e-05
9.48801e-05
0.0261924
0.0904116
7.99648e-05
8.86194e-05
7.63236e-05
0.082662
7.07486e-05
0.00574889
5.65502e-05
0.000185391
0.0720335
9.01631e-05
4.83194e-05
0.000118248
0.0394974
7.51376e-05
4.69681e-05
0.0275158
7.81532e-05
0.00394386
8.40076e-05
4.72425e-05
7.46694e-05
9.82251e-05
0.00215275
9.24734e-05
0.0243892
0.0863477
0.00956583
0.0208616
8.87288e-05
7.04634e-05
0.000115068
8.13082e-05
8.17108e-05
5.63938e-05
9.38268e-05
0.00354777
0.0736014
0.000171844
8.83845e-05
8.96171e-05
6.98019e-05
8.18854e-05
0.0384799
0.064838
0.0495585
6.08233e-05
0.0598031
0.0721631
9.49864e-05
0.00018956
6.90989e-05
7.81784e-05
6.9807e-05
0.0356788
0.00363385
0.0154253
0.00011615
7.88627e-05
0.000107332
8.13694e-05
5.87753e-05
0.000308581
0.00954593
0.000435358
0.00422391
0.00201172
6.34444e-05
0.0397571
0.0730721
8.97773e-05
8.84736e-05
5.67284e-05
0.000144876
0.000199742
7.14805e-05
0.00915656
0.000119272
9.40926e-05
0.0410739
9.49708e-05
8.46133e-05
6.9208e-05
9.21175e-05
0.000108192
0.00209768
0.0179711
8.39931e-05
9.60722e-05
0.0282639
8.20241e-05
0.101549
0.0314407
0.0800626
0.00011212
6.37883e-05
6.03906e-05
8.63234e-05
0.000947107
0.103748
8.02669e-05
8.44641e-05
0.0920426
0.000111811
0.000107484
0.0600782
6.0042e-05
0.0588095
0.000106661
9.51849e-05
0.015324
8.81606e-05
0.0429798
0.0227748
0.0662375
0.0628331
0.0472001
9.90465e-05
6.58445e-05
0.0148088
0.0497097
6.99772e-05
0.111841
0.0894323
5.49103e-05
0.0316488
0.0659684
0.000126001
0.0577664
0.0491364
0.0419891
9.21154e-05
0.021921
9.25781e-05
0.0674068
9.51147e-05
0.00100172
0.0648681
9.32737e-05
0.0504686
0.0495791
0.0498463
0.000141122
0.0412922
0.000134987
0.0442916
0.0460825
0.0834222
0.024653
0.0891278
0.000145659
0.000120095
0.0423934
0.0817909
7.92935e-05
6.6113e-05
0.0865355
0.000690342
0.0461669
0.0274016
7.61968e-05
0.000107072
4.48029e-05
8.22963e-05
0.0482425
9.66035e-05
0.0235034
0.0289969
0.000496828
0.0429106
7.89718e-05
0.0468075
0.00370987
9.10784e-05
0.000116043
0.0585629
0.00611607
0.0785733
8.0086e-05
9.89015e-05
0.000125065
8.17079e-05
4.50098e-05
0.0147776
0.0876296
0.000137269
6.69855e-05
4.48952e-05
0.0872127
0.0829045
0.084385
8.81465e-05
0.0892177
0.0729856
7.99647e-05
0.0987791
7.86406e-05
0.0241172
0.0281578
0.000122565
0.000323631
0.000116373
6.94116e-05
0.000107178
8.75838e-05
0.0223426
8.89547e-05
0.0215546
0.0518929
0.000332493
0.00010844
8.12742e-05
0.000117828
7.9345e-05
8.08286e-05
5.73647e-05
0.0126123
0.000110375
0.0001006
0.0693305
9.18218e-05
0.0115768
7.99059e-05
0.0670986
0.0968621
6.92547e-05
6.51839e-05
0.000106944
0.125684
0.000116231
6.94913e-05
0.0171504
0.0500337
6.21336e-05
0.0757783
0.0302226
0.000118107
0.000103129
0.0486838
0.0830381
7.42635e-05
0.068585
0.00957516
0.0159272
5.16323e-05
0.000110873
0.0434686
0.00403628
5.46436e-05
0.0177305
0.0410675
0.000117051
0.0478594
0.0863126
0.0215535
7.1368e-05
6.18704e-05
8.45381e-05
0.0128746
8.62502e-05
4.72051e-05
0.039394
4.73331e-05
0.0431674
6.99101e-05
7.94692e-05
8.93296e-05
9.03367e-05
0.000111355
0.0796249
7.55803e-05
0.00471362
7.15257e-05
5.96399e-05
0.000971557
0.05114
6.00801e-05
9.53482e-05
0.00486523
0.000104199
8.94249e-05
7.82884e-05
0.00013388
0.0104964
0.121883
0.000107696
0.000107454
0.000137778
8.18039e-05
0.000121194
0.073158
0.0517504
6.89385e-05
5.4023e-05
7.50767e-05
0.0486635
5.12285e-05
0.000106551
0.0764872
0.073562
0.000143767
0.000107511
0.000382583
0.0521728
0.0830678
7.84079e-05
4.486e-05
7.98745e-05
0.00010226
0.0519016
0.0477403
0.00025612
8.8669e-05
7.94409e-05
9.76834e-05
0.0928949
0.0843839
8.43479e-05
0.0100518
8.81467e-05
7.15336e-05
0.00480713
0.000113004
5.70495e-05
0.0512774
0.000173239
9.55914e-05
7.03047e-05
0.115319
8.12545e-05
0.000381117
0.000139814
0.0501435
0.0141464
0.000117437
0.00758624
6.84645e-05
0.00713843
9.08401e-05
0.000669584
6.88829e-05
0.000167759
0.0819006
4.53587e-05
0.0816191
6.45031e-05
5.87134e-05
0.0734628
0.016641
5.64566e-05
0.000252408
0.00124059
6.84429e-05
7.10869e-05
0.0906229
8.77421e-05
7.06406e-05
9.55409e-05
9.9752e-05
0.000108435
7.95258e-05
0.000103089
8.50935e-05
6.93507e-05
0.0506654
0.0037488
9.23604e-05
0.0170275
0.00388044
0.110553
5.65466e-05
0.000129449
0.0840976
6.83518e-05
4.71264e-05
0.0939532
7.09479e-05
0.000118084
0.0456773
0.0469334
0.0680401
0.0478364
7.91526e-05
0.055935
0.000101527
0.0172384
0.0502749
6.96581e-05
0.0866176
5.6991e-05
0.0795737
0.000854279
0.0656802
9.98401e-05
0.000109784
0.000108315
0.0154076
0.0899547
0.000154727
0.000593427
0.0586281
7.66613e-05
0.103475
7.84711e-05
0.0179486
5.99343e-05
8.50607e-05
7.66954e-05
0.0530752
0.0260992
8.97204e-05
0.0913372
8.6125e-05
0.0229028
0.0840269
0.00010023
9.47114e-05
0.00687713
7.78509e-05
0.00642918
0.000136819
0.00660516
6.85434e-05
0.000128225
8.54273e-05
5.24249e-05
0.00721477
9.50943e-05
7.15971e-05
7.06645e-05
0.000112228
0.00783461
4.70967e-05
4.53153e-05
8.55956e-05
5.86026e-05
0.0117985
0.0736821
0.0803832
0.0689676
0.0203606
0.0799276
0.0230516
9.48611e-05
6.77658e-05
0.0001633
0.0477723
7.59546e-05
0.06052
9.96629e-05
0.000126102
8.89532e-05
6.26788e-05
9.97763e-05
0.000123711
0.000135147
9.09158e-05
0.000397489
0.0826589
0.102169
0.0556762
0.0890238
0.00023176
5.81376e-05
0.0222087
7.77553e-05
4.72426e-05
0.00445797
0.00035056
0.000125687
0.000125583
0.091603
0.0537445
5.45482e-05
0.00412413
0.00377829
0.0481858
4.68791e-05
0.0419477
7.59526e-05
7.77147e-05
8.92671e-05
0.0463847
8.87822e-05
0.0440175
0.0745388
0.0184026
7.11264e-05
6.78797e-05
0.0914167
0.0197101
0.0722422
0.0138666
0.0733531
0.00717757
0.0693107
0.030204
0.0872479
0.06843
8.55911e-05
9.00518e-05
6.81982e-05
0.05912
7.76684e-05
0.0144045
0.0312192
8.99202e-05
0.0863982
0.0808707
0.072922
7.45743e-05
7.72266e-05
7.48899e-05
0.0840052
0.000117189
6.89949e-05
9.07575e-05
0.0808221
6.90506e-05
0.0509547
0.000103445
8.35934e-05
0.000115245
8.87056e-05
7.64064e-05
8.40476e-05
0.000100199
9.62058e-05
6.66189e-05
0.0178771
6.79958e-05
4.60123e-05
4.47395e-05
8.09153e-05
0.0596675
0.0829737
6.98126e-05
0.0328612
9.30306e-05
7.93407e-05
7.04349e-05
8.80894e-05
7.3552e-05
8.74792e-05
0.000109902
6.90231e-05
0.0802366
8.47278e-05
0.0517698
0.0480459
0.000107363
0.000110822
6.50995e-05
0.0671519
0.082168
0.000111402
5.48424e-05
0.010643
0.000470541
0.000119061
8.36506e-05
6.02121e-05
0.0107738
0.000103435
0.0190164
8.3662e-05
7.40996e-05
0.000122682
0.0211251
8.0499e-05
0.0694671
0.0108225
0.0448483
0.0203189
0.00392419
9.90349e-05
8.94284e-05
0.0465241
0.0591613
5.56898e-05
8.33163e-05
0.0314564
0.0794471
0.000144909
0.00421973
9.7799e-05
9.12275e-05
4.47505e-05
0.00613523
0.00830447
7.15489e-05
0.0542805
8.82856e-05
0.0798569
8.81073e-05
7.41337e-05
0.0163694
0.0621727
0.00013016
0.00390272
0.0775909
0.000113985
0.0203287
8.08655e-05
0.0232343
0.0480735
6.09315e-05
0.0463064
0.0483919
0.0592067
5.0349e-05
0.000194895
5.54131e-05
7.04888e-05
0.059282
0.0603234
0.00448928
0.0103671
0.112297
9.87229e-05
0.000134771
7.88226e-05
4.48039e-05
8.72026e-05
5.9857e-05
0.0587354
0.0584859
0.000265395
0.0162223
5.65804e-05
0.0338349
7.81514e-05
0.000751903
0.0193709
8.32482e-05
5.2228e-05
6.74474e-05
5.19941e-05
0.0847522
7.11213e-05
0.0913305
0.0298606
0.000121695
0.000105102
4.99052e-05
0.0900166
0.00954669
0.0460841
7.92592e-05
7.49875e-05
7.58856e-05
0.0250212
8.75603e-05
0.000196753
0.000109916
7.11116e-05
5.42506e-05
8.77789e-05
6.80031e-05
5.07803e-05
9.46011e-05
0.000664813
0.101931
0.00180707
8.00989e-05
0.00434839
0.0465322
0.000146324
0.0854087
5.77167e-05
8.86514e-05
5.369e-05
8.58355e-05
0.0448019
9.42645e-05
0.0428979
0.00557115
0.0827757
9.52823e-05
7.51081e-05
0.0746104
8.53787e-05
0.0825146
7.92457e-05
6.88005e-05
0.114997
5.223e-05
4.85311e-05
0.000142182
0.000148
0.0267204
0.059772
0.0674101
0.0225973
5.87246e-05
7.51876e-05
0.000106699
0.046321
0.000267798
5.12895e-05
8.96185e-05
0.000110636
0.0603377
4.59263e-05
9.00827e-05
0.0624238
0.0610505
0.000134484
8.55945e-05
4.7259e-05
7.95691e-05
8.16448e-05
9.54034e-05
4.73332e-05
8.83591e-05
7.4677e-05
0.0869264
4.73401e-05
9.83396e-05
0.0781312
0.034138
0.000533064
7.19452e-05
7.67707e-05
0.0182528
0.0705604
0.00800011
0.000579218
0.0111871
0.0715666
0.000151789
0.0582724
9.35575e-05
0.0477824
7.04023e-05
0.0447
7.89077e-05
8.32684e-05
0.00311387
0.000437075
9.03424e-05
6.99654e-05
9.45457e-05
6.60793e-05
0.0329905
0.0480018
0.0841606
7.62873e-05
6.23728e-05
0.0412427
5.15992e-05
4.86136e-05
0.00915467
0.0733191
0.0238642
0.0152624
0.0432244
9.21096e-05
0.000670662
0.0837717
5.57997e-05
9.61567e-05
0.0701733
4.61322e-05
6.82576e-05
0.0815228
0.0522161
9.07693e-05
0.0597519
5.57405e-05
0.000106878
0.00606619
0.00931846
0.00668995
9.4192e-05
6.40897e-05
9.91373e-05
9.17604e-05
0.0130667
0.0284732
8.34233e-05
0.0657402
0.0210982
0.000172328
4.71108e-05
6.85442e-05
0.0454869
9.06207e-05
9.10343e-05
0.00499777
0.0118716
6.8164e-05
0.0780665
0.0806262
0.0527847
0.0144566
0.000120542
4.89372e-05
4.48007e-05
8.32391e-05
8.32893e-05
0.0473414
0.0598762
9.64323e-05
0.000106756
0.0211413
0.0735715
0.0440711
9.0032e-05
0.0491358
9.1091e-05
0.0808599
0.000153203
9.43628e-05
8.98052e-05
9.12534e-05
0.0385576
0.0981758
5.90816e-05
0.0538702
0.0774969
0.0133912
0.0706023
0.000111103
9.07833e-05
4.87886e-05
0.0487393
7.02443e-05
0.0870275
7.74379e-05
8.8101e-05
8.73254e-05
0.000102417
0.0203719
8.83679e-05
0.00468156
0.00661278
0.018801
8.84269e-05
5.35864e-05
0.0942553
7.43503e-05
7.47336e-05
0.0702675
7.33996e-05
8.44198e-05
0.000134845
9.50143e-05
4.82335e-05
0.00583606
0.0813386
0.0237755
0.0224094
7.0633e-05
8.51889e-05
0.000134388
0.000142874
0.0462539
8.52586e-05
0.0810836
8.29064e-05
9.49412e-05
0.0555678
8.30721e-05
4.941e-05
0.000100832
6.64028e-05
7.35491e-05
7.74011e-05
0.00655877
0.0814637
7.02231e-05
0.00443374
0.0641573
0.000119538
9.09264e-05
4.96391e-05
8.37238e-05
8.29699e-05
0.00783438
0.00016165
0.0538925
0.059855
0.0116563
7.714e-05
9.88106e-05
0.0434797
0.000101135
9.4329e-05
8.80914e-05
0.0053246
0.0067502
7.72781e-05
0.0648927
0.00391777
6.38215e-05
9.8451e-05
8.46237e-05
0.000157389
8.28934e-05
0.000170272
9.85723e-05
0.000169725
7.65855e-05
9.29801e-05
0.00666244
7.39952e-05
0.103509
9.49726e-05
8.78406e-05
9.97922e-05
8.25546e-05
0.000112188
7.44148e-05
6.65202e-05
0.0185898
7.70275e-05
0.0796249
0.000100051
7.22315e-05
0.020369
0.0731812
6.3267e-05
4.72987e-05
0.000116069
0.0044821
8.55906e-05
0.000133388
0.0160038
0.0850315
0.000119644
0.000117034
0.0199357
5.32947e-05
6.40227e-05
0.0461229
0.019474
0.0201528
9.2726e-05
9.46005e-05
6.90637e-05
9.96623e-05
0.0255575
9.07678e-05
8.84252e-05
9.31689e-05
0.0586954
6.34821e-05
6.93553e-05
8.92528e-05
7.21566e-05
0.00511264
5.33411e-05
0.0317027
0.000113069
0.0852446
0.0764109
9.94279e-05
0.0553775
8.89892e-05
0.0798114
0.00528578
0.00888151
8.75616e-05
0.048425
9.07915e-05
0.000117932
9.92171e-05
8.67608e-05
0.0808132
7.35733e-05
8.55179e-05
7.55808e-05
0.00010347
7.80475e-05
0.0835904
0.0569782
0.00306623
0.0470518
9.03111e-05
0.0551648
5.77804e-05
8.82945e-05
9.14075e-05
9.16661e-05
0.00106269
0.0780996
7.8815e-05
0.0544235
6.81372e-05
0.0799238
0.0928557
0.0334846
7.66435e-05
9.03636e-05
0.000126973
5.18169e-05
8.2232e-05
7.2355e-05
0.063651
8.75876e-05
0.0107723
0.00010414
8.92937e-05
0.00942084
7.60639e-05
0.0579329
8.61597e-05
0.000117335
0.0268126
0.0723376
9.58698e-05
0.00378832
0.00967374
0.0378012
0.000758677
6.71267e-05
0.0666871
5.48051e-05
0.0286641
9.2706e-05
5.64537e-05
6.76334e-05
0.0265596
0.0798881
0.0363305
0.0351212
0.0524282
0.0654234
7.30972e-05
0.0441537
9.32631e-05
9.04163e-05
0.0297043
0.050016
4.71164e-05
0.117576
0.000134524
8.58108e-05
0.0935707
9.18701e-05
7.23635e-05
0.0489554
7.5946e-05
0.000113945
0.0859372
0.000133841
0.0491949
8.68939e-05
4.48642e-05
9.25605e-05
0.0674842
0.000100181
9.81202e-05
0.000111425
5.90889e-05
5.3572e-05
9.95506e-05
0.0481246
4.80392e-05
0.114537
7.5929e-05
0.000173123
0.0526755
9.44968e-05
0.0826644
4.51642e-05
8.6443e-05
0.0618711
8.64539e-05
0.000187376
0.0687448
0.0474539
0.0685821
8.77382e-05
0.00941035
9.24799e-05
0.0840833
0.000305728
0.000107882
0.00987523
0.000170532
0.0351807
0.0549672
4.82977e-05
0.000149284
0.000113029
8.27194e-05
9.83959e-05
0.0242445
8.65494e-05
8.95484e-05
7.54258e-05
9.24332e-05
9.16904e-05
8.22649e-05
6.72796e-05
9.74938e-05
0.0505255
9.06465e-05
5.06334e-05
0.10946
5.3318e-05
0.00242673
0.00222678
0.0149424
9.01472e-05
0.0862731
7.01703e-05
0.0555438
8.15343e-05
0.0695246
0.0335845
0.0336243
0.021416
8.49532e-05
7.05853e-05
5.01032e-05
9.13835e-05
8.86058e-05
0.0440612
7.86379e-05
7.80383e-05
0.000150823
0.0620957
0.000153898
0.0256566
0.0477196
0.000146771
5.46234e-05
4.9173e-05
0.000168923
8.46899e-05
0.000100074
0.0885124
0.000102709
6.83511e-05
8.35191e-05
8.58661e-05
0.000214744
0.0822986
0.00761325
9.67533e-05
8.77918e-05
4.80509e-05
8.8326e-05
8.84904e-05
0.0705398
7.89515e-05
5.32861e-05
8.50579e-05
0.0107941
0.0574934
9.03747e-05
7.39068e-05
9.09173e-05
0.00682678
6.78115e-05
0.000101304
0.000121609
0.0817228
0.00507639
0.0699354
0.000120521
0.00498265
0.000100114
0.0931189
8.99289e-05
0.0505916
8.16138e-05
0.0568265
0.0923693
0.0537618
8.87166e-05
0.0125073
8.16045e-05
0.0849211
0.0570164
0.0880303
0.0922099
0.0721133
9.23725e-05
0.000121385
0.0308707
8.31205e-05
0.00933501
0.000110992
0.0490045
0.0907469
0.0635355
0.017283
0.0338687
7.06503e-05
0.0691165
0.000138531
0.0175487
4.9409e-05
0.000200026
0.0924664
0.000214001
0.0852904
0.000110682
0.00312804
9.71356e-05
0.0283129
0.0802166
8.82316e-05
0.0846502
0.0134754
8.57854e-05
0.0022554
7.31768e-05
0.000159657
0.000269437
9.30758e-05
0.119788
0.0723479
6.6821e-05
0.0891222
5.43609e-06
7.39058e-05
0.097106
0.0726909
0.018038
0.04484
6.80016e-05
8.27059e-05
0.00627067
5.11599e-05
0.0684724
0.00921618
0.0556741
0.0539516
5.35144e-05
0.000123928
4.61268e-05
0.0385664
0.0426899
0.0331272
0.000108932
5.13253e-05
0.0457834
0.000805871
0.000109047
0.0129479
8.20333e-05
0.063855
5.90765e-05
9.20725e-05
9.70046e-05
4.86452e-05
8.35398e-05
7.41617e-05
0.00919141
0.0553806
5.41846e-05
4.74839e-05
0.0560182
0.0824125
0.000107358
9.14495e-05
0.0934684
4.78414e-05
0.0548494
0.0808414
0.0849893
7.07506e-05
8.58394e-05
0.00407486
0.0508602
0.000117188
7.88116e-05
0.00772314
5.10567e-05
0.00728564
0.0346925
6.89043e-05
0.0871704
0.0070716
0.000100085
0.000129263
6.83992e-05
9.44342e-05
0.0474311
9.52694e-05
0.00305173
7.92432e-05
8.9917e-05
0.000158229
4.63632e-05
0.000124487
0.0464444
8.7669e-05
0.00191365
0.000837663
7.91361e-05
0.0899275
8.50063e-05
6.83803e-05
0.0547259
0.000162938
0.0579262
8.25195e-05
0.0750442
5.64359e-05
4.47907e-05
0.00568563
0.0825044
0.0627719
5.49416e-05
0.00139436
8.27779e-05
3.65964e-05
8.15722e-05
0.0215954
0.00604415
0.0357267
9.89401e-05
9.15392e-05
9.96203e-05
0.0368063
0.0851739
0.0099209
0.0640608
5.64666e-05
6.30276e-05
8.16925e-05
0.000139353
8.87298e-05
0.00011013
0.0692392
8.89703e-05
0.00273617
0.0832423
8.00193e-05
0.090032
6.80157e-05
9.14268e-05
0.0872616
0.0125594
6.71253e-05
6.20254e-05
0.000107671
0.000254023
0.0508104
0.0226017
0.0707169
0.000149047
0.0284076
0.0136494
9.43939e-05
5.50382e-05
0.0543628
0.000221683
8.78224e-05
9.89929e-05
0.0252677
0.00661217
5.10928e-05
0.0160503
5.74313e-05
4.96147e-05
0.0449999
0.000372972
0.0831371
0.0554875
0.000138886
0.000186104
0.0487693
8.86444e-05
0.0701376
0.000566914
8.19936e-05
0.000103458
9.28454e-05
6.8863e-05
0.0804801
4.91812e-05
0.0813408
9.76281e-05
0.000247864
0.0127631
7.93582e-05
0.0721213
9.87367e-05
0.00279494
0.110614
0.000147993
0.000132847
5.21035e-05
0.0819115
5.35011e-05
0.0941632
0.0366722
0.000194344
0.0162316
5.17739e-05
0.0707197
7.31692e-05
0.00010795
9.48569e-05
0.000560743
8.90626e-05
0.0307068
8.26276e-05
0.0408638
5.26134e-05
0.0897392
0.00429151
9.84487e-05
8.20227e-05
0.000264265
0.0867215
0.0140509
5.18132e-05
0.0763826
0.000271283
8.66098e-05
0.00860991
7.29392e-05
0.00010176
0.0806988
0.0212879
8.80317e-05
7.32836e-05
0.030314
0.0781571
0.0301638
9.19461e-05
5.20142e-05
0.093521
0.0281418
0.000105342
0.00619653
8.79249e-05
0.0521259
9.7882e-05
7.13386e-05
0.0170176
0.0911661
0.000110196
0.000112942
5.20133e-05
0.000105723
9.04033e-05
0.000119349
0.00439642
0.00025072
9.25959e-05
4.80204e-05
0.0820161
7.57563e-05
7.7193e-05
7.35936e-05
0.0517
0.042717
0.00187691
0.000103149
5.39251e-05
5.78507e-05
0.0927689
0.0682189
0.0832529
0.000145197
0.0833377
0.000103883
0.0810175
0.000106387
0.000163557
6.78033e-05
6.23282e-05
7.34282e-05
0.0530532
7.1157e-05
7.26832e-05
0.00770716
0.0498547
0.0815433
0.00664849
8.51013e-05
0.0372863
7.55803e-05
0.0258095
8.64308e-05
0.00940892
4.75977e-05
5.65133e-05
0.00853028
0.00845793
8.23016e-05
8.73552e-05
7.99096e-05
0.00343467
0.000113181
0.0388802
0.000220086
0.0789832
0.0521738
0.0939356
0.0479873
7.56179e-05
0.0542823
0.00012185
7.74243e-05
5.4493e-05
9.15294e-05
6.94016e-05
8.16683e-05
8.80916e-05
6.75887e-05
8.65167e-05
7.74533e-05
8.15749e-05
0.0108572
0.0493775
0.046314
7.77738e-05
6.91233e-05
0.014285
8.28428e-05
0.0489767
8.73149e-05
1.74867e-05
0.0566498
0.0966248
9.75635e-05
0.00016692
0.000326717
7.18123e-05
0.000615738
0.000130104
0.0528626
0.0905655
0.00396377
9.37922e-05
0.0806927
9.27002e-05
7.31767e-05
0.000127752
5.35181e-05
9.93483e-05
8.58668e-05
0.00703196
5.03129e-05
5.38589e-05
0.0846501
6.62671e-05
0.000104309
0.0680542
5.32708e-05
0.0129839
5.01721e-05
5.86156e-05
5.58089e-05
0.00213113
8.8326e-05
0.0773745
0.0791118
8.26695e-05
0.000320311
9.16598e-05
0.061468
0.0633642
6.31687e-05
7.93568e-05
5.6684e-05
5.77115e-05
6.14394e-05
6.85339e-05
4.7103e-05
0.00010849
8.6464e-05
0.0889404
0.0461439
0.000336692
8.05617e-05
0.000102282
7.03594e-05
0.00640902
0.00408284
0.0280467
0.00693531
7.93777e-05
0.0541477
0.0910026
6.88926e-05
0.0233045
0.00289868
5.84401e-05
5.73902e-05
0.0693912
8.30688e-05
5.73266e-05
0.000119564
0.0875381
0.0731244
0.00681045
0.0234458
7.87012e-05
0.0354964
0.049286
8.86079e-05
8.79979e-05
9.49045e-05
6.42641e-05
0.000118241
0.0232916
8.10448e-05
0.0128204
0.068344
0.074132
0.0864803
7.50468e-05
0.0744677
7.66628e-05
0.0940421
0.0474825
8.72815e-05
6.31579e-05
0.0664907
9.49823e-05
0.0473575
8.18609e-05
0.0493882
0.000128178
0.000290497
8.00837e-05
0.0682824
0.0823652
0.051034
8.9704e-05
0.0294579
0.040869
0.0835451
0.038637
9.38857e-05
0.0835897
0.0511906
0.00273206
0.0714365
0.0487577
0.0503217
0.0533882
0.0640864
0.0689827
0.032129
6.74904e-05
0.0489566
0.0676028
0.00400343
0.000145533
6.30115e-05
0.0923167
9.43369e-05
0.0857503
0.0499841
0.0749119
0.0333551
0.0785778
8.87768e-05
6.7126e-05
0.0868135
0.0774281
0.0553279
8.77391e-05
0.0457776
8.6238e-05
0.0554528
0.00310118
0.0393836
0.00130117
8.28044e-05
0.0800091
9.36344e-05
0.0724326
6.5265e-05
4.89479e-05
0.0867251
7.51841e-05
0.0140329
0.045324
0.0270738
0.100336
8.1407e-05
7.34285e-05
0.0694008
0.0866003
7.28597e-05
0.0791854
0.0715129
9.47988e-05
0.0595042
6.68822e-05
7.45899e-05
0.000155541
0.0139506
4.85287e-05
0.0282641
8.43854e-05
4.80931e-05
0.0847993
0.0608032
4.79355e-05
0.00504787
0.0557801
0.0786103
0.0561407
9.00881e-05
0.0986631
4.59158e-05
0.000124658
0.0868321
7.44092e-05
0.0692893
7.53327e-05
0.0886262
0.000107541
0.0269927
0.0691093
0.0830604
0.00692863
0.00512827
0.00019017
0.0702477
0.000219628
0.0939753
5.61739e-05
0.053492
0.0880211
0.0425707
5.34126e-05
4.81527e-05
7.27344e-05
0.0758977
0.000251826
8.41325e-05
0.0853159
0.0800893
0.0180825
0.0117431
0.000220482
0.000333513
0.0106761
4.53233e-05
0.0239789
0.0532973
9.30057e-05
0.0691958
5.93941e-05
8.14244e-05
9.06366e-05
0.0738206
0.0561835
6.69952e-05
7.19321e-05
4.74674e-05
0.0500501
0.0763127
0.0403433
0.0383416
0.0669246
0.0670779
6.58582e-05
0.00310231
0.03872
0.000302024
5.98277e-05
7.00828e-05
5.76316e-05
7.26177e-05
0.0754181
0.085759
0.063965
6.67153e-05
9.06874e-05
5.22047e-05
0.00011095
0.000271947
0.0486299
0.00555773
0.000245765
0.00018845
9.44254e-05
6.33674e-05
9.17697e-05
0.000170489
0.0578685
4.87808e-05
0.000117687
0.000108789
0.0537131
0.0514799
0.0814758
0.00559438
8.73307e-05
0.080056
9.01892e-05
0.0518879
0.0504246
5.25852e-05
0.0302482
0.0837924
0.0673771
0.00011401
0.0824703
0.0303575
9.3493e-05
0.0556879
5.15601e-05
4.84044e-05
0.0669278
0.0877999
0.0972559
5.84198e-05
0.0496188
0.000138221
0.0538581
0.0936852
6.95967e-05
0.0820421
0.000115123
0.000523463
0.0548284
6.2621e-05
0.0502259
0.000121584
0.0425408
0.0513777
0.00569544
5.29809e-05
0.000135204
0.0931579
0.0883328
0.000317747
0.079388
0.0493752
7.54452e-05
0.0059927
0.000338427
8.74528e-05
7.19662e-05
0.000120968
0.000264519
0.0494153
5.76066e-05
0.00013079
0.0326231
6.0377e-05
0.0523908
9.05082e-05
0.0886895
9.40017e-05
6.30742e-05
0.0408477
6.80629e-05
0.010847
8.9475e-05
8.9883e-05
0.0661057
8.45693e-05
8.7948e-05
4.89916e-05
0.0515151
0.000274831
9.29711e-05
0.0304919
0.0940683
0.0524833
0.000108378
5.83591e-05
0.050488
9.19263e-05
0.000899509
6.82143e-05
0.0116927
0.0873242
9.48603e-05
9.44953e-05
0.00638588
9.48164e-05
9.23724e-05
0.0560949
0.0478055
0.000110653
0.0566121
0.00010741
0.0786611
0.0491482
5.85698e-05
6.35946e-05
8.1094e-05
0.0723919
0.0470046
0.0725551
0.0477122
0.0626568
0.0559498
0.0500293
0.0860533
8.75474e-05
0.0900923
0.0921899
7.10177e-05
0.000115636
0.000272877
8.18801e-05
8.62635e-05
0.0718609
0.0705591
0.0859128
9.36748e-05
0.000109293
0.0234475
0.0819747
9.63707e-05
0.0629027
0.000207908
0.05439
0.0479034
0.085719
0.0127873
0.0431776
0.0696753
6.44399e-05
0.0916506
5.15822e-05
9.48798e-05
0.083432
8.3114e-05
6.71344e-05
0.0576151
9.06547e-05
9.34715e-05
0.0304172
6.79087e-05
8.19739e-05
0.0679673
0.0500222
0.0521273
8.80672e-05
0.0484771
5.67795e-05
0.0001059
0.0504793
0.0747598
0.0563448
7.05738e-05
0.0343633
9.14234e-05
0.0425118
5.76954e-05
6.27295e-05
5.94305e-05
0.0863317
8.47421e-05
0.000121398
0.0733492
9.03122e-05
0.0452036
0.0449923
0.0533703
6.37823e-05
9.02532e-05
2.05992e-05
0.0403197
0.0105287
7.93912e-05
0.0546085
0.125392
0.0863484
0.000134528
0.000108709
0.0254669
0.0812344
0.00775414
0.000272962
0.0728299
5.82614e-05
0.039727
8.97248e-05
0.00104436
9.42332e-05
0.0661413
0.0906462
0.0508471
0.0662717
0.00876242
8.92371e-05
0.000484614
7.14257e-05
0.0859801
5.70337e-05
0.0927994
4.71221e-05
0.0485745
0.0834123
0.0264869
0.060862
9.49221e-05
0.0903163
6.28296e-05
0.073736
9.89803e-05
9.90352e-05
0.0424108
6.91553e-05
0.0242612
0.0324067
0.0737467
0.0578483
0.0427615
0.0726808
0.0724314
0.0921942
7.54274e-05
8.43987e-05
0.000393612
8.77227e-05
5.55591e-05
0.00202595
0.0675074
0.0575697
8.9048e-05
0.0720725
0.000254239
0.000189782
0.0527065
0.0691117
9.10484e-05
0.0920356
0.000223187
0.104315
9.905e-05
0.0502571
0.0705694
0.00143928
0.0482945
7.54425e-05
0.0668417
0.0893671
0.0861706
0.0292899
0.0390638
0.0926333
0.000901058
0.0504839
7.53461e-05
0.0631036
9.7852e-05
0.000198311
8.84807e-05
0.0923947
0.032944
8.56467e-05
7.89601e-05
0.000632407
7.04872e-05
4.9393e-05
0.0827026
0.0670567
8.32302e-05
0.073279
0.0897465
0.0578719
0.0619952
0.000680072
0.0877491
0.0018545
0.0748891
0.0875972
5.66493e-05
0.0877496
0.0779723
7.92209e-05
0.0513887
0.0713921
0.000127112
0.0242367
0.00012747
9.17199e-05
6.86497e-05
0.0392107
0.0694771
0.000109064
0.0510221
0.0368908
0.0209073
0.0909754
0.00333587
0.00360237
0.0588227
6.96274e-05
0.0620901
8.74066e-05
0.0502205
7.18195e-05
0.0863245
9.21931e-05
0.0562721
0.0122307
7.21173e-05
0.0681909
0.030376
0.0516149
0.0488607
0.000107967
0.0672359
0.0375041
5.18005e-05
0.0641384
0.0581993
9.17398e-05
0.0363342
8.53934e-05
0.0524508
7.40969e-05
8.36071e-05
5.42509e-05
0.0695674
0.093839
0.0800671
0.0480681
0.000194011
0.0111642
0.0691861
7.06172e-05
7.6475e-05
0.0491367
0.0724305
4.99904e-05
0.081372
0.0606676
0.0542966
0.0928532
0.0866681
0.0690687
0.00010648
0.0482516
7.19387e-05
0.0702384
5.06255e-05
6.22058e-05
0.057459
0.0818252
0.000106456
0.0099165
7.29595e-05
5.29919e-05
4.71608e-05
8.80719e-05
0.0305038
0.0745263
7.11681e-05
0.00240944
0.0390662
9.25174e-05
0.0045334
0.0932526
5.39793e-05
8.83898e-05
7.46604e-05
0.0879787
9.42719e-05
9.42592e-05
6.70884e-05
8.75838e-05
0.000335887
5.23724e-05
0.000259328
0.0542574
0.0348542
0.000103402
0.000105388
0.0495609
0.0917397
0.0353127
8.82134e-05
0.0121964
0.0820293
4.49042e-05
0.0715944
0.0666187
0.0938172
0.000219598
0.00588462
0.0910492
0.0336652
0.000155328
0.000192994
0.0467558
0.0340221
0.0460773
0.011546
0.0110885
0.0825423
0.00250961
0.0881981
7.31774e-05
0.0791825
0.000183062
0.0711071
0.0638987
0.0612122
6.70063e-05
0.0481245
8.19814e-05
8.18751e-05
0.000275381
0.000107934
6.36758e-05
6.96998e-05
0.0226248
0.0922386
0.0754343
0.076615
0.0752378
0.00348243
0.0114279
0.0933017
0.0121978
6.12365e-05
0.0753871
0.000104695
0.0593109
0.0572612
0.0942642
0.00445777
0.0747883
0.0774906
0.0523765
0.000111933
0.0499403
0.0191466
0.0935856
0.000225419
0.0868721
0.0104307
0.0512925
0.0525876
0.0441696
0.0822147
0.084976
0.000271712
0.0924335
9.63463e-05
0.00797016
8.85618e-05
0.00316528
0.0615729
0.0906427
0.000222121
8.70793e-05
0.00828246
0.0682206
0.000226047
0.00611334
9.9026e-05
4.91409e-05
0.0439416
8.01021e-05
8.32143e-05
0.0711203
0.000108501
9.43463e-05
0.0660465
0.107231
0.0879786
4.74686e-05
0.0829637
0.0362727
9.04348e-05
0.000250582
7.51193e-05
6.80115e-05
9.12997e-05
0.000122036
9.24714e-05
6.87066e-05
0.0805177
0.00140313
0.0930568
0.0714228
0.0290907
0.000192445
0.0896102
0.00018885
0.00172663
6.32625e-05
0.000129498
0.000110989
0.0342473
0.0243899
6.45459e-05
0.05613
0.00011255
0.115633
0.0929804
6.85299e-05
0.0249931
0.0574459
0.000262636
0.0762396
0.057323
0.00022306
0.00014191
0.000267119
0.00030585
8.00032e-05
0.000216574
0.0711191
0.00581552
0.0576673
0.0654778
0.000272721
0.00050657
0.0058685
0.0661082
0.0425619
0.000359826
0.000105866
0.0703487
8.86158e-05
0.0783579
0.0817926
0.0461338
0.0165381
6.48663e-05
0.0124841
0.0652413
7.3197e-05
0.0294685
0.0526342
0.0890454
0.00018898
5.21806e-05
0.000430759
0.0795378
9.07961e-05
7.94875e-05
0.0311365
8.41549e-05
0.000110882
0.000106855
0.000194115
0.0756096
0.00261398
0.0640475
0.00011393
0.0681694
0.0833476
0.00061367
0.0276007
7.62045e-05
0.0240539
0.0510025
0.000103445
0.000104982
0.00010399
0.000263455
0.000133396
7.18844e-05
0.000682825
0.0556604
0.0478266
0.00012723
0.000109719
0.0698471
0.0934141
0.0118907
0.0811423
0.0575659
0.0693132
4.56925e-05
0.000114394
0.0342234
8.17785e-05
0.0392431
0.0602717
0.000110633
0.000112042
0.0497691
0.0768541
9.20469e-05
0.090094
5.83906e-05
9.65126e-05
0.0465717
0.00930566
8.21545e-05
0.000107036
0.000246139
0.0878763
0.0721954
0.0743353
0.071699
0.0816626
9.01166e-05
0.000110381
0.0870214
0.0358153
0.0211317
0.00794243
7.43608e-05
0.0509136
0.000144924
0.0807929
0.0652438
8.78875e-05
0.000109743
0.0001088
0.0825998
0.0539207
0.087718
6.65252e-05
0.000196901
0.021429
0.0514469
0.0852864
0.000105572
5.13886e-05
0.000156283
0.0570972
0.0653729
9.83613e-05
0.0936929
0.076571
0.00860292
4.59267e-05
0.0758031
0.0827065
6.44594e-05
0.0792756
0.000532939
0.0269297
6.54029e-05
0.000102149
8.37396e-05
0.0821842
0.0763698
0.0659951
0.0265584
0.000101795
0.000102091
6.26486e-05
0.000103238
0.018104
0.067019
0.00348738
9.13465e-05
6.65312e-05
0.000267469
0.000103841
9.13005e-05
0.00010989
4.56157e-05
0.00197476
6.29101e-05
0.0447904
0.000107592
8.20422e-05
0.00277695
6.58206e-05
4.53663e-05
0.049551
6.06343e-05
0.00015511
7.95471e-05
0.0724353
0.0938661
0.0550146
4.68826e-05
6.11374e-05
0.0142625
0.0888375
0.0848587
0.0776724
0.0480773
0.0332121
0.000103059
8.20593e-05
0.0493234
0.0266703
0.00019429
0.0812914
0.000104496
9.44683e-05
0.000100897
0.000104835
0.0735717
7.52849e-05
9.0704e-05
0.0351036
9.1228e-05
0.0624127
9.29812e-05
0.000113191
0.000269127
8.47835e-05
7.94715e-05
0.0567746
0.00178843
8.66736e-05
0.0293478
0.000101514
4.5742e-05
0.0116612
0.0345774
7.27668e-05
0.00252663
0.0876363
9.76285e-05
0.000101997
0.00145649
0.0458489
0.000156815
8.88816e-05
0.000201172
7.23182e-05
0.076011
0.0863421
6.29746e-05
9.03172e-05
0.000112298
0.0503925
0.102197
6.33777e-05
0.0632716
0.000311729
7.51691e-05
0.0002178
9.08888e-05
0.0825048
0.00381347
7.86154e-05
0.0797264
0.0515848
0.000219039
0.0687375
0.0896906
0.000108274
0.0106941
0.000263125
5.96865e-05
0.0689783
9.59435e-05
0.000153715
8.44798e-05
0.0435663
0.00021562
0.000205754
0.116778
8.05061e-05
5.28792e-05
6.75268e-05
0.0117605
6.87547e-05
0.000116532
7.01473e-05
7.92787e-05
6.17222e-05
0.0895885
0.000135598
0.0693327
0.0765655
0.0765933
0.0746563
0.0775389
0.000105157
0.0305195
0.000522472
0.000102649
0.076089
9.73862e-05
0.0804861
0.0770535
0.000142062
0.000123264
7.35297e-05
0.0944225
8.25935e-05
0.0943542
0.000119017
0.000213835
0.0823935