/*--------------------------------*- C++ -*----------------------------------*\
| =========                 |                                                 |
| \\      /  F ield         | OpenFOAM: The Open Source CFD Toolbox           |
|  \\    /   O peration     | Version:  v2012                                 |
|   \\  /    A nd           | Website:  www.openfoam.com                      |
|    \\/     M anipulation  |                                                 |
\*---------------------------------------------------------------------------*/
FoamFile
{
    version     2.0;
    format      ascii;
    class       volScalarField;
    location    "300";
    object      k_0;
}
// * * * * * * * * * * * * * * * * * * * * * * * * * * * * * * * * * * * * * //

dimensions      [0 2 -2 0 0 0 0];


internalField   nonuniform List<scalar> 
13308
(
5.89458e-05
0.0628862
0.0480152
7.80665e-05
0.000110313
5.14316e-05
0.000146908
9.21356e-05
0.000147945
0.107509
0.033949
0.0211029
5.25859e-05
7.94249e-05
5.47035e-05
0.0480952
4.0084e-05
0.0638509
0.0356833
0.0349684
8.08565e-05
0.0609903
0.0868672
0.000100357
0.0475636
0.0699034
0.000113977
0.0313591
0.000115437
0.000122992
0.0658465
0.000115935
0.0841045
0.000135729
0.0853719
5.41422e-05
0.000147004
0.0886232
9.05282e-05
0.0467382
8.55761e-05
9.35364e-05
0.0742787
7.54569e-05
8.99729e-05
0.00206238
5.79345e-05
8.35507e-05
5.27894e-05
0.0460253
8.86582e-05
8.02259e-05
0.0497606
0.014147
0.026276
0.0295634
7.54002e-05
7.98615e-05
9.55724e-05
9.48782e-05
0.0259874
0.090398
7.99659e-05
8.86196e-05
7.63237e-05
0.0826508
7.07487e-05
0.00572265
5.65502e-05
0.000185738
0.0720417
9.01621e-05
4.84778e-05
0.000118229
0.0394311
7.51364e-05
4.6968e-05
0.0275169
7.81533e-05
0.00393688
8.40088e-05
4.72424e-05
7.4668e-05
9.82231e-05
0.00214293
9.24732e-05
0.0243933
0.0864815
0.00968766
0.0209809
8.87289e-05
7.04634e-05
0.000115063
8.13057e-05
8.17107e-05
5.63932e-05
9.38266e-05
0.00353418
0.0736229
0.000171775
8.83847e-05
8.96169e-05
6.98019e-05
8.18815e-05
0.0381073
0.0648443
0.0495573
6.08233e-05
0.0597986
0.0721548
9.49859e-05
0.000189589
6.9102e-05
7.81783e-05
6.9811e-05
0.0357756
0.0036129
0.0155476
0.000116147
7.88632e-05
0.00010733
8.13642e-05
5.87755e-05
0.000315131
0.00956446
0.000449648
0.0041987
0.00199953
6.37728e-05
0.0397603
0.073092
8.97925e-05
8.84738e-05
5.67278e-05
0.000144877
0.000203077
7.14804e-05
0.00917676
0.00011929
9.40921e-05
0.0410738
9.49704e-05
8.4613e-05
6.92101e-05
9.21168e-05
0.000108204
0.0020995
0.0180966
8.39942e-05
9.61026e-05
0.0282683
8.20242e-05
0.101737
0.0312302
0.0800194
0.000112159
6.37883e-05
6.03905e-05
8.63234e-05
0.000936137
0.103834
8.0268e-05
8.44641e-05
0.0920286
0.000111857
0.000107447
0.0600829
6.00418e-05
0.0588053
0.000106662
9.51847e-05
0.0154476
8.81607e-05
0.0429796
0.0227777
0.0662351
0.0628366
0.0471992
9.90716e-05
6.58446e-05
0.0148374
0.0497173
6.99772e-05
0.112
0.0894121
5.49103e-05
0.0316499
0.0659741
0.000125979
0.057774
0.0491763
0.0421595
9.21147e-05
0.0219551
9.25775e-05
0.0674033
9.51145e-05
0.00100455
0.0648582
9.32737e-05
0.0504703
0.0495867
0.0497493
0.000141126
0.0412953
0.00013463
0.0442932
0.0460155
0.0834099
0.0246558
0.0890906
0.000145775
0.000120102
0.0423932
0.0817824
7.92866e-05
6.6113e-05
0.0866818
0.000691621
0.0461035
0.0271304
7.61969e-05
0.000107111
4.48029e-05
8.22902e-05
0.048248
9.66111e-05
0.0230862
0.028998
0.000495712
0.0429114
7.89595e-05
0.0468068
0.00368877
9.07392e-05
0.000116048
0.0585714
0.0061433
0.0785286
8.00809e-05
9.88986e-05
0.000124537
8.17063e-05
4.50097e-05
0.0147417
0.0875979
0.000137884
0.000118435
4.48953e-05
0.0871902
0.0828962
0.0843723
8.81464e-05
0.0892049
0.0729952
7.9957e-05
0.0989487
7.86407e-05
0.0239567
0.028159
0.000122542
0.000335023
0.000116379
6.94124e-05
0.000107233
8.75909e-05
0.0223568
8.8955e-05
0.0212227
0.0518971
0.000392656
0.000108439
8.12742e-05
0.000117867
7.93453e-05
8.08286e-05
5.7364e-05
0.0125122
0.000110377
0.000100615
0.0693261
9.18218e-05
0.01167
7.98977e-05
0.0671041
0.0971373
6.92556e-05
6.51696e-05
0.000107
0.125677
0.000116226
6.94912e-05
0.0171632
0.0500417
6.21331e-05
0.0756471
0.0302235
0.000118085
0.000103153
0.0486889
0.0830263
7.42594e-05
0.0685778
0.00954156
0.0158928
5.16313e-05
0.000110862
0.0434683
0.00407705
5.46436e-05
0.0178394
0.0410665
0.000117047
0.0477367
0.0862479
0.0215559
7.1368e-05
6.18699e-05
8.45381e-05
0.0128878
8.62501e-05
4.7205e-05
0.0393971
4.7333e-05
0.0431741
6.99135e-05
7.94617e-05
8.93295e-05
9.03356e-05
0.000111377
0.0796145
7.55802e-05
0.00479896
7.15252e-05
5.96399e-05
0.000939674
0.051143
6.008e-05
9.53569e-05
0.00491486
0.000104199
8.94248e-05
7.82882e-05
0.000133885
0.0102498
0.121819
0.000107697
0.0001074
0.000137778
8.18047e-05
0.000121201
0.0731645
0.0515634
6.89386e-05
5.40062e-05
7.50751e-05
0.0486686
5.12268e-05
0.000106503
0.0765007
0.0736045
0.000143769
0.000107514
0.000394232
0.0521816
0.0830573
7.84079e-05
4.486e-05
7.98756e-05
0.000102261
0.051903
0.0477408
0.000255441
8.86688e-05
7.94418e-05
9.77091e-05
0.0928801
0.0843713
8.43488e-05
0.00994519
8.81466e-05
7.15329e-05
0.00483549
0.000113007
5.70488e-05
0.051286
0.000173262
9.55878e-05
7.03047e-05
0.115474
8.12546e-05
0.000377699
0.000139958
0.0501464
0.0142743
0.000117412
0.00748741
6.84646e-05
0.00694333
9.08404e-05
0.000699089
6.8883e-05
0.000167716
0.0818899
4.5359e-05
0.081495
6.45031e-05
5.87136e-05
0.0734839
0.0162782
5.64527e-05
0.000252192
0.001265
6.8443e-05
7.10869e-05
0.0905941
8.7742e-05
7.06406e-05
9.5538e-05
9.97772e-05
0.000108494
7.95267e-05
0.000103089
8.50938e-05
6.9354e-05
0.0506641
0.00378708
9.23597e-05
0.0168946
0.00392169
0.110776
5.65467e-05
0.000129558
0.0840901
6.83525e-05
4.71264e-05
0.093938
7.09479e-05
0.000118076
0.0456777
0.0469326
0.0680427
0.0478351
7.91533e-05
0.055944
0.000101528
0.0173431
0.0502829
6.96581e-05
0.0865919
5.69779e-05
0.0795927
0.000863752
0.0656881
9.98387e-05
0.000109775
0.000108318
0.015449
0.0899373
0.000154675
0.000628966
0.0586366
7.66612e-05
0.10358
7.84714e-05
0.017949
5.9934e-05
8.50611e-05
7.66955e-05
0.0530791
0.0260215
8.97207e-05
0.0913179
8.61255e-05
0.0229682
0.0840147
0.000100271
9.4711e-05
0.00689577
7.78507e-05
0.00643278
0.00013682
0.0066094
6.85441e-05
0.000128178
8.54275e-05
5.24209e-05
0.00726177
9.50938e-05
7.1597e-05
7.06646e-05
0.000112216
0.00787832
4.70966e-05
4.53156e-05
8.55958e-05
5.86015e-05
0.0116888
0.0736901
0.0804039
0.0689336
0.0203612
0.079902
0.0230619
9.4858e-05
6.77675e-05
0.000163333
0.0477709
7.59545e-05
0.0605155
9.96879e-05
0.000137473
8.89526e-05
6.26781e-05
9.97748e-05
0.000123718
0.000135157
9.09157e-05
0.000408446
0.0826473
0.102101
0.0554205
0.0890007
0.000229681
5.81376e-05
0.0222189
7.77552e-05
4.72426e-05
0.00442448
0.000359559
0.000125636
0.000125591
0.0915912
0.0537519
5.45482e-05
0.00399756
0.00380892
0.04819
4.6879e-05
0.0418797
7.59524e-05
7.32926e-05
8.92671e-05
0.0460348
8.87817e-05
0.0440241
0.0745467
0.0184906
7.11264e-05
6.78809e-05
0.0914043
0.0197817
0.0722548
0.0138787
0.0733443
0.00719816
0.0693127
0.030205
0.0872322
0.0684331
8.56008e-05
9.00518e-05
6.81993e-05
0.0588547
7.76684e-05
0.0144134
0.0312201
8.99207e-05
0.0863693
0.080839
0.0729282
7.45742e-05
7.72267e-05
7.48899e-05
0.0839807
0.000117183
6.89949e-05
9.07576e-05
0.0808272
6.90506e-05
0.0509586
0.000103495
8.3597e-05
0.000115217
8.87059e-05
7.64063e-05
8.40479e-05
0.000100186
9.62028e-05
6.66188e-05
0.0177183
6.79958e-05
4.60117e-05
4.47395e-05
8.09153e-05
0.0596636
0.0829616
6.98125e-05
0.0328623
9.30305e-05
7.93408e-05
7.04349e-05
8.81027e-05
7.35485e-05
8.74792e-05
0.000109904
6.90232e-05
0.0802962
8.47351e-05
0.0517778
0.0480499
0.000107365
0.000110822
6.50994e-05
0.0671597
0.0821434
0.000111392
5.48424e-05
0.0105153
0.000456667
0.000119023
8.36508e-05
6.01548e-05
0.0106777
0.000103484
0.0190173
8.36627e-05
7.40995e-05
0.000122649
0.0211261
8.04955e-05
0.0694698
0.0107839
0.0448485
0.0203722
0.00392531
9.90234e-05
8.94279e-05
0.0465193
0.0591571
5.56885e-05
8.33168e-05
0.0314573
0.0793475
0.000144925
0.00423973
9.77978e-05
9.12276e-05
4.47505e-05
0.00603721
0.00827833
7.1549e-05
0.054288
8.82855e-05
0.0798618
8.8107e-05
7.41336e-05
0.0163181
0.0621803
0.000130164
0.00391729
0.0774267
0.000113956
0.0202666
8.0868e-05
0.0231727
0.0480776
6.09316e-05
0.0463073
0.0483909
0.0592204
5.03484e-05
0.000192982
5.5412e-05
7.04888e-05
0.0592776
0.0603186
0.00446178
0.010265
0.112607
9.87207e-05
0.000134831
7.87813e-05
4.48039e-05
8.72142e-05
5.9857e-05
0.0587312
0.0584817
0.000265602
0.0162575
5.65806e-05
0.0339321
7.81372e-05
0.000748682
0.0197919
8.32517e-05
5.2228e-05
6.7449e-05
5.19942e-05
0.0847418
7.11209e-05
0.0913169
0.0301418
0.000121665
0.000105103
4.99043e-05
0.0900129
0.00949997
0.0460367
7.92598e-05
7.49873e-05
7.58854e-05
0.0250231
8.75602e-05
0.000196781
0.000109914
7.11111e-05
5.42505e-05
8.77793e-05
6.80031e-05
5.07791e-05
9.46008e-05
0.000658361
0.101886
0.001797
8.00989e-05
0.00448968
0.0465312
0.000146341
0.0853982
5.77063e-05
8.86513e-05
5.35941e-05
8.5836e-05
0.0448019
9.42617e-05
0.0433194
0.00538735
0.0828526
9.52817e-05
7.51083e-05
0.0746169
8.53786e-05
0.0825071
7.9246e-05
6.88013e-05
0.115306
5.2228e-05
4.8531e-05
0.000142136
0.000147996
0.0267223
0.0597802
0.0674168
0.0223485
5.87247e-05
7.51875e-05
0.000106697
0.0462522
0.000268022
5.12886e-05
8.96184e-05
0.000110643
0.0603338
4.59269e-05
9.00828e-05
0.0624315
0.0610462
0.000134492
8.55944e-05
4.72589e-05
7.95692e-05
8.16455e-05
9.54029e-05
4.73332e-05
8.83593e-05
7.46754e-05
0.0869158
4.73401e-05
9.83682e-05
0.0781683
0.0340055
0.000543604
7.19452e-05
7.67708e-05
0.0183199
0.0705572
0.00790849
0.000562141
0.011259
0.0713806
0.000151789
0.0582685
9.35551e-05
0.0477888
7.04024e-05
0.0447013
7.89083e-05
8.32699e-05
0.00311839
0.000453489
9.03424e-05
6.99652e-05
9.45453e-05
6.60794e-05
0.0329913
0.0480077
0.0842994
7.62829e-05
6.2372e-05
0.0412469
5.1597e-05
4.86135e-05
0.00904186
0.0733246
0.023953
0.015279
0.0432249
9.21094e-05
0.000672296
0.0838559
5.57998e-05
9.61527e-05
0.0701702
4.61411e-05
6.82593e-05
0.081601
0.0522144
9.07696e-05
0.0597603
5.57406e-05
0.000106874
0.00628369
0.00934184
0.00669643
9.42039e-05
6.40898e-05
9.9131e-05
9.17595e-05
0.0129857
0.0284757
8.34233e-05
0.0654942
0.0209175
0.000172351
4.71108e-05
6.8545e-05
0.0454886
9.0621e-05
9.10371e-05
0.00504765
0.0118713
6.81645e-05
0.0780923
0.0806278
0.0527936
0.0144969
0.000120513
4.89365e-05
4.48007e-05
8.32398e-05
8.32905e-05
0.0473403
0.0598721
9.64575e-05
0.000106755
0.0212437
0.0735629
0.0440719
9.00319e-05
0.0491416
9.10906e-05
0.0808487
0.000153155
9.43612e-05
8.853e-05
9.12534e-05
0.038551
0.0981145
5.90296e-05
0.0538704
0.0774655
0.0133677
0.0703912
0.000111101
9.07866e-05
4.8788e-05
0.0487455
7.02442e-05
0.0872033
7.74379e-05
8.81011e-05
8.73255e-05
0.000102416
0.0203725
8.83681e-05
0.00481275
0.00661812
0.0189111
8.84333e-05
5.35863e-05
0.0942389
7.43484e-05
7.47316e-05
0.0702631
7.33996e-05
8.44199e-05
0.000134859
9.50138e-05
4.82335e-05
0.0058848
0.0813308
0.0237764
0.0222588
7.06331e-05
8.51893e-05
0.000134393
0.000143477
0.0462532
8.52583e-05
0.0811496
8.29092e-05
9.49409e-05
0.0555779
8.30726e-05
4.94096e-05
0.000100829
6.64028e-05
7.3549e-05
7.74004e-05
0.00656449
0.0815545
7.02233e-05
0.00435174
0.0641192
0.000119397
9.09247e-05
4.96385e-05
8.37243e-05
8.29705e-05
0.00771757
0.000161673
0.0538967
0.0598633
0.0115466
7.71398e-05
9.88092e-05
0.0434699
0.000101136
9.43273e-05
8.80913e-05
0.00526702
0.00675666
7.72775e-05
0.0649009
0.00390649
6.38214e-05
9.84503e-05
8.46233e-05
0.000157406
8.2888e-05
0.000172361
9.85709e-05
0.00016933
7.66048e-05
9.29796e-05
0.00669597
7.39932e-05
0.10344
9.4991e-05
8.78406e-05
9.97856e-05
8.25572e-05
0.000112191
7.44149e-05
6.65202e-05
0.0184932
7.70274e-05
0.0795862
0.000100049
7.22349e-05
0.0205852
0.0731984
6.32668e-05
4.72987e-05
0.000116034
0.00442957
8.55905e-05
0.000133389
0.0158409
0.0850864
0.00011965
0.00011704
0.0199362
5.32943e-05
6.40227e-05
0.0460569
0.0195758
0.0199601
9.27261e-05
9.46225e-05
6.90637e-05
9.96541e-05
0.0255608
9.07674e-05
8.84252e-05
9.31894e-05
0.0587037
6.34817e-05
6.93554e-05
8.92523e-05
7.21604e-05
0.00511741
5.33407e-05
0.0317037
0.000113073
0.0852167
0.0764103
9.94182e-05
0.0553861
8.89886e-05
0.0798261
0.00528549
0.00891961
8.75616e-05
0.0484274
9.08065e-05
0.000117813
9.92139e-05
8.67669e-05
0.0808023
7.35715e-05
8.5518e-05
7.55807e-05
0.000103259
7.77092e-05
0.0835789
0.056987
0.0030111
0.0470532
9.03104e-05
0.0551684
5.77808e-05
8.82944e-05
9.14074e-05
9.16661e-05
0.00107653
0.0781189
7.88152e-05
0.0544322
6.68367e-05
0.0799516
0.0928503
0.033689
7.66436e-05
9.03637e-05
0.000126981
5.18168e-05
8.22321e-05
7.23544e-05
0.0636546
8.7594e-05
0.0107545
0.000104178
8.93076e-05
0.00942073
7.60638e-05
0.0579289
8.61601e-05
0.000117301
0.0268136
0.0723293
9.58676e-05
0.00368565
0.00967547
0.037474
0.000732692
6.71281e-05
0.0666881
5.47943e-05
0.0284409
9.2706e-05
5.64536e-05
6.76339e-05
0.0265619
0.0799345
0.0363327
0.0350432
0.0524288
0.0654269
7.30973e-05
0.044133
9.32745e-05
9.04158e-05
0.0293426
0.0500236
4.71163e-05
0.117789
0.000134468
8.58108e-05
0.0935604
9.18704e-05
7.23629e-05
0.0489539
7.59452e-05
0.000113936
0.0859238
0.000133851
0.0491933
8.6894e-05
4.48642e-05
9.25602e-05
0.0674796
0.000100171
9.81235e-05
0.000110933
5.9089e-05
5.35719e-05
9.95439e-05
0.0478947
4.80387e-05
0.114802
7.59282e-05
0.000173087
0.0526842
9.44965e-05
0.0826541
4.51641e-05
8.64488e-05
0.0618659
8.64542e-05
0.000187921
0.0687445
0.0474553
0.068634
8.77441e-05
0.00940272
9.24794e-05
0.0841263
0.000305771
0.000107879
0.00975988
0.000170483
0.035183
0.0549758
4.82971e-05
0.000149276
0.000113029
8.27197e-05
9.83932e-05
0.0242588
8.65494e-05
8.95485e-05
7.54246e-05
9.24329e-05
9.16911e-05
8.22647e-05
6.72802e-05
9.74938e-05
0.0504619
9.06613e-05
5.06328e-05
0.109813
5.39478e-05
0.00241934
0.00219484
0.0149807
9.01467e-05
0.0862499
7.01739e-05
0.0555524
8.23185e-05
0.069519
0.0335854
0.0338033
0.0215173
8.49532e-05
7.0585e-05
5.01026e-05
9.1383e-05
8.86187e-05
0.0440608
7.86382e-05
7.81064e-05
0.00015087
0.0621243
0.000153899
0.0256578
0.0477223
0.000146719
5.45827e-05
4.91722e-05
0.000167997
8.46906e-05
0.000100066
0.0884933
0.000102708
6.83517e-05
8.35191e-05
8.5866e-05
0.000214771
0.0822621
0.00739297
9.67744e-05
8.77918e-05
4.80505e-05
8.83262e-05
8.84904e-05
0.0705332
7.89376e-05
5.3286e-05
8.50583e-05
0.010573
0.0574897
9.03743e-05
7.39066e-05
9.09268e-05
0.00669911
6.7812e-05
0.000101305
0.000121617
0.0817306
0.00507564
0.0699337
0.000120527
0.0049364
0.000100106
0.0931121
8.99425e-05
0.0505996
8.16143e-05
0.056835
0.0923452
0.0537705
8.8717e-05
0.012292
8.16039e-05
0.0850558
0.0570129
0.0881971
0.092161
0.07211
9.23855e-05
0.000121391
0.0308726
8.31195e-05
0.00943814
0.000110976
0.0490112
0.0907273
0.0635401
0.0170929
0.0338702
7.065e-05
0.0691134
0.00013848
0.0175491
4.94081e-05
0.000199939
0.0924562
0.000214036
0.0852704
0.000110674
0.00308816
9.71266e-05
0.0283139
0.0802252
8.82314e-05
0.0848095
0.0134487
8.57859e-05
0.00222573
7.31768e-05
0.000157188
0.000269745
9.30735e-05
0.119911
0.0723433
6.68222e-05
0.0891051
4.98245e-06
7.39056e-05
0.0973369
0.0726834
0.0178607
0.0448396
6.80023e-05
8.2706e-05
0.00640082
5.11605e-05
0.0684796
0.00917227
0.0556825
0.0539606
5.35046e-05
0.000123935
4.61388e-05
0.0385687
0.042694
0.0331289
0.00010892
5.13258e-05
0.0457572
0.000838641
0.000109049
0.0129781
8.20333e-05
0.0638633
5.90765e-05
9.20723e-05
9.70333e-05
4.86447e-05
8.35439e-05
7.41996e-05
0.00922369
0.0553855
5.41846e-05
4.74838e-05
0.0560268
0.082518
0.000107446
9.14471e-05
0.0934633
4.78414e-05
0.0548498
0.0808519
0.084973
7.07502e-05
8.58397e-05
0.00403684
0.0508582
0.000117393
7.88121e-05
0.00763373
5.10567e-05
0.00737239
0.0346935
6.89044e-05
0.087304
0.00721308
0.000100072
0.000129272
6.83992e-05
9.44336e-05
0.0474381
9.52632e-05
0.00309682
7.92435e-05
8.99169e-05
0.000158181
4.63627e-05
0.000124453
0.046444
8.76689e-05
0.00195587
0.000819705
7.9136e-05
0.0898966
8.49897e-05
6.83806e-05
0.0547345
0.000158865
0.0579345
8.25201e-05
0.0750464
5.64357e-05
4.47907e-05
0.00560318
0.0826253
0.062779
5.49416e-05
0.00136681
8.2778e-05
3.64471e-05
8.15727e-05
0.0211809
0.00597361
0.0357279
9.89285e-05
9.15521e-05
9.96092e-05
0.0368115
0.0851615
0.00982738
0.0637662
5.64662e-05
6.30276e-05
8.16926e-05
0.000139365
8.87317e-05
0.000110109
0.0692428
8.89707e-05
0.00268536
0.0832301
7.99704e-05
0.0904445
6.80173e-05
9.14266e-05
0.0872491
0.0125744
6.71257e-05
6.20244e-05
0.000107741
0.000254068
0.0508187
0.0223987
0.0707109
0.000149048
0.0280052
0.0136863
9.43923e-05
5.50386e-05
0.054364
0.000221719
8.78224e-05
9.89821e-05
0.0253393
0.00661849
5.10928e-05
0.0159278
5.74309e-05
4.96141e-05
0.0449441
0.000389082
0.0831266
0.0554946
0.0001389
0.000185098
0.0487677
8.86443e-05
0.0701327
0.000553934
8.19995e-05
0.000103457
9.28451e-05
6.8864e-05
0.0805115
4.91807e-05
0.0813572
9.76669e-05
0.00024763
0.0127717
7.93584e-05
0.0721322
9.8733e-05
0.00284079
0.110716
0.000148028
0.000132858
5.21037e-05
0.0819212
5.35008e-05
0.0941453
0.0366754
0.000194371
0.0164791
5.17739e-05
0.07044
7.31687e-05
0.000107944
9.48551e-05
0.000554181
8.90624e-05
0.0310589
8.26274e-05
0.0408698
5.26135e-05
0.0897268
0.00420571
9.84858e-05
8.20185e-05
0.000264558
0.0867076
0.0137267
5.18133e-05
0.076385
0.000271337
8.66101e-05
0.00858918
7.29392e-05
0.000101761
0.0806641
0.0212891
8.97746e-05
7.32834e-05
0.0303078
0.0782076
0.0301588
9.19455e-05
5.20145e-05
0.0935128
0.0281429
0.000105339
0.00615477
8.7927e-05
0.0521345
9.78818e-05
7.13383e-05
0.0170221
0.0911397
0.000110177
0.000112926
5.20133e-05
0.000105721
9.04028e-05
0.00011935
0.00444282
0.000249533
9.26177e-05
4.80202e-05
0.082005
7.57553e-05
7.7175e-05
7.35931e-05
0.0516766
0.0427168
0.00192802
0.000103149
5.3925e-05
5.78506e-05
0.0927575
0.0682286
0.0832407
0.000145214
0.0833277
0.000103929
0.0810105
0.000106382
0.000163565
6.78039e-05
6.2327e-05
7.34279e-05
0.0530616
7.11568e-05
7.26883e-05
0.00796616
0.049857
0.0815619
0.00650155
8.51009e-05
0.0372897
7.55764e-05
0.0254503
8.64305e-05
0.0094243
4.75977e-05
5.65127e-05
0.00851053
0.00853943
8.23023e-05
8.73553e-05
7.99095e-05
0.00338977
0.000113172
0.0388856
0.000220117
0.078952
0.0521819
0.0939188
0.0479902
7.56177e-05
0.054291
0.000121952
7.74614e-05
5.44878e-05
9.15288e-05
6.94016e-05
8.1669e-05
8.80918e-05
6.75887e-05
8.65168e-05
7.74532e-05
8.15747e-05
0.0108356
0.0493838
0.0463131
7.77738e-05
6.91237e-05
0.0143325
8.28428e-05
0.0489772
8.73147e-05
1.77958e-05
0.0566869
0.0968331
9.75535e-05
0.000166155
0.000325345
7.17216e-05
0.000615874
0.000130113
0.0528643
0.090535
0.00396381
9.37908e-05
0.08081
9.27001e-05
7.31763e-05
0.000127759
5.35177e-05
9.93421e-05
8.58671e-05
0.00682595
5.03113e-05
5.38588e-05
0.0846451
6.6268e-05
0.000104307
0.0680589
5.32707e-05
0.0130054
5.01711e-05
5.86157e-05
5.5809e-05
0.00209856
8.83262e-05
0.0773768
0.0792082
8.26692e-05
0.000329116
9.16574e-05
0.0614643
0.0633661
6.31683e-05
7.93571e-05
5.66841e-05
5.7712e-05
6.14391e-05
6.85343e-05
4.7103e-05
0.000108479
8.64637e-05
0.0888926
0.0461439
0.000338706
8.05626e-05
0.000102283
7.03594e-05
0.006415
0.00406164
0.0280479
0.00694257
7.93778e-05
0.0541532
0.0909816
6.88931e-05
0.0232379
0.0028739
5.84403e-05
5.73906e-05
0.0694021
8.30725e-05
5.73269e-05
0.000119514
0.087633
0.0731209
0.00678277
0.0234698
7.87011e-05
0.0354984
0.0492924
8.86114e-05
8.79978e-05
9.49043e-05
6.4264e-05
0.000118241
0.02365
8.10452e-05
0.0128363
0.0683479
0.0741404
0.0864574
7.50454e-05
0.0744922
7.66619e-05
0.0940309
0.0474834
8.72815e-05
6.31574e-05
0.066493
9.50044e-05
0.0473557
8.18617e-05
0.049395
0.0001283
0.000289883
8.00838e-05
0.0682759
0.0823463
0.0513042
8.97239e-05
0.0294025
0.0408749
0.0835364
0.0385819
9.39159e-05
0.0835605
0.0511991
0.0027532
0.0714358
0.0487632
0.0503197
0.0533969
0.0640435
0.0689811
0.0321304
6.74905e-05
0.0489628
0.06761
0.00400924
0.000145518
6.30114e-05
0.0923102
9.43433e-05
0.0857317
0.0499823
0.0749436
0.0333564
0.0786315
8.87773e-05
6.71265e-05
0.0867987
0.0774726
0.0553294
8.77392e-05
0.0457494
8.62385e-05
0.055792
0.00304715
0.0393838
0.00127643
8.28042e-05
0.0801446
9.36343e-05
0.072442
6.50573e-05
4.89471e-05
0.0867162
7.51841e-05
0.0138959
0.0456195
0.0271188
0.100721
8.14074e-05
7.34281e-05
0.0693944
0.0865869
7.28595e-05
0.0792524
0.0714614
9.47972e-05
0.0595126
6.68823e-05
7.45899e-05
0.000155541
0.0140827
4.85281e-05
0.0282819
8.43859e-05
4.80929e-05
0.0849018
0.0607985
4.79352e-05
0.00519681
0.0555008
0.0786248
0.056147
9.0088e-05
0.0985824
4.59158e-05
0.000124664
0.0868272
7.44069e-05
0.0692508
7.53326e-05
0.0886093
0.000107528
0.0270547
0.0691138
0.0830523
0.0069653
0.00505559
0.00019059
0.0702652
0.000219662
0.0939673
5.61741e-05
0.053495
0.0880046
0.042507
5.34071e-05
4.81521e-05
7.27343e-05
0.0758657
0.000252326
8.41329e-05
0.085281
0.0800843
0.0179474
0.0117539
0.000220478
0.00033301
0.0105869
4.53236e-05
0.0239535
0.0532955
9.30032e-05
0.0692024
5.9394e-05
8.14249e-05
9.06352e-05
0.0738128
0.0561907
6.69955e-05
7.19383e-05
4.74671e-05
0.050058
0.0765711
0.0403434
0.0383477
0.0669331
0.0668143
6.57126e-05
0.00304462
0.0387256
0.000304956
5.98272e-05
7.00827e-05
5.7652e-05
7.26175e-05
0.0754464
0.0857471
0.0639101
6.67153e-05
9.06864e-05
5.22046e-05
0.000111029
0.000272014
0.0486347
0.00534667
0.000240958
0.000188474
9.44235e-05
6.33674e-05
9.17699e-05
0.0001678
0.0578784
4.87803e-05
0.00011766
0.000108781
0.0537212
0.0518474
0.0814674
0.0055958
8.73308e-05
0.08014
9.01885e-05
0.0518877
0.0504233
5.25849e-05
0.0302646
0.0837551
0.0673716
0.000114021
0.082461
0.0303337
9.349e-05
0.0556907
5.15607e-05
4.8404e-05
0.0669275
0.0877854
0.0970962
5.89317e-05
0.0496237
0.0001383
0.0538568
0.0936734
6.95968e-05
0.0820355
0.000115083
0.000528947
0.0548308
6.26211e-05
0.0502077
0.000121591
0.0425406
0.0513862
0.0056877
5.29808e-05
0.000135206
0.0930185
0.0883211
0.000306064
0.0794492
0.0493753
7.5445e-05
0.00597109
0.000338479
8.74524e-05
7.19656e-05
0.000121026
0.000264592
0.0494136
5.76069e-05
0.00013075
0.0326246
6.03768e-05
0.052115
9.05081e-05
0.0886806
9.40011e-05
6.30743e-05
0.0408528
6.80647e-05
0.0112509
8.94747e-05
8.98824e-05
0.0661053
8.45695e-05
8.79479e-05
4.89916e-05
0.0515238
0.000268557
9.29788e-05
0.0304936
0.0940553
0.0524859
0.000108374
5.83592e-05
0.0504957
9.19255e-05
0.000879571
6.82154e-05
0.0116958
0.0872963
9.48593e-05
9.44904e-05
0.00627716
9.48139e-05
9.23718e-05
0.0561002
0.0478041
0.000110641
0.0566206
0.000107406
0.0786626
0.0491539
5.85698e-05
6.35944e-05
8.10942e-05
0.0724432
0.0470015
0.072547
0.0477113
0.0626615
0.0559538
0.0500277
0.086167
8.75475e-05
0.0900727
0.0921699
7.10175e-05
0.000115693
0.000272567
8.18819e-05
8.6271e-05
0.0718589
0.0705534
0.0859033
9.36729e-05
0.000109278
0.0234508
0.0819682
9.59851e-05
0.0632263
0.000208795
0.0543894
0.0479044
0.085681
0.0127194
0.0431839
0.0696749
6.444e-05
0.09163
5.16407e-05
9.48793e-05
0.0834194
8.31141e-05
6.71345e-05
0.0576217
9.06544e-05
9.34681e-05
0.030361
6.78178e-05
8.19742e-05
0.0679611
0.0500229
0.052125
8.80799e-05
0.0484822
5.67792e-05
0.000105902
0.0504847
0.0747695
0.0563535
7.05736e-05
0.034365
9.14235e-05
0.0425171
5.76948e-05
6.27158e-05
5.94299e-05
0.0862704
8.47422e-05
0.000121359
0.0733444
9.03116e-05
0.0452028
0.0449916
0.0533695
6.47959e-05
9.02524e-05
2.12111e-05
0.0403224
0.0105417
7.93914e-05
0.0546175
0.125409
0.0863369
0.000133011
0.00010869
0.025469
0.0811946
0.00772164
0.000272925
0.0728277
5.82616e-05
0.0397292
8.97245e-05
0.00102298
9.42328e-05
0.0661495
0.09063
0.0508468
0.0662663
0.00863301
8.92521e-05
0.000484715
7.14265e-05
0.0859482
5.70331e-05
0.092781
4.78823e-05
0.0485792
0.083602
0.0264885
0.0608369
9.49427e-05
0.0902953
6.28301e-05
0.0737291
9.89788e-05
9.90624e-05
0.042638
6.90772e-05
0.0243433
0.0324078
0.0737384
0.0578642
0.0427736
0.072674
0.0724305
0.0921769
7.54267e-05
8.43991e-05
0.000384492
8.77223e-05
5.55587e-05
0.00202046
0.0675159
0.0575754
8.90485e-05
0.072066
0.000254232
0.000189811
0.0527044
0.0688026
9.10485e-05
0.0920266
0.000223224
0.104333
9.90448e-05
0.0502632
0.0705813
0.00144199
0.0482945
7.54422e-05
0.066849
0.0893587
0.0861626
0.029294
0.0390657
0.0926201
0.000881905
0.0504819
7.53381e-05
0.0630981
9.78454e-05
0.000198848
8.84807e-05
0.0923912
0.0329449
8.56526e-05
7.89601e-05
0.000616721
7.04882e-05
4.93923e-05
0.0829598
0.0670621
8.32302e-05
0.0732704
0.0897311
0.0578806
0.0619979
0.000666335
0.0877351
0.00184373
0.0749126
0.0875838
5.66399e-05
0.0877451
0.077949
7.92106e-05
0.0513865
0.0713867
0.000126652
0.0242375
0.000127427
9.17195e-05
6.86498e-05
0.0392133
0.0694883
0.000109059
0.0510199
0.036892
0.0208061
0.0909514
0.0032794
0.00355842
0.0588308
6.87798e-05
0.062085
8.74062e-05
0.0502197
7.18193e-05
0.0863102
9.21934e-05
0.0562801
0.0122531
7.21172e-05
0.0682003
0.0303568
0.0516129
0.0488594
0.000107953
0.0672446
0.0375055
5.18005e-05
0.0641102
0.0582076
9.17397e-05
0.0363353
8.53935e-05
0.0524597
7.4097e-05
8.36075e-05
5.42508e-05
0.0695709
0.0938293
0.0800284
0.0480752
0.000194039
0.0111834
0.0691924
7.06171e-05
7.64744e-05
0.0491433
0.0724233
4.99891e-05
0.0813515
0.060775
0.0543048
0.0928457
0.0866541
0.0690439
0.000106478
0.048251
7.19446e-05
0.0702417
5.06238e-05
6.21977e-05
0.0574635
0.0818388
0.0001065
0.00982711
7.29595e-05
5.29918e-05
4.71605e-05
8.80718e-05
0.0305047
0.0745244
7.11679e-05
0.00237413
0.0390645
9.25328e-05
0.00453311
0.0932438
5.39791e-05
8.81805e-05
7.4659e-05
0.087944
9.42664e-05
9.42931e-05
6.70886e-05
8.75834e-05
0.000335945
5.23724e-05
0.000259435
0.0542661
0.034855
0.000103403
0.000105382
0.0495594
0.0917161
0.0353136
8.82132e-05
0.0121292
0.0820193
4.49042e-05
0.0715885
0.0665229
0.0938037
0.000219632
0.00587439
0.0910408
0.033666
0.000155347
0.000193018
0.0467548
0.0340229
0.0460769
0.011516
0.0110601
0.0825463
0.00251145
0.0881901
7.31757e-05
0.0792284
0.000182614
0.0711023
0.0639009
0.0612204
6.70066e-05
0.0483135
8.19771e-05
8.18744e-05
0.000275169
0.000107933
6.36588e-05
6.97175e-05
0.0225585
0.0922326
0.0754667
0.0766462
0.0752336
0.0034725
0.0114509
0.0932985
0.0122032
6.12361e-05
0.0753819
0.000104696
0.0594364
0.0572706
0.0942495
0.00442797
0.0747855
0.0775319
0.0523477
0.000111917
0.0499384
0.0191477
0.0935798
0.000225891
0.0868378
0.0103833
0.0512917
0.0525477
0.0441691
0.0822161
0.0849652
0.000271497
0.0924106
9.63409e-05
0.00789463
8.85614e-05
0.00304139
0.0615681
0.0906382
0.000222144
8.70792e-05
0.00826571
0.0682291
0.000226101
0.00636406
9.90138e-05
4.9141e-05
0.0439462
8.01022e-05
8.32147e-05
0.0711137
0.000108484
9.43462e-05
0.0660525
0.107239
0.0879734
4.74685e-05
0.082961
0.0362741
9.04346e-05
0.000249054
7.51187e-05
6.79585e-05
9.13097e-05
0.000122037
9.24816e-05
6.8663e-05
0.0805147
0.0013737
0.0930539
0.0714305
0.0290923
0.000192474
0.089606
0.000188881
0.00172664
6.32622e-05
0.000129583
0.000110984
0.0342481
0.0243907
6.45457e-05
0.0561395
0.000112536
0.115669
0.0929584
6.85299e-05
0.024994
0.0574544
0.000262718
0.0763271
0.0573263
0.000223096
0.000141909
0.000266656
0.000305717
8.00009e-05
0.000216578
0.0711279
0.00572624
0.0576747
0.065473
0.000272722
0.000506825
0.00583494
0.0661065
0.0425676
0.000359867
0.000105859
0.0703432
8.86199e-05
0.0783561
0.0817917
0.0461099
0.0164816
6.48664e-05
0.0125038
0.065248
7.31935e-05
0.0294704
0.0526425
0.089014
0.000189009
5.21806e-05
0.0004195
0.0795372
9.08203e-05
7.94883e-05
0.0311376
8.41551e-05
0.00011086
0.000106939
0.000194142
0.0756033
0.00260313
0.0640424
0.000113951
0.0681737
0.0833447
0.000613863
0.0276422
7.61958e-05
0.024055
0.0510013
0.000103443
0.000104978
0.000103987
0.000263621
0.000133395
7.1884e-05
0.00068285
0.0556695
0.047826
0.00012723
0.000109697
0.0698427
0.0933932
0.011812
0.0811699
0.0575744
0.0696666
4.5693e-05
0.000114367
0.0342243
8.17785e-05
0.0392478
0.0602674
0.000110601
0.000112041
0.0497758
0.076912
9.20472e-05
0.0900697
5.83907e-05
9.65129e-05
0.0465684
0.0092494
8.20459e-05
0.000107029
0.000246298
0.087957
0.0721963
0.0743342
0.0720218
0.0819267
9.01161e-05
0.000110354
0.0870158
0.0358162
0.0207578
0.00788797
7.4355e-05
0.0510916
0.000144925
0.0807577
0.0652518
8.78871e-05
0.000109726
0.000108803
0.0826016
0.05393
0.0877033
6.65254e-05
0.00019693
0.021169
0.0514472
0.0852742
0.000105553
5.13892e-05
0.000156284
0.0570993
0.0653803
9.83821e-05
0.0936734
0.0765756
0.0085761
4.59267e-05
0.0757957
0.0826103
6.44595e-05
0.0793235
0.000533003
0.0268613
6.54029e-05
0.000102149
8.374e-05
0.0821891
0.0763939
0.0660034
0.0265593
0.000101796
0.00010122
6.26441e-05
0.000102946
0.0181033
0.0670278
0.00348825
9.13465e-05
6.65323e-05
0.000267766
0.00010384
9.13209e-05
0.000109883
4.5616e-05
0.00201875
6.291e-05
0.0447897
0.000107581
8.20422e-05
0.00279308
6.58206e-05
4.53667e-05
0.0495523
6.0633e-05
0.000155111
7.95468e-05
0.072427
0.0938589
0.0551578
4.68824e-05
6.11368e-05
0.0142586
0.0889576
0.0848512
0.0776836
0.0480812
0.0332129
0.000103057
8.20592e-05
0.0493302
0.0266088
0.000194317
0.0813713
0.000104493
9.44637e-05
0.000100898
0.000104833
0.0735658
7.52847e-05
9.07042e-05
0.0351084
9.12282e-05
0.0624075
9.29809e-05
0.00011236
0.000268867
8.47834e-05
7.94713e-05
0.0567754
0.00178334
8.66845e-05
0.0296015
0.000101515
4.5742e-05
0.0116704
0.0345782
7.27664e-05
0.00257724
0.0876185
9.76236e-05
0.000101998
0.00143269
0.0458167
0.000156789
8.88816e-05
0.00020128
7.23182e-05
0.0760027
0.0863692
6.29745e-05
9.0317e-05
0.000112292
0.0503309
0.102422
6.33562e-05
0.0631268
0.000313013
7.5169e-05
0.000217801
9.08891e-05
0.0824985
0.00384811
7.86157e-05
0.0797178
0.0515899
0.000219044
0.0686945
0.0896758
0.000108274
0.0106131
0.00026273
5.96871e-05
0.0689874
9.59395e-05
0.000153715
8.44479e-05
0.0434862
0.000215655
0.000203075
0.116689
8.05063e-05
5.28719e-05
6.75269e-05
0.0117553
6.87671e-05
0.000116538
7.01471e-05
7.92757e-05
6.17212e-05
0.0895746
0.000135599
0.0694228
0.0766924
0.0766317
0.0746835
0.077575
0.000105158
0.0305204
0.000515954
0.00010265
0.07608
9.7377e-05
0.0804733
0.0770276
0.000142062
0.000123268
7.34702e-05
0.0944054
8.25935e-05
0.0943165
0.000119023
0.000213822
0.0825533
7.21687e-05
0.0860024
0.044552