/*--------------------------------*- C++ -*----------------------------------*\
| =========                 |                                                 |
| \\      /  F ield         | OpenFOAM: The Open Source CFD Toolbox           |
|  \\    /   O peration     | Version:  v2012                                 |
|   \\  /    A nd           | Website:  www.openfoam.com                      |
|    \\/     M anipulation  |                                                 |
\*---------------------------------------------------------------------------*/
FoamFile
{
    version     2.0;
    format      ascii;
    class       volScalarField;
    location    "300";
    object      nut;
}
// * * * * * * * * * * * * * * * * * * * * * * * * * * * * * * * * * * * * * //

dimensions      [0 2 -1 0 0 0 0];


internalField   nonuniform List<scalar> 
13308
(
0.000443075
0.0586219
0.0447487
0.000515688
0.000509158
0.000453301
0.000615228
0.000460113
0.00061372
0.0773525
0.035587
0.0387797
0.000454557
0.000447081
0.000460241
0.042867
0.000328206
0.0575261
0.0408352
0.0214047
0.000473075
0.0615513
0.0570796
0.000485217
0.0414015
0.0569131
0.000523955
0.0340614
0.00052745
0.000556873
0.0640979
0.000537376
0.0578024
0.000576798
0.0673462
0.000480051
0.00061459
0.0559654
0.000465239
0.0418303
0.000444589
0.0004589
0.0678913
0.000445992
0.000465349
0.00140119
0.000470761
0.000531456
0.000448275
0.0425575
0.000503521
0.000455752
0.0500299
0.0194062
0.00804909
0.0165304
0.000446095
0.000456591
0.000475585
0.000473996
0.0325103
0.0529538
0.000456356
0.000451896
0.000482102
0.058438
0.000443666
0.00344585
0.000457533
0.000661609
0.0710327
0.000464538
0.00042369
0.000543488
0.0199212
0.000453063
0.000429988
0.0140809
0.000450028
0.0135207
0.000457679
0.000430619
0.000452437
0.000480848
0.00167927
0.000460428
0.00519167
0.0685655
0.0203951
0.01419
0.000457706
0.000443034
0.000527862
0.000475797
0.000472893
0.000444332
0.000459274
0.0123359
0.0706922
0.00067218
0.000456664
0.00045117
0.000456946
0.000478742
0.0359494
0.0625342
0.0468266
0.000470871
0.0542481
0.0568434
0.000465229
0.000693024
0.000465961
0.000449597
0.000467386
0.0407135
0.00237062
0.0318217
0.000530364
0.000457397
0.000503912
0.000479798
0.00043958
0.00105703
0.0338039
0.000707236
0.00310349
0.00168706
0.000439047
0.02429
0.0702708
0.000497787
0.000451843
0.000445573
0.000604452
0.000595288
0.000443516
0.0325865
0.000551224
0.000459322
0.0370766
0.000464563
0.000450013
0.000467708
0.000462795
0.000545905
0.00910429
0.0126951
0.000457231
0.000517584
0.00834847
0.000489738
0.0755079
0.0377883
0.0375107
0.000557556
0.000476039
0.000440275
0.000445459
0.00209007
0.0764239
0.000456058
0.000449924
0.0516792
0.000563229
0.000550597
0.0610032
0.000439986
0.05404
0.000496878
0.00046417
0.0304604
0.000505661
0.0382791
0.00467224
0.060055
0.061785
0.0440255
0.000525699
0.0004726
0.0347532
0.0526696
0.000444747
0.0786773
0.0395495
0.000436374
0.0200197
0.0661507
0.000564466
0.04314
0.0366975
0.025804
0.000463877
0.0401447
0.000462294
0.0598973
0.000463854
0.00453183
0.0355912
0.000458815
0.0470713
0.0503927
0.0530887
0.000593585
0.0268204
1.0582e-05
0.0361291
0.0228011
0.0581043
0.00652885
0.0629301
0.000535831
0.00053043
0.0390305
0.0531757
0.000475057
0.000476525
0.066564
0.00170137
0.023114
0.0298487
0.000487288
0.000546528
0.000428331
0.000483849
0.0400849
0.000503362
0.0240302
0.0161958
0.00201913
0.0356177
0.000478282
0.0432117
0.00290122
0.000485915
0.000518713
0.0641555
0.0233915
0.0368976
0.000474267
0.000483282
0.000582783
0.000476007
0.00042887
0.0338265
0.040818
0.000408443
2.71019e-06
0.000428507
0.0380474
0.0526012
0.0573427
0.000448138
0.053326
0.0421412
0.000477663
0.0750386
0.000488414
0.013061
0.0145933
0.000555858
0.000991829
0.000520007
0.000449709
0.000547367
0.000491994
0.0400988
0.000451802
0.0243247
0.0500131
0.00211804
0.000506883
0.000456125
0.000567793
0.000450475
0.000497901
0.00044903
0.0301803
0.000509093
0.00052053
0.0600004
0.000475725
0.0232215
0.000478978
0.0673136
0.0620012
0.000450451
0.00043798
0.000556202
0.082666
0.000532072
0.000443578
0.00769172
0.0528451
0.000442819
0.0633726
0.0190597
0.000545549
0.000531403
0.041765
0.0579848
0.000470123
0.0565546
0.00633789
0.0106563
0.000443658
0.000521327
0.0392997
0.00377265
0.000435815
0.0357684
0.00317866
0.0005338
0.0505573
0.0704276
0.00438727
0.000477043
0.000442535
0.000449061
0.00635314
0.000442013
0.000431821
0.0244361
0.000430146
0.0135368
0.000469631
0.000477637
0.00045373
0.000465867
0.000585317
0.0583124
0.000448885
0.00385152
0.000448043
0.000465932
0.00123308
0.0482417
0.000440524
0.000499333
0.00421774
0.000492076
0.000453386
0.000447528
0.000573458
0.0111334
0.0814798
0.000552443
0.000540337
0.00050625
0.000473426
0.000533336
0.0648285
0.0389104
0.000443181
0.000446665
0.000454391
0.0515804
0.000443513
0.000540216
0.0453897
0.0669598
0.000601801
0.0004996
0.00368931
0.05766
0.0546888
0.000447373
0.000429144
0.000456956
0.000481499
0.049486
0.0107369
0.0055137
0.000505305
0.000456556
0.000511564
0.0511707
0.056413
0.000459122
0.0246898
0.000460878
0.000448212
0.058903
0.000515669
0.000448244
0.0562715
0.0006584
0.000478077
0.000442564
0.0795385
0.000471564
0.00148512
0.000804828
0.0462431
0.0297528
0.000544052
0.0116367
0.000442832
0.00783322
0.0004561
0.00313922
0.000484035
0.000674961
0.0552357
0.000430918
0.0652216
0.000477324
0.000439418
0.0695447
0.0177491
0.000457066
0.00100728
0.00166091
0.000442808
0.000444124
0.0436155
0.000460272
0.000444013
0.000476785
0.000518396
0.000561038
0.000457486
0.000489356
0.000457862
0.000464881
0.048099
0.00316257
0.000462089
0.0222651
0.0414043
0.0699538
0.000437625
0.000723346
0.0554105
0.000446655
0.000430054
0.0495771
0.000443397
0.000537527
0.0403132
0.0446437
0.063041
0.0451873
0.000456871
0.0624605
0.000479752
0.0337992
0.0514631
0.000442284
0.0381945
0.00044423
0.0618932
0.00108929
0.066647
0.000483276
0.000517209
0.000500753
0.0141377
0.0550586
0.000648327
0.00263084
0.0642256
0.000468491
0.0764625
0.000456205
0.00384144
0.000440385
0.00045873
0.000449086
0.0520958
0.01449
0.000453236
0.0536711
0.000456709
0.0208867
0.0559622
0.000527755
0.000465219
0.0268017
0.000447099
0.0271005
0.000616099
0.0280309
0.000447024
0.00057592
0.000457443
0.000446321
0.0245355
0.000465779
0.000443766
0.000444157
0.000525339
0.0260086
0.000429995
0.000430899
0.000457764
0.000466982
0.016634
0.0718558
0.0607471
0.0289823
0.00587404
0.0690636
0.0410023
0.000476529
0.000450145
0.000641695
0.0452277
0.000485462
0.0552137
0.000527433
0.00176993
0.000461032
0.000443655
0.000484172
0.00054189
0.000572628
0.000481207
0.00128807
0.0560897
0.0734045
0.0406566
0.0398059
0.000954285
0.00045286
0.00961262
0.000447409
0.000430178
0.0137665
0.000711026
0.000577279
0.000546846
0.0508769
0.0567138
0.000435859
0.0046922
0.0516593
0.050114
0.000429565
0.0206887
0.000446228
0.00190136
0.000451324
0.0420903
0.000461167
0.0176222
0.0720621
0.0352186
0.000443133
0.000448554
0.0514139
0.0374075
0.0711361
0.0267135
0.0571516
0.0277102
0.0629527
0.0187653
0.0557622
0.0633244
0.000475695
0.000451739
0.00044836
0.0484885
0.000449473
0.00701534
0.0214063
0.000453321
0.0387084
0.0352113
0.0712592
0.000445867
0.000449129
0.000446063
0.0474946
0.000535667
0.000443178
0.000455548
0.0600637
0.000455804
0.0479219
0.000536715
0.000464416
0.000541716
0.000451768
0.000446673
0.000449887
0.00050071
0.000478202
0.000479678
0.0311225
0.00044243
0.00043443
0.000428182
0.000498326
0.0523336
0.0565911
0.000444156
0.0217317
0.000459123
0.000495051
0.000444009
0.00048147
0.000466543
0.000460671
0.000506728
0.000443368
0.0543197
0.000473963
0.0525071
0.0464858
0.000498386
0.000511546
0.000478275
0.0664674
0.0459439
0.000521975
0.000449284
0.026295
0.000712107
0.000555173
0.000449846
0.00044129
0.0261806
0.000537747
0.00398535
0.000455929
0.00045327
0.000560946
0.00572871
0.000482422
0.0632798
0.0303284
0.0396205
0.0379004
0.0133758
0.000497874
0.000464053
0.0296971
0.0544813
0.000453879
0.000450305
0.0213321
0.0660501
0.00059428
0.0591447
0.000474881
0.000455923
0.000428178
0.00983428
0.00567941
0.000465762
0.057767
0.000458474
0.0609871
0.000451443
0.000445577
0.00974738
0.0647414
0.000564543
0.0136666
0.0624142
0.000539622
0.0113198
0.000483615
0.0134202
0.0451364
0.000469719
0.040651
0.0459041
0.0331914
0.00043877
0.000522671
0.000464238
0.000442981
0.0535561
0.0331968
0.00303125
0.0199021
0.0740633
0.00048157
0.000721911
0.000493207
0.000428227
0.000479484
0.000470245
0.0528935
0.0534437
0.000146768
0.0109315
0.000436993
0.0208009
0.000488701
0.000368221
0.0166448
0.000463672
0.000435602
0.000449558
0.000435505
0.0546923
0.000448063
0.0717723
0.0351458
0.000556423
0.000493952
0.000438682
0.0720285
0.0269966
0.0540328
0.000458086
0.000447092
0.000446497
0.00871042
0.000470892
0.000710146
0.000511298
0.000448161
0.000435274
0.000450537
0.000442541
0.000441608
0.00046596
0.00253287
0.071863
0.00120889
0.000448637
0.00666984
0.0428644
0.000598947
0.0537114
0.000467132
0.000458378
0.000445927
0.000455615
0.0398605
0.00047532
0.0308024
0.00647797
0.0724943
0.000463154
0.000446153
0.0643297
0.000454138
0.0519447
0.000450551
0.000448035
0.0748916
0.000445433
0.000432791
0.000613758
0.000613625
0.0109307
0.0648268
0.0684241
0.0121831
0.000465051
0.000490513
0.000502998
0.0533562
0.000872225
0.000442477
0.000452508
0.000566368
0.0523025
0.000433515
0.000451753
0.0649656
0.0559806
0.000573774
0.000454843
0.000430228
0.000450298
0.000453497
0.000463665
0.00043024
0.000456515
0.000454037
0.0530267
0.000431724
0.000516039
0.0491857
0.0398393
0.00145917
0.000454105
0.000449272
0.0125289
0.0395471
0.0156737
0.000800789
0.0226261
0.0584478
0.000688301
0.0523048
0.000473463
0.03143
0.000446687
0.0375283
0.000447396
0.000478838
0.0132212
0.000988638
0.000452915
0.000443807
0.000466801
0.000483321
0.0244916
0.0332055
0.0612542
0.000477997
0.000443448
0.0254594
0.000444679
0.00043297
0.02274
0.0644245
0.0446067
0.0358231
0.0366578
0.0004609
0.00306764
0.072671
0.000435972
0.00047918
0.0608954
0.000440178
0.000450014
0.0591011
0.0498234
0.000451831
0.0645508
0.000435896
0.000504594
0.0096217
0.0330253
0.0275135
0.00049667
0.000477275
0.000488943
0.000461734
0.0306681
0.0119739
0.000448498
0.0496564
0.0271039
0.00065334
0.000429949
0.000447219
0.0380027
0.00050148
0.000481716
0.0183128
0.0280073
0.000445982
0.0481027
0.0602234
0.0588728
0.0347735
0.000624773
0.000436132
0.000428567
0.00045593
0.000478991
0.0450599
0.0552858
0.000510038
0.000545966
0.0415607
0.0578198
0.037329
0.000451613
0.0526193
0.00046
0.0577441
0.000641829
0.000470613
0.00040017
0.000455935
0.0152956
0.0754212
0.000441227
0.0520414
0.0330209
0.00946467
0.0566949
0.000514917
0.000481153
0.000435329
0.0479444
0.000444254
0.0632768
0.000453403
0.000454654
0.000452505
0.000488022
0.00568817
0.00045091
0.014114
0.027977
0.038262
0.000496059
0.000434463
0.0488964
0.00045428
0.000454677
0.060292
0.000445343
0.000450038
0.000621004
0.000466533
0.000434954
0.0212528
0.0525446
0.00954551
0.0129381
0.000442644
0.000503482
0.000575809
2.42127e-05
0.044009
0.000450121
0.0575581
0.000461691
0.000467354
0.0530397
0.000448213
0.000436015
0.000488872
0.000463523
0.000445353
0.000456766
0.0276062
0.0577553
0.000481539
0.00753966
0.0271221
0.000648041
0.000471607
0.00043728
0.000450751
0.000454998
0.0195622
0.00065879
0.0537044
0.0648639
0.0283972
0.00045274
0.0004785
0.0173858
0.000479411
0.000471661
0.000455571
0.0114458
0.0280127
0.000455955
0.0593292
0.0129129
0.000477608
0.000476513
0.000449817
0.000621371
0.00057588
0.00122835
0.00047814
0.000616576
0.000484783
0.000459643
0.0251521
0.000454551
0.0762584
0.000516537
0.000461277
0.000491043
0.000461275
0.000512609
0.00044566
0.00048281
0.0315702
0.000448388
0.0413001
0.000486148
0.000467187
0.0270733
0.0713024
0.000443377
0.000430694
0.000547366
0.00919873
0.000454557
0.000607065
0.0222733
0.0742378
0.000528518
0.000520375
0.00559726
0.000438036
0.000455583
0.022252
0.0390599
0.0273189
0.000457394
0.00050422
0.000483429
0.000494284
0.00717913
0.000459894
0.000450706
0.000499442
0.0640233
0.000443921
0.000444054
0.000463043
0.000467268
0.01688
0.000437919
0.0211013
0.000516092
0.0472957
0.0713318
0.000494835
0.0613531
0.000462917
0.0614437
0.01759
0.029191
0.000465329
0.0428557
0.00048797
0.000613561
0.000485264
0.000472627
0.0582525
0.000453142
0.000509726
0.000487642
0.00054273
0.000526255
0.055431
0.0629885
0.00585559
0.041214
0.000455328
0.0552849
0.00043907
0.000451414
0.000517824
0.000455973
0.00068834
0.0687901
0.000445512
0.0599805
0.000491636
0.0618076
0.0448496
0.0384628
0.000453198
0.00045167
0.000551596
0.000433058
0.00048856
0.000448053
0.0621743
0.000474702
0.0266535
0.000534259
0.000483946
0.0319729
0.000470641
0.0527829
0.000457064
0.000549264
0.0135999
0.0575679
0.000476532
0.0051838
0.033093
0.0375553
0.00103143
0.000449452
0.0619097
0.000452002
0.0254722
0.000458099
0.00045008
0.000445335
0.00978041
0.0528836
0.0229626
0.040669
0.0502062
0.0627125
0.000445165
0.0180735
0.000493801
0.000459232
0.0304644
0.0550153
0.000430451
0.0794118
0.000621771
0.000448389
0.0477773
0.000455454
0.000448271
0.0465532
0.000454354
0.000527408
0.0566877
0.000570063
0.0466844
0.000452456
0.000428319
0.000461692
0.0592715
0.000497093
0.000507219
0.000604443
0.000439836
0.000434832
0.000492548
0.0391524
0.000433723
0.0770288
0.000454097
0.000669431
0.0577488
0.00046771
0.0588967
0.000429693
0.000471604
0.054974
0.000452757
0.000936198
0.0617922
0.0439067
0.0616346
0.000474623
0.0319319
0.00045998
0.0745152
0.000950536
0.000506489
0.0144478
0.000675098
0.0214213
0.0587603
0.000435206
0.000619138
0.000519453
0.000509228
0.000482417
0.0430806
0.000451174
0.000452543
0.000453962
0.000457282
0.000455355
0.000448599
0.000444811
0.000468656
0.0240042
0.000502372
0.000439832
0.0702548
0.000253722
0.00590326
0.00825226
0.0364248
0.000452631
0.0497085
0.00047222
0.061002
0.000489956
0.059338
0.0244241
0.0386965
0.0420832
0.000453863
0.000449748
0.000438271
0.000460808
0.000481908
0.0415746
0.000450205
0.000504422
0.000653954
0.0353202
0.000628455
0.0109701
0.0457541
0.000679576
0.000460999
0.000437437
0.000546058
0.000458935
0.000495221
0.0541301
0.000489895
0.000446073
0.000458118
0.000443247
0.000755274
0.0429301
0.00950465
0.000517816
0.000463501
0.000433539
0.000451287
0.000455358
0.059
0.000482638
0.000434408
0.000458597
0.0190318
0.0522018
0.000452829
0.000445733
0.000503341
0.0177399
0.000445455
0.000480819
0.000535216
0.0583819
0.0164209
0.0614404
0.000532464
0.0177871
0.000494333
0.0456347
0.000485239
0.0563037
0.00045156
0.0615797
0.0443557
0.0589422
0.000456129
0.0219646
0.000474684
0.0640927
0.0516342
0.0663963
0.0735805
0.0611623
0.000491832
0.000536581
0.0164662
0.000506095
0.0193039
0.000543316
0.0502402
0.0538627
0.0627218
0.0301973
0.0218536
0.000449547
0.0606575
0.000604864
0.00371401
0.000437558
0.000758487
0.049167
0.000751978
0.0499299
0.000518909
0.0114934
0.00049033
0.0160348
0.0607773
0.000466134
0.060501
0.0257734
0.000456897
0.00540456
0.000483844
0.000164453
0.00020549
0.000472737
0.0768466
0.0606502
0.000447964
0.0554393
3.53949e-06
0.000445479
0.0704505
0.0588778
0.0239682
0.0425196
0.000446391
0.00045073
0.0170675
0.000436116
0.0691878
0.0225356
0.060833
0.0599944
0.000450904
0.00054353
0.000441042
0.0258966
0.0278493
0.0201498
0.000517397
0.000435916
0.0189475
0.00265587
0.000504784
0.0257491
0.000451444
0.0357504
0.00043969
0.00045899
0.000511076
0.00043457
0.000465633
0.000486422
0.0305483
0.0564938
0.000435337
0.000431442
0.0598911
0.0597679
0.000439644
0.000474576
0.0431804
0.000433117
0.0533092
0.0601715
0.0513549
0.000448197
0.000455726
0.00909187
0.0484301
0.000578502
0.000447709
0.0205766
0.000432829
0.0209752
0.0249817
0.000443622
0.0702603
0.0178848
0.000501613
0.0005564
0.000473497
0.000468652
0.033439
0.000491167
0.00955559
0.000449593
0.000453009
0.00572503
0.000436016
0.000580907
0.0441591
0.000455625
0.0773952
0.00312754
0.000450361
0.0438306
0.000492055
0.000445246
0.0594301
0.000427812
0.0625747
0.000454979
0.071311
0.000442372
0.000428326
0.0154134
0.0587088
0.0643308
0.000435955
0.00394599
0.000449038
0.000349028
0.000451857
0.0235105
0.012051
0.0251757
0.000498884
0.000489167
0.000496768
0.0144155
0.0578653
0.0261597
0.0496189
0.000442823
0.000456728
0.000451851
0.000582621
0.000473342
0.000538374
0.0637339
0.000451367
0.00636324
0.0575206
0.00047445
0.0570673
0.000449859
0.000528607
0.0543399
0.02804
0.000444793
0.000445238
0.000543581
0.000829036
0.0558648
0.0288657
0.0533654
0.00063481
0.0275286
0.0261082
0.000469617
0.000465574
0.0529971
0.000765223
0.000452628
0.000494962
0.046121
0.0276709
0.00043272
0.00942275
0.000447704
0.000437133
0.0533239
0.000950847
0.0587685
0.0588171
0.000577954
0.000591454
0.0463477
0.000458341
0.0520831
0.0016421
0.000477939
0.000491443
0.000492191
0.000449117
0.0608231
0.000436053
0.0585617
0.000547417
0.000885643
0.028364
0.000449699
0.0665824
0.000484439
0.0086901
0.0718509
0.000672183
0.000565979
0.000436982
0.0573852
0.000438965
0.0492617
0.0204267
0.000709676
0.022086
0.000433099
0.0548256
0.000448026
0.000509734
0.000472656
0.00110307
0.000451097
0.0332235
0.000449843
0.0151539
0.000448957
0.0526618
0.00948683
0.000523939
0.000478841
0.000282834
0.0559907
0.015749
0.00043554
0.0628044
0.000928203
0.000452848
0.0291056
0.000445263
0.000481335
0.0426947
0.00563385
0.000808484
0.000447311
0.0425121
0.0694697
0.0431
0.000461499
0.000436828
0.0460796
0.0153072
0.000500391
0.0217385
0.000471242
0.0563979
0.000469547
0.000447295
0.00802359
0.0432787
0.000525078
0.000529326
0.000435541
0.000499367
0.000458771
0.000536586
0.0277496
0.00106804
0.000498282
0.000432292
0.0556165
0.000453704
0.000478083
0.000448015
0.021018
0.0399248
0.0801448
0.000487241
0.000434894
0.000455837
0.0498161
0.0683831
0.0570408
0.000592739
0.0539949
0.000564906
0.0518729
0.00050534
0.000706743
0.000446072
0.000446542
0.000447864
0.0565658
0.000447096
0.000485366
0.0181229
0.0457901
0.0573023
0.0119026
0.000450215
0.0208132
0.000476362
0.0245981
0.000450148
0.0328365
0.0004328
0.000447833
0.0214255
0.0235143
0.000454211
0.000452583
0.000445867
0.0125851
0.000525717
0.0164872
0.000760312
0.0424479
0.0555373
0.0500129
0.0415449
0.000449411
0.0606919
0.000596779
0.00048243
0.000450626
0.000461637
0.000443652
0.000453399
0.000450708
0.000442213
0.000456376
0.00045391
0.000491651
0.0254692
0.0438084
0.0431814
0.000454737
0.000447989
0.0356237
0.000449823
0.0450878
0.000450416
2.9346e-05
0.0323416
0.0717428
0.000492584
0.00072008
0.00127497
0.000436407
0.0010598
0.00055989
0.0510522
0.0450666
0.0167397
0.000469641
0.0550488
0.000458382
0.000448319
0.000555345
0.000438841
0.000490684
0.000457508
0.00784453
0.000441329
0.00043487
0.0488657
0.000447145
0.000495531
0.0669103
0.000434778
0.0322774
0.000439256
0.000449373
0.000447652
0.00794644
0.00045072
0.0623986
0.0526456
0.000450355
0.000813589
0.00047314
0.0567275
0.0611085
0.0004441
0.000445902
0.000442144
0.000438993
0.000441164
0.000445261
0.000430035
0.000515046
0.000450124
0.0719295
0.041505
0.00157645
0.000455727
0.000484813
0.000475182
0.024977
0.0031008
0.0458745
0.0284059
0.000445435
0.0550578
0.0530964
0.000447094
0.0367049
0.00654487
0.000448034
0.00043863
0.0685266
0.000464641
0.000438658
0.000557591
0.0736844
0.0612088
0.0233504
0.0423331
0.000517083
0.0226038
0.0534318
0.000474288
0.000469974
0.000468284
0.000443334
0.000534398
0.0275261
0.000448321
0.0293
0.0637275
0.0649611
0.0746762
0.000453984
0.0687814
0.000455599
0.0472405
0.0424373
0.000450373
0.00044424
0.062428
0.000516811
0.0315128
0.000454212
0.0535621
0.000617955
0.00119322
0.000453606
0.054507
0.047358
0.0317338
0.000490149
0.0423829
0.0170417
0.0581257
0.0210925
0.000504556
0.0457709
0.0547648
0.0545254
0.0620933
0.0519668
0.0479083
0.0597705
0.027587
0.0612637
0.0200962
0.00047731
0.052072
0.0659957
0.0119259
0.00061169
0.000439669
0.0463552
0.00049542
0.0718455
0.0474543
0.0661786
0.021813
0.0700775
0.00045161
0.000444206
0.0563346
0.0700568
0.0543321
0.000465334
0.0538465
0.000455441
0.035036
0.00857936
0.0350201
0.00492161
0.000450265
0.0537339
0.000490413
0.0659814
0.000406648
0.000436212
0.0518462
0.000481585
0.013414
0.0287334
0.0470494
0.0641931
0.000452733
0.000447285
0.0586713
0.0555502
0.000446611
0.0523721
0.0331812
0.000471252
0.064303
0.0004437
0.000457847
0.000658449
0.0286065
0.000435287
0.046223
0.000455246
0.000432314
0.0716166
0.0535691
0.000433042
0.0197249
0.0409314
0.0628022
0.0587831
0.000458344
0.0719956
0.000432285
0.000547116
0.0480113
0.000454946
0.0296454
0.000481694
0.0555086
0.000514127
0.0461193
0.0681642
0.0512821
0.0182822
0.00525059
0.000817816
0.0404844
0.000766364
0.0443288
0.0004644
0.0523945
0.0555523
0.023782
0.000447809
0.000434335
0.000446743
0.0405034
0.000200909
0.000454492
0.0394881
0.0500363
0.0104175
0.0340276
0.000770913
0.00019254
0.0276932
0.000432087
0.0419818
0.0509459
0.000473754
0.0655412
0.00043987
0.000452537
0.000471981
0.0590783
0.0598317
0.000444236
0.000473653
0.000432636
0.0541273
0.048762
0.0363433
0.0107775
0.0674016
0.0524252
0.000467039
0.00863822
0.0147451
0.00084324
0.000470888
0.00044265
0.000502231
0.000444956
0.0685269
0.0546069
0.0293775
0.000441919
0.000473431
0.000435517
0.000549773
0.00117216
0.049403
0.00688705
0.000780349
0.000697769
0.000473189
0.000439989
0.000459004
0.00058404
0.0559354
0.000435182
0.000545818
0.000513329
0.0578017
0.0329282
0.0595244
0.00337681
0.000462335
0.0542773
0.000455047
0.0494548
0.0473101
0.000446268
0.0427604
0.0431726
0.0585828
0.000564675
0.0591364
0.0135599
0.000474432
0.0554138
0.000437611
0.000434358
0.0613482
0.0557105
0.0707247
0.000384739
0.027676
0.000647444
0.0516667
0.0485309
0.00048193
0.0513024
0.000550003
0.00138385
0.0541134
0.000439555
0.0201362
0.000536051
0.0384071
0.0576269
0.0181313
0.000434677
0.00057943
0.0695689
0.053092
0.000750256
0.0697811
0.0459455
0.000449102
0.0151547
0.000922043
0.000455049
0.000448078
0.000597804
0.000901528
0.0470108
0.000452229
0.000582941
0.0201506
0.000440254
0.0428622
0.000452635
0.0509237
0.000466805
0.000456841
0.0205705
0.000450522
0.0169852
0.000451242
0.000455514
0.0610312
0.000452855
0.00045856
0.000432924
0.0576339
0.000638973
0.000491324
0.0166435
0.0479855
0.0506169
0.000509071
0.000438502
0.0561166
0.00046306
0.00259524
0.000448516
0.0359828
0.0746518
0.0004704
0.000487941
0.0161589
0.000475118
0.000459743
0.0576871
0.0454888
0.00052209
0.0620038
0.000507117
0.0731278
0.0520493
0.000437277
0.000442956
0.000448096
0.0654719
0.0134155
0.0582301
0.0292911
0.0624111
0.0565576
0.0474805
0.0716774
0.000450482
0.0539544
0.0527842
0.000446489
0.000580435
0.00119171
0.000459042
0.000564861
0.0616249
0.0596471
0.0526088
0.000471456
0.000519753
0.00527141
0.049641
0.000423902
0.0428204
0.000656696
0.0524513
0.0314475
0.0423815
0.0323683
0.0183815
0.0619299
0.000443543
0.0529931
0.000554389
0.000469324
0.0501227
0.00044966
0.000442013
0.0605979
0.000455086
0.000484996
0.0221921
0.000496935
0.000451741
0.0541915
0.0466213
0.0496308
0.000486376
0.0505769
0.000449727
0.000494917
0.0470813
0.0646264
0.0591315
0.000449122
0.0217898
0.000458454
0.0230738
0.000449696
0.00046054
0.000453018
0.0722337
0.000453501
0.000559964
0.0607456
0.000455574
0.0426877
0.0415452
0.0512487
8.27658e-06
0.000451969
5.75743e-05
0.0269823
0.0276378
0.000451028
0.0557009
0.0820859
0.053981
0.000442865
0.000521728
0.00895835
0.0415324
0.0265002
0.000858146
0.061638
0.000438688
0.0274675
0.00045136
0.00390378
0.000539982
0.0680551
0.0541938
0.0481085
0.0581283
0.0222426
0.000489444
0.00100923
0.000476287
0.0391735
0.000446281
0.0522634
0.000386721
0.0501774
0.0552001
0.0111159
0.0610475
0.000515522
0.0531118
0.000452954
0.0596786
0.000481052
0.000517058
0.0264979
0.000515387
0.0442289
0.021677
0.0584552
0.0609107
0.0243469
0.0595085
0.0620789
0.0528528
0.000451951
0.000455178
0.000831988
0.000452039
0.000445721
0.00205263
0.0687716
0.0596714
0.000451996
0.0536573
0.000496788
0.000697972
0.0502605
0.0526241
0.000451813
0.0486274
0.000767059
0.0755437
0.000487463
0.0466455
0.0679799
0.00366435
0.0444631
0.00044872
0.0683803
0.0501108
0.0512129
0.00990443
0.0275836
0.0507514
0.00258916
0.04796
0.000468109
0.0555976
0.000488778
0.000652843
0.000455238
0.0433675
0.0254869
0.000470472
0.000446078
0.00125762
0.000476072
0.000437362
0.0547067
0.0631577
0.000449848
0.0564123
0.0546233
0.0594652
0.060792
0.00262171
0.0552939
0.00166506
0.0677883
0.0548311
0.000460251
0.0471929
0.0321337
0.000480694
0.0489047
0.0523636
0.000409982
0.0108864
0.000575306
0.000460735
0.000444787
0.0256853
0.0690052
0.000512173
0.0484976
0.0268441
0.0362255
0.0512177
0.00758846
0.0131163
0.0638166
0.000383067
0.0541703
0.000451998
0.0474584
0.000444361
0.0558582
0.000454693
0.0607695
0.0280311
0.000444361
0.0679552
0.0242293
0.0491783
0.0461909
0.000516601
0.0684743
0.0269521
0.00043561
0.0261462
0.0620737
0.000454913
0.0267324
0.00045228
0.0588413
0.000488707
0.000502914
0.000435816
0.0639487
0.0466707
0.0360753
0.036494
0.000706591
0.0299855
0.0692671
0.000445882
0.000454466
0.0521351
0.0543344
0.000439958
0.0336149
0.0609699
0.0589105
0.0466521
0.0564191
0.0280073
0.000500559
0.0456041
0.000472767
0.0678526
0.000442409
0.00045673
0.0586975
0.0547934
0.000544894
0.0203073
0.000483024
0.000434332
0.00043206
0.000455402
0.0199595
0.0618603
0.000446552
0.00890649
0.0152957
0.000509846
0.0170571
0.047186
0.000435283
0.000441507
0.000452922
0.0439999
0.000481875
0.000503633
0.000442185
0.000457198
0.000922726
0.000434142
0.000829779
0.056739
0.0263287
0.000487019
0.000503296
0.04701
0.0513231
0.0264712
0.00046428
0.0216175
0.0545486
0.00042888
0.0530125
0.0611189
0.0491262
0.000757303
0.0221833
0.0489512
0.0258949
0.000613626
0.000709567
0.0444368
0.0260374
0.0438333
0.0337481
0.0231408
0.0548552
0.00176484
0.0502965
0.000453023
0.072644
0.000797242
0.0517377
0.0615461
0.0653192
0.000443677
0.0486591
0.000480046
0.000448596
0.00116213
0.000504454
0.000455609
0.000471683
0.0128005
0.0459668
0.0693794
0.0670916
0.0611175
0.00889034
0.0330318
0.0410639
0.0292831
0.000441135
0.0607568
0.000490607
0.0586375
0.0571313
0.0484149
0.00324126
0.0615195
0.0675993
0.0216039
0.000526971
0.0475217
0.00391644
0.042566
0.000265021
0.0410342
0.0313889
0.0487569
0.0224586
0.0415327
0.0582493
0.0541065
0.000891436
0.0512694
0.000485083
0.016981
0.000452871
0.00402132
0.053511
0.0457824
0.000772891
0.000517127
0.0277573
0.0670381
0.000778087
0.00799858
0.000500509
0.000433508
0.0287688
0.000481219
0.000450383
0.0540259
0.000519528
0.000464509
0.0645948
0.0761898
0.0478689
0.000430889
0.0574773
0.0251961
0.000510368
0.000564566
0.000451318
0.00049217
0.000487025
0.000564932
0.000490764
0.000498189
0.0602871
0.0052044
0.0416872
0.0657405
0.0148034
0.000704807
0.0461014
0.00069326
0.00472501
0.000443022
0.000611412
0.000517797
0.0258895
0.0106636
0.000478733
0.0557974
0.000526858
0.0764138
0.0511328
0.000442809
0.0113423
0.0603046
0.000843314
0.0486067
0.0576871
0.000765009
0.000626585
0.00108078
0.000953266
0.000470292
0.000761158
0.0662794
0.00939632
0.0614195
0.0528075
0.000853883
0.000923223
0.0204032
0.0603826
0.0213958
0.000970288
0.000505545
0.052712
0.000474487
0.0721955
0.0508882
0.053517
0.00971364
0.000470718
0.0313061
0.0649522
0.000460261
0.0147312
0.0565131
0.0725986
0.000694954
0.000437027
0.000911575
0.061003
0.000493904
0.000455245
0.0197858
0.000452477
0.000528577
0.000562751
0.000707974
0.0603342
0.00184097
0.0570986
0.000575463
0.0648147
0.0550276
0.00105643
0.0469438
0.000470659
0.00906928
0.0475644
0.000493833
0.00050115
0.000496459
0.00107213
0.000582246
0.000446008
0.00100901
0.0569378
0.0453378
0.000566506
0.000526034
0.0514596
0.0508877
0.0305407
0.0585435
0.0632148
0.0437336
0.000432658
0.000538093
0.024876
0.000448883
0.0199382
0.0529366
0.000534496
0.000517221
0.0543123
0.0486141
0.000454832
0.0511586
0.000439031
0.000486343
0.0356029
0.0291566
0.000240349
0.000508303
0.000367821
0.074051
0.0649948
0.0621966
0.0452173
0.0532848
0.000452012
0.000530882
0.0486712
0.0266247
0.021208
0.0263362
0.000464794
0.0519186
0.000626805
0.0358259
0.066909
0.000455007
0.000522362
0.000503105
0.0571328
0.0529827
0.0561007
0.000443126
0.000708603
0.0202805
0.0488251
0.0565509
0.000526392
0.000437229
0.000643833
0.0566602
0.0676584
0.00055073
0.0506284
0.0631089
0.02081
0.000430682
0.0598547
0.0675417
0.000442679
0.0651782
0.000923862
0.0141533
0.00047679
0.000486054
0.000454457
0.0535372
0.0727049
0.0678501
0.0143857
0.000484423
0.000448144
0.000455473
0.000479941
0.00858263
0.0678011
0.00221496
0.000452804
0.00044832
0.00110311
0.000493422
0.000494107
0.000515523
0.000432973
0.00693852
0.000442045
0.0420812
0.000512883
0.000449482
0.0145212
0.000442533
0.000431706
0.0456391
0.000452833
0.00056129
0.00044837
0.0560634
0.0430869
0.0538126
0.000431271
0.000445412
0.0106292
0.0730842
0.0512721
0.0734715
0.0322329
0.0243762
0.000491858
0.000449113
0.0437625
0.0425317
0.000710651
0.0692984
0.000498837
0.000489159
0.000477694
0.000498069
0.0602268
0.000448523
0.000452633
0.0140537
0.000455411
0.0557413
0.00045816
0.00044848
0.00115194
0.000453127
0.000448795
0.0556662
0.00726439
0.000478268
0.0197738
0.000482384
0.000432062
0.0357593
0.0282954
0.000448021
0.00880636
0.0540455
0.000486847
0.000483054
0.00547084
0.019309
0.000644369
0.000450973
0.00076701
0.000446041
0.0593221
0.0738485
0.000439884
0.000493021
0.000520568
0.0235231
0.0739101
0.000467407
0.0577983
0.0016753
0.000448032
0.000764211
0.000451774
0.0588342
0.00350403
0.000450143
0.0688693
0.0496995
0.000768196
0.0299308
0.0542481
0.00050467
0.0275035
0.00109442
0.000448751
0.0695278
0.000482781
0.00066321
0.000493584
0.0521846
0.000756092
0.000480924
0.0801966
0.000448092
0.000446575
0.00044228
0.0355159
0.000469267
0.00052188
0.000447725
0.000468593
0.000445303
0.0537648
0.000605862
0.04202
0.049388
0.0690206
0.0704015
0.0665367
0.00049106
0.0210471
0.00150049
0.000486919
0.0587597
0.00049333
0.0466605
0.0419375
0.000625365
0.000544332
0.000511262
0.0469752
0.000449495
0.071559
0.000529946
0.000753212
0.0565836
0.000444692
0.0737424
0.0110313
0.0718366
0.00046165
0.000461395
0.000469691
0.000454939
0.000452429
0.0090634