/*--------------------------------*- C++ -*----------------------------------*\
| =========                 |                                                 |
| \\      /  F ield         | OpenFOAM: The Open Source CFD Toolbox           |
|  \\    /   O peration     | Version:  v2012                                 |
|   \\  /    A nd           | Website:  www.openfoam.com                      |
|    \\/     M anipulation  |                                                 |
\*---------------------------------------------------------------------------*/
FoamFile
{
    version     2.0;
    format      ascii;
    class       surfaceScalarField;
    location    "300";
    object      phi_0;
}
// * * * * * * * * * * * * * * * * * * * * * * * * * * * * * * * * * * * * * //

dimensions      [0 3 -1 0 0 0 0];
oriented        oriented;


internalField   nonuniform List<scalar> 
19737
(
-0.265284
0.656822
-0.391538
-0.0247089
0.0220062
0.00270268
-0.000564914
0.0147489
-0.014184
0.594411
-0.0605836
-0.533828
-0.360456
0.300313
0.0601429
-0.684299
0.406375
0.277924
-0.325658
0.271169
0.0544883
-0.405691
0.328168
0.0775226
-0.202021
0.305253
-0.103232
0.0265614
-0.08694
0.0603786
0.262348
0.0671257
-0.329473
0.197799
-0.448282
-0.456508
-0.227791
0.31945
-0.642503
0.323053
0.6241
-0.554345
-0.0697551
-0.0135444
0.0155803
-0.00203586
-0.371231
0.641515
-0.270284
-0.0244015
-0.283617
0.299496
-0.0158784
0.0670365
0.160834
-0.22787
0.308834
-0.472038
0.163203
0.0137536
0.000467233
-0.0142208
0.0047019
0.016447
-0.0211489
-0.310941
0.36947
-0.0585292
-0.0158794
0.00233498
0.000170783
0.00501378
-0.00518456
-0.325055
0.283491
0.0415645
0.350431
-0.0880833
-0.0725193
-0.252536
-0.200119
0.321094
-0.120975
0.0245774
-0.00401625
-0.0205611
0.19979
0.101984
-0.301773
0.0131924
-0.0142308
0.0010384
0.27455
-0.295732
0.0211814
-0.139179
0.277895
-0.138716
-0.586612
0.215381
-0.127614
-0.198044
-0.0305391
0.035241
0.488255
-0.0964013
-0.391854
0.0156052
-0.0153619
-0.000243351
-0.67427
0.314468
0.359802
-0.172535
0.432676
-0.26014
-0.216505
0.118826
0.0976787
0.194054
-0.549369
0.355315
-0.471636
0.164129
0.307506
0.220737
-0.264801
0.044064
0.628863
-0.00476277
0.594411
-0.11488
-0.476408
0.591288
-0.0151122
0.0142133
0.000898923
-0.579888
0.638967
-0.0590792
0.312589
-0.460495
0.147907
-0.0192763
0.00782248
0.0114538
-0.277159
0.405408
-0.12825
0.0111872
-0.0125027
0.00131546
-0.000350248
0.0127429
-0.0123926
0.606269
-0.412215
-0.270539
0.459408
-0.188869
0.147553
0.187824
-0.335377
-0.255412
0.402966
-0.25761
0.272407
-0.0147971
-0.00254598
-0.0241073
0.0266532
-0.450514
0.179975
-0.0801754
-0.398153
0.478328
-0.426471
0.625666
-0.199195
0.0145587
-0.00136624
0.575078
-0.252244
-0.322834
0.260526
-0.0397897
0.124657
0.307586
-0.432243
0.0200066
0.211307
-0.231314
-0.00753276
-0.0109431
0.0184758
0.365348
0.122907
0.534308
-0.548317
0.014009
-0.144621
0.34441
-0.20556
0.192881
0.012679
0.497771
-0.023156
-0.474615
-0.482206
-0.08838
0.570586
-0.0121907
0.0132535
-0.00106276
0.144888
-0.512656
0.367768
0.616376
-0.0687054
-0.547671
-0.320601
-0.110918
0.431519
0.0829389
-0.560527
0.477588
0.376718
0.121053
0.275938
-0.37893
0.102992
0.258125
-0.243273
-0.0148521
-0.341843
-0.0638479
0.00134329
0.0079233
-0.00926659
-0.0534379
0.0626241
-0.0091862
0.488248
-0.45225
-0.0359976
0.279255
-0.212219
0.207665
0.18956
-0.397225
-0.622413
0.280586
0.341827
-0.355812
0.285463
0.0703492
0.275049
-0.453869
0.17882
-0.0496213
-0.530266
-0.343769
0.588879
-0.24511
-0.451874
0.279338
0.0599466
0.55643
0.00356469
0.0101738
-0.0137385
-0.251793
0.2718
-0.279096
0.48676
0.695042
-0.517325
-0.177717
0.663577
-0.476035
-0.187542
0.433651
-0.158603
0.0794609
-0.368432
0.288972
0.000471876
0.0241055
-0.0139318
0.0133668
0.559078
-0.434421
-0.0105612
0.0114284
-0.000867156
-0.00159961
0.00177039
-0.205738
0.366927
-0.161189
-0.0384009
-0.176511
0.214912
-0.573139
0.458464
0.114676
-0.365498
0.510386
-0.534101
-0.0390381
-0.279328
-0.00428931
-0.114411
-0.15039
0.470472
-0.366463
-0.104009
-0.072321
0.180494
-0.498482
0.317989
-0.147601
0.372645
-0.225044
0.325083
-0.473434
0.148351
0.216185
-0.585191
0.369006
0.0533448
0.407615
-0.460959
-0.551134
-0.0865818
0.637715
0.434846
-0.166427
-0.268418
-0.24736
0.263147
-0.0157876
-0.249012
0.00165199
-0.119603
0.65391
-0.0127819
0.0155885
-0.00280658
-0.00798782
0.0115525
0.12385
0.293138
-0.416987
-0.44521
0.365035
0.273187
-0.616956
-0.212409
0.266428
-0.0540187
-0.38062
0.433965
-0.304601
0.664771
-0.36017
0.0665131
-0.617647
0.515219
-0.261317
-0.253902
-0.112796
0.000928306
0.0111674
-0.0120957
-0.341029
0.135291
0.160977
0.335533
-0.496511
-0.557411
0.418491
0.13892
0.327154
-0.00139921
-0.325755
0.411727
-0.317287
-0.0944394
-0.294742
-0.320151
0.614894
0.0280819
0.251174
0.122778
-0.443379
0.326665
-0.453072
0.126407
0.010435
-0.0090917
-0.417614
-0.180621
0.598235
0.015408
-0.0752245
0.0598164
-0.307787
0.0501775
0.158975
-0.111208
-0.0477669
0.581112
-0.225928
-0.355184
-0.587463
0.510578
0.0768852
0.604462
-0.52669
-0.0777726
-0.485368
-0.188902
-0.109617
0.337581
-0.227964
-0.0356937
0.0622551
-0.137925
-0.360455
0.521432
0.0355534
-0.0380994
0.243384
0.337728
-0.461452
0.344196
0.117256
-0.0020038
0.0157574
0.148651
0.455812
-0.0126444
0.0020831
0.240675
-0.256524
0.0158496
-0.237609
-0.103419
0.518851
-0.308193
-0.210658
-0.548833
0.131219
0.0154851
-0.0169994
0.00151426
0.0128657
-0.00167849
0.00705677
-0.0086919
0.00163514
-0.0108631
0.0113304
-0.0156265
0.00051425
0.460997
-0.134332
-0.419653
0.59412
-0.174467
0.539949
-0.371878
0.0193313
-0.00105853
-0.0182728
-0.204285
-0.367717
0.572001
-0.00415396
-0.082786
0.0973814
0.00619003
-0.103571
0.654188
-0.460079
-0.19411
-0.0129253
0.0125751
-0.0235613
0.019545
0.0832058
-0.283325
-0.330172
0.0249498
0.305223
-0.0766152
-0.253557
-0.00992609
0.17076
0.439283
-0.112129
0.425714
-0.227915
0.41828
-0.29973
-0.11855
-0.00038122
0.00743799
-0.348346
0.110737
0.268975
-0.563717
0.134038
0.00804582
-0.142083
0.170683
0.261993
-0.00296403
-0.0129477
0.0159117
-0.0162773
-0.00299904
0.290898
-0.141734
-0.149164
0.0804253
-0.292834
-0.0144238
0.00164191
-0.280878
0.172823
0.108056
0.0149403
-0.015219
0.000278675
-0.236225
0.0306642
0.246662
-0.221713
0.0116271
0.00123857
0.0027067
0.243956
-0.0980254
-0.224263
0.322288
0.179527
-0.285367
0.10584
0.0118812
-0.0109529
-0.0135101
-0.000603635
0.0141137
0.261943
0.222641
-0.484585
-0.620837
0.0333738
-0.0683805
0.0149426
0.215852
-0.325469
0.182558
0.0103234
0.305898
0.0445326
-0.657485
0.352566
0.30492
0.557314
-0.313929
-0.149614
0.531939
-0.382325
0.443535
-0.118452
0.0120963
-0.0153136
0.00321737
0.0540762
-0.3473
0.293224
0.416035
-0.336574
-0.0130449
0.000854205
-0.142818
-0.138061
0.0162535
-0.0165542
0.000300689
0.209245
-0.450504
0.241259
-0.000877588
0.00911357
-0.301702
-0.313514
0.615217
0.297803
-0.123562
-0.174241
-0.0213279
0.00653936
0.0147885
0.547068
-0.263802
0.0523677
0.106607
0.445685
-0.23644
-0.079801
0.355739
0.279611
-0.581314
-0.145035
0.511188
-0.00415765
-0.50703
0.163518
0.00193902
0.0901895
-0.0921285
0.177829
-0.275854
0.0582266
0.173863
-0.232089
0.442106
-0.59172
0.10058
-0.00319845
-0.0134943
-1.57401e-05
0.0132074
-0.0139833
0.000775926
0.802419
-0.330976
-0.471443
0.0029151
-0.0270224
-0.0110247
-0.103853
0.114878
0.448311
-0.186368
-0.049986
0.065394
-0.443346
-0.21414
0.0337451
0.0587739
-0.092519
-0.000302035
0.206733
0.114361
-0.190079
0.248305
0.0846032
0.2132
-0.0288147
0.400104
-0.371289
0.239583
0.31773
-0.311091
0.434941
0.151738
0.273976
0.149638
-0.54779
-0.0491776
0.355076
0.0012015
0.0142063
-0.0154078
0.109998
0.141583
-0.251581
0.114529
-0.26213
0.504565
-0.185115
0.289291
0.557439
-0.397869
-0.15957
0.0998378
-0.526309
0.267221
-0.550912
0.283691
0.487562
-0.134713
-0.352849
-0.118343
-0.242113
-0.120964
0.414207
-0.293243
-0.00617971
0.00579849
-0.0407029
0.534131
-0.493429
0.115696
0.372552
0.471974
-0.0236627
-0.00511732
-0.018444
-0.0269848
0.168654
-0.141669
0.342036
-0.370851
-0.578798
-0.437702
0.116024
0.321677
0.0401132
0.0376763
-0.0777895
-0.348627
0.269474
0.0791536
-0.58997
0.420125
0.169845
-0.127912
0.160326
-0.0324146
0.00305406
0.585325
-0.226342
-0.358984
-0.298662
0.143237
0.155425
-0.015036
0.00840673
0.00662931
0.250366
0.0485954
-0.298962
0.297416
-0.41838
-0.00266046
0.0147567
-0.00102347
-0.399454
-0.105005
0.504459
-0.000342665
0.00535644
-0.194749
0.235228
-0.0404791
0.0319111
-0.22666
-0.229439
0.628556
-0.399118
0.215265
-0.323458
0.108193
0.00270029
0.0127848
-0.355281
0.132998
0.222283
0.213131
0.441057
0.253142
0.21733
-0.00851944
-0.00501362
0.0135331
-0.0631646
0.180231
0.110668
0.134052
-0.273232
2.14849e-05
0.0116057
-0.419252
0.624599
-0.205348
0.361288
0.224037
0.41434
-0.455043
0.0396877
0.392644
0.409775
0.44104
-0.358101
0.00501887
0.0105696
0.39328
0.191179
-0.584459
0.00566358
-0.0134324
0.0077688
-0.0989475
0.02147
-0.278036
-0.136802
0.414838
-0.106287
-0.395071
-0.0663803
-0.00663134
0.00752774
-0.000896406
0.551711
-0.366171
-0.18554
-0.181418
0.307385
0.171129
-0.478514
0.663538
-0.480167
-0.183371
-0.104777
0.44795
-0.343172
0.0148164
-0.0174891
0.00267263
0.572208
-0.166028
-0.406179
0.367072
-0.312996
0.302102
-0.27402
0.070808
-0.314559
0.243751
-0.436771
0.158735
-0.356045
0.504994
-0.148949
0.0255448
0.249005
0.363375
0.061175
-0.42455
0.0584381
-0.0183249
-0.341194
0.450694
-0.109499
0.0705325
0.679894
-0.679894
0.293835
0.1014
-0.395235
0.256081
-0.0765535
-0.00231715
-0.00268781
0.00500496
-0.0618841
-0.00151418
0.0633983
0.56634
-0.222524
-0.343816
0.411917
-0.526797
0.503594
-0.388307
-0.115287
0.00283399
-0.0167051
0.0138711
0.193123
-0.615337
0.422214
0.341009
0.109684
0.0761077
-0.0871324
-0.149068
-0.0674367
0.0644067
-0.0257393
0.266414
0.287827
0.000785731
-0.0174892
0.0167035
0.00836902
-0.00947368
0.00110466
-0.513859
0.157814
-0.126847
0.638035
0.488259
-0.0288504
0.0984327
0.235004
0.0131595
-0.0161236
-0.00962239
0.00110295
0.022809
-0.212888
0.438844
0.200123
0.405926
0.0823321
-0.116284
0.424884
-0.308599
-0.000951186
0.0365046
-0.0124811
0.0128302
-0.000349167
0.317513
-0.428431
0.107366
0.380196
0.419541
-0.352199
-0.0673423
0.473617
-0.166232
-0.526473
0.454678
0.0717953
-0.24815
0.322006
-0.0738555
0.540409
-0.0136341
0.0144198
-0.246432
0.208031
0.121608
-0.395885
0.274277
0.329766
0.245313
-0.0768327
0.0726788
0.528419
-0.234584
0.32933
0.157284
-0.486614
0.0959122
-0.422858
0.326946
0.0157785
-0.000962024
-0.0243898
-0.342073
0.249469
0.000897644
0.245958
-0.397872
0.151914
0.23602
0.33032
0.429888
-0.0665129
0.137627
-0.441474
0.303847
-0.0736724
0.289524
0.10501
-0.524663
-0.0104049
-0.241389
0.0105515
-0.00218248
0.520648
-0.571702
0.0510545
0.157974
0.119921
0.056322
-0.533242
0.47692
0.564899
-0.348714
-0.0131955
0.00520763
0.102036
0.313999
0.173438
0.398668
-0.572106
-0.219747
0.242556
0.186899
0.131311
-0.31821
0.577694
-0.341674
0.259837
0.25605
-0.515887
0.0772604
-0.0753214
0.332482
0.0870587
-0.238116
0.497953
-0.391783
0.316032
0.0757511
0.297923
-0.0966921
0.522548
-0.116621
0.332086
-0.261278
0.166431
-0.399346
0.232915
-0.160694
-0.373407
-0.000373899
-0.0135579
0.0819121
0.22019
0.198736
0.219544
-0.32064
-0.425912
-0.100562
0.112864
-0.139849
-0.43684
-0.127371
0.564211
0.437968
-0.342056
-0.0624597
0.0191719
0.0432879
-0.275625
-0.280224
0.555849
-0.413922
-0.165064
0.578986
0.045679
-0.0466302
-0.454665
-0.167748
0.314285
-0.0448112
0.00218107
0.0134242
-0.00178363
-0.010551
0.0123346
-0.00433436
0.00675376
-0.00241941
0.0158097
-0.0130729
-0.00273686
0.386526
0.136022
0.00726354
0.0110447
-0.0183083
0.324365
-0.225933
0.272458
0.246392
-0.00385703
0.0116795
-0.576409
0.372124
-0.0912144
-0.00707708
0.0982915
0.466526
0.190296
0.0114179
-0.0311635
0.0197456
-0.187932
0.374832
-0.00458637
-0.00881622
0.0134026
-0.063816
-0.247125
0.236664
-0.32536
0.0886963
0.0398696
-0.273387
0.233517
-0.223786
0.355097
-0.00099197
-0.0295472
-0.264681
0.254276
0.220844
-0.294516
-0.0186984
-0.0026295
-0.521228
0.579564
-0.0583362
-0.0684475
0.0327537
0.446743
-0.266249
-0.0117294
0.0121777
-0.000448388
0.416732
0.155476
0.395823
-0.229392
-0.165728
-0.3258
0.491528
-0.0140847
0.0152862
0.0882573
0.15505
-0.243307
-0.135051
-0.355589
0.49064
-0.0410043
0.0400123
0.287485
0.139458
-0.426943
-0.300401
-0.0129759
0.0128991
7.68077e-05
0.510058
-0.213749
-0.296309
-0.424475
0.309142
0.115334
0.358409
-0.465643
0.107234
0.312421
0.192573
0.0041257
0.425381
-0.429506
0.545768
0.134126
-0.448061
0.452187
0.249782
-0.525407
-0.118536
0.270916
-0.152379
-0.440988
0.0416427
0.18674
-0.663148
0.212504
-0.486602
0.274098
-0.0575481
-0.534423
0.229822
0.639754
-0.202971
-0.436783
0.306432
-0.0911668
0.487132
-0.274628
-0.642792
0.160586
0.647211
-0.126563
-0.418377
-0.0226109
-0.14797
0.166567
0.238841
-0.00729193
0.0164829
-0.009191
0.03748
-0.026062
0.00122881
0.13231
-0.133539
-1.18731e-05
-0.0117175
0.252878
-0.279853
0.431591
0.374414
-0.252807
0.175328
-0.538477
0.363149
-0.323788
0.31236
0.0114273
0.00798192
0.00782783
0.582239
-0.0101114
-0.572128
0.010748
-0.0115882
0.00084018
0.139778
0.37028
0.319528
0.115318
0.410735
-0.102357
-0.308378
0.630712
-0.266717
-0.363995
0.103355
0.266115
0.271944
-0.0569619
-0.214982
0.288849
-0.103164
-0.185685
-0.64483
0.655238
-0.0104078
-0.525059
0.190637
0.334422
-0.0120881
-0.000887782
-0.187547
-0.0371634
0.22471
-0.0199005
-0.0419836
0.00936543
0.608941
-0.526735
0.583057
0.145478
0.0148485
-0.183994
0.496415
0.166668
-0.58059
0.29698
-0.505563
0.127985
-0.294412
0.171588
-0.290124
0.281923
-0.00997915
0.0403266
-0.0226172
-0.0177093
-0.0133791
0.0134252
-4.60541e-05
0.630445
-0.417314
0.32813
-0.432907
0.553926
-0.260103
-0.293823
-0.00853075
0.0113647
-0.446217
0.357837
-0.147967
-0.549933
0.399649
0.150285
0.158398
-0.442156
0.283758
0.364066
-0.0923084
-0.276124
0.0805713
0.330163
0.0148344
-0.00917084
0.00820593
-0.0154979
0.487325
0.210106
-0.537886
0.126306
0.41158
0.00820354
0.032123
0.289306
0.198019
-0.0148013
0.00726859
0.334811
0.112178
-0.446988
-0.00218994
0.000590339
0.5761
-0.217691
-0.00551954
0.00118519
-0.012105
-0.00293101
0.0335397
0.00220869
-0.0357484
-0.00525439
-0.000265149
0.0685297
-0.387649
0.319119
0.0648189
-0.582144
-0.48802
-0.0498659
-0.12298
-0.204069
0.327049
0.48511
-0.329764
-0.155346
-0.0220737
0.167551
-0.000479159
-0.0123346
0.0128137
0.308104
-0.443155
0.00252792
-0.0961272
0.0935993
-0.112425
0.114953
0.00553985
-0.561582
0.19821
0.363372
0.157687
0.327423
-0.383672
-0.17791
0.0958302
-0.00238267
-0.0934475
0.071238
0.243047
0.292379
-0.514903
0.427897
-0.29027
-0.0169155
0.034875
-0.0179595
0.342645
0.320932
-0.00328272
0.545517
-0.305934
0.242894
-0.412256
0.169362
0.23217
-0.297462
0.0652924
0.504728
-0.355091
-0.511632
-0.0383011
0.265806
-0.496293
0.230487
0.367021
-0.0789679
-0.288053
-0.355927
-0.0358556
-0.0226641
0.0535089
-0.411845
0.358336
-0.209332
0.570345
-0.361012
-0.274176
-0.335308
0.609483
-0.0880945
0.620033
0.658659
-0.285378
-0.373281
0.00790051
-0.00788855
-1.19565e-05
0.000418011
-0.411356
-0.178615
-0.000345898
-0.0125794
0.339651
0.0663595
-0.406011
0.389366
0.269293
0.42513
0.214624
0.070317
-0.383964
0.313647
0.0957694
-0.495223
-0.421476
0.104007
0.317468
-0.0138815
0.284437
-0.270556
-0.603246
0.257725
0.345522
0.0431865
-0.0916808
0.0484943
0.392435
-0.323906
-0.0194136
0.017043
0.0183709
-0.00934032
-0.00903062
-0.216654
0.26015
0.0401632
-0.546875
0.573908
-0.0270339
0.007541
-0.0121274
-0.0126412
0.108471
-0.0867944
0.570044
-0.262458
0.506262
-0.123572
-0.38269
0.073976
-0.440622
0.366646
0.329708
-0.343523
0.0138153
0.472179
-0.206373
0.634245
-0.167719
-0.357669
0.487685
0.331768
0.0107032
-0.0110119
0.000308658
0.440112
-0.317334
-0.506599
-0.0146294
-0.332025
0.307439
0.0245857
-0.000248122
0.0109513
-0.481698
0.0758095
0.405888
-0.00516437
-9.00215e-05
0.206355
0.0180039
-0.00412731
-0.0138766
0.254976
-0.473132
0.218156
0.306824
0.0601965
-0.214822
0.378952
0.00646435
-0.00189634
-0.377751
0.551189
-0.458586
0.114316
0.34427
0.0114906
-0.00308384
-0.140688
0.223975
-0.0225176
-0.201458
0.276054
0.277873
-0.139752
0.339685
-0.199933
0.33798
-0.415016
0.0770368
-0.51794
0.023761
0.494179
0.384065
-0.138107
-0.203874
-0.03787
0.241744
-0.563523
0.0874872
0.00168672
-0.0150659
-0.443087
0.0877554
0.355331
-0.0289899
0.0120744
-0.142644
-0.364534
0.507179
-0.591114
0.409049
0.182065
-0.218537
-0.0183898
0.236927
-0.0170647
0.00917571
0.00788902
-0.0451876
-0.218928
0.264116
0.472857
-0.217882
0.0186298
-0.0631046
0.266951
-0.0347812
-0.0857682
0.240818
-0.0360127
-0.23114
0.0126029
0.0107228
0.00764817
-0.333167
-0.235984
0.569151
-9.50497e-05
-0.0152668
-0.0116396
0.00985601
0.168684
-0.135773
-0.0329114
-0.193918
0.594566
-0.400647
0.417974
-0.343998
-0.584435
0.127927
-0.314649
0.595235
-0.0113967
0.0112034
0.000193242
0.155334
-0.0212966
0.174758
0.420973
-0.297904
-0.123069
0.0338635
0.0722316
-0.106095
-0.275574
-0.105584
-0.317274
0.495032
-0.328181
-0.166851
-0.606034
0.388555
-0.318238
0.465907
-0.52649
-0.0107541
0.0108585
-0.0001044
3.17206e-05
0.0387216
0.223681
-0.262402
0.303965
-0.170967
0.084941
-0.521781
-0.11233
-0.11554
0.339889
0.155143
0.261616
-0.186538
-0.0750785
0.070027
-0.235709
0.165682
-0.206352
0.449246
0.589975
-0.410365
-0.17961
0.522291
-0.346963
0.391108
0.198867
-0.0293176
-0.0331421
0.299064
0.174553
0.008719
0.0573338
-0.0660528
0.2766
-0.297513
0.0209135
-0.0731909
-0.258834
-0.320835
0.00627557
0.189127
-0.58656
0.397433
-0.0598706
0.0685896
-0.245749
0.452104
0.167749
0.0328627
-0.200612
-0.111957
0.346407
0.205304
-0.14972
0.0102635
-0.0123991
0.00213553
-0.0269131
0.538621
-0.511708
-0.22171
0.0451992
0.302762
-0.188233
0.44185
-0.142786
0.274699
0.355746
-0.574259
0.202115
0.372144
0.368362
-0.411262
0.604386
-0.411396
0.304345
0.10705
0.553121
-0.395836
-0.18484
0.21348
-0.181582
-0.460922
0.429039
-0.109512
0.00407646
0.00875279
0.215222
-0.0075063
-0.00574149
0.0132478
0.392362
0.187801
-0.580164
-0.383232
-0.0598549
-0.19425
0.161582
0.276573
-0.438155
0.00860577
0.00939816
0.105877
0.268537
0.183676
-0.113649
0.430166
0.00691292
0.0238556
-0.0307685
0.236224
0.111332
0.222597
0.00656938
-0.00888653
-0.14915
0.450694
-0.301544
0.0124065
-0.0133388
0.000932258
0.293583
0.263857
0.262672
0.167659
-0.430331
-0.0654975
0.099361
0.381187
-0.610626
-0.518047
0.0217811
0.496266
0.0170594
0.251575
-0.268635
0.26931
0.0359427
-0.00164262
0.0119061
0.0175044
0.000219102
-0.0177235
-0.0206262
0.0155089
0.152679
-0.118934
0.364018
0.29952
0.10201
-0.521262
0.294297
0.078348
-0.0967092
0.264458
-0.00965485
0.209716
-0.200061
0.428597
0.199959
0.403665
-0.317343
-0.0863215
0.117265
-0.416926
0.299661
0.00749833
0.000402183
0.348425
-0.6226
0.517042
0.0335221
-0.550564
-0.00706909
-0.00999564
0.0117055
-0.000203769
-0.0115017
-0.111314
-0.184417
-0.294339
0.455921
-0.249512
0.00807408
-0.405943
-0.353494
-0.105664
0.459158
-0.112122
0.584702
-0.393523
0.153975
-0.433071
0.368397
0.135197
-0.0208075
0.0133012
-0.174031
-0.403699
0.577729
0.112618
-0.4262
0.313582
-0.121329
0.0495581
0.0717711
0.046642
0.252854
-0.18576
-0.339299
0.323885
0.347457
-0.671342
-0.490833
0.325105
0.191635
-0.0958076
0.276194
0.144779
0.351717
0.0962324
-0.50462
0.346545
0.158074
-0.1658
0.309037
-0.00124818
0.485202
-0.483953
-0.0100032
0.0100179
-1.47454e-05
0.37796
-0.272083
-0.016865
0.00968205
0.00718294
-0.59277
0.225053
0.0148453
0.357842
0.167464
-0.525306
0.511552
-0.410151
0.363733
-0.683885
-0.359617
0.517172
-0.157554
0.581861
-0.589847
0.178491
-0.412531
0.292552
0.119979
-0.475054
0.141887
0.0123092
-0.0127884
-0.00959129
-0.00727371
0.0475503
0.0330258
-0.0805761
-0.1458
-0.345089
0.490889
0.40437
-0.01297
-0.00145382
-0.51199
-0.00605706
-0.389477
0.496843
-0.00557145
0.00288364
-0.302494
0.486895
-0.1844
0.157405
0.0121262
-0.0967972
0.424965
-0.33295
0.601924
-0.0269023
0.0338153
0.475227
-0.00372429
-0.471502
-0.0798535
0.00543773
0.000933156
-0.00637089
-0.636621
0.348873
0.287748
0.582204
-0.399738
-0.182467
-0.0724718
0.0311141
0.0413577
-0.0132858
0.0129119
0.468277
-0.144701
0.0172286
-0.0106893
0.439788
0.0354385
-0.330538
0.0792027
0.251335
0.286587
0.142452
0.436392
-0.522974
0.383981
0.226795
-0.610776
0.0625302
0.304542
0.0855626
-0.565729
0.242599
-0.327816
0.0852166
-0.278657
0.277258
-0.492383
0.0111727
-0.0120287
0.000856048
0.537754
-0.378365
-0.159389
-0.0735618
0.07416
0.198247
-0.00906717
-0.237365
0.419638
0.512454
-0.000633373
-0.0145856
-0.196267
0.28919
0.0437107
-0.3329
0.235618
0.23724
-0.221301
-0.278394
0.499695
-0.224534
0.541527
-0.316992
-0.0452215
-0.0155791
-0.0134108
0.00222113
-0.0197104
0.0610463
-0.432924
0.300223
0.137745
0.19409
0.392971
-0.587061
-0.246187
0.688293
0.116377
0.323736
0.0749278
0.436624
-0.000799806
-0.0125772
0.013377
0.000117308
-0.31111
0.423728
0.414681
-0.30666
-0.118542
0.425202
0.0017285
-0.00235122
0.000622715
-0.0143731
-0.368821
-0.130635
0.499456
-0.0174771
0.000771991
0.405234
-0.151988
-0.253246
0.000581778
-0.00721311
-0.247621
0.250101
0.118355
-0.368456
-0.28053
0.438929
-0.103495
0.148928
-0.0188213
-0.130106
-0.113335
-0.0654745
0.178809
0.107051
0.527195
0.000891058
-0.0145301
0.013639
-0.111196
0.0313545
-0.28878
0.322925
-0.0201636
0.36227
-0.0730799
-0.397311
0.591401
-0.0169808
0.0162133
0.000767453
-0.164717
0.0607633
-0.0885918
0.0278284
0.201214
0.286168
-0.487382
0.511427
-0.196959
-0.427757
0.358938
0.0688189
0.244259
0.0878267
-0.00106228
0.0122221
-0.0111598
-0.429819
-0.14444
0.205625
0.167025
-0.37265
-0.692551
0.24449
0.179278
-0.485938
-0.103736
0.439087
-0.33535
0.38691
-0.625848
0.238938
0.0473245
-0.00164551
-0.520782
0.366518
0.154264
-0.152384
-0.0069691
0.000789385
-0.185656
0.584839
-0.399183
-0.160759
0.326877
-0.0832111
-0.243666
-0.102254
0.392926
0.181448
-0.574374
-0.250984
-0.00108778
0.0123933
-0.0134556
0.0777925
-0.0190185
-0.566893
-0.558914
-0.0193957
0.578309
-0.247153
0.201965
0.147205
0.0027311
-0.0132821
0.355998
0.16085
-0.516848
-0.0292853
0.188451
-0.394803
-0.108186
-0.00181268
0.378324
0.15943
-0.190516
0.590048
-0.399532
-0.277701
0.358667
-0.0809666
-0.486199
0.5392
-0.0530008
-0.548354
0.362697
0.527946
-0.336734
-0.191212
-0.398812
-0.29374
0.0768476
-0.0457335
0.556057
-0.0133442
-0.542713
0.24063
0.143435
0.133567
-0.00125715
0.12166
0.227772
-0.349432
-0.163956
0.443913
-0.279957
-0.402881
0.592008
-0.118488
-0.340098
0.430437
-0.31406
0.0950471
0.411215
-0.233009
-0.0907784
0.00131245
-0.0153972
-0.00119401
-0.51305
-0.274852
0.476066
0.281553
0.00149467
-0.283048
0.143444
0.00548408
0.228745
0.0956201
-0.357415
0.102002
0.442514
-0.288539
-0.175167
0.44968
-0.274513
-0.0770493
0.46103
0.324552
0.203394
-0.176152
-0.0888667
-0.458008
0.158737
-0.298489
-0.517534
0.15708
-0.216217
0.20715
0.391845
-0.524274
0.132428
-0.141933
0.270933
0.0106196
0.072005
-0.410285
0.33828
-0.514897
0.369097
0.340512
-0.000861039
0.374674
0.172394
0.169158
-0.515273
0.346116
-0.150498
0.413156
-0.392058
-0.0210975
-0.0889936
0.330163
-0.0875639
0.459533
-0.271082
-0.262032
-0.392904
0.599679
-0.0406015
0.175464
0.179469
-0.354933
0.507611
-0.557232
-0.0965103
0.109209
-0.0126989
-0.357502
0.551713
-0.188783
-0.362931
-0.385828
0.124425
0.261402
-0.00462753
-0.204186
-0.312765
0.516951
0.577937
-0.411269
0.0419217
0.287786
-0.423187
0.24802
-0.443489
-0.569476
-0.110418
-0.308351
0.171311
0.13704
0.0151077
-0.0473984
0.0322906
-0.200764
0.0302625
0.22357
0.0119194
0.000258336
-0.473933
-0.0483965
0.52233
-0.457792
-0.0284077
-0.189978
0.0295072
0.160471
0.43242
-0.121628
-0.186723
0.403296
-0.266936
-0.13636
0.105809
-0.416919
-0.523975
0.00111654
0.522858
0.305578
-0.314544
0.00896666
-0.00621483
-0.00628785
0.131982
0.273252
-0.519216
0.0893977
0.417975
-0.312166
-0.0182586
0.0184777
-0.500061
0.295875
-0.183121
0.218624
-0.433447
0.203323
0.34839
0.626827
-0.33198
-0.294847
-0.549582
0.0756489
0.00196137
-0.0140664
0.203663
0.00492882
0.0801793
-0.0851081
0.00941824
-0.0167382
0.00731993
0.143438
0.162139
-0.0202601
0.00279785
0.0174623
-0.132216
0.35084
-0.0296743
-0.00148926
0.310644
0.316183
0.126238
0.360894
-0.50259
-0.14224
-0.00283079
-0.0130486
0.0533458
-0.367168
0.313823
0.358234
-0.236574
-0.248471
0.360052
-0.111581
-0.278639
-0.0788102
0.357449
0.000833616
0.00669413
0.489007
-0.31985
0.419337
0.103172
-0.522509
0.412314
0.169925
-0.160645
-0.284984
0.445629
0.552
-0.160154
-0.00966497
-0.00242314
-0.0102755
0.0175391
-0.125111
0.365741
0.0149469
0.133251
0.294646
0.0147479
-0.0134354
0.185236
0.342086
-0.527322
0.362084
0.437596
-0.385589
-0.0294274
-0.200351
0.282264
-0.0229298
-0.126138
-0.615027
0.236618
0.378408
0.0149755
0.00183566
-0.0168111
0.394331
0.157669
0.0168709
0.020609
0.00668207
0.0354384
-0.0421205
0.00770951
-0.287038
0.224866
-0.591037
0.0994567
-0.216473
-0.0598245
0.276298
0.348799
0.200981
-0.54978
0.644202
0.315738
-0.490015
0.174277
-0.0119315
0.00106834
-0.483144
0.204505
-0.474714
0.253413
-0.302356
0.0645397
-0.363812
0.299272
0.437901
-0.662651
0.22475
-0.174188
0.498073
0.000449347
0.422637
-0.135153
-0.257795
-0.0857286
0.0061255
0.00491686
-0.0110424
-0.000461442
-0.168103
-0.219142
-0.10752
0.326662
0.608868
-0.170967
0.355753
-0.244473
-0.11128
-0.0889046
0.170592
0.351698
0.000896493
0.00840287
-0.00929936
0.159642
0.359021
-0.518662
-0.121757
-0.243831
0.365588
0.347394
-0.460406
0.113012
-0.356286
-0.212428
0.568714
0.544718
-0.211773
-0.332944
0.0120031
-0.000830388
-0.0421227
0.0123143
-0.00104279
-0.0112715
-0.261145
0.0140506
-0.000756031
0.00915677
-0.00840074
0.375408
0.20943
0.147017
-0.141502
-0.00551499
0.351903
-0.289373
-0.271912
0.403894
0.0608468
0.294906
-0.0142368
-0.0029476
0.0171844
0.403906
-0.0882062
0.0113735
0.086703
0.240174
-0.375838
-0.188831
0.564668
0.000433686
0.0426284
-0.0430621
0.190448
-0.389745
0.199297
0.498041
-0.182303
-0.0124143
0.0116144
-0.374846
0.424879
-0.0500334
0.326402
-0.255164
0.0365584
-0.00301865
0.225864
0.062985
0.00160829
-0.0146812
-0.484862
0.156488
0.328374
0.464738
-0.591585
-0.396527
0.000565131
0.00770332
-0.00826846
-0.150547
0.293985
-0.379851
0.0325505
-0.441175
-0.412068
-0.173123
0.598682
-0.211772
0.206968
-0.322135
0.115167
0.205933
-0.32769
-0.412159
-0.162161
0.57432
-0.0159747
0.00376614
-0.378612
0.240627
0.0177123
-0.258339
0.00184953
0.014854
-0.391423
0.117683
0.27374
0.0169011
-0.0147357
-0.00216542
-0.426788
0.422631
0.272107
-0.350917
-0.00945029
0.00858314
-0.124918
-0.328159
0.453076
-0.401482
-0.159593
0.561075
0.00641586
-0.00551937
-0.00348116
-0.00785191
0.0113331
0.121152
-0.0895628
-0.0315893
-0.282387
-0.200757
0.185932
0.422936
-0.111034
-0.230809
-0.0248994
0.0400071
-0.191059
0.181404
-0.0362408
-0.0122673
0.252894
0.0113913
0.000922989
-0.0206027
0.0202278
0.000374919
-0.595479
0.411906
0.183573
0.0105722
0.258738
0.0136348
-0.251915
0.23828
0.0909253
-0.534271
0.107267
-0.15411
0.439433
-0.285324
0.13559
0.417484
-0.0138196
0.401723
0.296145
0.107151
-0.292072
0.48252
-0.514703
0.146381
0.368322
0.212206
0.332512
-0.112175
-0.217788
0.329963
-0.0253185
-0.16466
0.319667
-0.423404
-0.605181
-0.12251
0.0570125
-0.190039
-0.33593
0.525969
-0.449468
0.232838
0.21663
-0.628305
0.470358
0.157947
-0.419426
0.480472
-0.434013
0.11667
-0.0592281
0.0641569
-0.128944
0.547435
-0.00103196
-0.0192282
-0.521085
0.00569121
-0.00512608
-0.0129345
0.0148958
0.284309
-0.421037
0.147378
0.303316
-0.106184
0.388118
-0.281934
0.40335
0.191215
0.117554
-0.269541
-0.319424
0.00894835
0.00532988
-0.0142782
-0.431081
-0.0815754
-0.388219
0.511395
-0.123176
0.401369
-0.329364
0.121228
0.0474563
0.119429
-0.222661
0.0110521
-0.0113541
-0.0128215
-0.307474
0.614048
-0.597454
0.189243
0.408211
0.337326
0.0806478
-0.451703
0.125403
0.3263
-0.321231
0.00668655
0.0511671
-0.0489584
-0.315788
0.243415
0.0723728
-0.504759
0.286626
-0.483134
0.196509
-0.522774
0.0374062
-0.211551
0.00444808
0.207103
-0.105624
0.00911334
-0.335538
0.116395
-0.313293
0.102356
-0.406356
0.304
0.161318
-0.573477
-0.512774
0.14824
-0.137931
-0.28946
0.427391
0.000713961
0.00497725
-0.465842
0.137661
0.385663
0.213018
-0.0558798
0.000654897
0.402872
-0.403527
0.000855291
-0.397799
-0.0362139
-0.37502
-0.173333
0.444501
-0.151363
-0.104522
0.49615
-0.391627
0.329753
-0.312555
0.230056
0.0824982
0.207751
0.0483301
0.00894263
0.0374596
-0.0464022
-0.322863
0.497824
-0.174961
0.000930294
0.00548557
0.215982
-0.00823168
0.168402
-0.635036
0.466634
-0.114263
-0.0363076
0.0437681
-0.00746048
-0.310466
0.00310134
-0.0173381
0.328297
-0.477072
0.148774
0.000121625
-0.0206346
0.020513
0.0737259
-0.0756876
0.00196174
0.016825
0.282606
-0.420537
-0.39924
0.399895
-0.331273
-0.140764
-0.0208301
0.0100936
-7.56909e-05
0.0757059
0.0813085
-0.146783
-0.00200399
0.00293428
0.0567624
0.295141
-0.0654499
-0.206792
0.272241
-0.000570177
0.0137437
-0.0131735
-0.131684
-0.392589
-0.388924
0.381166
-0.26153
-0.119637
-0.0180393
0.00221289
0.0410687
-0.0432816
0.0106767
-0.0114327
-0.345731
-0.0120583
-0.000748645
0.0128069
0.283616
-0.3898
-0.00153137
-0.0235511
0.275126
-0.000330908
-0.430161
-0.167292
0.00150012
0.241227
-0.242727
-0.0321221
0.0325558
0.211322
-0.158328
-0.0529934
0.0537201
-0.0561028
-0.0853562
-0.240004
-0.459903
-0.256417
0.372878
-0.116461
0.0127548
0.0207316
0.0141433
0.112429
0.296998
-0.409427
-0.055566
-0.113687
0.448497
0.233243
0.189394
-0.282799
0.444444
-0.161645
-0.55343
0.569733
-0.0163028
-0.274061
0.0737098
0.241436
-0.0177552
0.270539
0.107422
-0.0157292
0.128593
-0.00201559
0.00294874
0.506866
-0.336273
0.0374539
0.141673
-0.501291
-0.172343
0.581391
0.0379179
0.0343966
-0.0723146
-0.00185718
0.00257114
-0.28702
0.165392
0.0116795
0.214452
0.341397
0.472051
-0.498964
-0.131129
-0.321121
-0.612649
0.241721
0.370928
-0.0146016
-0.00602457
0.215989
0.237101
-0.453089
0.015981
-0.0141453
-0.01459
0.151043
0.354499
-0.505542
-0.318304
-0.318317
-0.012686
0.0110518
0.0016342
-0.0138693
0.000899295
-0.0126285
0.324798
-0.025174
-0.299624
-0.393613
-0.219036
-0.154169
-0.00150889
0.155678
0.344048
-0.216063
0.0423242
0.458723
0.336101
0.138958
-0.475059