/*--------------------------------*- C++ -*----------------------------------*\
| =========                 |                                                 |
| \\      /  F ield         | OpenFOAM: The Open Source CFD Toolbox           |
|  \\    /   O peration     | Version:  v2012                                 |
|   \\  /    A nd           | Website:  www.openfoam.com                      |
|    \\/     M anipulation  |                                                 |
\*---------------------------------------------------------------------------*/
FoamFile
{
    version     2.0;
    format      ascii;
    class       volScalarField;
    location    "150";
    object      nut;
}
// * * * * * * * * * * * * * * * * * * * * * * * * * * * * * * * * * * * * * //

dimensions      [0 2 -1 0 0 0 0];


internalField   nonuniform List<scalar> 
13749
(
0.00572358
0.00646038
0.0031342
0.00690439
0.024263
0.00674759
0.00540818
0.00675319
0.000984205
0.00690162
0.00674578
0.00169419
0.00256641
0.0227961
0.00685616
0.0230852
0.00458496
0.00660071
0.0131553
0.00668057
0.0155987
0.0195727
0.00483461
0.00179307
0.00226081
0.00669382
0.00616233
0.00170835
0.0198641
0.0120388
0.00545001
0.00539197
0.00110599
0.00684446
0.0135053
0.00941768
0.0143606
0.00651114
0.0147679
0.00382038
0.00674752
0.000921577
0.00663159
0.0197174
0.00614208
0.00661884
0.0063442
0.00483707
0.00138148
0.00580258
0.00195689
0.00616576
0.00399061
0.00684103
0.0060453
0.00817922
0.0171874
0.00200966
0.0061847
0.00189038
0.00549768
0.000300052
0.00460785
0.00504585
0.00108761
0.00935311
0.00270819
0.00322393
0.00587756
0.00437918
0.00200963
0.00559727
0.00639595
0.0178392
0.00488244
0.0169022
0.00674566
0.00670386
0.00536205
0.00641949
0.000127383
0.00208701
0.00369535
0.00661078
0.0178279
0.00675484
0.0110979
0.00207921
0.0168106
0.00113563
0.0059911
0.000452639
0.00674452
0.00562991
0.00575926
0.0194296
0.0131205
0.00354793
0.0107391
0.0067528
0.00561698
0.00804061
0.00605443
0.00117826
0.00674533
0.00675299
0.0060813
0.00131194
0.00669272
0.013361
0.00652389
0.00348744
0.00405311
0.00474929
0.00198291
0.00249925
0.00675987
0.00301831
0.00158065
0.00650421
0.00687115
0.00367488
0.00670736
0.00688918
0.0067561
0.0200913
0.00372082
0.00675168
0.00689243
0.00303336
0.00636009
0.0138707
0.00125013
0.0110153
0.00106379
0.0195828
0.0118917
0.00117391
0.00641538
0.00690287
0.015133
0.00660936
0.00689198
0.00560864
0.00627944
0.00680251
0.0188565
0.00590958
0.017539
0.0189126
0.00665731
0.0134187
0.00669373
0.00354582
0.0202263
0.00675822
0.00569694
0.0115784
0.00437701
0.0068553
0.00301474
0.00674624
0.00498641
0.00662009
0.00839541
0.0030257
0.00674077
0.00676278
0.018758
0.0105479
0.0069079
0.00674845
0.0199063
0.0170923
0.00214588
0.00455783
0.00127464
0.00033639
0.00155028
0.023877
0.00220202
0.00505114
0.00117003
0.00733922
0.00451971
0.00690124
0.00682756
0.00668262
0.000482178
0.00471125
0.02373
0.000893503
0.00426042
0.00513197
0.00674906
0.00665786
0.00159621
0.00264252
0.00125307
0.00802678
0.00756911
0.0025147
0.0201667
0.0056773
0.00679314
0.0124734
0.00110796
0.0152857
0.00673854
0.00673758
0.00448085
0.00715421
0.00130611
0.00648604
0.00601959
0.0139345
0.00447924
0.00803297
0.00664968
0.00690078
0.00677729
0.0133603
0.000981158
0.00308461
0.0149172
0.0222836
0.0051475
0.00490485
0.0101112
0.00683465
0.0122544
0.00302006
0.00682047
0.00668452
0.00682207
0.00681271
0.0165371
0.00290643
0.00095571
0.00634445
0.00809673
0.00482757
0.006847
0.00223238
0.00675734
0.00668412
0.00661661
0.00646102
0.000852852
0.000571472
0.00676507
0.00668932
0.0132713
0.0124466
0.0039458
0.00687732
0.0176654
0.00199303
0.00668691
0.00673594
0.00575548
0.0154301
0.00646671
0.00252386
0.00619509
0.0068204
0.0067679
0.00307198
0.0194152
0.00677504
0.00624177
0.00304396
0.0140789
0.012616
0.00479564
0.00528123
0.0103127
0.00198115
0.01929
0.00672372
0.0104031
0.00390383
0.0118404
0.00432147
0.0201808
0.00676957
0.00119056
2.99699e-05
0.00674567
0.0022791
0.0208026
0.00188324
0.00509977
0.00199838
0.0160411
0.0155718
0.0066321
0.00566728
0.0069318
0.00673459
0.015972
0.00105997
0.0197101
0.00397745
0.00145308
0.0236318
0.0194825
0.00675358
0.0238367
0.00680472
0.00688716
0.00297469
0.00848451
0.00116872
0.00256551
0.00659104
0.000390404
0.00688616
0.00149251
0.00666593
0.00690715
0.00688217
0.00417525
0.00940193
0.00641427
0.00498232
0.0150721
0.00690597
0.00662603
0.0147869
0.020676
0.00663478
0.00677124
0.00871594
0.00475819
0.00680192
0.00140479
0.00674984
0.00938885
0.02134
0.006767
0.022199
0.00910726
0.00220197
0.00688856
0.00135132
0.00186868
0.00202379
0.00676411
0.0160522
0.00335469
0.00932193
0.00581713
0.00532888
0.00163323
0.00140733
0.00683694
0.00488743
0.00195301
0.0129507
0.0069032
0.00509104
0.00167037
0.0248841
0.00688863
0.00996061
0.00677585
0.00149011
0.00678294
0.00690442
0.00637598
0.00669212
0.00667021
0.000112799
0.0066876
0.00690581
0.00667466
0.00561497
0.0162232
0.00131074
0.00663876
0.00671279
0.00676371
0.0208525
0.00313821
0.00963344
0.0230039
0.00244497
0.0118197
0.0164784
0.00673871
0.00675021
0.00571998
0.0147598
0.0093452
0.00672046
0.00682237
0.00690072
0.0208643
0.00640302
0.00228554
0.00671315
0.00114512
0.00111033
0.013751
0.00260112
0.0207852
0.00689413
0.00139971
0.0155168
0.00671455
0.000511208
0.0067318
0.0165616
0.00672942
0.00618127
0.0177577
0.00504802
0.00525026
0.0152347
0.0067647
0.00159359
0.0153254
0.00206764
0.00592608
0.00510005
0.00675704
0.00586526
0.00672944
0.00690487
0.00114493
0.00543512
0.00615245
0.00679664
0.00676067
0.00583345
0.0069009
0.00124163
0.00130696
0.00178098
0.00882932
0.015759
0.00178888
0.0189593
0.00381407
0.00943879
0.00466734
0.00689001
0.0186174
0.0166516
0.00111815
0.00105712
0.00687588
0.00653271
0.00670916
0.00241811
0.00681967
0.0188881
0.0161304
0.0206801
0.00662805
0.00685011
0.00313012
0.00671667
0.0158755
0.00527492
0.00648618
0.00240726
0.00133369
0.0155652
0.00198154
0.0157705
0.00678761
0.00646908
0.00669346
0.0101339
0.00256741
0.00107793
0.0023481
0.0151799
0.00689443
0.00234329
0.00676895
0.00661882
0.00676885
0.00676552
0.00686984
0.00680672
0.00479004
0.00404301
0.00672844
0.00219987
0.00125279
0.00690808
0.020013
0.013613
0.0114233
0.00580517
0.00427728
0.00273639
0.0154857
0.00527446
0.00156846
0.00676505
0.0197258
0.00673519
0.00683848
0.00452626
0.0271064
0.00665644
0.0174707
0.0120576
0.00167741
0.0270222
0.0179541
0.00674743
0.0198844
0.00689331
0.0234575
0.0120238
0.0066157
0.00673928
0.00377946
0.00247735
0.00677257
0.0240296
0.0207143
0.0174731
0.0015663
0.0165273
0.00343202
0.00666251
0.0132957
0.00384318
0.00182713
0.0257877
0.0118696
0.00619616
0.0147963
0.00211049
0.00676921
0.0157056
0.015853
0.00433534
0.00688275
0.0200781
0.00201695
0.00681564
0.0192722
0.00938218
0.0141673
0.00689306
0.0150002
0.00137994
0.00274287
0.00668417
0.00311983
0.0192052
0.00582835
0.00418751
0.00690632
0.00699217
0.00938108
0.00671009
0.00228044
0.00687002
0.00434702
0.00244171
0.00265763
0.00235479
0.00683164
0.00673815
0.0193191
0.00114686
0.00217392
0.0180697
0.001969
0.0174038
0.0023548
0.00686627
0.0130518
0.00177798
0.00178916
0.0144322
0.00657348
0.00256413
0.0158416
0.00168894
0.01991
0.00284753
0.0114903
0.00241977
0.0181318
0.00571964
0.00112635
0.00798081
0.00377026
0.0201067
0.0137911
0.00590769
0.00736288
0.00680056
0.0130398
0.0135452
0.0175044
0.0130278
0.00683192
0.00675736
0.0064
0.0146568
0.00671176
0.00433991
0.00314397
0.00361937
0.00146036
0.00459241
0.00594201
0.00164975
0.0102772
0.00582465
0.00680316
0.0176438
0.00496111
0.00678267
0.00231872
0.00531677
0.0193721
0.00671989
0.00542694
0.00686961
0.00617289
0.0120338
0.000847009
0.00136765
0.00121733
0.0193743
0.00688434
0.00618422
0.00687297
0.0118894
0.0037658
0.0104642
0.00800964
0.016053
0.00672529
0.018787
0.00687391
0.00223675
0.006239
0.00228431
0.0154842
0.00125579
0.0063178
0.00186559
0.00468769
0.00214713
0.00677295
0.00110739
0.00306058
0.00225848
0.00650736
0.00200222
0.0173509
0.019554
0.00942625
0.0175025
0.0175891
0.0238317
0.00679239
0.00185978
0.00122929
0.00179608
0.00449893
0.00675761
0.00662626
0.00361495
4.9181e-05
0.00179337
0.0186572
0.00527194
0.00684146
0.00661145
0.00782231
0.0149426
0.0232384
0.00598805
0.0135445
0.00673405
0.00600169
0.0231307
0.00107325
0.0194026
0.00678716
0.00676783
0.020144
0.00583052
0.0199534
0.00666637
0.0203449
0.00173145
0.00538718
0.00679139
0.00346048
0.00676825
0.0202063
0.00368648
0.0196804
0.00148138
0.00659042
0.00673631
0.0139465
0.010971
0.00681472
0.0105545
0.00673348
0.00496242
0.0028397
0.021
0.0165451
0.0153635
0.00662091
0.00689894
0.00107745
0.00685782
0.00663639
0.000270403
0.00679555
0.0185493
0.00677418
0.0116465
0.0120196
0.00372082
0.0177032
0.0191295
0.00123192
0.00609507
0.0200686
0.00114697
0.0058954
0.00230235
0.00465429
0.00885086
0.00684386
0.00141871
0.00673259
0.0120439
0.0010536
0.00684499
0.00647355
0.00479266
0.00746541
0.00517965
0.00504971
0.00170801
0.0120821
0.00677681
0.00685784
0.0050925
0.0190999
0.00668953
0.00670445
0.00674985
0.000457551
0.00414626
0.01885
0.00351743
0.0188541
0.0150062
0.000832328
0.0148877
0.0068204
0.0185249
0.00464526
0.00278412
0.00654382
0.00111555
0.00223003
0.0133441
0.0145397
0.0104999
0.00603766
0.00325591
0.00812775
0.0068088
0.00140154
0.00607616
0.00649991
0.00667638
0.00686565
0.0117726
0.00690051
0.00667884
0.00690299
0.00674501
0.00595124
0.00797704
0.000864655
0.0036422
0.0209608
0.0122706
0.023359
0.00623497
0.00675511
0.00878467
0.0067647
9.82262e-05
0.00676905
0.00676766
0.0160162
0.00460984
0.00180875
0.00668792
0.0234764
0.0222501
0.00687004
0.0197842
0.00674291
0.00969777
0.0209265
0.00603913
0.00674845
0.00687247
0.00121209
0.00109841
0.00150356
0.006672
0.00674973
0.00686064
0.00189719
0.0236453
0.00121692
0.000184978
0.0196233
0.00191146
0.0207505
0.00690543
0.00163589
0.00689001
0.00685051
0.00596048
0.0190702
0.00518437
0.000578009
0.0011274
0.00671568
0.00179764
0.00673396
0.0178522
0.0234481
0.00676652
0.00675468
0.0163962
0.0148138
0.00525168
0.00687817
0.00689119
0.00657606
0.00674824
0.0195602
0.00683082
0.00130974
0.0130651
0.0043082
0.00177541
0.00223693
0.0211699
0.00131576
0.0202253
0.0240767
0.0067754
0.00496412
0.00392181
0.00674936
0.00684168
0.00115223
0.00647872
0.00635775
0.00212942
0.00638966
0.00492179
0.00653002
0.00396118
0.00419098
0.00687694
0.00689389
0.0192699
0.0059849
0.00179031
0.00801651
0.00884124
0.00677668
0.00206453
0.0120899
0.00683803
0.00688038
0.00110086
0.00468767
0.0196308
0.00599838
0.00114431
0.00359231
0.00108712
0.00627236
0.00688275
0.00687782
0.00204418
0.0035852
0.00676158
0.00185255
0.00675043
0.00620459
0.00539364
0.00239997
0.0065584
0.0068117
0.00117732
0.00673781
0.0117139
0.00687133
0.0056757
0.0194319
0.00202696
0.00641854
0.00604825
0.00513735
0.00688199
0.00102454
0.0141055
0.00687611
0.00677812
0.0170298
0.0016662
0.00251708
0.00658728
0.0108105
0.00679116
0.019627
0.00684617
0.0177085
0.0050833
0.00137975
0.00685097
0.00223226
0.0137614
0.00378015
0.00687391
0.00876185
0.012245
0.00269566
0.0067461
0.00792182
0.00226435
0.00686573
0.00170494
0.00490371
0.00160085
0.00670959
0.00764412
0.0186358
0.00661872
0.00342065
0.00613303
0.013086
0.00130221
0.00690327
0.00688873
0.00440895
0.0100083
0.00687941
0.00438525
0.00556048
0.00107262
0.00245671
0.0106015
0.00672396
0.00680548
0.000787205
0.0233263
0.00686203
0.0158922
0.025641
0.00688466
0.00684429
0.0068879
0.00690404
0.00676723
0.000404553
0.00220659
0.02058
0.00688413
0.0131484
0.0042003
0.00233243
0.00260143
0.005884
0.00677965
0.0067898
0.00143063
0.0067783
0.016387
0.00680793
0.00675211
0.00196018
0.00557235
0.0067409
0.00179538
0.00683738
0.0140156
0.00242806
0.0097291
0.0195075
0.0062557
0.0206592
0.0110621
0.00900586
0.0125348
0.00675461
0.00682605
0.0134899
0.0122426
0.0142862
0.00513005
0.00684837
0.00556164
0.00466764
0.00685184
0.00132116
0.00395806
0.00673649
0.0178918
0.0086837
0.00561062
0.00675979
0.00182171
0.0193992
0.00161988
0.0193506
0.00669229
0.00270721
0.00674311
0.00684382
0.022665
0.00679677
0.0117732
0.00276945
0.0179483
0.00676838
0.00323257
0.0106548
0.00107795
0.00953451
0.00973491
0.00677472
0.00687736
0.00675449
0.0196283
0.0160229
0.00358089
0.00686432
0.00214671
0.010804
0.00259509
0.0068229
0.00661064
0.00688366
0.00663365
0.00676411
0.00370352
0.00529204
0.0069033
0.0159737
0.00423048
0.011114
0.0051986
0.00396186
0.000441821
0.00668525
0.0117039
0.00666508
0.00212942
0.0055954
0.00678539
0.00594583
0.00960484
0.00688416
0.00675419
0.000925186
0.00134079
0.0025917
0.00839745
0.0014521
0.00625097
0.00439849
0.00672288
0.00685762
0.00676533
0.00612023
0.00446418
0.00394613
0.00553265
0.00881949
0.0206117
0.00241091
0.00672525
0.00246643
0.00108594
0.023266
0.0069084
0.00423934
0.00219246
0.0198504
0.00574608
0.00685484
0.00578566
0.0081078
0.00599632
0.00187762
0.00601418
0.00688577
0.00557623
0.0153793
0.00670686
0.00681608
0.00192488
0.0114537
0.0109681
0.0096047
0.0131167
0.00183834
0.0068174
0.00689323
0.00668081
0.019854
0.0140985
0.00660715
0.0127036
0.00690682
0.00250588
0.00282262
0.00248218
0.00612094
0.00222291
0.00125763
0.0034998
0.0061083
0.00674076
0.00243183
0.00673183
0.00812405
0.00535894
0.00341809
0.0056015
0.0118416
0.0190849
0.00670261
0.006713
0.0090137
0.00644367
0.0129783
0.0031653
0.00691216
0.0191537
0.00384657
0.00665576
0.00675806
0.00680642
0.0205594
0.00677861
0.00135471
0.00124644
0.00319784
0.00677125
0.00446738
0.00918184
0.00684063
0.00891185
0.00248357
0.0021542
0.00132324
0.00483634
0.0028762
0.0209317
0.00225987
0.0197372
0.0199958
0.00578323
0.00612144
0.00676421
0.0042943
0.00169195
0.00664762
0.00666376
0.00676906
0.00684365
0.0130189
0.00677044
0.00260549
0.0076912
0.00682777
0.00114527
0.0117048
0.00674746
0.00687114
0.00689764
0.0011951
0.00275107
0.00163639
0.00540341
0.00348587
0.00500685
0.00155949
0.0120303
0.0168422
0.0186124
0.00689537
0.0133773
0.00979603
0.00549927
0.00658158
0.00123196
0.0068867
0.020073
0.00324006
0.0216853
0.0263065
0.00686037
0.0173437
0.00690716
0.00652525
0.00627982
0.0151254
0.0132241
0.0115709
0.0189389
0.0197382
0.00675159
0.0198152
0.00565752
0.00682322
0.00192283
0.00563474
0.00776364
0.0178688
0.0126308
0.00277205
0.00126243
0.00675134
0.0172683
0.0158517
0.00265967
0.00687304
0.00673239
0.00171138
0.00654815
0.00641726
0.000913169
0.0084181
0.0067483
0.00688807
0.00674751
0.00682655
0.00641206
0.00677176
0.0288041
0.0012272
0.00824283
0.0026573
0.0178889
0.00125976
0.00674844
0.016931
0.00205773
0.0134848
0.00691587
0.00226648
0.00601724
0.00571484
0.00684852
0.00218098
0.00533086
0.0177638
0.00125242
0.0122392
0.00768125
0.00590764
0.000941256
0.0164303
0.00673709
0.00597664
0.00136069
0.013257
0.00137438
0.00689826
0.0053612
0.00669666
0.018721
0.0121859
0.00677439
0.00686916
0.0111663
0.00674598
0.00570875
0.00122316
0.00700466
0.00130252
0.0233119
0.00650927
0.00674876
0.0122815
0.00645222
0.00622996
0.00148138
0.00230832
0.0118912
0.00676589
0.000851258
0.00300354
0.00735361
0.00297268
0.00155599
0.00680379
0.0120003
0.00491238
0.0121963
0.00118314
0.00347121
0.00399583
0.00157146
0.00689461
0.0143588
0.00683349
0.00108925
0.015054
0.0058392
0.00625134
0.0239034
0.0067016
0.0166568
0.00100776
0.0133446
0.00148736
0.0068598
0.00354022
0.00674803
0.00244889
0.0172433
0.00685216
0.00337876
0.00225518
0.00234823
0.00688304
0.00679117
0.0101635
0.0068998
0.00684491
0.0266469
0.0189879
0.00642751
0.00243024
0.00120661
0.0150946
0.00645914
0.0018894
0.00674735
0.0248689
0.00615936
0.00678549
0.00403622
0.0084431
0.0118277
0.00458633
0.00668742
0.0144942
0.0129299
0.0050193
0.00373702
0.000874211
0.00111832
0.00689507
0.00675996
0.00223651
0.00354484
0.00670287
0.00674959
0.0137172
0.0129388
0.0150939
0.00642291
0.0048762
0.00556839
0.00309549
0.00374285
0.0205295
0.00685838
0.0068803
0.00417081
0.00646935
0.00450496
0.0068079
0.0068396
0.0151909
0.00372704
0.00153807
0.0121647
0.00671285
0.00681349
0.0127753
0.00666353
0.0200405
0.00666275
0.00690164
0.00551316
0.0255603
0.0144798
0.00691698
0.00458886
0.00685403
0.00123565
0.00666699
0.00674701
0.00453718
0.00688
0.00485656
0.00687297
0.0047913
0.00607196
0.0189066
0.00891336
0.00465484
0.000830756
0.00220164
0.00661344
0.0065893
0.000917825
0.00766215
0.000896462
0.00673494
0.00184426
0.00319675
0.00603756
0.0259225
0.00280748
0.0068766
0.00685577
0.0194381
0.0204262
0.00516181
0.0204177
0.00167794
0.00578689
0.00659033
0.000982188
0.00676638
0.00685148
0.0067886
0.00386886
0.00198173
0.0044284
0.00117011
0.00674154
0.0117478
0.00661724
0.0121251
0.0114848
0.00122757
0.0256841
0.00127567
0.00647358
0.00677845
0.00676036
0.00650303
0.00608785
0.00649435
0.00678173
0.00763747
0.00845384
0.0127322
0.00320985
0.00403446
0.0068633
0.0011328
0.0119245
0.00675712
0.0104216
0.00677865
0.00678183
0.0107694
0.000698708
0.0125045
0.00469824
0.00673915
0.00406622
0.00600577
0.00649621
0.015468
0.00657186
0.00261711
0.00567219
0.00158158
0.00593052
0.00461268
0.0150286
0.00104904
0.00481142
0.010678
0.00178362
0.0068207
0.00285889
0.00662386
0.00614533
0.0149925
0.00689012
0.00187265
0.00116356
0.00683527
0.00178281
0.00491719
0.00220266
0.025297
0.0105379
0.0088645
0.000840483
0.0038291
0.00675105
0.0186606
0.00496979
0.0199857
0.00686614
0.00679485
0.00685779
0.019344
0.00571489
0.00994833
0.00661009
0.0122124
0.0148696
0.0146256
0.00109138
0.0170356
0.00831478
0.00101168
0.0124241
0.00174394
0.00112383
0.00487515
0.00476299
0.00414635
0.0217368
0.00980649
0.00451385
0.00270011
0.00688907
0.00853773
0.0140006
0.00684934
0.00565112
0.00106221
0.00853897
0.00243008
0.00677611
0.00688907
0.0067423
0.00124039
0.0124693
0.00691589
0.00762001
0.00689132
0.0067915
0.00225472
0.0147514
0.0161587
0.00673766
0.00627917
0.0068052
0.0141431
0.00848719
0.00666984
0.0068318
0.0107597
0.00689264
0.00666948
0.00384254
0.0134165
0.006246
0.00675869
0.00583264
0.00682611
0.00656449
0.00904025
0.0129835
0.0064598
0.00679115
0.00675867
0.00277669
0.00679689
0.00707233
0.0106203
0.00683879
0.0147159
0.0197213
0.00136034
0.00683885
0.00109525
0.0163848
0.00148487
0.00542545
0.00680898
0.00171443
0.00141191
0.00363377
0.00300729
0.00683429
0.0190066
0.00795584
0.0199043
0.00391673
0.00583426
0.0191723
0.00676583
0.0202491
0.0167349
0.00659465
0.00684405
0.00665551
0.00198274
0.00349039
0.0167214
0.0119429
0.00205857
0.00678412
0.00454362
0.00669889
0.00962389
0.0041733
0.0124807
0.00148047
0.00449825
0.0154857
0.00258978
0.00624518
0.00857509
0.0294216
0.0196888
0.0069035
0.00552725
0.00673238
0.0130121
0.00830896
0.00674869
0.0158322
0.00677359
0.0124427
0.0118424
0.00276244
0.0266086
0.0068912
0.00128621
0.00358786
0.00171809
0.00763916
0.019155
0.00688731
0.00677943
0.0256214
0.00677175
0.0139767
0.00687209
0.0048211
0.0189952
0.00586595
0.00363428
0.00423012
0.00660489
0.00665424
0.0110588
0.000244708
0.00205048
0.00685786
0.0198031
0.000912874
0.0067896
0.00123523
0.00131055
0.0202833
0.0250692
0.00623214
0.000665188
0.000947137
0.00675455
0.00105843
0.0113491
0.00168384
0.00326324
0.00677171
0.00289089
0.00673855
0.00674597
0.00088167
0.0056555
0.0202983
0.025379
0.0237694
0.00265348
0.00100779
0.0067684
0.0223869
0.0051463
0.0159072
0.0104399
0.0096692
0.0017111
0.0017867
0.00678921
0.0185172
0.00675293
0.00679833
0.00385555
0.00477971
0.0067105
0.0159767
0.00987477
0.00688363
0.0070343
0.0124498
0.00667826
0.00690167
0.00210788
0.00451853
0.00627829
0.00410458
0.00897546
0.00672714
0.00482367
0.00250647
0.00676045
0.00675956
0.00649776
0.00675339
0.00987184
0.00677375
0.00688273
0.00188399
0.0161192
0.0019423
0.0090033
0.00137
0.00180043
0.00442591
0.00290668
0.00277428
0.00361909
0.00557344
0.0132108
0.0066128
0.00762224
0.00691056
0.0195308
0.00275003
0.00536879
0.0113185
0.0160077
0.0213575
0.00296823
0.00637902
0.0162529
0.0222362
0.00585036
0.00498517
0.00646426
0.00494293
0.0269527
0.00665859
0.00654762
0.0186078
0.00674172
0.0237521
0.00274204
0.00675868
0.00606842
0.00688466
0.00779398
0.00855728
0.00126745
0.00837116
0.0065286
0.00690685
0.0066994
0.00300603
0.00690137
0.00632756
0.00626019
0.00416263
0.0159488
0.00688422
0.00925515
0.0214836
0.00245451
0.00677828
0.00230573
0.00552818
0.005468
0.00843655
0.00678189
0.00225681
0.0157939
0.0115253
0.0110695
0.00690941
0.0105417
0.00691306
0.00675331
0.00595875
0.00676264
0.00403276
0.00873307
0.0120137
0.00109104
0.00932988
0.00332664
0.00685123
0.0133694
0.00679926
0.00640787
0.00682121
0.00679974
0.0146898
0.010337
0.00278453
0.0109555
0.0224188
0.0124798
0.00627832
0.00615131
0.00610496
0.00506973
0.0141803
0.00182452
0.00102861
0.011524
0.0192878
0.027211
0.0115097
0.00901347
0.0011335
0.00166255
0.00677199
0.00679699
0.00574369
0.00960329
0.00657104
0.00121619
0.00400469
0.00674889
0.0205219
0.000749614
0.0023586
0.016489
0.00188478
0.00993623
0.0149274
0.00153918
0.00530056
0.0246651
0.00690002
0.00400145
0.00127388
0.0159275
0.00380415
0.0190336
0.00228445
0.00424698
0.000944594
0.0120338
0.0060307
0.00721695
0.00639124
0.00436596
0.011936
0.0023794
0.00635976
0.00816686
0.00958758
0.00669223
0.0176718
0.00578162
0.0135904
0.00331192
0.00760613
0.00429264
0.015652
0.00329067
0.0123442
0.0015876
0.0201472
0.00355939
0.00846285
0.00688227
0.00124595
0.00183609
0.00599863
0.0119391
0.00198933
0.00499077
0.00325794
0.00833951
0.0066249
0.0100184
0.00394316
0.0057456
0.0158533
0.00201839
0.0138629
0.00178319
0.0112166
0.0230896
0.0067151
0.0214435
0.00181375
0.00674823
0.0214035
0.00454783
0.00650679
0.00548644
0.00568988
0.0133845
0.00839983
0.00196968
0.00687556
0.0192765
0.0188099
0.00322963
0.0108732
0.00687231
0.00378441
0.0127771
0.00665912
0.00677975
0.0066076
0.0163608
0.00651251
0.00374513
0.00656556
0.00697733
0.00466136
0.0055075
0.00163078
0.0176316
0.00927405
0.00685192
0.0099282
0.00377751
0.0119414
0.0068831
0.00112203
0.00673656
0.012204
0.00329625
0.0136843
0.00675491
0.00674891
0.0206076
0.0195
0.0131407
0.00447379
0.00132142
0.00671478
0.00676534
0.00145068
0.0012905
0.00674961
0.00542649
0.0124814
0.00521425
0.00126067
0.00185072
0.00331634
0.00135028
0.00625712
0.00137872
0.00103515
0.00674425
0.00259307
0.00668805
0.00956083
0.0156359
0.00682905
0.00683213
0.0252422
0.00637947
0.00882429
0.0175819
0.00167385
0.00684228
0.00691726
0.00675071
0.00690839
0.00689148
0.0212131
0.00963185
0.00196422
0.00258459
0.00686281
0.0131154
0.0204792
0.00180548
0.00678561
0.00689547
0.00647014
0.00125055
0.00646442
0.00249606
0.00675144
0.0068229
0.00675018
0.00675975
0.000963592
0.00685833
0.00458316
0.0063495
0.00241029
0.00673594
0.0129866
0.015945
0.00358371
0.0153916
0.00128839
0.00186093
0.0029092
0.00233019
0.00274464
0.000908425
0.0133986
0.0116058
0.0293271
0.0068301
0.0102277
0.0065566
0.0132676
0.00689772
0.00684759
0.00650085
0.00484607
0.00670355
0.00644672
0.00628333
0.00234353
0.0193248
0.00404992
0.00421299
0.0119127
0.0187315
0.0112671
0.00592323
0.00688556
0.00675643
0.0145053
0.0110902
0.00347682
0.00689457
0.0144961
0.00675286
0.00678573
0.0124335
0.00811034
0.00119367
0.017388
0.00568483
0.000900937
0.00679846
0.00690002
0.00129218
0.00688921
0.00674126
0.00689074
0.00163214
0.0121503
0.00689478
0.00196689
0.00124126
0.0158899
0.00765717
0.0213624
0.00181214
0.005798
0.00681678
0.00637256
0.011792
0.00372836
0.00438343
0.00303318
0.00995581
0.00122874
0.00170257
0.0068917
0.00152451
0.0114322
0.00155585
0.0166675
0.00456613
0.00482986
0.00688678
0.0181435
0.0222265
0.00103487
0.00141957
0.0194488
0.00685228
0.00630778
0.0108272
0.0208619
0.0029311
0.00162189
0.00656157
0.00682031
0.00975411
0.0188294
0.0202884
0.0195131
0.00144411
0.00649158
0.00843012
0.00813556
0.00649963
0.00316346
0.00422184
0.0114245
0.00667863
0.00682998
0.0183941
0.00129065
0.0196581
0.0148395
0.00538078
0.00115147
0.00673426
0.00677974
0.0116034
0.00356103
0.00686551
0.0191017
0.00673891
0.00560555
0.00669403
0.019429
0.00122215
0.00683924
0.00536485
0.00128327
0.0191121
0.0159776
0.00126947
0.00658427
0.0204975
0.0136911
0.0160097
0.00228991
0.0068845
0.0198325
0.0123651
0.00108794
0.0193208
0.00958056
0.00120057
0.00582984
0.0198013
0.00783902
0.00305421
0.00639785
0.00920336
0.00692074
0.00684805
0.00576667
0.0168659
0.00889125
0.0151803
0.0067373
0.00680418
0.0175285
0.0117143
0.00599378
0.0188761
0.00917329
0.0160107
0.00285531
0.00121667
0.00258201
0.0192142
0.00676493
0.00678729
0.0201089
0.0069023
0.00678916
0.0159189
0.0123
0.0151606
0.000770122
0.00685384
0.0063508
0.00574431
0.0126363
0.00244771
0.00691204
0.00633985
0.0158982
0.00672676
0.00146749
0.00675384
0.0128887
0.00679022
0.0192921
0.00688876
0.00505353
0.00647922
0.006587
0.0138502
0.0192437
0.0031206
0.00674995
0.010398
0.0159258
0.00142595
0.012881
0.00107381
0.00706665
0.0131014
0.00674962
0.00866371
0.00884623
0.00177933
0.00686373
0.00256677
0.0137449
0.0180293
0.0213497
0.0118248
0.00270628
0.0185308
0.01357
0.00129276
0.00676072
0.00094791
0.00679396
0.012355
0.0100073
0.00381223
0.00681856
0.00550516
0.00107826
0.00255694
0.0068655
0.0126634
0.0202549
0.0052673
0.00107998
0.0172097
0.0092685
0.0126194
0.0225429
0.00940323
0.0140527
0.00677951
0.0180636
0.0131858
0.0188767
0.0158909
0.0105457
0.00670831
0.00317022
0.00259535
0.0232227
0.00261318
0.00152525
0.00364345
0.00122588
0.0036527
0.00903546
0.00345563
0.0165033
0.0234529
0.0201432
0.0067265
0.0162046
0.0064851
0.00174897
0.00249694
0.00134431
0.00569405
0.00929772
0.00197967
0.00684648
0.00689175
0.0101619
0.00662441
0.00129416
0.00342762
0.00132944
0.00678967
0.00492793
0.00646957
0.00326378
0.00238845
0.00446296
0.0151186
0.00679264
0.00788952
0.015969
0.0051365
0.00114031
0.00274339
0.00667471
0.0187129
0.0184491
0.00193731
0.00374108
0.00688187
0.00677362
0.0067342
0.00110388
0.0120568
0.0103557
0.00652597
0.00943872
0.0182479
0.00259088
0.00121315
0.0195686
0.00688002
0.006506
0.00447918
0.0175101
0.00387973
0.00107442
0.00689649
0.0103719
0.00308354
0.0126034
0.0157978
0.00688558
0.00123373
0.00687922
0.00644682
0.0116634
0.0204686
0.00674531
0.00686112
0.00826416
0.00677418
0.00592124
0.00118279
0.000548614
0.00846298
0.0187374
0.012734
0.00675331
0.00250262
0.0131095
0.0158684
0.00685368
0.0112462
0.00330227
0.00325343
0.0034562
0.00664548
0.00674029
0.00108149
0.00199925
0.020546
0.00143286
0.0046071
0.00123047
0.00555244
0.000922088
0.00208448
0.0159245
0.00687961
0.00205712
0.00354742
0.0157392
0.00565786
0.00112367
0.0176641
0.0127963
0.00147193
0.00298317
0.0157517
0.00663054
0.0134324
0.00687257
0.0189111
0.00655016
0.00220955
0.00301385
0.00169443
0.00118709
0.00379974
0.0134711
0.0203506
0.00673995
0.00417081
0.00335473
0.00686338
0.00682707
0.00174795
0.00684668
0.0068616
0.00310086
0.00488223
0.0212379
0.0189425
0.00677009
0.00440717
0.00234357
0.00666923
0.00127873
0.00322101
0.000875055
0.0156548
0.00123329
0.0041464
0.00606154
0.00140539
0.0239981
0.0228865
0.00213918
0.0120086
0.011026
0.00962341
0.00678422
0.0017429
0.0164642
0.0068709
0.0186199
0.0156997
0.00673574
0.00650849
0.00107819
0.00226187
0.00215766
0.00674902
0.00239436
0.006907
0.0109649
0.0142274
0.00486484
0.00126758
0.00188826
0.0119983
0.0032639
0.00312965
0.00195325
0.004681
0.00121117
0.00533869
0.00675464
0.0155767
0.0119689
0.00274562
0.0158505
0.0176503
0.0150261
0.00667701
0.00379753
0.0206166
0.0211489
0.00572222
0.0141441
0.00689671
0.0014792
0.00596503
0.00202997
0.00902701
0.0287591
0.00299306
0.00129212
0.0200206
0.00632306
0.00188321
0.00685666
0.00184375
0.0253299
0.00465003
0.00375969
0.00970815
0.00224131
0.0011389
0.00625413
0.00106681
0.0159675
0.00776307
0.0011306
0.00115132
0.00687576
0.0018386
0.0141146
0.0131685
0.00677941
0.00262244
0.00160159
0.00656438
0.00636646
0.00263871
0.00128544
0.00190509
0.0231077
0.00746657
0.00803743
0.00177198
0.00697644
0.00409865
0.00661592
0.00111585
0.0183348
0.00676799
0.00917875
0.0192323
0.0230774
0.00684851
0.00678437
0.00165209
0.00105753
0.0185954
0.00134086
0.00496297
0.014399
0.00187398
0.0148899
0.0110877
0.00238994
0.00125672
0.0143865
0.00197769
0.0191493
0.00689304
0.00116614
0.00154834
0.00279883
0.00848993
0.00645543
0.0151267
0.00936921
0.0239997
0.00181375
0.01032
0.000614257
0.00661661
0.0198065
0.0179308
0.00688436
0.0154477
0.00129001
0.000917398
0.00954214
0.00202737
0.00668749
0.00473908
0.00678855
0.00211427
0.0276414
0.000966588
0.00286477
0.000990813
0.00203464
0.0256435
0.00222063
0.00187738
0.0203404
0.00154197
0.00943205
0.00675954
0.0187992
0.0230591
0.00394875
0.00525216
0.00678409
0.01667
0.00879323
0.00193341
0.00103178
0.00281178
0.00192609
0.0132437
0.00647757
0.0063786
0.00682971
0.00166082
0.00648959
0.00905246
0.0026617
0.0067661
0.02266
0.00969131
0.00680636
0.00289935
0.00687227
0.001859
0.0194
0.00688304
0.00686465
0.00666276
0.0217393
0.00210665
0.00142443
0.00690167
0.00671337
0.01482
0.0127099
0.0011049
0.00132325
0.0224577
0.00686176
0.00635399
0.00316853
0.0203783
0.00673892
0.00201767
0.0124281
0.00690206
0.0013552
0.00138725
0.0151496
0.00184071
0.0210358
0.0128674
0.0199985
0.000993824
0.0201516
0.00149781
0.00679634
0.0049706
0.00112823
0.00687999
0.00665783
0.0240915
0.00689868
0.00233701
0.00313357
0.00665956
0.00349315
0.00163241
0.00313116
0.00157649
0.0054581
0.00248025
0.0017597
0.00365692
0.00507492
0.00407278
0.00122945
0.0118191
0.00125165
0.00310998
0.0193563
0.00243716
0.00689735
0.0016642
0.00297566
0.0189326
0.00687138
0.0104362
0.00462531
0.00381142
0.00666017
0.0149917
0.00107462
0.00318163
0.00677164
0.00467737
0.00382964
0.00685557
0.00677536
0.0236028
0.0015699
0.00496572
0.001841
0.00668365
0.00147787
0.0138509
0.0146416
0.00264974
0.00441652
0.00173806
0.00599327
0.00164398
0.00472887
0.00123685
0.00299818
0.00131185
0.0015047
0.00153547
0.0148409
0.026605
0.00593152
0.00645503
0.00427757
0.00326346
0.0286777
0.0066801
0.00674864
0.00330591
0.00690982
0.00095263
0.00675746
0.00192478
0.0135646
0.0068147
0.00541162
0.00246422
0.00686926
0.00681183
0.00676346
0.0062894
0.00542898
0.00133962
0.0231921
0.0205207
0.00274619
0.0275079
0.00118556
0.0025613
0.0168026
0.0208752
9.27902e-05
0.00147992
0.00656083
0.00127171
0.00323982
0.0190894
0.0170162
0.0043949
0.00582298
0.00181039
0.00690144
0.0242535
0.00139147
0.00657391
0.00375466