/*--------------------------------*- C++ -*----------------------------------*\
| =========                 |                                                 |
| \\      /  F ield         | OpenFOAM: The Open Source CFD Toolbox           |
|  \\    /   O peration     | Version:  v2012                                 |
|   \\  /    A nd           | Website:  www.openfoam.com                      |
|    \\/     M anipulation  |                                                 |
\*---------------------------------------------------------------------------*/
FoamFile
{
    version     2.0;
    format      ascii;
    class       surfaceScalarField;
    location    "150";
    object      phi;
}
// * * * * * * * * * * * * * * * * * * * * * * * * * * * * * * * * * * * * * //

dimensions      [0 3 -1 0 0 0 0];
oriented        oriented;


internalField   nonuniform List<scalar> 
20392
(
0.198216
-0.116815
-0.0814018
-0.537581
0.446227
0.0913533
0.245252
0.0703554
-0.315607
0.302599
0.179912
-0.482511
0.0652141
0.00873896
-0.073953
0.0103578
-0.422293
0.411935
-0.00068354
0.00140789
-0.000724349
0.557024
-0.393227
-0.163797
-0.0943588
0.182008
-0.0876497
-0.153771
0.45637
0.46044
-0.450083
-0.261801
0.312128
-0.0503265
0.316886
-0.0716342
-0.169673
0.220266
-0.0505929
-0.24323
0.467765
-0.224536
0.0156928
-0.185366
-0.195815
-0.321462
0.517277
-0.584677
0.592282
-0.00760418
0.34359
-0.635583
0.291993
0.65177
-0.488689
-0.163081
0.00484992
-0.0218682
0.0170182
0.0236807
-0.00399395
-0.0196868
0.263477
-0.655796
0.392318
-0.324298
0.0804939
0.243804
-0.270871
0.226392
0.0444789
0.666902
-0.518596
-0.148305
-0.0921976
-0.315655
0.407853
-0.213587
0.211949
0.00163795
-0.0168
0.016249
0.000551036
-0.0119976
0.0128594
-0.000861758
0.158515
-0.5771
0.418585
-0.3919
0.52794
-0.13604
0.0458107
-0.140169
0.134195
-0.377425
0.478941
-0.164806
-0.314135
-0.00189768
-0.00378348
0.00568116
0.0579698
-0.0513498
-0.00661993
0.478191
-0.290141
-0.188049
0.100286
0.378655
-0.000120177
0.000255385
-0.000135209
-0.128094
0.519456
-0.391361
-0.148499
0.0334594
0.11504
0.728705
-0.537203
-0.191502
-0.0179197
0.0225567
-0.00463703
0.0734494
-0.51349
0.440041
0.435381
0.293324
0.594537
-0.411791
-0.182746
-0.63472
0.237297
0.397423
-0.159371
0.245834
-0.0864631
0.0343113
0.306909
-0.341221
-0.300335
-0.0239628
0.57866
-0.505211
-0.00310558
-0.000111017
0.0032166
0.584962
-0.470179
-0.114783
-0.0772258
-0.320725
0.397951
-0.00261294
0.0019294
-0.000243934
-0.0123213
0.0125652
-0.261952
0.253726
0.00822527
0.186132
0.392528
0.0762669
0.110542
-0.186809
-0.509962
0.118061
0.133066
-0.0171579
-0.115908
-0.061995
-0.455644
0.517639
-0.293671
0.557149
0.0526236
0.121362
-0.173985
0.506014
-0.152966
-0.353048
0.198347
-0.286137
0.0877897
0.451459
-0.42533
-0.0261292
-0.000304612
-0.00280097
0.142358
0.0558583
-0.307218
0.252974
0.0542442
0.0315257
-0.328172
0.296646
0.45304
-0.360288
-0.0927521
0.0590439
-0.00847363
-0.0505703
-0.484995
0.32971
0.155286
0.00308257
0.0162903
-0.0193728
0.64444
-0.477221
-0.167219
0.104935
-0.578243
0.473308
0.000539071
-0.000659247
-0.460371
-0.0772097
0.102108
-0.11622
0.0141124
-0.0481474
-0.25907
0.241015
0.0818916
-0.322907
-0.239747
0.6627
-0.422953
0.0389388
-0.0453237
0.00638497
0.623547
-0.528018
-0.0955286
-0.336842
0.0633218
0.27352
0.303757
-0.10541
0.00326768
0.0214585
-0.0247262
0.186839
-0.134215
-0.0434299
0.408371
-0.364941
0.114301
-0.0121929
0.0366872
0.423753
0.260601
-0.456416
0.295534
-0.37276
0.00117431
0.0417386
-0.0429129
0.00203577
-0.00507229
0.00303652
0.354005
-0.112989
0.00651539
-0.0081998
0.00168441
-0.220301
0.624388
-0.404087
0.327616
-0.492291
0.164676
2.93704e-05
0.080165
-0.0801944
0.298054
-0.390251
0.167009
-0.171335
0.00432653
0.445082
-0.408394
0.556838
-0.213209
-0.343629
0.329003
-0.372433
0.154886
-0.160866
0.00598007
0.570425
-0.46549
-0.0106811
-0.00131657
0.206095
0.272096
-0.163461
0.302901
-0.13944
0.0041143
-0.00454444
0.000430135
-0.141205
-0.272326
0.413531
0.136382
-0.209971
0.073589
0.406593
0.0448656
0.303054
0.341386
0.0392069
-0.301008
-0.213588
0.192497
0.0210911
0.336609
-0.302297
-0.209656
-0.304267
0.513923
-0.503241
0.388775
0.114466
-0.555696
-0.0261145
0.581811
0.653424
-0.1352
-0.518223
-0.615175
0.044015
0.57116
-0.0109088
-0.00589121
-0.420857
-0.0823838
-0.505237
0.377143
0.50021
0.153214
-0.118662
0.105385
0.0132777
0.197185
0.397352
-0.060415
-0.276427
-0.0716404
-0.111789
0.183429
0.00741834
-0.000902944
-0.157041
0.00854158
-0.0239515
0.0060318
-0.00896136
0.00706368
-0.179603
0.107963
-0.416209
0.570953
-0.154744
-0.103621
0.579556
-0.475935
-0.00136007
0.0145065
-0.0131464
0.29942
-0.609426
0.310007
-0.286236
-0.273968
0.560204
-0.00257652
0.31558
-0.431492
0.115913
-0.148311
0.610244
-0.461933
-0.031701
0.0349687
0.00437428
-0.000259978
0.0620835
-0.00303964
0.00868933
-0.0110381
0.00234873
-0.357761
0.657181
-0.00163995
0.0112233
-0.00958333
-0.558653
0.00295661
0.341766
-0.310241
0.015626
-0.020796
0.00517003
0.202046
0.354792
-0.102257
0.102286
0.576918
0.0507192
-0.627638
0.443164
-0.505159
0.131351
-0.455567
0.324217
0.350709
-0.331043
-0.0196667
-0.0178975
0.462979
-0.139637
-0.414961
0.554598
0.148508
-0.576555
0.428047
-0.363784
-0.253529
0.617314
-0.253
0.00551534
0.247485
-0.0271822
0.521645
-0.494462
-0.512093
0.432699
0.0793938
-0.019229
0.0161085
0.00312048
0.0468888
0.53003
0.127242
-0.453964
0.326721
-0.411509
0.393611
-0.021173
0.0209291
0.0231599
0.0019068
-0.0250667
-0.226565
-0.198765
-0.00559752
-0.247402
-0.146277
0.0104314
0.135845
0.0168457
-0.0662029
-0.147384
-0.0260647
0.0505199
-0.0244552
0.0355458
0.230146
-0.265692
0.337122
-0.375603
0.038481
0.0129682
-0.159245
-0.00118428
0.00156395
-0.000379672
0.230676
0.0862102
-0.494335
0.390715
0.541071
-0.401594
-0.139477
0.585368
-0.622388
0.0370205
0.00147045
-0.00401028
0.00253984
0.0478275
-0.503472
-0.0328513
0.0980654
0.0335702
-0.132738
0.0991673
0.295816
-0.400693
0.104877
0.303317
0.0473926
0.154056
0.469491
0.569247
0.0161204
-0.0679379
-0.14565
0.171655
0.126679
-0.298334
-0.0644461
-0.143756
0.208202
-0.315346
-0.0128257
-0.00594218
0.00739402
-0.00145184
-0.100367
-0.00612762
0.0217536
-0.00673787
-0.00263328
0.00937114
-0.149516
0.541693
-0.392177
0.299705
-0.0789794
-0.220726
-0.155008
0.150547
0.00446104
0.00933718
0.0486326
0.172482
-0.625097
0.452615
-0.540624
-0.0745509
-0.271833
-0.213162
0.365089
-0.301767
-0.240565
-0.0213866
-0.509276
0.516002
-0.00672597
-0.00926588
0.00129632
0.00796956
-0.482406
0.146294
0.336112
0.376747
-0.0734305
0.00275936
-0.00949723
0.500343
-0.582497
0.0821537
-0.520845
0.234609
0.596974
-0.424492
0.0114193
-0.0127794
-0.118564
0.152023
0.280674
-0.245129
-0.199778
-0.199762
0.39954
0.0512662
-0.0841175
-0.00162514
0.00115408
0.000471057
0.498067
0.0759781
-0.574045
0.297614
0.374142
0.166928
-0.401041
0.201263
0.00279799
-0.00128882
-0.00150917
0.120259
-0.520913
0.400654
0.393841
0.273061
-0.0955604
-0.379294
0.474854
0.547815
-0.58077
0.0329551
0.0857548
-0.0969477
0.0111929
0.341384
-0.490146
0.148762
-0.00425758
-0.108851
0.113108
0.204922
-0.621131
0.20788
-0.0655223
0.556286
-0.397771
0.183369
0.489898
-0.148515
0.00868516
0.467567
-0.476252
0.428969
-0.456152
-0.353374
0.56728
-0.213906
-0.0412008
-0.468076
0.112807
-0.0792364
0.120798
-0.00820854
-0.493265
-0.0188276
0.0209957
-0.474021
0.453026
-0.0452812
-0.0198248
0.065106
-0.0320752
0.134461
-0.102386
0.558389
-0.115225
0.12255
-0.55689
0.434339
0.0252771
-0.0021172
-0.00806605
-0.156057
0.164123
-0.163383
0.663726
0.415532
0.152319
-0.567852
-0.00484849
-0.00441739
0.0569735
-0.0224069
-0.0345666
-0.292798
0.00265646
-0.0603156
-0.216211
0.276526
-0.56646
0.406157
0.160304
-0.114827
0.662642
0.440264
-0.588574
0.16085
0.013873
-0.174723
0.022327
0.0013537
0.125615
0.331369
-0.456984
-0.375508
0.56164
-0.336894
0.311579
0.0253149
0.0136428
-0.00879289
-0.00188774
0.00392351
-0.331953
-0.302767
3.04239e-06
0.000626511
-0.000629553
-0.368094
0.484662
-0.237238
-0.0336322
-0.0248716
0.0247026
0.000169001
0.486193
-0.18684
-0.299353
-0.281294
0.538549
0.000135044
0.00266294
0.00086928
-0.00359569
0.00272641
0.295645
0.0811023
-0.333771
0.192829
0.140942
-0.357444
0.48306
0.00110343
0.123028
-0.124131
0.111171
-0.274632
0.589647
-0.174115
0.00681386
-0.00534341
-0.0663883
0.117654
0.144197
-0.152263
0.330045
0.00707654
-0.247518
0.266268
-0.0187498
0.0174579
0.0395156
0.00590684
-0.0572567
-0.550726
0.588274
-0.0375482
-0.378026
0.0573008
0.137585
0.0702954
0.287572
-0.537219
0.249647
0.0448456
0.118291
-0.122548
-0.0472864
0.041773
0.00551341
-0.364553
0.279804
0.0847485
0.192047
-0.11578
-0.0373569
0.0198563
0.0175006
-0.00254458
-0.563911
0.101588
0.462323
0.0744865
-0.084096
0.00960948
0.0502124
-0.527037
0.476825
-0.580653
0.0950691
0.485584
0.202608
-0.241422
0.0388146
0.371356
-0.0918601
-0.279495
-0.203566
0.139119
0.286032
-0.114378
-0.50416
0.150786
0.147755
0.00713071
-0.0804432
-0.109197
0.333433
0.318337
0.52216
-0.0554151
-0.466745
-0.483624
-0.301783
-0.0627701
0.379697
0.126317
0.0879638
0.365077
0.0675572
-0.320862
0.253305
0.00825302
0.00157084
-0.00982386
0.0569832
0.465177
-0.46186
0.637733
-0.175873
-0.042265
-0.0141274
0.0563924
-0.0167273
0.0163654
0.000361906
-0.294369
-0.0737098
0.368079
0.618856
-0.427447
-0.191409
-0.00249854
0.000111148
0.00238739
0.275321
0.0604736
-0.335795
-0.505615
0.3561
0.000713512
-0.00194046
0.00122695
0.390084
0.166941
-0.000267826
-0.00567435
-0.225436
0.221419
0.00401671
-0.720702
0.37169
0.349012
-0.02788
0.0612026
0.00124561
-0.00374416
0.164481
0.147647
-0.116909
0.541087
-0.424178
-0.169617
-0.0693186
0.238936
0.257179
-0.0545717
0.153646
0.0928888
-0.246535
0.0320185
0.387155
-0.419173
-0.506314
0.173626
0.332687
-0.151747
-0.185147
-0.0110158
0.00367418
0.00734161
0.486699
-0.279287
-0.207412
-0.127427
0.625495
0.0629426
-0.222313
0.153411
0.0924222
0.242421
-0.437671
0.19525
0.397415
-0.519662
0.122247
-0.13431
-0.106255
-0.114867
0.458457
0.0380045
0.329038
-0.367043
0.445863
-0.592703
0.146841
0.176863
-0.0404803
0.0677649
-0.059026
0.425496
-0.542406
-0.66371
0.299926
0.181318
-0.579717
0.398398
0.208121
-0.0975785
-0.55661
-0.333506
0.460748
-0.152589
-0.162757
0.0694096
-0.588006
-0.523215
-0.0614621
0.123037
-0.143985
0.0209475
0.172306
-0.374531
0.202225
0.134543
0.300899
-0.435442
-0.437811
0.586319
-0.140027
0.426181
-0.286153
-0.000926528
0.00339039
-0.00246386
0.362027
-0.50382
0.141792
-0.622303
0.249301
0.373002
0.231692
-0.603169
0.371477
0.171673
0.371546
-0.543219
-0.146876
-0.186895
-0.274757
-0.0749761
0.349733
-0.521061
-0.0478143
0.0199343
-0.216989
0.289362
-0.0723732
0.00312799
0.00968638
-0.0128144
-0.061182
-0.0805463
0.141728
0.322899
-0.536108
0.479532
-0.447514
0.299821
-0.439848
-0.402677
-0.000357921
0.00344451
-0.00308659
-0.573206
0.462081
0.111126
0.105615
-0.437994
0.332379
0.359365
-0.316056
-0.0433089
-0.0283821
-0.0442575
0.0726396
-0.209057
0.631166
-0.422109
0.067833
-0.23745
-0.219263
0.391569
0.0784494
0.148901
-0.22735
0.137618
-0.136515
-0.372756
-0.262827
0.0022627
-0.00110504
-0.00115766
-0.00425111
0.0180401
-0.013789
0.434182
-0.396178
-0.131941
0.0368495
0.0950919
0.367969
-0.134194
-0.233774
0.47038
-0.461695
-0.0660132
-0.0659281
0.205359
0.280834
-0.512476
0.414149
0.0983267
0.151075
0.429827
-0.580902
-0.00137042
-0.000254719
-0.0103826
0.00945604
0.369181
-0.0736468
-0.00200636
-0.00253808
-0.0127728
0.0111328
0.326036
0.169751
-0.495788
-0.292095
0.0548561
-0.0073
-0.298645
0.243855
0.0547905
0.212002
-0.396861
0.184859
-0.0943505
0.390167
0.127197
-0.57329
0.446094
0.371214
-0.159212
-0.43314
0.63135
-0.19821
0.0136347
0.34573
0.0667924
-0.178581
-0.182346
-0.421514
-0.144946
0.375178
-0.324965
-0.152909
0.407818
-0.254909
0.197091
0.289607
0.181129
-0.514635
-0.000164105
-0.000339424
0.000503529
-0.188563
0.250386
-0.0618232
0.262949
0.078817
0.298498
0.0728579
-0.00242726
0.0881821
0.097848
-0.232158
0.0236008
0.00437832
-4.04295e-06
-0.00135836
0.00222764
0.19921
0.118808
-0.318018
-0.407504
0.353757
0.0537471
-0.0305267
-0.142072
-0.370403
0.0590252
0.127813
-0.157758
0.0427439
0.115014
0.518503
-0.0686209
-0.449882
0.395707
-0.635453
0.538869
-0.0505887
-0.48828
-0.0456713
-0.0195606
0.36534
-0.12757
-0.00563095
-0.0162372
-0.0217637
0.0175125
0.505022
0.157677
0.0748716
-0.412235
0.337364
0.00418058
-0.578062
0.010101
-0.00184794
0.297881
0.0672078
0.0526418
0.283967
0.191525
-0.25184
0.203338
-0.136546
-0.00933121
-0.0052961
0.0146273
-0.060079
0.286471
-0.0151453
0.00581407
-0.166467
0.536307
-0.369841
-0.329266
0.188061
0.102167
-0.590856
0.181079
-0.0434942
-0.355792
0.0740885
0.281703
0.0198492
0.117769
0.0777793
0.206634
-0.284413
0.379151
-0.0806535
-0.493603
0.0203186
0.473285
0.328335
-0.247841
-0.466254
0.234124
0.23213
-0.268091
0.524368
-0.256278
-0.140218
-0.608261
0.183656
0.424605
0.455965
-0.324614
0.325521
-0.463337
0.137816
0.388883
-0.189673
-0.0033517
-0.000431368
0.00378307
-0.490071
0.511067
-0.50381
0.393677
0.110132
-0.354724
0.0919131
0.262811
-0.275799
0.410342
0.0239405
-0.0300681
-0.00866354
0.00526505
0.0033985
0.00250982
0.0435376
-0.0460474
0.403864
-0.0326501
0.416649
-0.0143312
-0.260426
-0.166618
0.369582
-0.202964
0.400147
0.119328
-0.519475
-0.273646
0.151998
0.121648
0.446132
0.178256
0.00320128
0.026857
-0.0300583
-0.382988
-0.192728
0.575716
0.176871
-0.556977
0.380105
-0.007063
0.00396966
0.00309334
0.25818
-0.0697078
-0.188472
0.212174
0.380108
-0.317711
-0.188603
-0.0685943
0.0711041
-0.234257
0.0752347
0.159023
0.0383102
0.21987
-0.300261
0.239846
0.437798
0.143933
-0.581732
-0.0103266
-0.0369598
-0.508255
0.0146514
0.000533466
-0.489975
0.113106
0.376869
-0.454315
0.186224
-0.368365
0.570411
0.00207975
-0.00224385
-0.299394
0.227801
0.0715926
0.468207
-0.234083
0.0922315
-0.106648
0.0144165
-0.0149151
-0.00181226
0.277248
-0.477011
-0.0706491
-0.163608
0.268106
0.111045
0.391978
-0.326857
-0.0651206
-0.365749
0.0713801
0.00188405
0.0101537
-0.0120377
0.000219432
0.00118846
0.115533
0.111471
-0.227004
0.10358
-0.0113482
-0.0377236
-0.0572026
0.0949262
0.515192
-0.0908382
-0.424353
-0.00617469
-0.0485999
0.0547746
-0.214853
0.292633
0.343417
0.156455
-0.499872
0.0175638
0.00242488
-0.0199886
-0.00243118
0.0169376
0.417683
-0.226785
-0.190898
-0.109728
-0.308022
0.417749
-0.00492196
0.0148596
-0.00993763
0.343868
-0.208155
-0.135713
0.513435
-0.187914
0.0124805
-0.000982627
-0.0114979
0.117733
0.0633467
0.00209443
-0.0392499
0.0371555
-0.294828
0.475957
0.00933299
-0.051598
0.0724892
-0.216245
-0.0040347
0.000683
0.598357
-0.02911
-0.128531
0.374996
-0.246465
0.0299951
-0.0583772
0.0395604
0.364304
0.246701
0.0308309
-0.277532
-0.440329
-0.00422185
-0.0963699
0.414888
-0.318518
-0.427169
0.465963
-0.443539
-0.022425
0.505404
-0.413423
-0.0919815
-0.00817975
-0.0940773
-0.0818129
-0.0747716
-0.23597
0.310741
-0.175475
0.282744
-0.10727
0.428998
-0.186577
-0.372171
-0.00395081
0.0126401
0.0315596
0.135449
-0.0512398
-0.248154
-0.0252197
-0.00310339
0.0283231
0.302235
-0.0899137
-0.212321
0.00251627
0.0150475
0.194066
0.149802
0.442107
-0.367235
0.0915422
0.0549121
0.193634
0.314492
-0.118405
-0.196087
-0.00283577
-0.00582777
0.367366
-0.314724
-0.000461623
0.000513276
-5.1653e-05
-0.380507
0.0961083
0.207649
-0.0179717
0.157383
0.0997959
-0.00788007
0.010695
-0.00281491
0.043291
-0.26028
-0.0768669
0.354115
0.453367
-0.093777
-0.35959
-0.0834136
0.103263
0.000479979
-0.00166426
-0.10221
0.490986
0.0288105
-0.0191627
-0.00964784
0.0689605
-0.0522036
-0.016757
0.388227
-0.404959
0.0167328
-0.00210905
0.000738626
0.149733
0.336571
-0.486303
-0.0475633
0.0496578
-0.0632197
0.057045
5.74137e-05
-0.00739052
0.340579
-0.436139
-0.151265
0.574769
-0.423503
0.435064
-0.344201
-0.0908638
0.464958
-0.318663
0.0960106
-0.52915
0.210332
0.207351
-0.214699
0.341378
-0.151904
-0.19781
0.349715
0.0723012
0.131037
-0.141782
-0.00863449
0.0952272
0.0979526
-0.19318
-0.00698449
0.00974385
0.0968545
-0.563911
-0.0344443
-0.190991
-0.571483
0.156522
0.144982
-0.498269
0.353287
0.00120111
0.000673867
-0.00187497
-0.442069
0.425083
0.0169857
-0.00825244
-0.016982
0.0252344
-0.495317
0.112329
0.361151
-0.50263
0.14148
-0.0858683
0.604371
0.589558
-0.260556
-0.000235409
0.112467
-0.112231
-0.0959425
-0.0129083
-0.145924
0.14808
-0.00215603
0.182617
-0.123592
0.0149968
0.548047
0.240338
0.349221
-0.160267
0.488692
-0.328425
-0.00293476
-0.391453
-0.112367
0.0023307
-0.0102108
0.00426424
0.00312978
0.0203453
-0.0184612
-0.178965
-0.0373828
0.0298901
0.00749273
0.355095
0.15031
-0.067079
0.227929
-0.410169
0.0945133
0.188826
0.11341
0.00931609
-0.0425121
0.033196
-0.333699
0.181795
0.00120026
0.000363688
-0.0270844
-0.118839
-0.0761937
0.351515
0.0486402
0.163309
0.338202
0.166752
-0.504953
-0.00275781
0.121049
0.00122844
-0.00103393
-0.000194512
0.00045343
0.000775014
-0.162527
0.485777
-0.323249
-0.113053
0.104873
-0.0180387
-0.00390093
0.0219396
0.0464779
-0.00473938
-0.000942001
-0.00167094
-0.0259487
0.0203178
0.0203703
-0.00408002
0.151768
-0.0074398
-0.144328
-0.344613
0.494346
0.21441
-0.0988765
-0.173459
0.0232589
0.1502
0.211792
0.102701
0.489318
-0.128167
-0.38912
-0.167133
0.556253
0.576293
-0.0374244
0.508099
-0.307718
-0.200381
0.0967185
0.0181499
-0.114868
0.340878
-0.205431
-0.135447
-0.0283464
0.00880837
0.019538
-0.000509959
0.001888
-0.00137804
0.104828
-0.532196
0.427368
-0.367444
0.567787
-0.200343
0.00509985
-0.00442957
-0.000670282
0.0490762
0.0198844
-0.0628863
0.232039
-0.169153
-0.435717
0.321512
0.114205
-0.00111796
-0.00395433
0.440888
0.0748951
0.297062
0.138002
-0.0416627
0.19343
-0.00719537
-0.166263
0.0293831
-0.00544267
0.422749
0.174225
-0.399074
-0.321628
0.00834497
0.0204656
-0.497025
0.366483
0.130542
0.00745131
0.00238484
-0.00983615
0.473769
0.124588
0.0115168
-0.0164388
-0.181162
-0.0924847
-0.117741
-0.324328
0.550141
-0.422944
0.485448
-0.0686578
-0.41679
0.473902
0.144954
-0.00239493
0.00984624
0.00979622
-0.18834
0.507162
-0.318822
0.108601
-0.0194474
-0.0891532
-0.0715326
0.610471
-0.297338
0.397624
-0.0691371
-0.114163
0.1833
0.134141
-0.011179
-0.0651214
0.0763004
-0.509894
0.628769
-0.118875
0.49369
0.205903
-0.203629
0.268272
0.00182783
-0.00165632
-0.00017151
0.561297
-0.387671
-0.0263579
-0.385082
-0.0467077
0.431789
-0.0800077
-0.0777503
-0.461707
0.171927
0.28978
-0.489064
-0.133239
-0.000339424
-0.527999
0.361533
-0.111582
0.118556
-0.00697389
0.502242
-0.158825
0.00337892
-0.0555825
-0.358339
0.191721
0.0872419
-0.0483814
0.00615291
0.0422285
-0.0242524
0.0386988
-0.0144465
-0.122954
0.218181
-0.0483165
-0.294506
0.090877
0.127545
-0.00451771
0.35682
-0.0589395
0.0832323
0.245102
-0.388314
0.482278
-0.0939631
-0.562846
0.443239
0.119607
0.467139
-0.34688
-0.0609853
-0.11035
0.0697548
-0.546976
0.000918116
0.00374451
-0.00466263
-0.298992
-0.0557322
-0.185778
0.59586
-0.410083
0.311348
0.0397395
-0.351087
0.354789
-0.0749846
0.530646
-0.397781
-0.132864
0.28614
0.12266
-0.355406
0.122688
-0.235906
0.113218
0.00214309
0.00595623
-0.00809931
-0.348516
0.493499
0.526551
-0.421723
-0.169804
-0.205799
-0.00384187
-0.0153871
-0.393682
-0.192117
0.585799
-0.0718498
-0.501356
-0.125516
0.563315
0.130558
-0.00752122
-0.33334
0.381952
-0.0486116
-0.026929
-0.0104538
0.403064
-0.0197658
-0.00858056
0.00125652
0.00588416
-0.00714068
0.305228
0.160736
-0.0584539
0.0131727
0.091028
-0.495813
0.404785
0.0215318
-0.01669
-0.00484178
0.539969
-0.142554
0.31116
-0.279146
-0.0320144
-0.51235
0.144906
-0.00446231
0.114656
0.0099804
0.0954043
0.0167708
0.0443315
-0.0764067
0.246554
-0.527848
-0.538132
0.024642
-0.106142
0.463373
-0.357232
0.00122381
-0.00544566
0.530878
-0.43985
-0.248556
0.0581233
0.190433
0.562107
-0.15595
0.0185502
-0.446314
-0.12437
0.570684
-0.135381
-0.34128
0.476661
-0.00541815
0.00506023
-0.481399
0.444375
0.0370246
0.0274551
-0.0483353
-0.433064
0.559838
-0.388165
-0.427133
0.567897
-0.140764
-0.00185831
-0.000250735
-0.0113248
-0.121413
0.000145412
-0.00014237
0.166641
-0.0205249
-0.146116
0.000542222
-0.0311945
0.00512981
0.00383287
0.621577
-0.400166
-0.221412
-0.00747885
-0.00353694
-0.483628
0.126184
0.0198155
0.100983
0.280151
0.351199
0.562128
-0.38081
-0.0390442
-0.106049
0.0135283
-0.202091
0.413792
-0.312204
-0.0647683
0.0452962
0.019472
0.112206
0.0544347
0.0867047
-0.501963
0.415258
-0.00423905
0.0144935
-0.0102545
0.225647
0.167296
-0.392944
-0.00309349
0.00523658
-0.0702842
0.0913439
-0.0210597
-0.5565
0.401646
0.154854
0.435765
-0.151875
-0.283891
-0.431969
-0.124921
0.170204
0.156582
-0.0872108
-0.0693717
0.179857
-0.165984
-0.540188
0.00726355
0.532925
-0.387334
-0.140295
0.527628
0.499041
-0.412336
-0.266695
0.0916154
0.17508
0.0464499
-0.000585961
-0.0458639
-0.0341461
-0.115393
0.193842
-0.0325532
0.0268199
0.00573328
-0.209661
-0.0764761
0.00312501
0.0674562
-0.452538
-0.000423581
0.00145551
-0.00103193
0.075596
0.358586
0.331757
0.469831
-0.27274
-0.00348875
0.0195973
0.335649
-0.447293
0.111644
-0.101241
0.0552475
0.096212
-0.151459
0.530072
-0.0338963
-0.496176
-0.307597
0.380988
0.154593
-0.535581
0.000854869
-0.0251072
-0.0212134
-0.0161435
0.504255
-0.298896
0.248506
0.373071
-0.0304849
0.039801
0.533614
-0.187905
-0.34571
-0.0511954
0.462457
-0.411262
-0.386596
0.462412
-0.0758169
-0.464593
0.139575
0.325018
0.0784627
-0.540322
0.408327
0.153373
-0.5617
0.0187148
-0.0943624
-0.437834
-0.126247
0.198548
-0.00416163
0.312701
0.044119
0.00217654
8.61626e-05
-0.299995
0.228716
0.0712785
-0.0137736
-0.097808
0.0378609
0.112686
-0.0662192
-0.234042
0.035935
0.014585
0.415429
-0.0840595
-0.387298
0.140658
0.24664
-0.0928426
-0.492373
0.371004
0.121369
-0.30662
0.00480051
0.113907
-0.118708
0.345476
0.170527
-0.469453
-0.107647
-0.0522192
0.255938
-0.203719
-0.108301
0.554529
-0.000609898
-0.000508726
-0.392195
-0.0168789
0.409074
0.273305
0.0814837
-0.113247
-0.287446
-0.0917651
0.55421
-0.462445
-0.128501
0.439757
-0.311256
-0.00766438
-0.00337368
0.136316
0.333515
0.230125
-0.107437
0.0771975
0.000540107
-0.0777376
0.388608
0.142038
0.349716
0.160516
-0.510232
-0.0369451
-0.0627991
0.0765024
-0.0137034
0.470221
-0.585048
0.49784
-0.343381
-0.154459
-0.0652891
-0.126266
0.191555
-0.262334
-0.124965
-0.0284366
0.0244426
0.276023
-0.388406
0.112382
-0.171004
0.05244
-0.282587
0.377989
-0.0954011
0.0577881
0.0987944
-0.584565
0.335145
-0.512874
0.177729
-0.155675
-0.385261
0.540936
0.287062
-0.231105
-0.0559572
-0.336439
-0.0489128
0.385351
0.351639
-0.487281
0.135641
0.06809
0.198178
-0.0566076
-0.0945891
0.379984
-0.203827
-0.176158
-0.0721937
-0.0331291
-0.359066
-0.146771
-0.206783
0.0685154
0.138268
0.59339
-0.163563
-0.0724694
0.0758483
-0.414082
0.304355
0.126319
0.263652
-0.38997
-0.0323239
0.0240714
-0.160945
-0.00672014
0.167665
0.219375
-0.578727
0.397922
0.180805
0.3251
-0.257543
0.079251
-0.517451
0.4382
-0.11702
0.00391281
0.113108
0.0328663
-0.0530599
0.0201937
-0.430083
0.109263
0.32082
-0.496634
0.362605
0.134029
-0.0811102
-0.203434
0.284544
-0.270121
0.108823
0.161298
0.0907342
0.212167
0.0352904
-0.572493
0.0149382
-0.00525186
0.115517
0.415388
-0.530905
-0.00536938
-0.0230672
-0.328576
-0.126992
-0.0965396
-0.0343359
0.130876
-0.102484
-0.0400544
-0.450288
0.341265
0.109023
-0.265867
0.251408
0.0144586
-0.0058749
-0.0046395
0.0105144
0.000407725
0.000218786
-0.422712
-0.00195644
0.00320205
0.23665
-0.318423
0.0817731
-0.432216
0.280342
-0.00134615
0.000922571
0.434786
0.253299
-0.486899
0.435704
-0.0687414
0.226125
-0.0186416
0.548714
-0.000193454
0.00363797
0.00495605
0.0165757
-0.411725
0.378595
-0.104504
-0.33727
0.441775
-0.387813
0.310345
0.0774674
-0.0084266
-0.00200273
0.0104293
0.216733
-0.144244
-0.556972
0.14274
0.414232
0.111433
0.429654
-0.376938
-0.354487
0.377991
-0.0423416
0.281355
-0.399096
-0.11222
0.350367
-0.0575484
-0.59896
0.457968
0.140992
0.455779
0.319841
-0.20867
-0.0736044
0.0398727
0.0337317
0.560266
-0.141002
-0.419264
-0.0548801
-0.00266046
0.0575405
-0.077114
0.00619784
0.0709162
-0.166231
0.443836
-0.277604
-0.0456796
0.5159
-0.49449
0.328258
0.421334
0.158222
-0.575596
0.415668
0.159928
-0.142172
-0.000381917
0.142554
-0.00063264
-0.265602
0.184491
-0.406018
0.00238681
-0.00646525
0.00407844
0.161214
0.218771
0.235822
0.305389
-0.0687386
0.413377
-0.554849
0.141473
-0.0812052
-0.217064
0.448756
-0.326341
0.494594
-0.156393
-0.0203006
-0.076239
-0.126766
0.172409
-0.561529
0.176666
0.0567274
-0.233393
-0.00135296
0.00144858
-9.56184e-05
-0.435108
-0.138182
-0.0594386
0.236441
-0.177003
0.0652327
-0.493967
0.428734
-0.149683
0.0930373
0.00319434
-0.00227622
-0.00569614
-0.281868
-0.105945
0.00963191
0.00673352
-0.393708
-0.00483062
0.00483151
-8.9485e-07
-0.0255876
-0.185512
-0.43058
0.00256609
0.00262355
-0.00518964
-0.480314
0.3757
0.104614
-0.00249223
0.019263
0.000768216
-0.000264687
-0.000503529
-0.258077
0.367221
-0.109144
-0.556781
0.156271
0.40051
-0.00121792
-0.343706
-0.106582
-0.210168
0.18959
0.0205774
-0.000326489
-0.375404
0.37573
-0.604917
0.198448
0.406469
-0.0171404
-0.00174716
-0.280432
-0.469472
-0.0390356
0.508508
-0.274023
0.348111
0.0280431
-0.0334125
-0.11561
0.106255
0.0093548
0.0327901
-0.00597026
-0.414968
-0.240434
0.655401
-0.306783
0.334727
-0.0279438
-0.575624
0.448077
0.127547
0.0971403
-0.355217
-0.325837
0.21364
0.112197
-0.391216
0.574872
-0.0167379
0.062644
-0.0459061
0.18502
-0.272419
0.0873986
0.0564957
0.00558786
-0.142896
0.0767376
-0.291436
-0.110278
-0.00190276
-3.77066e-05
0.00309208
-0.00225225
-0.000839831
0.0103263
0.0768874
-0.0872137
0.0988061
-0.515381
0.416575
0.357894
0.139946
-0.538464
-0.0338294
0.572293
-0.00454461
-0.0114878
0.0160324
-0.0278658
0.278731
-0.344009
0.453272
0.066485
0.153111
-0.219596
-0.0769425
0.00845016
0.0684924
-0.0623388
0.282373
-0.220035
-0.408808
0.291873
0.116935
-0.583104
0.458087
0.125017
0.107208
0.303428
-0.410636
-0.0385237
-0.460143
0.498667
-0.421468
0.520274
-0.336765
-0.409696
0.557241
-0.147545
0.155473
0.288902
0.366548
0.167067
-0.229404
-0.16307
0.392474
-0.371529
0.484635
0.064062
0.261038
-0.0327164
-0.337097
0.369813
-0.140227
-0.0344961
-0.421086
0.61702
-0.195934
0.0150935
-0.489421
-0.0756654
0.565086
0.0963545
0.0122461
0.378813
0.144792
-0.489405
-0.128936
-0.0043414
-8.8175e-05
-0.455095
0.192379
0.422024
-0.614403
-0.044323
-0.0807188
0.125042
0.0471756
-0.0711222
-0.265979
0.337101
-0.00298323
-0.0619693
0.0936772
-0.438799
0.334294
-0.0366387
-0.473255
0.541342
-0.364471
0.394995
0.427266
-0.29095
0.122829
-0.352233
0.143501
-0.331894
0.188393
-0.19168
-0.257379
0.449059
0.00194667
-0.00390311
-0.00475564
-0.017008
0.243151
-0.0895045
-0.12953
-0.251133
0.198914
0.113083
-0.0163642
-0.0271545
0.299817
0.204544
-0.504362
-0.00295587
-0.370226
0.0634424
-0.10462
0.55959
-0.146213
0.0490448
0.449996
0.395789
0.1638
-0.00198791
-0.410014
-0.146486
-0.214708
0.00207139
-0.00258135
-0.40425
-0.00325387
-0.174514
-0.317777
-0.0156433
0.0110038
-0.150883
-0.304049
-0.10476
-0.270418
0.00455055
-0.0666162
-0.152965
-0.409881
0.00763807
-0.0648407
-0.00128373
0.00502824
-0.210391
0.22392
0.405365
0.129471
-0.534836
-0.301838
0.409046
-0.526059
-0.419997
0.119157
0.300841
-0.00624747
-0.560389
0.427163
0.133226
-0.0279484
-0.377714
0.405662
0.436171
-0.280698
0.450446
-0.40558
-0.0543065
-0.232562
0.275853
0.0498397
-0.330535
0.280695
-0.293505
0.223805
0.0696992
0.00423799
0.131632
-0.13587
0.000158318
-0.373064
0.577986
-0.440565
0.555367
-0.114802
-0.250451
0.371952
0.291774
-0.00126508
0.00103709
0.000227988
0.113464
-0.410657
0.297193
0.325219
-0.216304
-0.108914
-0.459525
-0.0223783
0.481903
-0.00869442
0.040928
0.00554997
-0.317709
-0.240944
-0.589077
0.00134491
0.293156
-0.455683
0.00542333
-0.0853974
-0.0721892
-0.396707
0.468896
0.022928
0.00162066
-0.0245486
-0.00170975
0.000604709
-0.466932
0.00266325
0.464268
-0.194608
0.566154
-0.526279
0.163069
0.36321
-0.00358335
0.0179467
-0.0143634
0.467134
-0.517723
-0.0178086
0.197665
0.133802
-0.129564
-0.0420962
0.139661
0.339375
-0.0523207
-0.287055
0.00475558
-0.00307117
0.376606
0.10017
-0.476776
0.0829996
-0.00580218
0.00134086
-0.00262968
0.0555007
-0.269826
0.214325
-0.105101
0.160349
0.584389
-0.162369
-0.42202
0.0808413
0.369604
-0.0577303
0.0551878
0.20075
0.0511575
-0.00938449
-0.0178687
0.0224339
-0.00456518
-0.332349
0.152093
-0.57921
0.469797
0.109413
0.0335436
-0.366884
0.145929
0.0745988
-0.220528
-0.458473
-0.00845886
-0.519692
0.12601
0.28296
0.221295
-0.444922
-0.144041
-0.336272
-0.555675
0.19362
0.362055
-0.295553
-0.0475473
0.343101
0.541226
-0.527644
-0.0135825
-0.300188
0.434383
-0.0119092
-0.103176
0.115085
-0.00834568
-0.0602486
-0.545649
0.158316
0.145311
-0.487475
-0.00686003
-0.120908
0.11815
0.104106
0.184736
-0.288841
0.272774
0.211785
0.316155
0.000692461
0.379118
-0.399447
0.0203292
-0.183894
0.0713811
0.0235451
-0.523955
0.382677
0.141279
-0.0338538
0.0307504
-0.428918
0.300417
0.408332
-0.00104672
0.00488119
-0.00383447
-0.4645
0.00497494
-0.464663
-0.118441
0.146997
-0.122631
-0.0243662
-0.54246
0.123309
0.419151
0.00496442
-0.0228331
-0.0308678
0.30437
-0.273502
0.160067
-0.222953
-0.170827
0.209137
-0.504598
0.20033
0.00298847
-0.00116064
0.180264
0.295991
-0.476255
0.306936
-0.420096
0.11316
0.356749
0.00879909
-0.0108018
0.00627089
-0.00155805
-0.00471284
-0.0547695
0.00356018
-0.0371463
0.0335861
-0.00773442
0.0173663
-0.515549
0.1478
0.367749
0.0266624
0.539868
-0.144078
-0.576993
0.222204
-0.155719
0.434994
-0.153639
-0.0617896
-0.0222977
0.0840873
-0.0537115
0.477902
-0.424191
0.39983
-0.427778
0.00703451
0.27571
-0.141879
0.0975559
-0.570724
0.148431
0.0608095
-0.00431384
0.00764715
-0.00176299
-0.330859
0.0353058
-0.182892
-0.393298
0.57619
0.126295
-0.56686
0.0815977
-0.204552
-0.089667
0.461619
0.534362
-0.160064
-0.374298
0.00164144
-0.0980114
0.09637
0.000485867
0.00270847
0.534023
-0.125696
-0.110836
0.390458
0.143565
0.431628
-0.0906464
-0.340981
0.592039
-0.465936
-0.126104
-0.599592
0.427097
0.172494
0.0474882
0.12046
-0.167949
0.118284
-0.130194
-0.125742
0.524204
-0.398463
0.363693
-0.204499
-0.159194
0.333151
-0.386862
-0.12031
0.128841
-0.00853087
0.194355
-0.532737
0.338382
0.00233161
-0.0549608
0.238706
-0.183745