/*--------------------------------*- C++ -*----------------------------------*\
| =========                 |                                                 |
| \\      /  F ield         | OpenFOAM: The Open Source CFD Toolbox           |
|  \\    /   O peration     | Version:  v2012                                 |
|   \\  /    A nd           | Website:  www.openfoam.com                      |
|    \\/     M anipulation  |                                                 |
\*---------------------------------------------------------------------------*/
FoamFile
{
    version     2.0;
    format      ascii;
    class       volScalarField;
    location    "300";
    object      ddt0(omega);
}
// * * * * * * * * * * * * * * * * * * * * * * * * * * * * * * * * * * * * * //

dimensions      [0 0 -2 0 0 0 0];


internalField   nonuniform List<scalar> 
13308
(
0.0048443
2.43307
-0.195358
-1.62251e-05
0.000282772
3.09909e-06
-0.000150911
0.000340462
-0.00403254
0.0411623
-0.0146927
-0.0103427
5.18866e-06
1.57397e-05
1.16814e-05
-0.262695
0.000624535
5.26969
-0.0430899
0.392829
-4.92386e-05
-0.156154
0.0923856
-0.000201249
-0.270124
-0.161904
-0.000437587
0.00552343
0.000328964
-0.00731432
4.91366
-0.0063124
-0.0200343
0.000882482
0.0219288
7.57958e-05
-0.00282081
0.100752
0.00266415
-0.249224
1.83919e-06
-0.00091504
0.0652515
6.34913e-07
-0.00108952
0.0296465
1.25625e-05
-1.17116e-05
-0.00199277
-0.212129
-2.718e-05
0.000165565
0.01962
0.918762
-0.205393
-1.65845
9.69987e-07
0.000153824
-0.000304893
-0.0009227
-0.0447087
0.135458
0.000103085
-1.73711e-06
5.77217e-05
-0.0252451
7.27752e-06
-0.124782
-4.05285e-08
-0.0161039
-1.14926
0.0024938
-0.00272721
-0.00415961
-0.209693
-0.000241443
-7.67662e-06
-1.43877
3.34969e-05
-0.0329257
-0.000129506
-6.48336e-06
-0.000223959
-0.000697966
0.00351544
-0.00111903
0.484686
0.33624
-0.0221906
0.824882
0.0004853
-5.31608e-06
-0.00390691
-0.000637188
-0.000103567
8.04199e-05
-0.00122801
-0.0666579
-1.30034
-0.0108593
0.000215499
-9.59802e-06
-6.27064e-05
-0.000328256
0.179833
5.32812
-0.177618
-7.8783e-07
-0.0973986
-0.16756
0.000135011
0.00936872
-0.000297219
2.88667e-05
-0.000752883
-0.0605328
-0.0208483
-0.0019081
-0.0023392
0.000136111
-0.0020223
-0.00163162
2.28976e-05
0.0141986
-0.0322615
0.36691
0.0531078
0.0493601
-0.00104267
-0.364514
-1.6727
0.0041798
7.39807e-07
0.000190138
0.00055653
0.00658217
-1.85959e-06
-0.0667574
-0.208552
-0.00108993
-0.498603
0.000764066
9.17508e-06
0.000315377
-0.00265729
-0.00647232
-0.000726579
0.459866
9.63405e-05
0.0060556
0.0954849
0.000160061
0.00677252
-0.0260413
0.263404
-0.161265
-2.2736e-05
-4.51024e-05
-6.36777e-07
-0.309456
0.0177945
9.3744e-05
6.63918e-06
0.196603
-0.142015
0.207509
-0.163986
-3.95031e-05
-0.102253
0.00052715
0.00246128
0.00276005
0.000248376
-0.302459
0.827832
-0.313102
-0.216014
-0.193581
0.0453348
3.80447e-06
0.00937197
-0.358385
4.70291e-06
0.0570463
0.207252
9.22993e-06
-1.44147
4.25803
-0.00350114
0.0448888
-0.0280948
0.410309
-0.00239004
-0.0130504
0.00219399
-0.268978
0.00242501
0.0150694
0.153832
-0.000139799
-0.261145
-0.247389
1.12563
0.00216258
-0.370106
0.0185071
-0.291769
-0.209008
-0.18134
-0.101898
-0.624738
-0.00820105
0.00297929
-0.406921
-0.00856309
-0.000871193
-2.79215e-05
0.310687
-0.261729
-0.0568974
0.0490977
-5.59182e-05
-0.0961263
-7.98174e-06
-0.00136705
-0.239431
-0.00178957
0.214692
-1.85887
0.0158751
-0.301184
-0.00112222
-0.209992
0.0575574
0.00175387
-0.00798058
-0.309709
0.0180809
0.284348
-0.00113105
-8.81421e-05
0.00385774
-0.000201633
-4.37371e-06
-0.012023
0.402239
-0.00922091
0.132613
-9.86082e-06
0.0878919
0.0259839
-0.0399044
-1.00962e-05
0.102337
0.259328
-0.000961508
0.0392453
-4.04879e-05
-1.73235
-1.79604
-0.00888403
0.0471042
-0.00760307
0.000159367
-0.091532
0.00273487
-0.0069386
-5.5782e-06
0.147229
-0.258295
-0.0113123
-0.00118664
2.43872e-05
-0.168127
9.55079e-05
3.54646e-05
-0.00013266
0.0795857
-0.000424266
0.00464472
-0.243182
4.02764e-06
-0.0183148
-0.00113576
2.48018
0.0053423
0.000177506
0.00781864
0.0334454
-0.200409
-0.0046446
-1.4992e-06
-0.237968
-0.345756
-0.000105895
0.394614
-1.29914
-0.0043785
0.0249064
-0.264385
-0.0466689
-0.000255349
-0.152163
0.318057
0.242607
0.000655021
-0.00674983
-0.290002
0.676058
3.25668e-06
-0.00325141
-94.9827
-0.00533828
0.866086
0.205431
0.931741
-3.65333e-06
-0.000107193
-5.81414e-06
-0.243027
-1.5649e-05
-5.59828e-06
-0.378806
4.01978e-07
-0.453682
-0.00113672
-0.00111454
0.000104589
0.000916326
0.260215
-0.115622
-2.4921e-05
0.540317
-5.76845e-05
2.97005e-06
0.00743772
-0.261286
-4.37683e-05
-0.00108105
0.368152
-7.5772e-05
-6.46575e-06
2.27709e-05
-0.00028697
0.0216239
-0.137394
-0.00876785
-0.00437594
-2.20147e-06
0.000325778
0.0101693
-0.352534
-1.69522
-9.58131e-07
-0.0032545
-0.000277357
0.118295
0.000212063
-0.00942236
0.335204
0.031097
-0.00229213
-5.50644e-05
-0.0119096
0.124192
-0.0330026
1.59891e-05
-5.81862e-06
0.000242866
0.00338547
-0.264496
-41.0981
-0.00560269
0.000192336
0.000233505
0.000386003
0.227303
-0.0386723
-7.01633e-05
0.0593153
-0.0015186
-7.81916e-05
-0.0534282
-0.00141839
-3.61398e-05
0.130763
0.00890263
-0.00156664
1.4658e-05
0.182344
0.00026776
-0.0388192
0.449292
-0.258361
-0.00333707
-0.00791881
-0.640572
-1.86767e-06
0.00709183
-0.000263431
-0.174777
-4.11925e-05
-0.00745727
-0.0628221
-3.73532e-05
0.122909
-1.81516e-05
2.468e-05
-1.22206
0.205947
0.000602665
-0.0233963
-0.0203731
-1.25507e-07
-9.67521e-06
0.382597
-0.00192356
-1.11359e-05
-0.00238594
0.0178962
0.00447067
0.000244012
0.000595875
-6.02197e-05
0.00128871
-0.179186
0.363173
0.0015872
0.830959
-0.0787347
0.01909
4.23987e-05
0.308329
0.420731
0.000114318
-2.25038e-06
0.28671
1.15847e-07
-0.00421424
-0.252904
-0.225958
-0.117083
-0.166931
0.000200524
-0.398318
0.00178628
-0.0102803
-0.0840524
9.91848e-06
-0.0128748
0.00637238
0.0218509
-0.0190742
5.46004
0.000357986
-0.00115731
0.00122624
-0.0649338
0.113629
-0.00733632
-0.157367
-0.740125
-4.7042e-05
-0.00437715
4.89133e-05
0.867325
-4.28818e-05
-3.64067e-05
-2.67158e-05
-0.263674
-0.694095
-8.65399e-05
0.158673
-0.000342364
-0.0225303
-0.0414823
-0.0010021
-0.00159451
0.00290646
1.50041e-05
-0.0891297
-5.92178e-06
-0.0597919
0.000137819
-0.00819325
-0.000215703
-0.000671073
0.0132682
-0.000583872
-1.78652e-05
-1.78634e-05
-0.0103312
0.0120953
-4.44847e-06
-4.53133e-05
7.57304e-05
1.4218e-05
0.201339
-2.5236
0.101216
-1.37212
0.42721
0.21386
0.006478
-0.000247997
0.000267685
-0.0127759
-0.166306
-6.24436e-06
-0.123649
0.00891955
0.549185
0.00199156
-0.000104202
-0.000976045
0.00599506
0.00676875
-6.17766e-06
0.185542
-0.0664072
-1.17335
-1.48149
0.259258
-0.0288438
-1.0932e-06
-0.279485
4.58054e-06
-1.81479e-06
-0.0436684
0.136051
-0.00774221
-0.00105643
0.192557
-0.160501
8.67257e-07
0.0746036
-0.0504386
0.223641
-8.47647e-06
-0.347507
2.11139e-06
0.143655
-8.58063e-06
0.191332
0.00177997
-0.46386
-2.59239
-0.024195
-1.23839e-06
0.000176271
0.182522
-0.00239238
-2.40184
-0.0119705
-0.166102
0.00917264
-0.111686
-1.48562
0.307651
-0.0216506
0.00162405
-9.46403e-06
0.000132036
0.0265219
4.311e-05
-0.19966
-0.865318
-0.000132029
0.312637
-0.437406
-1.5714
-1.21437e-05
1.43931e-05
-9.05241e-06
0.421414
-0.00179848
1.30089e-06
-0.00021878
0.0821598
-0.000112535
-0.263083
-0.0426488
0.000689304
-0.0074679
-2.87392e-06
-3.78882e-06
3.41012e-06
-0.00135701
-0.00171426
-2.60964e-05
0.293668
5.44874e-06
0.000111279
-6.12e-06
-0.000154205
-0.14299
-0.0650381
-3.25159e-06
-1.10842
0.00122812
-0.000122149
-1.39439e-05
0.0019685
0.00109566
-1.41142e-05
-0.00133627
-6.38605e-07
0.454095
0.00136885
-0.44486
-0.178693
0.000308085
0.00156545
1.98209e-05
0.433277
0.383918
-0.00323531
-1.10449e-05
0.0117595
-0.0185266
-0.00553217
1.1942e-05
0.000617699
0.0705429
-0.026289
0.775526
6.14949e-05
3.93731e-05
-0.00776238
-0.402881
-0.00193494
-0.0263524
-0.0382025
-0.252687
0.00131597
-0.0202618
-0.00291184
-0.00247105
-1.12006
-0.113109
0.000495312
4.40308e-05
-1.28134
0.275701
0.00353924
-0.0352108
-0.000157733
3.8976e-05
-6.09833e-06
-0.641306
0.402742
-2.8998e-05
-0.150161
-0.00147315
0.0183016
1.26584e-06
-1.33604e-05
-0.146371
0.76636
0.00115487
-0.0241478
0.032418
-0.011104
-0.365196
-0.00170588
-0.218128
-0.466717
-1.05396e-05
-0.261851
-0.203054
0.0990808
9.7568e-05
-0.0286541
8.77768e-06
-1.00121e-05
-0.0872533
0.117044
-0.0935053
-0.00613825
0.393054
-0.00125352
0.417274
-0.00189734
-7.29232e-06
0.00193575
-1.11774e-05
-0.0897923
-0.0873845
-0.043783
0.618568
3.92314e-05
0.361988
-0.002492
0.00123764
0.000118062
0.000582997
-2.75098e-05
0.000244069
-2.49988e-05
0.464167
-8.92167e-05
-0.00212114
-0.0688243
-0.0106611
0.000911779
0.000127512
0.0241712
-0.0210101
1.34786
0.000226111
-4.86528e-05
2.57854e-06
0.431286
-1.70783e-06
-0.000922578
-0.00100193
-0.000110792
-4.30213e-06
-7.37985e-06
3.47962e-06
0.000152
-0.00177429
-0.0652738
-1.16102
0.0246283
-1.85894e-05
0.636281
0.196735
0.0042174
0.0289808
0.00184973
-0.00122021
0.00109856
-0.000249342
-0.253478
0.000293319
0.00716395
0.146186
0.176741
-0.000457749
-3.42377e-06
-0.297861
-0.000158374
0.0470515
5.34767e-05
0.000173411
0.648143
0.00179276
2.21769e-05
-0.00370095
-0.00375762
-0.0132369
-0.85062
0.768078
-1.24177
2.64445e-07
4.08077e-06
-0.00199869
1.56542
0.00488048
0.000481493
-5.05148e-05
-0.0182596
-0.160221
1.67423e-05
-2.40425e-05
0.758112
-0.162878
0.00293502
-0.000210356
-1.82591e-06
4.4412e-05
0.000199145
0.00111235
-1.1529e-06
0.000984338
-0.000306762
0.0729545
5.67432e-06
0.011058
0.385757
-0.0328695
0.198431
6.30438e-05
-4.18585e-05
0.659514
0.212633
-0.00271813
0.00311951
-0.0138101
0.303629
0.000858644
-0.103786
0.00073548
-0.442899
7.00576e-07
-0.290307
5.63081e-06
0.00066609
0.00539514
0.134597
-1.93781e-05
-4.54586e-06
0.000388283
-1.18855e-05
-1.05136
-0.147568
0.29998
-0.00254906
-0.000111935
-0.376049
-3.73353e-05
3.13168e-05
0.0218963
-0.265397
-0.0420529
0.0201445
-0.295828
0.00180259
0.00985457
0.203277
2.23459e-05
-0.0022349
-0.264939
-0.00154027
0.000288833
0.471885
-0.169237
-1.40727e-05
0.137846
1.94172e-05
-0.000791506
0.712829
-0.0139884
-0.0698294
-0.000736175
3.61781e-06
-0.00196949
-0.00256557
0.0536471
-0.571828
-1.36539e-05
0.08668
0.00194563
0.00935013
-2.5456e-06
0.000136022
-0.278906
0.000126317
-0.000981479
-0.00200618
0.244299
0.000103076
0.393794
0.0742383
0.400365
0.00164368
0.20443
3.86772e-05
-8.68953e-06
3.53602e-05
0.000987258
-0.195766
-0.144331
0.00899092
-0.0253915
-0.0288885
-0.169122
-0.280018
-7.75033e-06
0.0015435
-0.00201467
-0.0993624
-0.00317419
0.00092364
0.0196889
-5.69106e-05
0.0661621
-0.587509
0.000197289
-0.259926
-2.37694
0.355197
0.0989029
-0.00190048
-0.000118317
2.43001e-05
0.0382772
-8.49993e-06
0.184107
1.93445e-05
-5.44754e-06
-0.000122747
-0.00046753
0.6197
-5.59625e-06
-0.0436487
-0.0892623
-0.0157141
0.00253615
-9.49067e-06
0.31135
-0.000461539
-0.000451148
-0.245028
-1.0462e-05
5.61777e-07
-0.0106419
-0.00201413
4.94127e-06
-0.00500038
0.0191549
0.552873
-1.79549
-1.86e-05
2.0623e-05
0.00108567
0.0109558
-0.236542
-3.12536e-06
0.48412
0.000811713
-0.00091003
-1.16564
2.69193e-05
2.74575e-05
0.000372613
5.1011e-05
-1.22141e-05
-7.06888e-05
-0.108912
0.416995
-2.73272e-05
-0.586482
-1.49567
-0.0138813
-8.96676e-05
0.000121777
-2.3496e-05
8.00266e-05
-0.00646021
-0.0126197
-0.259032
-1.2014
0.0424739
-1.96549e-05
-0.0011545
0.02701
-0.00128503
0.000515671
0.000695504
0.0382709
-0.0627247
-6.55719e-05
5.31704
-0.0474177
1.25605e-05
4.51188e-05
4.68446e-06
0.00555557
0.103341
0.292395
-0.00114024
-0.0782116
-0.00312751
0.000806494
0.0204859
-0.000333213
-0.97655
0.00377777
-0.0012782
-0.00072708
0.000750471
-0.00191549
-1.11091e-05
-4.67102e-06
0.0459938
-1.01482e-05
0.245456
-0.000701899
0.00128262
0.650002
-2.04616
-6.15027e-05
5.09468e-06
-0.00140533
-0.0095506
-9.4553e-05
-5.57023e-06
0.786348
0.214653
-0.00306334
0.00329003
0.550168
-0.000140716
2.94443e-05
-0.524742
-0.0100657
0.55347
-0.000308439
0.00317402
2.50778e-05
-0.00119997
-0.0106755
-0.00189493
-6.08934e-06
0.00257428
-1.18198
-5.69708e-05
-1.74552e-06
0.000387402
0.0015948
0.021338
-0.000162821
-1.67305
-0.000574964
0.369035
-2.71914
-0.00201522
-0.750678
-0.00143555
0.0402217
0.0268968
0.0235596
-7.39929e-05
-0.270504
0.00216578
-0.00944161
-0.000296998
0.00131311
-0.0974543
-0.000246202
-0.000209381
-8.50974e-07
0.00250438
0.106482
-0.0408403
0.795557
-0.579085
-0.264005
-0.000126585
-0.271311
5.00546e-05
-5.33515e-07
0.000246166
-7.48417e-05
0.00493914
0.0802585
4.89468e-06
0.475727
0.130465
0.0963742
0.0957224
-0.0858612
-3.84344e-05
-9.65169e-06
-0.000651257
-1.19547e-05
-0.000151432
-0.00010994
-0.21681
0.00143873
0.332709
0.00738168
0.00140145
-0.0361225
8.60956e-06
-0.0837369
-0.000108787
-0.0121322
-0.201267
-0.170615
-0.000551294
-0.490945
0.00375206
-0.0289605
0.00477973
0.000226054
-0.264634
-0.00016689
-0.601004
0.000218838
2.0201e-05
8.37326e-05
-0.314092
0.46157
-0.483356
-0.0329172
-0.2561
-0.18152
-1.23503e-05
0.0362793
-0.000275249
-0.00137481
0.0550488
0.0130875
3.91676e-06
0.348424
-0.00788943
-1.80388e-06
0.246242
-2.94926e-05
-0.000144931
-0.161775
-0.000274685
-0.000145921
0.304
0.00904144
-0.150735
8.6488e-05
-6.64919e-06
0.00213873
-0.243697
-0.00475578
-0.00267774
0.0211832
1.70954e-05
-1.31998e-05
-0.00452692
-0.477187
-2.74658e-06
0.22529
-0.000205892
-0.0103962
0.0563753
0.00140719
0.0601005
-3.05037e-06
0.000988936
-0.101435
-7.52499e-05
0.00452091
-0.261855
0.013501
-0.231186
0.00127897
0.0156709
-0.00141266
0.184731
0.0036529
-0.00165949
-0.406387
-0.00994521
-0.519742
-0.777084
4.9365e-05
-0.00296668
0.00101521
-0.00010081
0.000191606
0.0457197
-6.04747e-06
-8.47949e-05
-0.000287432
-0.000226355
-5.60071e-05
2.62343e-05
8.86493e-05
0.000504488
-0.499368
0.00150373
0.000195561
0.870817
0.0457918
0.465276
-0.00330622
0.0157261
4.25919e-06
0.43246
0.00162223
-0.859648
0.000827365
-0.221184
-1.44776
-0.0918287
-0.0597116
-0.000125463
-2.8786e-05
7.47971e-05
-0.00132579
0.00130853
-0.313213
2.82204e-05
0.0731233
-0.0505851
0.0957085
-0.00288881
-1.68427
0.0982242
-0.00758759
-1.34043e-05
-9.44439e-05
-0.0304648
0.00055801
-0.00256254
0.315021
-0.000663283
0.000110283
5.07801e-05
-1.08095e-06
0.0163838
0.268054
-0.322045
0.0120187
0.000218594
-4.82302e-06
-1.81687e-06
0.000229526
-0.202851
-0.00134745
-1.5496e-05
0.00042714
0.353368
-0.0912033
2.83534e-05
-1.26154e-05
0.00294841
0.00352408
8.6482e-05
-0.000926189
0.0147705
0.20886
0.201057
-0.250711
0.0144441
0.00212107
-0.00389969
0.155664
0.00166978
-0.209389
9.89689e-05
-1.07466
0.408014
0.281262
-4.56349e-05
0.482869
0.000255961
0.34187
-0.109585
0.233242
-0.472185
-0.208453
0.00096998
-0.00227502
-0.590186
0.0957593
-0.0280352
-0.00535757
0.00639445
0.173546
-0.18088
0.456021
-0.656329
-1.36982e-05
-0.277483
-0.0055992
0.610179
-2.39961e-05
-0.00704822
0.215913
0.00371524
0.493688
0.000809475
-0.0071339
-0.00320104
-0.465564
0.0417832
-0.00109875
0.219269
-0.0148496
0.0001831
-0.251273
1.08403e-05
-0.0923336
-0.0010762
-0.000356129
-0.0529825
-0.219559
0.000203154
0.143072
0.12583
-1.34041e-05
0.0276545
-0.183951
0.216136
-0.282808
9.51117e-05
-9.85497e-05
-0.0329859
-2.11276e-05
-0.336644
0.201747
0.305204
0.50096
0.000530581
-0.004333
-0.000962803
-0.395102
-0.366055
-0.636513
-0.00630981
-2.53638e-05
0.00454225
0.0825522
-0.00143721
-0.0153958
3.03662e-05
0.132487
9.02272e-06
-0.000922779
0.00540372
3.96485e-05
0.000679804
0.0442653
0.0127844
-0.233986
-4.65952e-06
-2.08561e-06
-1.00411
0.398266
-0.00360074
-0.000530651
0.0648811
6.47212e-06
-0.274288
0.092975
0.51802
-6.74572e-05
-0.000186901
0.191281
-0.130572
0.305723
8.72816e-06
-0.0254796
-2.77412e-06
0.0136767
-0.947604
3.09712e-07
0.315853
-0.0706037
-0.00487046
-0.000518115
1.60707e-05
-0.000865364
-0.223045
-0.00147561
0.0549409
5.20633e-05
-7.18231e-05
0.0415633
0.000216688
-0.00960019
-0.231737
-0.000139196
-0.116968
0.0164572
5.73458e-06
0.348756
0.0265102
5.76905e-05
-0.739498
-0.105773
-1.44573
0.000147571
-2.38152
6.57217e-05
-6.73091e-06
-0.0214553
0.32233
-0.170024
1.20379e-05
-0.0354091
1.29183e-05
0.000568537
0.00011234
0.171334
-0.030113
-0.615767
-0.00458883
0.00154265
-0.0049086
-0.276915
0.111296
0.0547132
0.118175
0.000174029
-3.91483e-05
5.82149e-05
0.00862574
0.000624874
-0.00569157
0.0534708
-3.24261e-06
-0.244516
-0.0617985
-0.0327065
0.984185
0.000297106
0.000133479
0.0447857
0.16199
8.62833e-05
-0.000246921
-0.177246
0.00618577
0.074151
-0.00746508
-0.177953
2.31115e-05
0.202607
-0.0144956
-0.00146311
1.20216e-05
-0.2812
0.0156731
-0.000143309
-0.00446758
-0.0314051
-0.0983244
-3.13875e-06
-0.663329
0.000227095
3.59185e-05
1.35137
0.179721
0.0747702
-0.117397
0.0140676
-0.0794468
-0.14599
-0.000122138
-0.124625
-0.0183324
-0.000513376
-0.000339363
1.39791e-05
0.000197728
0.152242
7.3093e-05
0.24463
7.62587e-05
-0.015985
0.271333
3.99986e-05
-1.06197
-0.00103898
0.037036
-0.0983648
-0.0488248
-0.00157836
-1.47166e-05
0.31387
-0.000142084
0.300083
-0.395258
0.0261842
0.857346
-1.18159e-05
0.114751
-9.15387e-05
-0.00284959
0.00120017
0.00671903
-8.10094e-06
-0.0995853
3.58956e-05
-0.521947
-0.00133
0.12565
-0.237116
0.0381699
-0.000607971
-0.000622806
0.00495924
0.220964
-2.71543e-05
-0.184228
0.0109291
-1.14628e-05
-0.00056584
-1.96705e-05
-0.00207558
0.277616
0.534484
0.00119614
-5.73303e-05
-0.0886668
-0.0657205
-0.0388613
-0.00135693
-8.443e-06
0.200901
-1.23977
-0.00018315
-0.00483716
0.000782399
-0.330152
0.000365613
-5.31262e-05
-0.116904
0.416155
-0.00578262
-0.00415851
-2.89441e-05
-0.000597305
-0.00172198
0.00242935
-0.148641
-0.172862
0.00273794
1.09197e-05
-0.0706458
-0.00020817
0.00162607
-0.000129517
-0.162917
-0.38796
-0.1263
0.000846375
-8.00541e-06
3.51996e-05
0.22576
0.748071
-0.0609438
0.0153238
-0.0128579
0.00138829
0.0318295
-0.00315435
-0.00768059
9.22379e-05
-0.000337174
-0.000106524
-0.530424
-4.33554e-05
0.020041
-0.0960572
-0.265388
0.383419
0.00649582
8.74604e-06
-0.387874
-0.000817861
0.137452
1.74045e-06
-0.0786323
7.95522e-06
0.000927417
0.0365767
0.0122795
0.000156491
-3.78846e-05
-9.65695e-06
0.0198817
0.00230127
-0.377671
0.0216865
0.293485
-0.325019
0.277326
-0.277779
-0.000101097
-0.426254
-0.0203469
-0.00254092
-0.000270456
-0.00252564
4.54956e-07
0.00013178
-3.13358e-06
5.31696e-06
0.000150961
-1.88728e-05
1.81944e-05
0.312819
-0.337988
-0.202068
7.02331e-06
0.000102112
0.00261922
4.32962e-05
-0.24259
-6.52223e-06
0.0985547
0.0691413
0.0493071
-0.00207912
0.00654292
0.00690447
0.003605
0.0191511
0.0012678
-0.273823
0.325143
-0.0769765
0.00177148
0.262633
0.000709267
-6.25136e-05
0.0102398
-0.000194649
-2.41779e-05
0.000481821
0.0979362
-0.000193058
-7.63857e-06
0.0751228
0.000167105
-0.000598817
0.54258
-2.08932e-05
-0.089787
5.56594e-05
0.000227487
-0.000919879
0.00867337
-7.71702e-06
-0.181789
0.278237
2.23722e-05
0.122913
4.61936e-05
-0.205966
-0.282743
-8.03256e-05
-1.20746e-05
7.57848e-05
4.98337e-05
-7.50146e-05
5.5966e-05
-5.83843e-06
-0.00692009
-3.45184e-06
-0.064308
-0.232544
0.0117537
0.000320457
0.00110154
-1.52474e-05
-0.0879879
-0.00112229
0.0497587
-0.0404072
-1.74645e-05
-0.223173
0.199005
0.000113564
-0.0287376
0.401685
0.000207948
5.7102e-05
-1.93443
0.00060468
5.47825e-05
-0.00785492
0.251969
-0.180069
-0.0434117
0.0259073
-1.05916e-05
-0.549121
0.065048
-0.000290605
3.17575e-05
0.00143294
9.45225e-06
0.00204416
-0.117574
1.93012e-05
0.0508521
0.0656444
-0.351598
0.247369
-0.000266247
-0.699838
-0.00013327
0.273261
-0.249349
-8.99963e-06
-8.93459e-05
-0.221328
0.00332988
0.529477
0.000209345
0.292298
-0.0352659
-0.236847
1.58475e-05
-0.185364
0.436008
0.734131
0.00323127
-0.0863074
-0.475993
0.235024
0.0811106
0.00515801
0.346206
-0.674005
0.00582775
-0.176811
0.141231
-0.121713
-0.350068
-1.82888
-0.273412
-1.00059
3.18407e-05
0.280661
-1.38922
0.441157
-0.000175162
-5.49395e-06
0.140482
-0.000978368
0.0223123
-0.138014
-0.110607
-0.79188
-0.025622
-2.3521e-06
7.83194e-05
0.269961
-0.157616
-0.289127
-0.00107503
0.708206
-5.20178e-05
0.814785
-0.0270573
-0.666345
0.0170921
9.68834e-06
0.188456
1.80712e-05
-0.626408
0.00847346
-2.63648e-05
0.0856697
5.58892e-05
-0.760196
0.770999
-0.0122956
0.803338
0.000124385
-6.79243e-05
-0.199886
0.00982969
-6.95859e-05
0.372951
0.149993
-0.000213753
-0.0724639
6.46009e-05
-8.36675e-05
5.79504e-05
0.00905941
2.04527e-05
0.00772456
9.54523e-05
1.30572e-05
0.2905
-0.102994
-4.65799e-06
-0.0953765
0.195072
-0.116845
-0.157338
-0.00169132
-0.820773
-3.09863e-06
0.00925666
0.0657847
-0.000459414
-1.35661
4.32274e-05
0.195332
-0.00255528
-0.121376
-0.668378
0.546255
0.0102507
-0.56457
-0.114176
0.201186
0.00856524
0.180252
4.53827e-06
-0.27454
0.261279
1.1676
0.000320041
-5.96268e-06
-5.7283e-05
0.251891
-0.00376458
4.74094e-05
0.371307
0.0678212
-0.83281
-0.00191197
0.00900434
0.0482006
-0.000563572
3.41144e-05
0.119121
-0.178187
-0.00170847
-0.854494
-3.6859e-06
8.36302e-05
-0.00121127
-0.177927
-0.0496151
7.48049e-05
0.00260757
4.85182e-07
-0.468746
0.0203936
-0.582496
-0.436791
0.32738
0.0919946
0.004274
-0.0211158
-0.392758
-0.00987639
1.87771e-05
1.0256e-05
2.50679e-05
-2.22371e-05
-0.403522
0.0113796
-0.682285
1.43593e-05
-0.000154326
-3.37131e-05
-0.259605
-0.0032089
0.152703
0.199834
-0.0215716
0.0185062
-0.00227862
-1.12213e-08
-0.000308219
-0.0235705
-2.41676
5.6816e-05
-0.00946194
-0.000384158
-0.145671
0.759232
0.118102
0.0876994
0.000282359
0.360188
6.64604e-05
-0.231688
-0.193031
-0.000835228
-0.0445356
0.268102
-0.21378
-0.0259893
0.144632
0.00646178
-0.0015929
-0.286949
-1.99097e-05
1.67221e-05
-0.295763
0.0281485
-1.13425
-0.00258048
0.0714812
-0.036294
-0.20883
0.260065
-4.25943e-05
0.0568002
-0.00572442
-0.0126023
-0.285557
-9.22309e-06
-0.100597
0.00453261
-0.344823
-0.451424
0.07619
-2.79697e-05
0.00071359
-1.67395
0.0904254
-0.113188
0.0682963
-0.23081
-0.000101443
0.330252
0.0363492
-0.000395074
-0.00011255
-0.00103789
0.00911187
-0.140409
0.000604889
-0.00388712
-0.707007
-4.25078e-05
-0.124751
6.7527e-06
0.124027
0.000785583
-4.42777e-05
-0.422558
0.000298867
-0.0851344
-4.63126e-06
0.00039526
-0.308641
-0.000137246
0.00012789
3.99058e-05
0.142143
0.00219649
-0.000765045
-0.640427
0.289783
-0.271501
-0.000741433
2.53428e-05
-0.112838
-0.00149507
-0.020052
0.000119023
0.0195144
0.259717
-0.00170058
-0.000794432
-0.00989181
-0.00258922
-0.00104586
-0.217669
-0.172065
-0.00670189
-1.06137
-0.000624528
-1.15957
0.0462289
-1.61995e-06
-3.12641e-05
2.6513e-05
-0.124675
-22.8964
-0.176458
0.498621
-0.20087
-0.263226
-0.158004
0.313382
-3.28961e-07
0.20372
0.177892
-4.03939e-05
0.0516288
0.0064746
0.000781132
0.0339416
-0.188441
-0.221442
0.0546161
-0.00309989
-0.00136937
0.348411
0.526538
-0.11707
-0.0229654
-0.00302703
-0.243897
1.29564
0.29427
0.019539
-0.554022
-0.238101
2.11387e-05
0.190292
0.000825652
7.9656e-05
0.516678
2.75275e-05
1.00075e-05
-0.0463698
-0.000152483
-0.000341839
-1.25984
0.00179538
7.31831e-05
-0.192211
-0.24714
-0.12623
0.00355501
0.358275
0.00169102
0.00107231
-0.282928
-0.31847
-1.25548
-4.26211e-05
-0.617548
-3.88666e-05
-0.431109
-9.47688e-05
-0.0102339
0.000127858
0.145956
-0.000113217
-0.0152251
-0.200202
0.000140295
-0.258145
-0.237778
-0.228274
0.0166627
-1.32288e-05
0.163419
-0.383787
0.138833
4.12709e-05
-0.761224
-0.236964
0.0346441
-0.0189617
-0.00537854
0.0841527
0.2512
0.0102932
0.0379683
-0.155689
2.45322e-05
-0.38722
-4.36671e-06
0.0156188
-8.85052e-05
3.82509
0.11091
-0.221717
-0.202415
0.00288354
0.00407738
0.0253295
0.00111541
0.395675
0.000217729
0.198637
-0.00268903
0.177082
-0.00555626
-0.370005
0.694021
0.00254553
0.233319
0.000118984
-0.188484
0.000242846
-0.00500438
0.565229
0.00131378
-0.105954
-1.48951
-0.172829
0.629048
0.107995
-0.194547
-0.150514
0.171962
-0.000164914
7.71808e-05
-0.0454689
-7.09253e-05
-1.4088e-05
0.344467
0.423391
-0.167416
-4.90818e-06
-0.169239
0.00533276
0.0201375
-0.152391
0.316115
-9.5569e-06
0.196743
0.0243314
0.0894899
-0.00211172
-0.311683
-3.16285
-0.000612613
-0.23169
-6.10104e-05
0.626471
0.138447
0.0929872
-0.0517584
-0.407049
0.226428
-0.028759
-0.120407
-0.000754374
-0.116495
-0.00336083
-0.00230912
-0.000232638
-0.0151851
-0.296137
0.000700619
2.86175e-05
-0.0720995
0.0038777
0.000136583
0.0214978
4.62158
-7.99516e-06
-0.167695
0.0832628
-1.91362
-0.275155
0.01618
0.0353307
0.0359342
-0.481322
0.0379188
0.00129967
0.0487029
-1.2165
-0.0017475
-0.11658
-0.123849
0.0115409
0.42295
-0.0163554
0.000206982
1.56698e-05
-0.422119
-0.15364
-0.00167383
-0.11155
-0.555387
0.125223
0.244112
-0.230484
0.0168302
-1.18874
-0.00216539
-0.107785
-6.33575e-05
-0.200859
-2.05911e-05
0.355851
1.53865e-05
0.187029
-0.00728237
-2.02629e-05
0.512549
-0.872249
-0.141157
-0.164564
-0.00354628
0.745009
-0.509711
-2.06572e-05
-0.860393
-1.66387
5.26186e-05
-0.622314
-4.00337e-05
0.0346511
7.74639e-06
4.38717e-05
-7.49848e-06
-0.446424
0.242999
0.242757
-0.209184
0.0206862
0.0113188
-0.791831
-3.18409e-05
-0.00016165
0.028457
-0.179632
-1.06469e-05
-0.830959
-0.0287454
0.00910723
0.179995
0.00140106
-1.02909
0.000762799
-0.210875
0.00111002
-0.935047
-0.000256714
0.00329686
-0.240651
0.525027
-0.172077
-0.0057793
-1.06296e-05
-2.30792e-05
-6.76922e-06
0.000655201
-0.803325
-0.0934771
-5.18839e-05
0.0195038
0.0447797
-0.000215405
-0.275166
0.218031
-1.05867e-05
-0.122434
-0.000231016
0.291855
-0.00371058
0.00749781
1.39133e-05
0.000386698
0.0513719
-2.67204e-05
0.050526
-0.629212
-1.20293
0.000833775
-0.00147869
-0.161145
0.229462
-0.970774
0.00187984
0.150079
-0.0473876
-1.14181e-05
-0.152902
0.483281
0.279284
0.0308405
-0.0784813
0.16717
-0.969561
0.0151402
0.0173968
-0.206178
-1.28727
-0.240718
-0.00147844
0.0244628
0.489841
0.0675338
0.118216
-0.000225742
0.0234605
-0.0907795
-0.0842891
-0.256773
0.0114371
6.99718e-05
-0.0835037
-0.00153658
2.28588e-05
0.00723754
0.00273434
0.00691585
0.000444806
-0.399647
0.118158
-0.4303
-0.273917
-0.0919423
0.0118479
0.00589949
-0.0529045
0.171254
-6.97776e-05
-0.136937
8.54756e-05
-0.139719
-1.93731
0.312505
-0.0684076
-0.0976748
-0.13533
-0.195301
-0.00381887
-0.126207
2.96547
0.0729287
-0.0136456
0.367907
-0.00564485
-0.206862
-0.489076
-0.314251
0.18999
0.00899408
0.00973473
0.23122
-0.00200792
0.0211182
5.54382e-05
-0.0323839
-0.119415
0.0466079
0.0173284
-2.04357e-05
-0.0270384
-0.290076
-0.000567983
-0.0860264
-0.00270795
4.26452e-05
-0.356201
-0.000106881
9.74432e-06
-0.190193
-0.00572184
-0.00224433
0.0514262
0.191723
0.0737641
2.31717e-06
0.260915
-0.563476
-2.57003e-05
0.0260343
-0.000196295
0.000633287
0.000186702
-0.000335685
-0.000320858
0.000151167
0.104355
0.017602
-0.0572659
-0.789512
-0.744567
0.00357625
0.0357117
0.0224384
-0.273544
-5.60956e-05
-0.0342099
-0.00279009
-1.38852
-0.0795539
3.46405e-05
-1.312
-0.0111519
0.165299
0.226706
8.85743e-07
0.55397
-1.72683
0.0103663
0.211695
-0.282311
0.0391066
0.000340816
0.00424945
0.0125613
-0.000287278
0.00912927
-1.60169
-0.582836
0.0394452
-0.200622
0.0509517
0.0236033
-0.0290427
-0.319551
-0.466857
0.0335534
-0.00180988
-0.159776
0.000314602
-2.28261
0.546051
1.20927
-0.349441
1.51384e-05
0.0196721
0.182326
-0.000349035
-0.473102
-0.218966
-0.197042
0.0267338
-1.93386e-05
-0.0104871
-0.0145421
0.00344794
8.99364e-05
-1.68156
-0.00010062
-0.00333329
0.181942
0.0257078
-0.1537
-0.0430141
-0.177341
0.106608
1.08438
0.460393
0.0533423
0.0106995
-0.00131512
-1.00919
-0.197829
-0.00164141
-0.00236142
-0.000518847
0.00248742
9.46894e-05
-4.49431e-05
0.0424294
-1.07463
-0.215777
-3.07852e-05
-0.00292258
-0.0827674
0.249237
0.0632832
0.322737
-1.07774
0.55699
-1.23547e-05
-0.0040735
-1.22785
1.56513e-05
-0.374755
-0.11763
-0.00892236
0.00160056
-0.0899864
0.296207
4.92067e-05
0.274473
2.75176e-05
-9.48408e-06
0.384972
-0.0126594
-0.00257311
0.000650273
-0.0158159
0.218535
-0.0615389
-0.0896512
0.34051
0.0122708
-1.18769e-05
-0.00651137
0.0835617
-0.755353
0.200407
-0.0147374
-0.000298505
-0.0727316
2.36603e-06
0.211011
3.39372
0.000516645
-0.00581777
-0.000584457
0.302594
-0.685205
0.028789
5.9155e-05
-0.00606507
-0.443925
-0.24578
0.315739
-0.00379491
1.77145e-05
5.25667e-05
-0.300195
5.77983
-0.00068949
0.257625
-0.239833
0.0294562
-3.86096e-05
-0.1561
0.0182492
3.15359e-05
0.075735
0.0460205
-0.554822
-2.28552e-05
0.00157684
2.26963e-05
0.549542
-0.432261
3.17258
0.383443
0.00122774
-0.0219867
-2.5274e-05
-0.0248994
-0.0313616
0.155851
0.102753
-2.93613e-05
0.000193646
0.0040187
-0.000349706
0.00250832
-0.00211563
4.16875e-05
-0.0448442
-4.18969e-05
-0.270883
-0.00728225
2.91646e-05
0.0101173
3.28719e-05
-2.86358e-05
-0.256593
0.000481697
6.59558e-05
4.15757e-05
-0.169572
0.131892
-0.296708
-1.82862e-05
-2.11727e-05
-0.39267
0.250605
0.080533
-0.664406
0.826724
-1.35948
-0.00010369
2.988e-05
-0.389686
0.0458423
0.0103176
0.161245
-5.97834e-05
-0.00245052
0.00218271
-0.00161309
-0.198953
-6.38646e-05
-1.54174e-05
-0.227472
-0.000138797
-0.123733
-0.000213314
-0.00871189
-0.0107401
-0.000204271
3.64151e-05
-0.296795
0.0109252
0.00205466
0.836868
0.00149551
-1.93103e-06
0.0259922
-0.505648
-4.96055e-05
-0.213162
0.386891
-0.00317002
0.000691628
0.0129154
0.0823679
-0.00959224
-8.35904e-06
-0.0166618
-6.0187e-05
-0.158908
0.185487
-6.1495e-06
2.00262e-05
-0.00305284
-0.838558
-0.0057084
0.000113583
0.383125
-0.0304245
-2.31588e-05
0.00620601
-1.1206e-05
0.209075
0.501863
3.54951e-05
-2.25125
-0.257985
0.0120249
-1.36862
0.090561
0.00329303
-0.0254995
-0.00624181
-0.000601707
0.666072
-0.00362049
8.48018e-05
0.0675703
1.99635
0.00151006
-0.0385994
0.331828
2.04971e-06
-0.000247341
9.53108e-06
0.00958287
-0.00029702
0.0109133
1.08918e-05
-0.000643005
-0.000178084
0.105629
-2.81643e-06
0.0989922
0.132306
-0.233977
-0.691468
-0.138387
0.000541063
-0.0318889
-0.0984188
0.00149442
-0.156393
-0.00179613
0.423665
0.288454
-2.11676e-06
0.00376215
-0.0118292
0.359335
7.17421e-06
0.0112722
-0.00281993
0.00471034
0.171893
-1.93048e-05
0.260868
5.09208
0.021432
-0.000705059
-0.00120034
-0.00086226
-1.6043e-05
-2.46439e-05
-0.688889
-0.276649
0.185218
-1.79063e-06
-0.159579
0.64684
-0.00303689
-2.10934e-05
-0.280949
0.331181
-0.00197003
0.0695592
-0.00516673
-0.000294142
-2.33411e-05
-0.0243297
0.173188
0.14399
-0.000618192
-0.00147175
5.84001e-05
0.00215545
-0.203726
1.93561e-05
-0.00184605