/*--------------------------------*- C++ -*----------------------------------*\
| =========                 |                                                 |
| \\      /  F ield         | OpenFOAM: The Open Source CFD Toolbox           |
|  \\    /   O peration     | Version:  v2012                                 |
|   \\  /    A nd           | Website:  www.openfoam.com                      |
|    \\/     M anipulation  |                                                 |
\*---------------------------------------------------------------------------*/
FoamFile
{
    version     2.0;
    format      ascii;
    class       volVectorField;
    location    "300";
    object      ddtCorrDdt0(U);
}
// * * * * * * * * * * * * * * * * * * * * * * * * * * * * * * * * * * * * * //

dimensions      [0 1 -2 0 0 0 0];


internalField   nonuniform List<vector> 
13308
(
(-0.00648549 0.00336621 0)
(-0.134015 0.308394 8.3675e-20)
(0.0340025 0.0773867 3.88456e-21)
(0.000189208 -1.68762e-05 1.2973e-21)
(-0.00848297 0.00166115 7.89208e-22)
(6.49899e-05 -2.73753e-05 1.68662e-22)
(-0.0259556 -0.0450257 -3.74918e-20)
(0.000508597 -0.00297693 0)
(-0.0348086 -0.0266167 0)
(0.0292033 -0.338792 -2.65426e-21)
(-0.117172 0.0204441 0)
(-0.0663611 0.28219 -3.01993e-21)
(7.66232e-05 3.50637e-07 0)
(0.000582712 -0.000190499 0)
(0.000100388 -3.71789e-06 0)
(0.04702 0.0693641 0)
(0.00866349 0.00449362 -1.65276e-22)
(0.212462 0.0143053 3.94202e-20)
(-0.0335821 -0.352607 2.81912e-20)
(0.0207434 -0.202174 4.5943e-20)
(-0.0027467 -0.00885917 -3.54882e-21)
(0.106834 0.162184 5.29319e-21)
(-0.0741071 0.135142 -3.91619e-22)
(-0.00403983 -0.00330927 1.82331e-20)
(0.045951 0.0633636 0)
(0.00936815 0.117173 1.49318e-20)
(-0.0140129 -0.00954333 -7.3594e-21)
(-0.111841 0.0179065 4.11888e-21)
(-0.0126934 -0.00401544 -7.53084e-21)
(0.00634922 -0.0277362 0)
(-0.0101132 -0.165561 -4.51621e-19)
(0.00970214 -0.0434743 0)
(-0.0467465 0.144625 0)
(-0.0253478 0.00491345 0)
(0.0509317 0.169091 -5.67584e-20)
(0.00741584 0.00651137 3.29378e-21)
(-0.0249986 -0.042778 3.53273e-20)
(-0.0794253 0.128147 3.78179e-21)
(0.00173336 0.000680436 3.81651e-21)
(0.0291355 0.0721931 1.46272e-20)
(0.000437829 0.000181736 0)
(0.00107994 -0.00132764 7.48446e-21)
(0.0952076 0.239859 -7.7515e-20)
(0.000387422 0.000438494 -2.25099e-20)
(0.00197126 -0.0067796 0)
(-0.0922205 -0.0126888 0)
(7.31418e-05 3.34142e-06 -2.28935e-24)
(0.000165444 3.39634e-05 -6.05297e-23)
(-0.00511036 -0.000765097 -1.06233e-21)
(0.0220648 0.0691908 -2.67504e-20)
(0.000535425 0.000141614 2.05566e-21)
(-0.000996799 0.003345 0)
(0.145056 0.0862056 -4.41236e-19)
(0.0643726 0.0213615 1.79904e-20)
(-0.0990072 0.0143485 2.10525e-19)
(-0.117359 -0.00473405 -4.17527e-22)
(0.000389942 0.000363433 -1.01711e-20)
(-0.00234137 0.00324597 -2.11308e-20)
(2.6196e-06 -0.00853279 2.53014e-20)
(0.00167387 -0.000698842 0)
(0.0202979 -0.317 2.44754e-20)
(-0.0433435 0.123142 -1.2433e-20)
(-0.00167538 0.00175612 3.19546e-20)
(0.000570997 -0.000417073 0)
(0.000376162 -9.2345e-06 -6.40937e-21)
(-0.0451654 0.145777 3.3723e-21)
(0.000350839 -2.55916e-05 -8.74031e-21)
(-0.0994444 -0.0123824 0)
(0.000152347 -2.74948e-05 3.90995e-21)
(0.0786012 -0.0530548 0)
(-0.0341955 -0.168461 0)
(0.0038532 0.00449106 3.88673e-21)
(0.000101985 0.00792144 3.96844e-21)
(0.0154716 -0.0281965 2.48503e-20)
(-0.0849597 -0.0565247 1.35518e-20)
(-0.00039841 -0.00192717 -2.45892e-20)
(0.000243025 9.31717e-05 0)
(-0.171524 -0.0433811 1.38785e-21)
(0.00047143 0.000723267 -1.34103e-20)
(-0.00206132 0.0267269 6.25743e-21)
(0.00293727 0.00213492 1.11036e-20)
(0.000321407 -1.49495e-05 0)
(3.09318e-05 -0.00206025 1.42005e-20)
(-0.00271066 -0.00256261 0)
(-0.0769297 -0.0837059 0)
(0.000826976 -0.00292251 0)
(-0.0754783 0.000413328 -5.29034e-22)
(-0.121005 -0.315422 3.53518e-21)
(-0.0284987 -0.153883 -7.22802e-21)
(0.0414338 -0.157116 -1.39404e-19)
(0.00119147 -0.00130488 -2.28218e-20)
(0.000357868 -2.18097e-05 0)
(-0.0127395 -0.0154175 6.61245e-21)
(0.000332739 -0.0128933 1.89448e-20)
(0.000531659 5.05226e-05 1.62039e-20)
(-0.00164578 -0.00452976 4.75074e-21)
(-0.000337265 -0.00181211 2.56419e-23)
(-0.000393424 0.0312117 -8.84759e-21)
(-0.00743951 -0.0852852 1.13618e-21)
(0.0527339 -0.0373894 0)
(0.00140755 -0.000879164 -8.55538e-23)
(0.000350856 4.34613e-05 7.15645e-21)
(0.000407461 -3.22766e-05 6.52835e-21)
(0.0016438 -0.0173167 0)
(-0.0751153 0.0668614 -2.78826e-20)
(-0.140121 -0.108942 3.57635e-19)
(0.0408991 0.0824977 2.07615e-21)
(0.00016445 -2.53958e-05 -2.51279e-21)
(0.0324541 0.0995036 0)
(-0.00154385 0.116999 1.10456e-20)
(-0.000186848 0.000199604 -8.47022e-21)
(0.0071144 0.0317107 -4.30639e-21)
(-0.00953415 -0.0131295 -4.60799e-21)
(0.00046382 0.000681592 1.26723e-20)
(-0.00970098 -0.00793286 5.23865e-21)
(-0.0569507 -0.333896 -4.36344e-20)
(-0.0945973 0.00799447 1.36373e-20)
(0.0463492 0.245465 -7.15514e-20)
(-0.0153238 -0.00966797 2.03672e-20)
(-0.00311482 -0.00016067 0)
(-0.00784578 -0.00440147 -5.84712e-21)
(0.00712958 -0.0167619 0)
(0.000540653 0.000215025 -6.58018e-21)
(0.015832 0.00123996 3.45915e-22)
(0.003419 0.0852155 -1.86088e-21)
(0.0503188 -0.123682 0)
(-0.0697216 -0.0945012 -9.924e-21)
(-0.0634094 -0.0892485 8.72653e-21)
(-0.000940417 0.00786861 -1.57502e-21)
(-0.0212032 0.0255079 0)
(-0.013768 -0.0909438 0)
(-0.0188601 -0.0161024 2.33143e-20)
(0.000532523 -0.000229837 -9.34194e-21)
(-0.003118 -0.00410071 -1.08012e-21)
(-0.0344005 -0.0120315 -4.5819e-22)
(0.0135031 0.00083473 5.45141e-21)
(0.000354719 -5.84846e-05 0)
(0.00567389 0.063292 0)
(-0.0469401 0.0382515 0)
(-0.00158889 -0.000678744 7.26354e-21)
(0.0019402 0.0299849 6.95571e-22)
(0.000399898 -0.000526661 0)
(0.000840664 -0.000290909 0)
(-0.00558911 -0.0128325 0)
(-0.000217944 -0.00468392 1.713e-20)
(0.0088586 0.0205903 1.04706e-19)
(-0.000831156 0.0221367 0)
(0.0832289 -0.0980372 -4.0017e-19)
(0.00289538 0.00104856 -2.02207e-20)
(-0.0287174 -0.00788127 -3.62331e-20)
(-0.0718532 0.00513871 1.21748e-20)
(0.000403954 -2.92939e-05 0)
(-0.0286408 -0.34896 7.84304e-20)
(0.0163521 -0.300899 1.10707e-19)
(-0.0367932 0.0407639 0)
(-0.0502278 0.0258317 2.70647e-20)
(0.000213285 1.96739e-05 -3.18271e-21)
(0.000498724 -0.000270569 1.12214e-20)
(0.000410903 -0.00014913 0)
(-0.0917665 -0.138359 0)
(0.0149721 -0.361258 -8.60158e-21)
(-0.00152605 0.00313066 1.87253e-20)
(0.00100714 -0.000568079 -4.71288e-21)
(-0.0431277 0.122535 1.25789e-20)
(-0.0556179 0.0171348 -2.53133e-20)
(-0.00373309 -0.0450599 0)
(0.11393 0.160281 1.70689e-20)
(0.000500654 -0.000314733 -1.51256e-22)
(0.0359869 0.0997912 -8.21735e-21)
(-0.00783894 0.0070089 1.33013e-19)
(-0.00099732 0.00156584 2.48996e-20)
(0.0239427 0.299637 1.20771e-19)
(0.00038247 -1.51911e-05 -7.48079e-21)
(0.00802686 0.0610209 -9.99491e-22)
(-0.113794 0.00853047 2.73825e-21)
(0.0580937 0.136956 -2.28353e-20)
(0.0987131 0.161521 1.68975e-20)
(0.0273807 0.072346 3.25098e-22)
(-0.0367201 -0.0160537 2.65084e-20)
(0.000264381 -1.33726e-05 -6.72648e-21)
(0.000900609 0.271388 1.53164e-20)
(-0.0455735 0.0345345 -7.02671e-20)
(0.00035798 -4.91887e-05 8.39572e-21)
(0.00719087 -0.292305 2.19145e-21)
(0.0456959 0.117354 0)
(-4.10114e-05 7.90175e-05 -2.35807e-21)
(-0.089657 0.0121998 -2.8845e-21)
(-0.0235376 -0.199248 0)
(0.00717623 -0.02786 0)
(0.0686773 0.108109 0)
(0.0791803 0.0673172 0)
(0.0180948 -0.207394 0)
(0.00110528 -0.00945592 -7.49189e-21)
(-0.077583 0.264032 1.08121e-20)
(0.000218992 0.00309078 -1.79103e-20)
(0.0442744 0.13857 2.1236e-20)
(0.00136422 -0.00163569 -1.85676e-20)
(0.000581197 0.0172795 -1.64877e-21)
(-0.108152 -0.148557 3.5763e-20)
(-3.15382e-05 -0.00272616 9.48884e-21)
(0.0657283 0.078617 4.31878e-21)
(0.16221 0.107354 5.7158e-19)
(-0.188082 0.07859 1.5185e-20)
(-0.0325246 -0.00694289 2.89211e-22)
(-0.00971387 0.0355744 0)
(-0.0828674 0.00781072 -2.46963e-20)
(0.014753 0.0512039 -6.73146e-21)
(-0.0822315 -0.0425059 -1.46287e-20)
(0.0772592 0.10273 1.93605e-20)
(-0.119645 0.0165812 -4.20033e-21)
(0.0784417 0.123388 -3.44895e-20)
(0.0627076 0.0194721 2.80149e-20)
(-0.00269485 0.00940946 2.70802e-21)
(0.00808802 0.0315548 8.75655e-23)
(-0.0306186 0.0809701 4.77407e-20)
(0.013318 -0.00734032 0)
(0.000215896 1.90107e-05 4.55918e-21)
(-0.102913 -0.300877 2.08643e-21)
(-0.0915981 -0.129142 -4.41193e-21)
(-0.082779 -0.0583988 -8.77255e-21)
(-0.103694 0.00707762 1.25756e-20)
(0.000401112 -1.40515e-05 -1.83427e-20)
(-0.049926 0.0200426 0)
(2.66018e-05 1.31068e-05 9.7363e-23)
(0.0090747 -0.0197603 0)
(0.0615586 0.0509513 2.81094e-19)
(0.00292165 0.0337163 0)
(-0.057591 0.0836001 5.3893e-20)
(-0.142056 -0.0243041 -8.59037e-24)
(-0.0783713 0.0177569 2.66926e-20)
(0.00994667 0.0598148 -2.62285e-21)
(0.0139321 -0.00211896 -7.32827e-23)
(0.0269896 0.0728103 2.0037e-22)
(-0.080827 -0.0976093 0)
(-0.00671983 0.00486255 0)
(-0.00160239 0.0112053 -8.85651e-21)
(0.0522366 0.595552 0)
(0.0393545 0.0730376 0)
(-0.0399021 0.0397275 -3.69097e-21)
(0.0166776 -0.00129382 1.25141e-20)
(-0.00325252 -0.00738971 0)
(-0.00519441 0.0063103 0)
(-0.00295213 -0.00759147 4.49198e-20)
(8.53251e-05 -2.11832e-05 -4.46345e-23)
(-0.0247245 0.161706 -9.39693e-21)
(-0.00214258 0.0905226 4.91889e-21)
(0.0736311 0.0102382 -3.06667e-20)
(0.0569872 -0.104985 4.08958e-20)
(2.51909e-05 2.21695e-05 0)
(0.0504898 0.109854 1.45843e-21)
(-0.0300846 0.0784721 -4.70842e-20)
(-0.0384212 0.141293 -5.00929e-21)
(0.000360702 -8.14098e-05 -2.47169e-21)
(-0.042393 0.12026 3.48694e-22)
(-0.113433 -0.163856 6.34452e-20)
(0.0146116 -0.00178571 8.20531e-21)
(-0.0391552 -0.348236 -3.17781e-20)
(0.000386122 -2.38833e-05 1.0676e-20)
(0.150201 -0.0456305 0)
(-0.148762 -0.0219349 1.80841e-21)
(0.0136754 -0.0810125 0)
(0.0455275 -0.0972113 0)
(-0.00217968 0.00456899 0)
(0.00243034 0.00184271 1.93606e-20)
(-0.0550419 0.00178838 -2.52108e-20)
(-0.0167078 -0.0100834 -1.59531e-21)
(-0.0924918 0.186725 -1.66821e-20)
(0.000412238 -0.000380648 0)
(-0.0936252 0.0272506 0)
(0.0940346 0.0818178 0)
(0.0881032 0.00973429 3.72634e-20)
(-0.00832689 -0.00370662 2.15101e-20)
(0.000697891 2.4196e-05 -9.64569e-21)
(-0.0495684 0.0361428 0)
(0.000545324 0.000954558 -1.89394e-21)
(0.000396817 -9.61998e-06 3.32437e-21)
(-0.00390552 -0.00722771 -6.81367e-22)
(-0.0430096 0.0879991 3.71091e-21)
(-0.00856693 0.00345591 -1.81719e-20)
(-0.0113054 0.0339756 -6.65204e-20)
(0.0326414 0.140307 -4.08229e-22)
(0.000493234 -0.000216039 1.61812e-20)
(-0.00889628 -0.128453 7.2176e-21)
(0.014068 -0.00216761 -5.3731e-21)
(0.0751289 -0.232166 0)
(0.135209 0.036001 1.40757e-20)
(0.00241323 0.0023538 -9.64647e-21)
(-0.00630158 0.0035259 0)
(-0.00257582 0.0415728 3.79871e-21)
(0.139764 0.054722 2.79463e-20)
(-0.0138871 -0.0116333 6.86773e-21)
(0.000519704 -9.15416e-05 2.67507e-20)
(0.0484169 0.0649256 1.7111e-20)
(0.26216 0.120953 -4.01211e-20)
(0.000384642 -0.000715998 0)
(-0.00701644 0.223133 -3.55439e-20)
(-0.133861 -0.044116 5.88404e-21)
(0.0188182 -0.0252536 2.65068e-21)
(-0.00773977 0.0401624 -7.01896e-20)
(0.0559756 0.0502559 -6.85479e-20)
(-0.0439744 0.147284 -7.97769e-21)
(0.00211764 0.0107462 -1.70035e-20)
(0.00911853 0.110293 -1.91353e-20)
(-0.0478907 -0.108424 -6.86307e-21)
(-0.0732062 -0.129724 8.95587e-21)
(-0.00316347 -0.000298302 -3.39506e-21)
(-0.000453745 -0.0151568 1.36707e-20)
(0.0107897 0.0607354 -2.39327e-21)
(0.0388641 -0.115445 1.12212e-20)
(1.75911e-06 5.36977e-05 0)
(0.0257201 0.24324 2.46763e-20)
(-0.121458 -0.208547 1.11159e-19)
(-0.0146683 -0.0131023 -1.37875e-20)
(-0.173536 0.0413797 5.33084e-21)
(0.0763464 0.185569 0)
(-0.135295 0.00947741 0)
(0.000152772 2.52494e-05 -4.59984e-21)
(0.000389538 -0.000780019 0)
(0.000615461 -0.000151364 1.46546e-20)
(0.0512651 0.0685561 6.78317e-21)
(0.000352013 -1.93729e-05 1.3846e-20)
(0.00030195 5.6086e-05 0)
(-0.0220118 0.0202877 0)
(0.000215099 5.73849e-05 0)
(-0.0176755 -0.0251382 2.22703e-20)
(-0.00791369 -0.0162393 -4.85684e-21)
(0.0135746 -0.00503609 1.65154e-21)
(0.000742482 -0.000614866 0)
(0.00428101 -0.0116257 -4.30148e-21)
(-0.00519346 -0.0624432 -1.76816e-20)
(-0.024789 0.136861 -6.83996e-22)
(0.000430006 0.000105933 -1.02247e-20)
(0.0321866 -0.117221 -2.95727e-21)
(0.00118593 -0.00102421 0)
(0.000245796 -1.67658e-05 3.50267e-21)
(-0.0459101 0.0594474 1.46581e-20)
(0.0790696 0.0786932 0)
(0.000924143 -0.000446279 -3.94615e-21)
(0.00468934 0.0230135 0)
(0.113579 -0.0410181 0)
(-0.00433093 0.000722922 7.3999e-21)
(0.00086079 -0.000529546 0)
(0.000587817 0.000369559 2.43466e-20)
(-0.0243046 0.000895151 -1.61913e-21)
(-0.0268677 0.0683645 0)
(0.153344 0.0282066 4.18693e-20)
(0.0134798 0.0695289 6.54958e-20)
(0.0117042 0.0465984 -3.76472e-20)
(0.000352963 7.98474e-06 0)
(-0.00723518 -0.0111383 -2.67632e-20)
(-0.00262322 0.0122473 -3.12315e-21)
(-0.111299 0.0787735 -1.91358e-20)
(0.204865 0.00533903 0)
(0.000477454 -0.000125578 0)
(-0.00628183 7.84228e-05 2.77996e-21)
(0.000523833 -0.00303388 -8.22421e-21)
(0.0426821 0.382741 0)
(-0.00349487 0.0004657 0)
(0.00405524 0.0367342 -6.29012e-20)
(-0.123789 -0.167532 -6.81394e-21)
(0.127173 0.250739 -9.86114e-21)
(-0.029636 -0.0206119 9.13623e-22)
(-0.00584098 0.00215748 0)
(0.0830343 0.0260601 -3.13301e-20)
(0.168624 0.31239 5.05027e-21)
(-0.0308689 0.111029 -6.46339e-21)
(0.0006506 0.000322555 -2.31963e-20)
(6.86692e-05 -3.52486e-05 9.14441e-23)
(-0.00264325 0.00302929 -4.18913e-20)
(-0.00171276 0.00551267 2.83926e-21)
(0.0717932 0.0840591 0)
(0.0456328 -0.171961 4.21184e-20)
(0.0401151 -0.0871508 0)
(0.000460086 0.000117735 1.907e-20)
(-0.0024668 0.00391121 4.40515e-20)
(-0.0112373 0.061451 0)
(-0.041371 0.123474 -2.44149e-20)
(-0.0377826 0.131064 -1.17615e-21)
(0.00313977 0.00162345 -1.12183e-20)
(-0.0521081 0.0378292 4.90367e-21)
(0.003314 -0.00226793 4.59441e-21)
(0.00144826 -0.000552165 1.29909e-21)
(-0.062914 -0.103604 -3.30269e-20)
(-0.00670332 0.00849375 -1.43075e-20)
(-0.00206806 -0.00708874 9.63634e-21)
(-0.00302271 0.119912 0)
(0.00732926 0.0280121 3.75551e-21)
(0.00314422 -0.00813303 0)
(0.000348405 -2.22584e-05 8.57332e-21)
(0.0977668 -0.283656 2.06646e-19)
(-0.00507501 -0.00980032 2.35645e-20)
(-0.00455259 0.012687 5.01135e-21)
(0.0308724 -0.108531 8.93851e-21)
(0.0715674 0.0724387 -6.91224e-21)
(0.0666235 0.215878 -2.60815e-20)
(0.0187143 -0.0275973 -6.15114e-21)
(0.108318 -0.00861007 4.64614e-20)
(0.000471692 -0.000128294 0)
(-0.0246356 0.0811136 0)
(3.76325e-05 -0.00194189 -2.05769e-20)
(-0.0864898 -0.153501 0)
(0.000262077 -1.68253e-05 9.1239e-21)
(0.0408385 -0.0415022 0)
(-0.0290204 0.113513 3.29056e-21)
(-8.28204e-05 0.000703196 1.02823e-23)
(0.0375681 0.128154 7.09356e-20)
(0.000196681 1.53321e-05 -4.90822e-21)
(0.000499599 0.00017873 6.68167e-21)
(-0.0136657 -0.0790284 2.00487e-20)
(-0.0556328 0.0701652 1.87666e-20)
(0.00578049 0.00559112 3.48982e-21)
(0.0395875 -0.103575 -4.15738e-20)
(0.0616703 0.0452965 0)
(0.000477495 -9.3583e-05 7.40405e-21)
(0.00031527 -3.02017e-05 8.84656e-21)
(-0.0226794 0.0991035 5.88583e-21)
(0.00369085 -0.000858799 1.84716e-22)
(0.000363385 -7.14526e-05 0)
(0.00136072 -0.00835669 1.01643e-20)
(-0.0147061 0.0573445 2.08074e-20)
(-0.000647358 0.0350587 2.08943e-20)
(-0.00306677 -0.000725053 0)
(-0.0042633 0.00325019 -1.28342e-20)
(0.00347668 0.000162633 0)
(-0.00944306 -0.0020842 5.93675e-21)
(0.0449324 0.0897184 -1.94318e-21)
(0.0984454 -0.153068 0)
(-0.000810211 0.00240962 -9.14416e-21)
(0.0549517 -0.0488996 -2.22479e-20)
(-0.0677604 -0.0814051 3.36727e-20)
(0.131952 0.0408245 0)
(1.84325e-05 0.00018811 5.98157e-21)
(0.046095 -0.0562022 1.53165e-20)
(-0.225031 -0.0543535 -6.46903e-22)
(0.00092259 0.000113096 -1.51163e-20)
(0.000185958 9.37849e-05 -1.04951e-21)
(-0.0345372 0.123391 1.55031e-20)
(0.000345398 -2.86539e-05 1.50513e-20)
(-0.0108636 -0.0195577 -1.1786e-20)
(0.0245564 0.0752187 -4.8966e-20)
(0.0111396 -0.00213128 -1.28907e-20)
(0.0424381 0.210141 0)
(0.027245 0.0708634 8.84424e-21)
(-0.00350506 0.000843166 2.37786e-20)
(0.203174 0.473129 -8.95909e-20)
(-0.00168946 0.00494762 -6.62251e-21)
(0.0182551 0.240147 -1.68423e-20)
(0.152783 0.103384 0)
(0.000387161 -8.42606e-05 -1.26103e-20)
(0.0463673 0.103227 0)
(-0.0053315 0.00371135 0)
(-0.181269 -0.109477 -1.50348e-19)
(0.0538508 0.0567758 -1.32422e-20)
(-0.153277 -0.0466308 0)
(-0.00386772 -0.00182929 -1.18273e-20)
(-0.00347303 -0.0191998 8.22829e-21)
(-0.00376435 0.00625683 -2.93654e-20)
(0.0650284 0.0628015 -6.05466e-20)
(-0.0766778 0.126314 0)
(0.0400641 -0.0382214 0)
(-0.0903933 -0.165748 0)
(0.148169 -0.00671618 9.414e-20)
(0.000309919 0.000104578 -1.91577e-20)
(-0.0017003 -0.354119 0)
(-0.00255765 0.00133365 0)
(-0.164851 -0.0464488 1.91985e-20)
(0.00093312 -0.000277064 5.61786e-21)
(0.00388345 0.000138253 0)
(-4.62749e-06 0.000376438 -3.14728e-20)
(0.0961618 0.0883628 -8.70062e-21)
(-0.106029 -0.0458611 -2.00032e-20)
(0.000519247 -0.00114536 0)
(-0.0749939 0.119224 -3.22613e-21)
(0.00240033 -0.00110895 -1.55685e-20)
(0.0656174 0.0840101 8.47673e-20)
(-0.034617 0.126525 1.40962e-21)
(-0.0468689 -0.0131491 2.65428e-20)
(-0.000736655 0.00192649 0)
(0.0241286 0.0543052 1.32819e-20)
(0.000592773 0.000335327 0)
(-0.000366987 0.0430032 1.85894e-21)
(0.000362965 -6.34012e-05 0)
(-0.00343741 0.0511756 0)
(0.00148857 -0.00026553 2.3791e-20)
(0.0461223 0.00424035 -5.6473e-20)
(0.00309186 -0.000368741 0)
(-0.00485052 -0.000288213 0)
(0.0429253 0.115774 -3.87481e-22)
(-0.000292641 0.00205441 8.80998e-21)
(0.000337648 -2.29516e-05 -1.55989e-20)
(0.000425278 -0.000176924 2.85774e-20)
(-0.00186668 -0.0259116 -1.75843e-21)
(0.0382741 0.120688 -3.00687e-21)
(0.00022364 8.81723e-05 -1.89606e-23)
(-0.000316867 0.000673922 -3.01482e-23)
(0.00307609 -0.00104487 -2.29372e-21)
(6.88868e-05 3.18129e-05 0)
(0.0633656 0.0268105 7.44458e-20)
(0.00844404 -0.117285 2.12119e-20)
(-0.165915 -0.128959 1.32621e-19)
(-0.025381 0.105005 -8.16161e-22)
(-0.174812 -0.0520593 0)
(0.0679262 0.203556 1.81078e-20)
(-0.098165 0.175281 7.15447e-23)
(0.0042096 -0.00722466 0)
(-0.00156213 0.00275767 -6.98221e-21)
(0.0760382 0.00251469 5.5538e-21)
(0.0258197 0.0678576 -1.02393e-20)
(0.000188553 4.53376e-05 9.67457e-21)
(0.0393167 0.106235 -1.98078e-21)
(-0.0391665 -0.00299492 0)
(0.0345577 -0.0578101 1.75478e-19)
(0.00155509 -0.0030142 -1.42998e-20)
(0.000132638 -0.00101901 0)
(-0.00425568 -0.00646132 -2.24942e-22)
(-0.00862225 0.0156475 0)
(-0.0133084 0.016454 2.11693e-21)
(0.000341951 -0.000326928 0)
(0.0315954 -0.0104623 5.81905e-21)
(-0.0335853 0.124991 -1.58784e-21)
(0.13716 0.103252 0)
(0.206146 0.000247151 0)
(0.0440281 0.111129 0)
(-0.00922588 0.00837156 -2.2282e-21)
(0.000185045 3.63654e-05 0)
(0.0318737 0.0835504 -3.80721e-21)
(0.00059727 0.000338951 5.91022e-21)
(0.000190172 6.80711e-05 1.05776e-21)
(0.0466435 0.046471 5.49782e-21)
(0.00757569 -0.111634 0)
(0.0470478 0.00762286 1.65241e-20)
(-0.00973628 0.0158897 -7.57852e-21)
(-0.0415969 0.113587 -1.16219e-20)
(0.144373 0.134087 -3.58653e-20)
(7.2266e-05 2.69049e-05 9.50245e-22)
(-0.0439836 0.0682201 -7.41514e-21)
(-0.0625142 -0.0979609 2.29216e-21)
(0.163803 0.433879 -4.33942e-20)
(0.000281999 0.000102124 -1.30794e-21)
(-0.0834405 -0.0434793 2.48657e-20)
(0.00051735 0.000265861 1.05407e-20)
(0.0494942 -0.0188739 2.5331e-21)
(0.000351213 -0.0001506 2.79684e-21)
(-0.0655275 0.105089 7.20032e-20)
(0.00245846 -0.00157706 1.89099e-20)
(-0.00292127 -0.0208997 3.8788e-20)
(0.050143 -0.118409 6.26233e-21)
(-0.0186806 0.27948 8.54877e-21)
(0.000338538 -4.99452e-05 -1.58103e-20)
(-7.7695e-05 0.00460955 2.69691e-20)
(-0.0428336 0.116441 0)
(-0.00811818 0.395201 -2.14799e-20)
(-0.00437531 -0.138577 0)
(0.0263408 -0.107355 0)
(-0.00454176 0.120887 -8.56549e-21)
(0.0215101 0.0700684 -5.44315e-21)
(0.0272165 0.20833 7.22003e-21)
(-0.129021 -0.0346196 -4.08986e-21)
(-0.145243 0.0893829 0)
(0.0167493 0.216739 -8.71628e-21)
(-0.0108712 -0.00081431 0)
(0.000355074 -2.3492e-05 -5.3394e-21)
(2.26214e-05 0.00320636 0)
(0.00631802 0.147873 0)
(4.98634e-08 0.00108956 1.55622e-20)
(0.0277746 0.0765529 3.54978e-20)
(-0.126387 -0.0636356 8.47612e-21)
(0.000475276 -0.00065643 0)
(0.0312743 0.0980916 -1.61721e-20)
(0.0483306 0.0991043 -1.96358e-20)
(0.0105916 -0.167725 -1.08833e-20)
(0.000328907 0.000291859 0)
(-4.1076e-05 0.000920623 -1.58332e-20)
(0.000345382 0.000386779 0)
(-0.149948 -0.0547523 1.01696e-20)
(-0.00982905 -0.0308684 2.1875e-20)
(0.000469692 -0.000106286 9.06221e-21)
(0.000289624 -0.00146078 6.89919e-21)
(-0.16797 -0.0350997 5.24885e-20)
(0.00039722 -3.27597e-06 0)
(0.0849958 0.0746462 -1.07588e-21)
(-0.0546251 0.0020904 -1.63118e-20)
(-0.000668649 0.00664859 2.88366e-20)
(0.0335497 -0.0133711 3.13468e-20)
(0.000562353 -0.000344015 0)
(0.00049233 5.84753e-05 0)
(0.000884855 -0.000705156 0)
(0.0199503 -0.00480278 -2.12353e-20)
(0.000412083 -0.00305375 -1.32172e-20)
(0.000209436 2.01796e-05 9.18696e-21)
(-0.100577 0.0675124 1.31749e-20)
(0.000452292 -5.97029e-05 8.09507e-21)
(-0.000659733 0.00209031 -1.68551e-23)
(-5.06543e-06 4.29404e-06 0)
(0.000336412 3.40772e-05 0)
(0.0175879 0.0549845 0)
(-0.033637 0.130972 8.6064e-23)
(0.000509046 -0.000162401 -9.9093e-21)
(-0.0675609 0.0229716 0)
(0.000695436 0.00112108 -4.38139e-21)
(0.000324513 2.23013e-05 0)
(0.00044071 -0.000154694 0)
(-0.011667 0.0233907 -3.81678e-20)
(0.00205637 0.01024 2.09493e-20)
(0.00421635 -0.00223999 0)
(-0.00825459 0.00668326 2.13872e-19)
(0.00050858 -0.000191653 -1.66566e-20)
(-0.145122 -0.218466 6.16803e-20)
(-0.0106831 0.00516859 3.07381e-20)
(0.0287584 0.381207 1.07699e-19)
(0.105526 0.131481 -3.26282e-19)
(-0.00448817 -0.00191648 1.13214e-19)
(-0.00849125 0.00127341 7.97593e-21)
(0.000159764 1.91563e-05 4.405e-21)
(-0.305867 0.211424 0)
(-0.141244 -0.068385 -3.25588e-20)
(-0.00787586 -0.0198021 0)
(0.000146437 -3.51333e-05 -6.03436e-21)
(-0.0493362 0.0450107 -7.59841e-21)
(-0.0675397 0.0540555 3.63122e-20)
(0.0363401 -0.0169823 3.22613e-20)
(0.000956617 -0.000639146 0)
(-0.00626304 0.00509388 4.65039e-21)
(-0.0326292 0.087322 -3.57174e-21)
(-0.0614451 -0.00462156 -2.44004e-20)
(-0.234974 -0.0671313 4.17805e-21)
(0.00229535 0.00164895 2.94222e-20)
(0.000345856 9.06266e-05 2.05347e-20)
(0.0285083 -0.0341931 0)
(-0.236485 -0.062856 6.60773e-21)
(0.0163256 -0.000495907 -6.99365e-21)
(0.00488066 0.211324 0)
(0.0148612 -0.0639391 -9.57371e-21)
(0.0185386 0.0669873 -2.47923e-21)
(-0.043982 0.360749 3.05522e-20)
(0.0513808 0.0766132 0)
(0.020451 0.00140287 2.33789e-20)
(0.00324987 -0.0014164 -5.95426e-21)
(0.0456262 -0.0340931 0)
(0.0380188 0.10395 1.64554e-22)
(0.00458512 0.00498257 3.62799e-21)
(0.00164698 -0.000988225 7.54795e-21)
(-0.115643 -0.0414381 0)
(0.0287774 0.141106 5.08915e-20)
(-0.00921728 0.0216279 1.14463e-20)
(-0.0590555 -0.109983 6.02111e-22)
(-0.00129234 -0.000172234 -2.44193e-20)
(0.000812878 0.00108937 -3.31019e-21)
(2.33362e-05 -1.79922e-05 0)
(0.103024 0.0109499 4.43955e-23)
(-0.034552 -0.154569 0)
(0.000407458 -3.05868e-05 0)
(0.146513 0.143298 1.49827e-20)
(0.00195611 -0.00222459 -1.19834e-20)
(-0.15196 -0.0144474 0)
(0.00050951 -0.000295046 0)
(0.000298182 6.06475e-05 0)
(-0.0900129 -0.0834174 0)
(-0.0778251 0.422095 0)
(-0.0252269 -0.00184331 0)
(0.0515528 0.0805066 2.56309e-21)
(-0.00278349 -0.432879 -3.83605e-20)
(0.0287941 -0.0124566 -2.25618e-20)
(-0.0990077 -0.0372718 1.81896e-20)
(0.0177245 0.00346654 0)
(-0.097086 -0.0703559 0)
(0.0392651 0.0732685 9.10899e-19)
(0.000288571 -3.4806e-05 -2.2519e-21)
(0.0266157 0.0667119 4.2885e-21)
(0.0121139 0.00146043 -1.59341e-20)
(-0.10145 -0.175853 -9.47203e-21)
(-0.00190395 -0.000190872 -3.01908e-21)
(-0.0668176 0.0398976 0)
(0.000114708 -3.36771e-06 1.86568e-22)
(0.000348617 -5.40255e-05 0)
(0.0286163 0.0899433 0)
(-0.106963 -0.158129 1.43361e-20)
(-0.0984039 -0.0304361 -7.10952e-21)
(0.02217 -0.0956107 4.11675e-22)
(0.100228 -0.178899 0)
(-0.0034507 -0.00720687 -1.04977e-20)
(0.0206724 -0.0943256 -4.60863e-21)
(0.0161084 0.0036646 2.93779e-20)
(2.81161e-05 -3.21369e-05 0)
(-0.0108739 0.0146699 0)
(0.000252497 5.92861e-06 -1.4997e-21)
(0.0256088 0.0785701 -2.29987e-20)
(0.0317162 0.0924652 0)
(-0.0829497 -0.0333755 -1.25748e-21)
(0.0283995 -0.209544 9.17375e-20)
(0.000101009 0.000174629 -6.25232e-21)
(-0.0183728 -0.2006 -5.9062e-20)
(0.0165339 0.00364936 0)
(-0.0784526 0.000940956 -1.3878e-19)
(0.105795 0.0386646 1.60972e-20)
(-0.00229584 0.00819179 1.13969e-20)
(0.000879514 0.000232636 -2.21824e-21)
(-0.00169182 0.00213321 -6.97676e-21)
(0.000816312 5.75794e-05 0)
(-0.220689 -0.0398246 -2.17117e-20)
(0.00146137 -0.000108546 9.91271e-21)
(-0.00127469 -0.397022 0)
(-0.00806601 -0.198794 1.62634e-20)
(0.0186932 -0.0291267 -4.21792e-21)
(-0.00832833 0.00493392 1.4398e-20)
(-0.00232731 -0.00162581 -1.39422e-21)
(-0.00941297 -0.396305 0)
(0.0236448 -0.0603958 1.03973e-20)
(-0.206893 0.0661294 -1.10486e-19)
(-0.00398453 0.00241607 -2.41755e-20)
(0.000409458 0.000144777 0)
(0.000429536 0.000475731 9.49422e-23)
(-0.129941 0.0197806 1.14795e-18)
(0.000734942 -0.000213098 -1.48051e-21)
(0.0118611 0.0371166 1.74227e-21)
(-0.0111722 -0.00464463 0)
(0.00179502 -0.00068935 6.97393e-21)
(6.6033e-05 2.2076e-05 -1.16048e-21)
(0.000388921 -0.000275267 0)
(0.000466053 -5.95612e-05 -8.36692e-21)
(-0.00291114 0.0005757 9.19004e-22)
(-8.0412e-05 -0.00260499 0)
(-0.00872978 0.0161065 0)
(0.129356 0.101566 -7.22083e-21)
(-0.0892178 -0.0277672 6.5056e-21)
(0.000622136 -1.31431e-05 0)
(0.0578729 -0.082364 -2.5394e-19)
(0.0478014 0.267664 0)
(-0.013344 0.0252092 -1.88803e-20)
(-0.0350633 0.10397 -1.74926e-20)
(0.00775271 0.00184393 2.69771e-21)
(0.00145168 -0.00320219 -4.6461e-21)
(0.0084313 0.00522108 -4.20014e-21)
(0.00276768 -0.00221517 -1.59338e-20)
(0.0168294 0.0676268 -1.37264e-21)
(0.00337268 -0.00402387 -1.7228e-21)
(0.114047 0.0122552 0)
(-0.0488495 0.0690584 -1.81236e-20)
(-0.102745 -0.325028 0)
(-0.00122554 -0.00365941 4.97932e-21)
(0.000360844 0.000396748 2.07214e-20)
(-0.104396 0.063412 1.6761e-20)
(0.00197362 -0.00120339 1.6219e-20)
(-0.0300542 0.0651576 0)
(0.000306397 0.00153597 1.98773e-20)
(0.00151926 0.000902811 0)
(0.149284 -0.12015 0)
(-0.00355189 0.00140745 3.42419e-21)
(-8.19627e-05 -0.000128026 0)
(0.0390619 -0.0529898 -3.08596e-20)
(-0.0317784 -0.0296547 0)
(-0.118061 0.0231376 9.76639e-21)
(-0.0549738 0.574529 5.46838e-20)
(-0.0897025 -0.206082 3.13053e-20)
(0.169687 -0.0547646 -8.55988e-21)
(0.000240648 -2.07993e-05 1.4799e-21)
(0.00015313 2.50739e-05 0)
(-0.00748501 -0.0066027 1.24166e-20)
(-0.245807 -0.000903046 9.86562e-20)
(-0.0580379 0.0308576 0)
(-0.00289207 -0.00147849 0)
(0.000486596 -0.00049107 1.16494e-20)
(-0.0213529 0.0731658 0)
(0.0153016 0.0492204 1.84089e-20)
(-0.000392454 0.00193653 9.05671e-23)
(0.00031931 -1.68438e-05 -1.34463e-21)
(-0.06723 0.332364 0)
(0.0421448 0.105553 -9.65825e-22)
(-0.0230534 0.0101051 0)
(0.00194478 -0.00114163 0)
(0.000226766 9.76475e-05 1.34787e-21)
(0.000793888 0.000905599 2.53917e-21)
(0.00116029 0.00168341 -1.76486e-20)
(0.00211126 -0.00262039 -3.89714e-21)
(0.000203224 7.98286e-05 0)
(0.00122198 -0.000848709 2.19914e-20)
(0.000614477 -0.00306798 8.21072e-21)
(-0.0387808 0.104394 9.98963e-21)
(0.00016465 6.56606e-05 4.99503e-22)
(-0.0362795 0.0158869 -2.84861e-20)
(-0.12745 -0.189505 0)
(0.00230391 -0.353543 -2.27663e-20)
(0.0345234 -0.0266389 4.64326e-21)
(0.00032066 -3.15041e-05 3.78678e-21)
(2.08107e-05 0.000440828 0)
(0.0388948 -0.100812 -1.85544e-19)
(-0.113528 -0.149936 -4.10714e-20)
(0.0477954 -0.12484 -9.92534e-21)
(-0.0527925 0.0540229 3.0819e-22)
(0.0199333 -0.0949099 0)
(0.00162899 0.166268 -1.99554e-20)
(0.000529876 3.49089e-05 1.69012e-20)
(0.0225562 0.0659596 0)
(0.00320623 -0.00711685 -3.09401e-21)
(0.0460962 -0.0287831 0)
(0.000344899 -3.66127e-05 0)
(0.0161089 0.0525609 -1.22592e-20)
(0.000768829 8.66062e-05 -1.12852e-20)
(-0.0094945 -0.0148149 2.57239e-20)
(0.00410157 0.0221542 2.14478e-21)
(0.0256108 -0.0811027 9.32688e-20)
(0.000325286 1.83178e-05 0)
(0.000447578 -0.000171884 1.01849e-22)
(-0.00199173 -0.00721007 -9.21623e-21)
(0.000324769 -2.49891e-06 0)
(-0.0904247 -0.0474506 -1.02691e-20)
(0.0523888 -0.0103146 0)
(-0.0988463 -0.271653 0)
(0.00868805 0.0243677 -1.56354e-21)
(0.000324607 -0.000801655 -8.67368e-21)
(-0.0102237 0.0300939 0)
(-0.00328636 -0.00125885 0)
(-8.7326e-05 -0.000122089 -2.90347e-23)
(-0.0499893 0.0270479 1.70626e-20)
(-0.100812 0.0941548 1.0793e-20)
(0.0397931 0.133105 -1.92896e-20)
(-0.0146934 0.231434 -4.27686e-20)
(0.0101587 0.059721 -4.79191e-21)
(-0.000730982 0.000199908 0)
(0.000138477 0.0172087 5.2187e-22)
(-0.117404 -0.347817 1.5126e-21)
(0.000127232 0.000131837 0)
(0.00130541 -0.0108076 0)
(0.0340296 0.154979 -2.99407e-20)
(-0.00189512 0.00197895 -3.18197e-22)
(-0.000226306 0.0036468 -7.31866e-21)
(-0.165006 -0.251506 1.6027e-20)
(0.0471741 0.0936096 3.36221e-21)
(0.000317904 -0.000133858 7.40247e-21)
(0.0230425 0.399344 8.9329e-20)
(0.000122503 0.000132907 0)
(-0.00816551 -0.0102331 2.22546e-22)
(0.071962 -0.00223832 1.25246e-19)
(0.00805635 0.0899484 0)
(0.0111633 0.0285707 -2.67437e-20)
(0.00217609 0.0412746 4.86853e-20)
(0.000248273 -2.1608e-05 -3.11098e-21)
(0.00328405 -0.0144474 -5.00286e-21)
(-0.000221074 -0.00264871 0)
(-0.0352796 0.105983 -3.67893e-21)
(-0.105236 0.027873 3.83299e-20)
(0.00108652 -0.00127974 -5.33369e-21)
(0.00655089 -0.358361 -8.85781e-21)
(0.0191073 -0.240315 6.10644e-20)
(0.0105449 0.0270014 0)
(0.000203493 8.42171e-05 0)
(0.00104302 0.00150198 -9.44914e-21)
(0.0271481 0.0573852 0)
(0.000349036 -1.30464e-05 1.57968e-20)
(0.0114061 0.0158778 0)
(0.0489061 0.100337 -1.96121e-20)
(0.0629376 0.0251592 0)
(0.000799414 -0.000386341 4.10309e-21)
(-0.130537 -0.178057 3.35215e-20)
(-0.165981 0.00683139 1.17946e-21)
(0.0945468 0.237307 -1.01027e-19)
(0.0136214 0.195093 2.16297e-22)
(0.0564953 -0.0825279 0)
(-0.000368453 -0.00173616 0)
(-5.05228e-05 4.38366e-05 0)
(0.00230158 0.00144859 -1.97847e-20)
(-0.00587911 -0.0123245 0)
(0.0199116 0.03189 3.4551e-22)
(0.0461528 0.107324 -4.79789e-21)
(-0.0376714 -2.98476e-06 -3.69389e-21)
(-0.0218041 0.0617502 4.86686e-20)
(0.0310335 0.191477 1.94926e-20)
(-0.00305095 0.127253 -4.01974e-21)
(0.0166483 0.0731221 0)
(0.000248904 -0.000158121 1.58179e-20)
(0.063897 0.38388 -1.10159e-19)
(0.000755147 -0.00207038 -9.11363e-21)
(-0.0279168 0.133653 1.11459e-21)
(0.0371052 -0.0448053 3.311e-21)
(-0.00258919 -0.000353438 6.15988e-21)