/*--------------------------------*- C++ -*----------------------------------*\
| =========                 |                                                 |
| \\      /  F ield         | OpenFOAM: The Open Source CFD Toolbox           |
|  \\    /   O peration     | Version:  v2012                                 |
|   \\  /    A nd           | Website:  www.openfoam.com                      |
|    \\/     M anipulation  |                                                 |
\*---------------------------------------------------------------------------*/
FoamFile
{
    version     2.0;
    format      ascii;
    class       volScalarField;
    location    "300";
    object      p;
}
// * * * * * * * * * * * * * * * * * * * * * * * * * * * * * * * * * * * * * //

dimensions      [0 2 -2 0 0 0 0];


internalField   nonuniform List<scalar> 
13308
(
0.0165723
-0.864299
-0.390821
0.00891223
-0.136961
0.00222001
-0.092506
-0.0718575
-0.111249
-0.201109
-0.0386125
-0.170593
0.00261014
-0.0119502
0.00171456
-0.37097
0.0191054
-0.792468
-0.12777
-0.156661
0.0224506
-0.437689
-0.164768
-0.100406
-0.364443
-0.394555
-0.110961
-0.0459103
-0.115624
-0.0638071
-0.486971
-0.0669625
-0.252553
-0.146083
0.0284754
0.0189135
-0.0955223
-0.157786
-0.0486992
-0.376985
-0.0284523
-0.0772086
-0.0132896
-0.00067672
-0.0418286
-0.111026
0.00136335
0.00855129
0.0121535
-0.391707
-0.00431354
0.00435135
-0.662931
-0.0739538
-0.322657
-0.380998
-0.000616262
0.00789169
-0.0746479
-0.0706068
-0.119971
-0.303072
0.00660266
-0.0381859
0.0161505
-0.247853
0.00877027
-0.104811
0.0151737
-0.0580773
-0.168858
-0.0455634
0.00179351
-0.0669215
-0.0888045
0.0155254
0.00659372
-0.390656
-0.0023047
0.022876
-0.012918
0.00730868
0.0158125
-0.0877069
-0.100674
-0.0749578
-0.289831
-0.207227
-0.0316846
-0.130345
-0.049763
0.0092873
-0.104452
0.022968
-0.00521048
0.0202224
-0.0805601
0.0228718
-0.127997
-0.0549071
-0.0475873
-0.0308242
0.014743
0.0230687
0.0266151
-0.611289
-0.39597
0.0150948
-0.410193
-0.388419
-0.0971859
-0.259012
0.0256287
-0.00252144
0.0259246
-0.124148
-0.114594
-0.0864976
-0.109074
0.0130546
-0.113737
0.0240757
0.02206
0.0199147
0.0289028
-0.010608
-0.106118
-0.103639
0.00152273
-0.32101
-0.130771
0.0275532
-0.0393632
0.020348
-0.117651
0.0197231
0.00743992
0.032033
0.04618
-0.0824363
-0.402974
-0.0950838
-0.0277935
0.0250006
-0.0711477
0.0399957
0.00247273
-0.122444
-0.0146837
0.0286367
-0.297143
0.0124979
-0.234981
-0.117823
-0.101411
0.0423258
0.0184297
0.0218649
-0.0290882
-0.0656173
-0.209658
0.00554727
-0.0267927
-0.294433
0.0402043
0.0186258
-0.441224
0.0217796
-0.407122
-0.144962
-0.0974506
-0.153297
0.0121738
-0.390994
-0.323628
-0.388239
-0.411847
-0.392575
0.0298341
0.0195653
-0.0873749
-0.830857
0.0105725
-0.194462
-0.223049
0.0192904
-0.383539
-0.434773
-0.0676157
0.0418219
0.0391872
-0.16311
-0.0699872
-0.133796
-0.0763462
-0.390203
-0.0956654
0.00257937
-0.134764
-0.0760846
-0.385052
-0.717684
-0.0544057
-0.120298
-0.324647
-0.132017
-0.356801
-0.0844526
0.0375557
-0.330791
0.0355589
0.0111603
-0.18839
-0.404343
-0.375629
0.0243727
0.0185649
-0.213113
-0.0559833
-0.089246
-0.051319
0.0115606
0.0390831
0.00111506
0.0241794
-0.389539
0.0331028
0.0338023
-0.388005
-0.138826
-0.368969
0.0261073
-0.387897
-0.10213
0.0169563
-0.190408
-0.91025
0.00800513
-0.094315
0.0267825
-0.0871286
0.0179888
0.022948
0.0011698
-0.0862555
-0.146616
0.00887293
-0.112729
0.00120348
-0.213886
-0.378945
-0.278686
-0.0301344
-0.31612
-0.146542
0.0250386
-0.238108
0.0109483
-0.128835
-0.384048
-0.061506
-0.102191
-0.187645
0.0232023
0.0373749
0.0257385
-0.118106
-0.0379304
-0.045205
-0.407225
0.00951667
-0.118537
-0.0115054
0.0442606
-0.00600589
0.0159183
0.0202647
-0.0479468
-0.141612
0.0426835
-0.376104
-0.0246556
-0.0251111
0.0258636
-0.366745
-0.00580145
0.0227571
0.0171293
0.0464294
-0.0334449
-0.0984687
0.0134116
-0.336275
-0.75983
0.0226388
0.0284784
-0.400332
-0.0561687
0.0445177
-0.389993
-0.275488
0.0305979
-0.398863
-0.11691
-0.116933
0.013338
-0.0739041
-0.39266
-0.117729
0.0190741
-0.0754707
-1.00215
-0.102458
-0.0533621
0.0190903
-0.332814
0.0195286
0.0226463
-0.0247931
-0.338631
-0.0297843
0.00726676
-0.330883
0.00767336
-0.346479
0.0255666
0.0259836
-0.0470663
-0.044567
0.0176735
-0.324736
-0.000363478
-0.120858
0.0169206
0.0117029
0.0408568
-0.386314
0.0222519
0.0313746
-0.102701
-0.129214
-0.0467325
-0.00820758
-0.140562
0.0438453
-0.0443063
0.0416366
0.0389924
-0.0296152
0.0227215
-0.191708
-0.140415
-0.0800297
0.0135241
0.0123901
0.0178277
-1.27636
0.0119979
0.0437343
-0.137969
-0.0225598
-0.113383
-0.144274
0.0132131
-0.745696
-0.356126
-0.00881768
0.000849206
0.00919691
-0.143601
-0.390488
-0.793723
-0.0999239
-0.00344886
0.00939912
0.0402791
-0.280573
-0.317168
-0.0128558
-0.0454335
-0.0378184
0.0175636
-0.0426704
-0.152097
0.0201869
-0.779833
-0.252857
-0.0629944
0.00940597
-0.172273
0.022107
0.0185795
0.0112175
-0.375087
-0.0693569
-0.0523942
-0.0692375
0.014014
0.044966
-0.0599566
-0.0591617
0.0195727
-0.0562558
-0.353959
0.00115552
0.0308865
0.0181736
0.0218613
-0.12548
0.0308403
0.0187068
-0.0945022
0.0394813
0.0139489
0.00928498
-0.151972
-0.0354551
0.00964317
-0.0670295
0.042888
0.0471681
0.0107727
-0.124445
-0.0207157
0.0262573
-0.397573
-0.0924874
-0.0742466
-0.0916548
-0.03314
-0.0124431
0.0205598
0.0149093
-0.0483238
0.021185
0.00693939
-0.27041
0.00870484
-0.0969161
-0.376152
-0.415778
-0.336557
-0.400644
0.0111186
-0.91424
-0.139146
-0.145607
-0.645611
0.0104973
-0.196208
0.0155829
-0.0818119
0.0402496
-0.415334
-0.10201
-0.0799705
-0.154367
0.0416163
-0.164871
-0.0519309
-0.0528644
-0.964512
0.00555282
-0.218943
0.012387
-0.416433
0.0221676
-0.0200547
0.00216565
-0.411419
-0.0960713
-0.0458761
-0.155556
-0.0320385
0.0390442
-0.331478
0.0334453
-0.0919526
0.0150756
-0.00711064
0.00211507
-0.0292704
0.00413936
0.0214034
-0.00498484
-0.0228531
0.0126174
-0.00233433
-0.0953119
0.00737632
0.0110136
-0.0734489
0.0039631
0.00689537
0.000874462
-0.0252848
0.00201977
-0.0657313
-0.142613
-0.0812003
-0.182558
-0.41334
0.00639343
-0.0895962
-0.0612888
0.0247857
-0.00607426
-0.401413
0.0190368
-0.407212
0.0320868
-5.61725e-05
-0.0456219
0.0228019
-0.0954048
-0.180889
-0.172677
-0.0220585
0.0198505
-0.343754
0.0261778
-0.0832011
-0.206645
0.0177807
0.0181669
-0.324348
-0.00642349
0.00722491
-0.0220661
-0.020155
-0.0067626
-0.178327
-0.315075
-0.516676
0.0189186
0.0387405
-0.0271526
-1.2897
0.0067037
-0.0882565
-0.00220668
0.0150429
-0.0305048
0.0273441
-0.0426057
-0.348152
-0.137141
-0.179902
0.00807922
0.0229198
-0.314096
-0.168931
-0.152818
-0.0310603
-0.382504
0.0127798
-0.308771
-0.396341
-0.0632509
-0.313264
0.0237064
-0.0308438
0.0230182
0.0433469
-0.000453598
-0.311196
-0.409378
-0.0474677
-0.175986
-0.172625
-0.159169
0.00169005
0.000445671
0.000961444
-0.0630286
-0.0936336
0.0136332
-0.0578623
-0.0569951
0.0151452
-0.393629
0.0364463
0.0092359
-0.0315889
-0.0368654
-0.00300296
-0.0261448
-0.0215195
-0.0708346
0.0183105
-0.0773128
0.0143159
0.000968158
0.000798419
0.0063513
-0.410104
-0.329048
0.0130282
-0.381253
-0.0757731
0.00695175
0.011437
0.0266955
0.0298912
-0.0315233
-0.147899
0.0144088
-0.158727
0.022394
-1.46896
-0.926708
-0.150198
-0.136716
0.0173191
-0.315537
-0.0712286
-0.0780101
0.0150224
-0.0220555
0.0316975
-0.0197456
-0.0261487
0.0153857
-0.0673542
0.0355649
-0.375055
-0.0144921
0.00498298
-0.0441986
-0.378488
0.0275689
-0.288671
-0.0132146
-0.379257
-0.191995
-0.0189528
-0.0180081
-0.0406452
-0.91272
-0.411286
0.0183254
-0.0239758
-0.402651
0.0244452
-0.19632
-0.0336712
-0.105476
-0.0608485
0.000692698
-0.0557048
-0.122405
0.0143672
-0.530253
-0.0448084
-0.0560114
-0.0350665
0.00239677
-0.0990764
-0.556734
-0.13128
-0.0124334
-0.180774
-0.0283806
-0.0994823
0.0273228
-0.0970732
-0.887601
0.0107535
-0.370019
-0.415458
-0.158199
0.0117456
0.0335501
0.00292553
0.00933041
-0.409023
-0.142252
-0.1025
-0.0437842
-0.159454
-0.0915026
0.00605953
0.0295339
0.000898199
0.0243668
0.00888217
-0.408791
-0.409388
-0.107669
-0.134249
0.0205558
-0.156014
0.0299937
-0.123402
0.00178815
0.00869989
0.0166115
0.0243336
0.0164059
-0.0413349
0.0179752
-0.218771
-0.127208
-0.0485236
-0.13525
0.0104196
-0.220771
-0.0137143
-0.127779
0.0126927
0.000469959
-0.00145229
-0.357846
-0.0197967
-0.269007
-0.118848
0.0184982
0.0187257
-0.0316066
0.0143971
0.0117064
-0.0894401
0.0195118
0.0296006
-0.103465
-0.0131575
0.000434755
-1.13553
-0.192985
-0.346031
0.0187383
-0.04758
0.0186845
-0.031979
-0.384655
-0.0574641
-0.0064591
0.0338026
-0.184469
-0.0955085
0.000181289
-0.113285
-0.0306224
-0.38863
-0.004715
0.022356
-0.126982
0.0137783
0.00966715
-0.0518968
-0.106066
-0.360731
-0.928966
-0.322259
-0.144962
0.0113215
0.0194139
-0.108124
-0.1
-0.155245
0.0127542
-0.0437927
0.0505097
-0.410357
0.0012164
-0.030562
-0.5746
-0.408568
-0.151024
-0.0307271
0.0073976
-0.00700144
-0.00882297
-0.0975646
0.00750874
-0.0479537
0.0180289
-0.341758
0.00655657
0.0394419
-0.152841
-0.131192
0.0172263
0.00912428
0.00235745
-0.13512
-0.133828
-0.0343932
0.0385354
-0.0146545
0.0346063
-0.00289011
-0.409348
-0.0553378
-0.544788
0.0101361
-0.363577
-0.0105109
0.0229891
0.00373666
0.0118844
-0.0305486
0.0124247
-0.0887447
0.0109034
-0.409472
-0.590963
-0.208139
0.0303168
0.0228281
-0.319689
0.0123892
0.00996101
-0.0378464
-0.142256
0.0110987
-0.0804157
-0.373501
-0.0721828
0.00288987
-0.191771
0.0198286
-0.0659953
-0.350032
0.000505337
0.0243063
-0.165878
-0.400824
-0.034
-0.798489
0.0196895
-0.102612
-0.00126761
0.0261391
0.0116964
0.0320552
0.0119878
-0.0642821
-0.070737
-0.0603757
-0.347274
-0.0227884
-0.15741
-0.103013
-0.256748
0.00707382
0.0220392
-0.359065
0.0117399
0.0114956
-0.0117524
0.0176307
0.0203364
-0.144786
-0.0578049
-0.783613
-0.073038
0.0146203
0.0091601
0.000873956
-0.012591
0.0235304
-0.409335
-0.408099
0.0401749
0.0471512
-0.0122024
-0.377486
-0.370506
-0.0339957
-1.30625
-0.0654412
-0.325869
-0.0551575
-0.0756549
0.0176356
-0.0614739
-0.2755
0.00620063
0.0149135
-0.398642
-0.182237
-0.123009
0.0418699
-0.115336
0.0119905
0.00904904
-0.803502
0.0120372
-0.222949
0.00950156
-0.0280146
-0.0397141
-0.120747
-0.406363
-0.0321791
-0.0744517
0.00691162
-0.0257312
0.0254833
0.0180384
-0.257062
0.0189483
0.0187556
-0.363573
0.00448951
-0.0275102
0.00673779
-0.0917945
0.00742669
-0.004063
-0.388359
-0.405488
-0.114234
0.00872339
0.00844282
-0.133407
-0.119138
-0.413677
-0.0286623
-0.159098
0.00673419
-0.0911247
-1.39353
-0.0220803
0.0103733
-0.0905105
0.019975
0.00455239
0.0152176
0.00884237
-0.180465
0.0198792
-0.0529009
-0.172844
0.03351
-0.0307511
0.0102655
-0.0252533
-0.0123253
-0.0248725
-0.00952564
-0.422824
-0.881432
-0.0296267
0.0090792
-0.108473
-0.27
-0.136043
-0.0719584
-0.046113
-0.0154153
0.010882
0.0158546
-0.646627
-0.0170967
0.017495
-0.109658
-0.0271496
-0.249855
0.0212183
0.012502
-0.104214
0.0222047
0.0312357
-0.0767671
0.00885745
0.0199689
0.01331
0.0267352
-0.0338849
-0.0627021
0.00631811
-0.153037
0.00170892
0.0148224
-0.00738013
-0.00528078
-0.0676074
-0.0908555
0.0302174
0.00418507
-0.136848
0.0224134
0.00709505
-0.0142081
-0.0245957
-0.0316492
-0.0300414
-0.0500769
-0.186038
-0.192466
-0.195791
-0.419506
0.0177445
0.0199724
-0.0922702
-0.0495026
-0.0630478
-0.0694168
0.038471
0.0192655
-0.0429832
-0.315829
-0.0628509
-0.0321675
0.0357416
-1.04963
0.0226006
0.0140192
-0.042102
0.0303359
0.0240314
0.0177806
-0.394086
-0.146677
-0.055428
-0.132443
-0.0393092
-1.2438
-0.0402867
-0.0722785
0.024282
0.00698566
-0.0230914
-0.369369
0.0293495
0.032432
-0.0830017
0.0152373
-0.308581
0.0194788
-0.00133901
0.0191862
0.020475
0.0189882
-0.343777
-0.81604
-0.0408096
-0.367259
-0.0565114
-0.423038
0.0217539
-0.0360781
-0.00295781
-0.0628639
-0.0793242
-0.0153605
-0.0117911
-0.657558
0.019528
-0.0924273
-0.378576
-0.12607
-0.000952273
-0.0337117
-0.170404
0.0159388
-0.000721292
0.0147598
-0.401728
0.0162463
0.0129555
0.0441025
0.0282152
0.0254569
0.00927371
-0.409246
-0.0308771
-0.0253645
-0.401719
-0.384337
-0.0740315
-0.0470329
0.0242865
-0.0108439
0.0340554
0.0243014
-0.364716
0.0183751
0.0532496
-0.0719578
0.016765
0.0202458
-0.348792
-0.151195
-0.347025
-0.121863
-0.395618
-0.378164
0.00516016
-0.233545
0.0302924
-0.0607421
-0.0132263
-1.04821
0.00669525
-0.162449
0.0120282
-0.0272374
-0.320941
-0.0617352
0.0154294
-0.409732
0.0158476
-0.0909726
-0.0561813
-0.165999
-0.400674
-0.0381931
0.000984153
-0.0758637
-0.389259
-0.0384687
0.0321932
0.0192776
0.022151
0.0179903
-0.0534431
0.0510967
0.00788008
-0.176039
0.0151485
-0.0794416
-0.674191
-0.0866963
-0.193586
0.00111488
0.0133913
-0.407596
-0.0368515
0.00163784
-0.342942
-0.998875
-0.0465278
0.0136202
0.0223475
-0.0757988
-0.175115
-0.154863
-0.106634
-0.0686478
-0.0779467
-0.348154
-1.35641
0.00786425
-0.103174
-0.125038
0.0103972
-0.0833328
-0.0494061
-0.0275098
-0.0425759
0.0160572
-0.0681673
-0.0593265
-0.0205991
0.0204793
-0.113835
-0.0949292
0.0258543
0.0119929
-0.111226
0.0228082
-0.000100008
0.0126407
-0.061899
-0.0436425
-0.0484253
0.0245994
-1.27581
0.00171673
-0.381163
-0.396507
-0.134618
0.003555
-0.0288682
0.0213764
0.0112739
-0.0677995
0.0259277
-0.412247
-0.0031709
0.0228487
0.0258398
-0.164844
-0.113607
-0.382449
-0.995865
0.00644909
0.0187611
0.00900759
0.0307099
-0.0166668
-0.0473598
-0.0647513
-0.116433
0.0205458
-0.016576
-0.0292921
-0.190943
-0.0625265
-0.0493113
0.030495
-0.0267082
0.00814573
-0.0349097
-0.0483656
-0.380474
0.0288669
0.0177616
-0.0184221
-0.0414025
-0.409603
-0.0446651
0.00389903
0.0280865
-0.0077639
0.020543
-0.134478
-0.188805
-0.0724019
0.010182
-0.337229
-0.182463
0.0141377
-0.0517043
-0.360208
0.0284204
-1.08081
-0.0142456
-1.24528
-0.186487
-0.638871
-0.0502438
-0.0549662
0.0229956
-0.207766
-0.409825
-0.2246
-0.00887374
-0.319821
0.0316569
-0.166597
-0.360792
0.0212396
-0.0161766
0.0278005
-0.85034
-0.126165
-0.411776
-0.0600623
-0.36813
0.0208159
-0.366055
-0.0449027
-0.421959
0.00941566
-0.0857368
-0.327693
-0.202658
-0.0530055
-0.0848213
0.0151707
-0.0262822
-0.403721
-0.0585797
-0.0208787
-0.218157
-0.0334891
-0.0284381
-0.01929
0.0198249
-0.0731204
-0.106288
-0.0517358
-0.0134079
-0.336638
0.0239029
-0.132126
0.0141457
0.00310476
-0.234527
-0.372234
-0.0773388
-0.413732
0.0214715
-0.0199869
-0.0285177
0.0150837
-0.264639
0.000745006
-0.611371
-0.733724
0.017952
-0.17158
0.00103347
-0.34392
-0.326159
-0.363488
-0.0631007
0.0153021
-0.21884
-0.024956
-0.142372
-0.0212386
-0.0167417
-0.151799
0.0220609
-0.0713278
0.0401907
0.00914789
0.0129251
0.0232164
0.0116166
-0.442704
0.0185798
0.00767619
-1.31233
-0.188752
0.0379091
-0.0205594
-0.375086
0.00720265
-0.403555
-0.0668106
-0.0503317
0.0188907
-0.0308399
-0.00661173
-0.403371
0.0166625
-0.00988133
0.0302498
0.0145804
-0.0772762
-0.38382
0.0142248
-0.209599
-0.0569374
-0.014734
-0.183852
0.0200269
-0.0829487
-0.432982
-0.00140407
0.0121893
-0.00600414
-0.0453515
-0.101903
0.00123201
0.0120328
-0.419566
-0.0438725
-0.0555862
0.00117675
-0.0103024
-0.131231
0.0173963
0.018761
-1.34007
0.0141547
-1.18414
-0.010582
-0.140539
0.0206389
0.000679309
0.0257775
-0.200734
-0.485601
0.0193798
0.0281454
-0.0216644
0.0193088
-0.0132589
-0.00349118
-0.0339606
-0.37122
-0.0115521
0.0291725
-0.0314868
-0.293537
-0.159106
0.0156034
-0.159441
0.0205703
0.0200228
-0.0162029
-0.177533
0.000211714
0.0307089
-0.281066
-0.035403
-0.0316818
-0.297006
0.0325657
-0.103343
0.0244541
0.00205336
-0.32387
0.0208178
0.0201449
0.0236444
0.0438099
-0.149176
-0.845139
-0.0879584
-0.404589
-0.0237035
0.0384099
-0.033288
-0.0800171
0.00091494
-0.402211
-0.220608
-0.0412903
-0.0312921
0.0123058
0.0122289
0.0147827
-0.182135
0.0209695
0.0105912
-0.140111
0.0141959
-0.185178
-0.510644
-0.212141
0.025663
-0.403478
-0.0495856
-0.418117
0.0228381
0.0324995
-0.120667
-0.0186736
0.02271
-0.0977146
0.00991394
-0.0794863
0.0228495
-0.0909231
0.0176804
-0.00686555
-0.145723
-0.0793149
0.0100729
0.00910829
0.0222166
-0.181565
0.0165117
-0.0767195
0.0178492
-0.237994
-0.327283
-0.2303
-0.0043877
0.0158478
-0.163346
0.0123947
-0.0915218
-0.0758797
0.0357528
-0.0328111
-0.495192
-0.0215236
-0.304391
0.0167163
-0.320248
-0.0390679
0.0288961
0.0234548
-0.103386
-0.288931
-0.00509749
0.0161504
-0.101223
-0.129463
-0.0377824
0.021351
0.00583138
-0.137616
-0.0664541
-0.37086
0.0375444
0.00993497
0.00895388
-0.122641
0.0134127
-0.0720526
0.0163385
-0.342013
-0.394403
-0.099947
0.0170488
0.000210641
-0.644221
-0.11783
0.0160768
-0.294987
-0.17342
-0.0450186
-0.0617668
0.0163511
-0.11451
-0.0608809
-0.122604
-0.04723
-0.019697
0.0349847
0.00853993
-0.357834
0.0146194
0.0320343
0.0110684
-0.227096
-0.412302
-0.0601589
-0.137951
0.0183868
0.0168936
-0.315433
-0.258695
-0.315294
-0.217381
-0.365763
0.0214617
-0.395875
-0.0889726
-0.00148458
0.0210876
0.0238377
0.0108808
-1.41216
0.0158783
0.0245254
-0.0777911
-0.380197
-0.0919315
-0.0410042
-0.0283843
-0.325791
0.0314835
0.0422413
-0.0293937
0.026448
0.00678927
0.0191989
-0.0386733
-0.0643513
-0.0104727
-0.0394628
-0.0144941
0.00520352
-0.0871574
-0.299693
-0.234305
-0.0758082
-1.42342
-0.252586
-0.365483
0.00751428
-1.23202
0.0265068
0.0318677
0.018128
-0.0682972
0.0131966
-0.0102073
-0.0305328
0.014701
-0.0355785
0.0106756
0.0171749
0.00759565
-0.421126
-0.395355
0.0111846
0.0215556
-0.0518178
-0.0220889
-0.380579
-0.0299201
0.0219202
-0.1688
-0.234647
-0.0233274
0.0191103
0.0192272
0.0270213
-0.306977
-0.175065
-0.398077
-0.123405
0.00400722
-0.07275
-0.20025
-0.0732451
0.01312
-0.157531
0.0178708
-0.05847
-0.0276171
0.0418372
0.0101306
0.0182365
-0.420043
0.023517
-0.110845
-0.336871
0.0176987
0.0292247
0.010897
0.0224286
0.0187574
0.00980827
-0.0305745
-0.0830336
-0.192181
-0.0213572
0.021481
-0.0320302
-0.40843
-0.403785
0.0227863
-0.0127704
0.0211049
0.0215616
0.0220885
0.0189898
0.00701709
-0.0696827
-0.0301499
0.0146009
-0.381239
0.00321992
0.00323772
-0.133083
0.019628
0.0168674
-0.0989341
0.0309265
0.012228
-0.0134278
-0.447136
-0.110467
0.0211891
0.000732741
-0.00784155
0.0225227
0.0214183
-0.212203
0.0120548
0.0212363
0.00877142
-0.209913
-0.300282
0.0221415
-0.0739131
0.0081517
-0.353518
-1.17281
0.00498423
-0.0211322
-0.0895646
0.0216025
-0.118207
-0.561239
-0.0167634
0.0234091
-0.304841
-0.116855
-0.148997
0.0170612
-0.114777
0.0156864
-0.309659
-0.37377
-0.0304379
0.0229396
-0.361452
0.0263794
-0.862832
-0.00890185
-1.09333
0.0261099
-0.0242767
-0.0108513
-0.405056
-0.069661
-0.152635
0.0307291
0.00256364
-0.305838
-0.0512951
-0.121182
0.0355338
-0.0601333
-0.664763
-0.027073
-0.290891
-1.20572
-0.405365
-1.24983
-0.153131
-0.352657
-0.376874
0.0193825
-1.05115
-0.304222
0.006263
-0.0879729
0.0192776
-0.372377
0.0288157
-0.00137759
-0.409224
-0.0324992
-0.374835
-0.136395
-0.0356451
0.0197195
-0.0745467
-0.121389
-0.40863
-0.0203717
-0.180625
-0.034257
-0.123966
0.0292891
-0.408758
0.0034305
-0.0219046
-0.208657
-0.0238311
-0.144874
0.0232221
0.00880829
-0.364567
0.0164653
0.054359
-0.125951
0.0215786
-0.120856
-0.0100306
0.0101102
-0.387479
-0.306477
0.0105109
-0.171905
-0.094458
-0.0794078
-0.757496
0.0188117
0.00625753
-0.0113219
-0.123702
0.00830787
0.0300706
-0.020916
0.00877853
-0.199913
-0.408014
0.00798041
-0.0722648
-0.145386
-0.0681992
-0.482449
-0.0586036
0.031485
0.00178385
-0.153815
-0.418292
0.019735
-0.162623
0.0181589
-0.104938
-0.0590968
0.0280468
-0.27417
-0.0733755
-0.0277045
0.0547887
-0.00609939
-0.155074
-0.197116
-0.334849
0.00328831
-0.408021
-0.0808736
-0.120461
0.0175155
0.00797662
0.0103189
-0.0853413
-0.103141
-0.0217153
-0.134999
-0.426836
-0.15706
-0.0436827
-0.148884
-0.11258
0.0279011
0.000283816
-0.0421984
-0.401959
-0.0470109
-0.247026
0.022186
-0.01117
-0.0270971
-0.362125
-0.518585
0.0194602
0.0273358
0.00689304
-0.870813
-0.204616
-0.407267
-0.297008
-0.344681
-0.167555
0.0242951
0.0285237
-0.294915
0.0285956
0.0054778
0.00995391
0.0268178
0.00645319
-0.111389
-0.337192
-0.0962312
0.0161866
-0.0196842
0.0167167
0.0458455
-0.105288
-1.4201
0.00226981
0.0220783
-0.182964
-0.0666447
0.0191474
-0.0686596
0.020354
-1.28879
0.00929927
-0.0492865
-0.0855114
-0.571366
-0.10728
-0.156733
-0.290416
-0.0260506
-0.180217
-0.0546508
-0.395037
-0.417469
0.0165602
0.0184417
-0.0629749
-0.39506
0.0495138
-0.138231
-0.217442
-0.0503788
-0.417158
0.0155216
0.00870624
-0.369664
-0.272164
-0.0385413
0.0277432
-0.152309
0.0221512
-0.40222
-0.308025
0.0198315
-0.396813
0.0100936
0.0288056
-0.409775
0.0196082
-0.243673
-0.178713
-0.395891
-1.02268
0.00845473
0.0174083
-0.117258
-0.0375885
-0.333643
0.0114305
-0.13928
-0.386396
0.00722088
0.000635635
-0.264283
-0.042622
0.0158491
0.0238174
-0.126407
-0.407931
0.0193745
-0.0418577
-0.370093
0.0217896
0.0485027
-0.0427864
-0.357116
-0.0835841
0.0200638
-0.30781
0.0249363
-0.0682383
-0.032053
-0.0554781
-0.382181
-0.0278
-0.0424559
0.0109065
-0.931294
0.0319302
0.0260467
-0.367322
-0.293711
-0.397421
-0.101021
0.0215422
-1.16184
-0.0668257
0.0247776
0.0227418
-0.0149469
-0.134912
-0.0829877
-0.00450224
-0.0201141
-0.0656489
-0.0744658
-0.452699
-0.40726
-0.0646043
-1.22164
-0.0967788
-0.118139
-1.35987
0.0203026
0.0219499
-0.0171872
-0.0339195
-0.850073
-0.379388
-0.821105
-0.422069
-0.431558
-0.400233
-0.20655
-0.029977
-0.101566
-0.165355
0.0149652
0.0262469
-0.114674
0.00435424
0.0217242
-0.303794
-0.374185
-0.361993
-0.0643114
-0.0574738
-0.302402
-0.0852621
0.0335732
0.00878747
-0.0442897
-0.402269
-0.78171
-0.0840515
0.0265053
-0.329961
-0.326086
0.0218288
-0.13598
0.0271376
-0.08644
-0.0681552
-0.0239851
0.0154809
-0.4942
-0.0554488
-0.00395529
-0.0996972
0.025112
-0.0157262
-0.407024
-0.384164
-0.40501
0.0283067
-1.08022
0.0191826
-0.14179
-0.41339
-0.0364881
-1.32157
0.0193477
-0.361895
-0.0659078
-0.318501
0.020596
0.0238402
0.0225189
-0.168639
-0.0278445
-0.0290482
-0.318301
-0.05695
-0.406725
-0.394508
-0.398876
-0.128328
-0.0371733
0.0186149
-0.333458
0.0202284
-0.00384512
-1.40755
-0.0237041
-0.341267
0.0309791
-0.0400626
-0.353474
-0.0655416
0.0183321
-0.258995
-0.283665
0.0213733
-0.343045
-0.0319008
-0.00936277
0.00086382
-0.391609
-0.244197
-0.39173
-0.39886
-0.011548
0.0301287
-0.296437
0.0249187
-0.155061
0.0206474
-0.217917
0.0278011
-1.38526
0.0154316
-0.367583
-0.0350656
0.028012
-0.0872025
0.0254662
-0.349928
-0.10007
0.0411572
-0.146845
0.0250408
0.0238964
-0.387411
-0.371431
-0.0629766
-0.153954
-0.362379
-0.266139
-0.235072
0.0129153
-0.0222579
0.0334806
-0.0387133
0.0189116
-0.109513
-0.29179
-0.466391
-0.0403718
-0.401986
-0.100748
-0.221343
-0.403778
-0.152222
-0.0321985
-0.342875
-0.229836
-0.188344
-0.0702154
-0.426831
-0.174318
0.0301611
-0.383101
0.00630978
-0.34592
-0.360091
-0.374946
-0.305731
-0.350793
-0.299054
0.026454
-0.407782
0.0280246
-0.407015
-0.0449236
-0.0527868
-0.0484708
-0.416341
-0.424667
0.0133848
-0.0114447
0.0342248
0.0240247
0.00975173
0.00898655
-0.438502
-0.0232607
-0.386636
-0.261948
-1.25422
-0.41999
-0.00300031
-0.292048
-0.106702
-0.109914
-0.31001
0.0185557
-0.423391
-0.222276
0.028716
-0.405822
-0.414291
0.0337995
-0.423034
-0.0296898
-0.0699383
0.017224
-0.334258
-0.211512
-0.0955132
-0.40652
-0.370018
-0.0865007
-0.0862588
-0.0266722
0.00864035
-1.08942
0.022064
-0.407836
-0.0375479
-0.39366
0.00714586
-0.0511333
-0.0583399
-0.562217
0.0252043
0.00654294
-0.270417
-0.107574
-0.402663
-0.398807
-0.0541529
-0.311515
-0.363875
0.0146988
-0.210649
-1.19607
-0.0583642
-0.375944
-0.0320643
-0.864125
0.0200398
0.00786984
0.0186931
-0.330391
-0.324856
-0.131946
-0.501596
-0.255053
0.023788
-0.248271
0.0153519
0.0150683
-0.96637
-0.397295
0.0100654
-0.233839
-0.0693949
-0.586677
-0.352648
-0.268575
-0.21981
-0.119131
-0.422264
0.0275594
-0.250531
0.0106834
0.0255118
-0.445118
-0.093668
0.0432107
-0.0233271
0.0197775
0.0174659
0.00634605
-0.0463753
-0.406633
-0.222654
0.0152107
0.00207599
-0.293201
0.0250713
-0.0665947
-0.336507
0.0184961
0.0328744
0.0165275
-0.0876055
-0.0267266
0.0360988
0.0158928
-0.0411067
-0.279525
0.0167076
-0.263217
-1.40196
-0.39368
-0.141457
-0.0848625
-0.411097
-0.107925
-0.387835
-0.029211
-0.0109356
-0.366116
0.00105971
-0.408765
0.00331899
-0.287487
-0.247753
0.0124887
-0.352772
-0.412238
-0.252123
-0.189926
-0.407539
-0.405749
-0.418065
-0.0368044
-0.00418464
-0.0745111
-0.295631
-0.36918
0.019729
-0.135668
-0.0119604
-0.422273
-0.394626
-0.729579
0.0190333
-0.124303
0.0237875
-0.0191064
-0.121092
-0.12293
0.026427
0.0243255
-0.0964462
-0.371762
-0.113915
-0.104263
-0.260594
0.0305666
-0.0489796
-0.4031
0.0209431
0.0220671
-0.282274
-0.146045
-0.0775858
-1.30816
-0.274302
-0.0991179
-0.2421
-0.113221
-0.210108
-0.0585077
-0.406325
-0.367615
-0.361894
-0.102273
-0.126123
-0.03324
-0.395811
-0.172467
-0.407689
-0.0573755
-0.353615
-0.143241
-0.132255
-0.0439953
-0.0154851
-0.0426349
0.00104786
-0.408247
-0.411228
-0.172815
0.00470026
0.023053
-0.264323
-0.209619
-0.0654594
-0.00428112
0.0111177
-0.33047
0.000282796
-0.0233384
-0.401061
-0.0469406
-0.0886239
-0.362516
-0.168902
-0.409884
0.00794202
-0.049768
-0.364344
-0.00785608
0.0345031
0.0125746
0.0250799
0.0253162
0.01038
0.027401
0.0256058
-0.0642696
-0.00479547
-0.414904
-0.172589
-0.369479
-0.206764
-0.422252
-0.246373
-0.0084863
0.022192
0.0288968
-0.0982095
-0.399659
-0.289397
0.0171294
-1.35635
-0.0691251
0.00805268
-0.158965
0.0134256
-0.40964
-1.26636
-0.136433
-0.189564
-0.427983
-0.25728
0.00196609
-0.118488
-0.143797
0.0220642
-0.166395
-0.173029
-0.0795421
-0.528131
-0.409353
-0.273305
-0.312741
0.0194374
-0.386856
-0.316414
-0.290569
-0.0780295
-0.412562
0.00787144
-0.119428
-0.0898483
-0.196399
-0.0982355
0.0194798
0.0262064
-0.397736
0.0261595
-0.362672
-0.598213
-0.000329126
-0.234723
0.0148538
0.0329033
-0.0640982
0.0327897
0.00651771
-0.390099
-0.026123
-0.0368261
0.0199282
-0.243072
-0.303444
-0.0996926
-0.404997
0.0240419
-0.372174
-0.0578295
-0.325815
0.0263454
0.0274346
-0.385971
-0.419875
-0.106125
-0.0898652
-0.10091
-0.112122
0.00452571
0.0120573
-0.291283
-1.367
-0.419189
0.00714158
-0.0313761
-0.42646
-0.18438
0.0149387
-0.0993179
-1.12078
-0.143492
0.000965939
-0.0390934
-0.3899
-0.0186818
-0.306822
-0.409109
-0.00204964
-0.123312
-1.27314
-0.170925
-0.056375
-0.0685608
0.021781
-0.0285294
-0.957814
-0.0365284
0.0223789
-0.0827406
-0.102572
-0.212527
-0.242037
-0.201451
-0.172187
-0.211579
-0.036258
-0.0182077
-0.404807
-0.381869
0.038183
-0.0316876
0.0275741
-0.124909
-0.0275816
-0.151224
-0.455536
-0.0445951
-0.0519437
-0.148647
-0.061152
-1.44877
-0.248521
0.0190201
-0.275703
0.0535585
-0.390276
-0.0473365
0.0302264
0.0152592
-0.0168253
-0.417211
-0.465502
0.0253428
-0.209576
-0.0864119
-0.0432185
0.00323764
-0.322777
-0.204929
0.0207555
-0.118221
-0.280311
-0.0996776
0.0187259
-0.124476
-0.0199471
-0.0874508
-0.126002
-0.405342
-0.422935
-0.128831
0.0203268
0.0254867
0.0276411
-0.279089
-0.334128
-0.280644
-0.0440358
0.0238634
-0.107282
-0.116029
0.0331623
-0.0894103
0.000546868
-0.0564337
0.0215905
-0.404381
-0.0655613
-0.0197179
-0.0243753
0.0165645
0.000490605
-0.378804
0.0251707
-0.0122241
-0.0106721
-0.392359
-0.341688
-0.0786652
0.00581465
0.023974
-0.240128
-0.221932
-0.382949
-0.122644
-0.677448
-0.402715
-0.111883
-0.0202542
-0.444036
0.0333977
-0.216257
-0.163191
-0.0959081
0.00190851
-0.137414
-0.104987
-0.336413
0.00609746
-0.0421465
-0.297687
-0.0585995
-0.407139
-0.073434
0.0300906
-0.101141
-0.0286599
-0.0104512
-0.410241
-0.0209141
0.023821
-0.104509
-0.132186
0.00142021
-0.0158651
-0.424372
0.0136015
-0.00671138
-0.0468936
-0.0523536
-0.135661
0.00715282
-0.200433
-0.0741059
-0.0310275
-0.0795782
0.0108642
-0.339595
-0.202256
0.0194917
-0.0152286
-0.102214
-0.10092
-0.228892
0.0260539
0.00519858
-0.0955381
0.00504572
-0.128233
-0.0330054
-0.0511227
-0.114222
-0.00426395
-0.1232
-0.417143
-0.137203
-0.143807
-0.281941
-0.127585
0.0299518
-0.0999822
0.0243336
-0.230272
-0.0463474
-0.00791648
0.0167297
-0.162578
-0.119794
0.0395216
-0.0207395
-0.0152771
0.0136362
0.0151435
-0.0224518
0.0241969
-0.177138
0.019737
0.0222515
0.0235798
-0.300133
-0.0304818
-0.191426
-0.204298
-0.114289
-0.119012
-0.10412
-0.149526
-0.422403
0.030449
-0.129237
-0.351515
-0.0176508
-0.0872613
-0.0880009
-0.0284807
-0.148292
0.0171697
-0.247798
-0.0221647
-0.207036
-0.166634
-0.113577
-0.215794
0.00709176
-0.19666
-0.949022
-0.139788
-0.0237029
-0.0649027
0.0242991
-0.0468893
-0.0402936
-0.0849911
-0.406716
-0.12324
-0.0280582
-0.40755
-0.0237142
-0.110623
0.00910656
-0.0991551
-0.115613
-0.419502
-0.159761
-0.00872975
-0.0184235
-0.0386388
0.0138664
-0.144774
-0.196488
-0.0755862
-0.112325
-0.0680925
-0.120129
-0.422083
0.0211125
-0.0223504
0.0198155
0.0174282
-0.0503915
-0.0333599
-0.0150825
-0.406003
-0.144106
-0.0447609
-0.474211
0.0204604
-0.0718433
-0.265197
0.00859971
-0.00127923
0.00316465
-0.155343
-0.0601057
-0.361452
-0.0144246
-0.0317269
-0.00683688
-0.0637959
0.00852293
-0.202212
-0.020494
-0.0642611
-0.0111674
-0.146863
-0.185437
0.0263792
-0.389698
-0.0716441
-0.00357718
-0.219058
0.000742604
-0.0167344
0.0200635
-0.316417
-0.021766
-0.882775
-0.00864543
-0.396324
-0.1017
-0.0754656
-0.401679
0.00688015
-0.883443
0.00919902
-1.4289
-0.0297377
-0.091058
-0.282821
0.0224673
-0.262551
-0.165508
-0.183926
-0.0225344
-0.140782
0.0301182
-0.112023
-0.399018
-0.347099
0.0237364
-1.43418
0.005689
0.00600506
-0.0454515
-0.240625
-0.405239
-0.00965336
0.0218409
-0.0707268
-0.0597048
-0.0417531
-0.0670714
-0.0200409
-0.299585
0.0252183
-0.0163207
-0.0187478
-0.017261
-0.0667609
-0.0147016
-0.368637
0.00381401
-0.0265995
0.0286611
-0.124748
-0.0675883
0.00267626
-0.0695985
-0.203449
-0.0584136
-0.186442
-0.0152913
-0.290209
-0.321379
-0.0539598
-0.0352666
-0.0130474
0.0253388
-0.0957315
0.0196196
-0.0561839
-0.109672
-0.192591
-0.0422989
0.017517
-0.0179188
0.0340956
-0.300394
-0.0420071
-0.0197435
-0.0578355
-0.0817062
0.0175142
0.0185006
0.0165743
-0.146827
-0.154685
-0.0721259
-0.112053
-0.109365
-0.0303211
0.00175076
-0.202646
-0.0258405
-0.0171629
0.0162698
-0.214547
-0.024324
-0.161157
-0.0980231
0.0249996
0.0206805
-0.204329
-0.0342095
-0.0987322
-0.0399946
0.0201461
0.0247673
0.0266981
-0.375813
-0.0371438
-0.0390049
-0.208186
0.0483642
-0.00131507
-0.0162521
0.00952751
-0.206501
-0.0295436
-0.4075
-0.217388
-0.0363579
0.00717552
-0.0803016