/*--------------------------------*- C++ -*----------------------------------*\
| =========                 |                                                 |
| \\      /  F ield         | OpenFOAM: The Open Source CFD Toolbox           |
|  \\    /   O peration     | Version:  v2012                                 |
|   \\  /    A nd           | Website:  www.openfoam.com                      |
|    \\/     M anipulation  |                                                 |
\*---------------------------------------------------------------------------*/
FoamFile
{
    version     2.0;
    format      ascii;
    class       volVectorField;
    location    "300";
    object      U;
}
// * * * * * * * * * * * * * * * * * * * * * * * * * * * * * * * * * * * * * //

dimensions      [0 1 -1 0 0 0 0];


internalField   nonuniform List<vector> 
13308
(
(1.00632 -0.0184922 0)
(0.0744367 -1.16498 1.77692e-19)
(-0.347944 0.0117159 -3.73332e-20)
(1.00065 -0.000186602 -2.09042e-21)
(1.19245 0.084134 -1.05382e-20)
(1.00378 -0.000854638 -3.3503e-22)
(1.20633 0.138055 -5.32854e-20)
(1.11647 0.0373053 0)
(1.20606 0.120711 0)
(0.850034 0.63139 -7.39084e-20)
(0.726478 -0.36238 0)
(0.595379 -0.258063 -6.73874e-20)
(1.00356 -0.000834233 0)
(1.02902 0.00503438 0)
(1.00468 -0.000750857 0)
(-0.345769 0.155026 0)
(1.01256 0.00922014 -6.61048e-23)
(0.179792 -1.23346 6.89108e-20)
(0.982124 0.0480551 -2.59025e-20)
(1.25748 0.383643 3.13698e-20)
(1.04216 0.0233016 8.30492e-22)
(-0.497692 0.411506 5.0222e-20)
(0.174197 0.132161 4.70164e-20)
(1.1597 0.0770246 4.02096e-20)
(-0.341664 0.172077 0)
(-0.0435455 0.0897301 -8.37331e-20)
(1.18142 0.105618 -1.94527e-20)
(0.733338 -0.386522 8.84962e-22)
(1.18557 0.102209 -2.14858e-20)
(1.15838 0.166675 0)
(0.0373889 -1.11127 1.47953e-19)
(1.15657 0.150698 0)
(0.131606 0.18234 0)
(1.20441 0.104192 0)
(0.590822 0.11058 6.51823e-21)
(1.01405 0.00879725 -5.31406e-21)
(1.20594 0.13515 4.45652e-20)
(0.246871 0.124769 -1.66456e-20)
(1.09712 0.0739285 -8.77821e-23)
(-0.354749 0.0646383 1.9694e-20)
(1.04853 0.00285535 0)
(1.11974 0.0168479 1.45639e-20)
(0.43408 0.145209 4.31774e-21)
(1.01907 0.0139877 -9.46775e-23)
(1.08957 0.0781087 0)
(1.21295 0.090465 0)
(1.00503 -0.000674348 5.19247e-24)
(1.0008 -0.000248346 1.03312e-22)
(1.02068 -0.020207 1.5324e-21)
(-0.360322 -0.0384362 3.90569e-20)
(1.01798 0.00307366 1.51818e-22)
(1.0258 0.0370268 0)
(-0.419696 0.766654 4.86831e-19)
(0.901526 0.513058 1.8667e-20)
(-0.30911 -0.0256734 -1.34641e-19)
(-0.356131 -0.110468 -3.6446e-20)
(1.01868 0.0125208 -3.46814e-23)
(1.02361 0.0347618 1.75769e-21)
(1.13217 0.0823197 1.46674e-20)
(1.12675 0.0783441 0)
(1.00354 0.309887 1.47077e-20)
(0.365607 0.164841 -9.89272e-20)
(1.02455 0.0345725 -2.66629e-21)
(1.06488 0.0116597 0)
(0.993058 0.000793787 2.29171e-21)
(0.0782015 0.187574 -1.75816e-20)
(1.00593 0.00427872 1.41891e-21)
(1.21663 0.0862791 0)
(0.991608 -0.000820409 -5.43142e-21)
(1.15641 0.300642 0)
(0.132297 -0.714813 0)
(1.09372 0.0718719 7.14297e-21)
(1.01512 -0.0163764 -7.68001e-22)
(1.15529 0.163488 8.23701e-21)
(1.18124 0.060871 -4.10596e-20)
(1.02078 0.0227299 5.07537e-21)
(1.00264 -0.00402467 0)
(-0.327144 -0.102718 2.24231e-20)
(1.02726 0.0278668 -4.56526e-22)
(0.978383 -0.00875642 2.70518e-21)
(1.04563 0.0562532 1.8043e-21)
(1.00444 -0.00497982 0)
(1.01982 0.0227039 -3.17504e-21)
(1.1471 0.0814831 0)
(1.27134 0.107449 0)
(1.11936 0.0334862 0)
(-0.234431 0.00505741 8.8147e-21)
(0.645985 -0.0172758 2.11191e-20)
(1.10194 0.0101615 4.55503e-21)
(1.26504 0.394 -2.53482e-20)
(1.08979 0.0463424 -2.28809e-20)
(1.00606 0.00639017 0)
(1.17929 0.110638 1.5672e-20)
(1.04624 0.0251588 -4.99268e-21)
(1.02021 0.00310135 1.55731e-21)
(1.0137 -0.00756953 -5.14542e-21)
(1.12466 0.0170325 4.57163e-22)
(0.979334 -0.0208629 -6.33948e-21)
(0.108548 -0.606315 -7.15942e-21)
(1.15245 0.279478 0)
(1.08694 0.0446372 2.5879e-22)
(1.05127 0.00159281 6.31695e-21)
(0.996714 0.00187358 -1.9942e-21)
(1.04848 0.028513 0)
(0.686592 -0.165915 5.43594e-21)
(-0.0182928 -1.19296 3.44329e-20)
(-0.336489 0.015908 3.89463e-20)
(0.992083 -0.000507231 4.70894e-21)
(-0.194912 0.0199115 0)
(-0.00769164 0.0949664 8.37575e-20)
(1.14388 0.0350178 -1.99228e-20)
(1.26773 0.127788 -2.20386e-20)
(1.02986 -0.0135592 4.07836e-21)
(1.02695 0.0261169 4.314e-22)
(1.02911 -0.0149879 -4.63077e-21)
(1.00068 0.00200882 3.45292e-20)
(1.20902 0.0919989 -4.34623e-20)
(0.555029 0.179726 1.73514e-20)
(1.18315 0.107242 5.51853e-20)
(1.02346 0.027705 0)
(1.17672 0.0902437 -1.71968e-20)
(1.0468 0.0384089 0)
(0.996836 0.00130351 6.50865e-21)
(1.01183 0.0265095 -7.03609e-22)
(0.839013 -0.00700624 3.17562e-21)
(1.18008 0.139331 0)
(1.2881 0.118645 5.54714e-20)
(1.28554 0.123823 -4.88047e-20)
(1.0147 -0.0171839 3.50108e-22)
(-0.302639 0.0977123 0)
(0.0820496 -0.611948 0)
(1.05265 -0.00303175 -6.02445e-21)
(1.06637 0.0120876 -8.64074e-21)
(1.01401 -0.0103878 2.52305e-21)
(1.20303 0.115609 -5.78785e-21)
(1.00994 0.0219081 -1.1395e-20)
(1.00822 0.00642386 0)
(0.851583 0.0145909 0)
(0.927595 -0.0746209 0)
(1.12563 0.0149912 1.59701e-20)
(-0.391817 -0.119288 1.5243e-20)
(1.14296 0.0301612 0)
(1.05175 0.0174054 0)
(1.03619 -0.00761483 0)
(1.11931 0.0490827 2.77297e-20)
(0.920768 0.0995716 -2.27052e-20)
(1.00151 -0.021101 0)
(1.25474 0.409975 -4.11512e-20)
(1.0478 0.0546345 -4.04973e-21)
(1.05545 -0.0295135 8.18964e-21)
(-0.246839 0.0199045 -1.99288e-19)
(0.997503 0.00109384 0)
(0.82 0.390654 1.32056e-19)
(1.02839 0.249394 2.57949e-20)
(0.892909 0.0959367 0)
(0.962353 -0.0724232 -1.12271e-20)
(0.988904 -0.00037929 3.41535e-21)
(0.996949 0.00189997 -9.36298e-21)
(1.04923 0.00259266 0)
(0.925686 -0.374313 0)
(0.815198 0.581324 9.88909e-20)
(1.02502 0.0369216 -1.23112e-21)
(1.05028 0.0159103 -2.42477e-21)
(0.424398 0.171568 8.52163e-20)
(0.97369 -0.0888031 1.05842e-20)
(1.13072 0.0282285 0)
(-0.485665 0.420451 9.72091e-20)
(0.996594 0.00182953 -6.47412e-24)
(-0.211114 0.0252218 -5.90568e-20)
(1.19651 0.0681468 3.84428e-20)
(1.14434 0.0280866 5.8605e-20)
(0.553592 0.143144 -6.64008e-20)
(0.997063 0.000779379 1.78209e-21)
(-0.37286 -0.0636402 -2.23e-20)
(-0.310141 -0.0357528 -9.23997e-22)
(-0.235405 0.259244 -1.16793e-19)
(-0.466864 0.382186 1.34555e-19)
(-0.353355 -0.0218871 1.92318e-20)
(1.06891 -0.028824 -6.14531e-21)
(0.988189 -0.0002526 6.07157e-21)
(0.647392 -0.100414 -1.28208e-20)
(-0.508476 0.829956 -1.0265e-20)
(1.00372 0.00360152 -1.62181e-21)
(0.898337 0.628315 2.13737e-21)
(0.905643 0.190301 0)
(0.995369 -0.0021039 2.77193e-21)
(-0.367974 -0.114401 3.42282e-20)
(-0.0792571 -1.06319 0)
(1.16614 0.171579 0)
(0.783528 0.233229 0)
(0.801322 0.249765 0)
(1.23999 0.401158 0)
(1.11817 0.0530219 -1.2228e-20)
(0.588075 -0.261815 -7.41038e-20)
(1.12288 0.0468452 -2.91121e-20)
(-0.196468 0.240168 9.43343e-20)
(1.14269 0.0252963 -4.33435e-20)
(1.00494 -0.0180124 8.66693e-22)
(0.979533 0.0528285 6.33063e-20)
(1.11879 0.0193367 1.78889e-20)
(-0.346731 0.201328 -3.1637e-20)
(-0.454114 0.802245 -6.53259e-19)
(0.565385 -0.355719 1.18086e-20)
(1.20061 0.113678 1.61265e-21)
(-0.3024 0.120053 0)
(1.19801 0.102465 -2.36858e-20)
(-0.349459 0.0863562 2.13448e-20)
(1.14202 0.058162 3.6963e-20)
(0.75359 0.264421 -4.05495e-21)
(-0.321129 -0.0426832 7.44487e-20)
(0.738999 0.250201 4.22767e-21)
(0.973309 0.265729 -3.45353e-21)
(1.23012 0.0770702 1.1213e-20)
(-0.387202 -0.115578 4.53263e-20)
(0.15521 0.11125 1.42755e-19)
(1.03511 0.0463387 0)
(0.988972 -0.000369895 -4.74089e-21)
(0.701429 0.0260716 4.41078e-20)
(0.936716 -0.357623 1.48861e-20)
(1.13578 0.055726 2.86263e-20)
(0.761043 -0.404368 5.06228e-21)
(0.9999 0.00154824 4.03005e-21)
(0.991575 -0.066637 0)
(1.00722 -0.00454004 -1.99679e-22)
(1.0487 0.041587 0)
(-0.304993 0.373474 -1.075e-19)
(0.956004 0.0821507 0)
(0.723109 -0.141571 -1.07836e-20)
(-0.346325 -0.111141 7.07641e-22)
(1.19848 0.104076 2.44852e-20)
(-0.363039 0.0165298 -2.07311e-20)
(1.02435 0.0501809 4.05742e-23)
(-0.355982 -0.00814521 -9.0553e-21)
(1.27541 0.104028 0)
(1.00287 -0.0245648 0)
(1.23246 0.0682992 -5.53165e-20)
(-0.824784 -0.0256798 0)
(0.696303 0.0841743 0)
(0.894187 0.0867272 -1.96753e-20)
(1.0233 0.0563657 -5.34039e-21)
(1.14813 0.0838178 0)
(1.00033 -0.0239117 0)
(1.04628 0.0238644 -1.00081e-20)
(1.00415 -0.00249652 8.77385e-23)
(0.657044 -0.288917 4.63466e-21)
(0.833422 0.139415 -8.36818e-21)
(0.979486 0.281559 2.6509e-21)
(1.29398 0.286411 4.14442e-20)
(1.00754 -0.00489339 0)
(0.955305 0.181785 5.97809e-21)
(0.171796 0.116251 -1.39269e-19)
(0.164298 0.182895 -4.87324e-20)
(1.04983 0.00130812 -1.95592e-21)
(0.332222 0.159698 1.98168e-21)
(0.893886 0.0217039 6.57895e-20)
(1.03577 0.0494014 -3.34662e-21)
(0.781808 0.326093 -4.90983e-20)
(1.0001 0.00148455 -2.13778e-21)
(0.647287 0.745182 0)
(-0.342105 -0.106649 8.03625e-20)
(1.15585 0.173568 0)
(1.26572 0.268749 0)
(1.23081 0.0652286 0)
(1.003 0.017644 -8.75115e-21)
(1.00308 -0.0768298 1.04624e-20)
(1.04967 0.000115245 3.48228e-22)
(0.613884 -0.31729 6.90665e-20)
(1.06438 0.00999402 0)
(0.777858 -0.388385 0)
(-0.366827 0.352282 0)
(0.956017 0.304313 -3.62756e-21)
(1.18101 0.0925701 5.98867e-20)
(1.02841 0.00447961 -1.98483e-21)
(0.938553 -0.0928382 0)
(1.03158 0.0302023 -1.41445e-22)
(0.992755 0.000726779 -1.14551e-21)
(1.01902 -0.012203 1.53e-21)
(0.674112 -0.34002 8.81516e-21)
(1.19533 0.0795539 -2.47604e-20)
(0.935362 0.0361137 2.04657e-20)
(-0.165673 0.235091 3.91222e-20)
(1.04293 0.0023669 8.29731e-21)
(1.10863 0.0460167 -4.58388e-21)
(1.03122 0.0490837 2.08049e-21)
(-0.00149536 -0.983356 0)
(0.877888 0.445804 1.67332e-21)
(1.003 0.0169147 4.55868e-21)
(1.00332 -0.0205319 0)
(0.905874 0.0438097 2.61855e-22)
(0.805586 0.554013 9.43212e-21)
(1.17777 0.115929 1.5625e-20)
(1.00456 0.01003 -6.57329e-21)
(1.291 0.204741 5.4177e-20)
(-0.497174 0.808289 3.28744e-20)
(1.002 0.0028858 0)
(0.559768 0.0171679 3.92459e-21)
(-0.349097 -0.114738 9.7412e-20)
(1.14295 0.176682 1.25705e-21)
(0.924089 0.0337498 2.23499e-20)
(-0.320382 0.360344 2.52218e-20)
(0.116331 0.189365 -2.47286e-20)
(0.985374 0.0171577 1.18138e-20)
(-0.0606982 0.0751216 9.24178e-20)
(1.30402 0.151277 -3.25547e-20)
(1.29273 0.139909 2.30309e-20)
(1.01291 -0.0160061 3.76563e-21)
(1.15701 0.131163 2.03288e-20)
(-0.372652 -0.0700911 -4.35751e-20)
(1.29785 0.316111 -2.21267e-20)
(0.995395 -0.00214522 0)
(0.539981 0.112082 1.75039e-21)
(0.439024 1.00999 -2.57334e-19)
(1.18086 0.113698 -3.45653e-20)
(0.600963 -0.367993 1.78058e-21)
(0.541538 0.146419 0)
(-0.319845 -0.0483738 0)
(0.988827 4.88395e-05 2.72633e-21)
(1.00173 0.00288496 0)
(1.04376 0.00341203 7.63305e-21)
(1.29174 0.206289 2.27225e-20)
(1.04974 0.00145746 1.06661e-20)
(1.00376 -0.00479073 0)
(-0.312078 0.0815508 0)
(1.00107 -0.00340784 0)
(0.0322709 0.368697 -6.23777e-20)
(1.03569 -0.00943412 2.3618e-21)
(1.02923 0.051462 -6.55148e-22)
(1.07951 0.0192955 0)
(1.09266 0.0755352 -8.03118e-21)
(1.13419 0.0219733 1.92491e-21)
(0.0719034 0.183285 5.92774e-20)
(1.01566 0.00450961 -1.39231e-22)
(1.30332 0.290553 2.0744e-21)
(1.01151 0.0189314 0)
(0.995732 -0.000575255 -5.05324e-21)
(0.81591 -0.128762 -6.43401e-21)
(-0.351843 0.280454 0)
(0.998085 0.00223609 3.5304e-21)
(0.964243 0.0716265 0)
(1.23605 0.377168 0)
(1.18432 0.0709566 1.98087e-20)
(1.07871 0.0166343 0)
(1.02814 0.016881 3.33235e-21)
(1.20203 0.107728 -1.42317e-20)
(0.766267 -0.0688242 0)
(0.804047 0.55946 1.69514e-20)
(0.912181 0.0785879 -1.50432e-20)
(0.924823 0.096174 7.90918e-21)
(1.04561 2.89028e-05 0)
(1.03912 0.0175379 6.80684e-21)
(1.23124 0.0812353 -1.23331e-20)
(-0.279847 -0.351489 3.08151e-20)
(0.642436 0.636757 0)
(1.00313 0.00811958 0)
(1.01988 -0.0229677 -3.6762e-21)
(1.02262 0.024167 2.03288e-21)
(-0.217286 0.605971 0)
(1.01701 -0.0163015 0)
(0.912126 0.0655281 1.459e-20)
(0.84035 -0.00622769 1.78229e-20)
(0.438221 0.195547 1.29058e-21)
(1.2022 0.117015 6.10443e-21)
(1.19659 0.0691072 0)
(0.954522 0.292705 3.05158e-21)
(-0.642637 0.695442 -1.20981e-19)
(0.188031 0.128409 -1.95527e-20)
(1.02852 0.0159792 -3.17491e-21)
(1.00494 -0.00249168 -1.85029e-22)
(1.0234 0.0327131 4.38686e-21)
(1.19329 0.0381262 1.16491e-20)
(-0.346527 0.21044 0)
(0.153955 1.01563 -1.51329e-19)
(1.26121 0.252991 0)
(1.01757 0.00261158 1.02575e-21)
(1.0233 0.031703 -4.17522e-21)
(0.951839 0.016643 0)
(0.459386 0.174507 -1.7249e-19)
(0.199464 0.161766 -1.3565e-20)
(1.04638 0.0586498 -1.82297e-21)
(0.689901 -0.353068 9.20065e-21)
(1.08047 0.0655588 3.86808e-21)
(1.01153 0.0193856 -4.57006e-22)
(0.965264 -0.291169 1.23946e-20)
(1.20257 0.0822931 -4.36986e-20)
(1.01823 -0.00845099 -6.14612e-21)
(-0.600137 0.748576 0)
(1.26678 0.117507 1.92522e-20)
(1.12206 0.0965703 0)
(1.00519 0.00448722 -1.39181e-21)
(0.906887 0.700971 6.14479e-20)
(1.03886 0.0203295 -3.85442e-21)
(0.996057 -0.0305451 -6.29445e-21)
(1.16194 0.0825176 -5.55023e-22)
(-0.348654 0.258902 4.09751e-20)
(0.567068 0.222288 2.04387e-20)
(1.13862 0.175079 -4.4139e-21)
(0.83595 0.500529 1.55312e-21)
(1.00227 0.00791365 0)
(0.777329 -0.081935 0)
(1.09774 0.0219768 -2.8739e-20)
(0.973299 -0.30335 0)
(0.988166 -0.000219054 -8.21519e-21)
(1.16059 0.263488 0)
(0.168522 0.126851 1.93399e-20)
(1.01222 -0.00825766 -3.9709e-23)
(0.593025 0.0890484 -7.12601e-21)
(0.989167 -0.000383482 5.33411e-21)
(0.996255 0.000846912 -6.60904e-21)
(0.0656031 -0.590384 -3.37373e-20)
(0.739067 -0.171742 -3.56707e-21)
(1.0127 0.00557976 -5.51531e-21)
(1.25413 0.236832 -4.73071e-20)
(0.866855 0.217098 0)
(1.00201 0.007183 -2.02761e-21)
(1.00734 0.00846441 -1.43049e-21)
(0.748861 0.14308 -6.56138e-21)
(1.07719 0.0647963 7.16732e-23)
(1.00692 0.00863644 0)
(1.12581 0.0902945 1.36986e-20)
(0.941621 0.0220163 -6.84046e-21)
(0.900373 0.0615185 -8.71298e-21)
(1.02326 0.0303515 0)
(1.17931 0.0679649 -3.44686e-20)
(1.05608 0.0581023 0)
(1.02496 -0.0155797 -6.00893e-21)
(-0.329248 0.0390381 -7.70079e-20)
(1.21936 0.387359 0)
(1.12149 0.0440431 -1.719e-20)
(0.891262 0.528649 -1.93155e-20)
(0.962609 -0.297781 -1.03306e-20)
(0.882666 0.459907 0)
(0.994578 -0.00100885 -6.37416e-21)
(1.14384 0.0687194 -2.276e-21)
(0.353824 -0.164421 2.69314e-22)
(1.00277 0.0136312 6.70504e-21)
(1.00044 -0.002886 1.88048e-21)
(0.526954 0.18062 8.20936e-20)
(1.00701 0.0065244 -2.20672e-21)
(1.18012 0.118382 -2.63082e-20)
(-0.358282 0.0437096 -4.73564e-20)
(-0.363024 -0.0975505 -8.75026e-20)
(-0.496557 0.243746 0)
(-0.34547 -0.0480448 7.91667e-20)
(1.02327 0.0296225 -2.71538e-21)
(-0.82287 0.376311 4.65555e-19)
(1.189 0.0376909 -2.34464e-20)
(0.54501 0.0677921 -8.36001e-21)
(-0.46293 0.7259 0)
(1.00408 0.0047133 2.40408e-21)
(0.941985 0.171281 0)
(1.00867 -0.0192195 0)
(0.209083 -0.34099 -2.82374e-20)
(0.869022 0.198267 3.63645e-21)
(-0.647041 -0.589342 0)
(1.15974 0.0758401 -2.59696e-20)
(1.15935 0.123864 1.87018e-20)
(1.20351 0.0700064 1.50806e-20)
(0.827267 0.216674 1.21437e-20)
(0.303487 0.13443 0)
(1.14851 0.254771 0)
(0.991008 -0.282442 0)
(-0.813921 -0.106695 2.38225e-20)
(1.008 0.00330308 1.73239e-21)
(0.819615 0.52344 0)
(1.02352 0.026534 0)
(-0.192661 -0.0408554 1.22172e-19)
(0.998001 0.00222738 -5.17081e-21)
(1.05529 0.0584186 0)
(1.02226 0.0232514 9.4646e-22)
(-0.37319 0.345965 6.83561e-20)
(1.22231 0.0700612 7.74503e-20)
(1.07658 0.0140218 0)
(0.374009 0.132179 2.32895e-20)
(1.06875 0.052347 -8.37372e-21)
(0.829769 0.23166 -1.70764e-20)
(0.200289 0.150884 1.35383e-20)
(1.04207 -0.0444413 -1.02979e-20)
(1.13991 0.0372165 0)
(0.768517 0.0339535 -6.78403e-21)
(1.02683 0.0160841 0)
(0.964426 -0.0431026 -3.91934e-22)
(1.04646 0.000730971 0)
(0.952783 -0.0443422 0)
(1.00311 0.0143426 -1.06337e-20)
(1.03695 0.236846 -2.99963e-21)
(1.05888 0.0580988 0)
(1.0173 -0.0192306 0)
(0.712213 0.119358 -1.33644e-22)
(1.14363 0.0365777 2.07538e-20)
(1.00849 0.00732841 1.99414e-21)
(1.00695 0.0100638 -5.33536e-21)
(1.15715 0.137252 -7.7293e-22)
(0.719044 0.0930128 9.85871e-22)
(1.00209 -0.00381623 3.70574e-23)
(1.01306 -0.00864002 1.35733e-22)
(1.06161 0.0567125 -9.13123e-22)
(1.00461 -0.000549974 0)
(0.873393 0.508508 2.60843e-20)
(0.173451 -0.655544 7.37752e-20)
(0.281329 -0.303945 2.46665e-20)
(1.15624 0.1496 -1.02641e-20)
(-0.212538 -0.0481377 0)
(0.494159 0.108822 7.30014e-22)
(0.617223 -0.314528 -4.3753e-21)
(1.11924 0.0900869 0)
(1.00174 0.00622177 4.48458e-21)
(1.02687 0.293152 2.4617e-22)
(-0.345577 -0.0584652 -9.86877e-20)
(0.989235 0.000208972 -5.24961e-21)
(-0.196177 0.0584284 -1.39781e-20)
(1.04848 -0.0403383 0)
(1.16027 0.167036 -7.60909e-23)
(1.08968 0.0643569 -1.4467e-20)
(1.00354 0.0029807 0)
(1.15495 0.0809973 3.6931e-22)
(1.22257 0.0902069 0)
(1.21667 0.102865 4.24186e-22)
(1.0394 0.00264305 0)
(1.074 0.0735085 -8.83147e-21)
(0.175822 0.14477 -1.62036e-20)
(0.678506 0.276931 0)
(0.678864 0.64045 0)
(0.89673 0.178964 0)
(0.999565 -0.0324516 5.35696e-21)
(0.989068 -0.000639684 0)
(1.27466 0.207585 -1.35087e-20)
(1.02639 0.0171628 5.46249e-22)
(0.999839 -0.00259924 -1.89525e-21)
(0.776933 0.313356 -2.81196e-21)
(1.18607 0.134071 0)
(1.04066 0.234808 7.67616e-22)
(1.22088 0.0895768 -3.73404e-20)
(0.413139 0.169543 -6.04537e-20)
(-0.495945 0.539693 2.70038e-19)
(0.994705 -0.00207438 -1.13329e-21)
(0.781213 -0.135262 3.40357e-21)
(1.02104 -0.234902 -5.44026e-21)
(-0.200539 0.611719 1.51509e-19)
(1.0029 -0.00418819 2.59662e-21)
(1.16975 0.062153 -6.53727e-20)
(1.02051 0.0139953 3.0133e-22)
(1.11268 0.1257 1.58433e-21)
(1.05106 0.00170327 2.37721e-21)
(0.662853 -0.141423 -1.13058e-20)
(1.08645 0.0646184 1.94357e-20)
(-0.0367454 0.387382 -1.07546e-19)
(0.206777 -0.645379 -1.63806e-21)
(0.563919 -0.00157283 7.08299e-20)
(1.00729 0.00648648 2.31799e-21)
(1.00147 0.010725 -1.21755e-20)
(0.406101 0.168187 0)
(0.560177 -0.069553 -3.71523e-20)
(0.103762 -0.678243 0)
(1.09896 0.112912 0)
(0.00841791 0.109697 -8.74453e-20)
(0.753715 0.0177261 1.99786e-21)
(-0.481654 0.21395 3.05462e-20)
(-0.351057 -0.116438 -7.83395e-20)
(0.230909 -0.00698218 0)
(-0.533894 0.174609 -3.41965e-20)
(1.01244 0.0225119 0)
(1.05132 0.00140739 -4.53614e-21)
(1.00157 0.0121708 0)
(0.673403 0.0196066 0)
(1.02515 0.0256031 8.02451e-27)
(1.26698 0.203629 3.6977e-20)
(-0.350794 -0.111254 8.60108e-20)
(1.07916 0.0138684 0)
(0.916676 0.159014 5.69251e-20)
(1.02895 0.152319 1.72964e-20)
(0.172544 -0.698396 -3.49827e-20)
(1.01624 0.0125871 0)
(1.02403 0.0248689 -8.16429e-27)
(1.01723 0.0126753 0)
(0.656574 -0.058038 -9.6959e-21)
(1.17671 0.121543 5.06444e-20)
(1.0034 0.00884756 -2.23429e-21)
(1.0953 0.0223384 9.50636e-21)
(0.153127 -0.276261 -2.11117e-20)
(0.996377 0.00181384 0)
(-0.355558 0.322731 4.55956e-21)
(1.01702 -0.0587527 9.95225e-21)
(1.02081 0.0491456 -2.90849e-21)
(1.10061 0.193009 9.49038e-21)
(1.06255 0.00983657 0)
(1.02169 0.0139576 0)
(1.05029 0.0185962 0)
(1.0727 0.152645 -4.85143e-21)
(1.1302 0.0848314 -1.78105e-20)
(0.989258 -0.000354146 -9.90976e-21)
(0.711866 -0.398386 -1.6378e-20)
(1.00097 0.00628857 -2.31679e-21)
(1.01593 -0.0119146 2.2726e-23)
(1.00741 -0.0046113 0)
(1.00594 0.00208788 0)
(-0.198182 -0.0330087 0)
(0.17343 0.155753 1.00279e-21)
(1.0052 0.0102144 2.35712e-21)
(-0.373606 -0.110871 0)
(1.11891 0.0240947 -7.75582e-21)
(1.00585 0.0020919 0)
(1.0064 0.0100976 0)
(0.998757 0.0272443 1.27958e-20)
(0.988058 0.021177 -1.44929e-20)
(1.07292 0.0676244 0)
(1.19924 0.0749328 6.01448e-20)
(1.00363 0.00990738 4.56295e-21)
(0.727971 -0.050587 -8.05141e-20)
(1.01533 0.024659 -6.51106e-21)
(-0.0356044 -0.0460751 4.30501e-19)
(-0.2833 0.966879 4.56904e-19)
(1.20012 0.0645478 -4.67533e-20)
(1.19308 0.0828981 6.29909e-20)
(0.990266 -0.000478266 -5.18411e-21)
(-0.612428 -0.430044 0)
(0.70651 -0.0486992 3.35653e-20)
(1.16037 0.128798 0)
(0.991686 -0.000813499 8.11616e-21)
(0.741459 -0.30918 -4.27641e-21)
(0.838758 -0.172416 -9.21269e-21)
(1.07503 0.209078 5.2928e-21)
(1.05031 0.0194925 0)
(1.01084 -0.0213331 -4.16168e-21)
(0.674957 -0.373506 1.31263e-20)
(1.03057 -0.0579682 9.5164e-21)
(-0.278938 -0.0703961 5.5655e-20)
(1.04667 0.0523434 5.94401e-21)
(1.00929 0.00333104 -1.85692e-21)
(1.12638 0.197779 0)
(-0.287324 -0.0766494 1.09268e-19)
(1.0144 0.0558114 3.18661e-21)
(-0.51048 0.142051 0)
(0.840441 0.30299 -2.00861e-21)
(-0.363254 0.00808879 -1.99742e-20)
(0.595109 -0.177442 1.04305e-19)
(0.748098 0.261184 0)
(1.0672 0.147655 3.95063e-21)
(1.08712 0.0746759 -7.42001e-21)
(-0.0192805 1.10163 0)
(-0.211438 0.0429868 1.9103e-21)
(1.01082 0.00334237 -5.73919e-21)
(1.04966 0.0254635 3.09086e-21)
(-0.359946 -0.119256 0)
(0.55042 0.0508715 -3.28687e-21)
(1.22878 0.107914 6.00471e-20)
(1.03251 -0.215319 6.679e-21)
(1.15814 0.0549267 -5.8326e-20)
(1.09823 0.0185606 -4.75711e-21)
(1.00668 -0.00387879 0)
(0.837763 0.469875 1.95261e-21)
(1.31392 0.184658 0)
(0.99674 0.00174926 0)
(-0.514182 0.542207 -1.32126e-19)
(1.08535 0.0517879 -1.25007e-20)
(0.0804078 -0.288445 0)
(1.05987 0.0100839 0)
(1.01494 0.0110886 0)
(1.25523 0.0859782 0)
(-0.878243 -0.00879522 0)
(1.19912 0.104894 0)
(0.74496 0.239437 -9.32795e-22)
(0.590134 0.430991 8.1229e-20)
(1.09518 0.188312 -7.44292e-21)
(1.22482 0.0747715 -7.15046e-20)
(1.01745 0.0543349 0)
(1.23972 0.0746685 0)
(-0.257012 0.966845 -2.54021e-19)
(0.996788 -0.000577312 3.4162e-21)
(-0.353802 0.0809261 -2.10688e-20)
(-0.348269 -0.0909938 -8.60167e-20)
(1.05 0.113857 -9.06615e-21)
(1.01337 -0.0119193 5.0901e-21)
(0.87527 -0.15966 0)
(1.00365 -0.000647934 -3.77616e-22)
(1.0059 0.00559221 0)
(-0.198243 -0.00461818 0)
(1.02791 0.0815707 2.14385e-21)
(1.22172 0.0833995 4.41518e-20)
(1.04076 0.19838 1.65239e-21)
(1.02605 0.647502 0)
(1.15062 0.0795048 -1.94079e-20)
(1.17349 0.055115 -1.08114e-21)
(0.9958 0.0479971 -1.49993e-20)
(1.00655 -0.00373149 0)
(1.00313 0.0282688 0)
(0.998199 -0.00053967 2.40508e-21)
(-0.205156 -0.0235912 -1.26845e-19)
(-0.211148 -0.000761091 0)
(1.22525 0.0936903 7.2857e-22)
(1.28833 0.330081 2.47227e-20)
(0.994166 -0.000700268 6.66265e-21)
(1.25998 0.346707 -3.51275e-20)
(0.993177 0.0471816 0)
(1.20442 0.0998175 -4.62024e-20)
(0.950787 0.377097 5.47172e-23)
(1.02161 0.0457495 -9.08823e-22)
(1.00111 -0.00340298 3.18204e-21)
(1.00194 0.00590271 4.55065e-21)
(1.00082 -0.00355463 0)
(0.366113 -0.141837 8.05526e-21)
(1.01049 0.0188535 -2.98017e-21)
(0.70556 0.459941 0)
(0.942557 -0.169125 8.23399e-21)
(1.13443 0.191587 -3.28945e-21)
(1.18916 0.0677165 4.44598e-20)
(1.01686 -0.013148 2.88438e-21)
(0.680614 0.391869 0)
(0.840917 0.301644 -1.93905e-21)
(0.538458 -0.482113 -5.68966e-20)
(1.02335 0.0284275 3.05032e-21)
(1.01476 0.00452707 0)
(1.02017 0.0141836 -6.16805e-23)
(-0.338926 -0.0831892 -2.50302e-19)
(1.03729 0.00283215 -6.63078e-22)
(1.27474 0.127614 8.3186e-21)
(1.18212 0.0952958 0)
(1.01039 0.0191328 -2.15797e-21)
(0.994689 -0.00208006 1.38402e-21)
(1.0537 0.00602288 0)
(1.00122 0.00704154 2.29129e-21)
(1.01666 -0.0143041 -1.59199e-21)
(1.1382 0.0431007 0)
(0.996219 -0.03236 0)
(0.711741 0.284697 3.18438e-21)
(1.23077 0.0890541 -4.89913e-20)
(1.03047 0.00501125 0)
(1.1573 0.19109 -2.99807e-23)
(-0.0755197 0.964758 0)
(1.2269 0.108855 -9.74792e-20)
(0.237221 0.138373 -8.23698e-20)
(1.01762 0.0107399 -3.97963e-21)
(1.08872 0.0484485 -4.75243e-21)
(1.0172 0.0118186 6.26088e-21)
(1.06762 0.0471685 -8.42459e-21)
(-0.363378 -0.00421369 5.8691e-20)
(1.11391 0.094347 4.56314e-23)
(0.94657 0.387119 0)
(0.771742 -0.151961 5.15898e-21)
(0.449289 -0.235903 0)
(1.14274 0.0188111 1.15451e-20)
(1.01759 0.0125708 4.82763e-25)
(-0.21636 -0.343828 -2.61822e-20)
(1.06402 0.0421276 8.50436e-21)
(0.157552 0.112102 0)
(1.03035 0.0301039 1.20616e-21)
(1.00269 0.0152915 0)
(1.02483 0.6541 0)
(1.01276 -0.016957 -3.79856e-21)
(1.00525 -0.00604026 0)
(1.14755 0.232805 -1.75855e-20)
(1.20428 0.123037 0)
(-0.345148 -0.0884282 1.40608e-19)
(-0.724302 -0.352569 -2.68187e-19)
(-0.0950401 -0.920334 -8.96249e-20)
(0.630223 0.760113 1.00337e-20)
(0.995711 -0.000521483 -2.18823e-21)
(0.98867 2.00241e-05 0)
(1.17262 0.0950253 2.87871e-20)
(0.556746 -0.462928 4.5723e-20)
(1.2019 0.114511 0)
(1.01343 -0.0157414 0)
(1.07321 0.0123447 1.22006e-20)
(0.900241 0.017881 0)
(-0.192037 -0.0299086 7.80543e-20)
(1.01511 -0.0104692 -2.95799e-22)
(1.05021 0.000647609 -1.19728e-21)
(-0.875475 0.00362968 0)
(-0.202194 0.0937205 -1.109e-19)
(1.20654 0.10554 0)
(1.06522 0.0460845 0)
(1.00175 -0.00380953 -2.52843e-21)
(1.03246 0.0302458 2.7501e-22)
(1.03789 0.0416613 -2.34274e-21)
(1.14464 0.0221214 -9.41277e-21)
(1.00067 -0.00321728 0)
(1.08644 0.0416131 2.15487e-20)
(1.02165 0.0242192 -2.02957e-21)
(0.269502 0.14264 1.23952e-19)
(0.999182 -0.00189785 -8.88323e-22)
(0.966065 -0.0210586 5.94259e-21)
(0.799416 -0.0184473 0)
(0.988128 0.127779 -4.43259e-20)
(1.08649 0.0663662 -1.63899e-21)
(1.00461 0.00305374 -5.94438e-22)
(1.02257 0.0243864 0)
(1.28791 0.350633 -2.65072e-20)
(0.922986 0.0288606 -7.50881e-20)
(1.03277 0.219323 -5.14239e-21)
(0.833929 -0.138297 1.06784e-22)
(1.1141 0.0845197 0)
(0.601118 0.00252471 3.35757e-21)
(1.01323 0.000894074 9.4468e-22)
(-0.212945 -0.0363563 0)
(1.11096 0.088237 1.20361e-20)
(-0.10546 0.710381 0)
(1.00385 0.00354046 0)
(-0.354478 0.0708376 -2.11243e-20)
(1.03025 0.0156524 -1.91e-21)
(1.04429 0.0160428 -5.98058e-21)
(0.996143 -0.0187239 -9.27984e-22)
(1.10972 0.0636598 -4.62874e-21)
(1.05019 0.000775542 0)
(1.0055 0.0100688 1.61897e-23)
(1.13871 0.0495094 -1.98066e-20)
(0.997279 -0.000423719 0)
(-0.372383 -0.120884 -1.25722e-19)
(-0.136262 0.770288 0)
(0.766696 0.0493618 0)
(0.986304 0.0327675 -8.80711e-23)
(1.00332 0.00294163 7.17301e-21)
(-0.282241 0.138589 0)
(1.01653 -0.0160358 0)
(1.00507 -0.0059923 5.62238e-23)
(0.712035 -0.342853 1.28906e-20)
(-0.298996 -0.312042 -2.21223e-20)
(0.672871 0.0786192 -2.68558e-21)
(0.642934 -0.177744 5.63587e-20)
(-0.365316 0.00391388 -2.40222e-20)
(1.11686 0.0386898 0)
(1.00663 -0.0217486 -7.42971e-22)
(0.474992 -0.190218 -3.39384e-20)
(0.992702 -0.000909123 0)
(1.12607 0.091203 0)
(-0.216625 0.273376 -7.23541e-20)
(1.01789 -0.015584 1.20178e-22)
(1.00098 0.00898372 4.46244e-21)
(0.659623 -0.086742 2.31333e-20)
(-0.313794 0.0433586 7.63964e-20)
(1.05677 0.00237371 7.31196e-21)
(-0.906924 0.0192345 -1.44608e-19)
(0.992785 -0.00101229 0)
(1.16994 0.0999841 3.4333e-22)
(1.13709 0.201952 1.1389e-22)
(0.810303 -0.000340644 0)
(0.898151 0.0070767 -3.32301e-21)
(0.965193 0.0659709 -1.03725e-20)
(0.995787 -0.00050612 4.46843e-21)
(1.1302 0.111207 -8.4557e-21)
(1.11698 0.0498329 0)
(0.66576 -0.334027 -8.75696e-21)
(-0.341731 -0.0591821 -7.5531e-20)
(1.04306 0.00817208 -2.39233e-21)
(0.62591 0.671099 2.94266e-20)
(0.995619 0.373843 -2.62391e-20)
(1.27102 0.117313 0)
(1.00095 -0.00313749 0)
(1.00253 0.0149137 4.29186e-21)
(-0.346374 0.113607 0)
(0.997944 0.00101568 -3.5009e-21)
(1.00912 0.0966283 0)
(0.726315 0.196476 3.80801e-21)
(0.993839 0.168524 0)
(1.00267 0.0127116 -1.77978e-21)
(0.797406 -0.0227572 -5.4393e-20)
(0.0860119 -0.253659 -1.39077e-21)
(-0.672825 0.692038 1.0968e-19)
(0.643153 -0.0476208 -8.21251e-22)
(1.12953 0.0828814 0)
(1.01476 -0.00936245 0)
(1.00837 -0.00529771 0)
(1.04436 0.0505258 -2.97876e-21)
(1.0459 0.0176116 0)
(-0.352653 -0.0989917 3.07633e-22)
(-0.213746 0.0774168 1.59384e-19)
(0.974841 -0.0129838 5.7968e-21)
(0.914456 0.027033 -1.53897e-20)
(0.596971 0.0815972 -1.43095e-21)
(0.000783232 0.133386 -1.10113e-19)
(-0.360631 0.0363499 0)
(1.05676 0.00359907 1.43059e-20)
(-0.235588 0.511755 4.50149e-19)
(1.10979 0.0434346 -1.24256e-20)
(0.110961 0.171316 4.64889e-20)
(1.1572 0.240054 2.18366e-21)
(1.12939 0.0703231 1.56572e-20)
(1.09803 0.110974 0)
(1.0997 0.0211032 0)
(1.22575 0.202022 -3.98777e-20)
(0.603558 0.316761 0)
(1.01203 -0.024143 7.48058e-21)
(-0.332153 0.184435 6.71055e-20)
(1.0983 0.151806 5.44669e-20)
(1.30593 0.167057 4.3353e-21)
(0.636549 0.0377284 -4.18957e-21)
(1.18122 0.094269 3.59049e-20)
(1.00781 0.0920148 -3.50226e-22)
(1.01351 -0.00819915 0)
(-0.36356 0.891922 9.01189e-20)
(1.00608 0.0101758 2.15798e-21)
(0.810029 0.13342 6.06834e-21)
(1.02241 0.0265229 0)
(1.0477 0.00262451 0)
(1.06966 0.0218505 -5.7607e-21)
(1.17593 0.0708805 5.77787e-20)
(-0.221921 -0.0526674 0)
(1.05449 0.00553047 0)
(0.623127 0.397975 -2.65591e-20)
(0.941534 -0.0216544 2.06589e-21)
(0.573221 0.132067 2.40458e-21)
(1.06198 0.0104088 -1.48733e-22)
(0.993848 -0.00200123 0)
(0.560364 0.180621 0)
(1.02143 0.0250664 -4.23766e-21)
(1.02248 0.0248678 -4.12866e-21)
(-0.167015 0.245866 3.74975e-20)
(1.01332 0.0110878 1.74924e-21)
(1.0517 0.0177395 6.03997e-21)
(0.995371 0.243187 -6.38664e-22)
(1.14113 0.0406541 1.16115e-20)
(0.997982 -0.00154524 0)
(0.726878 0.171562 0)
(0.136036 0.1045 -2.03981e-20)
(-0.258204 -0.0686305 0)
(0.648029 0.719861 -2.05952e-20)
(1.00621 0.00536602 -6.61917e-22)
(1.0024 0.00166414 0)
(1.20035 0.110453 -1.00624e-21)
(1.20696 0.0973258 -4.4209e-20)
(-0.367298 -0.103543 0)
(1.05175 0.0132233 0)
(0.659239 -0.0936619 -2.78596e-21)
(1.02369 0.0480425 3.38393e-22)
(1.1409 0.0464101 1.04549e-20)
(0.100131 -0.487017 -1.4748e-19)
(1.04185 0.00846625 7.31416e-21)
(1.01258 -0.00963074 -1.45544e-21)
(1.15356 0.089299 0)
(0.988549 -3.73658e-05 1.66324e-21)
(1.01374 0.0124856 -8.23568e-22)
(1.02419 0.0241637 0)
(0.940276 -0.0196927 3.01569e-22)
(0.724528 -0.031755 -2.26983e-20)
(0.988196 -0.000229647 1.8223e-22)
(0.808169 0.463698 -9.75499e-22)
(1.16303 0.135869 0)
(0.922774 0.187727 0)
(1.07777 0.0977481 0)
(1.01588 -0.0111094 0)
(1.05157 0.0254498 3.61914e-21)
(1.04331 0.0486412 -3.45778e-21)
(0.759124 -0.312239 0)
(1.0414 0.289062 -1.4284e-21)
(-0.387256 0.375764 -7.18786e-20)
(-0.797075 -0.267159 3.4512e-19)
(0.710296 -0.320384 4.22377e-21)
(1.02214 0.0259155 -1.12568e-21)
(1.16217 0.0640108 7.70388e-20)
(1.22216 0.196666 -2.66169e-21)
(1.18666 0.0376855 -2.25428e-20)
(1.12701 0.0775574 1.67369e-20)
(1.08361 0.0397925 1.34028e-20)
(1.01102 0.265907 0)
(0.906595 -0.0105907 0)
(1.02416 0.0242716 0)
(0.188831 -1.2158 0)
(0.769575 0.295171 -5.76011e-21)
(0.98973 -0.000457264 0)
(1.16283 0.0572534 3.2185e-20)
(1.05036 0.0148718 -5.19176e-21)
(1.26931 0.105732 8.62013e-20)
(1.08858 -0.0033607 0)
(1.12944 0.112001 -1.63697e-21)
(1.15871 0.0646058 -6.67661e-20)
(0.915021 -0.194835 -5.95336e-21)
(0.984019 0.0416143 0)
(1.11995 0.0238332 0)
(0.687203 0.052809 8.01808e-22)
(1.02045 0.0262515 8.06093e-21)
(0.644926 0.322186 0)
(1.07351 -0.0171381 0)
(1.07567 0.0686227 7.06161e-21)
(1.13032 0.11205 0)
(1.02428 0.0453053 3.23964e-21)