/*--------------------------------*- C++ -*----------------------------------*\
| =========                 |                                                 |
| \\      /  F ield         | OpenFOAM: The Open Source CFD Toolbox           |
|  \\    /   O peration     | Version:  v2012                                 |
|   \\  /    A nd           | Website:  www.openfoam.com                      |
|    \\/     M anipulation  |                                                 |
\*---------------------------------------------------------------------------*/
FoamFile
{
    version     2.0;
    format      ascii;
    class       volScalarField;
    location    "300";
    object      k;
}
// * * * * * * * * * * * * * * * * * * * * * * * * * * * * * * * * * * * * * //

dimensions      [0 2 -2 0 0 0 0];


internalField   nonuniform List<scalar> 
14479
(
0.0323265
0.00891917
0.000767841
0.000145965
0.00019745
0.0001507
0.000138807
0.000214853
0.000206345
0.000224099
0.000144662
0.000166626
0.000191231
0.00984814
0.0183061
0.000153748
0.000138967
0.0194944
0.000145287
0.000212128
0.000185106
0.000196712
0.000834076
0.0216831
0.000144927
0.000145144
6.73192e-05
0.000203137
0.000147443
4.40024e-05
0.000565343
0.0224132
0.000228534
0.000226559
0.000995707
0.000182599
0.000146118
0.000150675
0.016042
0.000177863
0.000157749
0.000144435
0.00423555
0.00319902
0.000146199
0.000153793
0.000143754
0.00388558
0.000162103
0.000144281
0.00514769
0.000202409
0.000145
0.00525443
0.000159991
0.000168091
0.000187107
0.000149995
0.0143335
0.000149895
0.000147172
0.000149438
0.0379706
0.000144211
0.00013883
0.000371554
0.0060362
0.0320217
0.000144983
0.000147575
0.00678867
0.00014413
0.00441749
0.00017961
0.000149882
0.000143343
0.000186733
0.0350667
0.000142471
0.000319702
0.000145485
0.000203159
0.013931
0.000396517
0.000646755
0.000153579
0.000153334
0.000138956
0.000213877
0.000150693
0.000205502
0.00036159
0.000963263
0.000144121
0.0122937
0.00014449
0.000142711
0.000141894
0.000140533
0.0106929
0.00671867
0.000160872
0.00520326
0.0018023
0.0269976
0.000227806
0.0368793
0.00024003
0.000290264
0.0102453
0.034531
0.0183516
0.000335687
0.000169088
0.000212114
0.000189098
0.000146254
0.000291331
0.000168741
0.000150483
0.000147159
0.0493729
0.00532146
0.000140473
0.010004
0.000293372
0.000150486
0.00406512
0.000164025
0.000581208
0.00016569
0.0377417
0.000113895
0.00230896
0.00212157
0.0001701
0.00022502
0.000204228
0.0280895
0.000108837
0.0013434
0.00136375
0.000145413
0.00250455
0.000145482
0.000965846
0.00324558
0.000154802
0.000192096
0.000207401
0.0140172
0.000143848
0.0152015
0.000155223
0.000145165
0.000144544
0.0261243
0.0535285
0.0112865
0.000170886
0.000181751
0.00013642
0.000143927
0.000186786
0.0142154
0.000135398
0.000144226
0.000197395
0.000202644
0.0109179
0.00135643
0.000175673
0.000155873
0.000189345
0.000139585
0.000197583
0.00017008
0.000141376
0.000247811
0.0127076
0.000188005
0.000134296
0.00937634
0.000313614
0.0159263
0.000165829
0.000107954
0.0483349
0.000149283
0.00909785
0.0210849
0.00127522
0.000320905
0.0198288
0.000162072
0.000175351
0.000143008
0.000249733
0.000166869
0.000143821
0.000207102
0.000159556
0.000187993
0.0001444
0.000165113
0.000201193
0.0153578
0.000167254
0.000138745
0.000166357
0.000167331
0.000147507
0.000164438
0.000163528
6.85688e-06
0.0187127
0.000242616
0.000240906
0.0183387
0.000138068
0.0188662
0.00491211
0.000152287
0.000290537
0.00879262
0.000152764
0.0321086
0.000142616
0.000197993
0.000229779
0.000149833
0.000235937
0.0137094
0.000150296
0.000145641
0.012772
0.000157773
0.000204329
0.0384597
0.000145309
0.000157656
0.000143916
0.000204745
0.000158125
0.000162
0.000210194
0.0420025
0.0187175
0.00014974
0.000145317
0.0140268
0.000221166
0.000225804
0.000232172
0.0138374
0.000140117
0.000161908
0.00013901
0.000203339
0.000145041
0.000142535
0.000159126
0.000145013
0.000141506
0.000141265
0.000163906
0.000189132
0.000145313
0.0405736
0.000180039
0.000197179
0.000193201
0.0494528
0.00017506
0.000197729
0.0175864
0.000204608
0.000139945
0.000168179
0.00015406
0.000204726
0.000162772
0.00015062
0.000152901
0.000222961
0.000836788
0.000196127
0.000435167
0.000172556
0.0180409
0.000221986
0.000149615
0.000196403
0.0122249
0.000155387
0.0175108
0.0176985
0.000149702
0.000175044
0.0167047
0.0228063
0.000215932
0.000141189
0.000148771
0.000177207
0.0386964
0.000135467
0.00431903
0.000138465
0.000212925
0.000177613
0.00176257
0.000153618
0.000158921
0.000177761
0.00587164
0.000707123
0.000159309
0.000177152
0.000137809
0.0322214
0.000205903
0.0210683
0.012424
0.000147418
0.00756839
0.0577244
0.00688695
0.000189331
0.000154123
0.00214762
0.000142447
0.000198389
0.000190211
0.000152203
0.000150435
0.0285197
0.00016268
0.00015618
0.000150871
0.000147566
0.000189178
0.000138335
0.000182313
0.0131513
0.000168306
0.00038812
0.000176821
0.000200202
0.000238359
0.000144795
0.00026183
0.00484047
0.000568306
0.000162775
0.0390626
9.36675e-05
0.0335485
0.000147339
0.0297842
0.000147987
0.000234021
0.00547756
0.031787
0.000153336
0.000149846
0.000136759
0.000179775
0.000192822
0.000136777
0.00015503
0.0169672
0.000155383
0.000206056
0.0158561
0.000233835
0.000148938
0.000216361
0.000166197
0.000149195
0.000178003
0.000195836
0.000144735
0.000161798
0.0052234
0.00025361
0.0184013
0.000147561
0.00102789
0.000180599
0.000214879
0.000196242
0.000154138
0.00338756
0.0118013
0.000285767
0.000160674
0.0212623
0.000228324
0.000220967
0.000188359
0.000203247
0.000175238
0.000218115
0.000179917
0.000155373
0.000192447
0.000177664
0.00468137
0.000186069
0.00564255
0.000228322
0.00016494
0.000228735
0.000146649
0.0188417
0.000147791
0.000150758
0.0344758
0.000207468
0.00559805
0.0187714
0.0183423
0.0241758
0.00117332
0.000149611
0.000154574
0.000162521
0.000138677
0.000147453
0.0001494
0.000180231
0.0002545
0.0183162
0.0574125
0.00018281
0.0138974
0.000117408
0.000192338
0.000147442
0.0338646
0.000139464
0.000149178
0.0442969
0.000148615
0.000141089
0.000154159
0.0255029
0.000161957
0.000151298
0.000153019
0.000148653
0.00412552
0.000163599
0.00617371
0.000188062
0.000147452
0.000169441
0.000447704
0.000310504
0.000228957
0.000147639
0.000157661
0.000167221
0.0202438
0.000141388
0.000178322
0.00523891
0.0317604
0.000146854
0.000142411
0.000199527
0.000161155
0.000146204
0.0383849
0.000346797
0.000198864
0.00562144
0.000183619
0.000148237
0.000182924
0.000180941
0.000605809
0.0202364
0.000181167
0.000148511
0.000134495
0.000155018
0.00378761
0.000257282
0.000138219
0.000137701
0.00022655
0.000146968
0.000167026
0.000151595
0.000140143
0.000229318
0.000141338
0.000221324
0.00017132
0.000455144
0.000406388
0.000180974
0.0212131
0.000207864
0.000233579
0.000401457
0.000200139
0.000144802
0.000148867
0.000154485
0.000153377
0.000211913
0.000149063
0.000290188
6.65097e-06
0.000153985
0.0240478
0.000203468
0.0288882
0.000182374
0.000142418
0.000162983
0.000150683
0.000202919
0.000165972
0.0001678
0.0148535
0.000164699
0.00311393
0.005188
0.000158109
0.000138136
0.000144674
0.000154873
0.000157336
0.000169856
0.000185781
0.000168406
0.000173562
0.0281105
0.000164742
0.000145431
0.00664832
0.000166643
1.89421e-05
0.000178092
0.0288566
0.000209439
0.00015823
0.000246523
0.000264842
0.000166671
0.000164953
0.00198572
0.00739573
0.00018686
0.000154751
0.00949409
0.000198635
0.000149298
0.000148688
0.0203901
0.000208259
0.000152815
0.000153628
0.0122917
0.000179684
0.000132167
0.017372
0.000155583
0.00015876
0.000164799
0.000173388
0.000208882
0.0283427
0.000151095
0.000251462
0.033792
0.000172873
0.00015548
0.000158159
0.0262606
0.000153796
0.0140091
0.000159038
0.000169724
0.0136126
0.000154445
0.000177719
0.000142944
0.0239466
0.0299123
0.000214511
0.0189804
0.000336947
0.000137534
0.000114435
0.000216062
0.000146572
0.000170629
0.000165365
0.000158473
0.00015478
0.000197632
0.000324629
0.000187748
0.000196032
0.000192525
0.000167218
0.00221361
0.0345607
0.000159841
0.0588729
0.0252324
0.000151053
0.000298858
0.000145106
0.0151389
0.000340385
0.0220234
0.000171544
0.000883153
0.000147281
0.000198117
0.000225169
0.033388
0.000155363
0.00016159
0.000193741
0.000140467
0.00521238
0.000153475
0.000149347
0.00611
0.000152898
0.000198223
0.00583365
0.000144359
0.00016136
0.000147225
0.0488892
0.000439967
0.000226345
0.0108193
0.000220567
0.000229124
0.000200596
0.000165638
0.000145161
0.00014843
0.000154027
0.0200286
0.000215385
0.000195096
0.00644402
0.000163116
0.00474898
0.000150238
0.00019093
0.00959141
0.000432127
0.000152191
0.000183676
0.0575574
0.000198164
0.000137851
0.00016709
0.00014156
0.000153132
0.000156964
0.000136591
0.000138032
0.00014126
0.000139691
0.000183083
0.000176053
0.000150035
0.000244009
0.000150173
0.000155077
0.000169099
0.000216077
0.0737791
0.000136204
0.0269898
0.000146935
0.0206812
0.0003822
0.000619996
0.000209478
0.000152807
0.000155214
0.000166221
0.000327528
0.000142672
0.000148289
0.00016218
0.000154514
0.000207046
0.000158165
0.000175432
0.000152995
0.000139455
0.000186211
0.00018313
0.000477889
0.00083442
0.000199764
0.0143641
0.00810984
0.0304652
0.00619191
0.00015198
0.000331775
0.00018251
0.000240673
0.000160851
0.000141267
0.00361622
0.00127771
0.000152982
0.000159449
0.0730884
0.0205487
0.00021125
0.00288516
0.0038323
0.000167773
0.000137961
0.000145554
0.000224902
0.00268921
0.0190748
0.000141262
0.000179761
0.000158635
0.000176725
0.00978468
0.000183726
0.000143302
0.000148818
0.000195621
0.000143475
0.0001469
0.000279293
0.000175733
0.000156917
0.000281541
0.000549988
0.000150246
0.000209084
0.018984
0.0470794
0.000183056
0.00216813
0.000123983
0.000200434
0.000177816
0.013883
0.000208882
0.000251324
0.0234913
0.000134006
0.0297453
0.000266763
0.000160452
0.000436804
0.000148771
0.000176415
0.000160876
0.000141315
0.000161885
0.000150184
0.000934506
0.0144094
0.00109364
0.00014626
0.000315108
0.000159053
0.000153216
0.000223943
0.000143734
0.0248035
0.000185346
0.000178258
0.000289621
0.000157971
0.000243663
0.000262469
0.000172738
0.000153074
0.000825013
0.000279403
0.000324862
0.000245756
0.000226472
0.000140038
0.0126575
0.000152511
0.00016542
0.00015525
0.000182324
0.000274812
0.000195262
4.62888e-05
0.000197929
0.000275085
0.000150004
0.000127927
0.0184093
0.000146359
0.000231425
0.000143036
0.000176359
0.000198163
0.000228719
0.000153717
0.000148609
0.0118969
0.000144236
0.056152
0.0489464
0.000185492
0.0142084
0.000176173
0.000144118
0.000166815
0.000200961
0.00018415
0.000146148
0.000182732
0.0201336
0.00277363
0.000252748
0.0189247
0.000150691
0.0325972
0.000206648
0.000152756
0.000170747
0.000176323
0.000184032
0.052594
0.000159302
0.000143654
0.000306397
0.000152339
0.000154056
0.000211061
0.0769558
0.000186071
0.000129033
0.000208363
0.00446495
0.0145382
0.000149322
0.000216282
0.00015466
0.0170312
0.000208309
0.0643746
0.000144271
0.000250014
0.000149517
0.000150285
0.0150531
0.00475152
0.0129598
0.00020137
0.000155797
0.000176013
0.000157981
0.000189843
0.000131963
0.000156696
0.000166528
0.00017045
0.000148625
0.000140486
0.000149578
0.000115153
0.000235183
0.000433525
0.000170477
0.0246651
0.000183385
0.000144729
0.000208545
0.000199659
0.0078309
0.000147453
0.0286149
0.000143672
0.000183266
0.000148727
0.0476883
0.000139309
0.000137784
0.000157487
0.000153105
0.00108693
0.00019387
0.000325161
0.011197
0.0144391
0.00014464
0.00020755
0.000144663
0.000140459
0.000166826
0.000182497
0.0121412
0.0459634
0.000152613
0.000178392
0.000187979
0.000163266
0.000200711
0.0441702
0.000193044
0.000189482
0.0558172
0.00128297
0.000364414
0.000227975
0.000140043
0.000146508
0.000224829
0.000155447
0.000198563
0.000247783
0.00014686
0.000144225
0.000139651
0.0184213
0.000168377
0.0273761
0.00015655
0.0097389
0.00031301
0.0257949
0.0476958
0.000251661
0.0219555
0.000305567
0.000232864
0.00176894
0.000144367
0.000173245
0.00826123
0.000160489
0.000159214
0.000137893
0.000318406
0.0299159
0.000624716
0.0131635
0.000137859
0.000146468
0.000207096
0.000146408
0.000146816
0.000133999
0.000189044
0.000159965
0.000144435
0.000161376
0.000177337
0.000160232
0.000183105
0.0289107
0.000146112
0.000187092
0.016499
0.000154704
0.000185706
0.016228
0.0171582
0.000159345
0.00015049
0.000203625
0.00019783
0.000157697
0.000956068
0.000334469
0.000197959
0.000232713
0.000167789
0.000216568
4.34355e-05
0.000239219
0.000158123
0.000200223
0.000144633
0.000174133
0.000144492
0.00360756
0.000328069
0.000153744
0.00139028
0.000196343
0.0306449
0.0324346
0.000265397
0.000204928
0.000146348
0.0142038
0.000164515
0.045963
0.000174594
0.000147555
0.000645669
0.000145117
0.000185483
0.00571872
0.000148596
0.00502518
0.000160486
0.000161712
0.010829
0.0310003
0.000185106
0.000177074
0.00170656
0.000159765
0.000157877
0.000156383
0.0221059
0.000149367
0.000151154
0.000241863
0.000264647
0.000208666
0.0120124
0.000186463
0.00839658
0.000141091
0.0506865
0.000137857
0.000187473
0.000174449
0.000148161
0.000193353
0.000189274
0.000231615
0.000176961
0.000216191
0.000178221
0.000144458
0.000198869
0.0163478
0.000150407
0.000169247
0.000141023
0.000203939
0.000148298
0.00014622
0.000248282
0.000151552
0.000146614
0.000547334
0.000163784
0.000242453
0.000196683
0.000147529
0.000152698
0.0163346
0.0306892
0.0189699
0.0361842
0.000181917
0.00286851
0.0241274
0.000169757
0.000155178
0.000142509
0.00691909
0.00024863
0.0253783
0.0239643
0.000156031
0.0414317
0.000141585
0.000146414
0.0149475
0.000210081
0.0352111
9.38563e-05
0.000219171
0.0143622
0.000142063
0.000155727
0.00615407
0.0142648
0.000122338
0.0132517
0.00496359
0.014084
0.000163758
0.000202906
0.000186998
0.000145973
0.000172154
0.000158776
0.000201715
0.000198858
0.000185241
0.000193957
0.000333204
0.000166334
0.000153491
0.0066243
0.000139845
0.000175686
0.000165521
0.000314902
0.00725013
0.026797
0.000156226
0.0066943
0.000254056
0.000230101
0.000221806
0.000144034
0.0190775
0.00117072
0.000193862
0.000140927
0.0411843
0.00673598
0.000376377
0.00516092
0.000217283
0.000168307
0.000216262
0.000229604
0.000210797
0.000160239
0.000222339
0.000197534
0.00468527
0.000140031
0.0219322
0.000225852
0.000165908
0.000162067
0.000141295
0.000176705
0.000153876
0.00014504
0.000185948
0.0003425
0.000208979
6.45667e-05
0.0561005
0.0353295
0.000160054
0.0239893
0.000176569
0.000143972
0.000170495
0.000142305
0.000192932
0.000167162
0.00228978
0.000177962
0.000461386
0.000172276
0.000159755
3.16003e-05
0.000220664
0.000172579
0.0283237
0.000154232
0.000202166
0.0129225
0.000143551
0.0112656
0.000306543
0.000154135
0.000228021
0.000157122
0.000159665
0.000193631
0.000174262
0.0051895
0.000166351
0.000146492
0.00020795
0.000182394
0.0248347
0.000181261
0.000164657
0.000184776
0.00015027
0.00167407
0.0129197
0.000302238
0.00530564
0.000379502
0.000204016
0.000174783
0.00351202
0.000176644
0.000151902
0.000192535
0.000184541
7.67351e-05
0.000165951
0.0184083
0.000176583
0.0104432
0.00015053
0.000326277
0.000163659
0.000209735
0.000152755
0.000195045
0.000161072
0.000149697
0.000166911
0.000222606
0.000152506
0.000184123
0.000143474
0.00021044
0.000174358
0.0508494
0.0171964
1.77788e-05
0.0562122
5.95914e-05
0.0268602
0.000158311
0.000154204
0.000141953
0.00015272
0.000144305
0.000198674
0.0364169
0.000228756
0.000142522
0.000427127
0.000456099
0.000194844
0.000164919
0.000221912
0.0757849
0.0316351
0.000232594
0.00019546
0.0168817
0.000200601
0.000199467
0.000165368
0.00252631
0.000165176
0.000144185
0.000109566
0.000144245
0.000175011
0.000151171
0.0144156
0.0227509
0.000102232
0.000190016
0.0392584
0.0238702
8.49683e-05
0.000177918
0.0672952
0.000664702
0.000147031
0.0142202
0.00025297
0.000168205
0.0140642
0.0107388
0.000156585
0.000146104
0.000157705
0.0140365
0.000201119
0.000351639
0.0102537
0.00023463
0.000164163
0.00017771
0.000157288
0.000170614
0.0241822
0.0213349
0.000208757
0.000157348
0.000182027
0.000163897
0.000166384
0.000162119
0.000197329
0.000214778
0.000167548
0.0440398
0.000196611
0.0194385
0.000161286
0.000147886
0.000163735
0.000230535
0.0119499
0.000147698
0.0464489
9.23323e-05
0.000201726
0.000234395
0.000141162
0.000228079
0.000152272
0.000141046
0.000192582
0.000139921
0.000210937
0.000166762
0.000150079
0.000169956
0.0570542
0.000173821
0.000173276
0.000151887
0.000173075
0.000178348
0.000144294
0.000177831
0.00515871
0.0380729
0.000145542
0.000170038
0.000152613
0.0364607
0.000139841
0.0148167
0.0589015
0.0147938
0.00016221
0.0255679
0.000142387
0.000206704
0.000470558
0.0141841
0.000166658
0.000239347
0.0218372
7.90123e-05
0.000266514
0.000154703
0.000157448
0.000184611
0.000184034
0.000143501
0.000148921
0.0368568
0.0144477
0.000162954
0.000212251
0.000183346
0.00264666
0.000160988
0.000154478
0.000154736
0.000144633
0.0491493
0.00019214
0.00471666
0.000147816
0.000200888
0.000146564
0.000161074
0.000148154
0.000204966
0.00546001
0.000199651
0.000144249
0.0353378
0.000632694
0.000145014
0.000225586
0.000151815
0.00802637
0.000330537
0.000158928
0.019526
0.000276474
0.000222631
0.0182335
0.00013961
0.000148712
0.00019429
0.0151832
0.00716782
0.000183309
0.000141187
0.0512749
0.015466
0.000151216
0.000156528
0.00125121
0.000178389
0.000163049
0.0104126
0.000142264
0.000154485
0.000144118
0.000142809
0.00769014
0.000949593
0.000219389
0.0186783
0.000203738
0.000144462
0.000148303
0.000143622
0.00016462
0.000199467
0.00881567
0.000190418
0.000183103
0.000199629
0.0463576
0.000194044
0.000152884
0.0144908
0.000200654
0.0338255
0.000151782
0.000290673
0.000217718
0.000209354
0.00028889
0.000199254
0.000162413
0.0246857
0.000138401
0.000140673
0.000233603
0.000190394
0.00198034
0.0312963
0.00524815
0.00019317
0.000257595
0.000166714
0.0150352
0.0126185
0.0220195
0.000144026
0.000886917
0.00015301
0.000170709
0.000223845
0.000173312
0.000221413
0.000132955
0.000178364
0.019174
0.000200029
0.000194209
0.0042077
5.67147e-05
0.00361702
0.0339745
0.0224523
0.000137628
0.000142715
0.0545273
0.000146037
0.000137616
0.000157628
0.000155184
0.000238258
0.000191495
0.000151249
0.000161406
0.000193368
0.00824935
0.0266601
0.000237348
0.000215442
0.00024102
0.000242213
0.000206865
0.000145397
0.0104159
0.0151993
0.000178698
0.000278826
0.0438441
0.000156993
0.0641552
0.00023645
0.000211081
0.00014854
0.000188915
0.0151492
0.000184132
0.00913962
0.000180463
8.79003e-05
0.00222221
0.000154475
0.000143619
0.000214556
0.0262954
0.0051755
0.000168153
0.000242415
0.000235501
0.00350951
0.00016738
0.00449795
0.000179249
0.000276604
0.0339489
0.000218717
0.000405083
0.0285108
0.000214503
0.0145177
0.00015231
0.0326777
0.000200585
0.0149403
3.40466e-05
0.000185051
0.000147011
0.000148618
0.000196486
0.000161083
0.000156964
0.000183009
0.000142954
0.000824778
0.00149215
0.000199239
0.0139433
0.0168026
0.000143624
0.0120272
0.000326947
0.000183558
0.000253746
0.000286371
0.000246454
0.00025524
0.0002282
0.000169602
0.000126536
0.000148885
0.0217283
0.000180644
0.000392196
0.000256964
0.000324759
0.000143717
0.0204421
0.000203467
0.0256813
0.000164425
0.0182098
0.0155978
0.000183548
0.000186272
0.000160802
0.000150437
0.000188553
0.000206046
6.09951e-06
0.0193814
0.00484995
0.000147528
0.000230408
0.000161124
0.0280446
0.0179042
0.000214047
0.0225855
0.000202139
0.000172677
0.000171048
0.000147934
0.000151318
0.000157111
0.0554944
0.000172714
0.000143629
0.000165011
0.000145933
0.000154369
0.000259914
0.000140052
0.000205689
0.000164068
0.0185443
0.0152819
0.000184838
0.00247898
0.0100911
0.000178998
0.0130047
0.000167504
0.000140237
0.000142596
0.000177805
0.0184732
0.000181144
0.000176624
0.000206681
0.000220037
0.00023379
0.000529188
7.86284e-05
0.000143643
0.000217189
0.000156128
0.000183611
0.000473105
0.000239304
0.000147839
0.0078057
0.00014261
0.000155189
0.02066
0.000142923
0.00135955
0.00510041
0.000197023
0.000148975
0.00143842
0.000188863
0.00732097
0.00020559
0.000204846
0.000192539
0.000164972
0.000146163
0.000259359
0.000152757
0.000411511
0.0188222
0.0200342
0.000214099
8.54605e-05
0.000157022
0.000170129
0.000157283
0.000220513
0.019544
0.000174602
0.00025837
1.3688e-05
0.000142358
0.000143741
0.0255608
0.0151211
0.000233815
0.000879131
0.00014323
0.000177546
0.000176541
0.0143487
0.022613
0.000180345
0.000190971
0.000794182
0.000170282
0.00411132
0.000144892
0.000161687
0.0402751
0.05097
0.0205958
0.000146454
0.000157169
0.000143625
0.000150394
0.0254491
0.0301057
0.00017457
0.000177617
0.000148271
0.00106346
0.000228574
0.000604263
0.00880965
0.00021615
0.000158441
0.00439514
0.000286887
0.0264634
0.000147459
0.00197451
0.0196322
0.000235906
0.0239127
0.0163359
0.000142851
0.000179714
0.000167915
0.000187387
0.00019419
0.000143667
0.00019939
0.000146212
0.000222024
0.0187609
0.000187198
0.00016895
0.000146284
0.000146012
0.0179129
0.00015882
0.000152434
0.000248424
0.000181504
0.00015797
0.00017893
0.000204491
0.000142477
0.0513774
0.000155228
0.000148115
0.000159454
0.000147242
0.000180304
0.000152356
0.000164619
0.000170875
0.000168125
0.0336646
0.000149299
0.000170113
0.0440981
0.00017454
0.00016142
0.000164842
0.000249609
0.000181597
0.000198098
0.000142325
0.0181961
0.000132384
0.00529554
0.000112639
0.000181737
0.00132204
0.0136364
0.000170018
0.000175118
0.0310157
0.000171739
0.000307851
0.000164094
0.000205745
0.000145236
0.000169602
0.000145919
0.000162664
0.000156674
0.000152086
0.000196411
0.000241345
0.000150314
0.000203698
0.000139249
0.0541407
0.00343601
0.00014244
0.000225489
0.0146032
0.000200821
0.000149942
0.009046
0.000283722
0.000136496
0.000184953
0.000155996
0.000200089
0.00019305
0.00019263
0.00024286
0.000153188
0.000196913
0.000153866
0.000485654
0.0898981
0.0248548
0.000193396
0.000171668
0.000179391
0.0201375
0.000180061
0.000156966
0.000150098
0.000200486
0.00179288
0.000200269
0.000150584
0.000146001
0.000204932
0.000149913
0.00885994
0.000176007
0.0453231
0.000163962
0.000138331
0.000184028
0.0413381
0.0321661
0.00014581
0.00019355
0.0479666
0.000154453
0.00014627
0.000190514
0.000276613
0.000620731
0.000176704
0.000183041
0.000421918
0.00454914
0.000275404
0.000169303
0.000165614
0.000272071
0.000188008
0.000143024
0.000138237
0.000266792
0.000175729
0.0556646
0.000156939
0.00016776
0.000160069
0.000148696
0.00206366
0.000172557
0.00019878
0.000212439
0.00864579
0.000630676
0.0127472
0.00184265
0.000159535
0.000158864
0.00796944
0.000155625
0.00359889
0.01333
0.0201878
0.0279012
0.000141573
0.000157785
0.000144285
0.000160204
0.000175788
0.0371307
0.000186783
0.000197317
0.000145917
0.000177606
0.000183684
4.19079e-05
0.000145313
0.000171315
0.00190294
0.000295163
0.00135208
0.00238259
0.000222008
0.0415705
0.000144786
0.000181311
0.0288763
0.000160878
0.000256016
0.000182604
0.0479957
0.000202541
0.000150865
0.000197037
0.000153867
0.000134992
0.000398969
0.000203647
0.0466287
0.000152381
0.000159095
0.000150415
0.000168938
0.0370467
0.000142126
0.000143698
0.000140069
0.000491322
0.000244514
0.000277754
0.000844545
0.0476952
0.0503065
0.000165672
0.00015857
0.00525464
0.0455055
0.000165601
0.000167722
0.000153724
0.000154268
0.000190801
0.000151721
0.000151214
0.0569004
0.000144135
0.000147285
0.000141604
0.0127929
0.00022727
0.00659213
0.000163599
0.000141067
0.000142053
0.000170914
0.000154453
0.000240581
0.000156689
0.000146176
0.000159418
0.000154421
0.000146437
0.000238928
0.0175039
0.0788756
0.000652268
0.000214095
0.000141808
4.62422e-05
0.000182236
0.000193951
0.000152712
0.000145789
0.000164242
0.000789973
0.000171098
0.000296073
0.000208591
0.00447632
0.000167855
0.000164006
0.000157664
0.000168596
0.000202686
0.000230551
0.000141148
0.0259482
0.000177746
0.0126101
0.0138016
0.00018306
0.0339809
0.000153486
0.000160529
0.000184756
0.000192528
0.000172295
0.0321376
0.000197424
0.00021332
0.000142815
0.000155742
0.0275526
0.0434338
0.000184561
0.000199783
0.000178122
0.000253441
0.000160193
0.000153984
0.000155515
0.0380589
0.000200928
0.000199348
0.000183608
0.000184026
0.013713
0.000221047
0.000213835
0.000191363
0.0347044
0.000965377
0.000142928
0.0169743
0.000158439
0.0780728
0.00015864
0.000164051
0.000238777
0.0032027
0.000183298
0.000157536
0.000218297
0.0460518
0.000244079
0.000194872
0.0430184
0.000217298
0.000153291
0.000242941
0.000181134
0.000157003
0.000138895
0.0138399
0.0185275
0.000139484
0.000163867
0.000217503
0.0174292
0.000191393
0.000191369
0.000206597
0.0457113
0.000388967
0.00018138
0.000186038
0.000196357
0.000144585
0.000141109
0.000140802
0.000275015
0.0171891
0.000189772
0.000175356
0.000294346
0.0226652
0.000147752
0.000191478
0.0224991
0.000142271
0.017643
0.000164362
0.000237067
0.000154861
0.0424339
0.0531086
0.000155248
0.0474285
0.0170335
0.00016622
0.000169058
0.000283497
0.000158089
0.016278
0.000259552
0.0001399
0.000188978
0.0317246
0.000160767
0.000142232
0.000223947
0.000188796
0.000143795
0.0147446
0.0539976
0.000156245
0.0461189
0.0397012
0.000176686
0.000144239
0.0427878
0.000138744
0.000142149
0.000153219
0.000152002
0.000854675
0.0706688
0.00611196
0.000191604
0.0520052
0.00014926
0.0553334
0.00456866
0.000139059
0.000143622
0.000199166
0.000184193
0.000141035
0.00446839
0.0405826
0.000208851
0.000140161
0.0482121
0.000230525
0.00016494
0.000678273
0.000140039
0.000150944
0.000183128
0.0386765
0.000249559
0.00564899
0.000205336
0.00015487
0.0219602
0.00020706
0.000142501
4.99084e-05
0.000182889
0.000143422
0.000144919
0.01675
0.000162306
0.00439006
0.0121891
0.000197177
0.000170071
0.000152015
0.0058709
0.045561
0.00028389
0.000144622
0.0040392
0.000244164
0.0415375
0.000154558
0.00964792
0.000150663
0.000150894
0.000211338
0.03242
0.000175725
0.0145822
0.000187807
0.000213432
0.000161272
0.00017807
0.000142576
0.00479881
0.00015485
0.00019817
0.00023241
0.000142963
0.00700251
0.000196387
0.0356927
0.000228645
0.000141352
0.000234953
0.00689782
0.00014707
0.0273665
0.000145586
0.0115168
0.000363982
0.00017596
0.000161999
0.000156239
0.000195835
0.000230275
0.000206866
0.000220181
8.00104e-05
0.0149543
0.0152436
0.000144963
0.00015183
0.000161658
0.0115316
0.00016316
0.000148504
0.000305284
0.000147533
0.000145925
0.000141211
0.0220397
0.00929901
0.000141529
0.000201032
0.000145651
0.0339102
0.000209761
0.0479076
0.00204017
0.000215242
0.000149574
0.046787
0.0137127
0.014244
0.00204266
0.000234396
0.000147165
0.000140722
0.0390442
0.000139245
0.00462143
0.00868345
0.000151506
0.000239643
0.000166484
0.000143546
0.000247423
0.000164177
0.000180094
0.000151227
0.059914
0.0001426
0.00024847
0.000199332
5.53603e-05
0.000154365
0.0405353
0.0174759
0.000133124
0.000405797
0.000188296
0.000139328
0.000215044
0.0139159
0.000181324
0.000197218
0.000142107
8.99036e-05
0.000150057
0.000208552
0.000237072
0.000152446
0.0219582
0.000196424
0.0432635
0.000187349
0.000141125
0.00020659
0.00013693
0.000151068
0.000165145
0.013899
0.000158294
0.00031606
0.0385914
0.000176671
0.00018135
0.00015668
0.000165028
0.0462544
0.000370903
0.0141516
0.000148511
0.000197575
0.000205879
0.000159723
0.000267803
0.000150041
0.000155452
0.000165316
0.000148151
0.000150938
0.000208029
0.000203387
0.000167787
0.000149051
0.00015383
0.0642578
0.0234409
0.00016673
0.000165341
0.00030788
0.000152735
0.00392133
0.00039434
0.000194119
0.000235345
0.000238861
0.000209805
0.0502806
0.000234774
0.00023704
0.000212223
0.000145734
0.000180685
0.000196835
5.43179e-05
0.0538415
0.038175
0.000161236
0.000151797
0.000152283
0.000349331
0.000229225
0.00127146
0.000271782
0.000518943
0.000209897
0.00439735
0.000192571
0.0130299
0.044455
0.000213394
0.000182096
0.000147334
0.000181299
9.61239e-05
0.000141867
0.000551164
0.00017279
0.000179578
0.000209736
0.000152074
0.000138832
0.00014561
0.00193845
0.000182531
0.000197395
0.000198451
0.000154121
0.000237834
0.0202572
0.000154508
0.0104077
0.000140903
0.00021142
0.000215323
0.00017691
0.000189555
0.000364655
0.00175869
0.00013842
0.00720524
0.00570542
0.000147188
0.00014743
0.000194575
0.00014925
0.000182573
0.000138351
0.0267069
0.000178581
0.0308336
0.0657036
0.000192858
0.0287086
0.000152256
0.000178394
0.00109137
0.000112831
0.00019015
0.000204678
0.000144797
0.000146251
0.000184514
0.000193845
0.000140861
0.0217642
0.00020927
0.0318466
0.0143893
0.000212949
0.000150879
0.000150472
0.000712842
0.000144607
0.000139828
0.000204277
0.000138173
0.0216718
0.00018529
0.000177688
0.000174393
0.000163182
0.000222197
0.000291691
0.000180495
0.000193738
0.00464964
0.000146569
0.000246747
0.000166803
0.000247567
0.0146793
0.00111642
0.000140562
0.000162273
0.000164286
0.000292127
0.00376461
0.000191744
0.000518979
0.000147514
0.000159043
0.000201589
0.068153
0.000143146
0.000212699
0.000201159
0.000170455
0.000340244
0.0254003
0.000172096
6.85355e-05
0.000146015
0.0034939
0.000171448
0.00578115
0.000207257
0.000164573
0.000181684
0.000190823
0.000164866
0.000203971
0.000856845
0.000268171
0.0021149
0.000152677
0.054536
3.3872e-05
0.0101071
0.000134705
0.000166477
0.000108183
0.000164436
0.00020189
0.000190598
0.000143553
0.0200723
4.79661e-05
0.0654239
0.000146709
0.000200099
0.000191357
5.71471e-06
0.000148811
0.000143408
0.000298083
0.000173251
0.000190696
0.00265957
0.000143396
0.000196364
0.000164151
0.000189152
0.000203316
0.0001997
0.000162682
0.000172746
2.68816e-05
0.00239463
0.0130071
0.000332135
0.00637774
0.000143595
6.84168e-05
0.00480386
0.000208359
0.000199308
0.000204052
0.000141737
0.000152363
0.00697035
0.000197907
0.00256147
6.99668e-05
0.00100923
0.000201792
0.000264027
0.000147052
0.000189808
0.0404703
0.000134774
0.000139545
0.00347041
0.000198959
0.0585232
0.000198146
0.000247398
0.015868
0.000224212
0.000209212
0.000142673
0.000159863
0.00334342
0.00399571
0.00357431
0.000158894
0.000201353
0.000526354
0.0556082
0.000262015
0.0348779
0.000204778
0.000233774
0.000182659
0.0562745
0.000228113
0.000259976
0.0160589
0.000160128
0.000181487
0.000199429
3.24412e-05
0.000151802
0.000149633
0.00017379
0.00120949
0.0002243
0.0494287
0.000170401
0.000140417
0.000170391
0.000250438
0.000203088
0.00343908
0.00388616
7.15998e-05
0.000163238
0.000212424
0.0001817
0.000153785
0.000192387
0.000143378
0.00014948
0.000200074
0.000148519
0.000197844
0.000191943
0.0399522
0.000153814
0.000144262
0.000254484
0.000244146
0.000140227
8.42602e-05
0.000193108
0.000513377
0.000146391
0.0139964