/*--------------------------------*- C++ -*----------------------------------*\
| =========                 |                                                 |
| \\      /  F ield         | OpenFOAM: The Open Source CFD Toolbox           |
|  \\    /   O peration     | Version:  v2012                                 |
|   \\  /    A nd           | Website:  www.openfoam.com                      |
|    \\/     M anipulation  |                                                 |
\*---------------------------------------------------------------------------*/
FoamFile
{
    version     2.0;
    format      ascii;
    class       volScalarField;
    location    "300";
    object      omega;
}
// * * * * * * * * * * * * * * * * * * * * * * * * * * * * * * * * * * * * * //

dimensions      [0 0 -1 0 0 0 0];


internalField   nonuniform List<scalar> 
14479
(
1.27511
0.484512
1.49727
0.0217946
0.0412207
0.023349
0.0206004
0.147056
0.110823
0.177309
0.0210933
0.030878
0.047892
0.490496
0.488342
0.0238195
0.020606
0.510028
0.0214542
0.0351541
0.0551633
0.0411965
0.225894
2.98906
0.0211163
0.0214672
0.221649
0.0978061
0.0216774
0.185064
1.36018
3.09817
0.0265773
0.0262537
1.7309
0.0455657
0.0211891
0.0232386
0.462817
0.041941
0.0246051
0.0210982
0.360113
0.327741
0.0211902
0.0240788
0.0213175
0.491495
0.0196588
0.0210843
4.3121
0.0952814
0.0214192
3.894
0.0918313
0.0319742
0.0506927
0.0221156
0.327796
0.0220961
0.0215636
0.0218039
0.885752
0.021373
0.0206114
0.110035
0.623864
1.48232
0.0214141
0.0216947
1.10334
0.0213843
2.48358
0.0442389
0.0218399
0.0212608
0.0312469
0.880678
0.0211124
0.102055
0.0214711
0.0870016
0.526368
1.26215
0.755653
0.022409
0.0222673
0.0206151
0.142821
0.0222274
0.107248
0.0874621
1.21983
0.0213692
0.570002
0.0213713
0.021132
0.0213425
0.020857
0.498848
0.885429
0.0256134
3.57076
2.04334
1.39754
0.212826
1.53559
0.0281735
0.983567
0.496399
1.49821
0.48461
0.0378868
0.0327619
0.13148
0.0593709
0.0215889
0.241236
0.0278543
0.0219968
0.0217925
1.68491
2.6055
0.0208494
0.559762
0.0375836
0.0221786
0.919872
0.0281901
0.21449
0.0747509
12.8006
1.0104
0.5113
0.230087
0.0333706
0.166838
0.0903583
1.25721
0.657435
0.226031
2.0691
0.0209618
0.336057
0.021475
0.231578
3.06256
0.0217765
0.0419533
0.0744214
0.462464
0.0212757
0.366001
0.023607
0.0214725
0.0208988
0.527822
7.82261
0.506924
0.0342121
0.0476807
0.0204931
0.0212852
0.035226
0.333265
0.0203656
0.0212968
0.0847207
0.109362
0.507976
0.348209
0.0397425
0.0245262
0.0461495
0.0206398
0.0285067
0.0332896
0.0209806
0.0280558
1.55355
0.0572867
0.0198823
0.484913
0.0293007
0.497288
0.0249327
0.388051
6.02665
0.0219708
34.7669
3.6779
0.525965
0.113046
0.522159
0.0254064
0.0393773
0.0209452
0.0314142
0.0308178
0.0212799
0.0746154
0.0234777
0.0309878
0.0213098
0.0289341
0.0293478
0.406272
0.0266143
0.0205542
0.0298027
0.0313543
0.0216347
0.0284788
0.027847
0.415749
0.514257
0.0766163
0.0169301
0.518669
0.0259055
0.487888
21.2034
0.0226245
0.0275768
31.7997
0.0232731
1.53505
0.0211795
0.0819412
0.0155033
0.0218827
0.0113182
0.402672
0.0214521
0.0222505
6.12283
0.0238057
0.103408
5.26585
0.021451
0.0226767
0.0212906
0.10623
0.0233075
0.0233378
0.105243
1.79642
0.486614
0.0218539
0.0214726
0.570654
0.026535
0.0325061
0.1854
0.406002
0.0207851
0.0267885
0.0205708
0.0350551
0.0214712
0.021169
0.0230094
0.0214651
0.0209968
0.0209984
0.0281382
0.0365697
0.021476
1.82739
0.0463946
0.0792939
0.0282395
1.67704
0.039162
0.0845097
0.564363
0.108156
0.0206232
0.03196
0.0230139
0.087881
0.0261634
0.0222
0.0227898
0.177178
0.774901
0.0771341
1.19881
0.0361981
1.21163
0.2016
0.0217946
0.0334535
0.573086
0.0230492
0.527627
6.00147
0.0220352
0.039063
0.573069
3.92214
0.0965124
0.0209893
0.0216553
0.0419457
1.89426
0.0203256
0.93118
0.0205431
0.132477
0.0261866
0.649337
0.0230211
0.0221009
0.0426634
6.90195
0.381605
0.0256989
0.0418874
0.0205303
6.49057
0.10986
0.845555
0.774623
0.0215953
5.35908
9.77073
0.431502
0.0463634
0.0230176
0.326632
0.0209115
0.031561
0.0628774
0.0238803
0.0221554
1.38942
0.0272627
0.0232959
0.022075
0.021619
0.0375077
0.0205347
0.0494141
0.556025
0.0321583
0.22374
0.0413669
0.0874131
0.0125743
0.0214571
0.0586151
2.19919
0.881744
0.0267536
1.84372
0.374704
42.4224
0.0215897
16.6859
0.0211659
0.0696491
6.99128
1.5527
0.0229201
0.0213018
0.0201981
0.0299137
0.0690958
0.0202284
0.0243804
0.477373
0.0244997
0.0913475
0.53053
0.253693
0.0217336
0.150267
0.0302318
0.0219267
0.0431312
0.0796212
0.0214544
0.024071
3.61037
0.0294713
3.32256
0.0216362
0.259767
0.0320783
0.14333
0.0453898
0.0231905
1.00687
0.549958
0.0375634
0.0240037
0.49788
0.0943511
0.175529
0.0613239
0.101801
0.039262
0.0379231
0.0435177
0.0233722
0.048544
0.0427312
2.18605
0.0559558
0.387698
0.370242
0.0289292
0.0914719
0.0215604
0.825936
0.0217153
0.0222639
13.7475
0.100811
0.387133
0.824298
3.38725
0.867067
1.40392
0.0220139
0.0233538
0.0271834
0.0203905
0.0212701
0.0216652
0.0461983
0.0798408
0.487775
8.52672
0.0502309
0.760191
0.0454047
0.0687158
0.0216041
1.32508
0.0205932
0.0213738
1.6968
0.021649
0.020935
0.0231841
0.522384
0.0262265
0.0219518
0.0216374
0.0216926
0.506038
0.0282637
0.631828
0.0607696
0.0215927
0.902607
0.208867
0.974529
0.209347
0.0216933
0.0233298
0.0308508
0.535682
0.0210147
0.0433595
5.83144
1.32301
0.021537
0.021144
0.10559
0.0250492
0.0225952
1.5596
0.103168
0.0881071
0.612524
0.0523585
0.0221124
0.153823
0.043646
0.196664
0.54733
0.0478525
0.0224241
0.0198316
0.0226464
0.469042
0.0441005
0.0205343
0.0205031
0.195623
0.0215837
0.025179
0.0219778
0.0207844
0.184463
0.0212591
0.175259
0.0340344
0.132392
0.155496
0.0449018
7.09904
0.142722
0.271577
0.487638
0.0516904
0.0223601
0.0216055
0.0230269
0.0229287
0.129517
0.0219235
0.214201
0.0618484
0.0231441
0.853913
0.103454
1.53364
0.0330451
0.0211435
0.0275158
0.0218362
0.100057
0.0271329
0.0316367
0.316292
0.0248405
3.11039
4.18066
0.0246967
0.0205293
0.0214564
0.0215944
0.0243645
0.0254486
0.0568777
0.0319292
0.0374798
1.45259
0.028739
0.0214779
0.349958
0.0305818
0.0731558
0.0235892
1.45008
0.0440701
0.0242914
0.311525
0.235467
0.0272999
0.0288587
0.285265
0.945539
0.0554006
0.0239447
5.25937
0.0293508
0.0219512
0.0226523
3.16768
0.119031
0.0222425
0.0239158
0.386915
0.0457434
0.019643
0.502564
0.0237063
0.0242234
0.0208561
0.0367534
0.129087
37.5039
0.0223518
0.327686
1.2633
0.230964
0.0236764
0.0247166
4.63649
0.0224168
0.417415
0.0255076
0.0320326
0.800031
0.0233856
0.0428334
0.0215817
3.13741
1.47097
0.0304941
0.478389
0.228654
0.0204461
0.0364333
0.0451602
0.0215994
0.0338451
0.0267031
0.0240568
0.0234149
0.0797916
0.101739
0.0596007
0.0658655
0.0393379
0.0305529
2.11143
11.928
0.0249404
8.82159
1.22858
0.0218624
0.924452
0.0220958
0.36398
0.163293
1.24616
0.0346802
0.249419
0.02161
0.0819564
0.0180085
1.50922
0.0236176
0.0270424
0.0323682
0.0208177
5.29308
0.0227732
0.0212645
0.416124
0.0222215
0.0936914
0.334876
0.0213951
0.0268974
0.0216097
6.34698
0.511306
0.154805
1.04151
0.095771
0.0326707
0.0939055
0.0295525
0.0214334
0.0218381
0.0229377
5.81241
0.0901082
0.032432
14.9329
0.0279875
0.363942
0.0219528
0.194249
0.649835
0.072379
0.0233218
0.0515086
8.57459
0.0957162
0.0203258
0.0311331
0.0209851
0.0314674
0.0241864
0.0202388
0.0205305
0.0209805
0.0206442
0.0507851
0.0402123
0.021291
0.0737231
0.0221335
0.0232533
0.0325308
0.204411
31.1699
0.0202275
1.37023
0.0210833
0.494155
0.142331
0.240585
0.121262
0.0227756
0.0232693
0.0302205
0.42594
0.0205822
0.0218174
0.0225911
0.0232946
0.0346372
0.024921
0.0393972
0.0228182
0.0206278
0.0544389
0.0255137
0.881582
0.16778
0.0699031
0.762145
0.53896
5.87176
0.504965
0.0225489
0.0156006
0.0238896
0.0375026
0.0254142
0.0209914
2.25466
2.7452
0.0224369
0.0255586
29.298
1.79846
0.126076
0.750247
2.04155
0.0303195
0.0205269
0.0214622
0.145987
3.85075
0.490317
0.0209754
0.0448518
0.0250753
0.0389129
0.561341
0.0518439
0.0212124
0.021885
0.0753971
0.0212267
0.0215819
0.085705
0.039827
0.0245968
0.382189
0.26402
0.0221429
0.12454
0.490915
6.0775
0.0490388
2.04527
0.0947802
0.087954
0.0429327
0.397467
0.0258331
0.299172
2.74631
0.0197289
0.668289
0.243007
0.0259223
1.27258
0.0218791
0.0407214
0.0248404
0.0209937
0.0225488
0.0217411
0.49947
0.347397
0.818357
0.0215568
0.44511
0.0246342
0.0226867
0.152085
0.0212525
0.511063
0.0544179
0.0406753
0.051608
0.0249181
0.0485923
0.294252
0.0359258
0.0227646
0.28945
0.364544
0.403732
0.188249
0.168528
0.0207251
0.568662
0.0226979
0.0296882
0.0236549
0.0489608
0.0910365
0.0285636
0.0125074
0.0815084
0.0791256
0.0214353
0.0527829
0.48441
0.021592
0.0273218
0.0204943
0.0401721
0.0683616
0.0322017
0.0231737
0.0218552
0.466143
0.0213903
8.1075
10.8653
0.0255298
3.81767
0.0404396
0.0213193
0.0739865
0.0916205
0.0524282
0.0215801
0.0265288
3.28256
2.76106
0.225041
1.20087
0.021484
6.29349
0.110033
0.0227455
0.0338881
0.0405048
0.0521866
1.66352
0.0247213
0.0211045
0.18205
0.0226388
0.0231455
0.0265127
11.3479
0.0583669
0.0909761
0.939225
0.687282
0.311222
0.0227315
0.184677
0.0233753
0.355763
0.115796
29.6831
0.0214026
0.0603451
0.021827
0.0227742
0.441207
16.8885
0.574057
0.0257531
0.0237507
0.0401611
0.024893
0.0460026
0.01962
0.021675
0.0302307
0.0147743
0.0218564
0.0205095
0.0220233
0.509647
0.0423135
0.17879
0.0332766
1.35288
0.050736
0.0214594
0.117837
0.108319
1.39574
0.0216178
4.73187
0.0212457
0.0520609
0.0218586
1.60718
0.0204487
0.0204898
0.0232048
0.0216182
0.267812
0.0633361
0.380566
0.400463
0.386584
0.0211056
0.0311753
0.0213884
0.0207756
0.027081
0.0249278
1.12244
1.58284
0.0218993
0.0435848
0.0546322
0.0264758
0.0916355
1.55666
0.0305335
0.0274304
1.65039
0.245482
0.426888
0.0342281
0.0207439
0.0215135
0.198525
0.0222877
0.0923012
0.29545
0.0212206
0.0213854
0.163403
0.819845
0.0315934
1.38004
0.0242444
0.746398
0.438218
1.34568
1.59896
0.15721
0.841254
0.103552
0.0343031
2.43314
0.021408
0.10694
0.706069
0.0261792
0.0252626
0.0205301
0.138564
0.682395
0.209429
0.742177
0.0205291
0.0215925
0.0671677
0.0215583
0.021539
0.0197485
0.0599665
0.0260994
0.0217124
0.0264642
0.0305409
0.0245952
0.0249337
1.40134
0.021547
0.0579541
0.52906
0.0234907
0.0558656
0.52551
4.08367
0.0231813
0.0219201
0.0393073
0.0260805
0.684787
1.34971
0.083292
0.033842
0.222585
0.0317732
0.132437
0.529934
0.371141
0.0247308
0.092828
0.0213892
0.0380367
0.0217244
1.13992
0.0408636
0.023049
0.332862
0.0311927
5.07072
1.60475
0.382547
0.105827
0.0215959
3.32644
0.0231601
1.56577
0.634257
0.0216756
1.32478
0.021435
0.0552301
3.60168
0.0218364
35.3934
0.0262194
0.0234104
0.685847
1.91728
0.0266326
0.0417404
0.162122
0.0257282
0.0228367
0.0240015
2.72898
0.0217363
0.0220542
0.0385611
0.305033
0.00907815
0.711052
0.0568657
0.547336
0.0209378
10.5348
0.0205347
0.0593922
0.0364857
0.0217934
0.0439633
0.0301045
0.0356509
0.0291524
0.156302
0.0435669
0.0214025
0.0830574
0.350835
0.0219189
0.0254929
0.0209314
0.133385
0.0218168
0.0222123
0.0199155
0.0217288
0.0215621
0.346513
0.0210702
0.2618
0.0361661
0.0216221
0.0225456
3.26317
5.67865
0.499198
1.6457
0.0495885
0.298877
1.23533
0.0333473
0.023563
0.0211031
0.579071
0.265208
0.780483
1.31902
0.022907
6.93899
0.0207627
0.0215557
0.767928
0.124542
4.98792
0.0643317
0.167436
0.346726
0.0207941
0.0237266
0.382673
0.344055
0.772662
0.427087
2.3737
0.387979
0.0241163
0.0324246
0.0581889
0.0215717
0.0356764
0.0235751
0.0620823
0.0939185
0.0528696
0.0706116
0.40261
0.0233394
0.0228876
0.398724
0.020716
0.0396387
0.0277303
0.358611
0.448685
1.58195
0.0239592
0.370511
0.262923
0.169638
0.117529
0.0210163
0.516988
1.99657
0.0702759
0.0209089
6.99728
0.446737
0.580717
2.71414
0.13592
0.0255316
0.105155
0.0508049
0.128481
0.0247841
0.174215
0.0471661
0.304762
0.0207307
2.83556
0.062069
0.0300685
0.0262215
0.0209991
0.0412994
0.0238648
0.021083
0.0557545
0.114385
0.15712
0.109281
27.3784
1.60522
0.0256914
1.54789
0.0407417
0.0212728
0.0339427
0.0130873
0.0712847
0.0246507
1.52449
0.0430152
1.28396
0.0358583
0.0257615
0.226791
0.16824
0.0278107
1.37937
0.022729
0.19024
0.450025
0.0212844
0.437252
0.559372
0.0229387
0.113175
0.0245182
0.0243933
0.0388215
0.0367378
0.313969
0.0247771
0.0215449
0.11966
0.0390742
0.77185
0.0277095
0.0280097
0.0414962
0.0219519
0.519713
0.449523
0.110545
6.3228
1.2686
0.105963
0.0377458
17.5464
0.0410498
0.0222071
0.0680762
0.0524087
0.529118
0.0301538
0.484414
0.0411768
0.440177
0.0218102
0.294448
0.0279759
0.126528
0.0218208
0.0234629
0.0248887
0.0220475
0.0250716
0.18193
0.0226949
0.0533237
0.0207426
0.157816
0.0586751
1.64664
1.71053
0.168951
10.3768
0.129928
0.527925
0.0249215
0.0233588
0.0206354
0.0227478
0.0214102
0.0850576
1.94565
0.150204
0.0210127
0.636005
0.0627037
0.0770764
0.0292781
0.236927
18.0746
1.40954
0.221624
0.0788015
0.479164
0.0938687
0.0266208
0.028999
0.380091
0.0295554
0.0212995
0.0425717
0.0214077
0.039103
0.0220681
0.431712
0.629574
0.0190413
0.0660241
1.8714
0.504144
0.0217095
0.040599
8.77418
0.257587
0.0214202
0.429143
0.0401929
0.02968
0.443257
0.752878
0.0240503
0.0215798
0.0238349
0.444113
0.0960964
0.48496
0.435823
0.23585
0.0284804
0.0426494
0.0243671
0.0275802
7.1036
1.2929
0.100108
0.0243211
0.048626
0.0237651
0.302389
0.0258843
0.0760307
0.176607
0.0292623
1.70612
0.0745563
4.34412
0.0268472
0.0216501
0.0275594
0.151542
1.09899
0.0216963
1.61069
0.0212841
0.0289149
0.209159
0.0209895
0.0348259
0.0222633
0.0209507
0.024189
0.0207438
0.150034
0.0231052
0.0221297
0.0336651
10.4586
0.0270079
0.0365993
0.0217251
0.0352177
0.0437446
0.0213561
0.0242885
2.25448
1.87484
0.0214656
0.0335941
0.0227297
1.58631
0.0207316
0.41195
9.59417
0.414555
0.0236954
6.64351
0.0211013
0.0303485
0.200498
0.445519
0.0307483
0.0301399
0.855767
0.0101938
0.320041
0.0233626
0.0246596
0.0533441
0.0398963
0.0212761
0.0217698
1.61345
0.419025
0.0274514
0.134836
0.0482178
0.21744
0.025169
0.0221854
0.0230199
0.0214721
6.97027
0.0692045
0.464865
0.0222866
0.04995
0.0213983
0.0262538
0.0215133
0.0448394
1.21897
0.119798
0.0211445
1.613
0.083816
0.0214557
0.1536
0.0213094
0.395985
0.437896
0.0251112
1.25708
0.0357578
0.219953
0.424913
0.0206124
0.0217368
0.0716049
0.418513
36.5639
0.0267982
0.0209988
1.62552
0.412934
0.0229026
0.0236819
0.124521
0.0434472
0.0235052
1.15118
0.0210833
0.0239205
0.0213568
0.0211429
0.495573
0.123162
0.19602
0.496199
0.106723
0.0213894
0.0216488
0.021306
0.0252484
0.0883923
0.415231
0.0579974
0.0247526
0.0885576
23.8564
0.0735738
0.0228
0.418137
0.0973846
1.52845
0.0221951
0.0973942
0.110657
0.533356
0.263515
0.0594524
0.0245749
4.51221
0.0209058
0.123454
0.0749634
0.0669785
2.75198
0.892955
3.22911
0.0716295
0.278453
0.0293989
0.413788
0.800003
2.69149
0.0212802
0.301204
0.0218103
0.034331
0.0335507
0.0360053
0.172417
0.01991
0.0435632
0.466185
0.0892768
0.0744649
0.604433
0.313596
2.28734
1.43795
0.506577
0.0204809
0.0211627
9.7763
0.0213376
0.0204807
0.0239418
0.0235222
0.0348676
0.0671613
0.0221823
0.0264427
0.0729291
0.470463
4.68756
0.112588
0.144338
0.0374159
0.178808
0.115723
0.0214483
0.43251
0.410342
0.0442011
0.33405
0.884556
0.0241488
28.0439
0.171303
0.136117
0.0218392
0.0238346
0.436255
0.0527176
0.419057
0.0459228
0.0542679
2.63589
0.0229554
0.0212703
0.142592
0.517431
1.91282
0.0267997
0.243296
0.218983
0.633283
0.0313193
2.37304
0.0297508
0.314069
1.62423
0.0319353
0.440938
1.89056
0.159138
0.812942
0.0218223
1.78141
0.141844
0.428332
0.0835952
0.0507256
0.0218257
0.0217117
0.0670421
0.0261947
0.0243065
0.0500807
0.021222
1.55106
0.565426
0.0930994
0.30432
0.412542
0.0212995
0.764339
0.313611
0.0515041
1.00855
0.0931847
0.252654
0.339037
0.0402973
0.0332401
0.0609367
0.0215838
2.61249
0.0335878
0.453926
0.265702
0.3202
0.0213501
0.846013
0.0496634
0.893115
0.0262822
0.415935
0.421639
0.0514405
0.0568747
0.0246872
0.0217513
0.0568523
0.11272
0.487374
0.604761
2.40548
0.0215713
0.159635
0.0247695
0.883752
0.42235
0.148457
2.72903
0.0494615
0.026546
0.0347078
0.0214986
0.0217411
0.0242996
25.8061
0.0363595
0.0213468
0.0291253
0.021552
0.0232407
0.181638
0.0207512
0.10962
0.0269271
5.89011
0.392163
0.0552424
2.32314
0.763173
0.0447829
3.63512
0.0314038
0.0208042
0.0210132
0.0409115
0.411001
0.0394125
0.0394001
0.112542
0.165081
0.211814
0.613021
0.0325438
0.021755
0.174437
0.0235362
0.0515712
0.615905
0.254767
0.0216047
1.00294
0.0210653
0.0236644
5.7399
0.0210998
0.292011
0.559761
0.120381
0.0216987
0.297284
0.0625364
0.497665
0.102313
0.109528
0.068247
0.41735
0.0214933
0.375556
0.0224069
0.441096
0.421173
0.549416
0.140496
0.850879
0.0236445
0.0330471
0.0245392
0.166012
0.55735
0.0239789
0.167461
0.454371
0.020993
0.0212819
3.8498
1.17321
0.25268
1.59595
0.0212099
0.0424875
0.0238667
3.32943
2.93081
0.0457108
0.0681692
0.2222
0.0338098
2.25141
0.0214499
0.0266054
14.6497
6.54648
0.857356
0.0215142
0.0243137
0.0212563
0.0221331
1.34017
1.43878
0.0237526
0.0231241
0.0216686
0.280442
0.0388169
0.465241
0.718613
0.173583
0.0246202
2.22154
0.227628
1.27069
0.0216562
0.189418
0.528781
1.07909
1.30905
0.345951
0.0212097
0.0232463
0.0317852
0.0560738
0.0440065
0.0213077
0.1196
0.0215297
0.0447136
0.415241
0.0360836
0.0324495
0.0629593
0.0215287
0.40317
0.0248078
0.0224925
0.025597
0.0474959
0.0246675
0.0444607
0.100833
0.0211385
1.6241
0.0235456
0.0107068
0.0241873
0.0216333
0.0432442
0.0226581
0.0291163
0.0331135
0.0228868
1.46573
0.0216249
0.0276254
0.883808
0.122432
0.0269049
0.0287244
0.0269307
0.0378907
0.0871435
0.0211046
0.518288
0.0196898
4.59511
0.128418
0.0247023
1.90223
0.451893
0.0281914
0.039284
1.603
0.051376
0.385382
0.0259248
0.113096
0.0212772
0.0262935
0.0215375
0.0265596
0.0240819
0.0217163
0.0809728
0.36701
0.0219145
0.0997832
0.0208023
7.73221
0.256153
0.0209936
0.188668
0.403889
0.0976255
0.0220973
0.529999
0.270058
0.0204242
0.0539724
0.0233955
0.08884
0.0667987
0.0664555
0.17975
0.0216536
0.0841543
0.0226591
0.649955
8.37793
3.4954
0.0575597
0.0351318
0.0442911
3.16275
0.0452192
0.0242337
0.0220883
0.133716
0.433146
0.0887819
0.0221784
0.0215157
0.132246
0.0220468
0.361515
0.040262
6.07683
0.028681
0.0205765
0.051568
1.604
1.77697
0.021515
0.0695664
13.2891
0.0239662
0.0215294
0.0656345
0.419679
1.40486
0.0354976
0.0350329
0.256576
2.89484
0.036047
0.0329776
0.0298485
0.244389
0.0607343
0.0212318
0.0205658
0.0396319
0.0399579
8.75917
0.0229364
0.031607
0.0256944
0.0218652
2.4308
0.023844
0.0907513
0.137437
0.406931
1.42974
0.573258
2.18871
0.0254293
0.0233856
0.627149
0.0227274
0.440255
3.44116
3.07392
1.57147
0.0206569
0.0246712
0.0214159
0.0261658
0.0392848
1.57606
0.0106787
0.0852661
0.0213493
0.0422275
0.0520865
0.50547
0.0214648
0.0348072
0.341725
0.357889
1.89247
0.428317
0.17439
1.59373
0.0214394
0.0484571
9.33259
0.025715
0.384295
0.0496872
1.60917
0.0998181
0.0219624
0.0837349
0.0230761
0.0200047
0.17119
0.0405528
5.60087
0.0226418
0.0249905
0.0221941
0.0269041
13.5775
0.0210307
0.021303
0.0208154
0.557019
0.0276987
0.0229924
0.258589
6.72035
7.15599
0.0299787
0.0237639
2.76658
22.298
0.0238987
0.0314619
0.023041
0.0232469
0.0663587
0.0222866
0.0228363
6.40248
0.0213756
0.0216491
0.0210542
13.3223
0.194862
6.00636
0.0238888
0.0209713
0.0210601
0.0344321
0.022107
0.0371641
0.0237205
0.0219369
0.0256773
0.0241022
0.0211951
0.205784
1.3358
7.64673
1.6354
0.188921
0.0210826
0.191626
0.049003
0.0693398
0.0227281
0.0215253
0.0234034
0.546958
0.0339448
1.06863
0.0684903
0.302243
0.0230662
0.0283925
0.0245348
0.0324493
0.0438423
0.036876
0.0209805
4.51435
0.0364596
0.572532
0.757678
0.0504662
4.89152
0.0230561
0.0256163
0.0533104
0.0666819
0.0352547
1.9295
0.0904603
0.1321
0.021083
0.0231065
1.41879
14.872
0.0532896
0.0898655
0.0425795
0.194551
0.0253167
0.0226247
0.0233847
19.8781
0.0925417
0.10223
0.0518821
0.051669
0.319713
0.165359
0.146213
0.06746
13.2154
1.52429
0.0207856
0.574839
0.0251655
11.0395
0.0248761
0.0264261
0.0654759
2.25336
0.0236325
0.0244818
0.0599291
1.60864
0.0678908
0.0729547
21.4844
0.0330813
0.0229004
0.203483
0.0471524
0.0237355
0.0205538
0.313404
0.421234
0.0205022
0.0282897
0.0750342
0.499863
0.064716
0.0679305
0.154177
1.62614
0.44466
0.0474068
0.0315106
0.0764262
0.0214709
0.0209496
0.0209201
0.335784
15.8768
0.0645125
0.0289214
0.045692
1.30748
0.0216877
0.0684756
2.64417
0.0210441
1.25918
0.0246165
0.0364686
0.0239072
34.7403
7.75273
0.0236523
6.93631
0.413416
0.0303469
0.0328431
0.317426
0.0249987
0.398529
0.586005
0.0206281
0.0626164
1.65958
0.0227848
0.021076
0.200131
0.0628489
0.0213057
0.372145
12.9269
0.0235546
6.8434
6.22423
0.02919
0.0214146
6.5133
0.0205403
0.0210891
0.0224242
0.0223885
0.233002
14.9518
0.634788
0.0589105
7.63456
0.0212059
10.2483
2.22653
0.0205793
0.0212804
0.0245788
0.0525723
0.0209714
3.68218
1.81914
0.123844
0.0208301
6.62787
0.0387717
0.0292342
1.44386
0.020618
0.022671
0.0515318
1.59964
0.0722303
4.44431
0.0274924
0.0228466
0.490394
0.0279773
0.0207954
0.198849
0.0455636
0.0211323
0.0214365
0.392676
0.0260383
0.438361
9.047
0.0835013
0.0266966
0.0225637
1.03537
6.27596
0.278699
0.0214787
0.306602
0.194055
14.2297
0.0233454
0.653723
0.0222404
0.0231157
0.151928
1.39779
0.943068
0.376404
0.0569782
0.16949
0.0263732
0.0241288
0.0211126
2.42773
0.0242204
0.0252265
0.212456
0.0208171
0.680275
0.0962783
5.9256
0.170806
0.0207039
0.300689
0.406514
0.0216263
1.32943
0.0816583
0.55978
0.416097
0.0300846
0.0240724
0.023843
0.0780957
0.165342
0.139107
0.187248
0.105784
0.435453
0.371258
0.0214896
0.023017
0.0264594
0.690548
0.0258083
0.0215309
0.35871
0.0216604
0.0215555
0.0209988
2.59653
1.01783
0.0210526
0.113855
0.021517
1.71881
0.0265795
15.0786
0.167434
0.172794
0.0218169
14.1663
0.307628
0.307712
0.387944
0.0622391
0.0215377
0.0209116
1.52179
0.0206857
0.363238
0.539484
0.022095
0.150887
0.0305336
0.0212606
0.189854
0.0286864
0.0454169
0.0221447
7.22076
0.0211497
0.026038
0.088266
0.542787
0.0230214
6.30541
1.39361
0.0645302
0.127828
0.0610123
0.0205805
0.187496
5.31468
0.0474861
0.0826762
0.02094
0.0271974
0.0220664
0.121355
0.0277963
0.0226957
4.33029
0.103094
1.5556
0.0547208
0.0209473
0.148118
0.0203236
0.021982
0.0292254
0.31107
0.0246888
0.416384
1.30398
0.375495
0.0482841
0.0242558
0.026837
1.44538
0.523654
0.802537
0.0216638
0.0888504
0.115249
0.0241686
0.235602
0.0221028
0.0225828
0.0290519
0.0216808
0.0227065
0.092796
0.0992271
0.0310884
0.0214754
0.0218227
17.0084
1.81721
0.0302795
0.0296324
0.239483
0.0230948
0.53394
0.0632882
0.0714471
0.188976
0.806456
0.153357
14.609
0.224442
0.218418
0.117346
0.0215429
0.046223
0.0782302
0.0407811
7.94367
1.5977
0.0255032
0.0224642
0.0226275
0.39649
0.195647
1.14876
0.219394
0.498383
0.0859041
2.20087
0.0477624
0.526968
1.59305
0.0310069
0.0499264
0.0218661
0.0432907
0.0518011
0.0207066
1.20342
0.0233706
0.0459044
0.128334
0.0226177
0.0204552
0.0793604
0.328922
0.0510141
0.124229
0.0457879
0.0044677
0.142982
0.535277
0.0233679
1.06719
0.0206536
0.0579537
0.0258353
0.0400552
0.0447666
0.40039
1.44429
0.0205803
0.567249
0.610309
0.0216564
0.0216672
0.0767895
0.0217667
0.0401639
0.0205621
1.86132
0.0240927
9.98144
11.2371
0.0719989
1.30756
0.0225106
0.0246136
2.39966
0.113565
0.0567141
0.102989
0.0214253
0.0214912
0.0505801
0.0700227
0.0207942
0.860596
0.124212
4.88481
0.407015
0.135699
0.0220653
0.0219218
0.143172
0.0214807
0.0207081
0.105078
0.0205639
1.39228
0.0547677
0.0268385
0.0382814
0.0278299
0.168876
0.339062
0.0457402
0.0697994
2.20209
0.0215461
0.250935
0.0307138
0.0734101
0.394147
0.466666
0.0205852
0.0262712
0.0285536
0.135728
2.27766
0.0668271
1.21447
0.0216819
0.0248669
0.0982485
7.19114
0.020548
0.13077
0.0947814
0.0283493
0.144597
0.533353
0.0356169
0.0641974
0.0211581
0.420043
0.0351952
6.88577
0.118931
0.0255699
0.0481309
0.0682911
0.0274607
0.103244
0.304968
0.29016
1.58802
0.021738
11.034
0.359896
0.488184
0.0199644
0.0251965
0.0568063
0.0233005
0.101958
0.0659683
0.0212535
0.595949
0.0415141
17.0973
0.0207791
0.0923019
0.0674211
0.409306
0.0217037
0.0212794
0.33866
0.0370695
0.0633969
0.465277
0.0212398
0.0792156
0.0283298
0.0631549
0.0252891
0.0893855
0.0276505
0.0363375
0.363299
0.421865
1.38226
0.377321
0.728707
0.0213437
0.00903128
2.21935
0.147108
0.0943813
0.116905
0.0209065
0.022709
4.58794
0.0840815
2.33305
0.751671
1.72107
0.104271
0.217222
0.0218409
0.0606487
1.5641
0.0199694
0.0205888
2.27333
0.0867345
9.27792
0.0951308
0.242246
1.46353
0.184814
0.120931
0.0210789
0.0249715
0.506156
2.79179
2.28053
0.0240865
0.0943347
1.22398
1.64189
0.416624
1.43978
0.0288832
0.141273
0.049794
10.1498
0.192233
0.2104
0.781238
0.025801
0.047338
0.118724
0.239673
0.0224007
0.587646
0.0372741
0.248577
0.0789106
1.63458
0.02847
0.0206171
0.0261583
0.283221
0.101418
0.49273
2.26573
0.401587
0.0261375
0.0268473
0.0270239
0.0231441
0.065655
0.0212802
0.021631
0.088442
0.0212
0.128243
0.0651518
5.98331
0.023078
0.0213531
0.286539
0.238267
0.0207341
0.0581807
0.0673276
0.507938
0.0215298
0.330333
0.0686399
0.0462212
0.0358569
0.113677
0.0281814
0.0216314
0.0379587
0.021438
0.0193444
0.175054
0.0515491
0.0231278
0.0487449
0.0254598
0.851185
13.6911
0.100143
0.0127204
0.183815
0.0239208
0.022962
5.5586
0.0205208
0.0251285
11.4335
0.0786023
0.0645295
0.210984
5.31215
0.0221118
0.348771
0.0215159
0.0745064
0.0286946
9.06398
0.103926
1.54499
2.92921
0.261863
0.150108
1.32525
0.210693
0.151179
0.0230896
0.0211772
0.0284336
0.0844988
5.28044
0.264752
0.221208
4.15318
0.733321
0.409347
0.100822
0.0659228
0.0225529
0.036937
0.0215141
0.0231413
5.79309
21.2397
0.415855
5.17696
0.0297962
0.0498851
0.0218987
0.0234477
0.608909
0.0214472
0.08882
0.0247179
0.0209621
0.185453
2.25643
0.468378
2.29391
2.26223
0.02136
0.021304
0.0320763
0.0673741
0.0233425
12.7699
0.020566
2.21185
0.0408346
0.0236398
0.0921311
0.0284026
4.13222
0.0290382
0.0293485
0.0217012
0.0380631
0.0255235
0.0215549
0.0374645
0.026523
0.256628
0.0330868
0.140337
0.650283
0.022574
13.0995
1.52512
0.155215
0.890213
0.0215124
0.373733
0.902256
0.835787
0.0603592
0.0398276
0.0238081
0.21878
0.35475
0.422129
0.489939
2.63536
0.115019
0.0235779
0.0217462
0.021353
0.0226441
0.0278867
0.118482
0.0211754
0.0214433
0.729472
0.0212421
1.34249
12.9621
0.021958
6.95472
0.0231396
0.0898531
0.0257841
0.0462109
0.234028
0.0214729
0.0345769
0.0380628
0.0215689
0.0637921
0.0881601
0.0403901
0.0895674
1.61735
0.103394
0.0573045
0.0211785
0.0255085
0.0570324
2.75347
0.0240347
0.0237806
2.65221
0.0746431
2.81753
0.0221897
0.0396755
0.0438721
0.0341815
0.0994514
0.0450642
0.907665
1.43324
0.0196746
0.0253442
0.126384
0.0224178
0.201578
0.238959
0.0218214
0.0385309
0.0889933
0.0220712
0.0242894
0.0210609
0.0362749
1.28669
1.31469
0.0396533
0.0216583
15.09
0.0568851
0.0256022
0.0289236
0.0300859
0.113591
0.0214643
3.27051
2.27838
0.0215683
0.101265
0.0225783
0.0232463
0.0331356
0.037388
1.83853
0.425334
0.0598449
0.0913928
0.0210461
0.342571
1.13631
0.0211281
0.0266826
0.0569309
0.0211514
0.0256429
0.0232591
0.928071
0.0295759
0.0402651
0.0216402
0.0243213
0.365436
0.0434447
0.0243063
0.0232993
0.0458515
0.0296616
0.0250028
0.128697
0.0669844
0.0444892
0.0373123
0.0525204
0.0214339
2.01289
0.0210519
0.0996087
0.0216038
0.0232202
1.14444
0.0228621
0.0283375
0.0233706
0.0242658
0.0309758
0.0284532
0.0455023
1.93421
0.0208754
0.0641687
0.133128
0.107986
0.0322699
0.0251226
0.0326148
0.0289968
2.48167
0.0227377
0.0497049
0.0215505
0.0525167
0.0250563
0.029292
0.0219301
0.0462909
0.0201306
0.188164
0.322463
0.785365
0.028187
0.024852
0.0318467
0.0215314
0.358756
0.0553893
0.0403357
0.0242854
0.11958
0.0210092
1.21173
0.288227
2.24759
0.0229552
0.0229975
0.0884059
0.0229148
0.0772689
0.0366153
0.147197
0.0225879
0.0768713
0.0261461
0.0318908
0.501994
1.94252
0.0215455
0.0235513
1.574
0.0236916
0.0249033
0.0215152
0.0217809
0.0526462
0.0447418
1.27466
0.0222693
0.0258056
0.445428
0.0255848
0.0601496
0.0205718
0.804781
9.6541
0.0590298
0.0254908
0.0794323
0.0332225
0.0220892
0.0769678
0.0337888
0.0230617
0.273722
0.0242572
0.593664
0.118632
0.021557
0.05808
0.0385127
0.0221909
0.0212594
0.022673
0.0537541
0.0283605
0.0303238
0.0207536
0.0348197
1.98605
0.0222637
0.0126824
0.0363636
0.0342455
0.0229783
0.0324402
1.33172
2.84779
0.0775891
6.17301
0.0207039
0.188758
0.0333676
0.243337
0.0775295
0.0731638
0.0214499
0.0797877
0.0229919
0.786286
0.166137
0.0400814
0.0843055
0.0233551
0.0612893
0.020581
3.0659
0.301495
0.021456
0.0241525
0.331502
0.0250336
0.738197
0.0214559
0.0418606
0.0565959
0.0397346
0.423772
1.45746
0.542219
0.0361287
2.47667
0.0248967
0.0289781
0.0513321
8.60478
0.835877
0.0212785
0.0920133
5.74349
0.0708985
0.0242996
0.0254879
0.0213264
0.0220698
0.0222944
0.089473
0.0231517
0.0864226
10.4195
1.11092
7.54016
0.022854
0.021811
0.0581077
0.029293
0.0209325
0.0674408
0.0202611
0.0225566
0.0346998
0.0230246
0.0572015
0.0379165
0.0717293
0.0234902
0.0227813
0.0284446
0.0229954
0.0220142
0.0210615
1.58487
0.129628
3.20414
0.0245152
0.0441907
0.0746269
5.03726
0.0286138
0.0339126
15.8527
2.27475
0.0278303
0.0238424
0.0215376
0.094891
0.176584
0.0213251
0.0219428
0.0233752
0.0302675
0.0605962
0.0227519
0.061979
0.0225323
0.218491
0.0214708
0.075949
2.74566
0.0215714
0.0268204
0.0229086
0.310838
1.93555
0.0224577
2.65114
0.275832
0.0225593
0.0529145
0.0625482
0.270757
0.111854
0.184883
0.0296741
0.0213227
0.0219275
0.0234167
0.0287521
0.0218272
0.453486
2.62486
0.0228185
0.0292613
0.0199869
0.0214593
0.325492
0.0432212
1.24197
0.0296793
0.0216703
0.0248781
0.0230868
0.0286164
0.276378
0.0256301
0.0222811
0.0286435
0.0216293
0.0380588
0.0272998
0.0708362
0.0393751
0.0211068
0.435328
0.0325798
0.335592
0.02236
0.0863447
0.0263129
1.6254
0.846492
0.0212867
0.0228603
0.027913
0.0922329
0.0654633
0.204253
1.62227
0.0230573
0.824087
0.0255795
0.0246491
1.62734
0.0694311
0.523788
0.0484517
0.150089
0.024833
0.0472083
0.0226017
0.0661767
0.0225361
0.0232714
0.0239344
0.0354211
0.0232399
0.0221066
1.13235
0.0213932
0.0451467
0.0553792
0.0226626
0.0214475
0.0225258
3.47726
0.0212642
0.0209227
1.619
0.0215383
0.0231036
0.783779
0.0343134
2.15814
0.0223513
0.252407
0.0206889
0.294917
1.47692
0.0214392
0.318474
0.0515531
0.0243209
0.0478074
0.751088
0.0434681
0.0276208
0.0745887
4.44439
0.0215791
0.0230027
0.0210642
0.0214526
0.240688
1.5956
0.0224413
0.0211146
0.0231881
0.0233554
0.0216632
0.627979
0.0210721
0.035718
0.589085
0.137381
0.0321403
0.0229543
0.0658145
0.0224466
0.0214246
0.0238185
0.0308366
0.0434365