/*--------------------------------*- C++ -*----------------------------------*\
| =========                 |                                                 |
| \\      /  F ield         | OpenFOAM: The Open Source CFD Toolbox           |
|  \\    /   O peration     | Version:  v2012                                 |
|   \\  /    A nd           | Website:  www.openfoam.com                      |
|    \\/     M anipulation  |                                                 |
\*---------------------------------------------------------------------------*/
FoamFile
{
    version     2.0;
    format      ascii;
    class       volVectorField;
    location    "300";
    object      U_0;
}
// * * * * * * * * * * * * * * * * * * * * * * * * * * * * * * * * * * * * * //

dimensions      [0 1 -1 0 0 0 0];


internalField   nonuniform List<vector> 
14479
(
(0.53175 0.399694 -2.82346e-20)
(0.906305 -0.33491 0)
(1.25805 0.162538 0)
(1.03882 0.000527291 0)
(1.01938 -0.0870684 0)
(1.04519 0.000582864 8.77057e-21)
(1.04887 0.00373709 -2.23176e-21)
(1.17234 -0.250348 1.52562e-20)
(1.27228 -0.0401177 -3.89611e-20)
(1.28397 0.090739 -1.61994e-20)
(1.05134 0.010003 1.29554e-21)
(1.08899 0.0246572 2.48024e-21)
(1.08898 0.0919595 1.04006e-20)
(0.958705 0.475977 0)
(0.868817 -0.189061 0)
(1.05486 0.000470814 0)
(1.0489 0.00362007 0)
(1.01657 -0.267691 4.1715e-20)
(1.0313 0.00825264 4.80462e-21)
(1.06123 0.0524206 7.959e-21)
(1.13123 -0.080845 -6.72187e-20)
(1.02986 -0.0913981 0)
(1.15262 -0.0519586 4.36771e-21)
(0.247475 -0.349013 9.43745e-20)
(1.05091 0.00974342 -1.49414e-20)
(1.02972 0.00846833 -1.0399e-20)
(1.3691 0.0647081 0)
(1.25774 -0.0271224 0)
(1.03072 0.0114364 7.83267e-21)
(1.35743 0.0565508 -1.77908e-21)
(1.26127 0.160289 -2.90756e-20)
(0.219752 -0.423823 0)
(1.05683 -0.0229835 0)
(1.05473 -0.0189191 0)
(1.18601 0.172712 1.60989e-20)
(0.949272 0.0649578 1.10018e-20)
(1.05293 0.00999354 1.44578e-21)
(1.05096 0.000431681 0)
(1.16903 0.237426 4.88876e-22)
(0.959477 -0.0390105 0)
(1.05413 0.000625908 6.64146e-21)
(1.04839 0.0103275 1.16638e-20)
(0.998576 0.0264857 6.84212e-21)
(1.00391 0.0336036 0)
(1.05308 0.00929995 5.31818e-21)
(1.04461 0.000698141 -4.55588e-21)
(1.02985 0.00152881 8.40907e-21)
(0.794056 -0.386779 0)
(1.11892 -0.0153309 0)
(1.0487 0.0105312 2.09632e-20)
(1.07304 0.176495 -1.73481e-20)
(1.25711 -0.0250458 4.10094e-20)
(1.03225 0.00805668 8.54499e-21)
(1.07432 0.177175 2.23821e-20)
(1.13153 -0.0606792 -6.65177e-21)
(1.09285 0.00703064 -2.03538e-20)
(0.941738 0.0764504 -1.40717e-20)
(1.03234 0.0101636 -5.27491e-21)
(1.03734 0.241416 0)
(1.03256 0.01043 -4.66003e-21)
(1.03517 0.0110425 0)
(1.04049 0.0135366 0)
(0.774638 -0.058786 1.42273e-20)
(1.03081 0.00588964 0)
(1.04874 0.00322757 5.05387e-21)
(0.911438 -0.486406 2.05262e-22)
(0.778096 -0.363741 -9.26138e-21)
(0.459104 0.558172 1.77066e-19)
(1.03269 0.00786669 -9.04306e-21)
(1.03091 0.0117339 -4.40675e-21)
(0.585542 0.61087 0)
(1.02922 0.00137731 -1.70003e-20)
(1.11635 0.175344 0)
(0.954225 -0.0441174 0)
(1.04424 0.0104003 0)
(1.03021 0.00149179 2.04248e-20)
(0.986686 0.0148685 1.09169e-20)
(0.753666 -0.0757389 1.14395e-20)
(1.03769 0.00237779 1.15804e-20)
(0.92915 -0.411622 -1.05446e-20)
(1.03126 0.00870432 -9.72794e-21)
(0.880165 -0.124017 0)
(0.676526 -0.368805 2.21991e-20)
(1.30328 0.143082 0)
(1.55127 -0.133754 -8.88182e-20)
(1.03782 -0.0114763 -9.59847e-21)
(1.03208 -0.00831912 9.76397e-21)
(1.04869 0.00324065 7.52226e-21)
(1.15547 -0.253197 0)
(1.02937 0.0117716 0)
(1.27133 -0.0314789 4.21799e-20)
(0.862983 -0.427011 1.56402e-20)
(0.473566 -1.1646 -5.50424e-20)
(1.03049 0.00560457 0)
(1.21717 0.0712282 2.26181e-21)
(1.02894 0.0013888 6.956e-21)
(1.03782 0.00243902 -2.53379e-20)
(1.04931 0.000762513 0)
(1.0435 0.00388858 8.65008e-21)
(1.001 0.457172 -3.46161e-21)
(0.720384 0.707199 1.07928e-20)
(1.04844 0.000465963 8.26968e-21)
(1.07955 0.1745 -6.23156e-20)
(1.17068 0.173064 0)
(0.782023 0.667545 6.47203e-21)
(1.30389 -0.243082 1.37975e-19)
(1.09432 0.558016 -7.83334e-21)
(1.0481 -0.0205915 -3.38985e-21)
(1.25346 0.151987 1.13908e-19)
(1.00088 0.433398 -4.27654e-21)
(1.06644 0.527401 9.60703e-21)
(0.889872 -0.131089 0)
(1.02388 -0.0117592 8.50008e-21)
(1.08539 -0.0203049 0)
(1.31996 -0.010726 0)
(1.16775 0.05502 1.74747e-20)
(1.02363 0.00116529 -6.48147e-21)
(0.634035 -0.188723 -7.41227e-21)
(1.03143 0.000232959 0)
(1.04048 0.0156616 9.002e-22)
(1.02324 0.00147251 -2.29518e-21)
(1.47076 -0.0213366 0)
(1.08559 0.1767 3.30804e-20)
(1.04385 0.00385515 0)
(1.15315 0.102384 8.92522e-21)
(1.02554 -0.0160376 -8.54169e-21)
(1.02956 0.0124482 6.26025e-22)
(0.609862 0.640077 0)
(1.00094 -0.0127517 3.62903e-21)
(1.00797 0.065214 1.0192e-20)
(1.11282 -0.107845 -9.27373e-21)
(0.00396021 0.257201 -3.16399e-19)
(1.24631 0.16079 -4.38509e-20)
(0.58104 -0.119911 -1.62024e-20)
(0.933237 -0.241354 2.45869e-21)
(1.04354 -0.0490387 4.01844e-21)
(0.995513 -0.299281 2.34796e-20)
(0.88483 -0.120469 -5.76582e-22)
(0.527772 0.466193 4.74272e-20)
(1.28269 0.14275 7.73393e-20)
(0.889475 -0.211018 -1.23256e-23)
(0.993678 -1.07484 8.5912e-20)
(1.05538 0.0108997 0)
(0.87309 -0.207079 0)
(1.03095 0.00867273 -4.05761e-22)
(0.898405 -0.250126 5.71998e-22)
(1.07216 -1.06835 -1.50088e-19)
(1.0583 0.00659082 0)
(1.09459 -0.0973877 8.70801e-21)
(0.924856 0.122955 0)
(0.830668 -0.206095 -1.79075e-21)
(1.03634 0.0059582 0)
(1.09322 0.240209 0)
(1.03765 0.00157915 0)
(1.02937 0.00843398 -1.12091e-20)
(1.05617 0.0112465 4.35087e-21)
(0.833945 0.0126465 -2.3659e-22)
(0.593955 0.422325 -7.36339e-20)
(1.04442 0.427172 -4.77429e-21)
(1.04692 -0.0498754 0)
(0.950962 -0.0615247 3.57708e-21)
(1.06173 0.00109915 -5.97587e-21)
(1.03614 0.00602683 -1.03519e-20)
(1.01635 -0.0710056 -2.04936e-20)
(1.07207 0.241457 1.57266e-21)
(1.07691 0.00142179 -4.36811e-22)
(1.0373 0.00631395 5.28691e-21)
(1.04697 -0.180858 -2.02885e-20)
(1.26136 0.0780456 0)
(1.04183 0.394685 7.7762e-21)
(0.95387 -0.550406 7.72092e-21)
(1.12051 0.0349427 -2.71806e-20)
(1.05149 0.000676474 -3.98475e-21)
(1.09262 0.0923067 -5.38836e-21)
(1.04574 0.00166519 -1.07401e-20)
(1.06335 0.0617764 -7.65634e-21)
(1.03612 -0.0504586 7.20725e-21)
(1.03693 0.00117894 0)
(1.0326 -0.0239056 8.71353e-22)
(0.51261 -0.128476 -3.02246e-21)
(1.16494 0.053071 1.53079e-20)
(1.07715 0.00784636 3.15817e-22)
(0.960361 0.456586 0)
(1.02464 0.00178465 8.9308e-21)
(1.03373 0.108751 -5.13304e-21)
(1.0777 0.0144366 1.52569e-21)
(1.28233 0.141106 -3.92057e-20)
(0.161062 0.982047 -3.2444e-21)
(1.03173 0.0106709 -2.15817e-21)
(1.04701 0.16958 0)
(0.948925 -0.243229 0)
(1.16361 0.179368 0)
(0.936691 -0.489509 -1.56267e-20)
(0.991586 -0.315468 0)
(1.04974 0.000536063 0)
(1.11944 0.0361199 3.21967e-20)
(1.05244 0.00316572 1.19128e-20)
(1.03085 -0.0250003 -1.00665e-21)
(1.07624 -0.0154665 0)
(1.03573 0.00599073 1.92459e-20)
(0.934394 0.130692 5.35213e-20)
(1.01578 -0.00914914 0)
(0.985939 0.0184705 -1.60316e-20)
(1.03743 0.00669337 0)
(0.987757 0.0153247 -1.42444e-20)
(1.0666 0.000129914 2.30167e-21)
(1.08953 0.0969226 6.51528e-21)
(1.0551 0.000232363 -4.37125e-22)
(1.05184 0.00515554 -7.98873e-21)
(0.983886 0.0151848 4.88864e-21)
(1.08914 0.00728847 0)
(1.03262 0.0110956 0)
(0.98989 0.0106142 -9.15222e-21)
(0.993345 0.0114854 -8.47129e-21)
(1.47081 -0.0713803 -4.90808e-20)
(1.17451 0.269537 1.03917e-20)
(0.925028 -0.318044 5.99247e-21)
(1.02231 0.0391683 5.30596e-21)
(1.18419 0.296284 -9.31228e-21)
(1.12343 -0.0130585 9.68202e-21)
(0.862414 0.0154119 3.02371e-20)
(0.844242 0.147737 6.75784e-20)
(1.03023 0.00676222 7.46208e-23)
(1.0251 0.00321309 0)
(1.00523 0.148401 7.0225e-20)
(1.0315 0.000489532 1.29221e-20)
(0.430044 0.646764 -1.59345e-19)
(1.03482 0.00250522 -2.49945e-20)
(1.21638 0.0593325 0)
(1.064 0.028972 -5.50994e-21)
(1.03897 0.0146087 -7.13902e-21)
(1.06154 0.0296889 5.4594e-21)
(1.21359 0.233615 0)
(1.05705 0.00387379 1.0377e-20)
(1.04909 0.000770153 2.42956e-21)
(1.33391 -0.780441 -5.1885e-19)
(1.05714 -0.00565833 -1.13118e-20)
(1.16794 -0.176037 3.33213e-20)
(0.191909 1.00287 2.6089e-19)
(1.03174 0.00832806 6.10563e-21)
(1.02222 0.0153539 0)
(1.03555 0.00606922 -2.63659e-21)
(1.24302 -0.101821 0)
(1.02377 -0.00978592 0)
(1.07912 0.0152274 -1.51596e-21)
(0.877267 -0.142423 -7.46119e-21)
(0.339916 -0.346545 3.50582e-20)
(0.965019 -0.0206926 0)
(1.04016 0.0137988 3.45616e-21)
(1.03029 0.00845997 7.26743e-21)
(1.24453 0.0754936 -7.55162e-22)
(1.06498 -0.0197396 0)
(1.01789 0.0121192 7.46783e-21)
(1.28106 0.0946418 0)
(1.22505 0.211085 -1.49577e-21)
(1.04242 0.00223699 0)
(0.99901 0.00879603 -7.50433e-21)
(1.05173 0.00583259 -8.17699e-21)
(0.984624 0.0314071 0)
(1.02883 0.00838092 0)
(1.03501 0.00243152 1.11307e-20)
(1.01983 0.0132555 0)
(1.02915 0.0080944 -1.11751e-20)
(1.03755 0.00114428 -1.19964e-20)
(1.03813 0.00286347 1.34964e-20)
(1.00333 -0.0170756 0)
(1.02165 -0.0696562 1.81843e-20)
(1.03002 0.00856297 9.66161e-23)
(0.335893 -0.378906 -1.8307e-20)
(1.07575 -0.0841524 1.63546e-20)
(1.21543 0.0601031 0)
(1.06659 2.19181e-05 -2.42352e-21)
(1.46097 -0.0646644 3.22804e-21)
(1.11825 0.0411767 -1.93457e-22)
(1.02233 -0.183525 -3.37077e-21)
(1.17209 -0.240824 0)
(1.16787 -0.195302 0)
(1.05245 0.00700123 0)
(1.08248 -0.015535 0)
(1.02709 0.0218171 1.39125e-20)
(0.867462 -0.10128 1.28986e-20)
(1.02984 8.64751e-05 0)
(1.02954 0.0127475 -5.62681e-21)
(1.02986 0.00548658 2.79368e-21)
(1.2999 -0.188321 0)
(1.51717 -0.157291 1.3308e-19)
(1.2132 0.0421442 0)
(1.29085 0.145917 -9.50485e-20)
(1.10974 0.012039 0)
(0.543736 0.60665 -2.4574e-20)
(1.30975 0.0567557 -3.26778e-20)
(1.0442 0.00905671 0)
(0.990829 0.0358058 1.22572e-20)
(1.18437 0.13377 -5.41582e-21)
(1.0525 -0.00464821 1.22779e-20)
(0.662197 -0.24334 5.55105e-20)
(0.849957 -1.0651 -4.88493e-19)
(1.03091 0.0108799 -2.71372e-22)
(1.01579 -0.0722285 1.77213e-21)
(1.1471 -0.255466 -4.42483e-21)
(0.96294 -0.327749 0)
(0.896033 -0.416197 0)
(1.03829 0.00262024 0)
(1.04311 0.00742939 0)
(1.12589 -0.00683239 2.09625e-20)
(0.396461 -0.101735 2.84725e-21)
(1.06213 0.00100233 0)
(0.614887 0.682868 2.71768e-20)
(1.05131 0.00478609 0)
(1.30549 -0.0225897 0)
(1.06621 0.000103441 0)
(0.629487 0.702413 -2.81126e-20)
(1.0398 0.00723366 -4.80984e-21)
(1.05977 0.00917914 0)
(1.12839 -0.00255876 -2.17851e-20)
(1.25448 0.104307 1.92541e-20)
(1.17025 0.171802 3.69293e-21)
(1.05996 0.0121144 -3.80866e-21)
(1.12926 -3.34572e-05 0)
(1.05054 0.00223152 4.33942e-21)
(1.15613 -0.535104 1.31027e-19)
(1.24982 -0.112428 -6.29537e-20)
(0.744732 -0.293445 3.1589e-20)
(1.16139 0.175135 -3.97143e-21)
(1.03452 0.0113298 -1.02347e-20)
(1.39233 -0.771826 1.01069e-19)
(0.718149 0.22058 5.78545e-20)
(0.869394 -0.337155 8.98738e-21)
(1.07806 0.107178 1.32321e-20)
(1.02735 0.0223921 1.36364e-20)
(1.16593 -0.0487867 5.17196e-21)
(1.05199 0.0040337 -2.71679e-20)
(0.993932 0.0376455 -2.41619e-20)
(1.16128 0.0919971 -5.658e-20)
(1.03996 0.00061609 0)
(1.03002 0.0131059 0)
(0.60787 0.336117 0)
(1.00668 -0.0111296 5.7033e-21)
(1.05435 -0.00288474 -1.28956e-20)
(1.04093 0.0160802 -1.14388e-21)
(1.0338 0.0113304 0)
(1.03774 -0.070905 1.0133e-20)
(1.05154 0.0044963 -7.75608e-23)
(1.14422 0.0471235 -4.36672e-20)
(1.12489 -0.23521 2.27232e-21)
(1.09424 0.0118406 2.66982e-20)
(0.660376 -0.154385 8.78621e-21)
(1.12781 0.00715756 -7.60213e-21)
(1.23198 0.0490452 1.90152e-20)
(1.01569 0.0350159 0)
(1.02827 0.00721079 0)
(0.919364 -0.107555 0)
(1.10351 0.174903 2.531e-21)
(0.345044 -1.09424 1.5651e-19)
(1.02165 0.0473983 0)
(0.379041 -0.111147 0)
(1.46596 -0.0835504 -5.86604e-20)
(0.37161 -0.0151396 7.5781e-20)
(1.03432 0.0109359 1.15499e-20)
(-0.286623 0.175657 -3.27795e-20)
(1.047 0.0105127 -5.70411e-21)
(1.15963 0.125179 -2.19294e-20)
(1.25374 0.105704 0)
(0.642355 0.859364 -3.69096e-20)
(1.03877 0.00697855 3.34776e-21)
(1.04767 0.0120786 0)
(1.06014 0.00479583 0)
(1.04015 0.000200373 0)
(1.17888 0.0914536 4.71151e-20)
(1.05975 0.00424175 4.19692e-21)
(1.03818 0.000589867 -5.20026e-21)
(1.15778 0.20893 0)
(1.04876 0.000272212 -5.85923e-21)
(0.868502 -0.10383 -1.34183e-20)
(0.682404 -0.337345 -1.63196e-20)
(1.32124 -0.281127 2.3634e-21)
(1.0398 0.0125878 0)
(1.14232 -0.269995 0)
(1.07951 -0.00795803 3.91339e-21)
(1.03115 0.0115585 1.19321e-20)
(1.12785 -0.011233 -2.42772e-22)
(1.05017 -0.174901 2.30189e-20)
(1.02798 0.00714648 4.33004e-23)
(1.01194 -0.0103692 -1.14159e-20)
(1.15982 0.18774 5.09485e-20)
(1.04916 -0.0246791 0)
(0.703584 0.370763 5.67538e-19)
(1.0328 0.0114772 -1.70421e-20)
(0.999615 0.0572811 -1.04856e-20)
(1.01683 -0.053978 -5.79911e-21)
(1.12863 -0.263184 2.69658e-20)
(0.936258 -0.0901241 -1.08645e-20)
(1.03992 0.00493976 -6.70223e-21)
(0.546809 -0.150045 -1.3729e-20)
(1.10733 -0.224835 -2.11037e-21)
(1.02772 0.0313219 -1.57017e-20)
(1.02089 -0.0126586 0)
(0.839316 0.105205 -4.34824e-22)
(0.932987 0.155897 1.16102e-21)
(1.30336 -0.191701 9.78407e-20)
(1.17017 -0.0418186 5.25904e-20)
(1.22809 -0.103906 -4.85843e-20)
(1.02247 -0.0676509 -3.11422e-21)
(1.07982 -0.0962121 -1.86995e-21)
(0.937143 -0.00273451 -1.98118e-20)
(1.02957 0.0271942 0)
(1.10434 0.0769696 5.78541e-21)
(1.12549 -0.0155737 0)
(1.1174 0.175361 0)
(1.16773 0.00735961 0)
(0.912756 -0.310803 0)
(1.36161 -0.371007 -1.16699e-19)
(0.998131 -0.0144719 -5.9311e-21)
(0.920845 0.149048 -3.03252e-20)
(1.03164 0.0102196 -2.54218e-20)
(0.804356 0.412946 1.68024e-20)
(1.03111 0.0112987 8.49991e-21)
(1.03157 0.00910113 9.22988e-21)
(-0.00970217 0.217309 2.56702e-19)
(0.890291 -0.164163 0)
(1.01417 0.0422427 0)
(1.02087 -0.470556 -1.28773e-21)
(0.75448 0.313896 -5.4349e-19)
(0.800649 0.342012 0)
(0.505368 -1.17591 -7.62091e-20)
(1.03069 0.0113808 0)
(1.04026 0.00458467 6.27155e-21)
(1.00874 -0.0148141 0)
(1.05983 0.00570141 0)
(1.05406 0.00851857 -2.12268e-20)
(1.03734 -0.00423549 1.63844e-20)
(1.01144 -0.0905486 3.86243e-21)
(0.995941 -0.295737 0)
(0.817121 -0.197854 0)
(0.511149 0.407552 1.47691e-19)
(1.14849 0.0496696 7.93418e-20)
(1.00281 -0.458262 0)
(1.1194 -0.0625244 8.28296e-21)
(1.17437 0.0897586 -5.78586e-20)
(1.03381 0.0111324 0)
(0.463703 0.27804 -3.2369e-20)
(1.05244 0.00611931 0)
(1.0559 0.00521708 -5.83964e-21)
(1.47368 0.0493872 3.34709e-21)
(1.04289 0.00800865 1.22436e-20)
(1.03747 0.00115978 -5.36447e-21)
(1.02601 0.00433439 0)
(0.831922 0.0341956 -5.40734e-22)
(1.02417 0.0456531 -6.63023e-21)
(1.03703 -0.00780391 -1.80583e-20)
(1.05727 0.00853486 -7.85181e-21)
(1.03998 0.0124046 0)
(1.05062 0.128105 1.18748e-20)
(1.06103 -0.0146891 3.98752e-21)
(1.04238 0.143421 4.15789e-21)
(1.16434 -0.05165 -7.315e-20)
(1.03511 0.0112414 -3.7915e-21)
(1.23557 0.162679 -4.2209e-20)
(1.21375 0.10336 4.70381e-21)
(1.24067 0.157103 2.10515e-20)
(1.18493 -0.342309 -5.46291e-20)
(1.03103 0.0111747 0)
(1.0314 -0.0179005 -1.05148e-20)
(1.03902 -0.0384128 -7.60648e-21)
(1.0814 -0.296843 0)
(1.03716 0.00143411 0)
(1.01308 -0.0777324 -5.25664e-21)
(1.13499 0.178126 -8.57543e-22)
(0.453541 0.283473 2.04325e-20)
(1.0348 0.0106053 -1.11555e-20)
(1.0349 0.00206117 -3.57088e-21)
(1.22909 0.104599 1.23878e-20)
(1.05551 0.000156101 1.74217e-21)
(1.05877 0.000371406 0)
(1.3121 -0.456921 -4.44985e-20)
(0.934181 -0.438905 1.37151e-20)
(1.031 -0.192563 0)
(0.787176 -0.405715 8.84003e-21)
(1.1239 -0.0727145 -5.34896e-22)
(1.03493 0.000510197 0)
(1.43393 -0.0681994 0)
(0.958398 0.0686375 -2.20522e-20)
(0.984731 0.0408834 0)
(1.09137 -0.314379 0)
(1.00418 -0.0921927 3.53306e-21)
(1.06605 0.000709366 5.15725e-22)
(1.07779 0.00814297 0)
(1.03087 -0.0121193 -9.9946e-21)
(0.795305 -0.336606 -1.78301e-21)
(1.06219 -0.117063 3.18208e-21)
(1.05108 0.00407681 2.16843e-20)
(1.05069 0.00212322 0)
(1.16977 -0.333474 4.49562e-20)
(1.03207 0.0106001 6.87123e-21)
(1.06278 0.000453258 -3.18007e-22)
(1.03493 -0.00681891 -8.6837e-21)
(1.04256 0.00213876 -1.505e-21)
(0.986104 -0.334933 -3.06653e-20)
(1.07669 0.00135633 1.30686e-22)
(1.26515 -0.242413 6.69841e-20)
(0.969167 0.0304671 1.9048e-20)
(1.12864 -0.0974341 0)
(0.992994 -0.486486 -3.64901e-20)
(0.935507 -0.0105281 1.34108e-20)
(1.26636 -0.731356 2.73136e-19)
(1.27719 0.0819829 0)
(1.32046 -0.292851 0)
(0.469082 -0.704176 -5.39554e-20)
(1.15194 -0.0239376 0)
(1.05905 0.000370136 2.27424e-21)
(1.03672 -0.00479617 -1.79369e-20)
(1.0351 0.0256841 5.29997e-21)
(1.02963 0.0050167 -3.00378e-21)
(1.30265 -0.0297697 7.42577e-20)
(1.03172 0.0109195 0)
(0.674803 -0.141419 0)
(1.37468 0.0423235 -5.12827e-20)
(1.04049 0.00636802 0)
(0.75205 -0.28543 -5.00087e-20)
(1.26049 0.0815421 0)
(1.31392 -0.445412 0)
(1.02139 -0.0546072 5.74472e-21)
(1.03466 0.00190969 8.85258e-22)
(0.995642 0.00823896 8.3283e-21)
(1.03411 -0.00673104 -2.20045e-21)
(1.21925 -0.117742 4.10903e-20)
(1.03274 0.000230741 7.09619e-21)
(1.07862 -0.0203478 0)
(0.876855 0.167868 -2.52126e-21)
(1.06358 0.000247112 5.7199e-21)
(1.40708 -0.753069 0)
(1.1361 0.182798 0)
(1.02628 -0.0076794 0)
(1.05124 0.00374855 -1.32874e-20)
(1.02737 0.00694193 -5.90627e-21)
(1.06214 0.0121469 -4.99243e-21)
(1.01336 0.0187383 -6.58923e-21)
(1.00962 0.0178838 0)
(1.13087 -0.0822192 3.44197e-20)
(1.03966 -0.0427973 -3.02569e-21)
(1.11385 0.0128556 0)
(0.712427 0.726024 6.85967e-20)
(0.99615 -0.00957907 0)
(1.03056 0.00867726 -6.88534e-21)
(0.849615 0.263889 6.0881e-21)
(1.07958 -0.0095585 -1.66761e-20)
(1.01687 0.0513476 -9.91214e-21)
(0.880149 -0.25467 0)
(0.665694 0.842443 -2.89201e-20)
(0.958933 -0.0594367 -1.11679e-20)
(1.05055 0.029944 0)
(1.33606 -0.323971 0)
(0.799324 -0.380829 1.53116e-22)
(1.03322 0.000158555 1.312e-21)
(0.994538 -0.00852442 0)
(0.996003 0.0213553 0)
(0.730006 0.688515 -7.69929e-21)
(1.15999 0.0590224 -1.489e-20)
(1.03405 0.000525493 -7.39721e-21)
(0.952338 -1.13684 2.37689e-19)
(1.06269 0.000188722 -7.70808e-22)
(1.03117 0.0113299 -1.76378e-20)
(1.03836 0.000580156 0)
(0.788192 -0.215335 4.30536e-21)
(1.27242 -0.107297 -3.49653e-20)
(1.03805 -0.00855114 2.78852e-21)
(1.05207 0.000548872 4.26966e-21)
(1.07752 0.0756638 0)
(1.06982 -0.0830939 8.25107e-22)
(1.07857 0.00364152 0)
(1.06106 0.138569 4.39427e-21)
(1.01817 0.0134957 -3.3894e-21)
(1.06188 0.00109977 6.47372e-21)
(1.05905 0.0143608 1.64581e-21)
(1.0182 -0.0570461 3.48353e-21)
(1.26796 0.09424 -5.23755e-20)
(0.526128 -0.016084 -1.33931e-19)
(1.03144 0.00863078 -1.04184e-20)
(1.33105 -0.353866 0)
(0.565133 0.403096 4.91622e-20)
(1.36428 -0.646912 0)
(1.01822 0.0131746 3.96454e-21)
(1.02395 -0.00707284 0)
(-0.0233512 1.09636 0)
(1.03578 -0.00997199 0)
(1.19851 0.25734 5.88892e-21)
(1.05874 0.00952922 4.00009e-21)
(0.996701 0.0581775 1.03622e-20)
(1.16442 0.197582 5.25972e-21)
(1.04479 0.0113336 1.23484e-21)
(1.06014 -0.0773098 -8.82218e-21)
(1.05662 0.000720896 3.3477e-21)
(0.127276 -0.412281 0)
(0.996746 0.496497 1.48181e-21)
(1.07452 0.0471861 7.26571e-21)
(0.841625 0.130358 -3.47749e-22)
(0.657742 -0.175605 -8.10428e-21)
(1.05022 0.00142177 0)
(0.889691 -0.211064 6.02038e-21)
(0.951354 -0.058421 2.26358e-20)
(1.02948 0.0115614 0)
(1.03974 -0.050739 -5.87882e-21)
(1.05015 0.000327276 1.22022e-21)
(1.05932 -0.00486304 1.54395e-20)
(1.03717 0.00178904 3.22665e-21)
(1.22015 0.0511315 1.56428e-20)
(0.908258 -0.409815 -2.34549e-20)
(1.17165 -0.0277435 -5.43007e-20)
(0.885452 0.0227138 -1.46572e-20)
(1.03557 -0.0797314 -2.1367e-22)
(0.985433 0.0374568 -4.54431e-21)
(1.34117 0.124492 8.76713e-21)
(-0.00892408 0.222312 1.15267e-19)
(1.0553 0.0316282 0)
(0.639623 0.268472 2.88376e-20)
(0.596391 0.578131 -4.51136e-20)
(1.03261 -0.00526804 1.22103e-20)
(1.31468 0.130415 0)
(1.05612 0.000904401 6.88145e-21)
(1.11704 0.233234 2.39729e-21)
(0.993017 0.0539949 0)
(0.513689 0.514082 1.93774e-20)
(1.00683 -0.0476673 1.07769e-21)
(1.20219 0.130822 0)
(1.03246 0.0110626 7.29108e-21)
(1.23034 -0.00656469 6.7439e-20)
(1.07214 0.0221728 3.11106e-21)
(1.00787 0.478397 -7.06185e-21)
(1.0367 -9.35349e-05 0)
(1.05942 -0.00553976 0)
(1.03103 0.0605269 -1.60615e-20)
(1.04572 0.00161615 3.15865e-23)
(1.14829 0.170723 2.07342e-20)
(1.03159 0.0227213 -5.33109e-21)
(1.04589 0.00996758 0)
(1.03543 -0.214187 -1.6236e-21)
(1.03436 -0.0100879 1.0227e-20)
(1.18504 0.119865 0)
(0.847364 0.27849 4.24198e-21)
(1.0304 0.00135375 -1.32163e-20)
(1.05954 -0.00415475 0)
(1.03215 0.0108033 -1.44619e-20)
(0.216609 0.886334 0)
(0.514037 -0.729312 -4.433e-20)
(0.889849 -0.259464 0)
(0.733828 0.737043 -2.3902e-20)
(0.852553 0.0771781 2.15595e-20)
(1.08037 0.0407781 7.36031e-21)
(1.22442 0.0948126 4.01637e-20)
(1.04065 -0.0330188 0)
(1.0322 0.00809368 -1.08021e-20)
(1.03172 0.0149554 0)
(1.03091 0.0234955 -4.67473e-21)
(0.551122 -1.10522 -1.31258e-20)
(0.851311 0.0706773 -3.26433e-20)
(1.04207 0.0615455 1.40402e-20)
(1.14992 0.0706128 1.52098e-19)
(1.05906 -0.0118215 3.35498e-21)
(1.01921 -0.204079 0)
(1.03928 0.0153871 -8.27003e-21)
(0.60894 -0.144266 2.17928e-20)
(0.82824 0.410317 -5.35618e-21)
(0.852956 -0.457027 2.29591e-20)
(1.04185 0.000825015 -1.02821e-20)
(1.15479 0.0355667 0)
(0.775169 0.222848 -1.40848e-19)
(1.18452 0.121932 -2.35247e-20)
(1.05947 0.00533916 0)
(1.08728 0.00528399 -7.66536e-21)
(1.03698 0.00117054 0)
(1.06181 0.0841903 -2.2222e-22)
(1.01526 0.0214943 1.26511e-20)
(1.05914 0.00190401 0)
(1.05086 0.00327473 4.41233e-21)
(1.03849 0.00343176 -6.97217e-21)
(1.04882 0.00497156 6.62779e-21)
(1.15037 0.0414158 -3.41455e-20)
(1.12413 0.0235076 0)
(1.06131 0.0112537 5.14314e-21)
(0.895152 -0.241545 0)
(1.03042 0.0111616 -5.92777e-21)
(1.03151 0.0264745 0)
(1.03534 -0.0446574 3.00799e-21)
(1.42185 -0.14627 0)
(-0.0183684 0.780129 0)
(1.05944 0.00219774 -4.26716e-21)
(0.742949 0.556571 4.2219e-21)
(1.04553 0.00883474 3.78672e-22)
(0.799047 -0.209053 0)
(0.971941 0.0237399 2.64801e-21)
(0.931106 0.0685477 5.95019e-21)
(1.10762 -0.242258 -1.14888e-20)
(1.0279 0.00733961 -5.30536e-21)
(1.03468 0.0271311 0)
(1.07675 -0.0125956 7.95733e-21)
(0.75182 -0.71334 6.42125e-20)
(1.05823 0.00810436 4.65274e-21)
(1.03148 0.0145737 -9.08351e-21)
(1.05395 0.022438 0)
(1.02655 0.00394399 1.3154e-21)
(1.048 0.058241 0)
(1.05362 0.000325571 0)
(1.00663 -0.0682724 -9.53999e-22)
(1.03819 0.00792758 0)
(1.04911 0.00490567 0)
(1.15731 0.0529897 4.69452e-20)
(1.07788 0.0104318 0)
(1.35559 -0.736802 2.50201e-19)
(0.832105 -0.467668 -2.21711e-20)
(0.899064 -0.169958 -9.94701e-21)
(0.798656 0.397048 -6.91733e-21)
(1.04687 0.138926 0)
(1.04435 -0.627595 -1.30949e-19)
(0.965284 0.0848947 1.08501e-20)
(1.03067 0.00755361 -3.54264e-21)
(1.01732 0.0112807 0)
(1.03101 0.0069469 5.19367e-21)
(1.04385 -0.0899275 4.67094e-21)
(1.0558 0.0328067 8.76914e-23)
(1.03822 0.00312214 8.58766e-21)
(1.32304 0.126634 1.91903e-20)
(1.42806 0.0731304 -2.61837e-19)
(1.04991 0.000690271 1.1815e-20)
(1.04984 -0.00500879 1.66067e-21)
(-0.0260789 0.817514 -2.21559e-19)
(0.481094 -0.151264 1.36099e-20)
(1.09858 -0.245874 3.46765e-20)
(0.639991 0.729691 3.96252e-20)
(1.33167 0.125726 -1.13782e-19)
(1.00015 0.0554343 -1.06141e-20)
(1.05091 0.00306716 4.49093e-21)
(1.03232 0.00878599 1.11586e-20)
(0.873317 -0.258395 -7.99246e-22)
(1.39055 0.068368 2.20131e-19)
(0.90807 0.0460981 0)
(1.03864 0.00369796 7.15433e-21)
(0.958156 -0.0503378 9.46671e-22)
(1.04818 -0.00384032 0)
(0.973461 0.0670736 2.17072e-20)
(1.08218 0.142842 0)
(1.15994 0.0199539 -5.76219e-20)
(1.03758 0.00443625 0)
(1.03245 0.012801 0)
(1.21279 0.040157 0)
(1.03769 0.00489377 0)
(1.03177 0.0105008 1.48264e-20)
(1.01672 -0.319231 -3.53806e-21)
(1.12284 0.030133 5.90868e-21)
(1.0508 0.000437171 8.94217e-21)
(1.04481 -0.616951 0)
(0.605985 -0.170172 1.10957e-20)
(1.03012 0.0113756 0)
(1.27173 -0.114794 -6.84068e-20)
(1.01734 0.0439921 -5.13426e-21)
(0.219042 0.924886 -2.0526e-19)
(0.943373 -0.0554305 7.45669e-22)
(1.33178 0.127959 -9.52573e-21)
(0.901753 -0.343954 7.67792e-22)
(1.2319 0.048982 0)
(1.02063 -0.0826056 0)
(1.23243 0.182267 1.00008e-20)
(1.06787 -0.0160463 -2.02771e-21)
(1.11887 -0.492464 -1.13797e-19)
(0.0354619 -0.0417714 4.94908e-19)
(1.07762 0.00641413 -8.61527e-22)
(0.824186 -0.0179993 -1.23214e-21)
(0.810786 -0.405871 1.78266e-21)
(1.0046 0.00610563 0)
(1.269 0.159153 1.79882e-20)
(1.03212 0.0122281 5.13721e-21)
(1.00114 -0.065817 2.13433e-22)
(1.06099 -0.0105856 0)
(1.03813 0.00318111 7.79763e-21)
(1.05579 0.0195701 7.86173e-21)
(1.03212 -0.00428161 0)
(0.654299 0.738243 -1.44166e-20)
(1.07312 0.248108 -4.58947e-21)
(0.485948 -0.344767 -3.06037e-21)
(1.03019 0.0101006 -7.26786e-21)
(0.987845 -0.689559 5.43263e-20)
(1.05124 0.0319013 -1.37081e-20)
(1.03269 0.0221386 1.52521e-20)
(0.904791 -0.272644 5.88659e-21)
(1.03752 0.00544474 -9.60304e-21)
(0.812974 -0.128557 -4.64535e-23)
(1.16633 0.00816646 3.61208e-20)
(0.966386 0.0649009 0)
(0.988998 -0.0716485 1.52155e-20)
(1.04477 0.000519377 0)
(1.07548 -0.125971 -5.68172e-21)
(1.39858 -0.131744 0)
(1.01414 -0.0607633 -3.41296e-21)
(1.02654 0.0171996 0)
(0.790032 0.152681 4.86723e-23)
(1.01238 -0.578574 0)
(0.744352 -0.662378 -4.57918e-20)
(1.41281 -0.0471212 0)
(0.968469 -0.329767 -3.14477e-20)
(1.04535 0.00185394 0)
(0.835328 -0.141831 3.56956e-21)
(1.02767 0.00757558 7.37735e-21)
(1.07607 -0.00608226 3.29982e-21)
(1.04561 0.00701625 1.87913e-21)
(1.14916 0.0433144 3.32346e-20)
(0.904414 -0.20096 -4.43229e-21)
(1.06208 4.61998e-05 9.35647e-22)
(1.06829 0.0241211 -8.28213e-21)
(1.23047 -0.00433186 -1.19358e-19)
(0.908615 -0.136901 0)
(1.05594 0.00605926 -1.60126e-21)
(1.17596 0.108213 0)
(0.838908 -0.0568473 -3.34605e-20)
(1.02875 0.0115981 0)
(1.05731 0.0209214 0)
(1.05763 0.00781929 1.56971e-21)
(0.967981 -0.0456714 0)
(0.882169 0.0341809 1.09339e-20)
(1.01281 -0.0642875 -5.22737e-21)
(1.0445 0.0175789 0)
(1.03199 0.0120635 -1.0605e-21)
(1.01887 0.0714192 -2.1945e-22)
(1.02959 0.00584991 -1.92631e-20)
(0.656378 0.354895 0)
(0.105741 0.279931 -1.46722e-19)
(1.07857 0.00609319 0)
(0.501716 0.779199 -1.35485e-19)
(1.08514 -0.0595889 -4.16414e-21)
(1.02961 0.00113628 0)
(0.912641 -0.293662 -3.20859e-21)
(1.24941 -0.0227204 5.17741e-21)
(1.15852 0.0316041 5.29301e-20)
(1.02812 0.0115743 -2.14947e-20)
(1.07982 0.018721 6.22151e-21)
(0.83706 -0.218966 2.30012e-19)
(1.15174 -1.00151 -4.47325e-20)
(1.3151 0.0614423 0)
(0.566279 0.618844 5.03163e-21)
(1.05595 0.00796308 6.72341e-21)
(1.16595 -0.458883 0)
(1.04032 -0.226098 -1.4815e-20)
(1.03006 0.00620421 0)
(1.01147 -0.0494404 -4.74944e-23)
(1.1249 0.023236 0)
(1.16164 0.0139484 1.69222e-20)
(1.44416 -0.14798 0)
(1.02557 0.000206773 0)
(1.03862 0.00902472 -8.24002e-21)
(0.716345 -0.0809764 3.25747e-20)
(1.02931 0.00757029 4.66207e-21)
(1.02879 0.00379625 0)
(1.05442 0.0194127 0)
(0.00426165 1.05545 0)
(1.18234 0.05738 -3.49153e-21)
(1.37221 0.0442216 9.1938e-20)
(1.22667 0.164631 -7.75396e-20)
(0.957778 -0.601203 -6.31617e-20)
(0.893782 0.154595 3.05685e-21)
(1.04236 0.000720343 8.36713e-21)
(1.30875 0.0629219 2.88039e-20)
(1.02206 0.00740533 -6.70063e-21)
(0.70454 0.10964 1.02096e-21)
(1.0269 -0.238823 1.12363e-20)
(-0.00663354 0.60552 2.15147e-19)
(1.02894 0.00587425 1.03423e-20)
(0.924646 -0.114226 0)
(1.03918 0.0143866 1.07832e-20)
(1.06717 0.000797305 -4.11337e-21)
(1.19713 0.226177 0)
(0.909085 0.155969 -6.07516e-20)
(0.841864 -0.115395 -3.81122e-21)
(1.02709 0.0111009 -1.07678e-20)
(1.03144 -0.00100645 -3.53636e-21)
(1.12271 0.0291937 -7.18489e-21)
(1.03929 0.00057597 0)
(1.10688 0.0730152 1.64765e-20)
(1.0782 0.00286193 0)
(1.05857 0.0115155 -1.67293e-21)
(1.04248 -0.0356583 2.91154e-21)
(1.00922 0.0461102 0)
(1.03214 0.0123471 -4.66641e-21)
(1.05993 -0.00042947 -4.17284e-21)
(1.03419 0.0146122 5.37368e-21)
(1.33263 -0.768081 0)
(1.00053 -0.084388 0)
(0.923139 -0.535476 3.7212e-20)
(0.97 0.0272734 -6.60162e-21)
(0.831379 -0.23857 4.18423e-20)
(1.14375 0.0653126 2.36358e-20)
(1.02755 0.00731157 -1.32301e-20)
(1.28399 -0.038502 4.63079e-20)
(1.22901 0.102937 -3.12789e-20)
(0.456877 -0.336037 1.7938e-21)
(1.03314 0.0112059 -5.82069e-23)
(1.09205 -0.282705 3.22301e-19)
(1.03763 0.00512433 1.59101e-20)
(1.11731 -0.0771554 -1.4865e-20)
(1.03181 0.0111728 4.48905e-21)
(1.42683 -0.0734943 1.35088e-20)
(1.06025 0.000548186 -1.579e-23)
(1.05019 0.00139852 -4.45952e-21)
(1.02625 -0.0128763 0)
(1.05731 0.00991982 -5.24638e-21)
(1.0297 0.112974 -1.12615e-20)
(0.890535 0.000274507 -8.72407e-21)
(0.688414 -0.599864 5.04803e-21)
(0.848516 0.219211 -4.58726e-21)
(1.22784 0.149346 -1.29163e-20)
(1.0496 0.0100193 -1.94488e-20)
(1.0498 -0.000109247 5.07395e-21)
(1.03261 0.00731373 1.45597e-21)
(1.05021 0.00361906 0)
(1.0514 0.000407853 0)
(1.0751 0.00155479 3.04157e-21)
(0.790157 0.653376 -2.54726e-21)
(1.18764 0.43348 0)
(1.02672 0.00959244 1.33113e-20)
(1.05624 -0.080695 0)
(0.910316 -0.00731934 -7.5328e-21)
(1.04897 0.000515472 -1.09778e-20)
(1.2105 -0.102816 0)
(1.02655 -0.587119 -6.06938e-20)
(1.0428 9.39808e-05 -1.08506e-20)
(1.06212 -9.62084e-05 0)
(1.44294 -0.167369 0)
(1.0212 0.117364 -1.60071e-20)
(0.668078 0.759229 0)
(1.04202 -0.0704808 5.07765e-21)
(1.05 0.00320532 0)
(1.03417 0.00998828 1.23672e-20)
(1.29256 -0.233222 -1.43379e-19)
(1.02495 0.0127158 1.75563e-20)
(1.18955 0.116094 0)
(1.15034 -0.473419 0)
(1.05448 0.00602045 1.55942e-20)
(1.02995 0.00586652 2.31489e-20)
(0.715955 -0.0708085 -4.1033e-20)
(0.955317 -0.509829 2.09319e-20)
(0.9815 0.0305664 -1.12977e-21)
(0.737895 -0.288856 0)
(1.05312 0.0161637 -2.40705e-22)
(1.09288 0.161021 3.77764e-22)
(0.96879 -0.674935 0)
(0.700031 0.191023 -8.75814e-20)
(1.23015 0.421969 -4.7726e-21)
(0.738553 -0.101178 -3.26623e-20)
(0.959171 -0.522196 1.55781e-20)
(0.916648 -0.451231 5.82778e-21)
(1.02397 -0.0752969 1.07245e-20)
(0.964754 -1.09973 -1.82115e-20)
(1.0291 0.00615688 -2.55326e-20)
(0.980716 0.0372247 -1.61365e-20)
(1.06426 0.176585 -4.55118e-22)
(1.05016 -0.00947994 1.12753e-21)
(1.00878 0.00421231 7.10285e-21)
(1.05064 0.00272555 1.81632e-20)
(1.21705 0.0846969 -4.59639e-21)
(0.828437 0.00868271 1.0884e-21)
(0.814252 0.136425 3.88977e-20)
(0.823715 0.43249 6.39616e-21)
(1.05076 0.00260142 -8.99364e-21)
(1.02924 0.0114596 -8.54806e-21)
(1.15483 0.131401 2.01645e-20)
(1.03069 0.0100575 7.82895e-21)
(1.03434 0.0106576 0)
(1.07788 0.00656419 4.68702e-22)
(1.15838 0.0845204 0)
(1.06233 0.0119823 0)
(1.04547 0.000810718 -8.5363e-21)
(1.00015 0.00505721 -7.86643e-21)
(1.04332 -4.3401e-05 8.1873e-21)
(1.05266 -0.016521 1.45294e-21)
(1.07462 5.50203e-05 -8.93643e-21)
(0.632851 0.496601 -7.80984e-20)
(1.02994 0.0101639 -5.73108e-24)