/*--------------------------------*- C++ -*----------------------------------*\
| =========                 |                                                 |
| \\      /  F ield         | OpenFOAM: The Open Source CFD Toolbox           |
|  \\    /   O peration     | Version:  v2012                                 |
|   \\  /    A nd           | Website:  www.openfoam.com                      |
|    \\/     M anipulation  |                                                 |
\*---------------------------------------------------------------------------*/
FoamFile
{
    version     2.0;
    format      ascii;
    class       volVectorField;
    location    "50";
    object      U;
}
// * * * * * * * * * * * * * * * * * * * * * * * * * * * * * * * * * * * * * //

dimensions      [0 1 -1 0 0 0 0];


internalField   nonuniform List<vector> 
13851
(
(1.09749 0.0126107 -5.70643e-21)
(1.05619 -0.021459 0)
(1.0551 -0.0207193 0)
(-0.0716575 0.00977289 0)
(1.00173 -0.000412603 2.52893e-22)
(1.06306 -0.031261 -1.48837e-20)
(1.05007 0.00538523 -2.37103e-20)
(1.0118 -0.000745561 0)
(0.57251 0.0175095 -3.00684e-20)
(0.99261 -0.00666378 1.04356e-20)
(1.12269 -0.063206 0)
(1.00103 -0.00706431 1.90306e-21)
(0.983947 -0.0166798 3.69356e-21)
(0.430542 0.0048269 2.17309e-20)
(1.07813 -0.00210959 1.52638e-20)
(1.08617 0.0240988 0)
(-0.0368058 0.00944082 0)
(1.02888 -0.0169501 1.03416e-22)
(1.12269 0.0136643 0)
(1.09782 0.0120173 1.56621e-20)
(1.08428 -0.00603651 1.59593e-20)
(1.03391 -0.0728459 5.57229e-21)
(0.904906 -0.307502 9.83873e-20)
(1.00006 -0.000179074 0)
(1.16504 0.0113466 1.83737e-20)
(1.07915 0.0197275 -2.63983e-20)
(1.09678 0.0214317 -2.15248e-20)
(1.09799 0.023325 2.30063e-20)
(0.640978 0.0181461 5.89926e-21)
(1.01718 -0.0106637 0)
(0.245166 0.0315813 -1.12076e-19)
(1.05009 0.00486989 7.60314e-21)
(1.09505 0.0135061 -2.54055e-21)
(0.654533 0.0279578 5.70065e-22)
(1.09929 -0.0584543 -7.74198e-21)
(0.659051 0.0188984 0)
(1.00004 -0.000160414 0)
(1.22998 -0.0500357 -9.16024e-21)
(0.430998 0.0438787 8.07833e-20)
(1.00563 -0.0320044 6.1472e-21)
(0.561706 0.0296057 2.63742e-20)
(0.665781 0.0194088 -5.85712e-21)
(-0.150044 -0.00176137 0)
(1.18513 -0.411337 0)
(0.679759 0.0211159 0)
(1.01205 -0.0191128 -4.28944e-22)
(1.01763 -0.000216366 -3.29465e-21)
(1.08734 0.020997 -6.8641e-23)
(1.03724 -0.0457809 -8.68338e-21)
(0.98365 -0.0158764 0)
(0.195291 0.00957909 -6.71155e-20)
(0.977811 -0.0111233 7.33262e-21)
(1.08609 0.023782 0)
(1.06434 0.009736 1.0613e-20)
(0.45556 0.00572166 -3.43894e-20)
(1.00478 -0.0322424 -5.65839e-21)
(1.09566 0.0136627 0)
(0.538205 0.0277708 -3.44525e-20)
(1.09002 0.0232319 0)
(0.365716 0.00568469 1.00756e-20)
(1.00094 -0.00666253 -5.36915e-21)
(1.09635 0.0210819 3.58027e-20)
(0.99623 -0.00247681 0)
(1.03768 -0.0474916 -6.05558e-21)
(0.935776 -0.422163 -7.60067e-24)
(0.920309 -0.44637 9.14211e-24)
(0.343803 0.0031668 6.60286e-21)
(0.723436 -0.120381 7.93722e-20)
(1.01686 -0.0328128 -1.27954e-22)
(0.0416767 0.0179711 1.25649e-19)
(0.145784 0.0359218 -1.1673e-19)
(1.08967 -0.00444792 2.37869e-22)
(0.994928 -0.0223138 -4.11779e-21)
(0.360144 0.00463786 0)
(1.06829 0.0066872 1.19934e-20)
(1.01838 -0.06034 0)
(-0.0124001 0.0125958 -5.82612e-20)
(1.01819 -0.00583067 -2.06254e-21)
(1.17218 0.00956515 1.64338e-20)
(1.00406 -0.0150226 7.60444e-21)
(1.01786 -0.0332778 0)
(1.18498 -0.0284192 -6.79486e-20)
(1.09734 -0.0599931 0)
(0.426015 0.00559875 -3.50717e-20)
(0.376064 0.00666739 -5.07125e-21)
(0.210095 0.0342255 0)
(1.03658 -0.0735223 -6.15613e-21)
(0.503782 0.00452862 1.31766e-22)
(0.993181 -0.0101176 3.76245e-22)
(0.250777 0.0327972 0)
(0.976745 -0.0104711 3.79383e-21)
(1.051 0.00450283 3.04389e-20)
(0.0790765 0.00528908 9.17714e-20)
(0.145985 0.0322798 1.25447e-19)
(0.381989 0.0329034 5.77714e-20)
(1.14837 -0.373907 -8.91341e-20)
(1.00804 -0.0203664 4.30623e-21)
(1.08696 0.0224837 0)
(0.266616 0.00813573 3.54994e-21)
(1.18704 -0.113721 6.15105e-20)
(1.08743 0.0222752 0)
(0.835463 -0.109114 -3.27878e-20)
(0.837533 -0.140206 -1.74368e-20)
(0.99154 -0.0238602 0)
(1.01498 -0.0188966 0)
(1.09255 -0.0121092 1.15934e-20)
(1.01439 -0.0186863 2.06524e-22)
(0.175572 0.0359842 1.24356e-19)
(1.05095 0.00390847 -1.67369e-20)
(1.02815 -0.0164824 2.02307e-21)
(1.02795 -0.105062 1.49044e-21)
(1.01268 -0.0194446 0)
(1.13513 -0.00714218 0)
(1.11305 -0.0303199 0)
(1.09203 0.0158126 1.14207e-20)
(1.06363 0.00901947 -2.61321e-20)
(1.01209 -0.00711872 8.9872e-22)
(1.01217 -0.000870577 1.52704e-21)
(-0.118027 0.00896021 -1.8188e-20)
(0.121902 0.012703 4.17274e-20)
(1.15099 -0.287163 7.32212e-20)
(1.02362 -0.0139788 -4.86366e-22)
(1.01296 -0.0333932 -7.60215e-22)
(0.458244 0.01485 4.55218e-21)
(1.11177 0.0139183 -6.77647e-23)
(0.648987 -0.204339 0)
(1.00846 -0.0201278 -5.44592e-21)
(1.1112 -0.105133 0)
(0.561127 0.0250339 2.89021e-20)
(1.08459 -0.000130725 -2.68439e-21)
(1.03144 -0.0746238 -6.08184e-22)
(1.07585 -0.0490968 0)
(1.24461 -0.0560721 7.52246e-20)
(0.642436 0.0269319 2.27674e-20)
(1.12491 -0.0605019 0)
(0.370267 0.036678 2.45645e-20)
(0.735983 -0.112282 5.8749e-20)
(0.186826 0.0338965 1.66469e-20)
(0.869023 -0.0812164 2.20493e-20)
(1.08263 0.00185057 1.86011e-20)
(1.18385 -0.0313289 6.14716e-20)
(0.979511 -0.0378128 0)
(0.992598 -0.0102171 0)
(0.785202 -0.300684 -1.80595e-20)
(1.14013 0.0198944 2.26263e-21)
(1.00739 -0.0596567 0)
(1.01803 -0.00547038 4.96626e-22)
(0.158807 0.0319592 -6.34523e-20)
(0.552066 0.0133089 -1.2971e-20)
(1.11567 -0.105749 0)
(1.08759 0.0219523 0)
(1.13537 -0.0087901 -4.60753e-21)
(1.11519 -0.0292061 -2.45294e-20)
(1.11769 0.0113656 -3.89684e-20)
(0.977017 -0.0195232 0)
(0.986338 -0.00763278 0)
(1.00105 -0.00557554 -4.91716e-21)
(0.387909 0.0407575 -8.01614e-20)
(1.0813 0.000249228 0)
(1.05086 -0.00271874 -1.05215e-20)
(1.00012 -0.00041205 5.26182e-21)
(0.647983 0.0180524 0)
(1.09105 -0.0116912 0)
(1.08747 0.0206861 -2.98567e-20)
(0.433522 0.00505888 -2.0492e-20)
(0.630099 0.0217157 6.0371e-21)
(0.638584 0.0220179 0)
(0.20662 0.0118286 9.19928e-20)
(1.02798 -0.100979 -7.6482e-21)
(0.908784 0.0360406 0)
(1.0007 -0.00612718 -3.56657e-21)
(1.01204 -0.0067774 6.68741e-22)
(1.10053 -0.0132633 0)
(1.00089 -0.000368794 0)
(0.412797 0.0371054 -5.3024e-20)
(1.10069 0.0196911 -3.28988e-20)
(1.08938 0.0203466 -6.38601e-21)
(1.01254 -0.0067551 0)
(1.06748 0.00793575 0)
(1.08895 0.020391 0)
(1.11056 0.0134878 -1.05199e-20)
(1.18024 -0.390049 3.83974e-20)
(1.03165 -0.0947233 -3.05217e-21)
(1.08355 0.00016213 0)
(-0.0900309 0.000667155 -4.17412e-20)
(0.557654 0.0130466 1.36307e-22)
(1.0948 0.0141272 -1.17661e-20)
(0.905527 -0.0594768 -1.47238e-20)
(0.980794 -0.0201136 7.59652e-21)
(1.01568 -0.0142424 -4.53575e-22)
(1.15311 0.0171287 3.37676e-20)
(1.08157 -0.000399687 0)
(0.410712 0.0017302 -1.10471e-20)
(1.06401 -0.0298349 1.53478e-20)
(1.00874 -0.0578555 2.68089e-21)
(1.08654 0.0231272 0)
(1.09416 0.0139677 0)
(1.03745 -0.0110161 -3.62251e-21)
(1.03327 -0.0235413 -5.52273e-21)
(0.740685 -0.15417 0)
(1.18838 -0.037933 3.22553e-20)
(0.442819 0.0323562 -1.97138e-20)
(0.529745 0.0305741 0)
(1.07731 -0.00149058 -2.88084e-20)
(1.03709 -0.692196 -8.45011e-20)
(0.412562 0.0303362 0)
(0.947005 -0.0185067 0)
(1.07967 0.00618649 -2.15224e-20)
(0.571768 0.0184387 -1.37554e-20)
(1.05932 -0.0366541 0)
(1.08582 0.0247993 -3.59883e-22)
(1.01241 -0.0327337 -1.15048e-21)
(1.18961 -0.0344421 -9.4229e-21)
(1.00009 -0.00174476 -3.02562e-22)
(1.10063 -0.0531997 -1.78798e-21)
(1.02173 -0.0662876 1.88546e-21)
(0.984712 -0.0149264 -5.78592e-21)
(1.10147 0.0156078 0)
(1.03654 -0.0174094 -6.25817e-21)
(0.161591 -0.586059 -8.6454e-20)
(1.01257 -0.00640234 -6.10618e-22)
(1.09909 0.0114362 0)
(0.408602 0.00283528 3.55825e-20)
(0.388389 0.0364097 3.19731e-20)
(0.916619 -0.0675066 0)
(1.07979 0.00669577 1.70534e-20)
(1.00002 -0.000884877 0)
(0.786361 -0.278849 1.82273e-20)
(1.00132 -0.0111701 0)
(1.09858 -0.0545789 0)
(0.307509 -0.0304785 -4.34758e-20)
(0.910657 -0.05995 -2.44708e-20)
(1.05913 -0.0351609 0)
(0.996883 -0.000767572 8.53178e-22)
(0.518604 0.0294859 3.05678e-22)
(1.01774 -0.0105239 2.04147e-21)
(1.0879 -0.384715 0)
(0.515502 0.0296648 -3.19268e-20)
(1.17969 -0.112533 0)
(1.00008 -0.000394245 -6.10475e-21)
(1.29093 -0.200296 0)
(0.382723 0.00727118 -3.87995e-20)
(0.698383 0.0222143 0)
(1.08569 0.0245043 0)
(1.07849 -0.0157185 0)
(0.751607 -0.336002 -4.29135e-20)
(1.10114 0.0149396 1.83906e-20)
(1.06748 0.00878457 0)
(1.14466 -0.353726 0)
(1.04365 -0.104403 7.88709e-21)
(0.469799 0.00441882 0)
(1.10804 0.00662059 -5.16944e-20)
(1.00886 -0.00078408 -1.7886e-24)
(1.06337 -0.0157165 0)
(1.087 0.0228808 -1.53768e-21)
(0.63933 0.0175615 0)
(0.542973 0.00750648 8.84073e-21)
(1.0153 -0.0136483 5.96098e-22)
(0.624568 -0.200885 0)
(0.993914 -0.0108176 1.97268e-20)
(1.09617 0.0164888 -4.44078e-20)
(1.11352 0.0127542 -2.02697e-21)
(1.06461 -0.015369 0)
(1.09113 -0.00999118 -5.23783e-20)
(1.10929 0.00682075 5.30728e-20)
(0.999678 -0.0207368 -1.34486e-20)
(0.83146 -0.118633 3.82601e-20)
(1.08672 0.0194757 0)
(1.10579 0.0212797 -9.44394e-21)
(0.998138 -0.0071198 0)
(0.984616 -0.014096 -7.32773e-22)
(0.911635 -0.0663274 1.63591e-20)
(0.640311 0.0238055 0)
(-0.203889 0.00872593 0)
(1.08631 -0.00365837 2.39938e-20)
(1.02442 -0.0144053 2.58243e-21)
(1.10986 0.0143078 2.41631e-21)
(1.1155 0.0121015 5.70799e-20)
(1.09209 0.0142126 -3.02536e-20)
(1.09005 -0.00958987 4.34069e-20)
(0.620813 0.0224056 0)
(0.296143 0.00677419 -1.32699e-20)
(1.0666 -0.0208171 0)
(1.07493 -0.00293352 -4.69063e-20)
(1.22904 -0.0752457 0)
(1.01665 -0.0182239 6.30984e-22)
(1.00115 -0.00528516 -2.52387e-21)
(1.09277 0.0142224 -6.61567e-21)
(1.11604 -0.0763073 3.74646e-20)
(1.01886 -0.0107246 5.03941e-21)
(1.0001 -0.00171844 -4.6711e-21)
(1.00114 -0.0114971 0)
(1.00364 -0.000592569 -2.37458e-23)
(1.07682 -0.0105658 -6.7797e-20)
(1.00119 -0.0056487 7.38752e-21)
(0.582019 0.0184877 1.4955e-20)
(1.08534 -0.00538621 0)
(1.00959 -0.0270882 -2.1541e-21)
(0.642939 0.0168788 0)
(0.448071 0.0140887 0)
(0.97886 -0.0156439 0)
(1.09877 0.0120774 -1.26786e-20)
(0.231696 0.00855264 7.89112e-21)
(0.978617 -0.0398469 0)
(0.977684 -0.0150958 0)
(1.0866 -0.00570693 0)
(0.405347 0.00491473 -2.54643e-21)
(0.685703 0.0344089 -4.09491e-20)
(1.10031 -0.00713501 3.33984e-20)
(1.00189 -0.000540054 -1.02082e-21)
(0.927331 0.0350346 0)
(1.00079 -0.00652375 0)
(1.10316 -0.00694208 3.31664e-20)
(0.242426 0.010813 0)
(1.10542 0.0209236 4.86603e-20)
(1.04992 -0.00291544 7.77197e-21)
(1.25419 -0.0881673 -1.21316e-21)
(1.25157 -0.0674393 0)
(0.234951 0.036983 -9.43304e-20)
(1.13807 -0.0119417 0)
(0.806219 -0.0902384 -3.95044e-20)
(0.418638 0.0389823 4.96634e-22)
(0.49228 0.0191782 -9.9606e-23)
(1.10526 0.0226351 -2.47065e-20)
(1.03429 -0.0241401 5.91606e-21)
(-0.03741 0.0201581 -7.6868e-20)
(0.319836 0.000975942 -4.58937e-22)
(0.504629 -0.488844 -9.38695e-20)
(0.542081 -0.484542 8.47164e-20)
(0.945641 -0.0195436 9.95637e-21)
(1.10213 -0.0106462 -4.01204e-20)
(0.959604 -0.101554 0)
(0.509607 0.0056213 3.17367e-20)
(0.813608 -0.13496 3.71437e-20)
(1.00679 -0.00172277 5.65792e-22)
(1.01739 -0.000303515 3.50985e-21)
(1.05661 -0.0626007 -1.59007e-20)
(0.188394 0.0323677 1.28323e-19)
(0.230431 -0.589383 7.46991e-20)
(1.01666 -0.01757 -1.49399e-21)
(0.372608 0.034533 -5.80118e-20)
(0.950007 -0.100056 -1.48539e-20)
(1.07669 -0.0511103 -7.54178e-21)
(1.05115 -0.00214005 1.14e-20)
(0.396155 0.00364535 -1.52927e-21)
(1.10888 0.0139805 0)
(1.08658 0.0234761 0)
(1.01974 -0.0646538 4.12469e-22)
(1.05728 -0.0346385 1.842e-20)
(0.682023 0.0195616 0)
(0.98072 -0.0214974 -2.37448e-20)
(1.11704 0.0123438 -2.01506e-20)
(1.06565 -0.0199835 0)
(1.08724 -0.00642149 0)
(0.945132 -0.102263 0)
(0.993362 -0.0108059 -1.34744e-20)
(1.01021 -0.0267455 2.13558e-21)
(1.15966 -0.0395587 0)
(1.19146 -0.108043 2.13645e-21)
(1.10645 0.00765144 -5.56989e-20)
(1.25337 -0.0639039 1.28977e-21)
(0.689157 0.0200028 6.04507e-21)
(1.00851 -0.0607889 0)
(0.50128 0.0287029 1.70693e-20)
(1.09776 0.0172725 -1.14127e-20)
(1.02319 -0.00793886 -2.55983e-22)
(1.09817 0.0217602 -4.08311e-20)
(1.09642 0.00712832 1.03025e-20)
(0.277233 0.00960672 -2.5623e-20)
(1.05491 -0.0609218 0)
(1.0785 0.022815 0)
(1.0943 0.0227732 0)
(1.21076 -0.0168031 5.5402e-20)
(1.16056 -0.0468785 8.24901e-23)
(0.504945 0.00400189 4.32506e-21)
(1.037 -0.0323717 -5.09179e-21)
(1.10128 0.0200175 3.92611e-20)
(-0.171671 0.00505892 0)
(1.07552 -0.0228723 3.10528e-20)
(0.4873 0.0056866 4.26058e-20)
(1.07997 -0.0239873 -1.45977e-20)
(0.539148 0.0315317 -3.09407e-20)
(1.07428 -0.00347716 2.83757e-20)
(1.06895 0.0168451 1.57492e-20)
(1.11092 0.00501105 0)
(1.20245 -0.0836996 0)
(0.986395 -0.00839893 0)
(1.06478 -0.0241703 9.58126e-21)
(1.11971 -0.0776408 3.26526e-21)
(1.06834 0.00751454 0)
(1.01064 -0.0208327 0)
(1.08632 -0.00268811 -2.525e-20)
(0.809183 0.0311349 7.6726e-22)
(0.995585 -0.0222564 -9.94202e-21)
(1.08022 0.00532584 0)
(-0.175004 0.00218808 2.37686e-19)
(1.0523 -0.0328861 -9.37166e-21)
(1.27746 -0.349406 -8.42988e-20)
(1.07447 0.0130779 -2.31281e-21)
(0.741161 0.0325086 0)
(1.06112 -0.0376324 1.58091e-20)
(1.07845 0.0193803 0)
(1.02572 -0.668501 1.08302e-19)
(1.113 0.0133663 8.71641e-21)
(1.09299 -0.0148941 1.12576e-20)
(0.528756 0.00590295 3.38384e-23)
(0.366007 0.00467948 4.81213e-20)
(1.2823 -0.206018 0)
(0.999038 -0.0208014 -5.50407e-21)
(1.156 -0.038361 0)
(1.08113 -0.0280805 -3.27143e-20)
(1.0785 0.022038 0)
(1.02241 -0.0152589 -5.98282e-21)
(-0.120305 0.00368047 1.23796e-21)
(0.79569 0.0320949 -1.36303e-20)
(1.19014 -0.00186379 -9.74125e-20)
(1.05695 -0.0332266 -1.75556e-20)
(1.11057 0.00584777 0)
(1.09744 0.0206091 -4.15281e-20)
(-0.181489 0.00952769 0)
(1.02084 -0.0035259 3.34474e-21)
(-0.0823487 0.0168096 -8.58985e-20)
(1.20313 -0.0709284 9.04036e-21)
(0.639241 -0.256551 1.59905e-21)
(1.04747 -0.106092 -9.92463e-21)
(1.11613 0.0230772 -4.75133e-20)
(0.989584 -0.0143971 1.2109e-20)
(1.00105 -0.000321131 -1.24541e-21)
(0.444538 0.00503022 4.00218e-20)
(1.09804 0.0203061 3.40229e-20)
(0.992039 -0.00711669 -6.01863e-21)
(1.05608 -0.0224964 4.03549e-21)
(1.08114 0.00524699 -5.72255e-21)
(1.0106 -0.00756863 3.20745e-22)
(0.835699 0.0318945 0)
(1.10194 -0.00936762 8.69131e-21)
(1.09651 0.00660396 0)
(1.0607 -0.00557825 7.23855e-21)
(1.03752 -0.0314933 0)
(0.976464 -0.00604055 0)
(1.21816 -0.0216377 0)
(1.00864 -0.0264768 0)
(0.977364 -0.00515362 0)
(0.898535 0.0272659 8.60362e-21)
(0.828798 0.029806 0)
(1.02878 -0.0729495 0)
(1.09355 0.0223242 1.57993e-20)
(0.996399 -0.00201549 -9.5156e-22)
(1.00129 -0.00535324 -2.42222e-21)
(1.05397 -0.0335161 2.80598e-20)
(1.10749 0.00782578 5.93352e-20)
(1.07292 0.0148421 -2.13179e-20)
(1.01054 -0.0220323 0)
(1.04443 -0.0260781 1.0209e-20)
(1.14819 -0.275784 3.65078e-20)
(1.05051 -0.0169946 -1.33807e-20)
(0.781773 0.0245797 0)
(1.00117 -0.00660835 -2.64107e-21)
(1.06202 0.00211025 1.55192e-20)
(0.684713 0.0215235 1.10415e-20)
(0.955563 -0.140208 0)
(1.01643 -0.000813679 -8.08345e-22)
(1.00034 -0.00565608 -4.03059e-21)
(1.06031 -0.00623405 -3.65858e-21)
(1.03973 -0.010368 0)
(1.28014 -0.259644 3.59527e-20)
(0.854212 0.0272327 -9.77373e-21)
(1.07913 -0.01479 3.67014e-21)
(0.367787 -1.13354 0)
(1.05515 -0.0325007 -1.47027e-20)
(1.00019 -0.00898973 -4.74127e-21)
(0.575305 0.0228204 -1.50404e-20)
(1.09476 0.0225198 1.61559e-20)
(0.897833 -0.111381 0)
(0.996591 -0.0255017 0)
(0.480917 0.0177869 2.11077e-20)
(0.877958 -0.0858732 4.0844e-20)
(1.2004 -0.521705 -1.88656e-20)
(0.990998 -0.0231486 -9.83182e-21)
(1.07731 -0.0453311 0)
(1.1618 -0.0440571 0)
(1.07186 0.00505224 0)
(0.518632 0.0217967 1.3318e-20)
(1.09739 0.0208087 3.81799e-20)
(1.19957 -0.00549174 9.29648e-20)
(0.981711 -0.0598264 0)
(1.13773 -0.00999894 3.69967e-22)
(1.00063 -0.0217994 4.36817e-21)
(0.632336 0.0177668 0)
(1.07449 0.0125615 8.2164e-21)
(1.09378 0.0142241 0)
(1.08005 -0.0269102 2.6429e-20)
(1.02001 -0.0620659 8.35414e-22)
(0.96118 -0.1372 0)
(1.10058 -0.0115836 8.05468e-21)
(1.00152 -0.000488798 0)
(-0.17731 0.00985636 0)
(0.554838 0.0213927 0)
(0.816136 0.0207494 3.57601e-20)
(-0.174648 -0.00313183 -2.08496e-20)
(0.865661 0.0276311 8.58764e-21)
(0.115464 0.0235479 -2.08306e-20)
(1.11498 0.0129461 -4.24688e-20)
(0.926803 -0.0702336 0)
(0.999721 -0.00230729 -8.24234e-21)
(1.26077 -0.350009 -5.16017e-20)
(0.992636 -0.00606549 -8.10448e-21)
(1.01038 -0.0202715 8.66098e-23)
(0.922238 -0.0853944 1.34349e-20)
(0.436305 0.0378896 3.16695e-20)
(1.05461 -0.0166467 -1.96273e-20)
(0.975638 -0.0339103 -7.61611e-23)
(1.09487 -0.225137 -1.36398e-21)
(1.09842 -0.0266451 0)
(0.990943 -0.00220782 8.99509e-22)
(0.97214 0.0354082 3.16331e-20)
(1.00696 -0.0195406 -3.45699e-21)
(0.589779 0.0258051 -1.40735e-20)
(1.27325 -0.247666 -1.28171e-19)
(1.00441 -0.0155189 0)
(1.05138 -0.0102156 -1.59652e-20)
(1.19557 -0.0529018 -3.82385e-20)
(1.09897 0.0220302 -5.24114e-21)
(1.01833 -0.0109385 2.74562e-22)
(1.17295 -0.0253019 0)
(1.19672 -0.311903 9.26287e-20)
(1.02692 -0.00384733 0)
(0.331247 0.0424314 1.86691e-20)
(1.12053 0.0132011 -2.5096e-21)
(1.10033 0.0107453 0)
(0.980382 -0.0584252 1.26134e-20)
(0.909872 0.0271229 -3.52626e-20)
(0.335632 0.00812444 1.67122e-20)
(1.02746 -0.00405188 -3.75421e-21)
(1.14158 0.00381748 6.27092e-20)
(1.01491 -0.033056 -7.20692e-22)
(1.00734 -0.020008 1.70446e-21)
(0.938486 0.0286226 2.12116e-21)
(0.544235 0.0328217 3.67073e-20)
(1.08843 -0.0269611 0)
(1.07221 0.0150469 1.7955e-20)
(0.992092 -0.00499878 -1.06387e-20)
(1.07889 0.0151935 0)
(0.582265 0.0259013 -9.10439e-23)
(0.389701 0.038805 5.49941e-20)
(1.02984 -0.00681324 9.66188e-22)
(0.01603 0.0178077 0)
(1.01023 -0.0215122 0)
(1.01593 -0.0336335 1.42729e-22)
(1.09339 -0.0138273 1.51392e-21)
(1.06033 0.00576708 0)
(1.02107 -0.00330182 1.82096e-21)
(1.01609 -0.0605702 -5.09043e-22)
(0.353788 0.0416611 0)
(1.19669 -0.0827239 -3.70088e-20)
(0.310826 0.0410622 0)
(1.05309 -0.0168912 -1.49534e-20)
(0.994096 -0.0114148 -1.19707e-22)
(0.652542 0.023161 -6.01878e-21)
(0.999539 -0.00327799 0)
(1.15366 -0.0328994 0)
(1.06379 -0.0020674 2.22692e-20)
(1.06912 0.00530626 -2.64513e-20)
(1.07903 -0.0183102 6.54218e-21)
(0.746172 0.0242288 0)
(0.306409 0.0085097 0)
(1.06338 -0.0269594 -1.59109e-20)
(-0.108496 0.0120671 0)
(1.04889 -0.00430055 3.70315e-21)
(1.10675 -0.0167452 0)
(0.672857 0.0201573 1.75285e-20)
(0.477487 0.00814384 1.01771e-21)
(1.00984 -0.0336791 -2.36163e-21)
(1.00002 -0.0217256 5.39902e-21)
(0.844816 -0.148163 0)
(0.328193 0.0410331 0)
(1.09101 0.0241497 -4.59755e-20)
(1.07828 0.015322 0)
(1.16119 -0.476743 1.78683e-20)
(1.06046 0.00628377 0)
(1.07309 -0.00289453 0)
(0.470391 -0.0512946 -7.96077e-20)
(0.948632 0.0341998 4.47772e-20)
(1.12174 -0.275231 -3.82264e-20)
(0.577135 0.024902 0)
(1.09284 0.0182236 -7.53441e-21)
(0.696233 0.0208068 -1.61144e-20)
(1.03375 -0.031357 7.52865e-23)
(1.08584 0.0238232 0)
(1.12923 0.0208855 0)
(0.999889 -0.00779024 4.67064e-21)
(0.115189 0.00595409 -4.47915e-20)
(0.786821 0.0437396 1.78557e-20)
(1.03194 -0.0990658 6.73233e-21)
(1.08353 0.00132683 -1.92578e-20)
(1.00203 -0.0298914 2.69834e-22)
(0.522615 -0.875592 3.33987e-21)
(1.13064 -0.128875 0)
(0.953447 -0.179395 1.70069e-19)
(1.00809 -0.026906 -2.88239e-21)
(1.00062 -0.000425088 0)
(0.923763 -0.041796 0)
(1.09791 -0.0282835 7.5274e-21)
(1.00122 -0.00635868 0)
(0.40416 0.0360366 -5.39903e-20)
(1.00072 -0.000506043 1.86602e-21)
(1.09292 0.0179838 0)
(0.975871 -0.05734 4.20467e-22)
(1.07917 0.0218602 -6.85004e-21)
(0.99231 -0.0235276 -1.02402e-20)
(0.990333 -0.00231041 -1.03158e-20)
(1.0853 -0.119458 0)
(0.0202961 0.0151572 1.34112e-19)
(1.09408 -0.0175598 -4.60712e-20)
(0.355448 0.0354022 6.74482e-21)
(1.07776 -0.0473565 3.8305e-21)
(1.01076 -0.00842704 2.00901e-22)
(1.02544 -0.0100253 4.16838e-21)
(1.10202 -0.0140087 -2.0638e-21)
(1.04358 -0.0267721 1.65801e-21)
(1.12561 -0.018013 6.08576e-20)
(1.05753 -0.0182169 -1.12416e-20)
(0.897312 -0.104347 0)
(1.08993 0.0235798 0)
(0.999444 -0.00304833 4.45698e-21)
(0.541672 0.00225737 0)
(1.00005 -0.00119364 4.81622e-21)
(1.08202 0.0241759 3.90342e-20)
(-0.094026 0.0143651 0)
(0.666321 0.0216679 0)
(0.898076 -0.0250126 2.61415e-20)
(1.0851 -0.231208 -1.48617e-19)
(1.08464 -0.226771 -4.83036e-20)
(1.21006 -0.149247 -3.797e-20)
(0.764762 0.0444393 0)
(1.0317 -0.00780455 -1.97714e-21)
(0.920179 0.0367244 1.30746e-20)
(0.95511 -0.103798 0)
(1.07714 -0.0228548 -6.86231e-21)
(-0.123644 -0.00473367 1.43966e-19)
(1.15982 0.0129944 -4.0215e-21)
(1.02352 -0.00833013 -2.97856e-21)
(1.12519 -0.0194321 -5.72175e-20)
(1.03697 -0.0103763 -3.67633e-21)
(0.673159 0.0191712 3.26728e-21)
(0.159784 0.011307 -2.08722e-20)
(1.02006 -0.0346546 4.17239e-23)
(0.722738 -0.144875 -8.19459e-20)
(0.840538 0.03322 2.64172e-20)
(0.999987 -0.000997085 -6.90696e-21)
(0.999982 -0.00133329 -5.11759e-21)
(1.07919 0.0202023 3.29306e-20)
(0.524689 0.000640507 5.86089e-21)
(0.956928 0.0275742 -2.3258e-20)
(0.977847 -0.0139105 3.24784e-21)
(1.11298 0.00377587 3.4657e-21)
(1.04922 -0.0168896 6.48263e-21)
(0.989401 -0.00316188 0)
(1.08607 0.0240854 4.48016e-21)
(1.11247 0.00476644 0)
(1.18213 -0.0998961 2.70515e-20)
(1.01977 -0.00298642 0)
(1.08693 0.0190894 2.51318e-20)
(0.93171 -0.186228 0)
(1.07708 0.019135 5.89685e-21)
(0.963938 -0.0163935 -3.08444e-20)
(1.00753 -0.055797 4.9404e-22)
(1.12468 -0.13066 0)
(0.927476 -0.0426634 0)
(1.08703 0.0202708 -1.0412e-20)
(1.08849 -0.00386365 2.16425e-20)
(1.08985 -0.00554955 2.84337e-22)
(1.10772 -0.26631 5.5036e-20)
(1.20477 -0.53676 -6.82366e-20)
(1.12311 0.01272 -2.7033e-22)
(0.828439 0.0274603 -7.65168e-23)
(1.19772 -0.0273649 0)
(1.08738 0.0217496 0)
(0.455637 0.00939587 1.96269e-20)
(1.03077 -0.144004 -1.02483e-20)
(0.92058 0.0282376 0)
(1.1 0.0114518 0)
(1.02611 -0.017642 0)
(1.07228 -0.00348693 -1.33609e-20)
(1.12182 0.0110749 -6.12403e-20)
(1.0477 -0.0680321 -1.26094e-20)
(1.00412 -0.0144756 5.76722e-23)
(1.00453 -0.0137194 -3.20161e-21)
(1.08251 0.0232623 1.73428e-20)
(0.498155 0.0017469 1.43702e-20)
(1.06295 0.00183048 -1.63157e-20)
(0.488172 0.0281255 1.74818e-20)
(1.01059 -0.00873009 1.50501e-22)
(0.938299 0.0275682 4.74837e-21)
(1.04699 -0.324514 0)
(0.220095 0.00760934 7.44484e-20)
(1.12631 -0.0217405 -2.95066e-20)
(1.06269 -0.037146 -1.65151e-20)
(1.05557 -0.0196007 -1.07273e-20)
(0.229394 0.0100589 -2.70858e-20)
(1.1811 -0.095317 -9.65848e-20)
(1.03018 -0.13811 1.03325e-20)
(1.09818 0.0205634 -7.71345e-21)
(1.03652 -0.0299273 0)
(1.27717 -0.307285 0)
(1.08254 0.0236675 -1.01157e-20)
(1.09333 0.0177472 -1.37818e-20)
(1.07985 -0.0343911 7.22984e-21)
(1.21625 -0.0569299 0)
(0.990204 -0.0147396 8.08784e-21)
(1.00006 -0.00139879 3.0904e-22)
(0.949863 -0.0180979 2.82001e-20)
(0.988863 -0.00380486 -1.77708e-21)
(0.662419 0.0195665 0)
(1.00336 -0.000714056 0)
(1.09021 0.0242154 0)
(0.631419 0.0225451 0)
(1.12858 -0.0221799 0)
(0.409349 0.0399401 0)
(0.276803 0.00890984 0)
(1.09379 0.0178319 0)
(1.21686 -0.142802 8.45763e-20)
(0.900782 -0.0315701 -2.11568e-20)
(0.998829 -0.000216839 -1.11157e-20)
(0.985646 -0.0134309 7.71529e-22)
(1.01723 -0.0058587 0)
(1.02483 -0.0100501 -5.34709e-21)
(1.00085 -0.000476822 -1.32726e-21)
(1.10518 -0.0136666 0)
(1.13093 -0.00536588 -3.61029e-20)
(0.929971 -0.197223 0)
(1.10692 0.0220205 -4.62983e-20)
(1.02017 -0.0517952 1.13511e-22)
(0.564991 0.0175133 -7.02141e-21)
(0.999982 -0.000130874 -3.45234e-21)
(0.00508826 0.00477681 -2.41791e-19)
(1.09295 -0.064552 -6.77469e-21)
(0.999939 -0.000257696 -9.87502e-22)
(0.997494 -0.000927034 -6.54732e-21)
(0.657705 0.0220054 2.59892e-20)
(1.06375 -0.032468 1.12795e-20)
(0.970853 0.025508 1.06716e-20)
(0.794919 0.0410532 2.36777e-21)
(1.0817 0.00150245 0)
(1.0936 0.00211721 -1.04332e-20)
(1.02664 -0.00313159 -3.1376e-21)
(0.631701 0.0268038 -2.41713e-20)
(0.989689 -0.0683614 0)
(1.05533 -0.0175649 2.06274e-20)
(1.08623 0.0239306 0)
(0.99886 -0.000625905 5.31181e-21)
(0.978533 -0.0363571 -4.36791e-21)
(1.02934 -0.0111077 0)
(1.07531 0.0113265 1.94781e-20)
(0.486173 0.00287448 2.81463e-20)
(1.07145 -0.0455486 -2.10396e-20)
(1.0802 -0.0310348 -2.84902e-20)
(1.20925 -0.0747898 0)
(0.352609 0.0370179 -5.59226e-20)
(0.902912 -0.0515047 -2.89066e-20)
(0.99297 -0.0879339 0)
(0.689976 0.0206219 -1.771e-24)
(1.01689 -0.00568545 0)
(0.68186 0.0205047 -1.12508e-20)
(1.00032 -0.00102209 -1.57355e-21)
(1.05097 -0.0159188 0)
(1.16908 0.0112855 -1.76776e-20)
(1.08634 0.013972 5.27262e-20)
(1.09224 0.0153518 0)
(1.14053 -0.0552984 -5.73511e-20)
(1.09441 -0.0162611 6.41958e-21)
(0.999594 -0.000763417 -5.01103e-21)
(0.999991 -0.000136684 -7.28823e-21)
(1.10858 -0.0159481 0)
(1.03494 -0.0312776 -3.69503e-21)
(0.999696 -0.000620254 -8.96895e-21)
(1.06277 0.00464124 0)
(1.21645 -0.106631 -8.5033e-20)
(1.00394 -0.00478033 -2.91692e-21)
(1.20516 -0.16481 7.29556e-20)
(1.28608 -0.334042 6.50624e-20)
(0.994814 0.0253617 9.18034e-21)
(1.13837 -0.0528381 3.62928e-20)
(0.303476 0.0179517 6.84443e-20)
(0.860616 -0.0843125 4.80055e-20)
(0.998711 -0.000490364 0)
(1.16304 -0.0540443 2.21323e-20)
(1.01012 -0.00907539 0)
(1.06523 -0.0228884 -2.14277e-21)
(0.851771 0.0286649 -1.00327e-20)
(0.695208 0.0196881 2.55381e-20)
(0.915066 0.03801 9.6971e-21)
(0.715685 0.0222881 0)
(1.02305 -0.0348603 0)
(1.01995 -0.0339912 -4.18762e-23)
(1.00848 -0.241193 -5.2848e-21)
(1.00451 -0.053833 -5.1932e-22)
(1.01833 -0.0162713 0)
(0.884019 -0.325197 9.78303e-20)
(1.09591 0.0168999 1.57274e-20)
(0.484336 0.00670684 0)
(1.08217 0.0245678 -4.30934e-20)
(1.08695 0.0139656 -3.53232e-20)
(0.9877 -0.00537376 2.27533e-21)
(1.01699 -0.0110552 0)
(1.28612 -0.188603 4.6847e-20)
(1.09725 0.00596361 4.12907e-20)
(1.05244 -0.0159136 1.78318e-20)
(0.999836 -0.000130672 -1.99392e-21)
(1.0915 0.0159237 -1.45904e-20)
(1.14616 -0.0144237 -7.21457e-22)
(0.499208 0.0291902 0)
(0.97712 -0.0178721 0)
(1.00075 -0.00283679 3.53075e-21)
(0.469734 0.00154751 -2.16403e-20)
(0.964877 -0.0151976 2.53742e-20)
(1.07948 -0.0211596 3.56569e-21)
(1.01029 -0.0071567 0)
(0.454566 0.0374134 0)
(1.00873 -0.000483088 2.60699e-22)
(-0.0676247 0.016461 0)
(0.995704 -0.00511633 1.09055e-20)
(1.17488 -0.118144 5.57626e-20)
(1.08283 -0.00918985 -1.76642e-20)
(0.987303 -0.24894 1.0511e-21)
(1.08098 -0.0332032 4.21777e-21)
(0.994362 -0.0214965 0)
(1.05586 -0.0244366 0)
(1.00279 -0.00345301 -7.02477e-23)
(1.0909 0.0244031 -8.26839e-21)
(0.967643 -0.0229463 0)
(0.560517 0.00835694 -7.64136e-21)
(1.03814 -0.0292961 -2.60473e-21)
(1.01413 0.0252077 -1.39995e-20)
(0.598492 0.0230445 0)
(1.07728 -0.0375786 -1.45337e-20)
(1.0033 -0.00249054 -1.26732e-21)
(-0.127793 -0.0015662 -6.30475e-20)
(0.854721 0.0268963 -4.92381e-21)
(1.06499 -0.026878 3.37493e-20)
(1.08591 0.014547 -3.58512e-20)
(0.98566 -0.0126418 0)
(0.510765 0.00404697 0)
(1.0268 -0.0181882 1.96598e-21)
(1.12301 0.0103302 0)
(0.999361 -0.0085175 5.3723e-21)
(1.00303 -0.00359748 1.42557e-21)
(0.992802 0.0267998 1.52492e-20)
(1.07952 -0.0172587 0)
(1.00039 -0.0060917 0)
(1.06518 0.00958069 6.80541e-21)
(0.529389 0.0261344 0)
(0.808763 -0.820793 1.3667e-20)
(0.815294 0.0340948 -2.71064e-20)
(1.0146 -0.0136401 -5.81473e-22)
(0.468796 0.0107779 -4.32511e-21)
(0.997948 -0.00754425 6.94463e-21)
(1.00378 -0.00451847 2.19639e-21)
(0.978266 -0.0202811 -8.85194e-21)
(1.01726 -0.00039203 0)
(0.999897 -0.00181692 -4.00145e-21)
(0.79804 0.0365007 2.13021e-20)
(0.840445 0.0287394 0)
(1.03693 -0.0182217 0)
(1.00075 -0.00068892 -3.26362e-21)
(1.08904 -0.0252256 1.8274e-20)
(1.01313 -0.0193786 -1.71377e-22)
(-0.0328896 -0.0049666 -5.58084e-20)
(1.16414 -0.0506885 -6.32777e-21)
(0.439772 0.00735434 -3.2237e-21)
(0.431982 0.0400669 -2.55756e-20)
(1.05554 -0.0251832 0)
(1.08716 0.0198909 0)
(0.999909 -0.00825338 4.96748e-21)
(1.08427 -0.00735894 -1.70399e-20)
(1.03782 -0.308285 4.13011e-21)
(1.03118 -0.00727828 7.87609e-21)
(1.00028 -0.00100382 4.39818e-22)
(1.2861 -0.178827 0)
(0.169337 0.0112856 -2.19208e-20)
(1.09264 0.00230758 0)
(-0.0824037 0.00319368 4.9674e-20)
(1.08629 0.00760367 0)
(0.996494 -0.00273232 0)
(1.09204 -0.0319848 -2.29022e-20)
(1.08592 0.0149158 3.34737e-20)
(0.0369813 0.0110098 -7.63216e-21)
(1.07549 -0.0111261 0)
(1.05822 0.024151 -1.25707e-21)
(1.0982 0.00602499 -5.62443e-20)
(1.00017 -0.00191616 6.23079e-21)
(0.80293 -0.116943 0)
(0.705978 -0.0863214 0)
(0.509873 0.00556481 1.21e-20)
(1.15912 0.0150277 4.66318e-21)
(0.944567 0.0284585 -1.43106e-20)
(0.984193 -0.0603473 3.29146e-21)
(0.774323 -0.347986 4.63041e-20)
(0.976829 -0.00369013 -8.54357e-21)
(1.10398 0.020042 -3.93382e-20)
(1.04663 -0.0655633 1.13107e-20)
(1.00664 -0.00138942 -4.03243e-22)
(0.793721 0.0354283 -3.12157e-20)
(1.01713 -0.0512659 8.84378e-22)
(1.00324 -0.00229121 0)
(1.01087 -0.0336929 2.52417e-21)
(1.01593 -0.0499322 -1.42661e-21)
(0.42347 0.0359527 0)
(1.11934 0.0116403 2.21722e-20)
(1.00993 -0.0125547 -3.24727e-22)
(1.093 -0.0302668 0)
(0.414654 0.00496993 4.47893e-20)
(1.03088 -0.046433 0)
(-0.0875843 0.00606078 7.28852e-20)
(0.964868 -0.03746 0)
(1.08796 0.0114731 1.9518e-20)
(0.518901 0.0330894 0)
(1.00105 -0.00584363 0)
(1.09296 0.0243022 2.06647e-21)
(1.05549 -0.0762755 4.98351e-21)
(1.07938 -0.0380546 0)
(0.743402 -0.861142 0)
(1.01903 -0.0506347 0)
(1.17664 -0.0233622 3.82278e-20)
(1.07771 0.0196325 -1.58811e-20)
(0.562798 0.028498 0)
(1.0386 -0.00621981 8.01918e-21)
(0.535106 0.00605316 -2.3926e-21)
(1.07475 -0.024384 -6.03467e-21)
(0.427665 0.0103965 1.91778e-20)
(0.100296 0.0102897 -9.83544e-20)
(0.516991 0.00424945 2.32222e-20)
(1.08084 0.00308662 0)
(0.99188 -0.0202029 0)
(1.02257 -0.0358033 0)
(0.999973 -0.000961863 0)
(1.06819 0.0163411 1.41046e-20)
(0.997478 -0.00249402 6.93724e-21)
(0.530029 0.0227674 1.56739e-20)
(1.02819 -0.0927742 3.03774e-21)
(0.938801 -0.0769953 0)
(0.905378 -0.0483917 4.89679e-20)
(0.985838 -0.0591359 0)
(1.01426 -0.0131678 0)
(1.05633 0.00810624 0)
(1.05197 -0.0658006 -6.58468e-21)
(1.0512 -0.0110626 0)
(1.03753 -0.0762412 2.17297e-21)
(0.703631 0.0420502 0)
(1.09138 0.0248351 0)
(1.07291 -0.0190574 -1.17438e-20)
(1.09864 -0.107633 0)
(0.812682 0.0345079 1.55592e-20)
(0.976254 -0.0360029 1.50181e-20)
(0.220486 0.0358037 -2.48784e-20)
(1.01638 -0.00562532 1.87584e-21)
(1.03185 -0.112177 0)
(0.966104 -0.0218609 1.47369e-20)
(1.01904 -0.0234703 1.58968e-21)
(1.07417 -0.124913 3.38229e-20)
(1.00002 -0.00930275 2.8372e-21)