/*--------------------------------*- C++ -*----------------------------------*\
| =========                 |                                                 |
| \\      /  F ield         | OpenFOAM: The Open Source CFD Toolbox           |
|  \\    /   O peration     | Version:  v2012                                 |
|   \\  /    A nd           | Website:  www.openfoam.com                      |
|    \\/     M anipulation  |                                                 |
\*---------------------------------------------------------------------------*/
FoamFile
{
    version     2.0;
    format      ascii;
    class       volVectorField;
    location    "50";
    object      U_0;
}
// * * * * * * * * * * * * * * * * * * * * * * * * * * * * * * * * * * * * * //

dimensions      [0 1 -1 0 0 0 0];


internalField   nonuniform List<vector> 
13851
(
(1.0975 0.0126142 -5.70339e-21)
(1.05619 -0.0214586 0)
(1.05511 -0.0207188 0)
(-0.0716812 0.00976875 0)
(1.00173 -0.00041265 2.53076e-22)
(1.06307 -0.0312613 -1.48777e-20)
(1.05007 0.00538825 -2.36961e-20)
(1.0118 -0.000745504 0)
(0.572501 0.0175177 -3.00428e-20)
(0.99261 -0.00666319 1.04344e-20)
(1.12269 -0.0632052 0)
(1.00103 -0.00706492 1.90336e-21)
(0.983948 -0.0166813 3.6934e-21)
(0.430519 0.0048288 2.17157e-20)
(1.07813 -0.00210653 1.5256e-20)
(1.08616 0.0240984 0)
(-0.0368077 0.00944392 0)
(1.02888 -0.0169504 1.03389e-22)
(1.12269 0.0136496 0)
(1.09783 0.0120204 1.56541e-20)
(1.08429 -0.00603457 1.59519e-20)
(1.03391 -0.0728456 5.5693e-21)
(0.904881 -0.307509 9.83879e-20)
(1.00006 -0.000179014 0)
(1.16503 0.011345 1.83691e-20)
(1.07915 0.0197301 -2.63777e-20)
(1.09679 0.0214502 -2.15061e-20)
(1.098 0.0233119 2.29977e-20)
(0.640992 0.0181534 5.89155e-21)
(1.01718 -0.0106631 0)
(0.245161 0.0315906 -1.12075e-19)
(1.05009 0.00487288 7.59861e-21)
(1.09506 0.0135117 -2.53911e-21)
(0.654518 0.0279591 5.70278e-22)
(1.09929 -0.0584547 -7.74026e-21)
(0.659067 0.0189041 0)
(1.00004 -0.000160356 0)
(1.22999 -0.0500143 -9.15967e-21)
(0.431024 0.0438803 8.0761e-20)
(1.00563 -0.0320049 6.14949e-21)
(0.561692 0.0295963 2.63643e-20)
(0.665795 0.0194169 -5.84947e-21)
(-0.150066 -0.00176066 0)
(1.18514 -0.41134 0)
(0.67977 0.0211264 0)
(1.01205 -0.0191129 -4.30249e-22)
(1.01763 -0.000216244 -3.29179e-21)
(1.08734 0.0210032 -6.84552e-23)
(1.03724 -0.0457807 -8.6785e-21)
(0.98365 -0.0158778 0)
(0.195317 0.00957722 -6.70935e-20)
(0.977811 -0.011125 7.33215e-21)
(1.08608 0.0237822 0)
(1.06434 0.00974075 1.06066e-20)
(0.455548 0.00572418 -3.43576e-20)
(1.00478 -0.032243 -5.66044e-21)
(1.09567 0.0136682 0)
(0.538191 0.0277615 -3.44395e-20)
(1.09002 0.0232465 0)
(0.36569 0.00568401 1.0071e-20)
(1.00094 -0.00666328 -5.37e-21)
(1.09635 0.0210994 3.5772e-20)
(0.99623 -0.00247825 0)
(1.03768 -0.0474915 -6.05227e-21)
(0.935777 -0.422168 -7.59859e-24)
(0.92031 -0.446374 9.13961e-24)
(0.343776 0.00316621 6.59991e-21)
(0.723439 -0.120381 7.93724e-20)
(1.01686 -0.0328119 -1.30185e-22)
(0.0416537 0.0179693 1.25652e-19)
(0.14578 0.0359321 -1.16724e-19)
(1.08967 -0.0044466 2.37939e-22)
(0.994929 -0.0223151 -4.11802e-21)
(0.360117 0.00463764 0)
(1.06829 0.0066918 1.19864e-20)
(1.01838 -0.0603392 0)
(-0.0124033 0.0126006 -5.82557e-20)
(1.01819 -0.00583077 -2.06044e-21)
(1.17217 0.00956269 1.64298e-20)
(1.00406 -0.0150229 7.6069e-21)
(1.01786 -0.0332769 0)
(1.18497 -0.0284115 -6.7938e-20)
(1.09734 -0.0599934 0)
(0.42599 0.0056003 -3.50485e-20)
(0.376037 0.00666691 -5.06883e-21)
(0.21009 0.0342355 0)
(1.03659 -0.0735221 -6.15283e-21)
(0.503796 0.0045299 1.31849e-22)
(0.993181 -0.010117 3.7622e-22)
(0.250771 0.032806 0)
(0.976745 -0.0104729 3.7936e-21)
(1.05099 0.00450602 3.04209e-20)
(0.079101 0.0052888 9.17428e-20)
(0.145976 0.0322885 1.25445e-19)
(0.382011 0.032897 5.77529e-20)
(1.14838 -0.373913 -8.91327e-20)
(1.00804 -0.0203673 4.3094e-21)
(1.08695 0.0224872 0)
(0.266619 0.00813278 3.54874e-21)
(1.18704 -0.113715 6.15069e-20)
(1.08743 0.0222799 0)
(0.835464 -0.109116 -3.27875e-20)
(0.837534 -0.140208 -1.74367e-20)
(0.99154 -0.0238618 0)
(1.01498 -0.0188961 0)
(1.09256 -0.0121092 1.15888e-20)
(1.01439 -0.0186859 2.03866e-22)
(0.175568 0.0359951 1.2435e-19)
(1.05095 0.00391163 -1.6727e-20)
(1.02815 -0.0164826 2.02147e-21)
(1.02795 -0.105062 1.4895e-21)
(1.01268 -0.0194445 0)
(1.13512 -0.00714819 0)
(1.11305 -0.0303214 0)
(1.09204 0.0158209 1.1413e-20)
(1.06363 0.00902416 -2.61164e-20)
(1.01209 -0.00711828 8.96362e-22)
(1.01217 -0.000870515 1.52429e-21)
(-0.118051 0.00895653 -1.81882e-20)
(0.121881 0.0127011 4.17286e-20)
(1.151 -0.287168 7.32202e-20)
(1.02362 -0.0139788 -4.85907e-22)
(1.01296 -0.0333927 -7.61623e-22)
(0.45822 0.014849 4.54992e-21)
(1.11178 0.0139092 -6.77711e-23)
(0.648989 -0.204342 0)
(1.00846 -0.0201287 -5.45006e-21)
(1.11121 -0.105132 0)
(0.561108 0.0250314 2.88885e-20)
(1.08459 -0.000127892 -2.68305e-21)
(1.03144 -0.0746235 -6.07793e-22)
(1.07586 -0.0490975 0)
(1.24461 -0.0560517 7.52202e-20)
(0.64242 0.0269337 2.27553e-20)
(1.12491 -0.0605011 0)
(0.370291 0.0366738 2.45568e-20)
(0.735984 -0.112284 5.87478e-20)
(0.186821 0.0339065 1.66464e-20)
(0.869024 -0.0812176 2.2049e-20)
(1.08264 0.00185397 1.85913e-20)
(1.18385 -0.0313212 6.1462e-20)
(0.979511 -0.0378141 0)
(0.992598 -0.0102166 0)
(0.785202 -0.30069 -1.80596e-20)
(1.14012 0.0198785 2.26196e-21)
(1.00739 -0.0596559 0)
(1.01803 -0.00547048 4.96122e-22)
(0.158797 0.0319676 -6.34513e-20)
(0.552067 0.0133155 -1.2957e-20)
(1.11567 -0.105748 0)
(1.08759 0.0219576 0)
(1.13536 -0.00879547 -4.60631e-21)
(1.11519 -0.0292075 -2.4523e-20)
(1.11769 0.0113541 -3.89549e-20)
(0.977017 -0.0195254 0)
(0.986338 -0.00763305 0)
(1.00105 -0.00557633 -4.91822e-21)
(0.387935 0.0407598 -8.01394e-20)
(1.0813 0.000252438 0)
(1.05086 -0.00271561 -1.05156e-20)
(1.00012 -0.000411954 5.26421e-21)
(0.647998 0.018059 0)
(1.09105 -0.011691 0)
(1.08747 0.0206926 -2.983e-20)
(0.433499 0.0050606 -2.04777e-20)
(0.630096 0.0217263 6.03163e-21)
(0.638581 0.0220288 0)
(0.206646 0.0118263 9.19627e-20)
(1.02798 -0.100979 -7.64373e-21)
(0.908773 0.0360208 0)
(1.0007 -0.00612813 -3.56706e-21)
(1.01204 -0.00677697 6.66859e-22)
(1.10053 -0.0132645 0)
(1.00089 -0.000368845 0)
(0.412818 0.0370981 -5.30071e-20)
(1.10071 0.0197061 -3.28772e-20)
(1.08938 0.0203563 -6.38048e-21)
(1.01254 -0.00675462 0)
(1.06748 0.00794045 0)
(1.08895 0.0203999 0)
(1.11057 0.0134798 -1.05158e-20)
(1.18025 -0.390051 3.83974e-20)
(1.03165 -0.0947234 -3.05031e-21)
(1.08356 0.000165081 0)
(-0.0900363 0.000668911 -4.17373e-20)
(0.557656 0.0130536 1.36468e-22)
(1.09481 0.0141335 -1.17592e-20)
(0.905528 -0.0594775 -1.47235e-20)
(0.980794 -0.0201155 7.59623e-21)
(1.01568 -0.0142416 -4.52222e-22)
(1.1531 0.0171132 3.37577e-20)
(1.08157 -0.000396708 0)
(0.410687 0.00173144 -1.1039e-20)
(1.06402 -0.0298351 1.53415e-20)
(1.00874 -0.0578547 2.68248e-21)
(1.08654 0.0231293 0)
(1.09417 0.0139741 0)
(1.03745 -0.0110151 -3.62026e-21)
(1.03327 -0.0235415 -5.51904e-21)
(0.740686 -0.154174 0)
(1.18838 -0.0379241 3.2251e-20)
(0.442828 0.0323444 -1.9707e-20)
(0.529734 0.0305632 0)
(1.07731 -0.00148735 -2.87935e-20)
(1.03709 -0.692204 -8.44999e-20)
(0.412571 0.0303253 0)
(0.947006 -0.0185082 0)
(1.07968 0.00619067 -2.15099e-20)
(0.571757 0.0184464 -1.37442e-20)
(1.05932 -0.0366547 0)
(1.08581 0.0247963 -3.59503e-22)
(1.01241 -0.0327333 -1.15185e-21)
(1.18961 -0.034433 -9.42155e-21)
(1.00009 -0.00174442 -3.02597e-22)
(1.10063 -0.0532004 -1.78755e-21)
(1.02173 -0.0662869 1.88259e-21)
(0.984712 -0.0149276 -5.78562e-21)
(1.10149 0.0156095 0)
(1.03654 -0.0174095 -6.25421e-21)
(0.161592 -0.586059 -8.64538e-20)
(1.01257 -0.00640187 -6.09156e-22)
(1.0991 0.0114381 0)
(0.408576 0.00283654 3.55588e-20)
(0.388412 0.036404 3.19625e-20)
(0.91662 -0.0675072 0)
(1.07979 0.00669999 1.70435e-20)
(1.00002 -0.000884516 0)
(0.786361 -0.278853 1.82273e-20)
(1.00133 -0.0111696 0)
(1.09858 -0.0545793 0)
(0.307486 -0.0304833 -4.34768e-20)
(0.910658 -0.0599506 -2.44704e-20)
(1.05913 -0.0351614 0)
(0.996883 -0.000769288 8.53003e-22)
(0.518592 0.0294759 3.05671e-22)
(1.01774 -0.0105234 2.03887e-21)
(1.08789 -0.384726 0)
(0.515492 0.0296535 -3.19152e-20)
(1.17969 -0.112527 0)
(1.00008 -0.000394139 -6.10753e-21)
(1.29095 -0.200291 0)
(0.382696 0.00727078 -3.87808e-20)
(0.698395 0.0222251 0)
(1.08569 0.0245022 0)
(1.0785 -0.0157175 0)
(0.751607 -0.336007 -4.29141e-20)
(1.10115 0.0149413 1.83818e-20)
(1.06748 0.00878929 0)
(1.14467 -0.353732 0)
(1.04366 -0.104404 7.88473e-21)
(0.469801 0.00442086 0)
(1.10805 0.00661589 -5.16743e-20)
(1.00886 -0.000784109 -1.78088e-24)
(1.06337 -0.015715 0)
(1.087 0.0228836 -1.53613e-21)
(0.639346 0.0175674 0)
(0.542994 0.00750649 8.82675e-21)
(1.0153 -0.0136476 5.9452e-22)
(0.624556 -0.200871 0)
(0.993914 -0.010817 1.97258e-20)
(1.09618 0.0164968 -4.43814e-20)
(1.11353 0.0127444 -2.02622e-21)
(1.06461 -0.0153675 0)
(1.09114 -0.00999071 -5.23569e-20)
(1.1093 0.00681541 5.30522e-20)
(0.999678 -0.0207379 -1.34504e-20)
(0.831461 -0.118635 3.82598e-20)
(1.08672 0.0194818 0)
(1.10581 0.0212728 -9.44008e-21)
(0.998138 -0.00712074 0)
(0.984616 -0.0140971 -7.32727e-22)
(0.911636 -0.066328 1.63589e-20)
(0.640302 0.0238148 0)
(-0.203918 0.00872408 0)
(1.08632 -0.00365631 2.39825e-20)
(1.02442 -0.0144054 2.58017e-21)
(1.10987 0.0143003 2.41536e-21)
(1.1155 0.0120908 5.70594e-20)
(1.0921 0.0142195 -3.02343e-20)
(1.09005 -0.00958912 4.33891e-20)
(0.620803 0.022414 0)
(0.296134 0.00677168 -1.32652e-20)
(1.0666 -0.0208164 0)
(1.07493 -0.00293035 -4.68824e-20)
(1.22905 -0.0752274 0)
(1.01665 -0.018223 6.2933e-22)
(1.00115 -0.00528592 -2.52445e-21)
(1.09277 0.0142293 -6.61155e-21)
(1.11604 -0.0763065 3.74583e-20)
(1.01886 -0.0107243 5.03359e-21)
(1.0001 -0.00171813 -4.67179e-21)
(1.00114 -0.0114966 0)
(1.00364 -0.000592534 -2.37739e-23)
(1.07683 -0.0105639 -6.77663e-20)
(1.00119 -0.00564943 7.38915e-21)
(0.58201 0.018496 1.49423e-20)
(1.08534 -0.00538444 0)
(1.00959 -0.0270886 -2.15596e-21)
(0.642954 0.0168844 0)
(0.448047 0.0140878 0)
(0.97886 -0.0156458 0)
(1.09878 0.0120798 -1.26722e-20)
(0.231712 0.0085501 7.8885e-21)
(0.978617 -0.0398481 0)
(0.977684 -0.0150978 0)
(1.08661 -0.00570523 0)
(0.40532 0.00491533 -2.54487e-21)
(0.685732 0.0344253 -4.09444e-20)
(1.10031 -0.00713617 3.33857e-20)
(1.00189 -0.0005401 -1.02159e-21)
(0.927319 0.0350152 0)
(1.00079 -0.0065246 0)
(1.10316 -0.00694381 3.3154e-20)
(0.242443 0.0108096 0)
(1.10544 0.0209191 4.86396e-20)
(1.04992 -0.00291235 7.76757e-21)
(1.2542 -0.08815 -1.21313e-21)
(1.25157 -0.0674188 0)
(0.234954 0.0369955 -9.43244e-20)
(1.13807 -0.0119459 0)
(0.80622 -0.09024 -3.95039e-20)
(0.418661 0.0389776 4.96589e-22)
(0.492258 0.0191766 -9.95024e-23)
(1.10526 0.0226212 -2.46972e-20)
(1.03429 -0.0241404 5.9121e-21)
(-0.0374285 0.0201633 -7.68657e-20)
(0.319842 0.000976572 -4.58672e-22)
(0.504629 -0.488863 -9.38701e-20)
(0.542078 -0.484551 8.47139e-20)
(0.945641 -0.019545 9.95592e-21)
(1.10213 -0.0106476 -4.01062e-20)
(0.959605 -0.101555 0)
(0.509621 0.00562296 3.16938e-20)
(0.813609 -0.134962 3.71435e-20)
(1.00679 -0.00172286 5.68761e-22)
(1.01739 -0.000303367 3.5068e-21)
(1.05661 -0.0626012 -1.58953e-20)
(0.188395 0.0323793 1.28315e-19)
(0.230432 -0.589383 7.46986e-20)
(1.01666 -0.0175691 -1.49039e-21)
(0.372632 0.0345273 -5.79927e-20)
(0.950008 -0.100057 -1.48543e-20)
(1.07669 -0.051111 -7.53956e-21)
(1.05115 -0.00213682 1.13935e-20)
(0.396128 0.00364577 -1.52831e-21)
(1.10889 0.0139738 0)
(1.08658 0.0234774 0)
(1.01974 -0.0646531 4.11378e-22)
(1.05728 -0.0346391 1.84122e-20)
(0.682041 0.0195619 0)
(0.98072 -0.0214995 -2.37439e-20)
(1.11704 0.0123321 -2.01435e-20)
(1.06565 -0.0199826 0)
(1.08724 -0.00642007 0)
(0.945133 -0.102263 0)
(0.993362 -0.0108054 -1.34736e-20)
(1.01021 -0.0267457 2.13746e-21)
(1.15966 -0.0395554 0)
(1.19147 -0.108036 2.13632e-21)
(1.10646 0.00764763 -5.56766e-20)
(1.25338 -0.0638831 1.29046e-21)
(0.689176 0.0200037 6.03577e-21)
(1.00851 -0.0607882 0)
(0.501269 0.0286924 1.70631e-20)
(1.09778 0.0172804 -1.14063e-20)
(1.02319 -0.00793887 -2.55768e-22)
(1.09818 0.0217566 -4.08135e-20)
(1.09642 0.00713006 1.02974e-20)
(0.277238 0.00960288 -2.56144e-20)
(1.05492 -0.0609223 0)
(1.07851 0.0228159 0)
(1.09429 0.0227871 0)
(1.21076 -0.016787 5.5394e-20)
(1.16056 -0.0468749 8.24771e-23)
(0.504956 0.00400448 4.31948e-21)
(1.037 -0.0323719 -5.08864e-21)
(1.10129 0.0200327 3.92353e-20)
(-0.171701 0.00506012 0)
(1.07552 -0.0228719 3.10404e-20)
(0.487302 0.00568964 4.25578e-20)
(1.07997 -0.0239872 -1.45922e-20)
(0.53914 0.031519 -3.09296e-20)
(1.07428 -0.00347394 2.83612e-20)
(1.06895 0.0168504 1.5739e-20)
(1.11092 0.00500537 0)
(1.20245 -0.0836898 0)
(0.986396 -0.00839927 0)
(1.06478 -0.0241701 9.57714e-21)
(1.11972 -0.0776398 3.26473e-21)
(1.06834 0.0075192 0)
(1.01064 -0.0208331 0)
(1.08633 -0.00268599 -2.52382e-20)
(0.809175 0.031138 7.66851e-22)
(0.995585 -0.0222577 -9.94263e-21)
(1.08022 0.00532988 0)
(-0.175025 0.0021841 2.37689e-19)
(1.0523 -0.0328867 -9.36748e-21)
(1.27747 -0.349419 -8.43002e-20)
(1.07447 0.0130825 -2.31129e-21)
(0.741192 0.0325248 0)
(1.06112 -0.0376331 1.5803e-20)
(1.07845 0.0193831 0)
(1.02571 -0.66851 1.083e-19)
(1.11301 0.0133565 8.7131e-21)
(1.09299 -0.0148944 1.12535e-20)
(0.528777 0.00590308 3.37861e-23)
(0.365979 0.00467935 4.80982e-20)
(1.28232 -0.206015 0)
(0.999038 -0.0208025 -5.5047e-21)
(1.156 -0.0383581 0)
(1.08113 -0.0280807 -3.27025e-20)
(1.07851 0.0220394 0)
(1.02241 -0.0152586 -5.97664e-21)
(-0.120319 0.00368211 1.23837e-21)
(0.795678 0.032092 -1.36242e-20)
(1.19013 -0.00185599 -9.7394e-20)
(1.05696 -0.0332272 -1.75481e-20)
(1.11057 0.00584197 0)
(1.09744 0.0206264 -4.14951e-20)
(-0.181517 0.00952478 0)
(1.02084 -0.00352519 3.34192e-21)
(-0.0823687 0.0168135 -8.58956e-20)
(1.20313 -0.0709175 9.03957e-21)
(0.639214 -0.256552 1.59927e-21)
(1.04747 -0.106092 -9.92168e-21)
(1.11613 0.0230549 -4.74973e-20)
(0.989585 -0.0143976 1.21084e-20)
(1.00105 -0.000321173 -1.24619e-21)
(0.444527 0.00503199 3.99849e-20)
(1.09805 0.0203233 3.39971e-20)
(0.992039 -0.00711608 -6.01806e-21)
(1.05608 -0.0224962 4.03362e-21)
(1.08114 0.00525101 -5.71934e-21)
(1.0106 -0.00756854 3.1891e-22)
(0.835688 0.0318919 0)
(1.10194 -0.00936906 8.68804e-21)
(1.09652 0.0066056 0)
(1.0607 -0.00557504 7.23471e-21)
(1.03752 -0.0314935 0)
(0.976464 -0.00604235 0)
(1.21815 -0.0216216 0)
(1.00864 -0.0264773 0)
(0.977364 -0.00515531 0)
(0.898556 0.0272756 8.59301e-21)
(0.82879 0.0298089 0)
(1.02878 -0.0729491 0)
(1.09355 0.0223377 1.57838e-20)
(0.996399 -0.00201702 -9.51394e-22)
(1.00129 -0.00535392 -2.42286e-21)
(1.05397 -0.0335167 2.80474e-20)
(1.1075 0.00782137 5.93114e-20)
(1.07293 0.0148467 -2.13038e-20)
(1.01054 -0.0220327 0)
(1.04443 -0.0260786 1.02036e-20)
(1.1482 -0.275789 3.65072e-20)
(1.05051 -0.0169938 -1.33738e-20)
(0.781803 0.024597 0)
(1.00117 -0.00660898 -2.64158e-21)
(1.06203 0.00211433 1.55105e-20)
(0.684723 0.0215344 1.10286e-20)
(0.955565 -0.140209 0)
(1.01643 -0.000813562 -8.07548e-22)
(1.00034 -0.0056572 -4.03096e-21)
(1.06031 -0.0062309 -3.6567e-21)
(1.03973 -0.0103666 0)
(1.28016 -0.259653 3.59525e-20)
(0.854231 0.0272414 -9.76128e-21)
(1.07913 -0.014789 3.66856e-21)
(0.367787 -1.13355 0)
(1.05515 -0.0325013 -1.46962e-20)
(1.00019 -0.0089899 -4.74167e-21)
(0.575287 0.0228226 -1.50319e-20)
(1.09475 0.0225343 1.61397e-20)
(0.897834 -0.111382 0)
(0.996592 -0.0255032 0)
(0.480894 0.0177859 2.10975e-20)
(0.877959 -0.0858742 4.08435e-20)
(1.2004 -0.521717 -1.88657e-20)
(0.990999 -0.0231502 -9.83198e-21)
(1.07731 -0.0453318 0)
(1.1618 -0.0440535 0)
(1.07186 0.00505664 0)
(0.518611 0.021795 1.33113e-20)
(1.09739 0.0208265 3.81496e-20)
(1.19956 -0.00548281 9.29472e-20)
(0.981712 -0.0598264 0)
(1.13773 -0.0100038 3.69872e-22)
(1.00063 -0.0218007 4.36888e-21)
(0.63235 0.0177734 0)
(1.0745 0.012566 8.21108e-21)
(1.09379 0.0142308 0)
(1.08005 -0.0269103 2.64194e-20)
(1.02001 -0.0620652 8.33272e-22)
(0.961182 -0.137201 0)
(1.10059 -0.0115845 8.05182e-21)
(1.00152 -0.000488852 0)
(-0.177342 0.00985621 0)
(0.554818 0.0213944 0)
(0.816165 0.0207667 3.57572e-20)
(-0.174656 -0.00313447 -2.08494e-20)
(0.86568 0.0276405 8.57659e-21)
(0.115486 0.0235523 -2.08262e-20)
(1.11499 0.0129352 -4.24534e-20)
(0.926804 -0.0702341 0)
(0.999721 -0.00230722 -8.24171e-21)
(1.26078 -0.350022 -5.16029e-20)
(0.992637 -0.00606491 -8.10363e-21)
(1.01038 -0.0202721 8.6586e-23)
(0.922239 -0.085395 1.34349e-20)
(0.436323 0.0378808 3.1659e-20)
(1.05462 -0.0166456 -1.96176e-20)
(0.975639 -0.0339119 -7.6198e-23)
(1.09487 -0.22514 -1.36411e-21)
(1.09842 -0.0266461 0)
(0.990943 -0.00220732 8.99371e-22)
(0.972153 0.0354028 3.16244e-20)
(1.00696 -0.0195417 -3.45901e-21)
(0.589761 0.0258043 -1.40665e-20)
(1.27327 -0.247673 -1.28171e-19)
(1.00441 -0.0155194 0)
(1.05138 -0.0102134 -1.59565e-20)
(1.19557 -0.0528916 -3.82341e-20)
(1.09899 0.0220243 -5.23889e-21)
(1.01834 -0.0109381 2.74232e-22)
(1.17296 -0.0252836 0)
(1.19673 -0.311912 9.26305e-20)
(1.02692 -0.00384595 0)
(0.331267 0.0424431 1.86661e-20)
(1.12054 0.0131874 -2.50874e-21)
(1.10034 0.010746 0)
(0.980383 -0.0584253 1.26142e-20)
(0.909892 0.0271337 -3.52186e-20)
(0.335614 0.00812187 1.67058e-20)
(1.02746 -0.00405047 -3.75151e-21)
(1.14157 0.00380764 6.26918e-20)
(1.01491 -0.0330553 -7.22596e-22)
(1.00734 -0.0200091 1.70546e-21)
(0.938504 0.0286209 2.1182e-21)
(0.544228 0.0328085 3.66942e-20)
(1.08843 -0.0269615 0)
(1.07222 0.0150516 1.79431e-20)
(0.992092 -0.0049984 -1.06374e-20)
(1.07889 0.0151976 0)
(0.582246 0.0258993 -9.11415e-23)
(0.389726 0.0388042 5.4978e-20)
(1.02984 -0.00681203 9.65517e-22)
(0.0160385 0.017812 0)
(1.01023 -0.0215127 0)
(1.01593 -0.0336326 1.45217e-22)
(1.09339 -0.0138277 1.51335e-21)
(1.06033 0.00577127 0)
(1.02107 -0.00330102 1.81946e-21)
(1.01609 -0.0605693 -5.10346e-22)
(0.35381 0.0416721 0)
(1.19669 -0.0827147 -3.70059e-20)
(0.310846 0.0410732 0)
(1.05309 -0.0168901 -1.49458e-20)
(0.994097 -0.0114142 -1.19662e-22)
(0.652535 0.0231711 -6.01389e-21)
(0.999539 -0.00327864 0)
(1.15366 -0.0328974 0)
(1.06379 -0.00206368 2.22572e-20)
(1.06912 0.00531071 -2.6436e-20)
(1.07904 -0.0183094 6.53951e-21)
(0.746187 0.0242403 0)
(0.306401 0.00850631 0)
(1.06338 -0.0269594 -1.59043e-20)
(-0.108522 0.0120699 0)
(1.04889 -0.00429761 3.70105e-21)
(1.10675 -0.0167471 0)
(0.67287 0.020166 1.75064e-20)
(0.477475 0.00814761 1.01678e-21)
(1.00984 -0.033679 -2.36367e-21)
(1.00002 -0.0217268 5.39977e-21)
(0.844816 -0.148165 0)
(0.328215 0.0410435 0)
(1.091 0.0241549 -4.59245e-20)
(1.07828 0.0153262 0)
(1.16118 -0.476754 1.78684e-20)
(1.06046 0.00628806 0)
(1.07309 -0.00289121 0)
(0.470369 -0.0512982 -7.96099e-20)
(0.948648 0.0341982 4.47653e-20)
(1.12174 -0.275235 -3.82253e-20)
(0.577116 0.0249017 0)
(1.09284 0.0182352 -7.529e-21)
(0.696251 0.0208108 -1.6091e-20)
(1.03375 -0.031357 7.52488e-23)
(1.08585 0.0238373 0)
(1.12924 0.0208642 0)
(0.999889 -0.00779097 4.67089e-21)
(0.115222 0.00595344 -4.47777e-20)
(0.786826 0.0437234 1.78496e-20)
(1.03194 -0.0990658 6.72847e-21)
(1.08353 0.00133004 -1.92477e-20)
(1.00203 -0.0298926 2.69788e-22)
(0.522614 -0.875597 3.33979e-21)
(1.13064 -0.128874 0)
(0.953433 -0.179397 1.70073e-19)
(1.0081 -0.0269066 -2.88401e-21)
(1.00062 -0.000425131 0)
(0.923764 -0.0417965 0)
(1.09791 -0.0282844 7.52519e-21)
(1.00122 -0.00635932 0)
(0.40418 0.0360287 -5.39724e-20)
(1.00072 -0.000506118 1.86708e-21)
(1.09293 0.0179951 0)
(0.975872 -0.0573402 4.20483e-22)
(1.07918 0.0218615 -6.84456e-21)
(0.992311 -0.0235292 -1.02405e-20)
(0.990333 -0.00230991 -1.03142e-20)
(1.0853 -0.119458 0)
(0.0203057 0.0151619 1.34091e-19)
(1.09408 -0.0175602 -4.60547e-20)
(0.355473 0.0353977 6.74267e-21)
(1.07777 -0.0473571 3.82935e-21)
(1.01076 -0.00842697 1.98964e-22)
(1.02544 -0.0100255 4.16501e-21)
(1.10202 -0.0140104 -2.06308e-21)
(1.04358 -0.0267725 1.65713e-21)
(1.1256 -0.0180164 6.08416e-20)
(1.05753 -0.0182159 -1.12363e-20)
(0.897313 -0.104348 0)
(1.08993 0.0235926 0)
(0.999444 -0.00304898 4.4567e-21)
(0.541693 0.00225669 0)
(1.00005 -0.00119326 4.81686e-21)
(1.08203 0.0241739 3.89981e-20)
(-0.0940516 0.0143682 0)
(0.666325 0.02168 0)
(0.898077 -0.0250133 2.61406e-20)
(1.0851 -0.231212 -1.48621e-19)
(1.08465 -0.226773 -4.83006e-20)
(1.21007 -0.149242 -3.79687e-20)
(0.764766 0.0444231 0)
(1.0317 -0.00780339 -1.97572e-21)
(0.920195 0.0367208 1.30709e-20)
(0.955111 -0.103799 0)
(1.07714 -0.0228545 -6.8596e-21)
(-0.123654 -0.0047377 1.43965e-19)
(1.15981 0.0129814 -4.02034e-21)
(1.02352 -0.00833019 -2.97607e-21)
(1.12519 -0.0194352 -5.72024e-20)
(1.03697 -0.0103751 -3.67402e-21)
(0.673177 0.0191749 3.26254e-21)
(0.159816 0.0113066 -2.08658e-20)
(1.02006 -0.0346536 4.1613e-23)
(0.72274 -0.144878 -8.19463e-20)
(0.840525 0.0332124 2.64066e-20)
(0.999987 -0.000996593 -6.907e-21)
(0.999982 -0.00133278 -5.11758e-21)
(1.0792 0.0202047 3.2905e-20)
(0.524709 0.000640152 5.85103e-21)
(0.956949 0.0275861 -2.32308e-20)
(0.977847 -0.0139125 3.24762e-21)
(1.11299 0.00376962 3.46446e-21)
(1.04922 -0.0168888 6.47923e-21)
(0.989401 -0.00316136 0)
(1.08607 0.0240965 4.47515e-21)
(1.11248 0.00476006 0)
(1.18213 -0.0998898 2.70493e-20)
(1.01977 -0.0029858 0)
(1.08693 0.0190958 2.51111e-20)
(0.931712 -0.18623 0)
(1.07709 0.0191382 5.89258e-21)
(0.963938 -0.0163957 -3.08426e-20)
(1.00754 -0.0557963 4.93961e-22)
(1.12469 -0.130659 0)
(0.927477 -0.0426638 0)
(1.08703 0.020277 -1.0403e-20)
(1.08849 -0.00386202 2.16327e-20)
(1.08985 -0.00554846 2.84415e-22)
(1.10773 -0.266314 5.50343e-20)
(1.20477 -0.536771 -6.82368e-20)
(1.12312 0.0127057 -2.70274e-22)
(0.828443 0.0274746 -7.64189e-23)
(1.19773 -0.0273472 0)
(1.08738 0.0217547 0)
(0.455614 0.00939812 1.96136e-20)
(1.03077 -0.144005 -1.02448e-20)
(0.920599 0.0282373 0)
(1.10001 0.011453 0)
(1.02611 -0.0176419 0)
(1.07229 -0.00348362 -1.33541e-20)
(1.12183 0.011062 -6.12197e-20)
(1.04771 -0.0680323 -1.26047e-20)
(1.00412 -0.0144759 5.77848e-23)
(1.00453 -0.0137197 -3.20295e-21)
(1.08252 0.0232618 1.7327e-20)
(0.498167 0.00174915 1.43518e-20)
(1.06295 0.00183451 -1.63065e-20)
(0.488163 0.0281146 1.74754e-20)
(1.01059 -0.00873009 1.48577e-22)
(0.938319 0.0275808 4.74262e-21)
(1.04699 -0.324521 0)
(0.220113 0.00760687 7.44234e-20)
(1.12631 -0.0217431 -2.94992e-20)
(1.06269 -0.0371468 -1.65087e-20)
(1.05557 -0.0196 -1.07221e-20)
(0.229413 0.0100559 -2.70767e-20)
(1.18111 -0.0953107 -9.65767e-20)
(1.03018 -0.138111 1.03283e-20)
(1.09819 0.0205812 -7.70774e-21)
(1.03652 -0.0299275 0)
(1.27719 -0.307296 0)
(1.08254 0.0236663 -1.01064e-20)
(1.09334 0.0177583 -1.37724e-20)
(1.07985 -0.0343916 7.22749e-21)
(1.21625 -0.0569168 0)
(0.990204 -0.0147401 8.08754e-21)
(1.00006 -0.00139838 3.09075e-22)
(0.949863 -0.0180995 2.81986e-20)
(0.988863 -0.00380437 -1.77685e-21)
(0.662431 0.0195757 0)
(1.00336 -0.000714018 0)
(1.09021 0.0242253 0)
(0.631411 0.0225545 0)
(1.12858 -0.0221825 0)
(0.409374 0.0399377 0)
(0.276806 0.00890636 0)
(1.0938 0.0178429 0)
(1.21687 -0.142797 8.45737e-20)
(0.900783 -0.0315707 -2.11562e-20)
(0.998829 -0.000217595 -1.11132e-20)
(0.985646 -0.0134318 7.71481e-22)
(1.01723 -0.0058588 0)
(1.02483 -0.0100503 -5.34277e-21)
(1.00085 -0.000476902 -1.32803e-21)
(1.10519 -0.0136686 0)
(1.13093 -0.00537252 -3.60931e-20)
(0.929974 -0.197226 0)
(1.10693 0.0220087 -4.62806e-20)
(1.02017 -0.0517943 1.12985e-22)
(0.56498 0.0175209 -7.01558e-21)
(0.999982 -0.00013071 -3.45186e-21)
(0.00506526 0.00477217 -2.41797e-19)
(1.09295 -0.0645523 -6.77318e-21)
(0.999939 -0.000257354 -9.8736e-22)
(0.997494 -0.000928746 -6.54604e-21)
(0.657707 0.0220174 2.5964e-20)
(1.06376 -0.0324684 1.12749e-20)
(0.97087 0.0255272 1.06617e-20)
(0.79492 0.041035 2.36698e-21)
(1.08171 0.00150576 0)
(1.09361 0.00211883 -1.04282e-20)
(1.02664 -0.00313023 -3.13532e-21)
(0.631684 0.0268043 -2.4159e-20)
(0.98969 -0.0683609 0)
(1.05534 -0.0175639 2.06172e-20)
(1.08623 0.0239428 0)
(0.99886 -0.000626539 5.31075e-21)
(0.978533 -0.0363585 -4.36794e-21)
(1.02934 -0.0111076 0)
(1.07531 0.011331 1.94657e-20)
(0.48618 0.00287668 2.81123e-20)
(1.07145 -0.0455494 -2.10327e-20)
(1.0802 -0.0310353 -2.84803e-20)
(1.20925 -0.0747781 0)
(0.352636 0.0370179 -5.59062e-20)
(0.902912 -0.0515054 -2.89059e-20)
(0.992972 -0.0879337 0)
(0.689992 0.020629 -2.02494e-24)
(1.01689 -0.00568553 0)
(0.681876 0.0205109 -1.12356e-20)
(1.00032 -0.00102208 -1.57425e-21)
(1.05097 -0.0159178 0)
(1.16907 0.0112804 -1.76729e-20)
(1.08634 0.0139777 5.26903e-20)
(1.09225 0.0153597 0)
(1.14053 -0.0552967 -5.73414e-20)
(1.09441 -0.0162616 6.41736e-21)
(0.999594 -0.000762984 -5.01013e-21)
(0.999991 -0.000136542 -7.28727e-21)
(1.10858 -0.0159503 0)
(1.03494 -0.0312776 -3.69259e-21)
(0.999696 -0.000619646 -8.96728e-21)
(1.06277 0.00464551 0)
(1.21646 -0.106621 -8.50281e-20)
(1.00394 -0.00478009 -2.91948e-21)
(1.20517 -0.164806 7.29538e-20)
(1.2861 -0.334055 6.50633e-20)
(0.994832 0.0253798 9.17124e-21)
(1.13837 -0.0528367 3.62866e-20)
(0.303467 0.0179565 6.84453e-20)
(0.860617 -0.0843138 4.80049e-20)
(0.998711 -0.00049129 0)
(1.16304 -0.0540399 2.21293e-20)
(1.01012 -0.00907557 0)
(1.06523 -0.022888 -2.14185e-21)
(0.851777 0.0286801 -1.00251e-20)
(0.695226 0.0196873 2.54976e-20)
(0.915083 0.0380079 9.69444e-21)
(0.715701 0.0222959 0)
(1.02305 -0.0348593 0)
(1.01995 -0.0339902 -4.17648e-23)
(1.00848 -0.241197 -5.28328e-21)
(1.00451 -0.0538324 -5.1977e-22)
(1.01833 -0.0162704 0)
(0.883997 -0.325203 9.78305e-20)
(1.09593 0.0169087 1.57182e-20)
(0.484333 0.00671015 0)
(1.08218 0.0245652 -4.30534e-20)
(1.08695 0.0139714 -3.52991e-20)
(0.9877 -0.00537349 2.27505e-21)
(1.01699 -0.0110545 0)
(1.28614 -0.188598 4.68479e-20)
(1.09726 0.00596476 4.12713e-20)
(1.05244 -0.0159124 1.78227e-20)
(0.999836 -0.000130004 -1.99346e-21)
(1.09151 0.0159321 -1.45805e-20)
(1.14615 -0.0144266 -7.21595e-22)
(0.499201 0.0291787 0)
(0.97712 -0.0178743 0)
(1.00075 -0.00283724 3.53198e-21)
(0.469739 0.00154921 -2.16142e-20)
(0.964878 -0.0151997 2.53727e-20)
(1.07948 -0.0211592 3.56429e-21)
(1.01029 -0.00715665 0)
(0.454582 0.0374033 0)
(1.00873 -0.000483105 2.58097e-22)
(-0.0676474 0.0164648 0)
(0.995704 -0.00511701 1.09042e-20)
(1.17488 -0.118139 5.57589e-20)
(1.08284 -0.00918826 -1.76564e-20)
(0.987307 -0.248943 1.05155e-21)
(1.08098 -0.0332037 4.21635e-21)
(0.994363 -0.0214978 0)
(1.05586 -0.0244365 0)
(1.00279 -0.00345292 -7.02254e-23)
(1.0909 0.0244107 -8.25902e-21)
(0.967644 -0.0229481 0)
(0.560538 0.00835704 -7.62929e-21)
(1.03814 -0.0292964 -2.60312e-21)
(1.01413 0.025219 -1.39914e-20)
(0.598475 0.0230488 0)
(1.07728 -0.0375792 -1.45288e-20)
(1.0033 -0.00249041 -1.26859e-21)
(-0.127812 -0.00157169 -6.30477e-20)
(0.85474 0.0269074 -4.91773e-21)
(1.06499 -0.026878 3.37352e-20)
(1.08592 0.0145527 -3.58261e-20)
(0.98566 -0.0126426 0)
(0.510784 0.00404719 0)
(1.0268 -0.0181881 1.96436e-21)
(1.12301 0.0103174 0)
(0.999361 -0.00851796 5.37245e-21)
(1.00303 -0.00359734 1.42671e-21)
(0.992819 0.0268191 1.52355e-20)
(1.07952 -0.0172579 0)
(1.00039 -0.00609278 0)
(1.06518 0.00958548 6.80127e-21)
(0.529372 0.0261274 0)
(0.808754 -0.820803 1.36668e-20)
(0.815281 0.0340863 -2.70955e-20)
(1.0146 -0.0136395 -5.79933e-22)
(0.468774 0.0107808 -4.32213e-21)
(0.997948 -0.00754498 6.94438e-21)
(1.00378 -0.00451822 2.19832e-21)
(0.978266 -0.020283 -8.85157e-21)
(1.01726 -0.000391859 0)
(0.999897 -0.00181648 -4.00134e-21)
(0.798026 0.0364861 2.12942e-20)
(0.840446 0.0287524 0)
(1.03693 -0.0182219 0)
(1.00075 -0.000689011 -3.26543e-21)
(1.08904 -0.025226 1.82677e-20)
(1.01313 -0.0193784 -1.72519e-22)
(-0.0329099 -0.00497247 -5.58091e-20)
(1.16413 -0.0506841 -6.32685e-21)
(0.439749 0.0073562 -3.22147e-21)
(0.432005 0.0400629 -2.55676e-20)
(1.05554 -0.0251833 0)
(1.08716 0.0198974 0)
(0.99991 -0.00825392 4.96772e-21)
(1.08427 -0.00735721 -1.70324e-20)
(1.03783 -0.308291 4.12982e-21)
(1.03118 -0.00727705 7.87072e-21)
(1.00028 -0.00100377 4.40004e-22)
(1.28612 -0.17882 0)
(0.169368 0.0112845 -2.1914e-20)
(1.09264 0.00230943 0)
(-0.0824069 0.00319628 4.96694e-20)
(1.0863 0.00760769 0)
(0.996494 -0.00273382 0)
(1.09204 -0.0319856 -2.28952e-20)
(1.08592 0.0149215 3.34503e-20)
(0.0370002 0.0110122 -7.63063e-21)
(1.07549 -0.0111242 0)
(1.05823 0.0241701 -1.25587e-21)
(1.09821 0.00602574 -5.62179e-20)
(1.00017 -0.00191593 6.23171e-21)
(0.802915 -0.116945 0)
(0.705962 -0.086323 0)
(0.509881 0.0055681 1.20853e-20)
(1.1591 0.0150141 4.66184e-21)
(0.944584 0.0284538 -1.42897e-20)
(0.984194 -0.0603471 3.29176e-21)
(0.774324 -0.347991 4.63048e-20)
(0.976829 -0.00369187 -8.54263e-21)
(1.104 0.0200501 -3.93174e-20)
(1.04663 -0.0655635 1.13062e-20)
(1.00664 -0.00138949 -4.05534e-22)
(0.793707 0.0354171 -3.12032e-20)
(1.01713 -0.0512649 8.89001e-22)
(1.00324 -0.0022911 0)
(1.01087 -0.0336926 2.52634e-21)
(1.01593 -0.0499313 -1.43185e-21)
(0.423488 0.0359435 0)
(1.11935 0.0116279 2.21644e-20)
(1.00994 -0.0125552 -3.25907e-22)
(1.093 -0.0302675 0)
(0.414628 0.00497114 4.47608e-20)
(1.03088 -0.0464324 0)
(-0.0875915 0.00606323 7.28793e-20)
(0.964869 -0.0374613 0)
(1.08796 0.0114783 1.95059e-20)
(0.518898 0.0330756 0)
(1.00105 -0.00584443 0)
(1.09295 0.0243081 2.06415e-21)
(1.05549 -0.0762758 4.98195e-21)
(1.07938 -0.0380552 0)
(0.743395 -0.861151 0)
(1.01903 -0.0506338 0)
(1.17663 -0.0233566 3.82214e-20)
(1.07772 0.0196354 -1.58691e-20)
(0.562782 0.0284904 0)
(1.0386 -0.0062177 8.01428e-21)
(0.535125 0.00605496 -2.38915e-21)
(1.07475 -0.0243838 -6.03229e-21)
(0.427639 0.0103963 1.91679e-20)
(0.100327 0.0102906 -9.83282e-20)
(0.517009 0.00425063 2.31886e-20)
(1.08084 0.00309022 0)
(0.991881 -0.0202042 0)
(1.02257 -0.0358023 0)
(0.999973 -0.000961352 0)
(1.0682 0.0163465 1.40956e-20)
(0.997478 -0.00249574 6.9361e-21)
(0.530009 0.0227651 1.56665e-20)
(1.02819 -0.0927742 3.03589e-21)
(0.938802 -0.0769957 0)
(0.905378 -0.0483924 4.89669e-20)
(0.985839 -0.0591359 0)
(1.01427 -0.0131672 0)
(1.05633 0.00811021 0)
(1.05197 -0.0658009 -6.58231e-21)
(1.0512 -0.0110606 0)
(1.03753 -0.0762411 2.17197e-21)
(0.703632 0.0420331 0)
(1.09137 0.0248393 0)
(1.07292 -0.0190566 -1.17389e-20)
(1.09865 -0.107633 0)
(0.812669 0.0344963 1.5553e-20)
(0.976254 -0.0360044 1.50181e-20)
(0.220491 0.0358162 -2.48764e-20)
(1.01638 -0.00562532 1.87358e-21)
(1.03186 -0.112177 0)
(0.966105 -0.0218629 1.47362e-20)
(1.01904 -0.0234693 1.58622e-21)
(1.07418 -0.124913 3.38176e-20)