/*--------------------------------*- C++ -*----------------------------------*\
| =========                 |                                                 |
| \\      /  F ield         | OpenFOAM: The Open Source CFD Toolbox           |
|  \\    /   O peration     | Version:  v2012                                 |
|   \\  /    A nd           | Website:  www.openfoam.com                      |
|    \\/     M anipulation  |                                                 |
\*---------------------------------------------------------------------------*/
FoamFile
{
    version     2.0;
    format      ascii;
    class       volScalarField;
    location    "350";
    object      ddt0(ReThetat);
}
// * * * * * * * * * * * * * * * * * * * * * * * * * * * * * * * * * * * * * //

dimensions      [0 0 -1 0 0 0 0];


internalField   nonuniform List<scalar> 
13917
(
-0.354743
1.98935
3.13422
-15.6509
0.297691
-1.21686
1.7314
3.49779
-0.697264
10.5169
-61.1456
22.3321
-10.94
0.0211006
-3.80251
-0.847794
3.90629
-3.71791
66.7076
0.156945
0.0324216
1.4729
0.214565
4.30478
0.594864
1.20932
-1.36674
-1.81832
105.863
-85.7426
1.23116
2.4754
-0.738075
5.13417
1.68968
-1333.55
-0.103019
0.40052
-13.9664
-0.145087
0.13188
-0.145067
-0.0724005
-45.635
-2.8801
-3.97539
84.1827
-41.0737
-3.85714
0.0267831
23.5006
11.4395
0.234026
7.94813
9.57805
1.7111
-88.941
0.284179
2.2012
-0.490234
1.09726
3.82574
-0.0609487
0.183541
-0.405006
-109.066
-0.00247766
-0.297076
-14.9922
1.82918
0.263238
-0.941653
0.0672258
0.131801
28.2633
11.5342
0.239804
2.21769
0.720175
-0.795279
0.0200435
0.00816165
-3.19418
0.500608
0.110303
1.16124
0.367164
259.143
0.00155965
-0.168135
0.206136
0.201552
-0.694708
9.64626
693.241
-3.72616
-34.2738
-101.749
173.038
-0.576789
0.195004
-0.115417
19.8722
1.11162
0.149818
-1.26407
-10.4788
-67.3095
2.42393
5.70365
-0.0926801
-0.161381
-14.6398
-1.05185
6.52709
0.722904
0.0115106
0.749376
-0.996521
14.9333
-0.0767413
-41.0671
-0.618104
-5.23293
0.171035
20.6258
0.964213
0.00628219
-0.0293895
-4.7905
-0.591314
3.47538
-2.86548
-0.0118203
-264.712
4.6268
1.09601
1.60287
0.0233535
17.1889
-342.081
0.0187087
-15.4252
-9.59797
1.16211
-1.97211
-131.23
2.71944
0.0780909
6.7027
-55.0983
2.84954
-11.2222
4.17629
4.83588
0.2212
0.352943
138.254
0.2315
-645.528
3.29127
1.57871
0.105173
-54.0045
-7.40739
91.1677
-1.13875
-19.7411
0.345344
-1.40477
0.483931
-0.0515602
10.2555
-3.97303
1.74748
8.60568
-0.457892
-5.32525
-2.83857
-4.06134
-19.7655
-2.33108
0.0878132
0.236945
-0.45436
1.54819
-62.1644
0.572886
3.04506
-57.1108
-121.584
0.117459
28.7177
0.0554454
4.07592
-1.05467
0.0515988
1.66729
21.5939
738.47
4.50222
0.0486103
62.613
-34.2373
0.0976428
315.851
12.0202
-0.802226
-114.69
2.40981
7.63197
1.71241
0.121724
-47.326
0.117591
-0.854897
6.99941
-0.0299014
0.300907
0.42299
2.35494
114.162
0.102258
0.486581
-1.15174
-0.904941
-718.883
2.38087
0.143832
-868.731
18.3421
8.73166
4.57155
0.128228
0.0631731
-2.14435
0.179233
0.116091
0.0640396
0.120054
-0.0226093
-43.788
0.0101375
-176.154
20.7827
4.03228
-2.20121
0.13109
2.83748
0.169252
0.16662
19.166
3.67598
0.213755
2.43351
-14.289
0.0280274
-50.923
-2.15077
-1.60023
0.0113177
-0.626699
-1.25908
955.845
0.113069
-0.0205628
0.167184
-188.447
0.620155
58.2835
-0.110958
0.13503
45.7215
0.374953
18.409
1.62451
369.232
17.0055
-0.0540387
22.2882
0.10222
0.265273
-5.39344
0.0201982
1.00568
2.95506
3.51366
107.234
-0.947219
-0.234226
236.743
4.94305
-1.0004
0.482138
167.344
0.398539
-1.97856
0.251785
39.3045
0.0825064
-100.29
0.77201
0.486784
67.4881
-1.46447
0.455924
12.8467
5.5056
0.169358
0.385375
-0.0775409
-0.374004
0.491425
0.0900994
38.0169
1.19684
0.0511458
0.180444
0.528011
3.11601
-108.735
14.4151
-12.5359
-4.88075
-462.007
-1.41874
2.436
-48.6874
-18.9409
-2.22969
-0.163262
2.57136
0.21439
-1.24376
-0.93678
-3.73464
0.0627423
-4.69427
20.2767
20.2601
2.37046
1.46809
0.79503
-0.108002
9.80762
-4.39338
0.120227
-9.87796
-0.864661
-27.1989
-13.9398
0.132601
-0.94202
-203.457
0.0905632
0.223174
-0.474476
0.0575877
176.834
-2.3282
4.436
-0.0919193
-1.02649
83.5272
0.0726516
-23.213
1.47294
0.409356
-0.993153
0.503145
163.241
0.243827
24.365
1.87987
-48.7195
-41.2654
-4.22046
-1.43136
-56.4856
246.775
26.8843
-15.9875
0.0277075
-0.0306785
-1.82398
3.07758
0.182804
0.139735
1.21827
0.601835
-398.637
-0.0611148
0.606844
-8.22583
1.60202
1.99118
-0.141369
1.63286
0.0542811
-0.433501
20.7145
3.06508
0.644103
13.7807
-1.66515
0.085179
22.1276
-6.64972
1.49752
-51.2343
0.0209185
-0.032185
0.215544
156.273
-0.289474
-0.97925
0.103153
0.133759
260.237
-0.060163
-0.0220054
-19.0672
0.508619
130.798
-17.3364
-5.90958
-0.0883691
-2.27342
1.81022
-0.0568919
1.6751
92.2651
-5.79703
-11.5459
2.22322
-0.375799
-943.616
6.03269
0.0848207
0.0169293
-0.575093
-0.415621
3.31363
0.0971549
-0.035417
-0.155802
0.290254
0.0343241
-2.67752
-0.567633
0.1822
-73.8579
74.1091
-0.287618
-137.201
18.2284
0.288783
-0.472636
-21.7885
2.7871
1316.83
-1.06452
0.32398
0.967414
0.0498122
0.108708
-0.119759
1.67458
8.51547
-1.12626
0.180071
2.97031
-61.8917
-0.18519
98.9876
87.0668
-728.215
13.8305
86.6894
-26.9966
0.773837
25.9705
-0.548608
6.31066
54.3567
-0.00690487
-975.261
1.87223
-0.321039
0.695659
4.54342
0.298877
-1.13948
-0.222222
-0.00992936
2.83066
-0.00760669
0.0169277
-1.05967
-0.62578
330.424
-2.37213
0.0518726
-1248.48
3.76547
3.04077
0.0753355
152.572
0.0531531
0.0147075
0.137681
-1.59571
-12.2731
-0.330527
0.0984143
-0.474862
-1.06847
0.243004
-2.70886
45.4034
118.825
-0.157736
0.155206
0.0853522
0.072264
0.00746675
-139.949
-11.5239
666.947
0.0426634
0.130285
58.8897
-0.378909
-18.6371
1.21509
0.802508
0.668874
-0.100326
0.118494
0.14
0.796469
-435.809
3.61807
-27.1958
-0.00802496
0.231896
-4.96879
5.71435
56.6206
258.076
198.659
46.391
-263.612
9.21193
-0.225077
0.153468
0.124342
2.13492
-22.9487
-535.174
9.14188
0.0207741
412.311
-187.201
-10.5431
-11.342
-15.1575
-24.8882
-0.549032
-0.867917
-19.5262
1.03841
0.782351
-9.93494
758.468
0.408427
0.0856687
-93.731
4.25692
-0.828857
0.117453
0.714828
-0.584773
7.43037
-5.74166
15.3564
0.597744
1.18457
0.0598098
0.0330278
-89.0049
811.89
1.77547
-1.81823
-8.32951
-2.6424
-0.805064
557.133
-0.0125223
-0.933586
28.4514
0.0150665
-7.31639
-38.5735
0.232881
187.761
0.786369
-56.0435
13.6724
-0.902728
5.98784
0.271451
0.147378
0.401319
86.8561
-2.44774
-12.7841
3.31812
0.935784
0.651278
21.068
3.46015
129.143
0.00908677
27.5814
-32.8198
2.05159
-233.628
87.8648
-663.83
0.13155
-102.721
5.85404
-1.32406
9.14124
-11.9147
27.5092
0.0923618
-0.00364738
2.88542
-11.5938
-28.8684
-191.594
21.4441
-39.7629
0.0824527
166.234
-15.7199
1018.69
0.756931
-0.530871
0.0931984
19.3712
0.384831
-0.453597
-1.38373
376.734
8.25968
-17.8938
-4.33758
0.0382485
5.91327
-8.49584
0.332194
0.0677338
0.29113
-16.8448
16.7695
72.257
13.6025
0.0472379
2.217
15.6932
-17.713
54.9237
-41.1954
-0.0195065
-2.51605
3.34945
-5.65815
7.46445
0.122333
-0.457161
0.830912
-0.119036
-0.0465267
1.66466
-2.84322
6.41513
-0.245365
0.132006
-8.59435
0.372809
-36.7153
0.0430805
9.27078
-2.13892
0.906741
-74.3663
-0.369136
0.0749078
0.135574
11.8491
-2.34135
0.0794272
-0.527993
-95.3031
-1.42461
149.943
-5.40674
-150.02
172.015
-91.2951
0.51856
2.87798
-2.94632
-293.807
-2.8402
-105.441
-19.1824
98.3085
10.6957
-31.2882
2.24788
-0.277695
12.8603
6.26463
6.00394
-3.85802
0.0818968
13.1179
2.85666
133.208
0.150255
-0.660615
-0.00933012
-0.681382
-0.0599636
-3.80868
0.0277879
0.0475966
47.9354
-11.8414
-0.0593608
0.420198
124.469
108.253
-6.67657
0.800889
-8.93312
84.2032
17.2189
-22.7936
-2.89863
0.0245901
0.0994764
-0.774679
-0.0939953
-0.532622
-198.723
-4.39994
0.085095
-16.211
-8.65943
9.11284
0.031511
-0.000110555
65.7159
0.255701
8.63005
-2.82616
-1.64197
0.317409
-6.56589
0.138769
0.014372
5.76106
3.15306
0.0153021
0.993643
-8.35871
0.108118
0.431498
-1.33982
0.80451
3.45226
-1.34582
403.472
-0.0475045
-0.855658
-0.118602
0.00504464
0.0136194
-1.79047
0.481222
-8.58165
-12.6151
-0.186414
2.96347
11.9556
-0.0550027
-0.357457
-7.51612
1.10816
0.0746368
2.07455
0.421135
-2.31309
-2.32924
-0.18463
1.05745
-0.0404818
-0.574942
-31.1543
-237.164
0.02189
-910.454
-0.148761
2.81239
-1.17407
-0.611456
263.38
0.234976
-3.58775
2.15036
-0.0401343
-0.129627
5.00368
-0.67673
-0.551491
-1.01772
0.249937
-0.0837116
0.133987
-1.56528
-11.2711
-1.02194
96.8516
-10.4255
0.0478075
-12.7614
0.117899
20.4097
0.433681
0.822876
-0.62604
-9.99118
-0.10397
-0.973684
-5.27269
-0.366391
-8.82332
-3.06592
-0.0487061
-25.5981
-0.617044
28.3877
0.203844
1.48997
0.0128495
-0.035206
-0.0163549
-2.17411
0.00252321
-2.27972
-11.479
240.103
-0.870003
0.0365544
-0.649178
0.0818958
-0.0916499
0.305294
0.526373
-0.072087
-35.8052
-0.629445
-91.2027
-0.0300215
5.08509
7.41847
-146.547
-0.0413028
-0.576558
-0.872423
0.348804
-0.038825
-0.161285
0.240359
2.86961
177.679
3.22661
0.683534
-19.4877
1.00585
-0.136007
-0.0349362
2.75127
0.23426
5.52747
5.09868
-0.210713
0.376074
0.658467
0.0809295
8.66816
-0.140005
3.45973
5.54841
-1.84454
-166.817
0.651986
-4.59614
0.985595
-0.249486
-0.0444646
5.75399
-1.52097
-28.6453
-29.2963
0.0451507
-0.926379
35.219
-0.245493
-0.957458
-0.810163
-0.0700475
-2.01379
0.000467794
-5.60313
2.51362
0.210511
10.7605
-6.46416
12.9304
-0.165701
0.727587
2.82803
0.263587
-0.204117
-6.1449
-0.72991
0.172528
0.0934215
0.437089
1.64912
-3.65122
172.793
49.3918
-857.424
1.20559
113.005
0.809798
-0.174771
-1.91267
1.50396
-0.0401369
-0.227151
-0.0233188
1.21773
1451.87
1.21865
-12.5086
-0.78859
-2.82446
225.373
-0.0141501
-37.9295
21.0065
-0.358283
-1.10484
-19.962
-1.72541
0.0354091
-0.1501
0.367744
-0.0790129
66.1806
-22.571
-1.15533
-0.0314396
0.379892
-0.0774614
-4.06432
73.2484
2.47052
1515.36
104.602
-1.73431
0.13211
8.80008
-0.352285
1.51704
1.57391
0.368778
0.827004
1.26629
3.57905
0.187376
-0.0538003
0.289447
-11.808
-3.16355
-29.6378
21.5748
233.45
-0.0716014
-1.15928
38.426
-6.70984
0.3137
-24.7256
63.4817
1.03552
3.21536
-1.53221
0.0936275
1138.71
6.46892
9.7588
-15.1753
14.3591
1.86458
4.39942
-4.70856
0.00158157
-57.5055
-5.08557
0.18339
15.3633
-0.209473
8.96487
0.0829819
6.58922
23.2698
1.6524
0.700322
0.0580196
11.2582
-9.47803
-2.90841
-0.668044
2.30641
-23.1231
0.126246
-192.448
-6.58986
4.12408
52.5918
-0.14602
9.80831
-12.8402
2.57927
0.173497
117.105
-0.402832
-4.08375
-0.0622456
0.264893
0.146425
0.0655718
-0.0702606
-13.6827
215.473
0.0993355
-0.838749
1.72542
0.394024
0.0353483
26.9181
-0.168995
-807.027
0.856348
0.0403018
1.36548
157.631
-0.839417
-18.7432
2.33242
1.41224
0.815316
0.0467675
-10.1954
-78.7588
0.0146823
-1.25041
-13.885
41.3444
0.0189542
-13.9876
-0.0199791
-0.260939
1.49186
-154.338
-0.319432
-0.915104
-0.0462394
-0.432538
1.34573
19.9931
38.1465
157.495
1.05764
7.83277
2.88038
13.7809
2520.32
0.564804
-30.0631
0.89592
0.329863
1.78672
0.0547797
1.45842
13.3951
-1.41483
0.165043
-4.30116
143.235
3.34966
0.342099
-0.981399
-1.95184
31.6902
-163.942
287.204
-194.011
7.1558
0.0822944
0.0425289
3.90804
0.035239
8.26952
0.0151588
1.06624
-0.0933472
0.243825
22.9262
11.7458
28.9584
2.0588
0.0559567
72.9052
0.31767
-840.431
1.1747
0.0167942
0.130686
4.94719
-0.0601991
0.0542123
-211.646
37.3813
8.66605
-5.58761
14.8369
0.453087
-69.1374
0.106066
0.0479243
9.66118
0.619306
2.5011
421.481
-14.1477
21.4095
8.7056
-7.47977
3.35146
-380.279
43.4466
40.4495
-4.11684
-0.113704
1.42663
2.78924
15.5244
-21.7616
4.04485
0.555987
-47.3877
0.130335
-4.49787
-0.0528951
-4.62633
39.2738
906.746
-0.189783
-111.407
1.06232
5.98144
-0.226709
12.2377
0.428383
-15.4291
0.0523539
163.084
0.9427
3.17894
0.7984
-5.35812
0.00288329
1.26626
2.4363
4.03889
-2.49993
1.40516
-0.0266676
2.24936
3.7005
-0.498599
26.2318
4.39182
-0.0335273
-11.0145
0.173084
0.1852
-179.026
-0.899636
-67.4982
-0.679048
0.422069
-0.0344205
-1.42765
0.027572
-8.7528
-3.21023
1.71801
2680.77
0.338745
-0.110207
-7.79577
-2.2522
-0.0225804
0.00861573
55.4792
3.93915
-0.00611654
2.41383
-0.159985
0.668519
0.168865
-40.4171
2.25817
1.61575
-8.08659
18.659
12.3745
-0.0645224
-26.3569
62.6846
-0.0402921
50.1347
-54.2783
-4.68402
-196.098
0.238427
0.0965322
0.0076704
0.247522
-1.99222
-0.0422442
-0.127837
24.785
74.8902
4.71046
4.00468
0.209809
-14.6354
-2.11127
-0.739046
-3.93757
-1.07294
4.83173
-2.51989
-0.236022
0.0551598
-0.0417871
-6.09718
-1.14316
-0.231038
1.39054
0.0394862
0.00734405
-0.18376
1.23396
-1.46094
-34.0766
1.64603
0.00347186
-173.763
0.249938
-0.0524998
0.107699
0.529259
-0.0421879
0.00930239
5.37359
0.0510997
-4.50324
-0.469535
0.277397
-19.2453
-8.12376
54.6274
-267.796
-163.864
-4.18584
123.839
-10.5143
-2.15354
-1.04113
-14.1885
0.313186
5.47298
-37.7959
3.89918
-7.16613
-4.6674
-8.74445
1.09677
-0.217658
0.0515693
-0.0555949
36.7365
-11.2826
-10.6446
0.641951
0.656774
0.257078
-0.14843
27.8221
14.8805
-2.18137
33.844
-0.216778
0.071766
1.92895
0.616038
0.140298
1.16004
0.0751638
-4.11744
0.275482
3.27058
-22.9056
2.04986
-0.542828
-15.2224
-0.46441
0.346349
0.100459
-1.95836
3.8725
0.128717
-5.26106
-8.93553
-2.36507
0.0635813
1.697
2.20214
0.042745
0.208171
-20.074
-3.39207
14.404
-12.8318
-1.18096
-45.0074
0.163713
0.031703
11.6361
0.0404563
-0.0258911
-187.541
2.2123
0.99278
-131.607
13.4076
0.00376991
-0.0403511
-41.0582
8.734
-8.15053
-13.0283
0.00605876
0.0835754
22.2214
2.87685
42.0691
39.0389
0.0288042
0.0908146
-3.58147
-45.8486
-41.8514
-1.38625
-0.717428
3.79046
-33.9928
3.96723
1.84892
-0.97508
8.9434
-37.4526
0.37141
-2.23168
12.8693
22.2016
3.68754
0.902167
0.218192
17.9802
4.47277
-0.885834
4.48142
2.14292
324.837
2.56343
-0.154076
-0.163685
0.700677
0.0341905
109.717
1.38662
4.21866
-7.21802
0.106767
-807.029
0.604057
1.79683
-40.6959
-13.4252
1.91872
-26.267
-19.5251
0.618797
0.274466
-823.225
3.81844
194.221
-0.0623307
38.474
0.0104012
-6.17029
-0.143348
-1.8349
6.82901
0.851753
-1.02537
-233.599
3.29536
-0.487985
16.9446
0.00809208
0.0940969
6.71098
-52.2259
0.349871
-2.11423
32.0186
-0.106688
173.946
-1.8006
0.25669
-714.598
0.0614013
2.73045
0.314821
0.3135
0.095095
8.19001
0.180009
0.166195
-6.36857
65.4534
27.2546
0.309682
0.416198
-8.35489
-5.08429
-5.53517
-66.7961
-8.04645
0.148286
-0.0214945
0.727886
-6.67072
-5.94372
-227.23
-10.2593
0.584381
936.707
-327.212
2.2904
-0.198601
-0.181099
0.0938497
-0.62675
-45.457
-0.0444014
7.3197
-0.043609
1.08009
-0.536029
-22.9854
151.619
1.36763
-3.70856
10.1912
-0.868735
-0.0292797
-0.000917037
-207.507
1478.6
-0.534226
-0.649554
0.15652
-11.6016
-0.15059
2.36277
-24.3512
-6.39349
-12.3678
-0.0640436
0.173241
-4.41262
0.0982347
-1.0225
10.4841
0.662915
0.156508
2.52427
0.0206766
-0.0945526
-2.23228
-4.29763
-23.719
-0.0790408
407.683
2.67704
-0.419355
2.57477
0.238752
0.0486748
-0.596235
45.4014
-2.63344
0.367352
-0.141828
-0.265253
-1.29717
-13.9082
0.120993
389.235
-3.07899
1.27073
2.3397
-447.534
2.12489
4.44324
2.39173
-146.29
199.314
69.3148
-9.15487
-2.53698
-1.90633
0.0990234
-1.0327
-0.308824
0.0820407
19.2731
3.22028
-14.0598
-0.198327
66.3792
2.43736
-6.03212
-4.55397
4.04142
0.12501
-2.75819
0.254787
25.9546
1.2228
-1.66695
3.17579
4.35651
-57.3213
-0.0829197
-1.05073
-0.100643
0.137862
0.14918
5.06756
46.7855
0.224336
4.9678
-40.4624
28.7437
-236.91
-0.0680046
-0.173857
-0.997933
0.00370602
-0.109716
27.8697
-27.764
-7.62929
6.46191
0.17661
-14.1415
4.09132
0.316183
0.0256086
388.513
0.0728829
-15.5536
-1.66025
0.0280723
-0.775024
0.263236
0.0711434
-0.0524987
-1.05102
137.859
11.1213
246.848
-4.3875
0.324287
4.04619
1.06868
0.0324861
-0.412702
0.00926828
-0.00544071
0.150237
8.30548
3.34801
-274.698
-3.16362
-61.667
2.08913
-0.0557886
-0.955833
0.228399
-0.607056
-17.1864
-0.547558
0.0392921
77.4996
-1.62377
227.088
-1189.18
-0.100701
0.38381
-75.0041
0.000929278
-13.8794
-0.135387
-0.795381
-9.20621
1.25704
-1.62575
540.62
-5.29985
6.3751
0.00400869
0.154174
-4.58541
-32.2023
-117.815
15.3978
0.0859919
-0.925389
-119.841
0.121368
183.306
1.52291
1.46735
-0.354068
0.0580767
218.915
2.75468
0.833136
-1.69968
12.8605
2.45052
-5.00432
-0.221909
0.786296
56.6054
22.9367
5.16853
-2.08572
-0.125147
0.129797
7.03712
-2.74675
0.0961408
-33.5064
3.98224
-5.4008
-0.641359
-0.0460528
0.14106
31.8804
0.545819
-35.8036
0.0545473
0.00722137
-0.121394
0.26485
0.093979
-0.78347
-50.6351
-7.91786
0.252754
42.2296
193.766
150.26
-0.163082
-11.6542
58.335
547.83
-43.4068
-0.898968
93.5502
5.41181
-189.247
0.00438554
18.5206
1.3789
0.00637867
1.7238
0.0236049
-1.36946
-126.52
-4.93876
13.2789
-0.0892912
0.117245
-3.50224
-0.40277
-0.820446
11.2947
-0.021789
-4.57076
0.0792177
-41.9565
-0.322176
0.0110141
46.8378
-20.4673
-0.0223056
9.32077
0.00780973
11.6636
-64.078
-38.8894
0.594694
-0.191732
0.237228
-2.27711
127.572
0.0331161
-0.0100143
0.182597
1.89689
5.41334
0.688431
522.627
-78.6969
-59.7355
1.25226
71.0399
0.121275
-0.110763
-1.06848
1.53878
-1.21622
1.36391
-1.72404
55.8694
1.37472
-0.987239
200.225
3.60397
4.69502
0.48601
-10.7181
-110.684
0.202107
-7.90994
-41.3971
-89.7956
-19.2284
1.08788
0.126864
-1.23167
0.115139
-1.93452
4.00449
-0.0222038
0.0737208
0.0234892
-8.18275
-42.8841
12.9007
0.814456
-0.0633856
0.277932
-0.0540397
-0.358848
0.298419
-15.6784
-0.290672
0.0612149
-281.184
18.843
-0.257137
10.7527
-0.195971
38.717
-34.3892
0.243537
0.701241
0.10535
4.49087
-3.19216
-59.8703
-0.023854
0.0204155
121.235
-0.154847
13.6004
-0.317844
-22.7752
-2.71251
-0.235048
6.85834
1578.35
688.94
-12.7403
0.44574
-219.431
11.5591
0.00506181
-0.171807
-0.0198941
0.744805
37.5696
-2.34352
7.87686
-4.8876
-12.4529
22.6328
0.304394
0.123502
-0.104643
-9.29504
0.665723
0.292552
2.40657
-55.792
16.072
-0.0827095
40.7232
-93.5915
35.243
0.291716
4.56089
-17.2117
61.5485
-5.77528
0.879272
0.00287441
2.33422
-15.636
-0.107174
-273.115
-114.821
-37.1757
4.98708
6.5722
-7.82576
1.08764
17.9751
-1.73609
-0.0548399
-1.31293
19.9647
-18.8821
7.06151
5.0637
8.48007
0.0994163
0.00265195
-8.39757
-34.4632
-0.396949
-0.0774158
-25.799
-0.101949
1.02152
-5.84199
-532.74
9.29263
98.3082
-0.600117
491.209
6.75713
-0.00110112
41.9638
1.24883
0.0275915
2.48926
1.83435
0.180369
30.4325
-0.782809
-1.84737
0.554297
-45.0457
0.031439
-0.0326371
2.56085
-0.290832
0.933881
-0.0667437
-0.00840939
-0.869234
0.140313
-0.117293
-1.24934
7.83332
3.93253
3.41399
0.603367
-3.44634
2.57368
0.0710866
-5.71361
1.27026
4.32531
0.0142539
0.341844
-5.76771
-1.78431
-0.00317429
-42.7141
0.166118
-1.04232
-0.155318
-9.98375
8.60229
0.101271
-0.0331925
58.2574
0.0350444
3.3452
-0.179336
-6.86899
-0.623049
57.749
0.0501047
-4.16108
0.946677
-0.969224
11.228
-0.0833482
-9.26706
-0.146098
-6.86195
-2.97217
0.118364
-235.121
-46.33
-17.534
0.0926562
-5.76578
0.0951581
-11.5637
0.129451
-53.7892
3.38022
0.15242
-0.224212
0.571391
-3.76601
10.3055
-1.11841
-0.388574
0.486475
0.891673
0.467458
-4.97851
-0.414805
-3.18602
-0.122532
-46.6114
0.027107
0.758456
-33.3666
-4.32028
3.64224
-7.68557
-34.7406
84.4602
-0.0088255
480.567
67.7405
7.67735
-6.88842
-4.30244
-2236.94
50.2047
-8.55682
-15.2557
-7.19903
8.05701
877.293
37.5574
4.28286
-3.28096
0.674267
-0.524731
121.431
14.0595
-9.09636
5.01627
3.47447
7.11252
-7.04777
-0.968468
0.0887529
2.99521
-0.0606305
-7.63394
2.14312
-1.59985
0.154059
-0.162983
0.183557
0.931778
0.856815
8.65114
0.722068
-2.11981
-0.32989
13.3575
55.4531
0.0741611
-0.504809
0.0241902
0.0337388
0.326405
0.210431
-0.898324
19.5604
1.25685
0.0576791
-0.0299533
1.93958
0.190123
57.3116
0.00455665
0.196744
0.416916
-0.776662
0.962854
3.83536
1.03174
0.474113
714.508
2.53031
10.25
-1.25141
-2.45194
-5.67774
-4.49411
-28.868
9.64439
2.91672
-2.20664
2.34526
7.45246
-0.0736156
0.0646731
0.501375
1.69086
-1.73949
0.586037
0.367416
685.907
4.9061
1.90934
0.0129965
0.0124293
-0.907435
0.292323
141.837
-0.00411934
7.28708
-203.906
7.7093
0.106282
-0.425659
0.0555244
0.763885
3.46133
-1.09837
4.04819
1.21511
0.213491
-2.69598
-0.835789
-369.042
-83.4702
-0.92076
-4.22945
-0.0205531
1.25655
5.81698
0.00709594
-0.85408
-4.74495
1.05828
-2.57316
0.744588
-0.259883
56.1792
0.028685
-0.0849525
1.55094
-8.889
-0.0378922
13.042
-0.318551
-0.00310914
-0.0559776
-0.00277608
0.888735
0.443535
18.3977
3844.46
-14.7479
-0.183313
1.47199
-302.36
15.2273
-1.49973
-0.420949
1.20851
0.0712694
0.15841
-123.46
-0.381972
32.1136
-27.3772
0.132631
0.27668
-122.387
1.69618
-0.0915521
-0.0199943
-1.33593
1.68284
-88.5043
-4.84897
-97.0567
-4.9808
11.9733
0.583655
3.4486
-0.350942
-0.439849
0.296116
-0.031064
-5.41305
0.05501
-0.220757
0.0409183
0.00149402
84.9742
6.40363
2.16084
0.110707
13.3406
-0.161039
14.9834
0.709264
-5.08482
94.428
-0.27931
0.037275
-50.9616
1.54509
-0.038388
45.6568
0.0772593
-0.345078
2.5905
-39.7477
-19.5974
0.28596
0.00746043
0.14691
3.00829
0.875741
27.0707
0.0675142
0.100422
-6.3916
-0.017062
1.64168
4.39378
0.565352
-31.2451
-0.0314514
0.128071
-0.21753
0.110145
0.146726
1.1915
-0.287456
-0.840068
-470.825
-0.0393976
0.802501
0.32746
4.28101
0.449594
10.6793
0.15879
2.69692
15.6622
12.9895
3.50673
-8.06977
0.130843
-1.4439
-58.9045
0.0967952
6.48883
1.4754
-1.93825
-0.0549554
1.13266
0.186836
1.45821
1.30477
0.480354
0.400682
-189.305
-14.8917
-0.0848155
-91.6338
0.00412278
69.5322
0.0270401
-34.7157
3.50596
-0.171473
3.00255
0.206032
-0.11498
-143.002
-2.52271
-7.68119
-1.25806
2.29768
0.0299266
-1.79322
0.328072
6.54434
-32.0239
8.33803
0.378897
0.299812
-0.65614
10.3436
8.36988
-0.110388
1.03274
-0.455853
-0.205873
3.87423
0.731675
67.0864
-16.1376
-1.39373
0.686626
2.6836
-194.105
-27.6126
-0.00199109
-3.52494
4.90096
0.807728
12.9217
-3.95764
0.154355
0.359929
-0.466919
0.0336535
-0.813138
-140.439
0.0993503
0.853779
0.0707605
-2.14114
0.415975
9.50735
-0.216648
-3.91459
-0.425549
-4.88743
1.31761
0.0563989
33.144
-3.92711
-31.943
1221.17
-6.57797
-0.0184357
0.0500268
-64.3268
-0.633173
1.61633
-53.3714
150.438
3.61978
-0.534411
30.127
2.90316
137.089
-202.053
1.69681
-0.314236
-6.40551
-8.22866
107.382
3.81986
3.66085
7.49531
1.25601
0.3334
0.721476
0.0310604
-4.28482
-42.4615
-24.1738
-3.90707
0.0579914
-0.509965
-0.166351
4.67565
0.295434
0.455632
8.62456
-3.51441
33.7741
1.25367
-0.952251
-17.5488
-27.2868
0.277441
412.961
-2.33514
39.6351
0.13118
1261.8
-0.177194
-75.2909
156.409
-3.71483
-4.87911
2.18704
-0.0322158
398.464
2.58265
0.624954
-40.1717
-0.439624
-909.555
-1.02172
-1.33058
61.6355
-0.0719852
6.55151
-22.1709
-1.28145
0.501146
7.33892
21.1765
-78.9216
-1251.29
0.422991
0.0925991
0.0777739
-5.33986
942.484
0.0695191
0.123907
-57.4126
0.329036
1.2623
6.17588
-0.704876
0.136441
0.753901
2.16479
-0.158643
0.206052
-1.76293
-0.00576538
-0.815906
-1.10901
16.3889
-1.29553
20.5203
-0.38812
-28.8033
3.25135
0.0825648
7.49531
-533.426
228.181
-38.2127
-0.0384539
-0.298781
1.93409
0.174104
15.3751
-0.274239
59.1437
0.0890885
-13.1864
0.902447
3.74071
-0.433377
-0.0243461
37.5624
21.1336
-0.313575
-16.1914
-2.95972
6.02869
-4.31854
4.03893
-3.27474
5.33995
38.282
-64.6991
0.298367
3.67312
-26.0941
1.82812
-0.0258753
1.85035
-0.0152561
0.388608
-9.43284
-0.185612
-1.98194
-3.74512
-1.72229
186.65
1.85477
134.028
2.7853
1.62541
-4.55161
850.481
7.01401
33.553
-1.46326
0.128593
-1.2882
290.657
-0.0525184
-2.26281
-2.43386
-0.338495
-1.509
3.71043
-0.567151
-196.808
-0.17181
0.0843249
0.0311974
27.187
0.599353
79.3587
0.723005
0.405846
6.22721
-9.50512
0.374419
15.05
17.9224
320.447
3.82485
-0.448698
1.31275
0.214664
0.537015
3.79898
-0.0517029
4.19506
1.54561
-2.01711
240.257
-0.22607
-0.0841392
5.97068
-0.266702
0.580389
4.46014
9.73427
-7.53196
-0.514313
0.487863
-9.7199
-20.3874
0.0174436
520.838
21.3161
9.2402
15.09
-2.02813
2.44997
0.107557
89.2679
2.76417
15.7644
-1.39756
8.02997
0.125735
31.7887
-0.204218
1672.77
0.373115
-9.98116
3.82716
-0.990735
-0.577861
53.1608
-3.09215
1.93582
-8.59871
-0.0682787
1.01691
0.418658
-3.82004
0.979521
11.7245
0.334985
-0.132389
1.20363
-0.0898702
-10.842
0.08126
2.40155
-0.0450786
-2.34171
-0.156319
-38.4799
-83.0995
-116.388
0.257979
2.54783
-205.109
0.378465
-2.12675
20.526
-285.459
0.0260436
-0.93952
0.176679
-289.551
-1.08249
3.92561
-0.102756
283.465
0.0806683
0.730827
-0.0322674
29.4617
-73.0164
266.689
3.08349
2.5702
0.113584
-0.125957
-0.0272287
7.62222
1.0799
-1.11481
-0.00300294
-0.19629
-0.219709
-0.0103224
-0.358405
-8.59629
46.0081
0.597023
-136.312
-35.2092
10.3453
48.7742
1.84657
1.6153
0.983836
-0.662922
0.057328
-16.69
-0.233995
-15.0044
9.27083
-16.0431
-0.107236
7.66372
14.097
-48.4263
32.8626
0.0786573
-0.201116
-0.820925
0.0205455
0.0480753
-4.97684
0.121724
2.58187
0.441916
0.113722
-1.23716
-34.6818
-0.181602
-0.162196
0.245604
3.63908
852.452
0.00704392
0.10817
-7.31517
1.98535
1.89725
0.520161
-3.62592
0.157187
0.0976863
0.0221789
3.08125
1.94063
13.9782
0.224227
5.55357
3.97308
21.1173
-0.12962
-1.20379
3.22935
-1.61607
0.0282842
-767.348
1.7328
0.743484
4.92619
-2983.75
0.109607
74.1299
-0.669413
0.8897
5.98831
0.306894
-394.672
5.8064
-8.97062
-25.0839
2.64643
-0.61228
58.0934
1.81766
-298.852
31.9109
8.80218
5.01146
0.022079
6.2589
-3.47644
-51.1873
0.986836
-0.638668
-0.0779377
0.0046207
0.0235648
-35.8249
-5.44775
7.06135
-0.694942
-0.306627
0.251985
0.959002
1.12731
0.143532
-0.00960911
-4.80876
0.391314
0.164921
-2.0635
9.33499
-3.45147
0.141704
160.252
7.25692
-9.05428
1.37717
-0.521469
32.6222
-0.0259521
0.962413
0.759732
4.13834
-0.0730774
-0.0306807
0.106723
6.0083
4.7216
-1.94304
29.4224
0.0184027
-7.5477
2305.69
131.544
8.19682
9.32155
-5.16225
7.48414
25.0117
-1.13518
0.0763852
10.1985
1.12494
2.00691
-0.241874
-2508.31
0.0307286
0.343032
-1.62746
-3.59956
6.52272
0.0585602
0.174341
10.173
-1.63023
0.0569278
9.88083
-27.5633
3.3549
8.25658
262.807
0.18218
1377.97
-23.9152
0.564511
32.1435
50.1874
-0.336599
0.551243
2.51741
-0.147697
0.414124
0.0270949
4.70725
-0.123802
-15.0634
-2.03493
-0.0764164
0.380876
141.666
1.02765
-0.574299
21.8081
-0.977043
-6.273
-4.02434
1.81705
0.287474
-6.17848
0.249044
2.3698
58.0175
-7.50595
-0.195925
22.0515
-0.635744
0.0837711
2.54392
10.1851
0.0643292
282.138
200.411
-5.23351
0.0911256
0.0501196
-1.61369
-0.108492
-1.75394
1.06497
-2.35727
0.868716
1.7036
0.312291
3.55866
-0.131752
-2.77951
0.109233
30.4981
-9.8705
-0.363015
-0.118564
0.121601
0.0446039
-0.706627
0.00413374
39.1322
0.509224
-0.0463529
0.381276
-61.5659
0.0943823
0.719789
-12.0754
-0.102317
-10.9934
1.81385
-0.0250072
-0.557654
-17.6736
0.380419
0.190433
-323.323
-4.93312
-0.0980357
-274.973
-2.55849
15.3148
2.15571
2.35403
9.12756
0.17474
0.41357
16.7117
-1.6103
0.116516
-601.25
0.00300525
0.55995
-0.139656
0.0994933
0.855675
0.181713
0.089791
-0.519893
0.0789994
-0.100168
4.57179
0.843894
0.00785919
0.433138
-266.919
137.85
0.259425
2.67342
1.91013
-2.00582
0.290948
-11.0159
-0.0205454
-294.497
0.581538
12.4665
-60.8992
-2.68009
2032.1
-0.434197
-1.7896
402.587
-20.2695
0.0875982
-23.6689
2.21725
1.61042
-1.60956
14.1192
1.43727
-0.979133
0.0882153
-0.195957
0.0482458
-1364.36
0.443196
0.445671
0.0960547
-4.00047
2.3887
1.27409
-1.58592
0.433894
4.33414
-1.12493
0.0120288
-0.0185455
14.4196
11.0012
5.14732
-4.44644
-0.159338
14.1112
-4.18067
4.33441
4.24679
11.629
-32.5503
2.13837
8.68164
2.316
0.145001
-158.43
-35.148
0.264468
-11.524
0.827403
-135.212
15.1149
-0.54883
-0.285734
0.466659
-36.9105
1.05161
-52.4941
0.0592192
-17.9005
0.159507
6.39789
7.22568
-10.237
4.94682
10.1061
1.69091
62.716
-7.78293
4.90112
22.6098
-0.286034
11.2173
-696.691
11.9039
6.55414
18.1369
2.44649
-11.9275
0.346645
-0.0706534
0.00216519
28.7605
5.56626
0.00123152
0.277498
-0.00771499
-0.257841
-0.0464617
-1.08367
1.91424
-381.278
-2.95427
-0.253806
-0.0692062
1755.84
0.467206
-28.7331
0.152887
7.67258
0.325999
-0.0535441
-32.992
-3.12348
0.417853
0.117924
5.07078
-82.627
6.12295
7.94469
0.934485
-2.87387
2.55018
158.018
-0.68684
0.0667281
0.0289591
0.217845
0.049163
-0.533966
-1.11823
-7.77766
12.4812
1.72734
0.25491
0.732019
-39.9855
0.0646625
0.1397
-6.89639
1.1482
-697.603
-12.901
34.141
-17.9571
0.294638
-3.68502
5.11335
-7.85244
-4.03143
0.129418
23.768
4.04212
-0.0600627
-12.3046
1.15714
2.66755
-14.321
2.63465
0.0923084
-0.139454
-260.794
-1.58962
23.2418
-0.758279
0.0155035
0.824552
2.65504
1.53634
6.8623
0.0371352
0.0446409
0.199875
-0.382008
25.0957
2.06357
31.1797
-2.00398
1.2669
0.75472
1.80166
0.816416
1.03747
-0.0171434
-0.245301
-0.0577274
-178.437
-0.0414937
1668.77
-3.27893
-0.344585
-0.931825
0.01897
0.0404523
0.0770573
0.14778
0.124149
0.490172
17.2689
0.459951
-0.1607
-0.0333281
-0.695748
3.99999
0.16428
-0.28495
6.39187
284.155
-0.64358
0.27098
22.9123
-7.25328
1.85442
-0.0111442
-0.458999
-15.1393
-340.829
0.255672
2.67582
-0.624898
2.74451
0.311979
21.8386
2.64658
-1.11067
-0.2525
0.0736931
0.0726718
-4.6073
0.226161
0.726526
4.60388
0.00935285
1.2484
0.712267
0.283329
-0.0342108
27.8888
-0.0989053
-6.23377
7.3258
0.178439
8.69295
4.16475
-9.11003
0.590406
0.0545831
2.51683
-8.24976
-15.7112
-3.26878
0.00685808
15.7421
2.60258
53.7619
4.31954
-267.252
-16.0246
-0.109723
17.2785
45.7588
-0.0893379
1.29662
0.136856
4.21539
-0.0809651
-4.67412
-37.5439
-1.0923
-0.399405
0.0773124
2.37142
-1.4881
3266.32
-0.831584
7.7048
0.678285
3.21028
-0.0112949
16.8788
0.237015
0.113053
1.52416
1.82069
-39.2395
4.82949
-0.166826
16.6554
2.0453
-0.965659
-88.3129
0.732037
-1.13867
-10.5611
0.141376
18.746
7.08266
-0.0807391
-0.392576
-1.68917
-0.449088
123.802
0.153441
-51.1076
-279.216
-1.19864
102.376
9.98487
-7.37862
-3.07763
-554.899
-0.0220822
1.32593
-0.30819
0.206007
0.0246286
-22.6102
0.71114
0.888036
0.598227
-0.120021
-381.095
14.1102
19.3676
1.251
821.018
1.49567
-177.453
-1.25836
0.128393
0.393815
918.093
-1.94378
-1.60378
0.377687
0.286564
1.14526
-276.237
-3.51024
-0.158112
-47.1508
-688.731
-0.211332
1.98912
1.47589
-0.155074
-0.0722518
0.530182
-27.1838
0.524895
0.497608
-10.7372
259.206
-0.0522606
1.70559
-4.09576
0.25976
3.14074
0.186308
-2.90065
26.2068
-1.53365
0.261887
0.443842
-190.632
-116.484
1.39892
6.5683
-1.26366
-0.140595
0.0221995
-337.649
0.0427932
-0.519117
-0.835909
20.3103
0.0994982
-0.0771644
-0.177084
-1.51375
4.69482
0.329994
-12.3026
2.12377
0.165231
0.184339
-0.0677566
-13.4569
1.50592
-64.3365
-5.24478
0.416806
21.2285
73.0618
-0.200044
-20.9955
0.168826
17.1033