/*--------------------------------*- C++ -*----------------------------------*\
| =========                 |                                                 |
| \\      /  F ield         | OpenFOAM: The Open Source CFD Toolbox           |
|  \\    /   O peration     | Version:  v2012                                 |
|   \\  /    A nd           | Website:  www.openfoam.com                      |
|    \\/     M anipulation  |                                                 |
\*---------------------------------------------------------------------------*/
FoamFile
{
    version     2.0;
    format      ascii;
    class       surfaceScalarField;
    location    "350";
    object      ddtCorrDdt0(phi);
}
// * * * * * * * * * * * * * * * * * * * * * * * * * * * * * * * * * * * * * //

dimensions      [0 3 -2 0 0 0 0];
oriented        oriented;


internalField   nonuniform List<scalar> 
20673
(
-0.000321781
0.000799774
-0.000478015
-6.01895e-05
2.37893e-05
3.64129e-05
0.00245263
-0.00328833
0.000835701
0.000162884
-6.18997e-06
-0.000156699
0.000177732
-0.000199538
2.1831e-05
0.000744526
-0.000503591
-0.000240933
0.00248322
-0.0014535
-0.00102972
-0.000697973
0.0021216
-0.00142364
-0.000208457
0.000653943
-0.000445479
-0.000315533
0.00263849
-0.00232298
-0.000123025
-0.000839761
0.000962774
-0.000215318
1.1762e-05
0.000203548
0.000103364
2.99409e-05
-0.000160364
0.000130428
0.000402813
-0.00061304
0.000210244
0.000279418
-0.000445751
0.000166286
0.000293506
0.000416821
-0.000710333
0.000543203
-0.000477203
-6.60457e-05
-0.000101536
-0.000113805
-2.33446e-05
9.0336e-05
-6.69919e-05
-6.23776e-05
4.94543e-06
5.74299e-05
0.00177059
0.000712627
-4.99195e-05
7.7202e-05
-2.72786e-05
0.00196426
-0.00266223
0.000112028
-0.000147337
3.53042e-05
-0.00033126
0.00184878
-0.00151754
0.00085729
0.00240186
-0.00325917
0.000360355
-0.000588539
0.000228092
0.0138118
0.0168862
-0.0306981
0.000794479
-0.000742606
-5.198e-05
-0.000155527
-0.000927049
0.00108259
0.00102394
0.000590668
-0.0016146
0.00175077
0.000338167
-0.00208896
0.000901072
-0.00111831
0.00021726
-0.000253726
-4.12457e-05
0.000295002
-0.00210272
0.00171999
0.000382724
-0.000138712
8.87941e-05
-0.000613773
0.000665557
-5.17894e-05
-0.000157303
0.00035818
-0.00187738
-4.9272e-06
0.00188229
-8.37775e-05
8.109e-05
2.69077e-06
-1.09132e-05
-1.33727e-06
1.22513e-05
9.0645e-05
-2.75186e-05
-6.31272e-05
-0.0027055
0.0036583
-0.000952815
0.000142279
-0.000246559
0.000104283
0.00179707
-0.00103226
-0.00076472
0.000968007
-0.000424817
0.000219358
-9.58649e-05
-0.00012347
-0.000299702
-0.000181051
0.00048079
-6.3602e-05
3.62376e-05
2.73669e-05
-0.000422073
-0.000177754
0.000599814
0.000336362
-0.000855936
0.000519611
-0.00024042
-5.92476e-05
0.000648379
0.000252702
0.00022296
7.05473e-05
0.000263974
-0.000433612
0.000169601
0.00109623
-0.00121925
-0.000228325
-0.000207518
0.000435829
0.000182348
-6.03496e-06
-0.000176311
-0.000318021
0.000460306
-0.000754747
-0.000775431
0.00153016
-1.32044e-06
-5.88829e-05
2.99396e-05
-8.43795e-05
6.10332e-05
0.0012476
-0.000503094
-0.0074264
0.00774837
-0.000321923
-9.68429e-06
0.000142323
0.000123844
1.08123e-05
-0.00143671
0.000622741
0.000813974
0.00129908
0.00149053
-0.00278966
-2.66938e-05
0.000204442
0.000365884
-0.000574351
-0.000475337
-0.0004539
0.000929223
0.000179993
-6.79716e-05
-0.000381901
0.000559403
-0.000177523
5.74951e-05
-6.01196e-05
2.63574e-06
0.00119465
0.000408875
-0.00160351
-0.000344754
0.000253965
9.07615e-05
0.00139493
-0.00183736
0.000442422
-1.53637e-05
-0.000120238
0.000135601
-0.000220205
6.62674e-05
0.000153936
0.000160841
-0.00134091
0.00135906
-1.81024e-05
-0.000721902
0.000108128
-0.000208311
0.000281168
-7.28952e-05
-0.000180503
-0.00016426
-0.00016678
0.000222431
-5.56526e-05
-0.00311605
-0.00431032
-2.90571e-05
-0.000393017
1.49641e-05
7.5682e-05
0.000601974
0.00081756
-0.00141954
-0.00159354
-0.00158688
0.00318057
0.000111402
7.23825e-05
-0.000183826
-0.000210385
-0.000388589
0.000598967
-0.0025482
-0.000567825
0.000603234
-0.000842361
0.000239138
-0.000517151
-0.000181424
0.000698595
0.000200832
0.000607872
-0.00080866
0.000833735
-0.000518343
-0.000315423
-0.00109053
0.00255872
-0.00146817
-8.92502e-05
8.67623e-05
2.4887e-06
-0.00111709
0.00200618
-0.000889108
-0.000796441
-0.00190912
-0.000185729
0.000185924
-2.07022e-07
-5.85101e-05
-4.80655e-05
0.000106569
-0.00136534
0.000644155
0.000721191
-0.010104
0.00264778
0.00745611
0.000302524
-8.31673e-05
0.00102207
-0.000605234
0.000674275
-0.00163626
0.0009621
-0.000458367
-0.000833079
0.00129146
-4.35968e-05
-0.00183379
0.000412056
-0.000222746
-0.000189334
-0.000867752
-0.000497583
-0.000919431
0.00104203
-0.000122549
-0.00030279
-5.94544e-05
0.000362225
2.06076e-05
9.84543e-05
-0.000119055
0.000284061
-8.36287e-05
-0.000200444
-0.00181773
0.00226076
-0.000443035
-0.00031802
-0.000644352
0.000962411
3.11276e-05
-4.20417e-05
0.000170859
-0.00160759
0.000456169
0.00104077
-0.00149694
-0.000662674
0.00102293
-3.61186e-05
-1.83279e-05
5.44484e-05
1.78661e-05
-0.000228252
-0.000415083
0.000347252
6.7827e-05
-4.46041e-05
8.48517e-06
-1.3779e-05
4.70124e-05
-3.32303e-05
9.96331e-05
0.00074784
-0.00154641
0.000798562
-0.000582219
-0.000337193
4.14494e-05
-0.000288008
-6.3706e-05
1.32884e-06
-0.000325203
0.00148531
-0.00116008
-0.000779073
0.00274333
0.00051711
-0.000838836
0.000739456
-0.00183002
0.000148147
-5.82869e-06
-0.000620647
0.000302653
0.00217225
-0.00161425
-0.000558027
0.00011272
-4.74688e-05
-6.52418e-05
0.000188963
0.000529402
-0.000718332
0.000706854
0.000250353
-0.000957286
0.000102204
2.16425e-05
-0.000667786
7.45625e-05
0.000593206
0.00264141
0.00534347
-0.00798491
0.000105527
0.000230825
0.000105184
-3.63811e-05
-6.88136e-05
-0.00065508
0.000517309
0.000137845
-0.000117534
0.000600494
-0.000482987
-0.000976226
0.000673414
-0.00128134
0.000874397
0.000406972
-0.00743987
0.00669627
0.000743521
0.000260865
0.000134524
-0.000395344
-0.000387373
0.000490849
-0.000103502
-0.00010133
0.00140038
0.00245541
-0.0015329
-0.000922512
-0.000241564
0.0014362
0.00124796
-0.00157318
3.47999e-05
0.000376295
-0.000411055
-7.35534e-05
-0.000895704
0.000969305
-0.0001217
0.000130482
-8.78227e-06
0.000270794
-0.000787969
0.00016929
0.000242769
0.000396648
0.000437077
-1.71029e-06
-0.000184071
-0.000932014
-0.000489286
0.00142132
-5.52227e-05
8.2579e-05
-2.73667e-05
-0.000874181
-0.00024288
0.00349512
0.000550308
-0.00404543
-0.00117194
0.000550755
0.000621228
-2.86528e-05
-0.000206255
0.000234889
0.000347017
0.000333829
-0.000680842
0.00100608
0.000494973
-0.00150108
0.000914693
0.000232167
-0.00114691
0.00176616
-0.00101832
0.000249918
3.41657e-05
-0.000382227
-0.000285582
0.000343722
-7.58538e-05
-0.000267884
-0.000272484
-0.00132115
0.000271702
-0.000427216
7.75958e-05
3.513e-05
-0.000282422
0.000115641
-0.000230992
0.000732252
-0.000501277
0.00149359
-0.00182486
-0.00207867
-0.000967141
0.00304585
-0.000172657
-0.000214676
-1.26607e-05
-0.000219517
0.000232178
0.000553988
-0.00051679
-3.72027e-05
-0.00257917
0.000836511
0.00174263
-0.000142379
-6.59788e-05
-0.000879497
0.00215668
-0.00127713
5.42568e-05
0.000114537
-0.000168797
-0.0010872
0.0011693
-8.21309e-05
0.00259211
-0.00173475
6.73874e-05
-6.73857e-05
-0.000128164
0.000239552
-0.0020038
-0.00184139
0.00384508
0.00161404
-0.00273609
0.00112207
-0.000527369
0.000311782
0.000215538
-3.25652e-05
-3.10362e-05
0.000477606
-0.000809984
0.000332393
0.000265277
-0.000382836
-0.000999069
0.000523724
-0.00213889
0.00157223
0.000566649
4.15531e-06
-0.000257878
-0.000342732
0.000114409
-0.000220572
0.000421432
0.00149071
0.00114536
-0.00263608
-0.000103359
0.000292337
0.00256461
-0.00124575
-0.00131886
0.000598336
0.00034088
-0.000939228
4.39468e-05
0.000510042
-0.000118383
5.98744e-05
-0.00581358
0.00900809
-0.00319467
7.58626e-05
0.00017551
-0.000251398
-0.00098344
-0.000202965
0.0011864
-0.000171384
0.000123596
4.77847e-05
0.00171613
-0.00247095
-0.000368573
0.000712278
0.00112592
0.000175145
-0.00130105
-2.74623e-05
-5.63146e-05
-1.3694e-05
0.000736512
-0.000722818
-0.00137463
0.000589681
0.000784943
-0.000173621
0.00045301
0.00244479
0.00296964
-0.00541445
-0.000117642
0.000378487
-6.06387e-05
-5.77513e-05
-0.000704131
-0.0013986
-0.000197921
0.000169281
-0.000257033
0.000244339
-0.00347413
0.00225931
0.00121483
0.000814247
-0.000215911
-6.45819e-05
6.78049e-05
-3.21896e-06
0.000973065
5.08705e-05
0.00160133
-0.000999339
-0.000253922
6.06573e-06
0.000247833
-0.000148381
2.66813e-05
-2.33414e-05
0.000102702
-7.93574e-05
-0.00153425
0.000413442
-0.000781021
7.24276e-05
0.000708577
4.03747e-06
-2.04509e-07
-3.83149e-06
0.00175516
-0.00153626
-0.000218903
-0.00100943
0.000342816
0.000666641
-0.000443686
0.000370167
-0.00216283
0.0023109
-0.000148112
4.08423e-05
8.96392e-05
0.00135527
-0.000406222
-0.000949165
0.00127653
-0.00126899
-7.54978e-06
-0.000173573
1.7018e-05
0.000156555
-0.00256624
0.00055588
0.00201032
-0.00239282
0.000908786
0.00148405
-0.000424586
9.51553e-06
-9.01455e-05
-0.000117352
-0.000647072
0.000472065
0.000174978
0.000569042
0.000992479
-0.00156154
-0.000557235
-0.000724098
0.00113926
-0.00137027
0.000334098
6.87312e-05
-6.76739e-06
6.89413e-06
-1.25029e-07
-0.00101242
0.00146859
-0.00150037
-0.000474745
0.00197508
-0.000349814
0.00138108
-0.00103129
-9.61042e-05
3.54745e-05
-0.000371027
0.00024823
0.000122796
0.000267722
-0.000402374
0.000134651
0.00154209
0.000913313
0.00184778
-0.000452846
-0.000435837
0.000493353
-0.000179362
6.18221e-05
-8.80161e-05
2.61947e-05
-0.000690576
0.00028385
0.000406721
-0.00031351
-0.000912777
0.00122629
0.00132146
-0.00173948
0.000418021
-0.000280823
0.000463155
-0.00128115
-0.000857736
9.07264e-05
-0.000309204
-2.8534e-05
-1.32259e-05
4.17603e-05
-0.000405643
0.000173521
0.000232198
-4.68976e-06
6.71105e-05
-6.24211e-05
-0.000102785
0.00110886
-0.000357563
-0.000169857
3.04754e-06
9.91355e-07
0.0003602
-0.000558142
0.000197918
-0.006198
-0.0012419
-9.23289e-05
-0.000803394
-3.0384e-05
0.00178553
0.000746845
-0.000640911
-0.0001059
0.000188358
0.000107543
-0.000295893
0.000522914
0.000495597
-0.0010185
-0.00248749
-0.000986652
-0.00171632
0.00021591
-0.000206395
3.50101e-05
0.00222157
-0.00302894
0.000807361
-0.000273352
0.000309327
-3.60001e-05
-0.000165791
0.000354141
-7.79365e-05
9.85454e-05
0.014494
-0.0118525
-2.52639e-05
5.31016e-05
-2.7837e-05
-0.000567864
0.00169375
-0.000569433
-0.00159343
-0.000139802
8.45759e-05
-0.00025169
0.000729312
-0.00038375
0.000471892
-8.81509e-05
-0.000446148
0.000191024
0.000255168
0.00529247
-0.00437782
1.39101e-05
-0.00160103
-9.53804e-05
-8.62357e-06
0.000104002
8.04067e-05
-0.000170574
-0.000212433
0.00115867
-0.000946223
0.00141521
-0.000897695
-0.00051752
-2.54544e-06
0.000101003
-3.92329e-05
7.46315e-05
-3.53956e-05
-0.000366574
-3.91015e-05
-0.000236664
0.000136998
9.96804e-05
0.000633466
-0.00108738
-2.26338e-05
-7.27525e-05
0.000750263
-0.00076396
-5.93914e-05
-0.000277918
0.000337347
0.00041285
0.00112907
-0.00154199
0.000133334
-0.00108685
0.000953516
0.00122467
0.00127837
-0.00250304
-0.000195693
0.000230519
0.00204799
-0.000800031
0.00416143
-0.00345252
-0.000708986
0.000492214
-0.00013199
-0.000937471
0.000156446
0.00267649
0.0059636
-0.00864016
0.00033704
-0.000187819
-0.000149213
-0.00091657
-0.000227873
0.00114444
-0.00040752
-0.000679687
-0.000248279
0.000515999
-0.00161878
-0.000450192
0.00206896
-0.00248911
-1.37942e-05
0.0025029
2.15809e-06
-0.000609204
0.000606956
0.000763122
-0.000552939
-0.000210218
0.00195631
0.00220512
-0.0096719
-0.000964744
0.0106367
-0.0017026
-0.00796926
0.00232682
0.000125802
-7.17071e-05
-0.000129111
0.000200819
-0.0013284
0.00482357
0.00102561
-0.00148397
0.000350138
-1.80798e-05
-0.000332051
0.000533917
0.000399202
-0.000933096
5.50181e-05
-0.000215392
0.00673853
-0.00874239
7.19176e-05
0.000279094
-0.000350994
-0.000605619
-0.00197356
0.0272142
-0.0134024
-9.30444e-05
3.47806e-05
5.82723e-05
-0.00222534
0.000407611
0.0010099
0.000899421
-0.00190935
-6.22017e-05
5.751e-05
0.000132461
-2.67284e-05
-0.000105729
-0.00027212
-1.22674e-06
6.18001e-05
4.33736e-05
0.000803455
-0.000280594
0.000661871
9.00918e-05
-0.000751976
-0.00385235
-0.005107
0.00895929
-0.00131516
0.00110273
-1.65688e-05
-0.000122082
0.000138652
-0.00373864
0.00117237
-0.000163733
0.000205953
-4.22328e-05
-3.09672e-05
-0.000362415
0.000393303
0.00111111
0.00113483
-0.00144834
-0.000730467
-4.27565e-05
-3.44462e-05
7.72024e-05
-0.00130978
0.000959955
8.37605e-05
-0.000112137
2.83737e-05
0.000223966
0.00149216
-0.000366688
4.86702e-05
0.00082384
0.00040084
-0.000862235
-0.000147208
0.00048255
-0.000371422
-0.000111124
-0.000109515
-7.29702e-05
0.000182482
0.000230191
-0.000450776
0.000467706
-0.000740199
0.00107109
-0.000215129
-0.000855982
-0.00118961
0.000385028
0.000804566
0.000756628
6.47187e-06
-0.000945104
-3.83511e-05
0.0016409
-0.000285635
-0.00072359
0.000408026
5.18509e-05
-7.51869e-05
-0.000306446
5.25204e-05
-0.000968517
-0.00102229
0.0019908
-0.000160816
0.000137515
2.32971e-05
0.00150868
0.000539293
-0.00014546
9.97619e-05
4.56978e-05
-0.000384111
0.00085493
-0.000470848
-0.000272709
0.000213318
0.000106462
-0.000178176
-0.000283893
-0.000135815
0.000419698
-0.0015071
0.000873795
0.000633294
-0.000149192
-0.000134686
-0.00137137
0.00194039
-0.000787843
0.000291865
0.000495896
-0.000870792
0.000693523
0.000177237
0.00410391
-0.00194805
-0.00215603
0.000138082
0.000198977
-0.00415436
-0.00165923
0.000651383
0.000117939
-7.1172e-05
-4.67682e-05
-0.00336559
0.000160753
0.000189378
0.000118094
-6.23019e-05
-5.57848e-05
0.00154856
-0.000754087
-1.04376e-05
3.66875e-06
5.62455e-05
8.07093e-05
-0.000136943
8.7657e-05
-3.8976e-06
0.000248257
0.00055521
-7.90371e-05
6.36699e-05
-0.00235831
-0.000130802
0.00122878
6.98988e-05
-0.00129869
0.000222782
-0.000239181
1.63512e-05
-0.00047944
-0.00040002
-0.000160743
-0.00194429
0.00210502
-0.000604564
5.40167e-06
0.000599159
5.35097e-05
-8.44974e-05
-0.000130856
0.000114285
0.000685459
-0.00128327
0.000597869
4.92082e-05
-0.000206518
0.00122631
-0.000475569
-0.000750852
-2.35575e-05
7.78086e-05
0.000279642
0.00208997
-0.000599261
0.000143334
0.0010854
-0.00048547
0.000414655
7.08129e-05
0.000792994
-0.000330582
-0.00046239
-0.00154074
-7.79886e-05
0.000113289
0.000244932
0.000966582
0.000104485
0.000472694
-0.000318328
-0.000154359
0.00180812
-0.00118912
-0.00061901
0.000130221
0.000891858
-4.9611e-05
2.4347e-05
-0.000301041
0.000934508
0.0011604
0.000605758
0.00191094
-0.000750547
0.00213163
-0.000380891
-0.00175072
0.000192329
3.04743e-05
0.000314068
-0.00123064
0.000341896
0.000623878
-0.000965768
0.00141585
-8.37875e-05
-0.00133206
-3.09568e-06
4.27858e-05
-3.96862e-05
2.43017e-05
-0.00087118
0.000846831
0.000130997
0.000341692
0.000104947
0.000134052
-0.000238996
-0.00121121
-0.000202463
0.00141365
0.000277425
-1.38291e-05
2.79297e-05
-1.41006e-05
0.000513433
-0.000722647
0.000209193
0.00073674
-0.000729463
-7.37174e-06
0.00141342
-0.00107058
-0.000342831
0.00017894
-6.1e-05
0.00181591
-0.00180734
-8.61103e-06
-0.000276147
0.000735097
-0.000458992
0.00242508
-0.00370323
0.00127818
0.000107871
-0.00215518
0.0020473
-7.40941e-05
-0.00016343
2.61756e-06
5.19278e-05
1.54622e-05
-0.00215932
0.00205808
4.74023e-05
-9.01551e-05
-0.00134226
-0.000189281
0.00153152
0.00217969
-0.00603204
-4.43289e-05
0.000791211
0.000156389
-0.000317131
0.000160706
-4.58871e-05
0.000309835
-0.00105622
0.00132703
-0.000661976
0.00100388
-0.00560198
0.0109454
-0.000361306
-0.000509459
0.00119113
0.000981113
0.000220109
0.00159578
0.000382323
0.000680005
-0.00106234
0.00212887
-0.00026428
-0.0018646
-0.000523316
5.76958e-05
0.000465658
-0.000857595
0.000932656
-7.50912e-05
-9.3287e-05
0.000288867
-0.000312732
2.38276e-05
0.000475552
-6.73295e-05
-0.000408209
-3.85575e-05
4.10149e-05
-2.45453e-06
0.000938563
-0.00146585
0.000527265
0.000335987
-0.000133539
-0.000202424
6.50812e-05
8.2872e-05
-0.000147957
-0.000892739
-0.00126671
-0.000139708
1.85274e-05
0.000121156
5.18698e-05
0.00136155
-0.000100453
-0.000767305
-0.000238405
1.74746e-06
-3.4737e-05
6.2034e-06
-0.00130349
-0.000736827
0.00204033
-0.000642121
3.75552e-05
1.0221e-06
5.87328e-06
-0.00215368
0.00226155
-0.000190826
-6.31622e-05
0.000253993
0.00169866
0.00105574
-0.00275445
0.000867478
-0.000333874
-0.000533599
0.000467624
-7.68948e-05
-0.000390729
-0.000683134
-0.00143296
0.00211611
-0.000867362
0.00021234
0.000437176
-0.000354338
-8.28569e-05
0.00217947
-0.00234024
0.000867333
-0.00294601
-0.000296873
0.000296901
-3.23958e-08
-9.97161e-06
-4.65167e-07
0.000298553
-0.00110187
0.000803297
-0.000196217
0.00126836
-0.000674654
-0.000593744
-9.9857e-05
0.000164925
7.96948e-05
0.000201466
-0.00120769
0.00144743
-0.0002398
-0.000363333
0.000144065
0.000219252
7.84077e-05
5.40498e-05
-0.000255003
-0.00028969
0.000544677
-4.34825e-05
-0.00131469
0.000930547
1.71642e-05
-3.09887e-05
-0.000130872
0.000104145
5.79977e-05
-4.96329e-05
-8.36437e-06
5.43376e-05
3.66122e-06
-0.000203081
-0.000167938
3.66136e-06
-0.00121489
-0.000309822
0.000629023
0.000969268
-0.00159828
7.26004e-05
-1.0776e-05
-4.34889e-05
-4.57592e-05
-0.000111958
0.000904943
0.000399648
0.000784317
-0.00118398
0.000533533
-0.000862293
0.000328749
-1.11162e-05
9.36852e-05
9.10919e-05
2.69939e-05
-4.17836e-05
3.59088e-05
5.86982e-06
0.000901847
-0.000333674
0.000191241
-0.000103257
0.000105437
-2.17872e-06
3.56111e-05
-6.16059e-05
2.5992e-05
0.000498328
-0.000631923
0.000108595
-0.000467876
0.000601202
-1.92083e-05
-0.000144227
2.18397e-05
0.000128458
-0.000150244
0.00124218
-0.00120957
-3.26836e-05
-0.000468336
0.000943916
0.00892075
-0.0062443
-0.000338101
0.000831167
-0.00014571
5.50569e-05
0.00070665
-0.000761724
-0.00054898
0.00212123
-9.91817e-05
0.000113204
0.000120859
6.0184e-06
-0.000126874
0.000965819
0.000310702
1.22258e-05
0.000218973
0.000314922
-0.000150981
0.000337109
-0.000186142
5.52598e-05
0.000883286
-0.00258329
0.00466435
-0.0020811
-1.50251e-05
5.60954e-05
-4.10681e-05
0.000528687
0.00189634
0.00184079
-0.000134376
-0.00170649
-0.00100605
0.000119289
0.000886697
-0.000427111
0.000482168
-0.000110651
0.000682777
-0.000572131
0.000758626
-2.1926e-05
0.000147646
-0.000257166
-0.00153825
-0.000178118
0.000941504
-0.00171375
0.000528567
0.00118518
-0.000900306
0.00103053
-4.44605e-05
0.000462905
-0.000418443
0.0014963
-0.000527016
-0.0001606
0.00129543
0.000208762
-0.000208763
0.000824287
-0.000216399
0.00375995
-0.00162832
-0.000245477
-0.000200289
0.00015416
-0.000232521
7.83827e-05
3.78461e-05
-5.70542e-05
-0.00237389
-0.000950181
0.00332406
-8.95663e-05
0.000403297
0.000531354
-0.000455495
-0.0016534
-0.000212408
-0.00150135
-7.49388e-05
-0.000221957
-0.000676086
7.80993e-05
0.000597993
-0.00108831
3.20878e-05
0.00213464
-0.00281777
-0.000430949
0.000900107
-0.000469133
-0.000149119
0.000373673
-0.00022454
-0.00352739
0.00300699
0.000520358
-0.0024121
0.000686371
0.00172572
-2.7438e-05
-0.000522934
0.000550362
0.00237139
-0.00244254
7.11705e-05
-4.0551e-05
2.67755e-05
-0.00174762
-0.000477723
-0.00010361
-7.03591e-05
5.53348e-05
0.000115377
-0.000187259
7.18682e-05
0.00126235
-0.000498982
-0.000763378
-0.000464983
0.0022157
0.000110208
-0.000852739
0.00177594
-9.30282e-05
-0.00168291
0.00137723
0.000751672
0.000641814
-0.000159176
-0.000482652
0.000121111
-0.00165938
0.000338461
-0.000134262
-0.000204227
0.00144096
-2.51292e-05
-0.000123115
-2.52664e-05
-0.000147974
4.47172e-05
-0.00021866
0.00244022
-0.00100189
-0.00141021
-0.000613514
0.00311075
-0.00249727
0.00027498
6.34536e-05
0.000294378
5.26466e-05
-1.18685e-05
4.748e-05
0.000305112
-0.000214351
-0.000562955
-5.79878e-05
0.000454642
0.000253142
-9.89913e-05
-0.000727738
0.000366389
0.000405701
0.000713561
0.000153902
0.00174435
0.000700396
-0.000664805
0.000606833
0.00178577
-4.55966e-05
-0.00174023
-0.000125047
0.000163189
-3.81403e-05
-0.000419621
-0.000480869
0.000900548
0.000114242
-0.000663505
-0.000124404
0.00071822
0.0019202
-0.000651972
-0.00193134
-0.000240325
0.000195844
-4.95687e-05
7.32953e-05
-2.3724e-05
0.000134774
-0.000124117
-1.06678e-05
0.000234074
0.000113187
-0.00314562
0.00716009
-0.0040144
4.67035e-05
0.00175033
0.00137446
-0.000195765
-0.00117872
-0.00633602
0.0051465
4.97767e-05
-0.000981786
-1.55602e-05
-7.74787e-05
0.00300738
-0.0015267
-0.00148076
-0.00228919
0.00167564
0.00122693
-0.00197082
0.00074388
-0.000177181
3.61856e-06
-0.000222295
0.000764665
-0.000542375
-8.99976e-05
-4.08753e-05
-0.000356151
0.000126785
0.000229346
-0.000154916
0.000148858
-0.00099912
-0.000208565
-0.000114116
-6.12424e-06
0.0045837
0.00039971
-0.000576226
0.00017649
-0.00124336
0.0004036
0.00174275
-0.000831759
-0.000911032
0.000227294
0.000578264
-0.000805558
0.00195003
-0.00495721
0.00300719
5.22712e-05
-0.000307268
0.00132007
-0.00134375
2.36802e-05
4.16764e-05
0.000167108
-2.80267e-05
-0.000256824
0.000284846
-4.08411e-06
-0.000146884
0.00195194
-0.000856017
-0.00109591
0.000890413
0.00148094
0.00172198
-0.000400495
-1.73361e-05
9.57016e-06
7.76854e-06
0.000298305
0.00013887
0.000809021
0.000320053
0.000140634
0.000341905
0.000396386
-0.000611549
-0.000121272
-0.0005258
2.00432e-05
0.000114708
9.7278e-05
0.000445112
-0.000542409
-0.00102903
2.97078e-06
0.000219422
-0.000222401
-0.000190668
0.00031037
-0.000119712
6.81978e-05
-4.42546e-05
-2.39435e-05
0.000770595
0.000644619
-8.16522e-05
1.79449e-05
-7.12555e-05
-0.000414277
-0.000431763
-0.00074018
0.000463431
0.00014074
-0.000604163
-0.00211813
0.00111622
0.000749838
-0.000615248
0.00123918
-0.000901027
1.85646e-05
-0.000540757
-0.00321649
0.00375719
-3.91947e-05
-3.87407e-05
0.000324376
0.000378322
-0.000702715
2.99098e-05
-7.43295e-05
4.44206e-05
-0.00202415
-0.00435507
0.00637919
3.81186e-05
-0.000228936
-0.000120422
-0.000155767
0.00574639
-0.0107685
0.00502207
-0.000627487
0.00102713
-6.49298e-05
-2.45106e-06
-0.000202088
-0.000671463
0.000572194
0.000867404
0.000433962
-0.00130137
0.000295334
-0.000230234
-6.51063e-05
-0.000489708
0.00107887
-0.000589177
-0.000549508
7.22762e-05
6.07344e-05
2.99974e-06
-6.37165e-05
-0.000254384
0.000502584
0.000549442
0.00256129
0.000787021
0.000998765
0.00174362
-0.000369176
0.000217569
0.000296356
-0.000513937
-0.00183293
0.000589655
0.00124329
0.000408583
0.00086409
-0.00127262
-0.000116691
-0.000192493
0.00148814
0.000296909
-0.00178506
0.00274226
-0.00458381
-0.000376166
-0.000173361
0.00392016
-0.00322759
-0.000692536
0.000367024
-0.000552411
0.000185404
0.00018269
-0.000384677
0.000201984
0.00064032
0.000622042
0.000156914
0.000335301
1.47718e-05
0.000149051
-0.000163815
0.000121641
-0.000477822
0.00109607
-0.000421754
-6.55259e-05
0.000582817
-0.000219387
0.000124518
9.48643e-05
3.33673e-05
0.000439304
-0.000223474
-0.000215828
0.000376904
5.53566e-05
-0.000432274
-0.000700619
0.00109697
0.000138114
-7.73761e-05
2.33355e-05
-2.25604e-05
-7.69678e-07
-8.95423e-05
7.89193e-06
3.38597e-05
-5.77053e-05
2.38614e-05
-0.000141524
0.000137854
3.67316e-06
-0.00113987
0.00107755
6.22437e-05
5.99563e-05
-3.16752e-05
-2.82819e-05
0.000585443
-0.000117824
-1.67826e-07
0.000268025
-0.000267815
0.000570531
-0.00506539
4.96099e-05
-6.88739e-05
1.92727e-05
1.81946e-05
-2.70706e-05
8.87676e-06
-0.00359618
0.00131049
0.00228565
0.000462594
-8.02773e-05
-0.000100504
-6.70476e-05
0.000167544
0.000550133
-0.000176421
-0.000373727
-0.00105577
0.00227284
-0.00121715
-0.0026499
0.00287384
0.000521357
0.00115229
-0.000661337
-0.000490946
-3.14364e-05
0.000114141
-8.26847e-05
2.6298e-05
-5.30056e-05
2.67079e-05
5.01846e-05
4.155e-06
-0.000376178
-7.56755e-06
-0.000344531
0.000287074
5.74983e-05
-1.71666e-05
3.53614e-05
-0.00086248
-0.00039305
0.00125558
-0.00156161
0.000421738
1.67676e-05
-0.000180547
-0.00638947
0.00345492
0.00293449
-0.000237218
-0.000818677
-0.000447133
-0.000796246
-4.88881e-05
-1.29093e-05
6.18068e-05
-8.98806e-07
8.99448e-07
-0.00010171
2.95702e-06
-3.34684e-05
3.05026e-05
-0.000107768
0.000250776
-0.000143013
-0.000694362
0.000835566
-0.000141208
-0.000408475
0.000742305
0.000309056
-0.000261185
-4.7879e-05
0.000438888
-0.000173002
-0.000265862
-7.8281e-05
-1.33816e-05
9.16681e-05
2.81042e-05
-3.40332e-05
5.93252e-06
-0.000276646
0.000927838
-2.51916e-05
0.000320524
-0.000705881
-0.000144052
0.000849881
-0.000136874
0.000139843
6.42283e-05
1.68641e-05
-0.00126625
0.00110565
-0.00484818
0.000221446
-0.000333956
0.000112546
-0.000812081
-8.82258e-05
-7.68737e-06
0.000557844
-0.000795078
0.00262861
-0.00183353
0.000989071
0.000134972
-0.00112404
-0.000891245
0.000780557
0.00031494
-0.000132243
-4.37774e-06
-6.02015e-05
3.61247e-05
-8.0188e-06
0.000412841
-0.000123971
-0.00127533
0.000701361
-0.000113917
-0.000587459
0.000197073
-0.000647332
-0.00102522
0.000797349
0.000115732
-0.000124882
9.12042e-06
1.77971e-05
-9.76078e-05
7.98095e-05
-0.000858523
0.00103739
-0.000178876
-6.48929e-05
-8.05606e-05
7.50536e-05
0.00026096
3.77656e-05
-0.000130479
9.27174e-05
3.80087e-05
2.06154e-05
-5.86237e-05
-0.000953954
-0.000682239
-0.00123333
0.00114099
-6.32083e-05
-0.000376
0.000439219
-0.00126488
-0.000853259
-8.56235e-05
0.00184954
-0.00176393
0.00492333
-8.5538e-05
-7.0673e-05
0.00010937
-3.86923e-05
0.000400361
0.000210293
-0.000610633
-0.00141146
-1.22988e-05
2.3272e-06
-0.00205156
0.00200598
4.55937e-05
-1.12761e-05
-5.93869e-05
0.000169022
-6.89854e-05
-5.37756e-05
0.000122759
-1.02264e-05
0.000152138
-0.000141905
-0.00131106
-9.30531e-05
-0.000128407
0.000221482
-0.00211283
0.000577518
0.000597894
-0.000604709
6.79718e-06
6.90474e-05
-1.6227e-05
-5.28186e-05
7.377e-05
-3.27173e-05
-4.1043e-05
-0.000337818
0.000113125
0.00022472
4.92797e-05
-4.18858e-05
-7.39227e-06
0.000189268
-0.000379906
7.21514e-05
0.00131396
-0.00138618
0.000150318
-0.000175556
2.52559e-05
5.26551e-05
5.40872e-05
-0.000106754
2.14849e-05
-0.000465869
0.000444385
0.000558573
-0.000484027
0.000273288
0.000368492
0.00113914
-1.80736e-05
-0.000461801
0.000479869
7.57662e-05
-0.000398065
0.000322305
0.000140155
-5.31679e-05
-8.6972e-05
-0.00086435
-0.000167911
-0.000700526
0.000202673
-0.00222698
0.000198309
-3.81021e-05
-0.000160201
-1.1507e-05
-0.000342834
0.000699641
-0.00118934
-0.000146759
7.25582e-05
7.42683e-05
0.000452458
-0.00128104
0.000828578
-2.04971e-05
-0.000682722
0.000225732
-0.00112343
-0.000320236
0.000388636
-6.84378e-05
-0.000170842
-9.6331e-06
2.32949e-05
-6.19901e-05
3.87004e-05
-0.000377546
0.00181318
-0.00143568
0.000132746
-8.34594e-05
0.00177779
-0.000289649
5.37632e-05
-3.57572e-06
-0.000132867
3.98242e-05
6.89603e-05
-1.93503e-05
0.000521386
-0.00027317
-6.89864e-05
-7.25317e-05
0.000143009
9.26884e-05
-0.000815377
3.44655e-05
0.000124262
-0.000158736
0.000554753
0.00114389
0.000427982
0.000417743
0.000132361
-0.000173094
4.07577e-05
0.000351185
0.000780163
-0.00113132
-7.95777e-05
9.87356e-05
-1.91579e-05
-0.000862706
0.000129972
-3.31963e-05
-9.67819e-05
-2.68717e-05
-0.000303141
0.000278832
2.42986e-05
-0.000116437
5.91615e-06
0.000957613
-0.00151365
0.00162009
-0.000106445
0.00199193
-0.0032723
0.00128036
0.000146365
-0.000368673
-0.000724503
0.0017344
0.000666056
-0.000929096
0.000263038
2.3875e-05
5.65379e-05
0.000134485
-0.00188211
-0.00130686
0.000531411
0.00102893
-0.00036287
0.000448914
0.00175822
-0.00220714
0.000404891
-0.000383408
-9.07041e-05
-0.000915247
0.00175008
0.00125731
-1.12122e-05
-0.000278481
-6.14191e-05
-0.000205195
-0.000115023
0.000890197
-0.00185871
6.44036e-05
-0.000164299
-2.54045e-05
9.7795e-05
0.000217472
3.96162e-06
2.58586e-05
0.000445119
-0.000322072
-0.000123023
-0.000451515
0.0002679
0.000183634
-0.00080269
0.000830827
-2.81413e-05
0.000118032
-0.000143448
3.24836e-05
-6.85231e-05
3.60393e-05
-5.72234e-05
0.000236964
-0.000179768
-0.00384135
-0.000716919
0.00455822
-0.000110689
-0.000227112
0.00272433
-0.000565568
0.000475072
9.04839e-05
-0.000294015
1.20924e-05
0.000281909
0.00367005
0.00207644
0.000863435
0.00186095
-0.000127847
-2.19942e-05
0.000149856
0.000315026
-0.000280562
0.00173183
-0.00181745
-0.000927421
6.88875e-05
2.20162e-05
-0.000105598
5.26945e-05
-0.000121685
-0.000337599
0.00120493
0.00193366
-9.28499e-05
-0.000142825
0.000129609
1.32343e-05
0.00128932
-8.39083e-05
4.00418e-05
4.3902e-05
-0.000196873
0.000134539
-0.000165994
0.000338217
-0.00022249
1.76591e-05
2.15298e-05
5.57116e-05
2.87335e-05
-3.1827e-05
0.00011426
0.00112793
0.000703444
-0.000294871
-0.000225618
0.000227766
-2.19698e-06
-0.00143965
0.00151803
-7.84333e-05
0.000237217
-9.4222e-05
0.000821702
0.000353738
-0.000882248
0.00052852
-0.000154178
7.45938e-05
0.000310238
-0.000384845
-0.00108421
-0.000190642
0.00127485
-6.13468e-05
-7.84548e-05
-0.00015571
4.79599e-05
0.0014917
9.80162e-05
-0.0015896
-3.58221e-05
0.000192161
-8.66916e-06
9.12661e-05
-0.000216315
-0.000910393
0.00232478
-0.00141439
0.00107036
-0.00179489
-0.0017742
0.00210944
-0.000335231
-0.00105589
0.000616796
0.000439033
0.000149334
0.00157064
-0.000208844
-2.96307e-05
0.000238475
0.000586084
0.00174043
-0.00232655
-0.000135706
0.000210304
2.95565e-05
2.19277e-05
-5.14822e-05
-0.00025967
0.00011056
-0.00194153
0.000599247
-0.00011145
0.00110055
-1.81271e-05
-0.000132459
0.000150599
1.5795e-05
5.79776e-05
-0.000235523
0.000273303
0.00115687
7.3298e-05
0.000196309
-0.000365158
0.000168825
-0.000114049
0.000117008
-0.000923431
0.000995361
0.00141724
-3.21798e-05
0.000164555
0.00100439
-0.00395419
0.00385497
9.90886e-05
-0.00127162
-0.000811749
0.00208336
-0.00015192
-0.000272666
-0.00519618
0.00151854
0.00367765
-0.000105253
-0.000570832
-0.000664642
0.000587752
0.000727748
-0.000374001
-0.00122912
0.000396077
-0.00100291
0.000984832
-0.00108357
0.000706025
4.81435e-05
-0.000671719
-0.000835373
0.000123337
1.2514e-05
-0.000395486
-3.81272e-05
-0.000109791
0.000922441
-0.00081251
-0.000349235
-0.00217974
0.000876252
0.000891215
-0.00166078
0.000769551
0.000670779
-0.00104548
0.000374725
0.00166261
-0.00211972
0.000457143
-4.88569e-05
-3.10339e-05
7.98934e-05
-0.00168736
0.00143188
0.00025545
-0.000155969
0.000145754
6.67294e-05
9.01817e-05
0.00203306
-0.000681482
-0.00135159
6.47185e-05
4.02315e-05
0.000120553
2.77941e-06
-0.000210835
-0.0002658
0.00047662
0.000103709
-9.61532e-05
-7.58593e-06
-0.000234096
8.45912e-06
4.66715e-05