/*--------------------------------*- C++ -*----------------------------------*\
| =========                 |                                                 |
| \\      /  F ield         | OpenFOAM: The Open Source CFD Toolbox           |
|  \\    /   O peration     | Version:  v2012                                 |
|   \\  /    A nd           | Website:  www.openfoam.com                      |
|    \\/     M anipulation  |                                                 |
\*---------------------------------------------------------------------------*/
FoamFile
{
    version     2.0;
    format      ascii;
    class       volScalarField;
    location    "350";
    object      ReThetat_0;
}
// * * * * * * * * * * * * * * * * * * * * * * * * * * * * * * * * * * * * * //

dimensions      [0 0 0 0 0 0 0];


internalField   nonuniform List<scalar> 
13917
(
633.665
613.019
39.0047
560.167
564.792
238.491
35.2108
40.2596
34.8645
645.613
479.578
534.699
564.764
32.0033
576.503
595.204
609.906
546.755
528.192
589.334
583.092
34.3599
588.884
43.3448
566.067
34.8391
336.138
324.897
364.23
654.498
638.426
626.714
362.601
407.21
551.418
753.75
588.912
32.0246
546.613
30.6775
596.544
583.216
606.6
311.045
618.201
389.342
528.866
481.162
231.904
592.571
603.248
473.02
229.759
401.601
607.881
633.883
474.525
587.043
632.658
617.344
41.451
615.118
32.012
589.296
241.375
143.39
558.55
534.606
427.287
619.614
563.776
36.5579
32.2109
571.677
228.914
494.026
32.2172
624.607
34.8362
582.795
585.822
560.155
247.995
32.068
36.1749
624.216
586.499
224.13
594.825
607.002
32.3418
654.463
611.216
558.304
208.03
241.803
446.261
484.186
560.631
287.069
601.169
367.923
301.93
622.282
606.083
36.2925
431.103
484.143
611.231
638.011
32.2418
30.6515
511.259
35.266
438.162
228.098
590.501
229.582
31.1451
408.721
583.954
426.717
31.3792
328.046
594.781
567.558
618.495
593.953
605.696
236.724
30.7389
446.392
618.658
582.692
247.958
44.349
632.04
281.593
560.17
403.919
573.565
609.652
474.989
293.533
534.707
45.6451
424.302
477.578
609.1
622.795
538.973
227.6
485.698
599.312
634.837
47.5145
618.287
399.375
32.1863
257.235
443.256
337.996
585.359
450.028
504.794
562.73
620.99
487.802
615.418
364.268
607.902
32.4681
514.685
607.521
60.0145
590.855
30.7061
230.417
49.8395
604.328
653.497
639.646
610.213
586.515
544.32
36.621
671.21
50.5019
624.182
543.658
451.152
36.7315
638.842
586.426
275.903
341.583
585.71
611.077
482.886
409.32
568.56
591.79
495.277
533.676
32.1907
408.035
558.458
586.532
491.895
38.1511
483.358
34.9046
32.1489
534.912
605.426
280.542
500.867
32.0899
594.076
47.5687
603.214
615.603
597.099
32.2857
35.5632
595.362
530.751
635.481
604.9
800.378
512.431
620.843
44.0512
32.1282
601.942
628.043
32.3883
37.4636
584.832
596.029
31.0038
442.474
584.929
558.847
482.048
343.834
635.005
585.643
568.896
32.1615
606.548
661.061
276.955
617.999
586.254
490.658
30.9485
489.03
547.875
580.196
584.857
31.5204
39.633
674.978
604.665
32.1224
32.05
249.526
34.1589
498.096
585.13
595.59
521.522
32.2955
441.771
631.738
324.534
498.727
605.749
57.0931
589.811
55.7804
562.908
585.126
594.189
595.315
337.748
587.225
586.864
611.336
558.84
45.2618
36.5029
594.076
198.026
572.546
610.808
590.087
420.713
589.301
613.493
633.093
614.707
478.88
622.601
229.987
591.572
653.561
612.737
587.089
32.2868
31.5865
591.73
596.196
66.9083
606.341
32.2333
612.033
32.3472
579.987
639.697
536.352
219.769
456.004
380.556
281.167
597.029
445.578
513.872
590.823
31.3073
278.559
32.069
411.92
31.0021
631.242
33.2737
284.805
523.263
533.77
36.5312
581.075
610.869
32.2701
544.007
600.133
31.9937
470.555
612.186
421.969
355.687
599.465
31.3192
556.51
590.067
600.07
570.872
608.986
513.746
53.3398
244.233
32.315
581.067
663.802
39.2214
517.224
34.1864
32.3594
34.7761
602.218
618.015
601.962
55.4759
617.293
219.577
492.258
550.223
578.824
495.033
641.913
481.658
210.238
33.1644
32.0986
571.811
644.145
596.291
37.727
33.8552
593.051
548.203
570.878
420.418
577.857
582.237
620.519
36.1411
618.987
31.1677
61.7653
511.476
254.125
594.143
278.891
266.166
591.435
446.502
565.737
571.705
649.733
585.073
568.28
600.973
482.885
583.234
30.8814
39.7885
45.5181
646.218
30.8201
32.0611
507.268
582.171
487.093
541.275
628.797
587.146
47.9491
35.8936
42.328
585.986
474.49
417.603
534.844
491.517
613.28
678.817
611.174
589.251
32.2522
30.666
30.6701
650.929
43.2004
31.2473
32.105
32.2103
604.965
510.61
615.184
584.521
467.49
513.906
596.1
600.381
523.688
32.1888
591.518
442.246
86.3497
629.937
30.768
582.97
590.776
586.608
615.504
601.92
38.841
246.272
589.838
40.0623
630.869
454.826
32.0977
447.718
510.776
598.234
441.454
640.975
452.467
501.654
553.224
240.019
504.561
456.656
597.561
343.768
607.465
607.962
614.359
623.354
32.2087
35.9458
606.218
605.055
40.7933
32.0543
585.072
31.0005
604.713
647.615
606.348
32.1474
414.201
624.133
621.994
31.1351
643.35
36.9071
584.908
32.163
230.095
64.2462
608.251
36.0047
32.3612
524.092
600.533
605.715
486.987
452.321
600.007
599.401
594.698
595.114
32.1142
462.695
515.288
650.947
594.184
599.842
468.92
32.1592
636.967
616.921
573.368
550.198
55.2551
36.8499
587.272
550.029
607.705
509.03
531.463
589.464
615.727
619.663
455.115
520.643
664.579
483.176
468.924
364.746
653.069
592.394
32.1761
550.539
601.135
570.171
374.931
569.141
598.552
594.557
627.196
133.503
476.432
471.471
524.18
577.85
34.7898
633.809
32.4981
613.252
625.428
627.806
32.3997
32.0507
485.389
651.266
591.865
629.832
589.732
506.055
299.002
497.766
497.975
277.348
32.8628
37.0136
618.944
460.414
459.342
595.842
494.768
209.381
41.7014
43.5427
566.765
605.641
31.2428
489.314
598.098
638.183
473.071
367.594
653.583
34.513
450.801
507.283
34.833
626.868
32.184
585.386
587.093
153.368
40.4867
240.912
625.747
608.282
551.539
501.187
232.247
548.145
630.437
499.755
498.209
607.038
518.685
532.761
715.366
595.313
454.535
625.425
75.1961
646.775
577.138
631.646
597.569
609.346
618.761
553.07
394.132
548.887
217.305
490.546
598.818
468.101
241.708
645.391
609.296
393.9
598.875
533.923
634.039
32.1639
582.176
477.041
541.351
489.635
652.578
32.1847
590.114
603.8
32.2877
32.0502
601.178
570.447
371.881
663.516
440.566
585.634
622.419
641.171
555.497
491.998
489.985
609.495
498.564
39.7042
599.928
569.729
593.93
31.5894
582.924
586.493
32.5081
592.975
43.6865
634.504
359.384
594.432
592.736
589.652
645.5
596.86
620.349
598.581
129.015
242.589
32.1307
589.085
581.594
651.336
642.37
31.9027
32.7702
565.789
554.709
475.408
234.614
666.161
534.58
529.054
35.8483
627.871
499.306
489.628
471.653
566.3
228.589
575.501
565.267
473.853
598.73
609.085
533.301
638.165
622.117
586.134
594.999
494.223
614.841
503.286
557.543
564.569
583.872
613.328
606.69
624.36
593.183
32.1393
501.902
260.666
601.084
585.343
361.063
641.272
456.731
46.4487
641.031
78.1076
536.823
463.023
617.006
582.27
595.495
621.711
33.2029
585.063
182.908
625.127
39.5439
559.898
644.097
498.741
607.115
584.393
513.267
529.484
575.866
58.0113
609.365
570.568
636.83
595.875
603.778
625.843
385.824
31.9206
630.166
598.325
598.54
32.4816
543.344
598.399
612.461
53.1605
402.155
32.2009
498.441
578.439
601.011
604.7
504.038
631.94
399.239
406.805
31.4191
614.07
530.142
32.2657
569.68
599.009
598.687
590.203
636.127
332.501
622.429
41.8839
30.5975
654.143
593.41
607.788
540.23
217.012
585.122
425.278
607.705
637.651
593.047
609.267
491.228
616.369
77.7668
641.411
583.089
606.526
518.862
600.614
568.547
216.517
608.931
611.205
34.4196
41.2579
511.331
640.226
492.086
619.173
610.208
390.787
32.1891
623.768
574.928
620.887
33.1221
624.2
32.3896
583.397
449.789
31.6892
581.123
623.591
33.969
225.703
600.541
494.864
596.273
615.41
601.799
32.1338
606.515
585.788
610.311
66.2439
542.231
639.43
308.713
609.057
365.809
586.902
32.3576
595.574
609.486
572.943
541.742
572.124
450.29
30.7492
45.9294
400.833
517.561
32.6206
589.313
31.4053
38.527
32.6126
30.708
34.0934
180.553
472.504
607.5
34.0071
582.547
33.0581
608.05
611.156
599.912
587.291
620.206
406.139
31.6312
611.1
555.32
38.2087
539.882
523.61
350.236
637.867
617.983
262.019
348.947
478.608
550.797
30.657
32.2651
230.521
595.822
649.36
603.18
34.1202
34.3063
508.395
606.331
617.263
612.661
605.613
614.216
605.017
622.087
625.611
39.552
434.239
586.625
467.075
32.0971
635.29
499.687
32.1987
614.199
582.068
353.241
41.4565
572.179
595.089
34.5106
454.343
450.913
451.343
717.582
599.778
462.86
502.569
593.309
497.869
37.2349
32.1814
610.831
606.7
598.884
342.741
614.285
628.173
537.965
611.129
473.615
608.429
650.274
608.869
30.6623
616.985
610.085
618.813
32.1632
32.0995
567.117
32.2371
490.275
223.754
570.898
35.2572
579.339
632.214
631.17
458.338
38.9926
778.394
565.764
39.8235
598.334
409.645
609.532
600.098
34.123
586.477
579.814
622.115
619.103
38.7899
605.993
588.623
510.327
643.339
502.285
237.671
535.602
33.5519
487.93
610.263
500.455
32.2603
508.643
70.8371
34.1481
579.592
607.808
31.6231
704.391
486.382
489.755
639.453
601.486
619.394
620.231
632.841
584.403
527.721
286.578
600.876
606.069
612.084
556.86
597.292
398.133
509.159
615.919
613.682
611.347
239.339
651.082
46.6331
569.357
616.136
490.553
597.731
597.054
650.482
596.984
484.122
611.832
50.0468
490.475
504.248
32.0109
406.462
598.154
605.439
30.7167
592.693
598.296
34.1689
32.1368
421.374
557.436
589.354
612.643
38.0204
622.538
607.198
390.491
610.382
477.134
585.148
607.077
595.128
548.201
30.5139
553.749
589.339
599.367
583.068
590.002
235.67
612.625
584.9
51.1746
568.216
406.721
31.1789
208.855
610.615
510.477
599.051
391.543
570.727
30.5459
32.4179
466.475
33.5225
226.655
517.468
546.8
590.911
246.362
40.2029
559.934
667.569
32.057
509.024
588.332
32.2633
327.566
608.6
619.856
52.6894
604.701
606.239
596.395
575.613
629.993
32.1862
611.903
44.097
509.385
646.126
495.627
647.214
636.193
611.737
611.008
41.6595
592.633
478.007
600.625
618.431
612.383
539.058
547.863
224.407
482.949
312.872
43.711
534.837
613.314
370.452
38.9985
608.511
598.789
635.549
33.2715
581.07
543.325
555.127
623.565
529.727
578.537
611.461
503.926
599.767
593.672
159.252
35.3616
574.738
393.36
500.488
378.78
596.352
611.907
46.8801
401.903
512.377
256.857
629.486
579.905
612.667
615.994
551.649
474.681
605.756
596.835
467.592
596.449
636.849
609.115
644.909
503.077
598.783
589.079
654.607
613.503
51.4576
563.146
403.786
575.302
399.8
32.1679
565.146
597.67
437.83
604.885
630.776
32.1973
616.085
493.738
642.35
638.737
33.8323
596.545
580.398
562.776
586.303
401.02
606.173
602.027
477.386
32.1767
628.52
394.469
45.1947
567.577
30.4911
627.617
601.643
574.286
32.0677
567.578
602.107
513.603
398.194
601.807
52.7814
606.358
541.667
608.07
606.275
562.652
500.867
583.616
362.033
609.136
443.935
634.736
491.779
247.726
35.3472
531.726
475.422
101.882
30.8353
516.292
371.569
33.66
603.449
59.3886
423.947
218.883
46.2625
607.82
585.074
596.582
602.574
642.088
608.887
422.352
504.303
627.312
545.565
32.3042
388.347
621.023
34.6653
623.226
31.0537
569.839
496.45
602.836
32.1124
32.3367
604.921
608.03
37.5724
386.777
36.104
592.344
611.7
33.0229
614.263
427.348
75.4741
554.132
608.89
632.636
606.451
597.431
34.9211
32.6957
619.089
619.381
584.591
624.75
355.403
32.2044
542.139
219.259
193.328
704.238
282.862
612.724
531.859
450.984
396.048
567.172
487.893
32.3546
481.757
349.338
42.6288
216.043
251.034
413.248
589.334
580.253
547.026
32.3961
495.349
604.042
600.824
631.418
583.335
597.178
536.928
475.431
506.745
53.933
477.444
53.2262
31.2457
578.981
522.288
601.839
598.211
32.1056
611.16
614.602
502.019
439.703
316.534
40.8145
447.631
613.802
32.0302
606.569
617.928
536.155
582.841
599.053
425.457
45.0307
611.229
42.8224
615.612
610.352
614.703
214.907
627.156
566.942
48.8273
622.861
398.524
31.4885
585.42
481.003
592.798
30.9116
550.961
528.931
37.087
526.744
334.654
584.927
32.3071
495.176
250.825
571.33
450.715
32.077
611.402
249.387
540.998
602.611
336.789
585.418
36.9697
593.226
441.5
606.379
285.172
572.9
538.286
550.245
42.5377
558.76
31.0637
535.49
483.538
615.389
640.759
539.772
485.305
41.8762
611.413
608.006
222.709
620.256
80.9063
623.65
41.5952
715.396
628.85
593.807
597.581
566.662
605.48
491.372
545.291
348.234
623.277
590.096
337.501
619.458
627.518
145.42
547.5
83.8811
501.44
520.705
228.426
32.3004
570.637
44.4799
118.643
602.702
602.12
33.6822
247.871
587.006
491.49
470.19
36.406
30.9408
622.299
580.277
492.307
608.627
30.9917
46.8384
514.887
454.625
612.901
648.63
508.431
587.308
601.748
49.6597
568.51
332.446
585.388
615.795
32.1544
32.4172
599.285
577.629
624.006
612.413
604.643
427.798
589.197
594.858
589.56
507.332
633.758
630.617
549.466
548.627
32.3935
34.4657
32.7477
444.892
640.652
479.023
620.728
34.3164
488.772
191.266
607.936
32.4368
30.6534
602.104
588.401
650.02
32.7585
54.2871
608.172
602.448
30.6202
396.747
268.406
625.946
433.978
227.843
585.568
31.066
47.2666
661.48
476.884
532.161
599.156
597.334
406.162
31.5871
516.618
568.895
460.8
615.924
32.6637
506.829
53.0366
38.9893
31.1623
221.038
564.459
587.045
42.8984
605.79
609.899
596.157
227.463
610.683
49.172
559.462
585.45
32.4377
640.468
611.893
36.4155
355.03
413.065
609.72
52.071
32.2233
574.362
44.2096
156.362
36.5428
449.972
647.534
602.832
623.053
566.381
635.284
46.3158
642.512
498.86
393.575
481.257
546.362
607.567
516.163
33.5526
31.2206
546.374
37.4806
519.123
601.914
501.22
597.461
452.016
622.307
231.652
515.256
603.06
597.521
288.346
32.1712
622.399
615.019
642.97
545.172
628.124
589.853
32.471
30.6982
32.4356
604.534
598.073
606.6
534.279
601.725
605.992
425.558
485.52
479.963
607.755
32.1206
30.6447
584.546
32.9205
441.553
523.129
223.525
608.637
39.2898
528.726
559.86
438.432
605.651
561.201
584.73
577.804
373.732
30.8691
30.4988
585.46
592.405
628.684
616.162
493.944
488.605
627.678
617.646
32.3342
601.339
32.6115
604.853
32.0969
623.408
606.148
37.4597
291.515
279.414
687.922
400.383
541.756
542.026
32.1153
549.317
601.028
289.843
492.912
47.7855
33.6167
469.739
42.5178
587.256
540.288
598.78
630.046
595.578
32.2775
415.827
32.1029
31.199
599.835
518.336
598.218
596.147
216.157
617.863
584.935
593.106
632.602
598.434
615.988
591.035
590.839
250.849
655.623
32.1234
528.683
614.788
629.693
32.3843
596.93
608.973
38.6686
588.066
625.304
424.36
280.487
524.171
31.7777
630.98
405.604
504.327
565.509
616.622
32.2621
599.808
506.598
229.138
33.4108
628.8
650.214
571.654
504.879
582.207
33.7094
591.726
614.281
625.643
589.723
584.88
229.062
567.196
587.233
596.044
443.474
486.948
624.329
473.558
654.65
535.668
580.671
528.708
325.915
657.09
648.711
389.248
442.999
47.8454
613.511
584.555
62.1955
39.9124
584.578
630.58
605.558
240.987
651.064
611.672
231.196
32.1447
600.217
492.01
38.7978
31.078
495.308
606.288
104.753
31.9911
213.74
588.743
32.3143
502.391
463.934
32.8385
631.023
605.311
635.607
644.6
620.529
37.5236
32.1002
608.301
45.6121
459.901
33.7228
605.211
321.285
475.586
602.639
32.6021
330.294
406.206
363.141
577.93
613.929
588.792
32.4701
31.1287
542.537
620.326
369.061
607.527
510.024
33.4893
40.7849
602.312
623.963
594.818
32.6543
506.239
522.692
608.499
596.152
581.349
253.674
448.828
217.946
587.325
423.906
587.867
514.24
43.4301
34.1208
570.557
584.536
517.225
414.424
498.559
32.9563
32.1966
611.702
604.778
574.854
594.549
227.034
610.152
38.7569
499.737
491.156
612.166
625.511
32.1109
583.137
477.343
38.5559
588.795
32.1355
368.983
356.717
487.017
32.0651
33.5942
524.017
601.834
608.468
610.259
420.014
514.059
40.562
553.929
429.442
743.014
584.266
567.096
629.395
616.377
584.862
250.161
605.605
502.03
640.535
517.626
47.7301
603.89
241.102
555.161
597.413
36.4253
31.1093
438.098
366.767
508.308
643.201
494.856
564.521
585.116
618.857
462.44
460.005
41.7751
548.376
601.265
523.922
613.202
33.3197
606.009
37.4229
425.997
32.3058
287.157
157.113
76.5825
424.487
499.026
609.819
32.6452
490.19
526.93
32.3027
47.1465
483.552
595.569
633.984
635.111
548.171
32.1705
584.57
519.638
513.235
568.279
587.221
501.422
607.685
41.354
540.938
608.351
638.318
606.59
652.084
255.296
648.209
607.134
595.322
33.1778
79.2765
611.567
45.0505
629.846
235.192
548.648
583.879
31.9542
496.797
34.5073
32.1144
370.373
32.195
605.127
607.698
32.0541
307.737
589.389
35.0832
629.88
523.798
567.323
650.905
618.954
57.7475
48.6547
38.0301
400.85
632.178
643.973
33.9363
589.533
575.063
649.169
603.586
339.666
41.943
31.2251
31.7601
490.449
612.142
32.4467
606.412
477.379
585.127
99.3396
617.747
554.691
30.9824
502.654
592.298
572.733
71.404
514.417
428.68
610.462
58.3614
32.1033
450.137
293.571
596.079
572.94
498.99
623.302
610.543
603.96
588.108
490.217
568.008
495.047
502.053
611.969
32.3139
613.093
631.13
580.149
584.739
30.902
611.336
611.584
32.5376
496.748
43.2595
525.468
32.3338
498.754
33.9514
612.886
457.217
593.161
547.845
488.497
497.101
523.798
32.2441
516.067
570.155
399.115
472.235
562.149
601.261
462.424
598.982
545.874
500.946
586.421
377.024
507.916
43.4818
51.3715
285.33
600.226
170.612
372.842
488.083
464.843
552.95
59.8947
537.65
31.4172
612.615
590.263
32.1323
584.263
563.571
547.252
32.1526
611.047
586.867
630.363
610.546
634.498
601.768
570.611
290.409
497.366
605.301
33.7859
30.8689
32.0987
604.291
588.839
510.881
614.133
455.865
44.4797
31.5858
606.063
545.443
31.7119
483.272
606.398
607.657
400.901
50.8059
35.9888
634.704
626.169
582.657
581.512
493.073
282.111
369.892
562.315
475.937
639.238
443.286
486.816
620.43
631.945
37.051
549.736
32.9532
588.126
31.978
598.429
386.101
602.74
598.019
579.053
53.1051
311.88
30.8925
43.6482
563.488
32.437
553.292
596.715
144.319
470.052
439.835
581.221
30.5524
34.0071
612.844
576.48
30.8319
626.168
594.41
611.738
622.386
618.672
618.559
412.282
294.257
649.474
601.958
591.031
48.2624
610.659
634.246
393.631
580.956
620.742
587.617
586.47
464.23
593.533
32.1541
577.521
246.525
30.8813
509.21
599.332
584.385
32.2558
605.924
626.883
486.833
640.071
623.045
639.296
30.9007
545.278
460.467
468.247
472.391
610.011
578.557
37.0603
31.5458
507.56
624.046
474.613
470.749
37.4893
32.5091
423.913
640.426
606.139
32.1904
614.727
617.42
407.905
482.125
496.269
316.365
529.35
595.047
634.985
32.2327
631.549
593.618
33.9411
541.45
608.471
30.6247
591.954
586.091
444.606
647.925
58.0475
607.963
478.878
598.702
224.591
609.118
239.881
236.672
30.6864
30.9191
182.089
376.626
32.1183
239.437
582.073
560.857
506.858
404.027
230.82
32.3355
33.06
31.2628
228.191
584.068
449.656
591.772
38.335
633.686
588.088
630.383
625.817
606.869
445.668
32.8427
604.236
629.235
597.955
32.2312
628.254
31.9969
42.5247
490.475
565.613
606.819
32.1536
248.205
573.949
573.023
584.885
654.142
386.398
475.891
493.653
109.441
608.851
606.771
518.741
31.2201
633.1
621.338
601.493
30.7877
581.106
594.782
626.343
588.451
55.3707
32.2895
508.659
488.092
32.2116
535.202
605.419
560.847
606.957
238.745
616.453
569.019
580.203
598.207
611.759
448.235
573.086
226.038
600.984
369.383
582.71
225.276
588.388
609.109
521.591
631.354
33.695
598.584
31.252
650.909
581.87
594.258
595.022
30.5296
32.9668
614.473
615.614
396.59
412.334
345.797
32.1416
586.349
470.434
547.821
605.358
58.5064
562.489
34.0464
552.165
624.801
585.339
32.2597
30.6001
605.784
260.068
460.974
591.007
614.32
595.896
256.104
32.5194
650.131
552.092
639.424
589.523
566.302
628.643
593.181
432.874
545.884
504.529
622.438
636.509
605.79
47.2757
465.253
588.739
649.651
613.39
484.458
412.644
40.3259
637.861
603.054
649.81
613.967
632.751
32.0152
501.278
524.854
508.261
606.899
645.637
299.837
645.116
596.908
596.48
605.695
364.268
501.211
494.238
51.785
34.7633
41.58
584.335
227.834
31.3958
32.7077
577.844
603.499
494.316
34.6241
583.76
525.96
168.397
32.241
252.036
282.857
452.434
31.3489
634.069
607.726
263.314
424.294
620.754
615.941
611.621
32.839
603.954
47.3479
625.127
201.033
619.023
459.315
30.649
586.191
567.199
32.1226
49.5775
642.413
625.832
583.209
487.065
588.569
517.215
353.197
32.623
609.463
37.5466
653.411
508.631
592.047
587.372
132.623
253.393
597.958
641.592
298.493
348.712
42.1232
35.9452
32.2328
32.4828
576.934
609.027
302.961
30.8916
60.2709
613.841
359.36
289.647
259.187
575.32
584.601
241.822
219.642
203.226
228.779
30.713
595.477
255.763
32.4392
518.46
307.26
482.379
606.459
434.207
34.6828
252.915
582.704
30.785
445.803
117.69
606.482
589.678
612.356
556.996
611.252
643.847
567.223
518.867
256.773
557.834
32.3184
468.902
527.528
620.44
32.1044
311.638
33.2547
611.239
403.716
32.8488
286.74
525.568
532.513
216.389
43.6563
441.02
602.91
604.393
608.538
478.869
600.668
218.51
226.505
255.45
624.434
653.577
32.8425
608.09
45.8581
577.496
326.773
611.645
613.756
614.979
32.0939
590.248
34.2145
609.361
289.84
644.914
609.975
591.795
619.799
578.747
102.307
113.282
526.976
601.367
605.536
618.184
620.539
579.884
34.0727
618.063
32.4562
297.808
574.097
245.076
375.1
30.6836
32.6269
622.945
609.283
573.309
563.003
245.228
273.423
32.238
575.993
607.344
425.285
585.091
567.104
445.418
387.047
341.081
556.109
580.938
608.799
621.862
583.68
500.826
291.758
551.576
599.425
602.112
605.414
472.181
31.8393
230.026
569.625
289.847
593.015
547.662
627.807
580.702
398.023
32.3748
35.4255
294.533
594.022
578.419
632.546
39.3267
32.1401
581.615
32.1291
626.532
611.103
312.875
32.3365
287.899
582.115
643.522
228.171
490.002
32.1723
618.046
509.131
560.35
599.997
509.958
489.274
585.008
30.6448
33.8822
593.717
45.4537
249.589
32.524
609.061
607.643
631.547
608.707
473.401
434.723
498.377
567.721
583.412
607.923
32.2337
531.813
640.422
34.0283
281.232
43.3353
32.1193
598.13
34.4452
562.192
417.099
463.72
32.0711
468.636
414.116
560.577
293.726
633.064
36.2911
56.7827
368.481
31.8704
505.719
582.545
236.39
649.926
492.8
32.8924
57.4744
626.099
413.695
564.526
40.3813
595.726
621.54
605.658
606.654
474.703
40.7355
565.4
32.3564
595.148
613.775
235.219
619.104
577.003
588.525
566.035
426.929
611.29
38.8813
608.169
618.187
604.733
495.931
273.704
612.06
584.962
611.134
634.474
295.744
585.138
31.3146
606.737
525.167
624.263
32.125
458.298
584.62
598.521
608.997
585.341
603.949
615.333
626.91
553.94
596.385
359.642
567.631
594.177
49.3698
38.8293
517.434
51.1318
584.666
521.017
517.474
283.211
463.919
612.333
447.224
514.276
56.3453
567.3
563.27
240.255
613.783
570.398
36.2963
600.961
589.899
35.0563
32.2798
500.224
535.383
603.576
46.4153
61.3328
606.71
595.364
617.339
586.258
584.393
540.232
358.922
32.5521
588.6
522.537
245.037
593.157
593.443
547.608
581.575
636.926
599.212
611.544
543.78
321.645
595.063
620.76
32.2548
32.9029
587.323
495.423
339.856
584.995
436.292
584.842
577.823
503.41
602.823
499.684
63.4868
604.993
92.4679
446.15
620.239
32.0625
494.476
32.696
48.851
30.645
446.909
32.2849
31.5403
603.177
632.777
408.239
608.468
609.995
623.132
296.83
611.778
420.807
462.299
510.44
254.628
512.739
630.343
559.655
73.9041
363.31
426.11
563.054
45.8246
32.1395
493.547
607.766
607.239
610.788
638.93
31.4756
619.36
605.437
32.1231
595.081
523.274
39.6816
294.702
649.206
291.934
260.505
494.637
366.794
603.551
408.439
596.351
625.955
602.806
550.272
585.713
417.213
33.7833
599.316
618.272
411.493
42.4701
564.978
438.373
345.982
588.038
31.4329
350.368
628.455
558.527
594.121
617.881
540.944
531.54
32.2821
607.389
608.732
327.998
602.361
466.396
383.378
572.074
593.161
40.1413
608.375
576.928
607.1
533.444
606.335
32.4117
631.057
623.564
594.842
615.18
601.195
32.1552
493.677
531.166
604.755
48.3248
405.806
483.764
601.24
500.883
600.751
606.57
307.845
605.426
512.988
579.303
611.58
431.243
564.797
591.311
235.363
229.755
38.8274
677.687
37.3568
609.125
32.3161
594.96
37.5261
37.6324
600.629
40.1024
594.548
30.6397
49.9139
251.052
32.2227
32.2371
586.844
190.488
39.1242
45.7886
620.561
517.036
32.2666
456.575
607.438
453.012
629.651
430.056
83.8782
599.406
579.664
30.9937
38.6368
600.241
446.411
585.233
509.002
321.989
622.323
41.1204
617.252
281.031
606.297
590.685
46.7362
608.725
632.659
614.002
37.2953
33.8172
362.698
594.007
594.309
42.9116
42.9097
572.734
623.027
583.397
583.267
503.255
469.621
371.599
585.178
575.03
546.304
554.713
487.293
53.916
609.042
60.3536
616.17
77.3217
316.158
576.631
136.943
483.552
605.842
317.567
543.983
466.765
550.997
583.425
39.9451
575.528
466.887
626.601
478.157
612.932
549.474
600.531
422.682
495.292
552.969
520.778
410.031
532.562
506.325
572.032
525.601
438.832
603.445
226.617
236.398
498.113
519.639
511.671
591.367
604.274
625.183
606.762
584.534
403.617
459.211
584.54
600.437
33.3539
45.1909
606.052
604.242
312.285
654.919
495.528
32.4929
32.5577
670.848
623.685
484.325
596.877
375.749
38.4319
32.5056
420.591
435.556
63.7795
588.667
630.478
517.952
577.505
516.707
608.026
604.883
652.177
553.706
45.5843
31.0719
599.872
607.767
35.0485
31.1043
576.381
553.76
506.481
518.578
592.779
608.763
225.142
606.368
32.2615
513.852
620.364
689.355
496.93
493.234
657.315
32.2501
428.974
617.771
391.09
488.816
38.5671
566.249
49.7636
32.2238
579.239
35.9975
632.085
598.534
580.664
607.199
32.1639
582.235
574.1
453.07
578.191
609.038
40.3959
623.221
39.3658
55.2714
566.716
32.2077
602.301
596.84
429.937
44.2996
497.351
598.782
46.8757
590.265
580.664
33.6519
609.73
30.7917
584.69
32.6842
207.636
299.206
581.133
489.858
30.579
605.147
34.324
34.3799
34.0556
35.4598
595.575
614.637
649.376
32.0686
30.7638
30.7235
30.5159
604.253
34.0437
30.5917
547.715
378.192
372.028
622.718
64.7197
566.33
37.0893
595.439
575.216
618.456
639.792
38.2481
582.92
30.4899
41.4062
587.03
475.779
577.675
629.317
30.6747
591.214
606.236
555.845
31.2406
32.3733
635.87
30.8131
34.2485
597.328
36.3513
32.1055
420.114
30.6385
649.623
558.952
577.175
647.609
628.689
651.819
39.9171
34.2871
564.996
494.878
408.862
509.319
604.598
513.744
424.453
648.725
44.3383
184.493
223.086
607.858
547.322
498.33
32.1171
446.715
34.0137
42.6768
32.2792
580.571
297.075
30.9257
49.9649
37.1155
590.141
53.8627
394.461
484.933
476.486
631.005
571.09
32.9325
349.517
586.027
31.3195
617.79
616.151
509.592
492.914
610.652
535.067
577.467
30.6194
85.0269
608.069
46.6764
600.664
597.165
490.246
51.8003
32.6015
30.5427
148.442
30.7946
649.046
614.232
137.134
402.926
580.785
513.509
603.406
607.71
615.511
583.644
32.1684
638.603
44.3577
31.4411
32.143
460.23
34.3278
37.0231
33.1761
32.3752
516.102
76.8466
634.403
328.136
254.741
549.424
416.743
584.494
31.6988
604.084
421.402
41.1983
38.6347
587.511
32.5719
42.1559
486.026
598.951
32.2609
527.039
541.201
610.209
546.286
612.641
611.565
30.8767
32.7465
586.467
32.2654
32.3398
626.337
444.386
30.9348
317.131
297.383
32.4071
316.553
599.412
45.4976
442.462
616.528
32.3137
32.3969
446.715
434.818
543.919
649.544
619.677
32.2006
621.868
185.169
33.5111
621.865
649.518
495.491
32.3247
620.959
32.1527
596.03
573.737
32.4669
529.913
623.446
588.275
31.4688
32.4552
489.515
621.726
446.783
574.866
32.1546
343.622
422.143
30.7333
473.398
618.359
615.87
728.768
507.653
126.712
32.2254
489.07
234.789
633.185
485.421
449.2
516.844
453.551
606.372
33.4906
500.704
629.362
601.86
509.764
639.766
617.663
633.808
576.579
32.5593
47.825
523.313
599.853
615.581
485.44
30.529
535.119
590.74
416.202
611.866
629.228
32.1727
636.84
32.6132
294.945
493.085
498.747
507.16
619.389
32.1403
30.9918
39.1332
159.887
94.4675
45.9582
613.396
630.768
32.6807
38.0552
497.794
631.774
597.773
556.623
516.102
505.766
583.171
584.36
575.951
585.173
32.5052
614.697
609.511
372.158
502.16
560.184
630.5
345.228
285.19
642.537
44.3147
50.252
37.4302
498.368
32.2811
633.184
628.991
629.764
593.378
444.936
424.994
32.0896
353.913
650.186
32.2153
426.541
585.342
525.225
578.464
31.5236
601.294
481.434
552.056
629.137
543.816
600.292
33.2687
602.928
583.718
628.077
47.8968
280.659
498.63
423.577
558.783
418.039
30.5063
473.719
296.272
32.1697
30.5905
557.211
615.607
489.774
654.6
508.504
631.267
619.47
513.065
515.93
32.1146
602.267
507.249
595.823
32.0811
31.0156
583.167
606.738
44.4051
618.202
504.95
638.978
31.7459
32.0948
606.865
606.807
625.698
606.359
31.9934
624.848
489.475
52.8868
642.595
484.573
619.914
572.611
32.111
320.773
32.3696
618.048
640.322
32.1696
607.182
520.813
604.385
496.367
405.655
636.194
50.7196
585.066
616.422
30.8999
608.204
36.8177
499.094
473.586
584.213
634.673
36.4954
49.1689
32.2808
30.5433
644.315
34.1014
31.4718
32.1852
32.1272
31.9511
32.1164
466.275
654.191
516.716
527.233
573.201
395.94
612.152
539.72
473.862
40.1431
32.2868
32.7004
48.1286
624.655
620.554
619.199
632.276
32.3975
32.5472
33.8102
32.1711
502.661
634.472
55.3641
37.9962
32.2422
620.002
565.914
58.2094
577.478
637.746
475.147
502.378
35.5743
32.1402
489.518
55.6022
53.8167
32.3229
472.724
528.927
651.096
50.802
628.964
475.069
30.9835
32.3984
32.2186
533.35
630.473
30.8265
37.9215
58.2011
469.333
528.676
628.552
477.717
32.2501
88.4755
491.818
523.271
635.851
523.376
607.918
32.5013
32.1874
50.9517
56.998
635.832
32.6174
31.6039
31.2721
30.6593
32.3731
32.5269
32.2339
610.3
31.1682
517.114
604.235
393.772
647.343
57.2586
633.786
594.269
400.584
429.484
49.6838
350.04
32.2143
621.642
31.3169
34.9651
474.832
439.01
614.148
620.93
635.712
407.117
415.245
45.3494
38.9858
619.7
32.1116
636.12
32.6482
616.582
615.09
430.953
34.9556
534.266
32.1141
204.641
34.8086
37.3145
31.2337
536.847
31.9737
412.787
262.723
605.778
478.194
630.134
550.281
504.993
32.1073
614.736
525.805
39.5277
616.731
627.564
30.7894
634.653
618.739
408.565
470.971
639.427
41.6773
601.697
37.5862
596.874
451.531
590.755
493.462
520.661
573.441
31.0475
505.124
600.582
335.079
57.5504
426.131
499.058
458.641
519.542
620.757
626.803
32.9211
604.702
516.981
603.277
35.8336
525.848
596.591
31.7234
665.778
32.1884
364.112
616.553
42.2051
40.3582
557.023
616.748
616.94
90.4075
585.526
135.954
631.996
504.421
472.214
595.546
505.957
33.4073
30.7295
480.51
621.656
515.586
500.799
619.557
526.107
31.849
451.239
38.3708
517.365
631.088
508.199
32.1141
512.386
446.909
604.16
60.5241
370.449
627.514
487.949
45.1337
591.378
446.247
447.881
538.07
606.562
601.671
599.959
530.1
445.107
636.129
515.683
537.087
638.567
638.892
629.561
480.963
542.807
474.173
614.038
41.7212
622.164
650.129
704.024
500.202
511.456
32.1507
486.026
626.218
31.1107
31.4127
495.562
531.322
448.889
575.56
32.1554