/*--------------------------------*- C++ -*----------------------------------*\
| =========                 |                                                 |
| \\      /  F ield         | OpenFOAM: The Open Source CFD Toolbox           |
|  \\    /   O peration     | Version:  v2012                                 |
|   \\  /    A nd           | Website:  www.openfoam.com                      |
|    \\/     M anipulation  |                                                 |
\*---------------------------------------------------------------------------*/
FoamFile
{
    version     2.0;
    format      ascii;
    class       volVectorField;
    location    "350";
    object      U;
}
// * * * * * * * * * * * * * * * * * * * * * * * * * * * * * * * * * * * * * //

dimensions      [0 1 -1 0 0 0 0];


internalField   nonuniform List<vector> 
13917
(
(1.09353 0.119974 -3.21467e-20)
(1.01996 0.0397046 1.07815e-22)
(0.66284 -0.0565666 -5.83828e-20)
(1.05269 -0.0118267 -2.36693e-21)
(0.99637 0.00257238 -1.3583e-20)
(0.371054 0.0560223 0)
(0.581982 -0.0422899 0)
(0.680671 -0.0641713 0)
(0.501502 -0.0901213 -1.96514e-20)
(1.13555 0.147978 4.6301e-20)
(1.10662 -0.0486671 -3.00171e-21)
(1.09477 -0.0437709 0)
(1.05298 -0.0134384 0)
(0.0712081 -0.00548064 -1.84043e-20)
(0.974324 0.0892467 -9.5597e-21)
(0.997757 0.0896937 4.36754e-21)
(1.01529 0.0465187 1.71071e-22)
(1.13703 0.0159348 0)
(1.09373 -0.0448064 1.95197e-21)
(1.00151 0.00439363 3.20848e-21)
(0.999987 0.00114054 0)
(0.564091 -0.0409504 0)
(1.001 0.00717872 6.02551e-21)
(0.736415 -0.0641959 -2.01908e-20)
(0.994978 0.014935 1.27985e-21)
(0.579604 -0.033873 3.53176e-20)
(0.787737 0.0390735 0)
(0.770723 0.119829 -4.21067e-20)
(0.777639 0.569163 0)
(1.18932 0.0914785 0)
(1.10648 0.109379 3.43774e-20)
(1.05912 0.0859358 1.05153e-20)
(0.842653 0.0668772 0)
(0.916437 -0.00113132 2.25979e-20)
(0.991914 0.0115059 -1.56328e-21)
(1.1044 -0.0464221 2.31702e-20)
(1.0009 0.00669791 4.02618e-22)
(0.197191 -0.0348465 0)
(1.05901 -0.0176673 -6.8992e-21)
(0.300517 -0.0087567 2.523e-21)
(1.00773 0.000938824 0)
(0.999975 0.00042072 -7.49609e-22)
(1.01894 0.00212477 -4.88264e-21)
(0.712488 0.210954 0)
(1.03705 0.0220203 -9.06422e-21)
(0.891929 0.0142225 0)
(1.13414 0.0112261 0)
(1.13592 -0.0177284 0)
(0.112624 0.13379 1.78573e-19)
(1.00318 0.000644003 -7.06556e-22)
(1.08311 0.0113053 0)
(0.966271 0.00778295 -5.61494e-21)
(0.0595991 0.102452 -3.18559e-19)
(0.911953 0.00341254 2.62606e-20)
(1.01435 0.0456082 0)
(1.08305 0.0342965 -1.39229e-20)
(1.10718 -0.0497372 -2.80357e-20)
(0.995786 0.0275384 1.05266e-20)
(1.06883 0.0412632 8.04857e-21)
(1.0358 0.0222246 2.70725e-22)
(0.654326 0.0633523 0)
(1.0224 0.0382597 5.75513e-22)
(0.0515134 -0.00530754 2.01521e-20)
(1.00158 0.00470117 0)
(0.394358 0.079342 0)
(1.19288 0.395594 -3.27128e-20)
(0.995634 -0.000856677 -1.55846e-20)
(0.988442 -0.000630055 -2.24832e-20)
(1.14067 -0.0543398 -6.04511e-20)
(1.06378 0.124522 -9.45666e-21)
(0.996791 0.00295615 1.24663e-20)
(0.56961 -0.0963956 1.05505e-20)
(-0.0852566 -0.0260841 -6.03681e-20)
(0.995773 0.0137163 -3.70938e-21)
(0.120356 0.224246 -1.53606e-19)
(1.09088 -0.0545455 -2.73676e-20)
(-0.0638573 -0.0192223 1.42621e-20)
(1.05172 0.0243219 0)
(0.578378 -0.0302363 0)
(0.999883 0.00215889 -7.03521e-21)
(1.00013 0.00322558 -5.83161e-21)
(0.996182 -0.000692011 0)
(0.421463 0.143489 0)
(0.223711 -0.0405013 0)
(-0.0453362 0.0123577 -7.93829e-20)
(1.05081 0.0219209 -8.05825e-21)
(1.00042 0.00363217 5.37622e-21)
(1.22068 0.408948 0)
(1.08088 0.0107625 2.57887e-20)
(1.01942 0.00191942 0)
(0.0121493 -0.0393665 0)
(1.16921 0.128056 -8.9637e-20)
(1.02227 0.0221823 0)
(0.976366 0.0504633 -6.572e-22)
(1.19906 0.419952 9.34137e-20)
(0.381462 -0.0054877 -7.08694e-20)
(1.11952 -0.0477581 -2.23073e-20)
(1.13656 -0.00734707 -3.39265e-20)
(1.10475 -0.055392 -3.57491e-20)
(0.627761 0.137086 1.26318e-19)
(1.01041 0.00523003 3.46166e-21)
(0.850268 0.011332 -5.0575e-20)
(0.707 0.182533 5.71114e-20)
(1.05876 0.0171415 0)
(1.01558 0.0117131 1.3537e-21)
(0.581989 -0.0892801 1.80678e-21)
(0.852379 0.496797 -2.05248e-20)
(1.13801 -0.02015 7.35998e-20)
(1.01759 0.0446494 0)
(1.10817 0.118323 2.41534e-21)
(-0.141886 -0.00242648 7.37154e-20)
(0.307753 -0.00703045 7.60392e-21)
(1.09816 -0.0484556 0)
(0.542945 -0.0878767 8.62694e-20)
(0.949574 0.00761322 1.09923e-20)
(0.0786878 -0.093502 -8.99023e-20)
(1.00079 0.0133744 -1.09095e-20)
(0.212897 0.0799723 -3.16373e-20)
(0.236858 -0.00747396 -6.85353e-21)
(0.913529 0.0121014 -6.32174e-20)
(0.999947 0.00107549 -5.46684e-21)
(1.14162 -0.0577621 9.64159e-20)
(0.213798 -0.0111578 0)
(0.770203 0.127266 3.08078e-20)
(1.00473 0.000649505 1.26789e-22)
(0.977457 0.0489111 0)
(1.03294 0.0258929 -1.17955e-20)
(1.0044 0.000629773 -1.43875e-22)
(1.01659 0.00166252 -2.2114e-21)
(0.354504 -0.0088884 0)
(0.31098 -0.0210337 -1.22832e-20)
(0.95277 0.0109867 8.28669e-21)
(1.03748 0.0230441 -8.44766e-21)
(0.999967 0.0010017 0)
(1.27354 -0.00436413 -6.27407e-20)
(0.749067 -0.0639906 0)
(1.09233 0.115743 2.79475e-20)
(0.59607 0.14326 4.60355e-20)
(0.995301 -0.000552266 1.74992e-20)
(0.914325 0.0102465 3.50458e-20)
(1.10248 -0.0482903 -3.91763e-20)
(1.02328 0.0120996 0)
(0.963936 0.0199245 0)
(0.672702 0.183884 0)
(0.987922 -0.00137621 1.0372e-20)
(0.798719 -0.103137 -4.8471e-22)
(0.864419 0.563022 -3.94067e-21)
(0.96851 0.0110365 0)
(1.02199 0.0101672 -4.97305e-21)
(1.05496 0.0913231 -1.61885e-20)
(1.1135 -0.0242533 0)
(0.0912183 -0.137906 3.01653e-19)
(1.10755 -0.0427706 2.79818e-20)
(1.0288 0.17775 -9.4538e-23)
(1.07492 0.0619941 0)
(0.00678006 0.0532331 1.83926e-19)
(1.05686 0.128916 0)
(1.11282 -0.0794773 6.81829e-20)
(-0.0840463 -0.0149198 3.09449e-20)
(1.27213 0.00126961 -9.39033e-21)
(0.941801 0.0438053 -1.19627e-20)
(0.791905 -0.00626592 -4.99638e-20)
(1.00009 0.0023514 5.80125e-21)
(1.11822 -0.0473098 -2.06923e-20)
(1.09797 -0.0475406 1.11922e-20)
(1.1042 -0.0540457 3.99568e-20)
(1.05813 0.0193081 0)
(1.12348 -0.0182294 5.10175e-20)
(1.03073 0.019158 0)
(0.84264 -0.0182723 3.458e-20)
(1.04444 0.165729 0)
(-0.24785 0.000621408 5.48611e-20)
(1.09854 -0.0507833 0)
(1.01239 0.0528465 1.12292e-21)
(0.939145 -0.108355 1.30214e-20)
(1.01846 0.194395 -7.80229e-21)
(0.333097 -0.0240412 1.07462e-20)
(0.161137 0.112599 -1.06469e-19)
(0.853539 -0.105964 0)
(1.01197 0.0245496 0)
(1.17495 0.119087 0)
(1.11287 0.0992858 0)
(1.02375 0.0117164 3.32373e-21)
(1.00039 0.00434439 -4.50088e-21)
(0.93975 0.115541 1.93588e-20)
(0.629016 -0.0356083 -8.30873e-24)
(1.24731 0.135391 -1.81164e-19)
(0.0703055 0.0559195 -1.28667e-19)
(1.11257 0.0378072 -1.7006e-20)
(1.10355 -0.0491482 4.84353e-20)
(1.10446 -0.0606347 -3.38956e-20)
(0.00733688 0.0163938 -7.94209e-20)
(1.2391 0.171078 -1.08754e-19)
(0.999734 0.00724414 -7.33855e-21)
(0.574856 0.0438977 0)
(0.80006 0.0277182 1.09672e-19)
(1.00933 0.00058078 0)
(1.0224 0.0226961 0)
(0.910144 0.40363 4.47273e-21)
(1.21645 0.441771 0)
(1.07361 -0.00441965 -5.65316e-21)
(1.00281 0.000694983 -1.17078e-21)
(1.11733 -0.0190537 7.19026e-20)
(1.11191 -0.0256605 0)
(-0.112126 -0.0210791 -9.83821e-20)
(1.23556 -0.0619995 -6.31983e-20)
(0.992217 0.0110642 0)
(0.99503 0.0299954 -1.19655e-20)
(1.13382 -0.0110599 7.20642e-21)
(0.658644 -0.0441919 -1.48659e-20)
(0.966506 0.0211491 9.47422e-21)
(0.57014 -0.0457283 0)
(-0.156479 -0.0135193 3.4656e-20)
(1.10356 -0.0489872 -3.23026e-20)
(1.0151 0.0116526 6.20498e-22)
(0.545717 0.391007 2.71515e-19)
(1.12721 -0.00738531 4.94675e-20)
(-0.242431 -0.00382635 -1.83938e-19)
(1.00296 0.0171837 0)
(0.813872 0.0852454 0)
(1.01184 0.024234 -1.66331e-22)
(1.18407 0.0627435 6.24506e-20)
(1.00739 0.00107943 0)
(0.167764 -0.0423795 0)
(0.555797 -0.0861904 4.41923e-20)
(0.998236 0.0861384 -5.63571e-21)
(1.18634 0.443413 1.10517e-19)
(1.0781 0.0568296 0)
(1.01444 0.0114154 -3.83717e-21)
(1.10464 -0.0461763 0)
(1.09729 -0.0519177 0)
(1.11138 0.0360625 -8.94925e-21)
(0.753894 -0.0599442 -1.58338e-20)
(-0.173838 -0.0110555 1.78831e-20)
(1.01137 0.00297615 2.11375e-21)
(1.06278 0.0895593 0)
(0.0423391 -0.0451369 0)
(-0.0910111 0.01685 0)
(1.00008 0.00257948 0)
(1.00604 0.00866586 5.47911e-22)
(0.338978 -0.00844991 9.29787e-21)
(1.12342 -0.0510095 -1.38289e-20)
(1.00004 0.000141729 0)
(1.10479 -0.0454361 -7.00062e-20)
(1.17195 0.0013063 0)
(0.80494 -0.0370513 0)
(1.09336 0.0979984 -5.2167e-20)
(1.00012 0.00245496 -5.78109e-21)
(0.982706 0.194457 0)
(-0.136994 -0.0126091 -7.11611e-20)
(1.03861 0.00170357 4.04258e-21)
(1.19348 0.141174 5.87251e-20)
(0.583757 0.17209 7.92865e-20)
(1.03257 0.0250104 -8.75608e-21)
(0.995319 0.027137 -1.17665e-20)
(1.10394 -0.0381119 4.81189e-20)
(0.362344 -0.0125749 0)
(1.1069 -0.0409783 0)
(0.942441 0.112904 0)
(0.97804 0.0954838 1.43389e-20)
(1.00004 0.000257813 1.26338e-22)
(0.191536 -0.00766164 0)
(0.746546 -0.0383954 0)
(1.11248 -0.0459907 -1.45094e-20)
(1.01401 0.011373 5.85574e-21)
(-0.148164 -0.0158354 -1.34336e-19)
(0.0760658 -0.0109642 0)
(1.09795 -0.079899 -7.07362e-20)
(0.561556 -0.0294791 4.83456e-21)
(1.09245 -0.055634 -1.13477e-20)
(1.00013 0.00299245 5.69297e-21)
(1.00575 0.000725625 5.85684e-22)
(1.13247 0.00748028 5.49888e-20)
(0.0787234 -0.033578 3.62744e-20)
(1.15754 -0.0324028 1.30219e-20)
(1.06759 0.0380325 3.17269e-20)
(1.23984 -0.0603251 0)
(1.07696 -0.0393889 0)
(1.01633 0.00106261 3.5341e-21)
(1.0426 0.0425747 -5.43547e-20)
(1.00179 0.00424817 1.09564e-22)
(0.911021 -0.105968 1.76826e-21)
(1.07153 -0.00389929 4.85649e-21)
(1.00008 0.00016242 -3.13324e-22)
(1.0021 0.104696 0)
(1.02748 0.174311 -1.26056e-21)
(0.790573 -0.0371935 0)
(1.10468 -0.0455798 5.00844e-20)
(1.00028 0.138889 -3.2325e-21)
(1.04144 0.00789608 7.47596e-21)
(1.25873 0.0187634 0)
(0.765591 -0.0608147 1.80026e-20)
(0.652171 -0.0404671 0)
(1.00277 0.0170099 -4.80506e-21)
(1.09553 -0.0922594 0)
(0.998439 0.00010961 0)
(1.04133 0.00758784 2.60638e-20)
(1.00091 0.012759 1.22844e-20)
(0.85041 0.620749 4.46047e-21)
(1.00154 0.000863277 0)
(1.1885 0.0614099 7.11835e-20)
(1.08733 0.099907 4.30145e-20)
(1.03028 0.0184217 8.97286e-21)
(1.1169 -0.0206386 -9.40486e-20)
(1.03734 0.054496 1.1689e-20)
(0.0960988 0.0578951 -2.79204e-20)
(1.02085 0.183627 5.97523e-21)
(1.16502 0.119798 -3.59635e-20)
(1.02885 0.0129296 -1.39955e-20)
(0.995916 0.0252279 1.71216e-20)
(-0.159694 -0.0010935 4.03097e-20)
(0.186929 -0.0112097 -2.94908e-20)
(1.00115 0.0139093 -2.32152e-21)
(1.00634 0.00103367 -2.89865e-22)
(1.06714 0.0478883 0)
(1.01531 0.0240153 -1.13851e-21)
(-0.0607156 -0.029989 1.11639e-19)
(1.02781 0.0124283 4.9911e-21)
(0.182912 -0.0452607 8.20072e-21)
(1.04423 -0.00586142 -1.98087e-20)
(1.1993 0.307206 6.3312e-20)
(1.09724 -0.000480002 -7.55539e-20)
(0.109511 0.305537 3.12651e-19)
(0.946768 0.0401042 2.25552e-20)
(1.2841 0.005085 -2.21527e-21)
(0.531051 0.314768 0)
(1.00508 0.107548 0)
(1.12549 -0.0509905 -6.48035e-20)
(0.95914 0.505402 0)
(0.996129 0.0415609 0)
(0.260884 -0.0260416 0)
(0.577825 0.0524057 0)
(0.0823444 -0.0147466 -2.71349e-21)
(0.924816 0.015935 -4.01709e-20)
(0.257099 -0.00623216 0)
(1.06845 0.0863964 2.58748e-20)
(-0.0256443 0.00330021 -7.19737e-20)
(0.546359 0.297906 0)
(0.946442 0.321961 1.50793e-20)
(0.938724 0.357394 -5.06903e-21)
(0.609931 -0.0547825 3.47595e-20)
(0.999747 0.00255215 4.79668e-21)
(1.0511 0.166471 -1.81712e-20)
(-0.105354 -0.00196179 -6.652e-20)
(0.983457 0.0282378 0)
(1.00221 0.069506 -6.03642e-21)
(0.102355 -0.011874 3.2645e-20)
(0.871659 0.473735 0)
(1.01778 0.0508358 -1.17328e-22)
(1.10406 -0.0602297 0)
(0.711996 0.557277 0)
(1.00878 0.00460668 0)
(0.219095 -0.00547506 7.08734e-21)
(1.10229 -0.0511666 6.34575e-20)
(1.00192 0.00459551 -2.95476e-21)
(1.00907 0.0122001 0)
(0.998575 0.000263734 3.5257e-22)
(1.02228 0.00980154 6.01219e-21)
(1.25521 0.0102952 -3.33577e-20)
(0.892522 -0.10805 3.13151e-20)
(0.426707 -0.270976 0)
(-0.123976 -0.00102563 -3.43011e-20)
(0.998024 0.0140713 5.49405e-23)
(1.19954 0.13452 -1.08215e-19)
(-0.15113 0.01763 -1.91368e-21)
(1.10891 -0.00947355 -8.67561e-21)
(0.551118 -0.0438293 0)
(0.107463 -0.0406142 3.15585e-20)
(0.51493 -0.0858803 -1.35967e-19)
(1.01255 0.00514209 -2.04658e-21)
(1.11237 -0.0464458 -2.62086e-20)
(1.01028 0.0112489 0)
(0.95519 0.103739 6.32301e-20)
(1.03506 0.0229909 9.08862e-21)
(0.107096 0.320852 -1.64505e-19)
(1.1755 0.00746451 2.58202e-20)
(1.0619 -0.00950923 2.41477e-20)
(0.999597 0.00300254 -2.79139e-21)
(1.13181 -0.00672524 -1.17693e-19)
(1.18177 0.12838 0)
(1.15195 0.00147349 0)
(0.184178 1.21671 1.29083e-20)
(-0.0696312 0.0021461 -7.86875e-20)
(-0.262969 -0.00236078 2.29563e-19)
(0.988578 0.20345 0)
(1.12935 0.143598 -1.14884e-19)
(1.00572 0.00828722 0)
(-0.0648828 0.0178739 0)
(0.546662 -0.0366991 3.77665e-20)
(0.999693 0.030852 -5.01107e-21)
(1.27932 0.00938727 7.008e-20)
(0.99595 0.0104018 0)
(1.22132 -0.0331679 1.07054e-19)
(1.04435 -0.00583365 1.42643e-20)
(0.999813 0.00233701 0)
(1.03316 0.0578669 0)
(0.598084 -0.0372068 3.17769e-20)
(1.03081 0.0571523 0)
(0.385033 -0.0155473 2.68048e-20)
(0.0123026 0.0402567 -2.9963e-20)
(1.10612 -0.0473664 -8.21735e-20)
(0.47661 0.260683 0)
(0.99814 0.0404012 3.5915e-21)
(0.507208 0.386808 -2.2112e-19)
(0.485396 0.339719 1.27905e-19)
(1.00213 0.00964863 2.69396e-21)
(0.872837 0.445943 1.87544e-20)
(0.98514 0.0278174 1.76901e-22)
(0.994709 0.0125074 1.48424e-21)
(1.18768 0.0901199 0)
(1.00007 0.000330966 0)
(0.994173 0.0145842 3.95434e-21)
(1.01057 0.0119062 0)
(1.24884 0.0207012 3.41714e-20)
(0.999934 0.00191887 -4.86017e-22)
(0.267525 -0.00606691 0)
(0.695607 -0.0407006 0)
(-0.0972448 0.0131347 0)
(1.23638 0.175961 3.78888e-20)
(0.387051 -0.0162142 1.27425e-20)
(-0.232719 -0.00677121 0)
(1.10601 -0.0109192 1.54293e-20)
(0.998449 0.0132711 0)
(1.20929 0.00380152 -1.93435e-20)
(1.05852 -0.016728 5.79404e-21)
(1.06781 0.0873351 2.53439e-20)
(0.999772 0.00721403 -8.11059e-21)
(0.828732 -0.106834 -3.01185e-20)
(0.605832 -0.0417926 1.61349e-20)
(0.746494 -0.043108 3.31519e-22)
(0.98534 0.0817388 -5.6599e-22)
(1.17566 -0.00657414 -2.95703e-20)
(0.929149 0.0203855 5.98907e-20)
(1.06042 -0.0192612 -1.36005e-20)
(1.14988 -0.00271473 0)
(1.02034 0.0578396 -3.92126e-21)
(1.11465 -0.0475009 0)
(1.01851 0.0455366 0)
(1.00151 0.000820146 -1.58134e-21)
(-0.0280602 -0.0352186 0)
(0.326411 -0.0219588 0)
(0.346645 -0.023819 -5.60824e-21)
(1.17111 0.199093 -7.45641e-20)
(-0.111868 0.0122762 0)
(0.288963 -0.0307988 0)
(-0.0750285 -0.015167 0)
(-0.00793862 -0.0190831 0)
(1.01576 0.00169485 3.76986e-21)
(1.13448 -0.00110169 -9.7207e-22)
(1.02235 0.0606437 4.3921e-21)
(0.993052 0.0290516 0)
(1.24151 -0.0476634 -1.48771e-19)
(1.13419 0.0101025 -6.48866e-20)
(1.01666 1.21805e-06 0)
(1.15412 0.0429663 0)
(1.10709 -0.00414251 -3.13401e-20)
(0.00735504 -0.0166066 -4.27499e-20)
(1.00224 0.00977894 3.11109e-21)
(1.13478 -0.0458944 -9.1772e-20)
(0.100457 0.0536402 5.31881e-20)
(1.22652 0.311654 4.20815e-20)
(0.2794 -0.00809715 -3.10563e-20)
(0.999938 0.00157347 -4.34474e-21)
(0.998567 0.0325478 6.97609e-22)
(1.01023 0.000323612 -7.07805e-22)
(1.05198 0.129786 9.16998e-22)
(1.0125 0.00487896 5.02481e-21)
(0.682788 -0.0372864 -1.78759e-20)
(0.404036 -0.266745 -7.3564e-20)
(1.0034 0.135979 3.14619e-21)
(-0.0195061 0.0258397 0)
(1.08286 0.0334171 2.73978e-20)
(1.11684 -0.0478565 0)
(-0.0311832 -0.0163792 -6.8043e-20)
(0.866399 0.576803 -7.22236e-21)
(1.10592 -0.0476398 6.47816e-20)
(1.10241 -0.0488474 6.01212e-20)
(1.13417 -0.0420416 8.10604e-20)
(1.15353 0.0630092 7.74987e-20)
(1.19718 -0.0161507 0)
(1.09244 -0.0278482 2.80421e-20)
(1.10553 -0.0482056 -3.97342e-20)
(0.390418 0.0953434 0)
(1.08943 -0.0360198 -3.38827e-20)
(1.13538 -0.025887 2.39277e-20)
(1.01336 0.0010102 3.75311e-21)
(1.26614 -0.0199849 0)
(1.08608 0.0154367 2.74772e-20)
(1.02795 0.002834 -7.63008e-23)
(1.04867 0.127902 0)
(1.05453 0.0222362 -9.00463e-21)
(0.0081065 -0.0200943 0)
(0.566237 -0.0927562 0)
(1.01464 0.0226276 4.59124e-22)
(1.01608 0.00075782 1.21287e-21)
(0.715799 -0.0423933 -1.68099e-20)
(-0.249416 -0.00456736 0)
(1.00007 0.000260582 -1.69364e-21)
(0.255116 -0.00550177 3.21304e-20)
(1.0542 0.00331959 -2.29295e-20)
(1.22525 0.157707 2.81302e-20)
(1.0142 0.024851 -4.17203e-22)
(-0.148085 -0.0161012 -4.30008e-20)
(1.16366 -0.0948308 0)
(1.05718 0.0912352 1.98583e-20)
(1.0362 0.0353481 -1.14509e-20)
(0.415284 -0.0188046 -3.36034e-20)
(1.23684 0.130453 1.22493e-19)
(-0.202849 0.00871218 0)
(1.00004 0.000344633 0)
(-0.142457 -0.0137264 -6.82782e-20)
(0.124335 0.0351299 1.43775e-19)
(1.05155 0.0512786 1.03747e-21)
(1.02815 0.00305696 -1.65764e-20)
(-0.0787343 0.0132098 -2.22875e-20)
(0.380406 -0.0366574 0)
(1.10531 -0.0146509 6.27867e-20)
(1.0096 0.0119537 3.07225e-22)
(1.00895 0.0445192 0)
(1.08888 -0.0563241 -3.49971e-20)
(1.22641 -0.0436951 8.59211e-20)
(1.01677 -8.91741e-05 -1.47835e-21)
(1.00858 0.0112804 -2.08832e-22)
(1.00478 0.0024158 -3.59916e-22)
(1.00509 0.00223443 0)
(-0.171853 -0.0138104 8.05505e-20)
(1.24203 -0.0464251 -1.22489e-19)
(1.1049 -0.0131917 -6.2701e-20)
(1.2482 0.125492 -1.8989e-21)
(1.00566 0.000817106 -5.67421e-22)
(1.01001 0.00515187 -2.84721e-21)
(1.17195 -0.00978585 1.41864e-20)
(0.214428 -0.0501772 1.12314e-20)
(1.10361 0.0488794 0)
(1.03213 0.0201043 0)
(0.994982 0.0133953 0)
(0.992791 -0.000344636 -2.05975e-20)
(1.01008 0.0459167 1.11361e-19)
(0.0552319 0.0191335 1.67839e-19)
(1.00066 0.00374284 0)
(0.992925 0.00267722 -1.27454e-20)
(1.1128 -0.0476607 -1.42964e-20)
(1.09265 -0.026916 -2.72236e-20)
(1.09664 -0.000337386 -1.37101e-20)
(0.997617 0.0297624 -1.06406e-20)
(1.02764 0.0617592 3.85067e-21)
(1.04417 0.0881336 2.93325e-21)
(1.13259 -0.0278701 1.31306e-21)
(0.972306 0.458145 0)
(1.25058 0.130236 1.45649e-19)
(1.21156 0.00121363 9.24914e-20)
(1.15781 -0.0208168 0)
(1.23237 -0.0655164 1.64145e-20)
(1.16449 0.120057 -4.8697e-20)
(1.00182 0.0164661 5.42976e-21)
(-0.127288 -0.0151314 6.08735e-20)
(0.993103 -0.000605118 1.28592e-20)
(1.00399 0.0689357 7.2425e-21)
(1.06403 -0.00202884 9.43195e-22)
(1.26363 -0.0255326 -4.26518e-20)
(0.994513 0.271993 0)
(1.00924 0.000920756 0)
(1.22412 0.308462 0)
(1.19801 0.0841727 0)
(0.104231 0.174244 -6.25331e-20)
(1.15953 -0.0220124 6.18352e-20)
(0.893722 0.13287 -7.17782e-22)
(1.1097 -0.00696923 -3.18606e-20)
(0.999397 0.00332413 5.9681e-21)
(0.573979 -0.0420756 0)
(1.21208 0.291476 -7.09775e-20)
(0.451249 -0.052106 0)
(1.01791 0.0403135 0)
(1.09425 0.0369795 5.38519e-20)
(1.25064 0.118414 0)
(0.114082 -0.0442551 -6.87418e-20)
(-0.254362 0.000282109 -1.81693e-19)
(1.13914 -0.0112993 1.12019e-21)
(1.18001 0.198275 -1.10196e-20)
(0.992703 0.0819197 -1.88372e-21)
(1.05504 0.0529055 1.87598e-21)
(0.996482 0.0324392 -6.61963e-21)
(0.896947 0.226318 0)
(0.6847 0.186847 0)
(0.974761 -0.00190517 0)
(1.12455 -0.0106314 0)
(0.571839 0.168547 -1.99196e-19)
(0.46631 -0.0547861 -1.06085e-20)
(-0.195197 0.00992545 0)
(1.03319 0.0684473 -2.30349e-21)
(1.1156 -0.0474239 -2.75988e-21)
(1.16047 -0.0931855 0)
(1.00696 0.113246 -1.07277e-21)
(0.969701 0.0220651 -1.88717e-20)
(0.11556 0.58945 0)
(0.766658 -0.0815236 8.0642e-20)
(0.745341 -0.104307 3.13147e-20)
(1.24431 0.104126 -1.51875e-19)
(1.01644 0.00158914 0)
(0.22629 -0.00759205 -8.03878e-21)
(1.08931 -0.0548843 3.35662e-20)
(1.00899 0.000996546 0)
(1.09139 0.0679281 -1.08192e-20)
(1.11849 -0.0330038 0)
(0.855406 0.0684419 3.84709e-20)
(1.18797 0.0819236 2.83023e-20)
(0.570468 -0.0310024 0)
(1.19282 -0.0184138 2.78522e-20)
(1.08831 -0.0246885 2.99062e-20)
(0.574388 -0.0430017 0)
(1.05696 0.0278742 6.63147e-21)
(-0.0272768 -0.0157402 -5.84923e-21)
(1.00006 0.00220394 0)
(1.00064 0.00398776 -1.92345e-22)
(1.08977 -0.0894653 -3.6934e-20)
(0.739763 -0.0827325 -4.54935e-20)
(0.401848 0.253093 -1.66113e-19)
(1.05733 0.0281304 -7.1043e-21)
(1.01347 0.0509601 -3.19735e-22)
(0.993389 0.00312146 1.78902e-20)
(1.07843 -0.0393565 1.34262e-20)
(0.093769 0.158366 1.73785e-19)
(1.10303 -0.0539944 -3.6876e-20)
(1.05731 0.0534161 2.09933e-21)
(1.10584 -0.0468985 -3.60035e-20)
(1.12929 -0.0109145 5.13531e-20)
(1.01421 0.0250772 -4.46183e-22)
(1.17723 0.444213 5.01089e-20)
(1.10208 -0.0551138 2.66213e-20)
(1.12179 -0.0564698 5.33663e-20)
(1.00433 0.0186507 0)
(1.18661 -0.0240308 -2.22493e-20)
(1.05373 0.0247856 -1.26878e-21)
(0.0948136 0.070262 -9.98309e-20)
(1.1409 0.136626 -4.80426e-20)
(1.00339 0.281988 0)
(1.09595 0.0387584 -5.09436e-20)
(1.00733 0.00271516 -9.11257e-22)
(1.02618 0.00528845 3.75527e-21)
(1.03426 0.0267493 8.19763e-21)
(0.96741 0.365145 4.68994e-21)
(0.892471 0.0113724 0)
(1.24884 0.0458982 -9.1443e-20)
(0.624026 0.760222 2.19517e-20)
(1.12388 -0.0170272 -5.36288e-20)
(1.00823 0.00469292 0)
(1.19924 -0.0073399 0)
(0.396126 0.279918 0)
(1.10372 -0.0497812 -5.90653e-20)
(1.03794 0.00276338 0)
(0.902126 0.0348844 1.25793e-20)
(1.00808 0.0116032 -1.24581e-22)
(1.07333 -0.0191512 0)
(1.07225 0.0401146 0)
(0.354221 -0.0383942 -2.98366e-20)
(0.999771 0.00252075 0)
(1.21557 0.44567 -5.56217e-20)
(1.07459 -0.016667 0)
(1.10622 -0.048367 1.17011e-20)
(1.1661 0.136652 -2.32882e-20)
(-0.101685 -0.0230434 1.00645e-19)
(1.02683 0.270625 1.4539e-20)
(1.00815 0.0434253 -9.96498e-22)
(0.0372684 -0.0307311 -4.08507e-20)
(-0.253241 -0.00306817 8.99672e-20)
(1.00629 0.0325639 0)
(1.06291 -0.00369924 3.5556e-21)
(1.17692 -0.095305 1.3981e-19)
(1.2367 0.111609 0)
(1.15348 -0.0362167 -2.68284e-20)
(1.00016 0.000359736 -2.05414e-21)
(1.03755 0.035508 0)
(1.19192 0.288076 0)
(1.06231 -0.0113899 -3.28674e-20)
(1.15269 0.00332762 0)
(1.10304 -0.036459 0)
(1.02677 0.00501769 5.42101e-21)
(1.10817 -0.0276645 0)
(0.673127 -0.0582989 3.27708e-20)
(1.03729 0.000762545 8.26129e-21)
(1.05005 -0.00850383 0)
(1.00426 0.00257174 5.32889e-22)
(0.183984 -0.00973871 -1.4559e-20)
(0.999963 0.00115733 9.61961e-22)
(0.985432 0.0821454 -5.49936e-22)
(-0.240673 0.000157204 5.35908e-20)
(0.994026 0.0666324 6.66064e-21)
(0.796302 -0.0861392 4.16018e-20)
(1.0739 0.0600231 -2.93794e-21)
(0.838903 0.0715593 -7.68053e-20)
(1.00456 0.00242848 5.70322e-22)
(1.02261 0.206463 1.35898e-20)
(1.00067 0.0118356 -6.64534e-21)
(1.15063 0.068737 -1.53994e-20)
(1.00694 0.0014623 0)
(1.0876 0.242606 -3.24002e-20)
(1.05394 0.00294635 0)
(0.507467 0.278847 -1.02985e-19)
(0.522089 0.685237 5.05437e-20)
(0.211739 -0.0494177 -1.39712e-20)
(1.00964 0.000324688 -5.24913e-22)
(0.999673 0.00287508 -4.58936e-21)
(1.15996 0.110701 4.46704e-20)
(1.12435 0.104024 -9.75073e-23)
(0.142145 -0.0153752 -3.43577e-20)
(0.350745 -0.0713912 5.51616e-20)
(1.13772 0.0169992 5.53236e-20)
(0.993032 0.0110865 0)
(1.24523 0.0118303 3.23167e-20)
(0.362147 0.208506 3.26536e-19)
(1.12072 -0.0537194 -5.00268e-20)
(1.24453 0.0568633 1.06227e-19)
(1.12836 0.00683772 5.31152e-20)
(0.604323 -0.0329888 4.04718e-20)
(1.0857 0.120037 -1.43402e-20)
(1.07602 -0.0383208 2.09291e-20)
(1.20569 0.015464 4.97898e-20)
(0.867896 0.432209 1.32591e-20)
(1.1367 0.0211482 -4.03935e-20)
(0.294306 0.324629 -2.08041e-19)
(1.13741 0.027168 2.4446e-20)
(1.056 -0.00737006 -1.17692e-20)
(1.11925 -0.0351756 -3.58196e-20)
(1.0083 0.105472 -9.49481e-22)
(1.03146 0.00399453 2.40018e-20)
(1.07315 -0.0181445 6.86942e-21)
(1.1078 0.118232 3.9578e-20)
(1.04911 0.0918541 1.75072e-21)
(0.999553 0.0120802 0)
(1.00618 0.000556594 0)
(1.12671 -0.0142163 5.2436e-20)
(1.06045 0.00827638 -2.22332e-20)
(1.15703 0.00827723 5.38499e-21)
(0.993817 0.0105767 0)
(0.995419 0.0081426 0)
(0.999962 0.000923929 6.61e-23)
(1.02454 0.0610826 2.01982e-22)
(1.02127 0.000844681 -7.25384e-21)
(1.05079 0.077905 1.38219e-20)
(1.00375 0.00266593 -1.9058e-22)
(-0.156662 -0.0148616 0)
(1.09178 -0.0464208 0)
(0.478933 -0.291685 -1.54205e-20)
(1.01146 0.00480559 6.47794e-22)
(1.00008 0.00169866 5.39454e-21)
(0.81005 0.146749 -5.30426e-20)
(1.15657 0.0561982 -8.63048e-20)
(0.956132 0.0030873 0)
(0.893679 0.0229643 1.03696e-19)
(1.12998 0.192037 8.05018e-20)
(1.14676 0.13799 -1.21682e-19)
(1.0746 -0.0170714 -9.16286e-21)
(1.18243 -0.00833901 3.60118e-20)
(1.04923 0.0127998 9.72129e-21)
(0.999817 0.00133536 6.2016e-21)
(1.00537 0.00219384 0)
(1.03571 0.0544936 -1.81313e-20)
(-0.258935 0.00130639 -1.28386e-19)
(1.00005 0.00149714 -7.50772e-21)
(1.21626 -0.0771375 3.69344e-20)
(1.05186 0.0796471 0)
(-0.147211 0.0203673 -8.26925e-20)
(0.974191 0.209437 -7.95034e-21)
(1.138 0.181749 -4.76187e-20)
(1.10622 -0.0483306 5.47718e-21)
(1.01948 0.00572811 0)
(1 6.7712e-05 0)
(1.09322 -0.0458613 0)
(0.988674 0.00341566 0)
(0.987024 0.0400312 6.17494e-21)
(1.03605 0.0226658 0)
(1.01331 0.0540999 1.05316e-22)
(0.998704 0.00072268 2.96617e-21)
(1.08324 0.0492849 -3.69319e-20)
(1.00607 0.00759387 -2.83971e-22)
(1.015 0.000694931 -2.67636e-21)
(1.05672 0.0900149 -9.91296e-21)
(0.889856 -0.0226678 0)
(0.121125 -0.0107435 -2.0166e-20)
(1.07976 0.10592 2.49301e-21)
(1.03717 0.000947884 9.78903e-21)
(1.00833 0.00104333 0)
(0.146745 -0.0512701 3.31884e-20)
(0.966398 0.340909 0)
(1.00237 0.0393243 -4.33055e-21)
(1.01876 0.0427899 -8.12798e-22)
(0.991624 0.0280406 -1.65378e-19)
(1.1718 -0.0944009 5.84601e-20)
(-0.266233 -0.000220443 1.38365e-19)
(0.901855 0.130854 0)
(1.05693 -0.00646714 5.8708e-21)
(1.01099 0.00301194 -1.49182e-21)
(1.01523 0.000918605 5.43266e-21)
(1.09092 -0.0357955 -4.0685e-22)
(1.08575 0.102352 -1.46288e-21)
(1.10865 -0.0630151 -3.51358e-20)
(0.920275 0.0178929 0)
(0.236625 -0.0222737 -2.92769e-20)
(1.0273 0.0412036 9.56815e-21)
(0.967998 0.0562046 1.50222e-20)
(-0.276311 -0.000644489 -1.58735e-19)
(0.995728 0.010041 0)
(1.08626 0.0127355 -3.27239e-20)
(1.00508 0.0298933 4.42526e-21)
(1.00194 0.00114301 1.69973e-21)
(1.10177 0.123775 4.55514e-21)
(0.778978 0.00721726 -5.73625e-20)
(1.04731 0.0255316 0)
(0.773065 -0.0869466 0)
(0.324659 -0.00905122 -3.65898e-20)
(1.1707 0.12713 2.14688e-20)
(1.00215 0.0171547 9.38805e-21)
(1.02324 0.0020408 -3.68794e-23)
(1.10279 -0.0505672 -6.62578e-20)
(1.2167 -0.072084 -6.05313e-20)
(1.00008 0.000425182 2.4286e-21)
(1.21949 -0.0717587 7.32649e-20)
(1.02279 0.00242342 0)
(1.10559 0.108147 -3.71398e-20)
(1.03183 -0.00226802 0)
(1.03259 0.0050947 -2.15169e-20)
(1.23395 -0.036315 6.49338e-20)
(1.03849 0.0138869 -1.93701e-20)
(1.03534 -0.0651662 0)
(1.11224 0.0823648 -4.39151e-21)
(0.999958 0.000938666 8.1753e-21)
(1.01866 0.00302189 0)
(0.982424 0.00123592 1.26554e-20)
(1.0091 0.0189209 0)
(1.04965 -0.00717191 -6.76333e-21)
(0.513548 0.649658 -8.05513e-20)
(1.03623 0.00299446 1.90826e-20)
(1.02919 0.00903428 -9.00963e-21)
(0.450825 -0.0899278 0)
(0.713557 -0.101128 6.0955e-22)
(1.08945 -0.0267857 1.24867e-20)
(1.11601 0.11336 0)
(1.14561 -0.00282025 -8.25444e-20)
(1.0741 0.020342 4.61774e-20)
(1.02328 0.013284 0)
(0.892156 0.0192601 -2.16939e-20)
(-0.116522 -0.0192861 9.78159e-20)
(1.09745 0.238907 0)
(0.998383 0.00489677 6.94409e-21)
(1.03479 0.0343521 1.27787e-20)
(0.389123 -0.0756666 0)
(1.11081 0.0152168 4.01431e-20)
(-0.0716008 -0.000599711 3.81413e-20)
(0.999962 0.00116701 -8.9916e-21)
(0.953567 0.00392037 1.90009e-20)
(0.167072 -0.00847265 2.32269e-20)
(1.10284 0.0112807 5.50933e-20)
(1.04923 0.0239729 0)
(-0.251554 0.00252001 2.60625e-19)
(0.221233 0.250089 1.61895e-19)
(1.00939 0.0186298 0)
(1.20069 0.0214449 0)
(1.00573 0.00202741 0)
(1.037 0.0140408 1.96578e-20)
(1.0117 0.00491067 0)
(-0.121293 -0.020162 3.58768e-20)
(1.02091 0.000497825 8.49437e-23)
(1.03623 -0.00429338 8.86913e-21)
(1.02378 0.0128954 0)
(0.986931 -0.064136 0)
(1.0585 -0.013826 1.71406e-20)
(1.22854 0.151799 -2.77131e-20)
(0.711504 -0.0976267 8.58598e-20)
(1.03304 0.00364556 -3.03653e-21)
(0.851653 0.026075 -1.46736e-20)
(1.00059 0.00345114 2.24173e-21)
(-0.111225 -0.000375752 4.08175e-20)
(1.00516 0.00978594 -1.49418e-21)
(1.03686 0.00234341 -1.55065e-20)
(0.998776 0.00130476 0)
(1.10334 -0.0494523 9.24546e-20)
(0.998537 0.00121714 4.40961e-22)
(1.19051 -0.0235056 3.57036e-20)
(0.320763 -0.00672838 1.89433e-20)
(0.781659 -0.0557705 1.64937e-20)
(0.909462 0.0257271 -4.63933e-20)
(1.10233 -0.0523849 1.34652e-20)
(-0.215626 0.00142412 -7.78103e-20)
(0.997215 0.0254338 0)
(0.207387 -0.0059827 1.88488e-20)
(0.515677 0.0501018 -1.68059e-19)
(-0.195713 0.00158024 -5.21175e-20)
(0.378066 -0.015285 -1.71877e-23)
(0.427073 -0.0880125 1.84558e-20)
(0.370766 0.261768 -1.17516e-19)
(1.19476 -0.0061497 0)
(1.01104 0.0469457 9.29752e-22)
(0.554483 -0.0303453 0)
(1.10231 0.0119551 -3.82158e-20)
(0.517534 -0.0357404 -1.99912e-20)
(1.02754 0.00350047 5.93128e-21)
(1.02304 0.0214882 0)
(1.00398 0.0418104 8.14069e-21)
(1.00063 0.00367049 0)
(1.07889 0.0180112 2.90085e-20)
(0.897182 0.0861045 -7.8773e-21)
(0.190558 -0.0158498 3.37422e-20)
(1.02283 0.0207964 0)
(0.994238 0.00357393 -1.22179e-20)
(-0.176293 0.0153645 -1.60982e-19)
(0.994587 0.41443 -4.36274e-22)
(0.982375 0.00101961 0)
(0.820706 -0.0438106 4.92325e-20)
(1.09095 0.0536995 0)
(1.04306 0.018943 6.09769e-21)
(0.564991 0.768682 0)
(0.818191 -0.0630657 0)
(0.954442 0.0472522 2.09478e-20)
(1.05915 -0.014418 -1.75956e-20)
(0.30084 -0.00638559 3.86858e-20)
(-0.259257 -0.000566571 1.56341e-19)
(0.218996 0.0771916 -2.59706e-19)
(1.03144 -0.00164395 0)
(1.23447 0.13944 6.20285e-20)
(1.19517 0.0767946 -1.90894e-20)
(-0.171322 0.00386359 -8.09721e-20)
(0.492727 -0.0827979 -5.2133e-20)
(1.09622 -0.0537899 0)
(1.01508 0.0249275 1.93866e-22)
(1.05023 0.0139331 -9.91192e-21)
(1.02623 0.0420371 -9.15978e-21)
(1.01743 -0.00013885 5.1617e-21)
(1.02618 0.0620002 -4.15021e-21)
(1.01565 0.00135104 2.72759e-21)
(1.04539 0.0912099 4.16379e-21)
(1.07897 0.125368 3.278e-20)
(0.000737587 0.0270682 0)
(1.13845 -0.0460853 0)
(1.03669 -0.00397735 -1.44088e-20)
(1.17885 -0.0116672 -3.30214e-20)
(-0.0586812 -0.0176677 6.78652e-20)
(1.09959 0.112069 6.12293e-20)
(0.973708 0.0229098 1.51046e-20)
(-0.0451532 -0.0154166 6.92143e-21)
(1.0291 0.0183704 -5.20913e-21)
(0.987717 0.0394359 1.16808e-20)
(0.826858 0.061271 -3.497e-21)
(0.0457052 0.0341491 0)
(0.99848 -0.000301822 -1.32272e-20)
(1.00395 0.0189806 -2.25132e-21)
(0.555134 -0.047381 -4.42138e-20)
(1.10152 -0.0527441 0)
(1.15172 -0.0891321 -1.56882e-19)
(1.15805 -0.0258 -6.0591e-20)
(1.10382 -0.0473032 -3.44116e-20)
(1.00761 0.0179117 0)
(1.20781 -0.00589689 -1.16023e-19)
(0.9727 0.0240171 0)
(1.00353 0.0102761 2.4728e-21)
(0.970881 0.0211519 0)
(0.645796 -0.0366685 4.83435e-20)
(-0.247849 -0.000721969 -8.01773e-20)
(1.0303 0.0077479 0)
(1.01913 0.00281747 2.03079e-21)