/*--------------------------------*- C++ -*----------------------------------*\
| =========                 |                                                 |
| \\      /  F ield         | OpenFOAM: The Open Source CFD Toolbox           |
|  \\    /   O peration     | Version:  v2012                                 |
|   \\  /    A nd           | Website:  www.openfoam.com                      |
|    \\/     M anipulation  |                                                 |
\*---------------------------------------------------------------------------*/
FoamFile
{
    version     2.0;
    format      ascii;
    class       volScalarField;
    location    "400";
    object      k;
}
// * * * * * * * * * * * * * * * * * * * * * * * * * * * * * * * * * * * * * //

dimensions      [0 2 -2 0 0 0 0];


internalField   nonuniform List<scalar> 
13851
(
7.5253e-05
0.0236136
0.0001189
7.46111e-05
0.000121323
0.000199431
8.97467e-05
9.61836e-05
6.09542e-05
0.000130845
0.00352444
0.033718
0.0167011
0.0555801
8.6926e-05
8.82457e-05
8.70023e-05
8.09655e-05
0.00743794
6.11623e-05
7.47546e-05
0.000116892
5.19614e-05
6.2139e-05
5.29887e-05
9.62899e-05
8.95202e-05
0.00684013
7.551e-05
8.14794e-05
0.00117448
8.69813e-05
0.000115492
0.00502237
6.23695e-05
0.000258999
0.00629214
0.000758376
0.000144058
0.00522992
7.44608e-05
4.6068e-05
0.0109826
0.00329926
0.00318787
0.029067
0.00305523
0.00179046
8.96365e-05
0.000151439
0.000116185
0.000192512
0.0196377
8.58166e-05
7.53013e-05
4.59698e-05
5.58764e-05
0.0246131
8.1285e-05
8.83138e-05
0.000634291
0.0185569
9.15351e-05
0.000133774
0.000178925
7.55112e-05
0.00975298
0.0028507
9.34237e-05
8.07432e-05
0.0144113
0.0164105
0.0233387
8.63496e-05
7.31043e-05
6.14398e-05
0.00011402
0.0147577
9.81971e-05
0.015932
8.73016e-05
0.00365792
8.30008e-05
0.0265355
9.41434e-05
0.0353524
6.12461e-05
0.0129501
8.85817e-05
5.32907e-05
0.000260412
7.1702e-05
0.00288061
8.96597e-05
8.87086e-05
5.86862e-05
0.000122791
0.0226121
0.000191656
5.90125e-05
0.0509041
0.000100547
7.69368e-05
9.16181e-05
4.84854e-05
0.000106609
0.000103932
4.52615e-05
0.023769
3.05172e-05
6.12511e-05
5.33513e-05
7.11391e-05
7.44809e-05
6.12912e-05
0.0119186
0.0231785
4.59252e-05
6.89863e-05
7.55067e-05
0.0105862
9.12352e-05
0.017913
0.00555605
0.000830063
4.96039e-05
0.00304404
9.94125e-05
7.43065e-05
0.000193294
7.46601e-05
6.47911e-05
0.0162091
8.33821e-05
0.0112712
6.51439e-05
4.60647e-05
0.0155319
0.037816
0.0355128
0.0474387
7.44391e-05
6.30637e-05
4.74279e-05
8.48026e-05
0.00353828
4.82082e-05
0.000193655
8.95747e-05
0.00304059
0.000120095
7.38265e-05
0.0588844
5.55574e-05
8.73327e-05
8.45258e-05
6.79794e-05
8.16217e-05
0.000191582
0.000115527
4.43604e-05
9.10414e-05
0.0240844
6.44907e-05
8.3774e-05
4.6996e-05
5.41035e-05
9.37215e-05
7.42532e-05
0.0177284
0.0134478
5.75022e-05
6.83028e-05
0.0374786
6.44407e-05
0.000779017
9.85347e-05
6.41161e-05
0.00884678
4.50908e-05
8.72486e-05
0.0180326
8.38283e-05
0.000122208
4.43353e-05
5.37428e-05
7.58559e-05
7.33554e-05
0.000130934
0.000122505
0.00303283
0.0216692
5.33481e-05
9.28718e-05
0.0192014
8.6814e-05
6.30401e-05
0.00466022
6.37554e-05
6.16948e-05
4.97659e-05
0.0302519
7.83533e-05
7.88245e-05
0.000108248
8.39655e-05
0.0397755
8.75651e-05
0.0226272
4.46246e-05
0.0284733
7.70544e-05
0.00272749
4.47652e-05
4.7079e-05
0.00359296
9.54199e-05
0.028184
8.56162e-05
0.0233598
8.73709e-05
8.7443e-05
0.0255021
0.000184613
0.0300746
5.42887e-05
9.04863e-05
4.9602e-05
0.0246503
4.46701e-05
9.55618e-05
0.00110073
5.74555e-05
5.32831e-05
0.000110316
8.85585e-05
0.03571
0.000190778
4.72933e-05
7.91472e-05
0.000823649
0.000185986
4.46491e-05
0.00011339
4.57841e-05
0.028657
0.00010115
0.00451974
8.41371e-05
8.56388e-05
6.78865e-05
0.000630766
8.39414e-05
8.4413e-05
0.000102412
0.00145564
0.000118572
0.0169165
0.00713319
8.81055e-05
4.72034e-05
8.00471e-05
0.0152851
4.9183e-05
0.0130972
8.67404e-05
8.4137e-05
8.9521e-05
0.0250982
6.50844e-05
6.78511e-05
8.71544e-05
0.00830883
9.6901e-05
8.76947e-05
6.48726e-05
0.0033394
0.000420869
0.031917
0.0034802
4.45568e-05
4.44047e-05
4.74996e-05
0.00010113
0.0143282
0.00124101
6.15427e-05
8.97655e-05
0.0100649
0.00386898
0.000231187
8.13293e-05
8.79188e-05
9.40605e-05
0.0039859
0.0121213
8.39313e-05
0.0335727
6.5133e-05
0.0288759
9.08907e-05
8.66339e-05
0.031351
7.81008e-05
0.000121054
0.0267542
6.16664e-05
9.77816e-05
8.96061e-05
8.11537e-05
0.0340519
8.39954e-05
8.32593e-05
0.0248843
4.6403e-05
8.57917e-05
4.98855e-05
0.0315851
0.000170654
8.55746e-05
0.000101853
8.69774e-05
0.0113195
6.77523e-05
5.17972e-05
6.801e-05
0.000167835
9.0203e-05
8.77895e-05
9.00344e-05
7.84881e-05
8.28511e-05
0.00321555
0.0588187
0.0179183
8.06796e-05
0.031057
0.0184573
8.63993e-05
9.29341e-05
0.00023363
7.40083e-05
9.6917e-05
0.000165341
0.00825155
6.86593e-05
0.00673579
0.0276155
8.71422e-05
5.20264e-05
3.64634e-05
0.0061458
8.78526e-05
0.000101038
0.0254796
6.84109e-05
0.00616358
6.79273e-05
8.76068e-05
4.55061e-05
4.51736e-05
6.79761e-05
0.0279338
0.00200362
7.98899e-05
9.69681e-05
4.64516e-05
0.0309575
8.97926e-05
0.00296641
0.0177814
7.97047e-05
9.92187e-05
8.92216e-05
0.00237291
7.38736e-05
4.61455e-05
6.93458e-05
0.0500718
7.31396e-05
0.0346888
7.35802e-05
0.000175481
0.0208151
0.00128977
0.000833655
6.60098e-05
6.64404e-05
8.77365e-05
8.00709e-05
0.00010166
0.0577078
9.40262e-05
0.0301001
0.0270972
4.65709e-05
8.82781e-05
0.0180674
0.0172242
0.000605904
0.0237814
7.12973e-05
8.94836e-05
5.69385e-05
0.0169526
5.898e-05
8.81528e-05
6.58692e-05
8.80765e-05
4.84169e-05
6.13931e-05
4.687e-05
0.000131526
9.41112e-05
0.0141623
8.04033e-05
0.000103763
7.76822e-05
0.00242181
8.56774e-05
0.00861502
8.65288e-05
0.00355845
4.58923e-05
6.13243e-05
5.4374e-05
0.00352573
0.00449243
0.000176833
7.73074e-05
0.0120813
0.00499112
5.62407e-05
7.47415e-05
0.000111519
7.38655e-05
0.00384157
4.81167e-05
0.018908
0.00530057
0.000111041
0.0208179
6.37758e-05
0.000267709
0.00511605
0.042562
4.44126e-05
9.00821e-05
9.89282e-05
0.00022475
5.87439e-05
8.24742e-05
0.000115908
0.000174675
8.21869e-05
0.0312745
5.43368e-05
6.81909e-05
0.0180248
8.38616e-05
4.42876e-05
0.0140063
6.62511e-05
7.51845e-05
6.01003e-05
8.87954e-05
8.10122e-05
4.46054e-05
6.34208e-05
0.0245937
8.29531e-05
9.4702e-05
6.54485e-05
7.28474e-05
0.0016462
7.7174e-05
7.2565e-05
7.03454e-05
7.01659e-05
0.002045
8.45757e-05
4.16828e-05
8.40782e-05
5.614e-05
0.0473495
0.0198755
8.45459e-05
7.30426e-05
8.59525e-05
0.000227712
0.0275879
6.84526e-05
0.00261503
7.42693e-05
0.000120941
8.76588e-05
0.0258924
4.57766e-05
0.0184836
0.000116566
4.62027e-05
7.26773e-05
0.0194351
9.58758e-05
0.00260285
6.8884e-05
0.0041227
7.58395e-05
6.31724e-05
6.46689e-05
8.9296e-05
0.0199693
0.000110169
0.000187062
0.00782362
9.38323e-05
4.45338e-05
0.0199199
0.00477055
8.75364e-05
9.09716e-05
0.000316701
0.00528576
0.0278797
8.57193e-05
0.0266484
0.0289857
0.0301389
8.41063e-05
7.29611e-05
0.00775018
0.000357481
0.00092968
0.00377871
0.02706
8.15528e-05
0.0273732
0.0185756
4.57479e-05
0.000303671
0.000111574
0.01699
8.40428e-05
8.00253e-05
6.78821e-05
7.64632e-05
0.000129562
8.72421e-05
0.0101567
0.0311363
6.24014e-05
0.0159633
0.0199622
0.00133274
0.00490938
9.4325e-05
4.43236e-05
6.10659e-05
0.000190292
0.0209815
8.75066e-05
0.000132699
0.000260568
4.58382e-05
8.02878e-05
0.00783747
0.0022438
0.000164613
0.0207567
0.0187679
7.42645e-05
8.84062e-05
0.0170957
0.026768
0.000181803
9.40831e-05
0.000104037
4.52002e-05
7.53596e-05
0.0202206
4.5764e-05
8.37581e-05
4.49653e-05
6.74145e-05
0.0194827
0.00012996
7.63363e-05
4.56443e-05
0.0310693
0.00393094
6.585e-05
5.44016e-05
4.93891e-05
8.74809e-05
0.0471187
0.0039092
0.00338255
0.028857
0.00336831
9.3505e-05
0.014642
0.0209392
6.89006e-05
9.3423e-05
4.42695e-05
4.98533e-05
8.94343e-05
0.023688
0.00969856
0.000132058
8.88164e-05
6.07805e-05
8.75352e-05
6.19453e-05
0.00245421
0.000115675
8.39883e-05
8.12582e-05
5.8878e-05
8.98092e-05
0.000184329
8.81582e-05
7.34654e-05
9.00851e-05
8.53249e-05
0.000121829
0.00228944
0.000175052
8.73963e-05
0.000189179
6.07583e-05
7.29737e-05
6.82477e-05
0.0277647
7.72876e-05
5.82418e-05
0.0221447
7.95048e-05
0.0227572
0.0276769
0.027085
0.0139112
5.91179e-05
0.0184792
4.46125e-05
6.70253e-05
4.56116e-05
6.74938e-05
4.53076e-05
8.04044e-05
8.79046e-05
4.55761e-05
0.0199499
0.000120432
0.0207108
6.67997e-05
4.52422e-05
4.96863e-05
0.000210403
0.0200325
0.000103597
8.98424e-05
4.47209e-05
5.69707e-05
6.2945e-05
6.75756e-05
0.00283223
0.0260641
8.53036e-05
4.54585e-05
8.96621e-05
6.79542e-05
0.0106988
0.0228508
8.79542e-05
0.0213581
0.00466602
7.34486e-05
0.000184483
0.0488002
9.39967e-05
0.0357465
8.70392e-05
8.03266e-05
0.000102988
7.99932e-05
0.00287078
8.44004e-05
0.00755307
4.75862e-05
9.41669e-05
0.0225973
6.0627e-05
7.85664e-05
9.65234e-05
6.32115e-05
8.6995e-05
0.0149079
0.0441573
0.000114294
0.0109275
0.00280632
4.49289e-05
6.66878e-05
0.0423943
0.000240533
9.02385e-05
0.0278474
5.81444e-05
9.54791e-05
4.59326e-05
0.00399241
0.0106088
8.33814e-05
7.45713e-05
0.00202944
8.88312e-05
4.95109e-05
0.0168113
0.00331067
0.0224791
4.62572e-05
8.55017e-05
0.0148414
0.0163841
0.000222271
6.19098e-05
0.024635
8.37008e-05
0.00323021
0.000198557
0.000114956
8.54641e-05
0.0274608
6.68621e-05
6.10966e-05
0.00497162
5.89947e-05
8.36501e-05
8.11474e-05
6.04582e-05
0.0187317
8.88974e-05
0.000165446
7.62916e-05
0.000823985
6.10847e-05
0.0153181
6.57149e-05
6.6649e-05
4.56945e-05
7.30427e-05
7.06305e-05
0.0264001
6.80639e-05
4.64983e-05
0.000220345
8.85133e-05
0.0172323
5.00396e-05
6.26595e-05
0.000114528
0.0161823
0.00263004
6.14636e-05
0.00198798
0.0217605
8.43847e-05
0.0268603
9.39449e-05
6.01544e-05
7.60557e-05
0.0128836
0.0018856
8.5038e-05
6.25978e-05
4.54009e-05
0.00516801
0.000123709
9.82712e-05
8.36757e-05
7.18153e-05
8.58231e-05
6.23005e-05
0.000132059
0.0027733
0.000128894
0.0110352
8.54334e-05
0.000121818
0.000126892
0.0314243
8.3073e-05
0.046766
0.00622309
8.88947e-05
0.0283199
0.000114679
0.0200896
0.0476298
0.0247725
0.00270597
9.17727e-05
6.04311e-05
7.9644e-05
0.0260479
0.0271816
6.66891e-05
5.56255e-05
0.000111871
0.00340936
4.66705e-05
0.019734
5.80573e-05
8.0998e-05
0.0192034
0.0147097
0.00292086
6.66181e-05
8.81255e-05
0.0181622
0.00226957
0.000169384
6.87676e-05
0.0189745
0.00200027
0.0202054
0.000103518
9.65489e-05
8.28183e-05
8.78846e-05
0.0215804
0.000102142
0.0165661
7.10605e-05
9.37229e-05
0.0202444
0.0199135
0.0183027
8.55635e-05
9.30727e-05
6.55847e-05
8.7826e-05
7.82953e-05
0.0322692
9.58727e-05
0.0265605
4.6744e-05
0.000113352
7.46592e-05
0.000333455
9.37152e-05
9.2778e-05
0.0217437
9.81797e-05
8.98902e-05
6.24277e-05
0.000112981
0.0010072
0.000107349
8.3372e-05
0.0136906
4.91379e-05
0.0523146
0.00210953
8.19063e-05
0.0288484
0.0520595
0.0182133
0.00353992
7.03947e-05
6.76212e-05
0.0216629
9.21279e-05
0.0130533
0.0229442
6.72409e-05
8.98238e-05
0.00281411
0.00283482
0.0416446
8.3688e-05
5.54158e-05
0.0205049
0.0225552
0.000164585
8.48521e-05
6.86353e-05
0.00313836
0.0238369
0.000129367
4.65657e-05
9.217e-05
6.36628e-05
7.14977e-05
0.000253521
5.76998e-05
0.0169016
0.00491443
8.08137e-05
6.34313e-05
6.74365e-05
8.1485e-05
0.0147436
0.0188088
9.00962e-05
0.0467946
7.48111e-05
8.97696e-05
6.73575e-05
6.3967e-05
7.94039e-05
8.04509e-05
0.0183615
8.42793e-05
0.000102851
8.53017e-05
8.53625e-05
0.000130434
0.0143039
6.84508e-05
0.0171779
0.000100097
0.00843624
8.93216e-05
9.03536e-05
0.0149837
9.00555e-05
8.73492e-05
0.0318222
0.0140152
0.0189291
9.37779e-05
0.00302954
7.7089e-05
9.72032e-05
0.000101383
0.0441265
6.16793e-05
0.0369835
6.64281e-05
6.70514e-05
0.0531037
5.01604e-05
0.012736
8.55699e-05
6.49537e-05
7.89547e-05
6.54193e-05
8.8448e-05
4.48307e-05
8.68715e-05
0.00197358
6.75148e-05
0.00210015
0.0228813
0.000102494
0.0416938
8.7808e-05
6.58044e-05
5.00149e-05
7.62823e-05
6.51358e-05
0.000123344
9.024e-05
6.25814e-05
7.49072e-05
5.25461e-05
0.0171434
0.025262
9.34518e-05
0.0237979
0.00334287
7.48875e-05
0.00811848
8.88461e-05
6.76983e-05
0.00401319
0.00023625
0.00684754
7.34483e-05
0.00317032
0.00220549
0.0284518
5.83245e-05
0.0168746
8.8531e-05
8.8717e-05
4.49226e-05
5.85335e-05
0.0413807
2.69501e-05
0.00198743
6.05816e-05
8.21601e-05
0.00195592
8.22505e-05
0.0127829
0.00253463
0.00635739
0.00893534
0.00395695
5.50534e-05
7.82794e-05
9.85436e-05
7.32365e-05
9.08966e-05
0.000220096
9.45959e-05
9.03157e-05
6.82751e-05
0.0230303
6.23879e-05
0.0166015
0.0129334
0.0130302
0.000734946
8.99067e-05
4.88727e-05
7.41942e-05
0.00222429
0.00482611
5.82437e-05
8.04771e-05
6.03045e-05
0.000121135
4.7313e-05
6.02479e-05
8.71063e-05
9.21228e-05
0.00868722
8.82926e-05
8.16441e-05
7.10331e-05
0.000103623
0.0149513
9.08551e-05
0.0282777
0.0137236
0.000124565
4.79664e-05
9.84383e-05
7.95872e-05
5.12876e-05
7.4105e-05
0.0147236
0.000170798
0.0042833
9.12415e-05
0.00288834
8.14478e-05
4.97257e-05
7.72643e-05
0.00736473
0.000476084
4.4369e-05
9.18572e-05
9.59518e-05
0.020571
7.08498e-05
0.0139942
4.5634e-05
0.0388025
0.000117394
0.0259863
0.000133767
0.000123225
0.00328749
0.0208157
0.00422166
0.0281783
5.47301e-05
0.000908017
4.71738e-05
8.36751e-05
9.12132e-05
8.37083e-05
0.020942
8.80559e-05
8.92444e-05
0.00350432
0.000303152
0.000879844
8.62615e-05
8.86786e-05
8.36128e-05
4.91197e-05
7.98178e-05
0.0195632
0.00325207
0.016024
7.18329e-05
9.01736e-05
6.8941e-05
0.00690367
0.0239137
9.97607e-05
4.87346e-05
9.03664e-05
0.0268569
9.51618e-05
0.0325161
0.020212
0.000115439
4.78239e-05
0.0158201
7.93811e-05
9.64862e-05
8.98604e-05
0.0276644
0.00229212
0.000173008
0.000166367
7.73729e-05
7.29239e-05
8.15627e-05
0.0174497
9.1447e-05
0.0200895
0.00212766
9.09382e-05
0.000214779
8.59634e-05
0.0276462
0.00284038
4.88536e-05
0.0048656
0.0233292
0.00657749
0.0222601
7.84348e-05
7.8372e-05
0.0149503
0.0157027
0.0246814
8.0992e-05
8.9031e-05
8.02533e-05
0.0173813
0.000205039
8.65807e-05
0.00037873
0.000128769
0.0348431
0.0151266
0.00185509
8.71702e-05
0.0231547
8.88867e-05
7.22962e-05
0.000205305
0.0195546
8.93645e-05
6.59928e-05
0.0124476
0.026792
4.94187e-05
7.13117e-05
0.034527
4.83603e-05
0.000228011
7.21823e-05
0.00668371
7.78499e-05
0.000103293
0.0143048
0.024076
8.6873e-05
0.0145218
0.00548578
0.0210562
0.0121446
0.0409609
8.15659e-05
7.69731e-05
0.0120346
7.23774e-05
8.68432e-05
4.89684e-05
0.00689851
7.30867e-05
0.00446602
6.62375e-05
6.13713e-05
0.0141915
0.000107947
0.0149144
8.48276e-05
4.79174e-05
6.46289e-05
9.32334e-05
0.0156524
0.0498861
6.50077e-05
0.000111426
0.0031922
7.67911e-05
5.83564e-05
0.022328
9.3137e-05
8.85112e-05
0.000185855
0.0371676
0.000164443
0.0139768
0.0209128
9.81935e-05
0.00360977
0.00511441
0.00477382
0.000111168
4.53498e-05
0.000179965
7.64125e-05
7.37245e-05
0.0238575
0.0225174
7.93898e-05
0.0643729
0.00047212
0.0162485
0.000885128
0.000190188
7.53848e-05
0.000734419
8.31499e-05
5.2487e-05
8.70069e-05
0.0268875
0.0231908
0.0159366
0.0269225
8.84615e-05
0.0282704
0.0278106
9.2872e-05
7.91928e-05
6.97433e-05
0.00391458
7.16982e-05
0.002713
7.7929e-05
8.71185e-05
7.95548e-05
0.0161953
0.0303854
0.0344067
7.41034e-05
0.0165717
8.28138e-05
8.42525e-05
7.26399e-05
4.89038e-05
0.0234516
8.56581e-05
0.0212147
0.0205345
0.000260417
0.000165033
9.02761e-05
9.00883e-05
7.94917e-05
0.000203151
6.41131e-05
8.52236e-05
7.40386e-05
7.3338e-05
0.000232767
8.7755e-05
8.97851e-05
5.24396e-05
8.9819e-05
0.000431941
0.0152143
6.88734e-05
9.92855e-05
5.14908e-05
0.000116275
4.90242e-05
0.019451
0.00175545
9.34046e-05
8.94695e-05
8.66276e-05
0.000682805
7.48101e-05
0.000942223
8.92095e-05
6.1004e-05
6.26839e-05
0.0251459
8.90629e-05
7.53202e-05
7.07054e-05
5.21783e-05
0.000111361
0.0242292
0.0119003
9.37264e-05
8.21299e-05
6.74178e-05
4.52333e-05
6.31102e-05
0.000548763
0.0265528
4.96386e-05
8.4427e-05
0.000130802
0.0174774
8.75068e-05
8.69868e-05
0.0255997
8.59846e-05
9.14114e-05
0.00384681
0.0304418
7.76397e-05
4.91141e-05
7.94292e-05
0.0297695
0.000185243
9.38543e-05
0.000167982
0.0346626
8.9047e-05
0.0287666
0.0386246
7.42547e-05
0.016956
0.000124524
8.33058e-05
0.0238511
8.56712e-05
6.70547e-05
5.81279e-05
0.000278287
0.000239732
0.000241632
8.45015e-05
9.09573e-05
9.3725e-05
0.00280907
0.00513587
0.0298847
0.00341653
8.8839e-05
0.000186435
0.000190567
0.020096
0.000114076
0.0035792
7.20226e-05
7.03659e-05
5.87323e-05
0.000748503
8.71628e-05
7.92915e-05
0.0238133
0.00130783
9.00446e-05
6.12204e-05
4.4544e-05
5.15739e-05
9.71484e-05
8.96868e-05
0.000672365
0.000111025
0.000108379
0.000100442
0.000164846
0.0470276
0.000111731
0.0296198
6.87102e-05
6.3399e-05
0.00125474
0.0331652
0.0184291
0.000389433
6.32391e-05
0.0141655
0.00350358
6.08997e-05
9.07236e-05
6.85814e-05
9.66951e-05
0.000114865
7.72686e-05
0.0217414
0.00402008
8.73232e-05
0.0198104
0.0130688
8.73367e-05
0.000116173
0.038333
0.018391
8.87446e-05
0.000119454
4.45618e-05
8.15707e-05
5.2765e-05
8.45275e-05
0.0301629
0.019745
0.0180855
0.0212505
8.97994e-05
8.72667e-05
9.66885e-05
4.9218e-05
7.40356e-05
5.88984e-05
0.0235563
7.06295e-05
0.0276569
8.77074e-05
8.85835e-05
0.000219086
0.00148235
0.0156055
0.018548
9.62999e-05
4.66294e-05
5.16548e-05
0.0169682
0.0119349
8.85386e-05
6.7563e-05
5.69357e-05
0.000106522
8.84384e-05
0.000210841
0.0388235
9.06348e-05
5.82224e-05
0.000171371
6.72357e-05
0.0145782
0.0143484
7.14635e-05
0.000115408
7.41527e-05
0.0316092
4.7452e-05
0.0286386
4.91224e-05
9.07393e-05
7.96251e-05
8.83208e-05
0.000103958
9.08492e-05
9.88171e-05
0.0278633
0.0235946
8.84328e-05
8.91411e-05
7.55551e-05
0.0177982
0.0290253
6.32552e-05
4.84253e-05
0.00327054
4.56152e-05
0.0207395
4.91972e-05
8.27376e-05
0.00011059
0.00544126
8.73612e-05
7.25108e-05
9.04195e-05
0.000115243
0.0270717
7.6744e-05
0.000447966
0.0629959
0.0130827
0.00810311
8.66213e-05
0.0170525
9.22961e-05
0.0026223
8.17209e-05
0.00352388
0.00366412
0.0218348
0.0250376
0.0471582
5.03535e-05
0.000154401
6.55485e-05
0.0127416
0.00352249
0.0263432
0.0266605
8.53885e-05
0.0452757
0.00327643
8.71786e-05
7.93174e-05
8.77475e-05
0.0215096
8.53406e-05
0.000114967
7.49595e-05
7.68241e-05
6.41313e-05
8.09719e-05
0.022607
0.00165511
8.79897e-05
0.0276683
0.0136763
4.99209e-05
8.18579e-05
5.75963e-05
7.18266e-05
0.028076
0.00210367
8.4208e-05
8.58171e-05
0.00027101
0.000117758
9.74797e-05
0.0175693
8.76363e-05
0.0293218
9.36579e-05
8.08819e-05
8.16249e-05
7.49416e-05
0.000114121
0.00224758
0.0035744
0.0232651
0.000111563
0.0191243
6.52896e-05
8.76504e-05
5.45985e-05
0.0195038
0.0318633
0.00409745
0.00033622
8.83264e-05
8.19418e-05
6.83201e-05
8.89014e-05
5.90889e-05
0.015238
8.77312e-05
0.0197014
8.68919e-05
0.0202326
0.0233447
0.0286061
6.70629e-05
9.05556e-05
0.0250716
8.90072e-05
0.00314919
0.0232711
6.28946e-05
0.000144579
8.87436e-05
0.0400136
0.0166561
8.77182e-05
0.000312213
0.00477537
6.97611e-05
9.27401e-05
9.21901e-05
0.0259334
0.00244557
8.75723e-05
8.97985e-05
0.00372875
0.0108316
0.000186175
0.0115771
0.000180627
7.21781e-05
6.2286e-05
0.0360112
0.0257997
0.000117632
9.27881e-05
0.0231386
0.0448244
6.57958e-05
8.56038e-05
8.76533e-05
0.0265228
0.0251133
8.42282e-05
0.0173385
8.8661e-05
6.98283e-05
7.88979e-05
0.0241002
0.00402605
9.36548e-05
0.0175298
7.94868e-05
8.48837e-05
7.07012e-05
0.0205324
7.74508e-05
0.0186128
7.51602e-05
0.0223924
9.00247e-05
7.61949e-05
0.000174113
0.0144693
0.00370754
8.89544e-05
0.0179593
4.43976e-05
8.38066e-05
8.5681e-05
9.51477e-05
0.000109458
0.000109626
8.56313e-05
0.0251331
8.87836e-05
0.000179026
0.00018602
0.046879
6.62299e-05
0.0202982
0.0238527
9.21325e-05
0.00226612
0.000111957
0.041174
8.42228e-05
0.000106242
6.27519e-05
0.00223363
0.0137864
0.000112673
0.0284459
7.92341e-05
0.000101737
7.92689e-05
0.0178655
4.70844e-05
6.80722e-05
0.00719535
0.000128698
0.0367163
0.0153931
0.000111209
8.81952e-05
5.79117e-05
0.0260914
7.91535e-05
5.27199e-05
0.000210393
4.46966e-05
9.71392e-05
8.13745e-05
0.0138417
7.61378e-05
0.00335503
0.00401437
7.8976e-05
0.00248078
9.78246e-05
0.0318141
7.27058e-05
0.0123498
0.0334091
6.21301e-05
8.27864e-05
8.31749e-05
8.98395e-05
9.27887e-05
6.85975e-05
0.000194235
0.000120025
0.00310785
0.000129129
7.43271e-05
8.59444e-05
5.67668e-05
0.0197653
8.38871e-05
7.49446e-05
0.00337731
9.05637e-05
0.0228488
0.0280789
0.000132025
7.53112e-05
8.89619e-05
8.43971e-05
8.83681e-05
7.60437e-05
4.86522e-05
9.0254e-05
0.0191009
0.0296374
0.00809248
8.40481e-05
0.0208904
0.000287375
9.04381e-05
0.00183661
0.0245111
8.49135e-05
8.94979e-05
8.44398e-05
0.0210096
0.0286893
0.00801839
4.8505e-05
8.68825e-05
6.82572e-05
8.9222e-05
0.000186328
7.69226e-05
8.92512e-05
0.0146579
0.0287284
6.19489e-05
8.95239e-05
9.13144e-05
0.025511
4.43232e-05
0.0284074
0.0206747
0.00100185
0.0143514
0.0179385
0.0333124
6.93946e-05
0.00730165
0.000194996
9.00821e-05
5.78282e-05
6.85291e-05
0.0280722
0.0176733
0.0235272
5.1159e-05
0.029749
8.35737e-05
0.000232457
5.33304e-05
8.32378e-05
8.91956e-05
6.1885e-05
0.0285976
9.10194e-05
0.034361
0.0478829
0.0277539
9.55376e-05
0.000103428
0.0281058
0.0266834
6.67485e-05
0.0130751
5.71118e-05
4.61103e-05
8.19932e-05
4.70453e-05
5.39669e-05
0.0279231
7.8414e-05
0.00120337
8.62618e-05
0.0205221
0.0282773
0.000122229
6.15651e-05
9.71113e-05
0.000114089
0.0278958
6.58327e-05
4.44409e-05
7.86514e-05
0.0212511
7.03187e-05
0.00440319
0.0262705
9.6164e-05
0.000104489
6.65501e-05
0.00474052
8.739e-05
0.0287497
5.52423e-05
0.0151607
9.36405e-05
8.55522e-05
0.0270568
0.0262977
5.34363e-05
0.000112348
8.50162e-05
0.0220488
8.02298e-05
0.000162023
0.000894937
8.60384e-05
9.67568e-05
0.0210032
5.36564e-05
4.48567e-05
6.79085e-05
0.000120732
9.29225e-05
0.0222925
0.0190336
8.506e-05
0.0204037
8.70563e-05
9.63076e-05
0.0235073
0.0255422
8.6377e-05
0.0207422
0.00174033
9.02231e-05
0.00437949
0.00018137
9.24769e-05
9.03315e-05
0.0203915
5.36999e-05
0.0272108
0.000268318
0.000155753
8.60509e-05
8.10085e-05
0.0200944
9.66442e-05
0.0199732
8.79046e-05
8.68127e-05
7.33146e-05
0.020834
9.19797e-05
0.0272954
0.00359261
0.0287989
7.7682e-05
0.0201772
0.0120428
0.0283225
8.68031e-05
5.1473e-05
7.02443e-05
0.0281633
6.05233e-05
0.00486655
0.00388415
8.50466e-05
5.07635e-05
8.56002e-05
0.0272545
0.01648
0.0517575
0.028493
7.08128e-05
0.0196235
0.0258908
0.000187333
0.0187268
0.0208856
8.50119e-05
0.0236136
8.94237e-05
9.1908e-05
0.0197975
0.0181384
4.87926e-05
0.0640146
7.4518e-05
8.44201e-05
0.0400874
0.019074
0.0282862
0.012979
8.72396e-05
8.58404e-05
7.71197e-05
0.026112
0.02535
7.75317e-05
0.000100564
0.00308326
8.60879e-05
8.23028e-05
0.0229991
0.0307337
8.33014e-05
8.8376e-05
8.99183e-05
7.94412e-05
0.00460393
8.94822e-05
6.26776e-05
8.45273e-05
0.000650643
0.0232755
0.00096506
0.0196211
8.48365e-05
8.2851e-05
0.0227065
0.0264263
8.34757e-05
0.000373549
8.52078e-05
9.26275e-05
7.26221e-05
4.86928e-05
0.000107392
6.31629e-05
0.0126189
8.61831e-05
6.17794e-05
8.26062e-05
0.0137282
0.0334966
0.0181144
8.61933e-05
8.58196e-05
0.0272145
0.00447763
8.91948e-05
6.57753e-05
9.02197e-05
0.00347976
8.20392e-05
6.25557e-05
8.78603e-05
8.23536e-05
0.0229547
0.000587899
8.49216e-05
8.56937e-05
4.82709e-05
7.74817e-05
0.0222783
0.000684745
0.00011472
0.0204128
9.44846e-05
8.62516e-05
8.43694e-05
8.49632e-05
7.04791e-05
8.59099e-05
7.75708e-05
0.000108361
0.0233185
6.81611e-05
0.000157388
0.0181154
0.000385297
7.44932e-05
6.84509e-05
9.0196e-05
0.0308518
7.03277e-05
0.00801358
0.00546592
8.66878e-05
5.71961e-05
0.013294
4.70197e-05
0.00017253
5.39471e-05
4.71933e-05
7.0659e-05
5.92589e-05
7.39778e-05
0.0178812
0.00139739
9.23063e-05
0.0314943
0.000286706
0.000405036
9.2568e-05
0.0192331
0.0201841
0.000155201
0.0237151
0.0235419
0.000164066
0.00485004
8.89681e-05
5.3651e-05
0.0253421
7.02889e-05
8.61712e-05
0.0438162
6.77301e-05
0.0296895
0.00190261
6.33645e-05
5.26772e-05
8.21484e-05
8.17719e-05
5.31094e-05
2.20374e-05
0.0390492
0.023026
0.0106614
8.10537e-05
5.36952e-05
0.00011629
0.063187
0.0231745
0.000166604
0.00888712
6.83767e-05
0.0114791
0.0220407
0.000554336
8.09663e-05
8.11446e-05
4.44038e-05
7.90224e-05
7.42364e-05
7.25019e-05
8.60883e-05
0.0222291
0.000120043
0.0207513
2.80097e-05
0.00872387
0.000260936
8.16357e-05
5.419e-05
6.05418e-05
5.41068e-05
8.88565e-05
0.00111259
0.018747
0.0115677
0.0296744
9.10144e-05
0.0294893
0.000203748
0.0274612
0.0238544
7.73949e-05
5.99921e-05
0.000587039
7.99982e-05
5.34892e-05
0.00307481
0.0230612
0.0137311
8.25227e-05
8.33281e-05
6.5062e-05
9.1018e-05
0.0139553
5.73107e-05
7.69133e-05
0.0059519
4.49256e-05
0.00459375
9.06739e-05
0.0471097
8.63569e-05
0.00383007
0.060041
8.76671e-05
0.0256283
0.000162357
0.0214596
4.75004e-05
8.40159e-05
6.5439e-05
8.72873e-05
0.0237524
5.21519e-05
0.0217457
6.04927e-05
6.42855e-05
8.90933e-05
0.0293117
9.7675e-05
0.000160757
0.00584625
5.71905e-05
9.09883e-05
0.0256365
9.74706e-05
5.35809e-05
6.94848e-05
7.89514e-05
8.9616e-05
6.58962e-05
6.13214e-05
0.0307562
0.0289419
0.0282536
0.00840828
0.00663483
0.0300975
0.000115494
0.030552
0.000179563
4.72888e-05
4.98017e-05
4.5773e-05
7.81103e-05
0.0266008
0.0264478
5.02551e-05
0.0189709
0.0301444
9.31069e-05
6.78044e-05
9.14916e-05
0.0200734
0.0224366
0.0224285
0.0123216
0.0232568
4.56254e-05
0.00337505
0.000145598
0.00440593
0.020599
8.33841e-05
0.000183903
0.028763
8.67418e-05
0.0547857
7.76757e-05
3.42499e-05
0.0298879
0.0264862
0.000119474
8.8323e-05
0.0144559
0.000184515
0.0269126
0.028425
0.0228459
0.000164075
0.0183194
8.31411e-05
7.06989e-05
9.90847e-05
0.0181219
0.00400124
0.0214162
6.12016e-05
0.000164542
0.000106998
6.23425e-05
0.0240498
8.46836e-05
0.000186779
0.0171691
8.55509e-05
0.048306
0.0266217
0.0284299
0.0196737
0.00677251
0.00030752
6.736e-05
0.027064
6.01713e-05
5.5182e-05
9.5639e-05
8.72224e-05
0.0241512
8.83305e-05
8.8233e-05
8.6561e-05
5.96274e-05
0.0167948
8.36885e-05
0.000167437
0.00430156
6.24685e-05
0.0216648
0.000145873
6.74218e-05
0.0227982
0.0035541
8.59234e-05
0.00382725
8.58396e-05
0.0298848
0.000199887
5.0181e-05
0.000165934
8.40069e-05
0.0280114
0.0233951
0.000116068
0.00847557
7.60833e-05
9.0333e-05
0.0448177
9.05774e-05
6.97955e-05
0.0134692
9.8134e-05
6.8973e-05
6.19083e-05
0.000189958
8.28434e-05
0.0170462
0.00361965
6.61058e-05
0.0391205
0.000103804
0.000106032
6.71807e-05
0.0284628
0.0150356
0.0343436
8.68369e-05
5.0555e-05
0.0001152
8.68393e-05
0.00155591
6.99636e-05
0.00424882
6.58153e-05
0.000432246
6.21117e-05
4.82693e-05
0.000412958
0.000164558
0.0218155
0.0179167
0.0241652
0.0225611
4.61753e-05
0.00834123
0.0101945
0.0171806
5.7265e-05
0.000603191
0.0147936
0.0258448
0.000166214
0.00710432
0.0125934
0.0294022
0.000100266
0.00315927
6.16148e-05
9.94907e-05
9.88182e-05
8.34506e-05
0.000114874
0.0374285
0.000199963
0.0267013
0.0102997
7.74311e-05
6.51808e-05
7.56498e-05
8.3518e-05
0.0110013
5.77621e-05
6.34682e-05
0.0309753
0.00127127
8.30725e-05
0.000146974
6.31938e-05
0.000124861
0.0209308
0.0239515
0.0224675
9.19694e-05
0.0237147
7.17275e-05
5.52244e-05
9.09364e-05
0.0200334
0.00180208
0.00298626
0.00151457
8.74747e-05
6.32141e-05
8.32841e-05
8.93129e-05
9.04594e-05
0.0485409
0.0109755
8.79582e-05
0.024504
0.0168183
0.000100523
0.0305869
8.49459e-05
8.97829e-05
0.000134073
8.58964e-05
5.30156e-05
8.84347e-05
8.79837e-05
0.0184511
0.0240618
5.73959e-05
9.76403e-05
8.85947e-05
0.000109951
0.0265082
0.0473273
0.0291696
6.98779e-05
0.000126244
0.0292879
0.000125109
0.000165795
0.000138053
0.0200851
0.0294216
0.030853
5.78291e-05
0.0178374
5.08146e-05
7.53659e-05
8.15744e-05
0.000104999
0.0293207
0.0134556
0.00487406
0.0247494
0.0001024
5.28658e-05
6.79349e-05
8.28625e-05
7.35066e-05
9.72e-05
0.0300657
0.0307489
0.000121053
0.00752524
7.76659e-05
0.000101863
6.34954e-05
0.0279577
0.000107751
6.98372e-05
0.00021588
0.000147714
0.0345278
0.0204288
0.000189527
0.0123786
8.51453e-05
0.0326081
0.00216809
0.0200662
0.00325463
7.17641e-05
0.000101263
8.346e-05
0.0228815
0.0205194
9.35287e-05
0.0291928
0.00214785
0.0404268
0.000108967
0.00118602
8.75082e-05
7.04046e-05
0.000170959
0.000100263
8.79905e-05
0.000100705
8.93185e-05
8.89174e-05
0.0263988
0.000234315
8.12148e-05
8.71512e-05
9.30669e-05
8.63391e-05
6.77696e-05
0.044851
0.000158473
0.00256296
0.0227822
8.27133e-05
0.0233263
8.96696e-05
7.72683e-05
8.29739e-05
0.0231989
8.88578e-05
0.0276071
0.0301702
0.000103923
8.57703e-05
0.000168709
0.0258273
0.000191703
0.0103841
8.13751e-05
0.000100068
5.64563e-05
0.0249928
0.00572496
8.13129e-05
5.33326e-05
8.82721e-05
8.99665e-05
8.46926e-05
0.000101622
9.73852e-05
8.40371e-05
8.65045e-05
0.0217724
0.0565174
0.00015533
9.59006e-05
4.64523e-05
0.0257461
9.26234e-05
0.000110859
5.26861e-05
9.91024e-05
0.0333871
5.37593e-05
9.12344e-05
7.65318e-05
8.60392e-05
7.64235e-05
0.0240763
0.00318914
0.0138408
8.77548e-05
0.025004
0.00139584
9.02773e-05
0.0260725
0.000111817
0.00118809
0.0234003
8.8169e-05
8.72287e-05
9.78876e-05
0.000109876
7.13583e-05
0.00609142
0.0208195
0.00436918
7.04271e-05
0.00155816
0.00574887
0.0158748
8.11002e-05
9.71844e-05
6.23752e-05
8.74458e-05
0.0165004
8.75028e-05
8.82798e-05
6.90199e-05
6.86039e-05
0.0229864
0.019898
7.26371e-05
0.0324066
0.00108058
5.29081e-05
5.95343e-05
0.0250099
0.00016387
0.000148456
8.39089e-05
8.81804e-05
0.000152484
5.54074e-05
6.93562e-05
0.0336129
8.91343e-05
0.0240573
0.000126432
8.93517e-05
0.0288624
0.000168868
0.000241128
7.03756e-05
0.00472806
9.30524e-05
8.87252e-05
0.0285357
9.57905e-05
7.72941e-05
0.000124165
8.81371e-05
7.10323e-05
5.05702e-05
0.00689582
8.14779e-05
0.000102919
0.0122433
0.000144869
5.98728e-05
0.00535302
9.21728e-05
0.0247332
0.000857213
0.0204171
0.00015445
0.0257208
6.46007e-05
0.000119278
9.05624e-05
7.64023e-05
0.00215503
0.0294669
9.15391e-05
0.000108895
5.92756e-05
0.000115261
0.020593
9.02472e-05
6.97784e-05
0.000293212
0.0191541
0.0243694
0.000938061
5.87406e-05
6.31154e-05
0.000105238
8.71521e-05
0.0108477
0.0300199
0.0277801
0.0474575
0.029053
6.82211e-05
0.0012975
8.70587e-05
8.98904e-05
8.33121e-05
0.0060098
0.000299637
0.00011339
7.03788e-05
0.0202969
8.8465e-05
0.0182432
5.48706e-05
0.000102639
9.21654e-05
0.000115244
9.35482e-05
0.000149367
8.77613e-05
0.000512445
0.000319856
7.07704e-05
0.044817
0.00181464
8.90419e-05
8.38496e-05
8.89202e-05
7.88304e-05
6.82407e-05
0.000111064
7.31724e-05
0.0213979
0.000849211
0.000127474
9.99475e-05
5.36379e-05
0.0104047
0.000110673