/*--------------------------------*- C++ -*----------------------------------*\
| =========                 |                                                 |
| \\      /  F ield         | OpenFOAM: The Open Source CFD Toolbox           |
|  \\    /   O peration     | Version:  v2012                                 |
|   \\  /    A nd           | Website:  www.openfoam.com                      |
|    \\/     M anipulation  |                                                 |
\*---------------------------------------------------------------------------*/
FoamFile
{
    version     2.0;
    format      ascii;
    class       volVectorField;
    location    "400";
    object      U_0;
}
// * * * * * * * * * * * * * * * * * * * * * * * * * * * * * * * * * * * * * //

dimensions      [0 1 -1 0 0 0 0];


internalField   nonuniform List<vector> 
13851
(
(1.01792 -0.00845108 0)
(0.62064 -0.174296 -6.69933e-22)
(1.03027 -0.0447619 4.42357e-21)
(1.01757 -0.00766207 0)
(1.05813 -0.0494409 0)
(0.999693 0.0264475 0)
(1.02689 -0.000228118 0)
(1.04001 -0.0336717 6.67291e-21)
(1.01119 -0.000676932 8.75172e-23)
(1.02877 -0.0188275 2.20412e-22)
(0.960425 0.0814244 0)
(0.449951 0.14631 6.03606e-21)
(0.982251 -0.0655153 -1.14604e-20)
(0.0251878 -0.00629061 -5.52686e-21)
(1.01783 -0.000197758 7.08246e-24)
(1.0327 -0.0255807 -7.77493e-24)
(1.03689 -0.0169676 2.9515e-21)
(1.01979 -0.0117667 2.26918e-22)
(1.04971 -0.0807753 -1.31248e-20)
(1.01107 -0.000698917 -1.84773e-22)
(1.0176 -0.00755276 -2.5728e-23)
(1.03315 -0.0460456 1.59542e-21)
(1.00847 -2.96333e-05 7.15073e-23)
(1.00898 -0.000119145 -5.98079e-23)
(1.00755 -5.29477e-05 0)
(1.0387 -0.033548 -6.5107e-22)
(1.04376 -0.0114755 0)
(0.00622696 -0.122381 3.39339e-20)
(1.01816 -0.00845661 1.18149e-24)
(1.02353 -0.014167 -5.83561e-22)
(0.998444 0.0406025 0)
(1.0373 -0.0177063 0)
(1.03006 -0.0425615 -7.63179e-21)
(0.875936 0.138839 0)
(1.00957 -0.000112217 9.64352e-23)
(1.08664 -0.0286899 -9.19216e-21)
(1.06866 -0.0285997 -4.78434e-20)
(1.03802 -0.0892133 0)
(1.0262 -0.0165703 -3.00202e-22)
(0.891022 0.118617 1.38995e-21)
(1.01636 -0.00503086 2.10643e-22)
(1.01061 0.000290725 -4.0233e-23)
(0.0243245 0.104177 3.27987e-20)
(0.898163 0.102454 0)
(0.886751 0.110444 0)
(0.209571 0.0704999 -2.22089e-21)
(0.85911 0.105828 -9.8247e-22)
(0.883775 -0.138654 -2.4445e-22)
(1.04452 -0.0118463 -1.18533e-20)
(1.02974 -0.0229897 4.00297e-22)
(1.07108 -0.0365459 2.95851e-20)
(1.08129 -0.0480887 2.74041e-20)
(-0.0391392 0.0222999 0)
(1.01835 -0.000249778 -3.14729e-21)
(1.01429 -0.000516498 0)
(1.01079 0.000315351 0)
(1.00936 -5.11598e-05 3.66181e-24)
(-0.101503 0.0157726 -5.78513e-20)
(1.02341 -0.0136724 -1.01172e-21)
(1.02782 -0.0021895 -2.61645e-21)
(1.03118 -0.0901614 0)
(0.697964 -0.186999 6.94927e-21)
(1.03231 0.00398199 1.85545e-21)
(1.06355 -0.0526692 1.01141e-21)
(0.967564 -0.0713026 3.17659e-21)
(1.01697 -0.00896295 -5.59731e-22)
(1.04834 -0.028644 0)
(0.86522 0.0740942 -6.39131e-22)
(1.05508 -0.0229719 6.94109e-22)
(1.02 -0.0113576 -2.53735e-22)
(0.548122 -0.000554854 3.94253e-20)
(1.00207 -0.0292414 0)
(0.595492 -0.180441 -4.59143e-22)
(1.01827 -0.000292438 2.7988e-21)
(1.0132 -0.000787776 6.01512e-22)
(1.01293 -0.000875697 1.93313e-22)
(1.03518 -0.0449365 0)
(0.623971 -0.00553554 3.53439e-20)
(1.05307 -0.0346281 -1.41868e-20)
(0.543107 -0.00332982 9.0244e-21)
(1.03054 -0.00506574 -6.0547e-21)
(0.865247 -0.00576587 -5.90715e-22)
(1.01989 -0.00289921 -6.15929e-21)
(0.174339 0.065216 0)
(1.02959 0.00784273 -2.70902e-21)
(0.484776 0.14254 -4.88478e-21)
(1.01597 0.016612 -2.46539e-21)
(0.874044 -0.112944 1.18357e-20)
(1.042 -0.0162616 0)
(1.01464 0.000182341 0)
(1.0863 -0.0290934 0)
(1.01248 -0.0116526 0)
(0.868875 0.0417273 -1.03392e-21)
(1.04543 -0.0194272 0)
(1.04232 -0.0156137 4.05786e-21)
(1.00866 -5.68456e-05 -5.14333e-23)
(1.06027 -0.0499971 0)
(0.783077 -0.0445654 3.50098e-20)
(1.02833 -0.0301881 -4.30486e-22)
(1.00779 3.14151e-06 0)
(-0.0836661 0.1499 8.31624e-21)
(1.06017 -0.0333162 -8.23207e-21)
(1.0195 -0.00864271 0)
(1.04793 -0.0052819 1.77076e-21)
(1.00862 3.10982e-05 0)
(1.03268 0.0161827 8.13828e-22)
(1.06384 -0.0342499 0)
(1.01001 0.000281438 2.41516e-23)
(0.93641 -0.0284672 0)
(0.990466 0.0206522 -3.15831e-21)
(1.00799 -2.86905e-05 -8.29805e-23)
(1.01488 0.000185136 0)
(1.01326 -0.0102427 3.67485e-23)
(1.00394 2.57595e-05 0)
(1.00883 -4.12512e-05 0)
(0.759633 -0.127181 3.2417e-21)
(0.802514 -0.0494855 -9.08502e-21)
(1.00915 0.000185246 0)
(1.01026 -0.000203703 -2.59245e-23)
(1.01329 -0.000421345 6.63525e-22)
(0.0162033 0.116606 1.61446e-21)
(1.04717 -0.00568118 -2.75279e-21)
(0.964781 -0.0681633 0)
(0.838043 -0.0168226 -9.93918e-21)
(0.901864 -0.111511 2.63843e-22)
(1.01749 0.00121432 1.0128e-22)
(0.888076 -0.0857634 2.03267e-21)
(1.05653 -0.0343133 2.34286e-21)
(1.01742 -0.00707082 -1.14403e-22)
(1.06146 -0.0693425 -1.74974e-20)
(1.01621 -0.0048658 6.01178e-22)
(1.0104 -0.000879323 6.1561e-23)
(0.56755 -0.00375968 -2.72727e-20)
(1.01983 -0.00268888 4.9218e-21)
(0.775218 -0.0860986 8.51543e-21)
(1.01053 -0.000395203 2.2748e-22)
(1.00906 0.000168427 8.16797e-23)
(1.00799 -0.0296484 3.57812e-21)
(0.226693 -0.241156 0)
(0.305223 -0.118514 1.15096e-20)
(-0.112493 0.144322 -4.50366e-23)
(1.01424 -0.000464894 -1.16558e-21)
(1.01593 -0.00176493 6.51103e-22)
(1.0131 0.000353582 0)
(1.03099 -0.013815 -1.4696e-21)
(0.888432 0.0920323 5.64871e-22)
(1.01515 0.000377217 -7.9314e-23)
(1.05853 -0.0714517 2.64319e-20)
(1.02632 -0.000265995 6.22393e-21)
(0.89485 0.0999567 2.59636e-21)
(1.07817 -0.0252825 -3.35916e-20)
(1.0134 -0.000529648 -1.15331e-21)
(0.0240369 0.0255806 -1.03934e-20)
(1.00942 -5.19846e-05 -2.38517e-22)
(1.03614 -0.0105095 0)
(1.0304 -0.0136685 5.91778e-21)
(1.01307 -0.00240759 0)
(1.02465 -0.0129189 2.30193e-21)
(1.08078 -0.0497543 -2.73049e-20)
(1.06985 -0.0369576 -2.77601e-20)
(1.01281 0.000530378 -2.97803e-25)
(1.0506 -0.016476 0)
(-0.092521 0.0100866 3.10834e-20)
(1.01031 -0.000834473 -6.80631e-23)
(1.02397 -0.0197661 0)
(1.01184 0.000316427 -1.25392e-22)
(1.01464 -0.000870477 8.02863e-23)
(1.0562 -0.0229876 3.8217e-22)
(1.01742 -0.00693877 0)
(0.698607 -0.0281531 0)
(0.608919 -0.00412702 -4.22477e-20)
(1.00923 -0.00021081 0)
(1.01318 -0.00251876 3.7419e-22)
(0.256849 -0.147799 -1.26204e-20)
(1.01014 -0.000763013 0)
(0.896327 -0.165087 1.51128e-21)
(1.05526 -0.0339331 7.03977e-21)
(1.01677 -0.00228244 0)
(1.0406 -0.078557 -2.17921e-20)
(1.01056 0.000339844 0)
(1.03723 -0.0189683 -3.55988e-21)
(0.988043 -0.029017 0)
(1.01965 -0.00222783 0)
(1.03341 -0.0487633 -3.83537e-21)
(1.00973 0.000155794 -3.54555e-25)
(1.0086 -7.4608e-05 0)
(1.01731 -0.00950853 0)
(1.01414 -0.000549813 -3.19338e-22)
(1.05582 -0.0556478 0)
(1.04872 -0.0370467 2.05996e-21)
(0.860351 0.0855138 9.26043e-22)
(-0.053111 0.0209502 0)
(1.01541 0.000325561 -4.29652e-22)
(1.052 -0.0248461 -2.86291e-21)
(0.703061 -0.183743 -2.3886e-21)
(1.03493 -0.0103491 5.57453e-23)
(1.01577 -0.00156332 6.03325e-22)
(0.910181 -0.0405181 -4.1785e-21)
(1.01647 -0.00214655 0)
(1.01303 -0.000930501 -1.93205e-22)
(1.01733 0.00134315 -1.01698e-22)
(0.410751 -0.009924 9.50692e-20)
(1.00817 -0.000112849 5.76709e-22)
(1.01752 -0.00366052 0)
(1.04011 -0.0281521 -3.18678e-22)
(1.02001 -0.00234707 -5.62833e-21)
(0.424658 -0.174073 -1.03387e-21)
(1.03864 -0.0168187 6.6824e-21)
(0.650132 -0.011694 -2.55697e-20)
(1.01145 0.000420014 -1.13949e-23)
(0.816024 -0.0279196 -2.94186e-20)
(1.01935 -0.00837847 0)
(0.845127 -0.0557515 -3.02073e-21)
(1.01026 0.000303753 -9.54446e-24)
(1.0127 0.000359711 0)
(1.01545 0.032962 -8.94874e-22)
(1.01997 0.00657179 1.98663e-21)
(0.150483 0.0899635 2.34187e-21)
(1.01804 -0.000611417 3.83673e-21)
(0.660754 -0.0130876 2.5392e-20)
(1.03864 -0.017334 -1.22792e-20)
(1.03124 -0.00524735 8.60271e-21)
(0.834031 -0.0380354 0)
(1.0743 -0.0578269 -3.86155e-22)
(0.759006 -0.0226729 0)
(1.00753 1.57898e-05 1.84799e-22)
(1.0466 -0.0220862 0)
(1.00765 -4.40083e-06 2.22137e-23)
(-0.0792375 0.0792917 3.09567e-20)
(1.01046 0.000322017 4.29192e-23)
(1.03809 -0.0325375 -4.66891e-21)
(0.935882 0.00591785 -6.89815e-21)
(1.00903 -0.000189018 -5.87732e-23)
(1.01523 0.000315956 0)
(1.07021 -0.0327217 1.52893e-20)
(1.0084 -0.0153108 7.15736e-22)
(0.470655 -0.167893 3.04364e-21)
(0.969317 -0.0813139 -3.85717e-21)
(1.01309 0.000360516 0)
(1.01777 -0.0037289 9.06504e-22)
(1.01301 0.0418366 0)
(0.962819 -0.0379832 0)
(1.01508 0.000680386 0)
(1.04194 -0.0268549 3.55123e-22)
(1.00955 5.8917e-05 -2.8716e-23)
(0.722417 -0.0199179 2.64361e-20)
(1.0597 -0.0345617 0)
(0.847671 0.0796632 -2.94538e-21)
(1.02964 -0.014072 2.95068e-21)
(1.03242 -0.0191557 0)
(1.01963 0.0032017 -4.74231e-22)
(0.945809 -0.035546 0)
(1.02716 -0.00837013 0)
(1.03024 -0.0142495 -1.53095e-21)
(1.067 -0.0286743 -1.75297e-20)
(1.07461 -0.0832944 0)
(1.04551 -0.0394389 -2.0833e-21)
(0.995787 -0.0298394 -1.55604e-20)
(0.56255 -0.000193217 1.12478e-21)
(1.02008 -0.00025067 0)
(1.01273 0.000356626 0)
(1.02055 -0.0111731 0)
(0.796984 0.0660056 0)
(1.01454 0.000407033 -1.99402e-22)
(0.993551 -0.0934425 0)
(1.0345 -0.0105252 -1.1168e-20)
(1.02711 -0.00798735 -2.88523e-21)
(1.04525 -0.0188375 0)
(0.856911 -0.0401031 0)
(1.02355 0.00868666 1.95343e-22)
(1.02075 0.00295108 1.60308e-23)
(1.03566 -0.0107943 -1.13919e-20)
(0.916689 0.0427577 -2.12339e-21)
(1.05266 -0.0331785 -1.37329e-20)
(1.03206 -0.0252211 -4.40449e-21)
(1.0105 -0.000951085 -1.46845e-22)
(0.86565 0.0144689 7.9641e-22)
(1.03394 -0.00547794 3.55379e-23)
(0.769828 -0.0229486 0)
(0.973903 0.0694475 -2.70234e-21)
(1.01525 0.000738855 0)
(1.01115 0.000382876 0)
(1.00882 3.21937e-05 0)
(1.06632 -0.0279257 5.85948e-21)
(0.788922 0.0940229 0)
(0.880694 -0.187731 3.72653e-21)
(1.01208 -0.000884423 2.44201e-22)
(1.01818 0.000301948 -9.81556e-22)
(0.910121 0.0565363 1.36556e-21)
(0.88284 0.0392192 7.56422e-22)
(1.05984 -0.075714 1.68927e-20)
(1.02377 -0.0134334 1.32478e-21)
(1.02807 -0.00252238 0)
(1.05481 -0.0259233 0)
(0.88175 0.0146098 -3.64292e-22)
(1.00693 -0.0883992 2.44562e-20)
(1.02591 -0.0196587 0)
(0.494546 0.154319 5.27463e-22)
(1.0107 -0.00106566 -7.90465e-23)
(0.735848 -0.0211742 -2.51192e-20)
(1.05028 -0.0159543 1.09673e-20)
(1.03607 -0.0169459 3.04242e-21)
(0.777145 -0.0242676 1.98921e-20)
(1.02002 -0.00734991 9.76306e-22)
(1.02828 0.0204893 0)
(0.777369 -0.026686 1.05684e-20)
(1.01184 -0.00085846 0)
(1.0624 -0.0265312 -8.64742e-21)
(1.04475 -0.019957 0)
(1.02358 -0.0129808 -6.0464e-22)
(0.285842 -0.246539 -1.07996e-20)
(1.02559 -0.0199837 -2.65008e-21)
(1.02593 -0.00832218 -5.15774e-21)
(0.819332 -0.0404099 1.01724e-20)
(1.01091 0.000295382 5.39612e-23)
(1.03291 -0.0196562 -1.45583e-21)
(1.01732 0.00181454 -4.61861e-22)
(0.79731 -0.0243629 -1.75031e-20)
(1.08336 -0.0290905 0)
(1.01827 -0.000683464 0)
(1.06338 -0.0319469 0)
(1.01845 -0.000272952 0)
(0.620799 -0.00575956 -1.03607e-20)
(1.01779 0.00640107 -7.06786e-22)
(1.00867 -6.27844e-05 -4.00787e-23)
(1.01435 -0.00288066 -7.01366e-23)
(1.08285 -0.0296266 0)
(1.04628 -0.0210953 -1.35692e-20)
(1.03669 -0.00959792 -7.1359e-21)
(1.018 0.00035444 -9.58206e-22)
(1.02 -0.00726814 0)
(1.02546 -0.0082266 4.46556e-21)
(0.935972 0.0921324 1.65281e-21)
(0.173686 0.118859 0)
(0.740821 -0.0615472 4.87449e-20)
(1.02237 -0.00922144 4.511e-22)
(0.80342 -0.0252505 -8.59181e-21)
(0.809202 -0.140845 0)
(1.01781 -0.000173254 -1.60101e-21)
(1.05158 -0.0258296 -2.98034e-21)
(1.05722 -0.0782696 -1.70154e-20)
(1.01595 -0.0161983 8.54574e-22)
(0.99787 -0.0109982 8.37038e-22)
(1.07945 -0.0439232 0)
(1.03812 -0.0855698 6.95841e-21)
(1.01479 -0.00285122 0)
(0.770746 0.130061 8.15735e-21)
(0.760022 -0.0238244 0)
(1.01793 -0.00013656 0)
(1.00477 -0.00188044 8.86148e-22)
(1.00384 0.0020289 -6.63644e-22)
(0.928812 -0.0675566 0)
(1.03699 -0.00928569 7.21207e-21)
(0.993832 -0.0105015 -8.36976e-21)
(-0.0906894 0.0764118 -3.83902e-20)
(1.01338 -0.00263224 -1.12475e-22)
(0.788997 0.157545 -4.45043e-21)
(1.01429 -0.00280217 -1.20539e-22)
(1.01829 -0.000231739 8.93252e-22)
(1.00982 6.47597e-05 3.75482e-23)
(1.01018 0.000295801 -1.1324e-23)
(1.0126 -0.00220263 -1.72626e-22)
(0.781789 -0.0256617 3.42723e-20)
(0.900464 -0.131351 0)
(1.01946 -0.0049514 1.16925e-21)
(1.06177 -0.0255235 -7.64038e-22)
(1.0116 0.000340517 0)
(0.478388 0.16193 0)
(1.03095 -0.028449 -2.48623e-21)
(0.82115 -0.175724 -7.98038e-22)
(0.730196 -0.0402843 -2.54905e-20)
(1.01947 -0.00514415 1.16054e-21)
(1.0171 0.00976772 -5.33185e-21)
(1.0432 -0.0207057 -5.96703e-21)
(0.838806 -0.186331 7.15589e-22)
(1.01555 -0.00432759 -3.35231e-22)
(1.00924 0.000189796 0)
(1.01244 0.000341436 0)
(-0.0093238 0.16983 9.65876e-21)
(1.01369 -0.000697136 0)
(0.326038 -0.242175 0)
(1.01326 -0.0155373 0)
(1.08108 -0.0442728 0)
(0.606251 -0.0186465 0)
(0.980097 0.0148838 -1.84564e-21)
(0.980716 0.00496524 -1.18179e-22)
(1.02137 -0.00197055 -5.69664e-22)
(1.01079 -0.0010957 1.51228e-22)
(1.01826 -0.0001532 -3.28881e-21)
(1.02206 -0.00991777 0)
(1.06408 -0.0310715 0)
(0.0643903 -0.0231783 6.10162e-21)
(1.05759 -0.0219514 0)
(0.784072 -0.0241695 1.87225e-20)
(0.773748 -0.0262182 1.09554e-20)
(1.01158 0.00033001 -7.65005e-23)
(1.02042 -0.0002277 -4.38556e-21)
(0.711072 -0.0461995 -2.34684e-20)
(0.56508 -0.00320447 0)
(0.94704 0.0189101 1.06173e-20)
(0.812856 -0.0486288 0)
(1.0116 0.00127811 5.23244e-22)
(1.0437 -0.0214983 0)
(1.00789 -7.3521e-05 -2.61517e-23)
(0.847033 -0.133161 0)
(1.01019 -0.000385968 -1.26832e-22)
(1.03327 -0.0253107 2.86877e-21)
(1.02033 -0.00208339 9.80741e-22)
(1.02517 -0.00142517 0)
(1.00811 -6.10121e-06 1.49278e-24)
(1.01173 -0.000791295 3.14187e-22)
(1.01183 0.000321825 -7.84947e-23)
(1.06466 -0.0507571 -2.2132e-21)
(1.00262 -0.0225269 2.97153e-21)
(0.661565 -0.00541904 -3.68315e-20)
(1.02054 -0.0104414 2.97792e-22)
(1.06429 -0.0330753 0)
(1.00879 -0.005862 -2.37567e-21)
(0.942873 -0.0145232 -2.22658e-21)
(1.03163 -0.0203341 4.73204e-23)
(0.903596 -0.0629712 0)
(1.03559 -0.0163921 8.63409e-21)
(1.02138 0.0169126 9.12534e-22)
(1.00905 0.000168729 -6.64467e-23)
(1.01152 -0.000770579 -5.70564e-23)
(1.00794 -8.14381e-05 0)
(1.00269 -0.100149 0)
(0.852569 -0.103413 3.13632e-21)
(1.07012 -0.0604637 1.87239e-20)
(1.00981 -0.00763388 1.54573e-21)
(0.632251 -0.0108062 2.92495e-20)
(0.877576 0.143562 2.22969e-21)
(1.02074 0.0150879 1.42792e-21)
(1.01297 -0.000467286 1.10139e-21)
(1.07119 -0.0322287 0)
(1.01538 -0.00415009 3.36996e-22)
(0.928961 -0.00711183 3.11176e-21)
(1.00877 5.81928e-06 0)
(0.807357 -0.0299276 1.47567e-20)
(0.864507 0.028504 0)
(1.03019 -0.0375831 2.5671e-22)
(0.644831 -0.0106175 0)
(1.01646 -0.00227207 -3.4536e-22)
(1.02504 -0.0152631 2.47738e-22)
(0.852747 0.0123335 6.9507e-22)
(0.178025 0.177746 2.20607e-20)
(1.00953 0.000173254 5.44916e-24)
(1.0444 -0.0231363 0)
(1.05433 -0.0350278 7.69878e-21)
(1.02731 0.0103263 -2.1022e-22)
(1.00969 -0.000316924 -5.62123e-23)
(1.02503 -0.00846318 6.35233e-21)
(1.07743 -0.0248329 -2.12944e-20)
(1.08029 -0.0473612 0)
(1.01961 -0.00838092 0)
(0.464168 0.194233 0)
(1.00829 3.78193e-05 -4.07978e-22)
(1.01459 -0.00301219 -1.88425e-22)
(0.030103 0.10971 1.90229e-22)
(1.02314 -0.0199813 4.74594e-22)
(1.01095 0.00036105 -1.78501e-23)
(0.810729 -0.110013 0)
(1.0107 -0.00103972 -3.20443e-22)
(1.01769 -0.00820538 1.04649e-22)
(1.01009 -0.000460309 -9.56216e-23)
(1.01913 -0.0290943 -2.11116e-22)
(1.02377 -0.0117211 -1.49999e-21)
(1.01122 0.000399404 1.21254e-23)
(1.01622 -0.00207268 -3.2445e-22)
(0.836418 -0.044998 4.25696e-21)
(1.02021 -0.00311224 0)
(1.05805 -0.0240069 0)
(1.01042 -0.000452775 -2.97158e-22)
(1.02286 -0.00286997 -4.25246e-22)
(1.03677 -0.0145692 3.28527e-22)
(1.00365 -1.72235e-06 0)
(1.01534 -0.00430817 4.76409e-22)
(1.00624 1.42842e-05 0)
(1.00607 -5.34953e-05 8.77415e-23)
(0.935801 -0.177819 3.87689e-21)
(1.02752 -0.00756363 0)
(1.01354 0.0225841 -9.42775e-22)
(1.01957 -0.00200573 -1.126e-21)
(1.00853 -4.18086e-05 -9.87519e-23)
(-0.100916 0.0840948 -1.82275e-20)
(0.634143 -0.00939262 8.88156e-21)
(1.02065 -0.00239651 -1.36071e-21)
(1.02428 -0.00322471 0)
(1.03232 -0.0206137 -6.07671e-21)
(0.973418 -0.0618917 -9.14891e-22)
(0.16984 0.0764662 0)
(1.01465 -0.00310848 0)
(0.893234 -0.119319 -8.81043e-22)
(1.0158 -0.00450037 0)
(1.05074 -0.0514549 0)
(1.02619 -0.00222518 0)
(-0.065792 0.118623 2.48579e-20)
(1.00942 0.000131288 -5.82109e-23)
(-0.0329052 0.037353 4.00233e-20)
(1.04184 -0.0461389 2.75571e-21)
(1.01065 0.00028536 4.5694e-23)
(1.02423 -0.00521667 6.86808e-22)
(0.738311 -0.0292431 -2.41372e-20)
(1.03716 -0.0324613 1.06874e-20)
(0.860365 -0.124061 2.82589e-21)
(1.01115 -0.000249326 4.14358e-22)
(0.815253 0.0965124 5.14671e-21)
(1.01406 -0.00042907 -1.70518e-22)
(1.00981 -0.000630206 1.47255e-23)
(1.01066 -0.00102685 -4.98812e-23)
(1.02513 -0.000228845 0)
(0.582642 -0.00663528 0)
(1.06733 -0.0361906 -1.68323e-21)
(1.08356 -0.0386548 2.25465e-20)
(1.05755 -0.060557 6.7688e-23)
(1.02427 0.00499093 3.53129e-21)
(1.01307 0.000543893 0)
(0.907166 -0.094157 0)
(0.852199 -0.0938589 5.85976e-21)
(1.03803 -0.0190619 3.88408e-21)
(1.05013 -0.0171241 1.41274e-22)
(0.991628 -0.0562111 1.05458e-21)
(0.81975 -0.00689474 4.72321e-21)
(0.842348 -0.0290505 0)
(1.01778 -0.000127711 0)
(-0.0723702 0.122523 1.06536e-20)
(0.224267 0.0629559 -4.53852e-21)
(0.323057 0.0212239 -3.64736e-20)
(1.02479 -0.0203481 1.91183e-21)
(1.02543 -0.00598009 -1.31791e-21)
(0.827381 -0.149187 9.58517e-21)
(1.02955 -0.0143496 -8.00156e-23)
(1.06124 -0.0919669 -1.35272e-21)
(0.881665 -0.026032 4.35218e-23)
(0.711417 -0.0474375 1.54551e-20)
(1.02436 -0.0131253 -2.45795e-21)
(0.696979 -0.0621777 -1.58312e-20)
(0.978513 -0.0325397 -4.57836e-22)
(1.0092 0.000151456 -6.66685e-23)
(1.03096 -0.00810555 4.27945e-26)
(1.06869 -0.0358785 0)
(0.613317 -0.00569003 1.49028e-20)
(1.02937 -0.014537 1.50084e-21)
(1.01717 -0.00246251 -1.57062e-21)
(1.01287 -0.00230893 2.36847e-22)
(1.01686 -0.0046201 1.37449e-21)
(1.05752 -0.0536692 0)
(1.01238 -0.0210571 -3.32144e-22)
(0.910699 -0.121463 -1.04966e-20)
(0.453752 0.190329 -7.92116e-22)
(1.00976 -0.000297444 -5.88813e-24)
(0.029856 0.108693 2.53775e-20)
(0.662535 -0.0116441 1.61202e-20)
(1.05467 0.0278177 3.8632e-22)
(0.847505 -0.0531485 -1.29214e-21)
(1.05694 -0.0240218 -4.01373e-22)
(1.01057 0.000316362 6.4795e-24)
(1.01141 -0.00071678 0)
(1.00506 -0.00916623 0)
(0.891127 -0.0897038 0)
(1.03684 -0.0107984 2.32173e-21)
(1.07971 -0.0286087 1.15686e-20)
(1.08682 -0.0311798 0)
(1.01075 0.000322792 0)
(1.0042 -0.00411768 -1.79171e-21)
(0.805932 -0.0376203 -1.88511e-21)
(0.968881 -0.0619685 -7.5626e-21)
(1.07667 -0.0479083 -7.93125e-22)
(0.589802 -0.00746454 0)
(0.978019 -0.0315824 1.64157e-20)
(1.01596 -0.00467602 7.21961e-22)
(1.02546 -0.00118268 0)
(0.614387 -0.0895543 4.75062e-21)
(0.766125 -0.0258992 1.2258e-20)
(1.08388 -0.0320486 1.77416e-20)
(1.05817 -0.0211261 -2.24054e-20)
(1.04002 0.00459608 0)
(1.01041 0.000318016 -1.38609e-23)
(1.01487 -0.00280216 9.65549e-22)
(0.785732 -0.0428401 0)
(1.01053 0.000307041 -7.09061e-23)
(1.02878 -0.0143205 -1.39321e-21)
(1.01052 0.000334697 0)
(1.01042 -0.000856547 -2.3474e-22)
(0.966298 -0.0332056 -4.38836e-21)
(1.06125 -0.05233 -1.34865e-20)
(1.01182 -0.00694105 0)
(1.01052 0.00031238 7.0929e-23)
(0.38644 -0.238047 -8.79078e-21)
(0.915035 -0.085536 1.05915e-20)
(1.01086 -0.00116231 0)
(1.00937 -1.48535e-05 0)
(1.01461 0.000408717 2.15308e-22)
(1.01836 -0.000187949 6.29248e-21)
(-0.0265431 0.17104 0)
(0.850872 0.0385425 9.33905e-22)
(0.841432 -0.0016712 3.55107e-21)
(0.2857 0.0233397 0)
(0.828807 0.135839 -5.6117e-21)
(1.05714 -0.0198001 1.28573e-20)
(0.595943 -0.00351425 2.6797e-20)
(0.633529 -0.00953607 -1.63427e-20)
(1.01437 -0.00317923 3.7595e-23)
(1.05464 -0.0239166 -1.17842e-20)
(1.01064 0.000324349 -6.52759e-24)
(1.01771 0.00180522 0)
(1.03486 -0.0265024 -6.02306e-21)
(0.870095 -0.053856 -3.20855e-20)
(0.769574 0.12607 0)
(1.07908 -0.0290673 1.24549e-20)
(1.04038 -0.0224893 0)
(1.01076 -0.000615337 1.44991e-22)
(1.03092 -0.0255052 -2.93532e-21)
(1.01598 -0.000259093 0)
(0.863864 -0.111211 -4.69044e-21)
(1.06771 -0.0402433 0)
(1.01925 -0.00188527 5.41605e-21)
(1.02179 -0.0086971 -4.48286e-22)
(1.00963 -0.000316165 -1.0667e-22)
(1.04618 -0.0177548 -4.04463e-21)
(1.06909 -0.0631771 -3.35855e-20)
(1.02717 -0.0021178 7.32118e-21)
(1.01514 -0.00400158 1.02238e-21)
(1.03179 -0.0283822 0)
(1.02564 -0.00464148 1.35635e-21)
(1.05675 -0.0512267 1.12711e-20)
(1.00871 -0.0936983 0)
(1.07349 -0.0562686 3.56328e-21)
(1.02954 -0.0258944 -1.36324e-21)
(1.08443 -0.0314026 0)
(1.01058 -0.000590933 -1.45746e-22)
(0.973282 0.0237661 -4.50632e-22)
(1.01849 0.00461192 2.33918e-23)
(0.210928 0.0531913 0)
(1.01948 -0.00834772 -8.48456e-24)
(1.0088 -8.91659e-05 -1.81219e-22)
(0.953364 -0.028169 1.67859e-20)
(1.02146 -0.0114865 -1.23171e-21)
(0.55252 -0.00704265 0)
(0.739926 -0.0217783 -2.39774e-20)
(0.0596124 0.114703 3.63947e-20)
(0.793091 -0.120951 6.57074e-21)
(1.01008 -0.000386956 6.17578e-23)
(0.986514 -0.0289626 0)
(1.0156 0.000769211 0)
(1.01063 -0.000959073 2.2513e-22)
(1.00951 0.000132791 3.2901e-23)
(1.01067 -0.000965068 6.9295e-22)
(1.01657 0.00117844 0)
(1.02101 -0.00996261 -2.50106e-22)
(1.01918 -0.0273326 4.19491e-22)
(1.01031 0.000296097 -6.94982e-23)
(0.738506 -0.136325 -2.16648e-22)
(1.04598 -0.0448008 -2.86902e-21)
(0.72162 -0.144599 0)
(1.0124 -0.00191471 0)
(1.00976 0.000121526 1.91606e-23)
(1.00933 3.1827e-05 2.83573e-22)
(1.05217 -0.0772233 0)
(0.675514 -0.189512 2.58583e-21)
(1.07029 -0.0256904 3.05795e-20)
(1.04613 -0.0182601 1.18954e-20)
(1.01575 0.000714416 0)
(1.00845 -4.31208e-05 -1.91831e-22)
(1.01014 -0.000221645 -3.09559e-24)
(1.01342 -0.0024861 -1.25438e-22)
(1.08638 -0.0393797 2.64696e-20)
(0.401014 0.0956706 0)
(1.02519 -0.00447108 -1.37315e-21)
(1.01031 0.000299096 0)
(1.02534 6.0449e-05 0)
(1.01335 -0.00251145 9.15251e-23)
(0.892742 -0.0158515 6.16487e-21)
(-0.0683612 0.00351158 -4.00791e-21)
(1.03163 -0.0257655 1.94285e-21)
(0.773205 -0.0467145 0)
(0.811053 0.0534353 7.87267e-22)
(1.01498 -0.00382729 -3.35996e-22)
(1.08269 -0.0395473 -1.33583e-20)
(0.10481 0.174891 -4.36895e-20)
(1.05532 -0.0249513 0)
(0.443577 0.123829 3.65096e-21)
(1.03008 -0.00530889 5.83213e-21)
(1.0204 -0.0114208 -2.47745e-23)
(1.06937 -0.0257692 -2.74963e-20)
(1.02071 -0.0107557 0)
(0.864315 -0.0705748 6.36379e-21)
(1.02029 -0.00226887 1.20665e-21)
(0.821853 -0.113576 1.53324e-21)
(1.0087 1.78023e-06 0)
(1.06066 -0.0131941 6.57612e-21)
(0.661519 -0.0128208 2.93195e-20)
(1.01365 -0.000676593 -8.36239e-22)
(1.02082 -0.0103029 -1.63689e-21)
(1.04154 -0.00106965 1.29772e-21)
(1.01001 -0.000690026 -3.23566e-23)
(1.03686 -0.0182903 0)
(0.861633 0.0684146 -3.55358e-21)
(0.182105 -0.153981 4.12588e-21)
(1.06617 -0.0405585 -9.54443e-22)
(1.00935 -0.0949752 0)
(0.968311 0.024164 -1.44214e-22)
(1.0103 0.000311403 2.23203e-23)
(1.0122 -0.00182494 0)
(-0.111777 0.0715517 -6.59303e-20)
(1.08627 -0.0309455 5.99829e-21)
(1.00564 -0.0166943 1.09369e-21)
(0.753149 -0.023192 3.9337e-20)
(1.01131 -0.000385323 1.37959e-22)
(1.01644 2.2788e-05 0)
(1.00915 0.000150074 -4.95942e-24)
(0.832882 0.155864 0)
(1.04206 -0.0318408 0)
(1.02594 -0.0178263 -2.03904e-21)
(1.01744 -0.00658566 0)
(1.03817 -0.00530168 4.12521e-22)
(1.04221 -0.0131026 0)
(1.00949 3.40134e-05 -2.08865e-22)
(0.0660273 0.0834476 -5.24681e-20)
(1.0727 -0.0822582 1.50611e-22)
(0.710736 -0.0193836 0)
(1.01088 0.000303732 2.35435e-24)
(1.02517 -0.0041406 2.5248e-21)
(0.607428 -0.00530056 -2.17852e-20)
(-0.0294984 -0.0732813 0)
(1.08582 -0.0292546 0)
(1.01589 -0.000364184 0)
(0.915488 -0.0299218 -2.84415e-24)
(1.02013 -0.00263229 4.11795e-21)
(1.03134 0.0107312 7.27921e-22)
(1.01178 -0.0589027 -1.28933e-21)
(1.02796 -0.0385706 3.71419e-21)
(1.03241 -0.0179175 4.28884e-21)
(0.106737 0.102544 1.15655e-21)
(1.02198 -8.95383e-05 1.33687e-21)
(1.0181 0.000550013 0)
(1.07691 -0.0290302 2.35801e-20)
(1.00877 -9.88623e-05 -1.77639e-22)
(1.00531 -4.46712e-05 6.07437e-22)
(1.02397 -0.0121592 1.51654e-21)
(1.01049 -0.000549863 2.57986e-25)
(0.0714558 0.088502 0)
(1.03645 -0.0252732 -4.40959e-21)
(1.07827 -0.0470232 2.03062e-20)
(1.01257 -0.00817207 -5.98795e-22)
(1.03807 -0.00518798 -4.60881e-22)
(1.01086 -0.000668751 8.80691e-23)
(0.836232 0.0595912 2.21608e-21)
(1.01026 -0.000162021 0)
(1.02233 -0.000987044 2.15909e-22)
(1.0097 0.000109708 8.23841e-23)
(1.01459 -0.00353159 1.0878e-23)
(1.01276 -0.000531445 0)
(0.767497 -0.0260538 -2.60431e-20)
(1.01278 -0.00230908 -2.34401e-22)
(1.00969 0.000202137 -7.64941e-24)
(0.940133 -0.0489907 -1.83924e-21)
(1.02608 -0.00121948 -2.30805e-21)
(0.625539 -0.00731247 -2.0093e-20)
(1.0079 2.15517e-05 0)
(1.0157 -0.0010703 -6.74216e-22)
(1.07367 -0.0313403 0)
(0.858771 -0.00456456 0)
(0.93333 -0.109564 5.25901e-21)
(1.00988 -0.00023167 -3.34607e-23)
(0.95243 0.04018 1.33607e-21)
(0.788979 -0.0568558 2.16905e-21)
(1.02758 -0.00793821 -4.6126e-23)
(0.830427 -0.0315815 1.89757e-20)
(1.05978 -0.0132261 1.2059e-22)
(1.01024 -0.000488216 0)
(1.02843 0.00326797 1.93038e-22)
(0.0374397 0.0986516 0)
(0.971156 0.0397863 -1.30011e-21)
(1.03062 -0.019335 3.35396e-21)
(1.01003 -0.000269367 0)
(1.01005 0.000283683 -2.65434e-23)
(0.853965 -0.0357102 9.04084e-22)
(1.02328 -0.0371891 -2.04874e-21)
(1.02269 -0.0415014 0)
(1.02553 -0.0190672 0)
(1.02962 0.00118512 0)
(1.01827 -0.00010355 -2.16305e-22)
(1.01573 -0.000809987 0)
(1.0803 -0.0261733 2.8685e-20)
(0.875107 -0.150279 4.82502e-21)
(1.05337 -0.054791 -2.60997e-21)
(0.765395 0.0940973 0)
(1.02472 -0.00396461 -6.46616e-21)
(1.05287 -0.0523145 2.70055e-21)
(1.07442 -0.0372127 0)
(0.811086 -0.0251851 1.97059e-20)
(1.0253 -0.0173731 0)
(0.286548 -0.159609 -2.34566e-21)
(1.06556 -0.0628947 2.53593e-20)
(1.0264 -0.000933319 -2.03848e-21)
(0.313615 0.025005 0)
(0.984001 0.0198892 -1.27838e-20)
(0.78507 -0.13312 0)
(0.182986 -0.13497 0)
(0.783994 -0.0340767 2.22836e-20)
(0.938751 -0.0186741 4.1633e-22)
(1.03454 -0.0280879 -5.61636e-21)
(1.01032 -0.000521672 9.62683e-23)
(1.02222 -0.0103364 6.81825e-22)
(-0.115837 0.0379344 5.00082e-20)
(0.220556 0.0469989 1.98361e-20)
(1.01403 -0.00231828 0)
(1.00785 -1.54423e-05 7.69784e-24)
(1.07015 -0.0341115 -1.55463e-22)
(0.93931 -0.00170592 0)
(1.01039 0.000237889 0)
(-0.0411904 -0.0172611 -3.86485e-20)
(1.01107 -0.000368515 -1.37907e-22)
(1.02012 -0.00462673 0)
(0.0486484 0.101563 -2.41344e-20)
(0.611614 -0.0057042 -1.88446e-20)
(0.960381 0.0190132 1.77481e-22)
(1.01068 -0.00097705 0)
(1.01824 -6.98143e-05 -4.55795e-21)
(-0.0394156 -0.0565046 2.46051e-20)
(1.0901 -0.0403725 -3.04466e-20)
(1.08288 -0.0318906 -1.55954e-20)
(1.01591 -0.00389438 -7.45184e-22)
(0.763229 -0.0672975 0)
(0.980264 -0.0673869 2.67801e-21)
(0.712835 -0.173756 0)
(1.06246 -0.0343646 -2.60268e-21)
(1.06068 -0.0256561 1.76758e-20)
(1.02542 -0.00854885 -2.58362e-21)
(1.02599 -0.0018618 0)
(0.591053 -0.16538 -3.02351e-21)
(1.07107 -0.0220049 0)
(0.559572 -0.0026747 0)
(1.0123 0.00399113 2.29142e-21)
(1.0565 -0.0218994 0)
(0.0989175 0.0773122 -4.24091e-20)
(0.781139 -0.126247 0)
(0.64773 -0.00889155 -1.91983e-20)
(1.02201 -0.00233557 0)
(1.05664 -0.0178525 1.28488e-20)
(1.01076 -0.00110551 0)
(1.03041 -0.0261645 4.6019e-21)
(1.0206 -0.0100854 -8.17376e-22)
(0.394432 0.114277 0)
(1.01146 -2.45361e-05 -2.52116e-21)
(0.649947 -0.0144937 -3.25676e-20)
(1.01026 0.000224021 -3.76713e-23)
(1.07277 -0.03134 -1.13337e-20)
(1.01503 -0.00342295 1.55067e-21)
(1.00212 -0.060082 -8.62402e-22)
(1.05804 -0.0203211 1.6138e-20)
(1.05564 -0.0180974 1.27379e-21)
(0.771512 -0.0424019 -2.2556e-20)
(1.06424 -0.0248741 -1.10139e-22)
(1.01733 -0.0303789 4.99847e-24)
(1.00874 -5.96644e-05 -1.71069e-23)
(1.07227 -0.0325825 0)
(0.87493 -0.180854 -1.70889e-21)
(1.02588 0.0186712 1.49804e-21)
(1.02792 -0.0145049 -6.94063e-23)
(0.599888 -0.00540325 0)
(1.0142 0.000384005 -9.88497e-23)
(0.244163 -0.113517 0)
(0.912929 -0.100928 1.25994e-22)
(1.02321 -0.00705239 0)
(0.79871 -0.0258139 1.5873e-20)
(-0.038453 0.158851 7.95321e-21)
(0.636055 -0.00864996 1.60237e-20)
(0.93983 0.00111964 -1.95058e-21)
(1.01421 0.00455337 -1.31269e-21)
(1.01394 -0.00261129 5.32346e-24)
(0.703524 -0.0181933 0)
(1.01686 -8.43787e-05 4.17887e-21)
(0.748667 -0.138791 -3.25763e-21)
(0.646949 -0.011789 0)
(1.01242 -0.00201498 -9.85025e-23)
(1.04023 -0.0054868 8.21122e-21)
(1.01683 -0.0989327 0)
(0.891734 -0.122699 -1.46458e-20)
(0.250003 -0.130568 -8.34627e-22)
(1.02375 -0.00529034 0)
(1.00953 -5.80534e-05 -2.74964e-22)
(0.569297 -0.165801 0)
(0.65468 -0.0122799 0)
(1.07663 -0.0500508 -3.14929e-20)
(1.03033 -0.0186227 -3.5313e-21)
(1.01607 -0.00370912 2.3139e-22)
(0.906791 -0.0777267 -1.23726e-22)
(0.0290187 0.11255 4.47661e-20)
(1.07471 -0.0383341 0)
(1.00978 0.000192046 4.16667e-24)
(1.03471 -0.0284721 5.86331e-21)
(1.01003 -0.000706882 -9.37037e-23)
(1.01078 -0.000138001 -8.42331e-22)
(0.997845 0.00646681 -8.0485e-23)
(1.00764 -4.82341e-05 2.58705e-22)
(0.80983 -0.0630553 -4.65116e-21)
(0.930099 0.0172056 -4.9979e-22)
(1.02014 -0.0048371 5.94465e-22)
(1.0161 -0.00206433 -1.85031e-22)
(1.01412 -0.00264943 4.68823e-23)
(1.02443 -0.0124262 0)
(0.573248 -0.00511077 -9.88569e-21)
(0.738491 -0.031601 -2.61496e-20)
(1.04505 -0.0225036 0)
(0.295333 -0.175323 1.08688e-22)
(1.01503 -0.00332727 -1.62037e-21)
(1.04347 -0.0229146 1.59815e-21)
(1.01376 -0.00246744 0)
(1.01011 -0.000745666 -1.95727e-23)
(1.02052 -0.00696961 0)
(1.0198 -0.00478799 -5.67224e-22)
(0.605649 -0.00662595 -2.12206e-20)
(1.02078 -0.00261617 0)
(1.06878 -0.0267877 -8.8111e-22)
(1.02216 -0.00260398 1.69133e-21)
(1.03131 -0.0195889 3.48827e-21)
(0.993271 0.00271749 4.84608e-22)
(-0.0180299 -0.0943323 2.6207e-20)
(1.01085 -0.000232411 -4.9449e-22)
(0.625945 -0.0740528 -4.86173e-21)
(1.02457 -0.0436897 -6.75757e-23)
(1.05466 -0.0492387 0)
(1.03696 -0.0256842 3.61686e-21)
(1.04084 -0.0263555 0)
(0.550495 -0.00328996 -1.04311e-20)
(1.04677 -0.0172929 -3.69387e-21)
(1.01033 -0.0173189 5.48925e-22)
(0.403206 0.130849 1.6873e-21)
(0.786169 -0.0686156 3.32197e-21)
(-0.0340199 0.0836181 -3.50882e-20)
(1.04299 -0.0318098 0)
(0.922333 0.0897448 -1.81198e-21)
(1.01929 -0.00800657 -5.14026e-22)
(1.06326 -0.0242073 8.01084e-21)
(1.06153 -0.0332719 1.3098e-20)
(0.2513 -0.154708 0)
(1.01007 -0.000208005 5.71471e-23)
(0.214856 -0.161862 -1.94873e-20)