/*--------------------------------*- C++ -*----------------------------------*\
| =========                 |                                                 |
| \\      /  F ield         | OpenFOAM: The Open Source CFD Toolbox           |
|  \\    /   O peration     | Version:  v2012                                 |
|   \\  /    A nd           | Website:  www.openfoam.com                      |
|    \\/     M anipulation  |                                                 |
\*---------------------------------------------------------------------------*/
FoamFile
{
    version     2.0;
    format      ascii;
    class       volScalarField;
    location    "250";
    object      ddt0(k);
}
// * * * * * * * * * * * * * * * * * * * * * * * * * * * * * * * * * * * * * //

dimensions      [0 2 -3 0 0 0 0];


internalField   nonuniform List<scalar> 
13917
(
2.11547e-07
1.24036e-06
-0.00400297
6.09456e-07
-8.01363e-09
4.15652e-06
-0.00437788
-0.00128478
0.00409601
4.31166e-06
9.93815e-05
2.33583e-06
6.94846e-07
0.00119742
1.48182e-07
-1.2236e-06
5.57333e-07
-1.55626e-06
2.07311e-06
1.07686e-09
-5.87585e-10
-0.00402393
7.07398e-09
-0.00114797
4.44146e-08
-0.00469094
-3.14692e-08
-6.19307e-07
-8.58737e-06
-2.79061e-06
7.05537e-07
2.42049e-06
4.39667e-08
7.20905e-07
4.39263e-08
-0.000169395
-1.68449e-08
0.000811691
1.63921e-07
-0.00069696
4.53667e-09
-7.74129e-10
2.91505e-10
3.05062e-07
2.72023e-07
-3.89766e-07
-1.64416e-06
-1.17071e-06
-2.1897e-05
-3.64335e-09
4.73572e-07
5.21029e-08
-6.15134e-05
1.34799e-07
-5.18813e-08
1.03455e-06
6.77985e-05
3.27847e-08
9.08228e-07
-5.45553e-08
0.000299895
-6.90748e-08
-0.000153911
6.06098e-09
4.2216e-05
0.0229446
5.24357e-09
2.7226e-09
-7.76645e-05
8.94798e-07
-2.86597e-09
0.00499729
-0.000765808
1.82468e-08
3.23241e-05
2.2939e-06
-0.000571568
4.48803e-07
-0.00378375
6.87104e-09
9.209e-09
2.80276e-09
4.37353e-05
0.000820928
0.000457536
2.72503e-07
6.43332e-09
0.026539
2.04184e-07
1.38756e-10
-0.000310761
6.22385e-07
1.7581e-08
-6.02335e-07
0.055019
2.05454e-05
7.39935e-06
-1.54119e-06
1.62412e-05
3.88317e-06
-4.15772e-09
1.12359e-06
2.21387e-06
6.2238e-07
-3.39825e-09
0.00339651
3.1657e-05
-2.48181e-06
-7.46273e-07
8.40848e-07
-0.000358061
-0.000775989
4.02624e-07
0.00322125
-3.39692e-07
8.56335e-05
7.39972e-11
4.5198e-05
0.000645392
6.94793e-07
-8.25677e-10
-0.000210116
0.000918994
-1.66523e-07
-1.29825e-09
-3.5333e-07
-1.88868e-07
1.9294e-10
7.39487e-09
-1.86414e-06
0.000264947
2.23627e-07
4.03105e-07
-2.38258e-09
0.0117395
-0.00160584
-8.00694e-07
6.99867e-06
2.51665e-09
6.02939e-07
7.36669e-05
7.80035e-08
-5.43868e-07
-1.37848e-06
1.52098e-08
0.0069123
8.22105e-06
1.04913e-07
5.15316e-08
3.81138e-06
-2.13454e-06
-6.84312e-05
8.44149e-06
-3.90943e-07
3.41166e-06
-3.93426e-05
1.49096e-07
-0.014563
-0.000753255
-0.0152673
7.91503e-07
6.14483e-07
2.18134e-09
8.3672e-06
3.04508e-06
9.90033e-06
-1.30679e-07
4.3784e-06
9.54237e-08
1.60653e-06
-4.31e-08
0.000144044
-1.76316e-06
-4.95686e-07
0.00919418
1.55268e-06
2.92752e-05
5.73775e-05
0.00741115
6.11564e-07
-6.06634e-07
1.17206e-06
5.75054e-08
1.20078e-08
1.99094e-07
-0.00576959
0.000214733
-0.000366605
-1.01073e-06
3.75444e-07
0.000417257
0.000494807
9.77767e-05
8.08406e-09
6.62493e-06
3.41054e-07
-3.03722e-08
-7.77284e-08
1.41723e-06
-0.122934
7.24362e-08
-9.62813e-10
-1.96739e-06
-1.09208e-06
-0.000855952
0.0245584
4.12519e-08
5.9849e-08
-3.00273e-06
-0.00660786
-4.91627e-08
-0.00387243
-0.000979492
1.51195e-06
-1.13067e-08
5.10705e-05
-1.54652e-06
-0.000413698
5.67401e-08
0.000168633
1.53699e-07
7.9141e-06
4.7561e-09
0.000725506
0.0026492
-7.33883e-07
-0.00207685
3.09064e-06
-3.41749e-08
7.15062e-05
-1.89965e-06
1.56357e-06
-0.00336039
-0.00100665
-5.82403e-09
1.26167e-06
-0.000143521
0.000271207
-1.52667e-09
5.34631e-09
-0.000924539
2.20762e-05
-1.98211e-11
-0.000142614
6.06916e-06
-4.94916e-07
8.59952e-07
5.27188e-09
-7.2982e-07
-0.00092418
-1.16323e-07
-6.78512e-06
-2.4361e-06
-3.14905e-09
-1.90142e-08
3.23749e-06
-0.00109581
6.82728e-06
3.02021e-07
-1.39363e-07
-3.49187e-11
0.000945967
-0.00260412
7.2575e-05
-3.58131e-08
-0.000861089
0.000769343
0.00142394
-0.00340905
3.08828e-06
8.92591e-09
-9.21694e-09
-2.15618e-06
0.000224904
-2.91613e-05
8.16383e-07
0.00669007
-7.68195e-07
1.38928e-08
-0.0039125
-1.94286e-09
0.00963865
5.19948e-09
-5.7095e-11
-1.01042e-07
3.30315e-07
1.34226e-06
6.01775e-05
1.88122e-07
-4.89012e-07
0.00145047
-0.00264631
-0.00214991
8.80077e-08
0.00801295
-5.62611e-10
-1.65519e-07
-1.09264e-08
0.000307236
1.50867e-09
8.89359e-06
-1.23829e-07
6.70233e-08
-4.49611e-06
2.12666e-08
-4.05514e-05
1.92793e-06
2.49174e-07
-1.35254e-08
-1.37461e-07
-0.000245914
0.00105596
2.89217e-08
1.46023e-09
-0.00503535
-3.08327e-07
-0.00069489
-5.66857e-09
0.000828709
1.97764e-07
0.000556047
-2.0746e-06
-0.000191824
2.24097e-07
0.0590998
-8.28109e-06
6.42171e-08
3.93354e-06
-2.83391e-05
-2.80789e-07
0.000722765
-6.0629e-07
0.000634141
9.85848e-07
-5.54727e-05
-2.95724e-06
0.000529193
-1.27812e-05
4.69985e-06
4.51278e-06
-0.00370214
9.5796e-09
1.889e-07
-0.000391871
-1.32528e-08
-1.13982e-06
0.000932469
1.64734e-05
4.1254e-07
6.68304e-05
0.000200677
8.83275e-09
0.000697488
-0.000538831
1.80095e-09
1.9422e-08
-1.36745e-09
4.68478e-08
-0.000248455
0.00791583
5.19836e-05
-0.000301431
-1.80148e-08
-5.38243e-06
5.73622e-05
4.82275e-07
-0.00352831
0.000387284
0.00247172
-1.85433e-08
-0.000291853
1.55736e-08
0.00133644
-3.01747e-07
-0.000231626
1.95849e-06
-3.87919e-07
3.84741e-09
-3.04872e-06
-2.95622e-06
-2.48222e-06
-0.00163022
0.000357149
-0.000356538
-7.74588e-07
1.19146e-06
-1.0203e-09
0.000295921
-0.00360594
-3.31394e-08
0.000903003
-1.01984e-08
-0.00022312
-1.60853e-08
7.63868e-09
9.28489e-07
-0.00282977
5.96775e-07
-0.00127118
-7.13388e-05
2.95629e-06
3.96991e-06
-3.52961e-08
3.62614e-05
2.49401e-05
-2.11707e-08
1.53126e-05
-8.4256e-08
-1.01627e-08
1.76569e-06
-8.94513e-11
2.96364e-09
1.89966e-08
9.50761e-05
1.41288e-09
-9.10884e-05
-0.00467158
5.22924e-05
3.73738e-05
-0.00124687
-0.000647035
2.13557e-06
-2.34273e-08
-7.04318e-06
2.3651e-07
-2.24817e-06
2.68618e-09
0.00763634
-0.00519355
-0.00550938
3.64868e-07
-5.44045e-06
1.25824e-06
2.47918e-07
-5.63825e-06
2.23609e-07
0.000115609
-5.0435e-07
1.57679e-09
-0.000596536
7.75628e-05
-0.000160195
7.41547e-06
3.41041e-05
0.00054524
-0.000822496
-0.000128959
1.40474e-08
2.99269e-06
-7.82228e-07
3.30863e-08
0.00105916
-1.2776e-06
-5.56403e-09
-3.13369e-06
-4.65904e-06
-6.41649e-05
2.97925e-08
3.55094e-05
0.000837734
0.000224168
-3.42354e-06
1.36625e-09
-4.62194e-08
-3.09941e-08
4.94346e-08
-1.57261e-08
-0.00699891
1.3437e-06
4.09001e-07
0.0002195
1.392e-06
1.81332e-05
-0.000906108
1.60773e-05
-1.29784e-05
0.000469659
2.77433e-05
2.91311e-06
2.52137e-05
3.27091e-07
2.5827e-05
3.11552e-05
-8.51935e-07
-9.33916e-07
1.2486e-08
0.00250951
1.51478e-07
-3.53089e-08
5.92074e-07
-1.9795e-07
-5.5033e-05
0.00366355
6.85694e-08
1.84144e-08
-0.00826858
-0.000647432
-4.39978e-11
8.51534e-05
8.21197e-08
-1.08419e-05
-1.66715e-08
-0.000954486
-0.0154504
4.44394e-06
-7.57364e-07
-0.00149516
-6.04547e-05
5.33547e-05
-9.13925e-11
-0.000943853
-1.91395e-05
-0.00864175
-3.40594e-08
0.00038324
-0.0014416
1.57298e-06
1.36343e-08
5.12072e-07
1.09369e-06
0.000605284
-2.40578e-09
2.02305e-08
-1.6203e-09
-2.02862e-09
-0.000908271
0.00466235
2.86685e-06
-7.84013e-05
1.81814e-08
4.93629e-10
-7.48675e-06
-0.000837572
-1.84784e-06
-1.8576e-07
-1.94874e-08
-5.16321e-09
-0.0060306
0.000590127
3.0313e-09
-1.26577e-08
-9.49055e-05
1.24203e-06
-3.10113e-06
1.07509e-07
2.74988e-07
-1.96856e-06
1.70456e-06
-6.89813e-06
-9.44971e-05
-3.2044e-05
1.66238e-05
-0.0209612
3.68544e-06
4.71702e-08
-0.000913865
-9.77383e-09
-1.81514e-07
-7.87045e-07
0.00179686
3.03322e-06
2.73931e-09
0.00130814
-9.18376e-06
-0.000261251
9.3347e-06
6.09958e-07
-3.42836e-06
1.09805e-08
-0.00159119
-0.00116137
-0.000569339
1.49833e-06
-2.069e-06
-0.000102003
0.000422997
-0.000696117
-9.88995e-07
1.82566e-06
-1.96014e-07
4.96311e-07
9.98214e-08
1.72444e-06
1.56711e-06
-4.20207e-08
-6.74807e-07
5.48513e-06
-0.000579903
7.23346e-05
1.13014e-06
1.91121e-05
0.0129035
4.87275e-07
-6.02223e-08
0.000615275
0.00251569
0.00810749
-0.000215
1.15157e-08
0.000709255
2.08698e-06
9.01642e-10
-4.76266e-06
4.84337e-06
4.28266e-07
-3.36209e-06
-0.00376846
3.63993e-05
-6.13376e-07
-0.00148638
6.14216e-07
-0.0002946
7.26929e-09
8.42914e-09
0.00541027
0.00272947
-2.25582e-06
5.81018e-07
-4.46607e-07
-6.64083e-09
-6.6933e-07
-6.02075e-05
1.23795e-05
-4.84405e-07
8.83111e-06
-1.84884e-06
-5.28808e-07
0.00112024
1.45072e-05
0.000330639
3.94123e-08
-3.81512e-05
3.34822e-07
-0.00013182
9.49079e-06
3.95519e-06
2.18216e-06
7.06176e-09
1.0294e-08
-6.47743e-07
3.63853e-06
4.02507e-07
0.000235404
-0.000482885
2.92885e-06
6.81728e-09
-1.75077e-05
-4.18683e-05
0.000351174
-1.65134e-07
-9.3202e-08
1.55153e-08
-8.79992e-07
3.11655e-07
-0.00137779
2.7252e-09
0.030737
-4.95727e-07
3.35227e-05
2.9287e-06
-0.00080981
2.39699e-06
-2.45167e-07
-2.44778e-05
-0.000621844
2.58625e-07
-1.32304e-07
0.00963465
1.18785e-05
-5.43301e-05
2.63354e-11
6.48787e-09
-2.66351e-05
-6.10893e-07
5.42264e-07
-1.17049e-06
2.0319e-08
5.46149e-06
-0.00351006
1.24834e-07
3.84492e-08
-2.66676e-09
0.000995426
-4.55781e-09
4.6305e-07
0.000143105
-4.95856e-07
0.00344212
1.7617e-06
-1.01189e-07
-2.42968e-09
-3.40718e-07
-1.49624e-08
7.35924e-07
6.81827e-09
7.79212e-07
-1.28021e-07
0.00602455
-3.00444e-05
-0.000907297
-3.18888e-08
7.74844e-09
2.61239e-06
-1.14091e-06
0.000928803
0.000759322
5.47683e-07
2.27589e-08
0.000137947
2.52623e-06
0.000206597
0.000307978
1.73332e-07
-0.00377896
4.96648e-07
-7.21816e-07
1.39168e-05
8.65019e-06
1.04399e-06
3.11937e-06
1.67842e-06
-1.67345e-07
3.35392e-06
4.41595e-07
-2.26169e-08
-1.26718e-06
1.75189e-08
1.59411e-06
-7.36071e-09
6.06281e-09
1.27549e-06
-7.65042e-07
5.49632e-06
-2.69618e-08
-2.85138e-08
-4.09708e-10
-8.42978e-07
-2.03784e-08
-1.57032e-07
-2.74832e-09
-0.000935114
7.5357e-07
-3.55506e-05
-3.13422e-09
2.32025e-09
-1.34021e-06
1.7664e-06
-8.66874e-07
-0.00353337
-1.59403e-07
0.0140206
-1.31711e-06
-8.64816e-06
-9.5792e-07
-1.28088e-11
-5.77159e-10
7.29802e-07
0.000324702
-1.17387e-08
-0.0079196
-3.55875e-06
6.91159e-05
-1.25095e-07
-1.13208e-06
-7.93094e-06
1.88477e-08
-1.36811e-11
7.86068e-07
9.36092e-09
-1.60414e-07
-0.00478118
1.09542e-07
2.0639e-09
-3.1349e-06
4.57542e-09
4.58133e-09
2.11522e-06
-1.58204e-07
0.00104086
4.23325e-07
1.98832e-07
3.10621e-09
0.000654468
4.63448e-06
7.81369e-08
7.32247e-07
-0.00294824
-0.000296894
-6.96649e-05
3.38553e-07
4.89516e-07
-4.32428e-09
4.38266e-09
-1.18706e-06
4.95833e-07
-0.000117431
6.56649e-07
0.000859259
1.48438e-06
3.20499e-07
5.8634e-05
-2.34898e-08
1.2517e-06
-3.97449e-08
1.45059e-09
3.62914e-07
1.01664e-07
2.2406e-07
0.00367064
-0.000827862
7.45029e-07
3.51666e-08
-6.06031e-09
-3.45175e-06
0.00554194
-7.15733e-11
-0.00881073
2.77955e-09
-9.24704e-07
-1.2561e-07
2.42841e-08
0.000372258
-2.6425e-07
-0.00665585
7.51431e-07
-1.76117e-09
1.66924e-08
-4.23116e-08
-2.03373e-07
-3.17842e-08
-0.000718527
-8.74337e-08
1.23285e-08
0.00431408
0.00654726
-3.0491e-07
-2.21822e-06
-1.22686e-07
1.87593e-07
9.70288e-08
5.24997e-08
-0.000876094
1.80496e-06
-9.49752e-09
-1.05564e-06
0.00101478
-4.59271e-06
-0.000321267
-2.20953e-10
-8.73472e-07
0.00105099
1.32972e-06
3.99651e-07
0.000289397
0.000143714
-8.00051e-08
-1.489e-05
-7.93901e-10
-3.09737e-07
-5.30909e-09
-0.000835353
-1.56566e-08
3.88372e-07
8.17941e-08
-0.00634792
6.622e-07
4.67657e-06
5.26035e-07
-3.01763e-08
-7.63388e-07
3.15531e-09
-0.000290768
4.34331e-08
-8.30198e-08
4.84317e-09
-5.37438e-07
2.10462e-09
-1.5869e-05
-0.000875683
-0.00450483
-5.3161e-07
-0.000801049
0.000120241
-5.81535e-08
0.000760762
0.000270482
7.0026e-05
-0.00112761
0.00390495
-0.00500617
-2.39708e-05
4.66847e-07
-0.00339387
-7.75701e-07
-0.00298767
-2.2643e-08
1.50402e-07
-1.91081e-08
-5.97407e-10
-6.63111e-07
-7.47187e-07
0.0009772
1.67025e-07
-1.11822e-08
5.95385e-05
1.10847e-05
-8.85701e-09
-1.46571e-06
-1.45712e-06
1.63022e-07
-0.00178909
-2.31887e-06
-5.56435e-07
6.07623e-07
-0.000668475
3.58883e-05
-1.49621e-05
-1.16363e-07
-7.76037e-05
-1.52114e-05
0.000332239
0.00184541
1.82048e-06
-4.55675e-07
-7.53081e-07
6.32717e-07
-1.0273e-09
3.78631e-07
4.79204e-09
-5.97826e-06
6.57863e-07
0.000247044
-6.76091e-06
2.46319e-07
-1.02711e-05
-0.000874647
3.76336e-07
2.05665e-07
-0.000388453
2.20797e-07
-1.25292e-07
3.86158e-07
0.000201521
-4.15066e-09
6.19102e-08
-0.00325999
0.000368525
-0.00416851
1.01452e-05
-0.000757545
1.96696e-08
-1.54388e-05
-9.3291e-08
-2.03399e-08
2.91284e-07
-0.00606566
-0.000169869
2.95949e-08
1.14907e-08
-2.33509e-07
-0.023408
-9.16036e-07
-6.59852e-06
-1.47241e-08
-7.13624e-07
1.29527e-06
-5.22808e-08
3.126e-06
-2.67157e-05
-0.000348071
4.61399e-07
-1.60344e-06
-5.06691e-08
-0.000868767
-0.000834721
1.2798e-08
-0.000308487
-1.87495e-06
0.000243912
-4.91974e-10
-0.00268769
1.83219e-09
1.12228e-06
5.06265e-08
7.54895e-06
-0.0073259
0.00039168
1.46561e-05
0.00161502
8.70888e-09
-0.000282757
5.94662e-08
-1.68152e-07
-0.00265127
8.97968e-08
3.89004e-10
8.0834e-07
-1.43131e-07
0.000298088
8.71144e-09
1.78976e-08
2.19976e-06
9.56136e-07
-1.65597e-06
-3.78384e-05
-2.48527e-06
0.000330254
-3.71504e-07
-5.34147e-06
8.64813e-07
-8.47028e-05
2.18044e-06
0.00574598
-0.00392197
-1.63647e-07
2.08072e-08
-0.00155344
-0.000328797
-1.87934e-09
8.94597e-08
-4.39122e-06
2.65657e-07
-2.03956e-07
-1.42146e-07
-1.07727e-06
-7.64741e-11
9.53127e-07
-1.67563e-06
1.62894e-08
-2.96654e-06
1.42244e-08
-1.05599e-06
8.9489e-09
4.32994e-07
8.15231e-07
-8.83356e-07
-7.52286e-07
1.8193e-08
0.000164336
-3.95696e-06
0.00470872
-9.30775e-09
-3.39413e-08
1.72029e-06
1.12776e-08
-7.36497e-06
-4.03011e-06
2.70571e-07
8.21974e-06
8.85027e-09
-0.00417067
-1.27983e-08
-2.1133e-06
0.000819528
9.01363e-05
1.57232e-07
2.32736e-06
-0.000674873
-1.07588e-08
1.29812e-08
0.000362955
-0.000810131
-6.49755e-07
9.82113e-06
2.08348e-09
-5.72493e-07
-0.00664086
4.20953e-07
1.25207e-08
-0.000204339
4.15953e-08
-0.00761001
8.34638e-09
5.74976e-09
1.49263e-07
5.96901e-06
-0.000294191
-2.71363e-08
-1.17978e-07
4.92878e-08
6.61622e-08
1.30792e-09
-2.49782e-05
-8.46834e-07
-1.27504e-10
0.00839422
-1.3781e-07
0.000278979
0.000373169
1.04396e-05
-1.26362e-08
4.97883e-08
-1.67493e-07
-0.000197697
3.43326e-07
-0.000151783
2.41508e-05
-4.25103e-07
-0.00233569
0.000194753
-9.39835e-07
-1.68146e-06
7.45176e-07
2.73682e-05
-0.00774454
-6.72786e-07
-0.000177474
0.00086512
-1.58745e-06
-5.45883e-08
-1.05136e-05
-4.71994e-07
1.29996e-08
1.02685e-06
0.00255882
1.70424e-06
2.01121e-08
-2.04885e-07
-8.90603e-06
-6.16759e-07
0.000446571
-9.07378e-07
0.00157063
-5.27445e-07
0.000256368
-2.48746e-06
3.02277e-05
-1.03518e-06
-1.03728e-09
-9.87513e-08
-0.004798
5.08419e-08
-3.60659e-07
6.32881e-09
6.11339e-07
-2.05147e-08
-1.65344e-07
1.09197e-05
-0.000242663
-1.23132e-06
-1.50934e-06
-0.00626835
1.43769e-05
8.22252e-09
-0.00453219
-0.00629713
2.99222e-08
2.19921e-08
2.45265e-06
0.000330378
3.64363e-10
-5.28611e-06
-3.89315e-05
-2.58829e-07
8.22135e-08
-1.2592e-07
2.18634e-09
3.58268e-06
-1.23917e-08
-2.26782e-09
0.00350682
-0.0037708
-5.70303e-07
-0.000571537
-8.76967e-07
-0.0275709
1.11062e-06
4.37681e-07
-0.01
-0.0089169
3.14227e-07
0.00051588
-9.62197e-07
-8.37743e-10
-2.51246e-07
-6.2987e-07
7.61963e-08
2.51278e-07
-9.20451e-07
1.36677e-07
2.02646e-05
9.34883e-10
-4.39311e-06
4.685e-08
-1.33828e-06
9.49598e-06
-0.00345078
-9.01369e-08
-6.80762e-05
-4.22446e-08
-0.00847967
-2.53462e-09
5.71134e-07
-4.35397e-09
1.3976e-05
-0.000879687
1.90959e-05
1.47304e-07
9.67014e-05
7.01845e-08
-3.81603e-06
-0.000734114
1.76405e-07
2.20354e-07
-9.67743e-07
-3.90774e-06
-0.00291135
1.70616e-07
2.99939e-07
-2.59975e-07
3.35039e-08
-2.63087e-07
-3.32846e-07
-1.03696e-08
-5.46595e-07
-0.000911542
1.56806e-06
-4.5749e-05
0.00812871
1.3461e-06
-0.000472753
1.68268e-06
-8.88092e-09
8.56458e-07
-0.000863558
-5.46609e-08
-7.79647e-08
-1.31689e-06
0.0376377
-6.86104e-08
-2.88539e-05
-4.06974e-06
8.13592e-06
3.39266e-08
1.96573e-08
3.49739e-05
1.24674e-07
-2.91034e-09
-1.65164e-06
4.42184e-08
1.12021e-06
-1.71869e-06
4.45689e-06
-4.49173e-06
-0.00475507
4.12834e-07
-3.64406e-06
-0.00587638
-0.000686386
3.52883e-06
2.57882e-05
0.000334307
-1.73853e-06
-0.000909739
-3.6695e-07
0.0112325
3.80803e-05
-5.64434e-08
-1.49649e-10
5.29887e-08
7.46323e-07
-6.22311e-08
-6.86367e-08
-3.1169e-07
2.89855e-06
1.88641e-07
-6.93919e-08
-0.000443179
6.85316e-07
2.52478e-07
0.00373116
3.95386e-07
0.000184526
4.61955e-07
1.31526e-06
1.47254e-08
-0.000988886
5.18986e-06
-8.06977e-07
4.62259e-07
-0.00320449
1.57284e-06
8.77047e-05
-2.9097e-09
4.23064e-08
-0.00104663
-1.28707e-07
-1.72764e-06
1.60389e-05
-1.83721e-08
-1.24252e-06
-2.90883e-06
1.86087e-08
-3.0597e-09
-0.00341314
0.000166296
7.21386e-07
4.66682e-07
-1.2499e-09
-1.5694e-06
1.61644e-06
-0.000296831
-2.83212e-07
-0.000326973
0.00274421
-0.000193688
0.0260474
4.87096e-07
-2.6891e-06
3.33587e-06
1.15829e-06
-3.3036e-08
-4.51113e-06
-5.11021e-05
-1.28369e-09
-9.28536e-07
0.000610099
-0.00058991
-1.30237e-05
-1.85768e-07
-2.16636e-08
6.12781e-10
-8.84362e-09
0.000103521
1.12924e-06
1.16438e-06
4.69751e-07
8.36269e-07
2.67183e-09
-6.4334e-08
-1.69207e-08
-2.26059e-06
-3.18239e-07
0.00883621
-5.35007e-07
2.07845e-05
-0.00135624
2.2087e-07
5.45061e-07
-5.48183e-09
7.87921e-07
-0.000975327
1.13329e-06
-1.91696e-07
1.45205e-07
-1.17544e-05
-8.93134e-07
-0.00378823
0.000394403
1.86525e-07
0.000805608
1.77536e-09
2.67575e-07
1.66552e-06
-1.32642e-09
5.0643e-08
-0.000134853
-0.00222158
4.16558e-08
-0.00860509
5.66163e-07
-3.16636e-09
-5.79327e-07
9.83885e-05
-3.65041e-07
8.35597e-07
-0.00307348
1.32261e-07
-1.98758e-05
-0.00170646
1.89516e-12
3.31575e-07
-2.65841e-09
-0.000901665
-1.80073e-06
4.81441e-08
-0.00523149
1.83069e-06
1.68435e-06
3.00733e-10
2.29794e-05
-2.72786e-07
-5.09407e-05
-4.06195e-08
-1.58665e-06
-0.000872549
2.86171e-09
2.9563e-05
-4.38794e-08
-1.42223e-06
-1.13202e-06
-5.72744e-12
0.000229111
-4.92245e-07
1.5731e-05
1.17512e-07
2.78231e-07
1.60667e-07
1.60209e-06
-7.31487e-08
0.000126883
-5.24294e-08
9.61342e-06
2.07621e-07
-3.33113e-06
3.9292e-08
1.03983e-06
5.89537e-08
7.6442e-07
-0.0070331
7.22939e-07
-1.03512e-07
-3.25634e-05
-5.31385e-07
-0.00699957
-4.81492e-07
-0.00857626
8.68266e-05
-1.25087e-06
1.30836e-08
6.336e-08
-2.7541e-09
1.30676e-08
-3.49441e-06
-1.23563e-06
-1.48565e-06
-2.48682e-06
-2.85754e-09
-0.00401882
1.69395e-07
6.36489e-07
0.000449765
1.82987e-07
0.000265542
-7.18917e-07
1.6274e-06
-1.96454e-06
-0.000318654
7.68986e-05
-0.00910875
0.0213957
-2.1582e-08
-2.72604e-05
0.000318353
-5.25715e-06
9.25178e-09
7.41804e-08
-9.0714e-06
-0.00463386
8.56861e-06
0.000263335
5.84516e-07
1.07674e-06
-1.9375e-06
-0.00138855
2.09265e-05
-8.50681e-07
-3.01781e-05
9.24623e-07
-3.69857e-06
1.94925e-06
2.91956e-09
-7.89257e-06
-0.00386601
-9.13817e-10
0.000239328
-8.36978e-09
-9.12689e-08
0.000450028
0.00012973
5.17484e-09
4.00201e-07
1.14615e-06
2.40388e-08
-1.79371e-06
0.000119695
-7.99947e-08
5.47113e-09
8.66821e-09
-1.16403e-06
-2.39335e-06
4.53608e-08
0.0020576
-3.81338e-08
-0.000123934
0.000242783
0.00162912
-3.14205e-06
-7.24247e-08
0.000861618
-3.10959e-07
-0.00337373
0.000283219
0.0102578
-1.2355e-06
-0.00103663
-0.00106328
-8.35203e-09
1.84045e-08
5.47697e-07
3.9974e-05
-0.00757029
-3.95516e-08
2.76519e-07
-8.55587e-05
0.0138397
0.0205383
-1.80478e-07
-1.10278e-06
-0.00022397
-7.44668e-09
0.000212101
6.95149e-05
0.000705632
0.00190138
-7.29912e-08
3.13884e-08
6.3269e-09
9.43209e-07
0.000924015
-2.1949e-06
-1.48107e-07
1.81527e-07
5.95027e-08
0.00024136
-1.81024e-06
0.00492648
9.51587e-05
0.000626207
-0.00013687
-5.79172e-08
1.14793e-08
-0.0091609
1.09215e-08
5.30299e-08
4.36883e-07
-2.35728e-05
-4.36178e-06
-8.26766e-05
1.03238e-05
-1.54714e-08
-3.4084e-05
7.08151e-07
1.08955e-07
9.78166e-05
3.1742e-06
-4.28774e-07
-1.15351e-07
4.88083e-05
-0.000559483
2.88139e-09
-0.00390214
0.00340595
0.000745316
-0.00212809
-9.66558e-07
-4.72651e-07
-2.59277e-07
0.00195397
5.57615e-07
-0.00894701
-6.28777e-07
-0.0234676
0.000160665
9.4886e-07
2.76818e-07
3.13808e-07
-4.16792e-07
0.000643515
0.000225623
-1.51857e-08
0.000148909
3.61843e-07
8.33704e-08
2.06924e-08
-1.78456e-08
-6.17003e-05
7.32665e-07
1.14147e-05
1.51415e-06
-4.97765e-07
3.85486e-09
-5.24696e-06
-0.000438671
1.50052e-06
2.14441e-06
8.59178e-07
1.56121e-07
1.65403e-07
2.2382e-08
0.000208131
8.53666e-07
-0.00027569
-1.73225e-08
6.67372e-09
6.76761e-08
1.09583e-05
1.36893e-08
-3.58869e-07
-0.000306252
3.19887e-07
0.000716426
-5.18382e-08
-0.000812167
-0.000133755
-1.40936e-11
0.000283026
4.50506e-06
3.53316e-06
0.00035372
9.93955e-07
0.000249753
1.77069e-07
-3.08122e-07
7.91466e-07
1.20594e-08
4.18173e-05
-3.42419e-08
8.76931e-08
9.32918e-07
-0.00119027
-0.000322001
-3.83167e-10
4.35932e-09
5.57532e-07
4.9139e-07
-1.05178e-05
3.47787e-07
1.69165e-06
-2.28236e-07
-4.11398e-05
6.70094e-07
-0.00096779
2.8036e-09
-0.00117245
-1.93814e-07
1.9515e-08
0.000721544
2.21608e-05
3.24645e-06
0.000306367
-6.87218e-07
1.92262e-06
2.6134e-09
-0.00044311
-1.88115e-08
8.67962e-09
5.14526e-06
-3.39399e-08
-0.000103657
0.000351655
-5.9492e-06
-0.00255277
-1.26874e-05
-0.00205347
-1.53319e-08
7.33859e-08
1.33914e-07
-0.000504642
-1.20519e-06
-0.000892343
0.000777457
-4.36448e-07
1.95437e-08
-2.16357e-07
-0.000245446
-0.000951219
7.41757e-07
7.28277e-09
-1.58833e-07
-1.94165e-06
-3.42027e-06
-0.000166693
-2.03019e-05
-2.8133e-09
0.000105414
-5.2236e-06
-0.00100693
9.69347e-06
-1.04331e-06
-4.5803e-07
-6.8374e-05
7.31863e-09
-4.59176e-07
-0.00632307
-7.14115e-07
1.03062e-06
-9.53141e-05
3.76863e-07
-2.21534e-07
0.00103309
9.90358e-07
-0.000143788
-7.63854e-07
3.92728e-07
-5.56824e-07
-0.000460804
2.25195e-09
8.71076e-07
-2.7534e-06
0.000653219
-7.898e-07
5.17715e-06
-1.79607e-07
5.59513e-07
-4.99487e-10
0.000893279
-1.87169e-07
5.7854e-08
-6.5883e-06
3.47865e-09
-6.67021e-11
-4.27097e-05
-6.57e-08
4.90432e-10
-1.37611e-07
4.34423e-05
-1.68042e-08
-7.01499e-07
5.62431e-07
-2.16416e-05
-7.1952e-06
-3.2034e-10
-3.22393e-06
-1.2435e-05
-5.16601e-05
-3.36948e-06
3.9196e-07
-0.000197845
-0.00360358
0.000581268
-1.24169e-10
-0.00491024
-0.00702753
-9.58873e-11
8.42361e-07
1.33151e-08
5.15045e-05
-4.6268e-06
5.10944e-07
-5.99732e-05
-0.000799778
-9.48014e-09
8.00392e-08
-0.00325479
0.000693554
7.0439e-09
1.40803e-08
0.00312069
-0.00167517
-3.81711e-05
-3.42683e-08
-0.000387807
2.96958e-06
-1.7487e-06
0.000115901
1.37496e-06
8.79197e-09
3.15073e-06
3.39369e-06
3.26056e-06
-0.00465303
-0.000913344
-1.78559e-07
0.000992714
1.63311e-05
0.000337458
1.44441e-09
-1.22665e-06
-1.07473e-07
-4.71948e-07
0.00138727
-0.00821369
0.000297452
0.0101496
3.35048e-07
1.03984e-06
2.09108e-09
-0.000255894
0.000285694
-6.68076e-09
-4.63787e-07
-2.25188e-07
6.08478e-09
-1.05776e-06
0.000222409
-0.00355722
8.15875e-07
-4.52276e-07
-4.18057e-07
0.00122055
1.38971e-07
-3.04847e-07
-1.41397e-07
-1.67552e-06
-0.00241952
-0.0025966
6.655e-05
0.000455455
3.66284e-09
-0.000129838
-2.94602e-08
1.34848e-06
-0.0023097
0.000295975
-3.78544e-08
-9.35116e-10
-2.00673e-06
3.71919e-07
-2.7555e-08
0.00188839
-0.000689122
1.94207e-08
-7.24114e-09
3.84778e-09
1.9593e-08
-0.00094636
9.36306e-10
-0.00436747
8.31074e-07
-1.01578e-06
-2.82931e-08
-1.58007e-06
-0.000890194
-2.58971e-06
-1.34792e-05
0.000350862
7.71987e-08
-0.00101897
-5.93655e-07
2.81144e-06
-4.95496e-06
-0.000547835
0.000326693
6.17569e-07
-1.37372e-07
-2.21857e-05
1.43966e-08
-1.07018e-06
1.54633e-08
-0.00442585
-1.37119e-07
0.0027016
0.000386811
2.29031e-06
2.00092e-10
6.99826e-05
5.66327e-07
-1.694e-10
-1.11603e-05
5.05706e-09
4.13819e-08
-5.88153e-06
1.32637e-07
-0.0050176
-3.0246e-07
-8.78394e-05
1.42209e-07
4.73182e-08
0.00061204
0.000409284
4.49499e-07
8.75652e-07
3.1311e-06
1.87925e-06
-3.11835e-06
2.01578e-07
1.39125e-07
1.39793e-06
1.9102e-05
-2.12322e-06
-0.00587362
-1.48009e-06
-0.000139482
-6.80135e-06
5.98534e-07
0.00224129
1.49212e-09
-0.00584237
-2.27968e-07
-0.00036658
-0.0637116
-0.0007077
-0.00297262
-8.01478e-05
-2.39595e-06
4.50913e-07
0.000336476
-3.55236e-06
-7.42856e-09
8.98906e-05
0.00863197
8.12023e-07
1.26772e-06
8.77143e-07
1.94388e-06
-6.25667e-07
-0.00091698
-2.20897e-11
1.66326e-06
-1.19831e-06
4.78265e-07
1.27145e-08
-9.60829e-07
1.32406e-08
-0.00692644
-6.75788e-08
-1.73345e-05
8.58661e-07
-1.82675e-07
4.553e-06
0.012432
-5.60539e-06
1.22447e-08
-4.89224e-06
-0.00203571
-0.0107661
-1.78907e-07
-0.00920136
-4.0999e-06
-0.000269561
-2.32882e-08
-1.24309e-07
0.000814164
4.40833e-07
0.000293174
-0.000275237
-5.60354e-08
-0.000776645
4.49474e-07
1.372e-08
-0.000524456
-1.16217e-06
1.32348e-06
0.00493331
1.45165e-06
1.62261e-06
1.40233e-07
5.70581e-06
8.79153e-07
0.00776941
0.0061253
4.78019e-05
0.00020649
6.56793e-08
7.0304e-06
0.000317751
-1.0134e-06
1.75653e-07
-2.74558e-06
2.8987e-09
-3.92725e-05
0.000280695
0.000423638
0.00101135
7.28066e-06
-7.7261e-08
0.000118845
4.95965e-09
5.03227e-06
8.72192e-09
0.00123287
1.8939e-06
-7.21388e-07
0.000597004
-2.11478e-06
-8.76812e-09
5.67787e-07
0.000177108
2.39987e-08
-5.73943e-05
1.05495e-07
-0.00936681
-0.000804893
-7.95824e-06
-2.16222e-06
5.81697e-09
6.95686e-06
3.07437e-05
1.68862e-06
1.00864e-07
5.78045e-07
1.21834e-09
5.72398e-06
-1.41597e-09
3.15523e-06
-3.751e-09
-1.4963e-08
-0.00100465
-6.68281e-08
-5.018e-07
-4.21799e-08
1.48407e-09
0.000342832
1.95681e-07
6.33361e-07
0.000886931
1.97508e-06
-0.00525081
1.26828e-07
-0.000390366
2.27313e-06
0.00379477
-1.11663e-06
-7.78521e-06
5.07702e-07
-3.53986e-07
-5.83146e-06
-1.0255e-05
0.000281249
-0.000603099
-4.57757e-05
0.00406612
-1.53167e-06
2.0781e-06
2.71195e-07
-0.00550462
-7.23105e-07
5.90027e-07
6.73025e-08
3.97556e-06
6.95881e-07
-0.00456539
-1.73536e-06
-0.00672971
-0.00256578
-4.04695e-08
-7.87847e-08
-0.00136061
4.64588e-06
1.41509e-07
-5.70111e-07
2.04694e-07
0.00334103
-7.60814e-08
0.00042344
-9.06683e-08
-2.24791e-07
-0.000430174
3.51283e-06
-4.70253e-08
6.90479e-08
-0.000937438
-6.80478e-08
-1.01406e-06
8.04529e-07
2.44633e-07
1.45787e-06
-8.6674e-07
9.13431e-06
5.12979e-06
-9.76481e-07
-0.000400388
0.000439753
0.000391342
-0.00096181
-2.04279e-10
1.77635e-07
2.79282e-06
3.97898e-07
-1.237e-06
-0.00836589
0.000813894
1.36933e-08
2.87968e-08
-0.0017973
0.000342759
6.87161e-09
-5.36895e-08
-4.07131e-07
-0.000510634
-0.00473265
-6.10338e-07
7.69593e-07
1.65736e-08
0.000601965
1.40716e-05
5.27891e-08
4.96255e-07
-3.54495e-07
2.28803e-07
8.62453e-07
-4.01723e-05
-8.82343e-07
-1.6144e-07
-1.03525e-06
-0.00524157
8.61883e-07
0.000290263
-2.32929e-08
0.000820949
-4.9252e-07
7.09518e-08
-1.29557e-08
3.38709e-08
-0.000131462
-0.00608159
1.11197e-06
-0.0010052
0.000585105
-6.57939e-08
0.000154768
5.25929e-06
6.14233e-10
0.00122678
4.1214e-05
-9.13739e-06
6.57599e-10
-0.000714397
0.000359933
-3.79519e-07
4.23825e-07
0.000286438
-1.24236e-06
-1.43968e-07
1.8029e-08
2.72738e-07
3.08791e-07
5.70579e-07
0.000150866
4.44296e-06
-5.44674e-06
5.58276e-09
2.17782e-08
-0.00643697
1.54399e-07
1.14583e-06
-6.07871e-07
7.42314e-07
-9.67224e-08
-2.82595e-09
3.77498e-07
0.000143343
-3.5489e-08
-0.000456073
7.27587e-09
-0.0087752
-0.000748557
-1.45472e-05
-5.21105e-07
-1.09485e-10
-0.000544781
1.52791e-08
7.13252e-07
-2.64695e-07
-6.10067e-05
0.00290682
-5.33659e-06
8.08264e-05
1.56224e-06
0.00174626
3.54586e-07
6.09252e-07
-1.6537e-08
1.55175e-08
0.000141438
0.000708261
0.0011202
-9.64539e-07
-1.84769e-07
-1.46871e-06
0.000288594
0.000423472
-0.000334438
9.76724e-07
4.30986e-09
-0.000739471
1.99934e-07
-4.97115e-07
-3.13298e-05
1.13804e-05
-5.77274e-07
-4.72681e-06
1.74841e-06
4.0854e-07
-2.29003e-06
-0.000666296
-4.83398e-07
1.56438e-09
0.000309767
1.21495e-06
2.62656e-08
-0.00102284
-4.24175e-09
6.43854e-09
-0.000246308
1.5245e-05
-0.000378464
-2.65537e-09
-1.34702e-07
-1.06872e-07
0.000231562
-8.2848e-08
4.84404e-05
3.50867e-05
-0.000544976
-0.00125642
-0.00227922
6.67487e-07
-0.000856222
-5.04639e-05
1.38189e-08
-7.29804e-08
-3.17613e-07
-6.09762e-07
9.19969e-06
-0.000190495
0.000236881
-0.00157307
-2.52338e-05
-1.11996e-07
3.92531e-06
-2.61114e-09
0.000146871
-1.28685e-07
-7.38665e-07
1.70764e-07
1.8557e-07
-1.31203e-07
-1.94417e-05
0.000116526
-1.62e-08
-5.02079e-07
1.02231e-08
-0.000750102
-2.1878e-07
-0.001311
-0.00391666
0.00113395
-1.51018e-08
-1.48556e-07
0.000564495
-2.21684e-05
2.26296e-09
1.82035e-05
8.41772e-09
1.8199e-05
1.04493e-05
-4.15266e-06
-7.37163e-08
-0.00101284
-1.45736e-07
-6.90922e-09
2.06406e-05
-0.00145803
1.62566e-06
2.02305e-06
-8.26907e-08
-0.000717848
-1.31063e-08
-3.44856e-09
3.69347e-07
7.08522e-08
8.97744e-05
0.000394641
0.00514152
-8.24223e-07
-0.000653486
-0.000229291
9.19668e-09
4.33305e-06
-2.35793e-10
0.000180717
6.5533e-09
-4.39944e-07
1.9539e-07
2.70832e-08
1.99205e-08
-0.000435958
-3.31933e-07
-0.000143628
-4.46566e-08
2.53296e-07
2.61762e-08
-5.3744e-05
-3.23326e-08
-1.62291e-06
-7.26696e-07
2.46792e-06
0.00146194
2.77346e-08
0.000843882
-4.19458e-06
4.88103e-07
-1.56156e-08
-6.21308e-08
-0.000764541
0.000231613
-3.44933e-07
-7.36483e-08
-0.000211561
-0.000140279
1.99429e-07
0.000936596
-4.7677e-07
-0.000139006
-1.83129e-07
-3.88744e-10
0.00970146
3.97381e-07
-0.00369958
-1.99369e-08
-4.58534e-07
-1.08853e-09
0.000204288
-0.000273215
5.35504e-09
-1.63021e-06
8.62696e-05
-9.04768e-10
-6.62916e-08
-2.51219e-09
-8.48151e-06
0.000720765
-4.83402e-06
-6.92297e-07
1.2309e-07
-1.72774e-10
6.92978e-08
-5.59473e-08
-1.95146e-08
0.000386523
-2.06575e-08
9.16334e-08
0.00102026
-9.49803e-07
1.07037e-08
-0.0073376
2.80294e-07
-1.80036e-08
2.94758e-06
-7.67847e-07
3.42082e-05
9.43455e-08
0.00123353
1.45073e-06
7.0368e-09
-4.93132e-07
6.57962e-07
-1.1838e-07
-0.00140571
2.2471e-06
3.74978e-07
0.0028033
-7.03982e-07
2.67517e-06
2.61345e-06
-6.07435e-06
3.81729e-08
-1.98545e-08
1.81052e-08
2.26081e-06
-2.97109e-06
-1.07023e-06
0.000540374
0.000307027
-0.00420162
-3.46893e-10
1.87527e-05
-0.00158106
0.00134608
2.04326e-08
-2.1582e-07
2.02905e-06
-0.00466392
-9.24857e-07
1.71646e-06
-0.00639592
-0.000321307
-0.0236454
-4.03552e-06
-6.5397e-05
-0.00161224
0.000465222
1.34199e-08
0.029586
5.30309e-05
8.72977e-07
-2.23722e-07
8.79986e-07