/*--------------------------------*- C++ -*----------------------------------*\
| =========                 |                                                 |
| \\      /  F ield         | OpenFOAM: The Open Source CFD Toolbox           |
|  \\    /   O peration     | Version:  v2012                                 |
|   \\  /    A nd           | Website:  www.openfoam.com                      |
|    \\/     M anipulation  |                                                 |
\*---------------------------------------------------------------------------*/
FoamFile
{
    version     2.0;
    format      ascii;
    class       surfaceScalarField;
    location    "250";
    object      phi;
}
// * * * * * * * * * * * * * * * * * * * * * * * * * * * * * * * * * * * * * //

dimensions      [0 3 -1 0 0 0 0];
oriented        oriented;


internalField   nonuniform List<scalar> 
20673
(
-0.171551
0.161984
0.00956717
0.370452
-0.306663
-0.063789
0.0269067
-0.058587
0.0316803
0.152003
-0.276213
0.12421
-0.361336
-0.116602
0.477938
-0.0208366
-0.00238688
0.0232235
0.0407076
-0.0351615
-0.00554613
0.00968408
0.023562
-0.0332461
0.0156457
-0.0297792
0.0141335
-0.0565851
0.157543
-0.100958
-0.106397
0.104756
0.00164106
0.149581
0.00471949
-0.154301
-0.0971591
0.00201357
-0.00086847
-0.0011451
0.204647
-0.0377944
-0.166853
0.242283
-0.242863
0.000580575
-0.105492
0.30018
-0.194688
0.140411
-0.163206
0.0227946
0.150805
-0.00122362
0.336882
0.263558
-0.60044
-0.373622
0.573233
-0.199611
0.0380213
0.00268624
-0.598275
0.334169
0.264106
0.052428
-0.0427439
-0.30758
-0.0600263
0.367607
-0.00368757
0.0365628
-0.0328753
-0.106841
0.0791826
0.0276584
-0.101041
0.051845
0.0491959
-0.0669053
0.0519504
0.0149549
-0.147381
0.109119
0.0382616
0.156526
-0.170341
0.0138149
0.195452
-0.205704
0.0102518
-0.097562
0.139246
-0.0416837
0.175851
-0.0492461
-0.126605
-0.387674
0.362029
0.0256453
0.0861758
-0.105201
0.0190256
-0.365608
-0.232668
-0.00605028
-0.00336485
0.00941513
-0.18681
-0.0537994
-0.0191663
0.000919994
0.0182463
-0.580094
0.589992
-0.0098977
0.685293
-0.386983
-0.29831
0.36512
-0.537596
0.172477
-0.0497967
-0.0193987
0.0691954
-0.171119
-0.155121
0.32624
0.0966326
0.070901
-0.167534
0.147668
-0.00725715
-0.0162181
-0.112294
0.128512
-0.00335398
0.0104291
-0.00707516
-0.680345
0.436497
0.243848
0.0423852
-0.164781
0.122395
-0.282824
0.0319183
0.250906
-0.00618699
0.00283301
0.0563316
0.11952
0.168083
-0.273575
0.212451
-0.224149
0.0116984
-0.111339
0.00494211
0.27099
-0.352879
0.0818891
0.0841344
0.161431
-0.245565
-0.332514
0.161395
-0.0215438
-0.0231795
0.0447233
0.162842
0.20761
0.00201357
-0.165539
0.502421
0.0159364
-0.036773
-0.0841033
0.0928217
-0.00871836
-0.515776
0.323923
0.263718
-0.361874
-0.106984
0.104175
0.00280947
-0.16199
0.181352
-0.0193626
-0.525357
0.164021
-0.0178915
0.0335372
3.9774e-05
-0.00392877
0.003889
0.143414
-0.450995
-0.00743463
-0.00752101
0.0149556
-0.0181969
0.144857
-0.12666
0.00481338
4.94711e-05
-0.00486285
0.0718989
0.191609
-0.263508
0.0376745
-0.0363726
-0.00130191
-0.612032
0.326585
0.285447
-0.325513
0.600623
-0.27511
-0.257117
0.00814391
0.0258743
-0.0340182
0.00749116
-0.0135414
0.00151797
0.00201607
-0.00353404
-0.213399
0.285298
0.367929
0.204901
-0.572829
-0.0930098
0.0089065
0.211762
-0.169377
0.515662
-0.150542
-0.00199386
0.00225091
-0.00025705
0.121721
-0.0043737
-0.117348
-0.0508148
0.365698
-0.314883
-0.26214
0.0530349
0.209105
-0.0405899
-0.0524199
0.0245587
-0.0341545
0.0095958
0.085165
-0.124356
0.0391907
0.128765
-0.000700238
-0.128065
-0.064879
-0.0375706
0.10245
0.053427
-0.06648
0.0130531
-0.455499
0.559569
-0.104071
0.122575
0.00894248
-0.131517
0.0201583
-0.0699549
-0.272407
0.0736312
0.198776
-0.483768
0.0889492
0.394819
0.0393779
-0.0300776
-0.00930034
-0.00510575
-0.0619874
0.0670932
0.095068
-0.111286
0.10305
0.197129
0.161579
-0.150992
-0.0105865
0.00185938
0.0047564
-0.00661578
-0.00314592
-0.0160204
-0.111357
0.131963
-0.0206061
0.0362757
0.00310225
-0.275552
0.11699
0.158562
0.00565794
-0.00664137
0.000983429
-0.362282
0.50022
-0.137938
0.0112125
-0.0124972
0.0012847
-0.0114284
0.0141937
-0.00276528
-0.0779917
0.166641
-0.0886488
0.498086
0.187207
-0.0966525
-0.0103319
0.00250311
0.00879658
-0.0112997
-0.0567461
-0.0442949
-0.608809
0.12318
0.485629
-0.246319
-0.015821
0.0989785
0.219691
-0.31867
-0.534711
-0.0740979
-0.492571
0.586975
-0.0944035
0.0221718
0.0114574
-0.0174192
0.00596183
-0.0835804
-0.191972
0.149253
-0.304374
0.208192
-0.581814
-0.129467
0.0654584
0.0640087
0.00868091
0.0437471
-0.0159189
-0.155632
0.0526903
0.000736669
-0.113975
0.437897
0.101607
-0.179599
-0.0922869
0.110477
-0.0181898
0.451582
-0.191083
-0.2605
-0.21645
0.277894
-0.0614448
-0.0735712
0.0258554
0.0477159
-0.0683242
0.332042
0.0482035
0.00682962
-0.0550331
0.0202252
0.041791
-0.0620161
0.0187911
-0.301615
0.504134
-0.167498
-0.336636
0.224098
-0.214859
-0.00923926
0.154001
0.00485511
-0.158856
-0.0015927
0.00725063
0.0210688
-0.11502
0.0939515
-0.0812475
-0.0442921
0.12554
0.219184
-0.213786
-0.00539775
0.0050637
-0.0014904
-0.00357331
-0.173726
0.0117366
0.0360602
-0.0918181
0.0557578
-0.000499882
0.00531326
-0.0743431
-0.055124
-0.148964
0.220047
-0.0710823
-0.0870423
-0.00515725
0.0921996
0.243126
0.356974
-0.6001
0.112281
-0.0271161
-0.13474
0.0233833
0.0294683
-0.0943473
-0.202441
-0.0699662
-0.15822
0.154001
0.0042192
0.133469
0.221455
-0.354924
0.0239492
0.0986255
0.150484
-0.142221
-0.00826341
0.0137306
-0.00587554
-0.00785505
0.109688
0.00548871
-0.115176
-0.00748081
0.236652
-0.229171
0.0687764
-0.0520636
-0.0167128
-0.0440691
-0.0693886
0.113458
0.0193951
-0.00793771
0.000270552
0.0109419
0.0660211
-0.0178176
-0.258963
0.402083
-0.14312
0.00614419
0.115577
-0.0124703
0.168996
0.298448
0.153134
-0.0900648
0.457993
0.191644
-0.0922851
-0.0993586
0.0402426
-0.0439302
-0.0323879
0.127135
-0.0947472
0.00392272
0.00114099
0.151335
-0.151164
-0.000170733
-0.106491
0.0975789
0.00891183
-0.0117801
0.074543
-0.0627629
0.00200395
-0.000485976
-0.113638
0.093996
0.0196421
0.624864
-0.278849
-0.346015
-0.0326706
-0.0139408
0.0466115
-0.103307
-0.0035345
0.632691
-0.632691
-0.304068
0.253253
0.00872156
-0.0830603
0.0743387
-0.0885268
0.0872532
0.00127353
0.0234847
0.176963
-0.200448
-0.339975
-0.34037
0.164533
-0.00303339
-0.161499
0.15368
0.000321061
-0.00545905
0.00549882
-0.0767977
0.10552
-0.0287226
-0.280126
-0.107548
-0.0911639
0.362154
0.00773723
0.121028
0.0180119
0.0363215
-0.0543334
-0.287782
0.0713323
0.0441381
-0.0333268
-0.0108113
0.00714409
0.00036435
-0.00750844
-0.00557568
-0.100915
-0.414831
-0.0689376
-0.0620171
0.0429733
0.0190438
0.148606
-0.00468523
-0.143921
0.00840107
0.00345546
-0.0118565
-0.491969
0.291355
0.200614
0.0479592
-0.069503
-0.3967
0.137737
0.000160239
0.114937
-0.115097
-0.12806
-0.452035
-0.00764936
0.00033686
0.0073125
0.036589
-0.0279169
-0.00867214
0.0645058
0.177777
-0.119902
0.0204505
0.0994517
0.0385486
0.180635
-0.455716
0.0408855
0.00492329
0.0812526
0.124366
-0.0146787
-0.010748
0.162083
-0.0664382
0.0247055
0.0417327
0.00836472
-0.00122063
-0.591269
0.489554
0.101715
0.193695
0.00175709
-0.00217806
0.0001842
-0.00189081
-0.00212072
0.00401152
-0.303494
0.54662
-0.461463
0.442447
0.0190165
-0.0202845
0.00189155
-0.11876
0.0938002
0.0249599
0.399602
-0.602083
0.202482
-0.0766724
0.0902519
-0.0135796
-0.14516
0.14229
0.00287027
-0.104726
0.0176832
-0.167775
-0.0122277
0.180002
0.58244
-0.225465
0.140822
0.00466293
-0.145485
0.00702799
-0.00769552
0.000667526
-0.287748
0.38632
-0.0985719
0.0540659
-0.133484
0.079418
-0.0390698
-0.0112795
0.0503492
-0.239712
0.338691
-0.282015
-0.0708643
-0.0263556
-0.105145
0.131501
0.00137998
0.0156141
-0.016994
0.105013
-0.0839445
0.12244
0.0692035
0.0128507
0.191797
0.241483
0.370711
-0.612194
-0.00648691
0.00899002
0.00316593
0.0453803
-0.0485462
0.0571156
-0.0885763
0.0314607
-0.381957
-0.0737588
-0.00196438
-0.00494131
0.0069057
-0.00284866
0.00223232
0.000616346
-0.042945
0.0790052
0.038803
-0.00112854
-0.123781
0.105584
0.256927
0.47293
-0.661559
0.188628
-0.142089
0.00209668
0.139992
-0.00240847
0.00271889
-0.00031042
0.117294
-0.13485
0.0175563
-0.171333
0.255467
-0.109017
0.0322196
-0.144546
-0.0160719
-0.0928606
-0.453475
0.546335
-0.0801743
0.0766927
0.00348158
0.254764
0.281447
-0.536211
0.0625084
0.006268
-0.209559
0.233044
-0.0723125
0.471914
0.083146
0.113314
-0.19646
0.0499823
-0.13123
0.107197
-0.112354
0.0212453
-0.0979177
-0.00464994
0.131997
-0.127347
0.376659
-0.089982
-0.286677
0.0847357
-0.096517
0.0117812
-0.0324297
-0.0340085
0.0295803
-0.0264144
-0.227444
-0.264525
0.0876604
-0.029387
-0.0582734
-0.484046
0.0156465
0.468399
0.185023
0.191636
-0.474911
0.11263
0.0636576
-0.0434325
-0.0587027
0.520015
-0.461312
-0.106953
0.107113
-0.179731
0.0119565
-0.265667
0.399136
0.00412505
0.160408
-0.245633
0.0270271
0.218606
-0.00750902
0.0018906
0.00561842
0.0847238
-0.128793
0.124679
-0.129053
-0.276324
-0.10728
0.383604
0.0685077
-0.350522
0.000533024
-0.00690572
0.0063727
0.0107495
-0.00750459
-0.0032449
0.288029
0.212191
-0.392278
0.625507
-0.23323
-0.0710033
-0.00917098
-0.290147
-0.0674518
0.357598
-0.000716663
-0.00321211
0.102075
-0.378399
-0.00765057
1.21015e-06
-0.331628
0.254122
0.0775067
0.104598
-0.0128007
-0.0917973
0.216359
-0.14414
-0.0722195
0.0182424
-0.0118675
-0.00637497
0.0622817
-0.211246
0.000889929
-0.075233
-0.0537859
0.0113697
0.0424161
0.182048
-0.0989024
-0.0630085
-0.0557516
-0.00952262
0.0727197
-0.0631971
0.0547994
-0.280819
0.22602
-0.0061118
-0.00816929
0.0142811
-0.0531095
0.0204389
-0.000871978
-0.00197669
-0.189727
0.171318
0.0184097
-0.0161966
0.000261647
0.0159349
-0.160391
-0.0568584
0.21725
-0.000381138
0.00088915
-0.000508012
-0.0450357
-0.00875014
0.071437
-0.094302
0.022865
0.0950652
-0.0236283
0.0424439
-0.0155371
-0.563519
0.336138
0.227381
0.14348
0.00700431
-0.00316536
0.00502474
-0.179155
0.294208
-0.115053
0.223234
-0.00210044
-0.221133
-0.00445131
0.00358284
-0.0656883
0.0744098
-0.214343
-0.0518994
0.266243
-0.081489
0.0697089
-0.0362377
-0.0306675
-0.601538
0.324919
0.276618
-0.0136919
0.0022635
-0.107505
0.0338836
0.0736217
-0.266705
0.521469
0.508611
-0.359479
-0.149132
0.10967
-0.593716
0.236391
0.267743
-0.0117385
0.0964743
-0.0436564
0.0653721
-0.0217157
-0.039699
0.0218669
0.0178322
0.00527576
-0.00474274
-0.373235
-0.00462209
0.377857
-0.0616833
0.115749
-0.00738589
0.00793207
-0.000546186
0.124208
-0.165738
0.0415295
0.00897667
-0.00505205
0.00264358
0.00651142
0.211167
-0.479758
0.268591
0.0909216
-0.033806
0.322374
-0.495394
0.17302
-0.0181468
0.066106
-0.143585
-0.188929
0.0160426
0.00219988
-0.0284561
-0.116704
0.182426
0.0860316
-0.268458
0.460658
-0.572473
0.111815
0.140004
-0.132267
-0.0927296
0.0988737
0.124535
-0.128755
0.00422011
-0.0142058
-0.0439246
0.0581304
-0.00406497
0.00368383
0.0116804
-0.00327937
0.00657625
0.134246
0.0615806
-0.118166
0.0176625
-0.479126
-0.0038873
0.0019965
-0.0251776
-0.0106467
0.0358243
-0.0301724
0.289094
-0.258922
0.0930281
-0.0921382
-0.305785
0.501531
-0.195746
0.0383282
0.0754339
-0.113762
-0.0995319
-0.232096
-0.319013
-0.244506
-0.293995
0.110141
0.183854
-0.0293043
-0.00674872
0.036053
-0.0766744
-0.217321
-0.0218386
0.0232185
0.000817892
-0.00150556
0.000687669
0.0794115
-0.0837672
0.0043557
0.0286526
-0.0467986
0.018146
-0.215096
0.269896
-0.03548
-0.026537
0.0400224
0.58907
-0.244194
-0.344876
-0.070794
-0.29705
0.117895
0.214849
-0.339917
0.125068
-0.0752032
-0.0721775
-0.365251
0.606734
-0.392218
0.461897
-0.0696787
0.389221
-0.0668476
0.0922906
-0.104029
-0.328565
-0.283467
-0.014586
-0.00161055
-0.000597111
0.0399066
-0.0393095
0.00278062
0.0023109
-0.00509152
-0.0803805
-0.0332575
-0.00634945
-0.0165808
0.0229303
0.00819877
0.00208039
-0.0102792
0.165804
-0.0415959
-0.473349
0.100114
0.111178
0.0142492
-0.125427
-0.266132
0.0793221
0.206582
-0.195034
-0.0115474
0.226841
0.398023
0.0223646
0.0419725
-0.0239607
-0.0533583
0.0527612
-0.189853
0.208676
-0.0188229
0.109818
0.0270476
-0.136865
-0.166158
-0.0235692
-0.258911
0.205112
0.0047689
0.119766
0.194525
-0.242306
0.0477801
-0.0783362
0.0852372
-0.006901
-0.175118
0.278168
-0.438159
0.379456
-0.0017236
0.00100694
0.0155156
0.00387954
0.0207831
-0.00526754
0.0444058
0.0897752
-0.134181
0.00519945
-0.00241882
0.0126827
-0.0187945
-0.00037862
-0.00276517
0.00314379
0.00337355
-0.00124485
-0.0021287
0.14752
0.365867
-0.513387
-0.131524
0.00113579
0.130388
0.225566
-0.0310402
0.347016
-0.263832
-0.0831837
-0.113685
0.0308989
0.0827858
0.00557959
0.484063
-0.537934
0.053871
0.01217
-0.137788
0.125618
-0.00405301
-0.149729
0.153782
0.00148257
-0.00141756
-6.50139e-05
0.344339
0.244731
0.122332
-0.00987038
-0.112462
0.00188157
-0.00504082
0.00315924
0.101428
-0.0160684
-0.0853593
0.00101909
-0.0150442
0.0140252
0.244668
-0.251979
0.221807
0.522221
0.11047
-0.150026
-0.0237006
0.508843
-0.297677
-0.0369232
-0.00936283
0.0462861
-0.0335336
-0.00616543
-0.155708
0.151058
0.00194952
-0.00260157
0.000652046
0.0221935
0.190257
0.0971457
0.0151354
-0.000275661
-0.000102959
-0.0103809
0.0521718
-0.0120698
0.0914814
-0.00347991
-0.0888069
0.104691
0.0176408
0.122986
-0.147934
0.0249483
0.086887
0.0325974
-0.119484
-0.171851
0.17746
-0.00560949
0.0915767
-0.107897
0.0163207
0.0240803
-0.137967
-0.0145232
0.15249
0.104647
0.00465942
-0.109307
-0.530194
0.543843
-0.0136485
0.107398
-0.0303036
-0.0770943
0.21613
-0.0162819
-0.199848
-0.430512
0.3043
0.126212
-0.160531
0.0105048
-0.264524
0.183639
0.0808841
-0.00115726
0.00263983
0.0136519
0.0226238
0.0899156
-0.380062
-0.516389
0.423529
-0.0402569
-0.0096645
0.0499214
0.0106725
-0.00247372
0.593915
-0.223203
-0.0128223
0.0138414
-0.313186
0.231944
0.0812417
0.125085
-0.0956179
-0.0294672
0.00800596
0.324223
-0.332229
0.00772376
-0.00489985
-0.0028239
0.0617138
-0.0968475
0.0351337
0.0434092
0.180689
0.305543
-0.191143
-0.1144
0.0231114
-0.0294609
-0.115814
0.0834264
-0.010316
0.0103169
-8.50178e-07
0.24123
-0.60648
-4.61132e-06
-0.00727675
0.00728137
-0.00723847
0.0876476
-0.0133486
-0.074299
-0.35375
-0.0767621
-0.00300057
0.00501664
0.0270863
-0.0123427
-0.0147436
-0.130515
0.16679
-0.0362748
0.126105
0.382506
-0.217904
0.265936
-0.0480317
-0.140815
-0.0644493
0.102777
-0.043659
0.527722
-0.51847
0.158991
0.650168
-0.439068
-0.2111
0.408008
0.24216
0.00473472
-0.0066991
-0.0473986
-0.0662861
0.0352885
-0.101717
0.116011
-0.0142945
0.57263
-0.0996995
-0.0482074
-0.407291
-0.0107874
0.120605
-0.0156099
0.00758966
0.00802021
0.150831
-0.167677
0.0168469
-0.114632
0.336087
0.452244
-0.237395
-0.287116
-0.0906989
0.377815
0.0166443
-0.000540294
0.00254424
0.396643
0.16583
-0.562473
-0.265906
-0.142698
0.408604
0.0125854
-0.0235723
-0.148278
0.105094
0.111266
0.0429387
-0.294918
-0.148877
0.261823
-0.112946
0.182927
-0.220855
0.0379276
-0.00541878
0.110066
0.0634138
-0.0729364
0.0254181
0.100911
0.0102673
-0.150289
0.0614211
0.0888677
0.0192377
0.0862826
0.00703084
0.117648
0.453286
-0.292923
-0.160363
0.00717568
-0.000147684
-0.452934
0.250023
-0.0267892
0.251289
0.00662467
-0.257914
0.0762531
0.0311447
0.0825645
0.0212241
-0.103789
-0.0144955
0.399522
-0.385027
-0.00251275
0.10394
0.110409
-0.139568
0.0291594
-0.00426655
-0.00204461
0.00631117
-0.0826595
-0.0676294
0.00346568
0.0944302
-0.0978959
0.142548
-0.146601
0.323053
0.137605
0.0474968
-0.0179165
0.102085
-0.0296896
0.0225903
0.00709929
0.170265
-0.345383
-0.156438
0.186557
-0.0301191
0.110689
0.00532268
-0.00374669
-0.00130536
0.0130108
-0.0130108
0.119191
-0.119891
-0.0646703
0.109076
-0.0368213
-0.206042
0.199334
-0.2276
0.028266
-0.212217
0.255156
-0.0751219
-0.0158238
0.0909457
-0.053413
0.0273466
0.147647
0.000959367
0.0136205
-0.0193829
-0.0103068
-0.00246531
-0.00785073
0.0212665
-0.219062
0.197795
-0.0105403
0.107686
0.0932481
-0.0315343
0.085537
0.0931922
-0.178729
-0.291909
0.0888123
0.203097
-0.0302871
0.00293988
0.0273472
0.0588548
-0.0391
-0.0197548
-0.0558682
0.0420233
0.0138449
-0.0383238
-0.068727
0.107051
-0.538977
0.0464059
-0.0107995
-0.00289244
0.00404149
-0.467206
0.452711
0.185639
-0.183387
-0.00225219
-0.00583318
-0.113143
0.118976
-0.126249
0.0286866
-0.0154118
0.124531
0.0406982
-0.0098917
-0.0308066
0.112503
-0.0256163
-0.0195682
0.191554
-0.171986
0.0248482
0.0226486
0.265106
-0.198648
-0.0664576
0.00310204
0.000271511
0.271426
-0.57492
-0.0121174
0.40876
0.0695727
0.0180877
0.0446608
0.014194
0.0346475
-0.00763286
-0.0270146
0.0965804
0.168525
0.257599
-0.26508
-0.448468
0.182562
0.0055124
-0.150058
0.00299451
0.115648
-0.0861798
0.220855
-0.0215211
0.0996755
-0.111745
0.135319
-0.262034
0.27004
-0.0532392
-0.066663
0.116284
-0.000635411
-0.0798991
0.0740255
0.00587361
-0.0477776
0.359979
-0.312202
-0.0845892
-0.0257049
0.110294
-0.0729144
-0.00659639
0.00741428
0.0336767
0.123866
0.110141
-0.0275761
-0.189168
0.0327301
-0.258996
0.537022
-0.278026
0.292062
0.0854349
-0.377497
-0.0909173
0.310608
-0.0879739
-0.0116343
0.0996082
0.156096
-0.0594634
-0.0546192
0.104079
-0.04946
-0.0366039
0.0223981
-0.14028
-0.0179394
-0.222437
-0.379101
0.0284851
-0.091123
0.0626379
0.0245309
0.0101166
-0.100291
0.082406
0.0178853
0.0573888
-0.345137
-0.181218
0.149603
0.0316151
-0.120885
-0.397584
-0.160843
-0.041222
0.202065
-0.0526054
0.214036
0.00497105
0.0221153
-0.287601
0.614186
-0.0680763
0.189221
-0.00359123
-0.18563
0.0825327
0.0222234
0.148417
-0.0610975
-0.0873193
0.00467912
0.000225236
-0.00490436
-0.0229327
-0.0894601
0.112393
0.0481763
-0.26608
0.00145748
0.000421611
-0.0018791
0.0107732
0.00223754
0.354539
-0.265789
-0.08875
0.221752
0.0295375
0.109774
-0.0786499
-0.0311244
0.084797
-0.123121
0.119183
-0.00188969
-0.34796
-0.242497
0.590456
0.0346718
0.270871
-0.104509
0.0917086
0.243006
-0.0605795
-0.112718
-0.0160368
-0.150492
0.124137
0.387729
-0.0956664
-0.144426
0.150669
-0.00624323
-0.0338815
0.400051
-0.175342
-0.22471
-0.266565
-0.0305099
0.297075
0.672741
-0.393161
-0.27958
0.00690521
0.00384428
-0.413869
0.622061
-0.202145
0.0122918
0.00312496
0.0106056
0.00911241
0.202152
-0.211264
0.0533925
-0.0087317
-0.0267138
-0.187072
0.0667205
0.0725251
0.233673
0.122623
-0.0058285
-0.116795
-0.0990098
-0.375901
0.139341
-0.00584625
-0.133495
0.32524
-0.585922
0.260682
0.112269
-0.101239
-0.0110301
-0.218633
-0.0945522
-0.0329858
0.0348674
0.0539498
-0.0457532
-0.0081966
-0.00503773
-0.0105721
-0.560542
-0.0721486
-0.236335
0.128854
-0.121823
-0.147849
0.162908
-0.0150592
0.00200624
-0.00627022
0.00426398
0.0211807
-0.0198503
-0.00133036
-0.135574
-0.0276315
-0.332144
-0.0136839
0.345828
0.107314
-0.0150239
-0.0272632
0.0196304
-0.0852702
0.0053711
0.0579254
-0.112545
0.142251
0.00107896
-0.14333
-0.0336826
-0.00460735
0.03829
-0.165271
0.151011
0.0142597
0.159876
-0.175948
0.00220691
0.0937789
-0.0959858
-0.078334
-0.00472631
-0.149221
0.0136464
-0.00287337
0.0207143
-0.0178409
0.147948
-0.153236
0.00528773
-0.279779
0.0796385
0.200141
0.0995425
-0.105376
0.0702486
0.1118
-0.404802
0.317974
0.086828
-0.185173
0.0243294
0.0144406
0.147138
-0.169381
-0.0454776
-0.381927
-0.0412647
0.423192
0.180352
0.149128
-0.0155306
-0.133597
-0.0623759
0.242455
-0.180079
-0.139174
0.0264565
0.0101149
-0.342259
-0.226141
0.462894
-0.236753
0.135079
-0.548948
0.215304
-0.159213
-0.0560911
0.222808
0.223773
-0.446581
0.027752
0.185857
-0.213609
0.625781
-0.283366
-0.342415
0.00642307
0.00130069
-0.147197
0.146647
0.000549902
0.0406958
-0.0385432
0.237504
-0.516556
0.279053
-0.354346
-0.205328
0.559674
-0.036811
0.0877303
-0.0509193
0.152218
-0.0292321
0.251254
-0.194937
-0.056317
0.0470803
0.017228
-0.0643083
0.136704
-0.0412044
-0.0955001
-0.0851992
0.0670524
0.00404867
0.0978274
-0.125862
0.0280344
-0.08836
0.26054
-0.17218
-0.63384
0.0243252
0.609515
0.598455
-0.190447
-0.256618
0.0109852
0.0125889
-0.0128777
0.000288739
-0.603403
0.249058
-0.0951643
0.0200621
0.0751022
-0.126725
0.154477
-0.00106104
-0.00632484
0.110111
-0.138236
0.0281252
0.111504
0.0252005
-0.0125819
0.0951146
-0.440254
0.102329
0.337925
0.280802
0.316213
0.00360813
-0.430162
0.274914
0.155247
-0.30036
0.0814401
0.21892
-0.0541865
-0.0213819
0.0755685
0.251669
-0.0150169
0.0983045
0.448403
-0.546707
-0.00729664
0.177413
-0.170116
-0.0587053
-0.417712
0.476418
0.324291
-0.474137
0.149846
-0.162295
0.0139759
-0.00251959
0.00452583
0.167045
-0.17752
0.0104752
0.250427
0.149624
0.464417
0.125575
0.00401051
-0.00775719
0.00709135
0.332174
-0.101762
-0.230412
-0.109098
0.279363
0.0705784
-0.0234981
-0.0857381
0.105241
-0.0195032
-0.009936
-0.00157109
0.0115071
-0.113674
0.11714
-0.0491087
-0.230671
-0.234928
-0.356341
0.505321
-0.181031
0.00969708
-0.147664
-0.0126865
0.0227398
-0.0903952
0.0676554
0.0505238
0.120794
-0.0145118
0.00634247
-0.286571
0.0872592
0.199312
0.0344783
-0.216795
0.182317
0.00909978
-0.0114793
0.00237952
0.144648
-0.450433
0.0032089
0.212921
0.274278
-0.357753
0.0834746
0.335867
0.259972
-0.595839
0.00414968
-0.155142
0.0882552
0.0189418
0.205561
-0.276775
0.0712145
0.0491632
0.00422928
0.00117084
0.0164236
-0.0175945
0.0310692
0.225842
-0.310786
-0.118522
0.429307
-0.0916365
-0.0112026
0.102839
-0.0759266
-0.325422
0.566652
-0.0848306
0.103922
-0.0190913
-0.437221
0.126436
-0.1559
-0.279981
0.364482
-0.0845011
0.437822
-0.153805
-0.284017
-0.111848
-0.242615
-0.102051
0.344666
0.0275459
-0.0917188
0.144787
0.0413874
-0.186174
0.393278
-0.586436
0.193158
0.374478
-0.504593
0.130115
-0.0171067
-0.266928
0.284035
0.0301306
-0.32058
0.29045
-0.338745
0.0721795
-0.0360319
0.0448005
-0.00876859
0.28979
0.0505499
-0.34034
-0.109352
0.400725
-0.291373
0.0265525
-0.0101739
-0.0163786
-0.030423
0.0372526
-0.151512
0.131944
-0.160319
0.00106119
-0.121774
0.120712
-0.0505843
-0.166873
0.217457
0.472224
-0.162891
-0.309333
0.126005
-0.0551043
-0.00546366
0.113521
-0.00125124
0.27318
-0.482344
0.209164
-0.302711
0.111567
-0.00326677
0.0244475
-0.052503
-0.082692
0.135195
-0.000652304
0.00270547
-0.00205316
0.528357
0.167674
0.00123461
-0.0087392
-0.18346
0.155321
0.0281394
-0.277328
0.063929
0.0129013
-0.0123644
-0.000536914
-0.0195788
0.011129
0.00844985
0.353764
-0.323634
0.103681
-0.101474
0.491471
0.106985
-0.339146
0.0965318
0.429157
-0.191653
0.000278007
-0.00521932
0.471856
-0.249048
-0.32806
0.281141
-0.0527965
-0.273208
0.074589
0.198619
0.0333289
0.0917562
-0.0930709
0.0469334
0.304893
0.0734929
-0.378386
0.0985539
-0.124922
0.0263683
0.372308
0.166936
-0.539244
0.00462346
0.504996
-0.482407
-0.0225886
0.347179
0.360399
0.219643
-0.580042
0.00594238
0.458704
0.0279141
-0.0147464
0.0188195
-0.00407303
0.0189617
-0.0610459
0.0420843
0.000763217
-0.181981
-0.0420789
-0.0654264
-0.00929882
0.0106919
-0.00139308
-0.280999
0.349506
0.000615434
-0.0114149
-0.0340119
0.0108325
-0.0104562
0.00115742
0.000763645
0.0190545
-0.0198181
0.008216
0.0183365
-0.0268015
0.022535
-0.0720673
0.100552
0.17976
0.0861764
0.00432567
-0.153967
-0.0294934
0.00743073
-0.0326083
-0.411824
0.0580738
0.0905044
0.275193
0.277227
0.0549466
0.538138
0.164379
-0.230601
0.0662225
0.12152
-0.14782
0.0263
-0.00685384
0.00859898
-0.00174514
0.371979
-0.281475
0.425537
-0.186292
-0.239245
-0.00178751
0.00845955
-0.00667204
0.0105777
-0.0788081
0.0682304
-0.270194
0.253088
0.0231941
0.0222492
-0.176034
0.153784
-0.0722823
-0.206377
0.278659
0.0295199
0.0244299
0.0898463
-0.0666522
0.162078
-0.212574
0.0504957
-0.165503
-0.107705
0.0159819
-0.0148111
0.0100869
-0.000987102
0.0026441
-0.0151413
-0.362914
0.0829328
-0.0864751
-0.0293392
-0.00929723
0.119706
-0.00599052
-0.00324907
0.00923958
-0.0311836
-0.121877
0.124089
-0.00221152
0.256771
0.170179
-0.258539
-0.0763528
-0.210218
-0.508227
-0.114193
0.0664278
0.511814
-0.364294
0.170177
0.0127502
-0.0633552
-0.101915
-0.00197056
0.000220683
0.00174987
-0.133139
0.0366005
0.096538
-0.0944406
-0.233619
0.124875
-0.00183041
0.00257465
-0.000744239
0.166133
0.327972
-0.245426
-0.0825461
-0.00282812
-0.00120823
0.00403635
-0.3612
0.0955332
-0.305611
0.0052512
0.0747585
-0.110295
0.0355366
0.00492195
-0.00297242
0.482494
0.299423
-0.3472
-0.0291259
0.0406563
-0.0115304
-0.100483
0.0584041
-0.0308211
0.0937718
-0.0629507
-0.138647
0.0380979
0.100549
-0.0431402
-0.0620612
-0.487548
0.173894
0.313655
-0.102495
0.101066
0.00142856
0.173008
0.154965
0.0124189
0.357152
-0.369571
-0.0807742
-0.211135
-0.0514024
0.0144792
0.0010591
-0.0109951
-0.369014
0.0891771
0.279837
0.500231
-0.125754
-0.0733154
0.347594
0.0240362
0.0663522
-0.181635
-0.0060002
0.187636
-0.233279
-0.196882
-0.302923
0.0885793
-0.0015838
0.363853
-0.0589603
-0.00859287
-0.0745333
-0.0157723
0.0903056
-0.0163288
-0.00593347
0.0222623
-0.327121
0.0874093
0.118213
-0.0268375
-0.091376
0.184109
-0.162842
-0.0060681
0.00116824
-0.00233946
0.000509051
0.00755436
-0.00279795
-0.121095
0.122156
-0.00511962
-0.0144592
0.464049
0.00473334
-0.0340376
-0.466319
0.479708
-0.0735993
-0.15055
0.171963
-0.15715
-0.0148137
-0.0772262
-0.0494091
0.00915215
0.0490364
0.0276468
-0.0766833
0.0935481
0.0151254
-0.108673
-0.0151005
0.0495176
-0.0344171
-0.285951
-0.273892
0.559843
-0.0591216
0.103075
-0.0439529
0.105521
0.332301
-0.0861794
0.156428
0.0363293
-0.0263202
-0.0100091
0.230357
0.116659
0.17498
-0.641299
0.218807
-0.267341
0.0485341
0.102035
-0.255645
0.15361
-0.000613388
-0.00135717
0.467742
-0.102572
-0.36517
0.51325
-0.179081
0.00925449
-0.021417
0.131858
-0.110441
0.148054
-0.146337
-0.00171714
-0.0272866
2.33201e-05
-0.101827
-0.00717805
0.109005
0.0122002
0.000366558
-0.0125668
-0.000927418
-0.133074
0.113027
-0.16553
-0.00214786
0.000212636
-0.175084
0.00683491
0.0638226
-0.0706575
0.00129378
0.035269
0.205301
-0.00738521
-0.197916
-0.307321
-0.0574625
0.364783
0.00159042
0.0235713
-0.0251617
-0.0362338
-0.247293
0.266084
-0.146689
0.0378214
0.108868
0.155787
-0.00495656
-0.344915
0.11817
0.226745
-0.0271875
0.191566
-0.142973
0.245007
0.156044
0.2861
0.310915
0.137703
0.00454777
-0.025881
0.0517364
-0.369289
0.139295
-0.129577
-0.00971829
0.109355
0.209194
-0.318549
0.105528
-0.0973601
-0.00816837
-0.252429
0.577669
0.157939
0.00253393
-0.134058
-0.23144
0.169065
0.320271
-0.0814724
-0.238799
-0.296959
-0.0720554
0.0390893
-0.0368209
-0.0022684
-0.0904566
-0.0305046
0.120961
-0.024786
0.0568555
-0.0320695
0.264345
0.197552
-0.324913
0.266888
0.058025
0.00884735
-0.271474
-0.0862789
0.0187997
0.116512
-0.135312
-0.126306
0.0358497
-0.234295
-0.11062
0.0279975
0.114292
-0.258702
0.368057
-0.0220193
0.0599378
-0.0379185
-0.291495
0.0442024
-0.000894261
0.192448
-0.00263203
-0.00181928
-0.0767625
0.103164
-0.0264018
-0.0936444
0.400992
-0.307347
-0.224226
0.192419
0.0318063
0.00229609
-0.0170425
0.354818
-0.342399
0.474586
-0.11861
-0.355976
-0.0087725
0.00278199
-0.00315016
0.00342816
0.0313534
-0.197512
-0.0085011
-0.0881844
0.0966855
0.544362
-0.280805
0.230289
-0.0111598
0.23849
-0.211463
-0.353805
-0.086449
-0.0951732
0.0254143
0.0697589
0.306663
-0.28674
-0.0199236
0.0262784
0.0642609
-0.0905393
0.198772
0.40185
-0.446411
0.0926061
-0.297222
0.19546
0.00509621
-0.106923
0.016576
0.00282556
-0.0194016
-0.221121
-0.0759291
0.000841907
-0.237053
0.236211
-0.348974
-0.138574
0.198253
-0.185403
0.481909
-0.146043
0.0216575
0.136783
-0.124613
-0.584739
0.259317
0.0192467
0.0461254
0.116687
-0.0973084
0.0381868
0.0182236
-0.00554089
-0.0221368
-0.00815028
0.395104
-0.305927
-0.302394
0.0569677
-0.258346
0.338616
-0.0802699
-0.0100657
-0.17881
0.141015
0.0011242
0.0169202
-0.0180444
-0.00365388
-0.00745459
0.0111085
0.231511
-0.169229
0.00720338
0.00880769
-0.0163287
-0.143007
0.146386
-0.00337975
-0.0976445
0.0891434
-0.114638
0.0917054
-0.00141231
-0.0130875
0.110352
-0.00482323
0.0338523
0.0556358
-0.0894881
0.0137277
-0.00623658
0.135034
0.00297512
-0.138009
0.171855
-0.00073565
-0.0257165
0.0775615
-0.398861
-0.0129625
0.215015
-0.141384
0.0478616
-0.0410267
-0.127984
0.144379
-0.0163956
0.373449
-0.283534
0.122951
-0.000327317
-0.0999898
0.118789
-0.00462105
0.00296336
-0.00161307
-0.0013503
0.215267
-0.00240126
-0.212866
-0.0578208
0.0427203
0.0276431
0.131436
-0.159079
-0.016417
0.08837
-0.071953
-0.0519585
-0.0525194
0.104478
0.121539
-0.0882097
-0.160108
0.182358
-0.368054
0.205699
0.050642
0.306811
-0.431266
0.124455
-0.0458035
0.207882
-0.503504
-0.0266901
0.185149
-0.369914
0.112595
0.257319
0.00526978
0.110808
-0.116078
-0.0152224
0.106799
0.0129716
0.00521406
-0.0181857
0.0790754
0.0302135
-0.109289
-0.0319612
-0.0611097
-0.0451704
-0.0081879
0.0739915
0.26121
-0.363898
0.102687
0.00839382
0.0068708
-0.0453677
0.0384969
0.324332
-0.392026
0.0676936
0.353701
-0.152522
-0.010095
0.162617
0.0019721
0.0106168
0.337892
-0.59382
0.255928
0.130658
-0.0075103
-0.123147
0.076243
-0.00508541
-0.0711576
0.120074
-0.152508
0.0324341
0.37426
-0.268176
-0.106084
-0.287183
0.229566
0.0576167
-0.180591
0.322871
-0.14228
-0.0815355
-0.0651539
-0.147077
0.102785
0.23262
0.00492981
-0.0379156
0.0385401
-0.0282506
-0.0102894
-0.120057
0.12472
-0.101126
0.0162951
-0.0185287
0.153563
0.0980662
-0.0890845
-0.00898173
-0.213738
0.222851
-0.204364
0.15378
0.0105661
0.0475592
-0.0581253
-0.0690356
0.0995487
-0.0305131
0.00248898
-0.00666395
0.0333039
-0.0432031
-0.590637
-0.415589
0.310512
0.105077
-0.146487
0.309329
0.346935
-0.071434
-0.275501
0.117802
0.160093
-0.0583694
-0.0755283
0.133898
0.371568
-0.077184
-0.294384
-0.00101287
0.099292
-0.0982791
-0.502298
0.443593
-0.167405
-0.299281
0.128675
-0.0171707
-0.00604478
0.10572
-0.0599699
0.0938222
-0.355597
0.0745987
0.0350636
-0.17444
-0.241149
0.0124466
0.0490853
-0.0615319
0.273829
0.227702
-0.185777
0.136531
0.458279
-0.185099
0.0214512
0.0745797
-0.0960309
-0.00138897
0.0656256
-0.103196
0.277924
-0.0731703
-0.0599682
0.359211
-0.144587
-0.214624
0.149723
0.00324944
-0.0030242
0.234437
0.101956
-0.336394
0.195206
-0.27598
-0.13926
0.117843
0.171705
0.013934
0.00732952
0.282795
0.11767
-0.178473
0.060803
0.250361
-0.280871
0.119611
-0.501538
0.138506
-0.0169859
-0.0962531
-0.168827
-0.215436
-0.236818
0.452254
-0.163556
-0.049018
-0.00341796
-0.00427755
-0.202503
-0.013542
0.216045
-0.063824
0.0865638
-0.0366215
-0.00127248
-0.00326268
0.0198387
-0.222201
0.0196987
-0.448162
0.232726
0.0519702
0.126504
-0.178474
0.00936845
0.000381733