/*--------------------------------*- C++ -*----------------------------------*\
| =========                 |                                                 |
| \\      /  F ield         | OpenFOAM: The Open Source CFD Toolbox           |
|  \\    /   O peration     | Version:  v2012                                 |
|   \\  /    A nd           | Website:  www.openfoam.com                      |
|    \\/     M anipulation  |                                                 |
\*---------------------------------------------------------------------------*/
FoamFile
{
    version     2.0;
    format      ascii;
    class       volScalarField;
    location    "250";
    object      ReThetat_0;
}
// * * * * * * * * * * * * * * * * * * * * * * * * * * * * * * * * * * * * * //

dimensions      [0 0 0 0 0 0 0];


internalField   nonuniform List<scalar> 
13917
(
634.639
611.946
42.9087
560.104
565.272
237.366
37.8751
43.6024
33.6155
646.012
423.721
521.601
560.953
32.3048
577.654
595.821
609.474
550.171
522.188
589.483
582.719
36.6826
588.938
47.3038
566.338
37.1029
336.045
324.481
382.987
650.892
639.192
627.763
363.259
407.146
554.138
486.086
589.059
32.7051
542.518
30.9925
596.647
583.953
606.607
315.963
618.323
389.877
540.444
486.48
229.67
592.614
603.328
476.685
227.544
402.684
607.284
633.575
423.379
587.933
633.153
618.172
42.5073
615.054
32.2205
589.463
241.593
164.33
558.435
534.911
425.776
620.249
564.371
34.9049
32.1825
571.526
229.953
511.517
32.4306
623.32
36.6441
583.236
585.515
559.94
244.954
32.8254
36.3358
622.612
586.88
236.09
599.257
606.968
32.4316
652.431
611.329
567.146
205.698
241.785
433.803
498.826
562.052
286.829
601.274
367.536
304.184
621.395
606.209
34.5732
437.929
495.209
611.618
638.502
32.1616
31.0151
513.272
33.7929
438.575
228.899
590.398
231.441
30.3783
403.438
584.481
427.508
31.1503
327.572
594.794
565.617
618.376
593.957
605.683
236.434
30.7077
446.136
618.416
582.534
247.141
48.7463
633.1
281.51
560.342
404.122
415.01
609.729
477.157
295.083
534.876
42.1914
418.075
476.894
609.169
623.341
541.991
227.123
452.323
600.046
635.366
47.4168
618.94
365.025
32.4085
250.317
439.969
338.232
585.35
433.974
507.321
557.251
620.528
486.438
615.357
363.602
608.828
32.406
518.726
608.472
54.2529
593.247
30.8253
230.585
45.6111
604.542
653.569
640.401
610.23
586.76
546.829
39.5022
625.02
50.2506
628.251
499.086
409.932
36.9222
647.04
586.347
276.029
341.845
585.791
612.277
482.914
457.228
562.319
591.81
486.988
530.588
32.2062
398.291
559.336
587.251
495.24
42.1069
489.711
37.4402
32.218
496.466
605.607
279.208
500.656
32.0261
594.303
49.046
604.888
647.41
597.196
32.8435
34.0166
595.334
526.303
636.762
605.077
469.956
517.131
623.877
49.1944
32.2156
601.986
629.311
32.4194
37.5421
584.805
596.149
31.731
431.721
584.924
431.93
504.055
343.689
635.478
585.635
570.139
32.2911
607.032
654.929
277.835
617.751
586.679
476.84
31.7263
459.857
548.007
580.601
584.854
31.2013
39.2018
559.987
604.833
32.0267
32.4583
223.821
35.7908
519.553
585.188
595.789
534.706
32.6886
462.238
631.996
283.898
502.854
605.722
60.8523
589.96
51.243
556.045
585.127
594.282
595.974
338.435
434.962
587.96
612.043
563.851
50.4377
36.0731
594.098
142.058
572.743
611.067
590.047
407.059
589.406
616.133
633.581
614.738
473.088
623.043
226.527
593.721
653.367
612.874
587.207
32.2226
31.6133
591.765
596.265
71.5942
606.398
32.1816
612.187
32.9061
575.826
652.599
536.467
219.684
452.732
416.102
281.476
597.236
437.485
513.916
591.654
31.7497
278.381
32.5093
411.698
30.2491
631.294
33.4006
285.665
524.69
537.363
39.6053
581.73
612.104
32.1933
540.057
600.758
32.3926
476.133
612.329
371.998
367.009
599.566
30.5378
424.884
590.175
600.224
570.422
609.012
542.73
48.5461
244.001
32.2547
581.96
646.551
39.3043
513.056
36.4263
32.7457
33.4181
602.652
518.854
602.13
59.965
618.254
216.991
515.439
551.111
578.916
501.373
649.68
516.154
207.858
33.2586
32.0358
573.144
644.765
596.373
37.8171
35.9337
593.294
569.214
571.13
443.14
571.462
582.282
620.869
37.2092
619.046
32.0127
61.4102
451.295
255.035
593.289
278.886
265.836
591.57
449.511
557.997
571.792
653.86
585.075
567.754
601.18
478.26
583.862
30.1886
41.5742
45.5886
644.301
31.464
31.9996
501.088
583.206
508.584
539.466
629.861
587.184
44.1611
38.8194
44.3971
586.17
501.177
416.203
532.7
517.076
613.818
540.251
611.946
589.361
32.1469
30.6652
30.8285
652.879
43.2854
31.8547
31.9234
32.5395
604.963
529.368
615.589
584.338
539.615
526.513
595.681
602.246
520.67
32.5539
591.423
439.47
85.8183
583.135
30.0823
583.189
591.232
586.692
616.218
601.99
42.2733
246.18
590.679
40.0595
631.604
433.61
31.8982
445.129
460.551
426.935
444.504
641.652
497.559
495.746
471.578
239.584
503.062
467.219
597.527
377.089
615.316
607.804
615.112
624.584
32.563
34.3266
605.968
605.048
45.8157
32.0091
585.071
30.1464
602.227
615.65
605.534
32.1242
267.374
625.622
622.539
31.9453
651.985
36.9532
584.906
32.2459
227.224
70.7893
608.077
36.1386
32.0473
523.314
600.715
605.47
515.479
486.176
599.729
599.569
594.731
595.166
32.0531
542.198
512.207
641.267
594.274
599.934
503.059
31.6973
640.562
617.148
573.626
550.281
59.1642
37.0783
587.24
549.949
495.167
503.016
531.208
589.852
615.883
620.662
466.655
520.666
629.169
519.818
472.307
338.158
652.753
592.406
32.2751
550.36
600.879
567.986
407.748
572.829
598.573
646.653
604.925
130.188
479.85
463.908
528.954
578.226
34.3306
641.682
33.9293
612.049
630.848
637.862
32.751
32.11
490.171
654.367
592.487
630.254
589.759
508.751
300.879
495.1
494.515
277.526
34.3929
37.0607
619.363
439.177
387.918
596.104
493.535
208.072
39.4167
40.8621
569.224
605.652
30.5495
509.03
598.154
639.044
458.966
368.094
641.948
36.3496
481.443
504.797
34.3116
627.127
32.5061
585.316
587.116
119.901
38.2739
241.155
626.993
608.982
551.687
505.072
228.725
559.299
631.048
451.166
495.451
606.386
546.802
564.044
703.052
595.564
479.613
625.549
74.6417
647.905
579.392
630.703
597.659
609.246
619.559
557.33
395.236
561.152
214.652
492.31
598.946
516.858
241.154
507.041
609.746
394.412
599.051
531.339
634.993
31.8306
581.851
574.115
537.961
428.088
653.849
32.1301
590.8
606.332
32.6131
32.0885
601.284
563.567
306.187
596.907
460.23
585.65
622.664
641.275
550.819
511.991
475.22
609.408
491.139
43.6817
598.014
565.006
594.012
31.5293
583.077
586.599
32.4538
593.598
40.838
634.505
359.951
594.531
594.793
589.694
645.238
596.906
620.843
595.837
132.467
251.245
31.6821
589.177
582.354
651.215
642.734
32.3218
32.0286
567.735
556.422
475.528
234.723
636.054
547.256
542.016
37.5715
628.541
501.153
545.05
471.69
569.678
230.443
599.293
561.107
454.211
599.172
609.12
528.7
638.955
621.487
587.083
595.064
492.019
615.833
515.086
557.925
564.055
583.983
613.902
606.653
625.704
593.255
32.1151
512.383
264.575
601.183
585.111
369.608
652.579
459.265
48.7974
644.09
83.3238
532.625
494.457
618.193
582.723
595.481
622.08
33.1255
585.104
147.508
625.548
39.6274
562.688
646.319
438.321
607.123
584.391
517.11
529.639
578.314
62.0173
609.501
571.452
637.166
595.958
603.772
626.28
385.496
32.2552
630.575
594.223
598.675
32.8044
548.115
598.638
610.702
57.7039
306.879
32.1235
499.442
567.524
601.029
604.706
500.31
632.482
387.232
410.591
31.7957
614.694
542.846
32.1758
569.59
599.098
599.103
590.295
636.552
333.718
623.83
39.2542
31.0052
655.249
593.402
607.717
510.989
196.166
585.127
494.989
607.654
638.384
591.931
608.969
522.301
617.418
83.9296
642.196
583.146
606.482
520.956
600.844
562.926
213.978
608.558
611.243
33.8379
38.597
509.209
640.903
517.493
621.24
610.269
389.994
32.2313
624.415
575.132
621.501
32.25
626.482
32.3554
583.312
447.447
31.6868
586.718
623.27
33.9359
223.257
600.46
526.379
596.406
616.454
601.68
32.0157
605.848
581.964
610.368
69.6195
543.484
612.852
308.478
609.019
367.306
586.895
32.3103
595.693
609.6
573.05
500.671
571.911
480.071
31.3472
52.1249
401.114
425.852
32.5892
589.158
30.707
39.3219
32.5889
31.2337
33.671
177.974
516.979
604.803
35.6807
580.89
34.8158
607.898
610.985
599.476
587.264
622.405
409.073
31.8712
611.039
555.806
38.2737
542.286
524.39
350.606
636.983
619.189
263.213
349.167
481.209
547.721
30.8781
32.1952
231.081
594.842
645.793
622.918
34.1763
33.0703
525.256
605.541
618.129
614.251
605.584
614.556
605.019
622.08
625.637
39.5771
441.888
582.532
489.6
31.8983
636.088
502.677
32.478
614.118
581.539
353.498
41.3848
572.128
595.266
36.8587
383.852
428.007
463.61
474.386
600.495
502.852
505.936
593.172
499.033
40.2005
32.1152
610.812
606.617
599.7
243.257
615.028
630.831
537.814
612.655
514.905
608.264
645.661
611.59
30.8795
616.558
612.622
619.582
32.1133
31.9082
567.315
32.1608
503.55
226.382
570.564
36.3571
579.542
631.979
632.494
469.371
43.2436
738.343
562.701
37.9322
598.476
429.647
609.107
600.9
36.2765
586.637
579.837
622.315
619.631
38.8474
605.984
588.798
502.712
644.39
498.345
238.374
573.365
33.4949
506.797
610.386
504.782
32.5774
506.301
77.1249
36.1592
576.57
606.63
32.5506
657.513
482.371
523.007
642.618
599.601
621.104
621.115
633.765
584.401
538.387
287.281
601.035
612.296
612.184
557.389
597.383
403.244
528.389
614.721
614.317
611.401
239.735
650.861
43.1206
569.307
615.978
491.751
598.174
590.006
650.934
591.655
506.018
611.831
51.6134
489.486
503.504
32.4493
413.52
598.654
605.498
31.1647
592.797
598.43
34.2453
31.9797
422.215
575.582
589.528
612.379
41.3703
623.015
607.234
421.605
610.358
376.634
585.694
607.116
597.152
572.189
30.2514
556.198
590.544
599.55
583.436
590.096
233.73
617.057
584.902
46.9782
569.615
446.383
31.8487
206.661
610.548
511.423
598.91
398.495
572.29
30.1757
32.3677
460.61
35.4419
228.634
526.5
573.173
591.505
244.108
45.0661
560.923
698.22
32.897
489.132
589.154
32.6104
328.464
608.504
617.253
55.6243
605.858
606.253
598.018
577.564
630.906
32.6547
612.074
41.7544
509.456
657.114
532.408
622.026
636.097
611.808
611.584
46.6006
592.874
476.726
600.638
618.694
612.612
539.492
478.746
223.207
479.961
312.654
46.1948
537.541
613.492
261.174
41.8692
608.573
598.946
638.174
33.2251
581.068
565.301
567.601
624.055
531.805
576.55
611.599
542.461
600.331
593.713
162.224
37.1298
574.602
448.463
482.13
371.845
595.528
611.869
53.919
318.476
525.065
264.315
630.641
580.041
612.962
616.202
552.872
470.215
607.218
597.155
442.028
596.508
636.64
609.057
646.859
454.695
607.836
589.168
635.032
613.285
61.3975
563.758
405.748
575.607
390.024
32.1356
558.603
598.408
444.63
603.964
630.823
32.0959
615.855
492.838
643.249
638.683
35.9027
596.808
580.943
559.975
587.896
407.15
606.413
601.966
479.607
32.3041
628.932
385.291
42.1008
582.681
30.4269
628.185
601.646
575.9
32.0512
567.111
603.614
506.763
416.808
602.177
52.4412
615.151
533.091
608.136
606.275
568.629
501.213
583.576
362.978
609.03
446.065
634.188
471.668
248.312
38.0031
531.59
465.165
141.829
31.3471
512.966
369.967
33.6342
613.455
63.746
427.683
204.973
46.3681
607.703
585.064
596.709
600.551
642.455
608.911
424.418
528.215
627.424
545.261
32.4185
389.491
618.538
33.4282
623.803
30.1567
560.964
499.051
603.022
32.111
32.277
605.797
605.608
38.6911
392.076
36.1436
592.422
611.719
34.6448
613.06
428.183
74.5984
554.536
624.639
632.191
606.441
597.5
36.5467
32.662
618.952
620.158
585.055
625.042
355.238
32.5105
537.302
215.395
155.648
654.691
210.705
609.269
572.075
451.235
399.528
567.06
480.364
32.5932
486.938
353.304
45.7067
220.335
250.978
406.768
590.206
580.093
547.437
32.3237
493.272
600.749
600.833
632.022
583.935
597.63
538.147
465.256
506.667
49.435
476.91
53.1281
32.1121
579.819
530.639
601.976
598.859
32.1308
610.086
614.659
496.735
456.65
316.423
41.964
382.228
613.795
32.6492
606.537
619.35
538.433
582.881
596.895
440.887
43.9773
611.231
47.1177
614.924
610.36
614.913
211.717
628.772
559.321
50.673
623.419
391.926
32.4222
585.427
482.159
592.826
31.5884
546.229
529.435
39.4734
538.308
327.648
584.681
32.2448
496.947
251.139
568.044
451.205
32.0339
611.308
250.586
551.504
614.984
343.517
585.424
37.0426
594.344
453.572
622.18
285.628
573.025
539.25
547.82
45.8616
558.987
30.2343
537.147
471.249
615.785
641.331
539.054
510.43
47.3907
611.383
608.108
223.788
620.677
89.8465
623.866
46.136
684.171
629.292
593.885
597.814
567.528
605.503
530.527
545.474
347.897
625.168
590.253
311.857
620.406
627.769
270.034
545.826
83.5228
504.242
517.784
225.814
32.5153
508.249
51.1723
123.916
603.094
605.063
33.7069
247.867
586.989
495.403
444.364
38.5442
30.1597
619.153
579.129
494.221
613.83
31.7139
46.939
517.925
448.683
613.117
649.468
530.989
587.144
590.545
52.8925
568.984
249.845
585.236
616.244
32.6166
32.6143
599.355
577.879
624.432
612.401
605.43
445.274
577.731
594.905
589.774
504.773
634.02
632.026
493.803
549.022
32.3836
34.4613
33.2915
445.148
642.437
478.992
626.109
35.9221
475.493
167.96
609.677
32.6481
31.1496
602.197
588.701
653.272
32.813
58.2603
607.597
602.418
30.6537
391.734
297.732
626.008
430.254
226.53
586.666
31.6813
47.0925
493.706
541.32
530.478
599.348
597.472
408.49
31.926
511.383
562.75
467.265
617.368
32.595
501.967
48.3952
39.0527
30.3371
218.397
563.759
587.354
48.1647
605.775
609.882
596.21
228.402
619.696
48.8456
563.006
585.74
31.8499
641.068
612.093
36.4588
356.281
408.52
608.501
52.113
32.1219
574.179
44.9098
131.463
36.8114
548.524
648.589
602.245
624.352
502.542
635.334
53.905
643.194
542.817
420.657
469.844
551.234
606.615
518.921
33.6822
30.2628
546.594
37.5286
520.737
602.227
506.33
597.171
470.112
622.627
230.306
516.234
603.778
597.68
288.191
32.4652
627.463
615.366
643.625
542.923
627.511
580.403
32.3705
30.0786
32.4182
604.612
598.191
604.865
568.537
601.929
606.488
431.642
480.908
504.528
607.71
31.9486
30.1239
584.543
32.8212
446.734
521.616
225.995
605.704
39.3172
529.046
557.124
445.665
605.663
451.043
584.832
577.003
373.547
31.6228
30.3142
585.648
592.48
629.095
616.013
520.312
489.596
605.281
620.678
32.6057
599.487
34.1091
604.91
31.6473
622.835
606.165
37.7189
290.671
279.071
502.734
405.504
549.505
542.074
32.0323
549.443
601.237
289.803
506.407
47.4435
33.6766
506.473
41.9028
603.483
688.519
598.728
630.823
581.951
32.1419
409.008
31.9093
30.7698
595.502
518.627
598.124
586.447
216.868
616.265
584.84
592.975
633.304
601.911
533.323
593.978
590.957
250.415
649.17
32.2025
529.049
614.906
629.93
31.8487
597.011
575.655
42.8798
587.434
625.688
441.714
279.884
528.703
31.9262
631.4
421.537
507.199
565.685
617.873
32.1798
599.94
508.382
226.615
33.5516
631.054
649.924
567.444
506.308
582.187
33.8706
585.039
613.851
631.085
589.825
584.876
228.163
568.038
587.298
596.439
429.237
485.747
624.599
462.626
640.218
594.732
580.665
529.973
330.291
602.285
635.344
388.654
461.895
54.3205
608.552
584.553
67.662
43.1899
584.574
630.783
605.589
245.904
655.447
609.328
229.18
31.9624
600.303
493.949
39.8612
30.658
509.326
606.24
99.5075
32.9424
207.265
588.917
32.176
524.571
463.954
32.882
631.004
605.315
636.24
640.666
625.492
39.5376
31.9051
608.567
43.1738
472.398
33.7718
605.226
320.983
479.27
604.005
33.1796
232.294
421.525
220.279
578.639
622.149
588.947
32.4765
30.1985
542.859
620.717
370.395
606.527
517.275
34.9967
41.4201
618.151
623.661
593.634
32.9376
510.259
542.045
608.574
597.719
630.316
196.251
469.367
217.189
587.434
443.727
587.987
515.051
44.5296
34.1117
570.937
584.375
511.12
425.146
497.246
33.5274
32.0192
611.807
604.642
575.136
594.658
226.173
609.975
40.3485
534.023
505.757
612.233
626.086
31.932
579.537
488.864
38.6732
588.609
32.1864
369.613
356.316
493.113
32.0058
33.6337
510.979
601.908
609.207
610.114
411.919
514.509
42.0926
552.991
490.358
501.92
599.568
567.403
614.759
617.153
584.855
251.01
605.602
505.304
637.359
516.523
49.5448
605.527
245.924
553.316
597.47
36.653
31.6568
441.88
366.548
504.772
644.186
482.537
557.794
585.427
609.443
386.394
459.982
44.1296
547.925
417.917
571.804
610.601
33.8303
606.014
41.0759
423.981
32.2413
302.268
160.238
84.3832
456.461
499.936
608.405
33.9928
491.075
527.199
32.2205
43.9085
483.562
591.567
633.863
635.36
550.024
32.2011
584.564
519.07
509.168
569.354
587.369
476.551
607.638
44.4392
542.645
563.645
637.532
613.752
653.771
191.35
646.697
607.361
596.803
34.9391
78.2343
613.025
49.9626
632.289
238.871
548.265
584.928
32.86
497.024
34.5493
32.0508
370.487
31.7756
606.103
607.612
32.0109
307.997
590.22
34.1701
631.054
524.091
567.673
651.285
618.335
51.8552
49.0233
38.0966
414.146
633.161
645.309
33.9621
590.358
576.768
649.785
603.555
342.269
41.8276
30.2836
32.0003
482.261
612.366
32.3567
606.337
464.668
584.496
99.7061
618.051
558.38
30.8996
547.706
592.368
574.366
70.9956
515.278
435.343
610.523
63.5063
31.9242
453.857
293.902
596.165
531.632
440.576
628.85
610.637
601.552
588.197
482.267
568.341
471.035
503.227
612.066
32.4491
613.144
632.173
579.289
584.542
31.1294
611.445
612.051
32.8715
497.432
45.0559
526.996
32.2824
496.864
33.3652
612.859
431.943
594.007
555.572
446.211
454.179
584.108
32.111
580.278
533.401
397.46
446.123
563.749
565.145
471.181
595.88
548.431
492.524
588.538
261.153
512.647
49.5705
50.1309
285.677
601.354
122.342
370.472
487.581
458.732
550.21
63.3132
541.825
30.4551
612.578
581.653
32.0467
585.753
563.54
552.512
32.2642
611.369
587.59
631.937
611.008
634.658
603.711
562.079
290.597
497.233
604.153
33.8751
30.9591
32.0648
604.348
588.945
512.262
613.143
449.905
48.4888
32.1711
606.063
545.842
32.7008
484.078
606.422
607.902
403.698
50.3219
38.1927
634.231
626.464
583.692
531.705
445.052
282.243
370.171
563.497
482.274
640.631
480.112
476.662
620.704
632.645
40.5344
546.596
32.8905
588.376
32.8051
600.141
385.986
602.784
598.094
593.125
56.1336
312.046
31.6353
43.3739
564.14
32.5924
571.548
596.694
115.291
392.068
445.666
581.171
30.7573
34.0741
613.616
576.766
30.0752
627.298
594.888
611.812
622.024
619.355
650.283
445.271
294.091
648.458
601.938
592.217
56.0987
610.759
635.79
398.168
578.033
628.478
587.812
587.366
492.918
593.66
32.0548
578.229
224.9
31.4141
540.745
599.817
584.381
32.0629
605.941
627.216
486.345
642.506
678.659
639.487
31.3392
546.614
434.73
473.27
461.967
610.008
577.903
37.1096
32.2637
538.666
623.903
472.786
471.617
37.5915
32.6032
482.401
641.051
606.1
32.0651
614.658
617.999
447.689
451.617
501.759
313.81
530.477
595.956
634.499
31.7566
632.263
593.711
33.9219
543.331
608.514
31.0765
592.032
585.994
465.752
649.822
57.4212
608.016
481.696
599.022
218.434
609.423
238.943
178.887
30.9859
31.6893
185.435
376.512
32.0073
242.048
581.983
561.591
507.77
395.609
228.907
32.5448
33.1381
32.0969
228.238
585.097
445.508
591.812
38.3793
636.248
589.886
630.717
625.369
607.152
452.011
32.9014
604.308
629.84
598.07
32.2948
628.705
31.7653
43.5713
598.614
566.126
607.081
32.6402
248.433
574.804
577.507
585.226
656.099
386.788
518.455
489.147
155.895
609.011
606.277
442.058
32.0889
632.457
621.771
599.957
31.2703
581.058
594.918
626.445
588.593
55.3422
32.7293
450.831
506.863
32.0028
606.379
605.451
560.972
606.972
240.065
616.265
569.317
575.766
598.346
611.642
414.985
573.442
223.949
600.214
368.764
582.73
227.001
588.848
609.347
511.923
633.429
33.9784
598.69
31.0243
650.285
583.64
594.169
595.223
30.7263
32.7822
615.883
615.839
409.218
379.915
346.011
33.0628
586.219
423.251
557.014
605.335
53.5943
562.391
35.8414
548.937
625.37
585.144
32.6666
30.7051
605.844
259.894
397.616
591.107
614.58
596.022
255.763
32.7947
649.454
547.247
640.294
589.731
563.793
628.935
593.253
436.885
542.022
490.798
594.368
637.528
605.767
50.4907
465.436
589.396
651.843
617.181
510.055
415.374
41.2672
630.347
604.614
643.271
625.111
633.171
31.7985
490.443
522.573
482.119
607.125
646.389
300.533
645.455
597.011
596.614
605.737
363.954
489.766
486.085
48.6091
34.8336
42.9025
583.866
229.584
32.3213
32.9233
577.088
603.073
497.257
36.8917
585.277
529.296
173.434
32.5065
240.37
282.539
463.913
32.2422
530.663
607.661
255.717
422.26
620.793
615.771
612.072
32.9256
640.03
47.3793
625.002
323.876
618.716
427.091
30.0989
586.681
568.765
31.9733
57.1682
644.354
627.039
584.718
485.465
588.99
481.69
535.463
32.8433
609.523
37.5945
654.316
687.226
592.134
587.572
190.272
253.347
598.684
643.36
298.396
349.089
45.0631
38.8383
32.1414
32.5015
578.413
609.022
302.982
30.076
62.7431
613.988
358.802
289.641
259.744
576.193
584.73
239.988
158.133
230.036
226.667
31.3405
595.844
256.006
32.4394
523.246
307.356
508.822
606.492
436.05
34.8351
254.6
583.656
31.4128
464.754
115.696
606.605
590.66
611.751
554.252
612.93
645.005
567.485
519.831
261.582
558.729
32.559
476.81
528.293
620.082
32.0437
311.488
33.2642
611.765
404.596
32.6666
286.874
526.815
533.4
152.858
43.2284
477.172
603.464
606.007
607.759
474.637
601.19
218.856
228.47
254.934
624.743
540.817
32.7986
610.002
46.2046
578.466
326.872
612.238
613.37
622.361
31.871
590.367
34.2559
607.735
289.96
642.087
610.388
592.092
622.123
577.95
101.626
113.657
528.55
600.369
606.808
617.372
620.888
580.061
34.4468
618.294
32.4276
298.086
573.768
244.908
442.019
31.1218
32.5339
621.521
608.952
574.087
564.229
241.51
274.623
31.7262
576.679
603.739
426.167
585.092
467.38
445.863
385.635
341.914
557.898
581.604
608.854
624.811
584.77
501.053
292.032
552.537
599.56
603.365
605.69
481.074
32.9461
230.679
568.327
290.332
593.619
553.592
627.868
577.85
401.032
32.2873
37.6091
294.339
596.111
579.632
635.077
41.3062
31.9138
582.391
31.9562
631.504
611.297
312.577
32.1262
287.992
582.413
646.335
224.461
532.593
32.4767
619.495
494.147
559.61
600.069
511.503
417.591
585.018
30.1867
34.0504
448.635
47.0758
249.349
32.5527
569.309
607.68
632.017
608.583
465.17
467.158
519.18
567.752
584.46
607.885
32.1389
531.488
642.013
36.0501
281.493
43.1928
31.9525
598.732
34.4494
562.451
418.736
460.186
33.3563
422.125
419.832
557.013
292.902
633.662
39.1636
56.6197
368.029
32.7965
510.153
582.423
242.728
649.485
488.391
32.7984
56.7339
627.821
413.738
539.827
40.4676
596.66
621.856
605.663
606.691
472.091
40.7247
566.186
32.7933
595.233
613.536
238.686
617.97
576.861
588.413
567.786
405.745
611.374
38.9231
607.418
618.372
605.668
497.814
273.015
612.126
584.979
611.174
636.083
296.429
587.346
32.1847
607.627
526.023
625.737
31.9124
455.5
584.138
597.88
609.038
511.447
604.666
615.619
627.353
563.541
596.467
364.262
568.442
595.052
54.7276
38.9684
395.97
55.7243
583.837
484.465
518.534
283.11
484.816
613.513
415.284
571.556
66.0954
567.87
563.492
240.331
615.242
588.348
36.2212
599.965
590.054
35.0732
33.2091
482.616
537.207
603.338
46.0678
54.3927
606.766
594.94
618.421
586.544
584.087
541.669
359.795
32.4892
589.475
523.868
245.555
593.077
585.811
548.825
578.495
636.594
599.293
613.199
548.831
321.484
595.616
621.432
32.1848
32.8927
587.411
488.725
340.003
586.016
442.395
584.843
577.576
563.988
601.602
501.472
66.3534
600.889
92.0755
462.444
621.477
32.1063
486.431
34.1305
47.8849
31.0806
321.834
32.1801
32.5411
601.763
633.243
415.27
608.338
609.88
623.355
297.319
611.805
419.72
435.888
511.653
255.405
476.678
630.702
572.333
85.1654
364.934
413.415
548.798
45.5543
32.8987
502.612
607.72
607.638
610.805
638.183
31.9045
621.391
603.64
32.0238
595.18
571.79
42.4825
294.732
650.486
292.061
260.699
494.228
368.392
603.824
411.136
596.641
625.958
597.421
471.511
586.122
416.78
32.7793
599.343
618.933
411.003
42.3897
598.561
484.519
346.735
588.152
32.3133
350.518
628.99
559.394
594.733
619.377
542.77
529.155
32.5776
605.699
608.752
329.304
602.618
471.116
384.738
571.826
592.988
40.1584
608.4
577.146
607.135
528.677
605.392
32.3709
631.837
629.308
594.912
615.019
597.384
32.0434
505.114
532.918
603.815
45.5489
409.348
488.249
601.413
536.264
602.424
606.458
365.987
603.994
518.854
578.893
613.123
437.748
565.178
591.512
233.811
226.975
38.8614
687.045
37.7273
609.316
32.2637
595.044
39.8259
37.9322
600.764
40.7381
594.619
31.1735
51.9522
250.872
32.1186
32.7628
580.187
293.927
39.2006
46.5219
621.737
509.155
32.5352
459.741
607.424
473.914
629.908
428.178
97.1469
600.201
641.462
31.165
36.8259
529.37
436.607
585.287
522.168
321.717
622.363
40.3663
619.431
281.199
606.955
590.779
46.4948
608.74
594.667
614.009
37.9801
33.9262
362.032
593.78
595.137
44.5537
45.6455
574.095
623.828
583.407
583.301
486.823
476.728
372.817
586.377
574.461
541.765
555.072
489.911
53.6226
611.437
63.1598
616.994
98.0114
315.538
577.653
162.629
442.586
605.973
315.427
545.026
477.298
554.711
584.161
41.3018
576.663
496.918
626.795
428.968
613.142
555.494
600.724
424.715
494.089
560.376
523.274
403.799
535.386
460.883
575.053
524.215
438.26
601.867
224.96
258.234
498.233
524.186
512.473
592.129
606.989
624.718
606.708
584.53
381.245
462.383
584.536
600.47
33.372
44.8213
606.031
604.449
312.375
602.18
414.971
32.6901
32.5631
587.129
625.892
431.506
596.977
375.807
38.6296
32.4866
422.54
435.352
63.181
588.876
631.627
504.786
576.657
469.074
608.405
605.789
652.294
562.623
47.4256
31.9008
599.859
607.666
35.1097
31.1163
575.757
556.848
467.919
517.838
592.753
609.264
398.634
606.394
32.3015
510.787
620.815
655.499
511.978
505.008
655.108
32.5411
433.494
619.921
390.562
489.449
39.0182
564.229
57.9346
32.039
581.051
38.4077
633.392
599.944
585.003
607.259
32.0326
592.234
574.944
462.102
579.803
609.058
43.0925
624.546
42.7374
67.4299
566.905
32.1528
602.446
597.39
428.441
45.3248
478.811
598.07
51.4197
590.842
581.369
35.3961
610.058
31.4813
584.433
32.7217
213.144
299.04
514.162
499.784
30.8999
603.661
34.3534
34.4307
34.1433
35.6616
595.687
614.743
650.93
33.2769
31.2665
31.3707
30.4258
606.602
34.2006
30.9749
548.781
428.448
371.589
623.313
68.2014
566.51
40.3463
595.457
575.761
627.086
646.943
38.4136
583.696
30.4956
46.5414
587.332
474.145
578.099
630.077
31.0675
591.374
606.335
556.982
32.0693
33.809
635.277
31.5334
36.4319
597.683
36.8723
32.0026
432.319
31.1863
650.592
559.137
576.958
648.716
629.535
655.516
40.9396
34.3526
565.146
480.252
414.075
508.463
604.591
512.095
423.336
648.154
50.9487
270.844
221.503
607.703
569.361
490.556
31.9542
439.964
34.1513
48.2328
32.049
576.502
296.433
30.1314
53.2684
37.4251
590.466
50.1131
451.029
476.656
466.46
631.805
572.282
33.037
351.201
586.067
32.2102
618.471
618.124
472.907
447.791
610.388
538.107
578.915
30.1496
99.0816
608.947
48.1438
599.358
597.291
483.605
61.3525
32.6415
30.8094
153.63
30.9436
627.467
614.206
175.815
379.315
580.844
571.386
603.34
609.058
617.174
563.771
32.0496
639.781
46.512
32.3626
32.0905
466.601
34.334
36.7122
33.365
32.3416
569.794
87.2359
634.736
327.149
369.966
547.855
449.976
584.57
32.302
604.398
613.363
39.7677
36.4254
587.746
32.6458
41.3957
514.242
597.167
32.1881
517.198
509.073
610.112
547.003
613.196
611.713
31.4869
33.0341
585.39
32.8907
33.6267
647.188
440.316
31.4845
316.674
295.654
32.5348
316.15
599.583
42.0022
446.019
616.905
32.4995
32.8013
506.803
476.524
544.265
650.468
620.013
32.0872
621.86
194.243
33.5818
622.012
649.105
484.707
32.2866
621.403
32.0095
596.917
574.19
32.6564
527.094
622.346
588.379
32.2465
32.4296
506.248
621.755
382.255
575.057
32.7468
343.15
473.183
31.1211
462.02
617.655
627.436
686.813
518.083
166.08
32.3352
468.289
231.276
633.043
498.177
444.269
526.146
447.572
606.582
33.5412
492.093
644.119
602.125
507.784
597.341
617.592
634.586
576.756
32.5581
52.0366
488.01
599.832
614.933
484.535
30.5148
570.686
590.729
490.819
612.31
630.12
32.0753
639.712
32.643
295.283
492.901
491.963
508.822
619.499
32.0125
31.4801
43.5582
137.472
109.055
50.708
614.091
630.978
32.7295
41.9463
481.318
632.163
597.849
553.419
516.15
504.952
583.716
584.317
575.924
585.19
32.4787
614.92
609.769
371.298
501.772
566.184
630.798
371.982
285.371
643.158
49.3845
49.8027
40.9693
500.617
32.2102
633.473
630.483
630.581
589.925
438.516
419.22
31.8662
354.14
650.434
32.0859
578.53
585.352
505.541
578.5
32.4555
601.457
396.614
547.098
629.66
560.084
600.386
33.3017
603.15
583.661
628.669
55.974
281.09
499.291
431.157
560.572
418.836
30.6465
465.931
296.326
32.05
30.1946
571.45
615.727
470.655
656.571
515.282
631.67
624.595
508.984
517.061
31.8897
601.013
423.596
595.855
32.607
31.6714
582.023
606.692
45.9089
618.25
516.894
640.343
32.6977
32.0121
607.037
601.419
625.708
606.231
32.2189
627.507
465.159
63.3834
643.492
453.137
619.903
572.969
32.0132
320.135
32.3245
619.076
644.651
32.0362
615.423
541.819
604.337
506.277
388.586
637.489
59.2881
584.905
624.209
31.4372
608.309
35.6129
516.186
470.376
588.448
625.774
38.9056
50.5062
32.7672
30.2887
646.169
33.1652
31.4382
31.9858
31.8866
32.9768
32.0029
468.781
637.187
511.972
459.932
602.847
396.155
612.094
545.314
471.65
40.2009
32.3369
32.0008
45.2872
625.018
620.443
619.337
628.911
32.8592
32.9468
33.8445
32.0841
521.116
636.129
50.3094
38.2411
32.023
620.756
566.034
67.1274
577.756
640.611
465.168
496.225
34.0766
32.0264
505.657
61.3334
58.1833
32.0803
458.041
528.054
651.142
48.2971
629.392
464.125
31.556
32.2587
32.5967
486.563
631.758
31.2899
40.927
58.415
471.449
544.264
629.576
477.977
33.1554
88.3203
452.437
491.78
634.637
532.757
608.772
32.3727
32.0658
49.3575
51.701
636.366
32.7295
32.3971
32.1284
31.2336
32.645
32.5697
32.2709
610.411
31.9658
478.001
607.072
395.995
624.691
51.193
640.854
595.743
412.768
514.308
45.5591
351.14
32.9051
621.256
32.0402
35.0423
414.579
470.313
613.585
621.226
636.981
406.976
419.027
49.1477
36.7578
620.195
31.971
646.083
34.1807
615.192
615.708
434.911
37.102
534.701
31.9367
218.129
33.4952
37.3659
31.2254
515.441
32.4181
452.095
278.36
605.278
451.017
630.826
517.616
513.572
31.9215
615.537
522.81
43.8891
616.557
627.811
31.1927
589.219
618.327
415.428
444.607
639.559
42.5846
598.947
40.9222
596.97
445.136
590.891
500.487
468.131
575.139
31.8548
503.942
599.186
335.432
59.5049
385.861
489.136
472.415
521.491
621.527
626.877
34.4483
604.692
521.087
604.284
38.6106
475.658
596.941
32.5974
521.737
32.1556
365.901
616.125
46.643
44.9582
546.251
616.737
616.665
104.018
585.527
129.799
633.294
489.329
431.609
596.145
536.858
35.2857
30.1196
389.556
622.217
513.643
496.597
620.111
473.31
33.0359
447.344
37.2677
571.48
631.881
506.931
31.9149
513.852
452.031
598.205
53.9909
370.11
628.426
481.406
51.9747
591.278
442.527
445.2
502.759
606.68
603.102
601.306
526.547
458.466
636.229
511.829
571.549
637.833
638.96
630.687
514.765
539.762
451.958
614.404
38.9299
623.077
650.158
590.713
488.162
506.113
32.6997
504.906
626.962