/*--------------------------------*- C++ -*----------------------------------*\
| =========                 |                                                 |
| \\      /  F ield         | OpenFOAM: The Open Source CFD Toolbox           |
|  \\    /   O peration     | Version:  v2012                                 |
|   \\  /    A nd           | Website:  www.openfoam.com                      |
|    \\/     M anipulation  |                                                 |
\*---------------------------------------------------------------------------*/
FoamFile
{
    version     2.0;
    format      ascii;
    class       volScalarField;
    location    "250";
    object      ReThetat;
}
// * * * * * * * * * * * * * * * * * * * * * * * * * * * * * * * * * * * * * //

dimensions      [0 0 0 0 0 0 0];


internalField   nonuniform List<scalar> 
13917
(
634.655
611.969
42.9474
560.119
565.288
237.23
37.9143
43.6178
33.5965
646.02
422.626
520.924
560.932
32.3119
577.665
595.82
609.475
548.834
521.584
589.483
582.741
36.7177
588.933
47.3194
566.323
37.1428
336.063
324.378
384.265
650.488
639.199
627.708
363.233
407.094
554.09
485.602
589.05
32.7146
542.399
31.0056
596.647
583.955
606.606
315.059
618.338
389.833
539.575
486.656
229.663
592.614
603.421
476.673
227.549
402.811
607.211
633.523
422.505
587.916
633.177
618.204
42.4548
615.025
32.2267
589.466
241.567
161.717
558.424
534.916
426.115
620.246
564.379
34.8804
32.1802
571.501
230.078
511.6
32.4314
623.312
36.6797
583.243
585.499
559.937
244.873
32.8348
36.3361
622.63
586.891
230.921
599.761
606.966
32.4298
651.57
611.333
566.965
218.533
241.835
434.344
499.524
560.896
286.849
601.274
367.546
304.345
621.463
606.209
34.553
437.385
495.097
611.598
638.52
32.1611
31.0292
513.21
33.7745
438.732
228.922
590.399
231.455
30.376
403.15
584.476
429.505
31.1563
327.448
594.793
565.637
618.314
593.958
605.683
236.402
30.7165
445.981
618.415
582.552
241.352
48.7665
633.11
281.485
560.34
403.729
413.007
609.728
477.362
295.096
534.878
42.1453
419.246
476.808
609.169
623.268
542.532
227.141
451.783
600.058
635.348
47.4115
618.946
378.851
32.4098
254.403
440.014
338.213
585.355
434.448
506.802
555.86
620.666
486.878
615.343
363.563
608.816
32.4053
519.035
608.496
54.1621
593.331
30.8352
230.664
45.557
604.616
652.882
640.381
610.23
586.765
546.994
39.5541
616.098
50.2464
628.291
498.713
407.757
36.9217
647.326
586.35
276.003
341.876
585.792
612.293
483.235
476.223
562.547
591.809
488.049
531.617
32.2045
395.712
559.234
587.252
495.84
42.1691
489.431
37.4759
32.2172
495.943
605.611
279.498
501.818
32.0249
594.301
48.9751
604.914
648.043
597.197
32.8483
33.9997
595.397
541.73
636.684
605.079
468.664
517.244
624.752
49.2287
32.2153
601.986
629.292
32.4166
37.541
584.819
596.148
31.7513
432.135
584.924
431.686
503.627
343.729
635.461
585.638
570.123
32.2911
607.152
655.039
277.885
617.714
586.685
475.983
31.7466
459.535
548.356
580.579
584.854
31.2049
39.2087
554.845
604.834
32.0244
32.4653
224.964
35.823
519.708
585.169
595.79
534.758
32.6915
461.792
632.009
284.585
503.028
605.722
61.1871
589.961
51.1607
556.062
585.127
594.291
595.943
338.349
433.533
587.968
612.118
545.979
50.4652
36.0784
594.094
140.274
572.74
611.117
590.058
403.165
589.408
619.455
633.588
614.727
473.587
623.015
226.344
593.75
653.406
612.875
587.224
32.2223
31.6215
591.762
596.265
72.6254
606.371
32.1788
612.188
32.9101
575.609
648.448
536.995
219.771
452.868
425.5
281.727
597.251
437.879
514.16
591.594
31.7646
278.395
32.5162
411.305
30.2465
631.369
33.4023
285.545
524.721
537.309
39.6394
581.739
612.065
32.1931
539.838
600.768
32.4005
475.751
612.372
372.009
366.281
599.568
30.5347
428.167
590.177
600.226
570.416
609.012
532.77
48.4825
243.787
32.2547
581.969
645.82
39.3037
513.276
36.4587
32.7478
33.4023
602.651
521.716
602.132
59.0119
618.275
217.548
514.163
551.429
578.922
502.174
650.198
515.886
208.109
33.2599
32.0346
573.204
644.702
596.373
37.8158
35.9675
593.296
570.786
571.118
445.712
571.318
582.261
620.854
37.2371
619.047
32.0339
61.4045
449.923
255.06
593.318
278.594
265.883
591.579
448.961
558.522
571.782
654.246
585.074
567.755
601.182
477.334
583.844
30.1877
41.6184
45.5879
645.03
31.4808
31.9982
501.005
583.213
509.906
539.486
629.911
587.191
44.1105
38.8653
44.4514
586.13
502.498
415.948
532.685
519.858
613.813
538.253
611.878
589.363
32.1434
30.6735
30.838
652.708
43.285
31.8715
31.9215
32.5425
604.963
529.14
615.589
584.337
538.378
526.418
595.677
602.685
521.022
32.5578
591.431
438.094
85.9389
574.088
30.0815
583.19
591.237
586.693
616.197
601.993
42.3401
246.225
590.675
40.0566
631.628
433.368
31.8964
444.478
459.482
424.346
442.913
641.319
498.172
495.496
471.501
239.527
503.104
467.585
597.527
369.465
615.939
607.804
615.091
624.561
32.5664
34.3058
605.948
605.048
45.9032
32.0079
585.071
30.1425
602.237
619.979
605.526
32.1224
263.345
625.537
622.605
31.9641
648.852
36.9528
584.905
32.2452
227.203
70.9877
608.078
36.139
32.0483
522.859
600.716
605.66
515.403
477.869
599.725
599.57
594.73
595.166
32.0512
512.618
511.798
641.804
594.276
599.935
503.798
31.6923
640.313
617.141
573.612
550.277
59.3
37.0774
587.234
549.943
498.298
502.778
531.075
589.86
615.875
620.691
466.696
520.915
623.498
522.248
472.478
329.242
652.667
592.405
32.2746
550.365
600.951
568.014
403.244
572.854
598.573
629.371
599.921
130.023
479.647
463.367
528.589
578.175
34.3348
656.186
33.9473
612.118
630.118
640.386
32.7524
32.1098
491.291
654.304
592.492
630.244
589.788
508.844
300.912
495.115
495.162
277.442
34.4103
37.0603
619.339
438.363
365.917
596.093
493.754
207.905
39.4022
40.8157
574.367
605.652
30.5474
508.783
598.155
639.103
458.252
368.019
637.156
36.385
482.622
504.845
34.3142
627.105
32.5093
585.316
587.115
119.452
38.2581
241.196
626.942
608.98
551.675
505.53
228.345
558.132
631.049
450.981
496.212
606.289
540.829
563.181
698.605
595.564
480.636
625.485
74.6456
647.808
579.463
629.99
597.66
609.243
619.548
557.06
395.176
557.112
214.99
492.283
598.948
510.998
241.294
503.916
609.749
394.738
599.052
531.176
634.975
31.8307
581.85
548.992
538.273
426.906
653.807
32.1277
590.812
606.365
32.6151
32.0881
601.323
563.615
307.085
601.818
460.234
585.65
622.731
642.493
550.983
509.558
474.623
609.405
491.093
43.7154
598.056
565.023
594.012
31.5362
583.117
586.663
32.4532
593.567
40.8164
634.525
359.929
594.532
594.779
589.706
645.37
596.906
621.077
595.879
133.038
251.813
31.6774
589.178
582.387
651.189
642.754
32.3311
32.0198
566.885
556.387
473.102
234.751
631.048
546.512
542.015
37.6077
628.534
500.71
544.724
471.794
569.464
230.491
601.098
561
453.711
599.18
609.114
528.624
639.009
621.483
587.13
595.065
491.166
616.142
513.498
557.912
564.052
583.978
613.922
606.652
625.695
593.255
32.1133
512.36
265.165
601.186
585.11
369.347
652.157
459.685
48.7929
644.087
79.7547
533.168
495.008
618.225
582.717
595.479
622.072
33.1249
585.114
147.597
625.65
39.6266
562.753
646.378
436.968
607.124
584.391
516.81
529.622
578.23
62.1188
609.514
571.461
637.299
595.958
603.771
626.234
385.432
32.2634
630.578
594.209
598.676
32.8045
547.934
598.705
610.736
57.6399
311.887
32.1224
499.257
567.213
601.029
604.706
500.254
632.488
388.253
410.479
31.8091
614.797
541.434
32.1745
569.593
599.715
599.099
590.296
636.573
333.643
623.822
39.2316
31.02
655.298
593.397
607.711
510.02
191.708
585.127
508.271
607.652
638.408
591.929
608.967
516.206
617.452
84.0655
642.183
583.14
606.481
520.994
600.838
562.975
214.288
608.557
611.246
33.8198
38.5605
508.887
640.942
517.077
621.059
610.269
389.778
32.23
624.706
575.155
621.502
32.2397
627.423
32.3561
583.293
447.756
31.6938
586.128
623.312
33.9357
223.612
600.464
529.302
596.405
616.451
601.68
32.0131
605.797
581.847
610.366
69.68
543.41
608.314
308.487
609.021
367.269
586.894
32.3105
595.695
609.598
573.054
500.356
571.914
480.982
31.3649
52.1811
401.278
430.962
32.5891
589.153
30.7046
39.3069
32.5889
31.2488
33.655
177.373
516.471
604.91
35.7131
579.911
34.8444
607.902
610.978
599.464
587.259
622.449
408.984
31.8814
611.039
555.804
38.273
541.898
524.417
350.625
637.093
619.228
265.829
349.171
481.283
547.589
30.8901
32.1942
230.982
594.842
640.177
617.981
34.177
33.0569
525.094
605.496
618.15
614.302
605.583
614.533
605.019
622.181
625.566
39.5739
441.409
582.486
490.357
31.8962
636.118
502.702
32.4804
614.114
581.345
353.532
41.3808
572.128
595.263
36.8903
381.567
434.368
464.145
477.21
600.5
505.149
506.135
593.182
499.112
40.2561
32.1142
610.815
606.617
599.687
255.274
615.059
630.951
537.797
612.654
517.128
608.276
645.393
612.026
30.8891
616.544
612.505
619.592
32.1111
31.906
567.297
32.1603
504.351
226.6
570.584
36.3842
579.537
632.056
632.491
469.957
43.3152
729.186
562.127
37.9199
598.478
431.928
609.1
600.901
36.3043
586.624
579.83
622.295
619.64
38.8451
605.984
588.808
503.272
644.364
499.214
238.214
573.502
33.4945
506.651
611.895
504.259
32.5796
505.668
76.815
36.1949
576.596
606.603
32.5726
656.181
482.315
522.304
642.578
599.325
621.075
621.113
633.772
584.401
537.825
287.278
601.037
612.724
612.185
557.3
597.383
403.042
526.995
615.275
614.389
611.397
239.326
650.749
43.0866
569.358
615.922
491.074
598.176
592.913
650.947
591.278
504.86
611.832
51.8223
489.556
503.524
32.4572
414.161
598.663
605.621
31.1796
592.802
598.432
34.2463
31.9767
422.406
574.879
589.53
612.448
41.4331
622.985
607.235
423.384
610.358
375.094
585.692
607.116
597.194
571.732
30.2559
556.742
590.591
599.542
583.422
590.097
233.903
616.753
584.902
46.9187
569.912
443.784
31.8663
206.147
610.541
511.406
598.915
401.504
572.275
30.1788
32.3673
460.816
35.4677
228.495
526.575
573.006
591.638
243.935
45.145
560.791
704.552
32.9072
489.148
589.11
32.6131
328.915
608.506
617.35
55.3044
605.894
606.248
597.993
572.468
630.922
32.6601
612.055
41.7402
509.863
652.836
534.908
617.649
636.218
611.81
611.578
46.652
592.874
476.853
600.638
618.687
612.609
539.562
478.164
223.068
479.698
312.693
46.2586
537.366
613.495
263.978
41.9287
608.574
598.948
637.959
33.2247
581.066
569.036
567.854
624.112
531.896
576.674
611.603
540.118
600.319
593.714
162.29
37.1658
574.603
446.219
481.635
377.427
595.678
611.607
54.0554
320.648
524.643
263.38
630.66
580.036
612.949
616.176
552.757
470.337
607.24
597.142
441.386
596.508
636.751
609.054
646.991
454.106
629.139
589.177
632.581
613.252
61.5591
563.752
405.47
575.615
390.114
32.1335
557.366
598.406
442.868
603.927
630.914
32.0929
615.838
492.984
643.284
638.823
35.9318
596.812
580.971
560.093
587.903
407.305
606.415
601.966
479.716
32.304
628.924
387.23
42.0523
584.09
30.4338
628.173
601.647
575.88
32.05
566.808
603.613
506.694
443.398
602.173
52.4318
615.766
533.998
608.136
606.276
567.562
501.19
583.581
363.057
609.029
446.025
634.261
470.829
248.447
38.0458
531.676
465.483
142.181
31.3634
512.839
369.611
33.634
614.057
63.7107
427.678
204.897
46.3683
607.701
585.064
596.712
600.471
642.46
608.909
424.431
527.989
627.401
545.207
32.4173
389.895
618.675
33.41
623.828
30.1518
561.115
499.007
603.026
32.1097
32.2763
605.635
605.601
38.7216
392.257
36.1434
592.423
611.718
34.6639
612.837
428.613
74.6268
554.55
623.99
632.252
606.441
597.5
36.5801
32.6616
618.902
620.068
585.091
625.079
355.138
32.5133
537.11
215.294
155.285
654.457
205.609
608.877
572.266
451.092
399.531
567.07
480.789
32.5934
486.902
354.2
45.7052
219.135
251.035
406.631
590.245
580.093
547.435
32.3229
492.593
600.43
600.669
632.014
583.924
597.632
538.18
465.624
506.938
49.3718
476.701
53.125
32.1334
579.856
530.337
601.976
598.839
32.1298
610.214
614.645
496.434
458.166
316.41
41.9999
378.912
613.801
32.6582
606.536
619.399
538.306
582.886
596.995
442.675
43.9829
611.233
47.2102
614.927
610.368
614.92
212.098
628.789
559.275
50.7255
623.386
391.431
32.4428
585.427
481.94
592.827
31.6076
548.198
529.429
39.5212
538.003
328.06
584.681
32.244
496.775
251.345
568.091
451.288
32.0324
611.306
250.478
551.346
615.422
345.632
585.424
37.0419
594.3
455.476
621.017
285.602
573.048
539.25
547.757
45.8658
559.04
30.2302
537.205
471.091
615.813
641.32
539.195
509.938
47.4663
611.384
608.105
223.964
620.641
90.4154
623.853
46.2277
676.261
629.314
593.885
597.823
567.533
605.503
532.027
545.698
347.95
625.177
590.254
321.515
620.283
627.772
261.287
545.789
83.5832
505.172
517.982
225.949
32.5155
505.295
51.2862
125.284
603.097
605.666
33.7072
247.689
586.992
495.337
444.01
38.5871
30.157
617.257
579.095
494.056
614.084
31.7313
46.9392
518.607
448.857
613.081
649.581
530.879
587.145
589.151
52.9186
568.985
246.131
585.225
616.213
32.6225
32.6134
599.356
577.775
624.446
612.403
605.408
443.739
577.929
594.908
589.776
504.919
634.106
632.022
478.544
549.186
32.3803
34.4614
33.2917
445.323
642.768
471.956
626.154
35.9542
468.437
175.302
609.57
32.6542
31.1646
602.198
588.702
652.475
32.8143
57.86
607.598
602.524
30.6616
381.992
273.982
625.997
430.532
226.468
586.692
31.6985
47.0854
487.404
535.806
530.63
599.348
597.473
408.447
31.9376
511.388
562.838
467.295
617.444
32.5943
502.383
48.3487
39.0516
30.3338
218.405
563.751
587.359
48.269
605.775
609.88
596.343
228.366
620.697
48.8432
567.193
585.731
31.8428
641.103
612.088
36.4585
356.239
408.475
608.495
52.1132
32.1218
574.185
44.9591
130.414
36.8104
553.877
648.746
602.176
624.33
501.313
635.329
54.0296
643.197
560.462
419.654
469.323
551.088
606.598
518.935
33.6839
30.2561
546.607
37.5276
520.871
602.237
505.963
597.174
470.032
622.637
230.375
516.195
603.739
597.681
288.228
32.468
627.733
615.337
643.604
542.984
627.558
580.226
32.3694
30.0787
32.4191
604.612
598.192
604.822
567.994
601.931
606.387
434.169
481.711
497.81
607.709
31.9473
30.1253
584.543
32.8204
446.137
521.194
226.343
605.841
39.3147
528.882
557.506
445.52
605.664
448.029
584.833
576.975
373.5
31.6421
30.3194
585.646
592.481
629.068
616.022
516.825
489.415
605.965
620.579
32.6066
599.5
34.1285
604.912
31.6436
622.837
606.166
37.7176
290.941
279.056
500.113
405.247
549.248
542.04
32.0311
549.457
601.238
289.757
506.738
47.4399
33.6774
507.393
41.9092
602.819
712.328
598.728
630.829
581.281
32.1379
409.148
31.9066
30.7732
595.458
518.597
598.113
584.601
216.701
616.193
584.842
593.008
633.351
602.533
535.675
594.545
590.959
250.189
648.732
32.2021
528.519
614.93
629.945
31.8417
597.012
575.94
42.9401
587.417
625.676
442.335
279.871
528.547
31.9341
631.384
423.925
507.628
565.719
617.836
32.1799
599.941
508.441
226.653
33.5534
630.689
649.892
567.567
506.266
582.187
33.8729
585.252
613.814
630.769
589.828
584.876
228.093
568.048
587.298
596.46
429.077
485.796
624.628
462.986
642.959
586.639
580.667
529.639
329.985
605.392
630.922
388.61
462.891
54.3596
598.298
584.553
67.331
43.2578
584.573
630.811
605.589
245.529
655.24
609.155
229.374
31.9592
600.303
493.904
39.8926
30.6619
509.851
606.239
98.5604
32.965
207.207
588.918
32.1718
525.024
463.976
32.883
631.247
605.315
636.162
638.758
625.557
39.5809
31.9036
608.566
43.1605
472.705
33.7724
605.227
320.98
479.355
603.989
33.1812
228.638
418.691
215.587
578.647
623.381
588.949
32.4779
30.1928
542.863
620.675
370.307
606.519
517.875
35.0084
41.4556
619.473
623.663
593.54
32.9355
510.31
542.541
608.573
597.63
645.707
196.579
469.182
217.029
587.433
445.844
587.988
514.993
44.5869
34.1116
570.931
584.376
511.655
425.286
497.32
33.5261
32.0155
611.806
604.64
575.152
594.66
226.793
609.968
40.3878
529.117
505.835
612.237
626.155
31.931
580.102
490.07
38.6717
588.646
32.1856
369.576
356.245
493.502
32.0045
33.6342
510.402
601.899
609.68
610.122
412.791
514.499
42.135
552.955
475.203
492.094
601.045
567.399
615.87
617.569
584.854
251.128
605.602
505.225
637.632
516.545
49.5715
605.474
245.769
553.524
597.474
36.6527
31.6735
442.074
366.526
504.426
644.099
482.845
557.875
585.409
610.596
386.006
458.891
44.1865
548.044
417.796
572.145
610.673
33.826
606.014
41.13
423.996
32.2414
354.923
166.656
84.5062
457.974
500.067
608.367
34.0066
491.073
527.246
32.2194
43.8531
483.308
591.268
633.858
635.346
550.177
32.1998
584.564
519.024
508.892
569.337
587.377
476.167
607.637
44.509
542.536
555.241
637.652
614.896
653.686
186.63
644.099
607.367
597.224
34.9621
78.4076
613.034
50.0704
632.438
238.756
548.282
585.026
32.8722
497.013
34.5497
32.0497
370.457
31.7702
606.226
607.613
32.0097
307.991
590.238
34.1488
631.027
524.14
567.623
651.097
618.306
51.7827
48.971
38.0961
412.727
633.11
645.254
33.9624
590.358
576.747
649.869
603.554
342.46
41.8227
30.2774
32.0093
481.925
612.328
32.3521
606.337
464.75
584.491
99.7971
618.029
558.241
30.9089
546.024
592.368
574.314
71.0124
515.249
436.419
610.524
63.8352
31.9221
454.358
293.906
596.166
530.628
439.693
628.749
610.641
601.409
588.198
481.903
568.343
470.213
503.202
612.067
32.4545
613.144
632.167
579.255
584.553
31.1425
611.441
612.04
32.8713
497.566
45.1088
526.87
32.283
496.954
33.3493
612.874
431.432
594.06
554.431
446.636
453.815
583.361
32.1073
588.493
514.257
397.292
445.628
563.759
608.785
470.325
595.88
548.346
492.627
588.6
264.425
513.495
49.6491
50.138
285.658
601.381
122.382
370.565
487.083
458.798
550.113
63.2554
541.837
30.4474
612.58
581.422
32.0456
585.766
563.54
552.391
32.264
611.381
587.6
632.258
611.02
634.66
603.516
561.288
290.542
496.994
593.645
33.8763
30.9705
32.0633
604.349
588.954
512.361
613.086
450.183
48.5849
32.185
606.062
545.835
32.7224
480.314
606.422
607.902
403.927
50.3712
38.2356
634.268
626.469
583.697
525.834
445.035
282.243
370.134
563.545
481.996
640.551
483.709
477.195
620.702
632.666
40.5829
546.625
32.89
588.375
32.8163
600.141
385.93
602.78
598.096
597.172
56.1741
312.006
31.6553
43.3678
564.201
32.5907
571.175
596.694
115.812
390.64
445.991
581.17
30.767
34.075
613.648
576.792
30.0733
627.36
594.909
611.813
622.018
619.373
649.905
446.047
294.061
648.348
601.938
592.277
56.1928
610.757
635.765
398.218
577.952
628.663
587.797
587.39
486.036
593.658
32.0537
578.184
225.898
31.4269
542.487
599.726
584.381
32.0586
605.941
627.197
486.457
643.572
630.836
639.916
31.354
546.525
428.869
473.1
461.531
610.006
577.895
37.1088
32.2791
522.175
623.919
473.156
471.816
37.5905
32.6002
489.955
641.018
606.101
32.0619
614.666
618.005
446.512
451.631
501.274
313.735
530.312
595.932
634.538
31.7508
632.23
593.715
33.9217
543.36
608.515
31.0909
592.033
585.991
466.711
649.577
57.4637
608.017
481.467
599.024
218.623
609.421
238.991
178.765
30.9961
31.7087
185.016
376.507
32.0049
241.892
581.971
561.683
507.666
395.518
228.902
32.5446
33.1393
32.1145
228.182
585.089
446.231
591.812
38.378
635.943
589.659
630.733
625.408
607.149
453.097
32.9026
604.309
629.847
598.071
32.2934
628.736
31.7649
43.6087
577.291
566.125
607.078
32.6463
248.61
574.809
577.563
585.23
655.869
386.343
518.374
489.352
153.989
609.011
606.294
439.372
32.1095
632.488
621.847
599.913
31.2856
581.043
594.918
626.444
588.605
55.3431
32.733
430.717
507.139
31.9987
599.098
605.451
560.371
606.972
240.342
616.173
569.348
575.832
598.348
611.637
413.554
573.307
223.747
600.205
368.757
582.73
227.074
588.837
609.471
511.628
633.484
33.9828
598.691
31.031
650.466
583.634
594.168
595.211
30.7365
32.7808
615.838
615.837
411.241
380.865
346.022
33.0727
586.207
422.537
556.501
605.335
53.4932
562.225
35.8752
549.114
625.355
585.138
32.6702
30.7133
605.845
259.843
396.574
591.108
614.579
596.023
255.813
32.7937
649.584
547.343
640.154
589.734
563.913
628.953
593.251
434.385
542.006
491.319
586.372
637.542
605.767
50.5747
465.635
589.387
652.067
616.329
510.533
415.465
41.2423
632.028
604.689
643.917
629.489
633.161
31.799
490.601
522.057
468.694
607.021
646.374
300.493
645.575
597.014
596.624
605.738
363.905
490.107
485.466
48.5929
34.8343
42.943
583.86
229.499
32.339
32.92
576.878
602.991
496.379
36.9305
585.277
528.544
173.878
32.5081
243.143
282.59
462.853
32.2624
519.57
607.66
255.638
424.151
620.783
615.887
612.072
32.9272
644.761
47.3318
625
272.101
618.665
441.022
30.0998
586.711
569.567
31.9706
57.2547
644.364
626.999
584.706
485.365
589.192
480.55
481.74
32.8408
609.522
37.5937
654.604
655.014
592.134
587.576
192.85
253.406
598.687
643.315
298.403
349.084
45.1314
38.8732
32.1418
32.4977
578.39
609.021
302.989
30.0732
63.1326
614.012
358.684
289.687
260.044
576.225
584.726
239.99
155.508
223.667
226.718
31.3585
595.861
255.96
32.4359
523.128
307.324
508.921
606.492
437.166
34.8211
254.762
583.641
31.431
464.194
115.434
606.604
590.254
611.848
554.313
612.928
645.035
567.454
519.822
262.057
557.037
32.5595
476.155
528.065
620.118
32.0426
311.448
33.2643
611.795
404.318
32.665
286.913
526.767
533.371
153.926
43.183
480.093
603.386
606.047
607.785
469.052
601.183
219.731
228.489
254.895
624.767
535.45
32.7983
609.914
46.2202
578.538
326.883
612.208
613.359
620.764
31.8683
590.368
34.2564
609.367
289.923
641.721
610.396
592.086
622.292
577.927
101.47
113.792
528.517
601.907
606.769
617.347
620.891
580.058
34.4527
618.162
32.4277
298.127
573.834
244.916
463.593
31.1347
32.5329
621.461
608.952
574.102
564.084
241.482
273.963
31.7227
576.67
603.707
426.237
585.092
463.689
445.518
385.464
341.791
557.786
581.592
608.854
626.618
584.806
501.142
291.99
552.572
599.562
604.006
605.698
479.584
32.9676
231.003
567.974
290.314
593.625
554.65
627.893
577.845
400.784
32.2863
37.6507
294.318
596.183
579.868
635.133
41.3522
31.9102
582.405
31.9532
630.002
611.291
312.564
32.1212
287.985
582.374
646.244
225.26
524.301
32.4798
619.515
497.075
559.6
600.123
511.745
417.648
585.018
30.1891
34.0529
447.522
47.0025
249.231
32.5544
551.274
607.681
632.035
608.582
465.234
466.324
526.016
567.862
584.408
607.881
32.1387
532.335
641.997
36.085
281.513
43.1881
31.9518
598.755
34.4495
562.459
419.001
460.272
33.3789
421.748
419.744
557.189
293.335
633.656
39.2138
56.6236
367.991
32.819
510.558
582.424
242.782
649.547
488.323
32.7977
56.7785
628.076
414.388
537.68
40.4668
596.662
621.874
605.664
606.691
472.539
40.722
566.18
32.796
595.233
613.549
239.189
617.95
576.86
588.408
567.817
408.008
611.374
38.9216
607.468
618.239
605.694
497.722
273.016
612.127
584.979
611.172
636.038
296.422
587.698
32.202
607.551
526.099
626.034
31.9091
455.407
584.102
597.868
609.038
510.577
604.658
615.622
627.382
541.004
596.467
364.911
568.434
595.066
54.7511
38.9675
395.35
55.7224
583.974
483.077
518.519
283.131
480.571
613.489
421.523
571.745
66.2112
567.883
563.498
240.453
615.181
594.465
36.1996
599.962
590.074
35.0734
33.2319
482.402
537.399
603.49
46.0602
54.2971
606.754
594.936
618.432
586.543
584.098
541.646
359.837
32.4841
589.469
523.857
245.624
593.07
585.223
548.857
578.529
636.71
599.295
613.924
548.856
321.498
595.594
621.473
32.1843
32.8927
587.412
488.635
340.025
585.988
441.681
584.842
577.462
572.437
604.019
502.095
66.2527
600.801
92.5112
463.104
621.384
32.1058
486.3
34.1462
47.822
31.0943
332.703
32.1764
32.56
601.756
633.29
414.975
608.334
609.874
623.545
297.317
611.805
419.576
434.898
511.732
255.459
473.699
630.686
578.699
85.4054
364.924
413.896
546.965
45.5466
32.9072
502.257
607.72
607.644
610.803
638.335
31.918
620.638
603.621
32.0225
595.181
572.124
42.543
294.723
650.745
292.071
260.601
494.328
368.328
603.826
411.288
596.656
625.997
599.014
470.89
586.12
416.319
32.7648
599.343
618.956
411.109
42.3859
588.934
486.72
346.754
588.154
32.3351
350.477
628.988
559.405
594.713
619.33
542.605
529.271
32.5794
605.762
608.755
329.31
602.624
471.945
384.976
571.819
592.996
40.1562
608.4
577.147
607.135
528.614
605.382
32.3706
631.848
620.351
594.912
615.007
597.361
32.0424
505.212
532.964
603.796
45.4798
409.476
487.486
601.414
536.187
602.363
606.459
349.51
603.973
518.852
578.926
613.17
437.979
565.183
591.501
233.699
226.91
38.8597
684.876
37.7203
609.317
32.2645
595.045
39.8736
37.9304
600.765
40.7287
594.62
31.1901
51.7953
250.935
32.1154
32.768
576.711
301.035
39.1977
46.4791
621.725
508.45
32.5366
459.751
607.423
438.887
629.934
428.68
97.0366
600.241
656.228
31.1778
36.8133
527.865
437.266
585.288
522.204
321.649
622.381
40.3716
619.447
281.233
606.99
590.78
46.4867
608.74
585.532
614.003
37.9868
33.9277
362.01
593.795
595.144
44.6172
45.7113
574.064
623.856
583.405
583.302
486.268
476.622
372.683
586.439
574.486
541.954
555.078
490.68
53.7019
611.482
64.263
617.001
98.4563
315.527
577.659
170.258
442.859
605.974
315.406
545.075
479.4
554.337
584.167
41.3399
576.668
497.541
626.777
428.801
613.147
555.562
600.727
424.398
493.763
560.245
523.584
403.899
535.705
459.948
575.055
524.503
438.198
601.85
224.825
267.4
498.645
524.317
512.666
592.129
606.926
624.73
606.708
584.53
382.387
462.761
584.536
600.472
33.3723
44.8138
606.031
604.347
312.383
610.088
413.974
32.6972
32.5639
592.743
625.824
431.178
596.978
375.706
38.632
32.4869
422.33
435.252
63.2604
588.875
631.688
506.732
576.808
468.555
608.438
605.716
652.384
561.502
47.4853
31.9213
599.859
607.667
35.1102
31.1269
575.815
556.798
466.388
517.826
592.755
609.263
390.115
606.395
32.2997
511.166
620.846
649.882
512.419
505.131
655.093
32.5432
434.039
619.404
390.578
489.824
39.0115
563.621
58.1053
32.035
581.094
38.4535
633.397
599.931
585.487
607.26
32.0317
589.927
574.954
461.159
579.762
609.058
43.1529
624.566
42.8054
67.6419
566.912
32.1503
602.449
597.42
428.727
45.3327
479.443
598.057
51.5316
590.836
581.338
35.4283
610.073
31.4994
584.435
32.7229
212.712
299.053
519.06
500.051
30.912
603.653
34.3537
34.4313
34.1445
35.6638
595.687
614.739
651.217
33.2998
31.28
31.3888
30.4333
606.453
34.2032
30.9882
549.023
492.216
371.559
623.367
67.9863
566.505
40.4033
595.458
575.775
626.747
643.756
38.4135
583.721
30.5036
46.6353
587.33
474.076
578.084
630.055
31.0795
591.374
606.338
556.935
32.0855
33.8336
635.308
31.5527
36.4683
597.696
36.8785
32.0004
432.842
31.203
650.72
559.371
576.966
648.651
629.514
656.877
40.9282
34.3534
565.128
479.928
414.244
508.168
604.591
511.719
423.258
650.082
51.039
271.12
222.113
607.702
568.609
490.326
31.9514
439.947
34.1534
48.2982
32.0442
576.44
296.525
30.1286
53.2335
37.4213
590.452
50.0252
444.938
477.049
466.859
631.785
572.2
33.0387
351.268
586.071
32.2309
618.511
618.134
471.603
447.902
610.387
538.147
578.902
30.1515
103.398
608.935
48.1975
599.473
597.292
483.948
61.4768
32.6431
30.821
153.032
30.955
630.305
614.199
175.015
376.472
580.87
571.386
603.228
609.081
617.261
555.137
32.0466
639.879
46.5733
32.3817
32.0884
466.824
34.32
36.6861
33.3581
32.3425
569.919
86.7373
634.687
326.975
370.946
547.895
451.215
584.577
32.3149
604.4
647.545
39.7671
36.3976
587.739
32.642
41.3507
513.378
597.106
32.1889
516.268
511.21
610.11
546.874
613.24
611.713
31.502
33.0313
585.886
32.8964
33.6512
646.064
438.49
31.4996
316.67
295.769
32.533
316.137
599.583
41.9592
445.1
616.966
32.4992
32.8032
507.172
480.28
544.299
650.277
619.954
32.0869
621.857
196.267
33.5827
621.976
649.279
485.1
32.2834
621.395
32.009
596.904
574.176
32.6549
527.52
622.435
588.381
32.2632
32.4298
506.444
621.799
381.896
575.024
32.7538
343.145
482.644
31.1322
461.884
617.649
626.567
686.306
518.313
159.431
32.3346
467.31
231.328
632.798
500.479
445.316
529.135
447.978
606.58
33.5418
491.823
638.119
602.128
507.884
595.234
617.564
634.503
576.748
32.5587
52.139
488.372
599.855
614.06
484.272
30.5215
570.5
590.726
509.643
612.379
630.265
32.0744
639.593
32.6443
295.318
493.006
491.919
508.857
619.449
32.0112
31.4961
43.6249
139.183
109.336
50.8222
614.078
631.015
32.7309
41.998
482.034
632.158
597.848
551.926
515.806
505.567
583.719
584.317
575.924
585.19
32.4788
614.994
609.836
371.349
501.772
565.746
630.822
367.792
285.344
643.166
49.4935
49.8075
41.013
500.116
32.2107
633.499
630.431
630.571
591.152
438.114
419.342
31.8637
354.147
650.494
32.0825
565.794
585.352
504.819
578.499
32.4771
601.454
395.35
547.047
629.645
563.971
600.393
33.3022
603.151
583.663
628.707
56.131
281.128
499.224
431.498
560.546
418.66
30.6563
464.94
296.279
32.0491
30.1979
571.737
615.743
470.549
656.406
515.924
631.672
624.118
509.121
517.094
31.8865
601.038
423.379
595.855
32.6145
31.6855
582.005
606.693
45.9589
618.197
517.276
640.297
32.7199
32.0101
607.037
601.137
625.754
606.23
32.2254
627.113
464.028
63.524
643.532
453.665
619.864
572.973
32.0119
320.2
32.3242
619.033
643.679
32.0357
615.032
547.705
604.372
506.438
389.456
637.425
59.3796
584.905
624.036
31.4512
608.309
35.6089
516.591
470.9
589.329
626.626
38.9524
50.4618
32.7715
30.2939
646.336
33.16
31.4465
31.982
31.8831
32.9993
32.0015
477.781
639.494
511.845
455.802
597.941
396.06
612.092
545.125
472.026
40.1993
32.335
31.9955
45.2697
625.011
620.449
619.249
635.475
32.8617
32.9469
33.845
32.0831
519.338
635.983
50.2643
38.2433
32.0185
620.75
566.038
67.119
577.919
640.484
464.968
496.364
34.0559
32.0252
505.766
61.3525
58.1543
32.0751
458.414
527.597
651.37
48.2967
629.369
464.468
31.5721
32.2539
32.6005
484.683
631.721
31.3023
40.9855
58.329
471.3
543.817
629.654
478.429
33.1638
88.2855
452.862
491.234
634.792
532.7
608.756
32.3673
32.0656
49.2792
51.6399
636.405
32.7257
32.4126
32.1477
31.2503
32.6455
32.566
32.2691
610.414
31.9871
476.192
606.911
395.933
622.453
51.1119
641.143
595.746
410.196
519.78
45.5201
351.107
32.9121
621.315
32.0577
35.043
431.006
469.952
613.571
621.236
636.999
407.317
418.478
49.24
36.7271
620.129
31.9685
645.211
34.2072
615.196
615.743
439.208
37.1417
534.659
31.9352
220.264
33.4773
37.365
31.2353
515.399
32.4266
448.881
282.175
605.27
450.593
630.834
517.811
514.435
31.9188
615.583
523.039
43.9669
616.613
627.799
31.2051
592.655
618.283
415.18
444.125
639.625
42.6255
598.899
40.9827
596.971
445.299
590.888
500.729
468.087
575.08
31.8743
503.044
599.154
335.439
59.4423
387.029
489.381
472.325
520.955
621.571
626.877
34.4763
604.692
517.104
604.281
38.6571
472.126
596.962
32.6196
518.336
32.1533
365.815
616.12
46.7367
45.0113
544.363
616.841
616.642
103.543
585.526
126.747
632.873
489.645
432.074
596.153
537.347
35.3169
30.1198
388.575
622.132
513.735
495.661
620.021
472.755
33.0568
447.255
37.2678
571.624
632.005
506.685
31.9119
513.734
453.031
599.485
53.9117
370.133
628.357
481.586
52.0973
591.278
442.719
445.166
502.169
606.684
603.283
601.188
526.889
459.901
636.214
511.29
572.061
638.161
638.97
630.758
512.736
539.841
450.4
614.408
38.8962
623.071
649.92
598.004
487.987
506.718
32.7064
525.418
627.027
31.8789
32.3424
505.388
532.352