/*--------------------------------*- C++ -*----------------------------------*\
| =========                 |                                                 |
| \\      /  F ield         | OpenFOAM: The Open Source CFD Toolbox           |
|  \\    /   O peration     | Version:  v2012                                 |
|   \\  /    A nd           | Website:  www.openfoam.com                      |
|    \\/     M anipulation  |                                                 |
\*---------------------------------------------------------------------------*/
FoamFile
{
    version     2.0;
    format      ascii;
    class       volVectorField;
    location    "250";
    object      U;
}
// * * * * * * * * * * * * * * * * * * * * * * * * * * * * * * * * * * * * * //

dimensions      [0 1 -1 0 0 0 0];


internalField   nonuniform List<vector> 
13917
(
(1.0954 0.120545 -3.18756e-20)
(1.02057 0.0393475 2.39619e-22)
(0.698729 -0.0843535 -5.03193e-20)
(1.05255 -0.0129515 -2.12862e-21)
(0.996425 0.00303565 -1.33408e-20)
(0.371274 0.0604247 0)
(0.611291 -0.0651115 0)
(0.711614 -0.0934164 0)
(0.479911 -0.0707316 -2.10924e-20)
(1.13726 0.143626 4.58809e-20)
(1.10277 -0.0634962 -2.7143e-21)
(1.09255 -0.0457706 0)
(1.0528 -0.0143223 0)
(0.044678 -0.00731618 -1.83597e-20)
(0.975537 0.0892189 -9.62039e-21)
(0.998184 0.0897734 4.45542e-21)
(1.01543 0.0451612 6.38646e-22)
(1.13923 0.0166779 0)
(1.09165 -0.046483 1.79387e-21)
(1.0016 0.00461128 3.56688e-21)
(0.999968 0.00110356 0)
(0.593439 -0.0627117 0)
(1.00106 0.00739717 6.25194e-21)
(0.76813 -0.0953999 -1.91715e-20)
(0.99512 0.015092 1.28418e-21)
(0.611693 -0.0483423 2.49429e-20)
(0.787694 0.0331528 0)
(0.771323 0.123391 -4.14467e-20)
(0.80012 0.534669 0)
(1.18851 0.0903657 0)
(1.10771 0.109771 3.36067e-20)
(1.05971 0.0869293 1.01014e-20)
(0.842681 0.072656 0)
(0.915432 -0.00426986 2.28387e-20)
(0.992006 0.0115507 -1.56168e-21)
(1.08816 -0.0682012 1.75769e-20)
(1.001 0.00703485 4.13769e-22)
(0.17064 -0.0442093 0)
(1.05893 -0.0190022 -6.22542e-21)
(0.352288 -0.00745726 1.82753e-21)
(1.00784 0.000946808 0)
(0.999972 0.000675288 -7.50886e-22)
(1.019 0.00203063 -4.13068e-21)
(0.714285 0.211719 0)
(1.03762 0.0224381 -8.23628e-21)
(0.892916 0.0140262 0)
(1.13651 0.0119116 0)
(1.1411 -0.0189572 0)
(0.114655 0.135763 1.769e-19)
(1.00326 0.000640404 -1.12209e-21)
(1.0841 0.0107063 0)
(0.966527 0.00774849 -5.52112e-21)
(0.0630858 0.107268 -3.1533e-19)
(0.911904 0.00508241 2.56932e-20)
(1.01409 0.0450536 0)
(1.08397 0.0343812 -1.32467e-20)
(1.10464 -0.0649256 -2.57717e-20)
(0.996074 0.0280198 1.06879e-20)
(1.06979 0.0409732 7.6313e-21)
(1.03628 0.0224136 2.65382e-22)
(0.680105 0.0566931 0)
(1.02245 0.0373053 5.67605e-22)
(0.0285163 -0.00452148 1.96354e-20)
(1.00167 0.00487101 0)
(0.394484 0.0814516 0)
(1.19677 0.387588 -2.87455e-20)
(0.995606 -0.000384756 -1.5176e-20)
(0.988462 -0.000589891 -2.19321e-20)
(1.15462 -0.0619741 -6.06886e-20)
(1.06519 0.126451 -9.43998e-21)
(0.996832 0.00350345 1.22427e-20)
(0.546304 -0.0777548 1.12598e-20)
(-0.0882508 -0.0163594 -6.17412e-20)
(0.995914 0.0138624 -3.72686e-21)
(0.114002 0.225825 -1.51942e-19)
(1.08994 -0.0522205 -2.24847e-20)
(-0.0934256 -0.0151807 1.55723e-20)
(1.05238 0.0242645 0)
(0.611557 -0.0348854 0)
(0.999896 0.0023665 -7.09192e-21)
(1.00014 0.00346282 -6.0361e-21)
(0.996174 -0.00020129 0)
(0.421309 0.146655 0)
(0.198028 -0.0509923 0)
(-0.0526918 0.0118352 -8.08695e-20)
(1.0514 0.0220687 -7.46815e-21)
(1.00053 0.00400171 5.67485e-21)
(1.22491 0.411813 0)
(1.08198 0.0100332 2.42366e-20)
(1.01947 0.00179636 0)
(-0.0120471 -0.0305124 0)
(1.17014 0.12553 -8.60427e-20)
(1.02268 0.0220188 0)
(0.976436 0.0508073 -6.62926e-22)
(1.20204 0.423087 9.46506e-20)
(0.380808 -0.000229123 -7.02101e-20)
(1.12557 -0.0576592 -2.14767e-20)
(1.14119 -0.00710042 -3.27434e-20)
(1.09452 -0.0509562 -3.14934e-20)
(0.625422 0.139439 1.22956e-19)
(1.01056 0.00522943 2.34519e-21)
(0.850102 0.013777 -5.01339e-20)
(0.709075 0.181439 5.6425e-20)
(1.05955 0.0166128 0)
(1.0158 0.0115736 1.06799e-21)
(0.556912 -0.0650186 1.28057e-21)
(0.849408 0.530379 -1.97763e-20)
(1.14373 -0.0212382 7.66003e-20)
(1.01765 0.0433896 0)
(1.10991 0.118335 2.52522e-21)
(-0.11876 -0.00705129 6.91975e-20)
(0.359196 -0.00525011 5.40522e-21)
(1.09422 -0.0493382 0)
(0.518813 -0.0646665 8.84045e-20)
(0.949843 0.00757787 1.08933e-20)
(0.0750527 -0.0914806 -8.8883e-20)
(1.00093 0.0133881 -1.12765e-20)
(0.213991 0.083622 -3.13296e-20)
(0.264688 -0.0126334 -5.02466e-21)
(0.912644 0.0118815 -6.28411e-20)
(0.999981 0.000814908 -5.46479e-21)
(1.15603 -0.0626333 9.69907e-20)
(0.223317 -0.0179249 0)
(0.770653 0.12985 3.03955e-20)
(1.0048 0.000641308 3.75777e-22)
(0.977591 0.0482327 0)
(1.03324 0.0256647 -1.0649e-20)
(1.00448 0.000632854 -5.86987e-22)
(1.01665 0.00162957 -1.84644e-21)
(0.356217 -0.00843772 0)
(0.325459 -0.034182 -9.48729e-21)
(0.952608 0.0116653 8.18001e-21)
(1.03801 0.0232986 -7.69854e-21)
(0.999965 0.00096918 0)
(1.26034 0.0119371 -5.81986e-20)
(0.781583 -0.0956254 0)
(1.09427 0.116206 2.78396e-20)
(0.597773 0.135067 4.54335e-20)
(0.995301 -0.000163382 1.70404e-20)
(0.912437 0.0114861 3.48192e-20)
(1.09018 -0.0717682 -4.19326e-20)
(1.0235 0.0120627 0)
(0.964337 0.0207809 0)
(0.676317 0.186161 0)
(0.9879 -0.00130141 1.01186e-20)
(0.773119 -0.0867257 -5.21011e-22)
(0.850855 0.561118 -4.66504e-21)
(0.96849 0.011742 0)
(1.02217 0.010137 -4.26146e-21)
(1.0566 0.0911593 -1.54488e-20)
(1.116 -0.027507 0)
(0.0925761 -0.13343 2.9826e-19)
(1.10644 -0.0508376 2.58119e-20)
(1.02979 0.179988 -9.82661e-23)
(1.07597 0.0617119 0)
(0.00393828 0.0551821 1.85699e-19)
(1.05842 0.127695 0)
(1.13044 -0.109857 7.03238e-20)
(-0.113911 -0.0116719 3.37476e-20)
(1.25799 0.015398 -8.73906e-21)
(0.942042 0.0424004 -1.17671e-20)
(0.790852 -0.0041495 -4.95785e-20)
(1.0001 0.00230703 5.90265e-21)
(1.12344 -0.057317 -1.9801e-20)
(1.09426 -0.0494618 9.73924e-21)
(1.0943 -0.0513666 3.16053e-20)
(1.05894 0.0189194 0)
(1.12719 -0.0208624 4.53574e-20)
(1.03103 0.0189146 0)
(0.840876 -0.0131619 3.4274e-20)
(1.04657 0.166998 0)
(-0.234639 -0.00217518 5.24501e-20)
(1.09383 -0.05053 0)
(1.01332 0.0536366 1.38047e-21)
(0.927514 -0.109723 1.42755e-20)
(1.02101 0.194873 -7.21333e-21)
(0.348163 -0.0383761 8.20201e-21)
(0.162027 0.115022 -1.05361e-19)
(0.830473 -0.0919931 0)
(1.01254 0.0258422 0)
(1.17462 0.115197 0)
(1.11363 0.100518 0)
(1.02397 0.0117191 2.89893e-21)
(1.00049 0.00459312 -4.70227e-21)
(0.941204 0.116323 1.91014e-20)
(0.662851 -0.0502161 -5.93984e-24)
(1.24643 0.127075 -1.7782e-19)
(0.0670635 0.0579392 -1.29883e-19)
(1.11403 0.0383817 -1.63435e-20)
(1.09495 -0.0516452 4.94862e-20)
(1.10476 -0.0879038 -3.22394e-20)
(0.00200316 0.0161654 -8.11016e-20)
(1.2406 0.164117 -1.08245e-19)
(0.999829 0.00759219 -7.48882e-21)
(0.57668 0.045312 0)
(0.800868 0.0264398 1.0809e-19)
(1.00943 0.000573111 0)
(1.02276 0.0225016 0)
(0.91346 0.394353 3.5549e-21)
(1.2204 0.453714 0)
(1.07419 -0.0058392 -5.22872e-21)
(1.00289 0.000706126 -1.69276e-21)
(1.12026 -0.0217858 6.84742e-20)
(1.11432 -0.0292085 0)
(-0.116856 -0.0132963 -1.00746e-19)
(1.24333 -0.0374115 -5.85075e-20)
(0.9923 0.0110788 0)
(0.995351 0.0309295 -1.21402e-20)
(1.1386 -0.0111889 7.40601e-21)
(0.697541 -0.0657241 -1.1201e-20)
(0.966856 0.0214603 9.34167e-21)
(0.597963 -0.0695286 0)
(-0.162319 -0.00874124 3.55986e-20)
(1.09519 -0.0524944 -3.00956e-20)
(1.01532 0.0115277 4.82971e-22)
(0.559301 0.389298 2.66525e-19)
(1.13075 -0.00821995 4.7577e-20)
(-0.215167 -0.00425407 -1.72011e-19)
(1.00314 0.0174614 0)
(0.843152 0.0784019 0)
(1.01206 0.0246207 -3.93772e-22)
(1.18299 0.0652759 6.04981e-20)
(1.0075 0.00109256 0)
(0.134352 -0.0476179 0)
(0.531885 -0.0610097 4.49368e-20)
(0.99945 0.0858859 -5.75317e-21)
(1.1905 0.455063 1.10977e-19)
(1.07908 0.0561914 0)
(1.01465 0.0112844 -2.89412e-21)
(1.08779 -0.0669876 0)
(1.09324 -0.0508402 0)
(1.1131 0.0361281 -8.60677e-21)
(0.791826 -0.0901717 -1.41021e-20)
(-0.179211 -0.00677501 1.83021e-20)
(1.01149 0.00292554 1.57401e-21)
(1.063 0.0885137 0)
(0.0204227 -0.0345486 0)
(-0.0984509 0.0189613 0)
(1.00006 0.00271549 0)
(1.00617 0.00875375 8.46085e-22)
(0.384554 -0.00511937 6.91205e-21)
(1.13214 -0.0620615 -1.33119e-20)
(1.00004 0.00013718 0)
(1.08602 -0.0602512 -5.68961e-20)
(1.17486 0.00481299 0)
(0.805243 -0.0379909 0)
(1.09462 0.0983465 -5.06489e-20)
(1.00014 0.00279912 -5.78133e-21)
(0.985121 0.200492 0)
(-0.152618 -0.00877271 -7.4365e-20)
(1.03874 0.00116836 3.62609e-21)
(1.18982 0.133399 5.93531e-20)
(0.584894 0.175873 7.71938e-20)
(1.03292 0.0246459 -7.86851e-21)
(0.995539 0.0275942 -1.19388e-20)
(1.10348 -0.043105 4.41158e-20)
(0.409905 -0.0089701 0)
(1.10613 -0.0476612 0)
(0.942948 0.114448 0)
(0.978594 0.0958611 1.43905e-20)
(1.00004 0.000254357 1.46002e-22)
(0.203087 -0.0123758 0)
(0.736439 -0.0236911 0)
(1.08789 -0.0493724 -1.01606e-20)
(1.01422 0.0112554 4.39477e-21)
(-0.131397 -0.00908091 -1.29924e-19)
(0.0438902 -0.0135743 0)
(1.11153 -0.113707 -8.23048e-20)
(0.595826 -0.0333037 3.36436e-21)
(1.09085 -0.0531094 -9.70086e-21)
(1.00013 0.00311792 5.78342e-21)
(1.00585 0.000740623 -2.74538e-22)
(1.13465 0.00747505 5.29869e-20)
(0.0408544 -0.0338399 4.00606e-20)
(1.16662 -0.0321496 1.27975e-20)
(1.06844 0.0377993 2.99688e-20)
(1.2452 -0.03375 0)
(1.07743 -0.0415318 0)
(1.01638 0.00104749 2.94907e-21)
(1.06614 0.0365932 -5.17877e-20)
(1.00188 0.00437008 1.04499e-22)
(0.898121 -0.109085 1.95514e-21)
(1.07202 -0.00528775 4.49122e-21)
(1.00007 0.00016076 -3.66761e-22)
(1.00317 0.104172 0)
(1.02765 0.171176 -1.23346e-21)
(0.790874 -0.0325846 0)
(1.08588 -0.0608465 3.9802e-20)
(1.00213 0.140026 -3.2755e-21)
(1.0417 0.00739586 6.65085e-21)
(1.24569 0.0276508 0)
(0.801369 -0.0915191 1.60353e-20)
(0.641645 -0.0270786 0)
(1.00294 0.0172586 -5.03957e-21)
(1.11009 -0.118789 0)
(0.998447 0.000654109 0)
(1.04166 0.00742193 2.31877e-20)
(1.00107 0.0127633 1.26947e-20)
(0.832383 0.629435 5.27991e-21)
(1.00162 0.000903621 0)
(1.18723 0.0648462 6.87525e-20)
(1.08811 0.100961 4.17819e-20)
(1.03058 0.0182359 7.98065e-21)
(1.11963 -0.0245014 -8.95195e-20)
(1.03787 0.0542382 1.07881e-20)
(0.0992542 0.0617008 -2.7639e-20)
(1.02266 0.18682 5.53291e-21)
(1.1659 0.119976 -3.63599e-20)
(1.02911 0.0128955 -1.23912e-20)
(0.996194 0.0259028 1.73673e-20)
(-0.138627 -0.00625805 3.80289e-20)
(0.186761 -0.0172926 -2.45492e-20)
(1.00127 0.0140122 -2.41573e-21)
(1.00644 0.00104192 -2.51219e-23)
(1.09035 0.042209 0)
(1.01553 0.0237804 -6.75946e-22)
(-0.0646408 -0.0189462 1.14265e-19)
(1.02805 0.0123586 4.42332e-21)
(0.150364 -0.0502139 8.95771e-21)
(1.04403 -0.0066752 -1.77202e-20)
(1.20818 0.308518 6.39664e-20)
(1.09867 -0.00210166 -7.13319e-20)
(0.115228 0.304759 3.08768e-19)
(0.947315 0.0406794 2.22818e-20)
(1.26854 0.0179866 -2.06963e-21)
(0.535092 0.312066 0)
(1.00601 0.108432 0)
(1.13501 -0.0604393 -6.2515e-20)
(0.949744 0.511486 0)
(0.996746 0.0415695 0)
(0.256842 -0.0391038 0)
(0.576158 0.0542939 0)
(0.0487755 -0.0179123 -2.82442e-21)
(0.924471 0.0146802 -3.98702e-20)
(0.306387 -0.00770586 0)
(1.06947 0.0857676 2.49115e-20)
(-0.0237775 -0.00548331 -7.09745e-20)
(0.551667 0.292133 0)
(0.9466 0.330251 1.38517e-20)
(0.947316 0.356123 -4.06525e-21)
(0.642482 -0.0812674 2.9999e-20)
(0.999721 0.00288351 4.79728e-21)
(1.05419 0.167437 -1.85061e-20)
(-0.0838853 -0.00773792 -6.23789e-20)
(0.983662 0.0289057 0)
(1.00323 0.0700983 -6.79356e-21)
(0.0748602 -0.0152244 3.23649e-20)
(0.878639 0.495431 0)
(1.01869 0.0517508 -2.25822e-22)
(1.10595 -0.0858847 0)
(0.729785 0.544754 0)
(1.00892 0.00463683 0)
(0.246254 -0.00960244 5.05306e-21)
(1.09245 -0.0780547 5.93869e-20)
(1.00203 0.00470502 -3.36321e-21)
(1.00927 0.0123814 0)
(0.998581 0.000817072 3.4328e-22)
(1.02245 0.00979988 5.1883e-21)
(1.24345 0.0207106 -3.15064e-20)
(0.87246 -0.0992016 3.40025e-20)
(0.416153 -0.281055 0)
(-0.104093 -0.0073328 -3.23214e-20)
(0.998192 0.0141946 5.54592e-23)
(1.19661 0.133105 -1.06108e-19)
(-0.154261 0.0182811 -1.88306e-21)
(1.11095 -0.0121761 -8.26571e-21)
(0.577706 -0.0671049 0)
(0.0710451 -0.0408623 3.50031e-20)
(0.492581 -0.061237 -1.38725e-19)
(1.01269 0.00510876 -1.57742e-21)
(1.08876 -0.0491461 -1.9886e-20)
(1.01047 0.0113759 0)
(0.98535 0.0959635 6.37244e-20)
(1.03541 0.022854 8.22761e-21)
(0.105408 0.324922 -1.61317e-19)
(1.1779 0.0105665 2.51048e-20)
(1.0622 -0.0112455 2.20201e-20)
(0.999629 0.0032377 -2.77513e-21)
(1.13611 -0.0076938 -1.13455e-19)
(1.18054 0.123766 0)
(1.15557 0.00229167 0)
(0.187881 1.21833 1.34022e-20)
(-0.067933 -0.0058639 -7.72599e-20)
(-0.236158 -0.00259834 2.1424e-19)
(0.991444 0.207561 0)
(1.13129 0.142005 -1.13482e-19)
(1.00584 0.00832154 0)
(-0.0717263 0.0200342 0)
(0.575836 -0.0562059 2.79638e-20)
(1.00002 0.0313629 -5.12848e-21)
(1.26283 0.020972 6.54146e-20)
(0.996072 0.0104773 0)
(1.22531 -0.0161089 1.04101e-19)
(1.04423 -0.00648543 1.2807e-20)
(0.999784 0.00253514 0)
(1.03378 0.0577526 0)
(0.625902 -0.0276338 2.30771e-20)
(1.03149 0.0569553 0)
(0.43145 -0.0112007 1.96136e-20)
(0.00975554 0.0397176 -3.01781e-20)
(1.09907 -0.0583476 -7.2477e-20)
(0.48683 0.261021 0)
(0.99839 0.0410022 3.79625e-21)
(0.521403 0.386417 -2.16994e-19)
(0.489652 0.341952 1.26225e-19)
(1.00232 0.00972926 2.84471e-21)
(0.873905 0.443583 1.8081e-20)
(0.985556 0.0289047 1.77766e-22)
(0.994835 0.0125091 1.48066e-21)
(1.18789 0.0900246 0)
(1.00007 0.00032481 0)
(0.994286 0.0147452 3.96145e-21)
(1.01077 0.0120296 0)
(1.23936 0.0290849 3.05975e-20)
(0.999929 0.00190133 -4.92471e-22)
(0.315411 -0.00810822 0)
(0.719691 -0.0337563 0)
(-0.0993835 0.0131013 0)
(1.23773 0.16995 3.77093e-20)
(0.433904 -0.0167451 8.88217e-21)
(-0.20638 -0.00539157 0)
(1.10762 -0.0135828 1.45724e-20)
(0.998615 0.0132342 0)
(1.20963 0.0111535 -1.87305e-20)
(1.05845 -0.0180939 5.22829e-21)
(1.06853 0.0869085 2.43615e-20)
(0.999863 0.0075378 -8.31221e-21)
(0.805313 -0.0947511 -3.27639e-20)
(0.639002 -0.0629366 1.2138e-20)
(0.767592 -0.0349151 4.0096e-22)
(0.985708 0.0828373 -5.87508e-22)
(1.17985 -0.00111276 -2.87731e-20)
(0.928765 0.0191467 5.93039e-20)
(1.06038 -0.0209038 -1.2716e-20)
(1.1542 -0.00162224 0)
(1.02081 0.0577002 -3.10381e-21)
(1.09014 -0.0469574 0)
(1.01849 0.0446064 0)
(1.00159 0.000857612 -1.99248e-21)
(-0.0302654 -0.0220793 0)
(0.344498 -0.0353479 0)
(0.364969 -0.0381367 -4.19313e-21)
(1.17549 0.197663 -7.48312e-20)
(-0.114043 0.012191 0)
(0.284859 -0.0458869 0)
(-0.0487165 -0.0120405 0)
(-0.0450104 -0.0182962 0)
(1.01582 0.00169069 3.12591e-21)
(1.13796 -0.00165052 -9.38655e-22)
(1.02278 0.0600763 3.54757e-21)
(0.993363 0.0298107 0)
(1.24457 -0.0261392 -1.36972e-19)
(1.13667 0.00954438 -6.25336e-20)
(1.01662 -2.23444e-05 0)
(1.15482 0.044723 0)
(1.10885 -0.00576559 -2.96531e-20)
(-0.0309129 -0.0167097 -4.67346e-20)
(1.00241 0.00972469 3.34827e-21)
(1.14331 -0.0511007 -9.01889e-20)
(0.095564 0.0536687 5.37218e-20)
(1.23385 0.308168 4.24108e-20)
(0.322091 -0.0120524 -2.13529e-20)
(0.999926 0.00170066 -4.30845e-21)
(0.998879 0.0329297 7.16265e-22)
(1.01033 0.000313579 -5.44306e-22)
(1.05345 0.127583 9.09919e-22)
(1.01267 0.00477652 3.85895e-21)
(0.717733 -0.0481736 -1.27068e-20)
(0.404765 -0.255431 -7.23565e-20)
(1.00481 0.136394 3.07209e-21)
(-0.0238353 0.0288221 0)
(1.08384 0.0332455 2.6037e-20)
(1.121 -0.0576641 0)
(-0.00680105 -0.0132133 -6.30585e-20)
(0.870483 0.565999 -8.78013e-21)
(1.09901 -0.0576876 5.67927e-20)
(1.09006 -0.0738811 5.70705e-20)
(1.1418 -0.048666 7.88922e-20)
(1.15341 0.062583 7.52007e-20)
(1.20205 -0.00489142 0)
(1.09265 -0.0299275 2.66255e-20)
(1.09425 -0.0553407 -3.35428e-20)
(0.388641 0.101546 0)
(1.08939 -0.0379219 -3.06198e-20)
(1.14169 -0.0284572 2.32066e-20)
(1.01344 0.00099168 3.01784e-21)
(1.2568 0.000474514 0)
(1.08738 0.0144278 2.59815e-20)
(1.028 0.00243588 -6.90637e-23)
(1.0498 0.12822 0)
(1.05504 0.021683 -8.38082e-21)
(-0.0300302 -0.0199144 0)
(0.542244 -0.0700607 0)
(1.01495 0.0224305 1.66455e-22)
(1.01614 0.000747404 1.00944e-21)
(0.758268 -0.060753 -1.25569e-20)
(-0.223815 -0.00333348 0)
(1.00007 0.00025252 -1.96678e-21)
(0.299458 -0.00832801 2.18995e-20)
(1.05445 0.00238855 -2.09718e-20)
(1.22569 0.153002 2.78007e-20)
(1.01462 0.0247668 -2.00745e-22)
(-0.142255 -0.00905535 -4.29373e-20)
(1.19273 -0.0973084 0)
(1.05803 0.091642 1.90601e-20)
(1.03676 0.0350803 -1.04596e-20)
(0.459723 -0.0197237 -2.34582e-20)
(1.23527 0.129416 1.20592e-19)
(-0.208548 0.00952141 0)
(1.00004 0.000336294 0)
(-0.152017 -0.00882823 -7.08011e-20)
(0.127328 0.0377205 1.42287e-19)
(1.07624 0.0458982 1.33842e-21)
(1.0282 0.00265837 -1.45405e-20)
(-0.0869824 0.0130385 -2.24054e-20)
(0.37932 -0.0267787 0)
(1.10697 -0.0166509 5.96059e-20)
(1.0098 0.0121194 -2.80919e-22)
(1.01011 0.0447302 0)
(1.0887 -0.0539793 -2.84615e-20)
(1.22979 -0.0232182 8.2204e-20)
(1.01672 -0.000110901 -1.23924e-21)
(1.00877 0.0114625 -5.40254e-22)
(1.00486 0.00242987 -8.9828e-22)
(1.00516 0.002244 0)
(-0.156574 -0.0083108 7.92795e-20)
(1.24476 -0.0231881 -1.16741e-19)
(1.10646 -0.0155257 -5.91039e-20)
(1.24464 0.118949 -1.90561e-21)
(1.00577 0.000825931 2.70171e-22)
(1.01015 0.00511883 -1.89781e-21)
(1.17697 -0.00446559 1.38205e-20)
(0.216495 -0.0300021 1.0757e-20)
(1.1044 0.0484634 0)
(1.03239 0.019899 0)
(0.995111 0.0134623 0)
(0.992768 -0.000236379 -2.00874e-20)
(1.03865 0.0400781 1.07521e-19)
(0.0522863 0.0185576 1.71451e-19)
(1.00067 0.00394692 0)
(0.992934 0.00278973 -1.249e-20)
(1.08953 -0.0482531 -1.10362e-20)
(1.09303 -0.0294293 -2.59395e-20)
(1.09807 -0.00166015 -1.29886e-20)
(0.998038 0.0304132 -1.08728e-20)
(1.02817 0.0612132 3.43554e-21)
(1.0444 0.0874279 2.79305e-21)
(1.13916 -0.0303609 1.27177e-21)
(0.964499 0.458626 0)
(1.24679 0.124882 1.42441e-19)
(1.21138 0.0108569 8.9612e-20)
(1.16463 -0.0195525 0)
(1.24275 -0.040332 1.49923e-20)
(1.16539 0.117307 -4.95087e-20)
(1.002 0.0166421 5.65089e-21)
(-0.140606 -0.0100423 6.36587e-20)
(0.993104 -0.000411705 1.25351e-20)
(1.00355 0.0715197 8.11521e-21)
(1.06451 -0.00341649 8.68741e-22)
(1.25631 -0.0025283 -3.99733e-20)
(1.0016 0.279824 0)
(1.00936 0.000911659 0)
(1.2287 0.307536 0)
(1.19602 0.0851511 0)
(0.0968088 0.171762 -6.28955e-20)
(1.1663 -0.0201308 6.03763e-20)
(0.894092 0.132442 -6.1106e-22)
(1.11181 -0.00854313 -3.02618e-20)
(0.999405 0.00374554 5.96867e-21)
(0.564728 -0.0286207 0)
(1.21988 0.290415 -7.18185e-20)
(0.457592 -0.0753103 0)
(1.01844 0.0400548 0)
(1.09473 0.037569 5.16368e-20)
(1.247 0.111191 0)
(0.0786632 -0.0435539 -7.63347e-20)
(-0.241409 0.00149181 -1.75517e-19)
(1.14414 -0.0110535 1.01101e-21)
(1.18509 0.199558 -1.10142e-20)
(0.993313 0.0824494 -1.83541e-21)
(1.05579 0.0525494 1.76979e-21)
(0.996851 0.0328935 -6.7404e-21)
(0.899404 0.23996 0)
(0.688937 0.186991 0)
(0.97481 -0.00125975 0)
(1.12798 -0.0116887 0)
(0.570675 0.172663 -1.93963e-19)
(0.473894 -0.0783373 -9.81051e-21)
(-0.201246 0.0109056 0)
(1.0336 0.0682092 -2.14585e-21)
(1.11918 -0.0572687 -2.62539e-21)
(1.1907 -0.0960075 0)
(1.00795 0.113496 -1.07554e-21)
(0.970052 0.0223963 -1.86927e-20)
(0.114731 0.587391 0)
(0.740084 -0.0544 7.84944e-20)
(0.723992 -0.0974886 3.44744e-20)
(1.24035 0.100704 -1.48049e-19)
(1.01651 0.00158547 0)
(0.250878 -0.0126499 -5.8582e-21)
(1.08868 -0.0538186 2.7341e-20)
(1.00912 0.00098874 0)
(1.09245 0.0678856 -1.04303e-20)
(1.12228 -0.0378834 0)
(0.855944 0.0671746 3.78632e-20)
(1.18571 0.0824329 2.75104e-20)
(0.604013 -0.0377904 0)
(1.1969 -0.010911 2.70551e-20)
(1.08871 -0.0269239 2.74378e-20)
(0.564844 -0.0285807 0)
(1.05748 0.0272111 6.19436e-21)
(-0.0650546 -0.0148524 -6.54035e-21)
(1.00002 0.00226739 0)
(1.00063 0.00421841 -2.01753e-22)
(1.10404 -0.116522 -3.93216e-20)
(0.712687 -0.0558666 -4.48096e-20)
(0.405534 0.257744 -1.63454e-19)
(1.05788 0.0274344 -6.6355e-21)
(1.01393 0.0510856 -7.35193e-22)
(0.993416 0.00328062 1.7537e-20)
(1.07892 -0.0414908 1.20486e-20)
(0.0913886 0.163909 1.71903e-19)
(1.0944 -0.0515284 -2.75884e-20)
(1.05809 0.0533783 1.99013e-21)
(1.10003 -0.0559629 -3.16817e-20)
(1.13341 -0.0112666 5.28048e-20)
(1.01436 0.0242371 2.69744e-22)
(1.18153 0.459292 5.05746e-20)
(1.09433 -0.0515432 2.04816e-20)
(1.09933 -0.042434 4.27158e-20)
(1.00455 0.018906 0)
(1.19358 -0.0151841 -2.1626e-20)
(1.05424 0.0242429 -1.18077e-21)
(0.0899769 0.0679765 -1.0058e-19)
(1.14265 0.13381 -4.68693e-20)
(1.00524 0.28264 0)
(1.09655 0.039184 -4.88953e-20)
(1.00744 0.00276321 -2.8989e-22)
(1.0263 0.00510159 3.28845e-21)
(1.03458 0.0264036 7.41023e-21)
(0.972593 0.364296 4.99017e-21)
(0.893138 0.0119712 0)
(1.24124 0.048442 -9.12619e-20)
(0.623301 0.757844 2.0906e-20)
(1.12742 -0.0197117 -4.76132e-20)
(1.00836 0.00477411 0)
(1.20042 0.00139902 0)
(0.40463 0.278447 0)
(1.09182 -0.0762236 -4.55104e-20)
(1.03806 0.00225133 0)
(0.903862 0.0331641 1.23643e-20)
(1.00826 0.0117794 -1.18457e-22)
(1.07356 -0.0210053 0)
(1.07318 0.0399244 0)
(0.354236 -0.0274787 -2.7464e-20)
(0.999833 0.00256312 0)
(1.22071 0.455773 -5.60084e-20)
(1.07499 -0.0184688 0)
(1.1006 -0.0621372 1.13385e-20)
(1.1681 0.138384 -2.30516e-20)
(-0.098921 -0.0137545 1.00982e-19)
(1.02613 0.271696 1.44914e-20)
(1.0093 0.0440227 -1.04816e-21)
(-0.000285665 -0.0292105 -4.50843e-20)
(-0.239669 -0.00192158 8.68191e-20)
(1.00672 0.033335 0)
(1.06334 -0.00500367 3.25798e-21)
(1.20158 -0.0863008 1.61227e-19)
(1.23378 0.104543 0)
(1.16284 -0.0353352 -2.64408e-20)
(1.00016 0.000363348 -2.39067e-21)
(1.03819 0.035348 0)
(1.19742 0.290801 0)
(1.06258 -0.012371 -2.99765e-20)
(1.1555 0.00369422 0)
(1.10292 -0.0410671 0)
(1.02688 0.00480777 4.75269e-21)
(1.11007 -0.0317829 0)
(0.708655 -0.0864949 2.84258e-20)
(1.03739 0.000174874 7.38479e-21)
(1.04989 -0.00954978 0)
(1.00433 0.00258181 1.0058e-21)
(0.186289 -0.0150408 -1.18207e-20)
(0.999971 0.00115888 9.47914e-22)
(0.986499 0.0815271 -5.56481e-22)
(-0.228735 -0.00308686 5.14463e-20)
(0.994659 0.0659548 6.78882e-21)
(0.769244 -0.0589182 4.09786e-20)
(1.07513 0.0598444 -2.82124e-21)
(0.838511 0.0776703 -7.5243e-20)
(1.00466 0.00242272 1.38237e-21)
(1.02628 0.202766 1.40941e-20)
(1.00083 0.0118447 -6.85825e-21)
(1.15111 0.0700444 -1.49338e-20)
(1.00704 0.00148218 0)
(1.08981 0.242262 -3.27955e-20)
(1.05424 0.00215837 0)
(0.501679 0.27845 -1.0386e-19)
(0.514604 0.667725 5.29281e-20)
(0.214337 -0.0301696 -1.33736e-20)
(1.00975 0.000314367 -3.90384e-22)
(0.999691 0.00318782 -4.55668e-21)
(1.16002 0.110095 4.71323e-20)
(1.12488 0.10318 -9.53101e-23)
(0.12009 -0.0209914 -3.30793e-20)
(0.338429 -0.0472943 5.49052e-20)
(1.1399 0.0174862 5.33301e-20)
(0.993155 0.0114209 0)
(1.23656 0.0214398 2.82325e-20)
(0.36612 0.214409 3.37009e-19)
(1.09773 -0.0428812 -3.91914e-20)
(1.23684 0.0565788 1.01375e-19)
(1.13093 0.0060666 5.11082e-20)
(0.635785 -0.0328313 2.85506e-20)
(1.08692 0.120273 -1.40745e-20)
(1.07644 -0.0404868 1.88074e-20)
(1.20436 0.0252397 4.79894e-20)
(0.866732 0.438047 1.26723e-20)
(1.13888 0.0218071 -3.9022e-20)
(0.314311 0.315395 -2.16646e-19)
(1.13935 0.0282407 2.36077e-20)
(1.05591 -0.00832356 -1.06671e-20)
(1.12338 -0.0413576 -3.43137e-20)
(1.00973 0.105715 -1.01544e-21)
(1.03155 0.00360545 2.1281e-20)
(1.07336 -0.0199196 6.29372e-21)
(1.11007 0.118529 4.14589e-20)
(1.0508 0.0929154 1.63227e-21)
(0.999725 0.0119347 0)
(1.00629 0.000575998 0)
(1.13019 -0.0163224 4.67339e-20)
(1.06108 0.0075229 -2.05863e-20)
(1.15906 0.00959513 5.27834e-21)
(0.993874 0.0106289 0)
(0.995531 0.00820095 0)
(0.999966 0.000909461 6.61418e-23)
(1.02518 0.0610365 1.79509e-22)
(1.02128 0.000672423 -6.14037e-21)
(1.05149 0.0775737 1.31853e-20)
(1.00384 0.0026477 -3.15758e-22)
(-0.149225 -0.0087949 0)
(1.09 -0.0476014 0)
(0.479618 -0.293231 -1.52456e-20)
(1.01162 0.00472576 4.718e-22)
(1.0001 0.0017954 5.64973e-21)
(0.809532 0.144594 -5.2268e-20)
(1.15672 0.0562999 -8.37554e-20)
(0.956492 0.0033916 0)
(0.91265 0.0148223 9.806e-20)
(1.1329 0.187307 8.0725e-20)
(1.17622 0.128827 -1.22126e-19)
(1.07501 -0.0186312 -8.39699e-21)
(1.18749 -0.0011512 3.51712e-20)
(1.04972 0.0127293 8.96719e-21)
(0.999857 0.00136555 6.28972e-21)
(1.00544 0.00220835 0)
(1.03645 0.0541886 -1.67404e-20)
(-0.260201 -0.000574193 -1.27065e-19)
(1.00013 0.00141784 -8.02382e-21)
(1.22065 -0.0481342 3.52897e-20)
(1.05273 0.0805412 0)
(-0.150647 0.0211394 -8.33804e-20)
(0.979773 0.207636 -7.31135e-21)
(1.13986 0.183694 -4.58324e-20)
(1.10023 -0.0620786 5.26451e-21)
(1.01959 0.00571987 0)
(1 6.51719e-05 0)
(1.09122 -0.0468126 0)
(0.988703 0.00367396 0)
(0.98721 0.0404788 6.25572e-21)
(1.04996 0.0192931 0)
(1.01433 0.0551427 3.48609e-22)
(0.998714 0.00130127 2.89522e-21)
(1.08462 0.0493155 -3.56573e-20)
(1.00619 0.0076735 -5.6744e-22)
(1.01505 0.000695941 -2.20365e-21)
(1.05737 0.0915934 -9.52263e-21)
(0.888643 -0.0197878 0)
(0.100297 -0.0148628 -1.90273e-20)
(1.08073 0.105435 2.42e-21)
(1.03725 0.000264692 8.72928e-21)
(1.00845 0.00106362 0)
(0.113672 -0.0501763 3.70193e-20)
(0.973275 0.335476 0)
(1.00301 0.0396695 -4.35744e-21)
(1.01905 0.0425174 -5.20304e-22)
(1.01022 0.0222407 -1.56396e-19)
(1.19963 -0.090376 6.10547e-20)
(-0.242711 -0.00199294 1.29975e-19)
(0.903411 0.132367 0)
(1.05682 -0.0075849 5.30778e-21)
(1.01112 0.00297239 -1.10739e-21)
(1.01529 0.000925707 4.46958e-21)
(1.09076 -0.0378835 -4.06127e-22)
(1.08701 0.102665 -1.42486e-21)
(1.11545 -0.0865375 -3.40826e-20)
(0.920172 0.0209178 0)
(0.230787 -0.033549 -2.52481e-20)
(1.02815 0.040782 8.45946e-21)
(0.968 0.0569204 1.5037e-20)
(-0.255112 -0.00208256 -1.49748e-19)
(0.995847 0.0100503 0)
(1.08748 0.0117618 -3.09309e-20)
(1.00541 0.0304026 4.64063e-21)
(1.00202 0.00117458 2.20164e-21)
(1.10326 0.123248 4.44975e-21)
(0.780323 0.0061513 -5.6928e-20)
(1.0479 0.0255348 0)
(0.744553 -0.0603833 0)
(0.376481 -0.00772187 -2.59134e-20)
(1.1731 0.128256 2.04774e-20)
(1.00232 0.0173166 9.84077e-21)
(1.02329 0.00175915 -3.5777e-23)
(1.09432 -0.0518306 -5.73023e-20)
(1.22053 -0.0472292 -5.19104e-20)
(1.00008 0.000419395 2.76839e-21)
(1.23603 -0.0500347 7.2958e-20)
(1.02283 0.00215718 0)
(1.10718 0.108864 -3.63126e-20)
(1.03174 -0.00261512 0)
(1.03274 0.00466059 -1.91524e-20)
(1.23572 -0.0170362 6.24339e-20)
(1.03888 0.0139176 -1.75575e-20)
(1.04002 -0.0404505 0)
(1.11353 0.0821402 -4.20515e-21)
(0.999956 0.000934482 8.1222e-21)
(1.01874 0.00296601 0)
(0.982406 0.00163364 1.24132e-20)
(1.00935 0.0190921 0)
(1.04959 -0.00816468 -6.08567e-21)
(0.522175 0.642625 -8.05413e-20)
(1.03634 0.00250669 1.70554e-20)
(1.02941 0.00892691 -7.97047e-21)
(0.433624 -0.083752 0)
(0.686935 -0.0845044 6.50542e-22)
(1.08974 -0.0289305 1.14779e-20)
(1.11669 0.112533 0)
(1.14944 -0.00167083 -7.99489e-20)
(1.07515 0.0195531 4.34644e-20)
(1.02351 0.0132347 0)
(0.892105 0.0207759 -2.22497e-20)
(-0.124036 -0.0123352 1.0086e-19)
(1.0995 0.245995 0)
(0.998466 0.00542956 6.9084e-21)
(1.03516 0.0341731 1.16408e-20)
(0.374166 -0.0514015 0)
(1.11313 0.0153185 3.82034e-20)
(-0.0549865 -0.00902715 3.57513e-20)
(0.999961 0.00115136 -8.98731e-21)
(0.953799 0.00479978 1.86216e-20)
(0.166164 -0.0129697 1.93556e-20)
(1.10444 0.0101565 5.2454e-20)
(1.04994 0.0244139 0)
(-0.259444 0.00141032 2.62263e-19)
(0.212858 0.255539 1.65687e-19)
(1.00963 0.0188868 0)
(1.20033 0.0241963 0)
(1.00579 0.00206713 0)
(1.03731 0.0139616 1.78055e-20)
(1.01183 0.00491298 0)
(-0.105512 -0.0118393 3.47402e-20)
(1.02089 0.000342896 7.64264e-23)
(1.03606 -0.00483888 7.83163e-21)
(1.02402 0.0128829 0)
(0.991778 -0.0405421 0)
(1.05841 -0.0152695 1.54667e-20)
(1.22653 0.147166 -2.73931e-20)
(0.712203 -0.0953918 8.47787e-20)
(1.03313 0.00321035 -2.69677e-21)
(0.851862 0.0312008 -1.45315e-20)
(1.00062 0.00372273 2.36292e-21)
(-0.0929998 -0.00753872 3.867e-20)
(1.00528 0.00983745 -1.8248e-21)
(1.03697 0.00181266 -1.38643e-20)
(0.998774 0.00179811 0)
(1.09444 -0.0518974 8.05305e-20)
(0.998552 0.0017456 4.31395e-22)
(1.19669 -0.0137349 3.47893e-20)
(0.369434 -0.00439175 1.38024e-20)
(0.822123 -0.0854811 1.43742e-20)
(0.90989 0.0285984 -4.56685e-20)
(1.09477 -0.0794086 1.41703e-20)
(-0.206641 -0.00271898 -7.52776e-20)
(0.997429 0.0260628 0)
(0.231744 -0.009973 1.37851e-20)
(0.535188 0.0440158 -1.69576e-19)
(-0.186313 -0.00342286 -5.02728e-20)
(0.424381 -0.0170239 -1.72873e-23)
(0.410264 -0.083206 2.06269e-20)
(0.365394 0.261893 -1.17825e-19)
(1.19722 0.000882211 0)
(1.01152 0.0463575 1.0922e-21)
(0.588677 -0.0363675 0)
(1.10398 0.0114568 -3.63729e-20)
(0.544368 -0.0552633 -1.46652e-20)
(1.02761 0.00313842 5.19839e-21)
(1.02336 0.0212399 0)
(1.00427 0.0416424 8.43694e-21)
(1.00064 0.00388124 0)
(1.07982 0.0174519 2.74193e-20)
(0.897621 0.0880414 -8.17914e-21)
(0.183442 -0.0232427 2.9661e-20)
(1.02315 0.0205701 0)
(0.994283 0.00376834 -1.20039e-20)
(-0.180662 0.0160902 -1.62614e-19)
(0.995902 0.418092 -6.16339e-22)
(0.982354 0.00141101 0)
(0.819804 -0.0432385 4.85872e-20)
(1.0921 0.0546864 0)
(1.04362 0.0190026 5.58696e-21)
(0.553019 0.742859 0)
(0.815854 -0.0637812 0)
(0.95501 0.0478992 2.07782e-20)
(1.05887 -0.0161062 -1.58804e-20)
(0.353361 -0.00528531 2.7352e-20)
(-0.238567 -0.00260499 1.4784e-19)
(0.219376 0.0814041 -2.56892e-19)
(1.03138 -0.00198696 0)
(1.2341 0.134669 6.11695e-20)
(1.1929 0.0794471 -1.84899e-20)
(-0.178744 0.00130785 -8.12158e-20)
(0.471837 -0.0574838 -5.22401e-20)
(1.09261 -0.0519401 0)
(1.01525 0.0243217 1.81902e-23)
(1.0507 0.0139327 -9.11516e-21)
(1.02694 0.0422661 -7.94706e-21)
(1.01738 -0.000184462 4.33026e-21)
(1.02696 0.0623113 -3.7026e-21)
(1.01571 0.00134328 2.26288e-21)
(1.04726 0.089707 3.97302e-21)
(1.08077 0.124545 3.23691e-20)
(-0.00351051 0.0302329 0)
(1.14849 -0.0537889 0)
(1.03656 -0.00458301 -1.27652e-20)
(1.18347 -0.00488815 -3.21729e-20)
(-0.033559 -0.013109 6.29907e-20)
(1.10088 0.112418 5.97884e-20)
(0.973826 0.0244226 1.49812e-20)
(-0.080171 -0.0135068 7.64191e-21)
(1.02942 0.0182258 -4.64567e-21)
(0.988051 0.0397146 1.17413e-20)
(0.82754 0.0652162 -3.31458e-21)
(0.0422637 0.0373332 0)
(0.998486 0.000268125 -1.28395e-20)
(1.0042 0.0194363 -2.39842e-21)
(0.580569 -0.0719632 -3.57573e-20)
(1.09482 -0.0778475 0)
(1.18258 -0.099219 -1.65137e-19)
(1.16544 -0.0249551 -5.95355e-20)
(1.08886 -0.0713721 -2.76941e-20)
(1.00786 0.0177431 0)
(1.20952 0.00298173 -1.12351e-19)
(0.973264 0.0241903 0)
(1.00369 0.0102005 2.70257e-21)
(0.97104 0.0222152 0)
(0.680107 -0.0490297 3.41516e-20)
(-0.223939 -0.00275015 -7.54613e-20)
(1.03047 0.00761461 0)
(1.0192 0.00272288 1.72127e-21)