/*--------------------------------*- C++ -*----------------------------------*\
| =========                 |                                                 |
| \\      /  F ield         | OpenFOAM: The Open Source CFD Toolbox           |
|  \\    /   O peration     | Version:  v2012                                 |
|   \\  /    A nd           | Website:  www.openfoam.com                      |
|    \\/     M anipulation  |                                                 |
\*---------------------------------------------------------------------------*/
FoamFile
{
    version     2.0;
    format      ascii;
    class       volScalarField;
    location    "250";
    object      k_0;
}
// * * * * * * * * * * * * * * * * * * * * * * * * * * * * * * * * * * * * * //

dimensions      [0 2 -2 0 0 0 0];


internalField   nonuniform List<scalar> 
13749
(
0.0115189
0.000154788
0.00016975
0.000150636
0.0452321
0.000133497
0.0235823
0.000143676
0.000203501
0.000150736
0.000133203
0.000169609
0.000170689
0.0325073
0.00015286
0.0320713
0.00019983
0.000153504
0.00354373
0.000145234
0.0361081
0.052187
5.70769e-05
0.000159512
0.000167399
0.000138937
0.000161771
0.000194643
0.0526008
0.0322825
0.00269763
0.000166337
0.000203939
0.000153188
0.00926587
0.0292198
0.0561977
0.000158578
0.0093631
0.0207175
0.000144364
0.000207426
0.000151335
0.0527726
0.000145754
0.000152241
0.00015041
0.000192737
0.000179778
0.000159437
0.000159723
0.000151704
0.0206276
0.000151253
0.000156593
0.0282717
0.0541399
0.000164403
0.000152416
0.000195079
0.000165544
0.000171627
0.000131377
9.54502e-05
0.000186561
0.00327103
0.000166871
0.000115496
0.0240423
0.00888534
0.000170834
0.000669959
0.000159782
0.0514038
0.000156216
0.0371818
0.000143516
0.000133799
0.0237454
0.000155314
3.84914e-06
0.000171321
0.00018563
0.000147108
0.0615932
0.000138872
0.0247035
0.000167719
0.0388898
0.000185607
0.000161099
0.000168837
0.000132911
0.000151184
0.000157322
0.0440335
0.0167887
0.000187144
0.0215069
0.000145836
0.000164859
0.0242509
0.000162792
0.000206217
0.000132776
0.000143957
0.000160309
0.00135164
0.000135653
0.0343819
0.000158529
0.00134604
0.0205598
0.000158252
0.000191605
9.81715e-05
0.000142914
0.000168793
0.000194184
0.000158893
0.000145605
0.000152505
0.000140114
0.000148161
0.000146498
0.0541939
0.000155338
0.000144484
0.000147992
0.00750665
0.000150414
0.024483
0.000191859
0.0205966
0.000206788
0.0513594
0.0329177
0.000192948
0.00015094
0.000146393
0.0368946
0.00014739
0.000146554
0.0079984
0.000160786
0.000141271
0.0408089
0.0236042
0.0507735
0.048584
0.000146911
0.0346305
0.000138982
0.000237133
0.0572086
0.000143554
0.0168189
0.000445285
1.58309e-05
0.000152814
0.000171959
0.000132511
0.00100871
0.000146985
0.00103463
0.000162177
0.000145552
0.000143897
0.0471064
0.000535033
0.00015051
0.000132404
0.0557513
0.0365502
7.72892e-05
0.000161584
0.000207005
0.000130298
0.000193867
0.0401747
0.00015609
0.000172662
0.000209045
0.00863177
0.000170563
0.000146887
0.00015141
0.000148551
0.00741283
0.00015777
0.0464776
0.00019812
0.000153934
0.000171306
0.000138703
0.000146571
0.000193774
0.000184911
0.000177754
0.000318961
0.0260861
0.000171001
0.0580544
0.022105
0.000143023
0.0184734
0.000206957
0.0573668
0.000145908
0.000145522
0.000156153
0.0157564
0.000164073
0.000155369
0.0155241
0.00494278
0.000172472
0.0259214
0.000151912
0.000147062
0.000145296
0.0336474
0.000205563
0.000155807
0.00428779
0.0488491
0.00794414
0.000117412
0.0184835
0.000151184
0.00422876
0.00682706
0.000151234
0.000138908
0.000146706
0.000134717
0.0432021
0.000178847
0.000229309
0.000153238
0.0170782
0.00180369
0.000151077
0.000188602
0.000144575
0.000142291
0.00015513
0.000155744
0.000530065
0.000152207
0.000144055
0.000144631
0.0481492
0.0344953
0.000281939
0.000141449
0.0380073
0.000203182
0.000149423
0.000142549
0.015988
0.0594127
0.000159073
0.000181383
0.000157002
0.000134932
0.000141715
0.000242336
0.050697
0.000146054
0.00015187
0.000164947
0.0328795
0.0160434
0.000180868
0.0234797
0.00259354
0.000167553
0.0500197
0.000155484
0.00232378
0.00801162
0.0342115
0.000172002
0.00483198
0.000145813
0.000222479
0.000498696
0.000140982
0.0158616
0.0486718
0.00020499
0.000172138
0.000169734
0.0598996
0.0582851
0.000150748
0.00015637
0.0151509
0.000143978
0.0605898
0.000228877
0.0441645
0.000164423
0.000194203
0.0399359
0.0515703
0.000153726
0.0468549
0.000141107
0.000148069
0.000178787
0.0160874
0.000178584
0.000186045
0.000158589
0.000287291
0.000148179
0.000205978
0.000145097
0.000147479
0.000146111
0.000164856
0.00371321
0.000159657
0.000172979
0.0383608
0.000147353
0.000152544
0.0531328
0.0597036
0.000156894
0.000139301
0.00985547
0.000159409
0.00014337
0.00373742
0.000143341
0.0289649
0.0184198
0.000133286
0.0322865
0.0102367
0.000169599
0.000140145
0.000187582
0.000179557
0.000170039
0.000142264
0.0082759
0.00016445
0.0268129
0.000165132
8.20486e-05
0.000178669
0.000179803
0.000148673
0.000105049
0.000163385
0.00367383
0.000148646
0.000185214
0.000192254
0.0413462
0.000140675
0.00115537
0.000139105
0.000196494
0.000144211
0.000150011
0.000184596
0.000140561
0.000150066
3.23647e-05
0.000155954
0.000146622
0.000146193
0.000164937
0.0329404
0.00018562
0.000151187
0.000146264
0.000138604
0.00647592
0.000190568
0.00251615
0.032292
0.000187498
0.0277826
0.0441946
0.000143663
0.000143949
0.000163929
0.0084123
0.0297099
0.000143947
0.000152348
0.000151368
0.0457507
0.000149759
0.000186285
0.000155604
4.87049e-05
0.000214248
0.00326106
0.00642758
0.0618058
0.000148168
0.000698466
0.0163652
0.000141089
0.000282852
0.00015545
0.00542051
0.000132288
0.00839722
0.0347213
0.000157604
0.0227039
0.0378295
0.000142379
0.000166403
0.0354683
0.000171734
0.000163639
0.000154164
0.000144777
0.000164102
0.000148494
0.000151167
0.000190524
0.000166239
0.000157413
0.000140782
0.000154898
0.000164967
0.00014966
0.0123873
0.00014669
5.35055e-05
0.0128048
0.0410829
0.00016303
0.033719
0.0200323
0.0304138
0.000176237
0.000151136
0.0419726
0.00520412
0.000185548
0.000201008
0.000139664
0.000147973
0.000149474
0.000171825
0.000148026
0.0475468
0.0377998
0.063866
0.000146837
0.000151655
0.0169244
0.000146298
0.0398514
0.0148671
0.000158469
0.000183071
0.000189239
0.0311357
0.000168154
0.0292859
0.000142616
0.000158778
0.00014731
0.0223205
0.000248917
0.000214395
0.000162293
0.0142915
0.000147503
0.000158856
0.000142402
0.000151049
0.000142478
0.000145275
0.000152404
0.000146273
0.000174989
0.0199501
0.000141264
0.000225443
0.000204131
0.000146971
0.0598018
0.0220723
0.0504778
0.000164598
0.00167771
0.000189365
0.0080254
0.000174761
0.00017939
0.000145622
0.0583982
0.000144983
0.000148075
0.0205279
0.0198456
0.000150949
0.00795341
0.0453055
0.000167245
0.0215576
0.0321525
0.000137196
0.0443024
0.000147666
0.0478947
0.0046573
0.000152792
0.000145196
0.0200846
0.000161263
0.000142471
0.0443006
0.0612019
0.00581483
0.000167395
0.0115081
0.000154732
0.000156756
0.0303486
0.0204997
0.000173759
0.0415964
0.0383549
0.000157245
0.052307
0.000161521
0.000142702
0.030668
0.0381228
0.00017907
0.000152203
0.053943
0.000163833
0.000146582
0.031944
0.0209587
0.0609562
0.000149139
0.0554213
0.000176652
0.0170311
0.000148276
0.000167184
0.045827
0.000164362
0.000168238
0.000150681
0.0195965
0.010056
0.000133447
0.000748453
0.00015159
0.0123019
0.00532528
0.000155063
0.000192609
0.000148451
0.000155284
0.0500677
0.000205148
0.000161351
0.0379806
0.000191202
0.0310099
0.000163951
0.000151236
0.0170718
0.000163449
0.00018312
0.023097
0.000157936
0.00638696
0.00568915
0.000167893
0.056928
0.000179455
0.0239298
0.000206259
0.00457449
0.000254962
0.000276585
0.00902681
0.000217786
0.0605451
0.0513279
0.000163883
0.00899647
0.000146142
0.0574793
0.0485632
0.0365466
0.0347651
0.000147108
0.000145021
0.000152317
0.00593927
0.000150702
0.000179104
0.000183236
0.000375298
0.000189119
0.000301982
0.000163567
0.000190482
0.0292894
0.000157478
0.000153966
0.0160679
0.00040605
0.000146096
0.00518828
0.000168565
0.0510436
0.000146371
0.00018026
0.000139813
0.000159419
0.0285547
0.000204417
0.000204629
0.000184517
0.0320936
0.000140942
0.000159321
0.000148183
0.0219073
0.000266886
0.0219309
0.0266195
0.0325023
0.000146107
0.0456808
0.000151419
0.00102866
0.000161144
0.000190801
0.0600196
0.000874063
0.00805265
0.000203988
0.000159906
0.000194514
0.000143041
0.000229029
0.00654301
0.00589724
0.000155933
0.00472134
0.0397695
0.0448686
0.0302869
0.0413931
0.0386119
0.0321419
0.000145813
0.000174206
0.00019224
0.000183268
0.000184514
0.000138403
0.000153007
0.000150584
5.10266e-05
0.000158855
0.0460004
0.00802881
0.000142965
0.000153551
0.027164
0.0516744
0.0179765
0.000155622
0.0180251
0.000144822
0.000152267
0.031375
0.00019231
0.0603381
0.000145083
0.000133351
0.0599663
0.000162849
0.0534926
0.000147343
0.0562776
0.00017928
0.000168042
0.000144174
0.000673039
0.000139143
0.0547707
0.000164404
0.00650211
0.00292575
0.00014745
0.000143775
0.00924207
0.0313397
0.000146483
0.0353776
0.000139291
0.000176515
0.000155362
0.0159517
0.0282093
0.00848473
0.000149427
0.000151301
0.00020371
0.000148993
0.000151276
0.00620724
0.000142935
0.0294899
0.00014284
0.0484547
0.009379
0.000169034
0.060016
0.050903
0.000189589
0.000156663
0.0173274
0.000222215
0.0217288
0.000158872
0.0013288
0.00907764
0.000150728
0.000205905
0.000144968
0.0341662
0.000195313
0.00014379
0.000159024
0.000165191
0.00532818
0.000150669
0.000183126
0.000165226
0.0334785
0.000145851
0.000142507
0.000172312
0.048627
0.000145487
0.000145677
0.000137383
3.87436e-05
0.000178031
0.04696
7.36632e-05
0.0471991
0.0390449
0.000696591
0.0505908
0.000135869
0.0347993
0.000234919
0.000166766
0.000157645
0.000230114
0.00478169
0.0308109
0.0398858
0.00267852
0.000142173
0.0110746
0.0184276
0.000135488
0.000174964
0.000158135
0.000158656
0.00014709
0.000150053
0.0334949
0.000146778
0.000148698
0.00014695
0.000140355
0.000159625
0.00929794
0.000239761
0.020245
0.0409993
0.0327366
0.0372741
0.0239168
0.000139222
0.026509
0.000145663
0.00026576
0.000147102
0.000138853
0.0596977
0.000141781
0.000190144
0.000150693
0.0320831
0.0404633
0.000138213
0.0522984
0.000151649
0.02987
0.0456106
0.000157827
0.000144592
0.000141701
0.000184867
0.000209884
0.000183596
0.000142274
0.000136889
0.000137765
0.000191925
0.0474388
0.000175078
0.000671915
0.0579003
0.000167043
0.0604068
0.000151142
0.00418983
0.000147873
0.000150468
0.000163777
0.048469
0.000153035
0.00016849
0.000200151
0.00014099
0.00016929
0.000143955
0.0525253
0.0396909
0.000154864
0.000139211
0.0620049
0.00315553
0.000135963
0.000151914
0.000151365
0.000157538
0.000136625
0.0513824
0.000143294
0.000187936
0.0356431
0.0204841
0.00571176
0.000161395
0.0301766
0.000206481
0.0315875
0.0406545
0.000146026
0.000153835
0.000741396
0.000144507
0.000151909
0.000225688
0.000155344
0.00260594
0.000175864
0.000155393
0.0231258
0.000158508
0.000165059
0.000154111
0.0001417
0.000150323
0.049955
0.000163563
0.00016546
0.0264421
0.00547833
0.000143395
0.000552526
0.0441988
0.000135576
0.000148453
0.000183465
0.000153593
0.0542778
0.000163175
0.000203634
0.000154845
0.000208487
0.000151244
0.000145084
0.000146907
0.000162378
0.000189611
0.000145639
0.000169401
0.000144617
0.000161478
0.00015369
0.000161625
0.000158225
0.000151521
0.000177329
0.000131951
0.0430293
0.000152573
0.00015157
0.0531496
0.000196806
0.000149333
0.000160048
0.000171628
0.000139046
0.000240288
0.05265
0.0001472
0.000146042
0.0203248
9.63672e-05
0.00106298
0.000155225
0.0252415
0.000134619
0.0554257
0.000152983
0.0397782
0.000180892
0.000177478
0.00014878
0.000163329
0.0347875
0.020567
0.000138546
0.0101333
0.0322601
0.000158305
0.000144564
0.0270948
0.00483778
0.000142188
0.000162694
0.000123169
0.000179978
0.00013991
0.0270354
0.0355468
0.000157409
0.0122783
0.000153196
0.0345806
0.000175607
0.000146272
0.000139882
0.000154542
0.0298062
0.000147408
0.000153344
0.000166625
0.000228483
0.000167623
0.0444004
0.000144757
0.000143827
0.000158108
0.0483646
0.00013658
0.0566131
0.0313156
0.000139174
0.000135776
0.000138878
0.000146179
0.000143871
0.000222248
0.00462835
0.021116
0.000139366
0.0168264
0.000153845
0.000162249
0.000159096
0.000158499
0.000146155
0.000149301
0.000148777
0.000143196
0.0372676
0.000146388
0.000138241
0.000169748
0.00883721
0.000145113
0.000178673
0.000136591
0.039153
0.00015839
0.0305311
0.0587396
0.000153202
0.05962
0.00926369
0.0287121
0.0496824
0.000145508
0.000136169
0.0278929
0.00332926
0.0323243
0.0234777
0.000149173
0.00017393
0.00789083
0.000148912
0.00019711
0.000183427
0.0001448
0.0429248
0.00974779
0.000155714
0.000142306
0.000214845
0.0568842
0.00293676
0.0582426
0.000139633
0.000208444
0.000144771
0.000148961
0.00957371
0.00014471
0.0498671
0.000162729
0.0503935
0.000144003
0.000181516
0.00408891
0.00349337
0.0103509
0.0309484
0.000134058
0.000148275
0.000138264
0.0515693
0.0615402
0.000154593
0.000146714
0.000185183
0.0403895
0.000177115
0.000153498
0.000145219
0.000152249
0.000149071
0.000133721
0.000186933
0.000175035
0.000146807
0.00226613
0.00015295
0.00490197
0.00017115
0.000182568
0.000222378
0.000142877
0.0305699
0.000145208
0.00515422
0.000155827
0.000145592
0.000163608
0.0298826
0.000148693
0.000143659
0.00018616
0.000197307
0.000200517
0.0292124
0.000166245
0.000156539
0.0117351
0.000140283
0.000147602
0.000138705
0.000162336
0.000152678
0.000152277
0.0149149
0.0104281
0.0649872
0.000170714
0.00014513
0.000177133
0.00123265
0.0478798
0.000147738
0.00718026
0.000197283
0.0438852
0.000160171
0.000137401
0.000159217
0.0283521
0.000158459
0.000169343
0.00836697
0.000151238
0.000165349
0.0376656
0.000145092
0.000153735
0.000163531
0.037594
0.00869663
0.034394
0.0358515
0.000208614
0.000136512
0.000151862
0.000143755
0.000872113
0.0550166
0.000153429
0.00369098
0.000147139
0.000209441
0.000169086
0.000200402
0.000160469
0.000163678
0.000220336
0.0202402
0.000154282
0.000137143
0.000191911
0.000147751
0.00934047
0.000150802
0.000156702
0.000164997
0.0327163
0.0439948
0.000140173
0.000145708
0.00992177
0.000156722
0.0163036
0.000163042
0.000149185
0.0414367
0.00719929
0.000148611
0.000138399
0.000151317
0.0606672
0.000145249
0.000263196
0.000217068
0.000163869
0.000144731
0.000166522
0.0229365
0.00014565
0.029676
0.00701708
0.000172435
0.000199494
0.000112369
0.000120861
0.0122387
0.000175732
0.0451627
0.0574519
0.000163345
0.000157531
0.000143098
0.000176659
0.000105386
0.000148854
0.000148005
0.000154872
0.00013694
0.00395774
0.000143928
0.000200867
0.00132824
0.00015357
0.000213612
0.0419204
0.000136688
0.000148034
0.000147133
0.0002206
0.000157908
0.000169243
0.000166005
0.0070374
0.000170195
0.00292772
0.0398122
0.00411966
0.0407965
0.000150702
0.00891414
0.0302795
0.000166602
0.000145663
0.000221245
0.000147176
0.0567571
0.000184167
0.0180947
0.029538
0.000145215
0.028345
0.000149249
0.000158209
0.000159744
0.0381762
0.0357007
0.0465224
0.0545513
0.0609244
0.000144188
0.0563011
0.000163111
0.000144319
0.000183995
0.000165937
0.0250556
0.00192718
0.00334363
0.000193629
0.000213282
0.000133822
0.0498019
0.0406155
0.00020214
0.000139574
0.000138192
0.000187892
0.000156164
0.000156717
0.000220559
0.0284543
0.000136821
0.000151463
0.000136635
0.000152419
0.000147701
0.000139121
0.0265996
0.000218484
0.00560072
0.00016523
0.00183082
0.000220365
0.00014429
0.0382282
0.000179143
0.00537785
0.000149868
0.000192228
0.000160456
0.000161441
0.000148526
0.000172393
0.000169876
0.000872592
0.000198593
0.0191383
0.0264583
0.00015886
0.000203084
0.0512268
0.000141877
0.000163383
0.000189909
0.0353254
0.000184467
0.000148694
0.0236147
0.00014581
0.00726848
0.0339847
0.000139274
0.000149183
0.00428194
0.000144256
0.000163701
0.000221757
0.0155016
0.000204931
0.0320058
0.000160057
0.000136853
0.0325089
0.000159285
0.00770377
9.61529e-05
0.000158219
0.0567608
0.000145769
0.00109821
0.000180043
0.00653455
0.000197116
0.000177335
0.000135238
0.00343746
0.000173412
0.00386181
0.000223591
0.000186978
0.000154449
0.000165824
0.000150178
0.0274243
0.000152231
0.000219759
0.0381855
0.000159531
0.000161058
0.0462792
0.00014769
0.0032824
0.000221375
0.0474663
0.000168462
0.000136444
0.000187462
0.000143434
0.000178652
0.0617287
0.000150048
0.00689568
0.000179504
0.000159974
0.000148424
0.000134855
0.0328744
0.000146036
0.000144843
0.032682
0.00791505
0.000156572
0.000454976
0.000198072
0.0385572
0.000149368
0.000180268
0.000141661
0.0318683
0.000162192
0.000311157
0.000152504
0.0285518
0.0324716
0.000192137
0.00014797
0.0198305
0.0360495
0.000169588
0.000165967
0.000339695
0.000220727
0.00014653
0.000140672
0.000166317
0.0203859
0.00127641
0.000135844
0.00646792
0.0359453
0.0389814
0.000147186
0.000160221
0.00016722
0.000158049
0.000160168
0.0569878
0.000152705
0.000147097
0.000180469
0.000149209
0.000155692
0.000141118
0.000143683
0.0283521
0.000152118
0.000190456
0.0440231
0.000141555
0.000136113
0.0360216
0.000148229
0.0543184
0.000146937
0.00014582
0.000167803
0.0315498
0.0392673
0.000149856
0.000156199
0.000145383
0.00136365
0.000141498
0.000140841
0.000155599
0.000147819
0.000178272
0.00013714
0.000468355
0.000158623
0.0448543
0.0100541
0.0125061
0.000227703
0.000160539
0.00015172
0.000157479
0.000238944
0.0264894
0.00065339
0.000144061
0.00017148
0.00018619
0.000151363
0.0399916
0.000172744
0.000144533
0.000150984
0.0542532
0.0624959
0.000158644
0.0563345
0.000167853
0.000161422
0.000153507
0.000208224
0.00014548
0.000143575
0.000144443
0.000183572
0.000168303
0.000178517
0.000220391
0.000143277
0.0342756
0.000153373
0.005934
0.0233506
0.00019189
0.0320403
0.000225818
0.000158836
0.000139267
0.000141946
0.000158406
0.0182777
0.00017239
0.000141846
0.00880377
0.0274903
0.0207851
0.000197395
0.000156867
0.000147381
0.000211126
0.0276948
0.000143708
0.0246228
0.000145311
0.000143551
0.0058573
0.000185348
0.0418043
0.000172304
0.000143006
0.000165662
0.000158882
0.000172145
0.0410734
0.000154808
0.000175448
6.50421e-05
0.000186553
0.000157196
0.000153558
0.0392254
0.000205227
0.000191384
0.020593
0.000181539
0.00014711
0.00017427
0.000152188
0.000162104
0.000791632
0.000147551
0.00016522
0.00402759
0.000142482
0.00554695
0.0222863
0.000187009
0.0375313
0.0155542
0.0280027
0.000263915
0.00018378
0.000135738
0.0422043
0.000165939
0.0563864
0.000138784
0.000142559
0.000149071
0.0448473
0.00763879
0.00520947
0.000152422
0.0278913
0.0394596
0.0323217
0.000203397
0.00184125
0.0274315
0.000274762
0.0283325
0.000164772
0.000201294
0.000172849
3.64065e-05
0.000172133
0.0325982
0.0051434
0.000152323
0.000198587
0.000149726
0.0268039
0.0185792
0.000148618
0.000162451
0.000210818
0.0315177
0.000165432
0.000141688
0.000146624
0.000144575
0.000221836
0.0497502
0.000149734
0.0176924
0.000145495
0.00014229
0.00016898
0.0394922
0.00400382
0.00014488
0.000155831
0.000135883
0.00570244
0.028219
0.000144893
0.000148285
0.0354842
0.000150793
0.000142974
0.00016281
0.0233706
0.000156243
0.000140709
0.000280051
0.000136779
0.000157142
0.00617577
0.035888
0.000158562
0.000142879
0.0001329
0.0226437
0.000142714
0.000227716
0.034794
0.000148125
0.0494026
0.0547146
0.000206292
0.000142657
0.000121022
0.0331377
0.000155897
0.000175538
0.00014762
0.000180117
0.000172963
0.000179877
0.00121801
0.000145792
0.00178244
0.000320158
0.0594386
0.000159002
0.000156568
0.0557452
0.000139669
0.0581743
0.0337581
0.00015748
0.000148632
0.000146283
0.000165323
0.00015934
0.0253008
0.0331311
0.000165607
0.00014699
0.000125039
0.000141681
0.00641898
0.00015293
0.0431543
0.000186761
0.00737267
0.00352116
0.000168032
0.0250257
0.0183589
0.0327933
0.045309
0.000151348
0.000171496
0.000131828
0.000473334
0.0238339
0.000138012
0.00364357
0.00846852
0.000636704
0.0341006
0.000184713
0.0317339
0.000148345
0.000218004
0.0001562
0.000205343
0.000480404
0.0571186
0.000151737
0.000134275
0.036997
0.00014571
0.00672257
0.000149013
0.00869966
0.045736
0.000162232
0.000157543
0.00749822
0.000155388
0.000145942
0.0163795
0.000526322
0.000165315
0.000146244
0.0589908
0.000206348
0.000146612
0.000194078
0.000193767
0.0325709
0.0311302
0.00783907
0.000385372
0.000204879
0.000140691
0.000201174
0.0394666
0.000162316
0.000178195
0.000134778
0.000160311
0.000143829
0.000144904
0.000205203
0.0106206
0.0664489
0.01599
0.0476936
0.000168068
0.000204557
0.000141431
0.0323937
0.0070497
0.00323924
0.00484598
0.0188554
0.000164479
0.000178129
0.000139143
0.0297586
0.000144301
0.000151549
0.000155581
0.000165968
0.00836221
0.00443038
0.0107775
0.000139268
0.00894928
0.0357432
0.000145866
0.000145293
0.000202983
0.0242473
0.000156584
0.000158119
0.0264105
0.000143744
0.000171443
0.00017073
0.000141436
0.000139487
0.000158575
0.000141408
0.00523559
0.000143476
0.000140139
0.000169787
0.00526534
0.00017867
0.0287271
0.000172145
0.000175954
0.000178508
0.000157616
0.00527609
0.000187117
0.00783204
0.0461991
0.0122101
0.00915507
0.00014803
0.0549158
0.000201595
0.000178868
0.0415827
0.024091
0.0327346
0.000157695
0.000154848
0.05285
0.0323663
0.000162445
0.000153291
0.000161101
0.000172007
0.0315453
0.0001436
0.000157642
0.0414781
0.000144784
0.0481426
0.00017644
0.000141309
0.000163088
0.000148614
0.0272669
0.0181846
0.000221112
0.025103
0.00014565
0.000147082
0.000146123
0.000198998
0.000146491
0.000159499
0.000154451
0.000158681
0.0228236
0.000145272
0.0101766
0.0310738
0.016192
0.00901186
0.000197968
0.000167486
0.000168046
0.00940532
0.00882363
0.0001618
0.00411197
0.0140844
0.0128671
0.000148919
0.0117779
0.000148909
0.000144963
0.000158201
0.0001413
0.000182723
0.00476859
0.0339912
0.000210223
0.0153784
0.00407315
0.000146748
0.0187438
0.000154074
0.000154515
0.000153683
0.000142625
0.00620711
0.0113258
0.000162151
0.0123882
0.0317329
0.0220659
0.000155841
0.000155464
0.00833837
0.000170941
0.0285492
0.000201555
0.000228962
0.00529208
0.0563208
0.0392001
0.0135924
0.00982156
0.000196953
0.000191257
0.000144025
0.000147177
0.000153558
0.0295104
0.000155409
0.000197572
0.000181794
0.000144218
0.0628485
0.000156606
0.000160151
0.0379348
0.000196627
0.0296783
0.0393055
0.000192405
0.00052896
0.0307415
0.000147142
0.000181886
0.000217397
0.03607
0.000155768
0.0565162
0.000160429
0.0121541
0.000202254
0.014922
0.000157361
0.0094834
0.000170298
0.000176268
0.0154044
0.000159789
0.000159142
0.0285472
0.0103468
0.000145819
0.0413784
0.000156335
0.0213019
0.000199816
0.00886386
6.64363e-05
0.0493548
0.000157035
0.00584154
0.000204931
0.0543928
0.000153812
0.0263073
0.000142287
0.000196835
0.000174897
0.000158064
0.0237259
0.000152346
0.000171272
0.00507257
0.00841448
0.000156745
0.0296517
0.0165266
0.00015059
0.042453
0.00017852
0.0307579
0.000174518
0.0249137
0.0312889
0.000145822
0.0405431
0.000177631
0.000141255
0.0146372
0.000166358
0.000171699
0.000167683
0.000151856
0.0349376
0.0196073
0.000184674
0.000149472
0.0576851
0.0454412
0.00575959
0.0201559
0.00015101
0.00328021
0.00303143
0.000149768
0.000143728
0.00015254
0.000407426
0.000145987
0.000153189
0.000449011
0.00865246
0.00686956
0.000168175
0.000193951
0.034917
0.0309708
0.000145019
0.000271416
0.000159248
0.0336523
0.000144378
0.000232975
0.000142794
0.016753
0.00017726
0.0178942
0.000143717
0.000140973
0.0305832
0.0511282
0.0549647
0.000156496
0.000174338
0.000149683
0.000145369
0.000204712
0.000185472
0.000140909
0.00814664
0.0163032
0.00793829
0.000220226
0.000215707
0.000161268
0.000197946
0.00570865
0.000175585
0.000222166
0.000144313
0.000169561
0.00014494
0.0300598
0.00482455
0.000147112
0.000143915
0.0190425
0.000153555
0.00968894
0.0317685
0.000196842
0.000148226
0.000149354
0.000141382
0.00014726
0.000146424
0.045049
0.0302468
0.000192268
0.000167223
0.000138365
0.0352272
0.0433793
0.0024101
0.000142474
0.000144404
0.000154874
0.00022329
0.000146199
0.000159079
0.000141294
0.000146913
0.000141014
0.000143877
0.000217347
0.00014315
0.0208593
0.000170947
0.000175176
0.00015536
0.0534565
0.0397238
0.00015681
0.0216081
0.000221158
0.000206567
0.000157566
0.000196099
0.000194651
0.000217281
0.0346701
0.0395166
0.0287315
0.000150808
0.00395607
0.000145626
0.0356726
0.000144516
0.00608715
0.000152229
0.000150843
0.000155993
0.000146563
0.00015828
0.00633059
0.034199
0.000153134
0.000179276
0.0456284
0.0483651
0.00477602
0.000159903
0.000146825
0.000133193
0.0207299
0.00359843
0.00577294
0.000145002
0.0510931
0.000144594
0.000141876
0.0295694
0.028505
0.000185937
0.042353
0.00812133
0.000234118
0.000145922
0.00014618
0.000216611
0.000145517
0.000139949
0.000144059
0.000189232
0.0329788
0.000150997
0.000173905
0.000219325
0.0397373
0.0280066
0.045727
0.000183717
0.00759056
0.000146734
0.000159833
0.0402054
0.00869008
0.00015282
0.000156676
0.0319794
0.000219312
0.000163246
0.000148998
0.000176711
0.0386163
0.000176319
0.0251325
0.000207348
0.000171601
0.000144199
0.0370546
0.0365091
0.000159898
0.000174318
0.0593342
0.000140382
0.000155838
0.0395791
0.0455817
0.000190948
0.00018097
0.000162271
0.000147423
0.0110958
0.0476535
0.057047
0.0574029
0.000201649
0.000157928
0.000230303
0.022711
0.000161119
0.000163697
0.000152099
0.0352011
0.000156492
0.000147403
0.0563297
0.000198261
0.0314353
0.00266183
0.000169365
0.000199802
0.000144067
0.000141702
0.0341596
0.000191243
0.000149329
0.0444303
0.000144096
0.000167013
0.000136266
0.0598771
0.000220283
0.000143289
3.58926e-05
0.000218759
0.0501831
0.0396454
0.000218188
0.00015693
0.0602542
0.0592726
0.0394376
0.000160949
0.0001459
0.053497
0.0443187
0.000229816
0.0237485
0.0303963
0.000197469
0.000160304
0.0453926
0.00913813
0.000196852
0.000158876
0.0303169
0.0264639
0.000144372
0.00015125
0.000541438
0.0279231
0.0381323
0.000144
0.00014353
0.0314919
0.0378752
0.0143554
0.0463328
0.00473128
0.0392969
0.00017297
0.0023626
0.0119093
0.0532817
0.000133549
0.000142858
0.063049
0.00971294
0.000138665
0.0405249
0.0162237
0.0056753
0.000238472
0.000145166
0.000166779
0.000160682
0.00529597
0.000177634
0.000150656
0.000155486
0.0400428
0.000149435
0.000145159
0.000140848
0.0289501
0.000154445
0.0607527
0.000149517
0.00018596
0.000170766
0.000156428
0.0356421
0.0438011
0.000158579
0.000138251
0.0345724
0.0404075
0.000213661
0.0360854
0.000219748
0.00605112
0.03596
0.000138206
0.0281355
0.0171158
0.000157512
0.000147252
0.00019793
0.0518149
0.049437
0.0376951
0.00506684
0.000185686
0.0569715
0.00592417
0.00019598
0.000147339
0.000188495
0.000138692
0.0332326
0.01084
0.0121869
0.000147303
0.000151057
0.00020183
0.000160558
0.00882759
0.0182249
0.0645222
0.000153236
0.00019811
0.0339545
0.0247981
0.0489969
0.048369
0.0304416
0.00326358
0.000142552
0.0431218
0.0524532
0.05371
0.0405896
0.00520201
0.000146216
0.000190436
0.000160761
0.0236592
0.000176108
0.000174175
0.000152985
0.000201122
0.000187941
0.0294277
0.00018897
0.00811006
0.048338
0.0625891
0.000143796
0.0407129
0.000157503
0.000130525
0.000162679
0.000213483
0.000161298
0.028023
0.000191305
0.000138736
0.000149351
0.03351
0.00015
0.00017531
0.000162919
0.000193142
0.00014458
0.0215226
0.000148954
0.000156137
0.000176564
0.000152505
0.0389096
0.000138857
0.00981936
0.0485491
0.0081653
0.000220464
0.000167805
0.000150959
0.0553091
0.0428579
0.000178724
0.000163552
0.000147389
0.000148575
0.000143718
0.000223871
0.0393757
0.0337575
0.00015954
0.0305626
0.0556049
0.000159855
0.000217146
0.0635646
0.00014347
0.000171771
0.0124832
0.0391863
0.000172987
0.00023124
0.000144785
0.0170016
0.000153579
0.0480095
0.0409226
0.00015057
0.000187382
0.000145825
0.00863349
0.00774572
0.06386
0.000143916
0.000144898
0.0280525
0.000134909
0.000156843
0.000224587
0.0122159
0.00827477
0.0462656
0.0448976
0.000141032
0.000162132
0.0553996
0.0407876
0.000144697
0.0376798
0.000162995
0.000194169
0.000156018
0.000147121
0.000131677
0.000201514
0.000173144
0.0594263
0.000190402
0.00752752
0.000219761
0.016214
0.000232397
0.0001768
0.0402576
0.000149008
0.000174344
0.000188245
0.0410746
0.00992309
0.000203796
0.0347944
0.0176869
0.000187931
0.000174816
0.0409628
0.000145542
0.0349116
0.00014282
0.0559328
0.000158464
0.000174738
0.0178661
0.000189827
0.000221851
0.000153762
0.0348553
0.0620524
0.000143713
0.000178237
0.00425223
0.000145707
0.000147613
0.000204368
0.000153344
0.000148225
0.000178474
0.00760361
0.047435
0.042021
0.000139876
0.000178138
0.000197012
0.000146339
0.00019799
0.000179953
0.000195221
0.0411614
0.000200238
0.000158161
0.000162196
0.000215534
0.0432311
0.0320464
0.000176508
0.0031826
0.0357348
0.0106926
0.000146431
0.00361623
0.044904
0.000145281
0.0576334
0.0411207
0.00137732
0.000157171
0.000197606
0.000199777
0.000178092
0.000137852
0.000176634
0.000150253
0.0178238
0.00129775
0.000174311
0.000594697
0.000170651
0.0335644
0.000178071
0.000172231
0.000179359
0.000155182
0.000199861
0.000164974
0.000141314
0.0411435
0.0341657
0.000166192
0.0408923
0.0459585
0.0389639
0.00014998
0.000179393
0.0632241
0.048466
0.000166152
0.0229356
0.000144248
0.000184997
0.00820412
0.000165775
0.0145781
0.0317233
0.00017334
0.000215105
0.0547127
0.000155188
0.000196541
0.000144892
0.00141217
0.0404063
0.00846656
0.00575252
0.0315425
0.00296553
0.000201889
0.00015183
0.000199766
0.00480284
0.0171976
0.000184325
0.000199643
0.000150453
0.000177979
0.003083
0.0246039
0.000145777
0.000162024
0.000176456
0.000151607
0.000165433
0.000180549
0.000216541
0.000175237
0.0490541
0.0237795
0.0104819
0.000184928
0.0217778
0.000152478
0.000150543
0.000216848
0.0496058
0.000140337
0.0294685
0.044608
0.0236573
0.000146592
0.000146228
0.000189879
0.000201849
0.0487072
0.00969316
0.0215256
0.0477039
0.000177429
0.0393725
0.00771877
0.000168445
0.000186958
0.00342551
0.000176854
0.042466
0.000143466
0.000220297
0.000175339
0.000193251
0.0283582
0.000214226
0.0387811
0.000236148
0.0463661
0.000177339
0.0264162
0.000639266
0.000152052
0.0551057
0.0295125
0.000144864
0.00732415
0.000216277
0.000196933
0.03008
0.000182165
0.000140498
0.0206975
0.000145471
0.000197512
0.0201097
0.000131984
0.000192168
0.000206722
0.000163895
0.0336095
0.00016444
0.000197066
0.0452591
0.000185647
0.0305994
0.000145734
0.0582656
0.0467559
0.000163667
0.000177657
0.000140769
0.00816305
0.0278264
0.00016739
0.000176442
0.000190071
0.000175161
0.0239168
0.000146363
0.000164324
0.000147798
0.000175548
0.000151571
0.0270478
0.000328497
0.000140829
0.0496632
0.000483994