/*--------------------------------*- C++ -*----------------------------------*\
| =========                 |                                                 |
| \\      /  F ield         | OpenFOAM: The Open Source CFD Toolbox           |
|  \\    /   O peration     | Version:  v2012                                 |
|   \\  /    A nd           | Website:  www.openfoam.com                      |
|    \\/     M anipulation  |                                                 |
\*---------------------------------------------------------------------------*/
FoamFile
{
    version     2.0;
    format      ascii;
    class       volScalarField;
    location    "250";
    object      omega_0;
}
// * * * * * * * * * * * * * * * * * * * * * * * * * * * * * * * * * * * * * //

dimensions      [0 0 -1 0 0 0 0];


internalField   nonuniform List<scalar> 
13749
(
2.04966
0.0239438
0.0322213
0.0218201
1.64484
0.0198031
4.35865
0.0212623
0.110593
0.021844
0.0197634
0.0322381
0.0330393
1.23722
0.0222958
1.20558
0.0459356
0.0232696
0.243209
0.021813
2.34684
2.63826
0.0451779
0.0258451
0.0315307
0.0207951
0.0262291
0.0754908
2.64289
2.72813
0.242339
0.0310541
0.113748
0.0223833
0.502432
3.1314
3.40321
0.0243358
0.49833
5.39264
0.0213958
0.126694
0.022803
2.6542
0.0242221
0.0229788
0.0234487
0.0374524
0.0460763
0.0247801
0.025912
0.0246632
5.24063
0.0221017
0.0236218
3.46421
2.70843
0.0295765
0.0246366
0.080205
0.0302127
0.29806
0.0373399
0.0381523
0.0621352
0.306168
0.0307522
0.0792751
4.12907
2.01627
0.0341386
0.124058
0.0249116
2.80734
0.0234772
1.80829
0.0212737
0.0199656
4.42357
0.0241675
0.188131
0.034722
0.0498564
0.0220974
3.32915
0.0205706
1.27305
0.0315329
2.04297
0.0596111
0.0268061
0.472137
0.0197234
0.0452226
0.0239319
2.28405
1.29712
0.0521353
1.89678
0.0215861
0.0293709
2.94315
0.0268521
0.119085
0.0197009
0.0213142
0.0262717
0.97336
0.0202902
2.60548
0.0243104
0.431006
5.13606
0.0242641
0.0684876
0.0309046
0.0211436
0.0316109
0.0759076
0.0244836
0.0212022
0.0457145
0.0209751
0.0215155
0.0218422
2.69216
0.0651846
0.0214002
0.021481
2.51213
0.0233695
1.27646
0.0727479
1.79229
0.128015
2.60395
2.78642
0.0759538
0.0235921
0.0212233
2.47101
0.0223309
0.0212758
1.4506
0.025583
0.020792
2.11603
4.03593
2.81709
2.56822
0.0220664
2.6063
0.0208231
0.113054
2.8178
0.021245
2.8376
0.106166
0.0337208
0.0222915
0.0340084
0.0196591
0.147913
0.0220336
0.14171
0.0268191
0.0217646
0.0212773
2.49781
0.113735
0.0217929
0.0196363
2.77844
2.14554
0.0391957
0.0264848
0.130111
0.424589
0.0740298
1.60926
0.0237956
0.0340335
0.135185
1.18551
0.0329652
0.0212979
0.0221646
0.0223376
16.1342
0.0337182
1.68078
0.223369
0.0227936
0.0333246
0.0205627
0.022084
0.074413
0.0507515
0.0455377
0.242086
3.48776
0.0332816
2.86668
4.15109
0.0210621
0.828845
0.125419
3.38079
0.0216225
0.0217484
0.0234671
1.09458
0.0293686
0.0238743
2.59955
0.428042
0.0343682
3.36139
0.0228668
0.0213218
0.0214094
2.57651
0.11881
0.0236684
0.457286
1.79891
1.54577
0.0244375
0.823978
0.022109
0.452184
2.09681
0.0221596
0.0208216
0.0215091
0.0198206
2.59245
0.0369044
0.223774
0.0240431
2.1981
0.195744
0.0220563
0.0409775
0.0215576
0.0213547
0.0234381
0.0240231
0.643058
0.309693
0.0212928
0.0216261
3.14796
2.65583
0.0893807
0.0205775
2.15794
0.101522
0.022359
0.0211752
2.85095
3.45241
0.0245586
0.0452849
0.0253506
0.0198322
0.0209557
0.116598
2.58541
0.0215581
0.0241883
0.0284202
2.38528
1.28641
0.036895
4.44227
0.2918
0.0318131
2.56614
0.0231088
0.216599
1.93081
2.89675
0.033857
0.958911
0.0215402
0.183947
0.159724
0.02091
7.39028
1.86212
0.108565
0.0336244
0.0335281
3.43368
3.40797
0.0227587
0.0235293
2.28206
0.0213801
3.35739
0.21186
2.05424
0.0279371
0.0773298
1.62392
2.61682
0.0229038
1.70816
0.0207524
0.02151
0.0428094
1.02908
0.0468344
0.0523716
0.0240464
0.631259
0.0215273
0.121995
0.0218395
0.0213619
0.0212413
0.0282572
0.307491
0.0248665
0.0347053
2.55208
0.0213452
0.0230223
3.28852
2.89058
0.0235908
0.0205863
1.14764
0.0248775
0.0210864
2.58341
0.0212215
3.11591
1.5238
0.0197305
2.13174
1.14564
0.0321969
0.0203702
0.0569817
0.0436028
0.0340956
0.0210231
0.454074
0.0281391
3.02038
0.0282834
0.0259575
0.0447061
0.0460909
0.0217499
0.035634
0.0287756
0.244025
0.0215445
0.0352606
0.0700999
1.55508
0.0204419
0.154405
0.0205459
0.0843568
0.0212918
0.0217344
0.13103
0.0210718
0.0225037
0.432158
0.0232988
0.021246
0.0217753
0.0290202
1.61864
0.0662583
0.0227725
0.0219313
0.0204984
0.984462
0.0607501
0.296313
1.91506
0.0829779
2.41178
2.04071
0.0213191
0.0213341
0.0283572
0.506778
3.20035
0.0214166
0.0223218
0.0219352
2.25201
0.0231722
0.0547872
0.0231667
0.162963
0.196321
0.241293
2.37048
2.98022
0.0215048
1.05986
1.21859
0.0211141
0.916143
0.023088
0.364969
0.0196623
1.36825
1.67703
0.0240474
4.37092
2.49637
0.0210521
0.0308538
1.73327
0.0350269
0.027568
0.022874
0.0213581
0.0279259
0.0220563
0.0218957
0.0696858
0.0306186
0.0256049
0.0207286
0.0228717
0.0281698
0.0216988
10.2806
0.11965
0.0709243
0.996409
2.58901
0.0284447
1.74833
5.32453
3.22925
0.0376432
0.0219334
2.19037
0.360041
0.0589412
0.177345
0.0203564
0.0224464
0.0222784
0.035221
0.0217111
1.97715
2.36873
3.09792
0.0219901
0.0221311
5.85024
0.0217759
2.51446
1.10491
0.0242754
0.04775
0.0662367
1.89123
0.0320804
1.86358
0.0210177
0.0245267
0.0221391
2.30301
0.114201
0.201978
0.0273385
0.990408
0.021408
0.025426
0.0210432
0.0228496
0.0210545
0.0214258
0.0221844
0.0214931
0.0364491
5.01494
0.0210019
0.0774771
0.0813122
0.0212884
2.97655
1.54636
3.44853
0.0282725
0.195891
0.0580632
0.622782
0.0347894
0.0447518
0.0215082
2.93902
0.0215112
0.0216579
4.66454
1.44282
0.0226927
0.458186
3.4029
0.0323067
1.44059
1.2772
0.0203476
2.10763
0.0214353
1.73658
0.320635
0.0231225
0.0215203
5.39619
0.0267942
0.021042
1.63356
2.95868
0.480584
0.0325028
0.960554
0.023125
0.0235219
1.98498
5.32123
0.0388245
1.53719
3.07898
0.0253914
3.2547
0.0268044
0.0210873
1.77343
2.43033
0.0408528
0.022119
2.6833
0.0280483
0.0215105
1.55246
2.34118
3.6185
0.0216493
3.29896
0.0440589
6.31674
0.0222857
0.0727534
2.3302
0.0281091
0.031268
0.0218232
2.97268
0.489892
0.0198911
0.124147
0.0220659
2.69309
2.23452
0.0233594
0.067736
0.0217326
0.0229984
2.58945
0.114764
0.026979
2.11327
0.0629913
1.63704
0.0280928
0.0220193
1.27747
0.0286905
0.0482744
1.5181
0.0240189
2.51492
0.444667
0.0316584
2.83807
0.0435736
2.08272
0.0890007
0.475084
0.0838676
0.204169
1.13928
0.0840037
3.00385
3.33367
0.0277132
1.23256
0.0214933
3.61905
3.25171
2.09679
2.68225
0.021537
0.0213858
0.0222707
0.432222
0.0224619
0.0408143
0.0480498
0.187127
0.0654945
0.104223
0.0275046
0.0673557
2.9416
0.0239506
0.0227998
1.48921
0.0981741
0.0215416
2.25483
0.0314352
2.60168
0.0217711
0.0358893
0.0203956
0.0257252
1.16916
0.23438
0.111985
0.0565396
1.55936
0.0204896
0.025642
0.0215738
1.7315
0.0952095
2.09126
3.36376
2.02866
0.0217016
2.41211
0.0220282
0.726109
0.0258214
0.0620238
3.52198
0.318492
1.28373
0.109849
0.0251343
0.0745209
0.0211248
0.20951
2.16107
2.67609
0.0239044
2.15395
1.83009
2.3159
3.22116
2.37108
1.84205
1.27226
0.0214696
0.0394901
0.0705451
0.0483094
0.0388405
0.0204956
0.0230851
0.050186
0.660646
0.0253471
2.44816
1.50475
0.02088
0.0232353
3.50277
3.31896
0.892008
0.0232494
1.34923
0.0215057
0.022248
1.22287
0.071147
3.03453
0.0213438
0.0197373
2.968
0.0280052
2.68483
0.0221818
2.76226
0.0447505
0.0309864
0.0211796
0.177231
0.0205717
2.71439
0.0279654
0.442511
1.83962
0.0221847
0.0213444
0.485004
2.12038
0.0214988
3.46885
0.0206929
0.0347768
0.0234876
0.792534
1.54319
0.455085
0.0225881
0.0219334
0.195806
0.0217341
0.0227908
23.1321
0.0210408
1.18719
0.0210921
3.33792
0.612106
0.0432061
3.284
2.61812
0.0646166
0.0236594
0.801377
0.177051
1.17594
0.0254761
0.278569
0.446584
0.0220137
0.117037
0.0215304
2.84755
0.0828775
0.0209885
0.0245198
0.0285065
0.323977
0.0220275
0.0351053
0.0297376
2.78593
0.0215239
0.0207729
0.0336997
2.52998
0.0217432
0.0217303
0.0203685
0.210174
0.043665
2.46454
0.111525
2.48055
2.60907
0.176445
3.15789
0.0199573
1.90104
0.0719978
0.0299307
0.024089
0.208734
2.2544
2.35952
2.6641
0.223696
0.0242838
0.557601
2.38789
0.0199333
0.0401469
0.0260029
0.0243399
0.0221098
0.0218527
2.86008
0.02128
0.0223692
0.0212983
0.0208094
0.0268749
1.17833
0.267222
5.54692
1.73185
2.70516
1.57418
3.88916
0.0206204
3.17193
0.0215342
0.474978
0.0217029
0.0205326
3.33373
0.0357736
0.108878
0.0226363
1.86993
1.71688
0.0201552
2.63425
0.0221116
3.10281
2.21809
0.0260305
0.0214273
0.020625
0.0593141
0.139559
0.146169
0.0213599
0.0202979
0.0201179
0.0642596
1.94422
0.0405238
0.322439
2.92512
0.0308672
2.91578
0.0218966
2.397
0.0214746
0.0219575
0.0274093
2.52396
0.0225579
0.29764
0.104779
0.0210954
0.0331861
0.0213777
2.69896
1.62996
0.0228873
0.0206202
3.48607
0.345365
0.0226542
0.0220814
0.0219711
0.0239411
0.0202625
2.60551
0.0209526
0.0624133
2.73912
1.18352
3.06657
0.026751
1.21283
0.122879
1.28785
1.60542
0.0215528
0.0229242
0.178642
0.0214119
0.0221969
0.187261
0.0239037
0.232715
0.0394345
0.0243127
4.69457
0.0242369
0.0283811
0.0228739
0.020612
0.0218063
2.59141
0.0272699
0.0299632
3.50332
0.322472
0.021165
0.145527
3.06637
0.019879
0.0215856
0.0539233
0.0228586
2.73213
0.027168
0.112868
0.0231427
0.137228
0.0237638
0.0210972
0.0213692
0.0278122
0.0543274
0.0215414
0.0330995
0.0214248
0.0260087
0.0228538
0.0269384
0.0241127
0.0222288
0.0452658
0.0196073
3.29078
0.0222071
0.0221268
2.69497
0.0838821
0.0230365
0.0262943
0.0334639
0.0202382
0.218442
3.1823
0.0214185
0.0215467
1.00538
0.0825544
0.444482
0.0235286
2.38497
0.0198566
2.79128
0.0223316
2.33981
0.037422
0.0455857
0.0217257
0.0278321
2.56984
5.42368
0.0201908
1.18413
2.69019
0.0251013
0.0214297
3.44883
2.02033
0.0207086
0.0280976
0.0218503
0.0442
0.0209367
3.5664
1.89919
0.0237822
0.547544
0.0224349
2.65869
0.0426179
0.0212049
0.0203342
0.0230071
1.23499
0.0214398
0.0226354
0.0297967
0.205491
0.0305983
3.14686
0.0214631
0.0210953
0.102467
1.96661
0.0199593
3.3452
1.36143
0.0202622
0.0198915
0.0202116
0.0211896
0.021267
0.663881
2.01427
0.957436
0.0202761
1.29454
0.022904
0.0275758
0.0255208
0.0268093
0.0215583
0.0222175
0.0913248
0.0211317
2.38205
0.0215064
0.0204866
0.0332675
1.51969
0.0214461
0.044066
0.0200149
2.13193
0.025069
3.15229
2.98788
0.0224534
2.88775
0.480777
2.66276
3.18002
0.0214958
0.0199847
1.73003
0.337383
2.30046
4.57256
0.0217792
0.030331
1.60454
0.0217405
0.0810092
0.046817
0.0214949
2.39766
1.13771
0.023285
0.0210546
0.104488
2.89765
2.05084
2.97522
0.0209201
0.0674691
0.0214047
0.0217639
0.918679
0.0212516
3.40333
0.0275577
2.74245
0.0212807
0.0454144
0.312421
3.23959
1.10149
3.13273
0.0198193
0.0215658
0.0204768
2.61137
3.3782
0.0230396
0.0213838
0.0532332
3.20954
0.0401738
0.0225176
0.0219206
0.0221104
0.0225145
0.0197977
0.0510271
0.0314162
0.0212772
0.301921
0.0225964
0.320703
0.0329575
0.0455806
0.422742
0.0213946
2.70385
0.0218039
2.24166
0.0233201
0.0214587
0.02749
3.13342
0.0216126
0.0212716
0.191063
0.0860972
0.0714778
2.96577
0.0307229
0.0250621
0.531481
0.0208736
0.0215309
0.0205188
0.0265048
0.0224865
0.0224583
0.776783
1.22032
3.16578
0.0347473
0.0215017
0.0411042
1.02151
1.98611
0.0213939
1.66413
0.0667423
2.28429
0.0276397
0.0200825
0.0272587
3.50248
0.0263529
0.0333987
1.38641
0.0219589
0.0296271
2.47159
0.0215564
0.0225938
0.0280537
3.19339
0.448311
3.04694
2.74304
0.112695
0.0200545
0.0220264
0.0215326
0.286185
3.37208
0.0231879
0.242245
0.0213143
0.0604556
0.0319083
0.0820236
0.0253618
0.0279842
0.176436
5.74707
0.0239268
0.0203543
0.0651193
0.0219328
1.14912
0.0220399
0.0238954
0.0275777
2.78337
2.24794
0.0209916
0.0216006
1.11562
0.024263
1.2723
0.0277314
0.0215945
1.79031
1.81863
0.0222562
0.0204864
0.0222164
2.95127
0.0213911
0.155964
0.178301
0.0281903
0.0213069
0.0295162
2.35657
0.0213078
3.523
2.65511
0.0354585
0.100226
0.0301883
0.0481649
0.95958
0.0391737
2.09772
2.85544
0.0282974
0.0257123
0.0211559
0.0419191
0.0833134
0.0223222
0.0222028
0.0228846
0.0200474
0.350715
0.0212619
0.0757647
0.175062
0.0224886
0.188231
3.38723
0.0202746
0.0215571
0.0213442
0.189055
0.0244966
0.0327544
0.0309541
2.01714
0.0342968
1.58855
3.07477
0.311718
2.20003
0.0218557
0.453199
3.11272
0.0279028
0.0220635
0.180047
0.0213826
2.81154
0.0489786
0.851546
1.3798
0.0211773
1.52479
0.0216181
0.0242272
0.0249544
2.5316
2.71109
3.26009
2.82483
2.95766
0.021357
2.81645
0.0285077
0.0211245
0.0511019
0.0292631
3.42871
0.271774
0.234796
0.0699254
0.171242
0.0198416
2.75856
2.5676
0.0782532
0.0203353
0.0205335
0.061235
0.0238239
0.0243172
0.239323
3.4013
0.0202913
0.0219926
0.0202663
0.0223221
0.0230762
0.0205591
1.5573
0.177234
0.338204
0.0287669
0.264318
0.175161
0.0213806
1.79079
0.0439965
0.321763
0.0216826
0.0653676
0.0264842
0.0281579
0.0216939
0.0355651
0.0318665
0.204023
0.0970007
1.5678
3.4806
0.026775
0.112894
2.73017
0.0210991
0.0272918
0.068016
2.67672
0.0559798
0.0215652
4.40363
0.0216652
0.456722
2.80319
0.0205737
0.0217203
0.32149
0.0213842
0.028794
0.183696
2.45186
0.123823
1.89538
0.0245915
0.020295
2.58281
0.024618
0.408574
0.153816
0.0250653
3.47596
0.0215466
1.59779
0.0435267
0.339467
0.0632017
0.0428226
0.0199112
0.30604
0.0352196
0.313493
0.19507
0.0536611
0.0230599
0.092893
0.0217828
1.63942
0.0222731
0.206196
2.544
0.0272332
0.0257409
1.86281
0.0219942
0.301816
0.21499
3.09455
0.0333745
0.0199446
0.0521854
0.0212576
0.0421022
3.08889
0.0218925
0.612202
0.0430528
0.0257661
0.0215693
0.0198889
3.21659
0.0211815
0.0211698
1.34009
0.460151
0.0242563
0.172341
0.0896288
2.56099
0.0232527
0.0456412
0.0209986
1.2791
0.0262358
0.0821047
0.0224269
3.39442
2.62996
0.0389398
0.0220748
1.38736
2.79487
0.0341033
0.0290518
0.360373
0.17881
0.0212657
0.0208133
0.0302199
5.72225
0.182814
0.0201432
0.322381
2.7853
2.58947
0.0228835
0.0460775
0.0298989
0.0244837
0.0589653
2.77942
0.0222536
0.0213929
0.0428251
0.0231842
0.0233258
0.020759
0.0209815
1.14322
0.0224044
0.0694651
3.35403
0.021189
0.0200092
2.82628
0.0222416
2.6997
0.0221299
0.0211455
0.0303043
1.40405
2.71772
0.0216825
0.0235302
0.0212223
1.02169
0.0212459
0.0208805
0.0232595
0.0214939
0.0370817
0.0200091
0.0979563
0.0261472
2.3647
1.13043
0.568169
0.261403
0.0261652
0.0221239
0.023842
0.24846
3.49062
0.19612
0.0213911
0.0343682
0.0517706
0.022072
1.61069
0.036083
0.0210393
0.0220189
2.75008
3.06199
0.0245026
2.75931
0.032711
0.0278391
0.0225192
0.199788
0.0215014
0.0209384
0.0212851
0.0470929
0.0320257
0.0401852
0.187194
0.0212569
2.92436
0.0231424
0.31121
1.84125
0.0692578
1.35111
0.175736
0.0245409
0.020562
0.0209978
0.0243247
0.757176
0.0265782
0.0209234
1.15618
3.41017
1.63792
0.0626296
0.0240018
0.0214806
0.141856
2.31876
0.0212681
2.08275
0.0214381
0.0211724
0.305005
0.589388
3.35211
0.0341265
0.0212219
0.0287502
0.0264987
0.0264844
2.66089
0.0235472
0.0383493
0.0338654
0.0595755
0.0243225
0.0226654
2.61677
0.124671
0.0375235
1.04589
0.047334
0.0215719
0.03752
0.0229849
0.0263494
0.166982
0.021428
0.0301647
3.61692
0.0208625
2.96408
4.5871
0.0651561
1.48968
1.5184
3.19818
0.283376
0.0478456
0.0201216
2.26315
0.0290033
2.80228
0.0202429
0.0209892
0.021746
2.28361
1.34554
0.293499
0.023094
2.40351
2.65946
2.06141
0.109179
0.279301
3.33481
0.256479
2.32077
0.0298831
0.101817
0.034688
0.0202753
0.0767103
1.63893
0.287984
0.0223626
0.0424999
0.0217345
3.07825
1.34494
0.0217058
0.0288767
0.140351
3.00889
0.0288783
0.0209177
0.0212963
0.0214567
0.173047
3.59063
0.0216625
0.809048
0.021131
0.0209599
0.0323787
2.68303
0.381005
0.021503
0.0247908
0.0199979
0.319418
3.35126
0.0217442
0.0217105
3.33682
0.0218753
0.0214554
0.0272129
1.61054
0.0249919
0.0208222
0.063995
0.0200695
0.0237138
0.330322
2.77179
0.0245958
0.0210468
0.0196958
1.16033
0.0210054
0.0880946
3.29474
0.0216657
3.28449
2.74531
0.116038
0.0208772
0.190255
1.96695
0.0945711
0.0316341
0.0216855
0.0460216
0.0393423
0.043195
0.174656
0.0213491
0.390147
0.0750338
2.97168
0.024858
0.0236413
2.86232
0.0206541
2.86347
2.02602
0.0238688
0.0217221
0.0218588
0.0297991
0.025022
1.48139
2.79096
0.0301601
0.0216781
0.0483983
0.0212388
0.338152
0.0225535
3.02043
0.0585605
1.65097
0.306857
0.0315535
4.03804
0.761608
1.52063
2.20097
0.0219204
0.0302201
0.0195719
0.114932
2.73798
0.0204611
0.31181
1.25875
0.201624
2.88752
0.0396518
1.39109
0.0215355
0.169997
0.0236641
0.112253
0.170194
2.94414
0.0220319
0.0198378
1.46219
0.0215184
0.423058
0.0216916
0.415165
2.40027
0.0274211
0.0243137
1.7315
0.0235513
0.0219572
1.51112
1.40605
0.0298689
0.021335
2.96113
0.128228
0.0215933
0.0762152
0.0745529
1.54466
1.31355
1.25222
0.54256
0.121051
0.0208335
0.103298
3.27125
0.0278838
0.0423441
0.0199274
0.026001
0.0213428
0.0214811
0.12174
1.86384
3.29137
1.4842
1.87366
0.0317861
0.113917
0.0209029
2.12784
1.36265
0.306838
0.283262
1.71842
0.0295768
0.0433143
0.0205142
1.19425
0.02137
0.0222746
0.0235907
0.0289383
1.23325
0.384374
1.11067
0.0202801
0.435253
2.87745
0.0217393
0.021071
0.096172
1.17498
0.0249274
0.0246734
2.56286
0.0213796
0.0359282
0.0336729
0.0209261
0.0206466
0.0244138
0.0209432
0.939237
0.0211857
0.0203873
0.0330772
0.322108
0.0432399
3.16126
0.0382139
0.0411923
0.0401895
0.0243714
1.89036
0.0506321
1.41567
3.05254
1.86306
1.19181
0.0214304
2.77483
0.0698031
0.0315845
3.24723
1.46807
1.21608
0.0244584
0.0242446
3.0614
1.68782
0.0275217
0.0225909
0.0249183
0.034358
1.40702
0.0215852
0.0241283
1.92001
0.0214774
1.85979
0.0393291
0.0209129
0.0267861
0.0215899
3.52859
2.08826
0.175618
2.92713
0.0222173
0.0213087
0.0218323
0.0640505
0.0212414
0.0251506
0.024592
0.0373193
1.43801
0.0211184
1.10734
1.34321
1.06234
1.38278
0.0834034
0.0302407
0.0306517
1.12691
1.33021
0.0270819
0.31411
1.24584
1.1869
0.0215662
1.13994
0.0215559
0.0214542
0.0264324
0.0209011
0.045459
0.326529
2.84202
0.197148
1.73455
1.14673
0.0214281
1.41902
0.0226542
0.0240798
0.0225298
0.020984
0.323757
1.1149
0.0271068
1.15194
2.0712
1.76722
0.0233069
0.0254165
1.3808
0.0332631
1.15568
0.0955714
0.220341
0.320994
2.88016
1.59937
1.20235
1.10208
0.0906752
0.0669969
0.0212736
0.0216582
0.0227817
3.09734
0.0236588
0.0926059
0.045257
0.0213702
3.06718
0.143749
0.0259021
2.32063
0.0797126
3.01776
2.63909
0.070498
0.362005
1.27538
0.0213346
0.04658
0.169455
2.28907
0.0234797
2.92565
0.0265032
2.8732
0.111901
1.25899
0.0261428
1.37782
0.026772
0.0415474
1.30992
0.0256477
0.0249681
3.50273
1.09387
0.0217762
2.34512
0.0235005
1.58111
0.0628219
1.17579
0.0668057
2.8897
0.0240748
0.325959
0.122994
2.70275
0.0228467
2.78265
0.0206765
0.0899721
0.0396916
0.0264123
1.98295
0.102105
0.0339225
1.64085
0.426205
0.0237988
2.99399
0.767123
0.0219938
2.63134
0.0434572
2.24938
0.039066
1.93162
1.40871
0.0218446
1.73366
0.0426815
0.0209361
1.45519
0.029261
0.0263519
0.0305502
0.0221882
2.62658
2.42786
0.0826047
0.0217441
2.96008
2.39968
1.78391
1.83978
0.0219683
0.288676
0.265637
0.0225087
0.0212044
0.0231122
0.159696
0.0223681
0.0226791
0.0919967
1.25047
1.48136
0.0304656
0.0721287
1.77597
3.52063
0.021173
0.0824877
0.025056
2.83242
0.0210045
0.209884
0.0211968
1.38712
0.0401424
1.32084
0.0212811
0.0208928
1.29777
2.59812
3.62249
0.0236319
0.0405777
0.0222786
0.0214887
0.119942
0.056945
0.0208842
1.48661
1.32087
0.404889
0.173025
0.114937
0.0265326
0.089629
0.333074
0.0423722
0.216673
0.0213996
0.0326178
0.0216021
3.16621
0.392836
0.0215457
0.0210361
1.50895
0.022542
1.10769
1.19797
0.0858758
0.0216708
0.0216067
0.0209478
0.0213273
0.0212591
2.03733
3.15857
0.0697505
0.0303883
0.0201946
2.69816
1.88267
0.971613
0.0210025
0.0209637
0.0239032
0.180358
0.0223971
0.025407
0.0209343
0.0215352
0.020895
0.0212893
0.207338
0.0208568
4.66051
0.026923
0.0379325
0.023051
3.55011
2.4955
0.0239182
1.41013
0.173484
0.110204
0.0243193
0.078273
0.0708359
0.262294
2.3606
3.51465
1.5214
0.0220703
0.273776
0.0221956
2.70017
0.0209731
0.331081
0.0234118
0.0220589
0.0232663
0.0225544
0.025072
2.65295
1.76012
0.0226575
0.0434855
3.22304
2.54883
0.280345
0.0269659
0.0213359
0.0197414
1.45102
0.268576
1.63529
0.0210466
3.07055
0.0214134
0.0209153
1.21268
3.51892
0.0593669
2.48613
1.4242
0.240662
0.0214679
0.0212007
0.168711
0.0211337
0.0207648
0.0209286
0.0629812
2.73493
0.0219035
0.0369407
0.1786
2.50497
3.66218
2.19588
0.0503388
1.31571
0.0215313
0.0250616
3.30542
0.417292
0.0225436
0.0238961
3.17763
0.176751
0.0285468
0.0216301
0.0414349
3.47212
0.0409878
1.20418
0.057765
0.0360508
0.020968
2.05815
1.60385
0.150267
0.0410274
3.00963
0.020523
0.0247003
3.17404
2.21029
0.0615163
0.04707
0.0247149
0.021621
1.16681
2.5097
2.80357
2.91186
0.101668
0.0242992
0.0695478
2.11931
0.0246904
0.0278236
0.022378
3.01412
0.0234143
0.0215878
3.01115
0.0946188
1.55323
0.2674
0.0314159
0.0953429
0.0213942
0.0209078
2.95081
0.0559515
0.0217489
2.32963
0.021384
0.0295017
0.0203869
3.02557
0.17859
0.0209254
0.0261662
0.169885
2.58527
2.48581
0.172219
0.0238191
2.93808
3.54715
2.46997
0.0264307
0.0212036
2.67887
3.47129
0.207445
1.34259
3.1826
0.0940015
0.0273775
2.25093
1.17734
0.0611618
0.024797
3.30065
1.04118
0.0210922
0.022077
0.139141
3.18422
2.52007
0.021374
0.0211025
1.7235
3.0197
1.79064
2.43632
0.316789
2.46331
0.0361581
1.7229
0.966031
2.72433
0.0197721
0.0210551
3.11324
1.50579
0.0204476
2.55038
1.33
0.323889
0.286221
0.0211888
0.0262572
0.0278362
0.290277
0.0407284
0.0218059
0.0245131
2.52275
0.0222002
0.0698015
0.0208588
1.18078
0.0227448
3.04074
0.0217079
0.0350098
0.0266807
0.0237318
2.55909
1.94235
0.0247173
0.0204931
3.42402
2.54156
0.149967
2.80816
0.17628
0.299812
2.7532
0.0204867
3.27527
2.03811
0.0984895
0.0214635
0.0782203
3.39686
2.68767
1.64353
0.281873
0.0532396
3.03038
0.318304
0.0834322
0.0217992
0.210243
0.020439
2.71202
1.09707
3.255
0.0216082
0.0220811
0.111377
0.0265576
1.29385
1.45024
3.15485
0.0225508
0.0979352
1.62972
2.54914
3.36622
2.04185
3.24435
0.239556
0.0210336
2.38338
3.51429
2.78581
2.55935
0.28417
0.0217866
0.0598601
0.0263285
1.09828
0.0389605
0.0409919
0.0225858
0.103448
0.0538879
1.24816
0.0530993
0.454005
1.77437
3.10199
0.0213909
2.53572
0.0242465
0.0314532
0.0275544
0.150487
0.0283846
2.94335
0.0675789
0.0202935
0.0216803
3.37724
0.0226813
0.042476
0.0271077
0.07541
0.0212995
4.44039
0.0227751
0.0236727
0.0395727
0.02244
2.58025
0.0204656
1.22829
2.83133
0.438238
0.180069
0.0312744
0.0226073
2.89014
1.96163
0.0446072
0.02737
0.0214273
0.0219214
0.0213412
0.206696
3.23999
3.25866
0.0243417
3.25044
2.98955
0.0260016
0.17914
3.1299
0.0208761
0.0261303
2.6599
2.32461
0.0353325
0.221159
0.0210113
1.68175
0.0229189
3.51485
2.59553
0.0218637
0.0618532
0.0212102
1.33841
0.443108
3.12722
0.0213355
0.0211294
3.41936
0.0199398
0.0236923
0.188648
0.999403
0.405072
2.4489
3.18484
0.0208895
0.0269099
3.54636
2.57572
0.0211239
3.42779
0.0273774
0.0582721
0.0237164
0.0220874
0.0195489
0.107629
0.0362174
2.8913
0.068302
1.60496
0.180724
2.80338
0.263215
0.0418821
2.53209
0.0216638
0.0371445
0.0517708
2.6148
1.63658
0.117223
1.98568
1.38726
0.0622094
0.0378908
2.60566
0.0218529
2.61713
0.020775
2.90791
0.024246
0.0380082
6.01965
0.0646479
0.17894
0.0227895
2.60824
3.04918
0.0213238
0.0443888
1.06676
0.0212416
0.0216254
0.111469
0.0224
0.0216069
0.0415423
1.53544
2.10029
2.22912
0.020672
0.0406984
0.0398175
0.0219494
0.0925593
0.0437237
0.088334
2.63467
0.0991837
0.0243825
0.0263933
0.154503
1.69665
1.8777
0.0398685
0.265656
3.12265
1.13417
0.0215838
0.962564
2.00573
0.021155
3.04989
2.62441
0.191626
0.0241091
0.092311
0.088178
0.041476
0.0204369
0.0404245
0.0217593
1.63898
0.227718
0.0356649
0.33411
0.0338764
2.8128
0.0408814
0.0344604
0.0436251
0.0231038
0.0971551
0.0282098
0.0209265
2.6468
2.86331
0.0303247
2.58514
2.60839
2.60022
0.0224544
0.0424192
3.07358
1.81771
0.0287053
1.63609
0.0209364
0.0564896
1.38049
0.0302367
1.7208
1.45763
0.0365033
0.169594
2.71802
0.0244848
0.078999
0.0211436
0.591347
1.51691
1.6375
1.48293
3.2857
1.02094
0.102422
0.0240543
0.0999124
0.826041
2.10216
0.0570575
0.10423
0.0218809
0.0425392
0.268669
1.66875
0.0215046
0.0270964
0.0410071
0.0230922
0.0259803
0.0443439
0.156225
0.0396742
1.94134
3.37457
1.37874
0.0523069
3.26725
0.0224145
0.0227793
0.177455
2.62999
0.0207389
3.20185
2.15099
1.06832
0.0214122
0.0215553
0.0639795
0.10747
2.5837
0.931546
4.4121
2.88462
0.0427737
2.6501
1.17947
0.0318095
0.0618286
0.272836
0.0405312
2.26523
0.020839
0.188364
0.0399749
0.0681122
3.36737
0.0595229
2.57025
0.0587813
1.76819
0.0413676
2.16407
1.06835
0.0229727
2.75668
1.53148
0.0210639
1.09203
0.165194
0.0937887
3.09775
0.0480861
0.021017
4.5715
0.0214307
0.0818985
1.48767
0.194114
0.0666223
0.125042
0.0290611
1.45232
0.0291315
0.0854623
2.18744
0.0567646
3.25027
0.0215616
3.06785
1.69981
0.0276105
0.0330431
0.020762
0.694299
3.11666
0.0310834
0.0440436
0.0623126
0.0385732
1.808
0.0226357
0.0257616
0.0216472
0.0401579
0.0232762
2.90278
0.126688
0.0208161
1.86666
0.11339
0.0225226
0.0656264
0.0216433
0.104023
1.48585
0.0216055
0.0216699
0.0217876
2.1245
0.759581
0.151238
0.0213834
0.0198086
2.67061
0.414877
0.0961322
0.0687338
2.02859
0.0211946
0.0243216
0.0319622
0.66684
0.021361
0.0308153
2.69917
0.0210387
0.101427
0.154196
1.18542
0.0279295
2.08663
1.98889
1.16887
0.12371
2.81541
0.0582428
0.0214543
0.0220816
0.0983178
0.020607
0.0219876
1.68878
0.0217427
0.041749
0.038895
0.0240938
0.0395473
0.0606868
0.0617324
0.0275513
0.0231371
0.0746435
0.039153
0.0488075
0.0233149
0.0235482
0.103413
2.90839
0.0971178
0.0382328
2.2103
0.0335806
0.0209045
0.0369755
0.0375167
3.08432
0.0211098
1.29552
0.038279
0.0245357
0.0225129
2.62721
0.118803
0.0237947
0.0213618
2.29677
0.0402449
0.021414
0.0215099
1.29838
0.0663265
0.0228918
0.0713172
0.0213924
0.0693689
1.48245
2.69868
0.0372257
0.0318027
0.0316429
0.0335165
0.0619429
0.0362678
0.167989
0.878254
0.152733
0.0380656
0.150026
2.39777
1.27487
0.0220183
0.0268305
1.28544
0.0233842
1.47859
0.0222694
0.0211299
0.0247787
0.0214395
0.533571
0.0204222
0.0771854
0.796532
0.0215556
0.0221333
0.0259458
0.0213673
0.0215458
0.0219923
0.0264714
0.0309909
0.0396222
1.279
1.13724
0.0239909
1.43829
0.0649864
0.0729551
0.294695
2.93421
0.370211
0.0589593
0.0241465
0.0612614
0.0235315
0.86948
2.61138
0.0307518
0.0279578
0.0287731
0.0210268
1.62782
0.0789792
0.0238719
0.0249983
0.022864
0.106076
0.0255195
0.0208839
0.054605
1.33946
0.118781
0.164824
0.0230187
0.586638
0.0434727
0.203109
0.0265926
0.672683
3.03338
0.0239433
0.0219929
0.0495126
0.0233821
0.140995
0.295827
0.0209355
0.256277
0.0226206
0.183311
0.0214504
0.155133
0.0210741
0.0322642
3.10048
0.0671587
0.288241
1.22219
1.68819
3.31469
0.0260077
2.36641
0.967955
0.0237401
0.0238402
1.45298
0.0223831
0.0984483
2.13075
0.0436491
2.70989
0.0321082
0.0236851
0.0992761
0.0218725
1.51869
0.275852
0.0404422
0.0244584
0.0216536
4.40844
3.4745
0.0226538
1.33998
0.0210181
0.123225
0.0213276
1.66611
0.049443
0.0314956
2.86296
0.0238548
0.0238564
0.0229846
0.0242894
3.50913
1.15904
0.0210862
0.0209145
0.0830914
0.0207484
0.0650048
0.0714035
0.0215252
0.0595578
0.126804
0.0241618
0.0212695
0.0365882
0.0207834
0.0675145
0.0231696
0.0326697
0.0223602
0.231881
0.0224161
0.0224179
0.0216144
0.0212308
0.0233039
0.0264026
0.0976696
0.0634836
0.158078
1.56606
0.764139
0.0234844
0.0235649
0.0472788
0.38293
0.022395
0.0229368
0.0214305
0.264987
0.0682882
1.58818
0.0215778
0.0723598
3.12105
0.091684
0.0248569
0.0226923
0.024919
0.295806
0.023239
2.21106
0.0304241
0.022534
0.059499
0.053091
0.022266
0.0217291
0.0242481
1.90203
0.0265359
0.0233735
0.324429
3.31784
0.111862
0.438514
1.07731
1.7126
0.0277451
0.0224748
0.0211799
0.0225174
0.0550434
0.0212643
0.0935428
0.0236625
0.0206376
1.39022
2.4658
1.85775
0.022497
0.0221413
0.0243147
0.0269131
0.0673614
1.16932
0.0214209
0.051429
0.0478931
1.77687
0.0206002
0.022732
0.0253149
0.0232855
1.3993
0.0237665
1.46436
0.0899639
0.0205828
0.0214495
0.0356799
0.0223038
0.0215177
0.0236224
0.041496
0.094859
0.272453
0.0545829
0.159939
0.0239599
0.0210685
3.1385
0.0216467
1.28849
0.0213795
0.0254919
0.262504
0.504486
0.0213724
0.021295
0.0208796
0.0237222
0.0251299
0.0211448
0.0237013
3.35843
0.0581916
1.24416
0.389868
1.13216
0.0479621
0.0392241
2.70393
1.29732
0.0227624
0.0379463
0.0202529
0.0857688
0.716846
0.0295114
0.0266947
0.0213825
0.48135
0.0229143
0.0232872
0.0260985
0.0607856
0.0800727
0.0211679
0.0216471
0.882652
0.0557001
0.0212488
3.17687
0.0214097
0.0214821
0.0265935
0.035499
3.30858
0.0215277
2.8636
0.0210773
0.0211482
0.080004
0.060444
0.021334
0.0208523
0.0206249
1.31541
0.0475947
0.0279895
0.158463
0.052156
0.0217088
0.021003
0.0230053
0.081469
0.0619398
1.56712
0.0253184
0.0271961
0.0220271
0.0231985
0.0217049
1.20823
0.0202715
0.0226509
0.0208779
0.0584102
0.0214744
0.0211831
1.68229
0.0361346
0.510276
0.0240029
0.0235591
0.0214932
0.022304
0.736087
0.0210554
0.0213826
0.0266546
0.0304669
0.0224123
0.0465554
0.0430177
1.50112
0.0226194
0.0220669
0.0215018
0.023997
0.0731818
0.0216127
1.09363
0.0337824
0.0312154
0.0452429
0.0473588
1.04236
1.28057
0.0808547
0.0308113
0.0226351
0.242319
2.28076
0.326543
3.1561
0.0351111
0.045348
0.021998
0.0457805
0.0222803
0.0216611
0.0214638
0.0226199
0.0955782
0.0215719
0.0246727
0.079227
2.65528
1.63562
0.0308296
0.156672
0.159591
0.0646772
0.021536
0.0233825
1.76851
1.25476
1.91702
1.11901
0.404115
2.64903
0.0308857
0.0216907
0.0213261
1.27692
3.04779
3.10967
0.0966875
0.0214504
0.0541771
0.0223424
0.0354608
4.31181
0.0204566
1.16152
0.0219591
0.115089
1.78563
0.0415493
0.0218007
3.36367
0.0211811
2.70355
0.0239257
0.0778182
1.29678
0.0239272
0.0220098
0.741027
0.0529915
0.0255498
0.340348
0.0735915
0.0208914
1.49766
0.0216069
0.0912179
1.27394
0.0209392
0.0217157
0.086015
4.81475
0.0432553
0.0254483
0.0587751
3.1651
0.161736
0.559457
0.0222942
0.037549
1.25328
2.97469
0.0233399
0.100999
0.0213339
0.0216579
2.55122
0.0382894
0.174347
0.624038
0.0236575
0.275972
0.453381
0.0220742
0.0281958
0.540841
0.0214583
1.16962
0.0246737
0.0586975
0.0203044
0.142193
0.0222115
3.18105
0.0222639
0.0204004
0.0225564
0.0222825
0.0409934
0.0217788
0.0214973
0.0995405
0.0641153
0.434212
0.0232248
1.41977
0.0223084
0.0215335
0.0230695
0.163911
2.06874
0.0221472
2.13534
2.17565
0.0275766
0.0496259
0.023083
0.0444407
1.02262
0.0206447
0.0665376
0.0214448
0.0223223
0.021725
0.0221822
1.21681
2.23553
2.66578
3.42961
0.0891283
1.32363
0.322557
0.0539018
0.047257
0.225449
0.143112
0.0202952