/*--------------------------------*- C++ -*----------------------------------*\
| =========                 |                                                 |
| \\      /  F ield         | OpenFOAM: The Open Source CFD Toolbox           |
|  \\    /   O peration     | Version:  v2012                                 |
|   \\  /    A nd           | Website:  www.openfoam.com                      |
|    \\/     M anipulation  |                                                 |
\*---------------------------------------------------------------------------*/
FoamFile
{
    version     2.0;
    format      ascii;
    class       surfaceScalarField;
    location    "250";
    object      phi_0;
}
// * * * * * * * * * * * * * * * * * * * * * * * * * * * * * * * * * * * * * //

dimensions      [0 3 -1 0 0 0 0];
oriented        oriented;


internalField   nonuniform List<scalar> 
20392
(
0.194883
-0.117702
-0.077181
-0.538622
0.446021
0.0926011
0.246036
0.0701312
-0.316167
0.30245
0.180053
-0.482504
0.0610433
-0.00358855
-0.0574547
0.0102358
-0.422961
0.412725
-0.00067592
0.00171585
-0.00103993
0.557062
-0.393242
-0.16382
-0.0948146
0.181901
-0.0870864
-0.153904
0.456354
0.461195
-0.450959
-0.262125
0.312652
-0.0505263
0.317559
-0.0715232
-0.123591
0.195163
-0.0715726
-0.243256
0.467679
-0.224423
0.0494629
-0.173054
-0.181909
-0.318413
0.500322
-0.584722
0.592321
-0.00759931
0.344017
-0.620755
0.276738
0.652875
-0.489506
-0.163369
0.00369694
-0.0214054
0.0177084
0.023513
-0.00356939
-0.0199436
0.275429
-0.657171
0.381741
-0.324247
0.0805251
0.243722
-0.27104
0.226403
0.0446366
0.667943
-0.51943
-0.148513
-0.0927238
-0.315257
0.407981
-0.21348
0.212079
0.00140138
-0.0170091
0.0165842
0.000424844
-0.0115924
0.0127891
-0.00119669
0.188862
-0.586246
0.397384
-0.391579
0.530367
-0.138787
0.0453057
-0.14012
0.134074
-0.37733
0.504087
-0.274714
-0.229373
-0.00182281
-0.00394611
0.00576892
0.0576132
-0.0514463
-0.00616689
0.477809
-0.289948
-0.187861
0.197222
0.306865
-0.000475755
0.000260349
0.000215406
-0.128109
0.519474
-0.391365
-0.148367
0.0338498
0.114517
0.729138
-0.5375
-0.191639
-0.0182286
0.022545
-0.00431642
0.0747266
-0.518417
0.443691
0.435644
0.293494
0.597094
-0.414174
-0.18292
-0.625345
0.241342
0.384003
-0.1592
0.245849
-0.0866496
0.0339727
0.307067
-0.34104
-0.300269
-0.0239777
0.582753
-0.508027
-0.00331364
-0.000171136
0.00348477
0.585018
-0.47012
-0.114898
-0.0770351
-0.320876
0.397912
-0.00291515
0.00223923
0.000108854
-0.0125569
0.0124481
-0.262084
0.253577
0.00850631
0.18705
0.395704
0.0767917
0.110135
-0.186926
-0.511379
0.119799
0.132215
-0.0167413
-0.115474
-0.0773707
-0.443212
0.520583
-0.286288
0.561718
0.0529173
0.120963
-0.17388
0.524498
-0.235795
-0.288703
0.198189
-0.286242
0.0880532
0.429886
-0.402102
-0.027784
-0.00025542
-0.00305822
0.141992
0.0528905
-0.307553
0.253023
0.0545304
0.0232342
-0.304264
0.28103
0.45259
-0.360072
-0.0925184
0.0598704
-0.00955827
-0.0503121
-0.485091
0.329861
0.15523
0.0051453
0.0173762
-0.0225215
0.644561
-0.47729
-0.16727
0.105084
-0.57921
0.474126
0.00020773
-0.000683485
-0.45998
-0.0786416
0.101279
-0.115743
0.0144635
-0.0485423
-0.259011
0.244869
0.0770618
-0.321931
-0.239768
0.664631
-0.424863
0.0390539
-0.0451672
0.00611336
0.624183
-0.528436
-0.0957476
-0.29681
0.0850706
0.211739
0.303792
-0.105603
0.00375903
0.0224042
-0.0261632
0.186695
-0.133778
-0.044897
0.408564
-0.363667
0.113758
-0.0124787
0.0366153
0.424579
0.257816
-0.439725
0.295722
-0.372757
0.000706622
0.0427803
-0.043487
0.00281947
-0.00359906
0.000779592
0.352848
-0.107979
0.00706268
-0.00519362
-0.00186906
-0.221241
0.626315
-0.405075
0.326623
-0.492677
0.166054
0.000803007
0.079336
-0.080139
0.297626
-0.39035
0.167458
-0.171365
0.00390742
0.445823
-0.409207
0.556874
-0.213226
-0.343648
0.327806
-0.372703
0.155759
-0.161733
0.0059745
0.571302
-0.466218
-0.0107256
-0.000866886
0.206022
0.271787
-0.183157
0.322415
-0.139259
0.0043487
-0.00477612
0.000427426
-0.141011
-0.272476
0.413487
0.136162
-0.210062
0.0739001
0.37863
0.0512564
0.303128
0.341433
0.0393038
-0.301429
-0.213578
0.192686
0.0208917
0.336394
-0.302421
-0.209866
-0.30421
0.514076
-0.524229
0.399721
0.124508
-0.556514
-0.0261694
0.582683
0.654014
-0.13564
-0.518374
-0.615984
0.0440458
0.571938
-0.0112066
-0.00580251
-0.421264
-0.102965
-0.505264
0.377154
0.500365
0.15365
-0.11826
0.10569
0.0125703
0.197234
0.39986
-0.0641896
-0.23262
-0.0719939
-0.111458
0.183452
0.00489025
0.00217243
-0.156544
0.00817738
-0.0240547
0.00582611
-0.0091211
0.00729829
-0.179638
0.107644
-0.416144
0.569143
-0.152999
-0.103983
0.580055
-0.476072
-0.00209025
0.0149365
-0.0128462
0.30087
-0.611265
0.310396
-0.286488
-0.273882
0.56037
-0.00249718
0.315108
-0.431316
0.116208
-0.148532
0.61031
-0.461779
-0.0323959
0.0361549
0.00454582
-0.000197124
0.061968
-0.00209763
0.00900589
-0.0113008
0.00229489
-0.358569
0.659439
-0.00132585
0.0110121
-0.0096862
-0.559502
0.00298828
0.318579
-0.295344
0.0158999
-0.0209167
0.00501682
0.202069
0.354805
-0.101615
0.102418
0.558105
0.0492969
-0.607402
0.426525
-0.503896
0.131445
-0.455529
0.324084
0.350889
-0.331783
-0.0191053
-0.0180383
0.463861
-0.160754
-0.409649
0.570403
0.147623
-0.577737
0.430113
-0.369814
-0.232513
0.602327
-0.253136
0.00548642
0.24765
-0.0271958
0.52235
-0.495154
-0.512109
0.432715
0.0793941
-0.0192217
0.0163703
0.00285145
0.0507169
0.507388
0.127315
-0.453983
0.326668
-0.412319
0.394281
-0.0210955
0.0212044
0.0242669
0.000589961
-0.0248569
-0.211489
-0.190613
-0.00563816
-0.247498
-0.146661
0.0110368
0.135624
0.016473
-0.0659542
-0.147526
-0.00852401
0.0364665
-0.0279425
0.0354168
0.230186
-0.265603
0.335279
-0.373955
0.0386758
0.0124019
-0.159063
-0.000794399
0.00187989
-0.00108549
0.231657
0.0859026
-0.494811
0.390828
0.541086
-0.401517
-0.139568
0.586241
-0.623313
0.0370727
0.00173295
-0.00358775
0.0018548
0.0576354
-0.500848
-0.0195246
0.0805679
0.0325952
-0.132184
0.0995891
0.295753
-0.400725
0.104973
0.304111
0.0467779
0.154335
0.469848
0.57012
0.016121
-0.0677353
-0.145842
0.174682
0.12583
-0.300512
-0.0645517
-0.143558
0.20811
-0.30362
-0.000643428
-0.00598601
0.00753323
-0.00154722
-0.100127
-0.00593013
0.02183
-0.00624635
-0.00302633
0.00927269
-0.149652
0.541857
-0.392205
0.294957
-0.0995507
-0.195407
-0.154637
0.150693
0.00394473
0.00894122
0.048672
0.173023
-0.627146
0.454123
-0.541356
-0.0746276
-0.271859
-0.213232
0.338707
-0.253636
-0.24046
-0.0216233
-0.509078
0.515082
-0.00600375
-0.00861011
0.000374453
0.00823565
-0.471791
0.144037
0.327754
0.376816
-0.0727059
0.00313931
-0.00938566
0.500367
-0.58253
0.0821635
-0.520977
0.234489
0.598797
-0.425773
0.010899
-0.0129892
-0.118028
0.151878
0.280531
-0.245114
-0.127832
-0.265221
0.393053
0.052824
-0.0723487
-0.00136275
0.00132269
4.00649e-05
0.486652
0.0782513
-0.564903
0.252953
0.374014
0.167072
-0.391353
0.263521
0.002453
-0.000422074
-0.00203093
0.120464
-0.520918
0.400454
0.394488
0.273455
-0.095591
-0.379299
0.47489
0.548585
-0.581551
0.0329658
0.0854017
-0.0975486
0.0121469
0.35007
-0.490045
0.139976
-0.00363273
-0.108876
0.112509
0.202166
-0.618309
0.202691
-0.0606985
0.571199
-0.382338
0.1835
0.484585
-0.134516
0.00870857
0.468079
-0.476788
0.429706
-0.456901
-0.353488
0.567483
-0.213995
-0.041823
-0.467255
0.112475
-0.0798797
0.120159
-0.00793607
-0.493297
-0.0188114
0.0209706
-0.474479
0.453509
-0.0454639
-0.0190364
0.0645003
-0.031597
0.134381
-0.102784
0.563351
-0.136826
0.122194
-0.557557
0.435363
0.0252206
-0.000953606
-0.00789783
-0.155886
0.163784
-0.163398
0.663765
0.415754
0.15244
-0.568194
-0.00520985
-0.00340025
0.0567635
-0.0220362
-0.0347273
-0.292528
0.00258015
-0.0603538
-0.217502
0.277855
-0.56884
0.407511
0.161329
-0.11495
0.663535
0.439684
-0.588216
0.161044
0.0121781
-0.173222
0.0225116
0.00100137
0.125638
0.331357
-0.456996
-0.377829
0.564879
-0.337204
0.31171
0.0254935
0.0132107
-0.00951374
-0.000102036
0.0029215
-0.323565
-0.30178
-0.000326136
0.000955672
-0.000629536
-0.298351
0.516327
-0.237176
-0.0338643
-0.0244925
0.0247625
-0.000270016
0.48597
-0.186813
-0.299157
-0.248781
0.535989
-0.00067826
0.00313126
0.000850576
-0.00391261
0.00306203
0.296491
0.0803257
-0.352076
0.23092
0.121156
-0.357442
0.48308
0.000341883
0.123279
-0.123621
0.105368
-0.288525
0.590017
-0.174264
0.00660302
-0.00487007
-0.0498623
0.102686
0.144134
-0.152032
0.32833
0.00694885
-0.247437
0.266438
-0.0190012
0.0171515
0.039612
0.00556929
-0.0570156
-0.551271
0.588844
-0.0375733
-0.378025
0.0571482
0.135937
0.0667533
0.287597
-0.537238
0.24964
0.0446232
0.118265
-0.121898
-0.0497448
0.0388061
0.0109387
-0.364852
0.280149
0.0847034
0.192305
-0.115513
-0.0297755
0.00508085
0.0246946
-0.00198084
-0.564323
0.101697
0.462625
0.0626767
-0.0675644
0.00488769
0.0504542
-0.527515
0.477061
-0.581221
0.0954377
0.485784
0.202522
-0.241883
0.0393613
0.396283
-0.113906
-0.282377
-0.203386
0.138835
0.288895
-0.114213
-0.504324
0.150836
0.148598
0.00716062
-0.0808566
-0.109332
0.334015
0.31886
0.522406
-0.0556075
-0.466798
-0.483748
-0.3022
-0.0626523
0.30279
0.221708
0.0878402
0.36475
0.0660838
-0.320479
0.254395
0.00851439
0.00145992
-0.00997431
0.0571767
0.465229
-0.461961
0.637892
-0.175931
-0.0422892
-0.0136042
0.0558934
-0.0169452
0.0166573
0.000287884
-0.294388
-0.0734706
0.367859
0.619505
-0.427753
-0.191752
-0.00320595
0.000892794
0.00231315
0.275506
0.0603119
-0.335818
-0.505752
0.3561
0.000800206
-0.00241077
0.00161057
0.390114
0.166949
-0.00014896
-0.00583705
-0.275841
0.260307
0.0155342
-0.721798
0.372251
0.349546
-0.0149253
0.0646464
0.000547413
-0.00375336
0.164832
0.14782
-0.116622
0.541825
-0.425203
-0.169048
-0.0696906
0.238739
0.257686
-0.0551634
0.153389
0.0931265
-0.246516
0.0320442
0.387195
-0.419239
-0.473375
0.186445
0.286931
-0.151777
-0.185426
-0.0110212
0.00428827
0.00673296
0.485855
-0.278449
-0.207406
-0.13018
0.616832
0.0631679
-0.222368
0.153701
0.0921485
0.242461
-0.437673
0.195212
0.393167
-0.528988
0.135821
-0.134166
-0.106295
-0.100355
0.444372
0.0381283
0.328959
-0.367087
0.437303
-0.589514
0.152211
0.176905
-0.0407428
0.0461141
-0.0497027
0.426518
-0.543141
-0.641421
0.271607
0.18169
-0.580368
0.398678
0.208157
-0.0980226
-0.556641
-0.33343
0.460745
-0.155972
-0.147648
0.0694874
-0.588917
-0.523246
-0.0614753
0.123617
-0.144
0.0203838
0.17209
-0.374323
0.202233
0.134313
0.301205
-0.435517
-0.43971
0.587333
-0.137792
0.422143
-0.284351
-0.00299966
0.00882828
-0.00582862
0.388527
-0.524318
0.135791
-0.622364
0.249332
0.373031
0.232021
-0.604134
0.372113
0.171866
0.37179
-0.543656
-0.127579
-0.224497
-0.279691
-0.0731865
0.352878
-0.534145
-0.0430153
0.02809
-0.227647
0.295279
-0.0676321
0.00422838
0.00867135
-0.0128997
-0.0617636
-0.0645397
0.126303
0.322906
-0.536131
0.479612
-0.447568
0.299154
-0.436946
-0.421373
-0.000273201
0.00365773
-0.00338453
-0.573399
0.462263
0.111136
0.105788
-0.438089
0.3323
0.359369
-0.316051
-0.0433183
-0.0324291
-0.0420671
0.0744962
-0.210013
0.634083
-0.42407
0.068501
-0.237549
-0.219287
0.391377
0.0741672
0.160431
-0.234598
0.13704
-0.136698
-0.37317
-0.247585
0.00226827
-0.00124774
-0.00102053
-0.00422972
0.0183048
-0.0140751
0.434244
-0.396116
-0.13145
0.0361059
0.0953446
0.332593
-0.118033
-0.214559
0.471072
-0.462363
-0.0652639
-0.0661866
0.205299
0.280671
-0.516329
0.383144
0.133186
0.151309
0.430593
-0.581902
-0.00168872
0.000325971
-0.0150749
0.0120753
0.369197
-0.0734751
-0.00206557
-0.00271056
-0.0126176
0.0112918
0.326042
0.169849
-0.495891
-0.2923
0.0551244
-0.00992963
-0.298971
0.24397
0.0550015
0.212029
-0.397086
0.185057
-0.094409
0.390162
0.126537
-0.574171
0.447635
0.371481
-0.159452
-0.433151
0.63137
-0.19822
0.0137046
0.345664
0.067118
-0.178576
-0.184756
-0.422203
-0.146637
0.375565
-0.325111
-0.152754
0.407655
-0.254901
0.197246
0.288609
0.181172
-0.514602
-0.000140572
-0.000574593
0.000715165
-0.184393
0.248564
-0.0641709
0.243449
0.0751299
0.321991
0.0742916
-0.00378427
0.089186
0.0979268
-0.232092
0.0651409
0.00457918
-3.33534e-05
-0.00167849
0.00252906
0.198751
0.116941
-0.315693
-0.407503
0.353755
0.0537476
-0.0316893
-0.189498
-0.326832
0.0592538
0.127442
-0.157865
0.0422552
0.11561
0.518663
-0.0685731
-0.45009
0.398185
-0.637953
0.538904
-0.0506053
-0.488299
-0.0459483
-0.0195472
0.365335
-0.111626
-0.00467308
-0.0167323
-0.0220135
0.0177838
0.50736
0.157272
0.0750392
-0.412341
0.337302
0.00357669
-0.57981
0.0102149
-0.00170054
0.239869
0.0988377
0.0523583
0.284036
0.192929
-0.253283
0.203315
-0.136197
-0.0114698
-0.00372077
0.0151906
-0.0601929
0.286596
-0.0158342
0.00436438
-0.166609
0.536484
-0.369874
-0.32927
0.188259
0.102315
-0.591822
0.174674
-0.0387364
-0.33436
0.0797193
0.254641
0.0189929
0.118047
0.0780094
0.206437
-0.284447
0.414351
-0.0923596
-0.494132
0.0206044
0.473528
0.328288
-0.247763
-0.466352
0.234093
0.232259
-0.268311
0.524856
-0.256545
-0.14031
-0.610086
0.183851
0.426234
0.455944
-0.324499
0.325537
-0.463363
0.137826
0.386757
-0.188005
-0.00342717
-0.000369876
0.00379704
-0.490577
0.511548
-0.519953
0.426386
0.0935676
-0.33844
0.0772386
0.261202
-0.276093
0.410405
0.0241938
-0.030124
-0.00544601
0.00123001
0.004216
0.00301812
0.0432177
-0.0462358
0.403868
-0.0323875
0.410445
-0.0163653
-0.263326
-0.0460492
0.340026
-0.293977
0.409276
0.119695
-0.528971
-0.273744
0.152406
0.121338
0.447394
0.178921
0.00287355
0.0270849
-0.0299585
-0.383011
-0.192749
0.57576
0.1773
-0.557465
0.380165
-0.00695619
0.00405341
0.00290279
0.305085
-0.117763
-0.187323
0.212182
0.380139
-0.306112
-0.167263
-0.0683542
0.0713723
-0.23416
0.0752913
0.158868
0.0904289
0.214657
-0.261167
0.196977
0.438237
0.144258
-0.582495
-0.014191
-0.0355538
-0.508524
0.0143921
0.00522199
-0.514696
0.205325
0.309371
-0.454687
0.186376
-0.368373
0.570442
0.00236251
-0.00250308
-0.29945
0.227758
0.0716928
0.468285
-0.234192
0.0648344
-0.101812
0.0369772
-0.0152102
-0.00173502
0.229568
-0.494789
-0.0707143
-0.163445
0.311837
0.102513
0.391995
-0.326821
-0.0651736
-0.365691
0.0713028
0.00366862
0.00933489
-0.0130035
0.000203331
0.00151252
0.115247
0.11166
-0.226907
0.102299
-0.0374642
-0.0378933
-0.0563322
0.0942255
0.517147
-0.0928262
-0.42432
-0.00559081
-0.0485805
0.0541713
-0.214711
0.292721
0.343423
0.156537
-0.499961
-0.000351449
0.0112415
-0.01089
-0.00175851
0.016695
0.416117
-0.224117
-0.192
-0.109707
-0.307978
0.417685
-0.00486975
0.0150995
-0.0102298
0.344083
-0.208461
-0.135622
0.513447
-0.18791
0.0132862
-0.0109118
-0.00237436
0.114852
0.0598219
0.00232924
-0.0395088
0.0371795
-0.294782
0.475954
0.00889997
-0.0511892
0.0725683
-0.216127
-0.0040956
0.000668433
0.59926
-0.0291403
-0.126215
0.386725
-0.26051
0.0268914
-0.0593205
0.0394143
0.364454
0.246924
0.0309821
-0.277906
-0.440279
5.79413e-05
-0.196314
0.436324
-0.24001
-0.427902
0.43631
-0.430059
-0.00625037
0.505474
-0.413345
-0.0921297
-0.00741935
-0.0941958
-0.0821542
-0.0746357
-0.236069
0.310705
-0.181083
0.288525
-0.107441
0.429012
-0.186551
-0.372041
-0.00389293
0.0128988
0.0320131
0.135445
-0.051339
-0.248112
-0.0266708
-0.00199445
0.0286653
0.303909
-0.0915215
-0.212388
-0.00949827
0.00914682
0.194303
0.14978
0.442195
-0.367156
0.0999727
0.054768
0.193597
0.315939
-0.118695
-0.197243
-0.00296447
-0.00248154
0.367157
-0.314798
-0.000910772
0.000548174
0.000362597
-0.400026
0.095945
0.207847
-0.018222
0.157157
0.100528
-0.00874646
0.0102444
-0.00149799
0.0390212
-0.266668
-0.147516
0.377084
0.431466
-0.100642
-0.330823
-0.083793
0.102786
0.00137533
-0.00216972
-0.113652
0.513373
0.0289671
-0.0191234
-0.00984369
0.0686802
-0.0516858
-0.0169944
0.388725
-0.405203
0.0164781
-0.00191036
0.000221636
0.149756
0.336555
-0.486311
-0.0476318
0.049961
-0.0625758
0.0569849
-0.00145029
-0.00766119
0.340542
-0.436133
-0.150772
0.575915
-0.425143
0.435105
-0.344204
-0.0909013
0.458769
-0.314732
0.0960155
-0.529166
0.207869
0.208248
-0.216976
0.342806
-0.148036
-0.21719
0.365226
0.0725194
0.130795
-0.131427
-0.00836084
0.0956098
0.0976131
-0.193223
-0.00658491
0.00972422
0.0967211
-0.564323
-0.051382
-0.224459
-0.580883
0.171235
0.144997
-0.498288
0.353291
0.00146296
0.000974791
-0.00243775
-0.442687
0.424476
0.0182107
-0.00757661
-0.0174803
0.0250569
-0.495353
0.112342
0.371524
-0.510423
0.138899
-0.0860489
0.604712
0.58856
-0.260754
0.0473588
0.0583955
-0.105754
-0.0956177
-0.0132584
-0.145723
0.148295
-0.00257207
0.182625
-0.123371
0.00378793
0.548712
0.239412
0.349148
-0.160277
0.488683
-0.328406
-0.0039636
-0.410696
-0.113622
0.00104081
-0.00978727
0.00427182
0.00326141
0.0218185
-0.0181499
-0.179752
-0.0373539
0.0308862
0.00646769
0.355025
0.15045
-0.0641038
0.225148
-0.410122
0.0948642
0.188857
0.115052
0.00907126
-0.0425274
0.0334561
-0.355739
0.207703
0.00178655
9.33409e-05
-0.0266673
-0.119056
-0.0760582
0.351564
0.0490441
0.163035
0.338205
0.166822
-0.505028
-0.00219146
0.120456
0.00172364
-0.00122008
-0.00050356
0.000482424
0.00124122
-0.162168
0.485352
-0.323184
-0.11263
0.10521
-0.0176828
-0.00907509
0.0267579
0.0475079
-0.00472756
-0.000920451
-0.0019947
-0.0256338
0.0209607
0.024479
-0.0071028
0.184152
-0.0651905
-0.118962
-0.344615
0.494371
0.21424
-0.0989932
-0.173759
0.0236265
0.150132
0.212896
0.103043
0.494022
-0.122498
-0.389422
-0.167491
0.556913
0.576329
-0.037425
0.519257
-0.301384
-0.217873
0.0959062
0.0188171
-0.114723
0.340738
-0.205444
-0.135293
-0.0281372
0.00796773
0.0201694
-0.000835131
0.00197878
-0.00114365
0.104243
-0.53283
0.428588
-0.367479
0.567851
-0.200373
0.00534763
-0.00459237
-0.000755253
0.0492442
0.019436
-0.072419
0.240962
-0.168543
-0.435736
0.321655
0.114081
-0.0020003
-0.00159876
0.4409
0.0749013
0.297066
0.138039
0.018856
0.165296
-0.00752601
-0.166232
0.0293851
-0.00519123
0.4242
0.174597
-0.39971
-0.322088
0.00820986
0.0207572
-0.498075
0.366536
0.131539
0.00775595
0.00240017
-0.0101561
0.47449
0.12477
0.0117768
-0.0166465
-0.180977
-0.0927671
-0.118419
-0.324268
0.550875
-0.424338
0.512041
-0.0970514
-0.41499
0.474268
0.145237
-0.00238224
0.0101382
0.00951026
-0.127022
0.467189
-0.340167
0.10817
-0.0186268
-0.0895434
-0.0703772
0.610503
-0.215705
0.412927
-0.0704027
-0.0978893
0.168292
0.134148
-0.0109163
-0.0654259
0.0763422
-0.510513
0.629621
-0.119108
0.494938
0.205895
-0.241649
0.232261
-0.00387042
0.00314249
0.00072793
0.525306
-0.338861
-0.026415
-0.384971
-0.0468275
0.431798
-0.0796173
-0.078248
-0.461713
0.171943
0.28977
-0.489106
-0.133258
-0.000574593
-0.528163
0.361553
-0.125715
0.114424
0.0112918
0.502341
-0.158918
0.00395329
-0.0556391
-0.316371
0.270322
0.097993
-0.0480712
0.00582461
0.0422466
-0.0236095
0.0385975
-0.014988
-0.12265
0.21826
-0.048164
-0.251931
0.0102817
0.12715
-0.00387085
0.331269
-0.0914004
0.0832976
0.244991
-0.408211
0.513269
-0.105058
-0.536509
0.365013
0.171496
0.467203
-0.34674
-0.0606039
-0.110761
0.0697848
-0.547075
0.000883362
0.00406816
-0.00495153
-0.29903
-0.0394102
-0.186047
0.597418
-0.411371
0.311114
0.0396254
-0.35074
0.354959
-0.0748105
0.544206
-0.322792
-0.221414
0.286125
0.122681
-0.348172
0.122478
-0.23584
0.113361
0.00211253
0.00621151
-0.00832404
-0.348523
0.493521
0.527196
-0.422953
-0.16845
-0.205505
-0.00354882
-0.0156729
-0.393958
-0.192299
0.586257
-0.0718586
-0.50154
-0.125845
0.564082
0.130594
-0.00697794
-0.33836
0.383398
-0.0450383
-0.0277863
-0.00956761
0.409076
-0.0202777
-0.00785948
0.00119736
0.00621793
-0.00741529
0.305757
0.130553
-0.0580072
0.0125433
0.0909401
-0.496486
0.405546
0.0235922
-0.017237
-0.00635515
0.55655
-0.163383
0.311503
-0.279475
-0.032028
-0.512406
0.144927
-0.00417568
0.11414
0.0106813
0.0950085
0.0174391
0.0449406
-0.0765376
0.272415
-0.521196
-0.541716
0.0232981
-0.172222
0.468194
-0.295972
0.00532472
-0.00526678
0.531643
-0.440702
-0.248644
0.0583851
0.190259
0.564156
-0.156645
0.0185863
-0.446993
-0.12459
0.571583
-0.135667
-0.341103
0.476769
-0.00567943
0.00540623
-0.481634
0.444428
0.0372064
0.0274966
-0.0485178
-0.433116
0.560313
-0.388447
-0.42729
0.570871
-0.14358
-0.00217933
0.000268974
-0.0105812
-0.121603
0.000147317
-0.000473453
0.178312
-0.0457053
-0.132607
0.000286498
-0.0229413
0.0144173
0.00390195
0.622062
-0.400566
-0.221495
-0.00696595
-0.00405529
-0.483642
0.1262
0.0195263
0.100633
0.280157
0.351214
0.562783
-0.381092
-0.03913
-0.116845
0.015939
-0.200332
0.414339
-0.312642
-0.0685135
0.022849
0.0456645
0.0989283
0.0793835
0.086468
-0.502597
0.416129
-0.00408725
0.0146004
-0.0105132
0.225657
0.16729
-0.392947
-0.00328206
0.00539459
-0.073669
0.0855925
-0.0119236
-0.557828
0.403492
0.154336
0.43578
-0.151879
-0.283901
-0.433026
-0.124531
0.169979
0.156255
-0.0873573
-0.0688979
0.178135
-0.165957
-0.541163
0.00726518
0.533898
-0.387766
-0.140686
0.528452
0.499681
-0.413213
-0.268602
0.0933473
0.175254
0.0347164
0.0109763
-0.0456927
-0.0344036
-0.126095
0.200262
-0.0324418
0.0270444
0.00539735
-0.209493
-0.0767489
0.00309459
0.0675642
-0.452535
-0.00094788
0.00202853
-0.00108065
0.0757187
0.358526
0.331537
0.469318
-0.272072
-0.00314523
0.0195155
0.335625
-0.447339
0.111713
-0.101745
0.0554012
0.0957562
-0.151157
0.53084
-0.0339498
-0.49689
-0.30763
0.381
0.154603
-0.535603
0.00174612
-0.0253556
-0.00787015
-0.0219053
0.504052
-0.298752
0.24861
0.373452
-0.0307112
0.0397825
0.551851
-0.156015
-0.395836
-0.0552418
0.461576
-0.406334
-0.386471
0.462419
-0.0759478
-0.464588
0.139537
0.325051
0.0784858
-0.540447
0.408766
0.153723
-0.562489
0.0189962
-0.0936647
-0.439166
-0.125953
0.198473
-0.00448207
0.249643
0.0816262
0.00212528
0.000142993
-0.29999
0.22868
0.0713105
-0.0185124
-0.107203
0.0384003
0.112292
-0.0481682
-0.212998
0.0329157
0.00355081
0.415433
-0.084076
-0.387313
0.140682
0.246631
-0.0909115
-0.492413
0.371005
0.121409
-0.306553
0.00441501
0.113726
-0.118141
0.345527
0.169555
-0.450323
-0.135923
-0.0525424
0.256333
-0.20379
-0.109828
0.555849
-0.000280992
-0.000522722
-0.392004
-0.0167684
0.408772
0.273751
0.0812084
-0.113275
-0.28745
-0.0912795
0.554926
-0.463647
-0.128505
0.439772
-0.311267
-0.00796982
-0.00333096
0.136626
0.332692
0.230119
-0.107641
0.0773265
0.000719714
-0.0780462
0.329747
0.214459
0.34971
0.160581
-0.510291
-0.05143
-0.0628882
0.0758374
-0.0129493
0.470826
-0.585775
0.497838
-0.343332
-0.154506
-0.0656178
-0.12585
0.191468
-0.262405
-0.124907
-0.0282516
0.0246822
0.275719
-0.388609
0.11289
-0.170712
0.0526845
-0.28259
0.378019
-0.0954287
0.0580137
0.0982414
-0.587842
0.335108
-0.513128
0.17802
-0.156077
-0.385348
0.541426
0.287056
-0.230922
-0.0561343
-0.328879
-0.0556287
0.384508
0.351638
-0.487291
0.135653
0.0682944
0.198144
-0.0566336
-0.0950139
0.379992
-0.203765
-0.176226
-0.0722323
-0.0332101
-0.358793
-0.146904
-0.206596
0.068633
0.137963
0.594413
-0.16382
-0.0719976
0.0759508
-0.413981
0.304273
0.126387
0.263612
-0.389998
-0.032042
0.0244654
-0.161227
-0.00638901
0.167616
0.219909
-0.577403
0.395423
0.18198
0.324395
-0.258311
0.0789534
-0.518113
0.439159
-0.116395
0.00350645
0.112888
0.033169
-0.0527877
0.0196187
-0.430145
0.109374
0.320772
-0.496654
0.362607
0.134047
-0.1166
-0.18781
0.30441
-0.282587
0.116264
0.166323
0.110132
0.212283
0.0353165
-0.572816
0.0147271
-0.00605574
0.115557
0.416112
-0.531668
-0.00493267
-0.0233189
-0.328413
-0.127116
-0.0978083
-0.0281605
0.125969
-0.101147
-0.0401215
-0.450303
0.341261
0.109042
-0.266033
0.251522
0.0145115
-0.00620423
-0.00402673
0.010231
0.000733037
0.000222635
-0.423643
-0.00283352
0.00338093
0.23655
-0.318441
0.081891
-0.432238
0.28036
-0.001804
0.000856122
0.435916
0.253145
-0.483082
0.42784
-0.0695736
0.226731
-0.0186624
0.549502
-0.000269922
0.00392765
0.0058314
0.0177608
-0.411536
0.378326
-0.18242
-0.256958
0.439378
-0.387844
0.310343
0.0775006
-0.00864599
-0.00186349
0.0105095
0.216613
-0.144045
-0.557451
0.143084
0.414367
0.111162
0.430664
-0.376999
-0.354427
0.378012
-0.0423862
0.280852
-0.399271
-0.11198
0.350807
-0.0569297
-0.599453
0.459153
0.140299
0.45721
0.328581
-0.223213
-0.0663326
0.0443678
0.0219648
0.560904
-0.141119
-0.419785
-0.0544453
-0.00298573
0.057431
-0.082924
0.0436838
0.0392403
-0.166359
0.444105
-0.277746
-0.0457208
0.516546
-0.494879
0.32852
0.421464
0.158592
-0.575621
0.415666
0.159955
-0.142726
-0.000738926
0.143465
-0.0010038
-0.277316
0.160716
-0.406951
0.00384758
-0.00536894
0.00152137
0.161224
0.218768
0.235717
0.305415
-0.0688646
0.414381
-0.554226
0.139844
-0.0812207
-0.217285
0.449306
-0.343405
0.494677
-0.156472
-0.0236784
-0.0741299
-0.126808
0.172738
-0.56216
0.17705
0.0564614
-0.233512
-0.000997229
0.00197039
-0.000973165
-0.436746
-0.137425
-0.0597568
0.236588
-0.176831
0.0650524
-0.494615
0.429563
-0.134942
0.0929743
0.00345577
-0.00257241
-0.00535685
-0.281885
-0.105959
0.0098827
0.00677461
-0.41202
-0.00483178
0.00331468
0.00151711
-0.0248382
-0.185886
-0.431433
-0.00324295
0.00171648
0.00152647
-0.480629
0.388654
0.091975
-0.0012896
0.0187286
0.000453103
5.136e-05
-0.000504463
-0.258048
0.367233
-0.109185
-0.555675
0.158782
0.396893
-0.00167549
-0.34371
-0.106592
-0.209852
0.189515
0.020337
-0.00528522
-0.370122
0.375407
-0.604939
0.19846
0.406479
-0.0176661
-0.00128654
-0.280506
-0.469545
-0.039023
0.508568
-0.254176
0.333896
0.0282675
-0.0332001
-0.115208
0.106078
0.0091302
0.032627
-0.00558258
-0.415656
-0.240802
0.656459
-0.284069
0.323636
-0.0395672
-0.576275
0.449471
0.126804
0.0971718
-0.35522
-0.359758
0.272171
0.0875875
-0.392584
0.576435
-0.0161616
0.062346
-0.0461843
0.18484
-0.272562
0.0877219
0.0575235
0.00444448
-0.142907
0.0758498
-0.292826
-0.211905
-0.00239177
-1.89992e-05
0.00317941
-0.00318499
5.57597e-06
0.00964093
0.0770338
-0.0866747
0.0988513
-0.516135
0.417284
0.357861
0.139976
-0.538986
-0.0337997
0.572786
-0.00428679
-0.0117662
0.016053
-0.0280157
0.27872
-0.343956
0.45333
0.0669545
0.152783
-0.219737
-0.076357
0.00779354
0.0685634
-0.0625664
0.283263
-0.220697
-0.408732
0.291926
0.116806
-0.583198
0.45884
0.124358
0.107292
0.303313
-0.410605
-0.0385961
-0.460643
0.49924
-0.42221
0.521062
-0.334164
-0.405077
0.55386
-0.148784
0.155284
0.289144
0.428482
0.123369
-0.229415
-0.163133
0.392547
-0.297862
0.503186
0.0627606
0.261634
-0.0360224
-0.334494
0.370517
-0.140813
-0.0324086
-0.421654
0.617936
-0.196282
0.0151873
-0.490062
-0.0757234
0.565786
0.0967073
0.011463
0.378804
0.144807
-0.489422
-0.129484
-0.00459893
6.55396e-06
-0.455059
0.192419
0.422046
-0.614465
-0.0439814
-0.0814455
0.125427
0.0469302
-0.0728569
-0.252706
0.325563
-0.000346627
-0.0621816
0.0949433
-0.42479
0.24237
-0.0366398
-0.473873
0.541829
-0.36453
0.395291
0.427009
-0.290384
0.12279
-0.352205
0.143613
-0.331879
0.188266
-0.225296
-0.199482
0.424778
0.00135237
-0.00418588
-0.00474575
-0.0172678
0.243078
-0.0896889
-0.12864
-0.251541
0.198999
0.113036
-0.0171302
-0.0316162
0.299737
0.204736
-0.504473
-0.00293811
-0.361885
0.0778158
-0.10183
0.557617
-0.143236
0.0487948
0.450886
0.395396
0.162222
-0.00230802
-0.41189
-0.145937
-0.214503
0.00191854
-0.00275368
-0.404241
-0.00326224
-0.173657
-0.319019
-0.0153596
0.0113329
-0.149982
-0.304121
-0.104611
-0.270439
0.00440605
-0.066716
-0.191946
-0.344562
0.00806234
-0.0643946
-0.00123828
0.00530644
-0.207894
0.223833
0.406306
0.129517
-0.535823
-0.301737
0.409029
-0.526702
-0.444494
0.0701599
0.374334
-0.00577325
-0.560006
0.427629
0.132377
-0.00289314
-0.37136
0.374254
0.436209
-0.280925
0.438327
-0.38707
-0.0545055
-0.240357
0.279378
0.049493
-0.330349
0.280856
-0.293612
0.223857
0.0697542
0.00378301
0.132112
-0.135895
0.000172111
-0.373371
0.575536
-0.441281
0.556364
-0.115083
-0.25427
0.371972
0.291793
-0.00177692
0.00066097
0.00111595
0.113514
-0.410676
0.297162
0.325277
-0.216273
-0.109004
-0.457271
-0.0233773
0.480648
-0.00879495
0.041594
0.00591386
-0.318206
-0.241296
-0.590481
0.00189287
0.293198
-0.455366
0.00462717
-0.0855998
-0.0722983
-0.396628
0.468926
0.0284548
-0.00752154
-0.0209333
-0.0016162
0.000368456
-0.469248
0.00346815
0.46578
-0.194826
0.566616
-0.526257
0.16331
0.362947
-0.0035034
0.0181511
-0.0146477
0.467133
-0.517739
-0.0184688
0.196604
0.133879
-0.130096
-0.0420896
0.139169
0.339725
-0.0522575
-0.287467
0.00101899
-0.00288804
0.376484
0.10136
-0.477844
0.0832627
-0.0059362
0.0020368
-0.00245887
0.0558647
-0.270237
0.214372
-0.104677
0.160078
0.581355
-0.166589
-0.414766
0.0907817
0.347545
-0.0479211
0.0555541
0.200779
0.0540649
-0.0152588
-0.018117
0.0224178
-0.00430082
-0.332022
0.152266
-0.579269
0.469859
0.10941
0.0316761
-0.370036
0.143461
0.0827759
-0.226237
-0.459888
-0.0093604
-0.520084
0.126126
0.282893
0.221158
-0.44582
-0.147089
-0.33354
-0.555728
0.193667
0.362061
-0.282502
-0.0536892
0.336191
0.543348
-0.509362
-0.0339854
-0.300139
0.434212
-0.0112344
-0.103578
0.114812
-0.00781803
-0.0605362
-0.546463
0.158697
0.145351
-0.487732
-0.00707961
-0.120352
0.11816
0.10417
0.184683
-0.288853
0.272995
0.212236
0.318131
0.000411915
0.381456
-0.403466
0.0220099
-0.181805
0.0714554
0.0227701
-0.490249
0.395818
0.0944309
-0.0339579
0.0319635
-0.428926
0.300421
0.333359
-0.000998018
0.00510608
-0.00410806
-0.464303
0.0070321
-0.465659
-0.11754
0.147467
-0.122417
-0.02505
-0.542909
0.123629
0.41928
0.00475283
-0.0228698
-0.0283413
0.304948
-0.276607
0.155404
-0.227823
-0.123193
0.213622
-0.504734
0.200524
0.000594062
-0.00446449
0.180323
0.295926
-0.476249
0.306641
-0.420006
0.113365
0.35656
0.00902877
-0.0108923
0.00650372
-0.00150195
-0.00500177
-0.0547822
0.00285425
-0.0367806
0.0339264
-0.00771702
0.0175997
-0.515587
0.147819
0.367768
0.0266017
0.537271
-0.141875
-0.57863
0.222468
-0.155514
0.434845
-0.153993
-0.0621285
-0.0221153
0.0842438
-0.119755
0.512632
-0.392877
0.400026
-0.402919
0.0106948
0.27783
-0.142134
0.0981527
-0.571751
0.14879
0.060967
-0.00344346
0.00791432
-0.00169638
-0.327858
0.0453561
-0.183149
-0.394316
0.577465
0.126566
-0.567848
0.0820366
-0.204687
-0.0896763
0.461648
0.533344
-0.159686
-0.373659
0.00218619
-0.0978802
0.095694
0.000442285
0.00301349
0.534797
-0.126031
-0.110832
0.390877
0.143921
0.43172
-0.0908182
-0.340902
0.592317
-0.466353
-0.125963
-0.600241
0.427418
0.172823
0.0384846
0.164422
-0.202906
0.118689
-0.129923
-0.205555
0.526318
-0.320763
0.364031
-0.204676
-0.159355
0.296969
-0.416724
-0.120616
0.128539
-0.00792373
0.194364
-0.532754
0.33839
0.00679625
-0.0553656
0.238997
-0.183632
-0.522017
0.184782
0.337235