/*--------------------------------*- C++ -*----------------------------------*\
| =========                 |                                                 |
| \\      /  F ield         | OpenFOAM: The Open Source CFD Toolbox           |
|  \\    /   O peration     | Version:  v2012                                 |
|   \\  /    A nd           | Website:  www.openfoam.com                      |
|    \\/     M anipulation  |                                                 |
\*---------------------------------------------------------------------------*/
FoamFile
{
    version     2.0;
    format      ascii;
    class       surfaceScalarField;
    location    "300";
    object      ddtCorrDdt0(phi);
}
// * * * * * * * * * * * * * * * * * * * * * * * * * * * * * * * * * * * * * //

dimensions      [0 3 -2 0 0 0 0];
oriented        oriented;


internalField   nonuniform List<scalar> 
21458
(
5.34177e-05
-7.28092e-05
1.9392e-05
-2.10273e-05
2.3324e-06
1.86955e-05
1.69704e-05
-2.45857e-05
7.61545e-06
0.000131105
-0.000195343
6.42372e-05
-7.60648e-06
-6.86147e-05
7.62217e-05
0.000199875
-0.000227202
2.73264e-05
-2.64094e-06
-1.59356e-05
1.85765e-05
-1.36518e-05
1.29392e-05
7.12387e-07
-1.51659e-05
-4.3566e-06
1.9523e-05
0.000280155
8.43272e-06
-0.000288584
3.31103e-05
-2.62347e-05
-6.87521e-06
0.000184364
-5.32599e-05
7.91128e-05
3.26357e-05
-0.000111748
0.000105392
-2.62789e-05
-3.61518e-06
4.53984e-05
-4.17834e-05
2.48096e-05
-3.09695e-07
-2.44993e-05
2.40902e-06
-0.000302501
0.000300092
-9.13218e-06
3.4707e-05
-2.55712e-05
0.000292041
-0.000514416
0.000222374
-6.72472e-06
-1.8339e-05
2.50635e-05
-1.29468e-05
2.44852e-06
1.04982e-05
7.81878e-06
1.69909e-05
0.000180678
1.28517e-05
-0.000193528
-2.00986e-05
4.93291e-06
8.8153e-06
-1.71362e-05
8.32046e-06
1.98369e-05
-3.0559e-05
1.07223e-05
5.30302e-05
0.000227126
-1.18312e-05
7.27884e-05
-6.09579e-05
-6.08756e-05
5.72602e-05
6.52751e-05
9.51498e-06
-7.47898e-05
7.76995e-05
-0.000178081
0.000100382
3.25844e-05
-4.17137e-05
-1.41685e-05
8.44738e-07
1.3324e-05
-8.16848e-06
1.64482e-05
-8.27968e-06
-1.19969e-05
2.79624e-06
9.19963e-06
-1.62145e-05
1.89804e-05
-2.76625e-06
1.24213e-05
-1.27306e-05
-1.64196e-05
1.78557e-05
-1.4356e-06
0.000116203
2.00616e-05
-0.000136265
-6.01502e-05
1.95211e-05
4.06293e-05
2.24016e-06
-1.86596e-05
7.2642e-06
-1.38666e-05
6.6028e-06
1.96369e-05
-3.28375e-06
-1.63531e-05
-3.39165e-05
4.17351e-05
-0.000142494
0.000113123
2.93694e-05
-2.40415e-05
2.40418e-05
-1.54861e-05
0.000292947
-0.000277461
-1.07965e-05
1.7508e-05
-6.71149e-06
-7.97289e-06
2.28925e-05
-1.49209e-05
-4.55498e-05
2.97428e-05
1.58076e-05
0.00042351
-0.000604433
0.000180931
0.000158374
-0.000130263
-2.81111e-05
0.00020258
-7.68362e-05
-0.000125742
1.20807e-05
-2.28771e-05
-1.82151e-05
5.27248e-05
-3.451e-05
-8.39941e-05
8.10506e-05
2.94335e-06
-0.000174768
4.02937e-05
0.000134478
-1.57225e-06
-1.04247e-05
-3.06368e-05
0.000211816
-0.000181179
-8.15463e-06
-1.20103e-05
2.01653e-05
8.82654e-06
1.13558e-05
-2.01822e-05
4.60042e-05
1.34322e-05
-5.9436e-05
5.521e-05
8.81735e-05
-0.000143382
-0.000244205
5.48042e-05
0.000189407
-0.00010197
7.20462e-05
2.99242e-05
-2.5019e-05
6.31627e-06
1.87025e-05
1.43697e-05
-7.90432e-06
-6.46522e-06
0.000208592
-0.000294976
8.63843e-05
-8.26991e-05
-0.00033093
0.000413632
-0.000165091
0.000246674
-8.15804e-05
-0.000375111
-2.50803e-05
0.000400192
0.000265403
-0.000177874
-8.75272e-05
0.000344694
-0.0001353
-0.000209392
1.89507e-05
-2.56752e-05
-1.60817e-05
-4.01644e-06
0.000255569
-0.00020559
-4.99757e-05
-0.000109736
3.23762e-05
7.73598e-05
-0.000213062
-6.70371e-05
0.000280114
-0.000235046
6.99578e-05
-0.000119562
-0.000262396
0.000381959
5.81431e-06
-3.38199e-06
-2.43213e-06
-3.89754e-05
6.68977e-06
3.2285e-05
0.000147077
-0.000522189
5.44711e-06
2.43915e-05
-2.98384e-05
-7.82353e-05
-6.42598e-05
0.000795332
-0.000627308
-0.000168022
-1.51809e-06
-3.08214e-05
3.23401e-05
2.05238e-05
-2.17438e-05
4.03213e-05
-1.85775e-05
8.9273e-05
0.000116578
-0.000205851
-4.48331e-05
-5.71366e-05
0.000148561
-0.000165666
1.71058e-05
2.90856e-05
0.000107286
-0.000136372
-8.86922e-05
2.62053e-05
6.24866e-05
0.000124739
-9.22243e-06
-0.000115512
-1.1704e-05
-1.19047e-05
2.36083e-05
0.000197767
-0.000108494
-2.73797e-05
1.21912e-05
1.51884e-05
0.000285648
-0.000211833
-7.38119e-05
-1.25671e-05
7.78423e-05
-1.39693e-05
-0.000160796
-0.000213399
0.000182762
1.46583e-05
-1.02989e-05
-4.35949e-06
-9.9822e-06
-1.73976e-05
9.60194e-06
-8.0779e-06
-1.52455e-06
-0.000196581
-4.76173e-05
0.000120701
0.000144702
-6.08696e-05
-2.31249e-05
-2.65304e-05
-3.362e-05
7.07893e-06
-3.41655e-07
-6.7366e-06
-2.46196e-05
6.54135e-06
1.80777e-05
3.01666e-05
1.61984e-05
-4.63647e-05
0.000155615
4.69656e-05
-4.27284e-06
2.411e-05
2.95156e-06
3.00258e-06
-5.9541e-06
-2.4904e-05
8.82266e-06
3.10738e-05
1.49307e-05
1.10332e-05
-1.626e-06
-9.40801e-06
-0.00031766
0.000760755
-0.000443095
1.16868e-05
-1.98548e-05
-1.33313e-05
8.2557e-06
5.07586e-06
0.00020119
-0.00012349
2.40023e-05
-2.83064e-05
4.30394e-06
-0.000243243
0.000252968
-9.72393e-06
-7.55399e-06
-2.86528e-06
1.04188e-05
-3.21355e-05
3.25487e-05
-4.1401e-07
-3.5109e-05
4.97288e-05
-1.46204e-05
7.58164e-06
-7.17843e-06
-4.03834e-07
-5.978e-05
0.000100076
1.37519e-05
-1.0199e-05
-3.55365e-06
-0.000454501
-9.6619e-05
0.000551121
0.000225132
-5.77125e-06
9.99101e-06
-4.22022e-06
0.000245143
-0.000183598
-6.15441e-05
6.0763e-05
-4.29432e-06
-5.64692e-05
-0.000190133
0.000235962
-4.58274e-05
2.49084e-05
-3.58816e-05
1.09726e-05
-6.93345e-05
0.000492847
0.000146147
-0.000204154
5.80057e-05
1.23165e-05
-2.10329e-05
8.71609e-06
0.00018566
-0.000208556
2.28959e-05
1.77513e-05
1.88574e-06
0.000264572
0.000100567
-0.000365139
0.000129912
-7.47018e-05
-3.03098e-05
3.57562e-05
-0.000297514
0.000301738
-4.21873e-06
-7.18275e-06
2.09515e-05
-1.37687e-05
-4.35564e-05
6.28036e-05
-1.92477e-05
-6.90476e-06
-7.54327e-06
1.44483e-05
9.02836e-05
3.44594e-05
-5.19393e-06
2.21642e-05
-2.91674e-05
1.08283e-05
-0.000231904
0.000237176
-5.27146e-06
-0.000300834
0.000303244
-0.000239538
9.31646e-05
0.000141448
9.05428e-05
-0.000231988
-2.73751e-06
1.7309e-05
-1.45711e-05
0.000469096
-0.000522154
5.3069e-05
0.000107742
-0.000320798
-0.000154281
0.000295733
0.000241653
-0.000171204
-7.0448e-05
0.000150429
0.000117358
-0.000267783
0.000477673
-5.1409e-05
-0.000185956
0.000237369
0.000286532
-0.000302017
1.09896e-05
-7.77187e-06
-3.2184e-06
6.32271e-05
-3.30604e-05
-3.14043e-05
-1.41453e-05
6.92921e-06
-1.86335e-05
1.40168e-05
-1.47209e-05
7.03765e-07
-0.000136417
5.81808e-05
3.10262e-05
-4.92416e-05
0.00040659
0.000354165
9.4561e-06
3.26702e-05
-4.21258e-05
-3.92611e-05
0.000116808
-7.75476e-05
2.99572e-05
1.64148e-06
-3.15983e-05
2.89505e-05
-1.45445e-05
-1.44065e-05
5.39635e-05
-1.24082e-06
-5.27237e-05
1.82212e-05
-5.01661e-06
-1.32044e-05
-0.00020352
1.33865e-05
-4.8619e-06
2.38126e-05
1.08189e-05
2.13844e-07
0.000165425
-1.68631e-05
-2.04825e-05
1.87712e-06
1.86055e-05
-5.18955e-05
4.58222e-05
6.07381e-06
-6.32397e-06
1.35886e-05
1.41506e-06
6.32318e-06
-7.73702e-06
-0.00017184
-0.000120734
0.000292574
-0.00016483
0.000429402
-2.83836e-06
1.46693e-05
-1.18308e-05
3.49779e-05
-0.000317989
0.000283008
6.91851e-06
-6.79287e-06
-1.25069e-07
1.09856e-05
-1.36266e-05
-0.000175554
0.00017868
-3.12583e-06
0.000258176
6.41221e-05
-0.00036715
0.000113066
0.000254078
2.58203e-05
-3.78453e-05
1.20251e-05
4.56685e-05
-3.62126e-05
5.51817e-06
-2.56726e-06
2.59519e-05
-0.000480452
0.000216614
0.000632433
-0.000849046
0.000169414
-4.58285e-06
-0.00016483
1.01055e-05
-4.10675e-06
-3.02011e-06
7.12659e-06
3.889e-05
-1.39823e-05
-0.000496191
0.000133256
0.000362936
1.53753e-05
1.35751e-05
-1.55496e-05
-3.63461e-05
-4.88002e-05
-0.000185859
0.000234657
-0.000200451
-0.00014492
0.000345373
-3.50539e-07
-1.25475e-05
1.28985e-05
7.0335e-06
7.33617e-06
-3.04776e-05
3.44364e-05
-3.95854e-06
-0.000236557
1.62351e-05
0.000220322
0.000326852
-7.15003e-05
-0.000255347
2.02793e-05
-6.42363e-06
-1.38556e-05
-1.92508e-05
3.03578e-06
6.27253e-05
-5.61849e-05
-6.54074e-06
-0.000110243
5.49255e-05
5.53182e-05
-0.000203792
0.000152144
5.16456e-05
8.17923e-05
0.000303022
-0.000384812
-2.24408e-05
4.54231e-05
-2.2984e-05
4.44203e-05
-1.92066e-05
-2.52134e-05
-0.000154656
0.000206507
-5.18513e-05
-3.83559e-06
-8.53281e-06
1.23681e-05
-1.63191e-05
-8.30064e-06
-1.44087e-05
6.06404e-06
-3.00347e-05
2.85167e-05
1.89698e-05
-5.78724e-06
-1.31831e-05
6.20242e-06
7.9649e-06
-1.41669e-05
-7.92904e-07
1.55564e-05
-1.47635e-05
8.49191e-05
-8.66586e-05
1.73943e-06
9.15413e-06
-6.63637e-06
-2.51741e-06
9.87066e-07
-5.09428e-06
6.66113e-05
1.44387e-05
1.27063e-06
-1.30462e-06
3.4246e-08
2.68544e-06
1.31838e-05
-1.587e-05
1.86568e-05
-7.21873e-06
-1.14379e-05
-0.000218831
6.41755e-05
-0.000184313
-5.19829e-05
0.000236298
-3.46502e-06
1.03837e-05
1.53382e-05
-6.52298e-06
0.00013206
0.000215095
-0.000347151
-0.000266315
0.000217514
-1.49046e-05
-5.77258e-06
2.06772e-05
-4.24371e-05
2.06928e-05
8.81574e-05
-8.53612e-05
-2.7961e-06
0.000178785
-0.000137495
-4.12873e-05
-2.43045e-06
-1.12215e-05
0.00020533
4.88887e-05
-0.00025422
-5.49633e-06
1.20331e-06
4.29344e-06
5.01777e-07
-8.05577e-06
0.000165864
1.29226e-05
-0.000244144
-4.98818e-05
0.000294026
-2.39345e-05
2.64567e-05
-2.52337e-06
6.5552e-05
-7.73832e-05
-1.4905e-05
-2.23079e-06
0.000199716
-1.9037e-05
8.0435e-05
-0.000342832
0.000186512
-0.000251806
6.52943e-05
0.000146971
3.17088e-05
0.00017103
7.41133e-05
-2.11584e-05
2.18288e-05
-6.69612e-07
-2.06563e-05
-6.48396e-08
2.07217e-05
4.32323e-06
-2.54809e-05
-0.000228174
0.000309969
-0.000114916
0.000184683
-6.97673e-05
0.000317877
-0.000109284
3.97114e-05
-0.000337223
-5.10109e-05
1.59015e-05
6.37143e-05
-1.76733e-05
-4.6041e-05
3.11252e-05
-1.21616e-05
1.1526e-05
6.6953e-06
-2.02939e-05
1.69258e-05
3.36509e-06
-0.000228333
8.37076e-05
0.000144625
3.57291e-06
1.2295e-05
-1.58681e-05
2.58743e-05
3.39666e-05
-5.98378e-05
-0.000164664
-6.156e-05
0.000226235
-7.3238e-05
6.86498e-05
4.5881e-06
3.03499e-05
3.03414e-05
-6.069e-05
0.000183921
-0.000338202
0.000319486
6.24727e-05
4.10506e-06
8.34135e-06
-1.24462e-05
7.34909e-06
-4.66387e-06
4.46275e-05
-3.81296e-06
-4.08149e-05
1.74458e-05
1.36796e-05
-3.57049e-05
-0.000134884
0.000170589
0.00017897
-0.000197349
1.83781e-05
4.74251e-05
-3.22618e-05
-8.01771e-05
6.45484e-05
6.81463e-05
-7.383e-06
0.000200448
-5.73598e-07
-1.94985e-05
5.05254e-05
1.91689e-05
-4.24994e-05
2.50637e-05
1.74359e-05
5.00909e-06
-1.94817e-05
1.4472e-05
4.17434e-08
1.09479e-05
1.02937e-05
-1.23879e-05
2.09437e-06
3.23459e-06
-3.37121e-05
0.000176517
-0.000171603
-4.91421e-06
-8.66277e-06
-1.10916e-05
1.97543e-05
-1.10847e-05
0.000103442
-9.23575e-05
-5.88756e-05
2.69071e-06
-4.31971e-05
4.51541e-05
-1.95748e-06
0.000602469
-0.000539097
-6.33685e-05
2.27163e-05
0.000146697
-1.92857e-05
2.47837e-05
-5.49822e-06
3.54444e-05
-3.19242e-05
-3.5202e-06
-0.000130465
-7.33295e-05
-2.10647e-05
5.41749e-05
-3.6453e-05
-7.5609e-06
4.40131e-05
-5.56903e-06
-1.41948e-05
1.97635e-05
1.0124e-05
8.53208e-06
1.85974e-05
-2.13349e-05
-4.91958e-05
3.65062e-05
-8.37071e-06
-2.81357e-05
-2.18714e-06
3.21445e-05
-8.20917e-06
1.43918e-05
-6.18261e-06
7.88702e-06
-8.23781e-06
-1.41087e-05
1.92735e-06
1.21808e-05
3.12243e-06
1.58471e-05
-1.22461e-05
-9.19913e-05
0.00010424
0.000450716
-0.000205071
-0.000245646
9.81156e-05
-3.79478e-05
-6.01676e-05
-3.07331e-05
1.53783e-05
1.53561e-05
-2.98813e-05
2.22752e-05
-5.21111e-05
0.000109722
-5.76096e-05
-1.94246e-05
2.18446e-06
1.72403e-05
-0.000172506
-6.70305e-05
7.48269e-05
-0.000216658
0.000141831
3.83632e-05
-0.000405518
7.11612e-05
1.37576e-05
0.000131007
0.00031971
-8.14173e-06
-7.29712e-06
1.54386e-05
6.80644e-06
-5.06186e-06
-1.74486e-06
-0.000225616
0.000187996
3.76178e-05
9.06025e-05
9.24799e-05
-9.30779e-06
-8.31713e-05
2.49931e-06
-6.88111e-05
6.63124e-05
-1.88127e-05
-6.20635e-06
0.000178779
2.16689e-05
-1.47269e-05
5.58343e-07
-0.00020358
8.86641e-05
1.50065e-06
-9.80637e-06
8.30629e-06
8.00191e-05
-2.75927e-05
-5.24261e-05
0.000369597
-0.00033462
-6.59044e-06
8.09085e-06
6.66215e-05
2.5859e-05
-8.32885e-05
0.000112374
3.61917e-05
-5.84038e-06
1.11322e-05
-1.92869e-05
-2.60686e-05
4.77507e-05
-2.16818e-05
-3.70263e-06
-1.6592e-05
5.89141e-07
1.53032e-05
-1.58924e-05
-2.35406e-05
2.74232e-06
2.07976e-05
-1.65132e-06
-0.000104404
0.000106054
-7.24534e-06
-2.48905e-05
1.87452e-05
-3.04038e-05
1.16584e-05
1.99397e-05
-2.74207e-05
7.48123e-06
0.000304086
-0.000134527
-0.000169559
0.000232519
-0.000219896
-1.26227e-05
-4.96407e-06
3.92346e-05
-1.33584e-05
-1.27744e-05
2.26e-05
-9.82583e-06
2.35648e-05
-1.33096e-05
-1.02495e-05
1.57549e-05
-7.72001e-05
6.14449e-05
-0.00010084
4.87304e-05
-0.000130683
0.000245222
-0.000114538
-9.5512e-06
0.000338311
-0.000328759
-4.72108e-05
-0.000157563
0.000204776
-0.000131956
-5.05931e-05
0.00018255
-1.02184e-05
-1.52603e-06
1.17435e-05
0.000162873
-0.000118347
-4.45221e-05
0.000240382
-5.38704e-05
0.000439118
4.75518e-06
1.54749e-05
-2.02302e-05
4.59342e-05
8.32537e-05
-0.000129188
-1.98554e-05
-2.26438e-05
1.27533e-05
-1.99361e-05
-8.16956e-05
-6.99755e-06
-5.61158e-05
2.53265e-05
-2.03176e-05
0.000127482
-0.000174692
-4.98045e-05
-7.32153e-05
0.00012302
-1.3471e-05
1.23327e-05
1.1384e-06
0.000117915
4.79804e-05
-0.000165894
-2.98601e-05
2.62499e-05
3.60928e-06
-8.73308e-05
-0.000177432
0.000264764
2.1541e-05
-8.82791e-05
6.67389e-05
3.47597e-05
-4.43386e-05
9.5777e-06
-4.63639e-05
1.68616e-05
2.95022e-05
2.69236e-05
-2.81606e-05
1.23674e-06
-0.000534155
0.000750771
0.000156258
-0.000356709
0.000211022
-0.000159352
-5.16712e-05
-3.74597e-05
5.01894e-05
-1.27293e-05
-1.5784e-05
-3.64048e-06
1.60113e-06
-7.91697e-06
6.31612e-06
5.82917e-05
0.000183361
5.53647e-05
8.34949e-06
-7.03907e-05
0.000172535
-0.000102145
1.74326e-05
-3.98701e-05
2.24374e-05
2.61884e-05
4.82548e-05
-7.44439e-05
3.57909e-05
-3.46816e-07
1.09783e-05
9.30093e-06
0.000184053
-7.53585e-06
1.1977e-05
-1.99504e-05
-1.13383e-06
-2.24075e-05
-0.000308079
0.000254522
5.35593e-05
-0.000184095
0.000255687
-7.15889e-05
-2.17629e-05
1.28034e-06
8.0243e-06
-6.42306e-06
-1.79179e-05
-1.09725e-05
2.8893e-05
-1.30572e-05
1.29049e-05
1.5158e-07
1.42766e-05
-6.06403e-05
5.96824e-05
9.86914e-05
1.39789e-06
4.4165e-06
1.20015e-05
1.30726e-05
-2.50744e-05
-3.09297e-05
6.90153e-06
2.40284e-05
-2.45784e-05
3.55101e-06
-0.00041765
0.000997084
-0.000579449
1.95395e-05
0.000256474
-0.000276014
3.97481e-06
2.03881e-05
-4.40182e-06
-1.5986e-05
-0.000132117
3.45088e-05
-1.56528e-05
-1.88561e-05
2.75398e-06
4.05251e-06
7.72784e-05
3.26802e-05
-0.000109959
6.52057e-05
-0.000259536
0.00019433
8.01077e-05
-1.22881e-05
-8.24836e-06
2.05361e-05
2.27536e-05
-5.52552e-08
-2.26979e-05
1.8521e-05
1.86748e-06
0.000158996
-0.000266424
0.00010743
-9.42921e-05
8.32076e-05
0.000158728
-0.000334263
2.93235e-05
6.87922e-05
9.72347e-05
-0.00016318
6.59465e-05
-1.78733e-05
-0.000179123
-0.000128954
-0.000146275
0.000128829
1.74462e-05
1.35775e-05
2.09313e-05
-7.00018e-05
-6.81791e-06
3.26382e-05
3.68217e-06
-1.53539e-05
1.16712e-05
0.000114292
-5.14582e-08
7.1301e-06
-1.28952e-05
-8.38849e-06
2.1284e-05
-8.85346e-07
-2.11749e-06
7.7496e-05
0.000133526
0.000254408
-0.000207099
-4.73055e-05
3.08652e-05
-0.000215177
1.10992e-07
-4.45396e-06
4.34301e-06
-0.000219622
-1.22814e-05
1.81654e-05
-9.33876e-06
-6.22572e-06
0.000211556
5.45806e-05
0.000119946
-0.000174527
-2.35472e-06
-0.000240887
0.000111721
-3.1265e-05
-8.04551e-05
-1.49505e-05
-3.31507e-05
4.81012e-05
0.000562261
7.54713e-05
-0.000637715
-8.79023e-06
-2.76628e-05
-0.000907958
0.000490297
2.30155e-05
3.90777e-06
-1.65123e-05
-1.44172e-05
-0.000107631
-2.76166e-05
-5.90419e-05
8.08347e-06
5.93643e-06
3.66513e-06
-1.25649e-06
-4.2396e-06
7.82009e-05
-6.24463e-05
7.41006e-05
0.000164747
-0.000238846
-2.9586e-05
4.3529e-05
8.91591e-07
0.000238125
-0.000241883
3.75774e-06
-3.82232e-05
2.00346e-05
1.8188e-05
-1.55829e-05
2.03387e-05
-8.27839e-05
0.000180019
4.664e-06
-1.15691e-05
0.000120758
-0.000156463
0.000231506
1.7109e-05
-0.000248615
7.7694e-05
-0.000193743
0.000116048
9.49881e-07
1.49305e-05
-1.58809e-05
1.5659e-05
2.58858e-05
-1.39989e-05
-1.18872e-05
-0.000100426
-0.000194549
-2.52424e-05
-0.000126769
0.000152012
0.000355632
-0.000223571
5.2533e-05
-0.000172718
0.000120185
-3.29685e-06
1.16367e-05
-8.33942e-06
1.59708e-07
-1.32167e-05
0.000188477
9.71736e-05
-2.37706e-05
-2.71099e-07
4.77968e-06
1.5922e-05
-2.07016e-05
-9.25519e-06
6.2673e-05
-0.00020457
0.000171124
3.34456e-05
0.000458641
-0.000163431
-0.00029521
-2.18336e-05
1.29694e-05
8.86457e-06
-5.86046e-06
7.27602e-06
0.000432489
2.61517e-05
-2.71015e-05
2.90483e-06
2.41961e-05
2.89252e-05
-4.84231e-05
1.02277e-05
-0.000163227
0.000152999
9.03114e-05
-0.000102556
0.000125249
2.10327e-05
-0.000146281
2.51705e-05
9.58902e-06
1.52597e-05
-2.95148e-05
-8.02217e-05
1.77281e-05
-0.000160943
2.89872e-05
9.67148e-05
-7.05097e-05
3.94845e-06
7.90385e-05
-8.29881e-05
-2.12519e-05
7.76764e-06
1.34845e-05
-1.14436e-05
-1.88784e-06
-7.90648e-06
1.20116e-05
3.03957e-05
-4.11732e-05
1.0778e-05
0.000281135
-0.000345041
6.39064e-05
2.97411e-05
-0.000109149
7.94077e-05
0.000180471
0.000421994
-0.000251593
0.000266035
-1.44428e-05
2.31636e-05
-6.2925e-05
8.91123e-05
0.000210713
0.000262909
-0.000103911
1.14555e-05
-1.44122e-05
2.95666e-06
1.84208e-05
9.33007e-05
-0.000257567
0.000377856
-0.000120286
5.52789e-05
7.2131e-05
-0.00012741
-2.45705e-06
-7.61e-07
3.218e-06
-7.5707e-05
0.000105448
-0.000517951
-0.00057631
0.00109427
0.000152882
-9.83013e-05
8.03939e-05
2.30487e-05
-0.000303337
-0.00021108
3.01312e-05
-3.00147e-05
-1.16899e-07
-8.98248e-05
-2.36064e-05
0.000113432
9.78371e-05
-2.05589e-05
-2.06133e-05
0.000205524
-0.00018491
-1.857e-05
1.42946e-05
-0.000169436
0.00015514
-1.86336e-05
-9.28939e-05
0.000111529
-0.000284556
0.000248989
3.55668e-05
1.53824e-05
-3.35394e-06
-5.10366e-05
5.35363e-05
3.93228e-06
4.68539e-06
1.80687e-05
0.000115352
-0.000133984
-2.59471e-05
1.58233e-05
1.01244e-05
-1.36964e-05
-2.55648e-05
2.15761e-05
-1.11869e-05
-1.03897e-05
2.93876e-05
-3.13834e-06
-5.54659e-05
0.000128254
-1.79934e-05
4.30569e-05
-2.21027e-05
0.000166075
-0.000143973
-1.2264e-05
-3.09333e-05
0.000192118
-0.000202096
9.97693e-06
3.22994e-05
1.28543e-05
-9.26891e-08
-2.0563e-05
0.000191392
-0.000227446
3.60527e-05
-1.45308e-05
1.17662e-05
2.76359e-06
-0.000105031
-2.35674e-05
-6.96813e-06
2.89828e-05
-1.74829e-05
-1.14991e-05
-1.4658e-05
-6.59334e-06
1.70963e-05
-3.80645e-06
-2.10067e-06
-1.24298e-05
1.1961e-05
9.61505e-06
-0.000200366
-9.98995e-05
0.000300269
1.31154e-05
-3.10333e-05
-3.4098e-06
-2.36917e-05
0.000207903
-0.000176854
-3.10499e-05
0.000524763
-0.000911826
0.00038707
1.28721e-05
-5.00848e-07
-1.23718e-05
-1.76142e-07
-9.78428e-06
9.9611e-06
1.17151e-05
-0.000167062
0.000155348
-0.000136048
-4.82927e-07
1.40272e-05
-1.35451e-05
6.78851e-06
3.86449e-05
-4.54335e-05
-2.33578e-05
-4.21772e-05
6.55341e-05
-1.55873e-05
-0.000150107
0.000165693
-1.22116e-05
1.52906e-05
3.21446e-06
-1.8505e-05
-0.000324761
6.77332e-06
-0.000123709
2.28702e-05
-5.84677e-05
-0.000226088
-5.05855e-07
-1.43982e-05
9.75038e-06
-6.58075e-06
-3.16953e-06
6.54235e-06
3.78751e-05
-4.44175e-05
-8.73243e-05
0.000380474
-0.000293149
-7.71091e-05
-3.38195e-05
0.000110929
-0.000435053
-0.000527614
0.000962668
-1.5064e-06
1.28319e-05
-1.13254e-05
4.89186e-06
1.46602e-06
3.80458e-06
-5.2703e-06
3.58702e-05
-5.08203e-05
0.000332255
-2.47762e-05
-0.000307473
2.77344e-05
-8.51473e-06
-1.9219e-05
1.33083e-05
-5.07686e-05
0.000434404
-0.000610242
0.000175826
0.000200378
-0.000135173
-8.63666e-06
-0.000149305
7.2196e-05
-2.91704e-05
0.000220563
3.22569e-06
-1.8051e-05
1.48256e-05
4.85646e-05
1.42946e-06
-4.99939e-05
3.53018e-05
-7.09565e-06
-2.82061e-05
0.00019195
-0.000225926
3.39755e-05
2.06295e-05
1.12187e-05
-3.18476e-05
3.873e-05
-8.44513e-06
-3.02845e-05
2.53271e-05
-2.75137e-05
-3.4286e-05
4.08283e-05
-7.42361e-05
-4.94723e-05
6.40654e-05
5.73116e-05
-0.000121378
0.000127057
0.000138587
-0.000265663
-2.02192e-05
4.91446e-05
5.77123e-07
1.47138e-05
0.00013989
-6.50629e-05
-0.000136165
-8.66922e-06
-1.31641e-05
0.000319741
1.25192e-05
-5.75628e-05
1.68715e-05
9.01411e-06
-2.15515e-05
-1.66019e-06
2.32117e-05
5.32992e-05
4.34161e-05
5.7384e-05
0.000312217
-9.95282e-05
5.34991e-05
4.60286e-05
-3.04074e-05
-8.56877e-06
2.77027e-06
6.98023e-06
5.60415e-05
-0.000128523
7.24816e-05
1.53457e-05
1.36376e-05
-2.89826e-05
-1.61117e-06
-1.99403e-05
-1.33178e-05
6.23397e-06
7.08477e-06
0.000801183
-0.000276414
-0.000349953
0.000240323
0.000109629
-2.34035e-05
-5.31519e-07
-3.81636e-05
0.000357649
0.000230026
-0.000235297
2.1506e-05
-2.31173e-05
-0.000322984
6.54174e-05
-0.00011007
2.02453e-05
1.13485e-06
1.17374e-05
-3.88342e-06
3.17882e-06
7.0513e-07
-2.99357e-05
1.66873e-05
1.32485e-05
-2.71544e-05
-2.54383e-05
5.25912e-05
0.0001083
-0.000123887
-0.000194724
4.69951e-05
0.000147729
-0.000584455
-4.28524e-05
2.25141e-05
-2.41744e-05
-2.68819e-05
6.25796e-05
2.07067e-05
0.000303743
-0.000324452
0.000256265
-0.000182164
3.3639e-05
2.86715e-06
3.94121e-05
-5.3522e-05
1.41099e-05
3.61227e-05
-3.31295e-07
-7.9067e-05
-1.11015e-06
6.5167e-06
2.20074e-06
1.37214e-05
0.000269441
-3.06562e-05
-0.000238781
-0.000130912
-3.97133e-06
-1.73112e-05
-1.97469e-06
-1.79515e-05
-1.19838e-05
0.000189525
-0.000235352
-1.48509e-05
0.000111459
-9.66044e-05
-1.77251e-05
-1.71314e-06
1.94384e-05
8.2332e-06
-9.73964e-06
1.52294e-05
-6.45267e-06
-8.77685e-06
7.80185e-05
0.0001545
6.82081e-05
-2.281e-05
-5.27734e-05
0.000111317
-5.85437e-05
-0.000292653
0.00039322
0.000220979
-0.000233652
1.26695e-05
1.06795e-05
-1.7948e-05
7.26718e-06
0.000162073
3.35234e-06
1.86129e-05
0.000212894
-3.40939e-06
-1.23746e-05
3.90954e-05
-6.24531e-05
0.000172661
-0.000110803
-6.18557e-05
4.30827e-05
-4.35246e-06
3.51663e-05
2.88621e-05
-4.85961e-06
5.60421e-05
-0.0002207
5.81581e-05
-0.000235487
0.000177328
1.34002e-05
-0.000464085
0.000381386
2.94535e-05
5.8485e-06
3.59752e-05
-0.000519483
0.000197413
0.000322074
0.000591612
0.000426643
-0.00101825
-1.83401e-05
6.05104e-06
0.000221036
-0.000184705
-3.63308e-05
1.98001e-05
0.000201177
0.000135574
-0.000217459
8.18852e-05
-6.51391e-06
2.16351e-06
4.34998e-06
0.000123234
-6.71925e-05
-0.000242513
0.000103613
0.000138901
-0.000112916
-0.000159936
0.000272852
-1.21592e-05
0.00048126
-3.62356e-07
-1.66802e-05
1.70425e-05
-9.53163e-06
-3.56578e-05
-4.5265e-05
-0.000132116
0.000117266
3.92333e-05
-3.11065e-06
-0.000388117
1.94205e-05
1.29425e-05
-3.23631e-05
-2.73315e-06
5.3916e-06
-2.65841e-06
0.000302229
-0.00022634
-7.58855e-05
-0.000112112
0.000162198
-5.00842e-05
0.000250678
-0.000186439
-6.42357e-05
7.281e-06
-1.66505e-05
9.36966e-06
2.85023e-05
1.03874e-05
5.37529e-05
0.000110723
-5.65069e-05
-5.42153e-05
-0.000311508
0.000301957
-0.000122101
1.36567e-06
0.000121932
4.38194e-05
-0.000165752
-4.22891e-06
5.69485e-06
0.000361578
-0.000411243
4.96684e-05
0.000139856
-0.00051779
0.000377935
-1.18039e-05
9.36062e-06
2.44268e-06
5.53864e-06
3.59563e-05
-4.1495e-05
0.000285933
-0.000147848
-0.000138083
-0.000213371
0.000192759
1.44214e-05
-1.0157e-06
-1.34063e-05
1.74313e-05
-7.30778e-06
-1.40741e-05
1.11839e-05
2.89021e-06
7.91424e-06
-4.82197e-07
-7.43167e-06
-1.65638e-05
1.28906e-05
3.67307e-06
-6.77094e-06
-6.54661e-06
3.16508e-06
1.05866e-05
1.20426e-05
-2.99388e-05
1.78962e-05
1.31413e-05
1.04232e-05
-2.45677e-06
-1.42672e-06
1.5788e-05
-1.86261e-05
1.74544e-06
-3.2809e-05
3.10638e-05
-2.0448e-05
5.78981e-06
1.10965e-05
8.46653e-06
-5.52141e-07
-6.59214e-06
-5.21192e-06
-0.000117128
5.42025e-05
-0.000848677
0.000519843
0.000328839
4.16777e-05
0.00023577
-1.24522e-05
-1.36623e-05
4.37936e-05
1.55019e-05
5.42259e-08
-8.67536e-06
-1.68625e-05
1.23748e-05
4.4869e-06
-2.49601e-06
1.4539e-05
0.000161596
4.76553e-07
-4.68896e-05
5.85209e-06
4.10362e-05
-7.7187e-05
0.000123235
-4.60472e-05
1.82646e-05
-1.29834e-05
-5.28182e-06
-4.1449e-05
8.05449e-05
6.29713e-05
-0.000135105
7.21337e-05
-1.20399e-05
1.50863e-05
-3.04716e-06
7.75381e-05
-7.35903e-05
-0.000202544
-3.99677e-05
1.46393e-05
-2.30984e-05
8.45921e-06
-7.06697e-05
0.000277971
-0.000207301
3.48233e-06
2.16965e-05
-2.51788e-05
3.25357e-05
4.50884e-05
0.000167077
2.27335e-05
1.58146e-07
-1.04758e-06
5.80598e-05
-5.70116e-05
3.5186e-05
-1.93231e-05
-5.34862e-05
3.04337e-05
-2.86884e-05
2.76985e-05
-3.45576e-05
6.85904e-06
-6.58715e-05
-5.12565e-05
-0.000202034
-6.1567e-08
1.11028e-05
-2.84074e-07
-0.000124506
0.000181179
-5.66701e-05
4.98325e-05
2.90716e-05
-4.92901e-05
5.01868e-05
-6.81028e-05
1.79165e-05
-0.000545895
-0.00030278
1.47151e-05
-1.1003e-05
-3.71272e-06
-1.47531e-05
2.8391e-05
0.000113888
-8.15119e-05
0.000572956
-0.000430152
-0.000142804
-1.34534e-05
0.000228394
-0.000280912
5.25263e-05
-1.38651e-05
3.94023e-07
5.00962e-05
-6.26632e-05
-1.3162e-05
4.08601e-05
0.000123533
-0.0003239
-0.000193514
-7.64877e-05
2.3714e-05
1.95864e-05
-3.37973e-05
1.42111e-05
-0.000227495
0.000345129
-0.000117634
-7.61676e-05
0.000249618
-0.000173451
6.085e-05
-0.000142161
8.13119e-05
0.000116027
5.58003e-06
-1.47035e-05
9.1242e-06
-9.32069e-05
-6.7736e-05
-0.00019742
0.000178631
1.87901e-05
-1.88468e-05
7.7552e-06
-8.78207e-05
1.60887e-06
8.62121e-05
-0.00057363
0.00102602
-0.000452398
1.3149e-05
1.56598e-06
-5.53018e-07
6.14571e-05
-6.09041e-05
6.27853e-06
-2.03528e-05
2.86103e-05
-9.02445e-06
5.52881e-05
-0.000124098
1.05288e-05
6.90207e-06
1.76633e-05
0.000162844
-4.09123e-05
2.05272e-05
0.000306325
1.64023e-05
-4.76214e-05
3.12191e-05
7.1191e-06
1.58962e-05
-6.85386e-05
2.0345e-07
6.83342e-05
2.60126e-05
6.21448e-05
3.77223e-06
-6.50529e-06
-0.000133081
-9.4121e-05
4.43504e-06
4.71918e-06
0.000312024
-0.000140014
-0.000172016
6.22428e-06
-7.37682e-06
8.80496e-05
-8.0675e-05
-0.000291968
1.14697e-05
-3.66894e-07
-5.76919e-07
-4.71332e-05
4.77098e-05
1.12299e-05
-6.31752e-05
0.000176297
0.000163903
-0.00018033
1.64287e-05
0.000115216
-6.24114e-05
-5.28047e-05
-3.02886e-06
0.000166932
7.37885e-06
0.000245589
-0.000212774
-2.37828e-05
9.91337e-05
-6.07612e-06
-9.30578e-05
-6.90384e-06
6.12989e-06
7.74209e-07
0.000269918
-0.000311325
4.14101e-05
-0.000193257
0.000411677
-0.00021842
-0.000159607
0.000137503
-9.05777e-06
1.96438e-05
-1.05859e-05
-6.35987e-06
1.7039e-05
-0.000154409
-4.30099e-05
2.78806e-05
-1.09558e-05
7.82287e-06
-1.53654e-05
0.000212685
-7.71108e-05
-9.33926e-05
9.84477e-05
-5.05527e-06
-3.33956e-06
-7.66362e-06
9.32953e-05
-7.17535e-05
-0.000324228
-5.4195e-05
0.000310668
-3.97702e-05
7.08442e-05
1.49259e-05
-7.80677e-06
0.000108906
-5.36275e-05
4.00726e-05
-1.15709e-05
-0.000183297
-0.000137793
0.000321092
9.3491e-06
-9.39986e-06
-8.22534e-06
1.57007e-05
-7.4758e-06
7.90737e-05
-7.23286e-05
-6.74477e-06
1.35337e-05
-3.56721e-06
5.79357e-06
-2.22657e-06
2.10841e-05
1.5272e-06
-2.26116e-05
0.000213298
-0.000157986
-5.53104e-05
5.84476e-06
-1.5827e-05
-8.39362e-05
0.000353856
1.4757e-05
-7.47582e-06
9.49233e-06
-6.38084e-06
-1.0183e-05
2.12663e-05
-1.52164e-05
-6.05015e-06
-2.06108e-05
2.12442e-05
-6.33317e-07
-5.34292e-05
-3.90886e-05
9.25175e-05
-0.000517951
0.000593433
0.0002202
-0.000291699
-0.00012658
7.31506e-05
4.6926e-05
-3.10685e-05
-3.60917e-05
6.71607e-05
0.000127338
4.99849e-05
-0.000177333
-4.1843e-05
0.000286944
-0.000173881
4.2108e-05
-1.2236e-05
-2.98721e-05
4.43239e-05
-0.000132144
1.64501e-05
-1.86624e-05
2.2123e-06
-1.34545e-05
4.9325e-05
-5.92043e-06
-1.05951e-05
1.65157e-05
-5.11508e-05
1.83417e-05
-9.08209e-06
6.30455e-05
-0.000170069
-9.03923e-05
0.000260462
1.80379e-06
-1.2003e-05
-0.000385129
0.000174428
-6.1423e-05
-7.11635e-06
4.26997e-05
-2.6297e-05
0.00019117
1.35262e-05
-3.47104e-06
-4.53882e-06
8.00999e-06
0.000104608
-0.000167783
-0.000149413
0.00020757
-0.000292115
0.000186844
0.000105268
-1.8088e-05
2.47775e-05
3.47134e-05
-6.10229e-06
2.49102e-06
-1.07002e-05
-0.000176233
-3.37499e-05
1.57984e-05
-1.0706e-05
-6.15761e-06
2.4295e-05
3.43981e-06
1.72317e-05
5.09663e-06
-2.2328e-05
5.48545e-05
-6.411e-05
0.00104097
-0.000408541
-0.000298736
-0.000220749
5.19477e-06
5.0902e-05
-5.60945e-05
0.000423449
-3.64051e-05
2.07522e-05
3.26895e-05
-3.39309e-05
3.94952e-06
3.07647e-05
-9.76438e-06
-1.02922e-05
2.69717e-07
-0.000359221
0.000379925
-0.000199833
4.0132e-05
0.000159706
6.04273e-05
-8.82693e-05
2.78413e-05
-4.01412e-06
-1.60362e-06
5.61804e-06
-7.66056e-05
5.13634e-05
0.000106811
-5.55613e-05
-0.000118787
0.000174349
-1.05402e-06
-9.24475e-06
-1.70457e-06
3.45122e-05
0.000111443
-0.000145956
-0.000277377
2.32473e-05
-0.000164273
0.000141026
7.70751e-06
-7.88346e-06
-0.000328741
5.52944e-05
0.000273454
-0.000320213
0.000168403
-6.37948e-05
-5.2746e-07
-6.65107e-06
-0.00016001
0.000239891
-7.98792e-05
0.00019606
-9.16271e-06
-0.000186894
-0.000868505
0.000350559
-0.000511118
0.000125904
0.000385218
-0.000101328
-0.000190788
0.000309284
-0.000245219
8.51296e-06
-2.43284e-06
-6.08048e-06
4.49158e-05
1.29623e-08
-4.49276e-05
-2.20127e-06
1.65225e-06
5.49101e-07
-7.18134e-06
-6.36227e-06
1.35437e-05
1.00323e-05
-1.46826e-05
-3.22078e-05
0.000230552
8.97883e-05
-0.000291438
0.000201651
-0.000168314
0.000191031
3.22582e-06
-0.000150865
-0.000360253
-7.27135e-05
0.000218035
0.000138364
7.34902e-05
-0.000211876
-7.20722e-05
4.10041e-05
3.2388e-06
1.2018e-05
-1.52561e-05
3.29281e-05
1.27703e-05
-4.56984e-05
-0.000306359
0.000123063
-4.89364e-06
4.32106e-06
5.72759e-07
1.61494e-05
-1.29238e-05
-1.15558e-05
0.000219
-0.000736935
1.15788e-05
2.99309e-06
-1.45727e-05
4.57457e-07
-4.5739e-07
-0.000413506
0.00014714
0.000266366
2.74082e-05
4.71517e-07
-4.84957e-05
6.13032e-05
-1.28075e-05
-4.5813e-05
-5.37154e-05
-1.19263e-05
4.62899e-06
1.41367e-05
-2.11213e-05
6.9845e-06
-1.47744e-05
4.55538e-06
9.6443e-05
-3.60162e-05
-1.82972e-05
-0.000503847
-6.73967e-06
4.35314e-06
2.38671e-06
0.000764026
-0.000771425
7.40308e-06
4.02468e-05
0.000155814
0.000120378
-1.0943e-05
-0.000109433
1.00003e-05
2.93865e-06
-8.19372e-06
1.47945e-05
-6.60137e-06
4.95823e-05
6.56331e-05
-0.000117177
0.000146546
1.66424e-05
-0.000172982
0.000156339
-8.35473e-07
-1.9634e-05
-4.12419e-05