/*--------------------------------*- C++ -*----------------------------------*\
| =========                 |                                                 |
| \\      /  F ield         | OpenFOAM: The Open Source CFD Toolbox           |
|  \\    /   O peration     | Version:  v2012                                 |
|   \\  /    A nd           | Website:  www.openfoam.com                      |
|    \\/     M anipulation  |                                                 |
\*---------------------------------------------------------------------------*/
FoamFile
{
    version     2.0;
    format      ascii;
    class       surfaceScalarField;
    location    "200";
    object      ddtCorrDdt0(phi);
}
// * * * * * * * * * * * * * * * * * * * * * * * * * * * * * * * * * * * * * //

dimensions      [0 3 -2 0 0 0 0];
oriented        oriented;


internalField   nonuniform List<scalar> 
20823
(
-0.0012933
0.00070513
0.000588215
0.0227619
-0.0212316
-0.00153027
-1.31836e-05
3.61999e-06
9.5542e-06
-4.77962e-06
4.42478e-07
4.33398e-06
3.36573e-05
3.25407e-05
-6.61929e-05
6.89157e-06
-9.89507e-07
-5.91738e-06
0.00919147
0.0138994
-8.10407e-05
0.00206662
-0.00198557
-3.15425e-06
-1.62774e-06
-0.0130077
0.00724108
0.00576672
0.00379334
-0.0044839
0.000690567
-5.83932e-05
-3.26999e-06
6.16941e-05
-3.94823e-05
1.091e-05
2.85636e-05
-3.05944e-05
-8.86354e-06
-5.12013e-05
4.62802e-05
4.92725e-06
-2.21836e-05
1.44286e-05
7.71803e-06
3.65458e-07
8.63529e-06
-8.96235e-06
-0.00567429
0.00444518
0.00122909
4.71421e-06
2.82805e-05
-3.2985e-05
-1.43818e-05
2.0192e-05
-5.76586e-06
-6.33345e-05
2.15693e-05
4.17831e-05
-5.35544e-05
-4.80012e-06
-0.000232578
0.000114008
0.000118579
-2.80236e-05
6.16905e-05
0.000805707
0.00298763
-3.61466e-05
4.08633e-05
0.000214714
-0.000160889
-5.38261e-05
1.96093e-06
-0.000197023
-0.000380882
0.000577878
-0.000147066
9.83747e-06
-7.97653e-06
1.77126e-06
6.21155e-06
0.00124418
-0.00132523
0.000166067
-0.000135938
-3.00325e-05
-0.00013823
7.74579e-06
0.000130505
0.00118613
-0.00226757
0.0010815
-6.11382e-06
7.19311e-07
5.3937e-06
-0.000168236
8.38609e-05
8.44106e-05
-0.00713783
-0.00586993
6.88157e-05
2.8415e-05
-9.72345e-05
1.07515e-05
-4.56245e-06
-6.16207e-06
-0.00371497
0.000321339
0.00339366
-5.80585e-06
-5.74888e-05
-0.000862693
0.000682283
0.000180406
-3.31806e-05
1.35459e-05
1.96281e-05
-0.00136625
0.00176009
-0.000393857
-0.000613248
-0.000249447
-2.20035e-06
-9.96852e-05
0.000101912
4.56484e-06
2.3072e-06
-0.000347733
-0.000176295
0.000524041
0.000202148
-1.69431e-05
-0.000185129
-1.23697e-05
-1.10314e-06
1.34504e-05
1.13049e-06
-9.0843e-06
7.95186e-06
-0.000143712
-0.000771771
0.000915448
0.0013314
-0.000363307
-0.000968122
-4.80952e-07
8.60696e-07
1.12162e-05
-2.95167e-07
-1.34611e-05
7.33522e-05
-5.98429e-05
-0.00571828
0.00758549
-0.00186727
-0.000338366
0.000200113
-1.41252e-05
6.13804e-06
-0.00188198
0.000174072
0.0017079
0.000146329
5.58505e-05
2.7508e-05
0.000234095
-0.000261602
0.000330791
0.000320461
-0.000651252
1.83251e-06
-5.98486e-06
4.15229e-06
3.22566e-05
4.08607e-05
-7.31203e-05
-0.000410656
-0.000882627
-0.00012926
6.83432e-05
6.0878e-05
0.000574117
0.000286233
-0.000860342
0.000112512
-7.47196e-05
-3.77971e-05
5.49509e-06
-9.98799e-06
4.49328e-06
-1.33318e-05
6.97822e-06
6.36485e-06
8.50408e-05
-8.7216e-05
1.27591e-05
9.27319e-06
-2.19954e-05
1.10577e-05
-1.91917e-05
1.65272e-05
2.64174e-06
-1.91539e-05
-1.14789e-05
1.63803e-06
9.8566e-06
8.04272e-05
3.2086e-05
0.0121434
-0.00749745
2.37669e-05
-1.34073e-05
-1.03599e-05
0.00103351
-0.000841931
-0.000191576
0.00652804
0.00561533
0.000297847
-0.000441563
1.33334e-05
4.99739e-05
-6.33067e-05
4.77896e-07
8.36397e-06
-8.84412e-06
8.86151e-06
-1.29112e-05
4.06642e-06
-0.000402358
0.000355172
4.71833e-05
0.00119779
0.000133657
6.22321e-05
9.20435e-06
-7.14333e-05
-1.8404e-05
4.04872e-06
5.06709e-06
-7.42112e-06
2.35397e-06
0.000420266
-0.00170812
5.45261e-05
0.0016536
0.000147944
-0.000115394
-3.24709e-05
-0.000520413
0.00109453
-0.00179838
0.00574965
-0.00395127
-2.30363e-06
-1.00538e-05
-3.79196e-08
-1.31326e-05
-0.00017483
0.000265263
-9.04551e-05
-1.29413e-06
-2.90792e-06
4.2071e-06
-4.93384e-05
8.15923e-05
6.74901e-06
-2.19504e-06
-6.10144e-05
-0.000459403
-0.000733874
0.000926004
-0.000192133
7.16275e-05
4.02176e-05
-0.000111821
9.43068e-05
6.17597e-06
-0.000100483
2.93667e-06
5.93158e-05
6.80536e-05
-5.47206e-05
-3.30054e-06
-0.00012595
-3.71071e-06
3.39947e-06
3.05362e-07
0.000140752
-0.000140661
-6.7007e-08
3.95578e-07
2.55122e-07
-6.48869e-07
7.05384e-06
-6.57537e-06
-0.00574543
0.0131919
-0.00744648
3.91192e-07
-1.22728e-05
8.17421e-07
-0.000114897
0.000138919
-2.39674e-05
-8.22733e-05
0.000123423
-4.11494e-05
6.51503e-05
8.28475e-05
2.22991e-05
0.000143811
3.75892e-06
-4.70617e-06
9.43975e-07
1.2426e-05
-1.98196e-06
-1.04419e-05
4.79351e-05
2.65305e-06
-5.06043e-05
0.000260434
-5.4364e-05
-0.000206056
-0.000235653
0.000265716
-3.00423e-05
-0.00177572
6.76014e-05
1.64635e-05
-2.73085e-05
1.08384e-05
-6.00949e-05
-0.00568533
6.84868e-06
0.000172809
-0.000179642
-5.20813e-06
5.24182e-06
-4.59311e-08
0.000155828
-7.07751e-05
6.97359e-06
-1.563e-06
-5.41374e-06
8.91063e-07
-8.25296e-05
8.16493e-05
7.13484e-05
-0.000211735
0.000140379
4.23847e-05
0.000113442
6.69311e-06
-2.55099e-05
1.88059e-05
2.92436e-06
-6.09607e-05
5.80151e-05
4.44514e-06
-2.61302e-06
-1.48405e-06
-3.7122e-06
0.0018475
-0.00232991
0.000482407
5.19897e-05
-2.65556e-05
-2.53999e-05
0.000227555
-6.42283e-05
-0.000163291
-0.000118011
-4.9959e-05
0.000167977
-1.07106e-05
-7.06494e-05
8.13029e-05
0.000301204
-0.000498259
-0.00314531
0.00177906
4.6058e-06
-8.50943e-07
4.02122e-05
-5.27116e-05
1.25103e-05
-2.18839e-05
-0.00240851
-0.0025759
0.00498444
-0.00793696
0.00613859
-4.82406e-05
0.000100217
8.14301e-06
-2.64744e-06
-0.00405109
0.00529526
4.02389e-06
2.7035e-06
0.000101462
-0.000230252
0.000128726
0.000637334
0.000870531
-0.00150787
-1.96445e-05
1.00839e-05
9.56165e-06
-0.000420715
0.00105805
-5.14314e-05
3.7279e-06
4.77184e-05
-4.43027e-05
-0.00033933
0.000383651
3.70653e-05
0.00017759
-2.78944e-05
-0.000184416
0.000212264
2.16063e-05
-1.7078e-05
-4.52807e-06
-8.51835e-05
5.98644e-05
2.53145e-05
-2.59496e-06
-4.56349e-06
7.16306e-06
-7.21191e-05
7.08701e-05
1.21705e-06
-0.000181906
0.000112374
6.95302e-05
0.000835244
-0.00150519
0.000669983
1.10859e-06
-1.15541e-05
1.04622e-05
-3.52088e-05
1.30197e-05
6.90163e-05
-6.61205e-05
-0.000119595
0.000116339
-0.000224823
6.53709e-05
0.000159478
1.78175e-05
-1.28398e-06
-8.84153e-06
9.95458e-06
-9.67399e-05
-1.76326e-06
9.84945e-05
-3.28329e-05
4.46623e-05
-1.17871e-05
-1.78168e-07
-0.000119413
-1.54203e-05
4.71277e-06
0.000959994
-0.000293817
-0.000666139
-8.90448e-06
-2.392e-05
-2.68152e-06
5.90353e-06
-3.24497e-06
-0.00056075
0.000129992
0.00043076
-4.12404e-06
4.10603e-07
2.70129e-05
-9.07579e-05
6.37692e-05
-7.82791e-05
-0.000115358
0.000193657
2.86126e-06
8.5166e-06
-1.13988e-05
0.00157298
0.000373157
-0.00194609
-6.43352e-06
7.80833e-05
-0.00027662
4.48282e-05
0.000231768
4.32444e-05
-1.97143e-05
-2.35408e-05
-0.000315972
-0.00373512
1.20118e-05
-9.14963e-06
0.000334943
-0.000198336
-0.000136631
0.00366437
-0.000950861
-0.00271349
-1.26167e-05
4.01183e-05
0.000202455
-3.00478e-05
-0.000172367
3.08219e-06
-6.23893e-06
-2.86071e-06
1.95325e-06
9.02771e-07
0.000204475
-9.24949e-05
-0.000111965
3.20931e-05
1.11728e-05
-4.84129e-06
3.02233e-06
1.81701e-06
0.000549346
-0.000120351
-3.95825e-07
4.00583e-05
-2.7635e-05
2.02272e-05
-3.36988e-05
-2.21984e-05
1.63823e-05
-0.0142346
0.00463066
0.00960392
-0.000169857
0.000176714
0.000115542
-4.2182e-05
-0.000192548
5.06114e-06
0.000187497
0.000250726
8.42548e-05
1.79517e-05
4.90011e-05
-6.69562e-05
-0.000324469
0.000280178
-2.64568e-06
9.3888e-06
-6.74425e-06
-0.0134822
0.0242091
-0.0107269
-6.4673e-06
3.53167e-07
-0.000560545
0.000361201
0.000199381
-2.08598e-05
-1.33255e-06
-0.000107959
0.000269516
-0.000161557
3.57548e-05
-0.000143714
3.51578e-05
0.000225284
2.43418e-06
-1.51536e-06
-9.02961e-07
0.00109937
-0.000838147
-0.000261234
-9.3147e-05
-0.000139426
-3.1844e-05
-1.43897e-05
4.62159e-05
-9.01818e-07
3.98356e-06
-7.49997e-05
0.00055674
-0.000481732
2.10638e-06
-4.29852e-06
2.18774e-06
2.20331e-05
7.22612e-05
-8.89926e-07
1.54416e-05
-1.45375e-05
-0.000101091
1.88192e-05
-0.0262485
0.0127663
0.000127086
-0.000205337
-0.000364301
1.65795e-05
0.000113968
-0.000316728
0.000202753
8.84697e-06
-1.15852e-06
-7.69232e-06
2.15991e-05
-2.59612e-05
4.35972e-06
-4.87973e-05
-6.80324e-05
3.4715e-06
1.39396e-06
-4.86484e-06
1.05623e-06
5.91311e-06
2.38925e-07
0.00044722
-0.000333249
0.000155936
-0.000164199
8.28435e-06
-4.69668e-05
-0.000177832
0.000304918
-0.000218387
-8.65354e-05
-0.000345243
0.00147192
-0.00112668
2.86959e-06
9.58772e-07
-3.79972e-06
-0.000168442
0.000180597
-1.21567e-05
-0.000174588
0.000746438
-0.000571849
-0.000218165
2.56484e-05
7.02637e-06
-7.9322e-06
-0.0147348
0.0245939
-0.00985919
2.38112e-05
-2.21156e-06
-1.71628e-05
-1.72489e-05
3.44275e-05
0.00121689
-0.000666171
-0.000550739
-0.000533894
0.000618188
-8.43195e-05
3.01599e-05
-3.10031e-05
8.36218e-07
-0.00236573
-0.00330852
0.00842161
0.00886859
-0.0172902
-0.000535548
-2.50101e-05
1.13764e-05
6.38519e-06
-1.77464e-05
0.0161853
0.00802382
-1.13513e-05
1.04372e-05
-1.19794e-05
3.5764e-05
0.0142214
0.00196386
4.54078e-05
0.000157059
3.81969e-05
-2.54072e-05
-3.30638e-05
0.000187506
-0.000154427
-1.17428e-05
-2.14455e-05
-0.000120716
6.37055e-05
5.7025e-05
0.000517344
-0.000387049
-0.00013028
1.18907e-06
7.65754e-06
-7.71137e-07
2.8733e-06
-5.71308e-05
5.91188e-05
0.000179566
0.000125344
-0.000540867
0.000905999
-0.000365146
0.000114835
-0.000108676
2.12749e-05
-1.82483e-05
-3.02912e-06
0.00269526
-0.0031583
0.00046305
-1.62473e-05
1.00166e-05
6.17022e-06
0.00114263
0.000430329
-0.00606358
0.00365508
-5.94674e-05
0.0010423
-0.00676252
0.00104425
-0.000188616
-8.8026e-05
7.17785e-05
6.55409e-05
-8.36051e-05
1.81146e-05
-4.17415e-05
-7.62484e-05
0.00178257
-0.000596397
-5.95453e-06
-1.29839e-05
1.89388e-05
0.000473498
-0.000511441
3.79469e-05
-0.000281501
0.000399091
-0.000117588
5.86705e-06
0.000141969
0.000331526
0.000223613
0.000154809
-0.000378425
-1.19862e-05
-0.00097391
0.00105596
-8.20311e-05
-0.0193142
-1.90841e-05
1.7253e-05
1.83452e-06
-1.89821e-05
-0.000189318
0.000208309
0.0141896
3.17608e-05
-2.43823e-05
2.05318e-05
3.82985e-06
-0.000445426
-0.000115321
0.000126364
2.95658e-05
-2.66937e-05
2.10238e-05
5.70288e-06
5.12969e-05
-9.53838e-05
4.40754e-05
2.42715e-05
-4.60498e-07
9.39172e-05
-0.000285795
0.000191911
3.97681e-06
-5.39048e-05
-0.0005144
0.00013355
0.00830003
0.0058896
5.19488e-06
-1.28832e-07
0.000375229
-4.40615e-05
-0.000331161
0.000236939
0.000164723
-0.000401651
-0.000124532
0.00015592
-3.1383e-05
0.0176526
0.00510928
7.7769e-05
-5.57374e-05
2.54847e-05
-4.7258e-05
2.17549e-05
-0.00120312
-0.000678853
-0.00383734
-0.000717129
0.00455446
0.00183969
-0.00064187
-3.52376e-05
1.61528e-05
0.000427975
-0.000488998
-7.79181e-05
7.148e-05
3.5422e-05
0.00011368
-0.000149106
-7.65217e-05
0.000313473
0.0137091
-0.00631859
-0.00125652
0.000388676
0.000867852
-9.48226e-05
9.63551e-06
2.03617e-05
-3.39262e-05
1.35645e-05
0.000151275
-0.000179153
-2.61498e-05
-3.48238e-05
-0.000443988
0.000667596
0.000187801
-6.04712e-06
-0.00018171
-6.90998e-06
-1.27477e-05
1.96646e-05
-0.000180553
1.21201e-05
5.27295e-05
-2.80442e-05
-2.46415e-05
2.5898e-06
2.16821e-05
8.86941e-06
-1.57729e-05
0.0117523
-0.0103191
-0.00143323
-0.00213187
0.00293758
-3.20087e-05
5.55367e-05
-2.35037e-05
9.70011e-07
3.46412e-06
-4.44316e-06
-0.00142092
-0.00229407
0.00563479
0.00355667
0.000488875
-8.97811e-05
-9.69278e-06
5.64967e-06
4.04177e-06
4.28225e-05
-3.36115e-05
-7.52647e-05
0.000110684
5.97136e-05
-0.00010331
4.35907e-05
-1.79391e-05
8.67486e-05
-7.35129e-06
-1.70172e-05
0.000143247
0.000133475
-0.000276696
0.00152734
-0.00115459
0.000118815
-5.90971e-05
0.0114741
-0.00317409
-8.69718e-07
0.00109482
9.35487e-05
-0.00118836
1.00944e-05
-1.24176e-06
0.00223264
-0.000595456
-0.00163716
0.00461275
0.00686136
-4.07325e-05
0.000169832
-0.000129102
-4.96656e-06
7.94936e-06
-2.98579e-06
0.000456429
-0.000216053
-0.000240379
0.000679516
-0.000379072
-0.000300461
0.000225049
0.000231379
-6.81016e-06
6.82176e-06
3.62069e-06
1.62167e-06
-1.13154e-05
6.25938e-05
0.00835259
0.0053565
-1.61942e-05
4.83108e-06
1.13778e-05
-4.96563e-05
4.9814e-05
-0.000279121
0.00192896
-0.00164984
-1.78835e-05
-2.03537e-05
3.82395e-05
-7.6918e-05
-0.000765701
0.000842615
0.000175017
-0.00316215
0.00298714
-5.75948e-06
-1.14149e-05
0.0060632
0.00568909
0.00118019
0.000659522
1.22874e-06
-1.79976e-06
5.77641e-07
8.72871e-05
5.34426e-05
-4.12389e-05
-0.000275491
-3.71751e-05
2.08953e-05
-3.03487e-06
-8.79723e-05
9.10301e-05
4.34503e-05
-0.000159811
3.52737e-05
-9.61331e-06
4.20981e-06
5.38583e-06
0.000277275
-0.00060172
0.0123838
-0.00396216
0.0126749
-0.00170981
0.00110532
0.000604463
-0.000245339
0.000198346
-0.000401742
0.000176758
0.000224973
1.45099e-05
-1.37816e-05
-7.51976e-07
-0.017344
0.0109724
0.00637156
1.57959e-05
-3.30544e-05
1.45987e-06
2.60256e-05
-2.74827e-05
-0.000737952
0.00280337
-0.00206543
-0.00192891
0.00210393
-3.67719e-07
2.80166e-06
-0.000268756
0.0004021
-0.000133345
0.000101428
-7.30168e-05
-2.25115e-05
1.67428e-05
-0.000207711
-2.7936e-05
0.000210064
-0.000108586
3.81505e-05
-0.000153021
-7.51644e-07
8.37444e-07
-9.43896e-08
0.00430598
0.00327952
-0.000158635
-3.13113e-06
1.07738e-05
-7.63095e-06
0.00884282
-0.00423006
3.53172e-06
7.0336e-06
-1.05395e-05
-1.47943e-05
-3.98538e-05
0.000103933
-6.0115e-05
-4.38166e-05
-0.00298945
-0.00931253
0.012302
1.62625e-05
-9.33488e-05
7.71312e-05
-4.84583e-06
-8.49047e-06
3.98929e-06
-5.16746e-07
2.24217e-06
5.84331e-05
-0.000327162
-3.71495e-05
-1.40457e-05
3.51592e-05
3.2963e-05
-6.80809e-05
-0.0003672
-0.00418158
0.0038656
3.45278e-06
7.30323e-06
-3.52682e-06
1.55958e-05
-1.20443e-05
-2.39216e-06
-5.3238e-06
7.74107e-06
0.00264255
0.00620026
6.0403e-05
1.27302e-05
-7.31358e-05
-3.55978e-06
-3.47864e-06
7.0231e-06
8.878e-06
-7.90869e-06
0.000520921
-0.00106671
0.00054578
0.00475264
0.0288902
-0.0336429
2.87748e-05
-0.000562671
-0.000261591
0.000220352
-2.99625e-06
-6.71554e-06
2.09668e-05
-1.95791e-05
-1.39324e-06
0.0014549
-0.00036008
9.37332e-06
-8.24129e-06
-5.27369e-05
2.06946e-05
-0.00013953
8.99242e-05
4.96041e-05
-0.0222177
0.0269703
-1.41429e-05
-1.52976e-05
2.944e-05
0.000124988
3.89657e-05
-0.000350909
0.000195341
0.000155574
-1.31093e-06
-1.55372e-06
-0.0171318
0.0138036
0.00332817
6.46161e-06
-6.47085e-06
-0.000268939
0.000148507
0.000120402
-0.0083951
-0.00873671
1.59117e-07
5.32932e-06
-5.4808e-06
3.17342e-06
2.99824e-05
-3.51328e-05
5.16328e-06
6.84356e-06
-1.14017e-05
-9.82684e-05
0.000338926
0.00058719
-0.000926056
2.01923e-05
-0.000111893
9.17142e-05
-3.11513e-05
1.32671e-05
3.54717e-06
-2.31843e-06
-0.00173814
0.00145904
-1.01183e-05
1.03194e-06
0.000697726
4.87128e-05
7.73078e-05
-3.53769e-06
-2.3601e-08
-2.64025e-05
6.15876e-05
-3.22184e-05
0.000111347
-7.91397e-05
-8.89745e-06
9.68761e-06
-8.04698e-07
-0.00184134
1.18076e-06
-0.000246514
-0.000454026
0.000470884
-1.68696e-05
-0.000112668
0.000132866
-8.28618e-05
0.000360151
0.000765152
0.000140845
-4.67286e-05
-0.000317349
0.000364071
-0.000139677
5.12489e-05
8.84399e-05
8.52422e-06
-1.7428e-05
0.00224347
-5.09057e-05
-0.000102689
0.000433479
-0.000626704
-0.000145038
4.80488e-06
-4.08496e-06
-7.9786e-05
7.64811e-05
1.7028e-05
4.58015e-06
1.05394e-05
1.64963e-05
-2.70805e-05
0.000592967
-0.00121967
0.00132545
-0.00151065
0.000185219
6.53729e-05
5.79429e-05
-9.01622e-05
-1.03349e-05
-5.84745e-06
-8.32737e-05
-0.0232532
0.00950628
0.013747
-2.19158e-06
-4.88261e-07
-0.00613087
0.00229354
-3.81607e-06
-0.00337949
-0.000802107
-0.000224135
0.0018201
-0.00575024
0.00393015
-0.000324465
-7.72667e-05
2.35322e-05
-7.07119e-06
-3.85163e-06
2.56004e-06
0.000943165
0.000985779
2.71919e-06
-2.55713e-06
-0.000203626
6.09905e-05
0.000142623
4.89316e-05
-7.23205e-05
2.3391e-05
-5.08537e-06
5.71912e-06
-6.29267e-07
-0.000144102
0.000109738
3.43551e-05
0.000372216
-0.000274463
-7.26663e-06
-1.99872e-05
2.72405e-05
-4.65131e-05
8.67349e-05
-2.22166e-05
3.93081e-06
1.82922e-05
0.0136849
0.0147193
-0.0284041
0.0161867
-0.0249049
0.00871815
0.000127456
-0.000122275
-5.18187e-06
-0.0108375
-0.0081457
0.0189832
0.00010836
1.9094e-05
-2.11812e-05
3.6983e-05
-0.00120211
0.000580979
0.000621135
-4.65034e-06
-2.94911e-07
-1.86234e-05
6.78349e-05
-4.91711e-05
-1.0618e-05
-1.1235e-06
1.17484e-05
-1.59066e-05
2.6427e-05
1.2001e-05
2.03206e-05
-3.23162e-05
8.94682e-05
-0.00010451
1.50487e-05
-2.34448e-05
0.000378614
-0.000133813
0.000277051
0.000110615
3.22831e-05
-0.000142897
-5.14995e-07
-2.39244e-07
-2.6812e-05
5.97638e-05
-3.29596e-05
2.46669e-05
-5.65074e-05
3.18261e-05
8.60865e-06
-7.03735e-06
-1.57931e-06
-6.88165e-06
4.27538e-06
2.20069e-05
-0.000118736
-0.000186781
-0.000461118
0.000647922
0.000358518
0.000158802
1.93984e-06
1.84202e-05
-0.000803463
-0.000398655
-0.00104251
-0.00979503
6.72559e-06
4.65989e-06
-0.00817074
0.0041481
0.00402263
-0.000250316
0.000167419
8.29026e-05
2.17874e-05
0.000205768
-0.00037135
0.000536055
0.00154427
-0.000648156
-0.000896124
-4.57807e-06
0.0001774
6.12642e-05
-6.037e-05
-2.52691e-05
-0.00489828
0.00253009
0.0023682
-0.000162294
0.00025621
0.000103713
6.90087e-06
2.8909e-05
-3.24154e-05
-4.84482e-05
6.4749e-05
-0.000164067
0.000131029
-0.000304942
0.000116568
0.000188403
-4.79325e-05
-4.70172e-05
5.88483e-05
-1.1835e-05
3.27108e-05
-1.76384e-05
-1.50942e-05
-6.19463e-05
7.13198e-05
-9.36613e-06
1.10947e-05
4.24599e-06
-0.0018398
0.000129996
-3.27813e-05
-5.94336e-06
-3.0852e-05
1.67092e-05
0.000153015
-0.000217207
0.000166337
-0.000110493
-5.58329e-05
0.000401364
-0.000369866
-3.14966e-05
1.72445e-06
-0.000453239
0.00177865
-1.73301e-05
3.45365e-06
1.38778e-05
0.0012084
0.000165903
-0.00017046
-6.18033e-05
1.215e-05
0.000172412
1.50934e-05
-1.73321e-05
-4.45951e-05
-3.59646e-05
-9.08411e-06
4.50797e-05
-0.000574735
0.000358677
-1.63155e-05
1.77795e-05
3.45265e-05
-1.72689e-05
-1.72521e-05
0.00070839
-0.00044895
-0.000259402
-9.17431e-06
-5.02134e-06
1.42021e-05
-0.000227459
-0.000136845
1.03394e-05
-1.27157e-05
2.39109e-06
-0.000489037
0.000392328
9.67056e-05
-0.0152752
-0.00595639
4.01632e-05
-4.98028e-05
4.82854e-06
4.66963e-06
-9.50409e-06
0.00105178
-0.00119212
0.000140384
5.51842e-05
-4.12017e-05
-1.39721e-05
-4.91849e-06
-1.24122e-05
7.18428e-05
5.15868e-05
2.18815e-05
-1.13081e-06
-2.07184e-05
-3.18613e-06
8.01075e-06
-6.78867e-05
4.92627e-05
5.89624e-06
-5.30554e-06
-5.71514e-07
-0.000432766
0.00020326
-0.000574612
0.00624732
-0.0231908
0.0169434
-8.96672e-06
2.87272e-05
-1.97747e-05
0.000217471
0.000108716
-0.000326168
0.000743016
-0.00194096
0.00119798
-0.000137274
0.000149567
-1.22754e-05
1.45803e-05
-7.97609e-05
6.51784e-05
-0.0122282
0.0111856
-0.00331979
-0.00157849
-0.00504228
0.00328489
0.00175739
-1.16443e-05
2.47125e-06
-8.66674e-05
0.000111327
-0.015889
0.0221363
-2.35059e-05
-3.8061e-06
0.000806325
-2.974e-05
-6.40208e-06
-0.000242696
0.00032628
-8.35848e-05
1.05279e-05
-8.34454e-05
7.29176e-05
-3.27814e-05
2.38825e-05
-5.30289e-06
4.63249e-06
6.68396e-07
-0.000211078
0.000156721
-2.98259e-05
0.000511407
-0.000508633
-2.77889e-06
-9.99363e-05
-8.19796e-05
-0.00511559
-0.00711258
0.000241933
0.00011422
-0.000356113
0.00084496
-0.00103175
-4.93319e-05
1.82084e-05
3.11853e-05
2.24694e-05
-1.40702e-06
-2.10631e-05
0.00135435
-0.00106811
1.86819e-05
3.78155e-06
-4.59457e-05
3.25307e-05
-1.40239e-05
2.17432e-05
-7.68258e-06
0.00488575
0.00107416
-0.00595993
4.0769e-05
-5.10057e-05
1.02173e-05
-3.62316e-06
-3.23502e-05
0.000154747
-0.000382239
1.164e-05
2.28942e-05
-3.63674e-05
-0.000167235
-1.56517e-05
1.32678e-05
0.00152842
-0.000137621
-8.0394e-06
0.000145676
-8.04751e-05
2.35165e-05
5.69232e-05
0.000153893
-6.66046e-05
-6.51967e-05
-4.04111e-06
1.13196e-06
4.19797e-06
0.00020183
-0.000860442
0.000658616
4.57773e-06
9.84244e-06
-1.43886e-05
-0.000972553
0.000953536
3.49669e-05
-2.5648e-05
-1.81595e-05
-0.000643073
0.00061975
2.33286e-05
-0.00107926
-0.00709147
1.85337e-05
-1.57046e-05
-2.83587e-06
-5.37414e-06
-2.28068e-06
7.6508e-06
-0.000531971
-0.000724586
-0.000148712
2.64427e-05
5.38036e-05
-3.58554e-05
-0.000365239
0.000405809
-4.05726e-05
-0.00177773
0.0066635
-3.64279e-05
9.87263e-05
2.99458e-05
-5.19345e-05
0.000418432
-0.000167722
0.000330152
-0.00275105
0.00242089
-0.00135437
-0.000913166
0.000865588
0.00107933
-0.00194493
-0.000396948
3.17034e-05
0.00154289
-0.00121273
0.0054548
-0.00100963
0.00208518
0.000205719
-0.00229087
-1.97433e-05
5.75293e-06
-4.29091e-05
4.38438e-06
8.93251e-06
-1.41257e-05
5.19431e-06
-0.000914367
-5.95306e-05
0.00172624
-0.000674513
1.13187e-05
7.10266e-08
-1.13731e-05
6.73814e-05
0.00378724
-0.00109197
-4.767e-05
-3.76015e-06
-0.00817139
0.000836299
-0.000497345
0.000479822
-3.0424e-06
1.43663e-05
3.39332e-05
-1.20439e-05
-2.94908e-05
-5.10084e-05
1.87047e-05
-3.92096e-05
0.00136497
-0.000292428
-0.00107253
0.0002226
6.55433e-06
-0.000127213
0.000637275
0.00530874
-0.00594601
1.20041e-05
-0.000151526
5.1491e-05
2.5361e-05
-7.68538e-05
9.92972e-05
3.96656e-05
1.12713e-05
-1.15715e-05
3.04486e-07
1.29827e-05
-0.000559937
0.00042748
0.000132437
0.000958331
-9.32903e-05
-0.000865049
-4.42129e-05
-3.55302e-05
-5.01176e-06
4.0841e-06
9.4769e-07
-3.43016e-06
-5.11521e-05
5.46252e-05
1.43428e-06
-5.00379e-06
3.53894e-06
9.2273e-06
-1.12847e-05
2.07938e-06
0.0295336
-0.00267917
-0.0268544
0.000117844
0.000127056
-0.000244921
-0.000699561
5.64765e-05
-0.000180955
0.000322697
-0.000141783
2.50604e-06
-1.02135e-05
7.69064e-06
2.5206e-06
-9.64819e-06
8.38658e-06
1.25558e-06
0.000164608
0.000253838
-5.38435e-05
0.000157777
3.54494e-05
-9.96366e-06
-6.70518e-06
-7.14338e-07
-3.81301e-06
-6.17404e-06
-3.10602e-05
5.26208e-05
-0.00247711
0.000777227
-5.12651e-05
-0.000725978
-3.67518e-05
-1.25527e-05
-2.87234e-06
-6.77984e-06
0.00209063
-0.00134766
-1.44109e-06
1.69636e-06
0.000483404
0.000128227
-1.5833e-05
-0.000568423
0.000217515
1.61753e-05
-8.29037e-06
-7.90191e-06
-1.77813e-06
-3.52988e-06
6.97594e-05
-0.000155043
8.52672e-05
0.00179281
-0.00175549
-3.73196e-05
0.000382558
-0.000370779
-1.17252e-05
1.32593e-05
1.93991e-05
0.000380085
-4.84648e-06
-0.00381431
0.00488849
1.43146e-06
-1.51451e-07
-1.27157e-06
-0.000376511
-0.000895082
0.000705781
-6.23594e-05
5.8764e-05
3.58601e-06
-1.37401e-05
-1.23573e-06
1.49912e-05
0.000268801
-5.92954e-06
-6.87552e-06
-9.81649e-05
6.17981e-05
3.63719e-05
1.89051e-05
-4.89948e-05
3.00769e-05
-0.000366597
5.65727e-06
1.83655e-06
-7.49159e-06
-0.000107037
0.000117562
0.000729256
0.000326679
0.000231149
0.00061383
-0.000133457
0.00019926
-6.58146e-05
-3.71256e-07
-9.08048e-06
1.45575e-05
-5.49504e-06
-7.51875e-05
0.00031713
5.60161e-05
-4.52196e-06
5.13024e-06
-6.69438e-06
-0.0024185
0.00305578
-1.77239e-05
-3.69584e-05
5.70029e-05
-1.61341e-05
0.000696521
0.000791151
-0.00148769
-0.000381209
-0.000133676
0.000102224
3.14577e-05
9.78438e-07
-0.000134436
1.05651e-06
-1.16682e-05
0.00016354
-0.000105014
-5.85175e-05
3.3738e-06
8.31525e-07
-1.11991e-05
8.44737e-05
-5.89698e-05
-2.54962e-05
-1.42761e-05
-1.65783e-05
-8.18521e-05
4.11168e-05
6.97575e-05
-0.00743867
0.0120693
-8.31816e-06
3.67709e-06
4.64168e-06
2.52443e-05
-5.9434e-05
3.42237e-05
-0.000284081
-0.000230286
0.000245413
-0.00230819
0.00368768
-0.00137949
0.000173165
3.13198e-05
1.98116e-05
-2.32209e-05
-2.42455e-05
-2.4602e-06
-1.43218e-05
-8.38319e-05
-4.11724e-07
-6.3891e-06
1.2387e-05
-1.04553e-05
1.57197e-05
-5.24731e-06
-2.39349e-05
-2.13666e-05
-1.54542e-05
3.68142e-05
-0.00251219
-5.11778e-06
-3.20256e-06
-4.20131e-05
-0.000132824
0.000287638
0.000817673
-0.000960776
0.00061065
0.000350123
0.000982424
-0.00046151
-2.92795e-05
0.000294556
-9.80849e-05
6.5762e-05
3.23277e-05
0.000113078
-0.00158626
0.000229178
0.00135703
0.000130846
-2.69128e-05
-0.000103902
0.000506366
0.000202077
-3.21606e-05
8.49307e-05
0.000117392
3.85184e-05
7.88542e-06
2.07959e-05
-9.45001e-05
-4.53258e-05
-0.00102136
3.08489e-05
0.000186632
8.63809e-06
-8.10133e-06
-5.3309e-07
-8.46817e-06
-0.000221798
-0.000218747
0.000336588
-1.22955e-05
3.21865e-06
2.75126e-06
2.09426e-06
2.83681e-05
2.51408e-05
-3.28771e-05
7.74159e-06
0.000132399
-0.00030237
0.000169972
3.95407e-05
-2.59572e-06
-3.69433e-05
0.000290512
0.000220887
2.44759e-05
-1.24822e-05
0.000284221
-0.00047896
0.000194741
0.00160568
-0.00255655
-7.26426e-05
6.96256e-05
0.00475
-0.00293556
-0.00181444
-6.08027e-06
9.79331e-06
-3.71875e-06
1.07482e-05
7.27575e-06
-1.80139e-05
2.31908e-06
1.3843e-05
0.00867904
-0.0116685
0.000441
-1.32224e-05
-3.37867e-05
5.90207e-05
1.06591e-05
-6.62463e-06
-4.04584e-06
-0.00069686
0.000984495
-2.60727e-05
3.84405e-05
-1.23806e-05
0.00145788
-9.29041e-05
-0.000368011
-2.09174e-06
1.68934e-05
-1.48071e-05
8.90109e-06
1.2072e-05
0.00180496
0.000427705
-4.09512e-05
-1.17563e-05
5.27288e-05
-0.00126145
0.000613296
-6.60105e-05
0.00020637
5.2231e-05
-3.2455e-06
-0.000731767
0.000212432
0.000519343
-2.35673e-05
-6.50532e-05
8.86184e-05
4.01776e-06
-6.46406e-07
0.00107584
-0.000687185
-2.02972e-05
-2.14464e-05
3.43921e-05
-9.15474e-06
-1.34139e-05
-2.75567e-06
1.62316e-05
-1.39599e-06
9.17028e-07
4.75647e-07
5.15614e-05
-2.32701e-05
-3.63856e-05
1.03054e-05
7.30159e-06
-4.54045e-06
-1.18051e-06
-0.000241822
-3.72046e-05
4.06037e-05
1.64356e-07
-2.49633e-05
-7.3125e-05
1.19343e-06
2.34164e-07
2.44097e-05
1.51426e-05
-4.37144e-05
-4.37922e-05
8.75058e-05
-2.36091e-05
5.63884e-05
-3.27992e-05
1.96397e-06
-0.00811206
-0.0092319
3.04397e-06
8.0275e-06
-0.000181013
0.000295037
1.84219e-05
4.13295e-05
0.000265671
0.00287724
-1.75344e-06
-1.38386e-06
0.000251702
-0.000483219
0.000231523
4.73234e-06
3.21057e-06
-0.000501024
0.000458985
-9.87384e-06
-4.99547e-06
1.48774e-05
1.82155e-06
-2.5963e-06
-1.25338e-05
5.23703e-07
1.20084e-05
-2.34064e-05
7.07035e-05
-4.74017e-05
3.01865e-05
2.04096e-05
-5.06154e-05
-0.000182559
0.000200929
-1.8317e-05
-9.90661e-05
-0.000349857
-6.83222e-05
0.000224597
-0.000156289
5.01399e-05
-7.26138e-05
2.24852e-05
0.000453281
-0.00074552
0.000292241
1.12693e-05
-2.62422e-06
-4.44206e-05
5.09396e-05
-4.08064e-05
-9.64747e-05
3.09789e-05
-8.37012e-05
4.98951e-06
9.41931e-06
-4.00362e-05
7.27293e-06
4.63575e-06
3.88171e-06
7.78664e-05
-4.39218e-06
6.01357e-05
-1.624e-05
1.19327e-05
4.35535e-06
2.40462e-05
-4.56874e-05
2.16612e-05
1.03354e-05
-3.44337e-06
-6.91268e-06
-4.26249e-05
1.20198e-05
9.66706e-05
1.13273e-05
-1.01414e-05
-1.15495e-06
0.000807607
-0.000247589
-0.000560018
5.24316e-06
-2.91196e-06
-0.000185789
7.04211e-05
-3.45741e-05
3.42962e-06
-0.000160968
6.25497e-05
9.84215e-05
-2.99338e-05
0.000142595
3.98689e-05
-0.000182435
0.00101445
0.00052844
5.88195e-05
-3.36356e-05
-2.5193e-05
7.74568e-05
-4.73806e-05
-3.00732e-05
-0.00446122
0.0324041
-0.0279429
6.26538e-05
1.5955e-05
-7.86038e-05
-4.80888e-07
-1.95184e-05
-1.15151e-05
-1.16503e-05
5.58025e-06
6.06621e-06
-0.00132721
0.000366422
0.00472653
-0.00290644
8.54635e-05
-1.76057e-05
-2.8696e-05
-1.85484e-05
-0.000121342
0.000129111
1.2678e-06
0.00168495
-0.00168622
2.35067e-05
8.78317e-05
0.0331788
-0.0194939
-4.24587e-05
3.03263e-05
1.21379e-05
9.65481e-06
-1.73709e-06
-7.91129e-06
-0.000107244
7.3345e-05
3.39599e-05
0.00511295
-0.0072297
0.00211675
-1.91795e-06
-1.14933e-05
-0.0227726
0.00396537
0.0188073
-8.5872e-05
0.000155633
0.000914959
0.000811258
4.89452e-06
0.00135207
-0.00135697
-0.000958242
0.000906693
5.1608e-05
3.65674e-06
-6.30375e-06
3.03967e-05
-4.88772e-08
-3.02879e-05
0.0172251
-0.00826247
-0.00896265
-5.80965e-05
-0.000102873
2.7765e-05
0.000103107
-2.32287e-05
2.11337e-05
0.0013718
-0.000506214
5.49752e-06
4.16224e-06
0.000152274
1.75602e-05
-2.34931e-06
-5.41682e-05
0.000162746
-0.00014041
0.000209078
-8.08838e-05
-0.000128245
0.00018248
-0.000184468
2.00906e-06
-7.14845e-06
1.50575e-05
1.45437e-05
-0.00176152
2.33931e-05
0.000643406
-0.000322946
-0.000171079
0.00017946
-8.3806e-06
0.000551245
-0.00059839
4.71543e-05
-3.62116e-05
-9.74562e-05
-0.00029354
-9.34973e-05
0.000247474
-0.000322209
7.47336e-05
3.0574e-06
8.21865e-06
-1.19726e-06
4.6587e-06
-5.40158e-05
0.000173572
-0.000119559
-0.000485296
0.000113343
0.000372004
4.56016e-05
-2.67002e-05
-0.00114484
-0.000203183
3.35489e-05
-4.01895e-05
6.63625e-06
1.92045e-06
6.87548e-06
-2.13038e-09
-6.88792e-06
3.27325e-06
3.12102e-07
-6.78585e-06
-0.000863673
-0.000337672
0.00120133
0.000130064
-7.88254e-05
1.91112e-05
-5.82573e-06
-2.01366e-05
9.15136e-06
-3.27577e-05
2.40595e-06
-1.60471e-05
1.36404e-05
-0.000220092
-0.000643581
-2.23483e-06
-1.81248e-05
2.03609e-05
5.14229e-06
2.34133e-05
-1.57538e-05
-7.65881e-06
-0.00234657
-0.00146773
0.0116834
0.00450332
0.000637128
0.00447583
-1.44353e-05
0.0002963
0.000105072
1.65773e-06
-1.45324e-05
2.24211e-05
3.45782e-05
3.66932e-06
-9.04493e-06
7.04247e-05
-0.000100934
3.056e-05
-8.18632e-06
4.05528e-05
-3.23481e-05
0.0001542
-0.000104845
-4.93563e-05
7.40997e-06
7.48148e-06
2.41446e-05
-3.16322e-05
0.00498174
-0.00755762
-0.000695595
0.000673982
2.16122e-05
-0.000204189
0.000160947
4.32431e-05
-0.000107915
0.000180625
-7.27142e-05
-0.000183738
-2.04522e-05
-0.000594715
0.000707931
-0.000113214
-4.5971e-06
-9.52472e-05
7.31546e-06
-0.000152644
-7.14093e-06
2.63207e-05
-8.08276e-06
2.1621e-05
7.45661e-06
3.07278e-06
-1.05296e-05
6.78585e-06
5.60305e-06
3.30346e-06
-8.90471e-06
-1.77957e-05
2.76286e-05
-9.83001e-06
0.000823002
-4.88044e-06
-9.14605e-05
9.63833e-05
-0.000823384
-0.000282371
0.00110569
-4.35575e-06
-7.34303e-07
-4.04722e-06
3.42063e-05
0.0196514
-8.65457e-05
7.45741e-05
1.03316e-05
0.000155704
-0.000166079
-0.00012805
0.00026047
-1.85312e-05
6.54385e-05
-3.18909e-05
-2.54863e-05
6.0445e-05
1.16933e-05
-2.94874e-05
7.9114e-05
-0.000100938
2.18294e-05
-0.00040301
7.90127e-06
-4.43386e-07
-5.99789e-06
3.00558e-05
-0.000193994
-9.17835e-05
0.000245311
-7.31167e-05
-0.000172202
-6.15367e-05
6.44729e-05
-0.00822017
-0.015033
-2.35832e-06
-2.31353e-06
0.000168904
-2.45906e-05
-0.000144314
-2.30024e-05