/*--------------------------------*- C++ -*----------------------------------*\
| =========                 |                                                 |
| \\      /  F ield         | OpenFOAM: The Open Source CFD Toolbox           |
|  \\    /   O peration     | Version:  v2012                                 |
|   \\  /    A nd           | Website:  www.openfoam.com                      |
|    \\/     M anipulation  |                                                 |
\*---------------------------------------------------------------------------*/
FoamFile
{
    version     2.0;
    format      ascii;
    class       volScalarField;
    location    "200";
    object      p;
}
// * * * * * * * * * * * * * * * * * * * * * * * * * * * * * * * * * * * * * //

dimensions      [0 2 -2 0 0 0 0];


internalField   nonuniform List<scalar> 
14033
(
-0.0242064
0.0311737
0.000987837
0.00115145
7.00522e-05
-0.00254454
-0.00208682
0.0079747
0.00122679
-0.0129747
0.000858471
-0.0377775
-0.00336609
-0.00322625
2.12962e-05
-0.0263587
-0.0101001
-0.00250572
0.0011086
-0.0129324
-0.0230205
-0.0375891
-0.0343906
4.68072e-05
0.000949368
0.00116698
-0.0449772
-0.0427114
-0.046861
-0.044732
-0.014463
0.00794566
-0.0491526
-0.0136966
-0.0120063
0.00154295
-0.0734702
-0.0121035
0.000236315
-0.00759937
-0.00239359
-0.0226157
0.00134314
0.000682408
0.000661842
0.00127778
-0.0594563
-0.0024541
-0.0448495
-0.0709541
-0.00445648
0.00156819
-0.0804803
-0.0529065
-0.0103788
-0.00370138
-0.048539
-0.00563453
-0.0137907
-0.0139376
0.00122191
-0.0709345
-0.0276358
0.00144372
0.0016067
0.00132584
-0.0232032
-0.0434435
0.00111849
-0.00748964
0.00164672
-0.000468934
-0.0588311
-0.0113435
-0.0251508
0.00117048
-0.00345239
-0.00735612
-0.00619322
-0.04544
0.00117759
-0.00979956
-0.083256
0.00254151
0.00105893
-0.000583743
0.00347915
-0.0507652
-0.0536371
-0.0126144
-0.000266821
0.00125774
0.0047942
-0.0577592
0.00116183
0.0125286
-0.00463187
0.000995142
-0.07711
0.0006794
0.00134777
-0.00230107
0.00109934
0.00343029
-0.0577831
-0.0467684
-0.0541939
0.00262841
-0.0428774
0.00153915
-0.0634007
0.00140711
0.00107232
0.00355141
0.00141679
-0.00326843
-0.0475592
0.000116127
-0.0569965
-0.0485189
-0.000379278
-0.0335839
-0.0953345
0.00280587
-0.0612374
0.00461176
0.00135464
0.00337031
-0.0471163
-0.00300434
-0.0618627
0.00117101
4.85414e-05
-0.0724041
-0.0618452
-0.00802987
-0.0434698
0.00155742
-0.00315586
0.00437043
-0.0158538
-0.0549487
-0.0390768
-0.0266633
-0.0443466
0.000310834
-0.000315732
-0.0337687
-0.0734256
-0.0102532
0.0135594
-0.0154012
0.00161529
0.00827266
-0.00223505
-0.0828402
0.00338478
0.00182304
0.00353026
4.55456e-05
0.00308038
-0.0453264
-0.0727379
0.00195434
-0.023594
-0.000528673
-0.014352
-0.0314567
-0.0848794
-0.00079371
-0.0267109
-0.0437671
-0.0374663
-0.106985
0.00115274
-0.000853279
-0.0488081
-0.0652554
-0.0369857
-0.0267787
-0.0240299
-0.0644334
-0.0140649
0.00175415
0.00155126
-0.0567984
-0.0797828
-0.00316999
-0.0810925
-0.0579699
-0.0584443
-0.0140176
0.00810587
-0.00331451
-0.0623957
-0.0032642
-0.0276328
-0.0516405
0.00126491
0.00144143
0.00268258
-0.0141435
0.00154791
-0.0248415
-0.0147318
0.00158102
-0.0330379
-0.0490209
-0.0229327
0.0053169
-0.0469403
-0.048031
-0.0551883
-0.0620091
0.000253704
0.00289333
0.00135796
-0.00628829
0.00161223
-0.0121292
-0.0225527
0.00173531
0.00171754
0.00302976
-0.00170495
0.00102811
-0.0337269
-0.0149811
0.00124429
0.00111012
0.00129059
-0.046347
-0.0028126
0.000119015
-0.00674127
-0.0792715
-0.0453392
0.00108295
0.00138596
0.00205402
-0.0953563
-0.00801458
0.000437677
0.00119381
-0.0148222
0.00108691
-0.0465976
-0.0924356
0.00306923
0.0010584
-0.00182829
-0.0506756
0.00102839
-0.0552072
0.00131644
0.0146239
0.00208456
-6.48634e-05
0.000967619
-0.0502459
5.1768e-05
-0.00219008
0.000907284
-0.0112864
-0.0151885
-0.00428621
-0.00266587
-0.0449831
-0.00413286
-0.0522688
-0.0116421
-0.0767636
0.000661455
-0.0257092
-0.0590396
0.00138433
0.00130664
-0.0429644
0.00328005
-0.0505638
-0.0476276
0.00196522
0.0117245
-0.0253618
-0.076142
-0.00967269
-0.0582256
0.0010643
-0.00591308
-0.0592848
0.0045724
-0.0367258
-0.0383846
-0.013763
-0.00113209
0.00101993
0.00174045
0.00131463
0.00105998
0.00426928
0.00172249
-0.0293327
0.0134136
-0.0130943
-0.00673465
-0.00409465
-0.0052025
0.00173783
-0.0466542
-0.00849168
-0.0432628
0.00205468
-0.0423822
-0.0396739
-0.0483892
-0.00234487
-0.000190862
-0.00698937
0.00212171
-0.0539536
0.032417
-0.0455672
-0.0107128
0.00112698
0.014483
-0.0519322
-0.0135242
0.0011085
-0.0570065
-0.0299682
0.00162549
-0.00563903
-0.0742814
-0.0236124
0.000342661
-0.0731999
-0.0435603
0.00436743
-0.0751067
-0.0103196
-0.0502648
-0.0394442
0.00207042
-0.00994802
0.00250555
0.000993186
-0.0329066
-0.00202984
-0.00321858
-0.00247159
0.0017286
-0.00373573
-0.0523475
-0.0301606
0.00243223
0.000237069
-0.00541441
-0.0835911
0.00109346
0.00348867
0.00245512
-0.000801374
-0.095948
0.00489868
-0.000617913
0.00416188
-0.00023209
0.000107088
-0.0102177
0.00116195
0.000876161
0.0011871
0.000997769
-0.00303391
-0.0431546
-0.00828183
-0.0112792
-0.0183286
-0.00903317
0.000638898
0.00118663
0.0134229
-0.000285992
0.00303257
-0.049228
-0.000304151
-0.0628681
0.00103464
-0.0257645
-0.0412116
0.00175026
-0.0533452
-0.0170837
0.00320078
0.00237065
0.000751455
-0.0134875
-0.0853679
-0.0345795
-0.00304381
0.00074784
8.40758e-05
0.00130927
0.000915017
0.0122211
-0.00178566
-0.00443451
0.000209914
-0.000373696
-0.0625805
-0.0818719
-0.0478408
0.00143319
-0.00549129
0.000917629
-0.00263654
-9.53309e-05
-0.00557923
-0.00107661
-0.0941269
-0.0159476
0.00439079
-0.0316237
-0.00037643
0.00046681
-0.0032343
-0.0048008
4.85287e-05
-0.0250666
0.0032862
0.00858729
-0.00742855
-0.013416
-0.00247498
0.000613932
0.00220881
-0.00973989
-0.00189839
-0.0165084
-0.00642805
-0.0513249
0.00100982
-0.00346899
0.000783975
0.00518588
0.00156568
-0.0326226
-0.0714649
-0.00620405
0.0018455
-0.0448699
0.000909732
0.00143644
0.000833794
0.00106557
-0.0561402
-0.00185438
-0.000256448
9.91617e-06
-0.0270633
-0.00740015
-0.0627411
-0.0440741
-0.0472695
0.000622751
-0.000256688
-0.0112508
0.00162455
0.00107977
-0.0517937
-0.00983209
-0.0252526
0.00282313
-0.0024139
0.000223081
-0.085284
0.00377755
-0.0468107
0.00301841
-0.0523535
0.00293235
-0.0485787
-0.00224457
-0.0017902
-0.0563976
0.00147716
-0.0848884
0.00155498
-0.0425104
0.00196408
-0.00737198
-0.0830818
-0.068722
-0.0370601
0.00276797
-0.0110952
-0.0432969
0.00308642
-0.0142333
0.0148453
-0.00533309
0.00826079
-0.0569725
0.000974783
-0.0340142
0.00137335
0.000663609
-0.00735859
-0.000248213
-0.0416918
0.000929695
0.00118871
-0.0472214
0.00110295
0.0035541
-0.00854669
-0.0344113
0.00112325
0.0125831
0.00185591
0.00131167
0.003723
0.00131638
0.00032117
0.00376833
-0.00977468
-0.00559826
-0.00221324
-0.00704869
-0.000932606
-0.0132019
0.00339956
-0.0847421
0.00279078
0.00140755
0.000235566
0.00268662
-0.000661272
-0.000567864
-0.0492461
-0.0102861
-0.0587009
0.000361797
0.00380466
0.00379128
-0.0154832
0.0105738
0.00123016
-0.0542897
0.00269622
0.000638084
-0.0477779
6.2971e-05
0.00121138
0.00858103
-0.043702
0.00272242
-0.013891
-0.031182
-0.076222
-0.0121151
-0.0570872
-0.024966
-0.0118855
-0.0229564
-8.39593e-05
-0.0125884
-0.00853161
-0.000472273
0.00180735
-0.0558323
-0.051757
-0.0661531
-0.000654087
-0.0649985
0.00137151
-0.0821755
-0.0479564
-0.017655
-0.0755939
-0.0229838
-0.00695863
0.00111634
0.00129655
0.00118885
-0.0473902
-0.00538302
-0.0450512
0.00119061
0.00427907
0.0291307
-0.0167772
0.00103236
-0.00647076
-0.000147619
0.00146735
9.21913e-05
-0.0464601
0.00107894
-0.00514783
-0.00164355
0.00107856
0.00312798
0.0093857
-0.0225144
-0.0930241
-0.047314
-0.0723862
-0.0415922
0.00541718
0.00823272
0.00924382
-0.00542078
0.00274605
0.00643016
0.0013345
0.000768937
0.00100872
-0.0869589
-0.0571065
-0.0635734
0.000956831
0.00254859
-0.0228653
0.000903243
-0.0309447
0.00451718
-0.019813
-0.00954088
-0.0344673
0.000816334
0.00108628
0.000832771
-0.0456822
-0.00760708
0.00189179
0.000318575
-0.00656941
-0.0440419
0.00117832
-0.0410293
-0.00261459
0.00125343
-0.0477638
-0.0451148
-0.0634439
-0.0419672
0.000628696
0.00197149
0.000816694
-0.0258186
-0.00630523
-0.0109124
0.00407831
0.00428847
0.00932152
0.000862855
-0.000919271
-0.0775294
0.00127519
0.000230993
0.00103029
0.00415197
-0.0955342
-0.0114507
-0.0630559
0.00114068
-0.0109754
0.000482379
0.00103144
0.00124158
-0.00111476
-0.0111389
-0.00712429
0.00223332
-0.00173898
0.00118254
-0.0273514
-0.00708079
-0.00550778
-0.0611445
0.0135547
6.03769e-05
0.00280546
-0.046612
0.00114888
-0.0058356
-0.0469327
-0.0448269
0.00126404
-0.0436039
0.00699489
-0.0719139
-0.0248495
0.00550075
-0.0733195
-0.0600347
-0.0478285
0.00174839
0.00117386
-0.092979
0.000473201
-0.0410558
-0.00823297
-0.0189389
-0.00375966
-0.00201474
-0.00444756
-0.000540461
0.0039753
-0.0592484
-0.00173606
0.00158176
0.00169997
-0.0624728
-0.0167693
-0.0107962
-0.000399725
0.00162243
-0.022861
0.000939998
-0.0241853
-0.0340195
0.00169339
-0.0434028
0.00137829
-0.0250707
-0.0320663
0.000892844
-0.00454776
0.000880867
-0.0505676
0.00100267
-0.00490839
-0.0123305
-0.00603484
0.00148024
-0.000457182
-0.0864501
-0.00775573
-0.0793808
-0.0171044
0.00110009
-0.0453184
-0.0739036
0.000575048
0.000843331
0.00106697
-0.0568396
-0.0287842
-0.00898377
0.00100983
-0.000400116
-0.00675264
-0.0202151
-0.0603225
0.00117035
0.00575673
-0.0471623
-0.0772399
0.00133358
-0.00679585
0.0127047
-0.00461777
0.00100443
-0.00198649
-0.0703945
0.000770338
-0.00800604
-0.0381527
0.00188758
9.52626e-05
-0.0133577
0.00552547
0.00169887
-0.0234618
-0.0481203
-0.0116743
0.00162571
0.00287736
-0.0192175
-0.00831686
-0.0750819
0.000979779
0.00125004
0.00125979
-0.073859
0.00166936
0.00865454
0.0015433
-0.0792438
-0.0146186
0.000994271
-0.0168484
-0.074911
-0.000308047
-0.0479827
-0.072957
-0.0464444
-0.0486919
-0.0395198
-0.0543625
-0.0218753
-0.0448539
-0.0153907
-0.094539
-0.000780704
-0.0837506
4.19267e-05
-0.00647473
-0.0110837
-5.36723e-05
0.000682531
-0.0372671
-0.00452908
0.00090576
-0.000701831
-0.0201071
-0.00505561
-0.041586
0.00235618
0.00117125
0.00177797
-0.00444663
0.0030443
-0.00431737
-0.0245621
0.00134341
-0.0100891
-0.0151188
0.00109766
0.00717043
-0.07336
0.00250641
0.000798911
0.0058006
-0.0967628
0.000635917
-0.0713174
0.000261415
0.00445409
0.000164822
0.000793396
-0.0720179
-0.0378681
-0.0241422
-0.00941937
0.00147536
0.00123389
0.0011062
-0.0107097
0.00157908
0.00313539
-0.094918
0.000299006
9.60966e-05
-0.00347598
-0.00454337
0.000954956
-0.042258
-0.000599835
0.000464743
-0.000251887
-0.0338327
0.000281593
0.0001836
-0.0024348
-0.0302249
-0.0104996
-0.0792594
-0.0109793
0.00131241
-0.00197196
-0.0968776
-0.0119317
-0.0183484
-0.0478353
-0.0827048
-0.0476602
-0.0412937
-0.000718534
-0.0248013
-0.0722957
-0.0329077
-0.0266927
-0.0628795
-0.00323248
0.000186188
0.00113988
-0.0119602
-0.00501684
-0.0224974
-0.00080888
-0.00339704
-0.0257955
-0.00282023
0.00425331
-0.00417828
-0.0808542
0.000601214
0.00306932
-0.047937
-0.0447916
0.00133155
-0.00494686
7.26123e-05
-0.00414513
-0.0518606
-0.00902827
-0.00187443
-0.003696
0.000929609
0.000944388
-0.00566428
-0.011241
-0.0130753
0.000682946
0.00282388
0.0122545
0.000347766
0.00103061
-0.0561629
0.00474597
-0.00900875
0.00417259
-0.0511911
-0.00649165
0.000384845
0.00106096
0.00153536
0.00132971
-0.0077265
0.0192934
0.0029929
-0.0463923
0.00256776
0.000456138
0.00102905
7.66673e-05
0.00264092
-0.0474506
-0.0433045
-0.0493169
-0.0215471
-0.0145266
-0.0126127
0.00155811
-0.00369022
-0.0240964
-0.00530269
-0.0578979
-0.0329537
0.00175709
-0.00699091
0.000131628
-0.0642181
0.000389008
0.00104334
-0.081282
0.00195356
-0.0495635
0.00104895
0.001071
0.00103058
0.000924276
-0.0484066
-0.0738596
-0.00882658
0.00206836
-0.0418736
0.00187197
0.000896294
0.00192838
0.0010468
0.00165093
-0.000849131
0.00525733
0.00523442
-0.0782651
-0.0651852
-0.00300872
-0.0171879
0.00135589
-0.000947058
-0.0104848
-0.004645
-0.0294146
-0.00234298
-0.00502865
-0.0102981
0.00557403
0.00284151
0.00292
0.00274832
0.000259536
0.000818628
-0.040676
-0.0528094
0.00267075
0.000695622
0.00165445
0.00100709
-0.00138924
0.000849496
0.00382364
-0.058284
-0.0416018
0.0011223
1.39608e-05
0.00291641
-0.0447725
-0.0501527
-0.0372986
-0.0048142
0.00196489
-0.0105491
0.000834111
-0.000229287
-0.0937627
0.00164593
-0.0223877
-0.0413605
-0.0406935
-0.0533837
0.00184531
-0.00965538
0.000131734
-0.0276187
-0.00666273
-0.0128742
-0.05072
0.00295169
-0.0471394
0.00157335
0.00181231
-0.0641565
-0.0589986
0.00101874
-0.0196779
-0.000566699
-0.0314382
0.00143912
-0.0126365
0.000513531
-0.0124302
0.0047896
-0.0253097
-0.0481411
-0.0286602
0.00190237
0.00127412
0.00053065
-0.0856863
-0.0113479
-0.0245774
-0.0437675
-0.0494494
-0.0432502
-0.0286226
-0.0507565
0.000685116
-0.000104316
-0.00274984
0.000147085
-0.00792169
0.00162134
0.000585964
-0.00360766
-0.069311
-0.0551196
-0.00507905
0.00441644
0.00182677
-0.069509
-0.0116958
-0.0135691
-0.0145264
-0.00409067
-0.00989646
-0.0239179
-0.0399811
0.00533374
-0.0404732
-0.0795827
-0.0281323
-0.000991571
-0.00926523
-0.00297887
0.00816098
-0.0154196
0.00423354
0.00140004
-0.0270149
-0.0314769
-0.0029095
0.0014007
0.000973776
-0.000154113
-0.0720925
-0.00531451
0.00171385
6.50513e-05
-0.00153693
0.00132335
-0.0468376
-0.0772979
0.00130976
0.000143164
0.00513234
-0.0326178
0.000773542
-0.060664
0.00420794
-0.0150749
-0.0257264
-0.0500506
-0.0425867
-0.0099022
-0.0116959
0.00535786
-0.00518632
-0.0432911
0.00024099
0.00126084
0.00185259
0.000342877
5.76143e-05
-0.042588
0.000914102
-0.0514977
0.00107297
0.00111355
-0.0816588
0.00158286
0.00523765
-0.0629604
0.00105104
0.00111881
-0.00248109
-0.0799116
0.00044552
0.000874106
-0.0634962
0.00111211
-0.0457093
0.00170919
-0.096069
-0.0241444
-0.0126721
0.00175706
-0.0263195
0.000631495
0.000126644
-0.0714973
0.00173444
0.00127569
0.00160219
0.0040045
0.00400412
0.00014876
0.000915674
0.000941384
0.00305538
-0.00117142
-0.055973
0.000390767
0.000941458
0.00159004
-0.00686927
-0.0390284
0.00133045
-0.00263992
0.00162079
-0.0561082
-0.00522451
0.00157823
0.000140667
-0.00515847
-0.0762992
-0.0249751
-0.0129429
-0.0305476
-0.0335154
0.00190656
0.00263756
0.000925946
0.00692701
0.00176781
-0.00696583
0.000628395
-0.0291064
0.00195105
-0.0104482
-0.00822987
0.000987201
0.00216441
0.00453219
-0.0013286
0.00242476
0.00147683
-0.0487335
0.00386986
-0.0497741
0.00112336
-0.0565695
6.25573e-05
-0.0729009
0.000457656
0.00177509
0.00442212
-0.0547805
0.00191784
-0.0526487
0.00289013
0.00166312
-0.000372927
0.00155786
0.000974066
1.86443e-05
-0.0312808
-0.00238101
0.00239394
0.00134764
-0.00536268
-0.00944987
-0.0254461
-0.0906766
-0.00635105
-0.0474147
-0.00847616
-0.00171552
-0.0195445
0.000468785
0.00270875
0.0012848
0.000572248
0.00122435
-0.0101649
0.0129348
0.00536861
-0.00914248
0.00195672
0.000981093
-0.00618196
0.00889422
0.00149966
0.000413995
0.000925799
0.0017191
-0.0288586
0.00198023
-0.0789579
0.00155387
0.00153583
0.000242509
-0.00472623
-0.0182711
0.00178244
-0.0136958
0.00730095
0.000999887
0.00242974
-0.00114847
-0.0105806
0.00515883
0.00226562
-0.00321004
-0.0233087
-0.0554485
0.00281503
-0.0516671
-0.023276
-0.00575508
0.00236514
-0.00551883
0.000353838
-0.0393748
0.00180524
-0.0682257
-0.0552724
-0.00268362
-0.00166529
0.00105676
0.000984986
0.00177831
-0.0366556
0.00233158
0.00164163
0.00170225
-0.00266955
0.0016957
-0.0228806
-0.0340945
-0.0168923
0.00762109
0.00106518
-0.0488507
-0.00254589
-0.0459053
-0.0682725
-0.0703591
-0.046913
-0.0058253
-0.0641222
0.00177639
0.000528008
-0.0506821
-0.0196552
-0.0949396
0.00180179
-0.0915872
0.0057011
-0.000964732
-0.0405207
0.00953643
-0.0339294
-0.0502021
0.000457776
0.00164687
6.30429e-05
-0.0603688
0.00139672
-0.0248379
0.00260316
8.46031e-05
-0.072584
-0.046175
0.00970934
-0.010822
-0.00490918
0.00080298
0.00102514
-0.00107279
-0.0316625
-0.00710034
0.00133087
-0.0071533
0.0134643
0.00153344
-0.0119933
-0.0700271
-0.00274499
-0.0968881
-0.00433394
0.00736604
0.0013562
0.000383619
-0.00197072
0.00150361
0.000987881
0.000762895
0.0110401
-0.0095691
-0.0219831
-0.0202611
0.000494522
-0.0292862
-0.0402275
-0.0333119
-0.00764787
0.00866148
0.025406
-0.000294591
-0.0517123
0.000934934
0.00362539
-0.0678001
-0.0889901
-0.0247595
-0.0412841
0.000228556
-0.02025
0.00104531
-0.0279267
7.86102e-05
0.000962611
-0.0711383
-0.00371075
0.00333743
0.00257618
-0.00109994
-0.00422885
0.000661618
-0.0751409
-0.0401802
0.00953764
-0.0316063
-0.0183541
3.99839e-06
0.00163062
-0.048371
0.00098673
-0.0148473
0.00186042
0.00189825
0.00168566
0.00153793
-0.00690574
-0.00971248
0.00065925
-0.0415711
0.0103956
0.0109775
-0.027574
-0.0655974
-0.033806
-0.0566415
-0.039722
-0.0114634
0.000504573
-0.0111332
-0.0310292
-0.0460719
0.00106364
-0.000703784
0.00100054
0.00100642
0.00214928
0.000943316
0.017348
0.000840438
-0.00120118
-0.0891434
-0.0416683
-0.0294344
-0.0447681
0.00263451
-0.0503141
-0.0387142
0.00203185
0.00243963
-0.012166
0.00227386
-0.0424773
0.00189161
-0.0515781
0.00118322
-0.0585463
0.00107702
-0.0520004
-0.0499463
-0.0129137
0.00102714
-0.0777331
-0.00474896
-0.0853579
-0.0381176
-0.00182916
-0.0050059
-0.00136817
4.90443e-05
-0.0511334
0.00970489
6.39504e-05
-0.0540325
0.00957957
0.00171678
0.00224981
-0.00263555
0.00068862
-0.00083562
-0.000129599
-0.00567588
-0.0196304
0.00249409
0.00152549
-0.0113933
0.00624951
-0.0592726
-0.000790652
0.00159567
-0.0459462
-0.0431141
-0.00186176
-0.0526824
-0.0289103
-0.0366127
-0.00956152
-0.0205214
-0.0622745
0.000900244
-0.00124202
-0.00952832
-0.00753161
-0.0727104
-0.045321
-0.012564
-0.0458751
0.000942046
-0.0032196
-0.0512691
0.00120862
-0.0218334
-0.00335565
0.00462768
0.00352043
-0.0250682
-0.00696582
-0.0744662
-0.0802398
-0.00540528
-0.0284864
0.00192516
0.00132215
-0.033034
-0.0133571
-0.00144418
0.00765518
-0.0167561
-0.0457765
-0.00134155
-0.00857529
-0.0410349
-7.07152e-05
-0.0140091
-0.0226224
0.00369484
-0.0480474
0.00207581
0.00450692
-0.0468684
-0.00263047
-0.00886226
0.000114078
-0.00472126
-0.021894
-0.00224852
0.00320467
0.00119769
0.00369167
0.00153562
-0.051316
0.000885616
-0.0121811
-0.0299045
0.000886841
8.32824e-05
-0.0448566
-0.0226047
-0.0556372
-0.0226103
-0.0386909
-0.00789517
-0.0668944
-0.0655841
0.000928533
-0.0643644
-0.00744932
-0.00972709
-0.0463944
0.00285998
0.00319656
-0.0449474
0.00325777
-0.022006
-0.0310793
0.00226274
0.00162715
0.000461219
0.00154119
-0.0120131
0.0012203
-0.0489313
-0.000936372
-0.0530876
-0.00182466
-0.00354005
-0.043111
0.00402899
-0.00924585
-0.0559345
0.000525607
-0.0593986
-0.0757546
0.00372174
-0.0582222
0.00190822
0.00162142
-0.0904117
-0.0283687
0.00782525
-0.00292884
0.00154819
-0.00238358
-0.0693644
-0.01308
0.00253402
-0.0409257
-0.000878931
0.00152934
-0.0556783
0.00120258
0.00103235
0.000783863
-0.000571604
0.0093743
0.000743802
-0.0152215
-0.000295939
0.00095906
-0.0485369
-0.0468593
0.00125712
0.0236826
-0.00842538
-0.0430788
0.0179356
0.00153084
-0.0120304
-0.056273
-0.0474158
-0.0597466
0.0105157
0.000959339
0.000314078
-0.000408791
-0.0226613
0.00355975
-0.0444081
-0.00114063
-0.00491346
0.000947678
-0.0452054
-0.0188997
-0.0730889
-0.0256666
-0.0364665
0.00164501
-0.036937
-0.0081953
-0.0085824
0.000183129
-0.0711717
0.000737457
0.000424859
-0.0282892
-0.0175235
-0.00960612
0.000990248
-0.026385
-0.0486745
-0.0522898
0.0027514
-0.0772333
-0.000264064
-0.00191666
-0.00274262
0.00374813
-0.0109483
-0.0452432
0.00193129
-0.0478901
0.00507495
-0.021483
-0.0754732
-0.060918
-0.0502385
-0.0223131
0.00250213
0.000534449
0.000938732
0.00160315
-0.065634
-0.0461965
-0.00431425
-0.0428553
0.00160645
0.00112238
-0.0459676
-0.00448366
-0.00685728
-0.0362345
0.00289258
-0.00336558
0.00159072
-0.00265052
-0.0130955
-0.0380085
-0.0467589
-0.0463452
0.00176072
0.0210744
0.000833943
-0.0107417
-0.0360153
-0.00231063
0.0166358
-0.000541414
0.00991171
-0.00351155
-0.0108531
0.00112292
-0.0379148
-0.0551577
-0.00421519
-0.0307006
-0.00769611
0.00278205
-0.0451283
-0.0375093
-0.000573994
-0.0442017
-0.0449112
-0.0398237
0.000671237
-0.0456533
-0.0546769
-0.0137276
-0.048095
0.00296616
0.0028701
-0.0665825
0.000849071
-0.0211604
-0.0454749
-0.033422
0.000255834
-0.0134529
-0.00652545
-0.0949827
0.00184793
0.00185278
-0.030235
0.00255971
0.000721466
0.00242452
-0.0586199
0.00535191
0.000563903
-0.0138595
-0.00217226
-0.0969512
0.00232051
-0.0347658
-0.00189514
-0.0390553
0.00345994
-0.0946413
-0.000977394
0.0013546
-0.0452344
0.00292346
0.0249144
-0.000722473
-0.0156716
0.00160423
0.00182171
0.00437698
0.00237513
0.00292281
-0.0294283
-0.0647597
0.00163657
-0.0376132
-0.0474956
0.000354481
-0.0212868
0.00136128
-0.00912259
-0.0130163
-0.00384644
-0.00751802
-0.0518938
-0.00312886
-0.0702845
0.00138769
-0.000461054
0.00659793
0.000866598
0.00144262
-0.00944061
-0.00535815
0.00277907
0.00130087
-0.00496343
0.000440531
-0.0452905
0.00175576
0.00977264
0.000891248
-0.0629674
-0.0956615
-0.0499697
-0.00416407
0.00110817
-0.00223995
0.0043585
0.000474106
-0.0672683
0.000450245
-0.00754551
-0.00364395
0.0028614
0.000912248
0.00201126
-0.0983291
-0.00268979
0.00161361
-0.0656752
-0.00450511
-0.0538313
9.64472e-05
-0.0935943
-0.0518275
-0.0217581
0.00126507
-0.00768177
-0.046041
0.0023199
-0.0223194
0.00135163
0.00504966
0.00153082
-0.0124521
-0.0494286
-1.26754e-05
0.00124939
-0.0052326
-0.00716104
-0.0232768
0.00701133
-0.00495796
-0.0265676
-0.0365158
-0.000125567
-0.045149
-0.0170749
-0.0353643
-0.00287244
-0.00263446
0.000497742
0.00267687
-0.00309832
0.00520191
-0.0293819
0.00609049
-0.0481979
-0.0109308
-0.0252832
-0.0216698
-0.00464971
0.00139031
0.00103732
-0.00134983
-0.0413294
0.00142875
-0.00625119
0.000869442
-0.000261828
-0.0980057
-0.0792079
-0.000667606
-0.0497354
0.00145819
-0.0141415
0.00133545
-0.0520394
0.00330079
0.00423749
0.00508095
0.00194071
-0.0441159
0.000775135
0.00126527
0.0010327
-0.0479714
0.00918571
0.00231399
-0.0552215
-0.0225997
0.00180705
-0.00930827
-0.000444931
0.00160058
-0.0312152
-0.0491004
-0.00461553
-0.037007
0.00530683
0.00154523
0.000512853
-0.0505739
0.00110028
0.00246147
0.00382195
0.00142901
-0.00345488
0.000853602
-0.00075236
-0.049561
0.00256094
-0.00252329
0.000875846
0.000960788
0.00720363
-8.75043e-05
0.000293357
-0.0428179
-0.00490606
0.0015729
-0.000821382
-0.0771048
0.00087257
0.00138672
-0.0663535
-0.0299903
0.000466267
-0.0307177
0.000429541
-0.0050463
-0.00950324
-0.0117226
-0.0061067
-0.0548875
0.000570751
-0.0123626
-0.0234805
0.00446125
0.000525653
-0.0202073
0.00211535
-0.000738641
-0.0867841
0.000249524
-0.0451449
-0.0103664
0.00236101
0.00245041
0.00261361
0.000186439
-0.000675396
0.00160073
-0.0702794
-0.068535
0.00211068
-0.00602192
0.00382307
0.000995645
0.000245108
0.000839619
0.00156734
0.00865991
0.00376353
0.00321738
0.00032863
0.000528122
-0.0370995
-0.0524545
-0.065418
0.000867202
-0.0681893
-0.051293
0.00233467
-0.0687028
7.31993e-05
-0.0407767
-0.0703778
-0.0639184
-0.00378637
-0.0628219
-0.000933998
-0.0439746
-0.0961574
0.00147847
-0.0097322
0.00152787
0.000837934
0.00228157
-0.0456768
-0.0505934
6.57296e-05
0.000642455
-0.0453141
-0.0715559
0.000804685
-0.012908
0.000743832
-0.0125131
-0.00914491
-0.00706765
-0.0600202
-0.0430998
-0.0322959
-0.0690593
-0.0133924
-0.0747752
-0.0274164
-0.0581289
-0.0202571
-0.0482517
-0.0190621
-0.0708653
-0.00883877
0.00158509
0.00158677
0.000254343
-0.0490034
0.00148834
-0.00705136
-0.00631846
-0.0143867
0.0034683
-0.0155767
0.00236262
0.000898789
1.34331e-05
0.00642564
-0.0933361
0.00108289
-0.00430188
-0.00827106
-0.00719514
0.00386806
0.00145318
-0.047781
0.00148911
-0.0147057
0.002221
0.00165207
-0.076238
-0.00329899
-0.000503018
0.00040687
-0.00535533
-0.00593791
0.000942357
-0.00456146
0.000860301
-0.0113281
-0.0152448
-0.00242625
0.00194038
-0.0614902
-0.000965264
-0.039526
0.000569515
-0.000433313
-0.0452034
-0.0560118
-0.000509376
0.0280503
0.00160275
-0.00713839
-0.00605125
0.000227959
0.00152618
0.00486694
-0.0685788
0.00180891
-0.0591728
0.00024161
0.000755706
-0.0166264
-0.00879259
0.00236191
-0.0648838
-0.0143499
-0.0370655
-0.0698073
0.00235971
8.10915e-05
-0.00877658
0.00268649
-0.0010472
-0.0379366
0.00756638
-0.00410975
0.00048196
0.00114788
-0.0915905
-7.05649e-05
-0.0661333
-0.0529874
0.00185036
-0.00671181
-0.0366405
-0.00469128
0.000931849
-0.0306209
-0.0474574
7.13886e-05
0.00514191
0.000143179
-0.0291512
-0.00755327
0.00091314
0.000242106
-0.00936866
0.00163873
-0.0117348
0.0020273
-0.0953131
0.00587027
0.00160061
-0.0469665
0.00197915
-0.0458537
-0.0212014
-0.0681727
0.000522585
-0.0639638
-0.00424912
-0.000147194
-0.077183
-0.00249111
-0.0796794
-0.00014692
-0.0219683
-0.00364211
-0.00077404
0.00158822
-0.0442919
-0.017522
0.000144543
-0.00967897
0.00639232
-0.0476455
-0.0330448
0.00214826
-0.00518687
-0.0232103
0.000602153
-0.0016549
-0.00614233
0.000959565
0.000291624
-0.0427733
-0.00334744
-0.004447
-0.0676556
-0.0497803
0.00150702
-0.00193709
-0.000665436
-0.0434212
-0.0764344
-0.00285624
-0.0661207
-0.0885361
-0.010474
-0.00989331
0.00177831
-0.0170484
0.00142362
-0.0663568
0.00323731
-0.0158265
-0.0374597
-0.0186031
-0.0034199
-0.00363479
-0.00193996
0.00898238
-0.0532565
0.00122083
0.00163786
0.000812197
-0.0523805
0.000108754
0.00167506
-0.00862837
0.00181057
-0.0658494
-0.000926419
-0.0698455
0.000984968
-0.00196412
-0.0466336
0.00280553
0.000704829
-0.010922
-0.00810093
-0.0227414
0.00329194
-0.0665394
-0.0486319
-0.00849349
-0.0406647
-0.0652545
-0.000810304
-0.0229883
-0.0303089
-0.0143225
-0.028588
-0.0669159
-0.00229153
-0.00233269
-0.00165908
0.00269952
-0.0486114
-0.0745814
-0.00154529
-0.0688179
-0.000649031
-0.0620347
-0.0452401
0.00241786
0.000300548
-0.00845713
0.000106632
0.00154955
0.00108767
-0.0044177
-0.0628019
-0.0865271
-0.00884988
-0.0444584
0.000793978
-0.069068
-0.0395963
-0.063246
-0.00204858
-0.0246148
0.00441663
-0.0611476
-0.0119966
-0.00951928
0.000297492
0.000881516
-0.00921623
-0.0402621
-0.0660032
-0.00164669
-0.00190838
-0.00976976
0.00104211
-0.00409967
0.000654328
5.47041e-05
-0.00389647
0.000826816
0.00255487
-0.0939048
-0.0461245
-0.0139175
0.00166072
-0.0159919
-0.0490754
-0.021728
-0.0225018
-0.00114146
-0.00154141
-0.0297853
-0.0466187
-0.0669
-0.0635495
0.00769878
0.00235697
-0.0543403
0.00156635
-0.069338
-0.036876
-0.0451637
-0.0774183
-0.0103605
-0.0391637
-0.068266
-0.0603533
-0.0208061
-0.0611156
-0.00606538
-0.00215146
-0.0458003
-0.0176071
-0.0359473
-0.00940398
0.000259713
0.00123443
-0.0206372
0.00125315
-0.0672312
-0.010411
0.00103782
-0.0362727
0.00100113
0.00157937
0.000233934
-0.0121759
-0.00561065
-0.0103274
0.00384157
0.00102231
-0.0395245
0.00337621
0.00205567
-0.0213012
-0.0359561
-0.0577765
-0.0154733
-0.065136
0.00160531
-0.0588631
-0.0620716
-0.0285253
-0.0601154
-0.0404088
-0.0101349
0.00104833
-0.0444905
-0.00344723
-0.0426558
-0.073626
0.0019652
0.000886286
0.000514833
0.00126218
-0.0457695
-0.0211946
-0.00313172
-0.0310561
0.00343388
-0.0494223
-0.00199978
-0.0364427
-0.00769962
-0.0104335
-0.0669242
-0.0387035
-0.0561077
-0.0220056
-0.0193556
-0.0202048
0.00387945
0.000987074
0.00240954
-0.00950033
-0.000714345
-0.0375884
-0.000393229
0.0113886
-0.0311289
-0.0162975
0.00172621
-0.00833582
-0.0104667
0.00143788
-0.0588674
-0.0121395
-0.00697199
-0.0412439
-0.0458903
-0.0218969
-0.00272361
-0.0426776
-0.0602222
-0.0583628
-0.0571316
0.00190109
-0.00212725
-0.00197287
-0.056054
0.00197897
-0.0793007
0.00166612
-0.0373739
-0.00983104
-0.00868195
0.00123855
-0.0114438
-0.0299826
0.00179191
0.000979234
0.0025176
-0.0207625
-0.059803
-0.0185741
0.00157923
-0.0645554
-0.0134403
0.00222445
0.000779812
-0.0190825
-0.0682204
-0.00746223
-0.000877806
-0.090835
-0.0471375
-0.0401906
-4.44904e-05
-0.00408219
-0.0305756
-0.00935763
-0.000409225
-0.0401136
-0.0602571
0.00362574
0.000105786
-0.0214681
-0.0609966
-0.0286809
-0.0435697
0.00259057
0.000988039
-0.00133727
0.00152214
8.48534e-05
-0.00657238
-0.060405
0.00152958
-0.0590287
3.56543e-05
0.00344879
-0.00270886
-0.0213514
-0.0635817
-0.0408321
-0.0602174
-0.0551954
-0.0110214
-0.033582
-0.00714351
-0.00412963
-0.000498496
-0.0492617
-0.0101734
-0.0953969
-0.0301565
-0.0277572
-0.00931679
-0.0537444
-0.0501306
-0.0920176
0.00153508
-0.00875008
-0.0451794
-0.0642961
-0.000736234
0.00114814
-0.0500048
-0.0410689
-0.0662627
0.00416288
-0.0461724
0.00478762
-0.0101693
0.000483216
-0.0489395
-0.0703001
-0.0572297
-0.00473894
-0.048472
0.00520078
-0.017704
-0.0092978
-0.0106093
0.000816104
-0.0418835
-0.0434817
-0.0427184
-0.0441195
-0.0447846
-0.0451586
-0.0218167
-0.0124627
-0.0116358
-0.0401959
-0.0464282
-0.00954627
-0.000457304
0.00192808
-0.0218237
-0.00480716
0.00110696
-0.0618459
-0.0136232
-0.0264638
-3.87063e-05
-0.0663206
-0.0412127
-0.0170677
-0.039557
-0.0674247
-0.0397258
-0.061864
0.000220251
-0.0101855
-0.00787212
-0.00950674
-0.00310139
-0.00538353
0.00196027
-0.0314152
-0.00447731
-0.0454511
-0.000881602
-0.0064708
-0.0652018
-0.0469589
-0.00604063
-0.0103578
-0.0471442
-0.013693
0.00272486
-0.00301525
-0.00994415
-0.00825425
-0.0635005
-0.072622
-0.0043718
-0.0519809
0.00244824
0.00327539
-0.0485498
-0.0147001
-0.0587468
-0.0123601
-0.0401106
-0.0098665
-0.0422766
0.0017909
-0.0174937
-0.0487672
-0.0447765
-0.0624255
0.00156926
-0.044313
-0.0573506
-0.0408666
-0.042024
-0.0765813
-0.050785
-0.0465487
-0.0316885
-0.00261351
-0.065755
-0.0286309
-0.0366157
-0.0597796
0.00168367
-0.0666427
-0.0124602
-0.054472
-0.06541
-0.0213914
-0.0528567
0.0280488
-0.0703957
0.000801757
-0.00993039
-0.0366366
-0.00891167
-0.00159778
-0.00572137
-0.0613487
0.0015397
-0.0628219
-0.0454968
-0.0213752
0.000232052
-0.0628818
-0.0877915
-0.0241629
0.00100345
0.00252485
-0.0105977
-0.0478432
-0.0444826
-0.0557272
-0.0127927
-0.0127781
-0.00838377
-0.0532363
0.00275656
-0.0114725
-0.0138618
-0.038197
-0.0090549
-0.00213397
-0.049023
-0.010034
-0.0148872
-0.00368509
-0.0101652
-0.0510867
-0.00848261
-0.00500087
-0.0530934
-0.0480235
-0.0460791
-0.0464558
-0.0515013
-0.04392
-0.030565
-0.095981
0.00226291
-0.0389507
-0.00198715
-0.0296416
-0.00353045
-0.0257015
-0.02426
-0.0673427
-0.0663766
0.000868138
-0.0528901
-0.00982253