/*--------------------------------*- C++ -*----------------------------------*\
| =========                 |                                                 |
| \\      /  F ield         | OpenFOAM: The Open Source CFD Toolbox           |
|  \\    /   O peration     | Version:  v2012                                 |
|   \\  /    A nd           | Website:  www.openfoam.com                      |
|    \\/     M anipulation  |                                                 |
\*---------------------------------------------------------------------------*/
FoamFile
{
    version     2.0;
    format      ascii;
    class       volScalarField;
    location    "400";
    object      k_0;
}
// * * * * * * * * * * * * * * * * * * * * * * * * * * * * * * * * * * * * * //

dimensions      [0 2 -2 0 0 0 0];


internalField   nonuniform List<scalar> 
14315
(
0.000155422
0.000196694
0.000149753
0.000152991
0.00015481
0.00014437
0.000141847
0.000151969
0.00622762
0.00014907
0.000147381
0.000162508
0.000135696
0.000146549
0.000141957
0.000147845
0.000142645
0.00926289
0.000141297
0.000148054
0.000163403
0.000148307
0.00016088
0.0001475
0.000124321
0.000147155
0.000185651
0.0001492
0.000188735
0.000135952
0.000162452
0.000137032
0.0262664
0.000161871
0.000151805
0.000136937
0.00013901
0.000151551
0.00016765
0.000150289
0.00470961
0.000146978
0.00016058
0.000174299
0.000175957
0.000154886
0.000149221
0.000148563
0.000148805
0.000160082
0.00013882
0.000174845
0.000139526
0.000143837
0.00013965
0.000151384
0.000178511
0.000146895
0.000147022
0.00081623
0.000143441
0.000154932
0.000160117
0.000141723
0.000141944
0.000141243
0.000150259
0.000162107
0.000152049
0.000136711
0.000143397
0.000142167
0.000142335
0.000149671
0.000141924
0.000154886
0.000142178
0.000162514
0.000136633
0.000175754
0.000155174
0.0268416
0.000148784
0.000142608
0.000139964
0.0368873
0.000175993
0.000142823
0.000142773
0.000143958
0.00016777
0.00909223
0.000125113
0.000148709
0.000160905
0.000153098
0.000139916
0.000139924
0.000160525
0.000146804
0.000144938
0.000162153
0.000164182
0.00015763
0.000143304
0.000142902
0.000150116
0.000158371
0.000153299
0.000171106
0.000164079
0.000169593
0.000157249
0.000183545
0.000148714
0.000174048
0.000162262
0.000152074
0.00725567
0.0320251
0.000148625
0.000142749
0.000140973
0.000167952
0.000183112
0.000143306
0.0408286
0.000158672
0.000147756
0.00014506
0.000167305
0.000646812
0.0249218
0.0205463
0.000154875
0.000147709
0.00834412
0.000182754
9.13917e-05
0.0305227
0.000177876
0.000183946
0.000136044
0.000583998
0.0100471
0.000149433
0.000156742
0.000146862
0.000166031
0.00017063
0.000144929
0.000131279
0.000143196
0.000175999
0.000143624
0.000153059
0.000152476
0.000168616
0.000167342
0.000174937
0.000154998
0.000147794
0.0178616
0.000165973
0.000163199
0.0418401
0.00016794
0.000153358
0.00016064
0.000144337
0.0076475
0.00981718
0.000167425
0.000158313
0.000127314
0.0183684
0.000161344
0.000143252
0.000172277
0.000179517
0.0297699
0.000168028
0.000144821
0.000163659
0.000162853
0.0236354
0.000164663
0.000164308
0.000149226
0.00016623
0.000152666
0.0265805
0.00018599
0.000131243
0.000139504
0.000154186
0.0200644
0.000145194
0.000155181
0.000166663
0.0259209
0.000145047
0.00016594
0.000149119
0.000153008
0.000144078
0.000152361
0.000174717
0.000141543
0.000131564
0.000148842
0.000149948
0.00017778
0.000153228
0.0257754
0.000156543
0.000181116
0.000145067
0.000144795
0.000167146
0.000185061
0.000151151
0.000193878
0.0220205
0.000162322
0.000153685
0.000162346
0.000165144
0.000140684
0.000154019
0.000154224
0.00782088
0.000148768
0.000148054
0.000153345
0.000157663
0.000173396
0.00015844
0.000158143
0.00845336
0.0493269
0.000162179
0.000141388
0.015781
0.000183752
0.000143267
0.0497576
0.000142777
0.000140408
0.000141638
0.000152353
0.000143376
0.00422065
0.000139189
0.000152363
0.00840114
0.0106454
0.000174039
0.00900567
0.000148902
0.000165622
0.000153962
0.000156321
0.00654116
0.000156394
0.000178595
0.000167626
0.0286229
0.000162336
0.000161746
0.00018429
0.00014589
0.000151421
0.000142956
0.00017019
0.000142343
0.000181434
0.000131169
0.000153073
0.000161875
0.000141738
0.000166308
0.000148992
0.000160225
0.000154483
0.00924689
2.40941e-05
0.000157101
0.000140178
0.000143715
0.000179245
0.000145099
0.000169561
0.000181401
0.000135919
0.000147932
0.000142119
0.0109817
0.00014574
0.0188972
0.000169582
0.000146329
0.000146727
0.000161358
0.00015317
0.000143263
0.000158209
0.000169229
0.000156217
0.000160378
0.000136319
0.000136373
0.000164887
0.000169703
0.000164265
0.00584258
0.0332303
0.000165527
0.000166198
0.0104662
0.000148554
0.000146553
3.62489e-05
0.000145578
0.000143953
0.000157704
0.000181587
0.00014184
0.0202377
0.000142017
0.0119798
0.00018428
0.00819872
0.000189162
0.00386885
0.000149247
0.000144589
0.000154386
9.27205e-05
0.000153652
0.000161354
0.00235746
0.00964692
0.00015287
0.0001467
0.0101576
0.0166002
0.00607614
0.000138669
0.000153662
0.000790643
0.000189696
0.000147947
0.000140582
0.000160027
0.000177406
0.000161973
8.86494e-05
0.00772894
0.000142784
0.000161129
0.0168657
0.00013772
0.000143351
0.000137674
0.000157052
0.000169217
0.000157554
0.000159109
0.000141772
0.000185825
0.0140383
0.000161062
0.0076665
0.000174246
0.000147503
0.000175415
0.0128321
0.000161629
0.000145307
0.000167706
0.000149022
0.000182124
0.000157756
0.000140536
0.000171708
0.000152811
0.000157509
0.00362298
0.000174284
0.000210546
0.000165834
0.000142047
0.000169444
0.000155686
0.000178772
0.00014863
0.000157883
0.000155682
0.000167455
0.000142312
0.000142774
0.000188078
0.000153963
0.00386428
0.000196388
0.00935847
0.000169245
0.000170149
0.000161099
0.000136906
0.000147731
0.000139684
0.00873686
0.000164749
0.000164918
0.000167311
0.000173618
0.000157368
0.0187456
0.000153225
0.00366068
0.000176425
0.000146401
0.00013298
0.000164419
0.000169257
0.000150215
0.000133036
0.000208854
0.000187393
0.000153464
0.000143152
0.000181909
0.000159392
0.000136962
0.00507535
0.000178118
0.000168133
0.000144389
0.000183098
0.000135967
0.000145062
0.000185286
0.000114696
0.000178706
0.00013602
0.000135988
0.000145084
0.000144216
0.000157051
0.000143095
0.0296507
0.0197157
0.00013611
0.0242883
0.000131208
0.000165805
0.000158648
0.000167448
0.0154119
0.000172934
0.000173897
0.00993149
0.000183129
0.000131451
0.00829832
0.00110087
0.000167854
0.00014633
0.00017888
0.000165725
0.000149089
0.00015371
0.000141285
0.000158165
0.000174711
0.0185018
0.000149738
0.000146612
0.000152126
0.000153617
0.0311288
0.000162894
0.00015327
0.017571
0.000180425
0.000149399
0.000182124
0.000157771
0.00133432
0.000171324
0.000144139
0.000164582
0.000130048
0.0001708
0.000181274
0.000151525
0.000157578
0.000161341
0.0234898
0.000143568
0.0582497
0.000144938
0.000184088
0.000142915
0.000132761
0.00015955
0.000157599
0.000141724
0.000181376
0.000151699
0.000154344
0.0345413
0.000147702
0.000169413
0.000165286
0.000191786
0.000149235
0.000162597
0.000155343
0.0066708
0.000167358
0.00802708
0.010195
0.000162409
0.000160361
0.000172245
0.0121443
0.000172905
0.000161376
9.4669e-05
0.000146814
0.000138603
0.000148567
0.000149395
0.000157482
0.000136541
0.00683749
0.000136603
0.000152937
0.0126562
0.0160057
0.000142683
0.000148262
0.000142286
0.000147941
0.000144302
0.00858063
0.000148618
0.000148039
0.000144422
0.000157967
0.000141685
0.000177212
0.000153332
0.000147193
0.000160795
0.000149803
0.000147903
0.000151717
0.00017163
0.000167779
2.67207e-06
0.000196116
0.00014329
0.000152687
0.000167907
0.0290302
0.000166672
0.0001423
0.000163282
0.00016779
0.000143534
0.00022017
0.000164091
0.000157637
0.000146346
0.000183402
0.0111875
0.00015606
0.000101646
0.000183456
0.000149397
0.000149033
0.00880598
0.000137185
6.60316e-05
0.000141406
0.0196952
0.000140904
0.000147149
0.00017196
0.00706066
0.0106243
0.0112109
0.000173642
0.000143088
0.00746815
0.000163279
0.00470853
0.000145194
0.000157731
0.000147809
0.0001383
0.000152956
0.00014695
0.000167093
0.000146121
0.000146519
0.000174289
0.000145988
0.000157351
0.000142258
0.000139807
0.000148538
0.00015525
0.0587814
0.000167842
0.000147886
0.0100896
0.000148103
0.000183584
0.00827317
0.000157023
0.000145654
0.000148049
0.000206722
0.000160691
0.000155895
0.0160656
0.000182433
0.00015191
0.0523314
0.000142249
0.000166875
0.000154305
0.000203814
0.000158007
0.000136112
0.000173034
0.000144484
0.000160569
0.000161645
0.000173626
0.000182501
0.000153477
0.000148889
0.000158664
0.000154359
5.62568e-05
0.00015755
0.0144626
0.000141264
0.000172508
0.000131948
0.00229104
0.000157169
0.00017309
0.000143305
0.049492
0.000142688
0.000161536
0.0257522
0.000158499
0.000139366
0.0223434
0.000182583
0.000142469
0.000146392
0.000176958
0.00654915
0.00141595
0.000143269
0.00497519
0.000149637
0.000170611
0.000153057
0.0312487
0.000136183
0.00014884
0.000145437
0.000154251
0.000163654
0.000140057
0.0264944
0.00015234
0.000149129
0.00014964
0.00014859
0.00013252
0.0107823
0.000152181
0.000163512
0.000151167
0.000139316
0.000150767
0.0103268
0.000179292
9.02534e-05
0.000140195
0.000152142
0.000144529
0.000153017
0.000150847
0.000180277
0.000132371
0.000146022
0.0111698
0.000205555
0.000138544
0.000144999
0.000139761
0.0102044
0.000128597
0.000147235
0.0284278
0.000152036
0.000147362
0.000174307
0.000149603
0.000146532
0.0108262
0.000201613
0.000158512
0.000164029
0.000158568
0.000155621
0.000173112
0.0058116
0.000144095
0.000174518
0.000187368
0.000178838
0.0001781
0.00502443
0.0103066
0.000142578
0.000157801
0.000170816
0.000164444
0.000145817
0.000132119
0.000167774
0.0251995
0.000148449
0.000153196
0.000169964
0.0313981
0.000142887
0.000171376
0.000160291
0.000167369
0.000175018
0.000145207
0.00881252
0.000203893
0.000142708
0.00015534
0.000139918
0.0341518
0.00226802
0.0192302
0.000160819
0.000169029
0.0105246
0.000136618
0.000142784
0.000175648
0.00186515
0.000152525
0.000136441
0.000145317
0.000136837
0.000141802
0.000140644
0.00980469
0.000135602
0.000151315
0.0093635
0.000147341
0.000182537
0.000138724
0.000156778
0.000145378
0.000135642
0.000293529
0.00888518
0.000148605
0.000144354
0.000144791
0.000202803
0.000142739
0.000141881
0.0001609
0.000131396
0.00946462
0.000136899
0.00016712
0.000142434
0.000140271
0.000170226
2.34735e-05
0.000498355
0.000180897
0.000139864
0.00014326
0.000140023
4.43921e-05
0.000145595
0.000169834
0.000151142
0.000142069
0.00562915
0.000148138
0.000157685
0.00639374
0.000161418
0.000140257
0.000166294
0.000173965
0.00564365
0.000152633
0.000162497
0.000154104
0.000427952
0.000164353
0.000152809
0.000173374
0.000156744
0.000157889
0.000158202
0.000153137
1.80953e-05
0.000182957
0.000188831
0.000154086
0.000147859
0.030578
0.000173647
0.000157039
0.00622889
0.000178575
0.000155197
0.000136844
0.000166954
0.000158498
0.000207697
0.000145133
0.000139755
0.000158237
0.000143759
0.000179513
0.000166993
0.000153154
0.000148879
0.00619105
0.000148619
0.0107603
0.000145725
0.000159544
0.000140007
0.000149839
0.000171381
0.000151791
0.00016749
0.00015581
0.000175576
0.0532346
0.000156108
0.000156614
0.000154789
0.000167192
0.01005
0.000148397
0.000170194
0.000142937
0.000145553
0.000125342
0.017833
0.000168905
0.000180698
0.00014109
0.0140629
0.0436819
0.000140754
0.000177214
0.000142333
0.0155559
2.34575e-05
0.000142483
0.000143822
0.000154413
0.00016921
0.0337257
0.000149234
0.000155725
0.000143969
0.000163826
0.000168724
2.12587e-05
0.000185839
0.000157072
0.011442
0.000149502
0.0550626
0.000141082
0.000179817
0.000150931
0.00014373
0.000171785
0.000153965
0.000234368
0.000140054
0.000149939
0.000166413
0.000139667
0.000139413
0.000576209
0.000156049
0.00014201
0.000139473
0.00015386
0.000143259
0.000171236
0.000144294
0.000183101
0.000141317
0.000141814
0.000140214
0.000168416
0.000166793
0.000144347
0.000189045
0.000207378
0.000155891
0.0502806
0.000146903
0.00018137
0.00015347
0.00014266
0.000152968
0.00015582
0.000188784
5.0071e-05
0.0351419
0.023409
0.0478217
0.000157843
0.00017177
0.000149832
0.0449759
0.0202366
0.000142096
0.000148368
0.0230084
0.000156779
0.000135139
0.0256184
0.000170651
0.000198378
0.000143236
0.000153925
4.68912e-05
0.000171041
0.000146234
0.000112608
0.000139502
0.000144615
0.000159073
0.000147949
0.000166152
0.00013678
0.000140033
0.00874014
0.000157432
0.000131415
0.000149688
0.000156506
0.000156483
0.000137203
0.000154842
0.0206423
0.000183975
0.000181768
0.000143809
0.000149957
0.000144942
0.00118481
0.000143928
0.000144135
0.000159693
0.000151524
0.00016348
0.0166341
0.000147733
0.000143814
0.00015645
0.000131528
0.00020369
0.00015276
0.000160936
0.000156673
7.00157e-05
0.000152594
0.000170835
0.000114172
0.000140104
0.000158885
0.000170885
0.000183138
0.000172596
0.00014089
0.000189613
0.000158012
0.000155243
0.000154771
0.000149357
0.00016479
0.000187568
0.00017458
0.0085806
0.000160768
0.000139895
0.0105802
0.00014438
0.000149582
0.000140999
0.000176551
0.000154903
0.000141189
0.000153202
0.000141846
0.00790858
4.8088e-05
0.000144901
0.000121086
0.000160457
0.000138313
0.000141136
0.000176774
0.000171215
0.000158477
0.000140897
0.000149345
0.000158914
0.0176128
0.000170504
0.000192554
0.000166903
0.000159925
0.00429016
0.000152175
0.00014398
0.000163882
0.000143107
0.000154468
0.000149431
0.000151718
0.000156378
0.000153127
0.000109264
0.000155581
0.0106388
0.000185244
0.0314741
0.000149287
0.000179564
0.000154477
0.000153227
0.000182877
0.0108349
0.0107242
0.000153477
0.000152556
0.000181356
0.000163233
0.00017339
0.00014291
0.000146884
0.000144941
0.00015136
0.000153831
0.000148345
0.0187695
0.0124989
0.00017349
0.000155269
0.00014883
0.000172257
0.000142427
0.000142968
0.00016372
0.000113778
0.0320417
0.000152645
0.0202049
0.000167244
0.000146578
0.022242
0.000183073
0.000166829
0.000153227
0.000175398
0.000138951
0.000147717
0.000177174
0.000143693
0.000138912
0.0103617
0.000178888
0.000146471
0.000151401
0.000128287
0.000127085
0.00014951
0.000146985
0.000461719
0.000135535
0.00014087
0.000163187
0.000143183
0.00820489
0.000157278
0.000134964
0.00926973
0.0220692
0.000158648
0.000149537
0.00016696
0.000164574
0.000168317
0.00573043
0.00014502
0.000144097
0.000141507
0.000185839
0.000151038
0.00922795
0.000198804
0.000138387
0.000146424
0.000182594
0.00014021
0.000138477
0.0187216
0.000135379
0.000157258
0.000154847
0.00767216
0.000139027
0.00577678
0.00014074
0.000141107
0.000143151
0.0209964
0.000181493
0.000144731
0.000141229
0.0090552
0.000174935
0.000146559
0.000171349
0.000102448
0.000158257
0.00089077
0.000155552
0.000143612
0.000138441
0.0126441
0.000153114
0.000138706
0.000142318
0.000148382
0.000137249
0.000143794
0.000152091
0.000148398
0.000150687
0.000157584
0.000153038
0.000167543
0.0001463
0.000158165
0.000163605
0.000165255
0.000157861
0.000148893
0.000148103
0.000157599
0.0177816
0.000141681
0.000171232
0.0220698
0.000170547
0.000104283
0.000134375
0.00921139
0.000149099
0.000156877
0.00016635
0.000192731
0.000147724
0.000168288
0.000147385
0.00016621
0.000158394
0.000173535
0.000526333
0.0199845
0.000174095
0.000171614
0.000138673
0.000142074
0.000151264
0.000153337
0.000194755
0.000153226
0.043828
0.000150249
0.0123136
0.000143568
0.00014041
0.000168953
0.000162475
0.000146755
0.000141125
0.000151352
0.000143021
0.000144078
0.000209052
0.000137467
0.000156713
0.000145428
0.000148636
0.0198154
0.000134603
0.000166056
0.000142141
0.00431105
0.000151524
0.000144681
0.000151575
0.000141829
0.000147449
0.000182085
0.000141084
0.000148939
0.000150361
0.000142567
0.000185257
0.000138827
0.0109391
0.00979074
0.00014762
0.000143395
0.000144487
0.000155173
0.000158814
0.000163535
0.0001338
0.000138205
0.000156602
0.0170577
0.000149558
0.0084968
0.000148502
0.000145653
0.0248024
7.0538e-05
0.000156907
0.000131244
0.00956768
0.00017088
0.000161055
0.0106311
0.000154513
0.000140793
0.00825485
0.00017352
0.00014002
0.000146249
0.0101542
0.000146643
0.000140937
0.000174217
0.00318874
0.000175922
0.000160225
0.000149631
0.000135716
0.000153244
0.000146616
0.000154972
0.000171961
0.000170572
0.000149469
0.000172837
0.000162781
0.000149436
0.000207816
0.000149055
0.00228021
0.000160772
0.0213651
0.00019459
0.00953387
0.000144398
0.000154968
0.000165258
0.000152928
0.000141184
0.000143907
0.0110701
0.000176212
0.000174941
0.000146575
0.000148609
0.000180482
0.00787973
0.000158827
0.000155848
0.00014886
0.000151497
0.00955472
0.00018473
0.000144812
0.00743103
0.0126902
0.000148317
0.00014623
0.000170204
0.000138794
0.000136044
0.000118568
0.000165049
0.0448407
0.000137382
0.000141612
0.000152697
0.00014228
0.00013729
0.000144629
0.000167558
0.000207288
0.000163874
0.000105092
0.000140772
0.00279038
0.000741344
0.000177007
6.80928e-06
8.01276e-05
0.000142157
0.000153908
0.000212174
0.00013211
0.000165344
0.000157753
0.000146399
0.000163641
0.00013935
0.000142021
0.000139998
0.000154122
0.00014668
0.000190221
0.000165177
0.000137808
0.0127569
0.000144661
0.000154868
6.51615e-05
0.000158629
0.000139677
0.000192227
8.51156e-05
0.000140696
0.00165622
1.05334e-05
6.40372e-05
0.000188148
0.000151606
0.000172317
0.000171871
0.000195714
0.000178991
0.000155712
0.000185901
0.000159242
0.000143774
0.000147433
0.000168556
0.000165688
0.000149522
0.00013975
0.000138436
0.000158202
0.000157399
0.000170619
0.000152387
0.000138403
0.000167165
0.000155593
0.000146141
0.000177479
0.00019291
0.000159897
0.000166615
0.000153594
0.000152054
0.000153985
0.000153491
0.000152213
0.000143818
0.000201826
0.000142438
0.000160428
0.000160197
0.0058264
0.000176421
0.0281224
0.000137635
0.000183633
0.000158864
0.000144946
0.000187281
0.00014085
4.57353e-05
0.000140072
0.000166571
0.000148312
0.000143479
0.000148687
0.000166539
0.000153253
0.0145404
0.000146457
0.000172428
0.000134063
0.000157696
0.0107228
0.000200725
0.019198
0.000152192
0.000183924
0.000189156
0.000143709
0.000159316
0.00015435
0.000149415
0.000152886
0.0297163
0.000183433
0.023097
0.000160777
0.000156027
0.000169961
0.000176694
0.000148575
0.00013673
0.000162496
0.000164121
0.000143024
0.000167015
0.000146101
0.000144345
0.000168441
0.000157422
0.0586321
0.00019028
0.00817029
0.000148127
0.00014615
0.000173249
0.000144775
0.000147943
0.000186364
0.000148957
0.000186995
0.000147449
0.000186012
0.000142587
0.000146802
0.000142206
0.000148455
0.000162065
0.00013979
0.00108882
0.00014009
0.000168687
0.000138047
0.000161098
0.00106264
0.000182975
0.000175739
0.000176281
0.000492785
5.78413e-05
7.31195e-05
0.0347181
0.000184712
0.000181207
0.000151421
0.000146315
0.000147909
0.000147877
0.000179136
0.000150206
0.00984226
0.000153468
0.000161203
0.000164609
0.000153659
0.000143367
0.000137811
0.00014246
0.00700112
0.000174939
0.000165316
0.000163534
0.000148742
0.000158489
0.000182076
0.000183772
0.000144723
0.000141509
0.000131114
0.0001615
0.00020444
0.000143518
0.00018196
0.000151928
0.000164898
0.0312462
0.00016058
0.00018728
0.00018364
0.00016408
0.00146032
0.000143498
1.93815e-05
0.000186005
0.0107842
0.000147758
0.000142883
0.000146967
0.00707113
0.000132474
0.00197637
0.0001717
0.000153316
0.000166081
0.000163526
0.0115997
0.000146711
0.000148428
0.000153
0.00016717
0.000146909
0.000144654
0.0188248
0.000180339
7.02535e-05
0.00016562
0.000147039
0.000154208
9.42977e-05
0.00417037
0.000146487
0.00014936
0.000199025
0.00723723
0.000141539
0.000146626
0.000148497
0.000145199
0.000143503
0.000154427
0.000153379
0.000199032
0.00014818
0.000147056
0.000179109
0.0591981
0.000146917
0.000144958
0.00770769
0.00916123
0.00014936
0.000141872
8.54427e-05
0.000164724
0.000150764
0.000143425
0.000175374
0.000144697
0.000171917
0.000150488
0.000161115
0.000180574
0.0147849
0.000130038
0.000147066
0.000140172
0.000134666
0.000183011
0.000138501
0.000151681
0.000139954
0.000166184
0.000166185
0.0109594
0.0110676
0.000164991
0.000152668
0.00014219
0.00011885
0.000138452
6.25658e-05
0.000174084
0.000138127
0.000147296
0.000143234
0.000159542
0.000169157
0.000140756
0.000184913
0.000122758
0.000178339
0.000154297
0.000151881
0.000147395
0.000167501
0.00017068
0.000158506
0.000138945
0.000147678
0.00016309
0.000139612
8.82076e-05
0.00014075
0.0103932
0.000144296
0.000183634
0.00015816
0.00015433
0.0259778
0.000154318
0.000148061
0.000173502
0.000152698
0.000108934
0.010663
0.00489357
0.000153368
0.00859436
0.000142115
0.000158061
0.0105327
1.69481e-05
0.0208301
0.000142781
0.00016816
0.000149549
0.000141454
0.000143156
0.000151118
0.000163166
0.000158538
0.0594913
0.000169687
0.000201661
0.000182132
0.000173289
0.000143388
0.00015721
0.000172574
0.00212688
0.000153376
0.000135321
0.00015614
0.000137463
0.000164401
0.000138861
0.000138437
0.000149086
0.000196282
0.000142453
0.000158437
0.000146935
0.000134649
0.000150623
0.000179909
0.000160188
0.000153273
0.00741857
0.000174303
0.000154209
0.00015147
0.000164481
0.00146951
0.000137258
0.000157385
0.000160044
0.000107323
0.000140831
0.000164166
0.000147454
0.00015836
0.00862801
0.000150471
0.000160766
0.000175971
0.000147244
0.00302274
0.000154806
0.00977543
0.00017786
0.000153653
0.00017883
0.00740163
0.000170539
0.000153171
0.000154749
0.00014763
0.000142782
0.000146172
0.000172735
0.000148805
0.000139454
0.000141331
0.000138304
0.000139928
0.00446662
0.000163898
0.000160773
0.000155079
0.000175122
0.000162577
0.00381514
0.000137543
0.000168657
0.0171192
0.000160187
0.000161041
0.0261028
0.000148974
0.000146456
0.000144822
0.000146121
0.000167901
0.00589537
0.000144722
0.000152034
0.000156466
0.000159609
0.000155599
0.000157622
0.00016621
0.00894005
0.000172233
0.000146019
0.0409928
0.000145357
0.000147321
0.000137467
0.000148232
0.000147585
0.000184525
0.000138964
0.000146515
0.000154912
0.000137345
0.000169008
0.000145805
0.00613622
0.00149955
0.0237935
0.000183729
0.000158984
0.000173915
0.0126489
0.000152832
0.000166237
0.00014871
0.000173671
0.0207515
0.000149814
0.000181472
0.000158007
0.000166293
0.000137342
0.000143165
0.000161402
0.000183331
0.00015463
0.000175316
0.000155401
0.00142714
0.0001474
0.00621116
0.000131766
0.0087028
0.000159965
0.000137817
0.000147888
0.000167392
0.0333685
0.0106343
0.0001543
0.0187835
0.00015259
0.000176521
0.0244182
0.000156115
0.000156706
0.000137084
0.000160769
0.0458536
0.0218045
0.000142913
0.0102223
0.000161245
0.0216957
0.00016787
0.000145047
0.0183618
0.000149249
0.000153531
0.000147976
0.000142662
0.000146155
0.000172227
0.000147204
0.000152536
0.000143849
0.000173483
0.000154057
0.000195568
0.000151132
0.00014961
0.000138228
0.000183731
0.000159876
0.00825034
0.000150295
0.000137609
0.000193115
0.000151197
0.000150739
0.000146327
0.000163235
0.000143803
0.000158423
0.000143388
0.022762
0.000142979
0.000178749
5.16105e-05
0.00406561
0.000150261
0.000138141
0.000149757
0.0457076
0.000148726
0.00015724
0.0358092
0.000138174
0.000153153
0.000141821
0.0164812
0.000149917
0.0102323
0.000156119
0.00015445
0.000160016
0.000140531
0.0363234
0.000171128
0.0375453
0.00225805
0.0111571
0.0314615
0.000155016
0.000147902
0.00016011
0.0040673
0.000168746
0.0196533
0.000165731
0.0109494
0.000154754
0.000147545
0.0185071
0.000175939
0.021994
0.000150046
0.000163627
0.010939
0.000146942
0.000152071
0.000148136
0.000162471
0.000172264
0.000139936
0.000150267
0.000174606
0.0126133
0.000150158
0.000172786
0.0146717
0.000170607
0.000146457
0.000184066
0.0193099
0.000144766
0.000171326
0.000155866
0.000180012
0.000187971
0.000146494
0.000157481
0.000155644
0.000159795
0.00014742
0.000146515
0.000150806
0.000146489
0.0352483
0.000143154
0.0111015
0.000142225
0.000103935
0.000157258
0.0111512
0.000153394
0.000145747
0.000169514
0.000121106
0.000181078
0.0210868
0.000184504
0.000202606
0.000160694
0.000173839
0.000138647
0.000150366
0.00802742
0.0100726
0.000140817
0.000157453
0.000135094
0.0234105
0.000173033
0.000137168
0.000143297
0.000169825
0.00014156
0.000148594
0.00013742
0.00014042
0.000164782
0.000147776
0.000165547
0.0001763
0.000152568
0.000166353
0.000161068
0.000145636
0.00475525
0.00700889
0.000148359
0.000137415
0.000149998
0.000136351
0.000152688
0.0391368
0.000146459
0.000144015
0.0145407
0.000140047
0.000136017
0.000147223
0.000150967
0.00923088
0.00036055
0.000140008
0.000132856
0.000154592
0.00015105
0.000170991
0.000147204
0.005596
0.000143824
0.000147113
0.0116485
0.000160489
0.000147608
0.000132963
0.000157996
0.000133128
0.00150442
0.000185571
0.000147075
0.000146921
0.00757066
0.000494282
0.0233381
0.000151047
0.000146263
0.000165674
0.000178719
0.000143044
0.000205566
0.000133329
0.000150864
0.00015533
0.00014975
6.00181e-05
0.000155304
0.0221357
0.000177598
0.000511079
0.000162714
0.000151682
0.0570008
0.000157921
0.000175042
0.0001582
0.000147603
0.000144604
0.000169758
0.0294872
0.000158393
0.000150973
0.000179832
0.000146171
0.000146199
0.000146085
0.000151675
0.0411882
0.00484872
0.000182087
0.000145806
0.000143417
0.0122558
0.000149242
0.000169828
0.000145956
0.000185988
0.000156456
0.0370708
0.000179557
0.00779192
0.000154251
0.00016331
0.000162002
0.00015203
0.00014771
0.041458
0.00243715
0.000168875
0.000180186
0.000142614
0.000138991
4.1675e-05
0.000140161
0.0308426
5.67876e-05
0.000173202
0.0115368
0.000157783
0.000293473
0.000143617
0.00013814
0.0158876
0.000150276
0.000144929
9.10367e-05
6.36386e-05
0.000144849
0.000150664
0.000156802
2.83424e-05
0.000151737
0.000146168
0.000166261
0.000146331
0.000185452
0.000156998
0.000162604
0.000158746
0.000145862
0.000161574
8.04163e-05
0.000178326
0.000153561
0.000162789
0.0358031
0.000147857
0.000148745
0.000146933
0.000133496
0.0078706
0.0218306
0.000152556
0.019476
0.0115155
0.000154487
0.0001665
0.000149228
0.000184653
0.000148534
0.000159478
0.00999282
0.0232955
0.0328122
0.0372563
0.00015456
0.000137243
0.000148943
0.000145943
0.0121781
0.00013569
0.00250449
0.00102697
0.000148183
0.000142841
0.000161503
0.000152873
0.0117436
0.000142912
0.000147132
0.000157668
0.0544145
0.000135354
0.000144717
0.000161051
0.000138408
0.000160037
0.000172788
0.000181094
0.000138533
0.000147156
0.000142614
0.0103169
0.000138003
0.000152362
0.00015211
0.000172235
0.0440564
0.000142606
0.000136699
0.000155059
0.000167633
0.000211534
0.0001664
0.000153378
0.000145658
0.000146672
0.000137141
0.000151339
0.000182881
0.00741138
0.000137922
0.0395701
0.0032296
0.000191561
0.000167404
0.00402092
0.000187182
0.00514129
0.000157203
0.0001426
0.000177517
0.000150714
0.000156782
0.00415002
0.0106459
0.00014134
0.000170705
0.000156682
0.000138209
0.000174483
0.000152775
0.000152462
0.000178579
0.00017664
0.00014437
0.00973239
0.000175752
0.00015099
0.000146791
6.05571e-06
0.000145778
0.00257665
0.000185871
0.000146516
0.000151087
0.000179297
0.000190869
0.000142525
0.000149959
0.000143342
0.000180633
0.000165015
0.000152468
0.0116786
0.000178933
0.000148177
0.000190134
0.0109104
0.000160157
0.000153066
0.000145935
0.000161152
0.000105557
0.000155903
0.0148604
0.00448755
0.000168661
0.000161806
0.000188148
0.000178002
9.04936e-05
0.000142325
0.00017605
0.0222737
0.000151473
0.0144019
0.00865111
0.000116393
0.000181706
0.000328476
0.000165249
0.000162272
0.000185827
0.000343714
0.000164963
0.00014589
0.000157958
0.000133541
0.000199128
0.000153828
0.000140006
0.0527174
0.000161185
0.00258063
0.000181726
0.000150894
0.00062512
0.00912473
0.010574
0.000146344
0.000151938
0.000156269
0.00857961
0.00196336
0.000102766
0.000148593
0.000175375
0.000174824
0.000557805
0.000148997
0.0118764
0.00014763
0.00201299
0.00017209
0.0591602
0.000156981
0.000146771
0.000155796
0.000144785
0.000147486
0.000150253
0.000145829
0.000142106
0.000183894
0.000186972
0.000151472
0.000167895
0.000151263
0.000184606
4.71415e-05
0.000160396
0.000154706
0.01041
0.000145666
0.000155314
0.000144193
0.000185186
0.000175767
0.0112416
0.000143271
0.00150968
0.00918507
0.000174556
0.000146176
0.000140524
0.00014907
0.000160279
0.000147294
0.000179873
0.000181355
0.000139537
0.00820393
0.000141163
0.0125771
0.000155628
0.000189982
0.0111497
0.00015265
0.000147533
0.00356885
0.000144636
0.000137644
0.000155682
0.000145082
0.00017574
0.000151343
0.000177342
0.000147424
0.000186252
0.010858
0.00016307
0.000145751
0.000143195
0.000182229
0.000434666
0.000154756
0.000156673
0.000147259
0.000179097
0.000154766
0.011306
0.011725
0.00018445
0.000162896
0.000175466
0.000167288
0.000156897
0.0102669
0.000180866
0.000137088
0.0358613
2.90226e-05
0.000164517
0.000144216
0.000176901
0.000156285
0.000168364
0.0185548
0.000185355
0.000151091
0.000144781
0.0112477
0.00854597
0.000158479
0.000174264
0.000158186
0.0109751
0.0174621
0.000143469
0.0112566
0.000162152
0.00015788
0.000154674
0.00113705
0.0126291
0.000145424
0.0514369
0.000148657
0.000195628
0.0167475
0.000157745
0.000162615
0.000164817
0.000144012
0.000142298
0.00816398
0.00229616
0.000148875
0.00017598
0.000170099
0.000162229
0.000150098
0.000177424
0.000151504
0.0119224
0.000183283
0.000141925
0.000156985
0.000142826
0.000154968
0.000137444
0.00017946
0.00015391
0.0073564
0.000183612
0.000166584
0.000165872
0.000135989
0.000181536
0.000183631
0.000136391
0.000152083
0.000174694
0.000157416
0.000138249
0.000141327
0.000146951
0.000148223
0.000170076
0.000140838
0.000147668
0.000186023
0.000143472
0.000181696
0.000170891
0.000261456
0.00401955
0.000184835
0.000167089
0.0085689
0.0106691
0.00718686
0.000186529
0.00016225
0.00633902
0.000176979
0.000151553
0.000147398
0.000142459
0.000146847
0.000160059
0.000149831
0.000104807
0.000150732
0.000168305
0.000161913
0.0278066
0.000169391
0.000167284
0.0113491
0.000178846
0.000148734
0.000185315
0.0072194
0.000165869
0.000180246
0.000160568
0.000183833
0.000151323
0.000164758
0.00013823
0.000164423
0.000188952
0.00018503
0.000178161
0.000173471
0.000151383
0.000160947
0.000152277
0.000172884
0.000185524
0.000166227
4.09912e-05
0.0105742
0.000143604
0.000178289
0.000166353
0.000170593
0.000131537
0.000146347
0.000173
0.0130285
0.000183831
0.000173005
0.000144973
0.000180733
0.000141607
0.000168335
0.000178914
0.0101063
0.00814903
0.000149002
5.00224e-05
0.0310547
0.000172556
0.000140175
0.000178706
0.00016637
0.000151928
0.000157126
0.000393077
0.000142776
0.000160274
0.0109261
0.000143709
0.000151252
0.000154776
0.0329235
0.0001408
0.000205843
0.000185902
0.000151889
0.000147828