/*--------------------------------*- C++ -*----------------------------------*\
| =========                 |                                                 |
| \\      /  F ield         | OpenFOAM: The Open Source CFD Toolbox           |
|  \\    /   O peration     | Version:  v2012                                 |
|   \\  /    A nd           | Website:  www.openfoam.com                      |
|    \\/     M anipulation  |                                                 |
\*---------------------------------------------------------------------------*/
FoamFile
{
    version     2.0;
    format      ascii;
    class       volScalarField;
    location    "400";
    object      nut;
}
// * * * * * * * * * * * * * * * * * * * * * * * * * * * * * * * * * * * * * //

dimensions      [0 2 -1 0 0 0 0];


internalField   nonuniform List<scalar> 
14315
(
0.00606231
0.000811424
0.00679348
0.00418782
0.00406947
0.00674483
0.00679265
0.00677154
0.00229479
0.00670625
0.00675872
0.00592856
0.000765455
0.00678799
0.00678895
0.00683942
0.00672928
0.00210985
0.00678342
0.00683931
0.00153919
0.00683774
0.00684376
0.00675387
0.000171335
0.00680306
0.000809604
0.00669722
0.00114197
0.00671218
0.00186823
0.00673256
0.0132338
0.00602165
0.00677127
0.00673123
0.00674092
0.00561187
0.00696841
0.00459217
0.00190677
0.00681445
0.0040752
0.00129916
0.00148371
0.00437721
0.00680952
0.00672214
0.00683633
0.00283966
0.00673743
0.00117771
0.00680499
0.00682786
0.00680529
0.00579496
0.00306942
0.00677592
0.00680084
0.000668449
0.00682532
0.00329269
0.00228113
0.00681907
0.00673135
0.00673533
0.00678029
0.00193995
0.00583368
0.00672514
0.00682463
0.00682063
0.00682187
0.00682598
0.00673763
0.00664494
0.0068201
0.00191952
0.00672416
0.00116035
0.00647559
0.0210621
0.00683675
0.00681737
0.00680968
0.00820198
0.00156352
0.00682289
0.00682268
0.00682164
0.00161799
0.00183244
0.000619715
0.0067467
0.00654986
0.00653795
0.00681025
0.00680143
0.00663698
0.00681024
0.00675195
0.00680585
0.00689254
0.00317177
0.00681944
0.00674825
0.00522869
0.00243978
0.00530048
0.00130077
0.00266434
0.00153769
0.00650409
0.000884156
0.00683465
0.00111147
0.00319453
0.00675942
0.00277771
0.026627
0.00671793
0.00673082
0.00677644
0.00224106
0.000993114
0.0067687
0.0188107
0.00584838
0.00683671
0.00675384
0.00174857
0.000635871
0.0155878
0.0316624
0.00664753
0.00683691
0.00152251
0.000883107
0.000382504
0.0140368
0.00115905
0.00109223
0.00671374
0.000746371
0.0049125
0.00682936
0.00653462
0.00677617
0.00147194
0.00145246
0.00675286
0.00669306
0.00681061
0.00714405
0.00677067
0.00443425
0.00411839
0.00704325
0.00314095
0.00110842
0.00304108
0.00681427
0.0138982
0.00160932
0.00683629
0.00948837
0.0069866
0.00331472
0.00672306
0.00674301
0.00292878
0.00186853
0.00280714
0.00301834
0.000475886
0.0126564
0.00601791
0.00676813
0.00121271
0.00107985
0.0152817
0.00163024
0.00675122
0.00293799
0.00155346
0.0184982
0.00267343
0.00247809
0.00681494
0.00164172
0.00674549
0.0159552
0.000718792
0.00669424
0.00680626
0.0049994
0.0320078
0.00675386
0.00282824
0.00163098
0.0152073
0.00674747
0.00684482
0.00683224
0.00465482
0.00678685
0.00675509
0.00130059
0.00679784
0.00669824
0.00682181
0.00682279
0.00111497
0.00349624
0.0122279
0.00307338
0.00173897
0.00675289
0.00675176
0.00678798
0.00133049
0.0064526
0.000963762
0.0143089
0.00221391
0.00342846
0.00301475
0.00164919
0.00676821
0.00320601
0.00463881
0.00313378
0.00681747
0.00872045
0.00409008
0.00303564
0.00142836
0.00262281
0.00507511
0.00177534
0.0107423
0.00166112
0.00673775
0.0115867
0.00119625
0.00683375
0.0124208
0.00677106
0.00676261
0.00670744
0.00464307
0.00682437
0.000239307
0.00674604
0.00675749
0.00308322
0.00358444
0.00168478
0.00364154
0.00683443
0.00578788
0.00364094
0.00262247
0.000621237
0.00252889
0.00101301
0.00292725
0.0167822
0.00182598
0.00208801
0.00339583
0.00674209
0.00654288
0.00680704
0.00683153
0.00678148
0.000939225
0.00669083
0.00371291
0.00186061
0.00673553
0.00176697
0.00683516
0.00215313
0.00310949
0.00305459
2.33078e-05
0.00296064
0.00681332
0.00682467
0.000783732
0.00674775
0.00692135
0.00124411
0.00671293
0.00681501
0.0067963
0.00277489
0.00677599
0.0294533
0.00158361
0.00678455
0.00679265
0.00272123
0.00313241
0.00680785
0.00337965
0.00166413
0.00291523
0.00192623
0.00674597
0.00674595
0.00174651
0.00145046
0.00376708
0.00201998
0.0287213
0.00580314
0.00679201
0.00302189
0.0055672
0.00680286
0.000955229
0.00677294
0.00682189
0.00261456
0.0011612
0.00672977
0.0311314
0.00679859
0.00369742
0.00126199
0.00113503
0.000634761
0.00179556
0.00665696
0.00972456
0.00290514
0.000332737
0.00520333
0.00201475
0.00125229
0.00199563
0.00669207
0.00665165
0.00269266
0.0126977
0.00226313
0.00673322
0.00446479
0.000561751
0.000805561
0.00670378
0.00681366
0.00234074
0.00130004
0.00199484
0.000273778
0.00314469
0.0067749
0.00209535
0.0134768
0.00676703
0.00681875
0.00676689
0.00285402
0.00156152
0.00564225
0.00442894
0.00672725
0.000895631
0.00312596
0.00207987
0.00252006
0.00698568
0.00683689
0.00487942
0.00479719
0.00194908
0.0068042
0.00246957
0.00683444
0.000970364
0.00634506
0.00681146
0.00134972
0.0113775
0.00286108
0.00187807
0.00129066
0.000825199
0.00275287
0.00682016
0.00693603
0.00660108
0.00710114
0.00658498
0.00308456
0.00660323
0.00559775
0.0068213
0.00674613
0.00295557
0.00414439
0.00183877
0.000837968
0.00275091
0.0017589
0.00138175
0.00234852
0.00674457
0.00683815
0.00672022
0.00207581
0.00171731
0.00261047
0.00231135
0.00142754
0.00354678
0.0266824
0.00937533
0.00160732
0.00113462
0.00678711
0.00674154
0.00192837
0.00147388
0.00681889
0.0149698
0.000817246
0.00135198
0.00666344
0.00676255
0.00104652
0.00622382
0.00674459
0.00198663
0.0012
0.00148566
0.00674277
0.000871402
0.00671676
0.00674867
0.00135858
0.000345595
0.000976136
0.00671694
0.00671953
0.00662709
0.00678275
0.00643947
0.00676219
0.0249532
0.0301147
0.00672222
0.00673354
0.00669223
0.00586476
0.00217303
0.00403516
0.022357
0.00703434
0.00147277
0.00378291
0.0010165
0.00669495
0.00125169
0.000755975
0.00555683
0.00678244
0.00115009
0.00233697
0.00683088
0.00377845
0.00674291
0.00249444
0.00136917
0.028217
0.00597164
0.00677629
0.00762647
0.00653947
0.0267903
0.00419408
0.00263818
0.0245435
0.000985671
0.00683027
0.00101126
0.00236272
0.000828937
0.00667078
0.00678706
0.00368167
0.000404066
0.00146256
0.00118911
0.00678673
0.00299978
0.00640609
0.0061442
0.00682279
0.01934
0.00664398
0.00203878
0.00682401
0.00673679
0.00674377
0.00258607
0.00681853
0.00121461
0.00627705
0.00371956
0.0326703
0.00682854
0.00157395
0.00231123
0.00272199
0.00676814
0.00704111
0.00683786
0.0275582
0.00718915
0.00116836
0.00327741
0.00587357
0.0019797
0.00149254
0.00370904
0.00621397
0.00299801
0.0149474
0.00680925
0.00672903
0.00682735
0.00683033
0.00259449
0.00675426
0.000432256
0.00675452
0.00651831
0.00385273
0.012475
0.00681664
0.00683312
0.00681756
0.00664289
0.00674008
0.00288548
0.00682699
0.00682546
0.0067882
0.00646252
0.00672602
0.0010892
0.00621741
0.00683341
0.00207695
0.00682523
0.00683533
0.00353341
0.00522405
0.00162178
5.25468e-06
0.000964658
0.00673131
0.00471268
0.0059035
0.0192687
0.00568763
0.00675177
0.00176209
0.00518735
0.00677465
0.00219833
0.00550636
0.00591338
0.00678145
0.00124665
0.00332494
0.00483549
0.0005318
0.00350297
0.00677515
0.00664971
0.00157971
0.00678058
0.00438681
0.00672055
0.0312003
0.00681056
0.00683942
0.00168798
0.00659013
0.00361821
0.00518139
0.00700979
0.00677448
0.00281311
0.0021104
0.00182875
0.00675527
0.00641323
0.0067373
0.00680147
0.00625513
0.00683028
0.0056329
0.0067797
0.00669957
0.00107959
0.00669856
0.00296779
0.00681768
0.00665497
0.00522637
0.00652725
0.0197478
0.00386143
0.00681788
0.00389481
0.0068242
0.00127411
0.000405121
0.00644698
0.00679817
0.00681859
0.000990242
0.00232296
0.00655907
0.0126759
0.000952239
0.00320647
0.0128804
0.00675145
0.00220543
0.00650112
0.00217347
0.00482482
0.00673811
0.00130233
0.00674695
0.00221058
0.00428067
0.00151936
0.00102607
0.00613108
0.00634426
0.00627981
0.00613995
0.00211609
0.00531824
0.00341595
0.00672185
0.00149809
0.00671179
0.0013269
0.00621648
0.00126176
0.00674895
0.0296923
0.0067695
0.00211194
0.00485419
0.00251248
0.00671861
0.00493253
0.00165349
0.00676486
0.00678493
0.00084164
0.0268189
0.00095035
0.00672997
0.0191448
0.00680255
0.00165248
0.00364071
0.0185078
0.00673844
0.00681501
0.00661446
0.0065915
0.00207215
0.000144016
0.0227236
0.00413601
0.0068297
0.00680225
0.00579478
0.00672891
0.00295899
0.00496241
0.00599603
0.00679764
0.00671871
0.0068107
0.00539658
0.00106333
0.000291095
0.0067548
0.00436636
0.00681163
0.00501045
0.00645596
0.00117782
0.00672596
0.0067783
0.00562861
0.000777786
0.0120402
0.00674939
0.00672296
0.00281121
0.00120712
0.00683386
0.0247928
0.00673222
0.00627867
0.00127069
0.0063224
0.00678607
0.0026604
0.000771703
0.00629297
0.0038646
0.00642046
0.00651351
0.00126396
0.000398388
0.00682403
0.00130696
0.00120703
0.000913531
0.0011888
0.000422455
0.00311494
0.00673151
0.0025831
0.00177617
0.00450085
0.00679768
0.00671685
0.00181944
0.00422601
0.00682021
0.00341885
0.00201837
0.0209535
0.0067749
0.00390568
0.00871971
0.00156412
0.00700065
0.0063598
0.00179907
0.00111576
0.000587217
0.00516432
0.00680343
0.010039
0.0100057
0.00961474
0.0022634
0.00160029
0.00350348
0.00674402
0.00672942
0.00178068
0.00414801
0.00478072
0.00673975
0.00185655
0.00676979
0.00673285
0.00673283
0.0031374
0.00670483
0.00373649
0.00245303
0.0068071
0.000999649
0.00673261
0.00530478
0.00677027
0.00670521
0.000261913
0.00319531
0.0064114
0.00673979
0.00674266
0.000618001
0.00672817
0.00673525
0.00169797
0.01262
0.00336564
0.00676977
0.00559302
0.00672832
0.00679186
0.0015225
0.00259591
0.00287827
0.00374341
0.00674376
0.00678715
0.00674803
0.00385811
0.00679327
0.00203635
0.00393392
0.00104685
0.00231338
0.00683943
0.00248783
0.0253069
0.00357795
0.00678692
0.00145188
0.00110252
0.000412764
0.00673025
0.00590057
0.00336166
0.000368879
0.00271213
0.00671493
0.00153729
0.00641978
0.00295479
0.00243972
0.00393059
0.000714977
0.00109996
0.000915802
0.0040179
0.00684003
0.013369
0.00126358
0.00664099
0.00219127
0.00157683
0.00662616
0.00676348
0.00179135
0.00666727
0.00145253
0.00675207
0.00673862
0.00506053
0.00677996
0.00131608
0.00562988
0.00345244
0.00668299
0.0244516
0.00683633
0.00354531
0.00675675
0.00231803
0.00674957
0.00682516
0.00127321
0.00462622
0.00254868
0.00282357
0.00121843
0.0303638
0.00767743
0.00209781
0.00661229
0.00391391
0.000388901
0.00683733
0.00687199
0.00684888
0.00677374
0.00106609
0.0257084
0.00152791
0.00172639
0.00681964
0.00761703
0.0310357
0.000619334
0.00132706
0.00672674
0.00163816
0.000921936
0.00673017
0.00682763
0.00330588
0.00665997
0.0278853
0.0052133
0.00660027
0.00663336
0.00361811
0.00132556
0.00214999
0.000723492
0.00661903
0.00357573
0.0066266
0.0143326
0.00683399
0.00113265
0.00655285
0.00682728
0.00411642
0.00337366
0.00275869
0.00678717
0.00485572
0.00212983
0.00673418
0.00681353
0.000731223
0.00663071
0.00681757
0.00681191
0.00554076
0.00682559
0.00167766
0.00673782
0.00131133
0.00678231
0.00678105
0.00681542
0.00212175
0.00157038
0.00679544
0.00353708
0.00073769
0.00459935
0.0287637
0.00683889
0.000683179
0.00319265
0.00673907
0.00435576
0.00316305
0.000975354
0.00483675
0.0300986
0.00822364
0.0134485
0.00247756
0.00516306
0.00515434
0.0284428
0.0277104
0.00682073
0.00577998
0.00269786
0.00239961
0.00667461
0.00572391
0.00179593
0.000929798
0.00676087
0.000664749
0.000931152
0.00141763
0.00683579
0.0124903
0.00680403
0.00680404
0.00348932
0.000542604
0.00622844
0.00676297
0.00672109
0.00148787
0.00464036
0.00669691
0.0066495
0.00655386
0.00380485
0.00677937
0.00435658
0.0292355
0.00157922
0.00163682
0.0068243
0.0066349
0.00635836
0.00116235
0.00630239
0.00674748
0.00579607
0.00358214
0.00208471
0.0242383
0.00682749
0.00677775
0.00655581
0.00669864
0.000711556
0.00367529
0.00218504
0.00497368
0.000369278
0.00670817
0.00522582
0.00061646
0.0067236
0.00580776
0.00130836
0.000962095
0.00121962
0.00673437
0.00327969
0.00645211
0.00468129
0.00655964
0.00682886
0.00160596
0.00113755
0.00216504
0.00135339
0.0021024
0.00674251
0.00353072
0.00679497
0.00679571
0.00683152
0.00152609
0.00683515
0.00678058
0.0037637
0.00681718
0.0100715
0.00345418
0.00674437
0.000414496
0.00212846
0.0068006
0.00674011
0.00155335
0.00164824
0.00236916
0.00679965
0.00660786
0.00248942
0.00153708
0.00140928
0.000749703
0.00420587
0.00226569
0.0164978
0.00674106
0.00672808
0.0021785
0.00675719
0.0065328
0.00679778
0.00530617
0.00287164
0.00687687
0.00339166
0.00338673
0.00270862
0.00120653
0.0107651
0.00576087
0.00107433
0.00313323
0.00588631
0.00192076
0.00371497
0.00306945
0.00664117
0.00674735
0.000901451
0.00185607
0.00119352
0.00682448
0.00683516
0.00674388
0.00384117
0.00544536
0.00683402
0.0326524
0.00865322
0.00129157
0.00598769
0.00683364
0.00203724
0.00675131
0.00677385
0.00275424
0.0102016
0.0185376
0.00434599
0.00632019
0.00156342
0.0068383
0.0117998
0.00113014
0.00151886
0.00445342
0.00143236
0.00674306
0.00682629
0.00158147
0.00672709
0.00674375
0.00275078
0.00142196
0.00503034
0.00679603
0.0114116
0.0104424
0.00668826
0.00683835
0.00151177
0.0110835
0.0068027
0.00684108
0.00665123
0.00274251
0.00649769
0.00677236
0.00313929
0.00433996
0.00329551
0.0068255
0.00160375
0.00237899
0.00154556
0.00209363
0.00674497
0.00674773
0.00672227
0.00105305
0.00680286
0.00175655
0.000895118
0.00672668
0.00676315
0.0011821
0.00679581
0.00673726
0.0066036
0.00678623
0.00649566
0.00622883
0.00102709
0.00673244
0.0222531
0.00673584
0.00672596
0.00682315
0.0031388
0.000798549
0.00674062
0.00662805
0.0030676
0.00116097
0.00683578
0.00263467
0.0116558
0.00248551
0.00567735
0.00391366
0.00675584
0.00673739
0.0037668
0.00672969
0.00673995
0.00674804
0.00669274
0.00671122
0.00682702
0.00630226
0.00682178
0.00681228
0.00252587
0.00664487
0.00149611
0.00677665
0.00236657
0.00229081
0.00128706
0.00646226
0.00682993
0.00683734
0.00648278
0.00781354
0.00681803
0.00350992
0.00988244
0.00263076
0.000474313
0.0067621
0.00301766
0.00682781
0.00652415
0.00187871
0.000828297
0.00670301
0.00176383
0.00676298
0.0027017
0.00345694
0.00143397
0.000438434
0.0304911
0.00100539
0.00142428
0.00674061
0.0067214
0.00663978
0.00336054
0.00104772
0.00415809
0.0215404
0.00619658
0.00366303
0.00677441
0.00676451
0.00625879
0.00459405
0.00682925
0.00672926
0.00679382
0.00666425
0.00681641
0.000902738
0.000456085
0.00371237
0.00668439
0.00683424
0.0102865
0.0100018
0.00167907
0.00660142
0.00173247
0.00676941
0.00676311
0.00514796
0.0067302
0.00683575
0.000637083
0.00674046
0.00683539
0.00634759
0.00676284
0.000952912
0.0067302
0.00336582
0.00328489
0.00681882
0.00682593
0.00681318
0.00656752
0.00313763
0.0051351
0.00674778
0.00674623
0.0064356
0.0128616
0.00667441
0.00124651
0.00683685
0.00663292
0.00457938
0.00496494
0.00652869
0.00669133
0.00295279
0.00437036
0.00207715
0.00364073
0.00830337
0.00673154
0.00663309
0.00210649
0.00671837
0.00679018
0.00356167
0.00683807
0.00673791
0.0016797
0.00171617
0.00133748
0.00216738
0.0066456
0.00679019
0.00610153
0.00675229
0.00654979
0.00127904
0.00407667
0.00682917
0.00165387
0.00199884
0.00853715
0.00162627
0.00644161
0.0103709
0.00207093
0.00707092
0.00122088
0.00350959
0.00673139
0.00657635
0.00378915
0.00425012
0.0067356
0.00672719
0.0030024
0.00149583
0.00150369
0.00683892
0.00683345
0.0012856
0.00240549
0.00231877
0.00399944
0.00681776
0.00541996
0.00302529
0.00365801
0.0064221
0.00245947
0.00384223
0.00683931
0.00683676
0.00629239
0.00673084
0.00679619
0.000382101
0.0017319
0.0189631
0.00671042
0.00672334
0.00668426
0.00672467
0.00670939
0.00680295
0.00177092
0.00102772
0.00189129
0.0104341
0.0067286
0.00138015
0.00302356
0.00117059
1.2605e-05
0.00753431
0.00672321
0.00668682
0.00073364
0.00671829
0.00168694
0.00646065
0.00681845
0.00178719
0.00680074
0.00673383
0.00671698
0.00652834
0.0068257
0.000859212
0.00328669
0.00673678
0.00383732
0.006741
0.00655935
0.000128748
0.00233697
0.00680397
0.000833759
0.0117646
0.00673245
0.000977838
0.000207782
0.00227263
0.00310268
0.00664339
0.00131747
0.00135387
0.00298613
0.00113851
0.00410437
0.00115843
0.00250411
0.00680895
0.00680196
0.00157329
0.00580349
0.00682878
0.00680581
0.00674908
0.00635797
0.00649689
0.00151353
0.00376041
0.00674965
0.00154528
0.00612481
0.00679942
0.000968824
0.00120966
0.00688711
0.00571656
0.00669924
0.00676909
0.00658634
0.00671069
0.00433092
0.0068271
0.00108778
0.0067657
0.00607286
0.00217997
0.00235782
0.00138605
0.00407408
0.00673182
0.00229211
0.00390355
0.00674753
0.00107002
0.00673108
0.00398013
0.0067184
0.00200362
0.00586799
0.00680311
0.00645706
0.0052851
0.00405854
0.00597287
0.0067809
0.0012845
0.00675369
0.00431589
0.0034111
0.000778143
0.0293374
0.00404981
0.00190384
0.00083211
0.00672729
0.00618007
0.0032255
0.00553422
0.00670936
0.0082669
0.00101473
0.011908
0.00207951
0.00644671
0.00341787
0.00141463
0.00630886
0.00680518
0.00585819
0.00559188
0.00675168
0.00650791
0.00680123
0.00673748
0.0037177
0.00648449
0.0237822
0.00129774
0.00291206
0.00683383
0.00681364
0.00211929
0.00674015
0.0068405
0.000840668
0.00683506
0.000721545
0.00681577
0.00111584
0.0067294
0.00683201
0.00682079
0.00648885
0.00368906
0.00673761
0.00420904
0.00672071
0.00389712
0.00675016
0.00271019
0.000690003
0.00115887
0.00435691
0.00431082
0.000470302
0.00228871
0.00348407
0.0108667
0.000909027
0.0012558
0.00370662
0.00674024
0.00681943
0.00683685
0.00117962
0.00678384
0.0289341
0.0067123
0.00724202
0.00624665
0.00334343
0.0067274
0.00674508
0.00682207
0.00976303
0.00115623
0.00219247
0.00288604
0.00598394
0.00685471
0.00117202
0.000962306
0.00673842
0.00672932
0.00669005
0.00596283
0.000906577
0.0066381
0.00105723
0.00410415
0.00206437
0.0292411
0.00312562
0.000625208
0.00228055
0.00312073
0.00537129
0.00682324
0.000997703
0.000980781
0.003619
0.00681855
0.00678922
0.00683845
0.0023474
0.00667268
0.00130695
0.00171582
0.00654122
0.00225192
0.00197265
0.00373135
0.00680286
0.00567975
0.00349523
0.00235827
0.00681417
0.00676513
0.0313666
0.00114911
0.00536418
0.00168987
0.0068338
0.00650012
0.000502439
0.0020153
0.00679726
0.00681594
0.000777103
0.00276219
0.0067944
0.00666875
0.00669319
0.00676813
0.00674506
0.00666554
0.00307502
0.000969128
0.00596605
0.00679219
0.00120293
0.0223838
0.00683499
0.00674965
0.000505795
0.00153215
0.00680069
0.00681843
0.00663172
0.00657101
0.00615197
0.00673907
0.00150706
0.00676217
0.000486506
0.00664783
0.00672649
0.00104989
0.00397778
0.00110846
0.00683524
0.00675963
0.00676804
0.000768205
0.00673019
0.00649227
0.00671849
0.00168496
0.00187743
0.0030905
0.00374682
0.00154678
0.00381906
0.00678512
0.014575
0.0067215
0.00357192
0.0011735
0.0068918
0.0068363
0.00672644
0.00224848
0.00183639
0.00672552
0.00118787
0.00572998
0.00121258
0.00660882
0.00642095
0.00680679
0.00621498
0.00137846
0.00305869
0.00676262
0.00683995
0.00382767
0.00671709
0.00390869
0.00672272
0.00345582
0.00673579
0.000713825
0.00640913
0.0027486
0.0230196
0.0054649
0.00619478
0.00138257
0.00431593
0.000519659
0.00358823
0.0101879
0.00671568
0.00167235
0.00672355
0.00636905
0.0052797
0.000455012
0.00632875
0.00672679
0.00223247
0.00507318
0.00672725
0.00664074
0.00680156
0.00302111
0.00624649
0.0225403
0.00147021
0.00170687
0.00247825
0.0012249
0.00677432
0.00255516
0.00142892
0.00526969
0.00449122
0.00677978
0.00649222
0.00672858
0.00185743
0.00678594
0.00672614
0.00678705
0.000988399
0.00628574
0.00388585
0.00667174
0.00676606
0.00656171
0.00110874
0.00400369
0.00334352
0.00256575
0.00124221
0.00418554
0.00479284
0.0055028
0.00735588
0.00672626
0.00313285
0.00217871
0.00122946
0.00672815
0.00626907
0.00683856
0.00293113
0.00132311
0.0050616
0.00208648
0.00143492
0.00683469
0.00804049
0.00654132
0.00315979
0.00121353
0.00421723
0.00113459
0.000436862
0.00146053
0.00375728
0.00620939
0.00683874
0.0067247
0.00683658
0.0013686
0.00663031
0.00679343
0.00674231
0.00674601
0.00672385
0.0075755
0.00171272
0.00220308
0.00633782
0.00449607
0.00201031
0.00153243
0.00683513
0.00142381
0.00258273
0.00453
0.00211039
0.0125106
0.00680762
0.00679537
0.0067685
0.00654162
0.00149885
0.0021917
0.00673617
0.00517074
0.00407587
0.00615005
0.00304984
0.00608326
0.0037762
0.0295023
0.00148302
0.00677284
0.0263011
0.00656078
0.00680203
0.00674087
0.00683812
0.00680398
0.000964303
0.00676186
0.00683809
0.00291317
0.0067385
0.00658832
0.00679281
0.00220879
0.00369465
0.0209196
0.00148288
0.00338539
0.00164056
0.00379253
0.00417265
0.00184955
0.00657764
0.00242499
0.0088412
0.00682254
0.0012646
0.00583837
0.00201531
0.00671025
0.00679512
0.00270166
0.000913749
0.00665232
0.00130011
0.00402204
0.00467446
0.00647177
0.00253924
0.00670815
0.00284332
0.00324808
0.00680645
0.00658095
0.00196329
0.00598628
0.00289039
0.00363331
0.00153478
0.003631
0.00132098
0.00332452
0.00314807
0.00323305
0.00679596
0.00574239
0.00920388
0.00197103
0.00680105
0.00261126
0.00691743
0.00187706
0.00161203
0.00676375
0.00154294
0.00681539
0.00587526
0.00683487
0.00672628
0.00677398
0.00143841
0.00683967
0.00671509
0.00682746
0.00138557
0.00374502
0.00105639
0.00540941
0.0068194
0.00679818
0.00191404
0.00641482
0.00184277
0.00681931
0.0067131
0.000979449
0.00565674
0.00681156
0.00677979
0.00220708
0.00672827
0.00634453
0.00673713
0.0185183
0.00672494
0.00150899
0.000389897
0.00169692
0.00470942
0.00675083
0.0068226
0.0178184
0.00683693
0.00410548
0.0254523
0.00674665
0.00343814
0.00672671
0.00152692
0.00653016
0.00296558
0.00403692
0.00662667
0.00629826
0.00680519
0.00867529
0.00141632
0.0315776
0.0095598
0.00374942
0.030545
0.00346219
0.00684003
0.0061082
0.00180341
0.00528628
0.00207886
0.00206653
0.00373447
0.00425856
0.00684085
0.0157588
0.00419193
0.0110989
0.00682282
0.00191167
0.00367301
0.00681226
0.0067527
0.00625015
0.00565918
0.00148303
0.00675313
0.00682081
0.00161528
0.00383882
0.00671838
0.00269671
0.009309
0.00146347
0.00682323
0.000703251
0.00173148
0.00673789
0.00296076
0.00279861
0.0015144
0.000893267
0.00681799
0.00324617
0.00483859
0.00776644
0.00681388
0.00682738
0.00674825
0.00680719
0.00654276
0.00672546
0.00373395
0.00676132
0.00057847
0.0025349
0.00337653
0.00664732
0.00679216
0.00178857
0.000520031
0.00341177
0.0101424
0.00152452
0.000858988
0.00345749
0.00153702
0.00672833
0.00681734
0.00134604
0.00341694
0.00672517
0.00608358
0.00679083
0.0174092
0.00458448
0.00679727
0.00675129
0.003379
0.00673605
0.00671532
0.00672928
0.00666872
0.00167934
0.00682925
0.0018123
0.000928453
0.00457809
0.0018584
0.00200351
0.00683317
0.00253006
0.000536241
0.00683625
0.00680226
0.00682305
0.00679834
0.0067263
0.00795203
0.00683702
0.00265206
0.00157245
0.00671803
0.006793
0.00680998
0.00670173
0.00264799
0.00264931
0.00681415
0.00671146
0.00335572
0.00557567
0.00143917
0.00682308
0.00283927
0.00681431
0.00683651
0.00315254
0.00663819
0.00684031
0.00670886
0.00259976
0.00672363
0.00760596
0.00222929
0.00683954
0.00683734
0.000653001
0.000498
0.0188377
0.0067855
0.00683791
0.00162686
0.00113917
0.00641708
0.000911592
0.00672974
0.00410471
0.00661801
0.00682651
0.00297523
0.00288681
0.00686518
0.00140762
0.000802376
0.00195626
0.00678117
0.0167486
0.00235935
0.00106614
0.00715446
0.00683512
0.0067681
0.00149954
0.0225699
0.00655514
0.00404993
0.00112021
0.00677563
0.00681846
0.00682123
0.0053025
0.0276043
0.00186132
0.000859502
0.00675624
0.00674249
0.00383778
0.00682428
0.00392836
0.00683634
0.000842172
0.00252359
0.00587491
0.00143443
0.0241078
0.00316712
0.00277903
0.00272108
0.00669839
0.00683278
0.0162284
0.00124255
0.00200286
0.00118564
0.00679491
0.00673309
8.42821e-05
0.00680916
0.00414541
0.0028725
0.00119828
0.000744972
0.00390297
0.00175525
0.00674054
0.00674979
0.00918999
0.0067964
0.00681339
0.00414328
0.000124079
0.00674813
0.00681226
0.0027356
4.36215e-05
0.0040902
0.000433325
0.00165241
0.00683738
0.00101791
0.00291319
0.00206668
0.00248162
0.00676861
0.00224486
0.00550229
0.00114406
0.00405585
0.00240622
0.0139132
0.00682379
0.00682175
0.00683941
0.00897298
0.00254866
0.0136375
0.0040564
0.0275839
0.00370946
0.00373045
0.00606415
0.00617472
0.00153884
0.00683843
0.00883704
0.00331538
0.0139011
0.00613325
0.00667768
0.00271272
0.00678871
0.0063803
0.00683543
0.00379878
0.00675717
0.00141082
0.000725165
0.00683924
0.00672545
0.00278557
0.00410111
0.00377551
0.00668251
0.00683752
0.00596386
0.0270838
0.00678154
0.00658499
0.00210343
0.00684593
0.00452309
0.00128446
0.00152685
0.00671678
0.00679769
0.00672391
0.00281242
0.00674047
0.00671111
0.00670839
0.00138481
0.0178141
0.00665088
0.0067864
0.00663572
0.00137867
0.00069093
0.00516251
0.0065353
0.000662545
0.00683821
0.00672259
0.00676133
0.00106381
0.00146215
0.00677635
0.00665154
0.00191037
0.000746347
0.0064293
0.00165531
0.00083739
0.00192474
0.00399714
0.00673715
0.00205009
0.00678554
0.00563512
0.00166509
0.00287997
0.00672524
0.00152087
0.00652534
0.00687194
0.00631081
0.00373453
0.00367982
0.000986898
0.00419463
0.00958464
0.00268346
0.00445412
0.00679537
0.0068394
1.36879e-05
0.00677231
0.00167798
0.00103302
0.00681661
0.00438624
0.00100967
0.000834556
0.00676331
0.00681419
0.00673002
0.000962503
0.00581197
0.00618154
0.000855823
0.00159078
0.00683524
0.000783636
0.00353018
0.00216967
0.0068026
0.00679309
0.00473679
0.00605791
0.00647789
0.00790551
0.0100259
0.00158381
0.00333069
0.000862471
0.00115092
0.00375708
0.00679222
0.00108574
0.0153713
0.00423296
0.00307824
0.00296921
0.000429275
0.00118963
0.00271006
0.00207504
0.0049998
0.00120097
0.00268272
0.00294542
0.00674331
0.00243187
0.00673991
0.000685142
0.0038141
0.00672047
0.0193765
0.00270078
0.00169703
0.00142278
0.00674356
0.00388447
0.00334204
0.00307172
0.00681379
0.00677113
0.00632294
0.00301405
0.00143192
0.00469262
0.00682402
0.0012535
0.00125658
0.000548226
0.00620432
0.00380612
0.00674449
0.0014982
0.00129042
0.0238628
0.00250249
0.00679493
0.00613557
0.00674607
0.00673653
0.00413754
0.00679683
0.00676811
0.000936196
0.000798925
0.00678968
0.00158809
0.00426904
0.000886191
0.00120927
0.00396958
0.00293915
0.00354146
0.00898133
0.000432978
0.00673852
0.000924519
0.0011786
0.00366678
0.00673528
0.00127967
0.00320134
0.00126683
0.00681564
0.00680355
0.00657991
0.00632436
0.00675569
0.00121573
0.00109542
0.0067939
0.00322762
0.00672353
0.0036649
0.0028022
0.000830276
0.00362765
0.0031987
0.00680919
0.010861
0.00673507
0.00667179
0.00281519
0.00677788
0.00117213
0.0061113
0.00110083
0.00683947
0.000876235
0.00352757
0.00231706
0.00678807
0.00674827
0.00117276
0.000656336
0.00664406
0.00391787
0.00683842
0.00115989
0.004386
0.00338994
0.00372034
0.00142213
0.00605487
0.00124942
0.00168155
0.00599355
0.00399764
0.00123131
0.00671864
0.00561128
0.000487307
0.00221027
0.00674358
0.00108791
0.00397449
0.00153957
0.00991707
0.000822381
0.00393019
0.00677161
0.00343794
0.00280423
0.000589262
0.00118339
0.00381673
0.00361065
0.00294815
0.00674569
0.00308487
0.00634887
0.00646167
0.00308471
0.00111523
0.00377443
0.00676861
0.0158193
0.00683727
0.00283685
0.00169223
0.00256789
0.00629492
0.0020331
0.00674254
0.0067231
0.00144205
0.00154088
0.00627038
0.00114145
0.00620175
0.00231522
0.0053569
0.00114334
0.00669805
0.00323051
0.000889084
0.00672452
0.00262938
0.00672712
0.00546443
0.00680412
0.00125347
0.00338674
0.00265453
0.000923682
0.004678
0.00363498
0.00676761
0.000953393
0.000928115
0.00680347
0.00460341
0.00124051
0.00362467
0.00679661
0.0115561
0.00673283
0.00682811
0.00161072
0.00673484
0.00683125
0.000869126
0.00677845
0.00111257
0.00140029
0.000508917
0.00160836
0.00123626
0.00156368
0.00287659
0.00346718
0.00313636
0.000877258
0.00361077
0.00292164
0.00103327
0.00493851
0.0068389
0.00672387
0.0068198
0.00650704
0.00513219
0.0117037
0.00578098
0.00181279
0.00613522
0.0166646
0.00198147
0.00169635
0.00354546
0.00132638
0.00660159
0.000966696
0.00108576
0.00549884
0.000917814
0.00618253
0.000814038
0.00673012
0.00588166
0.00672389
0.00210205
0.00108208
0.00114728
0.00113816
0.0012543
0.0064472
0.00233789
0.00379265
0.00406978
0.00121574
0.00210828
0.000156854
0.00344561
0.00672763
0.00109615
0.00292998
0.00193511
0.0108093
0.00679877
0.00141465
0.0037798
0.00134932
0.00129354
0.00666257
0.00102427
0.00681762
0.00152053
0.00132268
0.00484901
0.00125294
0.0070647
0.00357152
0.00664296
0.00140603
0.00675622
0.00107846
0.0020119
0.0067389
0.00627343
0.00328411
0.00676772
0.00223046
0.00370954
0.00674132
0.00466124
0.00660224
0.0124008
0.00673956
0.00122947
0.000945542
0.00652201
0.00681609
0.00121221
0.0067224
0.00110588
0.00158787
0.0282678
0.00475213
0.00203465
0.00384213
0.00145631
0.00143785
0.00559169
0.00672199
0.000574639
0.00645813
0.000866467
0.00671496
0.000179083
0.00115621
0.0067362
0.00630957
0.00313505
0.00392848
0.0134585
0.0294231
0.00669336
0.00154685
0.00682899
0.00681606
0.00135499
0.00683189
0.00465365
0.00368206
0.00975108
0.0010946
0.00295038
0.0019191
0.0060719
0.00674806
0.00311143
0.00155548
0.00129508
0.00364155
0.000934271
0.0052453
0.00628629
0.0068202
0.0014632
0.00664744
0.000352579
0.00259737
0.000916983
0.000924328
0.00498609
0.0023629
0.00451237
0.000861734
0.00674043
0.00583798
0.00401448
0.00484489
0.00164516
0.00522759
0.00659504
0.00681617
0.00657626
0.00125763
0.0009866
0.00164112
0.00361208
0.00683793
0.00651926
0.00406756
0.00676547
0.00344777
0.00278784
0.00552358
0.0168534
0.0191879
0.00670931
0.00202302
0.00678598
0.00381945
0.00138055
0.00175671
0.00365293
0.00201007
0.006782
0.00377019
0.00680664
0.00207862
0.00232521
0.00447317
0.0168841
0.0068056
0.00680718
0.00431188
0.00120236
0.00683282
0.00672367
0.00139538
0.00670342
0.00130331
0.00387995
0.00681152
0.0012287
0.00609209
0.00677879
0.00678443
0.00670129
0.00677312
0.00673755
0.00680518
7.68352e-05
0.00137992
0.00677509
0.00675937
0.00123855
0.0120115
0.00676157
0.00196855
0.00674357
0.00160022
0.00679558
0.00153954
0.00367335
0.00678886
0.00322879
0.00123702
0.00681227
0.00258964
0.00372644
0.00374893
0.00170017
0.0020237
0.00675523
0.00683288
0.00300568
0.00294379
0.00154491
0.00398908
0.00298721
0.00682349
0.00168389
0.00151134
0.00677141
0.00134281
0.0207406
0.00208324
0.00639057
0.00683729
0.00203224
0.00171256
0.00560413
0.00299993
0.00344871
0.00382552
0.00341673
0.00181435