/*--------------------------------*- C++ -*----------------------------------*\
| =========                 |                                                 |
| \\      /  F ield         | OpenFOAM: The Open Source CFD Toolbox           |
|  \\    /   O peration     | Version:  v2012                                 |
|   \\  /    A nd           | Website:  www.openfoam.com                      |
|    \\/     M anipulation  |                                                 |
\*---------------------------------------------------------------------------*/
FoamFile
{
    version     2.0;
    format      ascii;
    class       volScalarField;
    location    "400";
    object      p;
}
// * * * * * * * * * * * * * * * * * * * * * * * * * * * * * * * * * * * * * //

dimensions      [0 2 -2 0 0 0 0];


internalField   nonuniform List<scalar> 
14315
(
0.00119612
-0.102868
0.000562888
-0.0291144
-0.0291418
-0.00586986
0.000226904
-0.00831719
-0.0963368
0.00121139
0.000988267
0.00414443
-0.0845092
-0.00958129
0.000213727
-0.00842191
-0.00477317
-0.0906001
0.000333191
-0.00853859
-0.0546063
-0.0040777
9.31617e-05
0.00100593
-0.121717
-0.0111677
-0.0981904
0.00118424
-0.0980656
0.000180003
-0.051644
0.000242292
-0.1557
0.000744667
-0.0161074
0.000234773
0.000234628
-0.0157562
0.000179389
-0.0209261
-0.0965705
-0.0115395
-0.0262094
-0.0742241
-0.0695959
-0.0330291
0.00029492
0.00113894
-0.00851347
-0.0258016
0.000223162
-0.0770025
0.000258672
0.000755851
0.000269914
-0.0179174
0.00422412
0.000994607
-0.0110338
-0.1245
0.000708904
-0.0326461
-0.0482057
0.000458245
-0.00374742
-0.0020492
0.000678261
-0.0506225
-0.0152365
0.000225902
0.000688235
0.000453772
0.000568205
-0.0125808
-0.00406137
-0.00750463
0.000470603
-0.0395921
0.000223969
-0.0749546
-0.00230318
0.0154894
-0.0080998
0.000459604
0.000257851
-0.103552
-0.0692122
0.0005812
0.000591535
0.00072564
-0.0621975
-0.0799467
-0.0833352
-0.000593557
0.000106151
-0.0022697
0.000252771
8.00188e-05
5.05995e-05
-0.0112255
-0.00616644
0.000477421
2.00872e-06
-0.0271121
0.00060444
-0.0046459
-0.0203909
-0.0438626
-0.0205289
-0.0703639
-0.0334025
-0.0644801
-0.00286027
-0.0881058
-0.00389172
-0.0752242
-0.024262
-0.0158796
-0.1337
0.015062
0.00111393
-0.00490368
0.000300877
-0.0541929
-0.0774996
-0.00362989
0.00320256
0.00122505
-0.00177588
-0.00635042
-0.0592142
-0.11842
0.0141838
0.00609132
-0.00678003
-0.00153594
-0.121444
-0.0858489
-0.10023
0.00194247
-0.0703504
-0.0776755
0.000189231
-0.116667
-0.159109
-0.0121283
-0.00274243
0.000980273
-0.0608992
-0.0693423
-0.00641654
3.5903e-06
0.000374912
8.50931e-05
0.000265425
-0.0200678
-0.0257419
0.000130639
0.00536833
-0.0732603
-0.0345957
-0.0131188
-0.156061
-0.060482
0.000154433
-0.0993994
3.01821e-05
-0.0306719
0.000107329
-0.00553904
-0.134987
-0.0764532
-0.0301447
-0.0351309
-0.108127
0.0136349
0.0038355
-0.0034603
-0.0656853
-0.0836734
-0.151101
-0.0531312
-0.00624207
-0.0200134
-0.052964
0.0151641
-0.0346874
-0.0356784
-0.00019102
-0.0618945
-0.010175
0.0109308
-0.100404
4.91508e-07
7.89353e-05
-0.0198018
0.00524976
-0.00601194
-0.0352423
-0.0578757
-0.155292
-0.00476308
0.00053208
-0.0119873
-0.0291819
-0.00374786
-0.0105997
-0.0746132
0.000196318
3.24417e-06
-0.000373205
-0.0126592
-0.0843854
-0.0302141
-0.155597
-0.0383941
-0.0702093
-0.00609482
-0.00646211
0.000111463
-0.0770666
-0.0172388
-0.0781859
0.0128764
-0.0379825
-0.0315623
-0.0230038
-0.0590386
0.000246472
-0.0331173
-0.0192301
-0.124671
0.000230241
-7.63421e-05
-0.0266812
-0.0367131
-0.0726391
-0.027015
-0.0113313
-0.119791
-0.129622
-0.0532593
-0.00210666
0.0122824
-0.0757905
0.0001097
-0.127135
0.000259893
0.000225219
-0.000909525
-0.0258971
0.00068889
-0.147319
0.000265506
-0.00869088
-0.129825
-0.131715
-0.0646732
-0.159061
-0.0115004
-0.00171905
-0.0281647
-0.037842
-0.142474
-0.0392647
-0.0799246
-0.0178644
-0.15273
-0.0526156
-0.0503153
0.00378334
-0.00062747
-0.000412259
9.78055e-05
2.79665e-05
0.000242017
-0.0889277
4.37097e-06
-0.0291367
-0.0512711
-0.00401501
-0.0613796
-0.00697785
-0.0461272
-0.0285143
-0.0948568
-0.103582
-0.0398546
0.000165222
0.000725281
-0.0874384
-0.00456832
0.000117614
-0.078795
0.000176529
-0.0135435
0.000271636
-0.152852
-0.00899185
0.0043212
-0.0536851
-0.00954743
-0.0101626
-0.0243939
-0.029849
0.000392462
-0.0277105
-0.0543578
-0.0388468
-0.0486906
0.000152478
0.000158024
-0.0509703
-0.0676739
-0.0175351
-0.0770909
0.0143619
-0.00102181
-5.06913e-05
-0.0987616
-0.0143991
-0.0109039
1.67585e-05
-0.00867859
0.000721992
-0.0417609
-0.0710982
-0.00363565
0.00578712
0.00026228
-0.0888046
-0.075579
-0.0801455
-0.0834812
-0.129868
8.62644e-05
0.00129889
-0.0341298
-0.108596
-0.0203193
-0.0492544
-0.129191
-0.0767251
0.000732801
8.98478e-05
-0.097528
-0.156758
-0.0951923
0.000193647
-0.0196162
-0.125827
-0.0817765
-0.00417374
0.000173531
-0.0460217
-0.0711528
-0.0525554
-0.116822
-0.12712
0.000273645
-0.0510835
-0.157126
0.000221163
0.000589795
0.000208997
-0.0392326
-0.0666409
-0.0107685
-0.0273395
-0.00362832
-0.0988625
-0.156054
-0.0497079
-0.076804
4.52581e-05
-0.00864345
0.00581398
-0.158997
-0.0487552
0.000825045
-0.0194731
-0.00745314
-0.0895194
0.00308901
0.000185249
-0.0676536
0.00132208
-0.0285215
-0.125363
-0.0733789
-0.107273
-0.0313723
0.000508062
-8.22712e-06
-0.00644038
6.87056e-06
-0.000301277
-0.0367177
-0.00584904
0.00348662
0.000574812
-0.00449332
-0.0137765
-0.0328738
-0.131331
-0.0799494
-0.126933
-0.064436
-0.0643172
-0.0479381
0.000204001
-0.00875476
-0.000818781
-0.156285
-0.0582544
-0.0370365
-0.0313145
-0.067307
-0.027511
0.00565051
0.00130542
-0.0988767
-0.0755456
-0.00999021
-3.9098e-06
-0.0495049
-0.0628041
-0.0131599
0.00152461
-0.100205
-0.0720286
0.00105838
-0.00390992
-0.0658065
0.00345811
0.000212095
-0.0980887
-0.0784682
-0.0623699
-0.00532379
-0.0901795
0.000172247
-0.00505694
-0.0744679
-0.115169
-0.0854807
0.000180652
0.000173634
0.000172925
-0.00488356
0.00257612
-0.00369963
0.0144597
0.00516606
0.000181345
-0.158871
1.72174e-06
0.00064761
-0.0394624
-0.0142944
0.00515041
1.91991e-06
-0.0636317
-0.141448
-0.0889144
4.38144e-06
-0.0918545
-0.107408
0.00416494
0.000895482
-0.0843813
-0.0325961
-0.0134447
-0.0272842
-0.00154173
-0.0435044
-0.0738047
0.0047574
-0.0191756
0.000920918
-5.1315e-05
-0.00412864
0.014053
-0.0190673
-0.0296418
0.0061244
-0.0858689
-0.00648682
-0.102692
-0.0341773
-0.109183
4.64792e-05
-0.0040002
-0.0165523
-0.115561
-0.0657991
-0.0776116
-0.0085071
-0.035629
-0.00346586
-0.157966
0.000671567
-0.0835164
-0.000865305
-0.0495808
0.000654478
-1.9661e-06
0.000177579
-0.0409802
0.000469824
-0.062809
-0.0182124
-0.028825
0.0155998
0.00052415
-0.0641689
-0.0393998
-0.0143795
-4.4448e-05
0.00148793
-4.57597e-05
0.000237036
0.00151412
-0.0895593
-0.156003
0.00450199
-0.0490212
-0.0679549
-0.0876306
-0.00156627
-0.0256605
0.000321001
-0.0112399
0.000139398
-0.000660938
-0.00689128
-0.0414553
0.000146567
-0.141574
0.000151787
-0.00193371
-0.0872888
-0.158013
0.000442122
-0.00108338
0.000420525
7.41048e-05
-0.00501899
-0.0934456
-0.000829498
0.000446656
-0.00487546
-0.000534207
-0.0035336
-0.0797527
-0.0153203
-0.00885125
-0.0503775
-0.00636864
-0.00124814
-0.025785
0.00596833
-0.0594235
-0.120274
-0.0879136
-0.00505343
-0.0212341
0.000817544
0.0144439
-0.000206145
-0.00281383
-0.00328267
0.000231594
0.000273013
-0.0352355
0.00328863
0.00112455
-0.00884039
-0.086326
-0.0888824
-0.0173883
-0.116387
-0.00680965
-5.68622e-05
0.000106017
-0.0885397
0.000116953
0.000439464
-0.0034724
0.00469741
0.000200121
-0.0022774
-0.060606
0.00938231
-0.133273
-0.157498
5.58141e-05
0.000247166
-0.130334
-0.0471056
-0.0788032
-0.00627484
-0.0099606
0.000999603
0.00010866
-0.0146955
-0.00846244
0.00393251
-0.00900337
9.98563e-05
-0.0771714
7.18202e-05
-0.0409089
0.000408335
0.000174569
-0.0145457
0.000130705
-0.0823934
-0.0131234
-0.0136571
-0.142145
0.000591446
-0.072381
-0.149119
0.00240702
0.000853666
-0.0140732
-0.0912838
-0.0470933
9.36717e-05
-0.157854
-0.0761274
-0.0265204
-0.102244
-0.00265696
-0.0390438
-0.000513774
-0.0379562
-0.0123396
0.000156976
-0.0722402
-0.00604419
-0.0455742
-0.0174679
-0.0644949
-0.0843839
0.00118988
-0.0166441
0.00331451
0.00119534
-0.000117778
-0.0156648
-0.126375
-0.00338855
-0.0689397
2.29845e-07
-0.122629
-0.00960118
-0.0708621
-0.00428294
0.00556464
-0.00195256
-0.0509308
-0.158173
-0.0384539
-0.000589067
-0.159759
-0.0479518
-0.0019118
-0.00935339
-0.08255
0.000285058
-0.126945
-0.00491153
0.00055805
7.49135e-05
-0.0523594
-0.0296703
0.0132639
0.000163731
0.000405813
-6.2089e-05
0.00215991
-0.0484049
-0.12118
0.0134081
-0.0248241
-0.0138529
0.000233655
-0.0149805
-1.6106e-06
-0.0803559
-0.021152
-0.00322399
-0.00810106
-0.000532299
-0.00822965
-0.0080753
-0.0849675
-0.116912
0.000131897
-0.0240416
0.000740501
-0.0216399
-0.0169264
-0.0890291
-1.60363e-06
-0.00882606
-0.157939
-0.106247
-9.77826e-05
-0.0054303
-0.000775634
-0.105367
-0.032035
0.000330392
0.0129308
0.0001395
-5.53119e-05
-0.0782708
-0.0172317
-0.00932145
-0.141102
-0.0862941
0.00320585
-0.0147653
-0.00156685
0.00236988
-0.0730019
-0.109338
0.000759988
-0.0781196
-0.0727104
-0.0830781
-0.0849743
-0.110174
-0.106667
-0.00474647
-0.0354966
-0.0668083
-0.0027319
-0.00910429
-4.66923e-07
-0.0594597
-0.157046
0.000509439
-0.0297211
-0.033098
0.0153507
0.000164175
-0.0103281
0.000941682
-0.0593775
-1.11023e-05
-2.8992e-05
-0.0932258
-0.0880653
-0.111856
-0.0180757
8.56928e-05
-0.151907
0.000253526
-0.158781
-0.0455975
-0.0640392
-0.117183
0.000188216
-0.00491656
-0.0701285
0.00634794
-0.0216073
0.000182287
-0.0344503
0.000123122
-0.00335069
-0.00129133
-0.0887201
0.000164975
-0.0246274
-0.138603
-0.0115714
-0.0830388
0.000171306
-0.0166021
-0.00842136
0.000167223
-0.124138
-0.13261
-0.0148086
-0.00480399
-0.00417596
-0.11035
-0.00478382
-0.00332871
-0.050482
-0.000322102
-0.134536
0.000131327
0.00111573
-0.00459486
6.99349e-05
-0.0655694
-0.000393195
0.00511177
-0.00649932
-8.12751e-06
0.000140937
3.88791e-05
-0.000230345
-0.00870943
-0.0313312
-0.0234906
0.00692365
-0.129594
-0.00512124
-0.0425936
2.27533e-06
-0.0184448
5.58521e-05
-0.0522885
-0.0771753
-0.144579
-0.0017497
-0.00588463
-0.0326353
-0.0087449
-0.0323714
-0.000675007
-0.0575546
0.00279634
-0.0375452
-0.0429673
-0.0258443
0.000285154
-0.083054
-0.0874422
-0.0263327
-0.004891
-0.151999
-0.0645557
0.000227984
-0.0782586
-0.0782666
-0.00313808
0.000147727
-0.0538035
0.000129523
0.00657807
-0.00559445
-0.000108487
-0.0155387
-0.0036072
-0.0615624
0.00442096
-0.0290768
0.00082715
0.00027507
-0.0113572
-0.113973
0.000339197
-0.0450288
8.1076e-05
-0.00595352
-0.0676785
-0.0234342
-0.00377888
-0.0377732
-0.0774552
-0.0136137
0.0010113
-0.0376728
0.000199639
-0.0113472
-0.150479
-0.0109036
0.000121419
7.35887e-05
-0.00867594
0.00473315
0.00549298
-0.0626699
-0.0667577
4.97562e-05
-0.159259
0.0111454
-0.0856164
-0.0677876
-0.0044794
-0.15625
0.000214848
-0.00463802
0.000755175
-0.0334506
0.000345171
0.0148508
-0.0181205
-0.00329222
8.00333e-05
-0.0158998
-0.0611036
-0.000209664
-0.0920492
9.63818e-05
-0.0944857
0.00086929
-0.0993045
5.11088e-05
-0.0816685
-0.00181553
0.000705763
-0.00902169
-0.0324201
-0.000253319
1.60173e-05
-0.0203528
-0.0400003
-0.000207794
9.27312e-05
-0.0645414
0.00014994
0.000389435
0.000100922
-0.0179067
0.000688395
-0.0516949
-0.00451229
-0.0736303
0.000315281
3.76321e-05
0.000155958
-0.0597564
-0.0624855
-0.00343959
0.00518058
-0.106177
-0.0181714
0.00622875
-0.00216471
-0.119336
-0.0308922
5.06774e-05
-0.0248181
-0.0335125
-0.0873395
-0.000454129
0.0139395
-0.157054
-0.133674
-0.042906
0.00523854
-0.0198927
0.0103497
0.00619745
0.000496713
-0.0136929
-0.156134
-0.0402679
1.41376e-05
-0.104581
-0.0498646
-0.0966909
-0.00436668
-0.0598638
-0.000119441
-0.0688981
-0.00227223
3.6126e-05
7.18935e-05
-0.0031698
-0.0244157
-0.114309
-0.00368891
0.00014228
-0.00118376
-0.105883
-0.0165485
4.89449e-07
0.0011463
-0.00482616
-0.0262725
0.000122616
-0.0288327
0.00599707
-0.0562955
-0.0675477
0.000724267
0.00113066
0.000126813
-0.0632775
0.000149025
-0.00647394
0.00120152
-0.0254085
-0.0563629
0.00487561
-0.0128564
-0.00426017
-0.00545041
1.41348e-06
-0.112621
-0.028829
-0.0489284
-0.0173639
0.0049445
0.000455083
0.00493568
-0.0870444
-0.00113712
0.00117335
-0.0705661
-0.0843303
-0.0727289
-0.00155162
0.00478553
-0.000985947
-0.0187623
2.19297e-05
-0.0134745
-0.0548775
-0.059064
-0.0356511
-0.107612
-0.0502511
-5.80975e-05
-0.118334
-0.00365158
-0.0174117
5.94046e-05
-0.0559016
-3.79113e-05
5.59542e-05
-0.0294732
0.000555728
0.00649472
0.000111978
-0.00426202
-0.0627491
-0.0479056
0.000115407
-0.00150838
-0.0792655
-0.0542539
-0.044436
4.7499e-05
-0.0169643
-0.0431905
-0.154559
-0.0696349
-0.103617
-0.0125645
-0.0484371
0.000563483
-0.00101613
-0.0029828
-0.039654
-0.00437298
0.000270483
0.000811006
-0.0210321
-0.0368374
0.000216422
0.00897845
-0.0327516
-0.0777123
-0.090081
-0.153528
-0.0185748
-0.0875366
-0.0342751
-0.0159405
-0.0380293
-0.134276
-0.0904478
0.00188144
-0.0111503
-0.0876834
-0.0534938
-0.0745365
0.000654687
0.000280912
-0.00394085
-0.0242969
-0.0184537
-0.0129114
0.00376003
0.0099084
-0.073438
0.0012043
-0.0130828
-0.033826
-0.00317393
0.000148418
-0.0406241
-0.000318336
0.0107392
-0.024282
-0.0644607
-0.0636517
-0.00182845
-0.157882
-0.0907503
-0.0627561
-0.0297847
-0.0778783
0.000268941
-0.0128657
-0.054809
-0.0031756
0.000282434
-0.0882137
-0.0592177
0.00852331
-1.9927e-05
0.000403796
0.000355875
0.00127249
-0.00121657
0.00572354
0.000167716
4.68725e-05
4.4827e-05
0.000100447
-0.0881082
-0.00885813
-8.02003e-06
-0.115747
-0.157477
-0.0234385
-0.0138498
-0.0606424
-0.0379395
-0.0650218
-0.0858971
-0.00401803
-0.00651307
-0.00345751
-0.0857365
-0.0124602
-0.0826972
-0.0955266
0.000158703
0.000341685
-0.0788948
3.23359e-05
0.000265514
-0.15977
-1.41464e-05
-0.000985229
0.000926129
-0.104492
7.60127e-05
0.000291963
-0.00122145
-0.00338529
0.000634103
-0.159592
-0.0863694
-0.0038265
9.11429e-05
-0.132981
-0.074243
0.000363442
-0.0341747
-3.1857e-05
-0.0440754
-0.000465222
-0.025137
-0.00585818
0.000269186
-0.0799016
-0.00935914
0.000269048
-0.00320753
0.000780437
9.01813e-05
0.000731117
0.00129275
0.000346743
-0.00873604
-0.0420578
-0.0141261
-0.000317161
-0.00783401
-0.0432403
-0.0468305
-0.0565246
-0.00145789
-0.014347
-0.010757
-0.00367072
-0.16029
0.000378912
-0.0144384
-0.158888
-0.00331866
-0.0838228
-8.28059e-06
-0.0910964
-0.014617
-0.002066
-0.0616765
-0.0725349
0.000774126
-0.0596452
0.00104063
-0.0174652
-0.0215582
-0.0634287
-0.103699
0.00571212
-0.0663038
-0.065874
0.000279073
-0.00427754
0.00118495
-0.0307749
-0.0754613
-0.0256085
-0.11588
0.000161247
-0.0789428
-0.00372542
0.000257855
-0.00264626
-0.0172023
0.00096771
-0.00331398
-0.0125172
7.09624e-05
0.000697902
-0.0950527
-0.111258
-0.0270714
5.16956e-05
-0.0129091
-0.158884
0.000302094
-0.060988
6.9759e-05
-0.0865898
-0.00200772
-0.00773871
-0.0228061
-0.00415281
-0.00895309
-0.095441
-0.00139082
-0.00795593
0.000125223
-0.00231622
-0.0858099
0.000101713
-0.10735
-0.112694
-0.0131061
0.000708891
0.000753909
0.00166435
-0.025055
-0.00531098
-3.35468e-06
0.000311575
0.00267056
-0.156907
-0.0187048
-0.0748086
-0.0049951
0.000118758
-0.1283
0.000267665
-0.00355045
6.01116e-06
-0.143387
-0.00741982
-0.0508043
-0.136446
0.000380824
-0.00161934
0.0127261
-0.0356809
-0.00132577
-0.0101804
-0.136452
-0.00120976
-0.00135962
-0.0649791
-0.120554
-0.0688286
-0.0490919
-0.00423179
-2.24437e-05
0.000296615
9.92483e-05
0.00232207
-0.0720791
-0.00863893
-0.00569509
-0.0582917
-0.0550996
0.000295989
-0.0693904
-0.0170983
-3.36605e-05
-0.0500637
-0.160426
-0.0857735
-0.14408
-0.00368661
0.00168842
-0.0143184
-0.026216
-0.00193208
-0.00279133
-0.0985691
-0.070021
-0.0690578
-0.00161009
-0.0131721
-0.0850842
-0.161864
-0.044936
-0.0259734
-0.0165942
-0.0202902
-0.142243
0.0044415
3.88975e-06
-0.0749844
-0.0859227
-0.00717062
-0.00201767
-0.00323021
0.000125433
-2.4785e-05
-0.109595
-0.0579797
-0.120857
0.000133683
-0.00354184
0.00145637
-0.00442772
0.000119202
-0.00336597
-0.0607084
-0.0921728
-0.0551218
-3.462e-05
-0.00179095
-0.124753
0.00465783
-0.0806051
-0.120125
1.09726e-05
-0.00432366
-0.00339241
-0.107119
-1.19036e-06
-0.0588089
-0.000457175
-0.00852603
-0.0558932
0.000271098
-0.00375109
-0.00146772
-0.00341339
-0.00838275
-0.102797
-0.0181859
0.000283864
-0.0854702
-0.00176465
0.00219228
-0.121365
-0.0443238
0.000284593
-0.104319
0.000510176
-0.00139613
-0.105219
-0.100437
0.001801
0.00395847
-0.00353126
-0.0714062
-0.0703349
-0.00641823
-0.0862048
-0.0245626
-0.070084
-0.0441651
-0.000541396
-0.010714
-0.0630949
0.00208649
-0.00529473
0.000279677
0.000323759
-0.00768175
-0.0043276
-0.0684969
-0.0277909
0.000324305
-0.0633986
-0.013004
0.000957139
-0.0835799
-0.0812468
0.000630955
0.00259324
-0.0134909
-0.00774657
0.00241367
-0.010004
-0.0249548
0.000755499
-0.0951685
-0.00176969
0.00364516
-0.0490029
-0.130568
-0.068817
-0.155601
0.000270805
-0.0400455
-0.0224549
-0.00509523
-0.0740937
-0.00173357
0.00209567
-0.00142428
-0.0558876
-0.0132895
-0.000544453
-0.0160815
0.0046872
-0.0268748
-0.158326
-0.00834957
-0.0695722
-4.63007e-06
-0.0215034
-0.0953616
-0.108591
0.00521005
-0.0272262
-0.039987
-0.103432
-0.00335758
0.00342706
-0.0273005
-0.0184556
-0.000362893
-0.062992
-0.0843127
-0.158487
-0.0497404
-0.0136243
-0.013966
-0.0796602
-0.0156344
-3.49178e-05
0.00414428
0.00334005
-0.00466815
-1.04204e-05
0.000967048
-0.00427522
-0.0147529
-0.000526155
-0.0528282
-0.082755
-0.116395
-0.0124415
-0.00819172
-0.025216
-0.00349483
-0.00720379
-0.0984104
-0.0111656
-0.0956076
-0.0126127
-0.0707344
-0.00473262
-0.00699353
0.000584884
-0.0152763
-0.0193075
-0.000161393
0.00576693
-0.00127713
-0.0106817
0.000300837
-0.0362203
-0.1218
-0.089455
-0.00586298
-0.0046641
-0.101822
0.00104234
3.30488e-05
-0.151927
-0.0952257
-0.0840842
-0.0236053
-0.00187794
-0.0137996
-0.010329
-0.0801141
0.000523045
0.000655806
-0.00959059
-0.000146985
-0.00388909
-0.031665
-0.00447599
0.000287311
0.000536732
0.00455761
-0.0757782
-0.00416716
-0.0213079
-0.0163036
-0.000133563
-0.082044
-0.0934417
-0.00313798
-0.0030228
6.66489e-06
0.0038986
-0.104845
-8.98946e-05
-0.0901351
-0.0264637
-0.0402702
0.0128393
-0.0233729
-0.103567
-0.0453766
-0.0227319
0.00157111
0.000679347
-8.40278e-05
-0.0871647
-0.125009
-0.013391
-0.000662838
-0.00141482
-0.0745967
6.39104e-06
-0.117515
-0.0620459
0.0020329
-0.0375191
-0.053795
-0.106696
-0.0111391
-0.0145293
-0.0295108
-0.0567648
0.0012259
-0.00773111
0.00425321
-0.0823633
0.000999145
-0.0601927
-0.00757787
0.00213789
0.0107751
-0.124483
-0.010718
-0.0171574
-0.111132
-0.131104
0.000182127
9.83506e-05
6.285e-05
-0.00835922
-0.00591883
-0.00358044
-0.0294929
-0.0890653
-0.0126161
-0.00911907
-0.086827
-0.0412923
0.000411361
-0.00566784
-0.148527
-0.150128
0.000646597
0.000551452
0.000101
7.30664e-05
-0.0172611
-0.00567983
-0.0743346
-0.00774291
-0.10413
-0.0169268
0.000112952
-0.0828581
-0.159069
-0.0280157
-0.00727295
0.000239375
-9.9226e-06
-0.0759195
0.000185813
0.00117523
-0.00160895
-0.0582839
-0.0576647
-0.122753
-0.132377
-0.0548852
-0.0286143
0.0002428
3.0121e-05
-0.000405431
0.000369413
-0.0737814
-0.000103433
-0.00792216
-0.00443274
-0.0464544
-0.0610457
-0.00195849
-0.0656335
0.009697
-0.0783153
-0.00324703
0.000852157
0.00132496
-0.0034071
-0.0606574
-0.0361822
0.000364486
-0.00693101
-0.0179128
2.11703e-05
0.00241544
-0.00211883
-0.130662
-0.00397899
-0.102876
-0.0138638
-0.031546
0.0117513
-0.0180333
0.000375799
-0.0718775
-0.0254484
-0.111056
-0.126385
0.00146629
-0.0103605
-0.103068
-0.00432446
-0.00845989
-0.158651
0.00468846
-0.15879
-0.00474132
-0.0304513
-0.0189861
-0.00305779
-2.66054e-05
-0.0105703
-0.0224474
0.00325029
-0.0487314
-0.0671915
-0.0663428
-0.0337011
-0.0622204
0.000196254
-0.0415385
-0.0555184
0.00637194
-0.0250293
-1.33416e-05
7.34637e-05
0.000259802
-0.0572442
4.26955e-05
0.000135706
2.68126e-05
-0.0920701
-8.10005e-05
-0.0350082
-0.00363546
-6.67734e-06
-0.0162747
-0.0836633
-0.0196935
-0.0303647
-0.0904864
-0.0727325
-0.0259448
-0.0219663
0.00438288
-0.000271704
0.000250267
0.00396173
-0.0475057
-0.000577282
-0.00190405
-0.00411884
-0.00209863
-0.0363481
-0.148221
-0.0219043
-0.0493303
-0.0663385
-0.00823936
0.000534734
0.00260776
-0.0924382
-0.0823624
-0.0258284
-0.0821781
-0.145701
-0.0690102
-0.0286589
0.000443877
-0.00795468
-0.00452298
0.000199138
-0.0746012
0.000134022
4.18316e-05
-0.00166253
-0.000120374
-0.00174649
0.00489344
-0.056976
-0.0488243
-0.013156
-0.00445591
-0.0544607
-0.0762071
-3.35381e-05
-0.0594357
-0.156722
-0.0127109
-0.0509549
0.00636206
0.000736293
-0.0106144
-0.00798477
0.000242948
-0.0609298
-0.0912938
-0.0024223
-0.0214895
-0.0242268
0.00347135
-0.0371553
0.000276326
-0.0149498
-0.000175419
-0.0619136
-0.00785105
0.0142877
0.000240012
-0.0107821
0.000265808
-0.00442881
-0.0109837
-0.103272
0.000360182
-0.00236275
-0.035453
0.000259309
0.00137834
-0.00946839
-0.082607
0.00502247
0.0120852
-0.0650809
-0.032959
-0.0655114
-0.0841354
-0.0263498
-0.0558204
-0.0163315
-0.0240581
-0.158854
-0.0134493
-0.0436453
0.00130272
-0.0482407
0.000103914
-0.000662273
-0.0372879
-0.0927061
-0.0126505
-0.0643232
-0.0236599
0.00155016
-0.0115804
-0.134267
3.29435e-07
-0.139269
-0.0234705
4.97433e-05
-0.000129115
-0.0491753
-0.153796
-0.0780485
-0.0309095
-0.154019
-0.0285856
-0.0778908
-0.15797
-0.0322286
-0.0325683
5.75611e-05
-0.00616655
-0.129849
-0.155795
-1.46265e-06
-0.155199
0.00115135
-0.153498
-0.0639597
-0.00801024
-0.153159
-0.0174151
-0.0140991
-0.0117578
-0.00446399
-0.00767605
-0.067823
-0.00542793
7.59341e-05
0.000761969
-0.0722634
-0.0302402
-0.088987
-0.0214309
-0.00219066
4.93782e-05
-0.0362129
-0.00199322
-0.115792
-0.0110721
8.31994e-06
-0.0920352
-0.0198742
-0.0106302
-0.00852695
-0.0454533
-0.0036696
0.00315795
-0.00553056
-0.156709
-0.00454066
-0.0558217
-0.0526235
-0.100451
-0.0212859
0.000306412
-0.0138523
-0.124339
-0.010708
-0.026115
0.0155205
0.000311749
-0.0301285
-0.00373856
-0.151558
-0.0175419
-0.118718
-0.0233316
-0.0030331
-0.00587687
0.000421304
-0.152667
-0.0693834
0.0154934
0.000376487
-0.129418
0.0120734
-0.0313482
-0.00454759
0.00362546
-0.127064
-0.0167085
-0.157725
-0.0467809
-0.13488
-0.0260612
-0.00500197
-0.157046
-0.00995089
0.00333956
-0.0101997
-0.055521
-0.127497
0.00123689
-0.00208253
0.000338616
0.00303884
-0.0634017
0.000192747
-0.00878432
-0.0678073
-0.0880748
-0.0168721
-0.00794774
-0.159082
-0.0681359
-0.00779397
-0.10053
-0.152055
-0.00276846
-0.00276508
-0.0379082
-0.0670238
-0.0743315
0.0011531
-0.0328737
-0.01669
-0.000259238
-0.0125044
-0.00699195
0.00141131
-0.0105494
-0.126123
-0.00429576
-0.129723
-0.00172995
-0.0852148
-0.041492
-0.0932488
0.00174477
-0.00923278
-0.0489156
-0.0992482
-0.0186214
-0.158508
-0.0621988
-0.106647
-0.0206158
-0.0667468
0.000114699
-0.0123357
-0.145511
-0.122975
-0.00207274
-0.01294
-1.15258e-05
-0.15664
-0.00654587
-4.39123e-05
-0.00537959
-0.0167804
-0.00263603
-0.0159515
0.000260831
2.40792e-05
-0.0587816
-0.0127255
-0.0547858
-0.0812742
-0.0244714
-0.0594752
-0.0491274
-0.00115529
-0.0822082
-0.146807
-0.00329997
5.74168e-05
-0.0106332
-2.05616e-05
-0.00137597
-0.149536
-0.00315562
0.00149007
-0.152016
-0.00156737
-1.90331e-05
-0.0120254
4.84581e-05
-0.145221
0.00506882
1.84107e-05
1.85099e-05
-0.0264663
-0.021586
-0.0695052
0.0010889
-0.102931
-0.000206282
-0.00669294
-0.0757196
-0.000155017
-0.00432927
2.62969e-05
-0.0425809
9.41894e-06
-0.000136997
-0.0360296
-0.00256302
-0.00519797
-0.147668
-0.11665
-0.156746
-0.00232293
-0.0013921
-0.0522796
-0.0809991
1.78783e-05
-0.104419
7.07753e-06
-0.0222254
-0.00252385
-0.0097431
0.00185101
-0.0357946
-0.0549964
-0.0672123
-0.0242062
-0.052347
-0.00741734
-0.0998626
-0.0427438
-0.0768368
-0.000129473
-0.0101799
-0.00761334
-0.0675244
0.0152151
-1.36379e-05
-0.0234881
-0.085184
-0.00802044
-0.00748531
0.00108662
-0.022676
0.0127177
-0.0880795
-0.0745776
0.000307266
-0.00576856
-0.0969038
-0.00214016
-0.0111805
-0.0011722
-0.101106
-0.0382682
-0.148819
-0.0684349
-0.00154717
-0.0335666
-0.0353899
-0.0337251
0.00174362
-0.0115203
-0.00573957
-0.12561
-0.0472436
-0.0707901
-2.38259e-05
0.000101018
-0.121568
0.000311748
-0.150485
0.00998465
-0.0753861
-0.156773
-0.0240381
0.00172559
-0.00581352
0.000305666
0.00480655
-0.00106467
-0.00284969
0.00426347
-0.118185
-0.00552149
-0.011074
-0.0405539
-0.121847
-0.0259052
-0.0810061
-0.0590376
-0.00099558
-0.0966527
-0.0335663
-0.0460457
-0.0430565
-0.00736015
-0.0503726
0.0017682
-0.0819804
-0.0261394
-0.0341412
-0.00759801
-0.0137136
-0.0161397
-0.00186023
0.00101282
-0.0730232
-0.158061
-0.0282325
0.00589407
-0.107883
-0.0252826
0.00123602
-0.0178597
-0.067513
-0.00759854
0.00130163
-0.107713
-0.157486
-0.127906
-0.152747
-0.0325588
-4.78733e-05
-0.0169123
-0.00136676
-0.0967199
7.55223e-05
-0.128684
-0.125883
-0.00831597
-0.00448126
-0.0324517
-0.0280672
-0.107634
-0.00102706
-0.00638815
-0.0135947
-0.0491494
-1.76255e-05
0.000335506
-0.0505471
-8.42236e-05
-0.0136217
-0.0741184
-0.0590896
-0.000404794
-0.0101872
-0.00457009
-0.0936056
0.000297819
0.00068748
0.00133002
-0.0707482
-0.129112
-0.000133689
6.14531e-05
-0.00567514
-0.0588934
-0.100531
-0.00625152
-0.00392549
-0.0740707
-0.00101093
0.000239272
-0.000464752
-0.0913865
-0.162975
-5.93902e-05
-0.14917
-0.0958099
-0.102746
0.00113384
-0.0903981
-0.100478
-0.080081
-0.0237945
-0.00465761
-0.0329629
-0.0010647
-0.0111423
-0.0819642
-0.15804
-0.00297037
-0.068863
-0.000560089
-9.23717e-05
-0.000840723
-0.0280101
-0.0273272
-0.0801538
-0.0060779
-0.000181329
-0.109395
-0.00334503
-0.0161923
-0.00273163
-0.0785877
-0.00839037
-0.0898919
-0.0829944
0.00116036
-0.0228691
-0.082139
-0.102399
-0.00218009
-0.0162778
-0.00486182
-0.0837282
0.00132061
-0.0153104
-0.152818
-0.0661313
-0.0122223
-0.0936869
-0.106861
-0.0484979
1.21649e-05
-0.00980579
-0.0113242
-0.000166548
0.00259268
-0.154631
0.000324263
-0.0639746
-0.0204946
-0.0902189
-0.0842424
0.000186415
8.83853e-05
-0.0713296
-0.157268
-0.025171
-0.135727
-0.106468
-0.117075
-0.0762506
0.00485997
-0.0528854
-0.00991344
-0.0797901
6.03783e-05
-0.0196316
0.000525197
-0.0433724
-2.2958e-07
-0.111725
-0.0270012
-0.00170835
-0.104828
-0.0340048
-0.0976634
-0.0578575
0.00153
0.00122518
-0.138512
-0.101242
-0.00913646
-0.0114779
-0.0106338
-0.118753
-0.0837178
0.000128047
-0.00016637
-0.0668844
-0.0780827
-0.124304
-0.0171012
-0.106854
0.000991716
-0.091926
-0.0725054
-0.0455758
-0.0399387
-0.0105143
-0.0122886
-0.00510853
3.15111e-05
-0.020994
-0.0093074
-0.000974115
-0.0935171
-0.104807
-0.0119765
-0.0644229
-0.0235559
-0.0975
0.00461361
-0.0215743
-0.0316329
-0.127679
-0.00019404
-0.00146234
-0.00494338
-0.095949
-0.0799654
-0.11022
-0.00539306
-0.0861219
-0.12315
-0.0691331
-0.00796688
0.000429015
-0.0174294
0.000359298
0.00097487
-0.0713762
-0.0761649
3.29375e-05
-0.137304
-0.00276643
-0.0729209
-0.0371811
-0.101764
-0.110779
-0.0284335
-0.0119523
0.000685867
-0.00246407
0.000107206
-0.0367553
0.000556366
-0.0714131
-0.0229662
-0.0740618
-0.00633918
-0.0997
-0.108875
-0.0406246
-0.00952101
-0.00533647
-0.0755037
-0.114268
-0.00243141
-0.0257569
-0.00160285
-0.0750974
-0.0279643
-0.0918741
-0.101679
-0.0611486
0.00188996
-0.0779323
-0.061345
-0.0128733
-0.14253
-0.082526
0.00022659
-0.145045
0.00138512
-0.0542338
-0.0058279
-0.0799458
-0.0248585
-0.0636703
0.00595599
-0.102291
-0.0230309
-0.00789068
-0.0844435
-0.0845608
-0.108253
-0.0758678
-0.0249564
-0.115866
-0.159512
-0.00590696
-0.0815988
-0.0037118
-0.000832542
-0.0347345
-0.0800963
-0.0818259
-0.00825027
-0.122617
-0.00662144
-0.000385291
-0.151549
-0.0423077
-0.00422803
-0.0475987
-0.00591893
-0.00445763
-0.135761
-0.05652
-0.0168686
-0.0783326
-0.00246129
-0.044774
-0.0203641
-0.0803112
-0.00241606
-0.0747351
-0.0882287
-0.00419086
-0.0407043
-0.0048011
-0.013914
5.44231e-05
-0.0681208
-0.0326441
-0.107113
-0.0928787
-0.00529868
-0.0160844
7.03408e-05
-0.0898957
-0.0915545
-3.31966e-05
-0.0229941
-0.076324
-0.02548
4.54813e-05
0.00124545
0.000511667
-0.000188481
-0.0625788
-0.00143618
-0.0117163
-0.0905631
0.000179201
-0.0722023
-0.0699881
-0.0273123
-0.0732185
-0.0771714
-0.0628408
-0.0958274
-0.120528
-0.125077
-0.0989765
-0.0215816
-0.101227
-0.0707618
-0.0217753
-0.00696827
-0.00450676
0.00119001
-0.0019312
-0.0197488
-0.000214315
-0.0188082
-0.0565821
0.00177624
-0.152653
-0.0574366
-0.0557037
-0.100868
-0.07841
-0.0164037
-0.0866168
-0.11748
0.00137455
-0.0868166
-0.00701941
-0.0889286
0.00151635
0.00310836
0.000152805
-0.0479239
-0.101233
-0.0805133
-0.0796563
-0.0742029
-0.0161417
-0.0478963
-0.0274431
0.00870539
-0.0762725
-0.0548442
-0.119925
-0.116468
-0.00397435
-0.0807723
-0.028905
-0.0641638
0.00104047
-0.0105621
-0.0715684
-0.07351
-0.0626778
-0.0736797
-0.00179012
-0.0801267
0.000491016
-0.0656656
-0.0689031
-0.159323
-0.0814513
0.00381043
-0.000191782
-0.156846
-0.071472
0.000172694
-0.083366
-0.0567229
-0.000154912
0.000341756
0.000172814
0.000196633
-0.0466727
-0.132678
-0.00588662
-0.0222652
-0.0119525
-0.150901
-0.00104702
-0.087123
-0.0863166
-0.000889965
-0.0133209
-0.0723414
-0.00439739
-0.0738725
-0.0587522
0.0066969
-0.0239049
-0.0486211
-0.0821956
-0.0636371
-0.0650489
-0.0192158
0.000237923
-0.108144
-0.159546
-0.0994768
0.000212324
-0.120164
-0.0727774
-0.00112039
-0.0177579
-0.022233
-0.0223007
-0.126989
0.00030885
-0.00170452
-0.0646808
-0.00131527
-0.0131022
-0.0715303
-0.000805159
-0.0159561
-0.144708
-0.159404
-0.0749562
-0.0362061
-0.058564
-0.000189521
-0.00590322
-0.0838286
-0.0631603
-0.0696681
-0.0836737
-0.0941448
-0.0185899
-0.00507816
-0.0135135
-0.0606651
-0.0155309
-0.110673
-0.0866503
-0.105258
-0.052574
-0.0223643
-0.0927719
-0.0202861
-0.0910157
-0.00562524
-0.021785
-0.0260469
0.000698331
-0.0590396
-0.0205786
-0.00422277
0.000272896
-0.00351958
-0.0736226
-0.0921092
-0.0600417
-0.094045
-0.00725434
-0.0145373
0.00721722
-0.00799087
-0.0245816
-0.0739314
0.00158048
-0.157264
-0.0415865
0.000137022
-0.0499777
6.91922e-05
-0.0922865
-0.0754925
-0.060549
-0.0811827
-0.147961
-0.00815475
-0.0913932
0.000237598
-0.0937284
-0.0838527
-0.0245433
-0.157345
0.000242376
-0.0027631
-0.0235514
-0.0763208
-0.0135692
-0.000353877
-0.0701503