/*--------------------------------*- C++ -*----------------------------------*\
| =========                 |                                                 |
| \\      /  F ield         | OpenFOAM: The Open Source CFD Toolbox           |
|  \\    /   O peration     | Version:  v2012                                 |
|   \\  /    A nd           | Website:  www.openfoam.com                      |
|    \\/     M anipulation  |                                                 |
\*---------------------------------------------------------------------------*/
FoamFile
{
    version     2.0;
    format      ascii;
    class       volVectorField;
    location    "400";
    object      U_0;
}
// * * * * * * * * * * * * * * * * * * * * * * * * * * * * * * * * * * * * * //

dimensions      [0 1 -1 0 0 0 0];


internalField   nonuniform List<vector> 
14315
(
(1.03002 -0.00135938 7.77835e-22)
(1.12715 -0.0222654 -3.89777e-20)
(1.03147 -0.00545857 -4.76736e-23)
(1.06041 0.0065587 -2.11229e-21)
(1.06061 -0.00477661 -8.16336e-21)
(1.03239 0.00267373 4.19466e-22)
(1.03096 0.000118798 -4.25725e-23)
(1.03999 -0.010753 -1.816e-21)
(1.04752 0.0641938 8.07183e-20)
(1.03173 -0.00113602 0)
(1.03109 -0.00124325 1.92684e-22)
(1.03042 -0.00639682 6.566e-22)
(1.11002 -0.0436999 -6.37871e-21)
(1.03812 0.00731257 1.97984e-21)
(1.03109 0.000138215 0)
(1.03846 -0.00552257 3.25645e-21)
(1.03044 -0.000681412 -1.35022e-21)
(0.754659 0.0599782 2.59271e-20)
(1.02836 -0.00121124 5.0903e-23)
(1.03865 -0.00595694 0)
(1.08471 0.0028846 0)
(1.03481 -0.00677969 0)
(1.02078 -0.000143595 7.20631e-24)
(1.03113 -0.00118613 -4.61339e-22)
(1.14158 0.0273088 -5.97309e-20)
(1.04012 0.00736528 -1.7561e-21)
(1.12309 -0.0136477 1.85196e-20)
(1.03176 -0.00119065 -2.3031e-22)
(1.12286 -0.0149862 0)
(1.02613 -0.000292651 0)
(1.08161 0.0275328 0)
(1.02697 -0.000308871 -1.47877e-22)
(-0.0565999 0.0210816 8.60296e-20)
(1.03234 0.00269855 2.30341e-22)
(1.04738 -0.00844647 -9.71082e-21)
(1.02697 -0.000308608 1.35592e-22)
(1.02705 -0.000731537 4.67724e-23)
(1.04706 -0.00780801 0)
(1.0194 -0.000147729 -5.74036e-23)
(1.05158 0.0038107 1.34921e-20)
(1.06579 0.0636155 -5.51274e-20)
(1.04055 0.000998419 -6.11639e-21)
(1.05792 -0.0195916 1.53741e-20)
(1.10164 0.0303708 -3.08464e-20)
(1.09776 -0.0163006 1.88129e-20)
(1.06429 0.0011868 0)
(1.03153 -0.00533391 0)
(1.03157 -0.00125461 7.75823e-22)
(1.03905 -0.006737 7.50625e-21)
(1.05768 -0.0185439 -6.06827e-21)
(1.02693 -0.000700064 0)
(1.10508 0.00447217 -2.82178e-22)
(1.02944 -0.000252869 1.02107e-22)
(1.02977 -0.001125 -3.19722e-22)
(1.02946 -0.000249664 1.15026e-22)
(1.0491 -0.00577668 0)
(1.02841 -0.0312928 -5.76033e-22)
(1.03101 -0.00115035 0)
(1.03993 0.00716827 0)
(1.13846 0.0267784 5.70486e-20)
(1.02961 -0.00105144 2.69141e-22)
(1.0641 0.00165837 1.07577e-20)
(1.07869 0.0183116 0)
(1.02991 -0.0001736 -8.26171e-23)
(1.02972 -0.00159236 -9.06606e-22)
(1.0285 -0.00191001 0)
(1.03151 -0.00563914 1.23574e-22)
(1.08065 0.0268507 0)
(1.04669 -0.00885492 0)
(1.02664 -0.000312804 1.62567e-22)
(1.02987 -0.000560998 -1.436e-22)
(1.03026 -0.000125689 0)
(1.02972 -0.00031626 -1.24335e-22)
(1.04329 -0.00600184 -1.76291e-21)
(1.02904 -0.000524675 7.96487e-22)
(1.03968 -0.0135926 -4.56316e-22)
(1.03021 -0.000112004 0)
(1.07081 -0.0148212 1.20802e-20)
(1.02665 -0.00030992 -1.30043e-22)
(1.10196 0.0359134 -2.83145e-20)
(1.02536 -0.000406307 8.07238e-22)
(0.803475 -0.0179612 0)
(1.03866 -0.00700882 -2.04854e-21)
(1.03057 -6.45147e-05 0)
(1.02971 -0.000235702 9.46567e-23)
(0.655832 -0.0575707 -3.76766e-20)
(1.09764 -0.0175099 -2.34939e-22)
(1.03004 -0.000227301 0)
(1.02994 -0.000244279 0)
(1.03005 -0.0005114 1.39605e-22)
(1.09167 0.000740351 -1.98116e-20)
(0.725422 0.0576678 -5.8563e-20)
(1.10928 -0.0451636 0)
(1.0247 0.000692324 0)
(1.02139 -0.000360016 3.22258e-23)
(1.02529 -0.00038825 -9.21773e-22)
(1.02973 -0.000239327 7.88892e-23)
(1.03099 -0.000269762 -1.40919e-23)
(1.02135 -0.000292631 0)
(1.04015 0.00151786 2.74254e-21)
(1.03319 0.00465325 0)
(1.03411 0.0022584 -6.07204e-23)
(1.01994 -0.000109849 -1.10744e-23)
(1.0589 -0.0128964 0)
(1.03024 -0.000127771 0)
(1.03152 -0.00212618 1.44792e-21)
(1.05104 0.00480143 -6.72796e-21)
(1.07474 0.00641257 -9.33063e-21)
(1.05205 -0.00884003 1.22015e-21)
(1.09885 0.00856901 0)
(1.06487 -0.0215987 0)
(1.0929 0.0303564 -1.57348e-20)
(1.03535 -0.0137457 -7.4919e-22)
(1.11453 -0.0100344 4.86909e-20)
(1.03487 -0.00725024 -1.56017e-21)
(1.10327 0.00490107 2.75011e-22)
(1.05638 -0.0219918 -1.02578e-20)
(1.04732 -0.00867333 6.18348e-21)
(1.04886 0.0288289 0)
(0.710847 -0.0169708 6.69984e-21)
(1.03155 -0.0012718 -2.54941e-22)
(1.03065 -0.000529165 1.21371e-21)
(1.02821 -0.00111938 -1.09233e-22)
(1.08413 -0.01403 -3.84388e-20)
(1.10351 0.0477013 -3.76057e-20)
(1.03139 -0.00307008 5.13388e-22)
(0.716909 -0.0421658 1.08617e-21)
(1.03004 -0.00173318 -6.43427e-22)
(1.03261 -0.00571092 0)
(1.03347 0.00497335 0)
(1.08821 0.032286 0)
(1.13578 -0.0153044 0)
(0.838537 -0.0349024 -3.83235e-21)
(0.705011 -0.0147291 7.52222e-22)
(1.03902 -0.0133273 -2.61847e-21)
(1.0324 -0.00591346 0)
(0.791843 0.0606343 -5.1907e-21)
(1.11268 -0.0124113 -2.35239e-20)
(1.12577 -0.0317659 0)
(0.814655 -0.0434062 0)
(1.09827 -0.0209152 3.96776e-20)
(1.10354 0.048429 -5.94575e-21)
(1.02616 -0.000298458 0)
(1.1348 -0.0172559 0)
(-0.012428 0.0769607 8.97584e-20)
(1.04274 -0.00594033 1.57741e-21)
(1.03517 -0.0134728 -1.74881e-22)
(1.03099 -0.00115777 2.25382e-22)
(1.09049 0.019002 0)
(1.09801 0.00736628 0)
(1.03344 0.00431384 2.14474e-21)
(1.02618 -0.000176079 1.14299e-24)
(1.03124 -0.000180496 8.4437e-23)
(1.01657 -0.000120413 1.27416e-23)
(1.03122 0.000212363 4.7529e-23)
(1.05163 -0.00809228 -9.94875e-22)
(1.05704 0.000887072 -7.5996e-21)
(1.01961 -0.000156738 -8.55221e-25)
(1.02672 -0.0296851 0)
(1.10043 0.0362752 5.94859e-21)
(1.06584 0.00548753 -1.27741e-20)
(1.0425 0.00770013 -2.41986e-22)
(-0.0410377 0.0340017 -5.68352e-20)
(1.09001 0.0209418 -2.56241e-20)
(1.02059 -0.000205636 0)
(0.599353 -0.0586544 -2.99228e-20)
(1.01909 -0.000122896 0)
(1.0618 0.0183194 -1.65694e-20)
(1.02097 -0.000231891 -3.88705e-23)
(1.03192 0.00282654 0)
(1.04459 0.0262403 0)
(0.726563 0.0581151 1.54927e-20)
(1.06177 -0.0270319 7.68955e-21)
(1.06647 -0.00932441 0)
(1.13097 0.04259 0)
(0.89758 -0.0310918 -3.98318e-21)
(1.03068 -0.0063352 0)
(1.03124 -0.00318354 -2.41088e-21)
(1.09451 -0.0101917 1.96462e-20)
(1.11068 -0.00430377 -3.4158e-20)
(-0.0684364 0.0183225 0)
(1.08329 -0.0147686 1.18319e-20)
(1.03319 0.00410529 -2.24379e-21)
(1.05236 -0.0234306 0)
(1.08317 0.00270603 -2.52003e-20)
(0.834924 -0.0172961 7.32821e-21)
(1.066 -0.0219258 5.73785e-21)
(1.06699 -0.0209006 -1.16384e-20)
(1.03192 -0.00573 4.02937e-23)
(1.09118 0.0174999 7.67717e-21)
(1.04188 -0.0110564 -1.89027e-21)
(0.826078 -0.0366108 0)
(1.1254 0.00464226 -3.0041e-20)
(1.02632 -0.000170482 1.0754e-26)
(1.03078 -0.000316084 0)
(1.05157 -0.0105414 -1.1148e-20)
(0.711231 -0.0123133 0)
(1.03322 0.00587161 1.03748e-21)
(1.06644 0.00624036 1.53734e-20)
(1.08707 0.0319771 2.10506e-20)
(-0.0760647 0.0217055 -5.53087e-20)
(1.03161 0.00600917 -1.19666e-22)
(1.03387 0.00260765 0)
(1.04245 -0.00517866 -4.62353e-21)
(1.06048 0.00656721 7.98114e-21)
(1.03212 -0.00362509 -2.09399e-21)
(1.04238 -0.0109294 3.38085e-21)
(1.10187 0.0316109 5.54117e-20)
(1.03102 0.000156461 0)
(1.02651 -0.000165622 1.0901e-24)
(1.03195 -0.00564841 -3.99578e-23)
(1.04348 -0.00657928 2.80731e-21)
(1.11139 0.0133834 0)
(1.06138 0.0176339 3.39617e-21)
(-0.0468412 0.021368 -7.49728e-20)
(1.06945 0.00421485 0)
(1.09617 0.0513366 0)
(1.03321 0.00525484 0)
(1.03341 0.00374386 0)
(1.01954 -0.000240383 3.76994e-23)
(1.1021 0.0556055 0)
(1.04835 -0.0057625 -3.11734e-21)
(1.10274 0.0567637 0)
(0.858024 -0.0351582 4.1859e-21)
(1.06918 -0.0155559 -2.41052e-20)
(1.06278 0.00802594 0)
(1.05515 -0.0219494 6.16209e-21)
(1.08855 0.0204733 1.18495e-20)
(1.02798 -0.00115036 1.25648e-22)
(1.06425 0.0143243 0)
(1.051 -0.0107374 5.58834e-21)
(0.986398 -0.0334644 -2.93854e-20)
(1.03142 -0.00515462 0)
(1.03083 -0.000361909 1.6438e-23)
(1.05808 -0.00178572 -1.12717e-20)
(1.06799 -0.00467232 0)
(1.10022 0.0297641 5.06293e-20)
(1.05887 -0.0144909 -1.24192e-20)
(1.04381 -0.0173518 -3.31504e-21)
(0.793975 0.059877 -1.74302e-20)
(0.342887 -0.0354812 4.95039e-20)
(1.08333 0.0197442 -1.01374e-20)
(1.02867 -0.00197719 0)
(0.906582 -0.0327269 0)
(1.10084 0.0561008 0)
(1.03237 0.000376448 2.36595e-23)
(0.242578 -0.0322661 2.30809e-20)
(1.03101 1.90949e-05 0)
(1.02784 -0.00109283 -9.88164e-23)
(1.02548 -0.000511595 3.75646e-22)
(1.05707 0.00148884 -8.62777e-21)
(1.02982 -0.000595951 1.31655e-22)
(0.775879 0.0374851 -2.66226e-20)
(1.02726 -0.000734032 1.13931e-22)
(1.04044 -0.0109326 2.80355e-22)
(0.970052 -0.0275541 -3.8154e-20)
(0.876097 0.0521938 0)
(1.09234 0.0441483 1.91712e-20)
(-0.0130139 0.0827272 0)
(1.04187 -0.00529925 0)
(1.03412 -0.0201817 -2.76271e-22)
(1.05956 -0.00228685 -1.5346e-20)
(1.06909 0.00516062 0)
(0.794919 0.0394385 5.72584e-20)
(1.07025 0.0176647 2.38691e-20)
(1.10627 0.0373061 0)
(1.05019 -0.0284905 -3.92615e-21)
(-0.0857561 0.0209736 0)
(1.08289 0.00436337 -2.61363e-20)
(1.08049 0.0258504 0)
(1.02764 -0.0276769 -1.19711e-21)
(1.02525 0.00117399 0)
(1.02362 -0.000331214 -1.84769e-22)
(1.0323 0.000216861 0)
(1.01933 -0.000173376 -1.57909e-23)
(1.03104 8.06836e-05 4.67228e-23)
(1.11468 0.0300877 4.59026e-20)
(1.02601 -0.000182293 -2.29257e-24)
(1.06033 0.0198196 1.4215e-22)
(1.08168 0.00481748 1.18298e-20)
(1.02904 -0.000520666 8.64128e-22)
(1.0907 0.019878 2.68327e-20)
(1.03775 -0.00734202 -4.65279e-23)
(1.07631 0.0296545 0)
(1.06 -0.00357017 1.59234e-20)
(0.993793 0.0626364 -3.8777e-20)
(1.12822 -0.035333 3.51217e-20)
(1.0709 0.00533725 4.37604e-21)
(1.03056 2.07221e-05 -6.88282e-23)
(1.0299 -0.000717442 4.78295e-22)
(1.11398 0.0143675 3.11244e-20)
(1.03146 0.00600522 -1.42122e-21)
(1.01808 -0.000137316 -4.17788e-24)
(1.10487 0.045969 0)
(1.02615 -0.000293834 0)
(1.043 0.00811663 4.27837e-21)
(1.03077 -0.000125143 -6.94818e-24)
(-0.0164486 0.0628235 0)
(1.037 0.00435285 -1.71279e-21)
(0.792074 0.00138392 0)
(1.0835 -0.0177909 0)
(1.038 0.00661699 -1.04689e-21)
(1.03884 0.00745784 -6.03704e-21)
(1.0564 -0.0208655 1.02548e-20)
(1.06104 0.00770446 0)
(1.03122 -0.000142919 0)
(1.05953 -0.0141642 6.58008e-21)
(1.08416 -0.0166052 -3.07583e-20)
(1.06991 0.0170474 -1.72703e-20)
(1.07911 0.0186363 3.89547e-21)
(1.02781 -0.000204103 4.62926e-23)
(1.02779 -0.000200937 7.71896e-23)
(1.08124 -0.00961558 -2.43665e-20)
(1.09644 0.00791067 0)
(1.0501 -0.024844 3.73357e-21)
(1.03205 0.0663294 6.71942e-20)
(0.68096 -0.0162343 3.18041e-21)
(1.03367 -0.0201071 -3.96492e-22)
(1.01917 -0.000193272 1.90686e-24)
(0.79793 0.0609792 -5.03358e-20)
(1.04445 0.0133756 0)
(1.03961 0.00212665 -4.90614e-21)
(1.02925 -0.00285785 -1.69394e-23)
(1.03655 0.00389287 0)
(1.03012 -0.000474469 0)
(1.07274 0.00595222 0)
(1.09679 0.0520549 1.78481e-20)
(1.02954 -0.00157874 2.49689e-21)
(0.722312 -0.0134336 -1.51047e-21)
(1.03081 -9.87997e-05 1.16453e-23)
(0.813889 0.0600399 2.40206e-20)
(1.10049 0.0569637 2.24167e-20)
(0.706296 0.0578049 6.0008e-20)
(1.10783 0.0555739 -7.95263e-21)
(1.11212 0.0162234 0)
(1.02304 -0.000287529 -4.56882e-24)
(1.02824 0.0017448 0)
(1.06531 0.0137632 0)
(1.13147 0.042697 -7.93075e-21)
(1.05199 -0.00915003 4.43196e-21)
(1.07945 0.0257674 0)
(1.13164 0.018996 4.03864e-20)
(0.728281 0.0582566 -5.21226e-20)
(1.03201 -0.0070721 -8.62386e-24)
(1.02304 -0.000257322 -5.40791e-24)
(0.787739 0.0608654 3.49444e-20)
(-0.0355457 0.0424615 0)
(1.04656 0.0639663 -2.73244e-20)
(1.02674 -0.000690878 0)
(1.0513 -0.00952916 7.58981e-21)
(1.13981 0.0207512 5.44277e-20)
(1.10604 0.0560065 1.82922e-21)
(1.02818 -0.000163297 -8.28478e-22)
(1.03073 3.06861e-05 -2.42582e-24)
(1.07627 0.0290755 -2.30156e-20)
(1.09922 -0.0187296 -1.61095e-22)
(1.0826 0.0184707 1.053e-20)
(1.14024 0.0234143 -2.14171e-21)
(0.991005 -0.0302842 0)
(1.03095 -7.08561e-06 -1.05562e-22)
(1.08141 0.0160291 0)
(-0.0372926 0.0412057 0)
(1.02831 -0.000231163 0)
(1.03036 -0.000118299 3.73798e-22)
(1.02831 -0.000232633 0)
(1.07047 0.00509068 0)
(1.09556 0.00660307 0)
(1.04318 -0.0170008 0)
(1.05918 -0.016725 1.40659e-20)
(1.02938 -0.0013987 1.20915e-21)
(1.12401 0.00219688 3.90203e-21)
(0.0445036 0.0357414 -1.59574e-20)
(1.08025 0.00612772 -1.36614e-20)
(1.00757 0.065546 -3.69751e-20)
(1.01804 -0.000115454 3.42472e-24)
(1.03846 -0.00488349 1.88635e-21)
(1.03009 -0.00489237 0)
(0.0196969 0.0444705 0)
(1.07881 0.0301495 -1.0615e-21)
(1.0304 -0.000717722 0)
(1.05173 -0.0278057 -4.72551e-21)
(1.03818 -0.00731959 0)
(1.11502 0.0313741 -3.80379e-20)
(1.03098 -0.00620734 8.77045e-22)
(1.03061 5.13619e-05 3.42985e-23)
(1.09634 -0.00632493 9.69235e-21)
(1.02855 0.00295646 0)
(1.06024 -0.0120684 -1.0249e-20)
(1.09908 -0.0184405 0)
(1.10075 0.0326532 -3.10674e-20)
(1.13057 0.0309948 -1.2799e-20)
(1.06291 -0.0249238 8.83316e-21)
(1.02988 -0.000179442 1.00235e-22)
(1.01824 -0.00010448 -2.43009e-25)
(1.03873 -0.0142259 0)
(1.01685 -0.000122767 1.68877e-24)
(1.02382 -0.000334984 1.2058e-22)
(1.06803 -0.00503461 6.04099e-21)
(1.03817 -0.0139013 0)
(1.02853 -0.0147421 0)
(1.02964 -0.000348007 1.27249e-22)
(1.03126 -0.00212972 -1.408e-21)
(1.0458 -0.0408834 1.57921e-21)
(1.06402 0.0147492 -1.24684e-20)
(1.10831 0.01643 -6.35239e-20)
(1.10449 0.0558242 0)
(0.932452 -0.0338677 -3.09795e-20)
(1.09294 0.0300196 -1.20648e-20)
(1.09333 -0.00698622 8.55772e-21)
(1.07805 0.0292078 -1.32991e-20)
(1.0276 -0.000248885 1.26271e-22)
(1.03868 -0.00527228 3.90281e-21)
(1.02671 -0.00108726 1.68799e-22)
(-0.0141938 0.0841751 1.54699e-20)
(1.08782 0.0218103 -1.24777e-20)
(1.0682 -0.0214538 1.18873e-20)
(1.06277 -0.0255714 -8.37102e-21)
(1.09616 -0.0118396 0)
(1.05928 -0.0120519 0)
(0.812388 -0.00788663 8.36161e-22)
(1.02933 0.00301263 -1.60175e-22)
(1.08189 0.0628822 2.31152e-20)
(1.10239 0.0371161 2.75842e-20)
(1.03842 0.00598779 -5.6932e-22)
(1.02818 -0.00012065 8.13377e-25)
(1.0799 -0.00998448 2.37462e-20)
(1.09213 -0.00457546 -8.56411e-21)
(1.04407 -0.00659811 0)
(1.0279 0.00161761 0)
(1.12485 -0.0203424 -1.06769e-20)
(1.09699 0.0581678 -2.07609e-20)
(1.03187 -0.00715792 3.7731e-22)
(1.03144 -0.00288275 3.15478e-22)
(1.09343 -0.0330928 0)
(1.03073 -0.00664904 -1.84437e-21)
(1.02761 -0.000248032 -4.40754e-23)
(1.0659 0.0637077 1.29955e-21)
(1.10496 0.0389443 2.16427e-20)
(1.09177 -0.00014374 -9.66256e-21)
(1.03171 0.00299468 0)
(1.11682 -0.00374674 0)
(1.0264 -0.000283081 -7.91887e-23)
(1.03194 0.00567229 5.71522e-22)
(1.09945 0.0573055 0)
(1.13848 0.0223007 -2.46102e-20)
(1.1121 0.0155814 -1.4017e-20)
(1.02638 -0.000276989 1.24051e-22)
(1.02654 -0.000265895 1.08042e-22)
(1.02353 -0.000366605 -7.28472e-23)
(1.03311 -0.00345751 -1.81563e-23)
(1.03097 -0.00736822 4.87178e-22)
(1.03127 -0.00292461 -1.3467e-21)
(0.753317 -0.0133344 0)
(0.761421 -0.00740621 0)
(1.02666 -0.000271942 0)
(0.0514442 0.0163889 -9.49892e-20)
(1.02618 -0.000174947 0)
(1.03287 0.00232072 -3.7953e-22)
(1.07063 -0.00359256 -3.98412e-21)
(1.04694 -0.0274334 -4.7544e-21)
(0.877189 -0.000216124 -6.42968e-22)
(1.01785 -0.00011104 -1.93625e-24)
(1.09143 0.0453923 -4.07127e-20)
(0.968307 0.0198227 2.10051e-20)
(1.11573 -0.00689335 3.28781e-20)
(1.02629 -0.000174498 0)
(0.741296 0.059303 -3.10411e-20)
(1.12188 0.0561273 6.0228e-20)
(1.02805 -0.0137855 -5.0923e-22)
(1.03059 -0.000816898 0)
(1.11136 0.0017065 -1.81421e-20)
(1.06408 -0.0237682 4.58097e-21)
(1.04384 -0.00395946 0)
(1.05868 -0.0025153 7.79681e-21)
(1.02846 -0.00204902 5.32807e-22)
(1.07442 0.00734352 3.86989e-20)
(1.10103 0.0338761 4.477e-20)
(0.807115 0.000207524 1.70865e-23)
(1.04964 0.00322245 1.60604e-21)
(1.03064 -0.000861209 2.52676e-22)
(1.03088 -0.000568069 -5.25974e-24)
(1.02741 -0.000161565 0)
(0.728036 -0.0129078 5.47623e-21)
(1.05141 -0.0234321 0)
(1.06076 0.0206146 6.26582e-22)
(0.835817 -0.00795024 -8.65258e-22)
(1.11276 -0.0042162 0)
(1.03746 -0.00791925 -1.30116e-21)
(1.12692 -0.0235997 2.21653e-20)
(1.06559 -0.00784344 0)
(1.1232 0.0561284 2.23963e-20)
(1.01897 -0.000303119 1.55998e-23)
(1.03238 -0.00365146 0)
(1.04914 -0.0246258 0)
(1.13899 0.0175142 -1.09567e-20)
(1.09481 -0.00434632 8.53842e-21)
(1.10394 0.0442437 0)
(1.04009 -0.0100315 1.84359e-21)
(1.06699 -0.00556531 -2.67156e-20)
(1.02551 2.89758e-05 -1.22177e-21)
(0.0600077 0.0154416 3.56242e-20)
(1.03008 -0.000362871 -1.45662e-22)
(0.25798 -0.0501681 0)
(1.02491 -0.000485712 -3.02526e-22)
(1.0778 -0.0473256 0)
(1.0296 -0.000674817 1.3473e-22)
(1.02808 -0.000119023 0)
(1.02121 -0.000230286 2.53366e-23)
(1.07205 0.00535227 -4.63072e-21)
(1.02985 -0.000173502 -3.97947e-22)
(1.09058 -0.0340858 -3.3424e-21)
(1.04946 -0.00645849 0)
(1.06024 -0.00283448 -4.86807e-23)
(0.559705 -0.0154193 1.39951e-20)
(1.03077 -0.0041385 2.56563e-22)
(1.09334 -0.00195856 2.06388e-20)
(1.07039 -0.0206512 -7.38509e-21)
(1.04599 -0.0408055 -1.52832e-21)
(1.02227 -0.000173394 3.78957e-23)
(1.0282 -0.000525221 0)
(1.02188 -0.000236223 -2.68251e-23)
(0.87107 -0.00850123 5.21921e-23)
(1.02804 0.000366818 0)
(0.73071 0.0595285 -1.606e-20)
(-0.0158538 0.0778712 -2.33706e-22)
(1.03033 -0.00602645 1.83043e-21)
(1.07941 0.0167799 0)
(1.09577 0.0356217 3.67193e-20)
(0.819434 0.0597645 -2.55918e-20)
(1.02139 -0.00019775 -6.30918e-22)
(1.05765 -0.0197526 7.0406e-23)
(1.03067 0.00322369 1.4091e-22)
(1.04014 0.0016141 0)
(1.02655 -0.000700732 0)
(1.03207 -0.00602206 0)
(1.03781 -0.00793919 2.90265e-21)
(1.07226 0.0232706 -2.81656e-20)
(1.0281 -0.000189926 0)
(0.735257 0.0337704 8.19954e-20)
(1.02809 -0.000188073 -5.77785e-23)
(1.0251 -0.000383305 7.06714e-22)
(0.845403 0.0602595 1.28402e-20)
(-0.0323925 0.0459962 6.48557e-20)
(1.03064 -8.51179e-05 0)
(1.0323 -0.00596051 0)
(1.03053 -0.000109058 0)
(1.02318 -0.000314002 2.90967e-23)
(1.03121 0.00298124 1.43075e-21)
(1.00388 0.0635189 5.01798e-20)
(1.0322 -0.00581372 0)
(1.03098 -0.00446258 4.78733e-23)
(1.03325 -0.00366569 -8.31691e-22)
(1.02306 -0.000327563 1.21258e-22)
(1.02925 -0.00140568 -1.81203e-21)
(1.10699 -0.00287892 3.05794e-20)
(1.04709 -0.0110415 0)
(1.03845 -0.0043396 1.80695e-23)
(1.08072 0.0152435 0)
(1.03749 -0.00839457 -1.49125e-21)
(1.03229 -0.00567153 0)
(1.0568 0.0130124 -1.50693e-20)
(1.0296 -0.00447439 1.51078e-22)
(1.08911 -0.00484773 8.16466e-21)
(1.14142 0.0258424 3.695e-20)
(1.11156 0.0562241 0)
(1.03073 0.000468868 0)
(1.05266 -0.00609432 9.17495e-21)
(1.03193 0.00290711 0)
(0.785251 -0.0302114 8.09047e-21)
(1.0326 -0.019074 -2.74234e-23)
(1.03 -0.00254085 8.8132e-22)
(1.02416 0.000235316 1.16755e-21)
(1.03218 -0.0198857 0)
(1.03111 0.000151597 -1.15222e-22)
(1.06403 -0.0517482 -5.95384e-21)
(1.02866 0.000426752 3.14299e-23)
(1.03062 0.001581 0)
(1.0372 0.00769656 -6.2222e-21)
(1.11303 -0.0144139 0)
(0.791502 0.0595803 -2.58967e-20)
(1.04959 -0.0146103 6.76729e-21)
(1.14081 0.000215459 3.87022e-20)
(1.03971 -0.034588 0)
(1.03082 -0.000149398 -2.07183e-24)
(1.02299 -0.000317473 0)
(0.740165 0.0589909 -1.35008e-20)
(1.02896 -0.00018888 0)
(1.03049 0.00274944 -4.25007e-23)
(1.02885 -0.00101785 0)
(0.743708 -0.00606041 6.56941e-22)
(1.03074 3.39207e-05 0)
(1.03276 -0.00556258 -1.53212e-22)
(1.08867 0.0436527 0)
(0.971549 -0.034308 -2.79955e-21)
(0.876267 0.0517922 -4.01389e-20)
(-0.0166706 0.0748685 0)
(1.01766 -9.33509e-05 -8.61499e-24)
(1.03121 0.000247189 0)
(1.04931 0.0379788 7.04841e-20)
(1.07772 -0.00977219 -2.72855e-20)
(1.04902 0.0669128 -4.9234e-21)
(1.03352 0.00559561 6.40748e-23)
(1.04242 -0.0169142 1.5393e-21)
(1.03108 -0.00130668 1.5185e-22)
(1.0298 -0.000183004 0)
(1.0464 -0.0106791 2.36198e-21)
(1.03795 -0.00435528 0)
(1.0283 -0.0130494 0)
(1.0372 0.00613519 3.52684e-21)
(1.02288 -0.000193232 4.58222e-23)
(1.10473 0.020319 -3.24944e-22)
(1.02283 -0.000186717 -1.51323e-23)
(1.07174 0.0240775 0)
(1.03055 -0.000141296 0)
(1.02418 -0.000326832 7.77455e-23)
(1.04457 0.0123943 7.67877e-21)
(1.02197 -0.000354415 -1.10433e-23)
(0.260287 -0.0447315 0)
(1.04585 -0.0268407 -1.48904e-21)
(1.04313 0.00605325 3.75069e-22)
(0.959424 0.0177117 -3.60389e-20)
(1.03087 -0.00432981 -3.19015e-22)
(1.09759 0.0563533 5.08983e-21)
(0.663733 0.0297693 1.12765e-20)
(1.03103 -0.00746645 -1.78986e-21)
(1.0305 -0.000773531 0)
(1.04363 0.0064011 4.79688e-21)
(1.11571 -0.0348325 0)
(1.0772 0.0306944 0)
(1.02194 -0.000354835 -4.69743e-23)
(-0.0319066 0.044973 -6.96081e-20)
(1.10228 0.0467111 5.16942e-20)
(1.0576 0.0128148 1.009e-20)
(0.441474 -0.0558965 0)
(1.02986 -0.00258898 0)
(1.07008 -0.02328 0)
(1.02305 -0.000327158 2.91338e-23)
(1.06715 -0.0504892 7.87361e-21)
(1.04481 -0.0172472 0)
(1.0275 -0.000217024 5.64402e-23)
(1.10001 0.0289331 -3.94504e-20)
(1.0327 0.0029656 2.34451e-21)
(1.07637 -0.00249339 -1.28525e-20)
(1.04984 -0.0215038 3.75144e-21)
(1.0923 0.0438428 -9.97085e-21)
(1.11115 -0.0151357 0)
(1.03122 -0.00226554 3.17221e-22)
(1.04672 0.00353348 -3.02627e-21)
(1.03088 -0.00637651 0)
(1.03135 -0.00241441 -9.21528e-22)
(1.03764 0.00145549 -4.69168e-23)
(1.04795 -0.0169741 -2.64912e-21)
(0.874805 -0.037691 -8.32863e-20)
(1.02869 -0.0010067 -3.7571e-22)
(1.09658 0.0343012 -5.36083e-20)
(1.02712 -0.000147543 0)
(1.12508 -0.0163984 0)
(1.04199 -0.0164057 1.39914e-21)
(1.09845 0.0332472 1.3769e-20)
(1.02897 -0.000189406 -1.84539e-21)
(0.437993 -0.0267094 1.20797e-21)
(1.02991 -0.00294627 -7.91552e-22)
(1.08137 0.00614082 -1.50775e-20)
(0.136496 0.00709164 -7.97688e-20)
(1.06976 -0.00497745 -8.38025e-22)
(1.02647 -0.000989097 1.3247e-22)
(0.0876151 0.0161929 0)
(1.07663 -0.0443405 6.73067e-21)
(1.02972 -0.00283785 0)
(1.03781 0.00682473 -4.81497e-21)
(1.10969 0.0144226 -6.78699e-21)
(0.873689 -0.010207 -1.02543e-22)
(1.13593 0.00860131 0)
(1.03049 0.000554021 6.67226e-22)
(0.92893 -0.0122257 8.40938e-23)
(1.03183 -0.00588913 0)
(1.08225 -0.0211722 2.57923e-20)
(1.0609 0.00848943 0)
(0.779511 -0.0365099 1.8114e-21)
(1.0275 -0.000217153 1.10957e-22)
(1.03131 -0.00497172 0)
(1.02384 -0.000429114 2.91052e-23)
(1.03118 -0.00605719 3.56017e-22)
(1.07897 -0.00901919 3.44364e-20)
(1.1434 0.00739708 1.16286e-20)
(0.800997 -0.00913111 -8.62022e-21)
(1.05606 -2.88459e-05 0)
(1.04415 -0.00348512 0)
(1.0317 -0.0057631 0)
(1.04492 0.0115914 -7.75324e-22)
(1.02777 -0.000129878 0)
(0.75937 0.0585884 0)
(1.05248 -0.00486522 0)
(1.0358 -0.0191519 0)
(1.03957 -0.00970515 1.90953e-21)
(1.02643 -0.00096013 -1.08818e-23)
(1.03957 -0.00922083 -5.67612e-21)
(0.949662 -0.0546629 9.09264e-22)
(1.11187 0.000278973 0)
(1.14034 0.0188571 2.50565e-20)
(1.02763 -0.00111542 5.41479e-23)
(1.05527 -0.00047581 5.49617e-21)
(1.03033 -0.000327693 -2.93162e-22)
(1.05308 -0.00676375 -4.6829e-21)
(1.04796 -0.00533227 2.90586e-21)
(1.11521 0.0170975 0)
(1.02771 -0.000128718 -4.43496e-26)
(1.03701 0.00599462 -2.04313e-21)
(-0.0160163 0.0741941 2.70502e-20)
(1.12995 0.0288421 0)
(1.03112 -0.000764037 -1.99767e-23)
(1.03237 0.00533269 -1.14615e-21)
(1.02681 -0.00116516 3.72975e-22)
(0.807307 0.0601559 -6.2967e-20)
(1.06298 -0.0534097 1.11425e-20)
(1.03075 -0.00410023 2.38973e-23)
(0.775752 -0.0087665 2.73638e-21)
(1.03233 -0.0072206 4.02379e-23)
(1.0309 -0.00033861 1.29984e-23)
(1.10562 0.018293 0)
(1.04771 -0.000396466 0)
(1.03784 0.00790758 4.57486e-21)
(0.894499 -0.0188678 5.62462e-20)
(1.11018 0.056472 1.54898e-20)
(1.03088 -0.0064244 2.01708e-21)
(1.04731 -0.0238356 0)
(1.02415 -0.000343744 -6.92396e-22)
(1.03124 -0.00644671 0)
(1.1008 0.0263206 -1.96573e-20)
(0.698557 0.0552386 -2.04488e-20)
(1.03005 -0.000778606 -2.4422e-22)
(1.10555 0.017748 5.44052e-20)
(1.09768 0.0583365 3.06737e-20)
(1.11017 -0.00184226 0)
(1.11185 0.0125279 4.46775e-20)
(0.708107 0.0586285 0)
(0.812106 0.0608221 2.1141e-20)
(1.03058 -0.000922662 7.40879e-23)
(1.0669 -0.00632437 1.70361e-20)
(1.09506 0.030221 -1.85149e-20)
(1.03544 -0.0196358 8.58098e-22)
(1.03765 -0.00127001 -3.72728e-21)
(1.02737 -0.000139966 0)
(1.0884 0.0331281 -9.24168e-21)
(0.163532 0.00762642 -2.07828e-20)
(1.03108 -0.00464675 0)
(1.06086 0.00554307 5.75537e-21)
(1.06441 -0.0291601 1.1322e-20)
(0.757681 -0.0322516 -3.98375e-21)
(1.03179 0.00035903 -9.30222e-23)
(1.04316 -0.0295892 0)
(1.03162 0.00397358 -1.12738e-22)
(1.08906 -0.00448597 0)
(1.01809 -0.000173573 0)
(1.0335 -8.45776e-05 0)
(0.75288 0.0605121 -2.0428e-20)
(1.11317 -0.0349508 0)
(1.13601 -0.00820952 5.94903e-20)
(1.0501 -0.013258 -9.05646e-21)
(1.03098 -0.000250258 1.36898e-24)
(0.0620561 0.00448509 -2.61064e-20)
(0.989193 -0.008509 1.16465e-22)
(-0.0165665 0.0298057 0)
(1.07636 -0.00335923 -6.68739e-21)
(1.09327 -0.00160994 -1.06821e-20)
(0.969502 0.0543002 -6.13611e-20)
(1.02765 -0.000231277 -4.46569e-23)
(1.03055 -0.000361242 1.23985e-21)
(1.09698 0.0427484 -3.74377e-20)
(1.03188 -0.00421886 2.79771e-21)
(1.05298 -0.00538539 -1.02645e-20)
(1.02753 -0.000226203 -1.39287e-22)
(1.06503 -0.0533289 -2.48006e-20)
(1.02862 -0.000183858 4.37051e-23)
(1.02947 -0.00175727 5.47212e-22)
(1.02771 -0.00162378 0)
(0.977838 0.0635397 2.30997e-20)
(1.02565 -0.000312496 0)
(1.0556 0.0137774 3.72458e-21)
(0.90716 -0.0175614 -2.71735e-20)
(1.04066 0.00739036 1.95667e-21)
(1.10783 0.0518488 -1.78456e-20)
(1.02672 -0.000718087 0)
(1.04888 -0.01581 -3.04209e-21)
(1.03619 0.00325565 1.66268e-21)
(1.02565 -0.00031261 0)
(1.14322 0.0110614 -2.69548e-20)
(1.01878 0.0380048 -1.57435e-20)
(1.0448 0.0128699 -5.72745e-21)
(1.031 0.00317357 0)
(1.03063 0.00490906 -1.40726e-21)
(1.13417 -0.00620054 -2.14368e-20)
(1.03035 -0.000407822 -1.18893e-21)
(1.02959 -0.0018817 5.20111e-22)
(1.08078 0.0172118 0)
(1.03511 0.000513304 0)
(1.00494 0.0350484 5.64548e-20)
(1.02862 -0.000183878 -2.96078e-23)
(1.03021 0.00205955 -2.98076e-22)
(1.03024 -0.000798965 0)
(1.03111 -0.000447272 0)
(1.09384 0.0318025 0)
(1.03749 0.00233515 -1.58481e-22)
(1.03459 -0.00658648 0)
(1.03945 -0.0342812 0)
(1.0273 -0.0010932 0)
(1.03228 0.000462007 -2.46063e-23)
(1.02744 -0.00112233 1.67927e-23)
(1.03672 0.00344007 8.75736e-23)
(1.03715 -0.00146452 4.352e-21)
(1.0627 -0.0300838 -5.03303e-21)
(1.0545 0.0173655 7.51427e-21)
(1.03241 -0.00207655 0)
(1.07862 0.0345359 0)
(1.03566 -0.00673076 0)
(1.07356 0.0103056 0)
(0.887918 -0.011937 -5.90501e-23)
(1.05082 -0.0216552 0)
(1.03109 -0.000464279 0)
(1.08236 -0.0123312 -5.66811e-21)
(1.10482 0.016189 -5.4506e-20)
(0.757763 0.0377037 -4.25106e-20)
(1.03394 -0.00938423 0)
(1.03853 -0.0201027 -9.88868e-22)
(1.06384 0.00699927 2.12768e-20)
(1.02904 -0.0506538 -4.36098e-21)
(1.06388 -0.0223105 -5.15097e-21)
(1.03306 -0.00869223 0)
(1.08681 -0.0222983 -1.51043e-20)
(1.03105 -0.00629419 -9.37707e-22)
(1.06879 -0.00347854 7.93907e-21)
(1.07391 0.0056817 1.03304e-20)
(1.0572 -0.00223568 1.87147e-20)
(1.02926 -0.00262929 0)
(1.10774 0.0524077 -1.7195e-20)
(1.11169 0.0502058 -2.51558e-20)
(1.05781 -0.00520126 0)
(1.03532 -0.00655568 9.32251e-22)
(-0.0384918 0.0158564 -4.17901e-20)
(1.09363 -0.0154433 0)
(1.02169 -0.000279459 8.93848e-23)
(1.03094 0.0665301 -2.5965e-21)
(1.10482 0.0392092 -3.63974e-20)
(1.03547 -0.0123537 -1.36193e-21)
(1.02837 -0.000178388 0)
(1.08396 -0.0130535 3.2803e-20)
(1.02135 -0.000235981 6.93168e-23)
(1.03417 -0.00318078 0)
(1.03271 0.00581481 1.14261e-21)
(1.02714 -0.00110914 -2.88952e-23)
(1.04784 -0.0176958 3.15655e-21)
(1.03179 -0.00353281 4.59421e-22)
(1.08988 -0.0312446 3.25778e-20)
(1.02805 -0.0120831 -1.23047e-21)
(1.06028 0.0217331 -6.08607e-22)
(1.03157 0.00129313 0)
(0.889311 -0.0133301 0)
(1.04157 -0.00474558 0)
(0.960823 0.056142 4.1192e-22)
(1.03238 -0.000376915 7.52848e-23)
(1.07533 0.0283536 -2.13474e-20)
(1.02747 -0.00108372 3.39188e-23)
(1.03711 -0.00840219 2.61482e-21)
(1.09573 0.0309303 0)
(1.05459 3.10494e-07 5.44183e-21)
(1.02356 -0.000113313 1.30195e-21)
(1.06888 0.0168838 1.80135e-20)
(1.10525 -0.00117662 -3.56583e-20)
(0.249598 -0.0241453 -5.68599e-21)
(1.03099 0.00385141 1.68065e-22)
(1.06862 0.0262567 0)
(1.02206 -0.000318595 0)
(1.04413 -0.0258503 -2.27399e-21)
(0.282784 0.021314 -1.31439e-20)
(1.04102 -0.00481123 0)
(1.01873 -0.000148303 1.2335e-24)
(1.03238 0.000145892 1.28897e-23)
(1.03658 0.00349978 -3.55545e-21)
(1.03455 -0.00825669 0)
(0.83523 -0.00380241 -1.44641e-21)
(1.09202 -0.00401213 0)
(1.09321 0.0524106 3.46599e-20)
(1.0316 -0.0007051 -1.89355e-23)
(0.00288678 0.0460572 -2.02524e-21)
(0.467027 -0.0206489 -4.12841e-21)
(1.10907 0.0625251 0)
(1.09602 -0.0213707 -2.94498e-20)
(1.03006 -0.000840443 0)
(0.113748 0.0211412 5.18778e-20)
(1.03308 0.00593628 0)
(1.03041 -0.00096692 0)
(1.02984 -0.00101818 3.53346e-22)
(1.06471 0.00662725 9.62804e-21)
(1.03442 0.00214537 -4.67188e-23)
(0.67237 -0.0204045 -8.04716e-21)
(1.04855 0.00854 7.9897e-21)
(1.03567 -0.0125957 1.06672e-21)
(1.02343 -0.000300219 -3.00353e-23)
(1.04846 -0.0241754 3.22129e-21)
(1.09054 -0.00662908 -8.70667e-21)
(1.03684 0.00364942 -8.32402e-23)
(1.11762 -0.0112189 -5.00844e-20)
(1.02157 -0.000270321 2.18199e-23)
(0.939245 0.061475 -5.13213e-20)
(1.03118 0.0013375 5.90596e-22)
(0.392189 -0.0549213 -7.87968e-21)
(1.03153 -0.000651362 0)
(1.10783 0.0386526 -1.4259e-20)
(1.02514 -0.000359016 0)
(1.02962 -0.00124651 9.48333e-23)
(1.04193 -0.028956 0)
(1.06363 0.00788412 -1.22258e-20)
(1.03471 0.00698607 -3.49701e-23)
(1.03154 0.000525588 -1.52321e-24)
(1.05095 0.00769351 -4.76946e-21)
(1.07091 -0.021654 2.35366e-20)
(1.02699 -0.00111947 5.23663e-23)
(1.03064 -0.000198477 -6.95609e-23)
(1.08578 -0.0588193 -4.52201e-20)
(1.02185 -0.000291821 0)
(1.03047 -0.000166263 1.52906e-22)
(1.03063 -0.000196105 -3.98313e-23)
(1.04966 -0.0110659 0)
(1.02973 -0.00072006 0)
(1.08155 -0.0226906 2.31451e-20)
(1.03054 0.00308467 0)
(1.09877 0.056062 -4.68994e-20)
(1.02835 -0.00121869 -1.69617e-22)
(1.0329 0.000140187 0)
(1.03066 -3.80816e-06 6.22955e-23)
(1.08842 0.0356457 -2.31136e-20)
(1.09189 0.0127547 0)
(1.03208 -0.00384439 -9.80013e-22)
(1.02584 -0.0238744 2.53914e-22)
(1.12972 0.0322267 4.90623e-20)
(1.0503 -0.0140675 -3.63314e-21)
(0.454131 -0.0304794 0)
(1.03255 -0.00548245 2.94486e-22)
(1.14239 0.00560923 1.81545e-20)
(1.06211 0.00735532 0)
(1.03281 0.000194927 8.98384e-24)
(1.05615 -0.0032135 3.10147e-21)
(1.06489 -0.00174736 0)
(1.1117 0.0497796 3.1903e-20)
(1.0369 0.0015036 2.30653e-22)
(0.623522 -0.0200299 9.74188e-21)
(0.0115878 0.0197702 -3.41461e-20)
(0.15211 -0.022633 0)