/*--------------------------------*- C++ -*----------------------------------*\
| =========                 |                                                 |
| \\      /  F ield         | OpenFOAM: The Open Source CFD Toolbox           |
|  \\    /   O peration     | Version:  v2012                                 |
|   \\  /    A nd           | Website:  www.openfoam.com                      |
|    \\/     M anipulation  |                                                 |
\*---------------------------------------------------------------------------*/
FoamFile
{
    version     2.0;
    format      ascii;
    class       volScalarField;
    location    "250";
    object      ddt0(k);
}
// * * * * * * * * * * * * * * * * * * * * * * * * * * * * * * * * * * * * * //

dimensions      [0 2 -3 0 0 0 0];


internalField   nonuniform List<scalar> 
14033
(
1.59412e-09
-0.000174
2.37357e-10
-3.63934e-07
-2.33976e-06
-5.85813e-07
1.5344e-06
0.000373457
-1.26303e-08
1.12963e-08
0.0042818
9.05916e-06
-0.0100986
2.62016e-08
1.82883e-06
2.04366e-08
-1.63242e-08
1.92085e-05
-3.15157e-05
-1.09705e-08
-3.31823e-06
-0.000665596
4.52441e-05
1.3063e-06
0.000240308
1.45174e-06
-6.39832e-06
1.28329e-07
-3.81204e-05
0.000786218
7.11836e-09
2.83621e-08
5.87388e-07
-0.000120177
-3.06287e-07
-4.79609e-08
-3.84002e-07
3.33509e-08
-3.80763e-06
2.97814e-08
4.91743e-06
-3.20031e-07
5.40232e-05
-0.00151275
4.93055e-08
0.000175218
-2.59075e-06
-1.32285e-07
-2.2292e-05
4.71825e-05
-1.1461e-06
8.02418e-07
0.000104271
0.000289261
-5.36663e-07
8.67885e-07
-0.000163969
1.84511e-07
-1.44289e-06
-5.84687e-08
-1.59257e-05
-1.70177e-07
0.000242454
-2.14227e-07
-6.03609e-07
-0.000252339
-0.000173373
-3.82364e-05
-9.19563e-09
-9.36505e-07
-7.224e-07
-1.1264e-06
0.000149427
-0.00020804
-3.72276e-05
-2.42241e-07
4.82294e-07
-8.03909e-08
-3.25521e-08
1.08454e-05
-8.25193e-06
8.08474e-05
5.01347e-05
0.000353373
9.87042e-08
3.63751e-08
1.24605e-06
-5.79703e-09
5.31009e-06
-9.65039e-05
-1.63055e-06
-6.25564e-07
-2.2379e-06
-1.54524e-05
6.58115e-05
9.93921e-07
4.49048e-07
4.82661e-05
-3.29134e-05
1.15921e-08
4.59738e-06
0.000133513
1.92128e-07
-1.11279e-09
-6.79642e-05
-0.00976715
1.55092e-06
-2.8464e-05
4.0884e-06
-5.51372e-05
5.2473e-08
4.33769e-08
4.19647e-08
0.000116284
9.4059e-08
0.000209516
-3.82942e-07
-1.45797e-07
3.45028e-06
-3.46207e-05
-1.22908e-06
-0.000890527
-1.71248e-06
4.19416e-08
-0.000466988
8.80141e-07
0.000120419
-5.49849e-05
-2.05687e-08
3.90571e-06
0.000334486
-6.47195e-06
-8.22058e-06
5.72006e-05
-6.1826e-05
4.95869e-08
0.000343062
0.000257461
-1.31768e-06
4.34019e-05
-0.000409783
-0.000435441
-3.00121e-07
9.23731e-06
-8.32102e-08
4.84448e-10
-8.93958e-05
4.14213e-05
-6.41626e-11
-1.12516e-08
1.84758e-08
3.35193e-06
-1.36479e-06
-0.000989172
-0.000112005
-9.61638e-08
2.89758e-06
-1.17372e-08
-1.06617e-06
0.000630297
0.000339993
6.87259e-05
2.70778e-07
8.55954e-07
0.000620041
1.06666e-06
-0.000258148
4.87413e-07
2.11447e-07
-4.43004e-08
-0.000134734
-4.42289e-07
-2.84844e-07
1.6858e-06
1.15428e-06
1.51629e-05
1.64291e-08
-1.27638e-10
2.82904e-08
-4.17571e-05
-0.00435879
3.51381e-05
6.96765e-08
-3.08175e-05
-2.15307e-07
7.08416e-07
-5.98532e-08
9.33524e-10
-9.27309e-05
1.00766e-06
-8.06463e-07
-1.48548e-06
-6.66761e-05
-4.8514e-07
-1.09391e-06
-2.47578e-06
-4.39584e-07
-0.00556782
0.00128326
-2.7278e-08
-0.000127429
-1.05157e-07
0.000964221
9.26302e-08
-0.000701354
0.000372694
-1.87522e-07
-6.16999e-07
-0.000426115
0.000535945
-2.16118e-06
2.29997e-08
-0.00014925
9.26712e-09
-5.52372e-07
-6.2545e-07
1.14664e-06
-0.00204477
-0.000175346
-1.695e-06
4.19817e-05
0.00014361
6.8215e-08
-8.5248e-07
1.24431e-08
-0.00181059
0.0557785
-8.50367e-07
5.38442e-05
7.01579e-08
-1.43572e-06
-1.46671e-06
9.3632e-05
-0.000886568
2.28165e-07
8.14607e-09
0.000132547
-6.78557e-07
-1.18633e-06
-1.41272e-06
7.56329e-08
8.09004e-06
1.36991e-06
0.000439466
-2.59622e-07
0.00236525
9.54628e-08
5.90449e-06
-4.43923e-06
-3.40274e-06
-8.6426e-05
0.000805474
4.43114e-08
1.26766e-06
-4.38248e-06
-2.96444e-05
2.1717e-09
0.000465207
-1.08224e-08
-0.0019336
-3.78376e-10
9.75111e-06
1.79751e-09
-9.4774e-10
2.73414e-10
5.3765e-07
4.29014e-06
-4.29791e-06
4.63721e-08
-1.00481e-07
1.51809e-06
3.54841e-08
-6.37767e-05
2.17507e-05
-9.09e-05
-2.2361e-08
-1.81067e-09
1.49327e-08
0.000155545
1.49407e-07
3.23681e-08
3.09095e-08
0.000153491
0.000930461
-2.61503e-08
-2.51089e-05
-1.31382e-06
-1.17402e-06
2.95938e-07
6.63496e-08
4.91719e-09
3.44756e-06
2.83279e-09
0.000700137
-1.79186e-06
4.72316e-07
-2.58055e-06
-9.29049e-07
0.00705919
-0.00489879
-4.80694e-07
-0.000122219
-3.63489e-08
-6.63921e-07
-3.07138e-05
-1.80933e-08
-9.941e-07
-3.35979e-06
4.16461e-06
7.55005e-08
1.46833e-06
-1.76156e-05
-6.71859e-09
4.08099e-05
6.24715e-05
-0.00950316
4.16745e-06
3.54772e-09
4.03001e-05
-2.14231e-06
1.85057e-07
-2.69322e-06
6.35333e-08
9.19893e-09
-8.98012e-07
-1.11055e-06
-1.68307e-06
1.16116e-08
1.1757e-07
-0.000821333
0.000646172
-3.85799e-07
1.83479e-09
1.9341e-06
9.54363e-07
8.38629e-08
-7.1147e-09
2.43062e-08
-0.000794713
1.00245e-07
3.27002e-06
-0.000101121
-1.77221e-06
3.93422e-05
-1.64743e-06
1.39252e-07
3.12077e-06
1.57492e-06
0.00640913
3.51447e-09
-2.41421e-05
-1.5587e-05
-1.23502e-07
-2.43566e-07
-3.31007e-07
-4.55566e-06
6.82046e-08
9.24124e-05
-7.05489e-06
0.000291623
-7.47913e-08
-0.00175929
-1.7571e-07
-0.000560488
8.35112e-10
6.14549e-08
-5.29716e-07
1.65633e-08
0.000140644
0.00593447
4.49299e-05
-5.30356e-08
-3.90904e-06
7.15707e-07
4.3037e-08
0.00209887
-1.56203e-06
1.63859e-07
-2.2262e-05
-2.25235e-06
2.67653e-08
-6.04223e-09
-2.04664e-06
-3.41561e-06
-0.000109337
-0.0176334
-3.10501e-05
2.01264e-05
4.08647e-08
-2.11547e-05
-0.000144029
-3.99636e-06
0.00273672
-1.05709e-08
-1.09681e-07
0.000410132
0.00117781
5.5323e-05
2.37454e-06
-1.24869e-07
3.07131e-09
-2.09697e-06
-6.11058e-10
0.00258504
-3.42253e-05
-0.000278181
5.22875e-07
-9.8825e-07
-0.000265506
1.94193e-05
3.53289e-08
3.07015e-06
-4.38545e-07
0.000994842
3.47104e-09
-3.24694e-05
-0.000721786
1.26953e-06
8.25447e-07
-0.000441559
2.09956e-07
6.41985e-08
6.23139e-05
-3.42971e-05
-1.25927e-07
8.0106e-05
3.8079e-05
-0.00576279
-2.32693e-06
-1.74894e-09
1.06669e-08
2.70045e-08
0.00014228
1.17485e-06
2.12149e-09
0.000244426
-0.000874131
7.1961e-07
-3.12577e-05
-2.70961e-08
0.000426501
-2.23181e-05
3.55064e-09
1.67875e-05
-7.09586e-07
5.02813e-05
0.000376216
-0.0111639
-2.83467e-08
-0.000126725
3.54883e-09
-0.000604769
6.72096e-07
-3.20498e-05
-0.000818541
4.31671e-09
0.000713865
-6.56732e-08
0.00023893
-0.000226592
0.000499131
-1.08078e-05
-2.4199e-06
0.00010523
6.45984e-05
-0.00015155
-3.65859e-07
-2.8464e-05
-2.5866e-05
-7.31184e-06
1.94505e-09
-0.000564327
4.80513e-06
5.82007e-07
0.0441913
-1.58129e-05
-2.41008e-06
-7.36337e-07
-0.00255972
0.00206262
-0.000288092
-1.26996e-06
0.000720609
-0.000224721
-3.213e-07
-2.39952e-07
-2.94376e-08
5.63337e-09
0.00222871
1.77804e-09
-3.0569e-05
-0.0305407
-9.00762e-10
8.74253e-08
-2.49097e-06
-0.00112132
-1.74905e-08
-2.24834e-06
-2.98206e-08
-1.16034e-06
-6.28255e-08
9.56482e-10
-1.67113e-07
9.4004e-09
9.36541e-05
-5.02626e-07
5.59557e-07
1.25207e-08
-0.000557888
-0.000567477
0.000142675
-1.08349e-09
4.97785e-06
6.66242e-06
-7.25904e-08
9.05572e-07
2.44144e-07
-0.0012559
3.20265e-05
-2.7303e-05
1.81798e-07
-2.39245e-07
-8.73161e-05
1.63048e-06
-2.00723e-06
-1.80471e-05
3.36136e-08
0.00150579
-2.18491e-05
-6.25043e-07
-4.61827e-07
-8.70102e-06
7.29096e-05
3.01211e-08
-2.29748e-06
5.96744e-05
-2.32932e-06
2.01011e-07
-4.54907e-05
0.000343227
1.84706e-07
-2.97042e-08
7.16666e-07
-0.000590747
-0.000965071
-9.97837e-05
-8.1222e-09
1.93195e-06
-9.45863e-05
6.32408e-07
5.19213e-11
-1.11518e-06
-1.13513e-07
3.86576e-06
2.90948e-05
3.70278e-05
-0.000225003
-5.06722e-08
-0.000199737
2.00083e-06
2.93679e-06
-5.35346e-10
5.47404e-07
1.87286e-05
-2.52664e-06
-3.01767e-06
-5.36808e-07
1.0976e-05
1.46694e-08
-0.000322599
-9.41909e-07
0.000156602
-8.24865e-07
-1.06719e-09
-0.00020884
0.00269118
1.25169e-08
-0.000184239
-5.79162e-05
9.86249e-09
0.00045641
-1.48528e-06
-0.0005095
4.33617e-07
-4.87491e-08
0.000375723
1.99001e-06
-2.19678e-06
-5.9418e-06
-0.000650251
-0.00204602
3.97586e-09
-1.45196e-06
3.66256e-06
-4.54848e-08
-0.000162301
-2.33189e-07
-2.04484e-05
-7.4667e-05
-1.20624e-05
4.25578e-05
1.24542e-07
0.00018459
0.00556153
-1.21195e-07
-0.000112174
-5.38827e-08
4.81493e-06
2.26704e-06
1.10705e-05
-1.03414e-08
7.35616e-06
2.21155e-06
1.48011e-06
2.67707e-08
-7.75629e-08
-4.63927e-08
-5.18625e-07
0.000142712
9.79678e-07
1.19584e-06
0.000400584
0.00139443
-0.000374517
3.05085e-05
-8.87296e-05
-3.15905e-07
-0.000923538
0.000101703
0.000132932
1.71568e-06
2.87785e-05
-3.38527e-08
1.32911e-06
7.74523e-08
-3.36283e-07
-8.83428e-07
-0.00104324
-2.43368e-08
-5.54651e-05
7.52216e-05
-0.00147134
-5.15641e-08
0.00155148
2.39421e-08
-1.16151e-07
9.59619e-07
4.05455e-08
1.44536e-06
-5.03872e-08
-1.77152e-08
-1.83458e-08
-2.23205e-07
-0.00313609
5.45432e-05
-1.72248e-07
7.80798e-06
-1.35447e-05
-0.000130681
1.50801e-08
-1.23434e-05
-6.10755e-07
-5.00169e-08
-0.0005772
-0.000179601
7.15499e-08
-3.08994e-09
-7.74404e-08
-6.00345e-05
-9.21412e-10
-0.00551519
-1.20766e-06
-5.03854e-07
1.13833e-06
-6.89381e-06
-1.74822e-07
1.44222e-06
1.03137e-05
-9.13334e-06
-4.73705e-05
-0.000129674
-0.00622088
-1.90547e-06
-3.94072e-07
-4.92511e-07
6.53855e-06
2.88082e-08
5.46651e-07
-4.44909e-07
-1.5469e-05
-3.91901e-09
-0.000853336
0.000275237
-1.08409e-07
-7.12174e-06
-1.06665e-07
-2.3467e-08
-3.51315e-07
0.00199935
-1.10303e-06
-1.36211e-06
5.82277e-07
-1.64154e-06
-5.43098e-08
0.000103077
4.41031e-07
-6.37886e-07
0.000201418
1.87028e-06
-2.1213e-07
0.000460886
-1.85141e-09
-2.7907e-05
5.95814e-07
4.85315e-06
9.92546e-09
4.30829e-06
-0.00080509
4.48801e-07
1.11989e-06
-2.55545e-06
-8.06177e-06
-6.63051e-05
-2.24465e-07
-1.22068e-05
-1.00899e-07
-0.0375116
-2.4467e-08
2.65456e-06
-7.44381e-05
-2.99613e-05
-0.00106041
6.71541e-06
-1.33751e-09
-1.75203e-06
1.50355e-08
0.00017173
2.07416e-06
-0.00167405
0.0014932
9.7719e-07
-2.36366e-05
-8.91033e-07
-0.00034206
1.29947e-07
2.23892e-07
-0.000624705
1.94742e-06
0.000452736
-1.59733e-07
1.02864e-09
-9.09509e-08
1.63901e-06
-4.16489e-07
-3.92893e-06
-8.22565e-07
-3.13657e-08
-2.79741e-09
1.45525e-05
-8.15401e-07
-4.49996e-06
-0.00317541
-4.57145e-09
6.68014e-10
2.7385e-09
-1.08384e-07
-0.0333051
1.20874e-06
-5.96275e-07
-1.96166e-05
-4.41719e-09
-0.00157026
0.000183714
9.33993e-07
0.000516117
1.89898e-07
0.000100078
-0.00118952
-0.000995895
-7.06233e-05
-4.55328e-08
0.000643872
-0.000130256
4.4094e-07
0.000861357
-0.000725785
2.41199e-06
-8.35533e-08
-0.00241721
8.19571e-05
-4.71552e-06
7.39299e-07
-9.64513e-05
-0.000282485
-5.89548e-05
1.20259e-07
-1.22845e-07
0.000138108
-2.22365e-08
-2.11423e-07
0.001486
2.55365e-08
-4.42835e-09
0.000115472
-0.000562965
1.06937e-06
-5.02539e-08
4.51247e-08
0.000107602
0.000801947
0.000980903
-1.28593e-07
4.59497e-06
9.32176e-05
-3.58744e-05
8.49138e-11
-5.97507e-05
8.29197e-07
-1.28079e-08
1.30491e-07
-1.37646e-08
4.17456e-09
-7.29918e-07
-6.40647e-08
-0.000285452
-7.23749e-07
0.000349264
0.00011376
3.07531e-07
-1.68854e-09
-2.02634e-06
-0.000345082
-0.00127524
2.6476e-05
1.59743e-07
0.000730254
-1.40195e-05
0.00375022
-5.55902e-06
0.000253767
1.87508e-08
9.80937e-08
-1.95724e-08
-3.37312e-06
5.32104e-07
-1.85814e-12
-4.08548e-07
0.000115894
-1.47491e-08
1.04033e-06
1.96097e-07
-9.59476e-06
-0.000114538
1.6316e-07
0.0060922
-0.000871263
-4.87201e-07
-0.00112747
-1.48505e-06
1.57312e-08
-1.60134e-06
-0.000200152
-0.000773123
-1.31658e-05
0.000177708
-1.58292e-07
-1.21716e-05
1.09564e-07
1.64899e-06
0.000117609
3.73513e-08
-8.63898e-06
1.27684e-07
-5.41243e-08
3.65218e-08
7.02983e-08
1.41613e-06
4.96708e-07
1.06414e-07
-0.000552438
0.000382923
1.54449e-06
-3.4078e-06
1.80459e-07
5.95548e-05
1.30955e-07
8.63681e-07
2.67772e-08
1.9542e-05
5.57454e-07
-6.6923e-09
-7.26134e-07
-1.55787e-05
-1.3462e-06
-1.62475e-06
-4.21486e-05
-1.33338e-07
-0.00184887
-0.000136864
1.0795e-07
-2.55297e-06
-2.90816e-06
-2.65925e-05
2.09362e-07
0.000281869
-5.71172e-06
-1.67504e-07
4.27712e-05
6.45001e-07
5.08776e-08
9.84698e-07
-3.88287e-08
0.000307043
0.00359506
-1.17036e-06
3.22444e-05
1.0928e-07
3.32951e-05
-1.79292e-06
-7.82216e-09
5.64983e-07
-1.89844e-06
3.49331e-05
-3.31282e-09
1.42589e-06
-0.00079758
-2.98996e-09
-5.05123e-07
0.00757234
-3.13021e-07
-1.33585e-06
-3.37579e-08
-0.000102331
-0.000347401
3.3114e-06
0.000550133
2.02888e-06
-3.43823e-06
5.58197e-06
-3.45055e-11
3.39851e-11
0.000319674
-0.00349974
-5.67016e-10
-2.2222e-08
2.08919e-06
8.13613e-08
-5.63113e-07
7.72078e-08
-0.000860214
4.62047e-05
6.29005e-08
-1.78497e-06
3.88486e-05
-0.00371991
1.52969e-08
1.09887e-07
3.44139e-06
-0.00149524
-8.65997e-07
-0.000114667
8.63852e-08
2.44624e-08
2.2012e-05
-1.24432e-05
1.27764e-06
1.25582e-06
4.20785e-07
-0.000112642
-0.0264284
-1.25305e-08
1.86679e-07
-8.86076e-07
-6.89966e-09
8.65774e-07
0.000127053
2.99963e-07
2.31251e-07
9.10208e-07
-2.79619e-10
2.52287e-08
3.53777e-05
-2.02091e-06
-2.05463e-06
-2.68894e-06
7.06169e-07
3.53056e-07
0.000100154
-0.000368388
-0.000855334
-2.10962e-07
6.42437e-11
-1.9366e-07
-5.94213e-05
-0.0289173
0.00186634
1.51892e-07
-1.59906e-07
-2.68923e-07
-3.52655e-11
-4.79371e-05
-1.02011e-08
0.000692736
0.00065928
-9.4286e-07
-6.42935e-09
0.000275106
-0.0137863
-4.56106e-08
-0.00127992
1.433e-08
-1.40407e-07
-0.00137337
1.10265e-07
-0.0090445
0.000348164
-1.12082e-06
-0.000805233
-1.01025e-08
7.66125e-08
0.00107744
1.52106e-06
-4.67945e-05
-2.18047e-08
3.09606e-07
1.46942e-07
1.60766e-06
1.53231e-05
-6.31104e-07
0.00060116
-8.94076e-10
9.7473e-08
-3.10077e-07
-9.28817e-10
-2.76693e-06
-7.64169e-06
0.000110563
2.73015e-07
-3.72488e-05
-4.30117e-06
3.39496e-08
5.59951e-08
5.29695e-08
-2.68513e-08
3.31877e-05
-2.96729e-06
-4.69631e-06
-2.60012e-06
1.19479e-06
-7.31614e-05
-0.000109026
-4.13694e-06
-0.000251822
-1.89898e-06
7.35205e-06
-0.000554541
-8.09769e-07
-4.34399e-05
-0.000203795
-4.98878e-07
1.59469e-08
3.14937e-08
-0.00020161
0.00143426
0.000356026
-2.55617e-05
-0.00104456
-2.93082e-06
5.27009e-06
-2.13122e-05
8.74484e-07
0.000765087
-0.000152226
0.000893827
4.25611e-07
1.65793e-05
-1.16439e-06
8.63312e-07
-0.0126188
-1.0703e-06
8.63465e-05
4.14035e-05
3.56968e-05
0.000713115
-8.38276e-06
-8.05626e-08
0.000236546
-0.000115633
0.00796144
4.11984e-08
2.27701e-06
-5.85053e-07
0.00835407
4.21014e-07
1.53072e-07
-5.23157e-08
-1.45172e-06
0.000505369
-0.00221615
4.14191e-08
0.000316008
6.37848e-05
-3.14603e-06
-1.29823e-06
-0.000997338
-6.1842e-07
-7.47984e-05
-1.13632e-06
1.60576e-08
0.000187779
-6.33177e-08
3.95967e-07
1.3989e-06
7.79233e-05
-0.000358215
-0.000173741
6.76042e-06
-0.000118393
4.40684e-06
-0.000118905
8.29018e-08
-9.7244e-07
-5.51365e-07
4.17765e-07
1.30562e-07
-7.19745e-06
-1.51765e-06
7.07195e-07
0.000519477
-0.00247321
-1.81759e-06
9.55969e-08
-2.25053e-05
-1.73718e-06
-8.36129e-05
-2.65181e-09
1.28119e-05
-9.63392e-07
-0.000163504
2.91864e-06
0.00222817
-0.000116546
8.20487e-08
4.38275e-07
0.000310533
-0.00141877
0.000578602
2.78296e-05
-4.72882e-05
2.82209e-06
3.63433e-08
3.80037e-07
9.89146e-08
1.16481e-07
-0.000150411
-1.62091e-07
-2.42025e-08
6.78167e-07
0.0013099
3.52879e-08
0.000248909
6.80945e-07
2.58379e-06
-0.000178619
-1.5037e-06
1.2374e-06
-1.12724e-06
-1.75543e-08
-9.42893e-08
-6.01341e-05
-1.88856e-08
-0.000459511
-1.54164e-06
6.76702e-08
-1.26373e-07
-1.10397e-06
-7.76013e-05
3.2092e-07
-2.30687e-08
1.31341e-07
3.39636e-08
-8.46168e-06
-0.00014611
-1.22447e-07
-1.55453e-07
-1.02582e-10
-8.70082e-05
8.09492e-05
1.74778e-07
-1.0107e-06
-2.63144e-05
1.68275e-06
1.27398e-05
-3.17368e-07
-5.11564e-07
2.69259e-07
-0.0025199
1.44731e-07
-1.11985e-06
-0.000331789
-1.62939e-06
-0.000180363
-4.64308e-05
1.13819e-06
-6.71416e-07
-0.000126931
-0.000999841
4.32848e-08
2.44875e-07
-1.15824e-07
-2.49271e-05
-1.88799e-05
7.69982e-08
9.93663e-09
0.000168538
-1.89423e-06
-0.000988513
-7.00353e-07
-6.097e-05
-0.000100707
2.98222e-08
3.26556e-06
-1.37378e-05
-3.71376e-07
-0.000498528
0.000145622
2.13879e-06
-0.000813419
-1.08845e-07
-1.61788e-06
2.39478e-06
1.33182e-06
4.84756e-08
-5.58068e-06
-6.5289e-11
-1.73112e-07
-0.000718313
-0.0247507
-3.82896e-10
2.90112e-05
1.89347e-08
-8.13194e-05
1.09061e-08
4.07831e-05
3.11241e-08
-0.000241949
0.000476279
4.67068e-07
-1.20068e-06
5.18631e-05
0.00675042
-0.00289923
5.12497e-07
0.000371095
1.0199e-07
2.14558e-08
1.11256e-06
-1.39028e-06
0.000314852
6.02192e-08
-1.29718e-06
-1.63414e-05
-4.99077e-07
-0.000286191
-2.43527e-08
7.40041e-05
-1.28724e-05
-7.15034e-06
2.11817e-05
-0.00125249
1.17348e-07
8.15211e-07
0.000571092
3.00304e-06
5.35385e-08
0.00029283
-4.67438e-07
0.00160191
-1.99272e-07
-0.000720072
3.56546e-09
-4.96545e-05
0.00404871
-0.00735787
0.00189257
-1.43359e-06
2.18021e-07
-2.30951e-11
1.26277e-06
-7.50957e-08
0.000199913
9.34301e-06
0.000157713
-6.92588e-07
9.74494e-05
-7.357e-06
0.000190297
-9.36393e-08
-2.23871e-06
0.000118764
-5.8421e-08
6.49423e-08
2.25394e-06
5.54589e-05
-2.88572e-06
-4.72324e-05
4.15996e-08
-0.000575961
-6.29091e-13
5.25099e-07
1.96795e-08
-6.42722e-08
0.00909684
0.000197774
0.000281453
-0.00236885
9.73569e-08
-7.96805e-07
-2.78122e-07
4.64365e-08
0.00556816
-4.06366e-05
-7.57864e-08
5.41797e-08
-9.94335e-06
-9.34687e-07
-8.35525e-05
-4.25284e-08
-1.28401e-05
1.52793e-08
9.11709e-06
0.000159523
0.00196039
3.84779e-07
1.4645e-05
8.65499e-06
0.000517848
7.37289e-07
-9.31148e-07
1.05124e-06
5.62065e-08
-8.64304e-05
-9.58793e-06
7.35555e-05
-4.44016e-11
-5.8501e-07
-4.44978e-07
2.91282e-06
-0.000608391
-0.000731107
1.263e-06
-5.43585e-05
0.000491971
-6.23687e-06
-7.36962e-09
4.38764e-07
2.97559e-08
-0.00032304
1.35085e-07
-2.22391e-08
1.03075e-07
-5.91383e-07
-0.00479859
-1.52136e-07
-0.165905
-0.00935161
4.32839e-08
9.0794e-09
-8.27685e-09
7.28843e-08
2.66133e-05
0.000136245
7.74585e-08
-2.9479e-06
-9.72875e-07
6.06751e-07
-2.15794e-08
0.00130355
-7.96908e-05
1.01657e-06
3.35542e-07
-1.53594e-06
-2.34835e-06
-0.00134617
-0.0162818
-0.00497326
-3.89637e-06
9.45687e-06
8.0655e-07
1.62785e-06
-0.00265735
-7.71064e-06
0.000269246
4.86018e-07
-0.000571566
-4.9707e-06
1.07295e-05
3.71197e-07
-3.46257e-07
-9.61888e-05
-0.000152279
-0.000166136
-2.15519e-06
1.77227e-06
-0.000311285
5.03834e-08
-2.91319e-05
-4.18968e-08
-8.37341e-08
-4.7596e-07
-2.7588e-08
2.51559e-08
4.5808e-08
-4.21863e-07
0.000176253
2.41033e-08
-3.32325e-08
-1.1618e-07
2.5184e-07
-4.20441e-09
-1.52276e-06
9.15328e-07
3.1984e-06
-1.24272e-06
-2.00761e-07
-3.98874e-06
-0.00110103
-5.71563e-05
3.45469e-07
4.81897e-08
5.00065e-06
-1.60671e-07
-3.05954e-07
2.79638e-07
-1.04769e-06
6.73367e-05
-4.99408e-07
-2.44141e-05
4.60046e-05
-4.43648e-06
-6.57406e-07
-5.38784e-06
6.86074e-08
-0.000130362
-8.09906e-08
-1.75596e-06
-9.75585e-08
-0.00146798
0.000150901
-3.62341e-06
-3.80803e-07
1.03712e-07
0.00114377
4.28717e-08
9.80025e-07
-2.25598e-05
-5.81226e-08
-4.87004e-07
1.92581e-05
-1.83197e-07
-4.99608e-08
0.000594003
2.55981e-06
-1.2531e-06
-1.84935e-08
1.03078e-07
4.8353e-06
-9.75739e-05
-6.47749e-05
-2.5813e-06
0.000246194
-9.05142e-06
-0.000145636
0.000677919
3.43645e-08
2.16468e-08
0.00187683
-2.17351e-06
-7.72758e-05
6.52771e-06
0.00456687
-2.10758e-08
-0.00557156
3.51506e-05
-9.54466e-06
1.63563e-06
3.30257e-07
0.000380379
-2.13423e-05
7.6121e-05
1.69454e-06
5.57319e-05
0.00117278
3.47381e-08
-1.12892e-07
9.15903e-08
1.29346e-06
0.000211802
-1.96159e-06
4.61798e-07
-1.3028e-06
-1.33098e-05
-2.07537e-05
-8.86673e-07
-2.87275e-05
4.25618e-06
-8.70067e-07
9.68927e-07
-8.17482e-07
2.78548e-07
8.09275e-07
2.25603e-08
3.96647e-09
0.00129713
-0.000105625
1.13622e-05
-3.91245e-05
-5.51987e-06
5.10702e-07
6.47369e-08
0.00108031
1.05653e-07
0.000885476
9.74008e-07
2.59718e-07
2.81952e-05
5.01754e-06
-1.63386e-08
3.45831e-06
-0.00154391
1.4428e-07
-3.5018e-07
-3.56935e-06
-0.000385069
6.07803e-07
-1.2169e-07
-3.46114e-05
0.0011953
-3.81798e-05
-2.72315e-06
2.82312e-07
4.36926e-05
1.01742e-09
-7.44043e-09
-2.39821e-07
6.14857e-08
0.00861018
-2.03615e-06
5.54681e-06
2.264e-07
3.92089e-08
-8.13883e-08
-3.74166e-08
1.51871e-06
-6.46485e-05
-0.000731957
1.73588e-07
3.3449e-09
-8.61606e-08
3.32587e-08
0.000400636
1.62926e-06
1.89624e-07
-5.38453e-08
1.08255e-07
-8.7831e-05
1.17156e-06
-1.65028e-05
4.32957e-05
-0.000289106
-0.000168694
1.5584e-07
-0.000201465
0.00598612
8.9185e-05
-9.98291e-09
0.000287945
7.20737e-08
-4.95518e-07
0.000580006
3.30172e-09
-1.08842e-06
-0.00125985
1.15809e-07
-0.00122535
0.000877038
-0.00279669
0.0629673
0.000937081
-1.52512e-05
9.3098e-08
0.00325618
7.43762e-05
9.39385e-10
8.43128e-07
-1.16258e-06
-2.35344e-08
1.83654e-06
-2.77189e-06
-2.1134e-06
5.28153e-07
6.31795e-08
-0.00180252
-0.000295857
-2.4438e-05
1.4591e-06
0.00473319
-2.00269e-09
-0.000694058
1.60904e-10
4.37561e-08
-1.2666e-06
-9.69446e-11
-4.72139e-07
-5.56485e-06
-0.00102716
-2.37297e-06
0.000393369
0.0119255
-1.38171e-09
-6.4116e-08
1.48215e-07
3.67163e-09
2.95626e-05
1.13111e-06
-1.17988e-06
-6.86023e-07
-2.51161e-07
-1.41351e-06
-1.07543e-06
-2.96314e-06
5.03462e-09
-4.0488e-06
-0.000288474
2.9838e-07
0.00023854
8.03717e-05
4.04504e-08
-8.05265e-08
0.002054
-0.000496275
1.11081e-08
-1.59931e-06
2.53651e-08
-2.61066e-06
-0.000201712
-0.00074183
1.38929e-06
-0.00058491
-0.00135302
-8.87777e-07
5.75114e-05
0.00164374
1.19516e-07
-1.54636e-07
5.25967e-07
1.54185e-06
-1.28944e-06
-0.00024253
1.38862e-06
-8.0887e-05
-0.000193094
-6.11411e-08
-2.13681e-07
1.0558e-06
-4.00624e-09
5.74761e-09
-1.61854e-06
-1.57828e-07
0.00137844
-0.000801818
2.44219e-06
-2.32119e-06
-0.000414508
0.000659231
-1.75254e-05
0.000178905
1.54275e-09
6.49298e-08
-5.06977e-07
1.45923e-05
-2.85676e-06
0.000100701
-0.00471814
1.0537e-06
1.31556e-07
-2.05553e-08
8.98911e-09
0.00037401
-1.88187e-06
2.31143e-08
-7.71315e-05
0.00761196
-0.000534215
-3.77789e-08
-0.00541293
4.18443e-07
5.53549e-05
-1.56339e-07
-1.77824e-05
-1.45187e-07
-1.00374e-06
1.11458e-07
-1.06157e-05
-2.09095e-05
-8.05696e-07
0.00734066
-6.69096e-08
-1.00403e-07
-2.59572e-08
4.11876e-06
0.000467909
6.68213e-08
1.43475e-06
-8.79233e-05
2.95007e-08
-1.13642e-06
-6.23187e-08
0.00130963
-5.78842e-07
4.81309e-05
-5.82081e-08
-0.000111033
4.22948e-06
-1.1559e-06
9.69819e-07
-0.000829802
-1.3113e-06
7.66228e-08
-0.000103175
0.000476899
-1.70731e-08
6.52607e-08
3.54502e-09
-1.96877e-08
-0.00028289
-2.17465e-05
0.00011742
4.1381e-05
-3.50641e-09
0.00410851
4.85752e-06
0.000521629
-0.000308506
1.39108e-07
1.47187e-07
-2.91631e-05
2.55693e-08
3.22897e-06
-0.000203847
2.89036e-05
-0.000872455
1.34386e-06
-3.09832e-08
0.000833755
-6.29072e-05
0.00136823
-1.34465e-06
0.000190314
-1.84627e-06
1.56761e-08
0.0011858
-2.94584e-05
0.00041329
-9.55815e-05
1.22728e-07
4.49078e-05
-1.45258e-07
-0.00021575
-6.82733e-07
3.15632e-08
1.53529e-07
-4.17082e-05
0.00956178
-1.71943e-06
5.60288e-05
-0.000390361
-0.00029085
3.41105e-07
-2.25677e-09
-0.00423184
0.000639766
-1.43096e-08
1.91136e-07
-1.36698e-05
-5.11232e-06
3.59055e-05
-2.60224e-08
5.46113e-08
0.0018763
1.44466e-05
1.16533e-05
-7.17384e-07
-1.26757e-07
-6.54663e-06
-0.00638212
-0.000877871
-2.15432e-06
-2.82677e-09
-9.38009e-08
-4.62209e-07
-2.11177e-06
2.27705e-07
3.37909e-05
-3.11698e-06
0.000901964
1.30394e-06
1.2525e-08
0.00112779
3.78768e-07
0.00021632
-0.00113729
-0.000193578
-3.87376e-07
1.23453e-05
-3.21285e-07
-0.000285249
9.00911e-05
1.17405e-07
-1.47287e-07
1.77157e-07
-0.000223049
1.53447e-08
1.77423e-06
7.63516e-09
-1.58538e-06
-0.000184893
3.6318e-05
0.000747711
0.000146328
-0.000301611
-1.66073e-06
-6.73972e-05
2.01273e-07
-2.04464e-06
-2.70975e-07
5.76278e-05
-6.72238e-07
2.49782e-06
-6.79507e-08
1.35994e-07
-4.28652e-06
-4.42017e-07
1.68517e-08
-3.05537e-07
-1.81661e-08
-0.000231948
1.31256e-06
-0.000294045
-2.97622e-06
4.89332e-06
1.1355e-07
5.05389e-08
0.00015523
1.3184e-05
-6.41028e-06
3.53002e-07
-0.00198925
2.05632e-07
2.17621e-06
6.80996e-08
-1.55573e-06
1.3517e-06
1.25288e-08
-0.000242406
1.30324e-05
-1.24311e-06
-3.93572e-09
-5.94512e-07
-0.000100902
3.20468e-07
3.98796e-05
1.02981e-06
-4.36482e-07
-1.61962e-07
7.0432e-05
-6.23484e-05
-0.00125618
-5.7669e-05
-1.16246e-06
0.00166388
2.02848e-07
-7.75436e-08
-6.08344e-06
8.06502e-07
4.71718e-06
1.5784e-05
0.000163764
-7.67765e-05
0.000588562
-5.77404e-05
0.00131781
4.43139e-07
-6.96484e-07
-9.38348e-07
0.00111232
1.4257e-05
0.000614812
-0.000535654
0.000875757
-9.92771e-09
-0.000178658
1.069e-06
-2.50454e-07
-9.89423e-08
-4.37377e-08
-0.000112273
4.7695e-08
8.32621e-07
1.34743e-05
-0.000621596
5.52603e-06
5.39241e-05
1.02079e-08
-8.2866e-07
-3.29881e-08
1.7662e-06
5.25558e-07
-0.000648205
4.56536e-07
-2.49159e-05
6.947e-07
-1.55851e-06
-8.30753e-05
7.59395e-08
-3.55173e-06
-9.2929e-06
0.000143338
-0.000303238
0.000331896
-0.00094682
-0.000492789
-1.14039e-05
0.000261174
3.7849e-05
6.40581e-09
-7.14775e-05
-0.00140191
2.61412e-06
-0.000896949
-2.25514e-06
-0.00125132
-1.34846e-08
2.03823e-05
-1.17655e-05
7.25551e-07
1.50275e-06
0.000130492
1.39137e-05
1.29564e-08
0.000228059
-0.00714661
2.38749e-08
1.12244e-06
-0.000387417
-9.10693e-06
1.13036e-06
1.63663e-05
2.83987e-06
-5.00049e-05
-1.21094e-05
1.07911e-06
0.0017664
-0.00144022
-6.74458e-07
-2.73279e-05
0.0611106
-1.12432e-06
-2.14946e-05
0.00582751
-0.00380867
-1.36453e-06
1.38009e-09
-0.000138009
0.000762922
-2.39545e-09
4.22612e-05
3.96076e-07
-9.13925e-05
-1.41252e-06
0.000191749
5.43333e-10
-5.20883e-06
-1.66614e-07
-6.11633e-06
1.82497e-07
-0.00179968
0.000261978
-0.000973677
-5.9119e-07
-7.33811e-08
2.35695e-07
-9.62538e-07
0.000208116
-2.84583e-06
-0.000181761
0.000226489
-0.00113373
2.63486e-07
-0.000119235
-2.39049e-06
-1.01499e-06
-8.41488e-05
2.57339e-06
-3.6173e-07
-6.28154e-05
3.19835e-07
1.37258e-06
-1.01364e-08
-0.000385866
-0.000289353
-5.74136e-07
-1.22896e-07
1.66215e-05
0.00685971
-1.76473e-07
4.65617e-07
-2.74025e-05
0.00040068
3.56699e-06
-4.77418e-08
1.0441e-07
-1.69986e-06
0.000842166
2.8695e-08
-4.7552e-05
0.000609783
-9.57391e-08
-0.0012609
1.67998e-06
3.68913e-06
1.89993e-06
-7.86428e-05
-2.96616e-05
-9.93429e-05
-0.0113518
0.00123983
1.75919e-06
-0.000233634
6.24752e-05
1.64917e-08
3.43515e-05
1.3959e-06
5.09761e-06
-2.17529e-06
0.00950231
8.06988e-07
-0.0084276
-2.13151e-06
0.000181995
-0.00123763
2.16432e-06
2.59526e-06
-1.45654e-06
1.58105e-06
-1.22559e-07
7.83568e-08
4.13576e-08
-1.07694e-06
2.63873e-09
-0.000232266
0.0515941
-2.36949e-06
-1.09206e-05
-0.000177038
2.6939e-05
0.000403821
9.14617e-07
-0.000326435
1.09142e-08
5.66911e-05
-9.81862e-07
0.000477891
-0.00289564
2.8014e-05
3.44961e-08
8.51223e-07
5.21193e-06
2.1033e-06
2.14737e-08
1.70276e-05
7.03185e-07
8.8783e-06
-3.87632e-07
1.30886e-06
-8.01694e-09
4.74409e-05
-2.31391e-07
-2.00963e-07
-1.66724e-06
6.66799e-08
0.00017783
0.000215368
-0.000192643
-1.83719e-06
9.71147e-07
3.25884e-06
7.53991e-08
2.22545e-05
3.55653e-08
4.01749e-05
-5.19353e-05
1.30593e-05
-0.00458057
4.64632e-06
0.00010108
-2.82735e-06
6.65502e-07
0.000785668
-0.00168283
1.60784e-06
5.58583e-06
-6.19298e-07
0.000692006
1.85037e-06
0.000806694
-8.46343e-07
1.33942e-07
-9.31626e-07
0.000454767
-3.76543e-09
3.58937e-06
-1.41123e-06
1.47698e-08
9.73367e-07
7.51056e-08
-6.34619e-06
-2.91176e-09
3.41275e-09
7.50436e-08
-9.43329e-05
-3.2897e-05
6.63423e-06
2.94177e-06
-3.0527e-06
2.27793e-08
3.29851e-05
-2.78573e-05
7.00965e-08
1.44665e-05
-6.74393e-08
-0.00609025
4.90631e-08
5.76189e-06
-0.000138488
-2.77051e-06
2.40313e-05
0.00185954
-2.38666e-06
-5.9933e-06
7.78619e-07
6.52564e-08
-0.00117799
6.38176e-07
-9.92986e-06
-6.47378e-07
0.00136131
1.14526e-10
-3.08586e-06
4.55797e-07
-1.83295e-06
0.000203206
-2.29181e-09
-1.37298e-05
0.000465999
-0.000264258
9.89769e-06
-2.09285e-07
7.62925e-06
-7.10892e-07
7.47882e-06
-5.35438e-06
3.07653e-05
2.51004e-07
-4.52045e-07
1.37892e-05
1.24542e-05
-3.3541e-07
1.8936e-05
-6.10191e-09
3.99997e-06
8.26408e-07
-1.5499e-05
0.00655464
3.72705e-05
4.01465e-06
6.30437e-07
-2.90577e-08
-4.49678e-07
0.000164457
-1.78336e-07
-2.31508e-07
-5.88491e-07
-7.18557e-07
-5.26853e-05
4.39014e-05
1.85303e-05
-0.00100391
0.000239327
1.41535e-05
-3.95697e-05
-2.07169e-05
4.39319e-05
0.00010082
-7.81531e-09
-2.30584e-06
7.93823e-05
1.20661e-05
-9.05526e-06
7.58074e-08
-7.216e-07
0.00956188
-2.98625e-08
8.61205e-05
1.56974e-05
-2.27204e-07
-3.94646e-08
6.83262e-05
9.31704e-05
2.06709e-07
-4.94183e-06
-1.19771e-05
-0.000217592
0.000253021
-7.46873e-09
-7.08056e-05
0.000304999
5.12094e-07
-2.80544e-05
0.000348015
-0.000258676
3.00119e-07
1.88547e-06
1.85134e-05
-0.00084439
0.000436358
-1.17903e-06
-1.50959e-06
7.53096e-09
1.2933e-06
-3.57257e-07
-1.80108e-06
-0.0176658
-6.3822e-07
-0.00605865
2.07497e-06
0.000148195
3.71259e-07
-1.76621e-08
0.000669653
3.17994e-06
1.5698e-06
4.99462e-07
-2.70474e-06
5.65568e-06
1.84091e-06
-2.05288e-07
2.57247e-05
9.53253e-07
-2.43494e-06
-2.27844e-05
1.8481e-06
0.000883927
1.36985e-08
1.76033e-06
4.10475e-09
-1.55609e-06
-2.05401e-05
3.67512e-05
2.14596e-07
3.25411e-05
-3.92689e-08
3.61426e-06
-0.000263608
0.00468144
-3.60022e-05
4.49763e-05
1.51898e-06
6.19201e-08
-0.00108354
2.7739e-07
2.1246e-05
3.29177e-07
-2.42654e-08
0.000120341
-9.25177e-06
-0.0326705
2.15333e-05
-6.96458e-07
2.34852e-06
2.86372e-07
-2.51953e-06
4.12929e-08
-2.54899e-06
-2.99478e-06
-1.67821e-06
0.000483695
-9.24022e-07
0.000549964
0.00113568
1.18129e-05
0.0569952
3.37652e-07
-3.09244e-06
-0.00128751
-2.89764e-06
3.47303e-07
1.56216e-09
0.00433667
-2.7176e-07
-8.68469e-05
-1.64655e-05
-3.62466e-07
-8.70764e-07
2.81895e-08
2.1436e-05
1.17381e-06
8.267e-08
-1.67929e-05
2.99525e-07
-8.89692e-08
-0.00144759
-2.85928e-11
-1.53786e-07
2.40072e-06
-2.39787e-07
1.25286e-07
-6.85724e-07
6.52311e-09
-0.000196323
3.54038e-07
-6.11182e-07
-6.60758e-09
-6.8725e-05
7.53829e-07
0.00014388
0.000163237
-2.52723e-10
-1.17486e-06
-4.63102e-05
6.50097e-08
0.00959852
-9.59095e-07
1.0505e-06
7.44476e-08
1.71516e-06
8.61131e-07
2.91472e-07
1.6208e-06
-3.04843e-07
-1.42063e-07
-1.90499e-09
2.85844e-06
1.17738e-08
1.60112e-08
3.90635e-08
4.03573e-08
8.31138e-06
-1.51905e-05
-6.92105e-05
1.38309e-06
8.2946e-07
2.30614e-06
4.84792e-07
3.95583e-07
1.5556e-07