/*--------------------------------*- C++ -*----------------------------------*\
| =========                 |                                                 |
| \\      /  F ield         | OpenFOAM: The Open Source CFD Toolbox           |
|  \\    /   O peration     | Version:  v2012                                 |
|   \\  /    A nd           | Website:  www.openfoam.com                      |
|    \\/     M anipulation  |                                                 |
\*---------------------------------------------------------------------------*/
FoamFile
{
    version     2.0;
    format      ascii;
    class       volScalarField;
    location    "250";
    object      omega_0;
}
// * * * * * * * * * * * * * * * * * * * * * * * * * * * * * * * * * * * * * //

dimensions      [0 0 -1 0 0 0 0];


internalField   nonuniform List<scalar> 
14033
(
0.0214858
1.52574
0.0218667
0.0319321
0.0866894
0.0297554
0.0306644
5.94871
0.0222449
0.0217693
0.695192
5.35011
10.0816
0.0218343
0.0260367
0.0217667
0.0217301
0.230564
7.33813
0.022274
0.0253574
3.32641
3.23585
0.0323997
3.08419
0.0279409
0.112208
0.0219042
5.32537
4.34946
0.0214184
0.0219343
0.0253764
9.36211
0.0222973
0.0222117
0.0284556
0.0222634
0.0247299
0.0250948
0.0472023
0.0236261
4.43181
5.37507
0.0220537
3.02214
0.0250456
0.0240064
0.102984
4.95721
0.106153
0.0963054
3.13234
2.93422
0.0664744
0.0252655
3.0635
0.0219064
0.0356439
0.0221035
0.107067
0.0222301
1.83453
0.0226164
0.0267432
0.289131
4.17707
0.21247
0.021955
0.0222893
0.0333294
0.0220917
3.37555
3.82598
4.1245
0.0221553
0.0914804
0.0221093
0.0220297
0.115975
0.0720584
3.07175
5.89939
3.64212
0.0221878
0.0222418
0.0262044
0.0217284
0.0699248
6.5813
0.0236152
0.0224281
0.0419351
20.9896
5.06638
0.0513805
0.0267625
0.535249
4.44271
0.0221426
0.0616163
4.73239
0.0223339
0.0218769
5.54642
4.89083
0.0459207
0.518725
0.0750563
3.83603
0.0218129
0.021947
0.0221444
2.93876
0.0221495
3.54727
4.49225
0.0222903
0.094566
2.80595
0.022933
2.00551
0.024408
0.0219539
4.04711
0.0312291
3.71555
0.181295
0.0218299
0.0628764
3.65253
0.0999567
0.108046
4.54953
0.265142
0.0218275
6.4225
2.91383
0.041491
0.196941
1.173
3.16404
0.0448059
0.311972
0.0220346
0.0225138
2.87644
0.165838
0.0214511
0.0377455
0.0222472
0.0970492
0.0251737
2.8496
0.30217
0.0220341
4.44305
0.0219732
0.0240532
4.04612
4.52455
0.250171
0.0240963
0.0324542
3.10965
0.0234739
4.07342
0.0434106
6.06478
0.0220722
0.3033
0.0224809
0.0366685
0.0525237
0.0435534
0.105113
0.0222253
0.0217515
0.0218307
4.74566
4.54764
0.197566
0.0220327
2.71681
0.02227
0.0237768
0.0222226
0.0220907
2.88517
0.0610647
0.0373072
0.0228634
3.21812
0.0223484
0.0241666
0.0407007
0.0221114
8.85971
1.32367
0.0220523
3.48268
0.0221935
0.175048
0.0222599
3.3063
4.40084
0.0221353
0.0223863
3.25832
3.74513
0.0436105
0.0220465
0.242711
0.0220725
0.0240049
0.0221318
0.0357499
2.28488
0.262648
0.0260821
6.65206
3.1451
0.0221379
0.0262383
0.0222439
2.17474
12.6841
0.0262521
7.06835
0.0222581
0.0220136
0.0226881
0.983218
3.68337
0.0235391
0.0216641
2.81127
0.021963
0.022236
0.0326046
0.0218927
0.134577
0.0564121
4.86954
0.022628
3.94077
0.0220444
3.25946
0.194816
0.0243914
0.280527
4.1215
0.0218046
0.0343166
0.0258719
0.232411
0.0219982
0.166852
0.022081
5.61229
0.0220959
4.10362
0.0222245
0.0220808
0.0219499
0.0220609
0.0581509
0.130345
0.0224531
0.0492104
0.0226042
0.0220563
0.277302
0.161126
0.630081
0.0217878
0.0218016
0.0218443
2.85875
0.0363052
0.0222641
0.0220706
2.8588
3.16878
0.0217656
2.8414
0.0338097
0.0317546
0.0224013
0.0265018
0.0222713
0.0932307
0.0217846
3.74038
0.029398
0.0588726
0.152464
0.0395708
7.7021
4.56352
0.0580408
2.85595
0.0447162
0.0241335
2.88578
0.0218173
0.0260941
0.062742
0.063461
0.021802
0.105667
0.242843
0.0218472
3.81292
3.0278
10.4669
0.0614573
0.0222712
4.20601
0.0243112
0.0222824
0.0521734
0.02245
0.0219506
0.0240846
0.0263728
0.0481435
0.0216912
0.0218739
3.4959
3.5408
0.0223274
0.0219147
3.1188
0.0229979
0.0218818
0.0219937
0.0233801
3.78883
0.0218812
3.32925
4.90524
0.0245594
2.95539
0.0264207
0.0291611
0.0464637
0.0278517
11.1048
0.0217978
2.99586
0.115069
0.0220289
0.0489505
0.0225261
0.0253631
0.0220585
0.215148
3.2299
4.80752
0.0220489
6.13353
0.0237249
0.315698
0.0222142
0.0221255
0.0470701
0.0222626
2.93203
8.06854
0.706479
0.0220737
0.0242503
0.0264623
0.021951
3.92809
0.0902528
0.0221847
2.9553
0.0493547
0.0221273
0.0219746
0.0251868
0.02336
2.89687
5.35805
0.227302
0.148345
0.0219888
0.435732
2.8921
0.0253102
3.88696
0.0218585
0.0319002
0.428289
3.11603
0.151543
22.4194
0.0222146
0.0216785
7.051
0.0221817
3.80853
0.713482
0.975203
0.0220641
0.0459409
3.18781
21.5144
0.0220793
0.0633661
0.0237262
0.415203
0.022273
5.40607
3.33523
0.0226038
0.023465
0.263419
0.0260397
0.0221309
6.86614
7.2344
0.022195
2.81118
5.01498
4.60346
0.023538
0.021738
0.022058
0.0218018
35.3972
0.0252686
0.0219255
4.58844
3.81756
0.0980027
0.2226
0.0225438
3.20654
0.436487
0.022179
3.00876
0.0385682
3.00175
0.565288
3.52025
0.0221577
2.06195
0.0221414
3.25332
0.030527
5.1821
3.78213
0.0222529
3.68487
0.0222084
0.733031
4.26644
8.02337
5.33615
0.0572837
2.79154
2.90933
0.26022
0.0222445
2.76927
0.619073
0.109494
0.0216727
0.809017
0.024178
0.0226409
12.372
0.142396
0.0255137
0.0374008
4.47778
3.89989
5.26946
0.0541274
3.61592
3.05854
0.0231909
3.84262
0.0218051
0.0216632
0.251665
0.0217105
0.281352
15.1286
0.0222546
0.0220703
0.0298216
0.347647
0.0220544
0.0554106
0.0218118
0.0219984
0.0218951
0.0217089
0.0847574
0.0219405
0.518013
0.0955793
0.03024
0.0216777
3.25703
3.27227
2.84781
0.0217132
0.0737062
0.0716075
0.0215977
0.0220241
0.0221928
3.9173
0.27491
5.74591
0.0225627
0.0368651
6.75165
0.0259488
0.0354795
0.90328
0.0219383
1.50079
3.63208
0.024159
0.0570356
0.183657
5.05318
0.0219036
0.050681
0.351898
0.0830507
0.0234483
2.72664
3.80005
0.0265998
0.0222438
0.0550807
5.2945
3.65133
3.51938
0.0217594
0.0299696
3.34145
0.024252
0.0221746
0.0652681
0.0220506
0.0303023
5.04143
0.198891
0.296207
0.0221654
4.73443
0.0378502
0.0242069
0.0216789
0.0220619
4.54836
0.223657
0.0730555
0.0236435
0.353221
0.0222737
3.25733
0.0333627
3.32394
2.78807
0.0222332
4.04067
3.959
0.0221146
8.15554
4.84847
0.0216778
3.28068
0.0277667
3.17245
0.023318
0.0223474
3.12802
0.0658128
0.0222623
0.117855
3.29122
2.04279
0.0222657
0.0223671
0.1201
0.0706482
2.98401
0.022228
0.13201
0.191221
0.111949
0.227098
0.022286
3.47234
7.79851
0.032053
3.91278
0.0220886
0.0741822
0.0302894
0.115938
0.0218056
3.75811
0.022906
0.0334655
0.0222218
0.0220526
0.0221597
0.029502
3.46717
0.0293084
0.0234653
0.32836
4.26367
3.40343
7.16625
4.94979
0.0235933
3.61162
3.90421
2.85778
0.0399675
7.2339
0.0219772
0.0367037
0.0219059
3.30643
0.0309066
3.58899
0.0218951
0.389281
5.10798
6.11517
0.0220728
4.21298
0.0218967
0.022087
0.0244642
0.0222649
0.0231218
0.0220751
0.0218079
0.0222544
0.0231051
6.14623
0.217677
0.0224082
0.2159
2.94606
0.397545
0.0217789
0.0987838
0.0331409
0.0404084
3.19572
0.474398
0.0222921
0.0220392
0.0220899
0.187795
0.0219546
4.63192
0.0220324
0.0229717
0.0355846
0.0722917
0.0219825
0.0220325
2.88211
4.11216
3.08773
2.87618
19.989
0.0238879
0.0232584
0.0219754
6.73271
0.022218
0.0252455
0.0226927
0.418842
0.0216901
4.05148
0.0704885
0.0219711
0.0996131
0.0220307
0.0218122
5.95433
4.07795
0.0222876
0.0372302
0.0229769
0.0635223
0.0220232
0.176897
0.0219473
0.0959947
0.30579
0.0579364
0.0229746
3.64015
0.0221111
4.60498
0.0542127
0.0416501
0.029703
0.109015
3.50531
0.0321182
0.102452
0.0729929
0.113463
7.44915
0.026837
10.8631
0.0220585
15.2537
0.0217799
0.0302539
4.11276
2.7902
0.251226
0.0760655
0.0218566
0.0220511
0.0220426
3.77213
0.0229784
5.99293
4.24277
0.0220485
0.205646
0.0272347
0.456921
0.0232658
0.0323786
3.86412
0.0258377
4.93862
0.0224929
0.0216909
0.022246
0.0626871
0.0386975
0.128183
0.0239158
0.0217572
0.0220863
3.20527
4.68968
0.0693265
4.51602
0.0217198
0.0220331
0.0219332
0.0220701
15.0327
0.039348
5.65578
11.7276
0.0222224
3.69278
6.23336
0.047826
0.275229
0.032205
0.45099
4.39631
4.19366
3.41019
0.0220777
3.05853
3.00553
0.0220251
3.71331
0.643784
0.0407266
0.0266709
4.54355
3.13033
0.068961
0.0522845
3.88656
3.57336
2.88842
0.0226661
0.0619393
2.9539
0.0220544
0.0228579
4.2221
0.0217871
0.0222616
0.21829
4.06003
0.0329166
0.0221418
0.0222586
3.85703
3.69765
3.65809
0.0841228
3.17263
0.184491
2.83084
0.022091
0.713235
0.0227771
0.0218204
0.0218964
0.0218114
0.0220345
0.0220054
0.0220989
0.463626
0.0311372
3.18806
3.17494
0.0219514
0.0220826
0.0230009
3.55863
3.66699
3.28444
0.031628
2.29275
0.112658
1.30441
0.0555944
0.363376
0.0221691
0.0238577
0.021773
0.0926215
0.0228647
0.0222729
0.0228729
3.0118
0.022218
0.0248018
0.0219139
0.102879
2.89312
0.052326
7.60437
4.07102
0.10631
3.67362
0.0220843
0.0217909
0.0230645
3.92838
3.55983
0.101586
3.10589
0.0220564
0.0942382
0.021835
0.0287838
1.44427
0.0220576
0.13069
0.0218808
0.0221453
0.022099
0.0446774
0.0524951
0.0225519
0.0221664
0.681084
0.347003
0.0362315
0.098167
0.0220119
4.44182
0.0220586
0.0489128
0.0230438
4.61431
0.0714198
0.0222648
0.0350112
4.29324
0.0220512
0.0263307
2.69267
0.0223578
5.27498
2.90091
0.0221698
0.067045
0.0280954
1.09992
0.0302132
0.374725
3.81513
0.0299483
2.9762
0.0261043
0.0219248
0.0230311
0.0220334
4.18829
8.42442
0.0296212
3.31097
0.0220774
18.3708
0.0525395
0.0219822
0.0261011
0.0240239
5.2462
0.0451508
0.101799
3.87978
0.0222458
0.0471953
6.21082
0.0221271
0.061676
0.0222278
2.85025
3.42914
0.115548
3.93774
0.0285317
0.0229415
0.211756
0.0222716
0.0216804
3.09694
5.22872
0.0222542
0.0221245
0.0973598
0.0219379
0.0270659
0.023265
3.85166
0.151704
0.0219427
0.037351
7.35388
2.65724
0.0218151
0.0221882
0.0240328
6.38003
0.0287513
0.145287
0.0220526
0.0220632
2.71674
0.265195
0.0567134
0.0278097
0.0219871
0.166988
15.0711
0.0222334
0.0222255
0.023777
0.0222541
0.0511935
0.374746
0.0221496
0.0219766
0.0285476
0.0218639
0.0219675
0.16425
0.0290625
0.0425859
0.101562
0.023021
0.022
4.61608
0.552849
1.71217
0.0223989
0.0221162
0.0229289
0.206006
1.01424
4.00552
0.0221022
0.0221238
0.0238438
0.0222211
5.54788
0.0222323
3.08379
3.73294
3.09175
0.0216529
0.425611
10.5214
0.0218198
1.26148
0.0221355
0.0221565
4.04986
0.0288915
5.36917
4.45218
0.026819
3.84717
0.021517
0.0221058
0.521071
0.022685
0.268585
0.022226
0.0231263
0.0319772
0.0284206
0.197749
0.0267472
3.65856
0.0222329
0.0218818
0.0220598
0.0219616
0.0670671
0.115945
2.8855
0.0219725
2.90071
0.0286162
0.0222465
0.0221727
0.0219028
0.0216438
1.43064
0.078829
0.0956364
0.0600241
0.0341345
0.199346
0.22425
0.0648822
3.35987
5.12482
2.92033
5.48645
0.0269868
2.76542
2.9999
0.0220864
0.0220995
0.0219968
3.05307
4.80108
1.70258
2.63125
5.55888
0.0286713
0.124743
5.72108
0.0606005
3.56419
3.92595
4.34159
0.0371963
6.81781
0.0237435
0.0340489
4.9958
0.073085
3.96693
3.14276
3.03181
3.55557
0.126403
0.0447872
3.17471
3.06504
5.20652
0.0218128
0.0579349
0.0653107
5.24808
0.0221381
0.0280695
0.0220051
0.060599
3.04461
0.35555
0.0217838
3.43803
1.41414
0.0247838
0.111179
28.407
0.0231024
0.380938
4.96228
0.0219127
3.46077
0.0220994
0.0230492
0.0227647
2.78362
0.683017
2.97883
0.141762
3.27677
0.386449
3.00887
0.0222896
0.0303568
0.0230157
0.0219824
0.0221277
0.0695836
0.0235366
0.0227982
3.7813
4.04689
0.0226731
0.0220535
0.534652
0.0243774
2.8342
0.0222734
4.11085
0.0240158
2.96346
0.040029
4.04166
3.40807
0.0218726
0.0454032
3.43993
4.57989
6.21227
2.68943
5.26337
0.0242669
0.021995
0.0326389
0.022047
0.0218827
2.89537
0.0221857
0.0217598
0.0239823
3.14551
0.022106
4.50417
0.0526466
0.0289075
3.19042
0.0542768
0.0633139
0.0568174
0.022246
0.0494933
0.91824
0.021631
3.8761
0.0390776
0.0219888
0.0220912
4.94983
5.05906
0.0231344
0.0222307
0.0220273
0.0221015
0.117896
0.782499
0.0218728
0.0218671
0.0221629
4.81899
3.54244
0.0323912
0.0225347
0.159987
0.0260593
0.330304
0.119207
0.0474392
0.0432074
26.2625
0.0220791
0.0231765
3.41582
0.0937106
3.35592
2.7392
0.0343848
0.0237258
3.15704
3.84416
0.0222105
0.0221547
0.0220271
0.155341
0.115349
0.022274
0.0218839
2.92383
0.0523961
3.7909
0.0907236
0.195213
3.7514
0.0220066
0.0710851
3.00499
0.0228722
3.9352
2.89165
0.0229688
3.82063
0.0223543
0.0247132
0.0224591
0.0548113
0.0219259
0.0955566
0.0216914
0.0218756
4.08055
10.7219
0.0216927
3.90629
0.0222534
2.88424
0.0217522
0.216715
0.0217658
0.274795
0.490076
0.0230562
0.0341014
1.86496
5.72908
2.65711
0.0647334
5.58787
0.0223239
0.0221047
0.0334782
0.0286902
3.72213
0.0225833
0.0244751
0.135697
0.0220113
4.25493
0.024348
3.93688
5.27395
0.109218
0.130092
5.33439
0.0226585
0.0223211
3.40048
0.0373406
0.0220603
1.4946
0.0225975
6.56791
0.0234399
3.7671
0.022159
8.03183
31.9083
25.1638
7.90255
0.0293078
0.022012
0.0222071
0.0257011
0.0220321
3.65634
0.241312
2.82937
0.022706
2.99942
2.87647
2.89406
0.0220197
0.0562271
2.83262
0.0221222
0.0220891
0.0269818
6.08178
0.0542953
2.84453
0.0217713
6.79395
0.022269
0.0222363
0.0221052
0.0435692
5.20652
2.89988
3.32688
4.01548
0.0220067
0.0481549
0.0309725
0.0621825
21.8138
0.201127
0.0218126
0.0220704
0.246209
0.0239914
0.321451
0.0221633
0.0969171
0.022287
2.90546
2.84021
1.40174
0.0222552
2.80992
2.7477
3.44932
0.028099
0.0336842
0.0230821
0.0225651
2.85059
0.499528
3.02554
0.0219311
0.0293322
0.0223872
0.0891391
16.3444
3.71785
0.0941926
3.21573
0.302092
0.0890963
0.0220955
0.0221751
0.023031
7.22156
0.022034
0.0219998
0.0231064
0.0441882
5.09869
0.0220175
8.19416
1.04318
0.0220546
0.0221622
0.0222261
0.0219655
0.541848
0.635809
0.0219298
0.0818662
0.0309996
0.0222031
0.0252393
4.76902
6.80094
0.0486827
0.0246547
0.0552148
0.0246514
5.82356
9.45941
9.06493
0.0584226
3.10461
0.0442675
0.0449193
4.33333
0.0791305
3.09105
0.022517
4.23364
0.0774112
0.0977863
0.0220179
0.0233512
5.11682
0.366682
3.16062
0.0499352
0.0246506
0.227711
0.021899
4.24349
0.0220595
0.0220597
0.0227219
0.0217709
0.0221781
0.021821
6.33857
3.1465
0.0219368
0.0221552
0.0220949
0.0356411
0.0218215
0.0722822
0.0290594
0.0386525
0.050451
0.0268049
0.106978
4.06318
2.723
0.0311742
0.0218659
0.0664764
0.0514392
0.0220786
0.0239708
4.965
6.53607
0.0229272
2.61687
0.625751
0.109552
0.0238958
0.081935
0.0220271
3.27034
0.0218712
0.0380049
0.0221707
29.268
0.309839
0.215139
0.0473551
0.022504
5.13431
0.0221991
0.0294225
5.98609
0.0306581
0.022538
0.349442
0.0224095
0.0236875
4.38359
0.0226436
0.0239766
0.0220607
0.0218112
0.0253577
7.96782
0.332505
0.0453373
3.73962
0.0982411
0.215354
4.79888
0.0218973
0.0220958
5.49307
0.0567501
5.38041
0.0959607
15.8024
0.0219646
2.69191
5.66671
6.12588
0.0447076
0.0306621
3.38239
2.83116
0.22022
0.0284286
2.77658
4.06443
0.0219493
0.0227768
0.0461354
0.025457
3.87121
0.0300564
0.0237406
0.0306511
3.71005
0.242278
0.0488374
4.49922
0.14251
0.0224285
0.022362
0.0226124
0.0555311
0.0302815
0.0396776
0.0223767
4.28138
3.84005
0.0946715
4.22604
7.29802
0.0225864
0.0409344
4.13545
0.022078
3.12181
0.025077
0.0285385
5.23389
0.120835
0.0225397
0.0249792
5.93444
0.0219143
0.0228017
0.0271311
2.2246
0.0271594
0.0220781
0.225898
7.06948
7.37934
0.0261477
0.0219725
3.47975
0.022232
0.0218859
0.0263798
0.0219848
2.23099
0.038963
2.84395
0.0220215
0.0218301
0.0220716
0.0221077
0.026676
0.195928
3.32308
0.341825
0.0219861
0.02203
0.0220211
3.62885
0.0279954
0.0221535
0.0239895
0.0220755
2.99348
0.0543485
7.03572
3.49588
6.56533
2.32824
0.0219206
3.75956
5.59722
3.85831
0.0216276
0.213929
0.0221751
0.0333157
0.245095
0.0220655
0.0594478
4.05243
0.0226657
0.675782
4.10166
1.57439
12.2045
3.91893
8.47869
0.0525566
11.7908
2.97169
0.022245
0.0941658
0.0234154
0.0218584
0.0878639
0.0260192
0.0243025
0.0860528
0.0219727
1.33588
0.27846
0.293682
5.78507
7.62887
0.0222255
0.301601
0.02163
0.0222092
0.0897656
0.0219151
0.0344847
0.0282862
3.36368
0.0272635
0.654836
19.9054
0.0221564
0.0526755
0.0236532
0.0238007
0.427176
0.0352068
0.0290888
0.0229994
0.0220528
0.0224723
0.0260259
0.0237175
0.0222541
0.0240082
3.18767
0.0226514
3.68658
2.91582
0.0221409
0.021798
1.13732
0.0959704
0.0220618
0.0425222
0.0218177
0.0506481
2.87248
3.94098
0.0230201
4.44314
4.47232
0.0308821
5.68177
3.26316
0.0220589
0.0220919
0.0225209
0.0258076
0.0235958
3.2373
0.0891242
0.330038
2.99753
0.0218263
0.0226823
4.01687
0.0218663
0.0220795
0.0225549
0.026484
3.81172
3.37446
0.0963698
0.0587069
3.48098
3.26578
3.15827
2.45729
0.0218806
0.0240642
0.0466447
0.255303
0.0992155
3.29738
5.61755
0.0251897
0.0220442
0.0221609
0.0216825
0.555682
0.0221601
0.0219738
2.1656
7.49922
0.296283
0.022036
5.559
0.0341535
1.81668
0.0220746
0.0945796
0.0220813
0.0234407
0.0232778
8.5003
2.84192
0.0321168
5.01408
0.0220559
0.022079
0.0222672
0.0266419
3.07398
0.0219217
0.0285716
5.70013
0.0217779
0.0387172
0.0221558
3.12573
0.0221283
0.281143
0.0221259
0.25443
0.0987489
0.0326599
0.0232111
0.908836
0.0225464
0.0315119
0.490381
0.0863563
0.0222664
0.0221998
0.0217594
0.0222361
7.59784
0.161622
3.02223
2.98962
0.0215913
1.8574
0.119144
3.4749
5.44413
0.0224805
0.0220307
0.161823
0.022109
0.0225845
12.366
5.35302
3.9654
3.08914
0.0221475
3.74487
3.02251
5.51017
0.0239607
3.19003
0.101691
0.0222716
0.874608
3.403
3.94538
1.76477
0.0225865
3.38615
0.0220678
0.423662
0.0245446
0.0217959
0.0218822
0.174441
4.92358
0.0777898
0.400966
3.39224
3.43711
0.0237491
0.0219487
4.32482
3.95925
0.0222667
0.0221279
0.204624
3.05165
6.95244
0.0292584
0.0287737
12.1614
2.78003
0.264724
0.0940846
0.0220067
3.3323
4.48455
6.53964
0.0424138
0.022148
0.0231067
0.0395427
0.16445
0.0219224
0.216001
3.26981
3.13145
0.04378
0.0219929
3.10176
0.0220414
3.12557
3.68556
16.5074
0.0225827
0.229179
0.0240546
3.24596
1.57508
0.0222226
0.0234934
0.0221085
2.46355
0.0222729
0.0232811
0.022955
0.0505001
0.511272
0.201074
3.23474
0.245778
3.25957
0.0877447
3.13786
0.0460874
0.0409489
0.0220842
2.80285
0.040327
0.0231414
0.0221755
0.0220274
0.0540938
0.0219999
0.0221809
0.0242093
0.0219085
2.86802
0.0310197
3.48449
0.0482955
0.0879032
0.021874
0.0313018
3.34604
0.196363
0.0923087
0.0223188
3.72202
0.0221008
0.0411531
0.0557809
0.0288113
0.0401104
0.0217529
3.39698
0.118231
0.0778144
0.0222737
0.0240897
3.4854
0.0224814
3.62088
0.198124
0.0231271
0.0222528
3.01186
0.164126
0.810233
3.41011
0.0691794
3.26561
0.0219325
0.0220207
0.0867062
0.104375
0.0837834
0.141652
1.64185
7.58056
3.65191
0.234807
4.65072
0.0239398
0.0231798
0.0237972
3.13109
0.138078
3.47963
3.32095
5.14676
0.0222841
2.89548
0.031076
0.0275118
0.0378645
0.0855607
2.2886
0.022109
0.0231208
0.770271
3.20904
0.0932126
6.39113
0.0219928
0.0236438
0.0220574
5.28035
0.100569
3.24578
0.024021
0.196087
0.0222123
0.0243179
5.22516
0.0219043
0.0830727
0.0999535
3.32427
3.35907
3.43885
3.92801
4.38252
0.145625
3.22542
5.85719
0.0222663
0.513935
4.27439
0.0364002
14.1408
0.271517
4.00818
0.0234738
0.353971
0.131142
0.032982
0.0226275
2.8807
0.231093
0.0216648
11.4527
6.79099
0.0220347
0.0421883
2.34994
2.82672
0.0258332
2.85061
0.0280865
0.194464
0.151181
0.0279701
3.90959
4.73146
0.022801
0.147236
11.9888
0.0798
0.145227
5.28826
4.98995
0.0231733
0.0221179
2.97668
3.17222
0.0221555
2.51262
0.0404247
0.523894
0.0880387
2.80467
0.0221521
0.0946121
0.0406231
0.0837768
0.0218898
3.90952
2.91835
0.60803
0.0849511
0.0220823
0.0292067
0.0242929
0.533545
0.0231195
0.592969
3.26085
3.92331
0.0230221
3.22937
0.0655625
0.0529164
2.84177
0.0460824
0.0238422
0.255497
0.022198
0.121272
0.0220585
3.39026
0.382121
0.0272116
0.0267265
2.65745
5.30787
0.0234571
0.0397522
0.145519
6.3218
0.0868406
0.0221775
0.0220935
0.0305289
3.81545
0.022149
0.313103
3.64133
0.0218625
3.86867
0.071999
0.0247588
0.0792681
3.14845
0.192751
3.31102
7.24586
3.92958
0.0271869
3.05949
0.635398
0.0231049
0.0712139
0.0932473
3.13816
0.0225595
4.89687
0.0228529
6.8179
0.0274164
2.81314
4.50254
0.0975067
0.0481885
0.0833829
0.0238361
0.0220479
0.0218622
0.0218664
0.0469847
0.022127
3.64346
11.3228
0.0453132
2.87455
2.8418
2.67553
4.28956
0.0340499
3.68216
0.0220476
9.98561
0.0534671
3.71895
1.11922
2.69614
0.0221206
0.0256202
0.026116
0.0277227
0.0220494
2.72543
0.023267
2.86562
3.22836
0.0304207
0.0220119
0.217724
0.0224726
0.0226559
0.0235831
0.0808255
0.212092
3.95282
2.9107
0.0232713
0.0232524
2.74214
0.0247543
3.14581
0.0217243
0.200838
2.71676
2.82011
25.9813
0.0692455
1.60788
0.0225529
0.0231817
4.10732
4.29988
0.0233963
0.0707824
3.55343
4.3337
0.118952
3.66112
0.0220424
0.0220305
0.0258117
3.3543
0.0222774
0.0255169
0.0231531
0.0219961
0.0418906
0.0220917
0.156031
0.0220577
0.0220182
0.0219765
0.920984
0.368214
0.0713934
0.0626738
0.0889578
0.0220135
0.22827
0.274844
0.0224984
4.9517
0.0218931
22.633
0.021949
1.37859
2.99489
0.022504
0.247201
3.71406
0.092453
0.112625
0.0410911
0.0219344
4.26569
0.0233335
2.64236
0.0345383
3.28012
0.0222314
0.040993
0.0229084
0.0347996
3.9486
0.0220699
0.166426
4.36439
3.30347
2.90139
0.0219581
3.36186
0.0269511
2.99093
0.090405
0.174
0.0232527
0.0219799
3.08221
3.3642
0.0219678
2.78054
0.0221849
0.425741
0.0238085
2.76822
7.95926
3.43825
0.482926
0.0275143
0.0220599
0.0229213
3.00183
0.0532217
0.0224915
0.0225773
0.110169
0.934577
3.40054
0.347596
3.71255
3.13541
0.170535
1.22096
0.158114
3.23488
2.82049
0.0220636
5.51632
3.55789
0.362131
0.13748
0.033465
0.0970112
5.12041
0.0219683
1.94066
0.0894661
0.0219325
0.0218257
2.41368
1.78503
0.0466962
0.0962555
0.085558
3.1733
3.0337
0.0221509
3.92206
3.03351
0.022172
0.244737
3.0117
0.396891
0.0227052
0.0302978
0.133254
19.7775
3.69324
0.0311146
0.0230063
0.0217034
0.0226385
0.0223759
0.103823
2.32492
0.134679
4.32938
0.0680411
2.82805
0.0221368
0.0220231
0.376312
0.0684011
0.0223773
0.0305727
0.0265897
0.0902703
0.0362371
0.0219326
2.7073
0.0779244
5.34222
0.265133
0.0268307
3.08615
0.0341709
0.0817979
0.0221107
0.105065
0.198425
0.155206
0.0219848
0.501731
0.0221656
0.0249475
2.88342
25.1774
2.02958
4.00393
0.0393686
0.0221816
0.551496
0.0271781
0.437704
0.0220293
0.0221562
1.69007
0.142179
10.7642
1.06684
0.057695
0.124966
0.0235908
0.0380843
0.0217997
0.0359193
0.0293602
0.0283114
3.39097
0.0331387
3.36642
0.675081
23.8979
10.9677
0.047426
0.049857
18.8191
0.0807694
0.0237914
0.0221465
5.01721
0.0220187
3.03646
1.47646
0.0349911
0.0490835
0.0221593
1.48928
0.271355
0.0218653
0.323708
0.0223042
0.0218268
4.31166
0.0222727
0.0220981
0.0689665
0.0228383
0.0220265
0.0233317
0.0220602
2.92132
0.0234179
0.0232394
0.02208
0.334757
0.0349029
2.87292
2.90878
0.0222517
0.0882513
2.8722
0.0221641
5.02573
0.0235598
0.0361961
0.0220208
0.023619
0.0414166
0.0313116
0.0270933
0.0468367
0.0219069
0.021646
0.0282479
0.0217051
0.0220105
0.0220237
0.0217446
0.0710542
1.8288
2.93482
0.0287612
0.0330974
0.0584732
0.025465
0.0237228
0.0223826
0.0281038
0.212592
2.04438
0.0276077
7.5336
0.0221067
0.289213
0.0330411
3.86526
0.0355087
3.918
0.0220919
0.287411
0.0268407
5.40072
3.24116
0.0239747
0.0515756
0.022578
0.0224187
0.0220561
0.0222581
0.0602147
8.00886
2.86858
0.0307944
0.311374
1.94585
1.72877
2.98034
0.0229546
0.0221631
0.0218708
0.208666
0.0224156
0.0216801
0.18738
0.0277637
0.0554942
8.21484
0.0317852
0.0766606
0.0236757
0.0225558
0.122826
1.10513
2.87505
0.8644
0.542777
8.02369
8.14822
2.99504
0.0221195
0.0741636
0.0220364
7.41355
0.022635
0.0218958
0.0335146
0.0286983
1.68432
0.0219574
0.0221056
0.428707
0.02216
0.0224859
0.0380802
4.9553
0.0305277
0.0359642
0.029624
0.0228777
5.16684
0.0241915
0.0255676
0.0653781
0.0439835
0.0311882
0.023433
0.0225741
0.175967
3.33899
14.6373
11.0105
0.0225443
2.96793
0.0218796
0.0475534
0.022216
0.0220705
0.0343311
0.0221776
0.0425806
3.18943
0.0222776
0.0281099
0.0246146
4.81382
0.0238721
0.0217618
0.0629694
2.62477
4.35471
0.356177
3.20426
0.247094
0.0220581
5.06793
0.0260083
0.026415
0.0346898
0.0261927
0.0222861
8.16167
0.362288
1.38945
0.0245442
0.0218818
0.554973
0.0332845
0.0519969
0.0231103
0.024624
0.0665481
7.24469
0.0503546
0.0561318
0.0342403
0.0408272
3.48232
0.0221002
0.780453
0.022262
2.83818
0.0219141
0.0227166
6.76621
0.146473
19.8787
0.274282
0.0225208
0.227716
0.4057
0.924038
16.9309
0.0583568
0.0255319
0.220148
3.63402
0.037834
8.39523
0.0249676
0.0227539
1.32623
4.49271
0.0403484
9.56065
0.070385
0.375056
0.026434
0.599164
0.416703
0.0291248
0.180058
4.14001
0.0228997
15.1362
0.0356683
0.0220421
0.0405234
0.0237388
0.0253684
3.90266
0.302346
2.55816
4.09232
0.0220426
3.37933
0.0224372
0.0562481
0.184061
0.0221324
0.0751997
0.0766075
4.80003
0.0219658
0.208163
4.29745
0.0253688
0.021597
0.0312016
5.15139
0.0232341
0.212514
0.0351429
0.0280742
0.0220963
4.8031
0.0445564
0.263226
0.0233286
0.0217791
0.0256163
10.8036
2.71886
0.222213
0.137282
17.6092
0.0238997
5.21853
0.0221376
0.0220319
0.0251689
0.227625
0.0221712
3.95406
4.04935
6.97599
0.0394086
0.0220998
0.021602
2.71673
0.0219367
3.17072
3.40466
0.0221808
0.0238268
0.0884038
0.0265312
0.293461
0.15217
3.38847
0.298251
0.206073
0.969911
0.225789
2.51767
0.0293012
0.0223631
0.0227175
0.0227899
0.0221646
0.0227288
3.48899
0.0220135
2.89233
0.074164
0.0221083
3.34094
0.0505054
0.265315
0.0225991
0.192846
0.0493527
0.307728
5.57477
0.0920918
0.053018
0.0233795
21.773
0.0220657
0.0279365
5.43152
0.0235968
0.0222245
0.0220879
0.0222264
0.348215
0.0221788
0.0219139
2.92785
0.0620512
0.0223683
0.0503262
0.0226672
0.0241393
0.0221751
0.026772
0.024499
0.0242657
0.0223547
0.548174
0.511008
0.0230165
0.172234
0.0268023
0.0236092
3.62074
5.88545
0.0221728
0.0224094
0.0222085
0.0218068
0.0228915
0.0503421
0.0471022
0.0235609
0.0298521
0.0222222
0.132408
3.84905
0.0225108
0.0482197
0.0357261
4.07933
0.022135
0.039826
2.94387
0.0732568
0.0384439
0.0237369
5.26026
3.66421
0.0230735
0.023093
0.0232491
0.046663
0.0236908
0.189219
0.0230625
0.0263918
0.0731553
0.0895741
13.2362
0.622636
0.0237375
0.0476033
0.0223229
0.022265
0.0227053
2.62144
0.0780822
0.0220326
4.82293
3.35062
0.0251151
0.0244098
4.29167
0.192082
0.0424717
0.0220287
0.127692
16.235
0.0218775
0.0226254
0.022057
0.0229572
3.95281
0.0233303
0.0520012
0.0285705
0.041212
0.022277
2.16682
0.0222667
0.0565834
0.0231445
0.0219984
0.0640652
0.0226601
0.0222069
3.9807
6.81566
0.0853935
0.0886255
0.0226827
0.0260878
0.0223109
3.12683
3.60432
0.0222727
0.0464981
5.53033
0.0217304
0.224106
17.715
0.711767
0.022104
0.0262709
0.0879261
0.0911326
0.0262787
7.56225
0.0435652
0.0226287
0.0392247
0.0224138
4.41097
2.97595
0.0220195
0.112617
5.42682
0.0222613
3.25046
0.0271916
0.36086
0.0221024
0.0258381
21.033
11.1139
5.48559
0.0348946
0.0219505
0.022067
0.02807
0.0365442
0.191112
4.67577
0.0219848
0.0218003
0.0234395
0.0390367
0.187577
0.032271
0.0521346
3.31849
0.170273
0.0315807
0.14387
0.0221932
0.0737046
1.35333
0.0219544
0.057821
0.0622595
0.0220679
0.0314629
0.144207
12.4152
0.023458
0.026735
0.021576
5.48614
2.98781
13.5426
0.0238452
0.284766
0.0220496
0.0218678
3.00715
0.0221841
0.021884
0.0218522
0.0742154
5.0554
4.55389
0.0220929
0.287245
3.30478
0.0221209
0.0219924
0.0944626
0.022753
6.9532
0.226385
0.0237159
0.0373079
0.0222225
4.03057
0.0500449
3.89592
0.023494
0.0219554
3.74468
0.040759
5.93021
11.3896
0.0629422
0.0365458
0.106544
0.317894
3.34438
0.0551797
0.031305
0.0692412
5.33299
4.54994
0.0297164
0.938667
9.93469
0.0219392
0.0217433
0.0254156
0.0315267
3.94243
0.0758481
0.0221599
8.84361
0.0245113
4.19867
0.180501
0.0220814
0.0259394
3.407
6.55572
3.13553
0.0393228
0.02342
0.0220636
0.218761
3.62162
0.0420607
0.0222933
0.0868755
0.289213
0.0226157
0.0220811
0.0222938
0.0257851
0.0226222
0.0650344
8.24796
0.0220109
0.0243502
0.021755
0.0396831
11.7479
0.0220966
3.89511
0.0973887
0.0225871
0.023608
10.0343
0.0737885
0.0413519
0.0223689
0.122965
0.0224748
0.0410809
3.16499
0.0222858
0.0670595
0.022286
9.3447
0.0233729
0.0393092
19.6637
0.0393891
0.0321016
0.849163
7.9321
0.0237724
0.0529627
0.0238208
0.0219253
3.78876
0.0224452
0.266963
9.2926
1.4212
0.0222669
0.0234545
9.14507
3.25729
3.78294
0.0413581
0.216647
0.0220094
0.021713
0.0225845
0.0264145
0.0299054
0.0221135
0.0445031
0.300019
0.0221023
0.0467897
0.221891
0.0220992
0.0392722
3.18641
0.0232826
3.31531
0.27496
0.0545896
0.0473133
0.0241534
0.0231555
3.40845
11.364
0.0216307
5.68405
0.0256808
0.0227641
3.86464
0.0394733
0.0272413
0.204947
0.0216561
0.0230609
0.0220141
10.5538
0.0219991
0.0220905
2.89068
0.022246
4.6557
3.13636
3.84985
0.0219908
0.0275188
2.01292
0.026293
2.92546
4.73529
3.91387
0.02171
0.079038
0.0348214
5.11876
0.022167
3.37366
0.0218979
1.84424
0.104537
0.736199
5.76949
0.02331
0.0276062
3.81396
7.88275
0.0216027
0.022103
3.33038
0.0223882
0.0292457
3.19092
3.4527
3.38807
0.253897
0.0224057
0.0903026
0.0944394
4.46843
0.0364789
6.65443
0.0219953
0.0256562
0.0280074
2.19204
0.127065
0.0230093
2.99282
0.0222839
0.0285281
3.27497
0.0560894
0.0986904
5.788
0.0224879
0.0507899
0.0222861
0.0223252
0.021892
3.6128
0.215372
0.0243607
2.7412
4.91435
0.104926
0.0222285
0.0226196
0.0219043
3.21066
0.187527
3.59756
0.0216117
0.0326224
0.124973
0.0247708
0.0692988
3.0574
3.40551
0.154386
3.63341
6.38075
0.0456162
0.0292271
0.027057
0.0225749
0.0222953
0.0222733
3.13309
0.0275926
0.022265
0.612387
0.187246
6.60947
0.0254077
6.77411
0.021956
3.22675
0.0227184
3.38951
4.84308
0.0237964
0.324185
10.81
0.0220643
0.205027
3.48569
0.0217708
0.0863889
0.0228238
3.18124
0.0848224
0.297169
0.0222528
0.0535311
0.0505986
3.25458
0.102743
0.0220272
0.067607
0.0507782
0.0226815
2.91314
0.0637806
0.0232999
3.94507
0.0632818
0.026571
0.0581367
0.0841082
2.67073
0.0257945
0.0289387
0.88349
2.76375
0.104628
1.61299
0.176154
0.0278975
4.22388
0.0461679
0.0218594
0.0271973
5.64349
3.13716
0.0253289
3.35902
0.0464671
0.0741458
3.74695
3.36576
0.0223339
0.0222949
0.0529027
0.0220126
0.0976534
0.207712
3.23918
0.0365813
2.8649
0.0220618
3.87056
3.96543
0.0220331
3.08699
0.0219551
9.1324
0.024961
0.0227
1.43922
0.0296744
0.0225657
3.52564
0.0685381
0.0236584
5.58691
3.86818
0.329578
0.186448
0.0233121
0.0770898
10.2051
0.0215563
0.0224361
3.88461
3.33151
3.40449
0.0469686
0.0386232
0.023194
4.46209
0.0224522
0.0252742
3.47398
2.93938
3.91982
3.75903
0.022804
0.0488931
3.68946
0.0606177
0.022067
0.0259397
3.04896
0.0242989
0.039589
9.12251
0.0401599
3.29537
0.0221725
0.0759065
3.6956
0.0429365
0.139268
0.024703
0.0280018
0.0805807
0.0434274
0.093638
0.159376
0.0414019
3.01714
0.0219603
0.0432811
0.0219851
0.196906
3.03311
0.0222777
0.0442113