/*--------------------------------*- C++ -*----------------------------------*\
| =========                 |                                                 |
| \\      /  F ield         | OpenFOAM: The Open Source CFD Toolbox           |
|  \\    /   O peration     | Version:  v2012                                 |
|   \\  /    A nd           | Website:  www.openfoam.com                      |
|    \\/     M anipulation  |                                                 |
\*---------------------------------------------------------------------------*/
FoamFile
{
    version     2.0;
    format      ascii;
    class       volVectorField;
    location    "400";
    object      ddt0(U);
}
// * * * * * * * * * * * * * * * * * * * * * * * * * * * * * * * * * * * * * //

dimensions      [0 1 -2 0 0 0 0];


internalField   nonuniform List<vector> 
14479
(
(0.000421252 0.000542825 0)
(0.000655742 -0.000126763 -4.6532e-21)
(0.000320396 0.000120586 -2.37526e-21)
(-0.00165851 0.000145864 1.50027e-22)
(0.000626953 -1.22947e-05 0)
(-0.000921898 3.11013e-05 1.67838e-22)
(1.02966e-06 -1.85885e-05 2.20901e-21)
(1.25645e-05 1.52862e-05 -4.68162e-22)
(0.000138113 4.85379e-05 0)
(0.00349277 -0.00205309 0)
(0.000861366 -0.000605016 3.14894e-21)
(-0.00168789 8.72034e-05 7.09394e-22)
(-0.00216536 -0.000384115 -3.27788e-21)
(-0.00223604 -0.000392807 3.45546e-21)
(-0.00157345 -0.000648634 0)
(-0.000375795 -0.000144841 -2.20347e-21)
(0.000707979 0.00309654 1.18375e-21)
(-0.000181034 -4.00746e-05 -2.16044e-21)
(0.00278786 0.00338682 -2.16339e-21)
(0.00021907 -0.00188041 -8.68465e-22)
(6.25554e-05 -4.21994e-05 0)
(0.000236818 3.45801e-05 5.49818e-21)
(-0.000338677 -2.15631e-05 1.26654e-21)
(0.00134619 0.00183711 2.17916e-21)
(0.000143094 4.62854e-05 3.8861e-21)
(-0.000150334 -0.00086378 -4.77909e-21)
(0.000636539 -0.000570281 7.17304e-21)
(0.00341537 -0.00214939 2.85609e-22)
(0.00285481 0.000322834 7.15931e-22)
(-0.00157841 -0.00067427 4.03297e-22)
(0.00112185 0.000485868 -3.34665e-21)
(2.49949e-06 0.000501947 0)
(0.00241034 0.00350919 2.62301e-21)
(1.70101e-05 3.17484e-05 4.79678e-22)
(6.96569e-05 0.00010199 0)
(-4.51212e-05 6.43456e-06 -8.15643e-22)
(1.75513e-05 -0.000231578 -2.29501e-21)
(-0.000275411 -0.000195909 3.82547e-23)
(0.000340574 8.7124e-05 1.01248e-22)
(-0.000739484 -0.00108535 0)
(-0.00133535 -0.000700166 3.49995e-21)
(0.000327928 8.5486e-05 0)
(9.35983e-05 -0.000422911 -3.83312e-21)
(0.00016272 0.000147484 0)
(-0.000479328 0.00010293 1.43462e-21)
(-0.000591399 0.000684625 0)
(-0.00047123 -0.000113235 0)
(-0.000961796 -0.000314002 -1.77242e-21)
(0.000122258 0.000109139 7.16721e-22)
(-0.000243348 -0.0018089 1.04087e-20)
(9.1592e-05 -3.87606e-05 0)
(0.00563883 0.00349973 -9.51177e-23)
(0.000940395 0.000112839 0)
(0.000436055 0.00160671 -1.2979e-21)
(0.000116155 0.00010804 -7.57424e-22)
(7.77126e-05 -0.000177619 -1.17336e-23)
(0.00122324 9.04588e-05 -4.80251e-21)
(0.00462149 0.000101271 0)
(-4.98427e-05 6.02878e-06 0)
(-0.000554999 0.00152151 0)
(0.000337028 0.000104622 -8.08999e-22)
(3.82535e-05 7.51314e-05 0)
(-0.000174396 -0.00281433 -5.23384e-21)
(0.00150462 0.000741916 1.2204e-21)
(-0.00330501 -0.00601745 1.40199e-21)
(0.00423151 0.000453505 0)
(0.000133651 0.000247343 0)
(0.000114662 -0.000377147 5.39806e-21)
(0.00301921 -0.000315549 1.73502e-21)
(0.00843754 0.00269594 0)
(0.00160214 -0.000838909 -1.89753e-21)
(-0.000335833 -0.00215814 0)
(-0.0011333 0.000869579 4.16061e-21)
(-0.000126563 -0.000654626 -2.27146e-21)
(6.02787e-05 -4.87646e-05 0)
(0.000144279 3.92528e-05 -5.16084e-21)
(0.00194807 -0.000750021 1.1731e-21)
(-0.00201497 -0.00040367 -9.21822e-22)
(0.00223873 0.00373859 -1.71557e-22)
(0.00163741 -0.000731079 1.47734e-21)
(-6.13718e-05 -0.000369853 0)
(6.78953e-06 -1.09578e-05 2.17008e-21)
(0.000124256 0.000127071 4.49015e-22)
(-0.000122361 -0.00214866 0)
(-6.23194e-05 0.000190061 -2.90512e-21)
(-0.000537561 0.000608778 0)
(0.00060965 -0.0036983 8.13358e-22)
(7.83815e-05 -0.000112172 2.80109e-21)
(0.00178319 -0.000681641 -1.35159e-21)
(0.000118549 -2.85649e-05 -1.43896e-21)
(0.00391605 -0.000773973 1.6998e-22)
(0.00426208 0.000471328 6.6437e-23)
(0.00206433 0.000569627 0)
(-0.00175047 -0.000246027 1.40474e-21)
(0.000238935 0.000165626 -1.46746e-21)
(0.00237059 0.00381606 5.42907e-22)
(1.19911e-05 0.000126028 -8.28503e-22)
(0.00381334 -0.000704236 -3.33829e-22)
(0.000119872 0.00015201 0)
(0.00483483 -0.00135897 2.21342e-23)
(0.000863636 0.000490771 0)
(0.00468638 0.000114684 0)
(-0.000462402 0.00162033 0)
(3.8442e-05 4.13519e-06 0)
(0.000118093 0.000147814 -7.01213e-22)
(-4.12926e-05 6.11797e-06 -2.16721e-21)
(-0.00375677 -0.00619457 -1.12307e-21)
(-0.00100749 0.000825643 -3.36874e-21)
(0.00127494 6.81109e-05 -1.7744e-22)
(-0.00141571 -0.000666526 -5.60652e-21)
(0.000116302 0.000161266 -9.4197e-23)
(0.000127209 0.000115393 0)
(-4.62404e-05 0.000496328 -5.15704e-21)
(0.000393184 0.00169339 1.64023e-21)
(0.000627538 -0.00054672 0)
(0.000204233 -0.000213241 1.0711e-20)
(0.000141188 3.3433e-05 0)
(-0.00018601 -0.00179127 -6.87412e-21)
(5.60389e-05 -0.000214751 -2.14389e-22)
(0.000619231 -0.00307239 8.19334e-22)
(6.37369e-05 9.95433e-05 -8.27887e-23)
(3.63241e-05 -9.3297e-05 0)
(-4.20174e-05 0.000551976 0)
(0.000357458 0.000181269 -1.28756e-21)
(-0.000226796 0.00149649 6.5678e-22)
(-3.31879e-05 5.26045e-05 -2.36512e-21)
(0.000100531 0.000173767 -9.20195e-22)
(3.37292e-05 -0.000204699 -9.00363e-21)
(-4.11875e-05 4.55993e-05 0)
(0.00460584 0.00016846 0)
(-2.71171e-05 7.37155e-05 -1.55528e-21)
(0.00280589 0.00298624 -9.89493e-22)
(-0.000145178 -0.000507092 0)
(-2.52335e-05 5.51669e-05 2.64115e-21)
(-0.000951055 0.000197789 -1.03494e-22)
(0.00125392 -0.000315891 -3.09863e-22)
(0.000543851 -0.000864062 -2.23215e-21)
(5.99071e-05 -0.0001743 -1.32652e-21)
(0.00559407 0.00343126 7.02406e-23)
(-0.00156442 0.000221305 -2.47064e-21)
(4.93358e-05 8.59196e-05 -2.17051e-22)
(-0.001349 -0.000134912 -1.68157e-21)
(0.000164516 0.000152911 0)
(-0.00203212 -8.89244e-05 -2.11773e-21)
(0.00142131 0.000744132 2.23434e-21)
(-7.01141e-05 0.000182761 4.80809e-21)
(0.00205776 0.00321161 0)
(0.000100416 9.45554e-05 1.51162e-21)
(0.000426344 0.000439513 0)
(0.000230241 6.39527e-05 -6.37359e-22)
(0.00213773 0.00377228 -1.06397e-21)
(0.000311058 0.0001273 2.62304e-21)
(6.55482e-05 -4.00667e-05 7.44565e-22)
(0.000791407 0.00242839 -9.58629e-22)
(0.000317898 0.00295706 0)
(0.000608062 0.000432856 -5.92345e-22)
(0.00254824 -0.00231164 5.19417e-22)
(2.70509e-07 -1.52531e-05 1.1266e-20)
(0.00053172 -0.00171457 7.96954e-22)
(0.00225371 0.00382444 8.60773e-23)
(0.00249033 -0.00244287 -1.51785e-21)
(0.00475141 0.00111908 -2.19211e-21)
(0.00222603 0.00392861 -1.10699e-23)
(0.000426248 -0.00340982 -1.00043e-21)
(0.00485835 0.000165444 -3.05063e-22)
(-0.000943979 -0.000404846 1.54151e-21)
(-6.91004e-05 6.19462e-05 -2.02071e-21)
(0.000153616 0.000526391 0)
(9.18464e-05 -4.52574e-05 0)
(1.81082e-05 0.000127899 -7.48618e-22)
(-2.65505e-05 9.07389e-05 3.47501e-21)
(-0.000571651 0.000529609 0)
(7.22324e-05 -0.000184224 -6.11481e-21)
(0.000384123 -0.00279472 -1.04862e-21)
(9.61196e-05 -0.000151418 -5.20049e-21)
(0.00173968 -0.00118794 -1.95614e-21)
(6.90838e-05 -0.000129822 -6.18767e-22)
(2.75929e-05 0.000154121 5.72357e-22)
(0.000680316 -0.000865265 0)
(0.000193518 -8.52883e-05 -4.67849e-21)
(0.0010502 0.00254718 -1.50429e-21)
(5.69548e-05 -4.96568e-05 0)
(5.96484e-05 -0.000207027 0)
(0.00205871 0.000627797 -3.12529e-22)
(5.20577e-05 -9.80879e-05 0)
(0.00098257 -0.000406785 -3.73606e-21)
(9.60999e-05 -0.000407719 3.47332e-21)
(3.57208e-05 -0.000334361 -3.79224e-21)
(-0.000633938 -0.0014002 -6.66849e-21)
(0.000227501 0.00145349 5.29378e-21)
(4.27779e-05 -0.000105824 2.13604e-21)
(0.00494757 -0.00161037 -6.70401e-23)
(0.000107056 0.000156369 0)
(4.22144e-07 -1.12594e-05 -4.28672e-21)
(-0.00149024 -0.000196358 -4.29839e-21)
(0.00220059 0.00386097 1.71564e-23)
(-0.000287134 -0.00372268 7.11751e-21)
(0.00402838 -0.00298395 -4.20169e-22)
(0.000311657 0.000236132 -2.52043e-22)
(9.29076e-05 -0.000158199 4.79264e-21)
(0.000191455 -0.000212432 -8.44616e-21)
(0.000159747 0.0031889 -7.5551e-22)
(0.00868307 0.00255241 -1.77139e-22)
(0.0014683 -0.000545442 1.3619e-21)
(-0.00130865 -0.000110941 3.22447e-21)
(0.000162394 -0.000204563 -3.15239e-21)
(6.19043e-05 -0.000174441 0)
(-0.00072348 -0.0022994 8.79668e-22)
(2.03164e-05 0.000161083 0)
(0.00102407 -0.000430352 4.1443e-21)
(0.000175297 0.00236167 8.84281e-22)
(0.00402544 -0.00399184 0)
(0.000176703 -0.00013504 0)
(9.90563e-05 -0.000370207 -7.41467e-21)
(9.16948e-05 -1.73264e-05 -4.54938e-21)
(-0.000830928 0.00175121 6.69095e-22)
(0.00458186 -0.0022088 -2.16506e-23)
(-0.00076781 -0.000243449 0)
(1.4459e-05 -0.000228175 0)
(0.000462838 0.000407137 2.33681e-21)
(0.000749177 0.00350724 0)
(0.00315772 0.00169978 -3.80978e-23)
(0.00477362 -0.00124182 0)
(0.000108767 8.87653e-05 8.90284e-22)
(-0.000185235 -0.00144638 -3.48459e-21)
(-0.000907825 0.000526142 0)
(0.000250958 4.53853e-05 -6.14492e-22)
(0.000123056 0.000112713 0)
(-0.000694604 -0.00108967 0)
(7.46572e-05 -0.000117924 -2.71325e-21)
(0.000112387 -0.00016622 5.46505e-21)
(1.88973e-06 -1.71559e-05 1.46381e-21)
(0.000549765 -9.12858e-05 0)
(-0.00218379 -0.000416468 -6.63844e-22)
(1.1101e-05 -0.000316686 7.57558e-21)
(0.00017108 -0.000209575 -4.36155e-21)
(0.00121972 0.000146224 4.25685e-23)
(8.22286e-05 -0.00161436 4.65345e-24)
(9.64015e-06 -0.000229611 4.86966e-21)
(0.00018253 4.8267e-05 -4.29978e-21)
(-0.000895613 0.000594674 -9.23395e-22)
(-0.000999941 0.00139244 2.78867e-22)
(0.000111052 0.000157773 1.77253e-22)
(-0.000262815 -0.00062095 1.05231e-20)
(0.00425191 -0.0033865 6.7834e-23)
(0.000115801 0.00248168 -7.71456e-22)
(4.15185e-05 7.89469e-05 0)
(0.000122249 -2.17795e-05 0)
(0.001658 0.00049986 -6.80361e-21)
(0.00344019 -0.000188012 -8.79514e-22)
(1.36594e-05 1.32989e-05 4.64554e-22)
(-0.00137999 0.000753643 8.55362e-23)
(4.23156e-05 -3.19207e-06 -1.0287e-22)
(-3.47602e-05 4.81329e-05 1.38383e-21)
(0.00332394 -0.000155108 7.43062e-22)
(0.000514159 0.00233713 -4.39465e-22)
(3.20557e-05 -0.000225872 -4.67248e-21)
(0.00241855 0.000807588 2.71296e-21)
(-0.000284105 -0.000896087 0)
(0.00136708 0.00209331 -2.47265e-21)
(0.000194927 -0.000360715 -1.18628e-21)
(0.0057098 0.000905488 5.76829e-22)
(-0.00149063 -0.000165171 4.27011e-21)
(-0.00098254 0.000303636 1.29865e-22)
(5.2807e-05 -0.000162338 0)
(0.000607818 -6.20358e-05 4.90419e-21)
(4.96707e-05 -0.000164112 0)
(0.0048091 -0.0010331 -3.13047e-22)
(-0.00171722 0.000473494 -3.18097e-21)
(0.00251312 -0.000461288 1.79073e-21)
(0.00202172 0.00332076 0)
(3.16386e-05 -0.000201294 1.16114e-20)
(0.00423658 0.000619784 0)
(-1.50717e-05 -0.000183033 0)
(0.000199956 -7.75686e-05 -1.87082e-21)
(0.00435411 0.000831362 6.06475e-23)
(-0.000961116 0.000653963 4.89129e-22)
(5.40491e-05 9.81253e-05 2.10914e-22)
(0.00414246 0.000997837 2.89045e-22)
(0.00254844 0.00229397 -1.38479e-23)
(0.00418807 0.000597145 -8.26149e-23)
(0.00426058 0.000869701 0)
(0.00266346 -0.00259585 0)
(-0.000120537 -0.000328753 0)
(9.04283e-06 -4.62167e-05 7.66622e-22)
(8.7766e-06 -0.00022149 4.85631e-21)
(0.000392283 -0.00143336 4.40358e-21)
(-7.57838e-06 -0.000183183 -6.55696e-21)
(-0.00129205 -0.00035646 -1.9366e-21)
(-0.00116996 -1.45219e-05 -2.95028e-21)
(-0.000827733 -7.1349e-05 8.41876e-21)
(-0.000608199 -0.00016922 -8.7873e-21)
(0.00121422 -0.000290037 -4.14426e-24)
(-0.00103669 -2.94536e-05 -7.40746e-22)
(7.23886e-05 -0.00018695 0)
(0.000458727 0.000440171 9.3918e-22)
(0.000139781 -7.14737e-05 0)
(9.04224e-05 -0.000826607 2.15166e-21)
(-6.86563e-05 6.57349e-05 2.26225e-23)
(0.000463711 -0.000223973 -3.70024e-21)
(9.02033e-05 -2.53365e-05 3.85382e-21)
(0.00188322 0.00124931 -1.25415e-21)
(3.09531e-05 7.50345e-05 -4.33281e-23)
(0.000145301 -0.000203064 1.48801e-21)
(0.000496 0.00040156 -3.26705e-21)
(-0.00182938 -0.00040986 -1.42615e-21)
(0.00135357 7.72734e-05 8.4728e-22)
(0.00153416 -0.000656294 0)
(8.14733e-05 0.000144589 5.72007e-22)
(9.2209e-05 0.000185018 -5.62044e-22)
(0.00320595 0.00175489 0)
(0.000827072 -0.000612596 0)
(0.00131459 -0.000403376 -2.24417e-23)
(0.000109978 9.71796e-05 -1.45473e-21)
(0.000185504 5.40961e-05 5.66547e-22)
(1.77473e-07 -2.41458e-05 -3.14531e-21)
(-0.00159559 0.000156867 1.47036e-21)
(0.000801165 -0.000319609 0)
(6.51337e-05 -0.000128391 -1.24555e-21)
(4.2038e-05 1.20918e-06 -2.51314e-21)
(0.00018398 -0.000137698 0)
(3.48499e-07 -0.000229848 -6.28988e-21)
(0.000120465 -0.00016183 -6.23264e-21)
(0.00308587 0.000301335 0)
(-0.000651076 0.00323462 0)
(-0.000457338 -3.02634e-05 -4.21707e-22)
(0.00309403 0.00316893 0)
(0.00102755 -0.00088704 0)
(0.00336382 0.00121329 0)
(9.48372e-05 7.52132e-05 7.2703e-22)
(0.000633399 0.000383914 0)
(0.000364856 -0.00032139 0)
(0.00379002 -0.00280516 1.34315e-22)
(-0.00213595 -0.000423633 2.27412e-21)
(-0.00063867 0.00323753 3.3782e-22)
(3.72367e-05 4.19521e-06 0)
(0.000410838 -0.000167382 0)
(0.000236586 0.0017655 8.54216e-23)
(-0.000589247 -0.00127255 -6.41291e-21)
(0.000631959 0.000643217 -5.58822e-22)
(0.00311663 0.0027782 0)
(0.000146228 0.000245205 0)
(-0.00103569 7.28798e-06 1.95898e-21)
(1.99686e-05 3.20304e-05 0)
(-0.00167692 0.00054067 1.97196e-21)
(-6.49468e-05 7.2124e-05 1.15722e-21)
(0.00429402 0.000560312 0)
(0.00491666 -0.00186373 -2.22924e-22)
(-5.95855e-05 7.32569e-05 -2.63884e-21)
(0.000623293 0.000699584 -1.09066e-21)
(-0.00179075 -0.000290574 -1.5711e-21)
(0.00424478 0.000881759 0)
(0.000323575 0.000105621 -7.54344e-22)
(9.55609e-05 -4.58967e-05 0)
(0.00435336 0.000841148 0)
(4.45898e-05 -6.73508e-05 -3.88618e-21)
(4.97945e-05 7.79382e-05 3.58239e-22)
(0.00340864 0.00163961 -2.55767e-22)
(0.000101374 0.000167235 0)
(0.000142183 5.53144e-06 -4.69345e-23)
(0.000142134 1.86966e-05 1.54411e-21)
(-0.00105761 0.00142165 0)
(0.0011076 0.000844531 -1.18323e-21)
(0.000143961 2.54784e-05 0)
(0.00417125 0.00096351 -2.06605e-22)
(9.23521e-05 0.000130825 0)
(0.000110121 -0.00103935 2.34784e-21)
(-0.00210667 -0.000422381 1.33657e-21)
(0.00343045 0.00116491 -1.11738e-22)
(0.00161122 -0.000342422 3.02691e-21)
(-0.00237267 0.000341735 0)
(0.000852442 0.00160242 1.7949e-22)
(-0.000810176 8.08408e-05 3.68804e-23)
(0.000854165 -0.00323702 0)
(-0.00028261 -0.000711909 5.78721e-21)
(0.00661609 0.000959532 5.27649e-22)
(1.86059e-06 -0.00192088 8.89672e-22)
(0.000393225 -0.000637055 3.06065e-21)
(0.00341359 -0.000547236 1.31513e-21)
(0.000137894 -7.56739e-05 -4.89152e-21)
(9.49657e-05 9.37982e-05 0)
(0.000229078 0.00014581 5.3049e-22)
(0.000970483 -0.000750969 -3.12934e-21)
(9.27619e-06 -0.000980239 0)
(0.000550425 0.00152737 0)
(0.00127251 0.000833101 -1.64413e-21)
(3.78602e-05 -5.88872e-05 7.59672e-22)
(0.0019841 0.00179825 -1.90594e-21)
(2.45442e-06 -0.000246931 5.67494e-21)
(-0.00131618 0.00152931 5.39503e-23)
(0.00053874 0.000759568 3.20015e-22)
(5.33998e-05 8.28132e-05 -3.34761e-22)
(-0.00108334 -0.000525713 6.76079e-21)
(-0.0016451 -0.000375404 -2.31855e-21)
(0.00810989 0.00279983 -5.13375e-22)
(0.0040792 -0.00408883 1.23609e-22)
(0.00219432 0.00095872 1.88941e-21)
(0.000877725 -0.00320661 0)
(9.6826e-05 7.28239e-05 -8.08374e-22)
(8.10793e-06 -2.83366e-05 4.23314e-21)
(0.00544956 0.00103155 2.1098e-21)
(0.00423474 0.000630802 -3.91294e-23)
(-0.0017717 0.000361312 1.88873e-21)
(0.000229772 0.000305143 6.0596e-22)
(-0.000843396 -0.000997001 -6.39846e-21)
(8.47108e-05 0.000186595 1.03719e-21)
(-0.000802373 -0.000265617 -3.43985e-21)
(0.0018269 0.00117087 9.66214e-22)
(-0.000442664 -0.0019434 0)
(4.62443e-05 7.67227e-05 0)
(0.00379996 -0.00178149 0)
(0.00136128 -0.000885355 7.83903e-22)
(5.54614e-05 -0.000100804 -1.05488e-21)
(9.95438e-06 -3.28958e-05 -2.79245e-21)
(0.000193132 -0.000870473 -6.59985e-21)
(2.60072e-05 2.60109e-05 -5.74624e-22)
(-0.00168957 -0.00119337 -1.29457e-20)
(0.00130457 0.000639117 0)
(5.46587e-06 -1.05092e-05 -2.15132e-21)
(0.000537917 7.94585e-05 5.807e-22)
(0.000330752 0.00016373 -1.988e-21)
(0.000650855 -0.000151513 5.21406e-21)
(0.00335486 0.000737532 -8.81374e-22)
(-0.00183468 0.000502056 -5.14356e-23)
(0.00256346 0.00328398 0)
(0.00059945 -0.000135425 2.08043e-21)
(0.00333177 0.00170878 2.31372e-22)
(6.95921e-05 -5.70283e-05 9.98648e-22)
(0.000403245 -0.000150845 3.39748e-21)
(-0.00207049 -0.00013487 3.85039e-21)
(-0.000738555 -1.09154e-05 0)
(0.00136504 0.000833157 -2.9527e-21)
(-0.000218311 -0.000114539 2.25852e-22)
(0.000182012 0.00011715 2.39452e-21)
(0.000599653 -0.000112421 -8.20856e-22)
(0.00471476 0.000546142 0)
(0.000188055 -0.000182836 -1.6944e-21)
(0.00311804 -0.00511303 0)
(-0.00046693 -3.0069e-05 4.80348e-22)
(0.00171238 0.00175664 -2.53773e-21)
(0.00419146 0.000577666 -1.69181e-22)
(0.00391911 -0.00181011 0)
(-0.00197571 -0.000246437 0)
(6.8903e-05 -5.38377e-05 -9.02447e-22)
(0.000279659 0.00168769 0)
(0.000294523 0.000238717 0)
(-0.000172694 -0.000873348 4.12623e-21)
(-0.0017513 0.000422381 -1.6606e-21)
(0.000116114 0.000157828 1.06158e-22)
(0.000231733 0.000136587 -8.17451e-22)
(-9.84383e-07 -0.000206708 0)
(0.00254835 0.000547974 -2.36869e-21)
(-0.00128891 0.00123364 4.51273e-22)
(-0.00103523 0.00131091 -1.32448e-22)
(5.56316e-08 -3.54476e-06 2.56088e-21)
(0.000929512 0.00237968 6.01706e-22)
(4.30831e-05 7.79481e-05 0)
(-0.00137791 0.000895183 0)
(0.000812267 -0.00070986 4.17136e-21)
(-0.000106879 0.00147756 0)
(0.000185873 0.000321925 9.47871e-22)
(5.30905e-05 -0.000194603 -2.18556e-21)
(0.00105514 0.000125226 8.87987e-22)
(0.0012212 -0.000350706 -1.64598e-21)
(0.00350065 0.00118636 2.96061e-22)
(-0.00159617 -0.000403751 2.51674e-21)
(0.000326545 0.000153637 0)
(-0.00113104 0.000713895 0)
(-0.00217125 -0.000414653 -6.22267e-22)
(-3.93083e-05 4.88274e-05 8.54137e-23)
(-3.77643e-05 7.09413e-06 3.47445e-21)
(4.04096e-05 -4.28312e-06 -9.43981e-22)
(-0.00204908 -0.000431127 0)
(0.000850835 0.00343823 8.31345e-22)
(-0.00128288 -6.52416e-05 2.474e-21)
(-0.000306129 -0.00167891 8.75902e-21)
(7.63011e-05 0.0013278 3.51146e-22)
(-0.0016917 -0.000414826 0)
(0.000401931 -0.00064478 -2.79925e-21)
(0.00164834 0.00172718 2.88746e-21)
(0.000235485 6.11518e-05 0)
(-0.00118397 -0.000276428 2.31712e-21)
(0.000760301 -0.000693114 -6.27499e-22)
(0.00107511 0.00124463 9.02148e-21)
(0.000101605 0.000145851 6.37356e-22)
(-0.000177573 -0.000969008 0)
(5.59631e-05 7.90199e-05 2.33444e-22)
(0.00273738 -0.000296516 -1.89722e-21)
(0.000717582 -0.000478389 -3.0388e-21)
(0.00421829 -0.00364676 0)
(0.000308065 -0.00110032 2.57921e-21)
(1.69525e-05 -7.7569e-05 5.03344e-21)
(2.92124e-05 2.61425e-05 0)
(0.00477226 -0.00145042 -1.28589e-23)
(-0.000681107 -0.000165275 -1.62626e-21)
(4.01323e-05 8.33621e-05 -1.72486e-22)
(0.000380528 0.000548654 -4.7618e-22)
(-0.00135179 0.000356181 1.18617e-21)
(-0.00302871 0.000235457 -1.39495e-22)
(0.000160864 0.000184238 -7.23366e-22)
(3.96101e-05 -0.000318435 -2.35745e-22)
(-0.00312527 0.000424324 9.21836e-24)
(0.000292301 0.000208039 -1.00703e-21)
(6.80889e-05 -0.000194013 6.11131e-21)
(-0.0019418 -0.000182577 -1.4683e-21)
(0.00308708 0.000208072 0)
(0.0022556 0.00392663 -8.18412e-22)
(4.42346e-05 9.84295e-05 0)
(5.93857e-05 0.00010059 -4.81637e-22)
(-0.00203102 -0.000381277 1.4233e-21)
(0.000576328 -8.9951e-05 -2.88668e-21)
(-0.000705817 5.2629e-05 0)
(0.000265859 0.000192803 0)
(0.00345448 0.000842688 4.14668e-22)
(2.30218e-05 6.2558e-05 -7.6017e-23)
(3.97676e-05 -9.77617e-05 1.04126e-21)
(1.1141e-05 -5.30119e-05 1.09701e-22)
(6.85887e-05 -0.000162925 8.47477e-22)
(-0.00102482 -0.000304123 -5.22341e-22)
(0.00162239 0.000566472 0)
(0.00165407 0.000170259 1.08631e-21)
(-0.000303407 0.00117913 0)
(0.00130779 0.000317059 -1.79759e-21)
(-0.000774002 -0.00102012 6.58356e-21)
(0.00405128 -0.00377068 0)
(0.00477717 0.000364811 0)
(-1.27813e-05 7.50196e-05 -6.53763e-22)
(0.000181953 0.000346903 0)
(0.00894959 0.00249286 4.44937e-22)
(-0.00201881 -0.000310322 -3.05321e-21)
(8.84135e-06 -0.000204588 0)
(0.00163402 0.00059992 0)
(0.00511536 0.00154733 -2.60295e-22)
(0.000520513 -0.000788232 -4.627e-21)
(0.000115298 -0.000174444 5.90064e-22)
(0.00037033 -0.00205633 0)
(0.00184977 -0.00013634 -3.08301e-21)
(0.00281695 0.000703519 1.29057e-21)
(-0.00188503 -5.9872e-05 0)
(0.0012179 0.000719605 3.17424e-21)
(-0.0011744 -5.47614e-05 -1.8444e-21)
(-0.000167472 4.26382e-05 -4.31369e-21)
(0.000493167 0.000113423 6.49753e-22)
(-0.000750069 -0.000401507 -4.3497e-22)
(0.000104483 9.67134e-05 4.12173e-23)
(2.45209e-07 -0.000249133 6.57571e-21)
(0.00339293 0.00289735 0)
(-9.6589e-07 -0.000216132 1.17941e-20)
(0.000181315 0.000118761 0)
(0.000547594 0.000132679 -1.35049e-21)
(2.22089e-05 0.000152054 2.34483e-22)
(0.0016694 -6.31246e-05 2.16801e-21)
(1.58398e-05 4.98805e-05 -5.39597e-23)
(4.70031e-06 -0.000248603 -1.26123e-20)
(0.00312512 5.17482e-05 -7.77111e-22)
(0.000136261 -7.46771e-05 -4.50738e-21)
(0.00151758 -1.45857e-05 -5.36954e-22)
(-0.00184639 -0.00042464 3.42704e-21)
(-0.00122724 0.000411376 2.57629e-21)
(-0.00176563 -0.000426808 -2.42021e-21)
(0.000629352 -8.17951e-05 -5.57261e-21)
(0.00114339 0.00179695 9.30955e-22)
(-7.51861e-05 -0.000458436 -2.8011e-21)
(0.0027304 -0.00499379 0)
(3.5281e-05 7.57079e-05 -3.23891e-22)
(0.000593331 0.00229392 9.12008e-22)
(0.000465741 -0.000622631 1.36063e-21)
(2.32977e-05 6.16058e-05 1.1101e-22)
(4.69282e-05 8.5669e-05 2.00467e-22)
(0.000112677 0.000162215 7.14309e-23)
(-6.25649e-05 -0.000461562 0)
(1.57507e-05 5.12016e-05 7.87513e-23)
(0.00218159 -0.00439306 -2.98914e-22)
(0.00031752 -0.000967315 6.85029e-23)
(0.000288013 0.000192211 3.0969e-21)
(-0.00140942 0.000158453 1.28877e-21)
(-0.000919851 -0.00679177 -3.97781e-22)
(-4.6854e-05 8.67655e-05 0)
(0.000293686 -0.000312756 -1.17771e-20)
(0.00106472 0.00174208 -8.22419e-23)
(-0.00195472 -0.000221072 0)
(-3.7089e-05 8.87737e-05 3.62538e-21)
(0.0008708 0.000109917 0)
(0.000134472 0.000260671 7.67709e-22)
(-0.000146164 -0.000122621 -2.31227e-21)
(3.40645e-05 7.3948e-05 1.76619e-22)
(7.77365e-06 4.57121e-05 3.32393e-22)
(0.00493172 -0.00142585 0)
(0.00350732 0.00116638 0)
(-0.000632008 -0.000442506 -4.57379e-22)
(-0.000146104 -0.000943627 1.44182e-21)
(7.53924e-06 -3.01615e-05 0)
(8.25292e-05 -0.000168232 0)
(0.00344856 -0.000358873 -1.65223e-21)
(-0.00214955 -0.000339412 0)
(0.00802714 0.00230833 0)
(4.20327e-05 1.49966e-05 -6.50213e-22)
(1.02279e-05 -0.000215439 0)
(0.000247227 -0.000149341 -6.90402e-21)
(4.84702e-05 -0.000200968 6.1969e-21)
(0.00254181 0.00338897 0)
(5.48423e-05 -0.000152823 5.20311e-21)
(0.000888977 -0.0024426 2.95305e-21)
(0.00219474 0.000552971 -4.34377e-22)
(-0.000976749 -7.93124e-05 -1.76645e-21)
(-2.8128e-05 5.20327e-05 -1.22087e-21)
(-0.00205024 -0.000298533 1.15331e-21)
(0.00102265 0.00183478 -7.18962e-22)
(9.50213e-05 -0.00017472 -6.35946e-21)
(0.00108212 -0.000104542 7.66853e-22)
(0.000129464 -0.000120853 0)
(-0.000746257 0.000663687 1.83233e-21)
(0.000798818 -6.90627e-05 0)
(9.01984e-05 -6.19081e-05 4.77426e-21)
(5.9976e-05 -0.000133264 5.17363e-21)
(7.79771e-05 -0.000173701 2.15676e-21)
(0.00354629 0.00120852 0)
(0.00168621 -0.00101257 5.60072e-21)
(0.0021869 0.00399624 1.49754e-22)
(6.91594e-05 -0.0001965 1.43136e-21)
(9.96494e-06 4.87708e-05 -1.45908e-22)
(0.000282839 -0.000340267 -4.81758e-22)
(0.000688064 0.000376557 2.0616e-21)
(0.000164494 0.000178511 7.65271e-22)
(0.00247447 0.00338262 8.57219e-23)
(-0.00113826 -0.000324091 4.3227e-22)
(5.78454e-05 8.10706e-05 0)
(6.35024e-05 -8.05247e-05 1.85675e-21)
(0.000255472 0.000221254 -2.61063e-21)
(0.00491413 -0.00204104 2.06851e-22)
(-0.000202144 0.00053928 7.72186e-22)
(0.000122462 0.000115088 0)
(7.36622e-06 -3.07895e-05 -5.25377e-21)
(0.00245279 0.000841794 1.94451e-21)
(0.000751764 -0.00010341 -1.71067e-22)
(6.34412e-05 -8.71689e-05 -4.43331e-23)
(-1.05894e-05 2.81281e-05 0)
(-0.00210816 -0.00684694 6.38874e-22)
(0.00136881 -0.000921312 -1.30697e-22)
(2.87516e-05 -0.000226062 -2.90438e-21)
(9.38471e-05 -0.000352009 0)
(0.000907752 0.00268128 0)
(5.98069e-05 -9.09518e-05 3.98899e-21)
(0.00846956 0.00267432 0)
(0.00292759 0.000731299 -1.11044e-21)
(-5.18067e-05 8.92682e-05 -1.28165e-21)
(0.000287469 -0.000123143 2.7903e-21)
(0.000167732 -3.29899e-05 0)
(0.000144322 9.98852e-05 -5.66204e-22)
(-0.000383599 -0.00018364 3.23378e-22)
(0.000813627 -0.000912134 4.3117e-21)
(0.000919074 -0.00369797 5.88497e-22)
(6.67106e-05 -7.61051e-05 2.00645e-21)
(-0.000788491 0.00059025 -9.80908e-22)
(0.00140416 -0.000797367 9.40819e-22)
(0.000409486 -0.000563592 2.1723e-21)
(0.000786746 0.00333219 -1.68925e-22)
(0.000769204 -0.000304191 0)
(8.4367e-06 -0.000240327 -5.86757e-21)
(8.17974e-05 0.000198448 0)
(-0.000606329 -0.000156341 8.48387e-21)
(3.58482e-05 5.43062e-06 1.00329e-21)
(3.78893e-05 8.46524e-05 -3.14328e-22)
(0.00483166 1.63417e-05 -1.23969e-22)
(-0.00152082 -0.000342149 -1.32269e-21)
(8.73503e-05 0.000144788 -6.25293e-22)
(0.000167492 -3.87565e-05 0)
(0.000775234 -0.00356907 2.99746e-22)
(0.00208823 0.00252799 0)
(5.07447e-05 -5.50526e-05 2.2655e-21)
(4.21137e-05 1.28202e-05 0)
(0.00041133 6.00539e-06 0)
(0.00101996 0.000865864 9.49148e-22)
(-0.00152683 -0.000648984 0)
(0.000364859 -0.00306777 2.25464e-21)
(-0.000679351 -0.00425821 -6.85305e-21)
(0.000271072 0.0029474 -2.4201e-22)
(0.000244661 -0.000475775 0)
(0.0019152 0.000548773 1.90752e-22)
(0.000646428 -0.000642211 -5.94225e-22)
(9.60746e-05 6.79503e-05 7.38544e-22)
(0.000149807 0.000264373 2.29175e-22)
(0.00358543 -9.93607e-05 0)
(8.82587e-05 -6.40832e-05 -2.44679e-21)
(0.00349303 -7.81189e-05 0)
(0.000344798 0.000187927 0)
(0.00252058 0.00242925 -1.45299e-22)
(0.000528676 -0.000259557 0)
(0.000433073 -0.000629773 -3.82998e-21)
(0.00911956 0.00250735 -7.41482e-22)
(0.000131094 -0.000120129 0)
(0.000770632 -6.85354e-05 0)
(0.00351477 0.00175192 3.54458e-22)
(-0.00021645 -0.00711692 0)
(-0.000196304 -8.34186e-05 -2.35045e-22)
(0.00309049 0.00118948 0)
(0.000301903 0.00293909 -2.12322e-22)
(0.00233293 0.00057845 -4.07746e-22)
(0.000409259 -0.000121075 1.59806e-21)
(0.00233197 0.00092435 2.28982e-21)
(0.00327552 0.00220916 -5.97102e-23)
(-0.00106765 0.00147877 -3.08986e-21)
(0.00076656 -0.00193742 4.73034e-22)
(6.37142e-05 6.65151e-05 1.8167e-21)
(0.00330596 -0.000453495 0)
(0.0028195 0.0030407 0)
(0.00191365 0.00192421 3.57401e-21)
(0.00249705 0.00256906 1.7829e-21)
(7.26013e-05 0.00019989 5.47912e-22)
(0.000711386 -0.000566903 0)
(6.98128e-05 -4.12742e-05 -3.40054e-21)
(7.3532e-05 -0.000291226 2.20619e-23)
(0.000839578 -0.000952597 -1.65817e-21)
(0.00321197 -0.000311991 -6.1311e-22)
(0.00219284 -0.000692342 2.69583e-22)
(2.40453e-05 8.30703e-05 0)
(6.9324e-05 -0.000170459 4.60009e-21)
(0.00325039 -0.000215314 1.06172e-21)
(0.00367237 0.00118947 1.89695e-22)
(-0.00221204 0.000489866 0)
(-0.000330406 0.00307818 0)
(-0.000645354 -1.44654e-05 4.58812e-22)
(0.000234957 -0.000146841 3.15526e-21)
(0.00275448 0.00316264 0)
(0.00949117 0.00230697 1.92202e-22)
(3.80048e-05 -0.000208221 8.73174e-21)
(-0.000424243 0.000454664 2.69125e-21)
(0.00411777 -0.00160209 1.24811e-22)
(0.00152369 0.000846369 -1.74531e-23)
(5.59084e-05 3.62252e-05 9.84331e-22)
(0.000182095 5.97683e-05 0)
(-0.00031643 -0.000330068 0)
(7.72619e-07 -6.83305e-06 -2.62941e-22)
(6.53345e-05 6.06034e-05 -1.10142e-21)
(-1.07905e-05 2.72046e-05 0)
(-2.87823e-05 7.97179e-05 1.70159e-21)
(0.000323408 -0.00069828 0)
(3.43835e-05 -0.000701595 6.83398e-21)
(0.000278164 -0.000145077 2.9467e-21)
(4.70686e-05 -0.00010509 2.19801e-21)
(0.000119519 -4.72116e-05 0)
(1.93507e-05 5.91931e-05 -3.24923e-22)
(2.53465e-07 -8.07298e-06 8.40528e-21)
(4.49911e-07 -5.18014e-06 -1.69075e-21)
(2.9711e-05 -0.000210819 5.5402e-21)
(-0.000869472 -0.000985838 -3.52503e-22)
(-0.004264 -0.00277917 -8.07574e-24)
(-0.00144843 -0.000687512 2.57387e-21)
(-4.64374e-05 0.00135434 -1.32539e-21)
(-0.00128168 0.000344721 -6.10112e-22)
(0.0016056 -9.72002e-05 2.67745e-21)
(0.000533037 -6.95564e-05 5.64363e-23)
(0.000144845 1.38133e-05 -3.87251e-21)
(0.000260651 7.1349e-05 0)
(0.000419229 -0.000720471 6.44887e-21)
(0.0018771 0.000589731 0)
(0.000106249 0.000212979 -2.58717e-21)
(0.00321224 0.00122401 -4.46548e-22)
(-0.000126812 -0.000609636 7.2258e-21)
(0.000152067 0.000292527 -1.84026e-21)
(0.002339 0.000966582 5.60431e-21)
(-0.000160644 -0.000582475 -1.06478e-20)
(0.00349098 0.000787916 -9.94917e-23)
(0.00334855 0.0022178 0)
(9.37662e-05 5.86581e-05 0)
(0.00276012 -0.000142411 0)
(5.88157e-05 -0.000108318 3.57157e-21)
(0.00328635 0.00117937 5.36381e-22)
(0.00203223 -0.000646484 1.62908e-22)
(-0.00137246 0.00138982 9.60785e-23)
(0.000245781 -0.000334956 -1.59263e-20)
(0.00430725 0.000723915 0)
(0.00427134 0.000532305 0)
(0.000439752 0.000506848 0)
(0.000123111 -3.83841e-05 -3.22978e-21)
(0.0041948 0.000840417 6.77528e-23)
(-0.00102772 -0.000934712 7.53921e-22)
(-0.00116393 0.000381157 -2.60522e-21)
(7.13796e-05 -0.000205942 7.43292e-21)
(0.00303017 -0.000401388 -8.23056e-22)
(0.0037221 0.00110238 0)
(6.47068e-05 -0.000203149 -4.39816e-21)
(0.00289511 0.000187371 0)
(-0.00419776 -0.00288087 -1.81216e-22)
(3.75148e-05 2.29005e-05 3.61912e-22)
(0.000721682 -9.85101e-05 2.64419e-21)
(-0.00200169 -0.000405754 8.7292e-22)
(-0.00312824 -0.000143527 -1.71132e-23)
(0.00031429 0.000112042 -1.4334e-21)
(0.00183916 0.0035504 1.0165e-22)
(4.17322e-05 -6.06327e-05 0)
(0.000444493 0.000507267 1.25112e-20)
(0.00415566 0.000864153 0)
(0.00228139 -0.00416617 0)
(0.00514041 0.000951565 0)
(0.000152116 -0.00217727 -2.55943e-21)
(-0.00110846 -0.000648923 -1.03936e-21)
(0.000532311 0.00263279 -8.98617e-22)
(0.000451471 0.00229808 2.72455e-21)
(0.00169933 0.00085371 -1.53375e-21)
(0.00204761 0.00387322 6.27204e-22)
(0.00025699 -0.000926696 3.65682e-21)
(-0.000664786 -3.39876e-05 0)
(-0.000328342 0.00143773 -3.59803e-22)
(2.6291e-05 7.2151e-05 4.39192e-22)
(0.00429679 0.00103768 2.16953e-23)
(0.00249393 0.000328949 0)
(3.53199e-05 2.30663e-05 -1.79937e-23)
(0.00416379 0.000441519 0)
(-0.000389053 -0.000369273 0)
(-0.00106955 -0.000639993 -1.24646e-21)
(0.00228164 0.00281722 -1.71219e-21)
(0.000185903 6.28216e-05 0)
(0.0005816 -6.55121e-05 3.0908e-21)
(-0.000618355 1.53416e-05 -4.37652e-22)
(0.0044823 -0.00234586 1.28379e-22)
(0.000456356 -0.00117752 -1.10029e-21)
(-0.00154973 -0.000391915 3.67514e-22)
(0.00014991 0.000620214 -1.33231e-21)