/*--------------------------------*- C++ -*----------------------------------*\
| =========                 |                                                 |
| \\      /  F ield         | OpenFOAM: The Open Source CFD Toolbox           |
|  \\    /   O peration     | Version:  v2012                                 |
|   \\  /    A nd           | Website:  www.openfoam.com                      |
|    \\/     M anipulation  |                                                 |
\*---------------------------------------------------------------------------*/
FoamFile
{
    version     2.0;
    format      ascii;
    class       volScalarField;
    location    "400";
    object      ddt0(k);
}
// * * * * * * * * * * * * * * * * * * * * * * * * * * * * * * * * * * * * * //

dimensions      [0 2 -3 0 0 0 0];


internalField   nonuniform List<scalar> 
14479
(
-2.58801e-08
3.36512e-08
4.33016e-08
2.24681e-05
0.000119471
2.64116e-05
2.94735e-08
-5.15651e-10
-1.45383e-08
-0.000206265
-1.27171e-05
2.2994e-05
2.34752e-05
2.05257e-05
1.37216e-05
-3.1995e-05
-8.11605e-05
-2.43043e-05
0.000224055
-7.87573e-07
1.86813e-08
3.83244e-08
-2.85079e-05
1.1592e-05
-4.36122e-08
-1.7112e-05
1.58745e-07
-0.000212075
-7.62718e-05
1.48813e-05
-0.000301062
1.38672e-05
0.000232716
-1.47742e-08
-4.99129e-09
1.91467e-09
-8.72445e-08
-1.87354e-05
7.79617e-09
1.16665e-05
1.56304e-05
6.67903e-09
2.70765e-08
-2.36587e-08
-2.95293e-05
-3.95504e-07
1.049e-06
-5.37227e-05
2.63515e-08
0.000107682
4.87364e-08
-0.000309116
-1.63356e-05
-6.3634e-08
1.5909e-08
8.49237e-09
2.82162e-07
-5.99164e-05
4.08548e-09
-8.26277e-07
3.05561e-08
4.11785e-08
7.32556e-05
3.18058e-06
4.38343e-05
-0.000134703
-2.67316e-08
2.03521e-08
0.000263258
-0.000664896
-0.000188706
-1.06304e-06
0.000121076
0.000149369
-5.46997e-08
-2.8331e-08
-0.000194648
1.61047e-05
8.22421e-05
-0.000187702
0.000200159
-1.15237e-09
-4.85327e-08
-1.00865e-06
-7.69227e-09
-3.73932e-07
-1.55003e-06
1.39249e-08
-0.000190397
-2.88063e-08
-0.000165971
-0.000128079
-1.22082e-05
5.33337e-05
7.00016e-09
0.000168025
-2.84652e-08
-0.000170267
-4.47791e-08
-5.10601e-05
-0.000306689
-4.5713e-05
-7.53496e-07
5.60494e-09
-1.46825e-08
6.52564e-09
0.000318089
0.000145152
3.03815e-07
1.37742e-05
2.70996e-09
2.91528e-08
-0.000138724
-2.4239e-07
1.73986e-07
3.5834e-08
-1.87962e-08
-3.03593e-05
2.1785e-08
-1.15187e-06
-1.00626e-08
7.05264e-08
1.4351e-05
7.68413e-09
3.93207e-05
4.05783e-08
-3.40635e-08
1.45729e-08
-1.85591e-08
-6.19235e-05
5.41106e-08
-0.000680759
0.000165172
3.90822e-08
-6.01716e-07
5.12309e-07
0.000509097
-6.06379e-09
-0.000338843
2.27336e-05
7.44633e-08
2.7902e-05
-1.62736e-08
-0.00054416
6.34089e-07
4.50673e-09
0.000106104
7.35427e-08
2.0625e-07
1.30779e-08
0.000174333
2.61903e-08
1.03487e-07
-6.5648e-06
-6.23893e-05
4.26472e-08
-0.000242205
7.91319e-08
2.65335e-05
7.98888e-05
-0.000244488
0.000366777
8.96501e-05
-1.66093e-06
4.61962e-05
-5.35095e-05
4.81812e-08
-0.000157982
3.01404e-09
-1.01894e-08
-2.74194e-08
-3.03992e-07
2.29703e-09
-1.20699e-06
1.04778e-07
5.0892e-06
4.37779e-08
1.18113e-10
3.08889e-05
-3.15755e-08
0.000236197
-5.65065e-08
2.37365e-08
-1.32642e-05
-4.16157e-08
2.41141e-07
2.72602e-08
7.98285e-09
0.000575363
-0.000535723
2.94147e-08
1.45238e-05
1.36497e-08
-7.81045e-10
2.8545e-05
9.00607e-05
0.00047733
4.79682e-05
-2.65757e-08
1.1634e-07
2.62068e-08
-0.000310319
-0.00135345
1.04799e-05
2.93649e-05
1.44862e-08
7.30507e-09
-1.37446e-06
-3.80713e-08
3.22176e-07
7.34217e-05
-0.000155639
-4.04825e-11
1.90591e-08
-1.83769e-08
-1.14157e-06
-0.000102837
8.05582e-07
-2.65459e-08
-1.03557e-07
0.000183456
6.58524e-06
5.35745e-05
-2.38148e-08
-0.000171554
2.27078e-05
3.59052e-08
2.18286e-08
3.33031e-06
3.3369e-08
3.66671e-09
4.14276e-07
4.0381e-08
1.79385e-05
1.19104e-08
2.38799e-08
2.58615e-07
-0.000127436
-5.84523e-08
4.71997e-09
2.29292e-05
-1.00011e-06
-2.94183e-10
-6.13833e-05
-0.000133471
7.92545e-05
-1.08431e-08
-8.51767e-08
-0.000247729
-0.000184539
4.42565e-09
-9.80013e-07
-4.19022e-09
5.67153e-08
-0.000186553
-1.53587e-06
2.91107e-08
-4.11415e-05
-5.38049e-06
-7.40618e-06
0.000229654
0.000226233
2.97547e-05
-5.79895e-07
7.635e-09
3.31383e-08
-4.87998e-08
5.45936e-05
3.12814e-05
0.000299282
0.000108359
2.20493e-08
-0.000138836
1.5884e-08
5.48434e-08
-7.32642e-05
0.000158991
-2.93811e-08
-7.67098e-05
6.16555e-05
-0.000142396
-9.16141e-05
-0.000244173
0.000199294
1.78433e-07
9.36849e-08
-0.000106825
1.90316e-08
0.000115196
2.85716e-05
-0.000237934
-6.7032e-05
5.06859e-07
2.7087e-05
-7.55925e-09
2.54605e-07
9.51148e-09
1.15165e-07
1.51381e-08
3.34148e-08
1.68212e-08
-2.31559e-06
-4.02307e-08
-3.58877e-08
-4.54832e-08
9.94058e-06
-5.79417e-05
2.77271e-05
3.57759e-08
7.71718e-09
1.25239e-05
-4.14825e-06
-1.56577e-06
-1.91894e-08
5.885e-09
5.10664e-08
2.30611e-05
8.84378e-08
7.76235e-09
-8.89253e-10
1.15944e-09
-4.4053e-08
-1.08691e-08
-0.00016195
-6.44997e-05
-5.54885e-05
0.000244092
-4.71434e-05
-3.91109e-05
-2.61802e-07
3.82385e-08
-7.20498e-08
5.11534e-05
1.89191e-05
-0.000109363
-3.25213e-09
7.01567e-10
-4.94361e-07
1.97481e-05
6.32031e-09
0.000282986
-1.72651e-08
2.80763e-05
-2.00202e-08
3.45357e-05
1.60734e-08
-0.000119895
1.36017e-05
-9.98638e-10
-5.68338e-08
4.58057e-05
-9.25797e-05
3.81483e-08
3.18524e-08
-8.38184e-05
1.29017e-07
-2.11625e-08
2.07423e-06
-1.93169e-09
8.42943e-10
2.66765e-08
5.67859e-05
-1.01908e-06
1.45768e-08
-8.26889e-05
5.97458e-08
-3.67563e-05
1.72211e-05
-4.42033e-05
0.000370502
-1.92885e-06
0.000299798
-4.9856e-07
-0.000243045
8.09248e-05
8.51114e-06
-7.65916e-07
1.04307e-06
-3.22805e-05
-5.3998e-10
1.08255e-07
-3.54492e-09
-2.45884e-05
-4.22108e-06
0.000273617
1.88122e-07
-1.01871e-07
-3.03102e-05
4.68517e-08
-1.34616e-06
-9.0775e-08
-1.42827e-08
-0.00026203
5.65414e-06
-0.000955378
-0.000133669
-8.21059e-05
-0.000131897
4.43086e-07
1.73027e-08
0.000256918
-0.000138213
3.01048e-05
-2.49154e-08
7.36925e-05
-4.00915e-08
1.23342e-06
-4.60334e-06
9.43783e-05
-4.4838e-09
-0.000187559
-0.000182812
-3.46626e-08
-3.35405e-08
-0.000241592
1.88299e-08
-0.00025201
-2.89456e-05
3.71248e-10
-5.40581e-08
6.82441e-09
3.12177e-08
-0.000801548
-1.55233e-06
0.00023895
3.01549e-08
1.05352e-05
-6.87793e-09
-1.9135e-09
-2.69302e-05
0.000220013
3.75199e-07
9.94777e-07
1.82169e-08
2.56587e-08
7.55073e-05
-3.35457e-08
-0.000198237
-5.09631e-05
-1.59743e-05
-0.000143872
-0.000177023
2.66113e-05
6.40553e-08
-5.17498e-07
-3.37907e-08
1.03531e-05
3.37735e-05
7.28311e-09
-1.32491e-08
6.84773e-10
-0.000172654
-1.23346e-06
-9.67754e-07
-4.07494e-10
-1.09632e-05
1.71962e-08
-1.04059e-06
0.000308031
3.69012e-05
-8.65831e-09
-2.7035e-08
-0.000119326
-3.49725e-06
-0.000709193
4.72539e-06
1.51596e-08
0.000132382
1.98484e-05
1.67351e-08
5.76782e-09
-2.14478e-09
1.82481e-05
0.000137187
2.75601e-05
-0.000183074
2.95996e-05
8.45047e-06
-4.11248e-07
1.36698e-05
1.67981e-08
0.000135017
-1.50311e-07
-0.000297359
8.21863e-09
1.4957e-05
-1.67363e-08
0.000323042
-0.000388408
-0.000133112
0.000223079
3.18374e-08
7.39905e-09
-6.86845e-05
-2.04125e-06
4.23154e-08
-5.84131e-08
2.31519e-05
-4.61309e-06
-2.29567e-08
-5.40327e-09
-4.95618e-06
-2.82743e-08
-6.03186e-09
2.38231e-05
-0.000175065
0.000150617
-1.71323e-08
-1.82189e-08
1.71573e-05
3.53339e-08
-4.43785e-07
3.212e-08
-4.49368e-05
1.81268e-08
5.09634e-08
8.09911e-08
1.66862e-09
-3.73754e-05
-4.51357e-06
-4.0456e-05
2.94231e-05
-8.18196e-05
8.87072e-05
-0.000156103
6.96255e-05
-2.01438e-08
1.21481e-08
-0.00077068
1.62251e-05
3.61161e-08
-4.06338e-06
-0.00109445
0.000282198
-2.90747e-08
-7.10738e-07
-1.83759e-05
-2.09121e-05
4.34528e-05
0.000381751
2.72356e-05
0.000270117
3.4567e-08
-7.11584e-05
2.70212e-08
1.07314e-08
0.000266493
5.65994e-08
1.29189e-08
3.88305e-08
-2.68652e-08
-2.31264e-05
-1.07469e-08
-6.84033e-09
-9.93242e-05
2.24865e-08
-0.000162844
1.12971e-05
2.32087e-05
1.0439e-05
3.13914e-08
3.75202e-05
7.23927e-07
-0.000221868
-4.18811e-08
7.20019e-07
9.8772e-07
1.6739e-08
1.85467e-07
5.20762e-09
6.85857e-07
1.38019e-08
-0.000258935
-0.000237288
-2.57203e-08
2.46511e-05
-1.69874e-05
1.5088e-08
-2.57466e-09
-2.53027e-06
2.59379e-05
-3.22686e-08
6.2621e-08
1.14698e-08
0.000268731
-1.15595e-09
1.71956e-08
3.00495e-05
-4.76151e-05
-8.0225e-05
2.16169e-05
-2.28001e-08
-9.59852e-09
0.000189194
2.41518e-05
-0.00148503
8.58148e-09
3.46519e-08
-6.65517e-09
-2.29084e-08
8.83594e-05
-2.14634e-09
-6.83967e-05
-1.53589e-05
0.000158223
4.60027e-08
2.84416e-05
4.09301e-05
8.9748e-09
2.01838e-07
-1.63307e-08
2.26707e-05
5.73181e-08
-1.33734e-08
-9.09853e-08
1.48874e-08
-4.53768e-05
0.000319678
0.000103357
-9.27498e-09
1.93904e-08
-7.30699e-08
4.50607e-08
2.26634e-09
9.27987e-05
-3.42601e-05
4.51355e-09
2.29474e-08
4.42769e-08
-3.56543e-06
-1.09515e-07
-3.14212e-08
-2.30195e-08
-0.000167637
4.00417e-08
3.61562e-08
-1.90756e-08
0.000170316
0.000144131
2.7935e-08
0.000205116
-2.45077e-05
4.33959e-08
-0.000611642
-2.46643e-05
-7.68316e-09
1.52583e-08
-1.01357e-08
-7.42281e-08
0.00023605
0.000291011
-1.5098e-06
4.05797e-09
2.22482e-05
-0.000182515
0.000254561
0.000125221
7.42721e-08
-2.26086e-08
-1.48734e-08
-6.08676e-05
-8.35121e-09
7.87718e-11
5.97559e-05
8.4306e-05
1.50421e-08
-1.16324e-09
0.000445722
0.000300778
-4.42475e-08
3.9027e-09
-1.57043e-08
1.15896e-06
1.32662e-05
-0.000243716
-0.000524744
0.0001334
2.37494e-08
-8.99826e-06
-1.98771e-07
5.88628e-08
-4.436e-09
-0.000179099
-1.52179e-08
-0.000182055
-1.9881e-09
6.91941e-05
-0.000142641
-1.49201e-06
-0.00101577
-1.41322e-08
5.65349e-08
7.41028e-05
4.89262e-05
-1.7924e-07
0.000424173
0.000146845
0.000448815
-4.38933e-09
-6.40973e-05
6.4827e-05
7.60655e-05
3.84946e-05
-8.8406e-08
-4.42734e-05
0.000261346
-3.47955e-05
0.000306122
8.34255e-09
0.00015893
3.29054e-09
-1.01119e-08
-0.000165511
-0.000190795
-0.000197263
5.25815e-08
-1.23911e-09
-0.000189744
-4.9525e-05
-1.89275e-06
0.000484423
2.18961e-05
-9.76444e-09
8.5361e-05
-0.00150072
2.0918e-08
-0.000238298
-0.000158788
0.000399341
-2.8415e-08
-1.63074e-09
9.45097e-07
2.85567e-08
-6.38102e-08
-1.30906e-08
6.7537e-09
9.03918e-06
-3.74195e-05
1.97028e-08
-2.82583e-08
1.90425e-08
5.42185e-08
-1.55168e-08
-4.14811e-08
1.55972e-08
8.84322e-05
-5.90124e-05
1.50172e-05
3.1956e-05
2.31981e-05
-1.18929e-05
3.73399e-08
4.21606e-08
-3.97887e-08
3.88862e-05
-9.6586e-06
-3.63238e-09
-3.47034e-05
3.82823e-07
-4.83282e-09
5.80398e-06
-3.41384e-07
-3.85139e-05
6.84024e-05
-8.49022e-09
0.000374829
-6.90351e-08
-3.94928e-05
-0.000194422
-1.49808e-06
-0.000263085
-0.000105324
-0.000126485
-4.13588e-08
1.65524e-08
-6.02573e-05
7.34799e-05
2.29319e-05
2.60576e-08
-0.000194246
0.000419186
-1.32509e-08
-0.000322222
-3.75202e-05
-2.12026e-08
3.81199e-08
1.51199e-05
-6.4334e-06
3.7251e-08
0.000111385
5.27272e-08
-0.000318717
-6.5573e-05
-0.000259278
0.000300318
-0.000201261
1.45166e-05
-2.76278e-05
-4.33693e-05
5.50524e-06
0.000158341
-1.52871e-05
-4.99016e-07
-5.50251e-07
9.52502e-09
-4.08506e-05
-0.000695421
-2.20058e-08
-0.000145755
-3.14987e-06
1.49929e-05
0.000281702
2.79364e-09
3.53256e-08
2.32511e-05
-0.000119224
-6.2188e-05
6.24095e-06
-1.8998e-07
-0.000267311
-1.74267e-08
2.52103e-05
3.26345e-08
-0.000214058
5.45647e-07
-9.97176e-05
-1.60389e-06
2.67121e-08
7.32495e-08
-3.65151e-08
-4.573e-07
0.000401333
0.000179574
0.000399924
3.66884e-05
-8.70713e-07
8.80299e-05
-1.86676e-08
-2.19305e-05
0.000423577
-0.000173278
6.9125e-08
2.48898e-08
-4.92331e-07
-7.66581e-05
-1.48206e-08
0.000452247
4.83676e-05
4.09204e-09
-3.55451e-08
-0.00124778
-1.47983e-06
-0.000239484
3.91309e-06
1.66254e-05
3.17801e-09
-0.000191258
-4.02732e-08
-1.29589e-08
-1.92717e-08
-3.62467e-08
1.73064e-08
-9.76785e-09
-0.000198374
8.50212e-09
-3.90369e-05
-1.74467e-08
-8.36223e-10
8.60938e-09
4.82987e-08
4.94401e-07
-5.07528e-05
-0.00010929
-0.000104886
-4.88722e-05
-0.000566346
3.15593e-08
0.00013313
0.000279183
4.64359e-05
-0.000116018
-7.24801e-05
-3.10918e-05
4.60568e-08
-1.43106e-08
-1.30256e-08
1.40172e-08
8.76694e-06
-7.85606e-07
3.88736e-08
-8.64842e-09
-2.03135e-07
-3.8318e-06
6.10646e-05
1.63382e-08
-2.26582e-09
-4.72918e-07
-0.000131939
7.72818e-05
8.43629e-09
1.80268e-05
-4.06959e-09
-1.03553e-06
-1.80157e-08
-3.60772e-08
2.38317e-08
2.90008e-08
1.01056e-06
-0.00148221
6.11066e-05
-7.05325e-05
-0.000645907
-5.11922e-08
2.74638e-05
2.23719e-05
1.86555e-08
5.0139e-08
0.000254858
0.000285433
-2.74003e-05
2.27374e-08
-0.000334057
-0.000171803
3.18518e-05
6.92769e-09
-9.65843e-09
0.000270556
-1.22006e-05
2.13701e-05
-6.28678e-09
-8.61529e-05
0.000188203
-5.19127e-07
4.08126e-08
0.00020069
4.05041e-05
-0.00098225
-0.000381111
8.05536e-05
0.000319953
-9.62771e-09
-0.000336757
7.03032e-10
6.79052e-08
3.80305e-09
-7.01141e-09
0.000274734
-0.000168234
2.69557e-05
3.07705e-08
-0.000520649
-8.21869e-09
4.64323e-05
0.000118134
5.26428e-08
7.97691e-09
1.69699e-07
-0.000175432
-6.10637e-09
6.81685e-09
-5.82949e-09
-0.000163502
1.01126e-08
-7.80798e-10
-0.000311518
-6.91647e-05
-0.000273771
-9.98543e-08
1.50919e-09
5.14592e-08
-0.000195846
-2.92507e-05
3.21605e-05
6.73003e-10
-6.6388e-06
3.33557e-05
5.12246e-08
-4.05907e-09
1.42294e-08
0.000170277
-3.83137e-07
9.16442e-06
2.69652e-08
1.38563e-05
-1.32744e-06
-2.4844e-08
5.82737e-05
-7.95918e-07
-5.64123e-08
-0.000246736
-1.97513e-08
-1.98731e-08
-0.000144463
-0.000122548
-2.54928e-09
-5.96484e-05
-9.20486e-09
4.19233e-08
-9.28716e-09
1.10362e-08
-6.47633e-05
-3.60283e-08
0.000122366
-4.10431e-08
-0.000155971
-4.10062e-08
-3.55828e-07
-0.000173193
8.32984e-08
-6.66033e-09
4.24939e-05
-0.000134344
6.17742e-06
0.000241253
-2.57069e-08
-0.000266644
-2.30149e-08
-2.64166e-08
0.000129671
-3.33534e-05
1.93329e-08
-2.80493e-08
-0.000248095
-3.54982e-08
0.000249652
-0.000172792
-1.66795e-07
3.81101e-07
-1.77626e-06
-7.20815e-05
0.000100624
-1.38966e-08
-1.12922e-07
2.22788e-07
7.83962e-09
6.2806e-08
-6.4743e-07
-0.00175429
-2.28832e-07
6.43056e-07
-2.43273e-08
2.33434e-05
-0.000302776
-2.59622e-05
-3.3035e-05
-0.000179032
-1.65402e-08
1.21058e-06
-1.35693e-07
9.68462e-05
-7.66716e-05
1.93243e-08
1.63992e-05
2.79034e-05
4.35555e-07
-6.2688e-05
-1.01966e-06
-9.49096e-05
0.000260033
-2.35014e-08
8.62521e-06
4.2415e-08
5.93107e-09
1.91281e-08
-1.26941e-08
0.000280959
0.000295348
-7.76561e-07
-3.0684e-05
-7.13022e-05
-0.000138174
4.02638e-05
-0.000212116
1.8749e-07
3.55538e-08
0.000269357
0.000258781
0.000199243
-4.76641e-08
1.14319e-08
8.98891e-05
-4.97624e-09
-4.46975e-07
-9.57567e-08
-8.13021e-07
-7.50538e-09
0.000114777
1.64644e-08
-3.0464e-06
1.59655e-08
-0.000170299
-1.51013e-05
0.00017216
1.80128e-07
2.76489e-09
-6.73006e-07
-0.000660861
-7.54211e-09
1.46952e-07
-1.54529e-08
-2.03607e-05
8.02302e-05
6.86971e-09
-1.52973e-08
-2.40705e-08
8.74494e-06
4.18984e-08
8.65253e-08
-0.000360021
-0.00132159
1.52488e-05
-3.60895e-08
-6.11676e-05
7.43901e-10
2.05173e-10
2.00537e-07
6.73288e-06
-9.22619e-08
-3.41712e-08
7.40809e-05
-5.91831e-05
3.59e-05
-0.000955169
9.5595e-09
3.16376e-08
-0.000310771
8.01731e-05
-1.09318e-06
4.07238e-05
-3.65947e-07
-1.24036e-07
-1.97871e-08
5.20937e-06
-2.71633e-08
5.79652e-05
-4.63201e-06
-2.2501e-08
9.60575e-05
0.000267511
8.55266e-05
3.53159e-10
-3.12751e-08
0.000585203
1.07627e-08
-3.49545e-05
4.67633e-05
8.04978e-06
-2.7159e-08
5.25868e-06
-1.68625e-08
-3.54152e-05
-2.73072e-08
-4.19456e-08
0.000136135
4.11595e-08
-0.000277332
3.79022e-08
-4.20189e-08
0.000367205
-0.000229172
0.000273084
7.5958e-07
-0.000135275
-2.63503e-08
-7.75675e-08
3.05531e-08
1.61936e-08
7.1724e-11
-0.000558739
3.6378e-06
-1.01322e-08
-3.62972e-08
-9.6442e-08
-0.000152038
-7.8496e-07
1.68718e-08
1.53861e-05
1.74031e-05
3.70282e-05
4.13463e-08
1.61247e-08
-2.29305e-08
0.00015568
-0.000240614
0.000109989
-5.68203e-05
-0.000123172
-9.23535e-07
-1.61239e-07
3.49942e-08
-1.0747e-08
0.000372052
-0.00020212
2.13837e-05
-7.82094e-09
2.25532e-08
-5.40447e-08
-2.49326e-08
-1.34278e-09
-2.13986e-08
-2.51106e-08
-9.12485e-05
6.4803e-05
9.34952e-07
-5.08608e-05
3.47652e-05
-9.81335e-09
-1.87081e-08
-6.34363e-05
-4.00213e-09
8.96514e-08
-0.000114901
-4.10667e-08
8.3357e-09
-2.80486e-08
1.1647e-05
-9.41908e-08
2.89949e-06
1.4977e-05
-6.41593e-08
5.17608e-08
-0.000109039
9.95735e-05
-0.000155359
1.69613e-08
-3.6797e-08
4.51761e-05
1.52223e-09
-1.45066e-08
0.000106686
8.23116e-09
-0.000210046
1.6214e-05
3.93735e-05
-1.53201e-07
-4.40933e-05
-3.93732e-08
-3.62873e-09
-4.32028e-05
0.000122283
4.35417e-09
-5.41726e-05
-5.60287e-07
6.83356e-08
0.000143197
-1.53801e-08
-4.80795e-08
1.464e-05
8.36881e-05
0.000114826
-0.000203279
4.42871e-09
2.09854e-07
-0.000684833
-0.00018961
9.65298e-05
2.45309e-08
2.26349e-08
3.44134e-07
-8.70525e-08
1.09376e-08
-2.66279e-08
3.18241e-08
1.47369e-06
-8.95968e-09
-5.78631e-09
2.1365e-05
0.000191529
0.000190948
3.29227e-05
-3.95057e-08
1.09115e-07
0.000389836
6.8294e-08
6.58635e-05
-5.67021e-07
3.55416e-05
0.000143202
-1.98024e-09
2.62624e-09
0.000358831
-4.25801e-05
3.81977e-08
-9.83254e-05
-0.000194505
-0.000152784
-8.40125e-10
3.88739e-08
-8.38472e-07
5.79574e-05
1.81113e-05
-0.00016096
-0.000106482
3.89786e-08
-1.1713e-09
8.82699e-05
-1.65544e-06
-2.72361e-05
-2.723e-05
-1.5693e-08
-4.67711e-05
1.24608e-05
-2.14374e-07
-0.000105127
1.28762e-09
-8.78405e-06
4.30607e-08
-1.29718e-07
2.31842e-08
-1.07849e-06
5.41599e-08
-4.08348e-05
-0.000139512
6.107e-05
1.42889e-07
-4.88333e-08
2.50589e-08
1.60565e-08
0.000138014
-4.87386e-08
1.1778e-07
-1.3426e-08
-5.17955e-05
-5.04712e-08
-6.86979e-05
-5.0443e-07
6.57725e-07
-6.48202e-06
7.29731e-05
-0.000188186
-4.8745e-05
-0.000176823
1.85782e-08
-1.66313e-08
4.8582e-05
1.22498e-08
0.000284069
-0.000198138
1.15591e-08
6.137e-08
5.99776e-08
-1.18121e-08
-0.000170824
-0.000175064
-0.000192878
3.79128e-08
-4.4295e-07
-6.18887e-08
2.4109e-05
4.91858e-08
-2.84875e-08
0.000127066
-7.98391e-08
3.60779e-05
5.66467e-07
3.48088e-05
-3.23743e-06
9.05564e-05
-1.93208e-08
-2.35754e-10
0.000177137
3.9003e-08
0.000281074
2.42357e-08
-6.82489e-05
5.80572e-08
0.000137599
-0.000108741
6.57858e-07
-6.35058e-06
3.69068e-05
0.000194873
-5.88524e-10
0.000114039
-2.24088e-05
3.18205e-05
-6.67562e-08
8.99708e-09
6.58086e-08
-4.55085e-05
-8.73704e-05
1.40262e-05
5.85556e-08
-0.000203562
-9.5815e-09
1.47519e-08
5.98921e-05
9.85799e-08
4.3121e-08
1.26531e-05
-1.49132e-06
-2.35676e-05
7.93831e-08
-0.00012923
-9.78525e-09
-2.48951e-05
1.01565e-07
3.4208e-08
1.39643e-08
-0.000147596
7.47124e-08
-0.000456682
-0.000196558
5.32094e-07
-1.52656e-08
-9.36987e-05
3.10032e-05
-2.80683e-07
8.61235e-08
2.31399e-05
0.000261253
-1.81119e-08
-2.99786e-08
-5.25791e-06
5.43313e-05
2.4723e-06
0.000165721
-9.56701e-05
2.56622e-08
-6.84334e-06
2.33057e-05
-6.93779e-05
0.000243847
-4.46721e-05
0.000307708
0.000185499
-4.74734e-09
-0.000284733
-0.000116765
-2.78779e-08
-4.6396e-05
-5.33447e-10
0.000292242
9.70322e-06
-0.000166427
-2.5105e-08
4.01542e-08
7.00159e-08
1.04353e-07
-5.42438e-05
-1.55825e-07
-0.000527127
2.74324e-08
4.51661e-06
3.26054e-05
3.51239e-09
-1.32738e-08
-7.88166e-09
4.14903e-09
4.64484e-08
-6.94735e-05
-2.38961e-05
-2.60081e-09
-3.32639e-08
-1.58628e-08
-0.000984633
-0.000107261
-0.000184237
2.62458e-05
-6.28339e-08
1.07927e-08
7.88201e-05
-0.000127165
5.29804e-05
1.91426e-05
8.92475e-09
0.000129124
-6.38844e-06
9.32289e-05
-2.83437e-10
3.90804e-08
-1.19943e-08
-2.56097e-07
-4.57585e-05
7.56323e-08
-2.13086e-07
-8.79738e-09
6.15145e-08
7.88044e-09
-0.000254705
3.23718e-08
-0.000117023
2.42561e-08
1.83216e-08
-0.000196734
-3.30648e-08
-5.86417e-06
4.05022e-05
-1.22773e-06
-4.87093e-05
7.00204e-09
-0.000111735
-0.000351825
-8.73011e-06
0.000104698
-4.44948e-06
0.000105117
2.33976e-06
1.39183e-05
-2.09202e-07
-0.000394247
-8.03174e-07
-0.000515262
-2.74743e-06
-9.89904e-07
6.03926e-06
-5.37638e-05
0.000242844
-1.99806e-07
-4.38255e-05
-8.43273e-05
-0.000330165
2.95571e-05
-9.68412e-05
5.33117e-06
6.45642e-08
5.47639e-05
1.85076e-08
-0.000159091
7.30492e-05
-4.26797e-08
-8.29807e-05
-0.000105645
-2.56056e-08
-0.000438514
1.93829e-08
8.66951e-06
5.59494e-05
-1.4931e-09
-2.11517e-05
-0.000290034
1.91493e-05
4.95816e-05
6.51702e-08
-1.11225e-05
1.34608e-06
-8.14056e-09
1.35298e-05
-9.74765e-07
6.56023e-10
-0.000250074
5.64416e-05
-2.69547e-05
-0.000146826
4.80985e-06
-0.000139052
-5.90391e-06
-2.5898e-06
2.82756e-06
-6.93644e-05
1.74389e-07
7.3675e-10
-1.33199e-08
-2.29834e-05
0.000213482
6.49755e-08
-1.62774e-05
1.9224e-08
5.72028e-05
2.86153e-05
7.20692e-05
9.16781e-05
-2.20849e-08
2.11866e-05
-6.51489e-08
-0.000319296
6.7504e-05
-0.000160214
2.8934e-08
9.40167e-05
6.86249e-09
1.25521e-07
-4.54596e-05
1.69086e-05
7.60722e-05
2.85801e-07
4.6005e-09
-0.000143298
5.38314e-05
0.000139419
1.88436e-08
1.75386e-09
-0.000178822
-6.84509e-08
-2.10256e-08
5.46058e-09
1.21616e-08
-1.52803e-05
0.000299759
1.38755e-08
4.14938e-05
-0.000206832
1.25571e-08
8.80064e-09
-2.19313e-08
-1.70066e-05
-2.9528e-08
2.18599e-08
-6.99166e-10
0.00161496
-0.000136272
-5.86668e-05
2.41566e-08
6.66892e-05
-9.45836e-05
-0.000427955
-1.12527e-07
2.25752e-09
4.00779e-08
-2.67592e-06
-7.27303e-06
-4.52215e-05
-2.22796e-06
-3.17294e-08
7.85997e-05
5.24658e-08
6.45192e-08
-5.13435e-08
3.88057e-07
1.80693e-07
1.76551e-07
7.33383e-06
-4.16251e-09
-5.83739e-05
-2.80601e-08
-6.22233e-07
6.68732e-06
-3.72191e-09
-8.04778e-09
-7.06778e-05
6.36891e-08
-6.07928e-11
-6.89473e-06
0.000250561
-2.99299e-08
2.66934e-05
5.94114e-08
1.92173e-05
-6.74122e-07
-0.000143951
-4.68926e-05
3.42739e-08
0.000412856
9.95087e-09
-5.86932e-09
-2.1962e-05
3.22706e-05
6.62445e-08
0.000104957
-0.000570297
4.88275e-07
-9.0249e-09
-1.76588e-05
-0.000154234
-6.1085e-07
2.15491e-05
4.07523e-06
-4.97598e-08
4.97108e-05
3.00126e-08
-4.54641e-05
-0.000210912
-6.13962e-08
-2.13052e-06
-3.0649e-08
1.08115e-08
-1.43032e-08
2.60076e-08
-5.79944e-06
-8.37488e-05
9.41413e-09
-5.28668e-07
-0.000108087
2.60663e-08
-7.9147e-09
1.57572e-05
-6.75837e-09
2.48235e-05
-0.000196319
7.59991e-08
-6.01396e-08
-1.64366e-08
0.000133162
1.60385e-07
-1.32847e-08
1.44191e-08
-0.00127086
-0.000214699
0.000107495
-1.23038e-07
-0.000132167
-3.6088e-05
4.2502e-05
9.39626e-09
-0.000841558
1.01286e-06
-0.000148351
9.41744e-08
-0.000174129
-6.92201e-06
4.97375e-05
6.5535e-07
-9.10413e-08
-3.96484e-11
-9.44153e-07
-0.000212054
-3.79947e-10
2.34622e-05
-2.19157e-08
-2.36813e-05
3.21545e-08
5.4329e-05
4.68323e-05
-3.75173e-08
-8.40015e-09
-0.000175008
-0.00056385
-3.2415e-05
-4.03324e-06
-9.84202e-05
-6.94921e-05
-2.58917e-05
-5.11369e-07
-2.54298e-08
3.78452e-09
-4.00413e-08
0.000203043
-4.93236e-06
-2.79815e-07
-5.03223e-09
-0.000182383
7.52224e-05
-5.70489e-05
2.9208e-05
0.000123954
2.53848e-08
-1.37603e-09
1.70439e-08
3.12717e-07
-1.76348e-05
2.96112e-08
-0.000182892
3.26926e-08
2.18428e-05
-0.000145313
3.6982e-08
0.000106735
-0.00111792
1.54103e-05
2.22653e-05
5.3457e-08
2.46143e-06
2.37116e-08
-1.69816e-07
2.96355e-07
0.000180538
-1.67963e-05
-4.68622e-06
1.71116e-08
-3.08048e-09
4.997e-08
-0.000219776
9.45396e-05
9.29269e-06
8.35778e-09
2.3641e-08
-5.04728e-08
0.000181977
0.000289844
-8.61317e-10
-3.20397e-07
-8.73834e-05
-0.000868595
-4.10149e-07
-0.000123937
-2.56171e-05
1.35193e-09
0.00015535
1.21984e-07
-3.24775e-10
-3.42761e-09
3.07771e-08
5.21283e-08
-3.51092e-05
4.91645e-09
1.82952e-08
-2.33339e-09
7.4465e-07
9.51446e-09
2.00374e-09
1.62151e-05
7.03303e-09
-3.15716e-06
0.00025935
4.80552e-09
-4.59497e-05
3.97157e-05
-6.1972e-05
-1.9488e-08
-2.50399e-05
-0.000190882
-5.74396e-05
-0.000288071
3.18666e-09
-1.32551e-06
3.92202e-06
-1.02242e-08
-1.26438e-06
-2.53713e-08
-1.45352e-05
1.89945e-07
5.23939e-08
1.17319e-07
-0.000122855
-1.46725e-05
-1.09092e-06
-1.5659e-09
-5.24606e-05
2.64196e-08
0.000105984
2.38516e-05
-5.52431e-05
-0.000131852
1.83306e-08
-2.549e-08
8.22995e-08
-0.000105289
6.82189e-08
-3.85148e-07
-2.8892e-08
-0.000539847
0.000425446
2.84811e-05
9.07991e-09
-0.000251302
-0.000454369
1.44655e-08
5.68241e-06
-6.6615e-06
-0.00010613
-8.25058e-05
-2.92384e-08
1.20552e-08
-0.00151392
1.888e-05
1.22519e-05
2.40094e-05
-9.09664e-05
-1.04807e-07
8.13954e-05
0.000336638
-0.000415771
-0.000148148
3.43476e-08
-3.64993e-08
2.55814e-08
4.04881e-08
-9.24205e-07
-0.000436816
-7.19674e-07
-5.07651e-10
6.26307e-08
-3.89361e-05
-0.000154679
-1.96383e-05
-0.000195382
3.3025e-08
0.000132267
1.55902e-05
-1.49427e-08
0.000217964
-3.33291e-06
-2.49642e-05
1.31405e-08
-3.75485e-05
4.78201e-08
-3.68745e-08
0.00015886
8.30857e-06
3.01362e-05
3.10587e-07
1.02802e-05
-2.82714e-05
-0.00010948
2.1331e-08
0.000185652
-0.000147638
-0.000126539
-0.000506305
2.43285e-08
-2.94805e-05
-1.90746e-08
2.3044e-08
-1.03106e-08
1.73735e-05
7.10023e-09
8.60994e-08
-7.35661e-07
1.20905e-05
1.72393e-08
0.000180296
-2.94378e-09
1.07588e-08
-3.52159e-08
4.26362e-08
0.000305814
9.6953e-08
1.95112e-05
-0.000197408
4.74042e-07
1.90764e-08
1.63167e-05
5.59392e-05
-7.2071e-09
3.01203e-08
-5.25432e-08
-1.31869e-09
1.22215e-05
-0.000188203
-0.000191097
-0.00023404
0.000265308
-2.1109e-09
-6.40931e-05
5.12885e-08
7.68841e-09
-0.000154496
1.68307e-05
4.25149e-08
-3.52874e-06
2.39282e-07
6.84575e-08
-3.3812e-06
6.80168e-09
-0.000408452
-1.69338e-08
-0.000348487
-0.000181471
2.71788e-08
-0.000122218
-2.0308e-09
8.65324e-08
-0.000195484
-1.31485e-07
1.15293e-05
1.94308e-05
-0.000250081
5.50421e-08
2.10623e-06
-1.48053e-05
7.34384e-08
2.71729e-08
-0.000215629
2.28464e-08
-4.37356e-08
9.62427e-08
-1.60702e-08
1.99171e-05
-0.000850152
-3.34143e-08
1.68841e-07
7.63482e-05
-0.000142243
5.0557e-08
0.000105178
-6.9339e-09
2.10049e-08
1.25877e-07
4.89459e-08
2.1515e-08
-3.40208e-09
-0.000155109
6.45636e-06
0.00031625
2.80306e-05
-0.000149644
-0.000143363
2.19484e-09
-2.87286e-08
-1.54044e-07
-2.24064e-07
-9.83086e-05
-0.000206764
0.000143112
1.17525e-08
-0.000174661
-3.95138e-08
-3.52579e-06
1.90723e-05
2.17377e-05
-5.59881e-05
2.34361e-06
-0.00012729
-0.00034325
-5.52678e-09
4.05769e-08
1.67598e-05
5.08658e-09
6.18011e-10
-1.14021e-08
1.78484e-05
1.57437e-05
-7.93081e-07
-0.000188893
-2.96626e-08
4.54603e-05
-8.52038e-07
-0.000118973
2.95482e-05
-0.00143628
1.99069e-08
4.45737e-08
0.000300552
7.66439e-08
-7.72642e-06
1.90971e-06
-5.37714e-08
-6.29839e-06
5.18653e-09
-7.40971e-05
-0.00057963
-0.000131908
4.7459e-08
1.57729e-09
-0.000131286
0.000101853
3.33194e-05
-1.45562e-08
6.69263e-05
-0.000244143
4.03592e-05
5.32714e-05
-0.000138068
-3.65638e-10
2.20363e-05
-0.000196924
-0.000107519
2.41088e-08
-0.000881689
-1.0723e-08
8.06975e-05
-9.16126e-07
-0.000106165
-0.000193647
-2.88529e-08
1.83349e-08
1.91062e-07
-4.23489e-05
-3.18755e-08
0.000119883
3.02694e-08
-1.46512e-05
-2.9012e-05
1.80208e-08
1.25056e-07
7.05582e-07
-3.89754e-08
3.64013e-08
0.000408704
2.76126e-05
4.83901e-08
4.3643e-09
6.15887e-06
5.25032e-08
1.25903e-09
1.08738e-08
1.70454e-05
-5.22639e-06
2.16093e-05
1.7466e-08
-0.000470462
2.11951e-08
3.21457e-05
-7.37606e-05
-7.55362e-09
-8.00045e-08
-2.62634e-09
0.000161344
9.71928e-08
2.44883e-07
-0.000214791
-1.04857e-08
-0.000200188
-2.89155e-08
-1.71963e-08
-2.29859e-08
-1.54e-08
8.91197e-08
-1.70476e-08
-0.00021357
-0.000110595
-0.000309932
1.0162e-07
-1.31859e-06
-5.94856e-05
-0.000116781
2.7137e-06
-8.42363e-05
1.80724e-08
0.000412323
-6.31113e-07
-0.00183018
-6.75066e-09
-0.0015932
3.4682e-08
2.05984e-06
2.15965e-08
-1.90636e-05
-3.65459e-08
1.3909e-05
0.00014538
1.48227e-08
8.34817e-05
7.76295e-06
-6.88187e-08
-5.70885e-07
5.90445e-08
5.60607e-05
3.54413e-08
0.000130053
-8.77778e-08
1.24612e-08
2.66518e-05
-0.000153534
-0.000198679
2.47928e-08
-1.79213e-09
0.000387753
1.00515e-07
-1.08542e-08
-0.000115003
0.000216517
-2.3559e-07
3.26635e-08
2.91331e-08
-5.33348e-08
8.28613e-05
9.16943e-08
8.78742e-09
5.33772e-05
-7.32783e-05
4.03887e-08
-0.000257314
-1.28587e-05
-3.4566e-08
7.01788e-08
-4.9622e-09
4.00496e-06
6.21585e-09
1.28445e-08
1.47504e-09
3.22552e-06
5.50726e-09
-1.33379e-08
1.40957e-08
-0.000126549
-1.98454e-08
1.09077e-08
1.63581e-08
1.58223e-06
2.7576e-08
1.19678e-05
4.10972e-05
1.17345e-08
-4.23234e-08
9.91473e-06
-4.1173e-06
3.64962e-07
-0.000241648
2.16217e-05
6.22921e-09
4.50083e-06
4.68597e-09
0.000290593
1.44419e-05
-0.000153045
-2.38776e-08
-0.000247935
-6.24388e-08
1.39272e-08
6.92263e-08
5.5862e-09
-5.3155e-08
-0.000152092
1.91089e-08
-3.24462e-09
-8.10621e-07
4.27068e-05
-7.07908e-08
-3.41151e-07
-9.34445e-05
2.22568e-08
0.000174107
2.14503e-08
-6.4873e-05
2.16409e-08
0.000474294
8.72012e-05
-4.02109e-06
2.59026e-08
3.69889e-08
7.4279e-06
-0.0001242
0.000248723
-2.78443e-08
-2.06746e-07
-0.000268902
3.60186e-08
-1.39933e-08
5.49315e-06
1.71407e-08
7.96438e-09
1.43028e-06
-1.20933e-07
2.32557e-05
6.77577e-05
-0.000340168
-3.1896e-08
2.0703e-05
-0.000194727
3.65161e-05
2.74471e-05
2.91751e-08
3.56102e-08
-2.94461e-08
-0.000125983
-7.78383e-06
-8.32695e-08
0.000377387
-0.000120914
-9.80334e-08
1.09466e-08
-1.49328e-05
-7.66367e-05
3.03354e-09
0.000281771
-1.93339e-09
-3.24939e-05
2.63998e-05
0.000275652
5.49077e-08
4.61453e-08
-0.000116787
-0.000195126
-0.000176834
7.14507e-05
2.10656e-05
-2.44769e-08
-4.56157e-10
3.4388e-08
4.93637e-08
-1.80764e-08
-0.000114711
-2.77856e-05
-2.65586e-08
4.05294e-08
8.95443e-07
1.48389e-05
2.61176e-05
-4.09963e-08
-0.000200638
-8.611e-08
6.99947e-05
-0.000228741
7.6069e-05
3.00833e-08
-3.90669e-08
2.49522e-05
-0.000419833
0.000371889
-0.000142664
-2.35397e-06
-6.99016e-05
-0.000787683
-2.83697e-08
2.23593e-05
9.36953e-08
-6.0301e-09
1.3574e-08
0.000234484
0.000301245
-7.70442e-09
2.56597e-09
0.000357673
1.32766e-08
0.000484583
-2.4013e-08
3.92327e-08
-0.000184644
6.49097e-06
3.7689e-08
2.44117e-05
0.000216373
-4.19266e-08
3.47328e-08
-3.91858e-06
1.8387e-07
-8.10619e-07
9.30874e-06
6.05752e-09
1.27212e-06
8.14778e-05
9.67791e-05
-8.16452e-09
8.75326e-05
4.3218e-09
2.91553e-07
-3.09877e-08
0.000129514
-0.000690701
6.19327e-09
-2.2067e-06
8.73897e-05
-1.98334e-08
-2.79838e-08
1.52256e-08
-0.000368169
0.000135994
-0.000137485
-6.97016e-07
0.00012769
0.000148903
-4.64101e-05
4.13037e-08
8.19527e-05
0.000202021
-1.49992e-07
-0.000138711
-5.0936e-05
-3.51136e-05
-0.000113435
-0.00149194
1.48701e-08
0.000152944
0.000105876
0.000323362
-0.000278048
-0.000213605
1.23512e-08
5.6937e-08
-0.000113719
5.92863e-05
5.08128e-08
4.23407e-08
-0.000254046
-6.10018e-08
2.41662e-05
-0.000111059
-0.000104778
0.000189538
4.6113e-08
0.000288438
0.000151776