/*--------------------------------*- C++ -*----------------------------------*\
| =========                 |                                                 |
| \\      /  F ield         | OpenFOAM: The Open Source CFD Toolbox           |
|  \\    /   O peration     | Version:  v2012                                 |
|   \\  /    A nd           | Website:  www.openfoam.com                      |
|    \\/     M anipulation  |                                                 |
\*---------------------------------------------------------------------------*/
FoamFile
{
    version     2.0;
    format      ascii;
    class       volScalarField;
    location    "400";
    object      k_0;
}
// * * * * * * * * * * * * * * * * * * * * * * * * * * * * * * * * * * * * * //

dimensions      [0 2 -2 0 0 0 0];


internalField   nonuniform List<scalar> 
14479
(
0.000120552
0.000119872
0.000106714
0.0214098
0.000564255
0.013302
0.000145619
0.000106887
0.000111662
0.0466952
0.000307621
0.0203882
0.011457
0.00972531
0.0191166
0.0326917
0.00370345
0.00960217
0.0791647
0.00014896
0.000121495
0.000109297
0.0291984
0.000458299
0.000111396
0.000176442
0.00015277
0.0470273
0.0102494
0.0202853
0.0526337
0.0188763
0.0771575
0.000106513
0.000100286
9.36593e-05
0.000128949
0.0243384
0.000107346
0.000650853
0.0196542
0.000107346
0.000114215
0.000102873
0.0425752
0.000143203
0.00380202
0.0193284
0.000103224
0.000222652
0.000118688
0.0879719
0.000772149
0.000216085
0.00010311
0.000118521
0.000178048
0.042574
9.34775e-05
0.000201521
0.000107117
0.000102025
0.00230825
0.000252954
0.00772056
0.0278242
0.000106147
0.000113146
0.0827576
0.0817925
0.0303131
0.000162086
0.0442366
0.069767
0.000122235
0.000112186
0.0299836
0.0183189
0.0748215
0.029207
0.0807308
0.000136626
0.000102649
0.000161155
9.39353e-05
0.000137255
0.000206032
0.000123239
0.0289876
0.000116546
0.0386713
0.0287246
0.012963
0.0323159
0.000101631
0.0781514
9.6874e-05
0.0372197
0.000101181
0.0550571
0.0522894
0.0441878
0.000201759
0.00011411
0.000101539
9.55173e-05
0.0123225
0.0460585
0.000190048
0.0188315
0.000102236
0.000102444
0.0399092
0.000221861
0.000150291
0.000111653
0.000112333
0.00179508
0.000112621
0.000177337
0.000100426
0.000129891
0.0200746
0.0001075
0.0328154
9.58348e-05
9.88013e-05
0.00011903
9.49154e-05
0.0416428
9.59474e-05
0.00992659
0.0745788
9.64829e-05
0.00014499
0.000215959
0.00238937
0.000115678
0.0879325
0.0218871
0.000101028
0.0107245
0.000102838
0.00296139
0.000230103
9.37246e-05
0.055389
0.000106309
0.000116296
0.000108225
0.0762942
0.000106564
0.000120871
0.000652751
0.00241568
0.000102624
0.0456695
0.000146352
0.0916124
0.0767813
0.0465636
0.0827027
0.0771372
0.000199505
0.0560877
0.0225541
9.25633e-05
0.0430244
0.000119176
9.71065e-05
9.57168e-05
0.000135391
0.000118913
0.000175538
0.000119835
0.000660691
0.000124846
9.68261e-05
0.00027416
0.000112202
0.00471237
0.00012286
0.000112864
0.0146864
0.000126726
0.000172834
0.000113895
0.00011192
0.00161258
0.00320198
0.000128643
0.0639633
0.000102585
0.000146456
0.0108263
0.0753155
0.00169683
0.0797369
0.000107436
0.000120062
0.000111677
0.00526688
0.068411
0.000817278
0.0124291
0.000111858
0.000116109
0.000177006
9.64789e-05
0.000187502
0.0430582
0.0631893
0.000112311
0.000113079
0.000117394
0.000233983
0.0564131
0.0078707
0.000129824
0.000116306
0.00129169
0.0334627
0.0690181
0.00010403
0.0253892
0.0224739
0.000108405
0.000102818
0.000194131
0.00012372
0.000113353
0.000143103
0.000113969
0.00930399
0.000111766
0.000111795
0.000173758
0.0268829
0.00012964
0.000110202
0.023459
0.000204593
0.000102316
0.000191484
0.0613901
0.0451081
0.000101475
0.000116099
0.0474294
0.0285965
0.000107205
0.00018424
0.000120328
9.56044e-05
0.0275946
0.0007659
0.000127871
0.0070936
0.000178963
0.000512691
0.0813727
0.0852355
0.0120127
0.000145418
0.000127705
0.000115659
0.000128175
0.0673679
0.0304811
0.0810102
0.0577904
0.000118499
0.0205885
0.000114103
0.000111997
0.0139816
0.0463714
9.98979e-05
0.0271685
0.0410849
0.0192647
0.0278005
0.0482175
0.0811205
0.000137829
0.000130655
0.0340257
0.000114494
0.0388613
0.0126751
0.0256235
0.017403
0.000210425
0.0117555
0.000119451
0.000117004
0.000115729
0.000166667
9.27078e-05
0.00011413
0.000118104
0.025412
0.00010074
0.000110311
0.000116558
0.00883105
0.0910835
0.000798056
9.89624e-05
9.82552e-05
0.0346183
0.000309438
0.000361754
0.000106245
0.00010995
0.000145326
0.0208942
0.000139262
0.000125499
0.000115712
0.000112212
0.000129926
0.000113209
0.0167656
0.00127429
0.0229484
0.0797051
0.000421699
0.0255401
0.000109377
0.000103111
0.000112075
0.0812453
0.0105613
0.00199222
0.000112608
0.000111927
0.000227552
0.000659022
0.000132857
0.0786663
0.000106066
0.0131198
0.000106944
0.0315649
9.29689e-05
0.0286712
0.0654687
9.35312e-05
0.000134672
0.031002
0.0268143
0.000106998
0.000118131
0.0158608
0.000126335
0.000103961
0.0337515
9.90426e-05
0.00011384
0.000113147
0.0386804
0.0211261
0.000112832
0.0263663
0.000103578
0.000185959
0.0103043
0.0246117
0.0705677
0.000244911
0.0633309
0.000137001
0.0519988
0.0490246
0.0841038
0.000149157
0.00014756
0.0192587
0.000115417
0.00010615
0.000101989
0.000368878
0.000175558
0.0608418
0.000203316
0.000127394
0.0005981
0.000127261
0.000234235
0.000135025
0.00010597
0.0278864
0.00787093
0.0788543
0.0654232
0.011933
0.0297219
0.000109869
0.000137089
0.0847892
0.0193686
0.0298981
0.000108404
0.0330768
9.80179e-05
0.00834364
0.0244206
0.000221037
0.000104234
0.0462248
0.0306669
0.000126054
0.000136129
0.0477643
0.000108764
0.0214415
0.00086647
0.000138115
0.000112098
0.000106749
0.000119696
0.075833
0.000205746
0.0773597
0.00011651
0.0347354
0.00012166
0.000111522
0.0292823
0.075595
0.000218002
0.00839679
0.000104531
0.000116045
0.0597897
0.000110093
0.0662293
0.0226678
0.000661
0.0206061
0.0472172
0.0147145
0.000121598
0.000220755
0.000107253
0.000193563
0.031166
0.000101822
0.000104993
0.000131893
0.0164235
0.000206432
0.000199391
0.000148469
0.000494464
0.00010212
0.000188284
0.0642738
0.0320043
9.82287e-05
0.000118559
0.0907767
0.000431706
0.0801519
0.00916496
0.000106611
0.0444873
0.0101304
9.50617e-05
9.60399e-05
0.00012139
0.0122536
0.0612797
0.0111621
0.021271
0.0295559
0.00953611
0.000145975
0.000885812
0.000108365
0.0408499
0.000119044
0.000753717
9.99154e-05
0.000210755
0.000105527
0.0808483
0.013647
0.0627558
0.0590438
0.000135054
0.000109485
0.0541691
0.00429507
0.000100344
0.000120015
0.0225102
0.000355402
0.00010361
0.000111801
0.000396323
0.000106403
0.000119897
0.0171682
0.0194635
0.0777709
0.000106253
0.000100037
0.017679
0.000114903
0.000133001
0.000101304
0.0165992
0.000102474
0.000129133
0.000136708
0.000124868
0.0171728
0.000286797
0.0902743
0.0290856
0.091177
0.0356374
0.0618565
0.0593817
9.69619e-05
9.79296e-05
0.0791397
0.0210811
0.00013206
0.000313205
0.0725842
0.0602943
0.000110432
0.000149196
0.000592933
0.0121918
0.0202866
0.0642321
0.0112609
0.0528903
0.000104672
0.022279
0.000106071
0.000126819
0.0802606
0.000131203
0.000104479
0.000104625
0.000106765
0.000944235
0.000103959
0.000126814
0.0100293
0.000116295
0.0176639
0.00961969
0.0225774
0.0100168
0.000116687
0.0332286
0.000113914
0.0643184
0.000101286
0.000540964
0.000147457
0.000102776
0.000100652
0.000102491
0.000113794
0.000103081
0.0588497
0.045124
0.000106142
0.0192246
0.00168901
9.4554e-05
0.000113468
0.000306718
0.0153668
9.513e-05
0.000130756
9.82289e-05
0.0526764
0.000101462
0.000102633
0.0651256
0.0248131
0.0233248
0.000177063
0.000137635
0.000122494
0.0829788
0.00940461
0.0647306
0.000113509
0.000130995
0.00011134
0.000119044
0.0722379
0.000126963
0.0555806
0.0877644
0.0755857
9.62724e-05
0.0115777
0.033889
0.000113517
0.000158736
0.000114666
0.023888
0.000126069
0.000119151
0.000126318
0.000122973
0.0258107
0.00143933
0.0772581
0.000120379
0.000102186
0.000112506
0.000103627
0.000103482
0.0705971
0.0196462
0.000105049
0.000123666
0.000100737
0.0644304
0.000123496
0.000102841
0.000137801
0.00375454
0.000124249
0.000124336
9.99028e-05
0.00270063
0.045151
0.000128303
0.0775043
0.000882854
0.000124882
0.081488
0.0141286
9.43162e-05
0.000110769
0.000113445
0.000103192
0.0498418
0.0662307
0.000204642
0.000123406
0.0229573
0.0296084
0.0814315
0.0583651
0.000133713
0.000122357
9.77334e-05
0.0165087
0.000113411
0.000100222
0.0600513
0.0356804
9.91929e-05
0.00011343
0.00249358
0.0725474
0.00012429
0.000114038
0.000109397
0.0215639
0.0188545
0.0483872
0.00136791
0.0566119
0.000119295
0.0129195
0.000118141
0.000110307
9.82698e-05
0.0283756
0.000120183
0.0275954
0.00010726
0.0426903
0.0203627
0.000145469
0.0745236
0.000115198
0.00012501
0.0736196
0.00168515
0.00695734
0.0756835
0.0581443
0.0716167
0.000111028
0.00189072
0.0438394
0.0420704
0.0914299
0.000109
0.0174396
0.0779896
0.000790691
0.074971
9.75073e-05
0.061769
0.000120495
0.000111959
0.0311795
0.0288441
0.0298047
9.9248e-05
0.000115907
0.0277896
0.0260295
0.000241317
0.00235966
0.0101528
0.000111361
0.0723239
0.0557146
0.00011272
0.040559
0.0471976
0.0665195
0.000112293
0.000109528
0.0207895
0.000146427
0.000109965
0.000100656
9.57542e-05
0.000172996
0.000180176
0.000110885
0.000127865
0.000116957
0.000102651
0.000147497
0.000147013
0.000112525
0.0354046
0.00158541
0.0197863
0.0302865
0.0217968
0.000527092
0.000112956
0.000113418
0.000107702
0.000190867
0.0144302
9.81405e-05
0.025307
0.000121785
9.81447e-05
0.00267625
0.000119886
0.0141026
0.0447819
0.000111558
0.0791413
0.000125717
0.0245878
0.0289559
0.00022567
0.000274913
0.0282625
0.0278716
0.000119517
0.00011673
0.0136148
0.03297
0.0217621
0.000112744
0.0290452
0.078738
0.000120879
0.0797256
0.00112833
0.000111453
0.000122803
0.0198191
0.000362449
0.00010672
0.0617539
0.000126755
0.0518045
0.0152346
0.0576885
0.0841149
0.0475389
0.0179947
0.00199095
0.00104244
0.000307374
0.0759346
0.000167464
0.000130788
0.000180355
0.00010071
0.0356729
0.0760995
0.00011089
0.0256589
0.0235917
0.0179419
0.0745938
0.000109431
0.000114663
0.0118003
0.05608
0.000248527
0.00927031
0.000121429
0.0492152
0.000111957
0.0123701
0.00011159
0.0436877
0.000121908
0.00880783
0.000212622
0.00011297
0.000133721
0.000110749
0.000144255
0.0741951
0.0718411
0.0773697
0.0318727
0.000222148
0.0349623
0.000112029
0.0604458
0.00365606
0.0204302
9.30847e-05
0.000117479
0.000180404
0.0154637
0.000108225
0.0751471
0.00152714
0.000111955
0.000138845
0.0674026
0.000212524
0.001927
0.00772508
0.020038
0.000116227
0.0567448
0.000101593
0.000111207
0.000126243
9.53161e-05
0.000111691
0.000105053
0.029654
0.000101926
0.0582206
9.91763e-05
0.000112625
0.000110523
0.000107211
0.00781466
0.0364429
0.0903555
0.0549342
0.0373352
0.0823941
0.000133763
0.0776212
0.0614184
0.0800133
0.0164032
0.00450351
0.0364935
0.000122494
0.000119485
0.000109884
0.000117325
0.0002586
0.000147268
9.63872e-05
0.000118182
0.000121466
0.000218154
0.0394131
9.47796e-05
0.000144379
0.000144097
0.0172349
0.0437093
0.000102736
0.0191131
0.000115894
0.000196133
0.000113966
0.000107794
0.000127086
0.000104629
0.000117892
0.0638955
0.0761709
0.0269661
0.0797453
0.000122607
0.000279706
0.0207046
9.31876e-05
0.000133932
0.0772225
0.0637547
0.0121285
0.000110662
0.0273867
0.0463339
0.0119988
0.000114847
0.000129395
0.0540638
0.0011283
0.0193942
0.000113637
0.0644226
0.00243339
0.000144903
9.52339e-05
0.00266158
0.0467475
0.0767714
0.0867637
0.0446903
0.00190304
0.000111731
0.0740358
0.000145845
0.000116862
0.000114553
9.85115e-05
0.0825649
0.0551407
0.000786529
0.000129422
0.0852648
9.81311e-05
0.057404
0.077427
0.000136866
0.000107776
0.000153271
0.0585885
0.000130825
0.000113258
9.5882e-05
0.0878637
0.00010195
0.000146491
0.00529642
0.0133236
0.00123541
0.000122208
0.000113598
0.000106754
0.0535368
0.0141086
0.091185
0.000143595
0.000528023
0.0454289
9.81569e-05
0.000106349
0.000115862
0.0719714
0.000143116
0.0224868
0.000110613
0.019808
0.000175094
0.00010678
0.00120087
0.000147503
0.000134543
0.0013799
0.000121309
0.000109337
0.0269786
0.0252137
0.000122488
0.0133288
0.000110535
9.78246e-05
0.000116999
0.000104925
0.0267503
0.00011916
0.0561802
0.000103814
0.0304199
0.000117627
0.000127181
0.0281418
0.000125527
0.000111359
0.0677252
0.0666759
0.000171282
0.0504329
0.000146411
0.052385
0.000101871
0.000113872
0.0579985
0.000189938
0.000133714
0.000114957
0.0492927
0.000121922
0.0665963
0.0432831
0.000178906
0.000117663
0.00458738
0.0214979
0.0754015
0.00011177
0.000139601
0.000160636
0.000103553
0.000102932
0.000144942
0.0501645
0.000135963
0.00783221
9.60792e-05
0.0177732
0.0473667
0.00104287
0.000825948
0.0031299
0.000120258
0.000272258
0.000128677
0.0884725
0.0262247
9.5426e-05
0.0144084
0.0458133
0.000155322
0.00742865
0.00655915
0.0339809
0.00282648
0.000118159
0.000944903
0.000123606
0.00012578
0.000111861
0.000122298
0.0809271
0.0922661
0.0136022
0.0250592
0.0885754
0.027462
0.0344758
0.00377849
0.000154739
0.000120306
0.0649129
0.0921504
0.0695778
0.000119725
0.000147153
0.062959
0.000102565
0.000124924
0.000126934
0.000146019
0.000113961
0.0387247
0.000112112
0.000293297
0.000113881
0.0563249
0.000663197
0.0441812
0.000144526
0.000117435
0.000199804
0.00254467
0.000110488
0.000120351
0.000113346
0.000568637
0.0719629
9.98176e-05
0.000113392
0.000118868
0.00867468
0.000124147
0.000137729
0.00651393
0.0699321
0.0208866
0.000112926
0.0631448
9.60934e-05
0.000143847
0.00652567
0.000353157
0.000190676
0.000129399
0.000340099
0.0456389
0.0334413
0.0141235
0.000114315
9.52865e-05
0.0433071
0.0450344
0.000160448
0.0341396
0.00013362
0.000142302
0.000112013
0.0224509
9.68679e-05
0.0611477
0.000385687
0.000105538
0.0399105
0.00139145
0.0437679
0.000145542
0.00011097
0.00864296
0.000115962
0.0571093
0.0351437
0.00812324
0.000113247
0.00016281
0.000105224
0.00119064
0.000119155
0.000102463
0.000357414
0.000127122
0.000726072
0.000108552
9.78583e-05
0.00556555
0.0421249
0.0920784
0.00343945
0.00900953
0.000100853
0.000132723
0.00013379
0.000111733
0.000101671
0.0858854
0.000568371
0.000110814
0.000112859
0.000118871
0.0149007
0.000222066
0.000101973
0.021341
0.0128817
0.046901
0.000118415
0.000108382
9.37161e-05
0.0816032
0.00318395
0.0592107
0.00134153
0.0332642
0.000161202
0.000101201
0.000103309
0.00010985
0.0651022
0.0346924
0.0197461
0.000107813
0.000117315
0.000113311
0.000107845
9.53493e-05
0.000104866
0.000113351
0.0209873
0.00194154
0.00014978
0.0250962
0.0318355
9.8522e-05
0.000105977
0.0178983
9.76391e-05
0.000111552
0.0242298
0.000128038
0.000111484
0.00010716
0.0237228
0.000123664
0.0118038
0.000855787
0.000133321
0.000125092
0.0323901
0.0639002
0.0332943
0.000111566
0.00013058
0.000990082
0.00010904
0.000112092
0.0566005
0.000117229
0.00445165
0.000342142
0.0328178
0.000117906
0.0873232
0.00010803
9.1098e-05
0.00109299
0.0447179
0.000113891
0.0274933
0.000139899
0.000103205
0.0758399
9.43107e-05
0.000128318
0.0204581
0.0543319
0.041383
0.0431995
0.000101417
0.000164051
0.0113023
0.0204576
0.0148287
0.000112654
0.000107318
0.000194635
0.000103116
0.000110348
0.000105747
9.59209e-05
0.00764634
0.000109304
0.000127171
0.0116489
0.00629196
0.00175355
0.0303758
0.000103145
0.000145392
0.0726827
0.000134727
0.0917931
0.000206988
0.0314292
0.00228716
0.000113854
0.000111809
0.0748638
0.0392374
0.000110988
0.0280269
0.0464551
0.0426513
0.000108237
9.57618e-05
0.00020229
0.0570029
0.0215187
0.0271925
0.0249641
0.000101674
0.000136076
0.0694701
0.000187608
0.0124301
0.00139285
0.000107321
0.0881094
0.000171087
0.00014372
0.0273353
0.000121576
0.000447734
0.000112812
0.00012323
0.000129272
0.000224644
0.000102877
0.0369692
0.0817498
0.067832
0.000148115
0.000115606
0.000115854
0.000111491
0.0410759
0.000113454
0.000129593
0.000114001
0.0248927
0.000127479
0.00151248
0.000117208
0.00800106
0.0446086
0.03473
0.0348998
0.00494596
0.0148217
0.000102708
0.000129869
0.00366596
0.000110062
0.0727191
0.029469
0.000128122
0.000112543
0.00010391
0.000129798
0.0297506
0.000274593
0.0280594
9.69793e-05
0.000139684
0.00013364
0.0198219
9.65235e-05
0.000107217
0.0757537
9.3796e-05
0.0332712
0.000600187
0.000358002
0.0137286
0.0706999
0.000109781
0.000106313
0.0855191
0.000125144
0.0500697
0.000111887
0.017568
0.000136205
0.0580002
0.0311783
0.00019217
0.0248955
0.0320195
0.0155362
0.000112704
0.0755028
0.00166782
0.0300872
0.000128982
0.000113608
0.000135063
0.00144824
0.00169353
0.000335441
0.000108866
0.00028242
0.000102547
0.000116657
0.04139
0.000134699
0.000116416
0.0169506
0.000600092
0.0344371
0.000137119
0.023816
0.000132488
0.0265907
0.000145128
0.000100378
0.000112661
0.0204418
0.000134861
0.0767552
0.0288235
0.000206235
0.000119863
0.0232856
0.0296819
0.000139781
0.00012114
0.0213669
0.00349389
0.000107312
0.00010442
0.0659495
0.0406418
0.000275658
0.00637647
0.000313337
9.9401e-05
0.0261682
0.00434097
0.064706
0.0362044
0.045308
0.0840396
0.0792386
0.000109085
0.00415858
0.00489096
0.000113194
0.0875385
0.000145481
0.0813413
0.0114006
0.0301266
0.000125299
9.86734e-05
0.000133146
0.000111305
0.0263164
0.000124223
0.00260181
0.000102628
0.000303974
0.0306146
0.000112261
9.71296e-05
0.000107536
0.000113185
0.000128255
0.0151909
0.0289658
0.00011501
0.000108049
0.000101247
0.0693597
0.014494
0.0341689
0.000341195
0.000124973
0.000107231
0.0908108
0.000488041
0.0798293
0.0338133
0.000116749
0.00104966
0.0863679
0.0632514
0.000146933
0.000124166
0.000112416
0.000144592
0.0422922
9.28773e-05
0.000198131
0.000111631
0.000103258
0.000101184
0.0496553
0.000124726
0.0259447
0.00010292
0.00010439
0.0292799
0.000122539
0.0126315
0.0335006
0.000202546
0.0255918
0.000109345
0.0276261
0.0311058
0.0436872
0.0603559
0.0258356
0.0465231
0.0086608
0.0179197
0.000213376
0.0759664
0.00014837
0.0861835
0.000285875
0.000157635
0.0127716
0.0195643
0.0514444
0.00020095
0.0474201
0.0333635
0.0564867
0.0134771
0.0246222
0.0109789
0.000131381
0.00186595
0.000114513
0.0282224
0.0433576
0.000107
0.066061
0.00737233
0.000107054
0.0875986
0.000119774
0.000232376
0.0314974
0.000105252
0.0412588
0.0541979
0.001168
0.0835743
0.000112401
0.000168951
0.00775132
0.000144162
0.00125002
0.000161021
0.000113982
0.047385
0.0011286
0.0185847
0.0175486
0.000322978
0.0276757
0.00176618
0.000342337
0.0709577
0.0884624
0.000147261
0.000134407
0.000112612
0.036329
0.0547936
0.000111557
0.0360908
0.00012276
0.0172672
0.0296255
0.0754671
0.0676995
9.89891e-05
0.011869
0.000117729
0.0549639
0.0263731
0.043582
0.000115671
0.0654866
0.000101884
0.000179051
0.0881077
0.000316743
0.0728481
0.000188942
0.000115209
0.0305949
0.0809993
0.0605516
0.000122149
0.000127943
0.0222639
0.00014633
0.000119758
0.000100495
0.000116272
0.0454013
0.051456
9.2402e-05
0.0337223
0.0387079
0.000126677
0.000112581
0.000111437
0.000618557
0.000111593
0.00012298
0.000121749
0.0358595
0.0406274
0.0375079
9.7859e-05
0.0414192
0.0160392
0.005299
0.000123124
9.84411e-05
0.000103047
0.000231321
0.000156669
0.0330914
0.00017765
0.000105297
0.000723984
0.000112904
0.000133872
9.81075e-05
0.000202221
0.000155132
0.035318
0.0116507
0.000135388
0.0148838
0.000106625
0.000140389
0.000255871
0.000104915
0.000104815
0.0260432
0.000103722
0.000144921
0.0141204
0.0776299
0.000111328
0.0215983
0.000126622
0.0197186
0.00037972
0.0391205
0.0390036
0.000129469
0.0699015
0.000106164
0.000121013
0.0131905
0.0845272
0.000124457
0.0612321
0.0858176
0.000197659
0.000121868
0.000659919
0.0325206
0.000229544
0.0213692
0.0349737
0.000117424
0.0367948
0.000119497
0.0359053
0.0429285
0.000121958
0.00382624
0.000106659
0.000120785
0.000105329
0.000126368
0.00110386
0.0270255
0.00010607
0.000282777
0.000916176
0.00011706
0.000112065
0.0340194
9.86505e-05
0.0211587
0.044326
0.000111926
0.000110471
0.000119064
0.076504
0.000134031
0.0001151
0.000112473
0.0697242
0.00549578
0.0587831
0.000116111
0.0150013
0.0144344
0.0323833
0.000102482
0.0748612
0.000273766
0.0284969
0.000111485
0.0607991
0.0162442
0.0368167
0.000216605
0.000128286
0.000143012
0.000156306
0.0197048
0.000145306
0.0201233
0.00011606
0.0209049
0.000112142
0.0459366
0.000204053
9.36568e-05
0.000106387
0.0309265
0.0840001
0.0439165
0.0287551
0.0270955
0.0233482
0.0223407
0.000148593
0.000108948
9.92664e-05
0.000111715
0.0485332
0.00122934
0.000125499
0.000110695
0.0393008
0.0467098
0.0159666
0.0113631
0.0561308
9.84043e-05
0.000107431
0.000104477
0.000185051
0.0447603
0.000117039
0.0326397
0.000132453
0.0133186
0.0073307
9.55425e-05
0.0563975
0.0741897
0.0219967
0.0242738
0.000115921
0.000277268
0.000111723
0.000115169
0.000180117
0.0465644
0.000567003
0.000539792
0.000121318
0.000124489
0.000121943
0.0403538
0.0512138
0.000410294
0.000124737
9.29211e-05
0.000116387
0.0839906
0.00266176
0.000112021
0.000164756
0.0157763
0.0748909
0.000125726
0.0257537
0.0158053
0.000122736
0.0579068
0.000245873
0.000127108
0.000115057
9.555e-05
9.2441e-05
0.0892577
0.000114279
9.52992e-05
0.000119961
0.000117714
0.000121396
0.000111144
0.0153435
0.000112533
0.0464945
0.0622097
0.000112135
0.0331728
0.0352529
0.0129924
0.000100964
0.035449
0.0786195
0.0685185
0.0526612
0.000145414
0.00018046
0.00985694
0.000133114
0.000186809
0.000111702
0.000570072
0.000159668
0.000100441
0.0001408
0.0281511
0.000238686
0.000186893
9.80222e-05
0.00167009
0.00011998
0.0557442
0.0244605
0.0253753
0.0254593
0.000146551
0.000103055
0.00012377
0.0162237
0.000106278
0.000165913
0.000140926
0.0737649
0.07982
0.0353883
9.59368e-05
0.0486043
0.0726316
0.000109062
0.0110222
0.000376223
0.0270954
0.0140823
0.000109565
0.000112807
0.0250195
0.0217348
0.0110699
0.0201506
0.0295857
0.000128062
0.0615519
0.0917143
0.00581852
0.0443413
9.72059e-05
0.000105565
0.000117634
0.000108019
0.000205672
0.0646502
0.0002204
0.000113243
0.000133167
0.0800141
0.0147478
0.000481236
0.0283008
0.000118151
0.0162799
0.0150772
0.000106856
0.0284923
0.0344133
0.019291
0.000127925
0.0144826
0.000123564
0.00010939
0.0445371
0.0332102
0.000775317
0.000190387
0.0263182
0.0722381
0.0246609
0.000115272
0.0647009
0.0296437
0.00127491
0.0684613
0.000113711
0.0102871
0.000115701
0.000111718
0.000110245
0.000164615
0.000108775
0.00013706
0.000146076
0.000351987
0.000112517
0.0612132
0.000113452
0.000107707
9.64258e-05
0.000105724
0.0825838
0.000108259
0.0230723
0.0287124
0.00021103
0.000111351
0.0226214
0.0383215
9.85826e-05
0.00012399
0.000105649
9.83052e-05
0.0445065
0.00666878
0.0381959
0.0455818
0.0614201
0.000122852
0.0187347
9.96008e-05
0.000117713
0.0315259
0.0206302
9.74314e-05
0.000620531
0.000170773
0.000112742
0.000289805
0.000100864
0.0873295
9.41734e-05
0.0567052
0.0670689
0.000112041
0.0340602
0.000122072
0.000133265
0.0298662
0.000113277
0.0165016
0.0243669
0.0476941
0.000118801
0.000158667
0.000161631
0.000111355
0.000115459
0.0471504
0.000125134
0.000118368
0.000111057
0.000138341
0.0202619
0.0800792
0.000118167
0.000138574
0.034117
0.0862531
0.000128205
0.0550225
0.000100257
0.000112156
0.000150742
0.000132436
9.81613e-05
0.000115612
0.0593314
0.000194408
0.0730917
0.0104163
0.0408773
0.029707
0.000118182
0.000111896
0.000112042
0.000133014
0.00143545
0.044927
0.0446472
0.000111962
0.0179203
0.000108369
0.000301699
0.0220688
0.0246037
0.0400488
0.00901244
0.0192608
0.0615432
0.000109253
0.000130607
0.0215994
9.50766e-05
0.000144134
0.000124413
0.0378958
0.01955
0.000148244
0.037334
0.0001348
0.045166
0.000158051
0.0278626
0.0116379
0.0622189
0.000112093
0.000131386
0.079081
0.000128756
0.000399211
0.000271142
0.000111466
0.000282271
0.000112698
0.0201731
0.0763549
0.0441398
0.000105847
9.21114e-05
0.0314971
0.0409933
0.0239263
0.000107873
0.041635
0.0471212
0.0349014
0.0850319
0.0282477
0.000100535
0.0211104
0.0285214
0.0689964
0.000115405
0.0784149
0.000108165
0.00179664
0.0219535
0.0703421
0.0306908
0.000107057
0.000118108
0.000154716
0.0275884
0.000104875
0.0390193
9.57145e-05
0.000923023
0.0295354
0.000118287
0.000138829
0.000228237
0.000109832
9.75709e-05
0.0808948
0.0115984
0.000124741
9.52882e-05
0.037065
0.000108779
0.000132076
0.00011405
0.0228919
0.03552
0.0233161
0.000112961
0.072418
0.000144618
0.086664
0.027853
0.000122215
0.000128203
0.000110496
0.0280618
0.000137719
0.000165387
0.0418536
0.000111328
0.0392732
0.000107323
0.000110859
0.000119466
0.000132389
0.000100131
9.42107e-05
0.00461414
0.0256309
0.000999169
0.000111656
0.00017716
0.0173543
0.0233376
0.0131835
0.0265114
0.000120385
0.0712885
0.000148834
0.0411276
0.000102415
0.0572557
0.000111845
0.000213784
0.000102146
0.0133645
0.000130256
0.0202698
0.071996
0.000113112
0.000220542
0.0127644
0.000115407
0.000115755
0.000121383
0.0848707
0.000106042
0.00207896
0.000105094
0.000108328
0.0214492
0.0693718
0.0317874
0.000120701
0.00011191
0.0782689
0.000133232
0.000119055
0.0262555
0.0846034
0.027649
0.000114883
0.000114753
0.000133379
0.0724668
0.000130282
0.000113885
0.0820146
0.0036661
0.000122332
0.049375
0.000229527
0.000109561
0.00010618
0.000140334
0.0269428
0.00012911
0.000107394
0.000138894
0.000300724
0.000136855
0.000128932
0.00011323
0.0281398
0.000107003
9.58616e-05
0.000126776
0.000253949
0.000118779
0.0171421
0.0692254
9.83915e-05
0.000136208
0.000163352
0.00029803
0.000180974
0.0642114
0.0194005
0.000114053
0.0109552
0.000119752
0.0677393
0.0135744
0.041774
0.000108126
0.0256971
0.000128327
0.000110646
0.000132017
0.000124175
0.000103521
0.033512
0.000109617
0.000106613
0.000232757
0.0826928
0.00011326
0.000128576
0.0267548
0.000102335
0.00972975
0.000115669
0.0148583
0.000111992
0.00887968
0.00302309
0.000284064
0.000114363
0.000111513
0.0229048
0.028389
0.0920136
0.000112526
0.000125927
0.0578816
0.000121462
9.77055e-05
0.000155121
0.000112878
0.000113762
0.000226316
0.000131648
0.021682
0.0718043
0.0592482
9.49975e-05
0.0148252
0.0320271
0.087796
0.0148717
0.00011127
0.000132701
0.000100895
0.0314307
0.00299663
0.000114911
0.0789584
0.0458478
0.000111883
0.000120329
0.0139513
0.0290928
0.000116386
0.0661055
0.000125073
0.0144027
0.000591071
0.0481304
0.000100844
0.000127324
0.0313842
0.000824641
0.0273662
0.0915078
0.0228029
0.000109776
9.75065e-05
0.000128308
0.000102991
0.000117461
0.018952
0.0445227
0.000145463
9.33723e-05
0.000290616
0.0167612
0.012819
0.000101922
0.0313354
0.000104536
0.0852218
0.000764513
0.0439131
0.000100174
0.000111823
0.0154974
0.0639205
0.0923358
0.0272471
0.000436617
0.0288234
0.0823132
9.19691e-05
0.0234166
0.000101761
0.000125924
0.000118526
0.0158825
0.0010729
9.65519e-05
0.000123465
0.0824343
0.000114105
0.00121258
0.000102092
0.000118992
0.00111392
0.0200195
0.000116053
0.0142997
0.00499403
0.000118454
0.000117202
0.000412356
0.000249634
0.000157972
0.0317374
0.000105931
0.0113003
0.0426135
0.000832997
0.000111763
0.0468672
0.000110501
0.000181254
0.000102548
0.00341183
0.00846313
0.000117725
0.00116399
0.0806306
0.000109144
0.0001299
0.000117166
0.0691126
0.0813192
0.0312002
0.000181683
0.0017375
0.0824459
0.023975
0.00010272
0.0359574
0.00497982
0.000174239
0.0415505
0.00160078
0.0214568
0.0302915
0.0180471
0.000110662
0.044721
0.0771516
0.0687064
0.0308543
0.034452
0.000111884
0.000103062
0.0312044
0.0838001
0.000124734
0.000118494
0.0803963
0.00014522
0.0260859
0.062179
0.0906639
0.0230938
0.00011017
0.00534875
0.0818613
0.000103378
0.000145475
0.000108825
0.00187411
0.0253394
0.0590298
0.0210174
0.0451327
0.00010114
0.0283063
0.0259175
0.0243455
0.000173924
0.000148197
0.0304441
0.0533886
0.000115262
0.0369365
0.000226028
0.000136493
0.000112478
0.0826696
0.0607479
0.000124844
0.000108718
9.70057e-05
0.000119682
0.0101018
0.043405
0.000116553
0.083267
0.00119904
0.000124281
0.022626
9.5862e-05
0.000112162
0.0716621
0.000135344
0.00011203
0.0220202
0.000112989
0.000206853
0.000110597
0.000111029
0.0618012
0.000124437
0.0840458
0.0336949
0.080536
0.0446049
9.18688e-05
0.0865484
0.000112642
0.040374
0.000128527
0.0346711
0.0342898
0.000110693
0.0637665
0.0415445
0.00010604
0.000846196
0.000103754
0.0144601
0.00198779
0.000114181
0.000126552
0.000134996
0.000146292
0.0166787
0.000119884
0.000120748
0.000103136
0.0796756
0.00118399
0.000102304
9.68936e-05
0.056703
0.000116512
0.0231926
0.000110995
0.000111411
0.000111974
0.000146453
0.000121643
0.000892556
0.000106755
0.0435403
0.000107389
0.00010469
0.00679637
0.0299096
0.000113055
0.0768834
9.69572e-05
0.000114998
0.000126867
0.00227599
0.00348427
0.000335857
0.0707853
0.000127829
0.000231491
0.00134583
0.00583516
0.0222553
0.000122822
0.0275751
0.0216642
0.000182669
0.0222549
0.000112959
0.000162881
0.0800805
9.40938e-05
0.000110181
0.0120375
0.0176433
0.000116934
0.000159035
0.0182849
0.000113191
0.0230007
0.0242948
0.0215756
0.00461941
0.000112238
0.0107701
0.000104856
0.000113095
0.00258351
0.00014658
0.000164992
0.000107663
0.000105841
0.000109764
0.000120779
0.000117037
0.000110301
0.000110277
0.000119228
9.81371e-05
0.000120208
0.00264562
0.0339187
0.000111156
9.34917e-05
0.00013833
0.0220836
0.000101098
9.75985e-05
0.00010559
0.0112461
9.26593e-05
0.0396441
9.74848e-05
0.000145457
0.000112396
0.00013947
0.000219467
0.000101433
0.000181075
0.000100971
0.041985
0.0312417
0.000131892
0.00013381
9.81916e-05
0.0397071
0.0120106
0.0243048
0.000298939
0.000770706
0.000108371
0.000110473
0.00198523
0.00714353
0.0190074
0.000153908
0.0276174
0.000112653
0.00139435
0.000109382
0.00124688
0.000160323
0.0718519
0.000112809
0.000133727
0.000124968
0.000727766
0.0440929
0.000100644
0.0378562
0.0850526
0.0252408
0.00638187
0.000109143
0.000109094
0.000135757
0.0163126
0.000100672
0.000183583
0.0172325
0.000122105
9.93221e-05
0.000112039
0.00010035
0.00920227
0.000111764
0.000109229
0.00858344
0.000123259
0.000103565
0.000145997
0.000100686
0.000364646
0.000119238
0.000153454
0.000105109
0.000326609
0.000119124
0.000112475
0.00140287
0.00106212
0.0690294
0.0176792
0.0130973
0.0577857
0.000136339
0.0121969
0.000244338
0.0290696
0.00237365
0.00010609
0.00018066
9.83111e-05
0.000111026
9.81309e-05
0.0204652
0.000353264
0.000117835
0.0218532
9.72686e-05
0.0311211
0.00010757
0.000142194
0.000113324
0.0398433
0.0264794
0.0210372
0.00011175
0.000111414
0.000104703
9.59961e-05
0.0179638
0.000603043
0.00011036
0.000116253
0.000348442
0.000176654
9.63437e-05
0.0809407
0.0288673
0.000114511
0.0223372
0.000138731
0.0398041
0.0001121
0.000164564
0.0632283
0.000265005
0.000112973
0.00237926
0.000147833
9.40983e-05
0.0001306
0.00013162
0.00101868
0.0376917
0.000102733
0.0263952
0.0338749
0.000266378