/*--------------------------------*- C++ -*----------------------------------*\
| =========                 |                                                 |
| \\      /  F ield         | OpenFOAM: The Open Source CFD Toolbox           |
|  \\    /   O peration     | Version:  v2012                                 |
|   \\  /    A nd           | Website:  www.openfoam.com                      |
|    \\/     M anipulation  |                                                 |
\*---------------------------------------------------------------------------*/
FoamFile
{
    version     2.0;
    format      ascii;
    class       volVectorField;
    location    "400";
    object      U;
}
// * * * * * * * * * * * * * * * * * * * * * * * * * * * * * * * * * * * * * //

dimensions      [0 1 -1 0 0 0 0];


internalField   nonuniform List<vector> 
14479
(
(1.17847 -0.156099 0)
(1.0481 -0.221603 -1.47898e-20)
(1.08326 -0.123208 -2.48906e-20)
(-0.213092 -0.0423382 7.70633e-21)
(0.955001 -0.473513 0)
(-0.253067 -0.0469313 1.05478e-20)
(0.99999 -0.00426291 -3.63029e-21)
(1.03217 -0.00531946 -2.08011e-20)
(1.02786 -0.0592083 0)
(-0.17685 -0.0300872 0)
(0.956848 -0.416579 2.11649e-21)
(-0.217168 -0.0427725 3.62427e-20)
(-0.238281 -0.0434218 -1.40963e-19)
(-0.241302 -0.0427555 1.49056e-19)
(-0.181521 -0.041115 0)
(-0.0485446 -0.0411861 -6.71975e-20)
(1.32836 -0.173402 7.38997e-20)
(0.422131 0.0774369 2.33234e-21)
(0.278293 -0.0200842 -2.10218e-19)
(1.25836 -0.00795919 8.85743e-20)
(1.01233 -0.0208511 0)
(1.03059 -0.0988147 5.25475e-21)
(-0.0713212 -0.0351988 3.92633e-20)
(1.28155 -0.206548 1.00556e-19)
(1.02725 -0.0605794 4.88015e-21)
(0.742023 0.100287 5.35122e-20)
(0.92676 -0.298655 -3.44466e-20)
(-0.175956 -0.0301954 3.59556e-20)
(1.29954 -0.322012 2.35587e-20)
(-0.17552 -0.040707 1.53368e-20)
(0.519904 0.0675859 4.14898e-21)
(-0.242598 -0.0450076 0)
(0.245655 -0.0168215 2.5073e-19)
(1.03443 -0.0115944 2.78553e-20)
(1.08416 -0.0443464 0)
(1.05369 -0.00078538 5.70267e-21)
(0.993537 -0.0187826 5.60306e-21)
(-0.0899856 -0.0327504 1.17954e-21)
(1.0694 -0.128721 7.13528e-22)
(0.868522 0.282092 0)
(-0.170987 -0.0407985 1.30473e-19)
(1.06708 -0.125937 0)
(0.869669 -0.0809349 3.15617e-20)
(1.10886 -0.0793564 0)
(0.00225164 -0.055166 4.25705e-20)
(1.24375 -0.103447 0)
(-0.147882 -0.0280086 0)
(-0.27478 -0.0477474 -8.53919e-20)
(1.07793 -0.0631319 2.22666e-20)
(0.726112 0.144321 -1.19271e-19)
(1.01491 -0.0337194 0)
(0.590437 -0.0233187 -8.75177e-20)
(1.13198 -0.440886 0)
(1.25993 -0.170246 -7.23731e-20)
(1.07783 -0.061133 -2.48404e-20)
(0.982844 -0.0445153 2.74526e-22)
(1.15497 -0.278353 -8.26549e-20)
(-0.180632 -0.0370044 0)
(1.05358 -0.000618877 0)
(1.26745 -0.129348 0)
(1.07662 -0.128245 -4.69715e-21)
(1.06063 -0.0332957 0)
(0.390141 -0.151963 1.14617e-19)
(1.23317 -0.246508 3.90193e-20)
(1.30429 0.00217118 -1.27438e-19)
(-0.256478 -0.0468211 0)
(1.15645 -0.0943107 0)
(0.886875 -0.0839243 -4.01278e-20)
(0.476437 -0.0808958 6.86952e-20)
(0.76122 -0.0516079 0)
(-0.258724 -0.0435503 -1.43088e-19)
(1.26877 -0.014232 0)
(-0.0482953 -0.0304355 1.91729e-19)
(0.286346 -0.0944775 -7.94466e-20)
(1.01137 -0.0204237 0)
(1.02561 -0.0604641 -6.11654e-21)
(-0.259232 -0.0442413 9.5617e-20)
(-0.206888 -0.0420232 -3.85448e-20)
(0.169271 -0.0152035 1.65033e-19)
(-0.261534 -0.0444898 1.10111e-19)
(0.541199 -0.161317 0)
(1.002 -0.00262768 2.00099e-21)
(1.1627 -0.046863 -2.67728e-20)
(1.26655 -0.0109692 0)
(1.09385 -0.00848129 3.2372e-20)
(1.23859 -0.101121 0)
(1.2835 0.0104824 -9.31597e-20)
(1.00725 -0.0315099 -2.2161e-21)
(-0.261945 -0.0446415 -1.08173e-19)
(1.01486 -0.0470729 2.89094e-22)
(-0.216028 -0.0388528 3.85252e-20)
(-0.252769 -0.046441 2.51849e-20)
(-0.26858 -0.0490754 0)
(-0.118751 -0.0370089 5.817e-20)
(1.16588 -0.0243002 5.19732e-20)
(0.250982 -0.0193576 6.79237e-20)
(1.09026 -0.0242387 1.48831e-20)
(-0.223506 -0.0400111 -6.26075e-20)
(1.14826 -0.0485118 0)
(-0.101715 -0.0245509 -3.20296e-20)
(0.578497 0.0749141 0)
(-0.16951 -0.0358017 0)
(1.26908 -0.134295 0)
(1.02015 -0.00399069 0)
(1.15131 -0.0501983 5.37482e-20)
(1.0517 -0.00109577 1.79777e-20)
(1.27826 0.00701578 1.01445e-19)
(-0.0329746 -0.0307417 -1.57356e-19)
(1.15803 -0.286384 -3.09974e-21)
(-0.177689 -0.0408981 -2.09533e-19)
(1.14191 -0.0650574 1.80672e-20)
(1.08631 -0.0649831 0)
(0.788143 0.113614 8.45107e-21)
(1.26463 -0.168447 9.16463e-20)
(0.933677 -0.293048 0)
(0.947593 -0.10586 -5.53042e-20)
(1.02417 -0.0593227 0)
(0.415564 -0.134306 1.56536e-19)
(0.937306 -0.0533581 1.09693e-21)
(1.2745 0.0066781 -8.87652e-20)
(1.08251 -0.0424676 1.32949e-20)
(1.00451 -0.0177434 0)
(-0.23811 -0.0447988 0)
(1.10688 -0.13292 -1.93389e-20)
(-0.169963 -0.0384452 4.88288e-20)
(1.06307 -0.0114027 2.51729e-20)
(1.12754 -0.0378332 3.13663e-20)
(0.975902 -0.0326721 3.03881e-20)
(1.06114 -0.00840681 0)
(-0.18495 -0.0378502 0)
(1.07046 -0.0147591 1.88984e-20)
(1.29977 -0.12284 -1.37323e-19)
(0.341278 -0.109143 0)
(1.06365 -0.0134159 -3.17664e-20)
(1.25156 -0.078301 -8.22983e-20)
(1.1215 -0.331952 -3.79247e-21)
(0.688382 -0.562853 1.80027e-20)
(0.965359 -0.0456833 5.19223e-21)
(0.606665 -0.0242017 -1.40535e-22)
(-0.212795 -0.0422158 -1.31121e-19)
(1.07121 -0.0379681 3.36594e-20)
(-0.251381 -0.045215 -9.45743e-20)
(1.11224 -0.0805528 0)
(0.658893 0.354806 2.98887e-20)
(1.22692 -0.242814 6.94511e-20)
(1.09167 -0.00759464 -5.3098e-20)
(-0.0285153 -0.0278782 0)
(1.0514 -0.0516123 1.75735e-20)
(1.16386 -0.153078 0)
(1.04379 -0.0972465 -1.9676e-21)
(0.229317 -0.019293 -1.29257e-19)
(1.08585 -0.12112 2.7485e-20)
(1.01289 -0.0221064 1.07963e-21)
(1.29481 -0.185398 -5.2472e-20)
(1.32165 -0.171448 0)
(1.17569 0.00553577 1.37519e-20)
(-0.189196 -0.0298725 4.07516e-20)
(0.999935 -0.00277288 -2.34203e-20)
(0.49209 0.0117261 -6.26275e-20)
(0.195762 -0.0157275 -9.91197e-20)
(-0.184863 -0.0287508 -1.28166e-19)
(0.416932 -0.0442313 -1.11141e-19)
(0.205665 -0.0157369 -7.66443e-20)
(1.28095 0.00695717 1.1507e-19)
(-0.0752861 -0.0256884 8.19062e-20)
(-0.271671 -0.0462154 7.29676e-20)
(1.06545 -0.00422743 1.6104e-20)
(0.724035 0.0995154 0)
(1.01419 -0.0339431 0)
(1.09176 -0.0255322 1.39248e-20)
(1.07579 -0.0154978 -4.37365e-20)
(1.2378 -0.0966776 0)
(0.983386 -0.0424468 1.88834e-20)
(1.27255 0.00204823 1.15335e-19)
(0.995452 -0.0453016 1.19571e-20)
(1.07745 -0.463359 -2.62998e-20)
(1.00525 -0.0292043 5.87564e-22)
(1.10012 -0.0249735 -1.20248e-20)
(0.904164 -0.401564 0)
(0.987919 -0.0903269 1.41774e-20)
(0.678782 -0.603397 8.99836e-21)
(1.01077 -0.0192526 0)
(0.940683 -0.0540435 0)
(-0.266499 -0.0486907 -4.29999e-20)
(1.0064 -0.0218378 0)
(1.05334 -0.323637 -2.24876e-20)
(0.875049 -0.0799465 -2.74425e-20)
(0.896817 -0.0533464 2.61174e-20)
(0.757327 -0.549991 4.27194e-20)
(0.703126 0.375397 -5.25307e-20)
(1.00468 -0.0202157 -1.32628e-21)
(-0.02266 -0.0165944 2.61641e-20)
(1.15049 -0.0616792 0)
(0.99998 -0.00311485 7.4674e-21)
(-0.251165 -0.044825 -2.38971e-19)
(0.179419 -0.0161346 1.10179e-19)
(0.731037 -0.540489 -4.60175e-20)
(0.152791 0.00229044 9.04919e-20)
(1.12713 -0.125467 -6.12123e-21)
(0.995843 -0.0439799 -1.11104e-20)
(0.946305 -0.101147 4.36535e-20)
(1.32243 -0.125905 -1.15451e-19)
(0.926679 -0.0568992 -5.10281e-20)
(1.22779 -0.347941 3.51943e-20)
(-0.250312 -0.0455743 1.83912e-19)
(0.946268 -0.0901957 1.62715e-20)
(0.9677 -0.0453468 0)
(1.27551 -0.0178155 -1.10729e-19)
(1.10015 -0.02305 0)
(1.05932 -0.332698 2.49481e-20)
(-0.102282 -0.0326379 7.32916e-20)
(-0.0560119 -0.0117561 0)
(0.970342 -0.0882442 0)
(0.88826 -0.0784297 5.51164e-20)
(1.01757 -0.0338095 -5.17891e-21)
(1.27943 -0.12538 7.97302e-20)
(-0.100175 -0.0223511 -1.40914e-20)
(-0.202455 -0.039457 0)
(0.993661 -0.0176193 0)
(1.15735 -0.158632 6.01685e-20)
(0.837532 -0.558392 0)
(-0.202583 -0.0433378 -1.10046e-20)
(0.0333684 -0.0131633 0)
(1.17342 -0.0470657 -6.4269e-20)
(0.263556 -0.466612 7.56168e-20)
(-0.219075 -0.0432373 0)
(1.03748 -0.103601 -1.32923e-21)
(1.08359 -0.0637297 0)
(0.787158 0.164712 0)
(1.00666 -0.0303517 2.05564e-21)
(0.959064 -0.0671071 -2.37722e-20)
(1.00044 -0.00484965 -7.84592e-22)
(1.04051 -0.194406 0)
(-0.236035 -0.043552 -2.71285e-20)
(0.90112 -0.0433704 -4.86685e-20)
(0.945098 -0.093109 2.24229e-20)
(1.16081 -0.272131 -2.07689e-21)
(0.214915 -0.415975 -1.08228e-21)
(0.993322 -0.0159976 -1.20436e-20)
(1.02955 -0.0780688 -5.15064e-21)
(-0.214981 -0.0425271 -5.92244e-20)
(1.27452 -0.114327 4.00913e-20)
(1.14694 -0.0620125 -2.44926e-20)
(0.742003 0.118881 -1.18322e-19)
(-0.0666059 -0.0148267 2.45993e-20)
(-0.0862357 -0.0313121 -6.74371e-20)
(1.0655 -0.03465 0)
(1.01527 -0.049076 0)
(0.384488 0.0481203 7.48984e-21)
(-0.260119 -0.0458543 -1.27577e-19)
(1.03113 -0.00454845 2.08093e-20)
(1.27111 -0.0923179 3.01901e-20)
(1.01276 -0.00180008 -3.52383e-22)
(1.06183 -0.0103953 -1.38883e-20)
(-0.26323 -0.0461229 1.07182e-19)
(1.29993 -0.176684 -2.64521e-20)
(0.994418 -0.0232462 1.1064e-20)
(1.29979 -0.32661 8.61168e-20)
(0.727706 0.0919101 0)
(1.28612 -0.20339 -1.13588e-19)
(0.624263 -0.174304 -4.14551e-20)
(0.54039 -0.064123 2.6704e-20)
(-0.249221 -0.0445979 2.36726e-19)
(1.25332 -0.0823836 1.01768e-19)
(1.00194 -0.0263251 0)
(1.05661 -0.203103 2.17374e-20)
(1.0014 -0.0257549 0)
(0.0196302 -0.0148721 4.90967e-20)
(-0.156273 -0.0376751 -1.55281e-19)
(0.424887 -0.0751521 6.95178e-20)
(-0.00704359 -0.0258996 0)
(0.974279 -0.0328244 -3.92936e-20)
(-0.277522 -0.0496858 0)
(0.95412 -0.0257532 0)
(0.990973 -0.0917181 5.08396e-21)
(-0.282743 -0.0493581 2.71312e-20)
(-0.0258881 -0.0312072 2.20642e-20)
(1.08222 -0.0389157 -1.51723e-20)
(-0.24945 -0.0467752 1.26369e-19)
(-0.146623 -0.0377328 -1.21402e-23)
(-0.280613 -0.0498877 -2.3885e-20)
(-0.250149 -0.0469166 0)
(-0.17424 -0.0270823 0)
(0.593443 -0.17597 0)
(1.00155 -0.00915193 -2.59089e-22)
(0.994094 -0.0152311 -1.17536e-20)
(0.0923644 -0.0157541 -1.15932e-19)
(0.954571 -0.0273428 2.72785e-20)
(-0.0618264 -0.0357046 -7.87669e-20)
(-0.250842 -0.0449609 -1.72581e-19)
(0.882633 0.131847 -1.52483e-20)
(0.666358 0.111065 1.18479e-20)
(1.11398 -0.327607 -5.01433e-23)
(-0.255185 -0.0459891 -4.59057e-20)
(0.985105 -0.0418805 0)
(1.16275 -0.158204 2.64628e-20)
(1.00151 -0.0613561 0)
(0.714202 -0.0241319 -2.86522e-20)
(1.06681 -0.00481838 6.49565e-23)
(0.986909 -0.188382 1.01044e-20)
(1.01648 -0.0332918 4.4323e-21)
(-0.231954 -0.0455311 -1.72132e-19)
(1.06542 -0.0315339 4.67653e-23)
(1.2043 -0.0344008 -1.01362e-19)
(1.15585 -0.163006 -8.60011e-20)
(-0.225837 -0.0417321 -5.46525e-20)
(0.459768 0.00407242 -6.8219e-20)
(1.22724 -0.341401 0)
(1.11145 -0.0413535 -2.36533e-20)
(1.12538 -0.0334149 1.57378e-20)
(-0.197822 -0.0424325 0)
(0.93783 -0.413881 0)
(1.10295 -0.397899 3.23306e-21)
(1.05291 -0.0555995 -1.64923e-20)
(1.03173 -0.079372 7.67975e-22)
(0.999795 -0.00374178 6.53313e-21)
(-0.21695 -0.0425584 7.78146e-20)
(1.03121 -0.277488 0)
(1.00524 -0.0280319 1.0879e-21)
(1.01855 -0.00263187 -1.45516e-20)
(0.969823 -0.0911316 0)
(0.992978 -0.0131336 1.5534e-20)
(0.960728 -0.0697264 2.71111e-20)
(-0.28569 -0.0495511 0)
(1.31554 -0.150588 0)
(0.626335 0.103565 6.83732e-22)
(0.296414 -0.0216834 0)
(0.948004 -0.45344 0)
(-0.244956 -0.0469846 0)
(1.03728 -0.0443424 4.50786e-21)
(1.17931 0.00470082 0)
(1.20911 -0.0203746 0)
(0.175354 0.00252664 -4.11665e-20)
(-0.233837 -0.0434052 9.36801e-20)
(1.32191 -0.148623 3.02434e-20)
(1.02271 -0.00229736 0)
(0.99443 -0.167401 0)
(1.26908 -0.160531 5.41878e-21)
(0.87751 0.273153 3.20241e-20)
(1.18837 -0.181686 -1.76375e-20)
(0.290608 -0.0244721 0)
(1.15313 -0.0953518 0)
(-0.251657 -0.0451861 1.18771e-19)
(1.03326 -0.0118026 0)
(-0.149954 -0.0371035 9.59144e-20)
(1.06844 -0.00619367 -1.01967e-20)
(-0.251844 -0.0464072 0)
(-0.0103797 -0.0149395 9.54403e-20)
(1.06895 -0.00711114 2.22421e-20)
(1.19424 -0.179757 -3.7297e-20)
(-0.127171 -0.0374326 -6.39427e-20)
(-0.253188 -0.0474625 0)
(1.07586 -0.12483 -6.17735e-21)
(1.01415 -0.0365541 0)
(-0.281313 -0.0497466 0)
(1.00744 -0.0169342 -2.15599e-21)
(1.05146 -0.0345583 1.55506e-20)
(-0.203816 -0.0426048 -8.7402e-20)
(1.12723 -0.0401738 0)
(1.01826 -0.0586136 3.65601e-22)
(1.02121 -0.0589667 4.70253e-22)
(-0.113797 -0.0340643 0)
(-0.242666 -0.0457499 -1.22505e-19)
(1.0227 -0.0603044 0)
(-0.252896 -0.0469698 -8.32437e-20)
(1.16518 -0.0562922 0)
(0.696866 -0.0661568 -3.72645e-20)
(-0.232675 -0.0426222 5.40868e-20)
(-0.248878 -0.0471053 -2.86498e-20)
(0.24591 -0.0478771 1.1971e-19)
(1.29117 -0.076679 0)
(0.117041 -0.0261421 9.15842e-21)
(1.24542 -0.0739201 8.9543e-20)
(0.751399 -0.891462 0)
(0.0875915 -0.0614729 2.0394e-19)
(0.65129 -0.0787301 2.56043e-20)
(1.26124 -0.0114166 -8.9879e-20)
(0.830165 -0.236677 -2.91386e-20)
(1.25974 -0.296222 4.62033e-20)
(0.999957 -0.0616883 1.00477e-20)
(1.05168 -0.0501078 0)
(1.16873 -0.0257026 -2.02073e-20)
(0.962413 -0.43704 -2.10294e-21)
(0.700188 -0.0159758 0)
(0.0948933 -0.0270519 0)
(1.22269 -0.229891 -4.92971e-20)
(1.00678 -0.0143694 5.72331e-22)
(1.278 -0.237953 -7.46264e-20)
(0.990326 -0.0153056 -1.47476e-20)
(1.2833 -0.111878 9.50741e-21)
(1.20053 -0.171944 1.18518e-20)
(1.18068 -0.0558574 3.4785e-20)
(0.969473 0.176026 -5.25289e-21)
(-0.221879 -0.0410589 -8.5597e-20)
(0.812482 -0.0460132 -1.65286e-19)
(-0.0351003 -0.00932297 9.54629e-20)
(0.708709 -0.683629 -9.53698e-21)
(0.457877 -1.13911 0)
(1.03586 -0.0443666 -4.10947e-21)
(1.00187 -0.00626193 1.47028e-21)
(0.487382 -0.0547897 1.07119e-19)
(-0.280131 -0.0499961 -1.23574e-20)
(-0.156536 -0.037868 9.0257e-20)
(1.15137 -0.11692 2.63593e-20)
(-0.0715562 -0.0417675 -2.38973e-19)
(1.1228 -0.0318138 -2.90056e-20)
(-0.201732 -0.0391788 -1.16485e-19)
(-0.235658 -0.0459847 1.33794e-19)
(0.740724 0.151528 0)
(1.05054 -0.0336568 0)
(-0.177025 -0.0306306 0)
(-0.257725 -0.0429983 5.29737e-20)
(1.00658 -0.023085 2.93328e-22)
(1.0022 -0.00701045 -1.00129e-21)
(0.0766062 0.264544 1.54002e-19)
(1.02964 -0.0101642 -1.17774e-20)
(0.997392 0.189944 1.10012e-20)
(1.12454 -0.452022 0)
(1.00166 -0.00261112 -1.98369e-21)
(1.08447 -0.176964 4.78658e-21)
(1.10157 -0.126241 -3.09178e-20)
(1.04147 -0.223825 1.57506e-20)
(0.860533 -0.0162333 8.12382e-20)
(1.28036 -0.0823587 -6.84609e-20)
(0.256871 -0.0199223 0)
(1.03709 -0.209525 4.42353e-21)
(-0.198347 -0.0425783 8.22562e-20)
(1.01154 -0.0249774 7.50103e-22)
(0.998152 -0.163752 -6.85763e-21)
(1.00915 0.300821 1.2684e-21)
(0.624427 -0.236939 0)
(1.22806 -0.235229 -9.16225e-20)
(-0.191316 -0.0331367 6.90113e-21)
(1.07724 -0.0823492 3.46773e-20)
(1.04312 -0.207765 -2.50965e-21)
(-0.0403282 -0.0224498 0)
(1.20224 -0.0321407 1.1475e-19)
(-0.0406478 -0.00424728 0)
(0.62172 0.101512 -7.78819e-22)
(1.28469 -0.228138 -1.04054e-19)
(-0.278079 -0.0497296 -5.23919e-20)
(-0.17019 -0.0302777 0)
(-0.233074 -0.0429158 0)
(1.01183 -0.0242345 -6.77844e-22)
(1.26507 -0.161674 0)
(1.12879 -0.122138 0)
(0.760988 0.136786 -4.31822e-20)
(-0.149425 -0.0369205 -7.85063e-20)
(1.1397 -0.0621412 -2.38845e-20)
(1.08884 -0.0993483 -1.34887e-20)
(0.994636 -0.0109374 0)
(0.669091 -0.701735 9.10625e-21)
(1.27671 -0.105872 8.73195e-20)
(1.27169 -0.111918 -1.76851e-20)
(1.00001 -0.00122827 -4.41287e-21)
(1.28982 -0.187568 3.03921e-20)
(1.06117 -0.0348052 0)
(1.27321 -0.0961623 0)
(0.180625 -0.0492211 1.61865e-19)
(-0.176478 -0.0392659 0)
(1.14701 -0.0134741 -2.15403e-20)
(0.977481 -0.0383349 7.1543e-21)
(0.561878 0.00412708 -6.83356e-20)
(1.11389 -0.404162 -1.91227e-20)
(0.806929 -0.0180081 -3.00461e-20)
(-0.220038 -0.0415276 9.27732e-20)
(1.09742 -0.124789 0)
(-0.0440269 -0.0311425 0)
(-0.235553 -0.0436908 -2.58702e-20)
(1.06223 -0.00930005 -1.89495e-22)
(1.05171 -0.0015038 -2.91856e-20)
(1.01196 -0.00221153 -2.89876e-21)
(-0.227637 -0.0426809 0)
(0.0497217 -0.0229186 8.89375e-20)
(-0.251941 -0.0455785 1.45051e-19)
(0.29051 -0.458763 -1.89682e-19)
(-0.193209 -0.0408747 2.63891e-20)
(-0.221544 -0.04099 0)
(0.840977 -0.235771 2.92678e-20)
(1.29091 -0.226181 1.19617e-19)
(1.04111 -0.0974115 0)
(-0.0492364 -0.0349937 9.36652e-20)
(1.22401 -0.00392965 3.66066e-20)
(0.616209 -0.383365 -1.48758e-19)
(1.11884 -0.0493616 -4.33524e-20)
(0.753164 0.145946 0)
(1.04758 -0.0351955 5.68838e-21)
(0.411211 -0.0698552 -7.35236e-20)
(0.758635 0.441757 2.47418e-20)
(-0.0563759 -0.0131931 0)
(0.14028 -0.0526641 9.66896e-20)
(1.00193 -0.0132448 -3.94714e-21)
(1.02865 -0.0105348 0)
(-0.110294 -0.0252515 -3.36958e-20)
(-0.208336 -0.0382623 -5.45616e-20)
(1.07147 -0.0347446 1.14414e-20)
(1.17974 -0.152073 -1.74037e-20)
(-0.213472 -0.0422072 6.621e-20)
(1.30266 -0.0725972 4.9364e-20)
(1.13086 -0.0854455 -4.96391e-20)
(0.90085 -0.0540772 1.5726e-21)
(1.30474 -0.0755552 -3.35526e-21)
(1.11853 -0.119384 -2.02501e-20)
(0.985486 -0.0397744 -1.77788e-20)
(-0.224641 -0.0427487 -6.94644e-20)
(-0.282277 -0.0489761 0)
(0.239564 -0.0181851 -1.27045e-19)
(1.17977 -0.0591218 0)
(1.08368 -0.0406999 3.1496e-20)
(-0.211405 -0.0421736 6.03114e-20)
(1.04502 -0.199719 -9.2497e-21)
(1.2408 -0.0726906 0)
(1.16591 -0.0210634 0)
(-0.271596 -0.0489117 1.06655e-19)
(1.0529 -0.026256 1.04398e-20)
(1.00474 -0.0188882 -3.90091e-22)
(1.0017 -0.0101015 -5.20686e-23)
(1.00176 -0.0316488 -1.39283e-21)
(-0.274013 -0.0468558 -2.55975e-20)
(1.22445 -0.273354 0)
(0.408855 0.00367233 -9.16775e-20)
(-0.191466 -0.0405147 0)
(0.494847 0.00388893 1.48457e-19)
(-0.056586 -0.0409447 2.46336e-19)
(-0.0662331 -0.0136027 0)
(-0.0442315 -0.0234142 0)
(1.07127 -0.0184996 9.45042e-21)
(1.146 -0.0110765 0)
(0.802607 -0.0572272 4.67346e-20)
(-0.19646 -0.0412413 -1.30388e-19)
(0.995245 -0.0144976 0)
(1.23138 -0.27141 0)
(0.891352 -0.0268217 4.83087e-20)
(0.14703 -0.0479753 -1.79627e-19)
(1.20385 -0.0372038 -4.48607e-20)
(1.26044 -0.00374368 0)
(1.09674 -0.441632 -3.57242e-20)
(-0.273325 -0.0484449 2.44397e-19)
(1.00443 0.290381 0)
(0.14926 -0.0336054 1.44853e-19)
(-0.253651 -0.0448202 -1.11291e-19)
(0.0470072 -0.0343532 -1.79024e-19)
(1.18494 -0.00974063 -2.20659e-20)
(-0.273227 -0.0464875 -2.11223e-20)
(1.0534 -0.0539342 1.06314e-22)
(0.989748 -0.0148544 -1.70358e-20)
(0.314065 -0.0245417 0)
(0.99401 -0.011442 -2.85812e-20)
(1.07979 -0.082297 0)
(1.18595 -0.0075411 4.3741e-20)
(1.17919 -0.0699057 -8.10551e-20)
(1.09094 -0.473887 2.29944e-20)
(1.04344 -0.0192357 1.7459e-20)
(0.989918 -0.0164194 3.26634e-20)
(1.3013 -0.316795 -2.55919e-20)
(1.00229 -0.0588077 8.16968e-21)
(-0.283758 -0.0503746 -4.81265e-20)
(-0.225191 -0.0418914 1.31809e-19)
(-0.214958 -0.0424961 1.5091e-19)
(-0.222689 -0.0415098 -9.14589e-20)
(1.05464 -0.209834 -2.10875e-20)
(-0.182634 -0.0404873 1.04445e-19)
(0.860053 -0.0132189 2.18733e-20)
(-0.0590739 -0.00659141 0)
(1.06434 -0.0328533 2.40005e-20)
(1.29382 -0.178422 5.01329e-20)
(0.855512 -0.252657 -1.20996e-20)
(1.05129 -0.025618 -1.55084e-20)
(1.07244 -0.0370568 -1.32972e-20)
(1.14554 -0.0651448 -2.61612e-20)
(0.858954 -0.0195178 0)
(1.04476 -0.0198506 -2.9407e-20)
(-0.10568 -0.012641 -4.7736e-20)
(0.102941 0.218082 3.51097e-21)
(1.11419 -0.117559 6.59485e-20)
(-0.227372 -0.0434035 7.11407e-20)
(1.32336 0.0160766 4.15214e-20)
(1.07322 -0.0106989 0)
(0.929674 -0.146722 7.14851e-20)
(1.27032 -0.194878 5.91427e-22)
(-0.231889 -0.0432829 0)
(1.07436 -0.0130364 -4.14768e-20)
(1.1211 -0.232537 0)
(1.14059 -0.0214623 -1.83144e-20)
(0.0493515 -0.0346444 -9.49046e-20)
(1.06203 -0.0322621 -1.47587e-20)
(1.04618 -0.0179365 -1.91166e-20)
(-0.00884049 -0.0162034 0)
(-0.249257 -0.0473362 0)
(-0.272221 -0.046096 -2.2171e-20)
(0.728251 0.075424 -1.77699e-20)
(1.00171 -0.00663287 0)
(0.99898 -0.037878 0)
(0.63077 -0.111653 -6.34313e-20)
(-0.247015 -0.0426207 0)
(0.961503 -0.0518984 0)
(1.02197 -0.00982127 -4.63737e-21)
(0.994625 -0.0154111 0)
(0.971558 -0.113592 2.74305e-20)
(0.978508 -0.0363277 -2.03628e-20)
(0.128021 -0.0169714 0)
(1.00256 -0.026533 -7.20194e-21)
(0.509911 -0.930935 -3.5574e-21)
(0.336136 0.00104009 3.88905e-20)
(0.416405 -0.167877 -5.61824e-20)
(1.06253 -0.0124845 1.45248e-20)
(-0.243267 -0.0432091 5.41155e-20)
(-0.177323 -0.0399545 -8.06434e-20)
(0.955672 -0.0618892 2.87151e-20)
(1.11428 -0.285311 9.51691e-21)
(0.981503 -0.0652589 0)
(-0.214636 -0.0426225 1.1943e-19)
(1.08089 -0.238346 0)
(1.0121 -0.0341777 1.59563e-22)
(1.00454 -0.0266919 -5.10195e-21)
(0.999183 -0.0362644 -4.15603e-21)
(-0.246276 -0.0469 0)
(0.532885 -0.385503 -8.86137e-20)
(0.213475 -0.0157362 9.53852e-20)
(0.987032 -0.039163 -3.72613e-21)
(1.0469 -0.0192641 1.13848e-20)
(1.21029 -0.0236561 2.95937e-20)
(1.18197 0.00604715 -5.33499e-20)
(1.12768 -0.0851188 5.07157e-20)
(0.11093 -0.0175614 -5.45535e-20)
(-0.272914 -0.0459496 2.04619e-20)
(1.04931 -0.0363703 0)
(1.00898 -0.0239408 5.43543e-22)
(1.16212 -0.019689 7.92509e-20)
(-0.0222641 -0.0155107 -9.13667e-20)
(1.21683 -0.106398 8.03772e-20)
(1.16639 -0.0457946 0)
(1.00164 -0.00678449 -4.95988e-22)
(1.28907 -0.311932 6.31505e-20)
(1.06882 -0.234993 -9.80043e-22)
(1.00853 -0.0243827 2.41057e-22)
(1.04647 -0.0106522 0)
(1.31774 0.0134437 -7.20788e-20)
(1.07463 -0.343386 -4.16896e-21)
(0.99434 -0.0222443 7.02417e-21)
(0.740698 -0.230187 0)
(1.30094 -0.189255 0)
(1.00776 -0.0235464 -2.66342e-22)
(0.75695 -0.056384 0)
(-0.273122 -0.0487323 -2.15331e-19)
(1.07369 -0.00986578 1.20294e-20)
(0.981893 -0.121664 -9.56222e-21)
(1.00625 -0.0728504 0)
(1.1706 -0.0410618 3.06606e-20)
(0.0282689 -0.0350435 1.30607e-20)
(0.20445 -0.0558767 1.64079e-19)
(1.28166 0.013351 -7.02319e-20)
(1.00966 -0.0246539 3.90329e-22)
(-0.218547 -0.043005 -6.56357e-20)
(-0.260867 -0.043936 6.74611e-20)
(0.554678 -0.150937 7.75273e-20)
(0.0204453 -0.0244694 -1.81375e-20)
(1.02702 -0.269346 0)
(0.982995 -0.0212644 1.69952e-20)
(1.12326 -0.0291824 0)
(0.643073 0.10869 -1.14399e-20)
(1.02138 -0.00400245 8.41234e-21)
(1.07279 -0.0341002 1.3867e-20)
(-0.0419174 -0.0224539 2.79973e-20)
(-0.0893714 -0.0362757 -5.39145e-20)
(1.11343 -0.0432577 2.86512e-20)
(1.00441 -0.0733038 0)
(0.664779 -0.542135 -2.95369e-21)
(0.212865 -0.0244676 0)
(1.00937 -0.0175127 2.22538e-21)
(1.02125 -0.00891453 0)
(1.04789 -0.151202 0)
(-0.240525 -0.0454691 9.91307e-20)
(-0.180847 -0.0408107 0)
(0.860976 -0.838996 3.7652e-20)
(0.656325 0.313596 9.12055e-20)
(0.0176893 -0.0243914 -1.8931e-20)
(0.868545 -0.144616 0)
(-0.268455 -0.0487061 2.49943e-20)
(1.22249 -0.0074006 3.808e-20)
(1.03382 -0.0427139 4.18004e-21)
(1.14352 -0.0204775 -5.47148e-21)
(-0.260186 -0.0460217 0)
(1.01195 -0.0333037 -1.62526e-22)
(-0.262966 -0.046372 0)
(1.10964 -0.130212 0)
(-0.135125 -0.0366991 -4.0087e-20)
(-0.279031 -0.0478279 0)
(0.853476 -0.24346 3.52125e-20)
(0.859926 -0.0604288 -8.72852e-20)
(0.983538 -0.0650067 0)
(1.07679 -0.234006 0)
(0.117935 -0.0136665 -4.88485e-20)
(1.32203 0.0239474 0)
(-0.197569 -0.0330084 -7.12555e-21)
(0.280327 -0.0350237 0)
(0.0337547 -0.0237572 -1.6963e-20)
(0.238833 -0.0418251 -1.82284e-20)
(1.00762 -0.16203 -2.09076e-21)
(1.27534 -0.304396 7.04872e-20)
(-0.136399 -0.0365148 -4.56972e-20)
(-0.083826 -0.032214 -1.71287e-19)
(0.4599 0.0120479 -3.64874e-20)
(1.03565 -0.0316226 1.66919e-20)
(1.27533 -0.306979 0)
(0.272805 -0.0226078 0)
(1.28487 -0.236118 1.37873e-19)
(0.239781 -0.0243119 1.18822e-19)
(1.12063 -0.0275371 -1.37957e-20)
(0.924192 -0.284005 0)
(1.01326 -0.024098 -3.99335e-21)
(0.911181 -0.0660524 -5.42818e-22)
(-0.256584 -0.0419687 -9.75685e-20)
(-0.260547 -0.0454644 -8.11795e-20)
(-0.259684 -0.0444354 2.49398e-20)
(1.07404 -0.0296067 0)
(0.968788 -0.0478479 -1.71874e-20)
(-0.263269 -0.0461517 1.40515e-19)
(-0.246707 -0.0469969 5.43005e-20)
(1.28841 -0.0799825 0)
(0.760602 -0.577659 0)
(-0.254658 -0.0464147 3.16951e-20)
(0.970778 -0.110625 -1.24242e-20)
(0.123912 -0.0169802 0)
(1.02961 -0.0842941 2.18149e-20)
(0.939715 -0.0465605 -4.28934e-20)
(0.830724 0.121822 -3.64412e-21)
(-0.167966 -0.0308168 3.45256e-20)
(0.170223 -0.0328532 -3.59048e-22)
(1.02577 -0.0213173 6.69553e-21)
(1.03365 -0.0776025 0)
(-0.110631 -0.037561 0)
(1.00027 -0.00265813 1.67106e-22)
(1.03281 -0.0304198 -8.80579e-21)
(1.04551 -0.0101607 0)
(1.07226 -0.0145583 -2.00724e-20)
(0.766299 -0.221099 0)
(0.700021 -0.048811 -9.82485e-20)
(0.978227 -0.123496 -1.10467e-20)
(1.00531 -0.0211781 -1.29772e-21)
(1.01216 -0.0478004 0)
(1.05058 -0.024087 3.36877e-20)
(0.999993 -0.00233926 -1.47544e-20)
(1.00009 -0.00218199 1.22365e-21)
(0.938928 -0.0447615 -2.71819e-20)
(-0.0612182 -0.0404972 -1.32212e-20)
(1.32647 -0.0383417 1.76953e-21)
(-0.173484 -0.0409856 9.66516e-20)
(-0.18763 -0.0402442 -1.0579e-19)
(-0.217944 -0.0426286 -3.55088e-20)
(1.09904 -0.427617 3.47699e-20)
(1.04315 -0.187278 -1.72887e-21)
(1.01975 -0.0601896 -7.84377e-22)
(1.04968 -0.105447 0)
(0.752317 -0.219374 -8.34463e-20)
(-0.266192 -0.0482663 0)
(1.13193 -0.028349 6.84033e-20)
(-0.244376 -0.0468499 -1.0717e-19)
(0.815104 0.0117516 -6.84193e-20)
(1.14346 -0.0167904 4.13692e-20)
(1.27649 -0.322785 1.72195e-19)
(0.827277 0.0214231 9.22135e-20)
(-0.27531 -0.0491156 -2.50296e-20)
(-0.131135 -0.0360563 0)
(1.03129 -0.0406906 0)
(0.370613 -0.0586946 0)
(1.00636 -0.0246459 -1.71904e-21)
(-0.247937 -0.0471365 1.25238e-19)
(-0.262323 -0.0449225 1.40609e-20)
(1.28147 -0.107952 1.8517e-20)
(0.707064 0.153855 2.01991e-19)
(-0.25105 -0.0466048 0)
(-0.255515 -0.0468271 0)
(1.17329 -0.156913 0)
(1.01313 -0.0489613 1.16024e-21)
(-0.281218 -0.0506813 2.6812e-20)
(-0.0793756 -0.038682 2.84359e-20)
(-0.219492 -0.0426679 -1.55265e-19)
(0.941378 -0.0577168 -3.69421e-20)
(-0.260369 -0.0452822 -1.01997e-19)
(0.333817 -0.0390118 0)
(0.987406 -0.0373379 1.25165e-20)
(0.419421 0.0905732 0)
(1.3258 -0.0353702 2.45458e-20)
(1.02518 -0.0111196 3.4166e-21)
(1.06314 -0.230631 1.24053e-20)
(-0.198666 -0.041579 3.63517e-20)
(1.30363 -0.0654383 4.75719e-21)
(1.07911 -0.121458 -1.29529e-20)
(0.0338863 -0.0231366 3.3349e-20)
(1.00726 -0.0153833 0)
(0.678322 0.0887695 -1.47852e-20)
(-0.279622 -0.0503876 0)
(-0.113282 -0.0146281 0)
(0.468932 -0.0548643 0)
(0.884528 -0.805368 -4.8927e-20)
(-0.171897 -0.0410524 -3.79831e-20)
(1.31553 -0.179501 -5.43247e-20)
(0.90318 -0.52878 -5.02177e-21)
(1.24647 -0.246842 -5.17307e-20)
(0.216301 -0.0191544 9.65188e-20)
(0.752451 -0.189323 -4.82984e-20)
(1.23932 -0.0683608 0)
(1.26028 -0.135551 -3.26021e-20)
(1.06428 -0.0298136 -1.89041e-20)
(-0.209175 -0.0421899 2.25665e-20)
(0.856093 -0.0123906 0)
(1.02598 -0.010844 -2.03964e-22)
(-0.265035 -0.0480496 0)
(-0.0956348 -0.0384628 0)
(-0.171053 -0.0402184 -4.51959e-20)
(0.228361 -0.0230897 -1.2301e-19)
(1.03563 -0.0787307 0)
(1.05177 -0.197971 9.90368e-21)
(-0.254841 -0.0472975 -3.04711e-20)
(-0.104246 -0.0224327 5.40977e-20)
(0.757039 -0.308099 1.29875e-20)
(-0.219528 -0.0404842 1.34936e-20)
(1.1983 -0.133645 -7.52228e-20)
(0.424395 0.0498685 -1.06527e-20)
(0.913689 -0.0685566 -5.05587e-20)
(-0.253189 -0.048226 0)
(0.902912 -0.0381348 -7.9307e-20)
(-0.207279 -0.0289114 8.18255e-20)
(0.817666 0.0186431 1.11753e-21)
(-0.283923 -0.0491289 -1.01818e-19)
(1.28336 -0.0789706 0)
(0.944547 -0.0581797 3.46684e-20)
(1.13418 -0.229679 -3.48837e-21)
(1.03286 -0.0417648 -7.51324e-21)
(1.24794 -0.101389 -3.04019e-21)
(0.247585 -0.0315114 0)
(0.411768 -0.243465 -2.53482e-19)
(0.296865 -0.0314856 6.25555e-20)
(-0.174944 -0.0388362 -5.06943e-20)
(1.27656 -0.128135 -4.44554e-20)
(-0.0693832 -0.039574 -6.43725e-21)
(0.922482 -0.0790033 0)
(-0.0580255 -0.0195714 0)
(1.0179 -0.582094 -7.14961e-20)
(-0.280713 -0.0494737 4.67466e-20)
(1.07684 -0.00629767 2.40663e-20)
(0.875309 -0.140067 6.21006e-20)
(1.25716 -0.13847 6.72737e-20)
(-0.280392 -0.0494039 0)
(1.04411 -0.0941237 2.00959e-21)
(0.284745 -0.0397103 3.50889e-20)
(0.459183 0.110872 0)
(1.02399 -0.0105206 -1.73864e-20)
(1.20523 -0.175371 -6.55251e-20)
(0.937224 -0.0720659 1.59511e-19)
(1.28227 -0.0864968 -1.76646e-20)
(0.407732 -0.102679 -5.94862e-20)
(-0.221581 -0.0403325 0)
(-0.201152 -0.0417385 1.60139e-19)
(0.971025 -0.047491 4.15446e-20)
(-0.108868 -0.0189778 5.91058e-20)
(1.13609 -0.0621547 -2.14372e-20)
(1.02748 -0.0191987 6.55151e-21)
(1.17825 -0.176848 -3.29497e-20)
(1.07604 -0.0142201 3.5822e-20)
(0.97837 -0.154609 -1.28251e-20)
(1.07404 -0.0860107 1.60284e-20)
(-0.259775 -0.0446104 0)
(1.15189 -0.0535557 -6.35435e-20)
(-0.0773683 -0.0215686 -2.62109e-20)
(1.07555 -0.0311856 0)
(1.02325 -0.00995555 1.03874e-20)
(1.03157 -0.0305841 4.26641e-21)
(1.04136 -0.0336449 1.04509e-20)
(-0.196676 -0.0352626 -1.09261e-19)
(-0.208535 -0.0419773 -8.2068e-20)
(0.596894 0.00571708 1.39971e-19)
(-0.110143 -0.0236973 5.02628e-20)
(-0.204276 -0.0413429 4.15175e-20)
(0.734067 -0.0495396 -4.88631e-20)
(1.15738 -0.214994 0)
(0.231644 -0.0171085 0)
(0.156536 -0.0476931 -1.99009e-19)
(0.154496 0.00236661 -1.92656e-20)
(-0.283556 -0.0505309 -4.85107e-20)
(1.28909 -0.320473 -7.54507e-20)
(-0.204099 -0.0419719 0)
(0.909091 -0.20158 -2.68914e-20)
(0.980104 -0.0361726 0)
(1.03643 -0.0563839 8.35223e-21)
(1.01065 -0.0475854 0)
(0.917608 -0.388314 0)
(1.25812 -0.0476477 -9.37995e-20)
(1.07011 -0.0159661 0)
(1.219 0.0150247 0)
(1.19538 -0.13559 8.40171e-22)
(0.770855 -0.299871 0)
(-0.106659 -0.0334859 5.14823e-21)
(1.07474 -0.0119862 0)
(1.00027 -0.00279239 -6.87514e-22)
(1.247 -0.0959897 -9.46647e-20)
(-0.282158 -0.0483724 0)
(-0.109799 -0.0340226 -9.03002e-20)
(1.16203 -0.050204 -2.90971e-20)
(-0.161138 -0.0404174 0)
(1.01785 -0.0018258 1.50486e-20)
(1.27296 -0.107961 -1.06649e-19)
(1.00301 -0.0707914 0)
(1.04679 -0.102605 0)
(1.00298 -0.0265938 1.88858e-21)
(1.08489 -0.0901385 -2.05153e-20)
(1.17647 -0.147018 1.4764e-20)
(0.968273 -0.0586896 1.92124e-21)
(0.149695 -0.0109579 0)
(-0.248661 -0.0467655 -1.14145e-19)
(0.810604 -0.0120695 -7.15167e-20)
(1.01049 -0.0242864 0)
(0.886624 -0.395679 0)
(-0.149984 -0.0401294 0)
(1.06701 -0.0058912 -8.49812e-21)
(0.995914 -0.00962113 -1.19827e-20)
(0.735309 -0.200285 0)
(0.115929 -0.0247431 0)
(-0.274423 -0.0498855 -1.69243e-19)
(0.989101 -0.122815 -6.85343e-21)
(0.770011 0.483224 1.67877e-20)
(-0.174898 -0.0312824 0)
(1.18037 -0.519901 -1.14738e-20)
(1.01937 -0.00476773 0)
(0.992496 -0.0128735 -2.93216e-23)
(0.0710364 -0.0385549 0)
(1.30669 -0.181826 -3.06414e-20)
(-0.215539 -0.0421658 2.65665e-23)
(0.923664 -0.148342 -4.11589e-20)
(-0.0350745 -0.0123998 0)
(1.31793 0.0207635 4.56165e-20)
(1.25035 -0.0934643 1.31668e-19)
(1.05977 -0.00862087 -2.05099e-20)
(1.20437 -0.432184 3.9425e-20)
(-0.13696 -0.0346766 7.31262e-20)
(0.845025 -0.0276956 -1.91148e-19)
(0.628346 -0.0291179 4.98472e-20)