/*--------------------------------*- C++ -*----------------------------------*\
| =========                 |                                                 |
| \\      /  F ield         | OpenFOAM: The Open Source CFD Toolbox           |
|  \\    /   O peration     | Version:  v2012                                 |
|   \\  /    A nd           | Website:  www.openfoam.com                      |
|    \\/     M anipulation  |                                                 |
\*---------------------------------------------------------------------------*/
FoamFile
{
    version     2.0;
    format      ascii;
    class       volScalarField;
    location    "350";
    object      ddt0(ReThetat);
}
// * * * * * * * * * * * * * * * * * * * * * * * * * * * * * * * * * * * * * //

dimensions      [0 0 -1 0 0 0 0];


internalField   nonuniform List<scalar> 
13851
(
-13.24
-5.89678
-46.0439
-20.3803
-34.1076
20.5285
-0.770698
-18.6804
0.031686
-1.11183
-6.80205
-13.7075
-60.8171
-15.5523
-0.388604
51.9976
8.42629
-10.8573
58.3414
0.00135828
-17.0167
-50.5124
-0.0154414
-0.308154
-0.0322112
-12.5687
11.6225
-0.175247
3.6635
-12.3687
7.73383
3.88062
-38.3902
28.8763
-0.236517
305.193
-497.571
-46.1503
-24.0984
21.5563
-0.0965295
-0.0193813
0.540565
-7.3607
1.54618
8.17577
-5.99019
80.3196
-0.0199783
-57.0545
-8.8513
-7.94558
0.498015
-0.357327
-0.103683
-0.00776881
0.0617841
1.54634
-11.1315
-0.194615
-139.682
15.2472
55.3986
-8.24051
178.864
-22.7493
-159.577
-9.44113
-13.2768
-10.3387
-0.317679
-1.94174
-3.92455
-0.41248
0.102661
-0.145464
-51.3733
-2.46645
-45.9321
-0.0629354
-4.82556
-0.2327
1.90246
-9.67833
-439.404
-21.9384
33.5276
370.46
0.468576
-3.82231
246.689
27.3715
-8.00906
-22.2361
3.03501
-0.00962976
-19.0911
-0.795026
-53.4789
0.0280267
-3.11319
-28.7546
4.60522
-10.3426
0.00988238
-5.86017
-16.6991
0.0324268
-2.68801
39.5284
-0.102912
-6.68729
19.5383
-0.303804
-0.164318
1.25253
-0.87474
-0.0259703
-0.602358
0.17137
0.602602
-9.3821
-70.8672
-6.05016
118.349
-36.5286
52.727
-18.3333
-2.42815
-16.9225
-0.436304
0.258652
-0.301843
0.113913
-10.4187
0.0462059
-0.0143314
-64.1379
-5.71719
-4.92124
-1.59611
-0.0343212
-1.35201
0.450947
-3.07826
-12.3238
-51.1262
-10.69
-0.692107
4.75449
82.2358
-0.118708
-14.1671
0.0549769
5.24468
0.962732
-0.463495
-3.41051
0.939563
-5.56752
0.104857
-27.3
1.37301
0.271958
-14.6756
-0.0957665
-41.7102
-18.2872
-3.61786
2.30763
-2.47713
-0.0481784
-0.407477
-3.27874
0.28294
106.859
-21.5722
2.44837
154.584
0.0502918
2.04226
-15.6194
-0.490569
-57.4773
-0.0225539
0.029707
-12.0386
-0.135573
-22.1689
37.7853
-12.2723
0.658611
-4.99751
-27.0299
16.8741
-1.13113
-6.12396
-6.62507
4.36364
-0.175608
-33.5353
8.07466
1.05233
-1.45849
67.1423
-0.709079
-2.60772
0.766084
-1.35896
-0.0375538
-4.06492
3.85812
-11.5167
0.0213951
0.0481409
-4.22317
-283.895
9.31119
0.26446
-1.46009
4.15765
-4.0168
-5.68722
30.2438
-1.77713
-0.0176345
-2.91714
0.0341284
0.476134
0.00700239
-4.62472
7.82398
-0.0475418
-1.87083
11.1114
-3.05129
-1.98304
128.047
0.763499
-1.29879
2.27457
-83.6497
0.757874
65.7949
0.07552
-1.54663
-27.6474
11.1582
4.28539
8.10109
-28.1954
68.0724
-1.53521
5.53228
-16.476
-211.293
33.9381
-14.3513
-4.41424
-0.436446
0.121244
-2.98476
-127.592
-0.16532
-202.95
-4.17043
-4.14477
-26.1053
-7.13954
205.86
-25.2742
2.71872
-50.0477
-42.8728
19.5502
0.180455
-4.40662
-4.5675
-0.892383
-5.2502
-1.25661
-0.0665949
-0.014346
-22.0498
65.9929
28.1842
-0.0323633
-0.195079
-45.4398
-3.73835
11.231
-8.03243
-0.410348
-17.5464
1.17718
-29.9703
-20.2247
-26.021
0.265231
-1.77476
-22.1138
8.3314
-1.26173
0.983442
6.93913
-3.55548
-0.0173487
-6.0122
-9.75912
-8.88839
-5.22282
-16.1487
1.42893
-4.07688
-0.0557948
10.4349
-55.5857
-1.18722
73.1871
-0.643195
-8.22695
-0.143521
-3.70321
65.5843
-0.0559536
-0.309777
51.6997
-12.3548
4.60948
-0.357967
0.386148
-0.251432
-4.57516
-10.3378
4.90798
4.10542
-1.60479
38.3793
-0.182569
-25.8155
-4.68833
43.9415
-231.804
0.709106
-1.89396
-68.1526
8.76294
-2.84088
-0.432968
-262.515
-276.053
18.5109
2.24111
-591.644
1.2163
-0.597738
178.209
-0.409795
-0.15375
0.0247616
0.0423483
-0.106542
-3.34152
-16.0365
-1.54884
-2.06684
-0.209455
-25.6452
52.5279
53.9565
2.81078
0.159953
-603.219
3.17199
62.3101
0.225824
-0.0528713
-82.4439
-4.47916
-0.506531
-4.06627
54.0568
-3.03633
3.33788
113.436
5.29086
29.5821
0.252403
-0.298651
4.48234
-2.11964
-16.3093
-16.9897
-2.16977
-3.39713
-0.331767
-0.459621
4.11916
-0.184337
3.00754
-1.83776
-110.178
6.03759
-0.168442
54.0222
-0.0498786
57.4974
13.5464
-0.270945
0.00350251
0.015104
-0.107154
-12.526
-30.1797
-3.10002
-3.86047
-15.9464
-123.148
115.181
5.98578
-2.57647
2.90247
-4.29337
0.00710826
0.0164758
0.0763195
-67.6976
16.8935
4.00466
-102.109
-3.4783
26.3534
19.4672
-0.148447
3.14154
-0.395369
74.6408
0.0176874
-14.6871
-3.36368
-28.7578
-1.61383
5.61965
-12.2829
-1.49058
-5.41804
-0.0223338
1.80302
-35.4501
63.4709
-0.0210296
-2.1189
6.95671
-7.34335
-13.6525
-13.3855
-0.0128425
1.1573
-0.737147
-23.9357
-0.0610891
17.8478
0.089885
-22.3213
0.0191225
-22.2821
-4.658
-0.0364965
9.05182
-4.66394
-1.30515
-16.3544
0.243125
12.3764
-5.23845
0.421814
-0.0824773
-0.284316
-0.191394
-172.432
-0.593678
15.2859
-0.85086
-0.094293
-4.48673
-1.55869
-0.678021
64.4924
-1.04742
-153.008
-2.28797
0.751467
0.74431
-0.0985093
-74.3987
-0.650837
1.80702
0.0185285
0.0317531
15.5179
-0.0369758
144.239
-0.350131
-4.68604
-3.30624
-0.219883
-59.1675
-0.125846
-0.195312
0.134322
-0.619735
-0.183342
-5.70471
16.3142
211.044
-400.981
0.0886765
12.6353
17.1844
5.07375
-2.81206
-100.838
-8.65731
-5.18352
-0.495741
3.91422
5.62921
8.99237
-9.82701
181.024
18.8581
-12.6683
115.228
-5.52067
-9.37896
-8.85597
-7.13193
-36.793
0.0135766
-12.7508
-6.83469
-1.6797
-1.52257
-0.234611
-0.407956
-0.793005
-37.1873
-43.5499
261.942
-17.9529
-0.00727254
-0.175148
-2.2079
-5.65565
7.55833
-11.9113
-0.0366765
0.0292266
-59.5266
9.18593
1.97014
106.087
86.8079
0.0100606
-314.775
-1.26284
153.556
-4.63452
-0.228892
-14.8468
0.213503
-0.129192
-134.916
-3.22165
35.4727
-5.55334
-116.849
0.0548898
-0.224088
-10.9245
0.00805711
-0.796192
0.0228343
0.106691
-31.0864
-19.3517
-115.513
0.0292081
-2.87144
-14.3784
0.377834
-0.0431746
-0.697472
-0.28504
-3.60056
1.57842
-2.6681
9.64498
-69.1684
-11.4763
-1.75455
-1.32558
-68.1543
-9.54424
-0.0740999
-62.9098
60.2123
-5.383
139.882
106.44
10.0501
0.0339321
22.1366
0.531938
-11.1724
-7.42492
-0.481596
-2.1428
-0.0383797
-4.18111
2.55008
-1.17288
-0.137225
50.7851
-0.722423
-32.6631
83.8968
36.4567
18.8942
49.0623
0.0258508
5.89194
-17.4577
10.2096
2.94053
0.152136
-3.91273
2.94471
3.01842
-2.29375
7.26874
202.538
-0.0446485
-10.5023
-3.56079
0.469946
0.0265367
-0.100299
5.48459
0.37958
-37.6161
0.0206444
11.9124
24.4551
13.095
0.0207058
0.0138788
0.0354491
-15.6754
17.0292
31.5533
-23.2566
-2.08332
-0.0909372
-0.0975947
-0.47818
45.6316
43.3295
0.975643
0.0285624
-0.537648
-0.185097
-23.6476
0.963851
7.20998
0.886128
-38.6652
-0.0849358
28.2747
-5.64474
-9.43507
-8.21106
-3.32046
-6.72366
11.6408
-0.721555
-15.268
-0.0125707
10.623
0.0384948
2.36251
-1.63047
-0.358214
13.5355
-141.734
-0.0600222
4.68243
-46.293
-0.016264
-10.8736
-29.686
64.556
0.025563
-0.0331596
-2.41954
80.1482
15.8211
-2.59196
-0.0376724
-0.248338
-0.00181389
-13.3509
-149.861
-6.73176
-3.17089
-5.10358
-17.5249
0.0355072
0.64986
-657.489
-2.64803
-0.0491319
-0.156414
-2.01231
0.686056
43.1137
-1.2405
-7.19859
-1.9238
-5.05337
-52.7911
-34.2811
6.30947
4.12619
21.3898
-14.2841
383.061
-0.0596856
-0.58913
-7.78526
0.0279221
0.809365
34.0721
-9.48976
-81.1311
-5.45885
0.0095154
-138.343
-0.102068
36.8986
0.0335533
0.179355
0.00441485
-3.30945
-0.161551
-0.171062
216.146
-0.783248
-1.92921
-0.0876014
-33.7515
6.87334
-23.8749
-12.6203
-0.0551087
-9.07022
1.76784
-3.51856
-5.51946
1.86664
0.0239547
19.2756
0.53512
2.77732
10.7258
-0.0356245
0.0359945
9.19194
-42.8186
28.1976
-20.0001
-11.7777
-0.176588
-13.3766
-33.9836
4.40616
-53.81
-55.7747
-0.275638
-64.8861
-0.393929
-1.22455
-18.9504
-1.14826
92.651
-1.13922
3.62992
19.0016
15.2495
-0.972652
-3.40393
48.5595
116.38
0.0349456
7.31002
1.96004
-3.99301
-0.456312
-0.0486383
5.57782
16.5934
-0.055925
0.586888
-0.0524964
1.12171
0.0259404
-2.14492
56.8059
0.465951
-0.39169
0.77303
98.4538
-26.3796
-11.5889
4.51161
277.331
19.9801
-17.7979
-1.28072
-2.17979
-0.0975127
-16.5847
-0.779652
-0.153901
19.1672
-19.214
-0.4025
12.375
-2.24356
-0.521144
-21.2098
0.315052
31.4674
10.3823
3.18647
-0.679317
-0.45792
-0.0556703
5.45313
0.350015
-76.8308
1.48775
-13.0618
-0.492874
-6.04887
-25.5358
0.223971
14.6692
110.254
-123.863
-1.37163
-2.25302
-0.00782507
0.88321
-10.0418
-0.912745
-3.25651
-4.29238
-1.96601
64.7278
-107.262
-0.0563903
-2.66625
-0.504641
3.54363
-1.20499
-0.223987
2.44151
-455.51
-26.7124
-0.14683
2.7259
0.119531
39.8261
-1.49226
12.7457
9.20567
-1.70448
15.3687
0.111668
-3.15403
-0.0596025
117.682
0.0962398
0.422142
-97.3998
-0.0496656
-5.35685
36.7843
3.82412
9.57469
-0.197113
-5.33128
-0.992653
0.626351
-4.81319
-2.46291
-0.615738
2.69457
0.0375028
0.0945824
-0.0957564
1.17124
-1.1215
-0.566143
-16.9491
-0.183495
7.0317
-325.785
0.387473
-0.019898
-148.388
19.8028
412.936
19.4634
7.46903
-0.256867
9.67316
-22.6059
-0.291162
-13.9545
-1.15172
-26.7268
0.77195
2.92374
-10.7671
-22.6279
-1.86273
0.157798
-6.33143
0.0699428
-0.128293
-15.8446
-14.0582
372.468
8.06291
0.263233
-377.095
0.317016
-0.454638
-2.10187
0.190305
473.704
-0.25856
77.2169
1.58853
40.6087
-2.27489
-0.625549
-0.808156
-105.311
-0.490416
0.188621
24.9588
3.58798
-0.0468594
-1.33392
-0.087441
-2.35036
47.8594
-193.08
-2.28125
221.577
-0.203508
4.11224
4.43293
-0.237665
2.35722
-52.9819
-9.36749
-0.107993
-5.00716
-31.6425
4.28343
-0.0395969
60.7751
32.4684
-33.2938
-1.45039
-0.0616817
-4.84893
-1.41891
-171.438
-0.137545
-0.886705
64.8609
-0.765559
-18.4164
7.93722
99.8039
-130.569
14.404
-0.0200604
-1.06709
1215.12
-1.55372
4.16794
-10.8481
-42.6773
4.62489
-15.515
94.1301
-0.0617439
-3.03292
-499.181
-3.7172
20.3958
-0.200529
0.0259554
-4.98309
-14.3719
29.0091
-0.0486328
-1.73869
-0.042533
0.44071
-0.0404937
-0.030098
-5.51549
-9.39917
-234.434
-25.9191
-10.7421
0.00653179
-3.30701
91.9362
1.16115
3.76683
97.0871
-6.20168
0.0186679
2.86708
-2.50016
-0.0818239
-1.79276
-2.63183
-2.1799
23.4787
-4.49145
-5.19414
-5.11917
0.0544463
0.431433
3.9061
86.7671
0.127299
0.0432731
-16.9131
-0.834199
0.0127574
24.7951
18.2234
-2.50677
-23.0364
-7.6203
-33.8038
17.6729
-485.985
-2.13728
22.7974
8.4429
-0.080006
-97.5014
-0.0480773
0.555172
-16.7621
-2.90108
-1.87062
24.2946
0.220731
38.2675
35.0585
29.4885
-0.498114
8.87647
-6.29187
-0.224847
42.0772
61.8708
-8.62843
-304.195
0.258349
7.81188
-8.04893
1.50426
-2.44073
-1.24851
0.0654518
-0.204204
3.43178
10.4545
-12.1304
27.6164
-18.0629
0.0150753
-10.1644
163.253
-39.7166
-4.68637
-4.6904
-9.05747
-27.8166
82.038
3.74585
-25.551
-4.61576
-0.729726
-13.727
-1.93548
-1.76736
-18.0893
156.278
4.28643
-5.05397
36.7959
-0.0274992
377.129
-1.72941
267.157
-5.82509
0.00872376
-0.670171
-1.39997
66.8822
-4.73639
0.0240844
-0.832066
-2.16215
-2.20943
91.5188
0.771985
-56.6207
-48.4487
-2.39215
-106.987
-6.63525
-0.532738
-8.99595
9.92065
-0.0922309
-0.939042
15.9944
-1.00812
0.34157
0.300175
-6.00651
-25.5561
0.365622
-7.03307
0.00473381
-67.3968
0.597188
-17.4993
1.58844
-3.49162
-150.611
-3.67398
-1.31238
0.415062
19.1597
5.14537
28.6902
-2.78562
17.0874
0.706793
102.232
0.63646
-0.264368
-0.0354198
0.883479
0.334395
181.109
0.203796
-13.0442
-3.23392
-17.9847
-9.85952
-1.21935
-186.958
0.20732
-12.0954
-31.0099
-4.33039
0.0689989
-13.226
-14.738
1.07243
-0.053428
-2.17155
-20.9519
29.7946
36.9428
-4.80434
212.768
-79.5569
-6.18333
39.1871
-5.2472
21.7416
214.611
-11.1747
0.0221663
61.8523
-1.16355
-0.052186
44.304
-1.90027
5.61984
-16.6397
-10.4378
-3.03162
-15.5971
-20.4174
0.310737
-6.64195
-88.8213
-1.77173
3.28813
-4.20496
-2.88374
7.35675
-6.45682
-7.73652
-0.424519
-3.84397
-9.1087
-0.0401922
0.209675
2.13179
0.20616
32.2942
-0.227532
4.70459
1.60445
-56.2853
-2.08311
4.73087
-5.09041
-30.9493
-15.4084
8.26239
0.375052
0.00730613
0.967661
14.9477
-1.17849
-15.7294
-104.859
13.1645
-0.579829
43.6385
0.35992
137.051
14.0411
3.91674
-4.30866
0.0490885
170.247
-3.41862
51.3545
-3.87933
58.168
31.01
-0.793844
0.18422
-19.7939
0.141049
-323.614
97.0369
42.3792
-116.933
-9.75276
-23.9738
-0.330114
-19.3276
-0.412903
-6.8422
-0.0557872
-0.304666
-23.2738
-3.89062
-1.36405
-28.7037
16.657
0.0102685
13.8365
-2.94695
418.741
-22.9226
3.69834
-77.4711
0.0556243
0.823954
-12.732
-0.646015
-0.034543
-62.2258
-135.61
-72.4957
-1.18814
2.01338
-0.38924
1.53273
-83.2466
175.111
-1.67177
0.801427
163.165
3.57251
-1.67446
186.918
-6.51617
32.9291
4.91774
-4.35961
-3.26981
-11.1244
-0.437252
35.9425
13.7891
-0.176796
0.804313
-2.24629
-0.56159
-0.0571562
35.9626
-37.9174
-97.1285
-1.86254
-0.654035
-4.06263
-13.8313
295.187
-2.54317
-15.1834
1.38979
235.15
-75.5975
-1.8383
-18.8481
15.8587
0.244382
17.1805
-0.0592336
97.8368
-44.6554
0.89162
10.3676
-376.929
11.1586
94.0878
-0.0576273
-0.00380646
71.6584
32.6581
189.598
-20.2172
-24.2632
49.8121
-31.4555
-5.62344
43.9427
-2.95509
-0.079872
-0.0072346
-70.3394
5.168
-1.25848
5.20132
-0.466791
-2.96666
-16.9066
-0.482729
-5.04754
-0.0402729
-7.02143
-5.64221
-30.8376
0.751647
716.48
6.20863
18.7052
-2.84103
0.105552
184.862
-6.75476
-2.63789
7.84797
39.557
-0.016359
-0.232044
-0.0343579
5.96898
-2.30427
1.26898
0.366167
4.95193
5.11229
9.42501
33.8006
0.0285205
0.0933564
-0.0672534
-7.85092
0.070709
-5.51525
7.93674
158.359
-335.377
163.654
-2.24748
-27.1647
-11.2052
-0.164389
-18.4415
-24.6222
170.285
4.94049
0.04848
-0.0454496
-30.3206
15.4363
0.961892
-5.19852
-7.62358
-0.0447478
178.586
-53.537
-1.14065
-18.0926
0.112001
-15.8344
-0.909971
-0.972351
0.0871687
-0.703783
-7.41772
-4.57844
130.346
-0.274137
-142.692
-3.1027
-14.24
2.47082
-2.97509
1.65612
7.71152
-0.494186
-27.7546
5.33568
-0.00194255
0.0882523
-9.99797
0.0167489
-0.0481089
-0.00479068
-18.3158
-22.5324
-573.484
-22.9412
-2.30643
-1.20174
-8.58639
-4.54626
-0.85995
67.3362
-12.6162
-44.4676
-280.535
5.73175
-3.01334
-3.41534
-1.71414
-3.14771
-6.06077
-14.801
0.587412
-11.7052
-1.69001
-24.4285
-6.80827
0.496613
-1.13872
2.02594
-3.79478
2.03304
14.6059
-7.36052
196.528
13.665
0.0565221
-1.5018
-0.771544
5.07639
5.57745
-3.06841
1.35816
0.129694
-1.7148
1.3969
167.844
26.0893
6.99949
209.987
-13.5476
1.11442
-0.0540039
49.5515
-0.555089
234.122
-4.30629
-0.326129
127.273
-35.7887
-17.7517
0.67767
25.5194
-3.10196
-12.8123
-9.35058
-3.47281
1.03837
-30.1583
-16.2058
0.41939
-0.792071
-35.7277
4.41496
33.7681
-10.5002
-0.0204333
0.273629
5.04682
-27.1558
-31.5199
-3.1344
-1.24159
-0.121176
-0.277217
-0.0564889
-0.72223
10.0671
-0.0847372
14.8685
21.8858
-19.4796
-1.96966
104.735
11.3231
-2.47239
11.0301
60.2251
-0.236481
-0.246548
-112.681
8.84191
-4.12812
0.627195
7.92585
-122.835
18.8912
0.174146
-115.037
-0.251137
10.3512
-8.97574
-5.22288
-0.392154
-6.6184
-424.514
11.363
5.732
23.062
86.0486
-0.111437
-36.265
-0.548696
32.5878
-6.43762
-0.0446895
-13.2158
0.452453
-0.645645
-18.6514
-4.50898
-4.48104
-0.0346196
-1.20578
2.88949
0.275769
-0.277312
4.5065
51.7333
-66.9643
-1.15545
-0.282704
3.686
0.13616
-4.93844
-0.472237
5.14868
-27.0564
-1.96739
0.456447
-0.389942
-6.3757
-0.636833
-4.87166
66.4105
19.1409
-0.207673
-1.40106
-0.204337
-20.3467
-20.1006
-10.9556
-23.5976
-9.33456
5.51951
-43.4656
34.5355
-9.82918
-0.843495
-1.24212
-1.18195
3.15263
-25.0285
14.2242
0.752836
1.87942
45.7147
0.363487
29.7393
-0.944362
-235.32
-3.83965
8.81603
-4.62346
0.512938
-1.59591
-0.052013
-0.0853878
27.8507
342.407
3.23682
-58.1389
37.1141
4.91059
-0.0475276
-233.953
57.1283
-2.17837
130.458
-2.15625
-16.0444
-3.14032
-48.3644
-0.282061
-12.537
1.00555
19.7565
-7.14276
116.715
-0.879531
-0.647149
-219.568
-21.1769
0.00489625
-1.21932
-2.27436
0.0802264
-1.62754
-0.0568111
-196.132
13.9552
-3.7297
-113.251
-0.492624
-3.35529
-0.00748916
-28.4989
1.60193
-0.80305
-5.34209
-5.72756
-12.0269
-4.5379
31.4495
-21.0338
44.6619
-1.16168
-0.284959
-65.9943
0.0184012
5.12689
0.520862
-0.848316
16.9024
-0.598624
1.52402
-321.188
2.06247
-4.12992
-8.94517
-1.11596
-13.2395
0.820201
-11.1805
9.39429
8.45259
0.0512953
9.86324
-33.6568
-0.832982
91.3357
1.03522
-168.333
0.413356
-3.97136
-0.056384
-3.80996
-9.80396
9.54987
-0.0699715
9.59495
0.394383
-7.16526
-8.34337
6.15572
-9.16069
1.22308
1.85436
-507.902
-8.55456
-0.0351091
-0.163594
-4.23897
-1.86521
-1.16539
0.0454244
-2.62749
-2.88497
-212.291
-0.512531
0.0385424
0.625973
0.012793
8.35135
-0.168781
-3.9228
-15.8889
8.63114
24.7922
10.9649
10.616
-4.80507
0.326516
0.667631
-0.0366886
-0.0448663
-3.66027
-231.129
-0.253575
2.85001
7.37528
-4.36164
-18.8024
0.569284
5.95389
15.5269
-0.0147014
50.7218
50.6363
9.42349
-0.713712
-0.0328849
0.156138
164.673
2.71954
-2.70445
1.70458
-25.6897
-24.8877
-0.786967
3.80944
-3.24252
-0.54373
0.0195002
0.310953
4.58753
0.121582
2.29578
-0.828582
-0.037836
19.1288
5.7279
3.19392
-84.5911
297
-8.73616
7.35277
22.1744
3.03438
-8.53719
-209.963
-36.2741
9.28443
-8.88485
0.374772
-2.8173
3.40456
-1.10729
-8.8286
-37.6458
-2.55875
1.27809
-59.232
-2.27495
126.125
-0.831282
-1.21518
22.5771
-3.23527
-10.3988
21.7856
-0.0392342
-1.4481
-24.431
-53.0638
0.0890942
-6.68739
-1.80653
-38.8985
21.2894
0.557935
3.48911
51.7007
16.8647
6.61497
-4.00515
33.6422
3.66186
1.37975
28.7296
200.651
6.91387
-0.199937
-16.9623
0.48895
-3.4942
172.531
2.2813
2.44504
2.55367
0.522578
-0.277198
8.39545
-28.5657
-3.86755
6.99174
0.147171
3.25329
-7.17431
84.0994
-1.77588
-2.00138
-31.609
-0.995409
-2.65605
-6.06596
-13.3867
10.7109
20.0881
-13.5163
-1.27141
-0.554709
-2.8272
-2.8281
-3.41752
-1.06227
29.2025
1.86206
-0.375725
-7.60938
-8.12134
-0.310128
15.143
12.9686
-0.273516
0.505821
-11.536
-6.00111
0.105519
-0.17722
-3.83531
-0.442656
11.263
-2.09922
-1.5628
3.40428
-7.55702
-1.2779
-68.1469
15.8517
1.7075
-7.51974
-2.54107
-6.01319
-24.0472
13.3549
-1.38069
-34.557
-2.76172
44.4516
-8.20698
1.57219
112.239
11.1846
-0.104319
-8.89531
220.997
-24.9645
-2.1036
-0.19908
-0.164837
-5.51228
35.363
8.32444
-0.381561
-0.298276
-2.7215
1.16979
-0.16489
8.78346
-0.248433
-2.28011
-9.80727
1.46165
8.10227
0.0553237
-0.154167
41.2258
-66.0698
5.30833
-3.27224
40.5171
-5.91571
-1.49822
-2.09879
1.20395
-1.10239
0.253736
41.2831
-0.730122
-18.9799
16.9702
-2.38505
-15.656
-0.380401
-0.0421034
-4.72871
-1.87789
0.978534
-16.2447
702.435
168.42
-2.16762
-2.65758
-0.0726416
-65.6241
-0.066935
0.282105
2.55893
0.17342
13.0112
70.3769
-13.8837
29.2218
-58.3233
80.2149
-46.2934
-11.7079
-2.7454
-3.87513
-21.9534
1.59761
-13.9364
14.4242
2.09309
-2.25863
-2.85211
-26.9435
0.0450875
-0.539735
-2.57753
-86.724
-27.4097
165.12
0.0478549
99.583
-0.139784
-116.458
-0.175849
-438.514
0.32547
-5.27868
257.869
-1.52925
-0.0244978
5.36429
-20.8012
-2.00591
-52.2374
116.936
-0.124672
32.3958
-0.0786775
20.7615
-14.8852
-1.72718
0.718878
4.64338
-1.16577
-0.773861
-2.42493
-2.30582
22.6597
-1.4895
360.435
396.397
192.773
-0.192956
-0.0716036
-1.05422
-0.0670636
-1.77749
-33.7569
8.74981
7.04232
-2.54028
-3.07315
7.47171
-134.398
-4.16251
-0.269111
0.267141
0.0774461
141.937
0.19995
-0.0276866
-30.7255
-2.14257
5.53384
2.69762
0.75758
28.9673
54.8092
37.2622
-0.0423124
10.0185
208.712
-0.041503
17.3423
59.6284
-0.756086
0.523675
17.6676
-20.7672
22.9218
-8.26308
-7.68871
-0.903145
0.219754
-7.19139
0.413842
37.2406
6.15865
-0.0181082
0.8932
0.54597
-0.072606
-0.434471
-2.4143
-15.114
-30.5937
-2.8553
-0.0838047
22.7373
1.0982
49.3976
-5.34567
-0.467313
0.764221
-52.7956
-0.598421
-0.17297
-1.27307
-3.6354
-3.03293
-152.923
10.6829
5.62514
55.425
-1.91077
-34.4604
0.0214236
0.0209442
0.0160736
1.73882
-7.00008
-6.96626
-0.2004
0.644718
-0.845289
-11.1313
-26.489
-0.103829
25.3795
-13.8069
-2.03474
41.0708
-1.86768
0.0176359
16.0259
-21.6509
-5.15256
-7.70719
0.455602
14.1284
2.70707
4.19444
-17.855
1.78081
-379.175
3.87443
-0.787219
22.6127
26.3904
-2.80347
180.176
-0.343019
-1.7456
-2.41532
18.3193
71.9054
-1.08765
29.3051
-22.6784
-0.986525
-3.06069
-0.642252
-0.0289636
-57.7688
28.1626
0.388422
-9.71045
-0.786535
37.6155
-2.06222
-0.66261
-0.185766
0.0974097
-0.873722
37.1657
569.375
-89.1082
-0.122587
-6.31717
1.29945
0.483895
-27.9063
-5.98799
-0.760412
18.4357
0.0431114
10.4626
0.17197
17.4598
0.504334
14.0731
-1.8776
-0.183918
-0.0193542
-23.3638
-4.43273
-0.00439416
152.692
-0.0151116
-4.72398
2.39638
-1.03773
383.099
-1.47499
186.27
2.68852
-4.91012
-1.59096
14.3774
343.772
-7.53482
-0.407938
-2.30885
-15.7098
3.25593
-187.888
-0.330826
-0.127677
-0.103331
-76.5805
-3.12024
-2.49984
-68.3508
-190.273
1.55836
26.5737
-23.6698
-0.699009
-4.22119
-0.678728
2.65993
-0.59541
1.18973
-21.7307
29.2938
-34.7624
1.83342
32.8203
-0.318969
-29.8957
0.0689323
-258.643
-634.492
45.3792
-0.148213
-53.229
-7.87416
-1.76479
-0.0535027
46.2034
290.722
-0.935114
-0.0214983
-197.021
-1.27004
-20.4497
-19.3553
13.2038
63.1568
-3.08584
6.12056
34.4463
0.00961079
-17.85
5.01723
-0.594724
2.42225
3.11367
-73.1439
-0.680213
-257.089
-0.373639
0.381172
-4.32217
-1.91146
417.63
-0.0361742
0.0270312
-1.60506
393.647
-19.1281
-4.24075
-0.0269007
-37.4183
-1.33251
-0.999226
-1.33511
-6.27218
-1.2901
1.2832
0.0607413
-4.30292
-2.06801
384.652
-4.7845
294.419
5.70514
-0.0453511
-1.65251
-4.20553
-4.17573
-2.96223
64.3468
38.23
-9.82779
-2.65304
-350.23
6.52833
-0.568182
-5.55941
6.46206
-0.570417
125.482
8.61513
19.3549
14.6211
-0.891888
-0.0491186
11.358
25.2978
-20.0394
6.74798
0.250043
-3.41409
1.95587
-77.1461
-2.93252
91.0436
95.8497
245.162
27.5799
-2.16835
-1.55331
-0.0382001
78.596
0.739498
8.39429
-0.642687
-34.3037
-2.72356
-2.12779
33.2877
-16.1437
-32.2254
-0.00311229
-0.0244536
-2.14985
-0.230781
-15.6741
-2.45128
-1.03443
1.98841
-2.18803
0.419622
-23.6107
0.0501467
-0.728447
-248.146
1.93129
-203.541
5.95152
-31.9771
-0.578139
-323.066
0.0818865
4.35793
2.15213
125.12
-12.0688
-1.10399
-0.532366
-9.17138
1.6961
-8.30441
-0.606095
-26.4355
-5.45926
73.4231
-4.79492
-27.9051
32.3952
-26.4795
0.0202767
150.843
36.2656
-7.26622
-13.2849
29.9214
44.2671
0.591458
165.948
-10.2239
28.5759
-23.7569
-15.8755
-13.569
0.229088
-28.5605
-1.00436
-8.90431
-2.00862
-0.664467
-0.801555
9.53678
-1.957
-0.920199
18.3892
-0.0576677
7.22113
-17.5931
35.9095
49.1644
30.8474
-5.34814
146.922
0.147338
6.27247
-0.993067
-0.137323
15.7825
-0.362374
0.00454848
23.581
-11.8718
1.91271
15.1139
7.91612
0.651447
-8.84387
7.85492
-6.48958
119.885
-19.5865
-0.0602474
46.97
-18.1283
-9.72073
53.335
1.35778
-28.2142
-0.0327262
-0.510048
18.2769
-26.7045
0.567912
-0.0205601
-3.50795
359.614
-15.5343
-9.55551
-109.164
-10.4845
31.2522
-7.31643
148.203
-10.6226
-33.4237
2.55829
13.0037
-38.6338
6.42162
176.84
-0.110503
20.6919
0.149538
403.319
-34.3367
-644.46
-1.16144
-24.5202
-2.70915
40.2106
36.8627
13.3998
20.4061
-0.0933091
-0.0597757
-101.544
-2.34132
-1.07686
-48.3374
-106.64
-0.0166298
-46.4128
-0.058662
-82.8538
3.35656
-1.11129
5.10035
143.517
-0.0218163
0.418734
-1.71403
7.94659
-0.0867626
55.8414
-6.64909
-2.80796
-98.8821
-22.6891
0.105914
-9.37574
-19.6028
5.65509
-24.4125
-21.0823
0.478922
-24.736
-6.25442
62.7405
-0.0305733
5.84661
2.20402
0.409577
451.666
-44.9019
0.159469
-10.4063
-3.39664
10.6455
-362.966
-0.97055
-70.13
-0.817679
0.392676
-1.21619
1.26407
-0.282766
-29.6214
-19.6958
-11.089
525.352
-69.1756
-28.1987
-0.701671
-21.339
-319.244
181.637
2.53982
53.8888
50.052
85.9697
-0.00381685
-10.1063
7.19715
2.96288
-28.6783
-0.888422
-1.61632
-2.29006
-0.0978147
56.6082
-0.644222
-0.0221753
-0.754385
9.30947
-295.073
10.5161
0.171865
-8.35675
8.66064
-1.83892
3.02569
72.1074
0.687441
-0.843727
19.8362
-8.08356
-6.92316
-131.401
249.021
0.094686
-1.01123
48.8752
40.4891
-0.452008
24.2576
0.136378
-0.312238
31.901
-42.6153
0.00725289
99.8652
-7.86454
259.6
-9.53014
15.488
4.15145
-9.11755
14.8941
-15.0945
-19.1583
4.41385
21.3011
46.6738
-1.07231
-11.0246
1.57141
-6.44679
-26.5031
6.41812
-43.3884
-7.34923
-1.73568
0.319287
-1.03368
0.204053
4.48717
-5.10515
13.3218
-28.0788
61.0832
521.083
-1.25925
-11.5648
-11.965
22.3435
41.5625
2.18447
6.91176
1.28536
0.165737
1.87848
15.1511
-2.93291
0.0220223
-109.995
60.278
3.14417
-24.6518
-146.214
0.881252
-0.596973
-20.0717
-10.4263
-2.77
24.1882
-1.642
36.7462
-12.6242
21.6544
-193.154
0.74647
-160.311
-3.34346
-2.81753
-15.5339
8.71298
-260.584
147.057
13.4695
72.3834
11.6645
-7.79902
-35.5621
-24.3748
5.80055
30.7313
0.222736
-2.48939
-0.337529
10.5621
-0.163779
-0.11671
-5.45735
15.1022
-5.07796
2.95504
-1.52278
-0.986449
-15.1612
-1.05476
6.02945
8.85389
-0.346659
72.0665
3.76548
-1.96508
-3.55318
-81.7581
10.4196
-28.5941
8.92718
6.89066
189.093
-8.02802
-47.9357
19.262
11.3438
-7.24481
-166.951
-0.261232
-28.4142
-20.1095
145.198
21.661
-10.0422
-0.206268
-14.9746
-10.5771
-10.399
3.05906
-151.662
134.018
-0.240941
-19.0743
-0.0754456
-0.36408
-0.0741504
-11.0426
-15.8757
-44.7974
-259.397
-3.27855
-6.03513
0.025755
1.90252
-26.2235
-12.4365
7.99352
-7.6395
6.76043
-3.96404
-13.7552
-0.267892
-668.631
-0.000452188
-1.46213
18.2044
-2.24578
13.8159
-17.6218
6.37026
-3.55774
-0.115228
-191.144
-0.208301
4.5998
-0.0815705
-2.08427
-6.4087
0.0154815
-1.19014
139.813
0.216892
5.22478
-24.9994
4.3485
13.2857
4.97457
0.919816
-5.5156
-166.31
-0.400211
6.65553
2.85259
-0.0608728
23.374
-14.5767
-88.6315
8.56534
-0.0868426
1.40981
-0.577957
-3.32503
273.842
26.2401
1.1607
-0.0329942
10.7209
-11.0137
4.5561
67.0331
0.0523194
-0.346336
-52.2177
-24.2932
9.12659
0.0486487
47.2657
359.052
-4.69411
-0.196327
-238.852
0.0577734
0.0328163
-3.70839
45.0389
-2.13933
-4.64095
-0.0370168
-0.846608
-1.46675
-16.7345
-148.23
-13.9542
1.25073
-0.0278575
-0.0168836
22.0108
-51.7084
-9.70114
1.63524
21.015
-0.0850163
0.831792
-15.3499
-6.22026
1.93936
-17.6798
7.33823
-3.56654
9.78896
-2.01104
146.403
-30.066
-4.84285
17.4712
0.952391
-1.37011
0.0467915
7.98064
-0.640922
0.909777
0.571346
0.529747
47.2885
-23.1818
-48.2343
-1.46976
3.75787
29.1016
5.46214
-0.0789017
-0.497594
-1.19517
11.375
-24.3248
32.9237
104.104
1.20781
182.079
-20.1093
10.878
1.66362
6.13612
0.0537544
-377.911
6.34432
61.5516
-0.201879
-6.00762
0.0687856
-245.598
65.0934
-158.277
12.8398
-4.80882
6.8293
-1.85207
-8.9424
0.403321
-17.5653
-28.5583
91.1274
-487.204
-3.762
0.117208
-700.26
-30.0563
-0.812282
-1.36098
0.971849
0.521414
-5.26952
-0.109606
45.7267
-1.83567
-2.1239
-43.2424
-8.58357
-0.0529001
-5.3887
83.5244
-3.81213
-0.648721
-0.0486425
0.056185
-2.02483
-4.03359
215.622
0.543839
-0.0979612
1.93335
-0.0644395
15.6803
-0.604962
-2.19606
-0.868062
-1.31539
85.6638
-14.7641
-64.3655
-2.92868
271.512
-8.10468
-0.367628
0.22294
-28.9868
-15.3075
0.0477825
-55.0268
-3.00329
21.0049
-8.14394
-4.24565
-0.163804
-0.54201
39.5203
183.645
9.95666
2.59015
-5.82777
2.13244
1.07495
-3.84049
-0.0119973
-1.3439
-12.2022
0.0807875
4.94576
-0.159016
-3.69981
7.5387
7.41852
-16.4905
49.1232
-20.5832
7.20593
27.6818
72.2602
-3.13382
37.1617
-4.0869
0.953133
-0.308133
-0.227631
1.80392
-0.293875
0.255953
2.90472
4.37117
10.162
-0.509232
-0.342524
-0.455402
-65.7021
1.33556
-1.63084
-62.9128
-55.1924
53.3702
4.0478
11.8953
0.549999
91.5331
-35.3426
3.31182
-28.2208
5.03439
1439.21
-0.259635
-6.41877
-564.385
16.9131
21.1721
-7.22367
-1.46186
29.1569
-0.363141
-37.3763
-1.52432
-4.94719
-1.5969
-1.69108
-15.8864
0.373076
-3.82607
-3.14386
-2.85891
0.459496
-18.5881
0.22083
4.6661
0.401914
-3079.54
20.3797
-5.45754
-1.26681
69.3985
-51.2633
-19.1482
-0.0278574
0.387032
7.72009
0.0571309
-3.50427
24.7646
-145.739
-9.30587
315.377
-30.5148
-2.29872
26.4142
60.8861
-0.961231
-6.83188
-23.2846
-71.7612
7.92366
-10.998
0.0753057
-0.0664025
-0.312764
-26.5316
0.0336784
1.06254
-30.139
-481.219
-1.11513
76.2295
0.0408725
-57.4379
-30.7448
-9.14002
-17.9375
-16.7916
-0.169502
-14.9878
3.00443
0.0989666
-17.575
-36.3132
-15.4604
-6.15701
6.50017
-103.863
-8.97474
-0.645375
-5.95507
-0.0709414
-210.6
-15.654
14.5972
-0.557031
16.457
90.263
0.900426
5.82127
-47.7261
-1.99906
-0.398967
-16.3645
-0.806074
2.84187
0.138764
1.86171
1.01233
75.6519
0.827533
-0.471438
-300.956
-31.1751
81.6314
0.174236
1.20613
-38.5635
-13.9113
-0.613304
68.7903
-0.393318
-50.4057
-1.20074
4.36362
17.4397
3.13509
-1.56253
9.8189
404.66
125.77
-0.157413
-21.5485
7.14154
-0.349511
0.657445
35.1616
-3.01446
-1.68056
31.8708
1.12134
-190.083
0.992302
-0.11903
68.5552
-1.74228
-5.34388
1.43216
2.11549
0.333044
-0.302683
160.349
-0.431989
-0.404237
13.4212
38.8012
-0.0550003
-57.4325
0.32662
-0.194963
0.0800344
21.1447
7.16623
11.3322
-4.74338
-2.57529
-1.09873
-1.62032
-2.73573
-1.49493
-5.04085
45.1612
-13.9183
0.924564
3.05977
-10.8018
0.938387
-1.15649
0.0403319
86.406
21.7372
1.23825
-1.51236
0.0140226
-20.8189
0.116314
2.11364
-26.9593
-1.77215
-8.19114
30.9089
-228.875
0.223618
0.076253
-18.622
-0.927309
-0.0732807
-0.451844
-0.374985
1.69961
0.837596
-51.9972
1.75753
0.405083
208.696
16.8389
-0.966796
54.9828
0.0518518
-10.1435
-3.26926
-1.83658
3.89204
0.824242
15.1084
-2.13918
-0.373271
-0.92432
-0.246611
-2.90335
-10.0107
1.40295
8.28312
-1.76303
0.0507789
-0.049427
14.0828
271.782
32.8472
-22.7895
-0.0266129
-0.46277
1.7031
0.0798689
1.34357
4.30032
-60.0192
0.83409
37.8991
-0.749173
97.2315
-1.1701
-1.66197
-0.413276
-2.2616
-4.489
0.10945
-0.473621
0.932168
-3.02889
-15.9095
-0.82074
75.8656
-4.62093
-399.872
0.186496
-27.6102
0.951387
5.09147
-0.385618
-14.7193
-9.36161
1.0985
3.38541
-1.08954
-82.2062
7.39352
0.334113
-0.0875251
-0.0114575
-261.905
-0.382772
-197.996
-0.57072
-0.382487
-0.0996082
-5.78761
-0.018932
0.723359
-3.90296
-22.5528
20.0556
-3.63069
1.11381
-3.93511
-5.22687
-282.541
-2.63076
19.7176
8.19289
-14.5202
0.26558
3.00697
4.63662
-12.4219
0.172623
-1.51341
0.345328
0.3782
0.00127726
93.7655
16.1395
-0.0199532
0.786011
-20.7806
200.775
-21.0392
-1517.58
5.01494
102.722
-9.37515
-2.02032
243.802
-2.30882
0.272271
59.5567
-0.196215
40.2424
-0.395858
140.07
0.0235552
0.0466413
-17.7998
-0.0992453
1.57723
2.31969