/*--------------------------------*- C++ -*----------------------------------*\
| =========                 |                                                 |
| \\      /  F ield         | OpenFOAM: The Open Source CFD Toolbox           |
|  \\    /   O peration     | Version:  v2012                                 |
|   \\  /    A nd           | Website:  www.openfoam.com                      |
|    \\/     M anipulation  |                                                 |
\*---------------------------------------------------------------------------*/
FoamFile
{
    version     2.0;
    format      ascii;
    class       volScalarField;
    location    "350";
    object      ddt0(gammaInt);
}
// * * * * * * * * * * * * * * * * * * * * * * * * * * * * * * * * * * * * * //

dimensions      [0 0 -1 0 0 0 0];


internalField   nonuniform List<scalar> 
13851
(
-5.46873e-09
2.99219e-12
4.12778e-08
7.50821e-09
5.49921e-10
3.59829e-08
-2.23258e-14
-1.7834e-12
-1.67857e-15
9.04495e-07
-1.13127e-11
1.23867e-14
6.40147e-05
2.54716e-15
1.10458e-15
9.74916e-15
1.52911e-15
-1.99575e-10
0.000151272
2.73445e-14
2.16664e-09
-4.62795e-08
2.42903e-14
2.50329e-14
-3.92743e-15
-7.31153e-12
-1.29476e-14
-3.92903e-11
1.48542e-09
3.25404e-14
1.17333e-07
-4.17393e-14
1.09635e-07
2.74625e-14
2.01189e-14
1.45636e-05
0.0472317
-6.58961e-07
1.71807e-05
8.17797e-15
-3.51909e-15
3.47911e-12
-1.99281e-15
-9.73857e-14
-1.83618e-14
3.75496e-14
5.60698e-16
-2.45953e-11
1.50197e-14
-1.78048e-11
3.52557e-11
2.96071e-06
-3.78903e-15
-1.24451e-14
-2.91001e-16
3.15839e-12
8.34403e-16
-1.35815e-14
1.06868e-14
3.02163e-14
1.07955e-07
-4.71937e-15
-8.02586e-05
-5.3977e-09
-2.38104e-07
-1.30144e-07
0.00231366
3.77389e-15
6.31152e-15
-3.66699e-11
6.97477e-15
-0.00018192
5.19002e-12
-1.12928e-14
-3.47739e-15
9.16582e-12
-7.32982e-09
2.24759e-14
1.67111e-12
-5.55499e-15
-1.16569e-14
1.57337e-14
2.09162e-15
-1.04918e-14
-0.000285906
1.49433e-14
1.41297e-05
-1.88481e-06
-1.52828e-14
-1.00861e-10
5.78052e-05
3.32494e-07
-1.02156e-14
1.42406e-14
-1.91831e-15
-3.02482e-15
3.56851e-10
-2.85415e-12
4.11776e-10
2.40778e-15
-2.22733e-14
-5.81609e-12
-4.21045e-16
2.16562e-14
2.10592e-14
-7.98712e-07
5.77481e-11
-5.66401e-13
1.91519e-07
-4.7514e-08
5.1472e-14
2.21244e-09
3.37278e-08
-1.33608e-14
-4.69789e-15
1.63482e-13
-3.03666e-11
-1.30917e-14
-1.17082e-14
-3.32825e-15
-1.21627e-14
-2.61697e-14
-1.94978e-05
-1.43969e-14
3.64432e-09
5.06125e-08
1.9606e-10
7.95416e-14
2.1446e-10
5.43394e-08
1.78747e-15
2.28099e-14
-7.64272e-15
-9.11053e-15
4.34529e-13
1.02971e-14
4.40378e-14
0.000603843
-7.31524e-16
-2.08324e-15
-6.86793e-15
3.13149e-14
-2.3069e-09
3.05323e-11
3.53463e-14
-8.25938e-14
-4.55826e-07
9.32107e-08
-2.48074e-15
-3.49133e-14
5.36725e-09
-2.49635e-14
9.45792e-15
-3.94974e-14
-1.90558e-14
-5.61314e-15
2.22616e-14
-8.34225e-16
6.31426e-07
2.29551e-09
-3.23695e-10
1.20055e-14
3.42011e-14
1.24462e-14
5.32235e-14
5.08666e-12
-1.44832e-07
-1.2397e-14
-1.46462e-10
-1.62956e-14
2.7081e-14
-2.3577e-15
-3.21857e-15
1.69862e-16
-2.16219e-16
-2.92183e-10
2.61194e-12
2.55041e-10
0.000151376
1.59196e-12
1.47119e-14
-1.35075e-06
1.81396e-14
-2.03346e-08
5.41752e-15
1.22172e-14
2.12116e-08
9.47822e-15
-6.172e-10
1.06423e-08
1.79525e-14
9.16489e-15
-2.66797e-08
8.18336e-15
-4.41961e-13
-1.44001e-15
-5.05256e-09
1.75494e-14
-3.07088e-09
6.45722e-12
2.71738e-07
2.95471e-14
2.68606e-14
-3.70908e-15
6.35449e-08
-5.12825e-15
2.1022e-14
1.00203e-14
3.63478e-15
-3.88875e-12
-2.51015e-11
-1.58858e-14
2.61405e-15
9.24518e-13
-1.18445e-10
4.6588e-10
0.000522785
-1.01127e-15
1.33105e-14
9.56448e-15
2.33988e-14
-5.5124e-15
7.18088e-11
5.14038e-07
-4.03816e-14
-1.68349e-14
3.16596e-15
-7.79691e-15
1.33374e-14
-2.22365e-13
-1.92539e-12
1.76772e-10
1.90393e-14
-1.77568e-08
4.29137e-10
2.35414e-07
2.44367e-14
6.5053e-07
-1.20254e-10
-2.01498e-15
2.02427e-08
-5.40459e-10
2.21006e-08
-1.67785e-07
8.62898e-15
-1.6742e-14
-1.5298e-11
2.3817e-14
-2.21116e-14
2.34433e-16
3.70234e-06
6.90966e-10
-4.01031e-14
1.44164e-15
-2.19658e-11
7.74033e-12
4.92588e-09
-0.000143057
2.08542e-14
1.25738e-15
-5.79625e-11
5.85014e-11
-3.84364e-13
-8.62894e-10
0.000600765
2.08367e-14
2.12033e-15
2.39284e-14
-5.76999e-09
-5.96067e-06
-2.42752e-06
2.19155e-16
3.90206e-11
-1.47179e-12
-3.5737e-15
1.80643e-14
1.45891e-14
1.38526e-08
3.56923e-14
-1.37548e-12
3.63547e-08
2.45472e-12
-1.75193e-14
-8.15315e-12
-4.34982e-14
1.30431e-11
-4.43439e-13
2.39775e-15
-1.19991e-11
1.08633e-14
2.10246e-08
-1.40267e-14
-7.42044e-15
-2.94619e-14
2.2181e-14
-0.00116372
1.52722e-14
-1.94028e-13
-1.46747e-14
1.35654e-14
-9.45304e-15
2.82221e-15
2.47237e-13
1.74068e-14
-2.46472e-06
-8.13693e-13
-9.313e-14
-8.35958e-13
7.75717e-16
-1.51784e-14
-8.89168e-15
-4.29611e-14
2.93037e-15
3.43117e-11
3.84088e-12
-1.56976e-14
1.05301e-06
9.50153e-13
6.66695e-06
-8.94512e-17
1.58739e-11
3.81205e-15
1.33546e-14
2.16778e-05
-8.66849e-15
-1.27762e-12
3.28835e-06
4.0028e-16
-1.72238e-14
-7.0848e-15
2.11395e-14
4.04504e-14
1.41578e-13
1.80117e-14
-5.11463e-15
-1.55641e-09
1.62698e-12
1.99464e-06
2.86631e-14
2.39349e-15
-6.05366e-08
3.22113e-09
5.27388e-05
-4.78886e-07
-0.000106408
1.14175e-07
2.37924e-12
-2.48869e-15
9.73886e-16
2.12276e-05
7.57191e-05
0.000213011
1.16492e-14
-0.000165353
-1.43445e-14
1.99699e-15
-1.84769e-12
-7.3988e-13
-1.47107e-15
1.073e-14
-3.76196e-13
1.34977e-14
2.19928e-13
-1.80704e-14
-2.14174e-14
1.39607e-15
2.80269e-11
1.25197e-13
-3.99326e-13
4.39559e-13
4.19397e-15
-2.71848e-14
0.0010799
2.76851e-14
-1.04679e-13
-1.3236e-14
-2.58168e-14
-3.55175e-06
-3.69913e-14
-1.7051e-14
7.66609e-15
-4.47665e-08
2.88187e-06
-1.40525e-14
-2.01122e-07
2.64666e-08
2.21608e-06
-3.93852e-15
-4.64408e-15
3.81116e-10
1.67328e-11
8.41131e-15
-1.60845e-14
4.11612e-14
2.00264e-14
2.05688e-11
6.78429e-15
3.20261e-14
-1.63403e-14
1.27104e-09
-6.17672e-11
5.38233e-06
-2.76953e-14
1.51038e-14
0.000152163
-1.26659e-14
5.24114e-16
9.78034e-07
-3.85903e-14
-4.23103e-14
-5.74946e-14
1.50656e-12
-6.8636e-09
-2.40003e-06
3.04907e-14
6.07946e-11
2.46312e-11
2.26917e-05
2.49211e-10
-2.11872e-15
6.81056e-06
-6.92741e-16
2.31467e-10
1.85113e-14
-3.53888e-14
-9.74574e-16
-1.74748e-06
-1.04691e-15
1.06298e-07
1.12956e-05
-9.14844e-15
1.35679e-14
-1.04816e-05
3.22808e-16
-4.1509e-11
2.92747e-15
1.26716e-11
-1.08469e-15
-1.08793e-08
-3.69272e-14
-1.89837e-08
-2.77396e-14
9.38403e-10
-2.44645e-10
2.21599e-14
-2.906e-14
4.48072e-15
-3.6383e-15
5.80336e-12
-1.20067e-06
2.39912e-15
1.27e-14
-1.6699e-09
8.1078e-07
-7.29276e-10
-5.16368e-15
8.95851e-15
-1.42875e-12
-9.50936e-15
9.49953e-12
7.25202e-13
4.33e-07
-1.29052e-14
-4.94063e-09
2.15402e-15
8.49479e-11
-2.38839e-14
-2.56902e-12
2.92893e-09
-2.96572e-09
2.14659e-14
-1.56883e-14
3.03923e-15
1.16007e-05
-2.55185e-09
2.11926e-15
1.66673e-14
1.89598e-14
1.10799e-14
-3.78118e-10
-1.72173e-14
-1.83692e-06
-1.68055e-15
1.46714e-14
1.38298e-14
-3.26768e-15
-2.70207e-14
1.53216e-05
3.21445e-14
2.60381e-11
1.15021e-14
-1.3381e-12
-1.92158e-14
2.79293e-14
-7.88269e-10
2.77813e-16
-2.06202e-14
9.68596e-16
-3.60647e-14
1.86044e-09
3.12096e-12
2.16682e-06
1.53524e-14
1.25877e-11
-1.26142e-14
-6.41761e-15
2.73458e-14
-1.97575e-15
-3.32134e-14
-1.32644e-14
-2.01224e-14
1.70951e-14
-2.72397e-10
-8.92969e-06
0.000790985
-0.000331742
-4.83136e-10
-1.15551e-05
-1.69443e-15
-1.09689e-14
-3.66449e-15
-2.23133e-11
3.95249e-16
-9.07582e-11
8.41983e-15
-7.34272e-15
-7.7507e-15
2.08304e-14
9.01466e-14
-9.85347e-07
-4.92888e-14
-6.50973e-10
1.13891e-10
2.53682e-15
-1.61702e-09
2.95825e-15
-3.65898e-11
-8.38293e-05
9.37642e-15
1.74226e-09
5.03996e-10
-5.70269e-14
2.29342e-14
1.35968e-15
-1.11454e-14
4.11943e-15
8.8904e-10
3.34034e-09
1.62617e-06
1.79845e-14
5.44122e-15
4.93085e-15
-2.45089e-15
-3.0871e-08
1.47615e-14
1.73086e-14
-8.53228e-13
-3.74756e-14
-1.09381e-09
4.02884e-07
-2.79298e-14
-3.96953e-08
-0.000407696
5.13829e-13
2.02634e-06
1.52961e-13
0.00253185
-2.7824e-07
-1.02261e-15
-7.75664e-06
-1.99389e-15
3.0896e-15
9.44768e-08
1.09605e-13
6.60752e-06
2.70788e-14
3.39584e-06
-6.99212e-13
-2.32638e-14
-2.8486e-07
3.65876e-13
-9.57877e-16
2.04663e-12
6.50157e-15
-9.94478e-06
-2.92832e-09
2.97672e-06
-8.09386e-13
2.09378e-14
-1.45955e-14
1.07223e-14
-1.29886e-14
-1.45718e-09
2.17787e-14
-2.14939e-14
8.00759e-16
-7.34775e-15
8.03308e-15
1.02529e-14
2.81319e-14
-2.42828e-14
-5.8569e-16
8.43275e-08
2.47924e-15
1.62233e-13
2.95223e-07
-8.25881e-15
1.51928e-08
-1.60941e-13
-3.60131e-08
1.10388e-14
-1.74751e-15
-1.53976e-15
4.09976e-08
3.18927e-14
3.60745e-10
7.0971e-15
-8.77975e-09
9.73073e-15
9.51756e-15
-2.98613e-08
4.70968e-16
-2.62971e-14
5.19e-13
-5.35732e-16
7.72706e-10
-2.04886e-06
7.19211e-07
-4.05127e-14
1.07517e-05
-2.26421e-14
3.17965e-07
9.31219e-06
-2.86296e-14
8.54305e-15
-1.73716e-15
9.06547e-07
2.98353e-14
4.50443e-14
1.9369e-14
4.84852e-14
-5.42338e-07
1.69764e-15
3.20997e-05
6.72103e-08
-4.93956e-15
1.36265e-14
-1.84195e-14
-8.36189e-07
1.39261e-09
6.66584e-10
-3.76785e-13
-4.79888e-11
1.31592e-09
-1.23019e-10
-2.58013e-16
-2.37823e-16
1.73264e-15
-1.51055e-07
-6.2712e-14
-2.25421e-11
9.22026e-15
7.90765e-08
-5.60508e-15
-1.05514e-15
1.77424e-14
-0.00227744
-4.72162e-12
-1.99155e-15
-8.97573e-13
1.64492e-17
1.3603e-14
7.48555e-08
1.66258e-14
6.84449e-15
-6.29577e-14
-3.56267e-14
1.41768e-14
-2.45934e-06
2.8049e-14
1.7979e-14
-2.70474e-14
2.78665e-14
-6.69091e-12
1.83345e-11
1.91146e-11
2.30785e-14
1.16515e-15
-1.63287e-14
-1.10946e-15
3.23689e-14
-5.35578e-15
3.41896e-11
8.89751e-14
5.22907e-06
6.41084e-16
2.74079e-14
-2.0222e-12
2.6471e-14
-7.34023e-10
0.00188553
-2.02813e-08
1.00588e-12
3.34741e-15
-3.96437e-15
-5.27463e-05
5.90024e-07
1.4018e-14
6.46339e-14
8.01643e-15
5.96259e-16
-1.18896e-14
-0.000179761
-1.6124e-14
-1.23481e-13
-4.90094e-09
1.28643e-14
-1.24215e-15
-1.53774e-14
9.32178e-14
2.06371e-14
5.7289e-12
2.57435e-14
2.68866e-15
2.89539e-15
-4.98688e-06
2.68838e-08
5.05778e-09
1.47508e-14
-8.41198e-10
-8.42319e-07
-2.49014e-07
-2.05317e-14
1.98257e-14
-3.88043e-06
-6.67504e-08
0.0322798
-1.30379e-14
2.32048e-14
-3.985e-15
-2.10425e-14
-1.72382e-15
-1.42904e-14
-4.34672e-07
-4.14307e-06
5.67568e-09
9.64968e-15
1.37158e-11
1.93596e-14
-5.97114e-07
4.21186e-14
-2.04661e-14
-2.54852e-14
2.10075e-14
1.39653e-14
-1.75359e-13
-1.54314e-06
-6.49473e-15
-3.63169e-14
8.82241e-15
1.79571e-08
9.1133e-10
-1.6592e-08
2.74204e-14
-1.21144e-14
3.77538e-11
-3.22573e-12
-1.47609e-14
-1.29539e-10
-1.8819e-14
2.61684e-14
-4.89558e-08
3.60681e-14
-2.85239e-10
-4.03445e-15
1.14123e-14
-4.14715e-13
5.74638e-16
-8.87947e-07
2.47516e-09
5.28899e-14
3.49793e-09
2.71421e-14
3.34851e-08
-6.98032e-08
1.43381e-15
1.30969e-09
1.04183e-13
-4.08522e-14
1.05191e-09
4.16665e-08
3.76133e-12
-1.38887e-14
1.25716e-14
0.000316529
2.24639e-15
2.47712e-14
8.84134e-05
3.37852e-12
-5.16955e-15
6.18218e-13
2.91184e-09
2.58239e-12
1.40491e-14
1.88139e-10
3.27325e-14
1.56171e-14
-1.60185e-12
-2.0722e-14
9.28254e-10
-2.53692e-13
-1.96333e-12
3.58837e-14
-1.2406e-14
2.72509e-14
-2.50622e-14
1.00273e-14
6.80924e-09
1.24923e-15
9.23523e-15
-2.0324e-14
-0.00201296
-3.96285e-06
1.49554e-08
9.18921e-15
-6.16593e-05
-1.74601e-12
5.7726e-11
3.14286e-13
1.30879e-15
-1.84183e-15
-1.47879e-13
1.89781e-11
-1.91678e-14
3.15274e-06
2.33721e-14
-6.76477e-15
-3.86557e-12
3.02422e-14
1.50924e-14
-7.86292e-15
-6.95601e-15
-1.93405e-14
-1.6952e-14
3.2008e-14
-4.92938e-15
1.74828e-14
-5.9793e-13
-1.48286e-09
1.27243e-14
-2.12351e-06
8.88483e-15
-1.00601e-14
-9.98146e-14
5.34276e-13
2.0175e-10
-3.15482e-14
-8.85775e-10
-8.43017e-12
3.86667e-05
-2.81078e-14
1.36092e-14
-5.35241e-10
-2.51488e-14
1.31351e-13
2.22552e-15
-1.19502e-12
-2.58167e-14
1.17427e-14
2.01309e-09
6.39478e-06
2.31108e-13
-2.42335e-14
8.27961e-15
3.76605e-12
-3.05514e-14
-3.59696e-15
-8.34989e-15
-4.22381e-05
3.46441e-16
-2.78578e-14
1.23944e-14
-1.77718e-14
4.70628e-10
5.64414e-15
5.93646e-08
-7.2338e-15
9.40745e-09
2.27085e-13
1.43724e-14
2.25938e-08
-1.2169e-13
-3.01337e-12
-2.87484e-14
1.56138e-14
3.07678e-05
-8.04273e-15
-4.46995e-08
-2.22165e-11
-4.10606e-14
3.49908e-09
3.526e-13
1.02832e-15
3.52233e-14
1.49372e-15
-6.49327e-15
-1.67394e-14
1.51892e-15
4.07492e-16
3.32131e-14
6.05949e-14
-5.43913e-15
4.83539e-15
1.45182e-15
1.65711e-14
1.58187e-11
2.27597e-14
4.26942e-15
2.30761e-06
2.68218e-14
6.41467e-16
1.47828e-07
4.89818e-10
-0.0696319
1.20257e-15
-3.6642e-15
2.80121e-14
-6.35139e-15
-1.2566e-08
-1.40503e-14
3.38833e-10
-3.97064e-16
-1.96212e-14
2.86816e-13
1.10369e-14
-1.70556e-13
1.69453e-12
7.23139e-15
-2.49351e-14
2.25907e-14
1.22137e-14
1.59867e-15
-1.51832e-16
5.66612e-07
-0.00143847
-9.03164e-16
-4.73735e-15
3.49939e-05
-3.0709e-15
-1.60513e-16
9.44856e-08
-2.07158e-17
-0.00464531
-3.47929e-15
-0.00435636
1.06896e-14
-7.83295e-09
1.26277e-14
1.27023e-14
-5.2324e-17
3.09298e-06
1.16209e-14
-1.61639e-14
2.18972e-08
2.88951e-14
2.15947e-14
1.43902e-14
1.37424e-15
-1.45708e-14
-7.91695e-12
-1.83067e-05
-1.23846e-11
-0.0012671
-1.59916e-14
3.76273e-14
-1.2956e-14
-6.95393e-17
6.71673e-15
1.59743e-08
-1.1029e-14
-1.04073e-14
-2.8581e-14
8.82643e-15
-3.12978e-14
2.11364e-14
-0.000112576
9.50276e-15
2.3958e-16
1.2897e-07
6.92571e-14
2.98483e-16
1.53691e-05
-1.51678e-11
1.94912e-11
1.45147e-14
7.41225e-09
9.42625e-15
7.51636e-07
1.94372e-11
-1.9056e-09
-0.000179765
1.22467e-14
-5.93718e-15
7.41433e-15
-0.000367784
4.75208e-06
-1.57726e-14
-2.73323e-06
-3.95762e-13
1.52422e-14
8.64097e-09
-7.92434e-10
2.46922e-12
4.90004e-15
0.0266992
5.35537e-13
6.84354e-06
1.67152e-14
-1.09342e-10
-6.7e-14
-2.71544e-14
3.77864e-13
8.96629e-15
2.04282e-14
1.52015e-11
-9.28789e-09
-7.25342e-13
5.63408e-12
-1.83793e-15
-2.30157e-14
-0.00127134
-8.23778e-08
-1.52995e-09
-1.13232e-14
1.72509e-11
0.000961949
-2.59119e-15
-1.41818e-14
7.91231e-07
-1.20606e-08
1.28782e-11
1.13554e-13
-8.31154e-15
1.54158e-14
-1.22124e-14
6.17779e-15
-1.11967e-06
2.8353e-15
-1.15004e-14
3.46059e-11
4.50829e-16
-1.99415e-15
-1.20946e-14
1.02299e-13
-1.38989e-06
9.19923e-12
5.33766e-14
1.48323e-05
-1.32602e-14
1.40756e-14
1.82624e-09
-5.41066e-07
-4.05698e-16
-2.51017e-08
-4.07737e-09
-2.23879e-08
2.82552e-08
-4.94487e-06
-7.12012e-15
1.60343e-15
2.95235e-15
2.73186e-14
5.94735e-06
-1.25387e-12
-1.34556e-14
-9.17683e-15
9.77059e-16
-1.15236e-14
1.4462e-14
-6.16787e-16
2.63194e-11
9.28177e-06
1.73469e-10
-1.28562e-14
2.72209e-14
4.12671e-14
-2.3318e-10
-4.03798e-10
3.36956e-09
-2.13989e-15
-1.5992e-09
2.86427e-15
2.18592e-15
2.32313e-08
2.89207e-15
5.69368e-10
-0.000118285
-6.90915e-11
-1.4682e-14
-4.37695e-16
1.77326e-11
-2.37518e-11
5.08987e-08
-1.32269e-08
-2.09925e-12
-0.0012982
4.75114e-11
-6.93641e-13
-1.73938e-14
6.5352e-12
9.46927e-15
-9.55309e-08
7.80593e-10
1.56835e-15
3.65211e-06
-1.61433e-14
1.31051e-15
-9.06901e-07
2.7419e-15
-6.29897e-09
-3.50113e-15
4.45885e-05
3.42277e-15
-1.23375e-11
0.00509976
-2.65859e-14
-8.54653e-06
-2.55139e-15
1.12252e-05
2.30775e-06
-2.69695e-14
-4.1411e-15
-1.28099e-15
5.06629e-05
1.24228e-14
-5.7683e-16
-2.5237e-14
1.02368e-14
-1.12606e-14
2.68135e-05
-1.16419e-15
1.81958e-09
4.68635e-07
2.73114e-14
0.00628482
1.50958e-13
-8.91725e-15
1.21757e-07
-1.3955e-14
-8.67047e-15
-2.28413e-05
-1.24236e-14
-1.95322e-15
-1.2791e-14
6.09072e-13
-8.3386e-12
-2.06616e-08
-4.07805e-14
4.5245e-14
-6.41847e-15
3.83395e-10
-7.83938e-16
5.10852e-15
5.42082e-15
7.35337e-11
2.61762e-10
5.92675e-09
1.09507e-14
2.72086e-16
-8.39058e-12
-1.72203e-13
-0.000447891
7.93476e-16
-2.51094e-07
-2.03839e-16
-5.37665e-09
-1.24267e-14
3.83969e-16
-2.10752e-10
2.13284e-14
-1.09124e-14
0.0276908
6.1105e-16
-9.16572e-08
-1.70729e-16
-3.80886e-08
1.09461e-06
-1.10609e-14
1.52541e-05
4.93926e-15
-2.34986e-14
-4.53382e-05
-2.04759e-14
-2.579e-14
-5.24419e-10
-1.1596e-14
3.60633e-16
2.45023e-13
2.77073e-14
-1.15487e-14
-5.01704e-14
5.27274e-07
-2.04068e-13
-1.29819e-05
-5.90788e-05
-1.16613e-05
-4.30284e-07
4.19454e-11
-4.49888e-14
5.94652e-08
-4.92772e-10
6.11993e-15
-8.60172e-07
2.31736e-15
9.47214e-15
-2.93522e-12
8.98625e-15
-2.66534e-15
2.37249e-14
-2.61176e-07
-1.76352e-15
-9.54238e-09
1.47627e-06
2.73909e-15
-8.79979e-07
1.9054e-09
5.89986e-09
1.81819e-14
-8.91291e-13
2.15911e-15
4.8385e-10
1.31309e-10
-2.93414e-12
-1.83131e-15
3.66944e-12
1.72486e-14
1.30749e-14
2.87751e-15
-3.52307e-17
-1.69011e-14
-0.0019691
2.58839e-14
-2.81568e-15
2.77072e-14
0.000447611
-1.04635e-11
-6.35686e-15
8.32603e-13
6.29781e-05
-2.82441e-14
1.75178e-11
1.30821e-14
4.12518e-16
1.62966e-14
2.54762e-14
-9.81274e-16
-1.05267e-13
-1.51178e-09
-2.55448e-06
4.83351e-15
-5.9148e-13
-1.9133e-16
1.78465e-05
3.84982e-09
-2.86561e-14
1.62569e-13
-1.20437e-14
1.85816e-05
1.47347e-14
-2.31735e-14
-6.67892e-09
-2.11428e-14
5.95136e-07
3.10709e-14
1.471e-14
-4.87186e-12
-2.90081e-14
4.87959e-07
1.45221e-07
3.21202e-08
5.80959e-06
1.33031e-14
8.95176e-15
1.15103e-15
-1.39798e-09
1.08579e-15
-2.09388e-09
-1.45925e-15
-4.34898e-11
-9.5828e-09
2.85839e-12
1.56977e-15
-8.66731e-08
-1.14813e-07
-1.86644e-14
-8.39798e-10
-1.94893e-10
0.00460248
-2.75527e-14
-2.06573e-14
1.63373e-08
1.04644e-14
3.03977e-11
-2.76141e-05
8.06197e-15
-1.35963e-15
-8.86697e-11
-8.13489e-07
0.000245076
-3.17832e-15
1.54592e-14
-2.8361e-14
-8.05237e-15
-3.50821e-11
-0.0145401
2.03442e-12
3.2301e-14
1.43543e-07
3.89012e-15
-1.26494e-14
-8.55702e-06
5.66295e-13
-1.54138e-06
-2.60365e-14
-1.5092e-14
1.5073e-10
-1.46862e-12
-2.53589e-15
4.14893e-05
7.21149e-09
9.81865e-15
4.85353e-14
-1.33707e-14
-3.1676e-12
1.24576e-14
1.33196e-05
2.16395e-09
-2.57447e-05
2.44242e-14
2.07072e-15
-5.36625e-15
-1.66804e-14
-0.00288712
1.07645e-11
8.40393e-15
2.21904e-14
-1.4921e-05
6.07286e-08
-8.71579e-15
-2.50615e-08
2.70572e-14
-2.50461e-15
-1.87081e-07
-1.58966e-14
-4.31906e-09
-1.50313e-10
8.75219e-15
1.1091e-11
-2.41747e-05
-1.62396e-14
-1.4188e-06
2.34239e-11
-1.55407e-14
-1.82565e-09
-2.16885e-15
-2.24196e-08
5.01047e-10
4.09133e-08
-3.03364e-09
9.21671e-10
7.60475e-15
3.62322e-09
6.4539e-13
2.00382e-14
3.32819e-13
-0.00279186
5.39276e-14
-1.7848e-14
1.30027e-07
1.83356e-14
-4.92337e-14
5.58522e-15
-1.41146e-11
-2.93197e-14
3.91641e-14
2.4458e-13
-2.42627e-10
-3.48679e-09
-9.29094e-15
-0.00608247
2.52393e-14
1.46131e-11
2.12997e-14
-1.28957e-14
3.70666e-06
-2.40355e-17
-2.30833e-14
-1.44142e-15
-9.21918e-09
-9.68473e-13
6.865e-15
8.11534e-09
-1.96573e-15
2.11582e-13
6.95518e-14
6.53615e-14
2.85917e-14
2.89144e-14
-1.94207e-13
9.85592e-11
9.12433e-16
-1.08301e-14
-1.31763e-13
-6.4022e-08
-2.63296e-14
-3.52713e-10
-5.86292e-12
1.89956e-05
8.94936e-09
-0.00251409
-4.99328e-15
-2.72463e-05
-1.9754e-13
2.18357e-11
3.61686e-08
-0.000162653
-0.0512616
-6.73377e-17
-3.0461e-14
-4.40428e-15
1.18624e-09
-8.26442e-15
1.26206e-05
-1.62294e-14
1.14874e-14
1.06639e-14
4.19506e-06
1.14671e-08
9.7112e-15
-2.50233e-11
8.83517e-15
-1.19702e-09
-4.06476e-14
1.65395e-14
1.24455e-10
-2.97815e-15
4.05854e-09
-1.38096e-15
7.79252e-10
2.91095e-14
-2.0792e-07
-3.54205e-14
1.05113e-12
-8.29467e-15
4.73808e-13
-4.45591e-15
-2.60343e-15
-6.70047e-15
0.000177463
-5.03758e-14
1.37364e-14
1.51156e-11
-2.57523e-14
-2.36308e-14
9.76081e-15
-2.24472e-14
4.79023e-08
7.29187e-08
1.25568e-15
-7.14021e-10
7.57643e-11
-2.32783e-14
1.30453e-09
-3.03393e-11
-1.07976e-14
1.27749e-07
-3.38108e-14
9.87477e-10
-1.13236e-07
2.07671e-12
-8.20545e-15
-7.36561e-15
2.2705e-05
4.46445e-16
-4.35309e-14
9.39807e-15
2.4832e-14
9.07713e-15
6.19548e-15
1.00766e-06
3.57826e-08
-2.64191e-14
5.4717e-15
1.42225e-14
1.33899e-12
1.31325e-14
1.26149e-14
3.45042e-14
-2.13873e-12
9.74495e-13
-1.2703e-14
1.88502e-14
2.49986e-14
2.2802e-15
-2.95199e-10
5.1655e-15
-7.24707e-15
1.03171e-14
2.55936e-15
-2.08505e-11
-0.00432403
-5.7919e-15
1.96051e-15
-0.00133655
4.13544e-07
5.22814e-16
-5.89692e-14
-1.12221e-06
5.14473e-15
0.0130041
-2.16468e-14
-2.43e-15
-1.90606e-05
-2.62454e-07
8.34527e-13
-1.85604e-14
-3.40504e-15
-2.63699e-13
1.14967e-14
6.48399e-10
2.13788e-14
-1.49787e-14
-5.65404e-10
-1.33927e-14
-2.76155e-13
4.89231e-15
2.93787e-09
2.36428e-14
8.18165e-08
1.63466e-15
-8.62322e-16
1.97526e-14
8.44714e-15
2.83294e-14
1.47036e-07
7.53495e-15
-6.75372e-15
-1.42847e-15
1.21162e-14
-6.46043e-14
-3.77592e-14
1.17663e-14
-1.00432e-14
-3.76844e-14
-3.52027e-10
-4.74954e-10
9.66093e-16
1.53244e-05
-3.21946e-15
7.93758e-15
-6.59748e-14
8.40896e-10
3.54102e-14
-4.64995e-14
1.46903e-10
1.23259e-15
-2.23975e-14
-2.73705e-14
6.68114e-14
7.94029e-09
-1.66076e-14
1.32064e-14
8.57668e-05
-2.10748e-15
2.00834e-14
1.43074e-14
8.71152e-16
3.05303e-14
-7.21871e-13
-2.22033e-07
2.66613e-07
-4.11682e-14
-3.57823e-06
-1.4963e-06
3.604e-16
-1.74924e-08
-5.14297e-15
-4.31421e-07
-7.75222e-15
5.98922e-11
1.09855e-15
-5.82748e-17
-2.044e-14
-2.18347e-16
1.44326e-11
1.27106e-10
7.36066e-16
-2.89499e-14
-2.88389e-15
-8.84688e-15
-1.38539e-14
-1.85091e-14
0.000134929
-1.70193e-09
1.1223e-15
-1.27303e-14
-2.22681e-14
-9.16378e-15
1.91359e-14
2.58824e-16
-3.65803e-14
2.45159e-08
-5.14802e-11
1.62952e-14
3.3e-15
-5.74854e-08
-3.2429e-15
-1.07761e-15
-1.6517e-13
-7.22227e-09
1.35993e-08
-9.20788e-15
-3.05358e-14
8.13457e-13
5.30916e-10
8.16411e-11
-1.62213e-08
1.58657e-07
1.41543e-14
1.09063e-07
1.33117e-10
-2.76631e-14
-1.07827e-10
2.2197e-14
-2.51581e-14
-2.80009e-14
1.64419e-14
1.62106e-09
-5.53225e-16
-2.36159e-14
2.72897e-08
-4.0363e-11
-2.75039e-10
-1.23055e-14
1.0391e-05
-3.33771e-12
-2.10348e-14
-1.78664e-12
3.44586e-14
-8.33832e-15
1.71758e-11
-1.67144e-15
1.20564e-14
-5.20126e-06
1.14677e-14
-0.000355722
5.10263e-10
-1.01487e-14
2.22237e-14
-1.05812e-10
1.47301e-10
1.98069e-08
1.45096e-05
6.51616e-08
-1.85446e-13
1.39163e-14
1.7073e-10
1.21521e-14
-1.06716e-14
2.85387e-13
6.60778e-09
1.08678e-07
-1.58296e-09
-1.04434e-14
1.414e-14
-1.18021e-08
-2.22965e-14
2.19162e-14
5.52517e-15
5.34278e-18
1.25316e-14
5.91275e-14
1.24984e-15
3.6785e-11
8.66478e-09
-5.81433e-09
-5.64685e-08
2.55492e-15
2.37921e-14
-6.41736e-14
-6.29838e-06
-2.03118e-15
-9.38906e-15
-0.000755633
5.97148e-15
-1.62803e-11
-1.50104e-11
-6.14153e-10
4.26481e-08
-1.6643e-15
-7.80837e-15
-3.44922e-14
-1.90833e-07
-3.61396e-11
6.47915e-17
-1.03722e-14
1.96777e-14
-0.0158626
-1.11044e-14
-1.03424e-14
-1.59771e-06
1.08654e-14
-7.84103e-09
-2.70125e-07
1.88024e-14
6.75461e-15
1.4089e-14
5.03613e-07
-5.05305e-14
-4.27884e-15
1.49838e-11
-2.6242e-14
-1.85845e-08
3.47233e-15
3.35309e-06
-9.19812e-15
-3.98021e-09
9.86809e-12
-3.23834e-12
5.36347e-15
-9.67215e-15
-1.05245e-14
-8.20711e-15
1.57443e-11
-6.7355e-15
-7.78604e-15
-1.45096e-09
-3.18746e-11
1.06568e-14
-1.15169e-10
3.19979e-09
-4.50336e-15
3.67079e-10
4.41423e-16
-1.61415e-14
-1.39897e-14
-1.26364e-12
2.04456e-14
-6.74125e-15
-2.10499e-15
2.74052e-13
-5.66044e-15
-7.71485e-08
-5.79511e-11
-5.61521e-15
-1.06754e-15
-1.13244e-15
-2.23047e-14
-1.0921e-14
2.47093e-14
3.04298e-15
-1.1257e-14
6.01805e-12
1.28073e-11
-1.01291e-14
1.05729e-10
-1.61593e-15
-1.94108e-14
-5.16519e-14
-4.54997e-14
1.70014e-14
4.04088e-05
-3.99672e-10
-3.56227e-15
1.09829e-08
-4.45856e-10
1.35576e-09
-1.93933e-14
-1.72262e-16
3.07932e-06
1.04025e-14
9.77297e-10
-5.59046e-07
-2.58215e-14
-3.70783e-11
-8.66119e-16
2.46944e-14
-1.67306e-09
3.75343e-12
2.54862e-11
-6.96878e-15
2.45853e-13
-5.6644e-10
-1.73046e-10
-4.04723e-14
1.23007e-15
1.64288e-14
-9.79539e-15
4.34765e-14
2.19911e-15
-3.51628e-14
-2.75193e-14
6.10424e-14
4.02933e-14
-5.82185e-10
-5.90311e-15
1.77551e-14
-2.27947e-09
-5.09167e-08
-1.17794e-10
2.32212e-14
-1.70024e-10
-2.87524e-13
2.12275e-08
3.44958e-05
-3.62673e-08
-7.74108e-09
-9.18023e-15
-2.59704e-14
-3.50805e-14
1.41262e-15
8.22447e-15
-2.84233e-14
8.99035e-13
3.76326e-09
1.70165e-14
-4.8907e-10
-2.74291e-15
-0.000333187
1.16501e-14
1.10307e-11
-1.77596e-05
-9.34509e-15
1.62825e-15
1.82912e-10
3.03451e-14
-1.39768e-14
-1.21983e-09
-1.93359e-06
4.91968e-15
4.55455e-09
1.13732e-14
-4.5955e-13
2.05628e-11
-1.00903e-14
-2.99595e-14
-2.84233e-07
4.74277e-08
-1.5943e-14
-2.71593e-12
-7.34178e-13
-3.03536e-14
4.66131e-16
-1.2987e-08
2.17882e-05
1.64553e-14
3.40437e-15
2.60828e-08
-5.06333e-14
7.38912e-14
-1.50933e-06
2.27043e-15
-1.90505e-13
-3.69397e-15
1.5926e-11
-1.48807e-14
-1.01687e-14
0.000214908
1.69153e-14
-1.5945e-15
-1.32985e-15
7.03736e-14
-5.66908e-09
8.75336e-06
2.73367e-14
1.33476e-14
-1.21665e-08
9.53749e-15
-3.97563e-14
2.28716e-14
-1.99409e-06
-3.70215e-05
6.97997e-08
2.01931e-15
-2.87214e-14
-6.04534e-16
-3.75417e-15
-5.62259e-15
-1.48273e-09
-5.91025e-14
-1.35024e-14
1.5001e-14
-5.12215e-15
1.25849e-10
-2.7703e-15
-3.44764e-16
-5.26206e-12
-8.15424e-16
2.1952e-14
-3.35928e-16
-2.30362e-06
-9.97864e-15
2.06011e-15
1.22586e-14
-8.6162e-15
-1.25308e-14
8.98133e-09
8.59142e-17
-2.27432e-10
5.54403e-15
6.476e-07
-1.83085e-14
2.52598e-09
-1.18127e-12
1.49089e-14
-3.72384e-15
-1.11879e-14
3.41617e-10
-1.42223e-11
3.12414e-07
-2.21752e-14
3.68604e-14
9.46852e-11
8.2095e-08
-1.90249e-09
4.95104e-11
-1.84993e-13
-6.2489e-12
-3.54662e-12
-4.93503e-14
0.000301425
1.18283e-14
1.23067e-14
1.8376e-15
9.62236e-15
-4.33891e-10
-3.02862e-15
5.60413e-15
9.53429e-13
2.4573e-14
1.62993e-12
2.402e-14
1.21428e-14
2.46541e-14
-6.09338e-15
2.46115e-14
5.29333e-08
-2.11687e-14
-5.36033e-16
3.32689e-11
-1.2142e-14
-5.66654e-11
-2.7685e-12
1.39145e-09
-1.4124e-14
2.25675e-08
-1.05108e-14
-1.40881e-14
2.63781e-14
7.57213e-15
-1.26898e-15
2.73426e-14
-4.32957e-09
1.28529e-09
5.13211e-09
-9.39493e-08
1.22267e-14
-6.93254e-11
-1.70426e-15
-1.86807e-14
1.22707e-14
1.28074e-14
9.88065e-15
1.6797e-05
-0.0257332
8.90768e-06
1.5572e-07
1.32361e-14
-2.17472e-10
-8.13852e-10
-6.10337e-15
-4.54374e-10
3.10871e-12
1.16283e-11
-9.41671e-07
5.6062e-05
3.08174e-08
2.99039e-14
-8.76853e-08
5.88315e-09
-7.69262e-07
-6.01043e-15
-1.39701e-15
-1.53019e-14
8.63309e-09
-1.73998e-13
-2.04259e-06
-8.23696e-07
4.44418e-14
1.28403e-14
-1.39801e-09
-1.99832e-11
-1.6471e-14
2.5542e-15
1.15171e-14
-8.6282e-08
-2.72418e-11
4.88649e-07
2.05501e-14
2.30931e-07
1.09681e-14
-2.86428e-09
-1.63182e-11
8.32322e-05
1.57751e-14
-1.35396e-08
-1.6163e-06
1.16365e-14
1.32237e-13
-5.94813e-09
-3.271e-15
-6.42903e-15
-1.55069e-06
-0.00126958
-1.66072e-15
-0.00232286
-3.6259e-14
5.21358e-11
5.17135e-14
-3.36078e-14
7.03222e-09
2.11403e-14
1.40827e-14
-4.96272e-15
2.26855e-14
1.2252e-14
-1.27766e-09
-1.31616e-15
3.73009e-10
1.18668e-07
-2.88402e-05
2.47573e-15
1.00138e-14
-2.01243e-08
-1.1144e-14
4.0248e-16
5.17967e-12
-8.61988e-12
6.24786e-15
-2.22341e-14
6.07478e-15
3.95679e-15
-5.33668e-08
-1.29817e-11
-3.33367e-14
-8.09067e-15
1.37764e-13
-2.3627e-06
-4.35683e-15
5.26088e-14
2.4113e-14
2.59652e-14
0.000638665
-1.08756e-14
5.68751e-15
-1.40858e-07
-7.28376e-14
-5.2724e-09
-2.04864e-14
-3.368e-10
-0.00770108
3.79128e-14
2.55138e-14
-3.37019e-14
8.05979e-16
1.29751e-14
-0.000464775
-1.28465e-14
3.73934e-13
-3.60409e-08
-6.86295e-07
2.17774e-14
2.13612e-10
-1.45843e-15
-1.63249e-14
2.79097e-14
2.85616e-14
1.42433e-14
-2.39635e-14
-8.51573e-09
-4.17851e-17
-1.75824e-14
-5.92974e-14
-2.76956e-13
-8.57047e-08
-9.71497e-17
2.32664e-14
-3.91464e-12
3.69471e-14
-8.22673e-10
2.21191e-09
5.03767e-09
-5.81807e-16
-2.28353e-06
8.02369e-12
9.44746e-12
-1.33265e-14
-2.07096e-11
3.99223e-14
2.50041e-07
1.76777e-05
8.3449e-15
-3.15747e-09
4.21766e-14
2.8856e-08
8.70483e-11
3.16677e-15
-3.77637e-14
-2.02554e-14
-5.59366e-09
-2.42739e-09
-1.79558e-09
-3.3229e-14
-1.46541e-14
1.25414e-15
-7.44362e-09
-6.0442e-16
3.33321e-10
-3.88348e-07
-1.96983e-15
0.000104678
-7.51663e-15
-1.4753e-14
4.08343e-05
-3.80163e-09
-2.9216e-11
2.50011e-06
-1.19262e-14
1.17974e-05
-1.81311e-14
-2.54956e-13
1.26941e-14
1.32744e-14
4.79304e-05
3.29034e-14
2.44529e-14
-3.17384e-09
1.0206e-14
-1.86417e-14
-2.65912e-05
-2.88723e-14
-1.82463e-14
-1.67582e-14
8.10316e-07
-7.42444e-07
-4.91798e-16
2.55965e-08
-5.04679e-14
1.4359e-14
1.87912e-12
-7.27537e-15
1.49301e-14
2.70557e-06
-1.02742e-09
-1.30242e-14
-1.38889e-06
-3.81283e-15
-4.36691e-06
1.31014e-14
7.27227e-16
1.80385e-14
-9.95677e-15
4.19674e-15
-9.13849e-09
-5.49935e-07
-7.43922e-11
-7.11841e-14
1.42855e-09
-4.34769e-09
-2.13064e-10
-3.92732e-13
-2.31828e-14
-1.41302e-14
1.61193e-14
-2.0742e-15
-8.78811e-15
-3.97478e-12
-4.17816e-10
2.80502e-14
-3.03161e-07
3.89627e-12
-1.83647e-14
-2.6724e-14
8.63724e-09
-1.65669e-08
1.20849e-14
0.00144396
5.42056e-15
-2.87703e-09
1.04611e-15
-2.93391e-14
4.65107e-10
-7.36859e-10
8.11314e-06
4.69934e-15
-3.7801e-11
1.22843e-14
2.52301e-09
3.01244e-05
5.1627e-08
1.00329e-14
-1.16651e-14
-3.25537e-15
8.72095e-14
0.00280539
-4.25449e-14
-1.38873e-14
-1.96661e-12
-5.84926e-09
1.3198e-14
-7.40779e-15
9.87397e-05
-2.34411e-07
-5.5639e-14
-3.88411e-11
-1.14135e-09
4.60486e-13
-2.62893e-11
1.14852e-14
2.33401e-14
-8.57627e-15
2.05353e-10
1.40466e-09
-1.51218e-14
1.13236e-14
3.0698e-13
-1.1916e-14
5.21308e-12
-8.92244e-09
7.25353e-15
1.52499e-06
-0.00416102
-6.73731e-07
3.79967e-15
9.39802e-12
-2.22142e-07
-2.95505e-15
-8.76703e-14
-0.00035803
0.00100479
-7.13348e-15
2.8236e-15
-1.55832e-06
9.53634e-15
1.22095e-14
-5.70755e-06
9.23798e-05
6.41407e-14
-1.76839e-11
-3.25404e-12
0.000472298
5.37574e-15
-1.22531e-12
7.96479e-14
-1.47677e-15
3.02251e-09
-3.68468e-15
-3.56818e-11
1.20746e-14
-0.00386342
1.03658e-15
2.75606e-15
-3.48856e-05
1.36909e-15
-5.44383e-07
-8.13427e-14
1.64222e-14
8.05725e-13
0.00174884
-1.89094e-09
4.50877e-08
-1.43504e-14
2.4832e-06
-8.66316e-16
-1.06594e-14
1.78178e-14
-1.16236e-14
1.03477e-14
-2.37346e-10
1.73922e-14
8.47731e-15
-1.24609e-14
-0.0160358
-1.8036e-05
0.00384978
1.74127e-14
1.41575e-14
-1.24068e-14
-2.02475e-14
-2.52952e-14
-4.91736e-14
-0.00242044
-2.07018e-15
-4.57341e-08
-1.79046e-14
9.18271e-10
7.41361e-15
7.97462e-15
6.38051e-15
1.48308e-11
8.45659e-15
1.24145e-07
1.83008e-14
-1.74661e-14
3.31146e-14
4.04594e-14
-2.89103e-14
-9.91717e-14
1.34827e-14
-8.90986e-08
2.38321e-14
-1.13819e-14
2.74788e-12
-1.04817e-11
-9.39851e-09
-9.10699e-14
1.52004e-08
1.03745e-05
1.24707e-10
-1.65221e-09
-1.6624e-09
8.14167e-14
-2.79372e-14
-3.26705e-06
-1.59475e-11
6.90843e-11
5.15925e-16
6.65368e-10
-1.26334e-10
-4.22045e-15
1.07659e-14
1.04679e-14
1.94113e-10
-3.44302e-15
-1.90642e-15
-8.14691e-15
2.05728e-14
5.52731e-13
-2.21531e-13
-1.01153e-14
5.1062e-09
-6.92138e-09
-3.16813e-15
-8.2066e-11
-2.7196e-15