/*--------------------------------*- C++ -*----------------------------------*\
| =========                 |                                                 |
| \\      /  F ield         | OpenFOAM: The Open Source CFD Toolbox           |
|  \\    /   O peration     | Version:  v2012                                 |
|   \\  /    A nd           | Website:  www.openfoam.com                      |
|    \\/     M anipulation  |                                                 |
\*---------------------------------------------------------------------------*/
FoamFile
{
    version     2.0;
    format      ascii;
    class       volScalarField;
    location    "350";
    object      omega_0;
}
// * * * * * * * * * * * * * * * * * * * * * * * * * * * * * * * * * * * * * //

dimensions      [0 0 -1 0 0 0 0];


internalField   nonuniform List<scalar> 
13851
(
0.023507
1.4044
0.0782514
0.0232473
0.0778994
0.676353
0.021609
0.0441814
0.0206221
0.100051
0.308873
2.31083
1.31142
3.50367
0.0213733
0.0327192
0.024565
0.028043
0.158134
0.0206202
0.0229888
0.0757835
0.0213266
0.0220361
0.021555
0.0449832
0.023934
10.776
0.0232844
0.0240425
0.774671
0.0248742
0.0740976
0.454694
0.0218747
0.150719
0.655423
0.228801
0.116339
0.48335
0.0212759
0.0197274
9.21152
0.302354
0.292188
4.76182
0.282267
0.428224
0.0241098
0.267142
0.0710796
0.124434
5.34349
0.0214423
0.0222595
0.0197298
0.0210505
3.97118
0.0238188
0.0216372
0.232533
2.92557
0.0741593
0.0903306
0.204634
0.0253847
1.70541
0.29237
0.032849
0.0278521
7.92704
2.95699
1.4186
0.0216982
0.020861
0.0208244
0.0719694
4.35753
0.0459313
7.2175
0.0218218
0.268297
0.0213384
8.73515
0.133499
2.45023
0.331868
0.217602
0.0249809
0.0207395
0.151909
0.0331607
0.303597
0.0271324
0.0247497
0.0217824
0.0808021
2.83818
0.286854
0.021923
3.26564
0.0487445
0.0221588
0.0236372
0.0210643
0.450771
0.0544428
0.0196455
3.50985
0.594599
0.022125
0.020797
0.0328199
0.0225775
0.0219923
1.03721
2.85099
0.019606
0.0225653
0.0226497
9.69974
0.023517
1.58431
0.74402
0.375784
0.0201454
0.485197
0.047612
0.0228097
0.129929
0.0212562
0.0207017
5.98063
0.0213407
1.07336
0.0207768
0.0195897
2.78466
2.48169
2.2272
3.29382
0.0222473
0.0225578
0.0200475
0.0230862
0.314866
0.059581
0.13444
0.0215944
0.292152
0.0706512
0.0222872
3.46333
0.0210842
0.022778
0.0230121
0.0209733
0.0229944
0.1246
0.0689332
0.0197493
0.0271813
3.96723
0.0206895
0.0280111
0.0198799
0.0782807
0.0333139
0.0226617
2.7179
6.27681
0.020372
0.0209889
2.3137
0.0206851
0.336679
0.046021
0.0225513
0.122164
0.0196566
0.0255754
3.12986
0.0213394
0.0820113
0.0196503
0.0214442
0.0254925
0.0216666
0.0902201
0.091554
0.292012
4.5396
0.0210894
0.0334328
2.93476
0.0226438
0.0223073
0.49814
0.0223729
0.0208494
0.0205067
2.99696
0.0236422
0.0212368
0.0703227
0.0213501
2.26952
0.0247379
3.25449
0.0196616
3.49551
0.0220456
0.488368
0.0196168
0.019967
0.294573
0.0731873
5.04225
0.021337
3.22858
0.0249023
0.0218655
3.07992
0.123539
3.58993
0.0216175
0.0288373
0.0213497
4.89362
0.0196157
0.0434667
1.4151
0.0203502
0.0209912
0.0630212
0.0526637
2.474
0.211774
0.0200317
0.0212494
0.829089
0.194207
0.020153
0.0776182
0.0206965
3.45973
0.0499978
0.523208
0.0231408
0.0255612
0.027413
0.214359
0.0218517
0.0231983
0.0499082
0.150095
0.0863799
2.92106
24.3761
0.0214276
0.0199832
0.0267925
0.469008
0.0203788
0.358307
0.0226316
0.0218228
0.0266806
2.99956
0.117026
0.0235384
0.0227866
0.770665
0.0432375
0.0320456
0.0207023
0.258975
0.218283
3.73105
0.300706
0.0201492
0.0196239
0.0210124
0.0484267
0.4054
0.302378
0.0207238
0.0214367
0.706981
0.278285
0.142385
0.0235428
0.0216478
0.0359438
0.281097
0.327254
0.0272918
2.37178
0.0207235
3.48746
0.0267563
0.0245136
3.70954
0.0215905
0.493489
3.32612
0.0207014
0.0419056
0.0272469
0.0233118
2.57014
0.027531
0.0217891
3.01271
0.0197684
0.0258129
0.019949
3.76938
0.113182
0.0213435
0.0504483
0.021381
9.85533
0.0190458
0.0212797
0.0212068
0.109366
0.0282951
0.0226687
0.0214411
0.0215683
0.0217629
0.302702
3.78266
2.7286
0.0306909
3.73704
2.77446
0.0212598
0.0340201
0.146765
0.0351227
0.0734888
0.111165
0.11014
0.0259903
0.363795
3.41706
0.0213411
0.0880748
0.0670213
2.08526
0.0226577
0.0182257
4.83786
0.0210154
0.363124
0.0211981
0.0213869
0.0204537
0.019644
0.0209204
3.44412
0.335872
0.0213488
0.0406351
0.0198146
2.26959
0.03943
0.402369
2.71197
0.0213579
0.0742763
0.0275096
0.402836
0.0211931
0.0196335
0.0339635
3.50079
0.021231
2.50802
0.0364199
0.118985
2.84622
0.176865
0.166522
0.0236517
0.020764
0.0222272
0.0292185
0.0498904
3.71623
0.0337944
3.6251
3.36488
0.019826
0.0214358
2.72469
4.72731
1.45769
2.87804
0.0188896
0.0281418
0.0218664
2.54412
0.0204737
0.0321335
0.0252063
0.0215455
0.0212228
0.0206796
0.0198681
0.0869071
0.0653174
4.4282
0.028309
0.0530745
0.0361574
0.265298
0.0265168
2.48694
0.0242823
0.289412
0.0195706
0.0206613
0.0216844
0.225941
0.442931
0.120692
0.0373108
6.39522
0.424593
0.290179
0.0229233
0.0635189
0.0211726
0.337723
0.0210507
3.03912
0.455375
0.0680796
3.28931
0.0226321
0.208327
0.458625
3.81577
0.01953
0.0292473
0.04708
0.174689
0.0204396
0.0217864
0.0671307
0.118548
0.0330155
1.73673
0.0215091
0.0212762
5.80013
0.0287518
0.0196115
0.390634
0.0207545
0.0234901
0.020517
0.0437326
0.022621
0.0196441
0.0224916
2.93434
0.0213477
0.0354295
0.0206493
0.0296448
0.273674
0.022774
0.0212416
0.0226637
0.0226824
0.366038
0.0217982
0.530605
0.0213403
0.0216022
3.11279
3.40112
0.0213732
0.0308438
0.0266736
0.259473
8.08664
0.0212869
0.330315
0.0212135
0.0773594
0.0215765
6.10544
0.0196696
6.2333
0.0857248
0.0197407
0.0309452
2.745
0.0447053
0.296881
0.0223193
0.549277
0.0228288
0.0206286
0.0207073
0.0215556
3.91639
0.062854
0.124766
0.0680441
0.0307225
0.0197856
2.11748
0.441393
0.025728
0.0274007
0.325404
0.757947
3.45022
0.0224531
5.9339
5.38412
3.18148
0.0282751
0.032993
0.701204
0.220408
0.0822299
0.510782
3.11636
0.0231696
3.08337
2.85966
0.019576
0.204305
0.0647465
3.98218
0.0233149
0.021222
0.0209504
0.0212341
0.0875837
0.0422821
0.1806
1.74072
0.0206251
5.79155
3.18521
0.807175
0.457057
0.0346124
0.0195926
0.0206415
0.187657
2.37922
0.0228607
0.0848076
0.147445
0.0197173
0.0422715
0.741531
0.902346
0.106866
3.68213
2.90676
0.0212342
0.0215571
0.689854
3.34026
0.116875
0.0337498
0.173911
0.0196576
0.0210942
3.08934
0.0197035
0.0232285
0.0196439
0.0207357
2.8623
0.0870125
0.0336117
0.0196934
2.71625
0.487264
0.0207509
0.020777
0.0204166
0.0218448
3.57234
0.522404
0.515507
3.20348
0.447653
0.0320866
5.03841
3.34747
0.0267822
0.0336061
0.0195871
0.0195263
0.0337482
2.75534
0.3802
0.0824094
0.028322
0.0205847
0.0327433
0.0225993
0.299886
0.0698126
0.0213306
0.0316779
0.0204457
0.026641
0.124032
0.0216139
0.0211535
0.0393714
0.0215739
0.0804929
0.0851791
0.117712
0.0334777
0.122996
0.0205724
1.36428
0.0235773
3.35937
0.0219804
0.0218579
3.41322
0.0234663
2.93639
3.41519
6.6265
0.303819
0.0204741
3.20964
0.0202251
0.0207836
0.0196897
0.020794
0.026061
0.0289546
0.0410848
0.0196826
3.21772
0.0914485
3.21552
0.0208902
0.0198332
0.0208014
0.141913
3.08158
0.0502788
0.0268083
0.0202883
0.0216825
0.0212919
0.0210195
0.0700539
2.18685
0.0215516
0.0196734
0.021567
0.0210135
2.68495
4.1105
0.033108
2.77849
0.662151
0.0211352
0.1195
3.62603
0.0350026
2.27529
0.0218045
0.0270137
0.0496731
0.0272379
0.488586
0.0213631
0.729429
0.0211071
0.0300183
3.1998
0.0209131
0.022874
0.108107
0.0206369
0.0251524
0.517209
2.99872
0.0680943
0.210461
0.257553
0.0196304
0.0208694
3.21155
0.140031
0.0612518
3.43356
0.020507
0.0239089
0.0195914
0.39252
1.5277
0.0256041
0.0218124
0.279178
0.024221
0.0207421
6.70428
0.41941
3.06091
0.0197545
0.0215462
4.58287
5.59131
0.139296
0.0222468
3.34145
0.0213518
0.289657
0.149527
0.0736782
0.0247911
6.87696
0.024834
0.0232523
0.371209
0.0217969
0.0233957
0.0227811
0.0205557
5.83819
0.0312844
0.111152
0.0322258
0.249814
0.0206033
0.555738
0.0222088
0.0233365
0.0198883
0.0211021
0.0212514
3.30315
0.02094
0.0197201
0.261774
0.021576
3.74746
0.0212949
0.0224704
0.0654408
2.81011
0.382427
0.0207716
0.833327
2.77693
0.0218389
3.2916
0.0296063
0.020529
0.153989
7.93813
0.796895
0.0258255
0.0207533
0.019656
0.459619
0.0858922
0.0638454
0.0267883
0.156076
0.0220487
0.0223085
0.0831272
0.356232
0.086672
0.389533
0.0215257
0.0802294
0.0815165
3.78783
0.0254627
2.01734
0.0757253
0.0215887
4.90167
1.10189
2.79545
3.20339
3.08033
0.275945
0.0390026
0.0205441
0.0287469
4.08218
8.50643
0.0211443
0.0216976
0.0653477
0.266442
0.0197641
4.82286
0.0204859
0.0213602
5.76396
4.47504
0.270793
0.0207791
0.0213997
4.81866
0.113304
0.107574
0.023767
2.72723
0.539753
2.97913
0.0528332
0.0395688
0.0218069
0.0215689
1.51955
0.0479751
5.46258
0.0285626
0.0328479
7.54618
2.79294
3.34831
0.0214227
0.0303882
0.020739
0.0339373
0.0228103
1.98026
0.0241811
3.32949
0.0197641
0.0638728
0.0211107
0.24104
0.0330443
0.0298306
2.80262
0.0419272
0.0474295
0.0221452
0.0651108
0.342864
0.51694
0.0233056
6.55479
0.0203153
3.153
0.320686
0.0215949
3.52591
3.3511
3.49404
0.30021
0.0119838
0.0211201
3.03708
0.0240732
1.02825
3.26641
0.0208964
0.0225634
0.144442
0.448815
2.01733
0.0215182
0.0207025
1.38486
3.22258
0.109082
0.0253457
0.0230593
0.323839
7.02902
0.0851195
0.0197331
0.0398719
0.0206564
0.0229545
0.0817717
0.0219637
3.09302
0.407583
0.0213696
0.0227351
0.0211509
0.0228217
5.51848
2.71617
0.028898
2.02815
0.0211086
0.0289437
0.0210859
0.0206667
0.0215331
0.0213568
3.84257
0.0213739
0.049653
0.0214255
0.0259352
0.108034
5.45253
0.0224199
0.899028
0.0679646
0.117659
0.0318611
0.0322017
7.69284
0.0266947
0.0463531
2.02004
0.985212
5.44282
0.0390645
0.295463
0.0218754
0.0407759
0.0500961
2.01513
0.0211277
2.17143
0.0208544
0.0209052
3.72053
0.0217454
0.292255
0.0250659
0.0207224
0.0317396
0.0207373
0.021409
0.0205679
0.021764
0.0859874
0.0209114
0.114105
6.73593
0.0620414
2.95209
0.0215507
0.0224021
0.0188264
0.0212418
0.0207164
0.0746321
0.0218775
0.0207816
0.0218535
0.0215546
3.58488
2.21347
0.371704
2.92038
0.0572172
0.0210896
0.588745
0.0282378
0.0209049
0.388462
0.507422
0.535224
0.020952
0.287124
0.403555
4.67681
0.0203461
1.29075
0.0303064
0.0239459
0.0205595
0.0205177
2.53011
1.15343
0.364141
0.0208568
0.0213021
0.45219
0.0216081
2.8183
0.302247
1.22365
0.0912256
0.356521
0.0215496
0.0213061
0.131371
0.0292491
0.0236931
0.163111
0.0404669
0.0219172
0.0229657
2.22312
0.0207951
3.24592
0.798668
1.05157
0.2016
0.022446
0.0201442
0.0216865
0.306908
0.405402
0.0203578
0.0229787
0.0208327
0.075541
0.0198322
0.020789
0.0218933
0.0320572
0.992642
0.0475979
0.0313873
0.0212657
0.0493098
0.888881
0.0221702
4.18145
2.42532
0.075993
0.0199448
0.0430515
0.0212183
0.0212904
0.0216118
4.0837
0.111489
0.414961
0.0236761
0.284815
0.0212683
0.0211951
0.0215947
0.592561
0.639521
0.0197256
0.0315279
0.0737697
3.55414
0.0227617
1.42858
0.0262452
2.28274
0.0786779
3.19192
0.0846852
0.0752958
0.30756
3.15859
0.369192
2.93369
0.0210538
0.315499
0.0198172
0.0233749
0.0258991
0.0215804
3.21012
0.0290098
0.0270836
0.316264
0.155678
0.276461
0.0213616
0.0235695
0.0261203
0.0202107
0.029902
1.35492
0.376965
0.665944
0.0208988
0.0267833
0.0241665
0.744247
2.84266
0.110868
0.0201304
0.0218106
6.2876
0.0435035
3.03251
2.55614
0.342066
0.0199288
2.06122
0.0294705
0.0422373
0.0279661
3.40303
0.298123
0.123716
0.949236
0.0222181
0.0287036
0.0213689
5.93353
0.058141
3.25283
0.279521
0.0257188
0.135506
0.0225722
3.39943
0.126871
0.0208057
0.112971
3.19292
0.0982972
3.31164
0.0216543
0.0213292
4.96285
1.15174
7.50733
0.0225457
0.0215629
0.0213643
3.5603
0.133231
0.0217533
0.560433
0.0910603
2.59435
1.82099
0.376424
0.0214166
3.23535
0.0244353
0.0212257
0.131078
3.04928
0.0216144
0.0208465
6.59596
3.28183
0.0203678
0.0209008
2.12513
0.0206841
0.179906
0.0208702
0.704193
0.0213199
0.0505962
0.78559
2.84498
0.0224288
9.60131
0.436987
3.31565
0.26036
2.20042
0.270622
0.0211468
2.39972
0.0227942
0.0213736
0.0201927
0.538192
0.0211192
0.32914
0.0208616
0.0232596
3.61981
0.0639944
3.03432
0.0227464
0.0193484
0.0206979
0.0316671
2.56892
3.09654
0.0206822
0.0644696
0.346884
0.0215477
0.0205246
3.12868
0.0340289
0.0346501
0.121884
2.22353
0.477062
2.27876
3.24844
0.292622
0.293772
0.426501
0.960183
0.0643996
0.0200611
0.119967
0.0211334
0.0209431
2.08296
3.16326
0.0230327
3.98253
1.32439
3.39819
0.780431
0.562626
0.0211955
1.31623
0.138059
0.021222
0.0225189
3.32789
3.01002
1.42755
3.32706
0.0397359
3.38174
3.42489
0.0310363
0.0217776
0.0210117
0.276256
0.020989
0.0922814
0.0222156
0.0219929
0.0232341
1.12205
3.71177
3.81068
0.0218427
2.31409
0.0250156
0.0297971
0.0208277
0.0208097
3.89129
0.0270336
3.36704
1.57313
0.424669
0.103345
0.0214342
0.0407599
0.0215687
0.128023
0.022406
0.0226712
0.0217484
0.0222344
0.13875
0.0220627
0.0338161
0.0213267
0.0343135
0.223952
5.41052
0.0210191
0.0469949
0.0214836
0.152097
0.0239643
2.42765
0.323689
0.0313171
0.0235462
0.0225551
0.519865
0.0212229
0.259772
0.0214231
0.0209022
0.0221937
3.09086
0.0266489
0.0247442
0.0304428
0.0214385
0.0613268
2.94948
0.24143
0.0354167
0.0213764
0.0752795
0.0201361
0.0209819
0.193854
3.32284
0.0211775
0.0308058
0.124672
2.53684
0.0217934
0.0219804
3.31948
0.0224731
0.172905
0.0168876
3.7693
0.0213303
0.0282024
0.0212387
3.55759
0.117824
0.0399133
0.110774
3.73171
0.0223467
3.6261
2.91079
0.0215639
1.3618
0.0767196
0.0222716
3.96149
0.0215193
0.0211706
0.0204633
0.147002
0.406127
0.136013
0.0226884
0.0222255
0.0294564
0.374434
0.149176
3.67368
0.330203
0.0219577
0.121705
0.133489
5.44204
0.074836
0.27187
0.0210024
0.0335224
0.0205344
0.113798
0.0382237
0.0212306
1.99922
0.422378
0.0316053
0.0286817
0.0196678
0.0213554
0.0513219
0.0333385
0.298161
0.064444
0.0646946
0.0595416
0.115858
2.47226
0.0642326
3.63343
0.0210308
0.0207916
0.148383
3.64146
5.42846
0.696831
0.0222004
3.50296
0.350759
0.0209402
0.0259903
0.0206883
0.0401895
0.0686038
0.109053
4.38469
0.204979
0.0225602
2.84682
6.28783
0.02141
0.113848
2.54938
5.56849
0.0237884
0.0708231
0.0196078
0.0229393
0.0210787
0.0252347
3.64447
2.73561
3.82186
2.77282
0.0224979
0.0343238
0.0529985
0.0209753
0.0216453
0.0205288
2.7274
0.0209486
3.44492
0.0374636
0.0527305
0.143886
0.114533
4.1172
2.67865
0.0394275
0.0198426
0.0231734
2.25531
0.685694
0.0245388
0.0207042
0.0205031
0.0612517
0.0297383
0.12922
2.61795
0.0225359
0.0204813
0.109468
0.0567782
5.84544
1.3003
0.0209357
0.0700745
0.0215011
3.68827
0.0199821
3.41144
0.0210311
0.0224612
0.0306723
0.0218145
0.0937523
0.0291801
0.0460375
4.3029
3.00701
0.0249479
0.0291224
0.0211879
2.49469
4.66395
0.0216145
0.0200353
0.365642
0.0195583
3.89802
0.021333
0.033994
0.0673778
0.546758
0.0407189
0.0226411
0.021586
0.067055
3.33239
0.0211466
0.122873
3.83626
1.27549
0.769103
0.0338973
3.2536
0.0251091
1.5417
0.0212699
0.328675
0.339475
6.80295
7.96468
2.15503
0.0220049
0.37805
0.020837
8.36119
0.377591
3.27453
4.23755
0.0269392
2.61344
0.340265
0.0355543
0.0226756
0.0216006
3.45595
0.0254752
0.0658978
0.0230889
0.0216021
0.0206748
0.0215223
2.79966
0.102959
0.0304401
5.49135
0.506588
0.0215545
0.0213018
0.0205068
0.0285385
3.37499
0.0938812
0.0255022
0.0245957
0.575371
0.0771123
0.0435676
6.27157
0.0297334
3.5776
0.0295722
0.0289026
0.0212784
0.0230568
0.0681352
0.367052
0.334613
3.31981
0.0685314
3.48384
0.0248737
0.0243166
0.0215421
3.78795
3.60736
0.70925
0.606462
0.0234914
0.0213836
0.0208927
0.0214185
0.0205457
6.20812
0.028766
5.36604
0.0320368
2.7838
2.97083
3.47325
0.0778218
0.0256425
6.73514
0.0401457
1.33469
3.43139
0.0206184
0.263589
0.0270246
3.89245
6.74898
0.0347554
0.436735
0.511072
0.0227469
0.0614496
0.0237745
3.62119
0.338414
0.0239181
0.021582
0.340013
1.17641
0.126445
0.804862
0.120618
0.0292653
0.0210262
2.00513
3.31172
0.080033
0.0301484
2.81218
3.42945
0.0208532
0.0213989
0.0241447
3.27323
3.02938
0.0213333
4.13197
0.0220151
0.0210353
0.0215746
2.79317
1.77784
0.180471
5.48271
0.0228361
0.0226428
0.0209612
12.3825
0.0221113
3.50449
0.0239127
1.38643
0.0218032
0.0211327
0.120882
5.42582
0.383175
0.0350818
3.00869
0.0199977
0.0214859
0.021409
0.0422883
0.0631987
0.0627065
0.0389137
3.09402
0.0242143
0.127809
1.3473
2.64771
0.0213887
3.4417
3.25596
0.0247338
0.394651
0.0631567
3.50147
0.0215731
0.0675095
0.0210457
1.42972
7.13715
0.104992
3.4916
0.0234192
0.0471608
0.0223949
3.77853
0.0199074
0.0206961
0.58008
0.0929205
3.57065
2.42094
0.0616017
0.0281755
0.0204482
0.927272
0.0300446
0.0212734
0.131172
0.0205223
0.0420032
0.0213748
1.29812
0.0223413
0.30343
0.334021
0.0308383
1.38874
0.0529131
3.70432
0.0212795
0.46244
1.60368
0.0205857
0.021349
0.0227804
0.0218292
0.0382031
0.0211182
0.253339
0.0718356
0.292823
0.0941417
0.0214655
0.0218359
0.0204442
2.89432
0.0215062
0.0212521
0.154015
0.0239255
1.37036
3.45368
0.0831872
0.0242572
0.0326216
0.0225507
0.0220148
0.0467257
0.0200906
0.0240032
3.71921
3.48759
0.26577
0.0225083
5.5546
0.0444806
0.0218376
0.278355
2.89794
0.021348
0.0233956
0.0213084
3.16919
4.03994
0.601097
0.0200746
0.0239117
0.0232605
0.0215832
0.121466
0.021518
0.148162
4.79604
3.55101
0.0205806
0.0237182
0.0233339
3.58281
0.0196571
4.7167
3.79278
0.566368
0.99313
2.74948
2.97248
0.0226783
0.620389
0.157589
0.0223279
0.0204313
0.0208533
3.45212
5.59117
6.70477
0.0212498
3.61097
0.0215571
0.149273
0.0204306
0.0231066
0.0222617
0.0205806
3.71736
0.0224131
2.0253
3.50438
5.46568
0.0448269
0.0495274
4.40021
3.28153
0.0217116
10.0083
0.0204509
0.019669
0.021291
0.0361611
0.0206507
4.48224
0.0295412
0.364309
0.0396734
3.71784
4.96306
0.110096
0.0205565
0.054796
0.075132
3.81847
0.0214149
0.0198119
0.0227844
2.04046
0.0215908
0.338355
4.5284
0.0406991
0.058865
0.021429
0.378022
0.0217545
3.40945
0.0201381
6.60147
0.0306488
0.0214998
4.62149
7.01323
0.0201687
0.0630236
0.0244342
6.03496
0.136999
0.388637
0.349702
0.0217674
0.0555802
2.76249
0.0209311
0.0295412
0.0231269
0.0730421
0.0316875
3.9393
2.96989
0.0215125
3.47905
0.0223553
0.0425071
2.75987
4.60625
0.0378412
3.12697
1.1009
0.021592
0.332067
0.122035
0.0300449
0.022366
2.69856
0.02019
4.22058
0.270828
0.124338
0.0213423
0.0304954
3.28922
0.043638
2.90057
0.0220386
0.0236745
1.03692
2.56455
0.0258644
3.37061
0.318738
4.47633
0.0215882
2.43136
1.93471
3.63567
0.0213899
0.0221726
0.0212764
3.46163
0.0313109
0.381902
0.376932
0.0217754
0.0202626
0.0213625
3.63009
3.02899
3.19218
5.03496
0.0209499
2.72801
3.14231
0.123188
5.59954
3.18256
0.0366283
4.28466
0.0232275
0.025482
3.09925
1.62601
0.0194686
3.86159
0.0217201
0.0213874
2.31998
3.04701
3.61478
8.14578
0.0307731
0.0217909
0.0230807
3.24153
7.4472
0.02116
0.045097
0.390839
0.0214214
0.0215046
2.68102
3.00389
0.0229469
0.0214302
0.0222433
0.0225335
0.573301
0.0218127
0.0210902
0.0256432
0.170094
3.28288
0.650048
2.83679
0.0215221
0.0246661
3.08954
3.22394
0.0284425
1.26633
0.0213252
0.0354379
0.0226526
0.0187881
0.0644172
0.0210373
0.510325
0.0334629
0.020792
0.0243165
2.00847
1.56922
3.45881
0.0214335
0.0245237
3.34219
0.38415
0.0239898
0.0213256
0.0214776
0.286443
0.0215182
0.0216285
0.0275803
0.021336
3.13219
0.763619
0.0217347
0.0241
0.0200188
0.0215184
1.38021
0.502169
0.0678521
5.82096
0.057492
0.0218594
0.0213014
0.0214932
0.0212393
0.0217258
0.0234548
0.0754584
2.76983
0.0226596
0.10718
3.35574
0.301756
0.0212087
0.0207281
0.0234787
2.89559
0.0211918
2.60777
0.228862
0.0483818
0.022543
6.03756
0.0200367
0.327016
0.0202607
0.0200629
0.0216311
0.0207706
0.0369856
1.54608
1.38874
0.0373273
1.96431
0.0753923
0.0939096
0.0313723
3.09484
5.66776
0.1072
3.27901
2.783
0.106789
0.373905
0.0218128
0.0206616
1.79052
0.0209955
0.024241
2.11932
0.0565139
2.09469
0.143222
0.0207366
0.0280958
0.0214778
0.0968845
0.0204084
0.0164337
3.37551
2.6494
0.472935
0.0214773
0.0202192
0.0701107
3.82724
3.16465
0.131309
1.14349
0.0208533
2.0073
3.6248
0.727369
0.0237452
0.0215077
0.0199559
0.0231762
0.0214146
0.0213046
0.0240133
3.10899
0.0736932
3.32027
0.0372952
1.42241
0.152858
0.0212619
0.0208419
0.0221378
0.0204281
0.0217819
0.581025
3.15936
0.843607
3.59599
0.0232928
4.56328
0.138057
3.38343
3.37756
0.0214755
0.0207663
0.12648
0.021474
0.0201755
0.551988
3.14871
2.11007
0.0213894
0.0215045
0.0242525
0.0370286
2.75071
0.0204665
0.0240924
0.116264
0.0204218
0.38885
0.0362482
2.05396
0.021782
0.157531
3.74267
0.0359527
3.17095
0.106406
3.41883
0.0200171
0.0250572
0.0208164
0.0294833
2.80438
0.0214235
3.77339
0.021857
0.0214505
0.0214389
3.55141
0.0431309
0.106142
0.662509
0.0204814
0.0452484
3.99507
0.0540642
0.0206959
0.0229514
0.0214762
0.0551718
0.0212694
0.0208473
3.6211
3.58724
3.47179
1.17973
0.113777
4.40167
0.0672703
3.66865
0.129089
0.0199572
0.0209693
0.0195789
0.0216121
3.31023
3.26028
0.0203254
3.83272
3.52676
0.0289158
0.0225666
0.0244371
2.83779
2.55869
3.14636
0.203953
3.17963
0.0195635
0.228668
0.101041
0.343898
3.19974
0.0213264
0.121012
4.16902
0.0328683
3.76032
0.0217881
0.0399771
4.28943
3.31743
0.0706302
0.0305815
4.14483
0.120031
3.33432
3.45126
3.11279
0.105073
2.07601
0.0215189
0.0248888
0.0458555
3.98479
0.340685
3.51277
0.021819
0.127814
0.0723822
0.0220606
2.87174
0.0213454
0.126181
3.68781
0.021355
2.04482
3.17142
3.40831
2.57892
0.724989
0.387303
0.0210611
3.37138
0.0217688
0.0208431
0.0402972
0.0238675
3.30023
0.0239281
0.0245811
0.0240555
0.0207682
2.99793
0.0228743
0.110453
0.327607
0.0206042
3.71892
0.0995186
0.0227097
4.03504
0.136163
0.021331
1.41211
0.0220368
3.52128
0.112141
0.0203586
0.105397
0.0229273
3.49011
3.20654
0.0698408
0.578804
0.0260847
0.0214845
2.12064
0.0240862
0.0212774
1.91395
0.0399913
0.0208589
0.020779
0.135192
0.0227305
3.51355
0.21888
0.0383806
3.59715
0.0502595
0.0608946
0.0210967
3.54013
5.82523
3.51125
0.0213969
0.020239
0.071501
0.0304768
0.376097
0.0213038
0.424726
0.0212016
0.163906
0.0216102
0.017162
0.35141
0.105492
3.62789
1.52524
2.83817
3.17953
0.0196881
0.795305
1.27659
4.36724
0.0209103
0.26845
5.40221
8.90295
0.105256
0.124469
0.599515
3.63309
0.0441118
0.168973
0.0205706
0.0467937
0.0407998
0.02131
0.0659204
3.60327
0.35221
7.27706
1.94433
0.0211494
0.0208008
0.0354805
0.0213183
0.363002
0.020497
0.0207582
3.75045
0.133364
0.0339632
0.099064
0.022249
0.0894177
5.44779
3.26928
5.44119
0.0253174
3.24214
0.022877
0.0203937
0.0231459
3.22228
0.127549
0.232227
0.106628
0.0222846
0.0208037
0.0213163
0.0218308
0.0264128
3.17887
1.76963
0.0284909
2.95268
3.50551
0.0669201
3.28532
0.0214129
0.029319
0.0719825
0.0213999
0.0484914
0.0268286
0.0238933
2.88854
3.28499
0.0204898
0.0390973
0.0291043
0.067201
3.60528
2.07576
3.59385
0.0216166
0.0776277
3.56592
0.0761528
0.107144
0.171914
2.75101
3.71638
3.6697
0.0204692
1.81486
0.0203091
0.0230775
0.0213297
0.0592565
3.67518
6.49549
0.47687
9.09972
0.0552922
0.0201349
0.0207315
0.0215049
0.022864
0.0425402
3.67146
3.59612
0.0726643
0.63718
0.0216228
0.0548313
0.0206475
3.37572
0.0963234
0.021526
0.161951
0.0991048
1.93135
3.69153
0.137611
7.14835
0.0247025
3.48841
0.162865
2.98074
0.370259
0.0227591
0.0541627
0.0214727
2.60763
5.26697
0.0392129
2.89455
0.17317
2.41559
0.065494
0.209078
0.0506657
0.0208107
0.110869
0.0583518
0.0241393
0.0536948
0.0301647
0.031901
4.01812
0.136779
0.0231209
0.0300699
0.0362576
0.0324935
0.0227992
2.10492
0.111114
0.383357
12.1003
0.0213827
3.34054
0.0214584
0.0242362
0.0234512
3.298
0.0382953
3.36746
2.9759
0.0582846
0.0485822
0.108139
2.18277
0.128069
0.818901
0.0241386
0.0437821
0.020872
3.36717
0.479645
0.0239846
0.0214378
0.0377638
0.0259263
0.0243681
0.0472629
0.0384481
0.0215894
0.0350794
2.83841
3.26445
0.131468
0.0405781
0.019783
2.16251
0.0321702
0.0616596
0.704788
0.0420366
2.12847
0.0202017
0.0242228
0.0242835
0.034337
0.0211905
3.45253
0.325337
1.56673
0.0389793
3.03779
0.126671
0.0255684
2.17445
0.062577
0.140758
9.78763
0.0561701
0.0240068
0.0393277
0.0662202
0.0243188
0.144512
3.84567
0.364293
0.0208872
0.119433
2.03529
0.64159
0.0212556
0.0432487
0.0210609
0.0303037
2.81474
0.0290302
0.0286324
0.0208681
0.0207197
1.76418
3.15772
0.0213459
1.92679
0.174656
0.0201404
0.0256908
3.38846
0.117248
0.0982626
0.0213638
0.0270369
0.122306
0.0215463
0.0210273
2.65095
0.0288584
3.42655
0.0786488
0.0260329
3.66685
0.134493
0.146038
0.0209125
0.485239
0.0297866
0.0265573
1.72868
0.0399404
0.0215444
0.0875439
0.0243779
0.0251856
0.0201102
1.44
0.0213503
0.0832012
1.41182
0.100971
0.0207927
0.165903
0.0305214
3.38622
0.730281
3.53546
0.120037
3.29606
0.0206908
0.07378
0.0252981
0.0211125
0.426628
2.96023
0.0248407
0.261983
0.0245622
0.070152
3.60321
0.0259733
0.0357351
0.526931
3.47869
2.2329
0.179414
0.0704913
0.0207205
0.0873253
0.0370691
0.881437
1.89393
3.37236
2.18582
3.52337
0.0206765
1.3238
0.0213943
0.0223635
0.0215465
0.480489
0.155301
0.0999639
0.0210148
12.0296
0.0272524
3.54329
0.0208689
0.060567
0.0298336
0.06602
0.0409135
0.097992
0.0227913
0.256657
0.157104
0.0209381
3.37354
0.0942016
0.0551334
0.0228383
0.0292843
0.021421
0.0210262
0.0617056
0.115939
5.87797
0.199738
0.0815311
0.350986
0.0211164
1.43325
0.061096
2.57621
0.030534
0.0313009
0.472056
0.0320826
0.418974
0.0627037
4.26979
0.0234708
0.0216299
2.85194
0.031582
0.0236117
0.0281342
0.0301074
0.0204777
0.026639
3.48188
0.0213141
0.0408353
3.34975
0.105964
0.0701106
0.185149
0.125318
3.58743
3.60411
1.39772
0.0531853
1.01351
0.0227061
0.0246229
0.0214833
0.0209756
4.04239
0.510178
0.0326106
0.0207015
0.052767
0.0987385
0.0212787
0.144815
0.0510219
0.0212069
0.0230036
1.68966
0.0263763
0.0370444
0.037204
0.021375
0.0908018
0.0633241
0.0296836
1.53294
0.0799155
1.74897
0.180984
2.98166
0.0235164
2.82982
0.17235
0.130652
0.0646486
2.17683
0.0700304
0.0264801
0.0481921
0.0654961
0.0235224
0.0706787
0.0210722
0.0212466
0.0200627
0.0243875
3.41987
0.0203673
0.0996323
0.0244174
0.023677
0.0242904
0.148969
0.0233835
0.0593227
0.0215181
0.024367
0.0249638
0.0206914
0.241343
0.0235442
0.0205118
0.0223093
0.0293393
0.0209518
1.98492
0.0271253
3.70984
0.825255
2.84379
0.0586653
0.0763074
0.427743
0.0401881
0.0221912
0.024897
1.79412
2.46507
1.05328
0.0646327
0.0313822
0.0217606
2.88553
0.0417511
3.0574
0.0215685
0.832889
0.130735
1.42617
1.39097
0.0200838
0.0214065
0.0203128
0.0285862
2.61097
0.0548937
0.505501
0.0258918
0.0286572
0.02098
0.0218317
0.0356637
0.0235955
0.023999
0.020836
0.163672
0.33106
3.06622
0.024377
0.833972
0.0206811
0.0202459
0.100111
0.0219311
0.0240882
0.0627986
0.0241778
0.0678304
0.021416
0.0184764
0.0215299
0.0245423
3.35496
0.0211104
0.0235009
0.0226232
0.0239456
0.474364
0.0217706
0.0483951
1.60429
0.0246434
0.0292515
0.022429
0.0231364
0.0217674
0.150671
0.0214579
0.0263804
2.6903
0.0207863
0.0291505
0.0487718
0.0739942
4.47157
0.0200594
0.02381
0.0221243
0.0295823
0.113701
0.797134
2.72921
0.0202344
0.028403
0.0973757
0.0235092
2.33519
0.0199618
0.0215586
2.1295
0.0398145
0.0236808
0.0200194
0.124255
0.150225
5.99275
0.0215617
0.219661
0.019994
0.0205271
0.0235391
0.0726132
3.72344
0.021511
0.0208972
0.383095
0.0214616
0.0232016
0.103713
3.95197
0.0214562
0.0204598
0.02195
0.0316475
0.19471
3.13344
0.0218397
0.0979035
0.0212049
0.021346
2.95337
0.023327
0.0218448
0.0302206
0.222411
0.120536
0.0233737
0.0221729
0.567755
0.039561
0.0223659
0.168729
3.36344
0.0214695
0.021724
0.0231474
0.021355
0.0214634
0.020808
0.0201999
0.0381334
0.0230054
0.0546648
0.0468077
1.98253
0.738822
0.0310879
0.0200427
0.0213514
0.0222044
0.02311
0.0395871
0.0287496
0.980564
0.0236665
0.69478
0.0242823
3.28849
4.31864
0.028236
0.0225765
0.131565
0.023824
0.0268981
0.0213822
0.022341
0.0210646
0.0315314
0.0492488
0.0502639
0.0976551
0.0232346
0.025439
0.0222043
3.2078
3.79134
0.410792
0.0272329
0.0913105
0.11813
2.92341
0.0219457
0.434295
0.0641415
0.02139
0.0217851
3.96349
0.0215032
0.0224345
0.0233325
0.219529
0.0214781
0.0217375
0.0258704
2.121
0.0209257
0.049004
0.920317
0.0236345
0.0214995
0.0211361
0.0214126
0.0217638
0.0217063
0.146432
0.0222654
0.0214807
0.0217067
0.0217378
0.028462
0.0213674
0.289226
0.0215503
0.0217032
0.0370487
0.0536957
0.0903822
5.70367
0.587516
3.27665
0.0376445
0.0207961
0.0440452
3.03861
0.0201814
0.354271
0.0234517
1.07155
0.0232483
0.0413996
0.0217603
0.021378
0.104094
0.177551
2.00262
0.282269
3.38797
0.0217295
0.0208699
2.29203
0.0201496
0.0214868
2.96935
0.0210113
2.02998
0.0214331
0.150167
0.0992797
0.023684
0.640324
0.0270529
0.0744612
1.32726
1.12992
0.915562
3.20483
0.434366
2.3226
0.0215394
5.12016
0.0214625
0.021304
0.0209287
0.0219054
1.13611
0.0224043
2.95052
0.0215052
0.0213614
0.0215601
0.0959381
0.0216427
0.0207057
0.0673587
0.0256258
0.0261527
0.0250799
0.0281372
0.214054
0.514207
1.38927
0.867134
0.0969392
0.0223767
0.245732
0.0214434
0.0315557
0.477467
2.73701
0.0454991
3.34471
0.0214659
0.743354
2.05221
0.129944
3.60909
0.284483
0.0234989
0.0213147
0.0239756
0.0214589
0.0212984
2.32783
2.90928
0.021052
2.69382
0.0214103
0.099032
0.0209634
0.60399
0.0272931
0.0233774
0.0207352
0.416383
1.46396
0.349908
0.0205843
0.0206565
0.0263716
0.0217898
0.0222381
1.13884
0.86835
0.044759
0.558159
0.0553281
0.0217789
0.0312073
0.778345
0.0218675
2.93878
0.0532558
0.337735
0.0231096
0.0242495
0.0202615
0.0196502
0.02136
0.0266631
0.0206642
3.86639
0.0446396
0.212657
0.0212631
0.044767
0.0214534
0.112364
0.0473323
0.0521505
2.73634
0.0259913
0.021326
0.0249358
0.021799
3.91149
1.00539
0.049146
0.0527544
3.40737
4.3531
0.110128
0.0477461
0.0213867
0.0230427
0.0231825
0.0222639
1.40969
0.0263159
0.0215507
0.552853
0.112344
0.0217563
0.0233495
0.0537246
0.0223207
0.020934
0.0428065
0.0213928
0.0218705
0.0209242
0.0234714
0.022043
0.0513094
3.78001
0.0214555
0.428787
0.0970169
0.097215
0.0209151
0.0215054
0.205375
0.0256958
0.0214267
0.0696346
0.0213368
0.0597826
0.0215828
0.0525774
2.08915
0.0517317
0.0225476
0.0568054
0.135483
0.422976
0.0214226
0.0349018
2.7593
0.02116
0.0221937
0.0729304
5.96103
3.34002
0.0237967
0.0213369
0.0232413
0.0211922
0.0223214
0.0279393
0.0217504
3.46238
0.0217877
1.25436
0.0214586
0.0214601
0.0633567
0.0213556
0.0215375
0.0277762
0.685482
0.0205573
0.0390127
0.0218394
0.0211063
0.0215386
0.027873
0.02576
0.0678342
0.0231706
0.0217247
0.0218158
0.0374224
0.0224066
3.57627
0.0220251
0.098172
0.0331957
0.0226265
0.0273347
1.19687
0.0214902
0.0220682
0.0199836
0.762558
0.376706
0.0215722
0.0370834
0.0209139
0.0362074
0.0214198
0.286498
1.68571
0.0235861
0.0255397
0.0270622
0.0242698
0.0219303
0.0207467
0.0466538
0.0213915
0.0219514
0.0213293