/*--------------------------------*- C++ -*----------------------------------*\
| =========                 |                                                 |
| \\      /  F ield         | OpenFOAM: The Open Source CFD Toolbox           |
|  \\    /   O peration     | Version:  v2012                                 |
|   \\  /    A nd           | Website:  www.openfoam.com                      |
|    \\/     M anipulation  |                                                 |
\*---------------------------------------------------------------------------*/
FoamFile
{
    version     2.0;
    format      ascii;
    class       volScalarField;
    location    "350";
    object      omega;
}
// * * * * * * * * * * * * * * * * * * * * * * * * * * * * * * * * * * * * * //

dimensions      [0 0 -1 0 0 0 0];


internalField   nonuniform List<scalar> 
13851
(
0.0235053
1.40128
0.0783344
0.0232474
0.0778356
0.672003
0.021609
0.0441977
0.020622
0.100321
0.309272
2.29584
1.31954
3.47297
0.0213735
0.0327164
0.0245635
0.0280514
0.158197
0.0206201
0.0229889
0.0758582
0.0213266
0.0220361
0.0215549
0.0449993
0.0239248
10.6739
0.0232834
0.0240438
0.77207
0.0248744
0.0741625
0.452251
0.0218746
0.150563
0.662043
0.229591
0.116646
0.48156
0.0212759
0.0197274
9.21931
0.302768
0.292144
4.81029
0.282499
0.421535
0.024103
0.269356
0.0711597
0.124788
5.33443
0.0214422
0.0222603
0.0197298
0.0210504
3.97355
0.0238205
0.0216373
0.232355
2.91968
0.0747904
0.0901606
0.194297
0.0253846
1.71198
0.292809
0.0328233
0.0278592
7.93118
2.96099
1.41386
0.0216982
0.0208616
0.0208244
0.072042
4.36052
0.0459254
7.22154
0.0218224
0.26838
0.0213383
8.78765
0.135717
2.44467
0.330335
0.228978
0.0249787
0.0207396
0.151815
0.0331003
0.304016
0.0271419
0.0247519
0.0217824
0.0806369
2.83893
0.288736
0.021923
3.26601
0.048762
0.0221586
0.0236455
0.0210643
0.451122
0.0544643
0.0196455
3.51111
0.589192
0.022125
0.0207971
0.0327587
0.0225775
0.0219923
1.0344
2.85137
0.019606
0.0225652
0.0226488
9.70184
0.0235198
1.58936
0.743553
0.36859
0.0201843
0.478475
0.0476166
0.02281
0.129623
0.0212562
0.0207017
5.98413
0.0213406
1.07183
0.0207768
0.0195897
2.78861
2.48771
2.23294
3.29739
0.0222481
0.0225579
0.0200476
0.0230875
0.315552
0.0599421
0.134222
0.0215943
0.291992
0.0703997
0.0222865
3.43637
0.0210842
0.0227768
0.0230117
0.0209732
0.022994
0.12483
0.0690865
0.0197493
0.0271789
3.96855
0.0206895
0.0280138
0.01988
0.0786585
0.0333214
0.0226619
2.71834
6.28037
0.020372
0.0209889
2.32291
0.0206851
0.332256
0.046029
0.0225523
0.121887
0.0196566
0.0255737
3.13364
0.0213393
0.0820775
0.0196504
0.0214441
0.0254853
0.0216668
0.0903593
0.0914981
0.292588
4.53375
0.0210862
0.0334539
2.92882
0.0226441
0.022307
0.498248
0.0223731
0.0208493
0.020537
2.99237
0.0236425
0.0212368
0.0702976
0.0213501
2.27597
0.024741
3.2542
0.0196616
3.49472
0.0220455
0.48984
0.0196169
0.0199671
0.294772
0.074203
5.09418
0.021337
3.22789
0.0249067
0.0218665
3.08098
0.123301
3.58729
0.0216176
0.0288236
0.0213497
4.88449
0.0196157
0.0434741
1.41242
0.0203502
0.0209893
0.0628788
0.0526572
2.4833
0.199813
0.0200318
0.0212494
0.827303
0.195796
0.020155
0.077625
0.0206965
3.45713
0.0499974
0.522497
0.0231396
0.0255614
0.0274032
0.213011
0.0218524
0.0231965
0.0499107
0.165421
0.0863257
2.92436
24.446
0.0214276
0.0199832
0.0267949
0.476612
0.0203779
0.358289
0.0226322
0.0218231
0.0266897
3.00117
0.115661
0.0235514
0.0227859
0.774697
0.0432254
0.0320409
0.0207023
0.259202
0.218321
3.72827
0.301028
0.0201504
0.0196239
0.0210125
0.0484552
0.405828
0.30351
0.0207238
0.0214368
0.711354
0.278539
0.142133
0.0235435
0.0216479
0.0359111
0.281119
0.328708
0.0272909
2.37632
0.0207235
3.48493
0.0267538
0.02451
3.70687
0.0215906
0.492883
3.32564
0.0207014
0.0419311
0.0272484
0.023313
2.58241
0.0275297
0.0217888
3.01366
0.0197684
0.0258147
0.0200043
3.76711
0.113022
0.0213435
0.0504435
0.021381
9.88719
0.0187915
0.0212797
0.0212068
0.109556
0.0282964
0.0226674
0.0214411
0.0215684
0.0217623
0.303012
3.76443
2.72633
0.0307121
3.73495
2.76336
0.0212598
0.0340501
0.146763
0.035106
0.0736527
0.111048
0.110171
0.0259731
0.363813
3.41559
0.0213415
0.0901257
0.0687354
2.07134
0.022658
0.0178056
4.83507
0.0210154
0.357817
0.0211981
0.0213869
0.0204537
0.019644
0.0209204
3.44288
0.336522
0.0213488
0.0406836
0.0198146
2.27505
0.0393883
0.400057
2.71111
0.0213579
0.0756042
0.0274959
0.399949
0.0211931
0.0196335
0.0340351
3.50534
0.0212314
2.52097
0.0362709
0.118826
2.84992
0.175776
0.166483
0.0235946
0.020764
0.0222272
0.0292229
0.0498665
3.69727
0.0338544
3.62284
3.36408
0.0198261
0.0214358
2.7227
4.72953
1.45532
2.87862
0.0190239
0.0281292
0.0218664
2.52358
0.0204737
0.0321263
0.025201
0.0215456
0.0212228
0.0206796
0.0198682
0.086889
0.0650035
4.46566
0.028313
0.0530638
0.0361982
0.262144
0.0265133
2.47949
0.024278
0.289601
0.0195705
0.0206613
0.0216844
0.224779
0.441513
0.120895
0.0372858
6.46806
0.422484
0.289141
0.0229222
0.0633365
0.0211725
0.334131
0.0210506
3.04341
0.4558
0.0681489
3.28972
0.0226323
0.208628
0.458721
3.8137
0.01953
0.0292481
0.0470841
0.173539
0.0204396
0.0217862
0.0669021
0.118703
0.0330164
1.73614
0.0215092
0.0212762
5.77556
0.0287526
0.0196115
0.404975
0.0207545
0.0234884
0.020517
0.0436877
0.0226213
0.0196442
0.022492
2.9353
0.0213477
0.0354636
0.0206493
0.0296193
0.273832
0.022774
0.0212415
0.0226637
0.0226824
0.376922
0.0217977
0.527632
0.0213403
0.0216023
3.11476
3.40185
0.0213732
0.0308013
0.026674
0.265046
8.16792
0.0212869
0.330123
0.0212135
0.077381
0.0215766
6.11693
0.0196696
6.24458
0.0857872
0.0197407
0.0309363
2.7458
0.0447034
0.296891
0.0223193
0.556275
0.02283
0.0206286
0.0207073
0.0215556
3.91731
0.0629016
0.125225
0.067901
0.0305435
0.0197856
2.11252
0.439883
0.0257292
0.027396
0.331102
0.75804
3.45051
0.0224531
5.94189
5.44813
3.17916
0.0282756
0.0330502
0.698391
0.220735
0.082464
0.511122
3.11186
0.0231689
3.0788
2.86409
0.0195761
0.204614
0.0648411
3.98383
0.0233158
0.0212219
0.0209504
0.0212342
0.087626
0.0422661
0.178827
1.74068
0.0206252
5.76695
3.18611
0.80708
0.456399
0.0346046
0.0195926
0.0206415
0.188764
2.37594
0.0228603
0.084963
0.148791
0.0197173
0.042123
0.741122
0.88762
0.107099
3.68264
2.91211
0.0212342
0.0215571
0.718372
3.3395
0.117165
0.0337945
0.178161
0.0196576
0.0210942
3.08905
0.0197035
0.0232302
0.0196439
0.0207357
2.86818
0.0867947
0.0335488
0.0196934
2.73129
0.488105
0.0207509
0.020777
0.0204161
0.021845
3.57768
0.522273
0.516109
3.19836
0.454478
0.0321123
5.0411
3.34775
0.0267574
0.0335633
0.0195872
0.01958
0.0337285
2.75633
0.376741
0.0825315
0.028333
0.0205847
0.03273
0.0225962
0.30024
0.069765
0.0213306
0.0317053
0.0204458
0.0266493
0.124143
0.021614
0.0211535
0.0393168
0.021574
0.0805296
0.0898248
0.117436
0.0334739
0.123483
0.0205723
1.35779
0.0235011
3.35798
0.0219803
0.0218578
3.41476
0.0234672
2.94655
3.41328
6.70826
0.311171
0.0204742
3.21153
0.0202259
0.0207836
0.0196898
0.020794
0.0260662
0.0289636
0.0410407
0.0196825
3.20859
0.0914731
3.20605
0.0208901
0.0198332
0.0208013
0.142077
3.06988
0.050292
0.0268269
0.02029
0.0216825
0.021292
0.0210195
0.0686224
2.18033
0.0215516
0.0196734
0.021567
0.0210135
2.69365
4.1074
0.0330936
2.77857
0.667642
0.0211352
0.11981
3.62601
0.0349495
2.25783
0.0218045
0.0270182
0.0496513
0.0272408
0.490068
0.0213631
0.727894
0.021107
0.0300042
3.19965
0.0209131
0.0228737
0.110496
0.020637
0.0251498
0.521965
3.01957
0.0680678
0.211614
0.256137
0.0196304
0.0208694
3.21546
0.140596
0.0611195
3.43178
0.0205071
0.0239088
0.0195913
0.394082
1.53642
0.025604
0.0218124
0.279333
0.0242263
0.0207421
6.69927
0.449575
3.06196
0.0197545
0.0215463
4.58574
5.56269
0.139198
0.0222455
3.34333
0.0213518
0.289819
0.14974
0.0737598
0.0247912
6.95212
0.0248192
0.023263
0.380671
0.0217968
0.0233963
0.0227811
0.0205557
5.8486
0.0312922
0.111478
0.0321468
0.249915
0.0206033
0.564371
0.0222088
0.0232878
0.0198883
0.021102
0.0212516
3.3027
0.02094
0.0197201
0.254314
0.021576
3.74901
0.0212949
0.0224691
0.0655026
2.8184
0.382961
0.0207716
0.833184
2.7764
0.0218387
3.29226
0.0296207
0.020529
0.153867
7.94732
0.795485
0.0258206
0.0207534
0.0196559
0.458839
0.0859881
0.0637492
0.0267882
0.156423
0.0220486
0.0223069
0.0829803
0.355948
0.0868147
0.3924
0.0215257
0.0803331
0.0812452
3.78606
0.0254639
2.01363
0.075745
0.0215887
4.97064
1.09547
2.78981
3.22332
3.08133
0.274877
0.0389834
0.0205441
0.0287436
4.08406
8.64126
0.0211443
0.0216975
0.0653184
0.265968
0.0197641
4.81278
0.0204859
0.0213602
5.75942
4.47796
0.269572
0.0207791
0.0213997
4.80914
0.112763
0.107795
0.0237665
2.72538
0.527244
2.97217
0.0528769
0.03962
0.0218063
0.0215689
1.5163
0.047967
5.46549
0.0285195
0.0328939
7.50242
2.7886
3.34967
0.0214228
0.0303954
0.020739
0.0339242
0.0228101
1.97439
0.0241811
3.32766
0.0197641
0.0637937
0.0211107
0.240505
0.0330629
0.0298583
2.80326
0.0418755
0.0473694
0.0221453
0.0648953
0.337991
0.521347
0.0233053
6.55804
0.0203148
3.17296
0.320994
0.0215949
3.52454
3.35129
3.49522
0.298338
0.0120501
0.0211201
3.03846
0.0240732
1.02526
3.26601
0.0208964
0.0225621
0.147926
0.450902
2.01263
0.0215182
0.0207023
1.37856
3.22248
0.109119
0.0253428
0.0230579
0.323282
6.90832
0.0849459
0.0197331
0.0398819
0.0206564
0.0229544
0.0818836
0.0219637
3.09247
0.405117
0.0213695
0.0227349
0.0211509
0.0228214
5.5212
2.71653
0.0288919
2.02578
0.0211086
0.028943
0.0210859
0.0206667
0.0215331
0.0213567
3.8438
0.0213739
0.0496267
0.0214256
0.0259307
0.109273
5.43069
0.0224199
0.922485
0.0679001
0.123603
0.0318561
0.0322115
7.6966
0.0266945
0.0463115
2.00822
0.984336
5.42945
0.0390557
0.295531
0.0218752
0.040746
0.0501251
2.01149
0.0211276
2.17594
0.0208543
0.0209051
3.70732
0.0217689
0.2927
0.0250672
0.0207225
0.0320728
0.0207373
0.0214091
0.020564
0.0217638
0.086453
0.0209114
0.112365
6.66034
0.0620231
2.9705
0.0215508
0.0224022
0.0189282
0.0212418
0.0207164
0.0745929
0.0218768
0.0207816
0.0218535
0.0215546
3.58667
2.20701
0.376649
2.9215
0.0589144
0.0210896
0.587641
0.028246
0.0209049
0.388284
0.512549
0.536219
0.0209517
0.28736
0.405898
4.67667
0.0203461
1.29483
0.0303145
0.0239526
0.0205511
0.0205177
2.52412
1.14933
0.375483
0.0208568
0.0213021
0.445212
0.021608
2.82373
0.302102
1.20276
0.0901801
0.355423
0.0215495
0.0213062
0.131029
0.0292288
0.0236827
0.16376
0.040473
0.0219161
0.0229655
2.20921
0.0207951
3.25028
0.803331
1.04918
0.20105
0.0224459
0.0201441
0.0216864
0.307246
0.403342
0.0203578
0.0229788
0.0208326
0.075575
0.0198322
0.0207889
0.021894
0.032075
1.00011
0.0474893
0.0313923
0.0212659
0.0492942
0.88256
0.0221673
4.23555
2.40107
0.0760849
0.0199448
0.0430506
0.0212183
0.0212904
0.0216117
4.08762
0.11193
0.413201
0.0236705
0.284994
0.0212683
0.0211951
0.0215949
0.591328
0.628625
0.0197257
0.0315249
0.0739097
3.55469
0.0227616
1.42362
0.0262393
2.29044
0.0786917
3.19389
0.0845175
0.07514
0.300582
3.15918
0.367484
2.92839
0.0210539
0.323466
0.0198172
0.0233763
0.0259093
0.0215806
3.2105
0.0290123
0.0270735
0.315135
0.155395
0.278514
0.0213616
0.0235692
0.0261187
0.0202107
0.0298963
1.34341
0.378028
0.692832
0.0208987
0.0267769
0.0241663
0.743337
2.84305
0.111328
0.0201302
0.0218102
6.30568
0.0434922
3.02653
2.54657
0.342746
0.0199288
2.07349
0.0294699
0.0422139
0.0279621
3.40301
0.29822
0.123638
0.935201
0.022218
0.0287359
0.0213689
5.92327
0.0579122
3.2535
0.279425
0.0257262
0.134786
0.0225734
3.39967
0.125405
0.0208058
0.11173
3.19237
0.0974372
3.31349
0.0216543
0.0213293
4.96566
1.13822
7.48033
0.0225458
0.0215629
0.0213643
3.56184
0.132461
0.0217529
0.56663
0.0910872
2.60125
1.83357
0.37935
0.0214167
3.23798
0.0244441
0.0212257
0.131674
3.0381
0.0216144
0.0208465
6.55435
3.28279
0.0203936
0.0209008
2.12796
0.0206842
0.181166
0.0208701
0.706391
0.0213199
0.0505689
0.80572
2.84555
0.0224288
9.61098
0.435309
3.30914
0.261762
2.20528
0.269754
0.0211468
2.37705
0.0227941
0.0213736
0.0201925
0.537947
0.0211191
0.330528
0.0208616
0.0232669
3.62635
0.0640304
3.03658
0.0227481
0.0195585
0.0206979
0.0317038
2.57601
3.09752
0.0206823
0.0644738
0.347819
0.0215477
0.0205246
3.12891
0.0340261
0.0346302
0.121929
2.22802
0.463966
2.28608
3.25058
0.291112
0.294071
0.4247
0.929563
0.0644211
0.0200612
0.119425
0.0211334
0.0209428
2.06725
3.16313
0.0230333
3.98221
1.32339
3.40196
0.782442
0.563769
0.0211955
1.31313
0.139832
0.0212222
0.022519
3.32764
3.01164
1.42654
3.32836
0.0397198
3.37926
3.42411
0.0310393
0.0217777
0.0210117
0.276239
0.020989
0.0910941
0.0222153
0.0219923
0.0232348
1.11821
3.71031
3.80547
0.0218427
2.32293
0.0250172
0.0297981
0.0208276
0.0208098
3.8944
0.0270253
3.36726
1.56914
0.431496
0.103238
0.0214342
0.0407383
0.0215686
0.127862
0.0224071
0.0226702
0.0217484
0.0222341
0.138391
0.0220646
0.0338368
0.0213313
0.0343213
0.223913
5.41336
0.0210191
0.0469965
0.0214836
0.157319
0.0238435
2.41483
0.346061
0.0313002
0.0235432
0.022555
0.521797
0.0212229
0.259957
0.0214232
0.0209021
0.022194
3.09177
0.0266371
0.0247467
0.0303839
0.0214385
0.0612126
2.95069
0.238724
0.0354169
0.0213763
0.0762386
0.0201361
0.020982
0.193231
3.32096
0.0211775
0.0307998
0.124299
2.54527
0.021794
0.0219793
3.31809
0.0224738
0.174839
0.0145573
3.76831
0.0213303
0.027965
0.0212387
3.5549
0.11784
0.0399328
0.110412
3.724
0.0223449
3.62583
2.89933
0.0215638
1.35503
0.076798
0.0222715
3.96484
0.0215193
0.0211706
0.0204633
0.146707
0.409026
0.135705
0.0226897
0.0222227
0.0294738
0.375069
0.153755
3.67237
0.331041
0.0219564
0.12126
0.133603
5.42058
0.0748918
0.271335
0.0210024
0.0333502
0.0205344
0.112029
0.0382134
0.0212306
1.98877
0.435051
0.0316175
0.0285936
0.0196678
0.0213554
0.0512697
0.0333543
0.290408
0.0644193
0.0647754
0.0595089
0.115886
2.45477
0.0650078
3.63218
0.0210308
0.0207916
0.147066
3.63014
5.39682
0.694353
0.0222004
3.52282
0.35188
0.0209401
0.025989
0.0206883
0.0402172
0.0685324
0.109497
4.38102
0.20721
0.022559
2.84105
6.29366
0.0214101
0.113214
2.55253
5.5316
0.0237859
0.0707995
0.0196079
0.0229394
0.0210765
0.0252335
3.64247
2.73551
3.82673
2.7698
0.0224965
0.0343086
0.0529606
0.0209753
0.0216459
0.0205289
2.7289
0.0209486
3.44543
0.0374439
0.0527693
0.143696
0.114627
4.11986
2.68511
0.0394182
0.0198426
0.0232119
2.26506
0.690184
0.0245408
0.0207042
0.0205031
0.0612778
0.0297372
0.129703
2.614
0.022537
0.0204814
0.109462
0.0574975
5.8485
1.29962
0.0209357
0.0700936
0.021501
3.68527
0.0199821
3.40874
0.0210391
0.0224613
0.0306819
0.0218143
0.0964024
0.0291711
0.0460474
4.30462
3.00856
0.024942
0.0291337
0.021188
2.50578
4.6657
0.0216145
0.0200352
0.366383
0.0195583
3.89863
0.021333
0.0340153
0.0674607
0.580006
0.0406935
0.0226417
0.021586
0.0670873
3.33243
0.0211466
0.123116
3.8196
1.27965
0.794044
0.0338828
3.25648
0.025111
1.54432
0.0212699
0.328994
0.340294
6.68946
7.88358
2.15071
0.0220502
0.377901
0.020837
8.36469
0.377547
3.27444
4.23903
0.0269321
2.59964
0.33304
0.0355372
0.022676
0.0216007
3.45613
0.0254735
0.0659079
0.0230889
0.0216021
0.0206748
0.0215223
2.79901
0.103645
0.0304253
5.51093
0.506543
0.0215769
0.0213017
0.0205068
0.0285659
3.37253
0.0942851
0.0255038
0.0245958
0.56428
0.0772232
0.0435792
6.26827
0.0297222
3.57622
0.0295935
0.0289078
0.0212784
0.0230569
0.0681616
0.368203
0.334637
3.31924
0.0685603
3.47593
0.0248774
0.0243165
0.0215421
3.79352
3.59574
0.712411
0.610114
0.0234961
0.0213837
0.0208927
0.0214185
0.0205457
6.19558
0.0287689
5.35775
0.0320382
2.7761
2.97439
3.47088
0.0772185
0.0256373
6.7028
0.0401217
1.3204
3.43093
0.0206185
0.267697
0.0270195
3.893
6.763
0.0347473
0.445568
0.509386
0.0227468
0.0615432
0.0237745
3.61999
0.338646
0.0239144
0.021582
0.340393
1.20604
0.126549
0.801492
0.120783
0.0292741
0.0210263
2.02086
3.31018
0.0801204
0.0301825
2.81193
3.40979
0.0208532
0.0213989
0.0241409
3.27346
3.03045
0.0213333
4.13362
0.0220133
0.0210354
0.0215748
2.79177
1.77709
0.182223
5.45022
0.0228365
0.0226432
0.0209612
12.258
0.0221111
3.49377
0.023913
1.38681
0.0218028
0.0211327
0.12091
5.4112
0.383559
0.0350786
3.00069
0.0199987
0.0214859
0.021409
0.0422994
0.063106
0.0627194
0.0388849
3.09659
0.0242222
0.127849
1.3352
2.63082
0.0213887
3.44222
3.25518
0.0247362
0.396515
0.0631681
3.50338
0.0215729
0.0675065
0.0210456
1.42293
7.13997
0.105515
3.49067
0.0234196
0.0471748
0.0223952
3.77988
0.0199075
0.0206961
0.575947
0.0931076
3.56462
2.4313
0.0616056
0.0281696
0.0204482
0.945601
0.0300518
0.0212731
0.13062
0.0205186
0.0419999
0.0213748
1.30128
0.0223414
0.304092
0.33413
0.0308145
1.38702
0.052883
3.70137
0.0212794
0.487059
1.60693
0.0205858
0.0213489
0.0227808
0.0218292
0.0382242
0.0211181
0.261596
0.0719279
0.292915
0.098293
0.0214655
0.0218364
0.0204442
2.9
0.0215062
0.0212521
0.154333
0.0239203
1.36958
3.4533
0.0832399
0.0242554
0.0326076
0.0225517
0.0220138
0.0472509
0.0200905
0.0240104
3.72059
3.48457
0.262606
0.0225083
5.54389
0.0456549
0.0218369
0.278441
2.89975
0.021348
0.0233983
0.0213084
3.17242
4.04024
0.600341
0.0200745
0.0239152
0.0232605
0.0215832
0.121323
0.0215181
0.151288
4.77908
3.55053
0.0205806
0.0237168
0.0233361
3.57018
0.0196571
4.73058
3.79747
0.567168
0.991867
2.74634
2.96429
0.0226781
0.619682
0.165753
0.0223304
0.0204313
0.0208533
3.45161
5.56329
6.56964
0.0212498
3.60921
0.0215572
0.149155
0.0204306
0.0231059
0.0222598
0.0205806
3.70466
0.0224108
2.02098
3.47762
5.49401
0.0448154
0.049535
4.41364
3.28174
0.0217114
10.0201
0.0204509
0.019669
0.021291
0.03685
0.0206508
4.48308
0.0295196
0.364483
0.0396295
3.72064
4.96998
0.109908
0.0205564
0.054758
0.0751918
3.81615
0.021415
0.0198119
0.0227846
2.01123
0.0215908
0.338516
4.52846
0.0406873
0.0588847
0.0214291
0.377489
0.0217549
3.40677
0.0201381
6.58442
0.0306142
0.0214998
4.62197
7.03051
0.0201687
0.0629917
0.0244314
5.95222
0.138579
0.367194
0.350295
0.0217675
0.0555549
2.76127
0.0209314
0.030054
0.0231263
0.0730645
0.0316609
3.94359
2.97285
0.0215125
3.47957
0.0223543
0.0425111
2.75984
4.60288
0.0378374
3.12779
1.0938
0.021592
0.332188
0.12174
0.0300291
0.022368
2.69014
0.02019
4.22964
0.272043
0.124494
0.0213423
0.0305054
3.28984
0.0436265
2.89515
0.02204
0.0236775
1.02515
2.5585
0.0258521
3.37009
0.318092
4.47625
0.0215881
2.42222
1.89912
3.61919
0.0213899
0.0221919
0.0212765
3.46046
0.03095
0.381591
0.376817
0.0217753
0.0202627
0.0213625
3.61441
3.03179
3.19221
5.04685
0.02095
2.72702
3.1439
0.122541
5.57019
3.18305
0.0366241
4.29407
0.0232275
0.025474
3.10315
1.62194
0.0194327
3.84514
0.0217201
0.0213874
2.32392
3.04961
3.61477
8.14915
0.0307615
0.0217914
0.0230798
3.24349
7.40444
0.0211601
0.0451427
0.389922
0.0214214
0.0215046
2.68344
3.01331
0.0229474
0.0214302
0.0222458
0.0225337
0.569213
0.0218131
0.0210902
0.0256438
0.169865
3.28973
0.657016
2.83164
0.021522
0.0246675
3.09029
3.22496
0.0284412
1.25922
0.0213252
0.0354658
0.0226532
0.0187254
0.0644292
0.0210373
0.503864
0.0334489
0.0207919
0.0243184
1.97669
1.57136
3.45998
0.0214335
0.0245238
3.3428
0.38191
0.0239806
0.0213257
0.0214777
0.286678
0.0215181
0.0216284
0.0275765
0.021336
3.13239
0.764004
0.0217344
0.0241031
0.0200187
0.0215186
1.3744
0.507462
0.0678516
5.79006
0.0575399
0.0218593
0.0213013
0.0214933
0.0212393
0.0217261
0.0234542
0.0753178
2.76932
0.0226595
0.107147
3.35721
0.30259
0.0212087
0.0207282
0.0234828
2.89972
0.0211918
2.61147
0.231469
0.0481464
0.0225434
6.04203
0.0200369
0.330489
0.0202607
0.0200631
0.0216311
0.0207707
0.0370839
1.55043
1.38904
0.0373429
1.98241
0.0750709
0.097266
0.0313381
3.09689
5.63744
0.107161
3.27613
2.78536
0.106742
0.373769
0.021813
0.0206617
1.79802
0.0209955
0.0242387
2.12038
0.0575085
2.10668
0.145635
0.0207367
0.0280637
0.0214778
0.0989302
0.0204083
0.0169912
3.37605
2.64958
0.462804
0.0214773
0.0202192
0.0698781
3.835
3.16443
0.131387
1.15509
0.0208533
2.01298
3.6248
0.721709
0.0237468
0.0215077
0.0199566
0.0231762
0.0214145
0.0213046
0.0240122
3.10947
0.0737542
3.32071
0.0357964
1.38787
0.152722
0.0212618
0.0208419
0.0221383
0.0204281
0.0217819
0.58292
3.15285
0.840611
3.59406
0.0232887
4.56962
0.137809
3.38299
3.37686
0.0214757
0.0207663
0.12522
0.0214739
0.0201755
0.556416
3.14868
2.12344
0.0213893
0.0215045
0.0242564
0.0370531
2.73763
0.0204665
0.0240906
0.119924
0.0204218
0.387387
0.0362605
2.05193
0.0217817
0.159998
3.74755
0.0359272
3.1732
0.106571
3.419
0.0200171
0.0250579
0.0208164
0.0294765
2.7994
0.0214235
3.77522
0.0218572
0.0214505
0.0214389
3.54926
0.0431164
0.106003
0.66214
0.0204813
0.0452077
3.99937
0.0540181
0.0206962
0.0229516
0.0214763
0.0552563
0.0212694
0.0208473
3.61815
3.58676
3.4702
1.20756
0.113043
4.40243
0.0672889
3.66641
0.129059
0.0199572
0.0209693
0.0195789
0.021612
3.31182
3.26184
0.0203255
3.83241
3.52365
0.0289105
0.0225667
0.0244371
2.83002
2.56091
3.14641
0.227214
3.17924
0.0195635
0.228738
0.101005
0.344183
3.20252
0.0213264
0.121532
4.17182
0.0328531
3.75985
0.0217883
0.0413914
4.28946
3.31556
0.0706703
0.0305789
4.14943
0.119549
3.33229
3.44883
3.11325
0.105332
2.06006
0.021519
0.0248936
0.0458523
3.98611
0.340934
3.51304
0.021819
0.127791
0.0723018
0.0220606
2.87433
0.0213454
0.126034
3.68935
0.021355
2.04233
3.17279
3.40568
2.56725
0.689874
0.394085
0.021061
3.37251
0.0217692
0.0208433
0.0403092
0.0238686
3.29929
0.0239308
0.0245811
0.0240525
0.0207683
2.9907
0.0228745
0.110686
0.327742
0.0206042
3.71905
0.0993984
0.0227091
4.04112
0.134259
0.021331
1.41259
0.0220381
3.51825
0.108405
0.0203589
0.105212
0.0229267
3.4904
3.20602
0.069931
0.556763
0.0260718
0.0214845
2.12153
0.0240877
0.0212774
1.92795
0.0400262
0.0208589
0.0207789
0.135021
0.0227304
3.51561
0.219362
0.0392366
3.59769
0.0502707
0.0609333
0.0210967
3.54004
5.8283
3.50666
0.0213969
0.0202391
0.0714018
0.0304642
0.378545
0.0213038
0.422039
0.0212016
0.164503
0.0216102
0.017494
0.351938
0.105017
3.62805
1.53408
2.83966
3.17925
0.0196881
0.809483
1.29151
4.369
0.0209102
0.269427
5.40506
8.84867
0.105681
0.124727
0.593614
3.63261
0.0441421
0.166039
0.0205706
0.0467923
0.0408747
0.02131
0.0660158
3.59918
0.356261
7.31705
1.94342
0.0211494
0.0208008
0.0355312
0.0213183
0.357098
0.020497
0.0207582
3.7486
0.134412
0.0339925
0.0991265
0.0222489
0.0895409
5.42467
3.26844
5.41719
0.0253117
3.24143
0.0228775
0.0203938
0.0231418
3.223
0.128559
0.232364
0.107604
0.0222843
0.0208038
0.0213163
0.0218314
0.0264031
3.18115
1.78551
0.0284861
2.95531
3.50788
0.0695915
3.29923
0.0214129
0.0293182
0.0724006
0.0213999
0.0483308
0.0268308
0.0238896
2.88386
3.2841
0.0204898
0.0391758
0.02909
0.0672001
3.58797
2.06813
3.59305
0.0216166
0.0775869
3.56433
0.0761207
0.106795
0.167534
2.74186
3.71596
3.66716
0.0204692
1.79965
0.0203091
0.0230768
0.0213297
0.0592942
3.67457
6.49852
0.473669
8.97272
0.0553145
0.0201349
0.0207315
0.0215049
0.0228641
0.0425636
3.66989
3.59301
0.072734
0.635179
0.0216229
0.0548506
0.0206475
3.37327
0.0961357
0.021526
0.162258
0.0990479
1.94397
3.69226
0.137811
7.16563
0.024701
3.48473
0.161181
2.98546
0.370423
0.0227595
0.0541924
0.0214727
2.60863
5.25045
0.0392165
2.90872
0.173641
2.41812
0.0655391
0.215227
0.0507389
0.0208108
0.11047
0.0583188
0.0241329
0.053711
0.0301649
0.0319088
4.02258
0.135832
0.023121
0.0300646
0.0362545
0.0324827
0.0227988
2.0909
0.11111
0.383545
12.0283
0.0213827
3.34
0.0214584
0.0242347
0.0234495
3.29749
0.0382823
3.36551
2.97295
0.0583324
0.0486944
0.107717
2.18348
0.12833
0.80226
0.0241384
0.0438257
0.020872
3.36604
0.47878
0.0239819
0.0214377
0.0377398
0.0259216
0.0243666
0.0472778
0.0384879
0.0215894
0.0350755
2.83343
3.26487
0.132193
0.0406158
0.019783
2.14973
0.0321486
0.0617381
0.69597
0.0420897
2.14261
0.0202017
0.0242228
0.0242816
0.0343449
0.0211905
3.45184
0.325513
1.53274
0.0389734
3.04022
0.125395
0.0255615
2.17361
0.0626981
0.141267
9.6448
0.0563013
0.0240111
0.0394071
0.0662473
0.0243198
0.146465
3.84628
0.363146
0.0208872
0.121324
2.04274
0.659377
0.0212556
0.0432697
0.0210609
0.0302988
2.80549
0.0290237
0.0286228
0.0208681
0.0207196
1.78342
3.15882
0.0213459
1.94172
0.172526
0.0201403
0.02575
3.38736
0.117127
0.0980226
0.0213638
0.0270443
0.122597
0.0215463
0.0210274
2.65925
0.0288705
3.4258
0.0785509
0.0260439
3.66653
0.134687
0.146303
0.0209125
0.485131
0.0297721
0.0265479
1.73341
0.0399595
0.0215446
0.0875457
0.0243737
0.0251895
0.0201102
1.438
0.0213503
0.0831993
1.37387
0.101051
0.0207927
0.166138
0.0304883
3.3728
0.733658
3.53602
0.12018
3.29453
0.0206908
0.0736783
0.025298
0.0211125
0.428929
2.9629
0.0248349
0.251268
0.0246504
0.0701437
3.6038
0.0259657
0.0365184
0.513591
3.47476
2.22854
0.178918
0.0702615
0.0207205
0.0872432
0.0370543
0.878672
1.90468
3.36996
2.17166
3.52114
0.0206764
1.30998
0.0213943
0.0223647
0.0215465
0.480062
0.154784
0.099516
0.0210148
12.0727
0.0272592
3.54444
0.0208688
0.0605497
0.0297989
0.0659433
0.0408967
0.0981143
0.0227917
0.252893
0.158
0.0209381
3.37696
0.0931344
0.0553672
0.0228382
0.0292778
0.0214211
0.0210262
0.0616922
0.116744
5.8405
0.19959
0.0812306
0.338497
0.0211138
1.43009
0.0611587
2.55555
0.0305263
0.0312921
0.473253
0.0320771
0.416524
0.062978
4.27154
0.0234718
0.0216301
2.85311
0.0315901
0.0236109
0.0281535
0.0301143
0.0204777
0.026641
3.47896
0.0213141
0.0408498
3.35007
0.105643
0.0700701
0.183611
0.124975
3.58443
3.6122
1.39718
0.0532193
1.00522
0.0227062
0.0246232
0.0214833
0.0209756
4.0461
0.509003
0.0326116
0.0207015
0.055172
0.0989101
0.0212777
0.145314
0.0510332
0.021207
0.0230046
1.69175
0.0263704
0.0371178
0.037186
0.021374
0.0907358
0.0633882
0.0296732
1.55941
0.0800145
1.77347
0.181233
2.98428
0.0235144
2.82488
0.172057
0.131016
0.0646699
2.16102
0.0699373
0.0264828
0.0481614
0.0653858
0.0235139
0.0706177
0.0210722
0.0212467
0.020063
0.0243898
3.41921
0.0203673
0.0998625
0.0244147
0.0236855
0.0242888
0.149251
0.0233905
0.0593149
0.021518
0.024367
0.0249613
0.0206913
0.230818
0.0235376
0.0205118
0.0223092
0.0293382
0.0209517
1.99788
0.0271248
3.6963
0.800161
2.85288
0.0587382
0.0763208
0.425969
0.0402067
0.0223113
0.0248931
1.80263
2.46803
1.02769
0.0645966
0.0314278
0.0217608
2.87769
0.0417279
3.06051
0.0215686
0.854912
0.130049
1.42579
1.38937
0.0200839
0.0214065
0.0203128
0.0285878
2.6146
0.0548828
0.528987
0.0258936
0.0286529
0.02098
0.021831
0.035635
0.0236024
0.0239962
0.0208363
0.16403
0.331227
3.06983
0.024382
0.839558
0.020681
0.020246
0.099882
0.0219319
0.0240887
0.0628076
0.0241757
0.0678299
0.021416
0.0186222
0.02153
0.0245432
3.35319
0.0211104
0.0235029
0.0226224
0.0239443
0.467665
0.0217703
0.0483816
1.60726
0.0246426
0.0292496
0.0224304
0.0231365
0.021768
0.151032
0.0214579
0.0263786
2.70844
0.0207863
0.0291415
0.0487909
0.0739988
4.479
0.0200595
0.0238062
0.0221243
0.0295937
0.114046
0.789398
2.73051
0.0202345
0.0283949
0.0971463
0.0235088
2.33781
0.0199618
0.0215587
2.14751
0.0397794
0.0236744
0.0200194
0.124098
0.15112
5.94893
0.0215618
0.219565
0.0199939
0.0205271
0.0235436
0.0725885
3.72259
0.0215109
0.0208971
0.383235
0.0214616
0.0231992
0.10668
3.93393
0.0214563
0.0204597
0.02195
0.0316401
0.193017
3.1365
0.0218403
0.0976378
0.0212048
0.021346
2.94868
0.0233256
0.0218446
0.0302114
0.222744
0.120468
0.0233692
0.0221712
0.568665
0.039543
0.0223648
0.169375
3.36573
0.0214695
0.0217236
0.0231415
0.021355
0.0214633
0.020808
0.0202
0.0381274
0.0230068
0.0547082
0.0468035
1.97702
0.734547
0.0310903
0.0200427
0.0213512
0.0222062
0.0231131
0.0396235
0.0287499
0.998985
0.0236663
0.684771
0.0242843
3.27137
4.31884
0.0282267
0.0225766
0.131581
0.0238198
0.0269153
0.0213822
0.0223401
0.0210646
0.032183
0.0490432
0.0501962
0.0977937
0.023234
0.0254421
0.0222058
3.21029
3.79198
0.412295
0.0272355
0.0920074
0.118178
2.92438
0.0219464
0.432337
0.0640938
0.02139
0.0217849
3.96367
0.0215031
0.0224347
0.0233308
0.212627
0.0214781
0.0217377
0.0258762
2.12256
0.0209257
0.0490041
0.908142
0.023637
0.0214995
0.0211362
0.0214126
0.021764
0.0217067
0.143974
0.0222655
0.0214806
0.0217068
0.021738
0.0284564
0.0213674
0.289443
0.0215503
0.0217031
0.0370307
0.0544592
0.0911638
5.68429
0.566739
3.27867
0.037668
0.0207961
0.0441137
3.03815
0.0201815
0.357163
0.0234515
1.06613
0.0232497
0.0414617
0.0217603
0.021378
0.103915
0.174707
2.00628
0.282024
3.38879
0.0217294
0.02087
2.27156
0.0201497
0.0214868
2.97309
0.0210113
2.02549
0.0214331
0.150502
0.0993671
0.0236795
0.640509
0.027024
0.0743758
1.32134
1.12322
0.913485
3.20906
0.430366
2.32651
0.0215394
5.10617
0.0214624
0.021304
0.0209286
0.0219058
1.13268
0.022405
2.94422
0.0215052
0.0213614
0.0215601
0.0972064
0.0216432
0.0206999
0.067351
0.0256271
0.0261511
0.025079
0.0281347
0.2141
0.519515
1.39337
0.862258
0.0968192
0.022378
0.246194
0.0214435
0.0315798
0.470952
2.7303
0.0454551
3.34632
0.0214659
0.739361
2.05081
0.130156
3.60629
0.284731
0.0234895
0.0213147
0.0239765
0.0214589
0.0212984
2.33083
2.91156
0.021052
2.69409
0.0214103
0.0987309
0.0209634
0.592713
0.0272883
0.0233721
0.0207304
0.410279
1.47202
0.350789
0.0205842
0.0206565
0.0263735
0.0217901
0.0222383
1.13489
0.890251
0.0447735
0.532021
0.0553737
0.0217792
0.0312065
0.775807
0.0218684
2.94019
0.0532719
0.341765
0.0231094
0.024246
0.0202615
0.0196503
0.02136
0.0266653
0.0206642
3.86765
0.0446974
0.226775
0.0212632
0.0446994
0.0214534
0.116207
0.0473858
0.0521653
2.73939
0.0259936
0.021326
0.0249363
0.0217986
3.91964
1.00573
0.0492436
0.0527734
3.40855
4.3552
0.110088
0.0477475
0.0213867
0.0230436
0.0231877
0.0223677
1.40856
0.0263116
0.0215506
0.551269
0.11348
0.0217561
0.0233437
0.0537461
0.0223208
0.020934
0.0429001
0.0213927
0.0218699
0.0209243
0.0234782
0.022042
0.0507629
3.78229
0.0214555
0.433091
0.0971009
0.0970514
0.0209151
0.0215057
0.206655
0.0256936
0.0214267
0.0694951
0.0213367
0.0598441
0.0215826
0.0525927
2.09323
0.0517569
0.0225461
0.0568171
0.134587
0.424767
0.0214226
0.0349646
2.75584
0.02116
0.0221939
0.0728212
6.01487
3.34069
0.023789
0.021337
0.0236106
0.0211922
0.0223194
0.0279388
0.0217508
3.4633
0.0217876
1.25491
0.0214586
0.0214601
0.0638211
0.0213556
0.0215375
0.0277742
0.680732
0.0205573
0.0390889
0.021839
0.0211063
0.0215386
0.0278711
0.0257599
0.0678814
0.0231713
0.0217251
0.0218162
0.0374598
0.0224072
3.57343
0.0220252
0.098509
0.0331656
0.0226264
0.0273387
1.19308
0.0214901
0.0220685
0.0199835
0.754438
0.375196
0.0215724
0.0370715
0.0209139
0.0362982
0.0214198
0.286188
1.69101
0.0235876
0.025544
0.0270606
0.024638
0.0219303
0.0207467
0.0466516
0.0213915
0.0219512
0.0213292
0.0214753
0.021313
0.0208892
0.0415635