/*--------------------------------*- C++ -*----------------------------------*\
| =========                 |                                                 |
| \\      /  F ield         | OpenFOAM: The Open Source CFD Toolbox           |
|  \\    /   O peration     | Version:  v2012                                 |
|   \\  /    A nd           | Website:  www.openfoam.com                      |
|    \\/     M anipulation  |                                                 |
\*---------------------------------------------------------------------------*/
FoamFile
{
    version     2.0;
    format      ascii;
    class       volScalarField;
    location    "350";
    object      p;
}
// * * * * * * * * * * * * * * * * * * * * * * * * * * * * * * * * * * * * * //

dimensions      [0 2 -2 0 0 0 0];


internalField   nonuniform List<scalar> 
13851
(
0.00341348
-0.046135
-0.00117077
0.00323839
-0.0346858
0.00973517
-0.020913
-0.0170551
0.00080637
-0.00543352
-0.000760568
-0.0819119
-0.0902372
-0.17294
-0.0129196
-0.00834673
-0.0209957
0.00631979
-0.0467462
0.000771091
0.00290186
-0.00328528
0.000290619
0.000367775
0.000302808
-0.0152184
-0.0342145
-0.0585161
0.00289825
-0.00217053
0.00940473
-0.0212004
-0.00182498
-0.0134569
0.000340142
-0.103638
-0.114992
0.0176084
-0.00465788
-0.0173015
-0.0024468
0.000109265
-0.260628
0.000614729
-0.00154452
-0.21774
-0.00392488
-0.0119183
-0.0350719
-0.000855143
-0.064948
-0.0764441
-0.141307
-0.0124328
-0.00497267
0.000101695
0.000579647
-0.0979312
-0.00245784
-0.020612
0.0246324
-0.00981052
0.00875587
-0.0411447
0.021308
0.00492201
-0.11652
-0.0078598
-0.0452762
0.00631603
-0.12215
-0.119235
-0.0513568
-0.0126351
-0.00420987
0.00112672
-0.00617134
-0.151189
-0.0364391
-0.118662
-0.0216553
0.002399
-0.0120104
-0.302176
0.00958014
-0.0969666
0.00862999
-0.0095473
-0.028715
0.000608995
-0.102338
0.00549553
-0.00757999
-0.032392
-0.0297685
0.000577805
-0.0381493
-0.148326
-0.00153291
0.000574449
-0.103017
-0.0483853
-0.000576898
-0.0432843
6.20185e-05
0.0041561
-0.0540413
6.98982e-05
-0.120689
0.0100521
0.000540523
0.000618639
0.00486308
0.000400909
0.000519076
-0.0411283
-0.137915
0.000114259
-0.00106466
-0.00430724
-0.266105
-0.0418084
-0.0892668
-0.029666
-0.00748029
0.000223316
-0.00386496
-0.0418176
0.00284476
-0.02581
-0.00261212
-0.000133023
-0.123163
-0.0122418
-0.0392629
-0.000491415
0.000114244
-0.119616
-0.069252
-0.110122
-0.10874
-0.004662
0.0019919
0.000156103
-0.0149123
0.000728924
-0.000182939
-0.0196731
-0.0202776
-0.00334883
-0.0852796
-0.00384293
-0.168638
0.000586597
-0.0245034
-0.0140566
0.000177057
-0.0055482
-0.0709273
-0.0624393
5.50237e-06
-0.0420002
-0.1066
-7.65662e-05
4.14779e-05
0.000148985
-0.000166817
-0.0469063
0.00249808
-0.175013
-0.149026
0.000647398
0.00012104
-0.115388
-0.000104625
-0.0131168
-0.0400555
0.00195564
-0.0583745
5.92818e-05
-0.020392
-0.120018
-0.0126258
-0.0028118
1.73016e-05
0.000471765
0.00483988
-0.00434951
-0.0279766
-0.00360424
-0.00287104
-0.138246
0.00062696
-0.0396514
0.00276139
-0.0229904
0.00187841
-0.0250721
0.00196533
0.00114703
0.000243591
-0.13621
-0.0017304
-0.00785796
-0.00559398
-0.0128713
0.0197735
-0.0237993
-0.133623
2.53683e-05
-0.132256
-0.000907535
-0.00750934
4.27889e-05
0.000139226
-0.00421586
0.0137328
-0.233319
-0.0127774
-0.134576
-0.0233191
-0.0222203
-0.144464
-0.0544518
-0.128368
0.000417034
-0.0325438
7.23003e-05
-0.197337
3.38573e-05
-0.0146426
0.0215688
0.000637898
0.000617788
-0.0656749
0.0152252
0.0274704
0.0202686
0.0001445
-0.00811034
0.0102654
0.00159237
-1.76196e-05
-0.00629343
6.00374e-05
-0.130729
-0.0469316
-0.0125296
-0.0126707
-0.0130591
0.00327961
0.0018391
-0.0147406
-0.0133851
-0.0627989
-0.0093854
-0.000522553
-0.120498
-0.181267
-0.0149333
0.000151242
0.00545914
-0.0103745
0.000261628
-0.0350079
-0.0221349
-0.0150179
-0.032716
-0.140212
0.000666578
0.00286369
-0.0235617
0.0129138
-0.0366888
-0.00715134
-9.05645e-05
0.000684564
-0.00101087
-0.123785
-0.00240646
-3.46655e-05
1.87438e-05
4.62894e-05
-0.061753
-0.0170353
-0.020829
0.00095326
-0.0139898
0.00981852
0.0007986
-0.0179181
-0.00327068
-0.0206184
-0.04371
0.00168137
-0.0391798
-0.00285036
-0.1033
-8.08026e-05
-0.130793
-0.0417988
-0.0198936
-0.125271
-0.00489656
0.00617006
-0.143958
0.000900326
-0.0558896
-0.0309388
-0.00344699
-0.0512115
-0.00223806
-0.0131519
-0.147492
0.000124803
-0.0133781
0.000303998
-0.124676
-0.0950235
-0.0128909
-0.0545675
-0.0135566
-0.183628
0.0040976
0.000353079
0.00116838
-0.0934348
-0.0324402
-0.0256096
-0.0139232
-0.00522982
-0.0125619
-0.0020835
-0.121423
-0.124659
0.00763951
-0.124639
0.0583541
-0.0127362
-0.0384649
-0.0119749
0.00415941
0.0202037
-0.0760009
-0.0393943
0.00397746
-0.0290031
-0.137369
-0.0129867
0.00160944
0.00165939
0.0502912
-0.0263423
0.0227773
-0.186449
0.000209459
-0.0290079
0.00118933
-0.0135082
5.29387e-05
6.38999e-05
-0.000169573
-0.13654
-0.00655002
-0.00865193
-0.0550107
0.0001139
-0.089806
-0.00304815
-0.024287
-0.154836
-0.00834938
0.0143615
-0.0282346
-0.0237066
-0.0024553
0.000124623
0.0049442
-0.0838925
-0.00414701
-0.0383599
0.00446489
-0.0784244
-0.186976
0.0064622
0.00468171
0.0022269
-0.000572419
-0.0130104
0.00711799
-0.0564132
-0.187422
-0.0499464
-0.129326
-0.140678
0.000129173
-0.0152501
-0.145394
-0.121983
0.0222166
-0.139385
0.00430994
-0.0285882
0.000555127
0.0562592
0.000727808
-0.00969934
0.00258292
-0.018567
5.31087e-05
0.000891051
0.000134494
-0.0444276
0.0178199
-0.196997
0.0070173
-0.0554406
0.00862771
0.00193637
-0.0105039
0.0463848
-0.0196282
-0.00508506
0.000108437
0.000851306
0.000474769
0.0364178
-0.0115713
-0.0443989
0.00827299
-0.193163
-0.0115945
0.00735918
-0.00405239
-0.0680915
-0.00259093
0.0031461
9.30137e-05
0.0162108
0.00213153
-0.00327284
-0.136749
0.00196003
-0.000177435
-0.001158
-0.0598606
2.37093e-05
-0.0289202
-0.0380717
0.000305644
0.000665642
-0.0116483
-0.0839589
-0.075937
0.00982845
-0.0538015
0.000406022
0.00128229
-0.314792
0.00148102
1.67732e-05
-0.0139782
-0.000516354
0.00346766
0.000652287
0.00738463
-0.00530705
2.62378e-05
0.0019245
-0.141166
-0.0121974
-0.0497539
-0.000555653
0.00467595
-0.00325808
0.000322152
-0.000942962
0.000369687
0.000423519
-0.0195518
-0.0159821
0.00731169
-0.0127882
0.000550551
-0.129975
-0.135752
-0.0135081
0.00355304
-0.0115355
-0.00307937
-0.28155
0.00121591
-0.00612834
-0.00263163
-0.0240208
-0.0190234
-0.283306
0.000101042
-0.155114
0.00188041
0.000116481
0.0032979
-0.17482
-0.0132184
-0.00354093
-0.00116205
-0.0208323
-0.00520519
0.000142049
5.30047e-05
-0.0191664
-0.123047
-0.058959
-0.0873451
-0.0880691
0.0118838
3.23773e-06
-0.0473098
-0.00925578
-0.0215461
-0.0409464
-0.00348783
-0.0312828
-0.131004
-0.011988
-0.270134
-0.235543
-0.144393
-0.00122087
0.00412729
-0.0345173
-0.000339231
-0.00407645
-0.0232436
0.0287697
-0.00482545
0.037834
-0.123299
0.000103465
-0.000626254
-0.0612471
-0.135521
-0.011859
-0.00921573
8.15019e-05
-0.00494173
-0.0315344
0.0119049
-0.00215931
-0.0579512
0.000144291
-0.288253
-0.149304
-0.00242046
-0.00463884
-0.0478019
1.61088e-05
0.000845506
-8.43611e-05
-0.059284
-0.0254292
-0.0870181
-0.10245
9.48403e-05
0.00970283
-0.0155324
0.0402799
-0.0646392
-0.123874
-0.123016
-0.00246297
-0.0189978
-0.0203191
-0.14237
-0.0942059
-0.0515015
0.00699382
6.49016e-05
-0.00513527
0.0273271
9.43702e-05
-0.0111256
5.14375e-05
-0.00114093
-0.123897
-0.0378646
0.00750363
8.63794e-05
-0.019734
-0.0210762
-0.000262211
0.000560893
0.000274649
-0.0129276
-0.0822876
-0.0152952
-0.0102321
-0.130819
-0.0207418
-0.0505025
-0.134768
-0.132586
0.00365634
-0.0442326
1.04858e-05
0.000243823
-0.0110243
-0.125044
-0.0232725
-0.0858193
-0.0230233
0.000730793
-0.00550494
0.00184857
-0.00448945
-0.0568612
-0.0125973
0.0084024
0.00064981
-0.0340483
-0.0410774
-0.0200732
-0.00241517
-0.00414926
-0.0165226
-0.0321654
0.0365118
-0.0553617
-0.00360102
-0.0956795
0.000700765
0.0235138
0.00371119
-0.140937
-0.00147365
0.000611992
-0.120931
9.93064e-05
-0.207038
-0.135433
-0.274973
-0.0103541
0.000709389
-0.119487
-2.41486e-05
-0.000922759
9.27135e-05
-0.00112628
-4.14147e-05
0.00742841
0.00728622
8.47651e-05
0.0712545
-0.000226845
0.0693244
0.000235799
6.86567e-05
0.000296786
-0.00811755
0.0212053
-0.0702504
-0.0337526
-3.47345e-05
0.000561657
9.35811e-05
0.000546594
-0.107784
-0.0284689
-0.0162287
7.75757e-05
-0.0195391
0.000415675
0.00512511
-0.116847
-0.0060513
-0.142627
-0.0185295
-0.00254129
-0.0841024
-0.0720367
-0.0449325
-0.072887
-0.020868
0.00544707
-0.068017
0.00623745
-0.016151
-0.0132623
-0.0356021
8.12385e-05
-0.0589883
-0.136796
0.00122496
-0.000132944
0.006465
0.000168354
-0.0202349
-0.00452002
-0.147153
-0.0542107
-0.0265179
0.00254499
5.11974e-05
0.000142938
-0.129668
-0.100948
0.017669
-0.135541
0.000850336
-0.0133212
0.000112149
-0.0190902
-0.118174
-0.00383302
0.000337731
-0.00226299
-0.0311004
0.000292658
-0.284298
-0.0198644
-0.16219
0.000116579
-0.0165155
-0.139545
-0.0832942
-0.100755
0.00175751
-0.125832
-0.0127072
-0.00346841
0.0215925
-0.000853796
-0.0138968
-0.272076
0.00275901
0.00176386
-0.114255
0.000574212
-0.00187797
-0.00513214
0.00069888
-0.310405
-0.0146039
-0.0708383
0.00700409
-0.00169188
0.000734269
-0.0107988
-0.000231708
0.00236838
9.25169e-05
-0.00248961
-0.00259954
-0.144186
-7.2327e-05
0.000149572
0.00268908
-0.0194815
-0.14052
0.000148449
0.00201121
-0.0729862
-0.00685293
-0.0109565
0.000286796
0.00935888
-0.126808
-0.0156899
-0.138304
-0.0571684
0.000675698
-0.000675983
-0.266589
0.00832827
-0.00982515
0.000102222
7.60555e-05
-0.00223045
0.00224312
0.0101045
-0.00276158
-0.00123571
-0.012195
0.00198695
-0.089732
-0.0120335
-0.025345
-0.0211278
-0.0161551
-0.0267298
-0.0706314
-0.123108
-0.00309297
-0.0291539
-0.0819083
-0.01993
-0.243103
0.0196728
-0.0254819
-0.160236
-0.157079
0.000930049
-0.009082
0.00067271
0.00689116
-0.105535
-0.285675
0.00120687
0.000512367
-0.0644852
0.000838649
0.000147334
-0.114268
0.000825127
-0.0100811
-0.324388
-0.142532
-0.000252917
-0.000843058
-0.0136095
-0.0895506
-0.105053
-0.0923906
0.00339621
-0.11707
0.0396883
0.0276372
-0.0514949
-0.0531008
-0.0121144
-0.0190585
-0.063186
-0.0731609
-0.12181
0.0046848
-0.0478467
-0.316651
-0.0416436
-0.149011
-0.0149181
-0.0504592
-0.00021757
-0.00438027
1.46718e-05
-0.0590532
-0.0125018
-0.125844
0.000153545
-0.0710837
-0.0041027
0.0303891
-0.0516554
-0.0487642
-0.15012
-0.0594302
0.00919724
0.000424565
-0.0700489
-0.0180652
0.0120337
-0.0096394
-0.143022
0.00026117
-0.165178
-0.00282873
-0.0109344
-0.133907
-0.0880485
-0.142213
0.000339056
0.00380589
0.000933019
-0.165728
-0.0123254
-0.0507688
-0.13193
6.95599e-05
-0.0327268
0.0295661
-0.0139831
-0.0458323
-0.0137736
0.000590776
-0.0329533
-0.134625
-0.0613461
-0.00997803
0.00308605
-0.00104255
-0.36316
-0.0705323
0.000150098
-0.00934281
6.13599e-05
-0.00170964
0.00212325
0.000565917
0.045992
0.00276792
-0.0097936
0.00200952
0.00108293
-0.00571584
-0.127317
-0.169944
-0.0302419
-0.0241483
-0.00432375
-0.0275804
0.000909379
2.15241e-05
-0.00691281
-0.00937275
-0.129705
-0.0134112
-0.0665088
-0.0148193
-0.0106039
0.00211648
-0.0658038
-0.000955092
-0.0244758
0.0097285
-0.103597
-0.0152693
-0.0214837
-0.121261
-0.0351594
0.0142666
-0.0679234
-0.0129112
-0.20849
-0.0222882
-0.00363886
-0.0017525
-0.0583515
-0.0506354
-0.043229
0.000287786
-0.0914688
0.000175961
0.000204533
-0.187794
0.000295729
-0.0636797
-0.0140898
1.4374e-05
0.00926785
-0.000116834
-0.0138163
-6.55948e-05
-0.0203063
-0.111739
2.87849e-05
-0.103982
-0.354663
-0.0035589
-0.13877
-0.0185925
-0.000165109
0.000434983
-0.00466038
-0.000137524
-0.074575
-0.0267433
0.000967392
0.00025916
0.00035583
-0.15158
-0.0249845
0.00861426
-0.149173
-0.110792
-0.00491892
-0.0337161
-0.024358
-0.000114717
-0.00225635
-0.00411518
-0.00876537
-0.00443927
-0.000785685
-0.0127487
-0.182278
0.000598586
-0.0803912
-0.014853
-0.0304807
-3.9294e-05
0.000846123
0.0201031
0.0193573
-0.0256199
0.0011746
-0.0111463
-0.00165581
-0.0114101
0.0154807
0.000167619
0.00327027
-0.0708341
-0.00919805
0.000504195
-0.00669445
0.0188286
0.00518742
-0.0405883
0.0275076
-0.0229372
-0.0274756
0.0030472
-0.0118533
0.00101413
-0.191689
-0.107138
-0.040947
-0.0747665
-0.0133455
0.000251299
0.00013888
-0.00738554
-0.000387685
0.000612391
-0.000110349
0.00115097
-0.0665369
0.000182012
0.00110628
-0.0220789
-0.0364714
-0.117021
0.0135777
0.00886204
-0.00281238
-0.0742913
-0.0185895
-0.0317469
-0.233157
0.0652083
-0.0775886
0.000213507
-0.0575484
-0.00904802
0.000371978
-0.000106783
-0.155314
-0.093673
-0.012082
-0.0416577
-0.00374531
-0.0104981
7.66588e-05
-0.00352638
-0.0304612
0.00195647
1.1881e-05
-0.0350991
0.0183073
-0.128177
0.000323797
-0.0098434
-8.30953e-05
-0.000440759
-0.00228303
-0.134549
-0.0904907
-0.0734983
0.0439308
-0.147463
-0.00901396
-0.114713
0.000575232
-0.0245095
0.00017337
-0.0103108
-0.0430538
-0.013974
-0.141201
-0.0163851
-0.029245
0.00238717
-0.0672537
-0.0135253
-0.0131935
-0.0300946
-0.00367437
0.000262423
0.00698959
-0.026984
-0.0202242
-0.0333231
-0.00348477
-0.036521
0.00345284
-0.0326285
-0.130889
0.0177577
0.000243727
-0.0258614
-0.278295
-0.0128763
0.00624144
-0.00564246
-0.00260991
0.000203986
-0.121154
0.00647186
-0.0348785
-0.0312059
-0.135721
-0.00551589
-0.0286017
0.0239301
-0.000666185
0.00499647
-0.0107599
-0.238946
0.0161636
-0.142496
-0.00114361
-0.0420578
-0.0947499
-0.0202487
-0.134309
-0.105453
0.000204391
-0.0114751
-0.137972
-0.0162649
-0.122787
-0.00788642
-0.00668438
-0.130838
-0.00797967
-0.332818
-0.0083407
-0.0192918
-0.00906694
-0.146311
-0.0992146
-0.0196345
-0.00833123
0.00429529
0.0393161
-0.119887
-0.0268444
-0.0149304
-0.125369
-0.0309818
-0.000832081
-0.0905793
0.00865288
-0.0211545
0.000315677
-0.0626048
-0.136778
0.00021379
-0.00299759
-0.0906873
0.000213788
0.000201765
-0.00356877
-0.011098
-0.00603992
-0.0663107
-0.037267
-0.132779
-0.0228712
-0.256843
-0.00122003
0.0707405
-0.0762232
6.19994e-05
0.00219364
-0.00644809
0.0658706
0.000299856
-0.0134124
0.000252818
-0.00564584
-0.00238252
-0.114167
0.000292045
0.00179356
-0.177434
-0.00388816
0.0365696
-0.0157824
0.000397262
3.6659e-06
-0.0472664
-0.120862
-0.125868
-0.000417509
-0.0576238
-0.00465407
-0.00304183
0.000862721
-0.147237
-0.0413537
-0.00592603
-0.0838471
-0.113512
0.00219425
-0.120051
-0.121961
0.00233303
-0.00467396
-0.00504525
0.00716234
-0.0531298
6.48592e-05
-0.0905189
-0.00591707
-0.00459934
-0.0276654
-0.141262
-0.000895193
-0.188097
0.0109985
-0.178345
-0.0037814
0.00216293
-0.00402552
0.0151134
0.000255817
0.000533628
-0.0234212
-0.143243
-0.169414
-0.0114196
-0.13275
0.00266035
-0.125574
-0.136999
-0.0457011
-0.00830836
-0.000561562
0.000163445
-0.00250254
-0.107621
-0.00690437
-0.0224056
-0.000578555
-0.0365972
-0.12529
-0.146392
0.000725307
-0.122388
-0.00346006
0.00187279
-0.00402717
0.000227261
-0.0841097
-0.00955325
-0.131442
-0.0809862
-0.00132118
-0.0903147
-0.0135597
-0.00153337
-0.00690674
-0.100415
0.0019812
-0.0172709
0.000485397
-0.00359493
-0.0963972
-0.024163
-0.0126784
0.000502028
-0.0117488
0.0374014
-0.126046
3.15297e-06
-0.0438755
7.39443e-05
0.00659922
-5.40679e-06
0.00647487
-0.0320138
-0.0513381
-0.0336956
-0.0123305
-0.0039832
-0.00314844
-0.00217517
-0.0138691
0.00122072
0.0019123
-0.153302
-0.0287312
0.00448436
0.00460324
0.000254502
-0.0813761
-0.149055
-0.0187163
-0.0418586
-0.0114424
0.00115007
5.56244e-05
0.00126322
-0.0699424
-0.127024
0.00015625
0.0028993
0.02005
-0.12326
-0.0217425
-0.0216855
-0.12649
-0.0200174
0.00026277
-0.110323
-0.123076
-0.00570038
-8.02916e-05
-0.00850194
-0.127216
-0.0985161
-0.017376
-0.0881903
-0.145443
-0.0288174
-0.125583
-0.0096592
-0.000428833
-0.0283094
-0.0769448
-0.0106035
-0.0751728
-0.0163445
0.00123064
0.000786972
-0.062886
-0.00330606
-0.0992012
-0.0147722
-0.0326699
-0.0559795
-0.011285
-0.114095
-0.12623
-0.00464558
-0.0257855
-0.0989504
-0.00959066
-0.26991
-0.0039547
0.000153594
-0.00263642
0.00438184
0.000857596
-0.00605888
0.00593471
-0.00831445
-0.0340436
-0.0253976
-0.0204835
0.0015411
1.83275e-05
0.000246748
-0.00447073
-0.0134551
-0.000434953
-0.0484146
-0.00406524
-0.00256412
-0.0157192
-0.0262092
0.00203537
-0.127877
0.000159253
0.000864114
-0.107719
-0.139114
-0.266923
0.00702559
0.000228084
-0.211514
-0.00344718
0.00124871
-0.0406824
-0.00172274
-0.0520902
-0.0657636
5.26802e-05
-0.124604
-0.113269
-0.0243972
-0.000818734
-0.157396
-0.0146558
0.0204011
-0.0859614
-0.298324
-0.0309723
-0.0794728
2.38089e-05
-0.00861095
0.000556018
-0.00919019
-0.12812
-0.151955
-0.0519841
-0.155212
-0.032086
-0.0013819
-0.00182957
0.000253038
-0.00455099
0.000839622
-0.126064
-0.00191445
-0.130879
0.00253719
0.00868917
0.0127062
-0.110518
-0.145229
-0.123847
-0.0502083
0.000128735
0.000388211
-0.122031
-0.107678
-0.0297715
-0.00125263
0.000601348
-0.00926594
-0.0162225
-0.0970928
0.0293759
-0.0346294
0.000810078
-0.0970277
0.00169012
-0.12829
-0.0619052
-0.00297152
-0.0523408
-0.000662422
-0.12712
0.000168402
-0.126557
0.000201589
-0.0337626
0.00680702
-0.0131387
0.00474209
-0.0338121
-0.0453217
-0.129528
-0.166554
-0.0273746
-0.0218387
-0.00428148
-0.122945
-0.190988
5.38512e-05
0.000231912
-0.00435902
9.70249e-05
-0.120446
0.000110363
0.010119
-0.00300846
-0.0235289
0.00864685
0.00309965
-0.0202396
-0.0776326
-0.139881
-0.00618757
-0.00163108
-0.154496
-0.0605797
-0.0394091
0.000756075
-0.18471
-0.0490749
0.0140267
-0.010707
-0.000259865
-5.52088e-05
-0.331991
-0.356443
0.00810273
0.000335052
-0.000616377
0.000439829
-0.127568
-0.0116217
-0.146518
-0.122353
-0.00876786
-0.0115354
-0.0265878
0.00111941
-0.00185665
-0.0195092
-0.127722
-0.0117323
-0.0779557
-0.000175597
-0.00283498
-5.42293e-05
-0.00948827
-0.11877
-0.11078
-0.0118551
-0.249472
-0.0736538
0.00028867
-0.0109343
0.000861217
0.00438748
-0.125579
-0.112032
-0.00736596
-0.00568484
0.00529881
0.000429826
-0.044686
-0.115991
-0.0121488
-0.12983
-0.0560224
0.00720995
-0.0106287
-5.3744e-05
-0.0493613
-0.0101747
-0.00336137
-0.128189
-0.00432095
-0.0352294
0.00227026
-0.0251678
0.000322067
-0.0541159
-0.134453
-0.0237216
-0.00157274
-0.0290043
-0.0111979
-0.00160044
-0.013926
0.000849702
-0.279951
-0.0152638
-0.165713
-0.00394355
0.00291154
-0.00883659
-0.132344
0.00301494
-0.0396059
-0.305768
0.00114106
0.0106305
-0.124295
0.000176555
-0.00180985
-0.0266083
-0.0564134
-0.272483
-0.00213629
-0.000488777
-0.018022
-0.00127744
0.0191756
-0.0127097
-0.154976
-0.00565174
-0.0252388
-0.0200965
-0.00171099
-0.0458132
-0.0494978
-0.0174766
-0.0876099
0.00402179
0.000190452
-0.0883722
-0.126397
-0.00473985
-0.0477929
-0.124158
-0.161076
0.000421887
-0.0143951
-0.0257609
-0.14393
-0.146901
-0.0127207
-0.130149
-0.0257996
-0.000454831
-0.00568303
-0.180358
0.0211068
0.000716385
-0.27582
-0.00155922
-0.0164096
-0.00184139
-0.30519
-0.00661385
-0.0479148
0.00375539
-0.0287604
-0.0253305
-0.00567502
-0.0368384
-0.282915
-0.00119366
-0.00693699
0.0727071
-6.99813e-06
-0.0138543
-0.0146998
-0.0181515
-0.0456037
-0.0503325
0.0112959
-0.133572
-0.0304446
-0.015016
0.0253926
-0.0406356
0.00170965
-0.131522
-0.131246
-0.0477753
-0.0142553
-0.0767367
-0.120197
-0.0148305
-0.00415543
0.0013497
0.0110964
-0.126253
0.0218281
-0.133455
0.000461479
-0.0713678
-0.0027247
-0.135202
0.00014932
-0.00147789
-0.0196272
-0.00693059
-0.134636
-0.120549
-0.0793947
-0.0196259
0.000779483
-0.0153441
0.00639076
0.000529721
-0.100787
-5.29714e-05
-0.0462255
-0.0104957
-0.0610179
-0.00543257
-0.00105712
-0.00540478
0.00644542
0.00719868
-0.00534506
-0.1214
-0.000777196
-0.0329277
-0.0306995
0.000197281
-0.0119662
-0.0105716
-0.0254849
-0.0181664
-0.00171701
-0.000804399
-0.0760348
-0.00229266
0.000751612
-0.000967529
-0.0190576
0.000804739
-0.124711
-0.0140746
-0.00299525
-0.0961766
-0.0394684
-0.0237405
-0.133689
-0.0873946
0.00413487
-0.0113772
-0.0146721
-0.0250228
0.00214236
0.000243349
-0.0381008
-0.0681158
-0.126672
-0.105225
-0.0139211
-0.342838
8.49153e-05
-0.0265651
-0.000933656
-0.136724
-0.0131549
-0.0339688
-0.0121355
-0.123417
-0.180181
-0.035008
0.000232096
-0.0222981
0.00308646
-0.0198214
-0.0620454
-0.0034648
0.000156384
-0.0531237
-0.129432
0.000414299
-0.0345456
-0.040582
-0.141649
1.03524e-05
-0.2133
-0.0617666
-0.0062988
-0.0303094
-0.113523
0.0197591
0.0029128
-0.0357109
-0.00107984
-0.0314542
0.000758051
-0.00116208
-0.134387
-0.304559
-0.360897
0.000299783
-0.129495
-0.0136508
0.00245783
0.000604498
-0.00979532
-0.0289541
0.000387702
-0.154142
-0.0336427
-0.0586041
-0.169683
-0.241135
-0.0115091
-0.0721421
-0.20079
-0.142721
-0.000821803
-0.251641
0.000810561
0.000118348
-0.0109919
0.000556208
0.000666396
-0.150069
0.00610375
-0.00337562
0.0110129
-0.0708484
-0.217391
0.0200685
0.000386809
-0.0026526
-0.00541517
-0.168749
0.00175349
1.69497e-05
-0.00713815
-0.00407483
0.00160033
-0.00486868
-0.152974
-0.0456078
-0.0092931
0.00175064
-0.0151118
-0.0211756
-0.125979
0.000600092
-0.277836
-0.0535551
-0.0160163
-0.162009
-0.308232
0.000570971
-0.0810284
-0.012732
-0.348526
0.000767235
0.0221035
-0.000832506
-0.0188148
-0.000919163
-0.119203
0.000654028
0.000447153
0.00302005
-0.0788397
-0.0447149
-0.0648775
-0.189015
-0.0156139
-0.130229
-0.0232323
-0.031001
-0.119734
-0.164942
0.00734884
-0.151454
0.0260444
-0.0204586
-0.00671904
-0.0969365
-0.0451334
-0.0322045
-0.0074598
0.000589222
-0.0401584
-0.0011316
0.0130878
-0.0128754
0.00823492
-0.139848
-0.0328594
0.0210129
-0.0242381
-0.021873
0.024669
-0.0291878
-0.0479963
-0.139636
-0.0289132
-0.158634
-0.00423212
-0.0168187
0.0587121
-0.134266
-0.0141531
0.000292014
0.000694835
-0.135364
0.00233456
-0.0163428
-0.00911628
-0.0169469
0.000394554
-0.0135485
-0.144098
-0.118261
-0.113464
-0.222805
-0.00210673
-0.126339
-0.138722
-0.0926333
-0.317507
-0.144068
0.00982055
-0.0355465
-0.0329451
-0.047049
-0.122678
-0.0447596
3.9357e-05
-0.155002
5.50712e-05
-0.0136962
0.0286369
-0.179866
-0.124917
-0.126944
-0.00760081
-0.0185677
-0.0056672
-0.13239
-0.34043
-0.00698167
-0.0699143
-0.0142833
-0.0150792
-0.0116023
-0.126604
-0.0868585
-0.0105838
-0.0148897
-0.0305732
-0.00247666
0.00373097
-0.0248991
0.00139001
-0.0082303
-0.00351836
-0.0654218
-0.00697549
-0.0163604
-0.0154232
-0.00445634
-0.157204
-0.13973
0.00200603
0.0241419
-0.012532
-0.0301266
0.00298333
8.01425e-05
-0.00449156
0.00133009
-0.0230628
0.00150542
0.00106014
-0.00471732
0.0554746
-0.0318146
-0.145265
-0.0154028
-0.00711155
-0.135601
-0.0207884
-0.0329626
0.00163558
-0.015706
-0.00567529
-0.0112434
0.000225438
-0.0196274
-0.0116175
-0.14876
0.00205088
-0.0165655
-0.0165302
0.000223714
-0.0041271
-0.032146
-0.00711931
-0.0586246
-0.331732
0.00472999
-0.0197271
-0.0120191
-0.0153321
0.00034322
-0.0184064
-0.00445054
-0.000182755
-0.115664
0.00279098
-0.0470449
-0.153879
-0.00139584
-0.00295899
-0.00159959
-0.0363405
0.0531375
0.000187623
0.0247065
-0.114236
0.00793219
0.00118059
-0.152472
0.000126561
-0.00257306
0.000554297
0.000138436
0.00162965
0.00108503
0.00262763
-0.0780087
0.00308505
-0.0173493
-0.0809122
-0.000321922
-0.00366967
-0.0431201
-0.171873
-0.305125
-0.0308329
0.0665958
-0.131213
-0.0856202
-0.0141643
-0.0243514
0.000640696
-0.0808747
-0.00110824
-0.0185407
0.00639191
0.00173438
-0.0917024
-0.0274627
0.000688941
-3.21154e-05
-0.0114633
0.000443448
0.000587361
0.00146232
-0.128949
-0.112199
-0.0284818
-0.00980764
0.000600774
-0.0686914
-0.197256
-0.142599
0.0154395
-0.116975
-0.00102436
-0.11844
-0.121336
0.0121277
-0.0017553
-0.00988746
-1.23682e-06
8.36493e-05
-0.00118045
-0.000504242
-0.0183264
-0.150979
-0.06195
-0.134597
0.00394367
0.0561456
-0.103668
-0.0105658
0.00055748
0.00159501
0.000563559
-0.0237105
-0.00938401
0.0717615
-0.030581
-0.129375
-0.039569
-0.200811
0.00485517
-0.138885
-0.125208
-0.00426975
0.00108736
0.0040161
-0.00814655
0.000577782
-0.0203514
-0.145511
-0.11975
-0.0118419
-0.0132478
0.00222842
-0.0116972
0.0693015
0.000822916
0.00348444
-0.0947026
4.04817e-05
-0.0121327
-0.011132
0.0014908
-0.0194291
-0.112597
-0.196676
-2.50803e-05
-0.13313
-0.0720329
-0.128743
0.000166221
-0.00749452
0.000364273
-0.0111962
-0.142592
0.00033562
-0.0882122
0.00153872
-0.000216493
-0.0147831
-0.131308
-0.0482013
-0.0587125
-0.0331883
0.000590582
0.00383429
-0.0799943
-0.00380143
0.000633561
0.00312156
-0.00648119
0.0164719
0.00155522
0.00116022
-0.126851
-0.127998
-0.134765
-0.0432186
-0.0629507
-0.175242
-0.0798829
-0.127175
-0.00578951
0.000161605
0.000247475
0.000102144
-0.00448556
-0.131788
-0.133693
0.000353156
-0.0762968
-0.126249
-0.0526066
0.00270569
-0.0111947
0.0250021
-0.11883
-0.144056
-0.0215443
-0.14005
9.67505e-05
-0.0594149
-0.0303853
-0.00369959
-0.122624
-0.0122489
-0.095768
-0.118221
-0.00166531
-0.191027
-0.00290507
0.00163165
-0.145858
-0.127944
-0.0817299
-0.0128027
-0.161027
-0.0976721
-0.124273
-0.131804
-0.152739
-0.0829102
0.0053633
-0.0128928
0.00375793
-0.0487673
-0.128965
-0.00311478
-0.126783
0.000408686
0.0139745
0.00119473
0.00043258
-0.133916
-0.0130619
-0.0902812
-0.143362
-0.0133277
0.00257224
0.0607456
-0.127773
0.0172119
0.0514632
-0.00359756
0.000786525
-0.130909
0.00146708
0.000796803
-0.0383092
-0.0240686
-0.127854
-0.0287922
-0.00815769
-0.0204529
0.00108947
0.0722979
-0.0120072
-0.0853296
-0.00737253
0.000261983
-0.121096
-0.0374236
0.00286148
-0.0561342
-0.100394
-0.0127394
0.0143697
-0.0192437
-0.127283
0.00440846
0.000344789
-0.0958335
-0.0126438
-0.129217
-0.135864
-0.0610784
-0.0186036
0.00519762
-0.0160028
0.0109115
-0.0392952
0.000820488
-0.119152
-0.0687407
-0.00145013
0.00103075
0.000515423
-0.00980533
-0.156176
-0.0693386
0.00194623
-0.123376
-0.0718727
-0.00729155
0.00100997
-0.128681
-0.124983
-0.129215
-0.0143884
0.000379882
-0.0416779
-0.00688648
-0.0111984
0.000843098
-0.0179636
0.0014402
0.00411337
0.000295027
0.00272342
0.0289938
-0.0882766
-0.12237
-0.0700492
-0.133685
-0.138862
0.000123171
-0.116373
-0.117725
-0.128294
0.000591484
0.0298082
-0.129559
-0.337887
-0.0919672
-0.0270819
-0.0267457
-0.127095
-0.0704607
-0.0907616
0.000408236
-0.0510439
-0.067452
-0.0120519
-0.0754664
-0.134528
-0.00373016
-0.294007
-0.11596
-0.00695904
0.000387521
0.00742711
-0.0122486
-0.0277483
0.000850462
0.000745094
-0.124789
-0.109318
0.0103022
-0.0453479
0.00031516
-0.00325376
-0.251967
-0.130159
-0.248749
-0.0473339
-0.132409
0.00332542
0.000586893
-0.0385629
-0.145536
-0.111177
-0.0459599
-0.110055
-0.0243861
0.000921305
-0.0120745
-0.0249751
-0.0384785
-0.120634
-0.117792
-0.0175761
-0.135007
-0.162084
0.00145317
-0.192689
-0.0144009
-0.0263567
0.00241371
-0.0144798
-0.00013643
-0.0253813
-0.027545
-0.0185176
-0.128871
0.000845726
-0.067046
-0.0187056
-0.00347634
-0.125526
-0.014673
-0.128716
0.00173307
-0.0865498
-0.130332
-0.0826681
-0.0947799
0.00525928
0.0160111
-0.12314
-0.12701
0.000814824
-0.00598686
0.000395263
0.00249468
-0.010741
-0.0118477
-0.124859
-0.140214
-0.01884
-0.351718
-0.013498
0.00053733
-0.00136587
-0.01242
-0.00287387
-0.0422287
-0.126771
-0.126349
-0.0833959
0.00344923
-0.00378575
-0.0110633
0.000131741
-0.127054
0.0207382
0.0015426
0.0179273
-0.0534342
-0.0834945
-0.125872
0.00781385
-0.275671
-0.0127502
-0.125043
-0.100367
-0.124024
-0.0115655
0.00321411
-0.00922064
-0.0133546
-0.115119
-0.221126
-0.0201412
-0.058947
-0.0915822
-0.074837
-0.0050841
-0.0260164
0.0148017
-0.00253481
-0.0960994
-0.00398357
-0.0268064
-0.00805311
-0.0197448
-0.0127221
-0.0709203
-0.0980167
-0.0042254
-0.00898433
-0.0316412
-0.000558422
0.00282978
-0.0383376
-0.0209007
-0.00517269
-0.303122
-0.0120925
-0.127124
-0.0152368
0.00352703
-0.00808163
-0.129259
-0.000751041
-0.121663
-0.15129
-0.00743936
0.00583973
-0.0901661
-0.0245993
-0.0975603
-0.021611
-0.00354153
-0.068012
0.000950038
-0.122337
-0.0177488
-0.00288944
0.000498699
0.000111537
-0.0357533
-0.0119306
-0.0684835
-0.0645889
-0.0145728
0.00297313
-0.108079
-0.104077
0.0218632
-0.0419477
0.000125302
-0.0299051
-0.0420173
-0.0747514
0.00626194
-0.0692114
-0.102832
0.000596962
-0.0102815
0.00376202
0.00366108
-0.00531201
-0.12127
-0.00489153
0.0428075
0.00525878
-0.135332
-0.110079
-0.0380273
-0.0267325
-0.0740622
-0.108486
-0.326887
0.0158091
-0.023457
-0.0663985
-0.00718009
0.00391542
-0.0997493
-0.121908
-0.00261054
-0.00252418
-0.110852
0.00509009
-0.0291877
-0.0101533
-0.0401638
0.00136493
-0.0100806
0.0701092
-0.0132832
-0.0185591
-0.00140674
-0.0017266
-0.0673482
-0.15394
-0.000334251
-0.0846902
-0.105134
0.000543322
0.00157965
-0.121866
-0.00825973
-0.0577264
-0.013031
-0.022853
-0.0128225
0.000519103
-0.000217342
0.0363525
-0.0228822
-0.121911
-0.0822015
-0.0323553
-0.124298
0.0138131
-0.00240319
-0.00207918
-0.0208014
-0.0512248
-0.0274033
-0.0619557
-0.0435323
-0.00371861
-0.00113314
-0.027107
0.00381424
0.000391976
0.00430348
-0.0106161
0.0191402
0.0476295
-0.0223359
0.00111023
0.0162007
-0.0425153
-0.125151
0.0124244
-0.12934
0.0125125
-0.128214
-0.000187666
-0.0575446
-0.0400331
-0.00613273
-0.0145532
-0.0237255
-0.0453313
0.00891703
0.00180654
-0.0472313
-0.12675
-0.0373221
0.00258535
-0.00148656
-0.0611719
-0.0157742
-0.00714767
-0.000281675
0.000696964
0.0177917
0.00364599
-0.0289656
-0.0945597
-0.128219
-0.0257307
-0.132467
-0.00159995
0.0172438
-0.0141689
-0.0315443
-0.0130227
-0.0216519
0.0232925
0.0175625
-0.0010108
-0.267261
-0.0244343
-0.13945
0.000757642
-0.00516824
-0.0435072
-0.0822522
-0.01365
-0.0634398
-0.0260237
0.0255759
-0.0197153
-0.00216726
-0.10471
-0.111118
0.00559463
-0.0107674
-0.0198676
-0.00810447
0.000360655
-0.0771865
0.000385466
-0.347124
-0.0976266
-0.0721673
0.00696869
0.000632882
-0.00417934
-0.0715262
-0.0554439
-0.00322933
-0.000898757
-0.0182364
0.000678536
0.00379673
0.00379676
-0.128759
-0.00204575
-0.0030665
-0.133997
-0.0403105
-0.0207891
0.00613902
-0.00531406
0.00061312
-0.00714177
-0.127881
0.000456251
-0.0156529
-0.137071
-0.0766109
-0.0379728
-0.00030065
-0.0123835
-0.127293
-0.179538
-0.0135415
-0.00742832
-0.0288535
-0.0119895
-0.0464643
-0.0130713
-0.00215784
-0.0947348
-0.016925
0.00322786
0.000647269
0.00210019
-0.00945771
0.000775374
-0.000294589
-0.02031
-0.00527583
-0.0112748
-0.0524606
-0.0404253
-0.0640718
-0.00269125
0.00101228
0.00327789
-0.0622535
-0.00715517
-0.0492101
-0.00532691
-0.0621193
-0.00265205
-0.182506
0.00310614
-0.0900272
0.0204063
-0.101604
-0.00495021