/*--------------------------------*- C++ -*----------------------------------*\
| =========                 |                                                 |
| \\      /  F ield         | OpenFOAM: The Open Source CFD Toolbox           |
|  \\    /   O peration     | Version:  v2012                                 |
|   \\  /    A nd           | Website:  www.openfoam.com                      |
|    \\/     M anipulation  |                                                 |
\*---------------------------------------------------------------------------*/
FoamFile
{
    version     2.0;
    format      ascii;
    class       volScalarField;
    location    "350";
    object      ReThetat;
}
// * * * * * * * * * * * * * * * * * * * * * * * * * * * * * * * * * * * * * //

dimensions      [0 0 0 0 0 0 0];


internalField   nonuniform List<scalar> 
13851
(
553.004
56.5931
544.071
571.449
417.457
97.5887
593.359
560.624
612.136
567.265
118.196
42.4717
262.058
39.2487
600.946
486.376
533.599
577.757
401.476
612.195
574.855
541.687
597.943
585.538
592.701
563.096
540.353
32.3738
556.079
556.431
88.9955
532.574
550.34
105.943
590.18
510.529
536.343
338.301
552.732
99.0747
593.493
626.365
36.5793
115.118
116.927
50.1659
118.11
119.069
538.348
174.09
440.129
408.522
32.5745
592.528
582.082
626.293
603.192
32.5183
561.736
584.174
334.018
44.0454
593.541
404.993
210.381
532.598
261.31
114.535
500.681
580.744
31.6247
101.336
56.8674
594.432
601.04
607.982
543.819
41.0734
475.545
30.9849
569.328
111.299
591.286
50.04
451.21
45.9625
240.525
395.767
524.171
610.041
487.043
422.081
111.281
529.068
530.048
591.058
412.358
55.1428
164.579
588.184
32.6277
462.667
580.117
551.528
600.033
139.754
454.104
627.834
62.9388
104.432
583.961
607.989
439.822
576.508
587.989
69.8804
57.8877
628.544
576.547
578.133
36.5649
546.937
194.587
79.456
132.11
609.519
109.009
462.599
578.989
376.865
592.571
609.428
31.8833
589.596
70.2353
606.254
628.74
112.691
34.7103
51.8464
32.5161
577.118
565.324
620.065
537.255
111.901
378.697
372.636
590.168
116.077
485.041
582.394
38.2684
602.275
547.192
540.106
604.67
554.582
405.087
440.827
625.039
531.996
32.5339
610.338
499.511
623.381
324.393
495.676
580.425
50.7779
40.6639
616.454
603.841
49.8771
609.937
145.49
466.653
576.495
441.512
627.476
527.224
85.5863
592.865
532.661
626.618
596.682
530.813
588.534
407.281
389.887
114.817
32.7502
607.363
499.82
44.7504
548.443
574.82
92.7847
577.878
607.554
605.415
46.1338
560.561
591.85
426.386
592.086
32.2243
535.625
36.5426
627.089
48.5764
578.534
95.3517
628.188
621.501
127.514
478.963
49.9411
598.975
37.1349
534.476
569.502
59.1125
396.68
40.9533
590.614
517.532
594.713
36.1933
628.144
565.734
59.4925
616.739
608.937
449.862
500.629
31.2342
220.587
620.139
589.264
87.3096
217.501
615.005
421.199
606.528
38.9276
458.731
93.6182
542.729
521.299
600.063
200.972
566.58
542.152
470.981
332.733
385.564
95.9919
46.4589
598.288
621.199
582.707
174.75
616.061
427.717
547.504
566.023
539.24
63.7746
302.105
607.956
544.932
99.3177
482.97
480.422
609.813
113.806
181.624
40.0774
120.52
616.176
627.799
601.293
470.891
190.572
169.516
610.123
605.09
114.445
110.32
368.117
559.754
581.978
491.632
110.092
398.442
508.713
49.7835
609.254
39.9914
537.522
534.548
40.9942
582.112
130.932
47.7577
610.514
480.414
522.475
561.409
33.1982
508.18
564.744
58.1895
625.574
523.024
605.114
42.3225
469.15
599.232
461.998
601.669
46.2978
818.298
598.533
598.976
460.566
517.457
550.41
605.664
582.505
565.355
117.11
35.9143
50.7539
578.512
43.3059
62.625
599.517
499.677
362.212
422.889
488.248
415.208
409.578
541.179
186.646
44.1167
599.233
304.236
341.706
96.2106
549.809
537.343
36.1051
603.201
175.697
600.626
602.261
611.585
627.775
605.17
46.1199
121.314
586.306
481.785
624.5
49.5033
453.793
139.038
51.1009
586
476.545
526.813
133.724
595.341
628.152
500.043
32.6182
595.898
32.8371
407.654
414.665
50.6592
216.698
255.644
584.141
607.664
587.152
578.653
469.262
41.704
489.58
43.0424
46.7015
623.951
599.339
50.3893
31.5658
58.8422
59.2919
663.257
523.53
588.898
77.4557
614.624
504.099
573.163
590.483
596.306
610.976
623.616
409.517
450.831
47.1854
581.388
458.629
509.538
173.188
512.136
70.7014
533.374
129.809
628.915
611.317
590.893
351.951
100.688
388.895
475.74
47.3073
112.18
211.853
570.439
455.179
595.876
136.73
600.784
47.4838
98.7687
560.134
37.5036
574.191
186.792
97.6752
32.9192
628.593
521.145
468.247
213.527
615.225
568.232
482.545
413.603
571.793
43.3652
594.752
597.194
39.6298
504.317
628.067
311.933
608.006
561.365
613.936
429.935
561.979
627.45
571.934
62.2284
588.249
491.017
609.061
568.083
144.841
573.021
596.01
577.54
577.337
161.934
566.999
120.521
593.916
594.235
32.9591
37.0351
592.088
574.429
509.084
171.018
51.7402
598.192
124.523
594.37
430.5
586.871
44.9025
626.518
32.6851
376.841
626.152
546.257
51.3279
568.41
119.826
581.76
106.928
571.464
611.381
609.924
593.841
31.8099
446.057
424.97
466.22
649.358
624.439
116.686
101.499
527.718
522.78
154.311
81.1898
52.0793
580.423
44.9344
51.4692
45.2948
505.315
504.645
85.3517
178.596
337.891
91.1603
39.3035
555.824
37.6638
95.3149
628.469
190.925
446.653
37.1197
540.138
593.135
604.96
591.35
410.789
516.579
321.037
46.5563
611.299
38.2037
40.7691
92.9725
97.6813
492.476
628.408
611.74
199.064
92.5474
553.693
479.188
475.815
626.505
592.632
86.0741
182.976
405.858
32.0317
91.5164
594.562
592.13
169.881
46.1702
459.236
497.695
377.335
627.504
595.855
44.7341
626.788
541.827
627.69
607.964
87.2261
406.575
503.779
626.968
31.7845
96.2226
608.63
607.413
615.432
593.806
32.3813
91.5921
93.0265
43.1454
121.186
503.14
37.0584
36.1088
510.545
501.065
628.569
614.016
510.261
72.5769
180.976
471.754
516.937
612.865
483.064
594.294
118.284
432.125
594.144
577.916
615.134
525.341
384.514
585.961
596.838
466.81
577.892
421.184
412.714
403.277
469.999
464.166
613.048
66.2771
653.641
42.4705
578.028
587.585
68.3485
584.817
51.0857
41.7834
50.6942
279.399
614.619
81.6606
612.611
607.704
626.114
607.153
554.698
581.11
446.831
627.17
41.2894
376.938
40.5833
606.964
623.387
606.002
366.093
41.3282
475.355
529.38
610.687
592.366
600.378
604.464
467.735
51.1783
579.553
627.321
594.328
603.985
63.1777
32.5215
480.176
54.0361
92.65
597.222
421.687
32.9895
495.055
41.1692
569.375
581.684
467.808
582.3
94.4889
592.087
81.4816
599.484
514.711
37.9123
607.203
580.134
400.349
611.465
531.283
165.006
49.4455
432.72
470.962
155.876
627.949
607.201
32.5401
478.069
476.544
43.0479
613.799
568.4
628.38
131.233
244.988
519.269
584.194
141.677
536.532
607.83
37.4636
235.205
44.5698
625.863
580.979
38.4325
31.8526
476.009
596.479
62.6694
590.37
133.14
479.482
556.307
525.486
51.3055
590.628
589.909
619.606
591.416
560.102
559.9
613.393
38.2719
521.068
409.26
493.635
162.647
612.507
163.386
583.705
586.601
622.174
598.184
594.561
46.912
604.937
626.282
175.543
591.489
38.4931
596.093
583.091
454.858
56.6677
108.876
607.719
87.2533
56.2046
565.462
54.2194
510.457
613.828
257.625
36.895
88.5916
519.343
607.315
627.653
98.863
550.379
378.996
510.842
234.828
589.644
592.861
482.604
121.876
412.741
185.227
582.741
424.7
435.2
43.4179
524.029
39.0293
416.627
591.324
52.2341
75.6729
56.8589
50.8605
52.5078
160.124
511.477
613.534
578.547
32.8258
52.0248
602.731
591.218
445.238
129.939
625.773
32.1731
614.209
587.837
39.5845
39.1679
151.332
607.742
599.968
31.9327
434.877
459.949
551.684
52.2647
305.826
46.0934
453.882
483.942
565.64
589.021
58.7023
485.744
31.4224
639.556
491.355
38.2221
55.1565
40.5722
590.263
510.971
608.663
475.332
579.553
38.9252
560.138
34.0029
625.811
454.735
596.73
438.015
505.022
511.336
53.925
480.819
419.63
584.612
458.642
145.209
172.259
542.269
39.4164
616.676
53.5625
132.022
575.032
46.1871
32.7317
38.9211
143.835
742.565
602.169
44.6256
562.914
71.192
35.9776
606.288
560.978
338.38
102.369
44.4778
579.045
607.813
62.5324
37.1908
402.541
522.23
565.405
131.604
40.7091
432.493
626.479
524.681
610.999
572.65
403.998
587.726
46.4445
116.72
586.007
567.328
602.214
557.639
33.7618
51.4319
525.1
37.5902
595.997
520.431
602.174
610.398
579.766
585.376
34.8597
591.023
473.164
589.14
514.68
364.66
31.9928
578.149
162.987
372.885
538.117
514.508
527.581
31.4998
517.428
517.269
39.2795
80.7532
34.1559
529.376
116.878
580.339
482.977
459.019
42.2069
600.93
46.7463
607.583
606.437
42.6353
591.417
498.239
527.158
609.346
541.908
608.779
601.077
605.122
572.353
555.176
605.491
422.97
43.0361
424.118
46.2917
589.735
578.838
608.668
591.694
609.345
448.011
582.068
608.945
582.303
592.757
40.9872
51.3174
208.206
56.477
523.576
596.581
89.753
526.704
605.445
99.953
130.489
100.309
601.335
117.495
111.472
37.6777
616.699
244.697
516.34
539.181
601.23
613.682
35.9002
76.656
162.257
607.863
592.464
114.669
574.743
55.6181
144.959
74.9678
457.395
116.769
594.434
588.015
632.612
573
547.61
463.089
519.563
581.24
568.316
63.4471
608.576
46.2393
364.112
71.5786
371.316
587.317
618.866
587.176
120.665
112.825
616.537
571.762
608.268
439.58
624.569
608.84
566.474
506.258
343.286
507.34
575.841
595.719
485.092
301.946
579.353
52.076
87.6755
452.359
622.459
477.625
593.899
595.421
589.372
41.962
459.026
106.79
545.638
135.71
593.669
597.626
582.523
92.2579
99.7036
625.49
508.165
436.308
34.0971
575.649
56.8927
556.257
32.2581
566.286
60.266
488.122
441.925
349.533
40.5138
113.762
45.572
601.146
445.571
624.82
540.26
529.434
575.957
38.9331
515.783
524.182
138.043
392.215
183.093
599.38
541.988
514.181
617.849
575.809
66.6462
132.359
158.367
603.332
518.904
541.042
82.6894
63.8083
490.266
619.054
584.581
46.3967
569.41
40.7821
77.3991
154.221
622.746
159.157
557.265
487.405
526.162
50.8877
124.3
382.205
94.3706
576.644
566.808
585.818
35.2297
479.752
39.1403
142.864
537.497
441.917
552.693
51.8618
451.989
605.126
378.248
38.5596
452.915
69.3798
587.848
588.119
35.4605
238.022
45.8123
577.959
593.317
585.508
40.0742
475.825
572.836
120.729
543.566
31.4084
185.945
148.374
597.891
68.4109
533.285
597.515
425.312
41.0588
592.844
608.02
32.0452
55.4562
609.955
602.739
49.3931
607.374
202.515
601.611
89.8469
587.73
472.84
143.355
65.531
556.447
36.6475
108.176
37.3991
513.669
32.873
177.653
594.194
91.919
571.529
599.422
618.099
99.7083
597.943
578.488
607.669
586.917
45.0383
567.855
49.1684
545.387
580.254
610.01
498.341
120.228
32.9467
609.018
441.959
107.389
583.614
613.466
41.0028
498.49
471.171
418.923
54.6277
134.457
148.421
75.0087
168.138
125.502
106.638
104.61
437.93
618.894
443.168
595.185
597.676
67.7312
39.3801
580.657
41.7052
71.5752
44.8491
97.3057
112.702
593.874
67.7418
248.929
608.887
554.006
50.232
48.8788
54.5018
55.9359
434.267
34.3299
47.9987
504.408
589.052
602.486
110.225
601.15
467.913
581.462
563.752
583.414
263.017
45.4568
34.5955
586.782
135.715
532.926
491.046
601.561
605.828
32.2823
511.887
35.5443
58.0862
148.399
457.622
604.931
441.322
580.393
502.446
581.136
549.449
588.206
578.016
441.152
564.213
523.463
607.815
518.394
406.461
33.3215
602.823
464.902
592.22
327.822
641.336
86.4927
416.078
507.476
545.177
585.394
118.498
593.495
154.69
604.113
607.008
579.578
54.5296
524.45
545.932
454.754
594.248
487.131
57.1695
476.864
493.119
586.567
327.976
617.463
605.109
376.602
34.5564
598.87
492.083
283.489
114.805
572.698
559.671
33.4379
553.066
221.683
520.209
46.4461
587.167
646.876
590.376
40.15
512.857
555.852
441.967
34.413
562.34
50.1745
40.6425
588.664
213.075
451.261
584.53
32.2368
583.075
602.2
614.716
391
138.763
469.361
543.072
579.263
517.852
108.025
553.183
46.624
112.9
573.579
501.273
378.71
37.9316
569.85
124.839
600.636
442.883
613.366
305.987
449.389
590.452
70.0831
423.356
527.448
638.25
626.93
596.229
451.093
517.568
156.339
434.441
564.133
418.134
382.512
39.5116
393.547
46.7733
602.922
608.9
418.928
33.8545
36.9377
95.5607
581.945
47.7869
107.577
606.723
531.662
606.309
482.439
440.896
281.778
32.4513
582.376
557.365
54.0068
42.4959
598.902
323.243
35.302
38.9744
536.561
464.661
628.297
569.781
609.008
523.378
43.9844
52.4984
32.3811
49.6245
560.643
462.266
421.318
600.154
591.793
613.534
75.6491
602.423
53.2621
446.034
591.074
404.836
501.744
40.0944
102.979
483.137
623.934
562.244
130.367
372.126
534.617
607.517
612.131
556.77
515.995
465.104
35.0876
565.929
614.373
510.554
347.848
34.3528
64.9908
602.084
428.668
590.416
39.513
621.4
35.5576
610.174
570.659
519.283
594.693
386.457
512.005
472.22
34.0499
50.3917
524.469
521.024
593.926
114.94
38.6517
593.69
620.769
103.115
629.147
31.379
595.371
567.316
564.979
205.507
449.98
591.444
598.12
464.398
51.0529
594.162
292.537
38.3193
74.4007
250.068
465.132
45.451
548.038
153.138
592.474
115.521
112.49
38.3122
43.4893
36.7255
582.201
141.189
608.187
33.9482
101.462
49.5626
33.4899
512.458
39.0667
175.202
452.053
577.64
584.387
34.0098
514.301
465.489
570.219
582.475
610.331
578.975
59.4126
501.48
512.562
44.575
438.157
594.171
591.964
613.643
513.636
34.7713
605.831
519.172
551.195
112.507
557.03
473.767
32.1081
513.637
46.1917
520.369
579.392
593.481
572.384
428.97
118.878
116.008
34.3915
554.237
32.208
573.994
543.062
592.608
32.3592
33.5117
86.9995
115.922
541.554
584.778
604.446
603.452
613.225
36.7269
514.553
33.0748
477.809
61.0328
48.8415
40.6851
493.45
526.689
45.6969
437.127
66.4772
32.4252
611.714
185.607
530.786
32.5472
36.9876
464.55
144.342
95.838
573.713
486.607
569.049
39.5145
118.03
538.799
594.457
114.972
156.293
390.112
82.4035
431.199
531.244
604.176
73.4018
33.9768
567.247
508.165
60.7209
41.3625
607.836
592.449
537.623
52.0778
58.0766
594.621
35.0441
569.912
601.982
579.042
49.9636
144.12
216.784
36.9229
578.355
548.5
602.282
38.3501
578.49
32.4619
560.795
55.2452
584.103
595.691
384.646
36.7505
100.335
483.444
49.3895
618.154
582.438
591.944
557.799
435.942
437.975
533.182
64.8555
542.48
375.053
67.1654
41.4461
600.911
35.6497
35.9819
547.369
121.864
467.202
32.7808
577.13
415.626
603.134
58.6577
33.3664
301.767
47.8937
584.69
484.941
575.929
36.861
622.792
606.996
95.9578
542.942
33.2244
128.531
481.79
524.194
615.005
127.415
499.501
607.6
498.239
607.241
476.434
587.225
76.5767
580.825
113.117
117.841
480.3
67.4042
465.035
39.2952
595.61
189.655
47.4556
609.767
589.51
549.693
582.386
547.276
599.377
190.006
453.974
134.618
382.403
590.066
568.521
614.835
88.1074
581.281
591.529
399.275
546.362
57.3582
50.2172
484.452
549.559
504.939
549.453
568.09
406.533
619.77
544.872
32.156
36.6404
521.368
551.389
40.7313
337.098
584.438
145.834
68.4007
595.386
544.492
598.19
75.1572
39.1109
86.8605
620.042
538.128
570.045
590.532
418.901
584.191
249.821
32.4264
49.2938
612.866
543.925
557.157
37.389
627.022
42.1774
32.252
111.355
78.2139
49.6477
38.4786
576.265
83.7513
236.887
570.952
615.315
605.388
49.3351
39.0233
39.7715
596.857
44.8217
575.008
363.938
614.055
546.089
563.721
612.893
36.4657
567.072
50.9701
41.1057
45.0312
568.003
486.527
41.7108
52.568
590.827
36.5077
614.764
627.511
591.824
425.021
607.605
35.1906
495.025
136.439
527.809
32.1892
40.972
412.099
613.459
426.534
562.755
38.5021
601.413
622.972
572.19
89.0467
597.075
123.725
34.7423
479.987
561.34
600.297
113.273
574.202
34.9867
620.012
37.6229
508.208
584.415
35.5895
47.7427
619.538
484.722
527.276
39.4855
248.02
176.41
140.814
571.137
413.322
55.3242
603.01
476.836
580.44
457.442
505.047
32.2466
46.7373
582.548
35.0991
557.603
490.392
68.3894
34.9614
465.648
41.387
270.703
597.007
122.834
473.506
508.704
570.765
66.3657
619.161
32.4547
167.235
507.546
600.17
578.995
38.4084
487.308
50.8201
566.023
539.271
86.6925
76.4254
530.318
48.9851
196.393
35.9953
581.592
85.8867
132.406
34.3468
598.506
575.145
600.071
46.6424
655.164
109.386
119.935
567.857
616.837
596.715
35.9638
93.219
32.8118
41.9678
602.341
53.1824
59.9961
450.603
40.3256
39.6958
540.633
32.5821
547.013
539.904
80.5145
177.614
640.656
38.7925
585.106
589.227
32.5023
45.4614
51.5948
33.7091
487.182
568.174
569.705
59.702
45.2618
594.648
485.097
123.338
592.408
580.016
81.7411
32.5022
547.975
600.578
569.562
576.486
103.223
580.992
602.349
519.579
309.049
31.5315
114.393
52.7878
580.161
533.091
43.6436
56.3354
517.856
67.7906
597.982
506.318
590.924
663.14
570.895
604.163
129.872
465.783
608.631
539.239
126.907
52.8427
39.7074
591.553
553.657
53.6001
131.339
536.978
602.026
604.11
124.457
579.144
594.135
526.284
591.139
41.784
97.0991
569.565
535.182
621.026
583.458
63.676
126.132
437.087
42.3276
399.589
569.041
598.663
583.103
598.706
572.057
565.676
392.24
66.1977
579.119
398.793
41.4619
156.585
593.795
607.063
548.243
31.6578
600.157
68.9669
564.674
570.189
591.978
41.5786
619.627
160.134
617.294
619.126
596.872
608.997
446.388
184.856
71.0405
550.559
82.4111
330.573
268.518
506.472
44.3526
40.4851
390.428
34.519
76.2984
438.329
117.082
578.449
607.492
62.0924
601.978
534.61
33.791
334.706
57.4572
425.193
610.065
566.713
580.899
297.966
614.505
520.368
32.5014
76.6868
155.435
580.092
618.61
441.418
46.182
40.084
498.508
321.915
605.538
187.576
31.647
92.3425
561.586
578.46
619.505
582.08
591.175
596.128
536.98
41.8858
434.307
36.829
511.811
176.931
527.963
592.695
605.933
601.648
613.501
579.853
109.714
43.1138
78.8743
44.1314
558.742
39.7776
394.281
49.4209
32.709
584.268
609.195
352.818
580.48
619.404
99.0088
40.9058
166.537
586.856
578.299
579.728
528.073
65.5953
614.466
558.834
475.076
610.7
119.348
518.588
35.7956
572.98
551.962
47.4432
456.67
62.1019
412.516
34.5
620.788
521.789
608.388
509.001
48.516
595.203
32.181
603.001
595.831
601.931
43.0106
474.106
401.619
81.5674
613.57
415.238
32.277
440.621
607.748
571.469
580.859
507.35
602.211
607.675
39.5286
49.1102
44.8927
179.954
415.339
37.3005
470.609
43.0205
388.24
621.773
603.057
628.894
580.966
57.462
58.02
613.5
32.0663
36.9649
516.016
585.721
557.353
57.7495
88.6182
40.168
492.659
39.3016
629.022
346.879
396.661
121.782
76.2754
592.693
466.627
33.5899
465.485
45.6097
580.044
374.441
35.1755
35.078
475.349
513.348
42.8797
485.559
33.5611
39.6596
42.7044
431.981
115.449
577.787
542.756
468.088
34.324
116.729
33.5274
590.291
495.588
389.685
587.525
72.3005
595.031
434.452
39.2422
597.02
36.7452
32.1497
36.1165
75.7231
288.332
147.524
603.139
55.5034
603.391
609.892
483.935
539.726
34.3968
544.165
549.569
533.073
609.114
50.327
550.388
434.071
124.399
612.366
31.3715
395.012
590.273
32.2924
418.255
599.992
60.8221
562.634
37.5867
315.697
612.966
498.649
549.783
51.9964
37.8446
438.584
154.778
520.039
604.246
33.7979
545.018
599.929
197.236
498.462
604.695
608.828
382.924
549.852
41.868
352.985
379.242
33.0593
482.669
562.388
602.206
50.5268
32.8792
32.6804
598.741
616.935
423.95
487.762
121.12
600.104
116.67
602.819
307.181
589.059
499.963
471.203
447.132
31.8763
71.048
70.837
38.6307
627.245
389.123
301.325
33.9831
606.012
376.689
34.9164
46.3471
459.813
394.653
108.288
47.8465
488.089
376.906
613.234
463.801
490.192
593.713
462.446
33.3845
152.474
48.9452
232.559
594.963
608.752
518.303
593.936
239.483
613.898
609.675
44.1746
469.984
562.914
398.814
583.284
564.105
37.3236
35.4276
38.2862
534.433
36.5496
593.671
614.639
561.405
39.922
701.946
337.775
464.13
557.65
608.603
594.045
578.754
521.72
32.7393
223.728
522.942
69.1582
42.7502
448.614
50.021
588.86
519.983
361.714
593.311
507.959
530.187
535.927
46.4196
34.8999
613.978
497.933
523.745
568.759
33.9348
38.0843
47.9798
596.64
482.495
45.3157
468.617
474.751
227.71
63.9263
48.9263
41.412
614.536
144.277
616.105
566.358
587.991
555.191
48.8409
38.6868
106.477
42.0512
557.113
620.113
607.654
579.665
569.458
470.75
45.6406
38.347
478.76
100.832
581.563
563.283
610.878
35.3548
326.334
596.509
543.812
405.623
74.236
33.1565
431.798
36.954
521.597
32.4189
407.173
82.9168
102.489
594.035
567.367
582.287
80.4402
35.2641
549.048
32.2226
376.104
35.8297
559.133
446.44
505.96
604.26
485.398
432.563
531.041
570.45
526.392
510.639
32.1543
463.377
559.751
492.925
502.831
467.708
587.573
39.0521
386.855
125.903
43.3348
587.291
33.9098
602.741
557.748
543.867
34.9002
448.056
32.6049
47.7842
565.81
418.744
454.137
43.7795
470.972
99.8883
552.978
482.593
608.89
32.3224
99.5919
554.588
591.923
449.212
522.258
530.03
475.545
491.711
575.232
457.574
46.9252
33.4389
250.626
479.219
625.314
57.5575
504.894
465.166
91.5
490.088
61.4507
618.959
562.061
552.114
463.193
592.331
31.6778
129.531
198.904
438.402
65.7813
483.739
522.821
44.7371
462.538
434.595
41.1443
503.101
540.118
493.729
552.973
588.523
502.316
31.6317
111.774
602.991
561.339
94.46
249.386
595.137
469.638
603.537
502.752
60.7675
515.446
526.225
604.591
606.344
100.882
41.6444
595.586
81.8387
407.177
620.022
501.184
32.012
401.569
407.946
591.352
517.291
496.588
594.393
602.289
31.0135
521.421
31.9596
459.274
532.615
50.1898
503.761
357.178
602.891
98.6228
512.195
529.832
54.6306
481.027
584.243
562.217
522.479
554.975
619.822
54.6555
587.527
341.261
198.273
396.526
608.801
321.321
507.607
38.6581
345.715
34.583
507.529
34.9864
609.756
426.049
532.394
595.273
110.201
47.5463
541.625
227.927
514.356
426.981
33.6118
521.559
446.883
123.226
31.8319
50.0156
306.477
392.709
610.396
339.374
444.834
77.2088
69.4392
35.9049
38.8493
42.3276
606.379
66.9728
599.194
569.386
573.958
96.8542
621.486
321.838
601.756
47.515
525.856
38.2121
609.275
442.33
509.404
483.233
566.841
409.363
551.811
365.842
451.85
602.389
32.4823
511.32
410.074
573.77
524.98
592.854
603.331
472.283
272.837
42.3727
390.153
436.104
179.707
604.058
55.3333
457.77
41.6051
480.241
478.911
103.328
477.954
129.765
351.234
34.4907
565.671
582.316
68.3683
506.494
538.895
508.07
488.44
612.79
510.412
37.2477
598.941
562.504
52.5264
418.851
422.951
283.739
446.877
39.0523
49.4184
56.4892
569.693
79.6237
552.69
543.77
580.451
601.577
32.6096
94.0066
472.281
610.73
343.583
513.533
607.048
237.773
519.796
591.991
548.07
47.8403
529.174
497.52
456.5
605.604
369.102
447.162
490.003
120.633
556.241
108.518
298.279
46.2199
582.167
46.8755
419.152
515.862
568.284
62.3611
451.791
512.351
470.192
433.366
556.37
400.631
599.905
595.358
618.748
531.314
32.23
615.289
414.478
555.035
543.576
528.699
382.663
547.074
568.965
580.239
529.495
523.278
610.598
218.957
548.791
612.535
572.391
524.162
606.549
68.1513
524.913
35.2009
108.371
33.2721
449.226
383.023
130.104
481.506
551.418
541.691
66.7021
95.5194
92.4955
399.511
499.196
600.408
43.5937
430.15
69.098
603.014
119.152
477.327
54.4204
60.2488
620.191
599.142
616.386
514.828
86.8793
413.129
160.712
518.106
517.703
602.614
576.708
465.098
542.828
535.373
605.697
390.684
127.062
80.0279
549.215
467.51
611.114
616.194
420.098
567.09
535.005
441.94
529.289
567.507
598.037
594.632
585.499
529.784
32.4845
603.457
543.708
552.813
534.976
139.703
579.128
479.632
54.7957
529.358
514.545
555.197
568.062
568.524
485.753
581.559
582.158
53.237
608.91
497.668
462.081
383.505
39.9427
620.717
536.331
586.069
509.595
509.843
83.307
50.9792
618.347
504.746
324.532
562.855
163.983
622.415
581.966
81.0418
481.101
540.214
621.187
328.182
507.621
42.715
585.813
311.666
621.693
613.842
540.856
470.982
47.6127
579.607
605.357
122.544
580.901
547.862
555.856
39.7071
582.308
614.534
584.946
472.601
361.119
66.0562
567.038
427.423
599.524
588.562
43.5345
586.111
580.548
507.062
340.322
455.809
547.79
576.621
388.253
487.82
556.748
302.716
31.5191
580.807
569.587
557.425
598.7
581.002
608.329
617.746
552.935
562.541
499.624
475.386
38.7496
87.2848
483.252
621.037
592.563
571.74
549.852
482.42
509.995
365.057
541.965
141.611
573.377
38.2446
33.7618
526.01
576.964
402.686
536.021
528.392
596.409
562.816
597.483
414.576
542.18
537.038
433.764
545.749
531.209
568.09
63.2305
32.2421
103.788
517.077
319.43
435.433
61.2334
569.486
546.354
436.324
595.002
587.022
32.2942
578.559
566.296
552.341
235.375
582.072
573.471
530.874
54.7799
606.609
570.008
84.8707
540.077
586.533
598.663
594.332
581.247
571.995
267.023
582.729
583.539
571.549
569.083
513.542
588.265
122.145
593.79
573.537
507.721
373.092
302.566
39.9522
149.332
60.7112
502.01
608.693
543.711
45.0211
618.295
149.903
563.973
68.5123
563.635
486.939
583.991
597.768
426.045
556.251
38.9826
127.535
54.0746
579.045
607.566
40.1543
618.93
583.877
72.7075
599.923
39.6953
595.107
380.165
440.456
541.157
104.112
499.901
424.593
65.3538
73.3255
107.744
32.48
119.198
35.366
577.693
35.8071
580.341
594.271
606.583
566.688
65.43
552.869
43.3422
579.839
600.404
597.189
288.196
603.026
609.574
386.368
542.68
577.64
536.096
517.636
348.725
462.278
75.0938
80.5826
398.764
558.859
547.201
603.126
539.631
309.639
62.8112
580.877
58.4476
581.328
87.8544
35.6865
468.451
40.3119
115.6
555.458
592.288
568.087
580.888
594.357
32.998
32.3051
600.201
60.1485
600.023
443.894
602.733
343.954
504.546
549.139
607.585
123.067
70.7863
113.419
612.928
610.197
515.182
589.565
574.027
75.5296
113.074
480.129
289.471
504.571
582.231
485.1
130.931
567.256
65.4515
561.519
153.276
582.392
535.126
617.112
627.208
595.497
512.702
608.23
32.3069
526.623
299.517
588.672
559.702
583.533
286.41
526.049
569.106
79.773
524.288
592.186
524.563
577.262
32.4879
87.6618
522.169
566.702
56.4771
37.7505
393.407
568.696
592.125
567.104
550.483
511.909
69.74
518.194
576.73
92.7491
549.151
568.729
555.361
553.381
562.633
605.157
561.903
591.911
574.41
602.784
544.943
563.108
549.031
32.1995
603.958
649.575
398.666
455.636
602.631
603.985
197.09
539.088
601.52
371.85
587.156
407.798
575.819
514.865
40.3255
571.992
550.784
567.832
347.736
238.907
600.602
492.331
50.059
603.049
595.074
479.66
49.4729
37.7037
542.338
587.911
474.397
600.76
574.22
523.59
568.814
54.8258
575.545
70.1142
581.494
605.028
495.786
600.512
584.048
580.34
96.8752
613.417
402.011
577.228
603.698
594.057
522.304
517.958
569.562
547.722
571.921
573.159
494.032
561.572
39.7741
564.956
466.051
502.574
575.309
518.758
67.8763
581.96
566.944
621.981
120.028
116.148
603.818
569.256
605.268
568.504
606.121
127.808
60.1078
541.916
579.318
530.566
490.63
589.039
608.934
468.707
602.107
566.06
592.162
580.803
594.743
602.992
552.914
573.805
609.004
519.876
117.464
597.582
290.413
616.488
398.371
33.4972
588.054
566.475
580.105
425.473
580.86
582.829
597.035
586.624
120.878
394.227
581.334
523.87
595.527
622.691
616.734
370.045
531.82
362.209
65.9037
613.021
586.953
541.199
602.836
595.053
589.741
463.507
127.357
100.404
619.229
326.515
33.921
531.839
583.971
598.187
50.3657
574.803
600.447
600.472
560.973
536.415
595.31
339.466
53.1941
545.092
597.773
64.9564
576.66
581.685
593.361
507.618
111.604
32.7894
565.409
584.234
505.969
482.711
554.491
62.5221
554.43
330.54
37.1829
175.802
594.471
581.446
613.021
587.41
615.567
579.939
51.5852
528.253
455.905
47.93
583.18
595.124
593.802
702.039
65.6701
68.7168
517.355
418.842
568.328
595.148
35.6837
43.8573
577.009
133.794
599.537
598.033
619.281
470.986
533.671
611.06
585.327
529.174
196.881
84.6322
629.392
502.344
561.628
57.5195
583.427
186.681
541.311
609.293
93.2997
598.217
341.209
558.524
148.978
613.74
611.695
42.7247
597.652
558.711
32.8544
149.564
72.9445
515.531
581.777
580.814
117.556
564.126
506.398
588.941
521.002
54.7276
592.52
596.674
35.3295
47.8483
34.0052
520.503
581.844
561.723
564.165
589.338
491.651
523.615
595.158
480.53
563.473
32.7603
593.18
476.043
589.019
580.754
598.583
554.02
533.667
566.055
595.274
53.4327
350.259
476.371
591.456
571.858
481.196
102.539
71.497
595.268
532.708
589.765
595.061
588.286
595.125
465.516
598.1
65.7747
595.248
591.608
52.0853
623.547
430.449
189.352
529.655
592.833
599.532
499.239
595.206
619.772
561.783
316.028
551.082
510.454
236.958
111.184
547.724
583.96
582.491
356.005
419.969
402.884
114.043
612.959
118.282
360.93
585.092
159.374
114.371
575.859
588.802
536.061
596.67
77.8358
455.213
45.3079
326.755
620.138
81.5511
603.096
596.143
446.021
596.816
602.921
594.262
618.898
487.877
75.2601
65.8132
545.169
89.1742
40.1617
575.667
596.148
576.812
119.622
150.668
169.596
568.612
591.863
531.422
95.6701
614.065
549.523
604.35
589.542
487.708
574.233
563.556
592.913
599.812
617.51
602.127
599.23
609.862
51.4131
244.708
354.883
587.63
550.816
217.199
290.136
541.571
808.755
519.503
567.168
618.1
135.839
568.364
601.261
526.813
591.631
583.556
588.574
94.6383
583.391
568.219
612.213
613.638
542.202
590.066
536.496
73.3767
601.643
59.8554
591.663
427.403
514.624
41.9669
592.576
376.751
41.5863
618.969
600.413
578.808
584.154
602.394
45.4182
35.6092
606.881
545.498
456.46
486.448
549.281
451.576
599.365
44.1807
122.193
590.356
587.415
504.632
70.4204
45.0354
66.0909
52.1306
87.4583
595.787
589.066
604.516
133.339
591.228
597.46
553.917
594.312
551.558
551.321
546.902
545.829
548.376
549.938
556.444
562.761
599.322
595.065
597.879
623.252
552.502
549.85
622.02
62.8231
601.236
554.131
592.786
33.8453
587.256
554.129
508.343
67.1235
598.162
592.212
524.162
598.982
595.458
514.182
538.343
576.999
76.9066
68.0971
547.566
321.716
137.3
595.515
610.441
615.684
609.466
568.058
450.536
576.321
563.531
47.2855
562.415
38.7491
595.82
405.988
589.153
607.802
556.073
480.396
130.264
313.412
36.9083
125.358
596.902
577.975
613.095
599.632
600.315
575.981
84.036
358.887
574.431
628.025
54.8193
578.143
588.589
539.125
567.796
585.553
590.104
595.895
599.834
60.3875
547.271
598.104
97.8059
532.833
527.666
607.113
134.008
260.363
265.444
600.764
32.393
72.5599
591.195
381.622
589.953
77.5344
541.466
619.76
120.414
565.121
537.763
109.076
98.7096
104.547
618.737
593.656
592.065
408.794
601.56
598.437
82.265
182.353
465.45
601.563
56.4508
128.965
619.858
107.893
465.656
591.244
621.49
274.665
615.657
541.161
568.589
145.316
610.767
151.893
110.215
149.775
87.9918
590.465
535.364
80.9356
416.639
358.098
386.094
581.637
80.3293
617.35
116.04
595.7
585.454
485.51
566.601
609.809
595.679
595.026
611.992
606.968
82.4685
128.635
52.9621
42.7247
532.945
180.877
563.098
553.172
597.848
611.239
590.887
596.564
55.3692
547.594
111.383
614.599
122.607
590.952
542.648
577.545
192.415
596.168
528.945
48.5237
100.662
340.557
597.973
558.46
110.005
400.369
206.498
594.489
608.495
618.462
604.553
65.481
603.222
43.7079
434.498
611.054
615.221
32.4391
60.339
584.638
499.483
581.352
533.138
32.2282
524.508
554.529
119.599
546.593
594.734
582.749
560.38
582.683
79.6525
115.133
597.438
543.371
582.965
583.692
614.279
551.669