/*--------------------------------*- C++ -*----------------------------------*\
| =========                 |                                                 |
| \\      /  F ield         | OpenFOAM: The Open Source CFD Toolbox           |
|  \\    /   O peration     | Version:  v2012                                 |
|   \\  /    A nd           | Website:  www.openfoam.com                      |
|    \\/     M anipulation  |                                                 |
\*---------------------------------------------------------------------------*/
FoamFile
{
    version     2.0;
    format      ascii;
    class       surfaceScalarField;
    location    "350";
    object      ddtCorrDdt0(phi);
}
// * * * * * * * * * * * * * * * * * * * * * * * * * * * * * * * * * * * * * //

dimensions      [0 3 -2 0 0 0 0];
oriented        oriented;


internalField   nonuniform List<scalar> 
19765
(
-0.000545416
-0.000471225
0.00101663
-0.000952434
0.00184946
-0.000897055
3.89168e-06
0.000485771
-0.000489689
-0.000194037
-0.000581649
0.000775679
0.000565201
-0.000516916
-4.82384e-05
-0.00223285
0.00108533
0.00114749
0.000737725
-0.000753916
1.60807e-05
-0.000457757
0.000860636
-0.000402904
0.00056972
0.000394879
-0.000964709
-3.19065e-05
0.000459593
-0.000427712
0.000497071
-0.000369782
-0.000127301
-0.000827621
0.000867279
-3.96652e-05
-0.000856184
0.00024084
0.000615317
0.000834511
-9.68151e-05
-0.000258212
0.000935022
-0.00067682
0.000598078
-3.28294e-05
0.000463206
-0.000941171
0.000478019
-0.000392433
-0.000139544
0.000531988
0.000648684
0.000396013
-0.00104467
-0.00067855
-0.00178674
-0.000100462
0.000571254
-0.000470815
-0.000147834
-0.000156765
0.000304605
0.000158742
-0.000306601
-0.000328263
0.000603371
-0.000275116
0.000687524
-0.000683662
-0.000427867
-0.00037953
0.000807446
-0.000281861
0.000411447
-0.000129588
-0.000256857
0.000100056
-0.000208653
0.000119156
8.94884e-05
-0.000197968
0.000193277
4.66052e-06
-6.29434e-05
-0.000245975
0.000308862
0.000625391
-0.000606534
-1.88729e-05
0.000833221
-0.00058145
-0.000251789
0.000149759
-0.000103904
-4.58577e-05
-0.000603469
0.00125217
-0.000642745
0.000448719
-4.92523e-05
0.000208022
-0.000702547
0.000441248
0.000261319
0.000821145
-0.000391594
-0.000429568
-0.000739855
0.000360476
0.000379367
-0.000260186
0.000856048
-0.000595739
-0.000833498
-4.67164e-05
0.000880144
0.000267524
-0.000725315
-0.000837172
0.000836975
2.58664e-07
-0.00050148
-0.000102644
0.000604104
0.000314105
-0.000789448
0.000739687
4.97617e-05
-0.000693398
0.00097075
-0.000277363
0.00119916
-0.000860553
-0.000338645
1.27675e-05
5.69411e-05
-6.97056e-05
0.000267136
-0.000330105
-0.00136803
-0.000475119
-0.000187233
-1.0723e-05
-0.00020865
-0.000856633
-0.00137623
-0.00107547
0.000241963
0.00148788
-0.00112057
-0.000367161
-0.000777827
0.000409779
0.000368046
-0.00033073
0.0002988
-0.000857885
2.64522e-05
0.000831738
-0.000186506
0.000649734
-0.000519233
-0.00025857
0.000535097
-0.00103425
0.00049904
-0.000846936
0.000107122
-0.000645653
0.000217827
0.00162922
-0.00081794
-0.000811249
-0.00171478
0.000762154
0.000290289
-0.000354832
6.45335e-05
-0.000304446
2.25773e-05
-0.000308327
-8.41308e-05
-4.17786e-05
2.07104e-05
2.1068e-05
0.00119424
-0.000659154
-0.000573765
0.0001909
0.00038288
0.00185076
-0.00143685
-0.000414012
-0.000932337
0.000944803
-1.25758e-05
0.000922842
-0.000121789
-0.000801071
-0.000329916
0.000238451
9.14503e-05
-0.000611334
0.000807523
-0.000196282
0.000637505
-0.000101402
-0.00053613
-0.000551525
0.00127888
-0.000727395
-0.000336698
0.000151174
0.000185564
0.000487867
-0.00148415
0.000996353
-0.000305979
0.00074085
-0.000434795
0.000277595
0.00052759
-0.000805196
-0.000649289
0.000147813
8.61014e-05
-0.000711465
0.000625351
-0.000233414
-0.000169092
0.000402502
-0.000321185
0.00104607
-0.000724929
-0.000808526
0.000487421
-0.000489797
0.000389373
0.000561257
-0.000269609
-0.000291683
0.000322574
-0.000206984
-0.000115633
0.000888353
-0.000322931
-0.000565447
0.000138858
0.00130582
-0.00144481
0.000178803
-0.000886477
0.000707764
-0.00102343
8.97078e-05
0.000933668
-7.792e-05
-0.000258828
-0.000399112
-0.000245766
0.000644795
-0.000949198
0.000112066
0.00129383
-0.00103285
-0.000260976
-0.00138299
0.00094428
0.000438601
-0.000990952
0.000297524
-0.000977202
0.000472575
0.000504609
-0.000930172
0.000230471
0.000699663
-2.8175e-05
-0.000545576
0.000157207
-0.000507606
0.000350399
-8.01645e-05
0.00103929
-0.000959124
-0.00121946
0.000361661
0.00195549
-0.000830923
-0.00112458
0.000625665
-0.000558917
-6.6761e-05
-0.000506485
0.000555803
-4.93426e-05
0.000627625
-2.23862e-06
0.000230522
0.000584476
-0.000267402
-0.000317079
-0.000550887
-0.000832157
0.000862759
-2.95346e-05
0.00154127
-1.77249e-05
-0.00152334
-0.000969519
0.00116976
-0.000200076
0.000334132
-0.00100752
0.000673459
-0.00032346
-0.000183069
0.000988734
-0.000810039
0.00116073
-0.000987859
-0.000172825
0.0010437
0.000103959
0.000413136
-0.000327152
-0.00116295
0.000906898
0.000255987
0.000314163
0.00041821
-0.000732414
0.000451459
0.000124725
-0.0005762
6.08828e-05
-0.000625781
0.000564907
-0.00015959
0.000172363
0.000794684
0.00370437
-0.00449904
0.000488698
1.72344e-05
-0.000505953
0.00026068
-0.00119432
0.000933735
0.00017846
-0.00101779
0.000103617
0.00091402
-0.00109235
0.00122716
-0.000134769
-0.000309169
0.00109836
-0.000789144
0.000782821
-0.000213075
-0.000260265
-0.000716987
0.000623594
2.08631e-06
-0.000142128
-0.000788041
7.76298e-05
-0.00036143
7.77539e-05
9.72116e-05
-0.000174974
-0.000234296
6.82462e-05
0.000166061
-0.000811967
0.000766453
4.54896e-05
-0.000202216
-0.000625417
-0.000241019
0.00740832
-0.00716743
0.000904739
0.000294428
8.20149e-05
-0.000231493
0.000149494
-0.000657408
0.00102233
-0.000364935
-0.00013687
0.000177664
-4.07964e-05
0.000306531
-0.000414309
0.000107772
-0.000954897
0.000635138
0.000319692
0.00127695
-0.000433875
-0.000268714
0.000205264
-0.000181803
-2.34477e-05
-0.00121642
0.000907363
-0.000163525
-0.000291267
0.000454783
0.000589727
-0.000849964
0.000274715
-5.2144e-05
-0.00022266
3.41667e-05
0.000115602
0.000354892
-9.99251e-05
-0.000254993
0.000521932
-7.04791e-05
-0.00101531
4.58344e-05
-0.000831529
-0.000123397
-2.24311e-06
-8.53478e-05
8.75976e-05
0.00171385
-0.0022127
0.000498566
-0.000778981
-9.74546e-05
0.000876235
-0.000608318
0.000685993
0.000112289
0.000575215
0.000198479
-0.000237765
0.0012837
-0.000678674
-0.000605062
0.000561267
-0.00192954
0.000112025
-0.000574223
0.000462171
-0.000193251
-0.00066293
-9.17001e-05
-0.000606714
0.000698414
-4.20435e-05
-6.4092e-06
4.84474e-05
0.000837295
-0.000421886
0.000817863
-0.000396046
-0.000688535
0.000566616
0.000121831
0.000471563
-0.000780033
0.000308534
-0.000759642
6.75004e-05
0.000692195
0.000916046
-0.000581864
-0.000612697
0.000190101
0.00042258
0.000739622
-0.000627603
-0.000879393
0.000725139
0.000154285
-0.000758513
-0.000199848
0.000958281
-0.00109756
5.22101e-06
0.0011963
0.000432919
1.50677e-05
1.49536e-05
-3.0067e-05
-0.000661735
-0.000150198
0.00118139
-0.000920795
0.000481026
0.000700432
0.0014542
0.000259676
0.000426604
-0.000120109
-0.00064326
0.000563085
0.000600979
-0.000834325
0.000222971
-0.000937822
0.000910703
2.71126e-05
-0.000429857
-0.000511238
0.000788318
0.000495344
0.000652149
-0.000488513
-0.000163657
-0.000773841
6.10091e-06
0.000767845
0.000173954
-0.000769713
0.000595769
-0.00070944
0.000987599
-0.000278147
-0.0010967
0.000417374
0.000679203
-0.000466568
0.000483801
-0.00104231
0.000203898
0.000838458
0.000330183
-0.00112952
0.000799395
0.000233432
-0.000890877
-0.000678247
0.00144195
-0.000763712
0.000670407
0.000623349
-0.00054457
0.0002163
-1.48763e-05
-2.69035e-05
0.00228465
-0.00148992
0.000854154
-0.000680186
0.000666376
-0.00017854
0.000494834
-2.39661e-05
-0.000470875
-0.010345
0.0109119
0.000628582
1.62346e-05
-0.000644838
0.000257311
0.000371204
-0.000814005
0.000555801
4.10265e-05
-0.000447427
0.000406419
-0.000230833
0.000730262
-0.000499431
-0.000665596
0.000627445
3.81994e-05
-2.42571e-05
-0.000285923
0.000310197
0.000468393
-0.000661655
-0.000693854
-8.51278e-05
-1.78096e-05
6.46786e-05
-0.00025786
-0.000180625
0.000438455
-0.000455733
0.000189672
0.00026595
0.000642709
-0.000630933
-0.000145788
0.000776727
0.000184665
-0.00010265
-0.00158383
0.00129724
0.000286615
-0.00041899
-0.000344164
0.000763228
-0.000862634
8.18274e-05
0.000780946
0.000397454
-0.000206531
-0.000131501
1.55816e-05
0.000115878
0.00132086
-0.000839833
-0.000331333
0.000613259
-0.000281937
1.74627e-05
0.000908016
-0.000925494
3.47453e-05
-0.0011315
0.000160682
0.00100011
3.43842e-07
-0.000422244
0.00102054
-0.00255541
0.00153494
0.000518514
-0.00111161
0.000593133
0.000518873
0.00013328
0.000810039
-0.00102274
0.000212723
-5.38552e-05
-0.000902184
0.000810392
0.000182253
0.000706064
-0.000267886
0.00024365
-0.000924076
0.000682957
3.02597e-06
-4.61731e-05
4.31484e-05
-7.21502e-05
3.01144e-05
-0.000541862
-0.000633188
0.00117511
1.80297e-05
-0.000611208
0.000279862
0.000762724
-0.000458199
-0.000304564
0.000486017
0.000683612
0.000266242
0.000230762
0.000466662
-0.000992212
-0.00147016
-6.45799e-05
-0.000169732
-0.00048509
-0.000203296
0.000240089
-0.000798994
-0.000895436
0.000135754
0.000443924
0.000140549
-0.000647338
-1.82878e-05
0.000156125
-2.24165e-05
-0.000133727
0.000459654
-0.000719051
0.000259375
0.000310431
0.000341236
-0.000651825
-0.000862714
8.53283e-05
0.000777323
-0.000479235
0.000753892
0.00130473
-0.00138104
7.63222e-05
-7.00263e-05
-6.14682e-05
0.000660439
0.00088078
-0.000623053
0.000223908
0.00093608
0.000551642
-0.00112457
0.000413082
0.000793958
-3.12437e-05
0.000468873
-0.00071466
-0.000703717
0.00105301
-0.00048175
-0.00057129
-0.000352707
0.000393732
4.48734e-05
0.000786183
-0.00243335
9.68359e-05
0.00233626
-0.000871576
0.000565626
0.00116911
-0.00163248
0.000463368
1.34184e-05
-0.000702526
0.000689095
1.84676e-05
-0.000496684
0.000737513
0.000212054
-5.97947e-05
-0.000152271
0.00016614
-0.000621697
-0.000225922
0.000176666
0.000950813
-0.000140839
0.000843532
-0.000688427
-0.000155096
0.000174564
-0.000174571
-0.000566403
0.000558576
7.77955e-06
0.000111865
0.000142813
-0.000254695
0.000735774
-0.00132782
0.000592114
-0.000939568
0.000517136
0.00042242
-0.000187384
0.000255451
-6.80691e-05
-0.000444527
0.000440783
3.71056e-06
-0.000479173
0.000794035
-0.000314939
0.00151921
-0.000883924
-0.000635279
-0.00119061
-2.86827e-05
0.000500583
-8.7391e-05
-0.0002966
-2.1244e-05
0.000317829
-0.00062761
0.00139543
-0.000767766
0.000919958
-0.00127561
0.000355641
-0.000763885
0.000586707
0.000177181
-0.000756543
7.86679e-05
0.00067791
-0.000643366
-0.000519606
0.000110788
-3.30449e-05
-0.000600179
0.000881886
-0.000281734
0.00175815
-0.000395543
-0.00136266
-0.000695526
0.000550367
-0.000772761
0.00022228
-0.000246001
0.000556341
-0.000860413
3.8359e-05
0.000822019
0.00165369
-0.000917889
-2.97252e-05
-0.00084187
-0.00137371
0.000125051
0.000229794
-0.000972331
0.000262974
0.000304954
-0.000673796
0.000368848
-0.00163517
0.00115995
0.000433737
0.000168887
-0.000602675
-0.000539016
0.000764351
-0.000225363
-0.000230989
0.000905506
-0.000674633
0.000735846
-0.000731266
-4.63795e-06
-0.000581484
0.00110002
-0.00088201
0.000108218
-0.000723577
-4.03202e-05
0.000725664
0.0001812
-0.000989897
0.00020646
0.000783496
-0.000853942
0.00104407
0.000557647
-0.00167793
0.00112032
0.00048539
3.75698e-05
-0.000522957
-0.000605137
7.18189e-05
0.000533335
-0.000990931
0.000571901
0.000421738
-0.000403959
-0.00123137
-0.000820827
0.00018989
-0.000793317
0.00081071
-0.000422517
0.000817482
0.000167947
-0.000398732
-9.53551e-05
-0.00197463
0.000884294
-0.00120979
0.000325276
-0.000850823
-1.18388e-05
-0.000101859
0.00114788
-0.000644148
0.000974381
3.86037e-05
-0.0024721
0.000103506
-0.000480014
0.000651563
-0.000171549
-0.000210527
-0.000230259
0.000440771
0.000741398
-0.000355347
-0.000386121
-0.000207044
-0.000730782
-0.000522413
-0.000668147
0.000927254
-0.000692742
0.000723521
-3.07926e-05
0.000744972
-0.000430833
-0.000170908
0.000639298
0.00135764
-0.000841258
-0.000516296
0.00125089
-0.00023044
-0.000385039
0.000385368
0.000158436
0.000852268
-0.000301915
-0.00023338
-0.00046086
0.000694182
-0.000105037
-3.18409e-05
0.000853614
-0.000247959
-0.000605681
-0.00886251
-0.00015361
-0.000555708
0.000709185
-0.000735149
-0.000144209
0.00200644
-0.00466619
0.00265969
-0.000881802
0.000750585
0.000131307
-0.00107863
-0.00130511
0.00238373
-0.000213773
-0.000915761
-0.0012146
0.0010076
-0.000304607
0.000630529
-0.000569621
-0.00231488
0.00155253
0.00154046
-0.00140164
0.000365316
-0.000462195
9.69159e-05
0.000209269
-0.00132983
-0.000439188
-0.000500363
-0.000253462
-0.000600472
0.000263817
0.00016278
-0.000164611
0.000208206
-4.358e-05
0.00112037
-0.000657806
-0.000462594
-2.57605e-05
-0.00120023
-9.29601e-05
0.00129317
0.000767223
0.000353149
-0.000288722
0.000138838
0.000149855
-0.000333993
0.000638947
8.33661e-06
0.00041351
0.000852672
0.00109829
-0.00195102
-0.00011786
0.00012276
-0.000765134
0.00064233
7.93069e-05
-0.000818807
0.00073956
0.000431614
-6.63208e-05
-0.0010685
0.000623962
-0.00089359
0.000235757
6.45282e-05
0.000128754
4.56405e-06
0.000569246
0.000300319
-0.000463842
-0.000179538
0.000740332
-0.000560793
-0.000470833
0.000753426
-0.000282661
-0.00200269
7.61356e-05
0.000214148
0.000141216
-0.000249295
-0.000564749
0.000505766
-0.000241936
0.000648687
-0.00137893
0.000730411
0.000876999
-2.5662e-06
-0.000874471
-0.000396218
0.000244679
-0.000388387
0.000143713
0.000350144
-0.000105233
-0.00107137
0.00117665
0.00111833
-0.000957608
-0.00115665
-0.000649056
0.0018057
0.00111152
-0.000344255
-3.12345e-05
-0.000226639
-0.00070991
0.000525483
0.000184223
-0.000392439
0.000534423
-0.000142026
0.000648796
-0.000635378
5.60447e-05
-5.36331e-06
-0.000751159
-5.59707e-05
0.000401932
-0.00034592
0.000310254
-0.000309023
-1.24396e-06
0.000467908
0.000522349
-0.000990199
0.000103357
0.000366721
-0.000470113
-0.000231973
0.000728282
-0.00049634
0.000663843
-0.000693603
-0.000149967
-0.000782302
-0.00145074
0.000772594
-0.000452917
0.000786064
-0.000333081
-0.000447448
0.000318724
0.000128709
-0.000120758
-0.000383966
0.000504713
0.000395838
-0.000604319
0.000208425
-0.00067823
-0.000130234
0.000159293
-0.000762734
0.00060341
-0.000166872
4.28219e-05
0.000124048
-0.00145654
0.000668907
0.000787545
0.00019267
0.000351872
-0.000544537
0.000686322
-0.000374726
-0.000311619
-0.000627926
0.000396911
0.000521518
0.000198141
-0.000719672
-0.000743811
0.00049456
0.000607573
-0.0010796
0.000471993
0.000733538
0.000708469
-0.000485803
0.000565128
-0.000752428
8.90446e-05
0.000663374
0.000849082
-0.000282449
0.00070852
0.000221999
-0.000930428
-0.000734212
1.32996e-05
0.000720913
-0.000841728
0.000543169
0.000298566
0.00109205
-0.000626743
-0.000465246
-0.000805905
0.000335038
0.00140195
-0.0015071
-2.39435e-05
2.69705e-05
-0.000422852
0.00103534
-0.000612463
-0.0014653
0.000837441
0.00021812
-0.000703334
-0.000263662
0.000578607
-0.000314977
-0.000594242
-0.000922299
0.00086919
5.30562e-05
-0.00113607
0.000464752
0.000671154
-0.000977506
0.00013051
-0.00085923
-0.000297438
-0.00100543
0.000347533
0.000657798
-0.000308097
-0.000139359
0.000445372
-2.51503e-05
-0.000420178
-0.000541096
0.000639153
-9.81156e-05
1.29168e-06
0.000444064
-0.00063493
0.000622346
1.25574e-05
3.04061e-06
-3.03905e-06
0.000160242
-0.000260191
0.000551318
-0.000358645
-0.000494586
0.000891693
-0.000397229
0.00174964
-0.000387282
-0.00136249
0.000346745
0.000150013
-0.000496699
0.000520245
-0.000349177
-0.000171082
0.000698987
-0.000815048
0.000115939
-0.000420679
0.000503635
-8.29673e-05
0.000133235
2.29044e-05
0.000180884
-0.000722779
-0.00115726
-0.000242176
-0.000306106
0.000548268
-0.000763863
-2.56185e-05
-0.000736475
-0.000177531
0.00106163
-0.000750787
0.0010243
-0.000273562
-0.000187464
-0.000455818
-0.000142252
0.000669868
0.000516307
-0.000871661
0.000448989
-0.000157281
-0.000832589
-0.000610343
-8.24068e-05
-0.000810891
-0.000212496
0.000319341
0.000200901
6.65628e-05
-0.00108436
-4.45802e-05
-0.000801005
0.000321807
-0.000658706
0.000487776
-0.00138791
0.000983894
0.00010125
0.00085926
-0.000160273
-0.000312907
0.000439931
-0.000127022
-0.000348528
0.00030632
4.22237e-05
0.000991728
0.000799972
-0.00179181
0.00104485
-0.000932482
-0.000112331
-0.000235143
0.00028404
-4.90001e-05
0.000129754
-0.000340265
0.000963001
-0.000788216
0.000523547
0.000264678
-0.000835506
-0.000142103
0.000287855
-0.000125695
-4.11792e-05
-0.00026383
-0.000848121
0.0010914
-0.000243226
-0.00258686
0.00264614
-5.93082e-05
-0.000128204
-0.000135495
-0.00038198
-0.000518772
0.000900742
-0.000162006
0.000229535
-0.000545804
0.000473445
7.23556e-05
-0.000649266
-0.000307784
0.000957053
-0.000654383
0.000479105
0.000175281
-0.000132017
-0.000473171
0.000360545
-0.000345544
-1.501e-05
0.000515445
-0.000991653
0.00047617
-0.00060966
0.000745193
-0.000135603
0.00101006
-0.000867251
-0.000142872
-0.000487103
7.00497e-06
-0.000719143
0.000565519
0.000514339
0.000790389
-0.000774087
0.000642074
-0.000260043
-0.000206508
-1.35453e-05
-9.15318e-05
3.0135e-05
0.00129495
-0.0013251
0.000270179
0.000739909
-0.000535436
-0.000118965
-0.000777578
0.000867272
-0.000419992
0.000137468
0.000282537
-0.00112792
-7.23291e-05
-1.19847e-05
0.000635583
0.000710762
-0.00018924
0.000461021
1.32486e-06
-0.000462344
8.8409e-05
0.000834429
0.000857012
0.00114942
0.000297359
-0.000718014
0.000420681
-0.000848362
0.000302927
-8.3542e-05
1.34704e-05
-0.0012928
0.00047944
-0.000697519
3.87997e-05
-0.000307895
0.000229975
0.000363218
0.00025004
-0.000225932
3.39564e-05
0.000191974
0.00105957
-0.000902942
-0.000156657
-0.000317139
0.000943794
0.000174581
0.000864372
0.000532921
-0.00139723
-0.00029113
-0.000350933
0.000642039
-0.00107471
-2.01873e-05
1.73103e-05
2.86539e-06
-5.34629e-05
0.000451816
-0.000398363
-1.47255e-06
0.000432035
-0.000430577
-0.000166937
-0.000257302
0.00042424
-0.000562256
0.000129505
0.000432677
-0.000176773
0.000176776
0.000419272
4.17275e-05
-7.90205e-05
-0.000673423
0.000311909
0.000786455
0.00010272
-0.000120471
1.7726e-05
0.000107099
0.000178555
-0.000285739
2.21244e-05
-0.000660825
5.10849e-05
-0.000791021
0.000250005
5.91721e-05
0.000400455
-0.000650645
0.000872748
0.00030878
0.000693175
-0.000395794
-0.00185203
0.0011126
-5.333e-05
-0.000220934
0.000972186
-0.000751195
-0.000506417
-0.000498997
0.000264393
-0.000777408
0.000512941
-7.17399e-05
6.9513e-05
-0.000331891
0.000939507
0.000747772
0.000105842
0.00106483
-0.000828412
-0.000236433
0.00061462
-0.000433807
-0.00075772
-0.000458746
-0.000362048
-0.000504123
0.000866124
-0.000683382
0.00133211
0.000250712
-1.22591e-05
-0.000539628
0.00048366
0.000457518
0.000225145
0.000194112
-0.000511779
0.000729962
0.00049356
0.000340881
-0.000941339
0.000297176
0.000503223
-0.000183892
0.00227823
-0.00046422
-0.00181404
0.00105654
-0.00124401
0.000493203
0.000405224
-0.000180086
-7.49945e-05
-0.000232877
0.000350285
-0.000639005
-0.000453391
7.37584e-06
0.000446052
-0.0007541
0.000673876
8.01154e-05
-3.11898e-06
0.00100751
-0.000511905
-0.000495536
3.85074e-05
0.000234566
-0.000273089
0.000346707
-0.000486953
0.000140159
4.54646e-06
-0.00153878
0.00130358
-0.00203638
0.000662693
0.000738454
0.000285825
-0.000618607
0.000344182
0.000274432
0.000275855
-0.000455431
-0.000460919
0.000407445
-0.000313024
3.99842e-06
0.000304197
-0.000564285
0.000504619
-0.000738019
-0.000516899
-0.00047718
0.000994129
-8.06951e-06
0.000258761
0.000799725
-0.000535431
-0.000400348
-0.000283324
-1.32704e-05
6.16048e-06
0.00055498
-0.000561041
-0.000724765
0.000428056
0.000296746
-0.00040512
-7.0144e-05
0.000475202
-2.98817e-05
-0.000728706
-0.000750645
0.00093438
-0.000183749
0.000166656
-0.000416912
0.00025024
-0.00171033
0.00171503
-4.71831e-06
4.08993e-05
0.00716963
-0.0062445
-0.000925216
-0.0003936
0.000346688
4.6901e-05
-0.000520655
-4.16048e-05
-5.77236e-05
-0.00050865
0.000325886
-0.000571972
-0.000695044
0.000159615
-0.000331231
-6.23736e-05
-0.00034142
-0.000779651
0.00112104
-0.000668231
0.000631872
0.000623793
-0.000625282
5.37988e-05
-3.87232e-05
0.000406745
9.64743e-05
-0.000553526
-7.95501e-05
-0.00060608
-0.000977763
-0.000936711
0.000750249
-0.000346418
9.61573e-05
0.000250265
-0.00079585
0.000899436
-0.000377657
-6.50894e-05
0.00044281
0.000250812
-0.00042235
0.000868956
-0.000446571
0.000136521
-0.000449426
0.00037639
0.000231718
0.000274775
-0.000506497
0.000233975
0.000216806
-0.00045084
-0.000153476
-0.0010611
-0.00103048
0.00115151
-0.000120991
-0.000228602
0.000700174
-0.000523864
0.000131415
-0.000805881
0.000482454
2.85009e-05
-0.000463853
0.000435269
0.00089258
-0.000344411
-0.000548211
-6.90837e-05
0.000479961
-0.000410976
-0.000712947
-0.00132343
0.000709392
2.63895e-05
0.000142334
0.000199351
-0.000341675
-9.91721e-05
-0.00130158
0.00140087
0.000115323
0.000670399
-0.000785737
-0.000191429
0.000131625
-0.000483298
0.00051525
-3.19432e-05
-0.000537605
0.000652919
0.000119888
-1.72959e-06
-0.000118159
-0.00137107
0.0015469
-0.000175641
-0.000206903
8.95506e-06
0.000197929
1.61959e-05
-0.000368877
-0.0008016
-8.76924e-05
0.000889308
0.000797036
-0.000695433
0.000435379
0.000260024
-0.00064514
-0.000825065
0.000693529
0.000257254
-0.000189203
-1.76955e-05
9.0955e-05
1.17772e-05
0.000238051
0.000653574
-0.000891801
-0.000777641
0.000711335
6.61268e-05
-0.000672077
8.74745e-05
0.000584598
-2.97412e-05
0.000321084
-0.00079133
0.00047026
0.000350416
0.000611938
-0.00096234
0.000477982
-0.000134318
-0.000343704
0.000615425
-0.000851948
0.000236477
0.00023232
-0.000249382
1.70445e-05
-0.000409411
0.00132931
-0.000326386
0.000305178
0.00118143
-0.00113509
-4.63576e-05
-0.000462757
8.24222e-05
0.000380296
-0.000374642
0.000142663
9.76385e-05
0.000380307
0.000526264
0.00025914
-0.000785433
-0.0001995
0.000814916
-0.000122942
7.20775e-05
5.08564e-05
-0.000219049
0.000145399
-0.000402696
-6.23469e-05
-0.000264029
-0.00027805
-0.000603689
-0.000419925
-8.76793e-05
0.000887802
0.000861711
0.000800144
0.000207338
0.000386706
-0.000350345
-3.64199e-05
-0.000729047
-4.97213e-05
0.000778787
-6.03733e-05
-0.000633464
0.000693764
-8.47339e-05
-3.82133e-05
0.000710353
-0.000410392
-0.000300022
0.000275792
-0.000237258
-0.00054873
6.54634e-05
-3.41291e-05
-0.000341776
0.000375892
0.000614982
0.00171656
-0.00233165
0.000846928
-0.000454424
-0.000392591
-0.000120059
-0.000212204
0.000332265
0.00063623
-0.00075803
-0.000501315
0.000320663
2.30878e-05
-2.94982e-05
0.000338396
-5.65596e-05
-0.000281866
-0.000575024
6.96724e-05
0.000505327
-0.000285929
0.000397793
-0.000133152
-0.000672717
-0.000439263
0.000555477
-0.000116236
-0.000314359
0.000417692
0.000586432
-0.000968407
0.000432895
0.000427726
-6.21557e-05
-0.000284272
7.92743e-05
0.000535204
-0.000556934
0.000585413
2.47049e-05
-0.000753733
-0.000119464
0.000261804
-0.00113813
0.000205766
-8.14712e-06
-0.000769539
0.000276752
-0.0020497
0.001773
-0.000985233
-0.000152774
0.000292211
9.44553e-05
0.000629942
0.000239137
-0.000869062
0.00035145
9.08832e-06
-0.000386346
0.000500797
-0.000114497
0.000155673
-0.000694709
0.000216353
-4.97061e-05
-0.000295734
-0.000124252
0.00076636
-0.000849072
0.0010657
-0.000216669
-0.000321265
0.000337478
-0.000850725
3.7833e-05
0.000812955
0.000376665
-9.98984e-05
-0.000386043
-0.000309454
-0.000583133
0.00017002
0.000413138
0.000749476
-0.000478629
-0.00027087
-0.00107429
0.00104011
3.4213e-05
-0.000784747
-0.000493079
0.000424005
-0.000311047
0.000657755
-0.00129183
0.0018495
-0.000418235
-4.45443e-05
-0.000197513
-0.000576605
-0.00050989
-3.88273e-05
0.00189101
-0.000275317
6.83094e-05
-0.000628261
0.000567893
-0.000275269
-0.000296815
0.000572068
-0.000537316
0.000557721
-2.04186e-05
1.30669e-06
-1.31711e-06
3.17393e-05
-0.000714054
0.000682317
-0.00101117
0.000581089
0.000429964
0.000527072
-0.000180316
-9.82552e-05
-0.000391526
-0.00125559
-0.00011567
-0.000386054
0.000216958
0.000327059
0.000617712
-6.81694e-05
-5.75228e-05
0.00112197
5.94519e-05
0.000248262
-0.000151066
0.00168738
-0.000518272
-0.000558219
-0.000136837
-0.000466074
0.000120527
0.000345556
0.0005325
-0.000183004
-0.000349525
0.000653858
3.23134e-05
-0.00101432
0.00485987
-0.00384555
-0.000225978
3.85961e-05
-0.000552112
0.000902507
-0.000196599
0.000712039
0.000709861
-0.000694386
-1.54787e-05
4.31257e-05
-3.32505e-05
-9.88049e-06
-0.000590952
0.000102272
0.000488668
0.000760665
7.71994e-07
-0.000761352
-0.000330225
0.000587191
4.27628e-05
0.000196697
0.00080595
-0.00192446
0.00111824
0.000433183
-0.000161557
-0.000271618
7.24688e-05
-0.000224096
0.000373226
-0.000149123
-0.000129583
0.000364753
-0.000235164
-0.000247805
-0.000376935
-0.000241683
-0.000552199
0.00113641
-0.000584132
-0.00360116
-0.000350893
-0.00024445
0.000678175
0.000827825
0.000307153
-0.000429706
0.000205613
0.00111405
-0.000740464
-0.000373698
-0.000284521
-0.000472107
0.000756684
0.000910233
-0.000902267
-8.02432e-06
0.000376849
0.000470019
0.000181734
-0.000109622
-7.21118e-05
-0.000605965
0.000291286
0.000619001
-0.00029905
-0.00031989
-0.000844203
0.000134236
-0.000108768
-3.42864e-05
0.000143078
-0.00041581
7.72413e-05
-0.000761648
0.000305567
0.000455963
-0.000235316
0.000424988
-0.00110054
-8.2658e-05
-0.00041197
0.000564228
0.000295007
-0.000107837
-0.000229002
0.000336833
-0.000824954
-2.56987e-05
-0.000500285
0.000402072
0.000423233
0.000804795
-0.00122809
-0.00119651
0.00131855
-0.000122143
-0.000542666
-0.00139938
-0.000310973
-0.00180569
0.00110246
0.00070325
0.000211264
-0.000331316
0.000264949
0.000591752
-2.05213e-05
-0.000719567
0.000927564
-0.000208269
-3.80098e-05
5.29428e-05
0.00016531
-5.00049e-06
-0.000547733
-5.67227e-05
0.000766576
-0.000410768
0.000535154
-0.000124393
-0.000365903
0.000587019
-0.000221126
8.34205e-05
-0.000469737
0.000361314
0.000171173
1.84369e-06
0.000297372
-0.000299184
0.000129702
2.8577e-05
-0.000158274
0.000461527
0.00137361
-0.000874295
-0.000499467
-0.000396927
-0.000259025
-0.00020709
-0.000319413
0.00151483
-0.000853153
-0.000661638
0.00250343
-0.000886453
0.000376596
0.000339279
0.000574728
-0.000914013
5.64004e-05
2.58949e-05
0.000414935
-0.000440848
0.000340221
-0.000706223
-0.000478032
0.000570694
-9.26788e-05
0.000255599
0.000608734
-3.72452e-05
-3.09207e-05
0.000582946
1.57887e-05
-6.41134e-05
4.83914e-05
-0.000152077
-0.000567443
0.00404011
-0.00269379
-0.00134625
-0.000624664
0.000159883
0.000464759
-0.0010919
-0.000713756
0.000482
-0.000766613
-0.000439421
-0.000100212
0.000469531
-0.000498193
2.88463e-05
0.000390079
-0.000367901
-0.000554451
-0.000533396
0.000903714
-0.000370408
0.000546571
-0.000528196
-1.83579e-05
-0.000598082
0.000483145
5.85274e-05
0.000146671
-0.00055745
-0.000883982
4.95881e-05
0.000791592
2.62573e-05
-0.000787957
5.8089e-06
0.000782125
0.000497444
-0.000225886
0.00199471
-0.001769
-0.000472733
-0.000292142
0.000764869
-0.000334504
0.000303248
-0.00038557
8.52384e-05
0.000300336
0.000172074
0.00030322
-0.000836646
-0.000140247
0.00058152
-0.000368674
4.95872e-05
0.000712928
-0.000762529
0.00153778
-0.00159659
5.89019e-05
2.01215e-06
-7.10973e-07
-7.69061e-05
0.000472758
-0.000856423
0.000195496
-0.000674307
0.000213428
9.51641e-05
-1.13827e-05
0.000938959
-0.000927546
-0.00108699
0.000892188
-0.000327994
-0.000810626
-7.15112e-05
0.000198512
-0.00048446
-0.000690158
0.000153865
0.000536279
0.000523915
0.000319587
-0.00203561
0.0031339
-0.000461645
-0.000282247
-0.000841616
0.000190954
-0.000126705
-9.92277e-05
6.76824e-05
-0.000482116
0.000565752
-8.36329e-05
2.89324e-05
0.000428571
-0.000457521
-0.000257789
0.000129581
1.93735e-05
-0.000664939
0.000645593
-0.00019655
0.000430526
0.000147672
0.000372255
-0.00110219
0.000729863
0.00018844
-0.00101849
0.000829937
0.000108136
0.000240706
-0.000348835
-8.27626e-05
0.000756627
0.000229464
-0.000507297
0.000277815
0.000359071
7.23089e-05
-0.000431372
-0.000339995
-0.000162746
0.000502866
0.000408681
-6.1994e-05
-0.000168114
0.000150436
-0.000261548
-0.000296677
0.00144008
-0.00140996
0.00155562
-0.000241759
-0.00131392
0.000225832
0.000246032
-0.000471926
0.000248493
2.38094e-05
-0.000272327
0.000149753
-0.000576684
0.000426943
-0.000261848
0.0013543
-0.000930926
0.00068258
-0.000650848
-0.000263102
-0.000166615
0.000180904
8.13352e-07
-0.00106061
0.000839668
-0.00041001
0.000302168
3.15156e-05
-0.000842219
-0.000567979
0.000588269
-2.03064e-05
0.000347046
-0.00024003
-3.86478e-05
-0.000627464
0.000149441
-0.000844764
-5.94945e-06
-9.46633e-06
-0.000636638
-0.000814091
-0.000445224
-0.000686746
0.001132
0.000931664
-0.00139363
0.000461965
0.000399686
0.000146847
-0.000580392
0.000462274
0.000118075
0.000320539
0.000389381
-0.000510176
1.72256e-05
0.000954985
3.63111e-05
-0.000389223
0.00035294
-6.40166e-05
0.000198406
-0.000134401
-1.13598e-05
-6.35792e-06
1.76733e-05
0.000588937
-0.000439174
0.000585514
-0.000119354
-0.000466172
0.000480219
-0.000474019
-0.000736874
0.000539344
0.000410504
0.000873049
-0.00128361
-0.000199276
0.000527445
-0.00032813
-0.000437082
-0.000326732
0.00039283
-0.000654388
5.03608e-05
0.000157868
0.000148728
-0.00037747
0.000228755
-0.000109572
0.000626632
-0.000390231
-0.000192887
0.000121213
5.33438e-05
-0.000798194
-0.000323753
0.0011219
-0.000204777
-4.46387e-05
-0.00100113
-0.000490403
0.00149166
-0.000854622
0.000337682
0.000580667
-0.000363871
0.00127581
9.76968e-05
-0.0003244
0.000316325
-0.00130041
0.000216497
-0.000632942
0.00139702
-0.000764003
3.38209e-07
-0.000639344
0.000638991
0.000634487
5.42958e-05
-0.000688768
0.000128749
0.000781441
0.000298588
-0.000786324
0.000487647
-2.18388e-05
-0.000152735
-0.000249618
0.00048133
-0.000887301
9.92607e-05
-0.000484848
-5.90279e-05
0.000543852
-0.00051467
-0.000621493
-0.00056247
-0.000239111
0.00024786
5.98508e-05
-0.00030769
0.000140356
-0.000136172
-0.000273839
0.00100571
-0.000121431
-0.00088415
-0.00074575
0.000610549
0.000135238
-2.71373e-05
-0.000661245
0.00031188
-0.000540577
0.000816459
-0.000144693
-0.00011313
0.00015251
0.000799751
-0.000952265
-0.000310802
3.54724e-05
-0.000901682
4.52021e-05
-0.000867167
0.000410088
0.00045718
0.000329942
0.00072656
0.000347772
0.0036923
2.01021e-06