/*--------------------------------*- C++ -*----------------------------------*\
| =========                 |                                                 |
| \\      /  F ield         | OpenFOAM: The Open Source CFD Toolbox           |
|  \\    /   O peration     | Version:  v2012                                 |
|   \\  /    A nd           | Website:  www.openfoam.com                      |
|    \\/     M anipulation  |                                                 |
\*---------------------------------------------------------------------------*/
FoamFile
{
    version     2.0;
    format      ascii;
    class       surfaceScalarField;
    location    "350";
    object      phi;
}
// * * * * * * * * * * * * * * * * * * * * * * * * * * * * * * * * * * * * * //

dimensions      [0 3 -1 0 0 0 0];
oriented        oriented;


internalField   nonuniform List<scalar> 
19765
(
-0.043299
-0.0501535
0.0934526
0.00167278
0.119641
-0.121314
-0.0331977
0.0602181
-0.0270204
-0.12263
-0.182858
0.305487
0.235947
-0.246395
0.0104478
-0.197383
0.0168011
0.180582
0.14034
-0.21412
0.07378
0.0140304
0.0614257
-0.0754561
0.167635
0.143585
-0.31122
-0.121675
0.447781
-0.326107
0.136111
-0.073234
-0.0628766
-0.040479
0.0414105
-0.000931462
-0.0770463
0.0173844
0.0596619
0.242118
-0.101778
-0.13912
0.314735
-0.175615
0.32999
-0.0940429
-0.210751
-0.0440619
0.254813
-0.30177
-0.110844
0.412614
0.0481773
0.0607541
-0.108931
-0.166765
-0.0206625
-0.163726
0.352284
-0.188558
0.332684
-0.541611
0.208928
0.513949
-0.181265
-0.0493718
0.0694028
-0.020031
0.042945
-0.0761427
0.159147
-0.289449
0.130302
-0.0359552
0.0400774
-0.00412224
-0.305939
-0.235673
-0.0340615
0.00658466
0.0274769
-0.153512
0.459945
-0.306432
0.0154134
-0.0631913
0.047778
0.0608583
-0.0545478
-0.00631047
0.0747296
-0.0663148
-0.00841485
0.0648683
-0.0344279
-0.0304404
-0.0517753
0.0999526
-0.246427
0.123797
0.446873
0.067076
-0.34686
0.263247
0.0836123
0.313647
-0.0867121
-0.226935
-0.231062
0.0196024
0.211459
-0.0429834
0.153174
-0.11019
-0.0642362
-0.122072
0.186308
0.0662367
-0.0522062
-0.111008
0.153661
-0.042653
-0.0576597
0.000549769
0.0571099
0.00730121
-0.163316
0.365883
-0.202567
0.295988
0.197871
-0.493858
0.172755
-0.162792
-0.00996224
0.636418
-0.374204
-0.262214
0.0538568
-0.0384435
-0.0151474
-0.121763
-0.504114
0.350602
-0.0340615
-0.17052
-0.0268627
-0.228665
0.164429
0.176543
-0.0134032
-0.16314
-0.318191
-0.0510175
0.369209
-0.359362
0.237688
-0.136264
0.0605565
0.0757078
-0.316452
0.1057
0.0523706
-0.370562
0.142511
-0.172712
0.0302008
-0.212048
-0.0190138
-0.13067
0.289817
0.0460845
0.205465
-0.251549
-0.139811
0.141484
0.0508165
-0.0397684
-0.0110481
-0.0346353
-0.00131993
-0.396849
0.0950789
-0.443805
-0.169431
0.613236
0.184678
-0.0421671
0.217719
-0.395549
0.17783
0.0512439
-0.204638
0.153394
-0.284421
0.129005
0.155416
0.323902
-0.549345
0.225444
-0.0437797
0.052663
-0.0088833
-0.0577082
0.102525
-0.0448169
0.0772758
-0.0242751
-0.0530006
-0.152195
0.176068
-0.0238732
0.186497
-0.396555
0.210057
0.0861928
-0.13974
0.0535474
-0.400726
0.217511
0.183215
-0.305109
0.429588
-0.124479
-0.0578947
0.000235007
-0.277762
0.123094
0.154668
-0.334324
-0.199559
0.533883
-0.0135528
0.110927
-0.097374
-0.096175
0.0826222
-0.372823
0.209097
0.467735
-0.300026
-0.167709
0.0531589
-0.0487997
-0.00435926
0.109103
-0.0465274
-0.0625755
-0.0492618
0.104509
-0.0552471
-0.0349759
-0.109607
0.144583
-0.107873
0.0376447
0.0702279
0.457647
-0.271149
-0.0508666
-0.0217099
0.0725764
-0.152879
0.0418712
0.130016
-0.126389
-0.00362704
-0.154824
0.0393275
0.115497
-0.0996765
0.395664
-0.371101
0.287194
0.0839063
-0.251896
0.0651532
0.186743
0.439307
-0.221589
-0.292327
-0.218467
0.510794
-0.00943782
0.0725789
-0.063141
-0.0722136
-0.0640507
0.167812
-0.146146
-0.0216661
0.0825206
-0.0639089
-0.0186117
-0.103578
0.0800559
0.0235218
0.0547582
0.00610006
0.108373
0.0772878
-0.0390126
-0.0382753
-0.0771051
-0.0777194
0.0733454
0.00138424
0.0339471
-0.163722
0.129775
-0.112473
0.14298
-0.0305064
0.166284
-0.221912
0.0556275
-0.0775165
-0.0260611
0.12932
-0.164296
-0.178279
-0.212096
0.390374
0.387824
-0.500273
-0.0756404
-0.202122
-0.0551247
0.0911229
-0.0359983
0.205001
-0.016976
-0.188025
0.0468168
0.014662
-0.0614788
0.355413
-0.166411
-0.189003
0.437797
0.198621
0.0249896
0.0402418
-0.0652314
0.074188
-0.0207726
-0.0534154
0.128931
-0.167987
0.0390567
0.06722
-0.112727
0.0102678
0.102459
-0.426771
0.0117317
0.415039
-0.014383
0.159689
-0.145306
0.268011
-0.100376
-0.26435
-0.106751
0.0732753
0.00924528
-0.0136057
-0.238291
-0.0259585
-0.0544796
0.0363427
0.00155568
-0.0378983
-0.0355152
-0.0110891
0.0466042
-0.124089
0.140333
-0.0162435
-0.0103258
-0.0301532
0.0150893
-0.0646719
0.0495825
0.179823
-0.00706838
0.301447
-0.573292
0.271845
-0.447478
0.114361
0.333117
-0.0480516
0.0578134
-0.00976181
0.0451122
-0.0620514
0.0169392
-0.295643
0.234571
0.0610722
0.00104683
-0.219255
-0.127605
0.215559
-0.509696
0.294138
-0.179405
0.165022
0.331554
-0.574079
0.242525
0.133418
-0.176401
-0.0962846
0.0482217
0.0480629
0.0328381
0.0320303
-0.00301118
0.0841555
-0.0811443
0.0625642
-0.0157474
-0.144132
0.0316591
-0.209718
-0.0859258
0.386466
-0.632577
0.246111
0.0427014
-0.0824374
0.039736
-0.136789
0.00527718
0.131512
-0.0750666
0.0491081
-0.0244094
0.0673544
-0.0140253
-0.0745379
0.0430554
-0.0725281
0.0294727
0.123436
-0.138583
0.0164186
-0.0583123
0.0418937
-0.0337816
-0.0432647
0.0138537
-0.11689
0.103036
0.450177
-0.668446
0.218269
-0.129116
0.0117947
0.0632108
-0.0750055
-0.3223
0.143035
0.179266
0.212327
-0.337192
0.124865
-0.0394566
-0.0389469
0.0784035
0.20093
-0.0346453
0.097133
-0.248063
0.15093
0.0630455
-0.0466269
-0.116855
0.185756
-0.0689009
-0.131668
-0.123656
0.255324
0.0298337
-0.456604
0.236031
-0.189946
-0.63147
0.674743
-0.043273
-0.135678
0.0115887
0.155303
-0.0263722
0.145032
0.010271
0.0678669
-0.0251655
0.06558
-0.0204678
-0.0826928
0.0732549
0.0497786
-0.0854121
0.027704
-0.23751
-0.142608
0.380118
-0.239595
0.195533
0.080136
-0.0370806
0.0710191
-0.0654247
-0.00559441
-0.111491
-0.0161145
0.127606
-0.0135932
-0.0742029
0.0877961
-0.0848163
0.241571
-0.156755
-0.0378375
-0.0629738
0.100811
-0.0750307
0.0542581
-0.154465
-0.0189836
0.173449
0.0592613
-0.233817
0.174555
-0.293731
-0.153746
-0.157301
0.181154
-0.0238531
0.0967474
0.0332682
-0.0649422
0.0155704
-0.535076
0.0912709
0.0657317
-0.0407421
0.0875673
-0.10116
0.0994525
-0.0132597
-0.246344
0.432661
-0.186317
-0.0703823
0.0610311
-0.0536138
0.307086
-0.253472
-0.291159
0.237545
-0.284926
0.145807
-0.678201
0.249994
0.428207
-0.13711
0.290012
-0.152901
-0.0908928
0.0870016
0.00389125
0.23127
-0.444162
0.212893
0.0318054
-0.065587
-0.123203
-0.0135864
0.620229
-0.279181
-0.0314701
-0.0262568
0.0577269
-0.137898
0.088221
0.0496772
0.0324827
0.262153
-0.460651
0.198498
0.468291
-0.166845
-0.024265
0.215208
-0.190943
-0.159431
0.00681228
0.152619
-0.208337
0.00610945
0.202227
-0.0223107
-0.373238
-0.42397
0.56993
-0.145959
0.157369
-0.0123375
-0.228359
0.426476
-0.198117
-0.0348572
0.223178
-0.188321
0.0747254
-0.112563
-0.433938
0.255659
0.0600163
-0.0482217
0.123402
-0.0464659
-0.0769363
-0.0795449
-0.0683741
0.147919
0.0701513
0.000867858
0.165272
-0.206814
0.0415426
0.417658
-0.124217
0.138071
0.0370767
0.0720263
-0.177335
0.408604
0.0726035
-0.0575142
-0.321066
-0.286884
0.60795
-0.112317
0.562494
-0.066261
-0.0609403
0.127201
-0.288556
-0.404759
0.1764
0.319086
-0.201991
-0.117095
0.0358125
0.107167
0.0462913
0.0898194
0.192963
-0.192316
-0.0811159
0.00643118
-0.0419463
-0.14672
-0.17558
0.0130706
-0.0769795
-0.0836622
0.0442056
0.0513329
0.025955
-0.0883923
-0.00250059
0.211467
0.317921
-0.529388
0.0902463
-0.127286
0.0370394
0.249095
-0.0847372
-0.164358
-0.138087
-0.00560691
0.143694
-0.0601719
-0.0361127
0.0911512
-0.0543494
-0.0368018
0.156425
-0.580395
-0.0982818
0.132229
-0.0740386
0.0231721
-0.00633849
0.182882
-0.106521
0.229615
0.260864
0.0582226
0.0578957
-0.0796056
-0.0840625
0.095454
-0.015584
-0.0798699
-0.41141
-0.266791
0.516601
-0.273278
-0.0395108
-0.0550171
0.0945279
-0.197549
-0.203177
0.0316815
-0.164398
0.132716
0.0126555
-0.0669898
0.0543343
-0.00352427
-0.0505756
0.0679599
0.0443932
-0.0396101
-0.00478315
-0.0565575
-0.0813407
0.197096
0.249776
0.184626
-0.0193541
-0.0580973
-0.250904
0.309001
0.0385906
-0.0385906
-0.321834
0.276645
0.0451894
-0.0340349
0.0458659
-0.011831
0.163819
-0.173976
0.0101566
-0.126676
0.0942067
0.0324694
-0.284431
0.583851
-0.299419
-0.0504361
0.081343
-0.0309069
0.214047
0.132569
-0.346617
0.12979
-0.0560946
-0.0736951
-0.137026
0.0648119
0.175509
-0.251149
-0.217538
-0.257235
0.474773
0.0084461
0.116362
-0.124808
0.0947565
-0.119551
0.0247947
-0.035538
0.057634
-0.0220959
-0.285723
0.061154
0.224569
-0.0830701
0.0279454
0.0426722
-0.00632954
-0.0505698
0.0776592
-0.0270894
0.15734
-0.138227
-0.0191134
-0.0348484
0.106413
-0.117344
0.010932
0.141698
0.107397
-0.0422492
-0.0479681
0.0902173
0.186879
-0.0230596
-0.411919
0.21437
-0.133461
-0.0588236
0.0558124
-0.255352
0.170536
-0.253397
-0.0968991
0.350296
-0.140969
0.0192057
0.230509
-0.0355707
-0.194938
-0.0670969
0.0858355
-0.0187386
-0.0293661
0.0692227
-0.0398565
0.0504018
-0.133126
0.0827238
-0.207893
0.128349
-0.12785
0.016359
-0.0536009
0.0180629
0.0586539
0.0324691
-0.181279
0.0339173
0.147362
-0.322401
0.0743378
0.139938
-0.158562
0.0186238
0.0769896
-0.0212084
-0.0557812
-0.255483
0.513301
-0.257819
-0.144106
-0.0153247
-0.029622
-0.103173
-0.0377952
-0.187714
0.449867
-0.209699
0.174842
-0.126025
0.269609
0.128331
-0.265441
-0.0615703
0.0356855
0.0443154
-0.179437
0.135122
-0.238716
0.0303797
0.00967448
0.101252
-0.141242
0.200503
0.0503739
-0.0898847
0.105017
-0.0709381
0.117775
-0.0468367
0.0176027
-0.0643506
0.0467479
0.0715119
-0.0213099
-0.0502021
-0.42461
0.1871
-0.0729337
-0.0640919
0.0111943
-0.0386584
0.0394855
-0.000827089
0.210631
-0.00563027
-0.0416716
0.073477
0.214604
-0.195181
-0.0194238
0.0459382
0.077464
-0.0154524
0.0754688
0.393863
0.110193
-0.00378014
-0.0217217
-0.0528458
0.0745675
-0.0467765
-0.00127512
0.0799817
-0.00818924
-0.0717925
-0.00319503
0.0142815
-0.116798
0.102517
-0.17295
0.0560943
0.0329112
-0.0726644
0.0397532
-0.224539
0.184558
0.0399819
-0.0315929
-0.0474028
0.0789957
-0.0472147
-0.186602
-0.19852
-0.22609
0.0378067
0.185483
0.169931
-0.066286
0.0828849
0.0560214
-0.105283
0.140156
-0.294609
0.154452
0.187203
-0.200606
-0.0684857
-0.0581904
-0.232814
-0.0895871
0.0556274
0.00995266
-0.0473438
0.0550305
-0.00768669
0.152364
-0.124506
-0.027858
0.0155735
-0.0363895
0.000217047
0.0361725
0.141082
0.0112813
-0.0419085
-0.0384555
0.080364
-0.397153
0.143756
-0.177596
0.147974
0.0527153
-0.0811059
0.0283906
0.000613541
0.0391619
-0.0812085
0.0420465
0.0347922
-0.10887
0.0740779
0.308455
-0.168299
-0.1003
0.049864
-0.160728
0.036222
0.41481
0.0451349
0.298984
-0.120677
0.526452
-0.194898
-0.0218868
0.0628052
-0.0409184
-0.0747469
0.110058
-0.0353114
0.0410106
0.0315445
0.0192721
0.0209422
-0.129294
-0.155632
0.0680526
-0.0124253
0.173954
-0.183112
0.00915824
0.0831553
0.0132419
-0.0963972
-0.402008
0.336719
-0.591181
0.254462
-0.00730753
0.126083
-0.172816
0.0467328
-0.213166
-0.220772
-0.0876314
-0.000899793
0.0885312
0.149071
-0.00798854
0.0359268
-0.0673969
0.114187
0.112975
-0.227162
-0.0513093
0.0661278
-0.0148186
0.0631929
-0.0505374
0.010961
-0.0970263
-0.188697
-0.0102936
0.0638559
-0.0535623
0.0425643
-0.0367402
-0.0058241
0.0510158
0.0603175
-0.111333
-0.108424
0.387844
-0.279419
-0.0715119
0.104491
-0.0329789
-0.139482
-0.272437
-0.185455
-0.0989651
-0.177784
0.0204832
-0.190876
0.173209
0.0176668
-0.63265
0.413499
0.219151
-0.216704
-0.162764
0.379468
0.331683
-0.176677
-0.155007
-0.121585
0.0254104
-0.143909
-0.188872
0.332781
-0.0293674
-0.0171773
0.0465447
-0.0514314
0.0790511
-0.0276197
-0.424204
0.53949
-0.115286
0.158497
0.0203009
-0.178798
-0.0808284
0.0514623
0.0638983
0.0225555
-0.0864538
-0.288087
0.158792
0.187415
-0.160477
-0.0269378
0.0156295
0.165525
-0.056213
0.0910052
-0.0372857
0.00522775
0.0320579
0.364889
-0.221855
0.101017
0.160575
-0.261591
-0.0562604
-0.0189641
0.0752245
-0.0838043
0.0680709
0.0157334
0.205058
-0.176871
-0.028187
-0.108673
0.0339258
0.172351
-0.0462671
-0.491785
0.170719
-0.173268
0.211881
-0.0386124
-0.134495
0.142941
0.16074
-0.30746
-0.0149396
0.0524124
-0.0374728
-0.158346
-0.288191
0.257492
0.0306997
-0.106786
-0.012252
0.119038
-0.231669
0.0196214
-0.0880866
0.000455195
-0.0778674
0.0729789
0.00488842
-0.326465
-0.306185
-0.314794
0.488156
-0.173363
-0.102028
0.128355
-0.0263276
-0.555084
0.240291
-0.12974
0.0972817
0.0324582
0.281406
0.315609
0.10433
-0.0201745
0.154174
-0.578378
-0.055912
0.114184
-0.0582716
0.0890544
0.0204007
-0.109455
0.161424
0.2091
-0.370523
0.0675218
-0.0505437
-0.0169781
0.107185
-0.177279
0.070094
-0.0490828
0.0626306
-0.0135479
0.521524
-0.310057
0.0326056
-0.0988666
-0.0144105
-0.0227326
-0.0284772
0.0512098
-0.337753
0.174436
-0.0489247
-0.118247
0.162562
-0.0766739
0.092415
-0.015741
-0.0179304
-0.0647624
0.287469
0.142119
0.105388
-0.281391
0.155366
-0.0105251
-0.170754
-0.0322446
-0.00641381
-0.0832523
-0.0246204
0.0521622
0.0153595
-0.0015063
-0.111221
0.00279589
-0.137754
0.351801
-0.0851376
0.043466
-0.139709
0.0365359
0.0134815
0.180974
-0.0737891
-0.0358788
0.0456942
-0.00981538
-0.0670575
0.0574303
0.0096272
0.100984
0.0191211
-0.120105
0.192769
-0.186191
-0.00657759
0.0310675
0.036181
-0.0672486
0.0613953
-0.0437926
0.264259
-0.102823
0.0814261
0.0213972
-0.204067
-0.0276026
0.0142455
-0.0418781
0.0125108
-0.154336
-0.0835836
0.0451878
0.0383958
0.0386482
0.0305473
-0.0691956
-0.0581979
0.0432583
-0.0205739
-0.0632861
0.08386
-0.094143
0.0551961
-0.0390505
0.0600816
-0.0210311
-0.0674322
-0.0266033
0.0940355
-0.174098
0.435071
-0.260973
-0.530033
0.27455
0.0605068
-0.0561244
-0.0043824
0.0185948
-0.105608
0.0870128
-0.107073
0.133429
-0.0263566
0.183733
-0.168271
-0.0154617
-0.0837932
0.0128551
-0.0976263
0.111908
0.0356713
0.0554799
-0.274064
-0.255969
-0.0210814
-0.0539493
-0.0386207
-0.00815576
-0.00360844
0.0306711
-0.0270627
0.042848
0.140885
-0.409366
0.235268
-0.0649751
0.10262
-0.240055
0.49138
-0.251325
-0.0307398
-0.00564967
0.0113949
0.0618804
0.083435
-0.0195367
0.584046
-0.240689
-0.343357
0.442277
-0.118375
-0.0431885
0.0760997
0.47804
-0.326014
-0.152026
-0.080723
0.037424
-0.438021
0.594446
-0.105415
0.101533
-0.0604209
-0.0247167
0.273156
0.18449
0.254213
0.172263
-0.53383
-0.00424086
0.538071
0.102103
-0.0713979
-0.0307052
0.0312912
0.20383
-0.416997
0.172334
-0.144988
-0.027346
-0.0551565
-0.0227897
0.0779462
-0.101929
-0.291939
-0.316686
0.608626
-0.584247
0.427416
0.156831
-0.00581715
0.0519295
-0.0461123
-0.192957
-0.371774
0.564731
-0.250717
0.0151978
0.235519
-0.0336716
0.0336716
0.418954
0.165092
-0.00766241
-0.0296233
0.010867
0.148822
-0.480122
-0.0907167
0.570839
-0.0695606
0.101026
-0.0314657
-0.0140455
-0.13275
0.0256771
-0.132006
0.0299782
-0.0200713
0.110318
-0.0968151
0.25739
0.0254292
0.331509
0.146531
-0.143434
0.185195
-0.412134
0.0274729
0.0575051
-0.0849779
-0.0716047
-0.00626261
0.152645
-0.206952
0.054307
-0.147867
0.534333
0.0357712
0.151644
0.0827961
-0.00281442
0.168903
-0.157345
-0.0115584
0.11011
-0.0775041
-0.158781
-0.0206237
-0.0594872
-0.0398213
0.0993085
0.000215684
0.173738
0.035804
0.016859
-0.067077
0.0567833
0.234125
0.121703
0.297251
-0.161859
0.322599
0.101957
0.140161
-0.181543
0.0403013
0.0581036
-0.00594136
0.0649804
-0.10221
0.0372297
0.067645
-0.0855753
0.0276615
0.453195
-0.331492
0.466008
-0.192852
0.0404263
-0.0823348
-0.0597815
-0.0037451
0.0635266
-0.193134
0.0899472
0.103187
0.0115649
0.256341
-0.153177
-0.103164
0.222766
0.187694
-0.41046
0.0687063
-0.0288727
-0.0398335
-0.0308683
-0.0324194
0.0634869
-0.137519
0.00405814
0.0908173
0.00159765
-0.0726527
0.0322776
0.0403751
0.0456924
-0.0675791
-0.401046
-0.1832
-0.040697
0.0039568
0.0581245
-0.0792059
0.0592452
-0.0809669
0.0165866
-0.12042
0.103834
-0.0107989
0.0466029
0.212862
-0.0602167
-0.527281
-0.483364
0.265826
-0.0404791
0.093233
-0.0527539
-0.113758
-0.204342
0.318101
-0.337068
0.212635
0.124433
0.106578
-0.238246
-0.120222
0.0813478
0.0388745
0.0321796
-0.0576309
0.0254513
-0.0411305
0.0398783
0.00125222
0.0185835
0.0203914
-0.0624605
0.0420691
-0.574253
0.323225
0.251028
-0.292872
0.0421548
-0.108944
-0.21289
0.170022
-0.0283234
-0.0754635
-0.333902
-0.282027
-0.292226
0.0154057
-0.100865
0.0854598
0.0287046
0.143285
0.0565898
-0.0624069
-0.102861
-0.52861
0.0571942
0.000909422
-0.109368
0.0484279
0.207959
-0.232224
-0.16927
-0.147182
-0.434197
-0.00368294
0.43788
-0.100242
0.11051
0.0792266
-0.21761
0.138384
0.00987734
-0.147573
0.239049
-0.0914754
0.0123876
-0.0482664
0.0313301
-0.320489
0.595718
-0.275229
0.0555312
0.0229348
-0.0784661
-0.403059
0.204539
0.385648
0.0768266
-0.462474
-0.104261
0.316588
-0.0644385
0.0131292
-0.111645
0.0341284
0.073654
-0.10816
0.0345057
0.212639
-0.0363734
-0.176266
0.0180785
0.196503
-0.214581
-0.00660913
-0.13091
0.103425
-0.0530231
0.282834
0.257841
-0.540675
-0.14541
-0.0245477
0.169958
-0.0116999
0.0508894
-0.0391895
-0.0428587
0.00324867
-0.00921432
0.0781481
-0.0689338
-0.0607463
0.0490464
0.649545
-0.378333
-0.271212
-0.0249394
0.193588
-0.168648
-0.035392
-0.00595145
0.0413434
-0.644197
0.232787
-0.100951
0.0456517
0.0552995
0.0163582
-0.362704
0.298868
0.0638357
-0.257047
0.175931
0.166527
0.0180992
-0.0410249
0.0056329
0.171062
-0.651184
0.0292582
0.145233
-0.174492
-0.108367
0.106961
0.00140575
-0.056021
-0.013642
0.069663
-0.540882
0.4843
-0.269415
-0.214885
-0.00956782
0.109519
-0.0999508
0.447079
-0.262677
-0.184402
0.114814
-0.1218
0.00698646
0.0501002
-0.0453868
-0.00471337
-0.0217506
0.116507
-0.498708
0.241473
0.0499239
-0.0352172
-0.0147067
-0.0850862
0.0226435
0.0624426
-0.0964583
0.0249464
0.271081
0.175998
0.0608468
0.0184538
-0.0793007
-0.00159381
0.116408
-0.0394601
0.0467613
-0.00730126
0.144265
0.202366
-0.57414
-0.301186
-0.197521
-0.0727982
-0.151741
-0.48253
0.264062
-0.00334724
0.0924017
0.150908
0.105433
0.0682992
-0.0498982
-0.018401
0.290037
-0.450931
0.160894
0.0236338
-0.113731
0.0900967
-0.0418702
0.00241017
0.359677
-0.169566
-0.190111
0.433238
-0.210473
-0.0854075
0.0761932
-0.0169629
-0.0407948
0.0577577
-0.0843828
0.107744
-0.0233616
0.044303
-0.0586711
0.014368
-0.293075
-0.241169
0.534244
-0.27644
-0.272905
-0.0491216
0.0228648
-0.327356
-0.34109
0.366057
-0.61802
0.251962
0.118919
-0.311022
0.192103
-0.0414351
0.00740023
-0.0648353
-0.0468096
-0.0545287
0.0669358
-0.0124071
-0.332828
0.224403
0.0639689
-0.0845429
0.0844557
-0.02303
0.080014
-0.514211
-0.00437664
0.114486
-0.0280642
0.101718
0.44576
-0.155723
-0.17714
0.459974
-0.204334
0.0181432
-0.00690247
-0.101465
0.0421682
-0.0962236
0.0540554
-0.173922
-0.0304118
0.0551647
0.0131345
0.178671
-0.349855
0.171183
0.0615348
-0.00102799
-0.360576
0.26561
0.0949668
0.0276303
-0.0947272
0.0621373
-0.0299577
0.223979
-0.464034
0.0739174
-0.149501
0.144847
0.00465474
-0.345046
-0.299151
-0.140928
0.00545522
0.135473
0.088201
-0.0460328
-0.234059
-0.128645
-0.367519
0.173493
0.194026
0.323071
-0.19791
-0.125161
0.326949
0.138629
-0.465578
-0.155105
-0.213252
0.23133
0.0423413
0.0263649
-0.0190428
0.158981
-0.065263
-0.0198231
-0.506873
0.232809
-0.014433
-0.0709745
0.0853811
-0.0511753
0.0023756
-0.0793512
0.102985
-0.0117227
-0.0561433
0.0678661
-0.0308893
0.0595477
-0.0286584
0.292583
0.304431
-0.0254153
-0.0312808
0.0566961
-0.23035
0.212708
0.0176427
0.361493
-0.20007
-0.202384
-0.170438
-0.195143
0.170204
-0.497264
0.297705
-0.0642432
0.193248
-0.0374702
-0.00440787
0.0370705
0.0128534
0.0400358
-0.0384801
0.157269
-0.125588
-0.385734
0.31027
-0.181467
-0.0409636
0.222431
0.314205
-0.193886
-0.120319
-0.00075946
0.159256
0.0279163
0.0519558
-0.0798721
-0.453004
0.168573
-0.121656
0.112089
-0.0640475
0.0826422
0.0397289
-0.0418304
0.00210148
0.372277
0.257293
-0.62957
-0.213299
-0.24008
0.453379
0.317819
-0.484324
0.166505
-0.478521
-0.207954
0.386625
0.397379
0.0493455
-0.0830499
0.0337044
0.603687
-0.333059
-0.270628
0.0191111
-0.218141
0.486936
-0.268795
-0.0168583
0.0671686
-0.0503104
-0.0150162
-0.0454064
-0.0272464
-0.187663
0.207511
-0.0198487
0.0665645
-0.0578543
0.0178672
0.212642
0.162676
0.0101217
-0.46457
0.246429
0.157043
-0.1353
-0.0217432
-0.10369
-0.109408
0.213098
0.0131736
-0.0581413
0.0449677
-0.0226372
0.0669403
0.0356274
-0.0418138
0.00618639
-0.0657467
0.12108
0.311157
-0.186604
-0.124554
-0.0441708
0.158358
-0.556746
0.0109443
0.545802
-0.0222598
0.403775
-0.0634057
0.035095
0.0283108
-0.0207584
0.108979
-0.111503
0.0347105
-0.0906225
0.154958
0.026016
-0.372431
-0.125754
0.498185
-0.135995
-0.00493261
-0.375745
0.17336
0.0709031
0.0455699
-0.116473
-0.170803
0.0129538
0.157849
-0.171562
-0.0327507
-0.0083798
-0.131221
0.123957
0.00726397
0.233516
-0.526591
0.0075417
0.282617
0.069668
-0.135891
0.126539
0.00935242
0.478146
0.196597
0.0608968
0.0434332
-0.159217
-0.00782395
0.0475529
-0.0561936
0.0732223
-0.0170287
-0.203422
0.145914
0.0575077
-0.167594
-0.192982
0.130477
0.183728
0.59619
-0.336704
-0.259486
0.209823
0.317072
-0.526895
-0.020068
0.069161
-0.261391
0.19223
0.158285
0.039992
-0.221459
0.251144
0.157659
-0.141828
-0.0158317
-0.052273
-0.0865487
0.0721158
0.0989177
0.00764905
-0.106567
0.0077315
-0.180337
0.400305
-0.219968
-0.0560131
-0.147409
-0.592153
0.223265
0.368888
0.0964347
0.0758989
-0.00059949
-0.0368708
0.144355
0.692523
-0.327663
-0.364859
-0.0230044
-0.112887
0.0779241
0.0240252
-0.101949
-0.0521569
-0.0254648
0.0776218
-0.12374
-0.00748012
0.127439
-0.231129
-0.0536463
-0.0134307
-0.097092
-0.0249164
0.122008
0.539085
-0.0882134
-0.199978
-0.077524
0.23863
-0.161106
0.222473
-0.410694
0.188221
-0.0748507
0.0242179
0.00814058
0.0122963
-0.0684898
-0.0913247
0.00591261
0.0845559
-0.0213451
-0.169255
-0.00813556
0.177391
0.0403129
-0.169852
0.195089
-0.0252364
-0.0560943
-0.013606
0.0697003
-0.0238826
0.0598094
-0.55544
-0.000717476
0.556157
-0.015881
0.152056
-0.22958
0.018132
0.245115
-0.0834486
-0.00898564
0.0498312
-0.0408456
0.23959
-0.0515699
-0.18802
-0.317366
0.60995
0.201382
0.130302
-0.0853721
-0.0473776
-0.0729757
0.0201298
0.0115992
-0.490923
0.261323
0.2296
-0.0268186
0.18025
-0.0252919
-0.118361
-0.00948939
-0.00818847
-0.0332466
-0.251622
-0.109477
0.361099
0.22776
-0.285858
-0.0638359
-0.01727
-0.160476
-0.127611
-0.265834
0.169019
-0.427069
-0.106762
0.00275638
-0.421158
0.187497
0.233661
-0.00713386
0.0436382
-0.0365043
-0.0231982
-0.0349997
0.0287209
-0.141653
0.112932
-0.0231201
0.0786513
0.0213988
0.235422
-0.174033
-0.0613897
-0.0537257
-0.0600679
0.113794
0.361344
0.0378339
-0.399178
-0.0564321
0.146379
0.0337623
-0.0785808
0.0448185
0.56142
-0.302222
-0.259198
-0.0265926
-0.0432058
0.0697985
0.585063
-0.261838
-0.181817
0.0180948
-0.565845
0.180111
0.0312055
-0.0348139
0.101948
0.0116095
-0.113557
0.0255948
0.0517176
-0.0773124
-0.0248853
0.0639736
-0.0390883
0.217797
-0.397679
0.179883
-0.0439858
0.117751
-0.0468482
0.0430086
-0.0684239
-0.159713
-0.304856
0.0433071
-0.00767967
-0.0553131
0.082786
-0.599568
0.227137
0.0176742
-0.136035
-0.0691016
0.0506553
0.0184463
0.0284645
-0.0980251
-0.374365
-0.187618
-0.404535
-0.159035
-0.0796816
-0.00844858
-0.167712
-0.0100722
-0.0117733
-0.137976
0.14975
0.0973797
-0.11477
0.0173902
0.366821
-0.144348
-0.377284
0.203035
0.174249
-0.010328
0.167427
-0.38413
-0.0308732
0.0883782
0.27066
-0.189368
-0.0812914
-0.307536
0.549657
-0.242121
0.570905
-0.230743
-0.340162
0.409769
-0.191972
0.410305
-0.194901
-0.215404
0.0530954
-0.0935745
-0.240564
-0.266309
0.0254519
0.078242
-0.103694
-0.203233
0.399994
-0.196762
-0.144218
-0.193534
-0.270653
-0.295192
0.0341494
0.0208811
0.377239
-0.458104
0.0808644
-0.0178355
0.112042
-0.177282
-0.190237
0.0281655
0.0104251
-0.116636
-0.00819109
0.124827
-0.0478528
0.00246601
-0.239926
0.34537
-0.105445
-0.0635205
0.0801071
0.0726689
-0.0497341
0.250384
-0.181223
-0.0533111
0.0425122
-0.0110631
-0.212856
-0.0146954
0.154116
-0.13942
-0.014461
-0.0577884
0.0722494
0.0970009
0.00430058
-0.101301
-0.0473466
0.0605202
0.0708392
-0.0786582
0.00781895
-0.00901868
-0.0295719
-0.569991
0.249502
-0.19356
0.0243047
-0.357438
0.155251
0.202187
-0.0992806
-0.00750506
-0.0572736
-0.0436777
0.226324
0.263026
-0.48935
0.113248
-0.314464
-0.285104
0.154862
-0.00899137
-0.145871
-0.245997
0.150408
0.0955883
-0.37911
0.128206
0.0564058
-0.0275317
0.073224
0.0354019
-0.0586001
-0.0192464
0.171538
-0.152292
-0.0446254
-0.0065499
-0.129068
0.0436956
-0.114179
0.0756171
0.0385614
-0.0208789
0.0885239
0.101745
-0.0238207
0.279649
0.03215
-0.619295
0.215973
-0.114016
-0.00265026
-0.0310214
0.0987471
-0.153971
-0.214857
0.368828
-0.0694804
0.0526221
0.207507
0.0260204
0.162684
-0.12206
-0.159331
0.158245
-0.137228
-0.0210174
-0.041282
-0.0190397
0.0603216
-0.0218076
0.0799321
-0.0610651
-0.0218839
0.082949
-0.0360048
-0.0306923
0.0666971
-0.0717648
0.0174153
-0.0157305
0.0626985
-0.046968
0.215712
-0.0313708
-0.184341
-0.0822554
0.025369
0.0568865
-0.501605
0.269777
0.231827
0.0132895
-0.56294
0.327391
0.235549
-0.0328498
-0.131548
-0.149004
0.00489744
0.0293994
0.194593
0.215712
0.047518
-0.29914
0.0356523
-0.151477
0.115825
-0.00510411
0.0281286
-0.101363
0.10105
-0.040153
0.0802531
-0.0442142
-0.0360389
0.346382
-0.141332
-0.20505
0.584951
-0.303544
-0.303687
-0.134869
-0.100769
0.235638
0.0269401
-0.0453069
-0.0511399
0.0964467
-0.141363
-0.104634
0.0229395
0.216651
-0.203086
-0.197224
0.155743
0.041481
-0.260958
-0.240646
0.0553611
0.0864685
-0.14183
-0.0604304
0.0719946
-0.0115643
-0.176846
-0.0328531
0.0593607
-0.0170194
0.0410747
0.159292
-0.200366
-0.000223464
-0.429137
0.429361
-0.0918044
0.0586837
0.0331207
-0.0175067
0.311493
-0.293986
-0.0326883
-0.279883
-0.311298
-0.176473
0.143623
-0.436458
0.215533
0.220925
-0.221216
0.0736429
-0.0371815
0.0788373
-0.0416558
0.411652
-0.198021
-0.213632
0.132188
-0.0193253
-0.112862
-0.0845342
0.120186
0.267562
-0.488029
0.220467
-0.181771
-0.213012
0.394783
-0.383168
0.149109
-0.0537607
-0.0115373
-0.108883
-0.0490507
0.0665829
-0.243236
0.176653
-0.117372
0.122904
-0.00553276
-0.0115456
-0.12295
-0.145312
-0.351952
0.242092
0.0047979
0.150064
-0.0289778
-0.139514
-0.056352
0.0350421
-0.0192985
0.132916
-0.0971035
0.392422
-0.190251
-0.202172
0.00398059
0.0761597
-0.0801403
0.310243
0.165048
-0.475291
-0.153323
0.166218
-0.0128957
-0.0330919
0.178469
0.254192
-0.228382
0.395809
-0.0108899
0.111874
0.192201
0.0480278
0.228617
-0.107761
0.0686159
0.0391453
-0.197817
-0.185351
0.0767135
0.0562025
-0.0100376
-0.0409128
0.0509504
0.00137755
0.046439
-0.0478165
-0.215803
-0.0134681
0.229271
0.210061
-0.227037
0.293481
-0.0389261
-0.164029
0.202955
0.0156975
-0.0717185
-0.196968
-0.207791
0.0237355
0.164411
0.142675
-0.285636
0.163576
0.0783166
-0.0204209
0.00894965
-0.15521
0.14626
0.378596
-0.182769
-0.195827
0.0576532
-0.0804429
-0.284124
-0.206799
-0.0520963
0.021207
-0.106172
0.0522677
0.053904
-0.100483
0.255899
-0.227702
0.171689
-0.059572
0.0505864
0.121532
-0.256401
-0.0548249
-0.0593536
-0.286421
-0.276519
0.0494646
0.0616248
-0.111089
0.111335
-0.0124175
0.00223336
0.0951463
-0.0539272
-0.0291227
0.0621488
-0.111459
0.04931
-0.391892
0.237921
0.202855
0.236364
-0.439219
-0.0103664
0.152387
-0.14202
-0.466555
0.375838
-0.253431
0.0376275
0.120298
-0.159224
-0.0376218
-0.025784
-0.0632517
-0.0253199
0.0885716
0.126283
0.00590419
-0.13175
-0.198898
0.330648
0.0359029
-0.0357892
-0.000113667
0.62844
-0.282236
-0.346204
0.304747
0.248625
-0.553373
-0.0658718
-0.228737
-0.0166326
-0.128355
-0.214693
0.201088
-0.247087
-0.174071
0.458287
-0.27124
-0.187047
-0.0529859
0.0573954
-0.21643
-0.00541183
0.104515
-0.0991028
0.221773
-0.191208
-0.145984
0.046873
-0.0638359
-0.0138986
-0.129232
0.14313
0.0435218
-0.0106772
-0.0328446
0.0524149
0.0278382
-0.0711431
0.0251763
0.0206895
-0.59776
0.281074
-0.22313
0.0424651
0.180665
0.44925
-0.542848
0.0935974
0.0131846
-0.166507
0.518438
-0.308615
-0.0327761
-0.0749851
-0.017111
-0.0666933
-0.281984
0.573807
-0.291823
0.0556065
-0.109332
-0.0560443
-0.0201333
0.183756
-0.163622
-0.0301345
-0.0277601
0.0687245
-0.327523
0.183305
-0.0708206
-0.445171
0.236455
0.208716
0.103074
-0.13915
0.0360762
0.0479956
-0.0167901
-0.125005
-0.0477071
0.268187
0.214632
-0.0619578
0.208405
-0.146448
-0.178735
-0.0443948
0.40002
0.22842
-0.393467
0.564529
-0.073265
0.0128346
-0.0481985
0.0129813
0.0471375
-0.189622
0.142485
-0.385004
0.194451
0.215318
-0.0196721
0.329915
0.205915
-0.368679
0.108767
-0.0449316
-0.0638356
0.333934
-0.169523
0.0326144
0.025199
0.142375
0.0158705
0.0537048
0.0714671
-0.0481568
-0.0233103
-0.278669
-0.195564
0.145681
-0.181695
0.0360144
-0.243357
-0.0634395
0.306796
0.270617
-0.303051
-0.0213518
0.0619208
-0.0405691
0.0494888
-0.0481113
-0.0273835
0.130457
0.0276384
0.0697317
-0.0973701
0.0706139
-0.115921
0.0417453
-0.00801669
-0.0337286
-0.0849429
0.402761
0.132648
-0.0772872
-0.356189
-0.0458897
-0.023212
0.197183
-0.184229
-0.126494
-0.0869386
0.0660597
-0.111732
-0.0213938
-0.0172722
-0.0410401
-0.282675
0.122199
-0.0364819
0.097236
0.258597
-0.013168
-0.0401437
0.0533117
0.0710962
-0.00159531
0.272213
-0.0411025
0.0138664
-0.174344
0.166968
-0.315337
0.148369
-0.0141585
0.0822294
-0.0814231
0.0181714
-0.203792
0.106103
-0.0566379
-0.257039
0.445567
0.377016
-0.119161
0.0984026
-0.0329072
-0.0588972
-0.090732
-0.0266125
-0.0170022
-0.0463793
0.0633815
-0.0545822
-0.0515896
-0.0395234
-0.268406
0.307929
0.0313988
-0.0345766
0.00317779
-0.0527057
-0.177645
-0.190287
-0.237201
0.427488
-0.0800349
0.0582274
0.0812996
-0.0423253
-0.0389742
0.0433994
-0.258093
0.101527
-0.341453
-0.0270946
0.0605025
-0.0334079
0.154988
-0.0308365
-0.124151
0.333628
-0.306859
-0.0267691
-0.227062
-0.301547
-0.111128
0.118777
-0.0211694
0.15049
0.169014
-0.121876
-0.0401775
-0.0230138
0.194074
-0.587541
0.250816
0.188128
0.0825313
0.0450028
0.134796
-0.179799
-0.269671
-0.224192
0.493863
0.0554276
-0.0671504
0.519848
-0.15379
-0.169049
0.149803
0.269822
-0.287328
0.035939
-0.205204
0.169265
-0.0554344
-0.0413996