/*--------------------------------*- C++ -*----------------------------------*\
| =========                 |                                                 |
| \\      /  F ield         | OpenFOAM: The Open Source CFD Toolbox           |
|  \\    /   O peration     | Version:  v2012                                 |
|   \\  /    A nd           | Website:  www.openfoam.com                      |
|    \\/     M anipulation  |                                                 |
\*---------------------------------------------------------------------------*/
FoamFile
{
    version     2.0;
    format      ascii;
    class       volScalarField;
    location    "350";
    object      ddt0(k);
}
// * * * * * * * * * * * * * * * * * * * * * * * * * * * * * * * * * * * * * //

dimensions      [0 2 -3 0 0 0 0];


internalField   nonuniform List<scalar> 
13308
(
1.03107e-07
-1.84665e-08
-1.66001e-05
4.09997e-08
-2.14135e-08
9.93615e-10
5.2893e-08
-3.81175e-07
7.06408e-09
-3.23824e-08
-1.9394e-09
-3.91986e-06
3.15173e-05
3.36832e-08
-5.19633e-08
-1.82001e-08
-2.31786e-09
-2.92206e-09
7.38755e-08
-4.3304e-08
4.44676e-08
4.17419e-08
1.90234e-08
5.47292e-05
-1.27698e-05
-1.16858e-08
-2.02282e-05
3.71642e-08
-1.48772e-05
-1.22651e-08
2.4307e-05
-1.9224e-05
6.71628e-05
1.94453e-05
8.99613e-08
2.54626e-11
1.84115e-08
-1.6972e-08
-1.73792e-08
1.56352e-08
1.57472e-08
1.5691e-08
5.61728e-07
-3.43207e-09
-8.06809e-06
-1.57353e-05
4.12438e-08
-3.41687e-08
2.89746e-08
-6.51384e-09
1.10102e-05
-3.34367e-08
-1.7471e-08
-1.44836e-05
-6.14588e-09
8.5326e-09
5.31993e-08
-1.09732e-08
1.98433e-08
-2.88193e-08
2.31945e-08
-1.66901e-08
-2.88469e-08
1.67008e-08
-3.69522e-08
1.99783e-08
-2.78137e-08
-2.78326e-06
-2.10313e-05
-1.79742e-09
2.91178e-09
-4.01802e-08
-1.47432e-08
-3.85968e-08
3.36471e-09
6.23779e-08
1.81614e-05
4.14398e-08
7.00883e-05
-5.83277e-08
-1.92707e-08
-5.36138e-08
5.85654e-09
-3.30302e-08
-9.77344e-06
-2.39133e-09
3.93287e-08
-2.13704e-08
-4.00568e-09
1.1395e-08
1.75939e-08
1.8934e-06
3.62813e-08
-2.54381e-07
-3.24308e-08
2.72485e-08
-2.0644e-08
5.2509e-07
-7.54827e-09
-1.57579e-08
-3.68492e-08
-1.12295e-07
4.40937e-08
1.91671e-08
-1.11791e-07
-1.68474e-08
1.84338e-06
-2.46243e-08
-4.19675e-08
3.2659e-05
-5.26192e-08
-1.77106e-05
1.57071e-08
6.32597e-05
-3.26082e-08
6.52693e-05
-1.50838e-08
-1.91972e-09
-6.96838e-08
-5.44498e-08
-3.0501e-08
5.3995e-08
1.14079e-08
-1.88384e-10
-4.84552e-07
2.50757e-08
-9.17618e-07
-1.106e-07
1.32891e-07
3.58336e-05
-3.62288e-06
-2.82498e-08
-1.12048e-08
6.06669e-08
-2.99724e-08
-2.276e-09
3.79805e-08
4.37291e-08
3.50147e-05
7.78306e-09
1.47284e-05
1.5159e-05
2.55132e-05
2.54699e-10
-2.27064e-06
-7.70185e-07
1.77657e-08
1.3069e-08
3.85035e-08
1.26034e-05
4.02046e-05
-3.06152e-08
-4.25245e-08
-2.66171e-08
-2.42578e-08
1.71726e-08
5.11014e-09
3.51732e-08
-2.75068e-06
1.96838e-05
-1.80532e-08
-1.92915e-06
5.57804e-10
-3.27038e-08
-1.04664e-08
3.53085e-06
2.06446e-08
1.02762e-05
-7.09675e-06
1.30492e-07
-4.33936e-06
-2.65254e-08
-3.30793e-05
3.06625e-05
-2.32309e-10
4.0281e-09
-3.84244e-08
4.2615e-07
5.52789e-08
-4.17314e-08
-5.08766e-08
-7.42878e-08
3.11035e-08
-2.99225e-05
1.0131e-09
-1.43357e-08
8.2138e-09
1.04156e-08
-3.06288e-09
-1.75203e-10
-3.16162e-08
-3.20457e-08
-3.9874e-06
4.1515e-05
6.39581e-07
-3.29877e-06
4.57506e-08
-4.43661e-08
-3.45584e-08
-2.6909e-06
3.15599e-05
1.40289e-08
-2.04436e-08
1.42998e-08
3.92085e-08
-9.39842e-07
3.48269e-08
3.779e-08
-4.25994e-08
-5.48169e-08
-1.82573e-08
5.46076e-05
7.49543e-09
1.01567e-05
-1.72671e-08
-6.12432e-08
-1.75671e-08
1.03972e-05
1.33629e-08
-1.03708e-08
-2.18832e-08
6.5104e-08
8.08634e-08
-2.02189e-08
-4.59791e-08
1.55419e-05
1.74055e-08
3.85926e-08
-4.9108e-05
-2.95906e-08
-5.11468e-08
-4.61248e-08
1.05534e-08
-3.20854e-08
-1.0673e-08
8.07341e-08
-1.01294e-08
7.2358e-10
-3.42561e-08
6.25619e-08
-6.87349e-08
4.4472e-08
4.15206e-08
-2.22618e-07
1.66633e-07
-1.13354e-08
3.17777e-05
-5.99578e-08
-3.11619e-10
-7.82194e-10
3.78353e-08
-6.93539e-08
-1.29787e-06
1.66762e-08
-2.74216e-11
-2.43384e-08
-2.62193e-08
9.0012e-08
-4.39007e-08
-4.29959e-09
8.72653e-10
-1.80633e-08
-2.7771e-08
4.93189e-08
1.83156e-05
4.2812e-08
3.41545e-05
-6.02837e-08
6.09891e-05
-2.3044e-08
4.12108e-09
-3.13342e-08
1.47008e-08
-5.94377e-09
-2.11245e-06
-5.8277e-06
1.20686e-09
-2.48547e-08
2.62094e-07
3.52457e-08
-7.75753e-09
-3.9723e-08
1.86161e-07
4.41715e-08
8.22067e-08
3.91213e-08
-3.20326e-08
-1.15903e-07
2.11458e-08
-1.38327e-08
-2.72638e-05
4.51329e-07
4.96901e-05
1.78467e-05
-2.92458e-08
4.62466e-09
-4.84413e-08
4.79606e-09
-1.29121e-05
-4.02096e-08
4.91469e-06
-3.91729e-08
4.07116e-08
2.44079e-08
-3.961e-08
-1.81017e-08
-1.13252e-08
-4.78149e-09
1.19483e-08
4.65337e-08
-2.96497e-08
-3.66998e-08
1.34653e-05
2.80514e-08
-1.38426e-06
1.19154e-05
-8.15263e-06
-3.91515e-08
-3.45216e-06
-2.27204e-10
7.78512e-09
-5.13903e-08
-2.50476e-08
2.76599e-08
-2.36195e-08
-2.7208e-08
-4.29524e-10
8.48189e-08
-2.18414e-08
-3.21351e-08
8.03517e-07
-5.38399e-06
5.00653e-08
-3.2516e-08
2.46183e-08
5.12755e-06
-2.37374e-07
-1.59413e-08
4.95039e-08
-4.76833e-08
3.45663e-05
3.13042e-08
-1.3892e-08
1.99992e-08
-2.82403e-08
-5.35279e-08
-6.06383e-08
-1.60092e-08
3.49758e-08
-0.00024365
-3.77094e-08
1.05303e-07
-3.10891e-08
2.73761e-08
-7.28987e-08
-3.30481e-08
-6.39548e-09
5.65937e-06
-1.24805e-05
8.7869e-08
-5.47084e-09
-3.95628e-08
-5.92543e-06
3.23165e-08
9.06789e-06
-4.81932e-08
2.47644e-07
-2.11502e-06
3.95907e-08
8.102e-11
1.32107e-06
3.18592e-06
4.03655e-07
4.48926e-07
-3.59095e-08
-4.79035e-09
2.635e-06
1.56084e-08
3.09343e-06
3.48938e-08
1.01476e-08
-4.88045e-08
-2.09482e-07
-2.49874e-07
-2.47913e-07
3.39455e-08
4.78683e-08
4.11269e-08
5.42752e-08
3.9762e-05
9.73841e-06
2.46288e-09
-1.28829e-08
-2.50344e-05
1.35305e-08
-2.83785e-07
-1.4879e-07
9.88233e-10
-2.13712e-06
1.54568e-05
8.09809e-08
-4.19953e-08
7.31239e-09
-4.52422e-08
1.05073e-09
-7.26117e-09
6.41911e-09
1.46216e-09
1.39954e-05
4.77707e-08
2.18685e-06
-2.30859e-06
-1.30364e-05
-1.03561e-08
4.00628e-05
-4.1449e-08
4.4431e-08
1.87035e-07
-3.98339e-08
-6.35525e-08
5.01384e-08
-2.29562e-08
6.13021e-08
2.24431e-08
-4.78245e-05
-7.21285e-09
-1.62269e-08
5.13631e-05
-2.7153e-05
7.24069e-05
3.03828e-08
4.4078e-05
-5.8816e-06
-4.61219e-08
-1.83039e-08
5.64406e-08
-7.07671e-09
3.87582e-09
-4.84992e-08
7.96836e-09
1.63619e-08
-2.69005e-08
-4.85513e-08
-4.34701e-09
-2.3053e-08
1.57562e-05
-1.40613e-06
2.28861e-08
7.95725e-08
-2.66614e-06
5.96028e-07
4.26715e-08
4.07436e-08
-3.85306e-08
-3.89486e-08
-9.11724e-06
-5.00544e-09
-2.86255e-08
-3.90133e-06
1.84808e-06
-1.89439e-08
4.58282e-08
7.25029e-08
1.44235e-08
-3.60881e-08
-3.73716e-08
4.7476e-08
-6.86632e-05
-3.78072e-08
-2.98762e-08
-2.58972e-08
6.07191e-09
6.39251e-08
1.10816e-07
1.49517e-08
-2.96592e-08
-3.31597e-08
3.84682e-08
1.30882e-08
3.976e-09
-1.47737e-08
-3.20926e-08
-7.76169e-09
-4.28707e-11
-2.68533e-08
-2.8231e-05
-5.88523e-08
4.57984e-06
4.50237e-08
-3.24684e-08
-2.31179e-08
-2.77082e-05
6.07343e-08
6.15341e-08
-4.48112e-08
7.80555e-08
6.077e-07
3.08216e-08
-2.00335e-10
2.65761e-08
1.74832e-09
-2.95498e-06
2.53654e-08
-2.70795e-05
4.92211e-08
-4.48824e-06
-1.09741e-07
3.57355e-06
-1.85611e-08
4.313e-06
-1.33648e-08
-1.60232e-05
4.95311e-05
-1.13073e-07
-4.18853e-08
-0.000353753
1.21767e-05
-5.11365e-08
4.46774e-08
-1.29334e-08
9.14542e-08
6.7125e-06
-2.20373e-09
4.79679e-06
-2.52963e-06
-7.08504e-05
2.90815e-07
-4.78062e-08
2.01557e-05
7.83033e-08
-4.04307e-08
1.17421e-08
4.25572e-05
3.40316e-08
-3.9834e-10
-1.0852e-08
-2.25577e-09
-3.32226e-08
8.43679e-07
-4.46634e-08
-9.82979e-07
1.0788e-05
-3.98585e-05
-4.08156e-09
8.11892e-08
2.71458e-08
-3.62609e-08
-2.76769e-05
3.67736e-05
4.4814e-07
-2.76051e-08
5.41925e-08
1.12209e-06
-2.5966e-08
1.28538e-07
9.79082e-11
4.39786e-08
8.49864e-08
4.35053e-06
-2.68865e-09
6.00084e-08
3.03546e-08
8.01606e-08
4.33516e-09
-8.15972e-08
3.75843e-08
3.23399e-07
1.05053e-07
1.26322e-08
7.73914e-10
5.16918e-05
8.52313e-08
1.61175e-08
-8.63866e-06
-3.32613e-08
-8.60366e-06
-1.87454e-08
1.04749e-07
9.73382e-08
-5.50945e-08
-3.76254e-09
-3.11339e-08
-3.21779e-08
-3.23877e-08
8.47049e-08
-2.40366e-08
-2.45977e-08
3.03093e-08
-1.34319e-07
1.1907e-07
-1.31199e-08
-1.0545e-08
2.62194e-08
4.75302e-07
1.60618e-08
-2.87361e-08
2.08379e-08
8.70329e-08
-3.85704e-08
2.113e-05
4.69786e-05
1.80552e-08
1.87318e-08
5.37414e-09
2.23318e-09
-2.37341e-08
-2.68449e-05
-4.10804e-08
2.66817e-07
-6.20932e-08
5.60162e-08
7.22633e-08
-3.10899e-08
6.01187e-05
-2.73385e-08
3.52394e-05
-4.06879e-08
-2.45676e-08
-0.000188363
-5.13772e-06
-0.000226892
-2.95666e-08
9.00264e-08
7.25119e-05
-5.59172e-06
-1.84062e-08
-7.47402e-06
1.24374e-07
3.36206e-07
3.98315e-08
2.52913e-05
5.84599e-09
2.4246e-08
9.63703e-08
-9.43749e-08
1.99195e-08
3.01154e-08
-9.6436e-09
-1.33014e-08
3.99509e-05
-6.57445e-05
1.38463e-05
6.33578e-08
-3.84389e-08
2.51142e-08
-4.14228e-08
-5.17182e-08
1.51243e-09
-4.66916e-08
2.44287e-08
-3.01042e-06
4.62628e-09
4.85695e-05
3.93203e-09
-2.56476e-05
-3.14598e-08
-3.7497e-08
6.77608e-09
-3.34162e-08
4.40771e-08
-3.49837e-08
-4.03914e-08
-4.14504e-08
-1.74161e-05
8.26292e-08
1.82205e-08
-5.24078e-07
-4.83158e-08
8.05419e-08
5.76366e-09
4.85231e-05
-6.5327e-08
1.80109e-08
1.60832e-08
-1.46593e-08
-3.1039e-08
4.15444e-08
4.87166e-08
4.24965e-08
9.71062e-06
1.1964e-05
2.37311e-08
9.79881e-06
-9.2735e-10
-6.04074e-08
-9.90813e-07
-2.78104e-08
-2.34253e-08
-2.95727e-08
6.34671e-08
1.17437e-08
-2.2672e-08
-2.29312e-06
1.52778e-07
6.75223e-08
-2.12437e-08
-1.53271e-05
1.01637e-09
-2.06355e-08
-1.85807e-08
3.71726e-08
2.59176e-09
6.6886e-06
-4.38154e-08
-4.05735e-09
-1.11074e-05
-4.02585e-06
4.88455e-08
3.26506e-08
6.08222e-05
1.55112e-09
4.68062e-06
6.8689e-09
5.69243e-09
-1.30132e-09
1.80466e-08
-2.75556e-08
1.42803e-08
-2.71957e-08
-7.71904e-06
-1.08566e-10
-1.58449e-08
9.54731e-06
1.64224e-08
-8.1836e-09
2.38062e-08
6.14062e-05
3.14826e-07
-3.53501e-07
-4.55218e-08
3.4216e-08
-5.7693e-05
2.65115e-09
-6.82111e-08
-8.40517e-08
3.09182e-06
-6.6547e-08
5.01388e-05
6.39344e-09
1.38587e-07
-1.05138e-07
-8.08069e-09
-2.52274e-08
2.39055e-08
-5.08037e-08
2.22769e-08
-5.7445e-08
-2.87873e-08
-5.11701e-08
-1.13387e-08
-9.23866e-06
2.42481e-08
4.21297e-05
2.26779e-08
7.12173e-07
3.43516e-05
1.14427e-08
5.17154e-05
-1.29003e-08
3.2252e-08
-3.06243e-09
-3.55989e-07
7.27601e-08
-3.81233e-08
-4.3954e-08
1.64695e-07
2.73992e-08
-6.35717e-08
-0.000163679
-3.81348e-08
-2.73329e-06
-2.58583e-08
2.3926e-08
-5.06862e-08
-4.99566e-07
-1.76271e-08
3.86647e-05
1.27565e-05
-4.99134e-09
-1.29423e-05
2.24112e-09
-1.56198e-10
3.41183e-08
-7.51321e-08
6.65033e-09
-9.62623e-10
7.78381e-06
-8.6011e-06
3.24334e-05
-3.81063e-08
-6.99332e-12
6.28122e-08
-6.97244e-09
7.51318e-08
-1.69663e-07
-1.38388e-08
-6.82196e-09
3.41155e-08
-1.75183e-05
-6.24105e-08
6.4347e-08
9.30459e-09
-1.64858e-08
-6.30209e-08
6.77208e-08
-6.83743e-07
6.46703e-08
-4.7971e-08
-4.39176e-08
-2.53399e-05
1.68946e-09
7.35654e-05
7.50032e-09
5.37787e-07
-4.6757e-08
-3.82985e-08
4.04902e-08
1.96583e-08
9.18282e-09
-2.07886e-08
-9.42178e-08
-9.96425e-07
-4.42651e-08
2.58707e-06
4.50076e-08
-6.04839e-08
-1.92742e-08
-1.29161e-08
4.38357e-09
5.32556e-08
-5.62557e-08
-0.00029713
-3.03636e-08
2.26545e-08
-4.06134e-09
-9.00937e-09
9.49857e-09
-2.3368e-09
5.54418e-09
4.88888e-08
6.60549e-08
7.85174e-08
-7.13721e-05
-3.79784e-08
9.28201e-09
-2.64172e-08
4.36797e-08
-2.05266e-08
-6.20169e-09
-1.17575e-08
-1.92474e-08
-1.7461e-05
3.2357e-05
2.15109e-08
3.18716e-08
-2.3722e-08
1.3924e-09
1.28402e-08
-2.1671e-08
-1.82054e-08
-1.71141e-08
4.95851e-08
5.96856e-08
-2.05481e-08
-1.26847e-06
2.51083e-08
-6.29646e-09
4.20909e-05
-4.70643e-08
2.6509e-08
1.12969e-08
1.18469e-08
9.88745e-06
-1.77153e-08
-7.36712e-08
-1.39216e-08
-8.92084e-08
2.42607e-07
-3.47667e-08
-1.30557e-07
4.90466e-05
8.27647e-08
-3.33091e-08
-2.59889e-08
1.86756e-08
6.40823e-08
6.16313e-05
-1.82028e-08
3.97868e-06
3.72291e-05
4.2872e-08
4.25794e-07
9.53214e-10
-2.92426e-05
-6.37521e-08
4.72812e-05
-3.34861e-05
1.6979e-08
-1.28443e-08
3.20191e-08
-6.0201e-08
1.08095e-08
-6.5892e-06
-1.39507e-08
6.60728e-09
-4.78644e-08
4.11518e-09
1.63793e-06
4.82899e-05
-7.52317e-08
-7.06586e-05
7.61447e-09
2.29146e-08
1.96757e-06
-2.95923e-08
7.55592e-09
-4.52083e-06
6.01356e-08
-4.99537e-08
-2.99035e-10
1.99823e-06
-8.99052e-08
-2.63347e-05
-8.39183e-05
-7.19437e-09
-4.39077e-07
-7.40047e-06
2.341e-08
-6.13931e-08
1.5898e-08
-3.45888e-08
6.79158e-07
-5.35255e-08
-1.45987e-05
-2.20873e-08
-1.33289e-08
1.59222e-08
-4.52623e-05
-5.12693e-08
6.00169e-07
2.69453e-05
-1.09509e-08
-3.04998e-06
1.61768e-08
-4.03228e-06
-2.76692e-08
2.2241e-07
-1.70511e-07
4.23381e-08
2.83847e-08
-4.88265e-05
-3.03622e-07
-1.03674e-07
1.434e-08
1.07959e-07
6.28459e-05
-5.86805e-08
2.63115e-08
-4.55884e-08
-6.45408e-08
-6.92158e-08
-2.41098e-08
-9.12112e-08
-1.01073e-07
-1.11661e-08
-1.23827e-08
-3.43609e-08
-9.96951e-08
1.89385e-09
-4.07479e-08
-1.05224e-07
8.50828e-09
1.62187e-08
4.0341e-08
1.13104e-08
2.61882e-06
1.0692e-08
4.30392e-08
2.0708e-08
-1.2334e-05
-1.83459e-08
1.87809e-06
8.88672e-09
4.24004e-08
-2.83017e-06
-3.46075e-08
3.68263e-05
1.48143e-09
-6.79209e-09
3.01524e-05
-2.22871e-09
-5.42896e-07
4.12193e-08
-1.49954e-05
-3.28527e-08
-5.83825e-09
9.15769e-08
-3.89223e-08
-3.1671e-08
2.38766e-08
-3.36523e-08
5.39044e-08
-4.55499e-08
8.19245e-10
-1.10284e-07
-1.61327e-06
-1.34611e-05
-8.33016e-05
-5.72632e-08
1.82162e-06
1.32567e-09
-2.03814e-08
2.85166e-07
-1.78304e-07
-3.81337e-09
-3.50884e-05
-2.41076e-08
-5.14041e-08
-1.07142e-05
-3.22703e-08
2.34059e-08
-2.18588e-05
9.31472e-09
9.78212e-08
5.3233e-09
1.80469e-08
-3.54809e-08
1.49529e-05
1.03777e-07
3.10885e-07
2.89612e-05
-3.42178e-05
-2.98194e-05
-6.55466e-08
1.14945e-05
3.68582e-08
4.77544e-05
-2.04447e-09
-8.71434e-09
-9.8409e-09
5.70822e-07
-3.23441e-08
-2.60715e-09
1.01011e-07
2.20839e-08
-1.7047e-08
-1.16043e-08
6.7641e-09
2.35533e-08
1.24062e-09
2.25677e-09
2.30295e-08
5.16274e-08
-4.41839e-08
1.97922e-08
-1.65541e-08
-7.22213e-08
-3.17887e-08
5.45101e-08
5.64246e-09
1.53175e-05
-7.51969e-08
-0.000123337
4.95679e-09
-1.39246e-08
1.58376e-06
-2.56228e-08
-0.000244576
1.21018e-07
1.01724e-09
-2.75827e-08
-4.82885e-08
5.83764e-07
9.3307e-08
-5.46098e-10
9.57176e-08
9.45503e-08
6.8546e-08
-3.77153e-08
3.79382e-08
-2.9127e-05
2.99818e-08
-3.33411e-08
1.25101e-08
3.01619e-09
-3.59135e-08
1.13744e-08
7.5667e-09
-5.4613e-08
-3.86052e-08
-2.07276e-05
4.15309e-08
-9.57523e-09
-6.84667e-08
9.27773e-07
3.90835e-08
2.08185e-08
7.63476e-06
1.85848e-08
1.34326e-08
-1.12819e-07
-2.51887e-08
-3.46451e-08
-2.01541e-08
3.14404e-08
-1.06224e-08
2.89689e-05
-0.000142224
-4.06505e-08
5.81692e-08
2.88341e-08
-1.42392e-08
-1.79146e-05
3.64368e-08
-6.66146e-08
3.46038e-08
5.36428e-08
2.78163e-07
7.60551e-10
5.79982e-08
3.55891e-07
-6.35514e-08
1.0247e-05
-1.81947e-07
3.66952e-08
7.41843e-08
2.5225e-06
3.88259e-09
-1.96848e-08
-2.06806e-08
-1.04959e-07
-2.37086e-09
-3.76976e-08
-2.64112e-06
-1.72422e-07
3.77661e-08
-4.30315e-08
-1.44287e-08
-3.20736e-07
-2.1205e-08
-2.59365e-08
-0.000293712
8.55294e-09
3.35273e-09
-3.99424e-10
-1.3744e-05
4.99946e-09
2.82464e-08
-3.92904e-08
3.58843e-08
-3.62068e-09
-5.02266e-08
-2.03486e-08
6.75644e-07
1.23079e-07
8.13162e-09
-3.5068e-08
-6.24352e-08
6.05637e-05
-2.24195e-10
-2.13436e-05
7.06361e-07
2.25599e-08
7.22113e-06
1.95291e-08
5.56674e-08
3.64737e-09
3.78737e-08
-2.35031e-08
-2.02435e-08
1.95536e-06
-1.64768e-08
-7.6678e-08
-3.04338e-08
2.10264e-08
-1.25371e-05
6.27834e-07
8.63989e-08
4.3725e-08
-1.72514e-08
-2.2481e-08
-4.33514e-05
-1.76951e-08
1.34191e-08
7.70371e-09
5.49015e-08
5.36694e-08
1.25081e-09
8.73172e-08
1.47037e-05
-1.41396e-05
-2.51493e-08
8.82996e-08
-9.55954e-08
-1.43136e-08
-2.65935e-09
4.60938e-07
2.59115e-08
6.39896e-06
-3.49205e-08
-2.72507e-06
5.54436e-05
-1.39691e-07
-1.30195e-08
1.09557e-08
2.02082e-08
1.97017e-05
-7.46026e-05
-2.42967e-08
3.25218e-08
-4.22295e-08
-1.74602e-05
1.91291e-08
-9.9804e-10
2.32374e-08
-4.37065e-05
4.18145e-08
2.80337e-08
1.6687e-07
4.96825e-08
-3.43713e-05
1.09322e-08
5.49482e-08
7.29812e-09
-2.05439e-06
2.02705e-06
1.19499e-08
5.24919e-05
4.87865e-08
1.08771e-07
1.3942e-06
7.94607e-09
-2.03491e-08
-1.07164e-07
1.45775e-08
-2.36975e-08
1.68794e-08
-2.58422e-08
1.4953e-06
-1.10336e-08
1.55363e-05
-1.75511e-07
2.79607e-08
5.94964e-06
-9.65539e-10
-2.51691e-08
2.5398e-07
5.50085e-07
8.91636e-09
4.63766e-08
-0.000230423
6.89039e-09
1.03349e-08
1.35453e-08
-1.3564e-08
-2.27565e-08
-3.73229e-08
2.79041e-05
-4.81857e-08
-3.87582e-08
-1.4197e-08
-1.94983e-08
-5.96788e-08
3.82296e-05
8.05165e-08
-7.21177e-08
-1.4264e-08
1.97785e-08
-1.56894e-07
4.27604e-08
-2.17306e-05
-4.42305e-08
6.55803e-09
-1.62453e-08
-4.06848e-08
-9.26674e-08
2.19313e-08
-1.7957e-08
3.1554e-08
-3.05744e-08
1.68379e-08
-1.62971e-06
3.26556e-07
-4.47939e-09
4.17798e-05
9.36999e-09
-2.90171e-08
4.00544e-05
-4.05999e-08
7.45785e-08
1.71035e-08
5.02563e-06
-6.09769e-06
-9.22883e-09
4.96079e-08
5.18925e-05
1.69465e-06
3.05686e-08
1.12417e-05
5.53738e-05
-3.68242e-05
-2.14524e-08
8.58613e-08
-1.56208e-08
4.34477e-08
-2.4343e-08
-9.76668e-09
1.58378e-08
1.27256e-09
3.4241e-08
3.80531e-09
4.08352e-06
-2.53857e-07
-1.3066e-05
-1.32687e-08
3.12028e-08
-5.79733e-08
-2.57704e-08
-9.95633e-08
-3.29776e-09
-2.63062e-08
-4.5285e-10
1.9463e-10
-1.5923e-08
1.08791e-07
-2.51837e-08
-9.91472e-09
-6.32535e-08
5.02996e-07
-2.88786e-08
-4.99298e-08
7.84612e-08
-7.73924e-09
-6.13395e-09
3.95461e-08
-1.13188e-08
-2.18008e-05
-8.69033e-09
-1.40761e-07
-3.52411e-08
7.41993e-09
9.51279e-08
3.84067e-09
4.79425e-08
-3.7668e-08
-6.61808e-09
-3.30742e-05
-6.21833e-09
-1.32771e-05
-6.41e-05
4.37288e-06
1.0015e-05
-6.13112e-08
-1.55505e-08
1.88014e-06
2.20204e-06
-8.82176e-09
-7.20761e-09
-2.25159e-08
-5.04829e-09
-1.22436e-08
-4.86903e-05
-1.59596e-08
6.17504e-08
-2.13933e-07
1.23836e-05
5.17762e-08
5.76763e-05
1.10228e-06
-5.7052e-08
6.41813e-08
-9.19834e-08
-2.73786e-09
8.15262e-09
-1.5173e-05
-3.5008e-08
5.1378e-08
-3.75887e-08
-1.79172e-08
-4.958e-09
2.91872e-09
-2.90229e-08
-0.000262689
-2.1461e-08
-3.75899e-05
3.80624e-08
-1.60617e-08
-0.000163697
3.79184e-05
-0.000108068
-2.05721e-08
1.33423e-08
1.34747e-07
-3.51245e-05
5.53339e-05
-3.9586e-08
-1.10104e-08
2.23091e-05
1.41854e-10
-6.08288e-09
8.45528e-09
-4.84835e-08
-2.45438e-08
8.69986e-08
-4.09291e-08
-4.37186e-07
-1.06597e-09
1.88318e-08
6.11646e-08
-3.90715e-08
3.69135e-09
1.72445e-05
-1.40935e-07
2.22987e-08
4.47867e-06
6.32757e-08
5.6642e-08
-2.16314e-08
-4.15343e-09
7.93288e-09
-3.69714e-08
-0.000119241
1.33652e-08
-5.56718e-08
-8.35821e-08
1.4595e-08
2.89185e-08
2.60794e-08
-3.57287e-08
-2.77576e-05
-3.14568e-08
-6.29664e-08
4.13372e-09
-2.15315e-05
-2.00866e-05
1.05829e-08
-3.34323e-08
1.51421e-08
-1.67848e-05
-8.75171e-08
3.23403e-08
2.62599e-05
-1.49505e-08
-1.38742e-06
-4.40297e-08
-3.14529e-09
-2.65336e-08
-3.1859e-08
3.89605e-05
1.19089e-06
1.55505e-07
7.06854e-08
1.45255e-05
1.18414e-07
-1.97343e-05
-4.87336e-05
4.30775e-07
-1.76268e-08
-8.19765e-09
-2.87651e-08
-1.14019e-08
9.52403e-06
7.38876e-09
3.10083e-07
-7.71629e-08
-3.81269e-08
1.8573e-08
1.60742e-08
4.94794e-06
1.50288e-08
-2.23207e-08
3.20715e-08
1.09803e-07
-2.34761e-08
-2.04628e-05
6.61867e-08
-1.70207e-08
-3.0928e-08
-3.75622e-08
5.38538e-05
3.93133e-08
2.95527e-05
-1.19822e-08
-8.16027e-08
7.30508e-08
4.31015e-09
1.73478e-08
5.60235e-08
2.8353e-08
-4.68149e-09
5.77267e-08
2.10702e-08
-8.40388e-08
3.42192e-07
-2.01608e-08
4.37539e-08
1.03735e-08
3.24384e-09
1.3953e-08
-1.48612e-08
-2.02679e-05
1.85555e-07
-1.72697e-09
-8.3611e-09
5.81104e-09
-3.5571e-05
-3.48815e-08
2.91298e-05
6.56114e-05
-4.91187e-08
3.31804e-08
4.2651e-08
-2.73547e-08
-2.0653e-05
1.42437e-08
3.70907e-05
-2.10427e-08
7.70854e-08
3.55792e-08
1.11103e-08
-2.94302e-08
7.98748e-07
3.69687e-08
5.33059e-05
-2.02185e-06
7.525e-08
-1.53272e-05
-1.20681e-08
1.19083e-08
-9.62423e-09
4.02161e-09
-6.18018e-08
3.18101e-06
-1.41446e-08
6.43091e-08
3.68676e-08
3.2762e-08
-2.84119e-06
-5.28976e-08
-2.3934e-08
-3.39193e-08
-1.78862e-08
3.75106e-05
-3.97349e-08
-3.78881e-08
-1.06258e-08
1.20567e-09
-2.11361e-09
1.71025e-08
-2.46129e-08
3.76489e-09
-3.65631e-08
2.24722e-08
8.66107e-09
1.79321e-05
1.75875e-09
-3.20318e-08
-5.92187e-06
-1.00286e-09
4.65151e-09
3.30569e-07
-3.75122e-08
-9.99383e-09
-6.97212e-05
-2.42994e-07
-3.65654e-09
-2.75536e-08
2.86853e-07
-3.06397e-08
9.53229e-08
-8.58388e-09
-3.5532e-08
-2.18767e-09
-8.25114e-09
-4.0081e-08
-4.59407e-06
1.48915e-08
1.85373e-05
1.09947e-08
-2.0384e-08
2.34506e-09
-1.14977e-05
6.59787e-09
1.56404e-08
7.96795e-09
-5.52919e-07
-2.97381e-08
4.36553e-08
2.00372e-08
-2.35567e-09
-9.16607e-09
5.8302e-08
-5.61713e-08
8.79825e-08
-4.55207e-06
-5.91278e-08
6.65682e-09
1.57719e-07
-1.67657e-05
8.01036e-09
-9.15549e-09
3.71185e-08
-5.05546e-08
3.68464e-05
-2.59583e-05
3.73878e-08
8.82972e-08
-2.31709e-08
2.23035e-08
-1.33226e-08
2.72913e-05
1.26528e-05
-9.57029e-09
-1.98058e-08
1.22499e-08
-2.17203e-06
-5.42904e-08
5.86727e-07
-2.03645e-07
2.79918e-08
-7.74438e-06
-1.4451e-08
2.9161e-05
8.5262e-08
-2.36753e-08
1.63591e-08
-3.64682e-08
-3.96962e-08
3.07053e-08
5.9454e-08
-3.27511e-05
-5.45868e-09
9.41038e-09
1.58937e-08
-4.05591e-05
1.30221e-08
2.0223e-05
7.74317e-09
1.1064e-07
2.26377e-08
-7.71319e-08
1.76698e-08
-6.74768e-08
5.13151e-07
8.91693e-09
-5.37893e-09
2.35764e-08
1.54461e-07
-4.98315e-08
-4.72735e-09
-5.80132e-05
-4.22381e-08
3.33876e-08
-3.18111e-08
-9.64556e-08
2.14977e-08
-2.69436e-10
6.46243e-06
-3.74421e-09
-2.35065e-08
1.16105e-09
2.57673e-07
-1.31665e-08
7.59969e-09
-4.79974e-07
-3.82867e-06
1.06611e-07
4.6436e-09
3.07365e-07
1.16988e-07
5.97044e-09
-3.27053e-08
-4.08119e-08
2.51e-05
2.05477e-08
-3.93662e-08
-1.04818e-08
2.25689e-09
-9.92438e-09
2.65642e-07
4.14728e-08
5.088e-06
-4.81682e-08
-1.00278e-08
-2.05176e-08
2.70215e-08
4.51867e-09
-1.59014e-08
-4.23301e-08
-9.73656e-10
-1.56098e-05
4.66844e-09
-1.32249e-09
-7.72186e-07
-2.2948e-08
-3.62313e-08
-2.00593e-09
-1.44066e-08
2.97892e-07
5.36802e-08
-6.31984e-08
-1.61743e-07
3.23561e-08
7.44439e-08
5.35537e-08
-5.9765e-05
-1.35938e-08
-3.77844e-08
2.70819e-08
-8.74659e-09
-1.84238e-08
3.38656e-05
-3.73911e-09
1.90568e-08
-1.30247e-06
6.95833e-08
-5.4651e-09
-3.80434e-07
-2.4228e-08
6.47149e-08
-8.58537e-07
-6.21e-09
3.4664e-05
5.78035e-09
1.41855e-09
2.45047e-08
-1.61836e-05
-5.20379e-08
-2.61904e-09
-1.69763e-05
-5.69025e-09
6.86911e-07
-1.68899e-08
-1.17874e-08
-7.09998e-05
1.00016e-05
2.0433e-06
-9.18593e-09
-3.04249e-08
5.75162e-08
1.5048e-05
2.65717e-08
-0.000313473
2.03384e-08
6.82786e-09
1.21067e-05
-3.99219e-08
-8.8821e-08
-3.59603e-09
-2.56186e-08
-6.16671e-08
4.6254e-08
1.7841e-08
9.46036e-07
-3.67082e-08
4.52035e-08
-9.77094e-06
2.34651e-08
-5.82903e-08
-4.75393e-08
-6.71826e-09
8.12016e-08
1.35275e-05
-4.4353e-08
-6.60977e-08
5.93929e-08
-1.55506e-07
2.3889e-05
3.69708e-08
3.24545e-05
7.44933e-09
1.29869e-08
-1.13916e-08
4.68786e-08
-4.75727e-08
-2.94478e-08
1.09892e-07
-6.61023e-08
5.44291e-07
-2.69604e-08
-7.53401e-06
-2.58151e-08
-2.11571e-09
4.56576e-08
-8.08024e-08
-5.28367e-08
1.16959e-05
-1.60445e-08
-5.23942e-08
-2.36307e-08
1.1037e-07
-9.33291e-08
-9.36949e-09
2.90559e-05
-5.36216e-09
-2.47767e-08
3.97046e-08
-3.89328e-08
-6.65684e-05
-0.000280839
-2.0969e-08
1.40687e-05
-0.000242857
-7.36639e-08
8.13593e-05
6.32268e-08
6.9346e-08
-2.21537e-05
-2.54852e-08
5.6389e-05
8.8444e-10
-2.04004e-06
-5.17962e-08
2.60513e-08
4.67468e-05
-1.60634e-05
4.10945e-08
4.93018e-08
-6.49215e-09
-6.43577e-07
-8.13738e-09
3.3664e-05
1.46199e-08
1.96468e-05
2.91278e-05
4.42451e-08
-2.76931e-07
8.36816e-08
-0.000216675
-3.18166e-08
-2.56664e-08
-2.10104e-08
9.34051e-08
-1.23106e-07
1.62853e-05
-1.92162e-08
-3.62986e-08
-1.39263e-08
1.69628e-08
6.92495e-08
-8.18956e-08
-1.99956e-06
-6.52209e-09
-3.3409e-08
-3.53754e-08
3.5049e-09
-8.45563e-07
-3.68337e-08
-0.000107102
1.14586e-06
-5.12824e-08
-6.81211e-08
1.68614e-08
2.96835e-09
1.06837e-05
4.49282e-08
-5.08367e-08
-2.7587e-08
-1.04354e-08
-1.415e-09
-4.43172e-07
-8.5496e-09
7.38183e-08
-7.21813e-08
6.61316e-08
-1.09288e-08
4.01937e-08
-3.18551e-08
2.51335e-07
-8.78256e-08
-1.5476e-07
-1.17003e-08
6.83557e-05
1.28865e-08
1.0274e-05
2.42757e-08
-1.16335e-07
2.6e-08
2.70794e-08
2.67174e-07
1.06249e-08
1.02427e-05
1.03082e-05
5.53456e-09
-1.3862e-07
-6.96511e-07
-3.68696e-08
-5.14136e-08
1.41553e-08
2.43259e-06
1.2219e-07
-3.06359e-08
7.23991e-08
-7.92832e-09
1.55393e-08
-2.17042e-08
-9.76363e-09
-1.33901e-08
6.0543e-08
-1.07645e-07
-0.000380603
7.11625e-08
-1.96443e-07
-2.91728e-08
-4.70843e-08
-1.68849e-08
1.88481e-08
-2.01955e-08
-3.34991e-09
-7.11957e-10
5.30322e-08
2.72984e-08
-7.20482e-09
1.84438e-08
5.90013e-09
-3.50385e-05
8.1836e-09
-1.39724e-05
1.94098e-08
4.35195e-08
-1.60042e-05
-1.63414e-10
-3.42154e-08
2.2669e-08
-4.36553e-08
-3.57789e-09
-1.52646e-08
-3.40882e-08
-1.26803e-08
2.93888e-08
3.22389e-08
-3.34397e-06
5.82922e-08
7.58063e-05
6.85515e-05
-2.8971e-08
2.14163e-09
-7.98637e-06
2.96888e-07
-6.38269e-08
-9.53482e-09
-6.77891e-10
-2.7966e-08
-6.48377e-08
-1.4776e-08
-6.70627e-06
-3.52651e-08
9.1113e-08
2.31199e-09
1.83208e-08
3.78256e-10
1.60099e-07
3.5235e-08
-3.69175e-08
3.90923e-08
3.49712e-08
-4.43083e-08
1.03513e-07
-6.26476e-08
-1.47358e-08
-3.82132e-09
1.55797e-07
-1.05876e-07
4.95963e-08
-2.84589e-08
1.30732e-08
-3.26449e-08
-3.06362e-05
-1.50258e-08
-2.2313e-05
3.32744e-08
1.90256e-09
2.73669e-09
-3.37265e-08
-1.87331e-08
2.61824e-08
3.6278e-08
-0.000485546
-5.80426e-08
-8.26881e-07
6.58192e-08
1.9895e-06
7.49841e-06
-1.27743e-05
2.17764e-09
3.72727e-08
1.30936e-08
2.37893e-08
2.46597e-07
5.97188e-06
-5.3063e-06
-7.65075e-09
-3.4873e-07
-5.41747e-08
-2.20729e-06
-1.15604e-08
3.68601e-07
-7.64913e-08
-3.36981e-08
-1.05832e-07
4.15745e-08
2.59692e-08
-2.73358e-08
5.37541e-08
-1.39021e-07
6.43271e-10
1.98299e-08
-0.000101222
-4.64282e-06
-3.13122e-08
-1.55262e-08
-4.25004e-08
-2.75842e-08
-1.24261e-08
-6.31273e-08
3.09781e-08
-1.92051e-08
2.57721e-07
-5.2688e-08
6.67218e-08
3.56049e-09
-4.95085e-08
1.23684e-08
-2.5212e-08
4.92228e-08
2.76949e-09
-4.03314e-05
1.3933e-08
-2.77205e-08
-2.69931e-10
-2.95923e-08
6.98617e-07
3.03807e-08
-7.64078e-09
-1.05064e-07
3.88708e-08
3.64526e-09
-1.23217e-05
9.56862e-09
-4.55388e-08
-2.73169e-06
-2.55371e-08
5.87867e-07
1.72967e-08
-4.39586e-08
-5.89481e-08
-7.10549e-09
-3.8457e-08
1.03922e-05
-8.5839e-09
7.62727e-08
-1.0187e-09
-1.35465e-08
3.92834e-08
2.45687e-06
-6.20248e-08
-1.04938e-08
-5.82007e-08
-1.39202e-08
-1.47401e-07
-4.18458e-08
3.15833e-08
-4.94913e-08
-3.03739e-06
-1.22231e-06
-7.82249e-05
9.50436e-08
-3.12825e-08
-1.15428e-08
-4.04072e-05
1.68338e-08
-6.5126e-08
-2.01686e-09
2.48405e-08
1.7486e-07
-2.63992e-08
-0.000232905
-5.31422e-08
-3.52401e-08
3.74266e-08
4.14477e-09
-6.24732e-05
-2.50698e-08
-8.84282e-08
-4.80194e-09
7.66634e-08
-4.62881e-08
1.59908e-07
2.83515e-08
2.99829e-08
1.91143e-08
-2.30264e-08
4.82514e-08
3.7738e-08
4.60967e-08
-1.96933e-08
6.28532e-05
-6.28083e-05
-2.23562e-07
2.45667e-06
-5.38753e-08
-2.50894e-08
-1.82464e-08
-1.92245e-07
1.51976e-05
-2.54602e-08
-2.58528e-05
3.69221e-07
4.39027e-08
-9.15605e-07
-0.000356603
2.84881e-08
2.5746e-08
-1.61642e-08
1.7793e-05
-3.71376e-08
2.00299e-08
-1.86396e-06
1.19138e-05
1.61415e-05
-2.69783e-05
4.28646e-08
-2.78247e-09
-6.68596e-08
1.0681e-08
1.68429e-07
1.16853e-07
-3.93811e-09
6.57935e-08
9.16987e-07
6.04751e-08
8.62749e-06
-2.38878e-08
8.67816e-08
3.27241e-05
-2.78907e-05
-7.34768e-08
-4.55027e-08
2.92642e-05
-1.60237e-06
3.24077e-07
-1.20735e-05
4.72473e-05
2.31615e-08
-3.04774e-08
-4.71946e-09
8.93935e-08
7.53917e-08
1.2419e-08
1.24872e-07
-0.000208625
-9.40017e-08
9.72649e-08
1.29429e-08
1.05885e-07
5.02635e-05
2.12047e-07
-2.01866e-05
7.69366e-08
5.56907e-09
-2.06633e-05
2.92113e-05
-4.30639e-06
-3.11672e-08
-9.25966e-09
3.85493e-08
-1.56655e-08
4.35655e-08
-1.59266e-08
6.48696e-08
-9.04849e-06
2.40928e-08
-9.15072e-05
-0.000269377
2.50332e-08
-3.6464e-08
3.0393e-07
-2.84246e-08
-4.62182e-06
1.91121e-07
1.81128e-09
-6.93379e-09
-8.3671e-08
8.20833e-07
-3.03795e-08
1.31918e-08
1.05726e-08
4.36309e-08
2.81488e-09
-1.88725e-07
-6.53922e-05
-3.05796e-08
-7.41095e-08
6.99122e-05
-3.07454e-08
1.54548e-08
-1.12238e-08
4.29589e-05
3.04515e-05
6.46121e-05
3.18151e-08
3.79053e-08
-7.77161e-08
-4.13673e-07
-2.7397e-08
-8.59644e-06
1.03478e-08
1.11923e-08
-5.167e-08
-4.27456e-08
1.74859e-08
-1.32889e-09
-6.3126e-08
-4.54813e-09
-2.24412e-05
-1.54154e-08
3.80531e-08
1.58472e-08
6.3553e-08
6.26669e-08
4.56505e-08
7.25952e-05
5.32441e-09
4.5479e-09
2.18197e-07
-1.57426e-08
-1.83534e-07
4.16953e-07
1.52324e-07
3.30041e-09
-0.000172679
2.81774e-05
8.43989e-09
-8.91595e-09
2.64501e-09
-1.03039e-07
-6.29846e-08
-4.38106e-08
2.22361e-07
2.93415e-08
2.72585e-05
-7.33675e-08
-2.92541e-08
-6.67725e-08
-1.79393e-08
3.69758e-05
2.23679e-08
-2.94465e-06
8.35974e-09
-2.60837e-06
-4.69415e-07
-7.80223e-09
1.20595e-08
-4.48771e-08
1.00088e-05
-5.08377e-09
2.46761e-08
-1.06334e-07
1.19581e-06
2.56266e-05
-2.65325e-05
1.77924e-08
1.85607e-09
-5.44102e-05
-2.92433e-08
3.88785e-07
1.73619e-05
-2.89649e-08
-8.5163e-06
4.5036e-08
-8.35582e-08
2.40704e-06
4.32097e-08
-3.02742e-08
-2.01165e-08
2.40273e-06
-2.18091e-08
2.94637e-07
-7.56807e-08
-3.17228e-08
-2.3967e-05
5.44255e-09
-5.14414e-08
6.30271e-08
-4.1989e-08
-2.08393e-07
-3.50865e-05
-5.50078e-06
-1.09298e-09
2.24741e-08
-5.56714e-08
2.96629e-08
6.26208e-08
-1.56487e-08
-2.86123e-06
-1.22159e-05
3.18267e-08
3.51333e-06
-1.15711e-08
-1.63099e-06
3.24809e-05
4.67055e-08
6.05617e-09
4.61119e-07
9.39646e-09
-3.73062e-08
-1.55974e-08
2.07827e-08
3.12033e-05
-1.17967e-07
5.51416e-07
-0.000246325
2.66469e-08
-1.4809e-06
2.32083e-05
-3.96922e-05
5.95699e-08
-8.46271e-08
-3.68216e-08
-2.70804e-08
-2.34775e-08
-6.50709e-08
-1.54993e-08
9.62885e-08
4.56981e-07
3.94238e-08
-4.07422e-05
-3.15306e-08
-9.15131e-07
-4.32744e-08
2.84511e-09
1.78592e-05
4.45564e-08
-1.99937e-05
3.17457e-08
6.0038e-08
3.22637e-08
8.815e-09
3.57891e-08
1.38642e-09
-4.43683e-08
-4.40191e-05
-7.21055e-07
4.79375e-08
-3.83616e-08
1.02973e-07
-2.37366e-05
1.30178e-08
-8.66154e-05