/*--------------------------------*- C++ -*----------------------------------*\
| =========                 |                                                 |
| \\      /  F ield         | OpenFOAM: The Open Source CFD Toolbox           |
|  \\    /   O peration     | Version:  v2012                                 |
|   \\  /    A nd           | Website:  www.openfoam.com                      |
|    \\/     M anipulation  |                                                 |
\*---------------------------------------------------------------------------*/
FoamFile
{
    version     2.0;
    format      ascii;
    class       surfaceScalarField;
    location    "350";
    object      ddtCorrDdt0(phi);
}
// * * * * * * * * * * * * * * * * * * * * * * * * * * * * * * * * * * * * * //

dimensions      [0 3 -2 0 0 0 0];
oriented        oriented;


internalField   nonuniform List<scalar> 
19765
(
2.96898e-05
-4.22291e-05
1.25403e-05
-0.000101006
3.3262e-06
9.76794e-05
9.41554e-06
-6.05745e-06
-3.35796e-06
1.47774e-05
4.41153e-05
-5.88921e-05
-3.31773e-05
3.28851e-05
2.90505e-07
8.07391e-05
3.19987e-05
-0.000112736
-3.51511e-05
4.31384e-05
-7.98723e-06
1.35172e-05
-1.78452e-05
4.32791e-06
-3.35273e-05
-2.56157e-05
5.91427e-05
1.52565e-05
-3.65995e-05
2.13434e-05
-2.62341e-05
2.36996e-06
2.38647e-05
3.93923e-05
-4.07523e-05
1.3599e-06
-2.90485e-05
2.21058e-05
6.94278e-06
-4.99105e-05
1.47595e-05
2.74032e-05
-6.03154e-05
3.29125e-05
-4.50777e-05
1.18995e-05
-2.07167e-05
9.69532e-05
-7.62399e-05
5.51956e-05
-1.99032e-05
-3.52916e-05
5.1486e-05
-3.54007e-05
-1.60842e-05
0.000162833
-4.92422e-05
-1.02369e-05
-3.02966e-05
4.05364e-05
2.33575e-05
4.50214e-07
-2.38075e-05
-3.60315e-06
2.6961e-05
2.32909e-05
-8.13525e-06
-1.51552e-05
1.81714e-07
9.23379e-06
8.64089e-06
5.59577e-05
-6.45978e-05
1.56755e-05
-1.79618e-05
2.28595e-06
1.89814e-05
-1.85306e-05
7.48572e-06
-3.23082e-06
-4.25554e-06
2.02178e-05
-1.03432e-05
-9.87424e-06
-2.38631e-05
2.95918e-05
-5.72865e-06
-1.75158e-05
1.23056e-05
5.21027e-06
1.93118e-05
3.04392e-06
-2.23554e-05
-4.12765e-05
2.0859e-05
2.04165e-05
2.92369e-05
2.22497e-05
4.5182e-05
-3.04045e-05
1.66376e-05
-2.02409e-05
5.19756e-05
-2.83016e-05
-2.36735e-05
-6.42842e-05
2.54376e-05
3.88472e-05
5.28769e-05
9.21308e-06
-6.20893e-05
-3.73503e-06
-3.99561e-05
4.36913e-05
1.67006e-05
4.65436e-05
-6.32435e-05
-1.46218e-06
1.49793e-05
4.83251e-05
-4.58348e-05
-2.48995e-06
1.90516e-05
-4.11546e-06
-1.49367e-05
4.07782e-07
4.86945e-05
-7.26915e-05
2.39976e-05
5.03132e-05
-6.08484e-05
1.05351e-05
-4.6595e-05
6.81433e-05
-2.15463e-05
1.7563e-06
4.48499e-06
-6.24113e-06
-3.02018e-05
6.33872e-06
-0.000102834
0.000153264
4.92487e-06
1.52928e-05
7.4855e-06
0.000106713
-2.59737e-05
7.39636e-05
-5.72624e-05
-8.59858e-05
-3.31901e-06
8.93065e-05
6.60072e-05
-4.44835e-05
-2.15238e-05
3.23418e-05
-1.7085e-05
5.46268e-05
-6.04965e-06
-4.85763e-05
7.16873e-05
-9.2404e-05
5.19836e-05
1.40237e-05
-7.87684e-05
6.70787e-05
1.1691e-05
6.23801e-05
-9.50369e-06
5.75915e-05
-4.89518e-05
-0.000117104
-1.66656e-05
0.000133769
3.40163e-05
-0.000135024
-1.56888e-05
1.05278e-05
5.15979e-06
1.84362e-05
-2.76043e-06
3.27305e-05
2.24653e-05
-6.86656e-07
-7.32549e-08
7.60019e-07
-6.74423e-05
-1.13262e-05
5.60681e-05
-1.66862e-05
-3.93799e-05
-7.65867e-05
0.000165859
-8.92734e-05
9.00242e-05
-4.63581e-05
-4.36649e-05
-3.8666e-05
3.91279e-06
3.47539e-05
2.38399e-05
-3.06094e-05
6.76913e-06
1.95523e-05
-1.04463e-05
-9.10619e-06
1.07347e-05
-1.86511e-05
7.91669e-06
8.07545e-05
-6.33291e-05
-1.74254e-05
3.55845e-05
-2.09354e-05
-1.46493e-05
-2.72994e-05
6.27885e-05
-3.54875e-05
6.57289e-05
-0.000102015
3.6285e-05
-4.16299e-05
-3.65752e-05
7.82038e-05
1.49423e-05
4.10937e-06
3.45299e-06
3.41777e-05
-3.76301e-05
1.06978e-05
1.52119e-05
-2.59092e-05
2.90005e-05
-5.95983e-05
3.05981e-05
5.48706e-05
-2.58696e-05
3.50564e-05
-4.52937e-05
-3.4964e-05
3.4336e-05
6.28383e-07
3.30268e-05
-2.38016e-05
-9.22533e-06
-1.10619e-05
-5.05368e-06
1.61157e-05
6.47471e-06
-5.31425e-05
4.6669e-05
-1.17968e-05
4.89012e-05
-3.71045e-05
1.14339e-05
1.0627e-05
-2.20608e-05
1.82112e-05
1.73739e-05
-2.4846e-06
-1.63e-06
4.11404e-06
4.8709e-05
-3.83714e-07
1.04459e-05
4.08995e-05
-5.1346e-05
5.21473e-06
5.27342e-05
-5.79463e-05
6.68992e-05
-1.65857e-05
7.88235e-05
-4.24421e-05
-3.63806e-05
6.02301e-05
-1.93909e-05
-4.08392e-05
4.06011e-06
5.20065e-05
-2.27159e-05
4.22202e-05
-1.9504e-05
-6.15348e-05
6.76866e-05
-6.15077e-06
4.8039e-05
6.5881e-06
-9.92667e-05
0.000142744
-4.34679e-05
2.6592e-05
-1.08245e-05
-1.57675e-05
4.07887e-05
-2.34822e-05
-1.73066e-05
-1.27652e-05
-4.75049e-06
-2.6222e-06
-3.21934e-05
5.81245e-06
2.63812e-05
4.59427e-05
-4.07265e-05
1.56646e-06
1.77456e-05
-4.07133e-05
2.76371e-05
1.3075e-05
5.16967e-05
-5.33162e-05
1.61867e-06
-7.56703e-05
7.96973e-05
-4.02563e-06
2.28014e-05
1.79871e-05
-4.90582e-05
3.72614e-05
-6.9642e-05
5.61482e-05
1.34938e-05
-7.1832e-05
1.0662e-06
-3.43378e-05
3.77916e-05
2.62221e-05
-6.0467e-05
3.42448e-05
-2.38788e-05
-1.39853e-05
3.7864e-05
-7.1552e-06
-9.74512e-06
1.69002e-05
-9.02723e-06
7.40454e-05
-6.50182e-05
-3.46961e-06
5.22593e-06
1.18963e-05
-3.75033e-05
2.56074e-05
-8.31539e-06
3.23724e-06
5.07811e-06
-0.000114926
8.46432e-05
3.0284e-05
-1.9102e-05
4.29605e-06
3.00961e-05
-3.43927e-05
6.86331e-05
-7.68729e-05
8.23834e-06
-1.9876e-05
-4.08848e-05
6.07639e-05
-5.34994e-05
1.99717e-05
3.68575e-05
4.19664e-05
1.52287e-05
1.13636e-05
9.02659e-06
5.12036e-05
-5.86369e-05
-3.02533e-07
-1.93533e-05
-3.45207e-06
2.28059e-05
2.37258e-05
7.83892e-06
-3.15627e-05
5.40779e-05
-4.67725e-05
-7.30569e-06
9.40374e-06
2.99885e-05
-5.1255e-05
4.9771e-05
1.48488e-06
-6.95714e-05
2.29777e-05
-3.33788e-06
1.2229e-05
-8.89066e-06
4.64168e-05
-8.34161e-05
3.70035e-05
1.11513e-05
-1.01628e-05
-9.88113e-07
-1.07578e-05
-4.43096e-06
1.51886e-05
5.78384e-05
-4.6431e-05
-1.14078e-05
6.35688e-05
1.98197e-05
3.21562e-05
-1.71901e-05
3.80366e-06
1.3386e-05
4.63459e-05
-6.6221e-05
2.10478e-05
1.07447e-05
-3.1792e-05
-4.85431e-05
4.48079e-05
6.95451e-05
-4.43769e-05
-2.51685e-05
-2.50662e-05
-1.62112e-05
-3.45228e-06
-3.56684e-05
3.91208e-05
-1.85046e-05
1.13496e-05
5.12527e-05
4.43507e-07
4.01485e-05
1.76899e-05
1.34324e-05
-1.43141e-05
8.8131e-07
1.58114e-05
4.01656e-05
-5.59763e-05
3.4637e-05
6.91771e-06
-4.15543e-05
-4.89347e-05
-9.7014e-06
5.72779e-06
-5.54611e-06
-0.000110446
2.63072e-05
-9.89088e-06
1.07282e-05
-8.37461e-07
-0.000153385
5.05441e-05
1.76769e-06
2.00933e-05
-2.18613e-05
-2.41428e-05
-4.90554e-06
-2.93518e-05
4.41752e-05
-1.48216e-05
-1.48869e-06
-4.20911e-07
1.90972e-06
7.71152e-05
-1.28386e-06
-1.29764e-05
1.426e-05
5.68786e-05
-3.6245e-05
-2.06333e-05
-2.24558e-05
5.17721e-05
-2.93161e-05
2.07741e-05
1.68481e-05
-3.76223e-05
-7.32485e-05
-2.42152e-06
1.638e-05
4.43999e-05
-6.07767e-05
-2.19696e-05
2.37371e-05
4.11992e-05
-4.25062e-05
1.30658e-06
2.93315e-05
2.3632e-05
-5.29634e-05
6.97751e-05
-1.14218e-06
-0.000167297
5.01948e-05
-2.59263e-05
2.48897e-05
1.03732e-06
4.59614e-05
8.11653e-06
-7.74183e-05
-3.75079e-05
-0.000122978
4.55597e-05
-2.00012e-05
3.58128e-05
1.32762e-05
-2.40344e-05
-6.137e-05
-1.64444e-07
-2.58765e-06
1.28815e-05
6.67094e-06
9.7297e-05
-8.90365e-05
-8.26007e-06
8.16851e-05
1.5268e-05
-1.30382e-05
3.14725e-06
3.99234e-05
-5.92872e-06
-3.39943e-05
4.21814e-05
-7.66311e-06
-3.45184e-05
-4.65689e-06
2.46211e-05
-1.99623e-05
2.28124e-05
-7.43672e-05
5.15557e-05
4.34507e-05
-6.4243e-06
-3.70263e-05
8.91918e-06
-5.68196e-06
4.83365e-05
-1.08847e-05
-3.7452e-05
-2.27169e-06
6.81865e-05
-6.59159e-05
-2.4812e-05
7.12301e-05
9.21245e-05
-7.24237e-05
-1.96994e-05
-3.50291e-05
4.54759e-05
1.50425e-05
8.24853e-06
-6.19559e-07
-6.6956e-08
-3.31871e-05
4.50836e-05
-2.86546e-05
2.39983e-05
-4.47053e-05
1.74064e-05
-5.34889e-05
4.61851e-06
4.88683e-05
1.97948e-05
-6.53465e-05
-3.51917e-05
-9.40215e-06
4.45946e-05
6.80609e-06
-4.19964e-05
5.22158e-05
-2.48124e-05
-3.19712e-06
1.69652e-05
-1.37679e-05
1.60132e-05
-4.47528e-05
2.87399e-05
1.63194e-05
-1.93615e-05
3.04223e-06
1.61972e-05
1.51199e-05
-3.13165e-05
-2.98681e-06
-2.1156e-05
4.10336e-05
-6.39593e-06
-1.11111e-06
6.19108e-06
2.68448e-05
-2.21772e-05
-4.66777e-06
5.92855e-05
-4.54711e-05
-1.38115e-05
1.33122e-05
2.94604e-05
4.45519e-06
-3.39158e-05
-1.04542e-05
7.11634e-06
7.04585e-05
-0.000125397
5.4938e-05
3.70649e-05
1.72218e-05
-5.42862e-05
5.43376e-05
-9.20734e-06
-4.51296e-05
-4.04527e-05
2.37675e-05
-2.56508e-06
1.80059e-05
-1.54395e-05
-7.46811e-05
-4.82965e-05
1.90859e-05
-4.2853e-05
2.37671e-05
-4.47291e-06
-5.19637e-05
5.64357e-05
-3.10015e-06
4.65509e-05
-1.12357e-05
-5.84062e-05
-1.29534e-05
1.16695e-05
-3.08486e-05
4.46324e-05
-1.37834e-05
-7.83933e-06
3.13381e-05
-2.34993e-05
1.48168e-05
2.5107e-05
-7.04474e-05
6.53688e-05
5.07761e-06
-2.05695e-06
2.29554e-05
-5.23067e-05
4.28028e-06
-1.53422e-05
3.23888e-05
-1.61919e-05
-5.02458e-05
-1.00927e-06
-4.8144e-07
7.9285e-08
4.02252e-07
-2.3112e-06
8.22568e-07
2.21348e-05
3.1966e-05
-5.40996e-05
-1.22652e-05
3.91968e-05
-2.0111e-05
-4.86774e-05
2.61505e-05
2.25272e-05
-2.21901e-05
-3.11274e-05
2.52903e-06
-2.87634e-05
-4.94291e-05
7.23381e-05
0.000131606
-2.4516e-06
2.61779e-05
3.61745e-05
2.07043e-05
9.30241e-06
-2.01268e-05
4.24272e-05
-2.16532e-05
-2.94601e-05
-2.73318e-06
1.99911e-05
-3.67164e-06
-1.02813e-05
1.44259e-05
-4.14423e-06
-3.3001e-05
3.22048e-05
7.96813e-07
-1.87299e-05
-1.8831e-05
3.75617e-05
5.44146e-05
-1.69396e-05
-3.74743e-05
4.69467e-05
2.25983e-05
-7.02905e-05
4.17961e-05
2.84944e-05
1.2688e-05
-1.52526e-05
-2.02936e-05
-2.04194e-05
-2.25393e-06
-2.30891e-07
1.73669e-05
-0.00010335
3.99377e-05
-5.75953e-06
-3.62928e-05
-1.23843e-05
-5.52754e-09
-1.62463e-06
-6.96065e-05
4.92614e-05
-5.94776e-05
1.0217e-05
9.48337e-06
-1.26804e-05
-1.78789e-06
-3.98075e-05
5.64695e-05
9.16231e-07
-5.73859e-05
7.90993e-05
-1.3371e-05
3.74852e-05
8.19713e-05
-0.000119454
-8.63012e-06
1.14314e-05
-2.80118e-06
3.17953e-08
3.28619e-07
2.17773e-05
-2.40172e-05
1.97188e-05
4.29838e-06
3.3602e-05
2.56849e-05
2.54677e-05
-8.82996e-06
-5.80103e-05
-1.24364e-05
-8.54843e-05
7.04126e-05
1.50716e-05
-5.00404e-06
5.00386e-06
3.78917e-05
-3.79542e-05
6.24351e-08
1.25435e-05
-1.95491e-05
7.00477e-06
-9.9541e-05
6.65916e-05
3.29509e-05
2.00416e-05
-3.15003e-05
1.14589e-05
1.33665e-05
-1.77813e-05
4.41562e-06
9.04142e-06
-1.64623e-05
7.42092e-06
5.27903e-05
-7.4368e-05
2.15747e-05
1.2831e-05
-8.91846e-05
7.6355e-05
5.71123e-05
-9.07272e-06
-3.48182e-05
4.80303e-07
3.01149e-05
-1.04222e-05
-1.96926e-05
-6.70024e-05
2.07314e-08
6.69822e-05
-4.94036e-05
-8.56879e-06
5.79741e-05
6.6317e-06
-2.85305e-05
2.18988e-05
4.83982e-05
-4.51992e-06
-4.38785e-05
5.77956e-05
-3.15736e-05
-2.19339e-05
2.57992e-06
2.30928e-05
-1.74859e-05
-5.60718e-06
-8.4997e-05
0.000132338
-4.73363e-05
1.34186e-05
-4.45885e-05
2.31079e-05
2.14812e-05
9.02434e-06
-2.77534e-05
4.43672e-06
2.27155e-05
-2.71522e-05
-7.54892e-05
-2.40509e-05
4.7177e-05
3.19214e-05
8.25485e-05
2.58124e-05
-2.92645e-05
7.466e-05
-5.18471e-05
-4.15057e-05
6.36917e-05
-2.21865e-05
6.06318e-05
9.26299e-05
-3.16332e-05
-2.68259e-06
3.43161e-05
-5.21624e-06
2.92872e-05
-2.40711e-05
1.7813e-05
-4.61702e-05
2.83574e-05
-4.39627e-05
5.45398e-05
-1.05772e-05
2.92055e-05
-3.70453e-05
3.51218e-05
7.05975e-06
2.51756e-05
-1.85438e-05
-3.20848e-05
-2.83822e-05
5.58077e-05
-2.23778e-05
-3.34296e-05
8.61504e-05
-4.1749e-05
-0.000129279
7.41902e-05
5.50907e-05
3.16984e-05
-3.64463e-05
4.74839e-06
2.12721e-05
-3.93909e-06
-1.73325e-05
5.27183e-05
-1.56531e-05
-3.74e-05
0.00014292
-8.22912e-05
3.50254e-05
-5.56555e-06
4.90886e-05
-5.35623e-05
2.639e-05
-5.20056e-05
-2.44035e-05
4.04169e-05
-2.39953e-05
9.11317e-06
7.35662e-06
6.13681e-05
-6.8726e-05
5.2693e-05
1.64445e-06
-2.02297e-05
-3.93688e-05
6.31679e-05
-6.54409e-05
-2.70369e-06
5.91734e-05
-2.01669e-05
1.44333e-05
-3.15369e-05
1.71042e-05
9.52957e-06
5.34129e-06
-1.48709e-05
-1.79252e-05
1.54659e-05
2.45919e-06
1.8122e-05
7.91744e-05
9.01394e-06
4.80986e-05
5.7749e-05
3.65399e-05
-3.82563e-05
1.71678e-06
-3.80717e-05
1.41931e-05
-2.41778e-05
2.1191e-05
-6.40194e-05
7.33682e-05
-9.34828e-06
-4.54749e-05
1.46263e-05
4.29969e-06
-1.7253e-05
4.25751e-06
-1.68282e-05
-2.77605e-05
-1.4844e-05
-3.69849e-06
1.85421e-05
9.06579e-06
2.08551e-06
3.76253e-05
-3.10888e-05
-6.53625e-06
-2.97698e-05
4.27092e-06
3.75854e-05
-4.18558e-05
4.13823e-05
-1.8322e-07
-4.81281e-05
5.47027e-05
-6.57446e-06
4.98988e-05
-4.75645e-05
-2.33391e-06
5.84923e-05
-1.04608e-05
-4.80326e-05
-1.91346e-06
7.01004e-05
8.75562e-05
-6.94345e-05
-1.90456e-05
-7.11834e-05
6.21564e-05
-9.60257e-06
-4.707e-05
-4.75925e-05
5.40676e-05
-4.42796e-05
3.71776e-05
7.10228e-06
-0.000101574
9.8254e-05
2.54653e-05
-5.42342e-06
3.78001e-05
4.83518e-05
-4.81258e-06
1.80889e-05
-2.97489e-06
8.03208e-06
-5.05345e-06
-4.915e-05
7.13141e-05
-2.21629e-05
8.58083e-06
1.83762e-05
-2.2748e-06
-1.61014e-05
-7.51453e-05
2.5996e-05
-1.12622e-05
4.82126e-05
-3.695e-05
1.89716e-05
-6.04774e-05
-6.93789e-06
-3.04622e-05
-2.68609e-05
5.1509e-05
-2.46481e-05
-1.7759e-07
-5.28227e-05
-1.73199e-06
5.45552e-05
-1.08062e-05
4.84755e-05
-3.76688e-05
-3.34509e-05
-1.08272e-05
2.14045e-05
-1.2363e-05
5.56043e-05
1.57107e-05
5.62062e-06
-1.59638e-05
1.01829e-06
-4.59317e-05
-1.24854e-05
3.35334e-05
1.51487e-05
-1.15937e-05
-3.55492e-06
3.26341e-05
-7.89062e-06
-2.47437e-05
8.24666e-06
-9.37893e-06
-6.30966e-06
5.1676e-06
2.59105e-05
2.63055e-05
2.02448e-05
-2.5057e-05
-9.6643e-05
6.57257e-05
3.0917e-05
-5.16952e-05
9.88262e-05
-4.71303e-05
2.20612e-05
-1.19084e-05
2.5845e-05
-1.39363e-05
1.56782e-05
-0.000117894
0.000121879
-3.98484e-06
-6.33265e-05
5.2091e-05
-6.42175e-05
5.51275e-05
9.09051e-06
-4.28206e-05
-3.2324e-05
1.68965e-05
9.94824e-06
2.15265e-05
-3.33891e-05
1.18637e-05
1.75519e-05
-4.10786e-06
-1.34435e-05
-1.15469e-05
2.91684e-06
1.37786e-05
1.15592e-05
3.68391e-05
-1.54893e-05
4.51908e-06
1.09732e-05
-1.17196e-05
8.72885e-06
2.99082e-06
-1.67408e-05
-3.34601e-05
5.02019e-05
-1.52137e-05
-2.71838e-05
4.23983e-05
1.65229e-05
-5.81414e-06
-1.07089e-05
-2.54373e-05
7.26134e-05
5.55661e-05
3.44586e-05
6.68918e-05
2.5233e-05
4.49024e-05
-5.48044e-05
9.90219e-06
2.5108e-05
-2.38958e-05
-1.21189e-06
-8.68551e-06
4.37739e-05
-3.5091e-05
-2.44435e-05
5.76763e-05
-3.32327e-05
4.86075e-05
6.26349e-06
-6.00727e-06
5.93327e-05
-5.33247e-05
1.6306e-05
8.03307e-06
-2.43397e-05
1.00096e-05
-1.30612e-05
3.05139e-06
-2.55469e-05
-1.87675e-05
4.43134e-05
-3.98764e-05
2.43196e-05
1.55563e-05
5.77025e-05
-3.9889e-05
-1.05303e-05
4.14304e-05
-3.08995e-05
5.0516e-05
-2.46052e-05
-4.32269e-05
4.95432e-05
-6.31628e-06
2.7819e-05
-0.000100242
2.97988e-05
-4.0605e-05
3.43056e-05
-4.9128e-06
-2.93937e-05
-6.7798e-05
3.15534e-05
-2.67398e-05
-4.56813e-05
7.24219e-05
2.09061e-05
-6.01219e-06
-1.48941e-05
-3.39814e-05
9.15316e-06
2.48286e-05
-5.98712e-05
6.63889e-05
-6.51809e-06
1.19609e-05
2.0673e-05
-0.000122584
4.69005e-06
-5.7665e-07
9.52529e-08
7.9189e-05
-7.92461e-05
5.80579e-08
2.25354e-05
-8.9538e-05
-1.44053e-05
5.05799e-05
2.23706e-05
-6.12048e-06
-1.62502e-05
9.4411e-05
5.97363e-05
-5.43263e-05
-5.40981e-06
5.53091e-05
-2.69842e-05
-2.83252e-05
5.37944e-05
8.58513e-06
-4.3168e-06
-5.99006e-05
5.55354e-05
-4.50601e-05
-1.04753e-05
2.4433e-05
6.74998e-07
-1.13077e-06
1.13825e-07
1.01704e-06
2.2406e-05
-4.29686e-05
2.05607e-05
2.15675e-08
-1.15221e-06
2.26992e-05
-2.93904e-05
6.69139e-06
-6.62193e-07
6.62375e-07
-4.73019e-05
1.16334e-05
-4.20998e-05
1.6554e-05
2.00314e-05
-4.62458e-05
2.62147e-05
-6.26346e-05
2.23187e-05
4.03161e-05
-3.6761e-05
-5.63078e-06
4.23919e-05
-1.53452e-05
1.39348e-05
1.41026e-06
-3.88785e-05
4.72023e-05
-8.32297e-06
8.50809e-06
-1.94836e-05
1.09758e-05
3.75579e-06
-1.40375e-05
-2.11246e-05
4.32612e-05
-9.2196e-05
2.88994e-06
1.47121e-05
-1.76026e-05
5.98879e-05
-1.1193e-05
-5.71394e-05
6.6735e-05
-5.93795e-05
1.22459e-05
7.27804e-06
-1.95239e-05
-5.84968e-05
-2.87282e-06
2.86515e-05
-6.52276e-05
-3.32631e-05
5.21565e-05
-2.57667e-05
1.58792e-05
3.99286e-05
3.18443e-05
4.69568e-06
2.18098e-05
-1.03756e-05
-1.28661e-05
-2.4791e-06
-2.71572e-05
3.14532e-05
-1.19125e-06
7.02137e-05
-1.74241e-05
-2.5775e-05
1.59707e-06
8.13565e-05
6.15618e-05
-9.99664e-06
-4.91976e-05
1.03181e-05
1.03461e-05
-1.25296e-05
2.18379e-06
2.99796e-05
-3.35956e-05
3.61627e-06
-8.79729e-05
0.000107852
-1.9878e-05
-4.37239e-05
5.98439e-05
-1.61201e-05
-7.30193e-06
-4.63458e-05
5.36481e-05
-5.62326e-06
1.51529e-05
-4.96773e-05
1.10121e-05
-1.72287e-05
6.21689e-06
6.00168e-05
-6.22322e-06
4.75296e-05
1.7632e-05
-1.32632e-06
4.79206e-05
5.64153e-05
-4.69544e-05
-9.46065e-06
-0.000105355
3.70367e-05
6.83185e-05
4.10515e-06
1.82653e-05
-4.98476e-05
1.02214e-05
3.96271e-05
4.37043e-05
-2.68562e-05
1.08582e-05
-3.00642e-05
1.92059e-05
2.42477e-05
-4.55773e-05
2.13305e-05
6.22096e-05
-3.42232e-05
-2.79861e-05
3.86685e-06
1.74053e-05
1.10544e-05
7.2686e-06
-1.83209e-05
5.29273e-05
-1.78677e-05
-3.50587e-05
1.92259e-05
-4.06586e-05
2.1432e-05
-5.06248e-05
6.62172e-05
-1.55916e-05
2.59882e-05
-1.1555e-05
4.06122e-05
-3.63399e-05
-2.87781e-05
-4.15123e-05
1.60736e-05
-1.22065e-05
1.3919e-06
7.52731e-06
1.03392e-05
-1.2738e-06
7.68975e-06
-4.17233e-06
-3.51744e-06
6.65042e-06
-5.72753e-05
3.70302e-05
2.51792e-05
2.15394e-05
-1.09123e-05
3.21001e-07
-2.6565e-07
-5.49655e-08
1.00213e-05
8.35481e-06
-7.02608e-06
2.2255e-05
3.18664e-05
-4.23963e-05
-2.25311e-05
-1.45275e-05
3.7059e-05
-1.73521e-06
-3.69297e-05
5.52349e-06
-5.36515e-05
-9.10908e-06
5.73375e-05
-4.8228e-05
-2.55466e-07
2.99456e-05
-6.86263e-06
1.95517e-05
-4.75185e-05
-3.58338e-05
-2.74112e-05
1.6361e-06
3.77241e-05
-1.95126e-05
-2.58441e-05
-1.70088e-05
8.55645e-06
-1.64958e-06
-6.9067e-06
1.72753e-06
1.24237e-05
-1.41511e-05
5.83015e-06
-5.37821e-05
-9.54433e-06
-3.85809e-05
2.03489e-06
3.65461e-05
9.9663e-06
2.63909e-06
-1.26054e-05
-1.29922e-05
-1.7023e-06
1.3701e-06
3.32223e-07
-6.2874e-06
-2.74156e-05
3.37017e-05
8.37767e-06
-2.59973e-05
1.76198e-05
1.35466e-05
1.29319e-05
-2.6478e-05
3.85671e-05
-1.27717e-05
-2.57953e-05
2.51906e-06
-2.51892e-06
-3.27355e-05
1.02046e-05
8.98958e-06
2.53164e-05
2.18886e-05
-6.27728e-05
3.84633e-06
-5.05845e-06
1.21221e-06
-2.15429e-05
-2.36753e-05
4.52195e-05
2.16446e-05
4.18255e-05
-2.25994e-05
4.48504e-05
-2.24445e-05
-7.68583e-06
-2.5315e-05
2.8234e-05
-7.39149e-05
1.39736e-05
-5.77219e-05
4.86128e-05
7.08207e-05
-8.03248e-05
5.04901e-06
-1.12137e-05
-9.27671e-06
2.04905e-05
4.48029e-05
1.07325e-05
-5.37986e-05
6.04308e-05
-6.63205e-06
-9.90762e-07
1.44229e-05
4.78455e-06
-4.80113e-05
1.80369e-05
1.95888e-05
-4.46979e-05
6.25689e-05
-1.78685e-05
-4.89521e-05
2.78298e-05
6.3446e-05
-1.70973e-05
2.16784e-05
-2.09499e-05
-7.28663e-07
-3.28417e-05
-6.3801e-05
-2.20422e-05
-8.56779e-06
-5.24981e-06
-1.02384e-05
-3.52011e-05
-2.915e-05
-3.58536e-06
3.87507e-05
-5.31558e-05
-2.66562e-05
-2.32541e-05
5.81834e-05
4.98437e-06
-1.33543e-05
4.88182e-07
-5.83107e-05
4.27415e-05
1.55692e-05
-5.29717e-06
-5.31993e-05
5.94078e-06
-2.93772e-05
2.27248e-07
2.0885e-05
1.68391e-05
-4.75262e-05
3.62641e-05
1.61996e-05
1.29825e-05
-2.91814e-05
5.64939e-05
-3.54807e-05
-2.10131e-05
2.57699e-05
-7.11884e-05
5.08578e-05
2.03316e-05
1.24289e-05
-2.94398e-05
1.70111e-05
2.07813e-05
1.50735e-05
-3.58549e-05
2.95544e-05
4.61185e-05
-5.34204e-05
-1.59671e-05
9.85164e-05
-7.17844e-06
1.44565e-05
3.39488e-05
-2.20045e-05
-1.19437e-05
8.1472e-06
7.00136e-06
2.53613e-05
-3.16477e-05
9.61305e-06
-8.84094e-07
-7.44218e-06
8.83398e-06
1.76684e-06
-1.6611e-05
2.36968e-05
2.48241e-05
-4.85209e-05
8.29994e-06
-3.0343e-05
-6.23528e-05
8.55436e-06
2.42446e-05
1.88834e-05
1.12315e-05
2.5881e-05
-3.84642e-05
1.25835e-05
7.46594e-05
-5.10477e-05
-2.36116e-05
3.00308e-05
2.24036e-05
-5.24316e-05
-1.9402e-05
4.87336e-05
4.28562e-05
-2.77565e-05
-1.5099e-05
-7.31519e-06
1.17898e-05
-4.47469e-06
-1.1939e-05
1.86085e-05
-6.66957e-06
-1.76723e-05
-4.21095e-05
5.33088e-05
-1.11991e-05
2.10241e-05
-2.61257e-05
5.10135e-06
3.1188e-05
7.37884e-06
6.83078e-06
3.106e-05
-2.24586e-05
3.14841e-05
6.33484e-05
-2.63179e-05
2.6941e-05
-5.91685e-06
1.4047e-05
1.50744e-05
-2.91211e-05
-3.02864e-06
-4.84492e-05
-1.70142e-05
2.53919e-05
-8.7003e-06
-1.72261e-05
-1.33931e-05
3.87633e-08
4.81027e-05
-1.61359e-05
-4.44714e-05
0.00011493
8.79555e-05
-1.62671e-05
3.14358e-05
-1.58363e-05
-1.55995e-05
3.57268e-05
-5.6308e-06
2.60608e-05
7.79051e-06
-3.38503e-05
1.3497e-05
4.67123e-05
-6.3429e-05
1.67178e-05
-2.74685e-06
1.30931e-05
1.44999e-05
-1.95132e-05
-9.82894e-06
2.93426e-05
-1.99518e-05
7.11154e-06
1.28399e-05
1.09087e-05
7.66466e-05
6.25292e-05
-6.77756e-05
5.24537e-06
2.6181e-05
-4.86366e-05
7.8974e-06
9.6547e-06
4.42431e-05
-2.14416e-05
-3.22398e-05
2.605e-05
6.1899e-06
-4.43735e-05
2.68716e-05
1.7501e-05
2.47806e-06
-2.79792e-05
2.5501e-05
-0.000110147
9.41796e-05
-4.14411e-05
-2.52156e-06
-9.29546e-06
-1.2803e-05
2.20985e-05
0.000132402
-4.83781e-06
-0.000127564
3.08896e-06
-2.89705e-05
2.58816e-05
2.10112e-05
-1.29221e-06
-1.50273e-05
-5.71346e-06
2.07411e-05
3.15376e-05
-2.84486e-05
-1.13595e-06
-1.34616e-06
2.48221e-06
3.15915e-05
-0.000140338
0.000108747
-1.32303e-05
-5.61796e-06
1.88435e-05
-2.12113e-06
1.16046e-05
4.13958e-05
-2.57534e-05
-1.56424e-05
3.12244e-05
5.01713e-05
-2.90831e-05
-2.10879e-05
0.000121869
9.73645e-06
-7.09977e-05
1.29872e-05
-1.84123e-05
5.17551e-06
4.58613e-06
-7.39642e-07
6.92094e-06
-5.09739e-05
4.4052e-05
1.44739e-05
-3.54983e-05
2.10281e-05
-2.43681e-06
8.34146e-06
-5.90445e-06
-1.5563e-05
-1.32676e-05
5.99095e-05
-4.66416e-05
-1.30289e-05
-3.07489e-05
4.37779e-05
-3.70756e-05
1.91988e-06
3.51555e-05
-5.07163e-05
3.15506e-05
1.91652e-05
6.53587e-06
-2.11409e-06
-4.4204e-06
-5.6995e-05
7.59211e-06
2.14838e-05
-3.19063e-05
-2.78028e-05
1.11728e-05
1.66301e-05
1.77386e-05
-9.73059e-06
-8.00847e-06
6.67402e-06
9.84888e-06
-2.04973e-06
-3.50258e-05
2.95776e-07
4.56008e-06
-4.85597e-06
-2.62146e-05
-2.45014e-05
7.56617e-06
-8.04916e-06
4.82982e-07
-1.30355e-05
-1.27967e-05
2.57288e-05
-9.77393e-06
3.12574e-05
1.12088e-05
3.86908e-05
2.36073e-05
1.86132e-05
-3.00756e-05
-3.25589e-05
-3.43773e-05
-3.68107e-05
-9.59489e-06
1.42365e-05
-4.64192e-06
2.85025e-05
3.69681e-07
-2.88721e-05
1.0906e-05
2.37045e-05
-3.46112e-05
1.31402e-05
-5.57408e-06
-5.19095e-05
4.11625e-05
1.07473e-05
-1.72292e-05
2.9658e-05
8.47942e-06
-2.35065e-05
1.10716e-05
2.00731e-05
-3.11441e-05
-1.90708e-05
-2.66329e-05
4.57054e-05
2.13706e-06
1.06515e-05
-1.27885e-05
8.65279e-06
1.43008e-05
-2.29523e-05
-2.7539e-05
3.14521e-05
-8.42551e-06
-1.37517e-05
1.65067e-06
-2.07148e-06
3.80035e-06
-5.58588e-07
-3.24152e-06
5.33814e-05
-9.52672e-06
-4.38565e-05
1.56551e-05
-3.11162e-06
1.74258e-05
2.68172e-05
1.57996e-05
4.93989e-07
-1.62924e-05
1.71275e-05
-3.23409e-05
-8.80369e-06
-4.10435e-05
-9.02859e-06
-8.81666e-06
8.97842e-06
2.24571e-05
-5.62767e-06
-4.33218e-05
-1.23811e-05
-1.98583e-05
1.07351e-06
2.74293e-05
8.94672e-06
-1.82422e-05
4.88341e-05
1.10104e-05
-2.09763e-05
3.54498e-05
-8.99601e-06
5.42057e-05
-4.52094e-05
5.83084e-05
-9.47369e-06
-1.53536e-05
5.75883e-06
-8.37107e-05
-4.7927e-07
8.41898e-05
6.78139e-07
1.03775e-05
1.83483e-05
-4.00461e-05
2.16982e-05
2.51772e-05
-3.03936e-05
-9.36911e-06
2.05386e-06
1.03749e-06
-7.16144e-07
9.59828e-06
5.58678e-05
-2.41389e-05
-3.17274e-05
6.27148e-06
-8.3927e-06
3.30199e-05
1.53917e-05
-4.84135e-05
-5.16836e-05
4.26875e-05
1.92071e-05
3.09645e-05
4.29302e-05
-1.54401e-06
-4.13857e-05
-4.69521e-05
2.58881e-05
2.1064e-05
6.48495e-05
-6.56686e-05
8.19139e-07
4.9687e-05
2.91512e-05
-2.66733e-05
2.95602e-05
-8.7789e-06
-5.31225e-05
-7.61541e-05
7.73349e-06
1.0005e-05
2.23421e-06
1.38394e-05
-1.44073e-05
2.28871e-05
-3.5992e-05
-2.84138e-05
4.61196e-06
3.29989e-05
-2.2093e-05
-2.70018e-05
1.99448e-07
2.68026e-05
2.14686e-05
-3.18423e-05
1.03737e-05
5.07384e-07
-5.07428e-07
1.80518e-06
2.45846e-05
-2.63894e-05
6.9667e-05
-7.44559e-05
4.78885e-06
-4.36072e-05
6.8464e-06
-8.42623e-06
4.34822e-05
0.000132989
-0.000101397
2.52806e-05
-1.00684e-05
1.74929e-05
-6.38503e-05
1.62807e-05
1.35071e-06
-1.31424e-05
-1.46603e-05
-3.16625e-05
2.82111e-05
-7.92158e-05
0.000116702
4.35625e-05
1.97854e-05
3.45142e-05
-1.64963e-05
-1.80182e-05
-3.87434e-05
1.17873e-05
2.69604e-05
-2.58433e-05
-1.40337e-05
2.18634e-05
-6.79381e-05
4.60746e-05
1.49734e-05
-1.60673e-06
3.32777e-05
-4.63066e-05
2.61553e-05
2.67728e-05
-3.1043e-05
2.93756e-05
1.6672e-06
8.88379e-07
-3.89482e-07
-4.98867e-07
5.77523e-05
-2.68564e-05
-3.08959e-05
-2.19802e-05
-5.78215e-07
2.25586e-05
2.26146e-05
-6.58666e-05
-1.78442e-05
-1.43443e-05
5.04436e-06
4.03991e-05
-4.5443e-05
-2.54691e-05
7.60987e-06
1.78595e-05
8.05298e-06
2.57234e-05
-2.86882e-05
2.9647e-06
1.12748e-06
-1.36978e-05
1.25703e-05
-1.28142e-05
1.53873e-05
1.85616e-05
8.46163e-05
-7.90092e-05
-5.60616e-06
-8.34919e-05
3.17347e-05
5.03501e-06
-3.6668e-05
-4.1622e-05
1.87492e-05
2.99223e-05
-4.19924e-06
-3.24077e-05
5.52722e-05
-2.28635e-05
1.68051e-05
2.75547e-05
-4.43595e-05
1.79292e-05
1.01359e-05
-2.80636e-05
1.49377e-05
-1.28008e-05
4.53889e-06
6.80797e-07
-5.21895e-06
1.52924e-05
-2.08016e-05
-4.38019e-05
2.4965e-05
1.88361e-05
3.34586e-05
-1.19318e-05
-1.02901e-05
2.95751e-06
7.33259e-06
-9.92134e-05
-2.92649e-06
-3.71096e-05
2.64584e-05
1.06518e-05
-1.88884e-06
-4.35804e-05
1.64857e-05
-1.73062e-05
3.7338e-05
-3.05671e-05
-1.86312e-05
9.75714e-06
1.65656e-05
-2.63251e-05
5.07482e-05
-1.77286e-05
3.42497e-05
-4.26773e-05
-6.58449e-06
-4.1377e-05
4.79617e-05
4.15395e-05
-2.59641e-05
-1.55763e-05
1.56957e-05
-1.89228e-05
6.98387e-06
3.73764e-06
-9.26811e-05
8.89441e-05
-1.53374e-05
2.39916e-05
2.34608e-05
-3.91136e-05
8.82057e-06
3.79449e-05
-4.78657e-05
9.92019e-06
2.24007e-05
2.48966e-06
-2.32132e-05
-2.40886e-05
3.4116e-05
5.1637e-07
-3.15594e-05
1.05645e-05
2.73942e-05
-3.7958e-05
1.81813e-05
-3.43707e-05
1.61885e-05
-2.70058e-05
4.53542e-05
-2.41677e-05
-1.45781e-05
9.68738e-07
-4.29523e-06
3.32636e-06
-1.02449e-05
1.12152e-05
-9.70232e-07
8.46824e-05
-5.48946e-05
9.64311e-05
-4.15361e-05
4.40701e-05
1.76215e-05
1.68922e-05
7.24023e-06
-3.60357e-05
7.9653e-05
-4.36166e-05
1.25933e-05
9.45421e-06
-2.38613e-05
-3.22824e-05
-7.63284e-06
3.99149e-05
1.1788e-05
-1.03081e-05
-2.84161e-05
3.87246e-05
-1.63732e-05
3.45536e-05
2.11263e-05
-3.16132e-05
1.04874e-05
5.4361e-06
-4.4017e-05
-2.45834e-06
1.87384e-05
-2.98677e-05
-4.96846e-07
-5.60406e-06
6.10067e-06
-6.69953e-06
4.46446e-05
4.50913e-06
-4.488e-05
4.03705e-05
1.66609e-05
-5.57696e-06
-1.10841e-05
8.26426e-05
-7.89054e-05
-2.9076e-05
4.58813e-05
1.2938e-05
-1.81866e-05
-1.32453e-05
3.76884e-05
-2.44425e-05
-2.4705e-05
1.89351e-05
4.0801e-05
1.56209e-05
-7.1785e-05
5.61643e-05
-6.1876e-05
4.11416e-05
2.07351e-05
-1.83224e-05
5.37026e-06
2.29004e-06
2.97084e-05
-1.91436e-05
3.71091e-06
9.17057e-06
-1.55035e-05
2.52711e-06
5.65469e-05
-1.24244e-05
-4.41225e-05
-1.90798e-05
0.000116164
-0.000156856
4.06959e-05
1.12636e-05
-3.0607e-05
1.93438e-05
2.9888e-05
-1.29915e-05
1.96926e-05
-4.81497e-06
-1.48776e-05
3.14658e-05
-5.06824e-05
6.63038e-05
1.1354e-05
-3.96552e-05
2.52284e-05
-5.10847e-06
-2.32802e-05
2.83887e-05
-0.000163303
8.47808e-05
7.85234e-05
3.77719e-07
1.29647e-07
1.7324e-05
-4.17675e-05
4.06808e-05
1.14368e-06
-1.382e-05
1.01214e-05
1.16926e-05
-5.38927e-07
-3.05606e-05
3.10998e-05
-6.80871e-06
-4.92119e-05
1.86454e-05
4.48004e-05
-9.6786e-06
4.90923e-06
1.0745e-05
8.29731e-05
-2.02174e-05
-6.27559e-05
-5.15618e-05
-3.39221e-05
3.69804e-05
1.45286e-05
2.45965e-05
2.59198e-05
7.21133e-05
-4.38789e-05
3.70526e-06
4.85128e-06
3.56077e-06
3.38334e-05
-5.77331e-05
2.39002e-05
-3.32975e-06
-1.54373e-05
1.87664e-05
2.33484e-05
-1.92433e-05
6.27172e-06
3.93063e-05
-4.55779e-05
-5.58542e-06
-1.43663e-05
3.42007e-06
-7.85515e-06
3.42492e-05
-2.6393e-05
3.57193e-05
1.67411e-05
-5.24598e-05
3.8128e-06
-2.92303e-05
2.54173e-05
2.43111e-06
-3.79117e-05
2.73504e-07
1.24674e-05
-1.27415e-05
-1.64795e-05
-1.29989e-05
2.94783e-05
1.17992e-05
2.64629e-05
-3.82621e-05
-2.27037e-05
-3.42193e-06
-5.07296e-06
3.27096e-05
7.53344e-06
3.60291e-05
8.13212e-06
-4.42366e-07
5.98984e-05
-0.00010849
4.8593e-05
9.56495e-07
-1.26718e-05
1.17148e-05
-7.04417e-07
-7.95352e-06
8.65782e-06
-8.80185e-06
4.07709e-05
-3.19689e-05
-4.28078e-05
-5.01057e-05
4.35213e-05
-2.62662e-05
2.80715e-05
2.83843e-05
1.53818e-06
6.44623e-06
-1.90761e-06
6.51657e-06
-1.77302e-05
2.90761e-05
-1.93206e-05
4.41773e-06
4.03823e-05
1.2967e-05
-1.89854e-05
6.01838e-06
-4.46027e-05
2.30599e-05
8.17891e-06
2.94922e-05
-8.36587e-06
4.20611e-05
1.06323e-05
-1.32603e-05
9.26834e-05
-2.57909e-05
-2.9331e-05
7.2313e-05
-4.29814e-05
-5.46595e-05
-9.04595e-06
6.37051e-05
-3.44201e-05
-2.74558e-05
4.42357e-05
-4.20861e-05
-2.14906e-06
4.86077e-05
-4.51741e-05
3.6487e-05
1.08242e-05
-2.01007e-05
8.6533e-08
3.73101e-05
-3.73975e-05
-3.59331e-06
-8.32405e-06
1.19178e-05
-1.83724e-07
-1.59856e-06
1.78293e-06
-4.23131e-05
3.35114e-05
-4.06442e-05
9.95369e-06
3.06907e-05
-1.38839e-05
3.97651e-05
8.17502e-06
-5.94063e-06
9.96592e-05
-6.24763e-05
-3.71815e-05
1.8043e-05
-3.98409e-05
2.17978e-05
4.10442e-05
1.88439e-05
-3.92074e-05
4.67413e-05
-1.4717e-06
9.4999e-06
-8.40872e-07
2.61252e-05
-2.52848e-05
-1.8364e-05
-1.31365e-05
3.79104e-05
5.02016e-06
-2.37609e-06
-2.62808e-06
6.17363e-05
-4.0042e-05
-2.16937e-05
-4.66676e-06
2.55232e-06
0.000104637
-4.19216e-05
-6.27149e-05
3.67204e-05
-1.30236e-05
-1.30743e-05
2.01856e-05
-0.000104925
5.00302e-05
3.2205e-05
-2.39047e-05
7.79367e-05
7.99909e-05
-3.59219e-05
-4.10043e-05
7.69273e-05
1.93491e-06
-1.48907e-05
1.29557e-05
-3.69655e-05
-2.04795e-06
3.90135e-05
2.66242e-05
-8.69623e-06
-2.01552e-05
4.29737e-05
-2.28189e-05
1.53954e-06
3.46415e-06
8.35535e-06
-2.78684e-05
5.04958e-05
6.0516e-06
4.08091e-05
-1.91925e-05
-2.16184e-05
2.58123e-05
2.94966e-05
1.7482e-05
2.39138e-05
-3.0852e-05
1.00496e-05
2.08023e-05
-1.79137e-05
8.35242e-06
2.07235e-05
-2.12559e-05
-2.22938e-05
4.35496e-05
5.31174e-05
-3.64125e-05
-1.67034e-05
4.55049e-06
6.58626e-05
-9.4573e-06
8.75047e-06
-6.0315e-07
1.70253e-05
6.323e-06