/*--------------------------------*- C++ -*----------------------------------*\
| =========                 |                                                 |
| \\      /  F ield         | OpenFOAM: The Open Source CFD Toolbox           |
|  \\    /   O peration     | Version:  v2012                                 |
|   \\  /    A nd           | Website:  www.openfoam.com                      |
|    \\/     M anipulation  |                                                 |
\*---------------------------------------------------------------------------*/
FoamFile
{
    version     2.0;
    format      ascii;
    class       volScalarField;
    location    "350";
    object      k;
}
// * * * * * * * * * * * * * * * * * * * * * * * * * * * * * * * * * * * * * //

dimensions      [0 2 -2 0 0 0 0];


internalField   nonuniform List<scalar> 
13308
(
0.000121384
9.92715e-05
0.00100749
9.82623e-05
0.000108928
9.61217e-05
0.000105386
0.000229378
0.000102432
0.000113018
0.000108991
0.0123409
0.000716669
0.000105157
0.000103363
0.000108682
9.18099e-05
9.63762e-05
0.000115812
9.61974e-05
0.000113707
9.41824e-05
9.37136e-05
0.0065263
0.000605518
9.4199e-05
0.00979001
9.45667e-05
0.00780782
9.51081e-05
0.0133109
0.00996318
0.00258412
0.00839711
0.000117753
9.84223e-05
9.33828e-05
0.000101409
9.89219e-05
9.93782e-05
0.000102408
9.61995e-05
0.00029348
0.000101903
0.0100659
0.00961889
9.65174e-05
0.000129356
9.79936e-05
0.000146388
0.0151628
9.89989e-05
9.55069e-05
0.00752243
9.61854e-05
9.61928e-05
9.49825e-05
0.00012082
0.000112727
0.000117673
9.19612e-05
0.000121021
9.73824e-05
9.95737e-05
9.39176e-05
9.19723e-05
9.87601e-05
0.0092528
0.0103382
9.65867e-05
0.000140392
9.72489e-05
9.17112e-05
9.31295e-05
9.57217e-05
0.000133495
0.00890503
0.000117343
0.00276102
9.70233e-05
9.18295e-05
0.000113079
9.23408e-05
0.000120767
0.0100684
0.000112691
0.000115135
0.000113176
0.000113843
0.00011435
0.000113726
0.00761405
0.000119878
0.00013791
0.000106729
0.000114215
9.21192e-05
0.000196541
0.000102142
0.000104539
0.000105726
0.000128513
9.58841e-05
0.000100638
9.1792e-05
0.000123472
0.00024783
0.000117704
9.62928e-05
0.000945292
0.000133845
0.00997377
0.000113578
0.00769034
0.000105806
0.00267047
0.000111289
0.000107564
9.68612e-05
0.000134192
0.000106585
0.000128537
0.000130067
0.000112947
0.000222386
0.00010838
0.00978577
0.000121837
0.000145349
0.00183902
0.000276686
9.74986e-05
9.87982e-05
0.000105181
0.000129363
9.85873e-05
0.000102249
9.5955e-05
0.000934374
0.000100816
0.0015978
0.00841474
0.00865232
0.000107174
0.0127775
0.000286431
9.79067e-05
0.000104274
0.000124039
0.007955
0.00673594
0.000102752
9.63348e-05
0.000101797
9.61602e-05
9.8425e-05
0.000125605
0.000102336
0.000212217
0.00830242
0.000126075
0.00934902
0.000107866
0.000102851
9.44238e-05
0.000245114
0.000105074
0.000923764
0.000459779
0.000127615
0.000202379
9.85179e-05
0.011783
0.000726369
0.000101652
0.000144922
9.31949e-05
0.000227725
9.88538e-05
0.000102189
0.000121879
9.67668e-05
9.45591e-05
0.011976
0.000105775
0.000101845
0.000129947
9.19643e-05
9.25495e-05
0.000107405
9.72923e-05
9.72747e-05
0.00026848
0.0064682
0.000191096
0.000265996
0.000118951
0.000124763
9.17002e-05
0.000191573
0.00202929
0.000104429
0.000109163
9.65235e-05
0.000113698
0.000207362
0.00010544
9.82806e-05
0.000124746
9.6419e-05
0.000104475
0.00701318
0.000141467
0.0012487
0.000108461
0.000113822
9.12679e-05
0.000446754
9.49452e-05
9.48478e-05
0.000103498
0.000134648
0.000105656
0.000121643
0.000103085
0.000439578
0.000105125
0.000146447
0.0182485
0.000111351
9.71678e-05
0.000133605
0.000105095
9.2933e-05
0.0001078
0.000101881
9.2136e-05
9.18976e-05
9.71418e-05
0.000111368
0.000100232
0.000114099
0.000129556
0.000271434
0.000117338
0.000108282
0.0021074
9.91085e-05
0.000129457
0.000101231
0.000119697
0.000103232
0.000261778
0.000137415
0.000143678
0.000112306
9.60414e-05
0.000112054
0.000106708
0.00010755
0.000108856
9.13694e-05
9.4505e-05
9.17947e-05
0.00876254
9.91979e-05
0.0011368
0.000123428
0.00770419
0.00012146
9.48913e-05
0.000107978
0.000111358
0.000101632
0.000217887
0.000482566
9.21024e-05
0.000111304
0.000204553
9.48492e-05
0.000112536
0.000106638
0.000176507
0.000124558
0.000121883
0.000135461
0.00013335
0.000150411
9.25962e-05
9.63251e-05
0.00205194
0.00797257
0.00135062
0.00898645
0.000111477
9.31004e-05
9.89418e-05
0.000120069
0.00788657
0.000109828
0.00915409
9.65841e-05
0.000108357
0.000106279
0.000128579
0.000122177
0.000107134
0.000118989
0.000113024
0.000102542
9.98802e-05
0.000106996
0.0149151
0.000106513
0.000237145
0.00849453
0.000310925
9.64249e-05
0.000240246
0.000103108
0.000111206
0.000130289
9.6379e-05
9.26523e-05
0.000100642
0.000127731
9.65508e-05
0.000120887
9.9145e-05
0.000108107
0.000169814
0.000264871
0.000111694
0.000108323
0.000104669
0.0161269
0.00022164
0.000104248
9.49714e-05
9.717e-05
0.00215572
0.000136012
0.000107755
0.000111582
9.91161e-05
0.000132851
0.000100142
0.000102143
0.000105784
0.0204181
9.66017e-05
0.000102154
0.000113254
9.83388e-05
0.000155108
0.000103225
0.000108806
0.00194516
0.000383
0.000125213
0.00011902
9.64853e-05
0.0115411
0.000108177
0.000314055
9.71016e-05
0.000118024
0.000372385
0.000145383
0.000102785
0.000193113
0.00823969
0.000158876
0.000382291
0.00010585
0.000106027
0.000241897
0.000101288
0.00024217
9.83441e-05
0.000125904
0.000133956
0.000121314
0.000188551
0.000132742
0.000114209
9.47957e-05
0.000108379
9.50352e-05
0.00657199
0.0078427
9.88029e-05
0.000101841
0.014285
9.87845e-05
0.000151901
0.000121249
0.000111646
0.000287419
0.00905996
0.000121332
0.000115985
0.000114105
0.000126384
9.90333e-05
9.50356e-05
0.000114825
0.000124967
0.00393485
0.000108223
0.000256208
0.00918615
0.000349761
0.000103803
0.0063127
9.71435e-05
0.000120202
0.000121256
0.000115737
9.70638e-05
9.52962e-05
0.000130545
0.000120606
9.86116e-05
0.0168916
0.000107102
0.000111046
0.00691383
0.00318808
0.00288452
0.000106714
0.00697104
0.00923721
0.000114468
0.000106852
0.00011879
9.29785e-05
9.59134e-05
9.65776e-05
0.000104835
0.000117416
0.000115946
0.000116818
0.000114886
9.53964e-05
0.00839026
0.000183077
0.000124653
0.00010948
0.000244779
0.000196478
0.000103875
0.000104795
9.63694e-05
0.000117076
0.0127363
9.87224e-05
9.68313e-05
0.000273447
0.000196515
9.73927e-05
0.000108727
9.51033e-05
0.000138733
9.64577e-05
9.93771e-05
9.9305e-05
0.0199606
9.65627e-05
9.99913e-05
0.000115199
9.97724e-05
0.000119654
0.000226992
0.000117606
0.000140976
0.000104385
0.00014166
0.000110119
0.000149193
0.000125105
0.000125351
0.000113492
0.00012868
9.85239e-05
0.0102755
0.000102039
0.00900799
9.47345e-05
0.000111564
9.8228e-05
0.0117613
9.67083e-05
0.000120406
9.66331e-05
0.000119514
0.000187092
0.000120226
0.000114714
0.000102289
0.000104426
0.0121234
0.000114196
0.0104322
0.000105102
0.00928186
0.000121719
0.000223044
9.93547e-05
0.00950584
0.000101916
0.0102669
0.00777057
0.000104435
9.93118e-05
0.00125144
0.00317917
0.000132576
0.000122425
9.9896e-05
0.000122437
0.00868947
9.67949e-05
0.000339943
0.000665148
0.0186335
0.000180147
0.000120294
0.013865
0.000120396
0.000121762
0.000136552
0.00688102
0.00011067
0.00010252
9.91868e-05
0.000108241
0.000106233
0.000442692
0.00013753
0.000210192
0.00804766
0.0155228
9.91479e-05
0.000121887
0.00011594
0.000141113
0.0146205
0.000943268
0.0001885
0.000119141
0.000132864
0.000227092
0.000122204
0.000123103
9.20004e-05
0.000119688
9.63508e-05
0.00023751
9.14028e-05
0.000111324
0.000127116
0.000120355
0.0001057
0.000130818
0.000111064
0.000200181
0.000119499
0.00014602
0.000126039
0.00879991
0.000115228
0.000110637
0.00777086
0.00011894
0.0127113
9.85539e-05
0.000145917
0.000126596
9.92221e-05
0.000102506
0.000104385
0.000107619
9.66414e-05
0.000120269
0.000121956
9.78669e-05
0.000127381
0.000139757
0.000219514
9.77608e-05
9.59484e-05
0.000104732
0.000165664
9.86945e-05
0.000110835
9.84582e-05
0.000118194
9.69693e-05
0.00888243
0.00670168
0.000124133
0.000117856
9.90682e-05
0.000104924
9.85607e-05
0.00997334
0.000135797
0.000165031
9.65614e-05
0.000118216
9.14662e-05
0.000143554
0.00751718
0.000103887
0.00223539
9.82093e-05
0.000101581
0.0168862
0.000362666
0.00263092
0.000100632
0.000119655
0.00772765
0.00247593
0.000126315
0.00930314
0.000182298
0.000170785
0.000111536
0.00879497
9.75784e-05
0.000115822
0.000102789
0.000139935
0.000119134
0.000115646
0.000102092
0.000115113
0.004757
0.019069
0.0152248
0.000271132
0.000119906
0.00011103
0.000110097
0.000111054
0.000123023
0.00012057
0.00010995
0.000189784
9.54322e-05
0.00835089
9.2612e-05
0.0100499
0.000113314
9.29565e-05
9.2179e-05
0.000106855
0.00010611
0.000110851
9.73682e-05
9.84535e-05
0.0105119
0.000119529
0.000127657
0.000183752
0.000126237
0.000129965
0.000101891
0.00717697
0.000136073
0.000107115
0.000108604
0.000108675
0.000100632
0.000111213
0.000110718
9.48934e-05
0.0141437
0.00914825
0.000114209
0.0133605
0.000134503
9.37993e-05
0.00826043
0.000136267
0.000128655
9.63906e-05
0.000106206
9.18245e-05
9.88171e-05
0.00861104
0.000147031
0.000101833
0.000103415
0.00197002
9.20927e-05
0.000123558
0.000107634
0.000103876
0.000101158
0.00789351
0.000106674
0.000102936
0.0172699
0.000370275
0.000119988
0.000103591
0.00262905
0.000100929
0.00816455
0.000108501
0.000115852
0.00010339
0.000101449
0.000123968
0.000129401
9.80321e-05
0.000339592
0.000135016
0.000103872
0.00807205
0.000103486
0.000101587
0.00011283
0.00871402
0.000131564
0.000184535
0.000110297
0.000134322
0.0198262
0.00014604
0.000143337
0.000116424
0.0091758
0.000136367
0.0067288
0.000106518
0.000162453
0.000216842
0.000107227
0.000110615
0.000106512
0.000134457
0.000110389
9.95381e-05
0.000103389
0.000152123
9.95842e-05
0.000339455
0.000122095
0.00687193
0.000115369
0.000174966
0.00360249
0.000141622
0.00215475
9.90955e-05
0.000137063
0.00010021
0.000162133
0.000106315
0.000103952
0.000107419
0.000129966
0.000104881
0.000108423
0.0171432
9.69823e-05
0.000365078
0.000138091
0.000112502
0.000135819
0.00809839
0.000104176
0.00615099
0.0132406
0.000149204
0.0124686
9.68868e-05
9.83561e-05
0.000114937
9.367e-05
0.000115363
9.56191e-05
0.00840434
0.0170896
0.00826271
9.65963e-05
0.000122501
0.000111586
0.000111997
0.000109316
0.00038244
0.000106956
0.000107147
0.000111779
0.0118583
0.000142718
0.000120625
0.000136815
0.000103754
0.000121349
0.000129339
0.000207368
0.000117942
0.000100129
0.000115845
0.00379612
9.86539e-05
0.00772036
9.61499e-05
0.000546393
0.00011576
0.000107769
0.000101984
9.86695e-05
0.000116169
9.92626e-05
0.000104324
0.000206172
0.000180414
0.00803922
0.000122584
0.000107223
0.000108057
0.000110974
9.64539e-05
0.000119693
0.000129338
0.0187845
0.000110889
0.000117161
0.000112754
0.000101674
0.000107946
0.000100233
0.000115175
0.000118358
0.000109051
0.00010922
0.0199081
0.000100704
0.000110811
9.92732e-05
0.000113578
0.000105068
9.23084e-05
0.000125006
0.000103984
0.0121492
0.00254437
0.000109804
0.000115495
0.00011174
0.000138745
9.64888e-05
9.93526e-05
9.41235e-05
0.000123106
0.000111858
0.000137875
9.75587e-05
0.000249251
0.000111221
0.0001098
0.00698619
0.00010603
0.000109951
0.000131089
0.000111104
0.00833026
0.000101928
0.000146188
0.000105017
0.000127703
0.000201982
0.000100603
0.000104405
0.00651782
0.00011391
0.000115244
0.000100283
9.71657e-05
0.000119152
0.0017651
9.62744e-05
0.00835828
0.00304897
0.000118867
0.000215932
0.000100827
0.0119071
9.35617e-05
0.00184068
0.0143889
0.00012112
9.90661e-05
9.71795e-05
0.000101261
0.000110214
0.013021
9.28721e-05
0.000148348
0.000116659
0.000102662
0.000202223
0.00702088
0.000135447
0.0192131
0.000101547
0.000104684
0.00910629
9.38174e-05
0.000119774
0.000314392
0.000104207
9.6709e-05
0.000128251
0.00822998
0.000119646
0.0118547
0.0180901
0.000105538
0.00017882
0.000292011
0.000111377
0.000114595
0.000104467
0.00010362
0.00020982
0.000123325
0.000735697
0.00011929
0.000111255
0.000123857
0.0177079
0.000105409
0.000190883
0.00277172
0.000108179
0.00859379
0.00012037
0.0119187
0.00011704
0.00827146
0.000147741
0.000109005
0.00010491
0.00247558
0.000123516
0.000122017
0.000131373
0.000102308
0.00749746
9.66288e-05
9.84266e-05
0.000108066
0.000118761
0.000103356
9.75386e-05
0.000116278
0.000137121
0.000114253
0.000103197
0.000148542
0.00010788
0.000109326
0.000134993
0.000139252
0.000113865
0.0001109
9.70394e-05
0.000124081
0.00792061
0.000106247
0.000107893
0.000104366
0.0082211
0.000100169
0.00834115
9.20878e-05
0.000111978
0.000221054
9.41307e-05
0.00878679
9.203e-05
9.77254e-05
0.00120175
0.000114659
0.000198373
0.000279505
0.00831197
0.000128284
0.00010105
0.000110597
0.000115192
0.000128824
0.000103697
0.000107764
0.000109292
0.000108517
0.000101817
0.000120612
0.000274804
0.00173846
0.016162
0.000103401
0.00777138
0.000102816
0.000114584
0.000161883
0.000132343
0.000149273
0.0146815
0.000146818
0.000104678
0.00829832
0.000132087
9.37018e-05
0.00251224
0.000106126
0.000121208
0.000104629
0.000102589
9.69812e-05
0.012491
0.000176767
0.000166825
0.00112317
0.000619718
0.0106704
0.000100706
0.000533667
0.000131922
0.00686751
0.000104592
9.62902e-05
0.000107942
0.000211831
0.000108911
9.3885e-05
0.000111114
0.000114878
0.000108287
0.000123115
0.000216147
9.36505e-05
0.000148527
0.000148365
0.000105955
9.50488e-05
0.00010602
0.000102067
9.27035e-05
0.000108578
0.000109392
0.000132863
0.000106157
0.00120832
0.00010034
0.0147109
0.000105453
0.000106028
0.000164494
0.000127047
0.0201419
0.000116547
9.60168e-05
0.000109685
9.85766e-05
0.000201772
0.0001152
0.000103151
0.000110907
0.000122815
0.000110745
9.66449e-05
0.000106825
0.0121029
0.000111085
0.000113404
0.00011276
0.000105278
9.92347e-05
0.000116409
0.0001127
0.000108666
9.48688e-05
0.000562308
0.00011892
0.00010681
0.000113338
0.000180346
0.00012266
0.000101021
0.000234915
9.08945e-05
0.00011601
0.00010406
0.000110803
0.000109506
0.000113123
0.000107048
0.000106785
0.0088709
0.00101801
9.39517e-05
0.000108338
0.000117103
9.5527e-05
0.00231238
0.000112583
9.37389e-05
9.44973e-05
0.000102729
0.000171323
0.000101369
0.000105055
0.000177394
0.000136251
0.0141052
0.000128857
9.55288e-05
0.00011003
0.0125687
0.00010608
0.000114666
0.000105142
0.000117165
0.000109859
0.000108012
0.000207191
0.0001261
9.3786e-05
9.56997e-05
0.000100685
0.000146082
9.41467e-05
9.55251e-05
0.0188311
0.000120031
0.000103207
9.31349e-05
0.0109464
9.35837e-05
0.000125277
0.000114862
0.000110665
0.000100875
0.000120084
0.000104628
0.000217069
0.000102604
0.000108827
0.000120897
0.000102455
0.00853038
0.000105767
0.00988989
0.000217827
0.000111042
0.00902164
0.000146791
0.000108043
0.000107268
0.000101224
9.63196e-05
0.000113096
0.000198218
0.000135344
0.000115871
9.79524e-05
9.98823e-05
0.0102044
0.000170608
9.71726e-05
0.000123402
0.000107276
0.000103543
0.0182661
9.7473e-05
0.000116186
9.32991e-05
0.000105788
0.000108238
9.33822e-05
0.000146139
0.000972741
0.0173355
0.000107278
0.000111253
0.000107497
0.000122353
0.000116192
0.000132966
9.43104e-05
0.00797732
9.69783e-05
0.000221132
0.00211031
9.08326e-05
0.000111339
0.000103056
0.000117234
0.0142575
0.000709114
0.000103421
0.000116493
0.000105423
0.00953334
0.000136211
0.000106425
9.39461e-05
0.00245908
0.00010891
0.000112715
0.000150696
0.000111864
0.0116847
0.000104415
0.000114705
0.000118652
0.000244701
0.000199601
0.000116938
0.0078
0.000105042
0.000116439
0.000191271
0.000120869
0.000103729
0.000118841
0.000103426
0.000106945
0.000105939
0.000109828
0.000164582
0.000102964
0.00818634
0.000129123
0.000120955
0.00896421
9.70754e-05
0.000111163
0.000162804
0.000236412
0.000101064
9.2467e-05
0.0194335
0.000102516
0.000110687
9.35924e-05
0.000108611
0.000106298
0.000107305
0.0126411
0.000147136
0.000139775
0.000113946
0.00011023
0.000102417
0.0057161
0.0001426
0.000103304
0.000127571
9.44901e-05
0.000145143
0.000124694
0.0100837
0.000104273
0.000113346
0.000107799
0.000112558
0.000147021
0.000107869
9.61255e-05
0.000147433
9.99119e-05
0.000142705
0.000278885
0.000185821
0.000126972
0.0017965
0.000120951
0.000105128
0.00491557
9.60093e-05
0.000111478
0.000133479
0.00820831
0.000249307
9.55049e-05
0.000114424
0.00772703
0.000217989
0.000103396
0.00807419
0.00881206
0.0185798
9.71555e-05
0.000110202
0.00014673
0.000105115
0.000104043
0.000115286
0.000135029
0.000111802
9.74914e-05
0.000108737
0.0002785
0.000137644
0.0160535
0.000101061
9.45568e-05
9.3472e-05
9.93938e-05
0.000116296
0.000101808
9.87297e-05
0.000109496
0.000213675
0.000116525
0.00011644
0.000106979
0.000105465
0.000113365
0.000184138
0.000142036
9.6249e-05
0.000117905
9.91772e-05
9.66843e-05
0.000116005
0.00011452
0.0101124
0.000105935
0.00011107
0.00014526
9.60333e-05
0.000119196
9.26636e-05
9.84559e-05
9.68195e-05
0.000113578
0.00283624
0.000100474
0.00099695
0.0199308
0.000334393
0.00863021
9.69729e-05
0.000112501
0.000194726
0.0145205
9.71815e-05
0.000148341
9.86121e-05
0.000117326
0.000106075
0.0168803
0.000100307
0.000117191
0.000129703
0.0134332
0.000110664
0.00221705
0.000186581
9.3729e-05
0.00010466
0.000110477
0.000105562
0.00010537
0.000795766
9.71301e-05
0.000113072
0.000133625
0.000110438
0.000124347
0.000111778
9.94702e-05
0.016472
0.000108341
0.0111753
0.000105418
0.000110311
0.0156083
0.00918294
0.0148732
0.000103543
0.000106306
0.000119966
0.0191041
0.0014839
0.000124124
0.000111879
0.00109924
0.000114925
0.000134362
0.000105281
9.65546e-05
0.000104238
0.000114057
9.39195e-05
0.000181661
0.000104571
9.8561e-05
0.000110758
0.000112609
0.00010856
0.000823115
0.000167865
0.000118227
0.0153752
0.000111833
0.000115336
0.000101271
0.000217648
9.48776e-05
9.46544e-05
0.0219614
0.00011113
9.67704e-05
0.000122952
0.000102675
0.000105823
0.000110505
0.000100694
0.0139079
0.000104416
0.000111035
0.000110926
0.00992687
0.00991948
0.000116888
9.81417e-05
0.000108549
0.0095506
0.000127373
0.000106252
0.0127203
0.000147251
0.000182259
9.94896e-05
0.000147158
0.000122769
0.000119797
0.00643788
0.000216712
0.000115771
9.82841e-05
0.00163144
0.000116095
0.0104524
0.016781
0.00793596
0.000101985
9.98674e-05
0.000104534
0.00010135
0.00921054
0.000111247
0.000153517
0.000100519
0.000114318
0.000130489
0.000124873
0.00898283
9.47972e-05
0.000106508
0.000105387
0.000115491
0.00011288
0.0102424
0.000102388
0.000105804
9.28593e-05
0.000143528
0.00879778
0.000100822
0.00939315
9.37915e-05
0.000139683
0.000107815
0.000105817
0.000122823
0.000108865
0.00010515
0.00010311
0.000118617
0.000114618
0.000132324
0.000151073
0.000103253
0.000109955
0.00011155
0.000101102
9.93013e-05
0.000145726
0.0103657
0.000129706
0.000104545
0.00010026
0.000103389
0.0110304
0.000110969
0.00231981
0.00269671
0.000116855
0.000114713
0.000111182
0.00011198
0.00979115
0.000125346
0.00153142
9.91255e-05
9.09183e-05
0.000108762
0.000108026
9.96957e-05
0.000175956
0.000105392
0.00675169
0.000218012
0.000119818
0.0134689
0.000118522
0.000148395
0.00010205
0.000102281
0.000139647
0.000169384
0.000104307
0.000111659
0.000108548
9.97085e-05
0.0121278
0.000110942
0.000103931
0.000112654
0.000101087
0.00457375
9.69654e-05
9.71319e-05
9.90642e-05
0.000104462
9.22533e-05
0.000105858
9.61672e-05
0.000102508
0.000105561
0.00010269
0.000117286
0.000929798
9.51637e-05
0.000111306
0.000284457
0.00012813
9.59644e-05
0.00014871
0.000103425
0.000103347
0.0205071
0.000133009
0.000100453
0.000104165
0.000171272
0.000121863
0.000103482
0.000104415
0.000100628
0.00010546
0.000110438
0.000126369
0.000240728
0.000130634
0.00698929
9.55997e-05
9.77927e-05
9.52615e-05
0.00911712
0.000124995
9.9787e-05
0.000100001
0.000191394
0.000144364
0.000115144
0.000105298
9.97902e-05
9.79061e-05
0.000131358
0.000113496
0.000128557
0.000276886
0.000111401
0.000101174
0.000124957
0.00956221
9.63237e-05
0.000101387
0.000137005
0.000115212
0.00160247
0.011614
0.000118641
0.000113732
9.43861e-05
9.69583e-05
0.000111842
0.00876233
0.00905263
0.000108844
0.000104395
0.000102355
0.000258604
0.000133619
0.000190059
0.000207239
0.000107565
0.000296762
0.000106146
0.00136066
0.000137867
0.000139966
9.95054e-05
0.00014412
0.000122528
0.000142886
0.000101605
0.00990435
0.000105793
9.82171e-05
0.000148501
0.0181769
0.000104285
0.0141797
0.000115488
0.000117226
0.000122227
0.000111628
0.000103326
0.000111873
0.00019835
9.25562e-05
9.58869e-05
0.000115688
0.00011684
0.000144246
0.000101386
0.0115413
0.000100048
0.000109897
0.000119799
0.000137802
9.6705e-05
0.000110016
0.0092035
0.000102621
0.000107065
0.000103631
0.000185769
9.20156e-05
0.000103783
0.000151477
0.0125105
0.000103083
0.00011648
0.000128001
0.000159047
9.47279e-05
0.00011119
0.000110504
0.00205016
0.000181938
9.67658e-05
0.000114063
0.000128757
9.74534e-05
0.000166602
0.0001143
0.00801423
0.000131666
0.00010151
9.85468e-05
0.000105186
0.000110347
9.9804e-05
0.000108133
9.76948e-05
0.0122949
0.000102842
0.000111375
0.000182706
0.000103126
0.000112274
0.000111179
0.000100488
0.000155067
0.000102599
0.000112882
0.000126463
0.000124513
0.000112876
0.00011183
0.0188499
0.000126986
0.000100756
0.000113205
0.000109481
0.000110251
0.00926823
0.000110036
9.67596e-05
0.00021366
0.000121504
0.000109946
0.000151936
0.000116686
0.000108022
0.000170357
0.000125892
0.00884608
0.000108516
0.000107181
0.000102376
0.00994172
9.09001e-05
0.000110824
0.00103894
0.00012979
0.000233342
0.000108394
0.000102193
0.0137326
0.0152408
0.0145988
0.00010695
0.000140923
0.000105562
0.000880911
9.8607e-05
0.0229367
0.000115466
0.000109125
0.000550895
0.000100534
0.000124087
0.000105534
0.000110955
0.000113358
0.000117032
0.000109852
0.000272501
0.000134298
0.000102901
0.000943667
0.000107716
0.000131738
0.000115299
0.000110305
0.000120093
0.00044329
0.000132411
0.000375643
0.00010979
0.00019874
0.00737056
9.48158e-05
0.0121815
9.72059e-05
9.43618e-05
0.000100836
0.000107246
0.000124751
9.96638e-05
0.000127745
0.000104011
0.000167413
0.000107109
0.000632367
9.74752e-05
0.000105503
0.00010473
0.000104215
0.000150523
0.0114048
0.000106032
0.000102641
0.000143094
9.07286e-05
0.000103519
9.77384e-05
0.00747957
0.000102763
0.000105827
0.000105182
0.000100629
0.0203457
0.0192544
0.000109289
0.0126376
0.0132742
0.000109971
0.00662996
0.000111812
9.48812e-05
0.00124452
0.000100049
0.00593572
0.000106989
0.00020181
0.000104297
0.00010763
0.00579128
0.00794329
0.000106459
0.000103055
0.000102008
0.000190229
0.00010808
0.00727029
9.80562e-05
0.00197079
0.0069564
0.000106305
0.00921129
0.000129997
0.0160848
0.000105928
9.9494e-05
0.000106882
9.51958e-05
0.000125749
0.0112534
0.000112672
0.000106881
0.000108938
0.000108748
9.42901e-05
0.000123071
0.000225498
0.000105037
9.83526e-05
9.91832e-05
0.000102622
0.0153836
0.000116728
0.0219361
0.000372063
0.00010069
0.000112277
0.000121789
9.90832e-05
0.00736369
0.00010279
0.000120044
0.000130089
0.000101523
9.77142e-05
0.000185081
0.000103722
0.000102545
0.000124736
9.55206e-05
0.000112459
0.000111711
9.69471e-05
0.000116383
0.000110008
0.000184166
0.000146027
0.00749564
9.43761e-05
0.0137867
0.000104167
0.000199372
0.000100136
0.000105577
0.000156179
0.00010821
0.000521011
0.000646114
0.000124691
0.000129921
0.000195138
0.000125345
0.000110636
9.89009e-05
0.000236674
0.000105382
9.92395e-05
0.000113977
0.000110149
0.000136737
0.000103643
0.000107213
0.00010818
0.00010946
0.000125254
0.0233046
0.000121434
0.000119587
0.000135333
9.36471e-05
9.08392e-05
0.000136489
0.000106822
0.000110624
0.000104394
9.48883e-05
0.000104701
0.000103165
0.000126078
0.000126921
0.0120203
0.000107533
0.0110216
0.000129163
9.58337e-05
0.0095289
0.000107832
0.000126777
9.84013e-05
9.88814e-05
9.90925e-05
0.00010716
0.000115886
0.000101246
0.000108605
0.00010486
0.0108181
0.000100347
0.00777041
0.0070265
9.20299e-05
0.000104102
0.0127856
0.000149603
9.34573e-05
9.11077e-05
0.000103977
0.000106839
0.000125293
9.58373e-05
0.000229445
0.000110753
0.000103306
9.95713e-05
0.000132182
0.000130776
0.000162547
0.000109977
9.92462e-05
0.000102384
0.000116104
9.75819e-05
0.000130504
0.000149348
0.000101343
0.000102232
0.00015071
0.000142508
0.000117911
0.000100564
9.81853e-05
0.000111444
0.00165047
0.000102445
0.012356
0.000147162
0.000102788
0.00014198
0.000124814
0.000106002
0.000163671
0.000144791
0.0118999
0.000103375
0.000198986
0.000122355
0.000306719
0.000428613
0.0100494
0.000143961
0.000111229
0.000100273
9.99389e-05
0.000163209
0.0153083
0.000663313
0.00010369
0.000159901
9.93283e-05
0.0139617
0.000111204
0.000162087
0.000124053
0.000100745
0.000138341
0.000105463
0.00010382
0.000114949
0.000123551
0.000105527
0.000113529
0.000110327
0.0173646
0.0117725
9.50892e-05
0.000106503
0.000115055
0.000104677
9.70167e-05
0.000104284
0.000103113
0.000100029
0.000153395
9.35124e-05
9.50921e-05
0.000114957
0.000113431
0.000100945
9.93558e-05
0.000104773
0.000102928
0.0103957
0.000112799
9.91604e-05
9.45268e-05
0.000115327
0.000332194
9.6602e-05
0.000105247
0.000143861
0.000130749
0.000102242
0.0129492
0.00010967
0.00011924
0.000216034
0.00014664
0.000163806
9.57475e-05
9.87521e-05
9.7827e-05
0.000143896
0.000106929
0.0122106
0.00010322
0.000112568
0.000110458
0.000102506
0.000117327
0.00027784
0.000104484
0.000124238
0.000116771
0.000123681
0.000103331
0.000129391
9.87221e-05
9.6954e-05
0.000214226
0.000176424
0.0147661
0.000105696
0.000125274
0.000106964
0.0100686
0.000105333
0.000108683
0.000101605
9.66239e-05
0.000170339
0.000108743
0.010015
9.39194e-05
0.00011434
0.000105321
9.83273e-05
0.000875426
9.81041e-05
0.000112078
9.7147e-05
0.000101511
9.98819e-05
0.000116587
0.000107519
0.000118875
0.000101395
9.7698e-05
9.5476e-05
9.485e-05
0.000116062
0.000103968
0.00844617
0.000475444
0.000176424
0.00929433
0.00011452
0.000111001
0.000100343
0.000152906
0.00885357
9.83713e-05
0.00413576
0.000117366
0.000111849
0.00910458
0.0192159
9.76451e-05
0.000108811
9.72525e-05
0.00919973
0.0001004
0.000107345
0.000203968
0.00213432
0.000608161
0.00217375
0.000101311
0.000110859
9.33773e-05
0.000145166
0.000151008
0.000111018
0.000103097
0.000102831
0.000213199
0.000111125
0.0128978
0.000103276
0.00011028
0.00930452
0.010869
0.000126798
0.000116058
0.0114889
0.000196688
0.000172463
0.000584517
0.00630052
9.94089e-05
0.000123812
0.000100675
0.000117096
0.000111947
0.000119174
0.000117673
0.0123245
0.000111055
0.000155963
9.78855e-05
0.000103235
0.00776736
0.000162701
0.0108858
9.51127e-05
9.50138e-05
0.0101272
0.00087902
0.000242087
0.000127661
0.000114691
0.0001003
0.000135461
0.000101627
0.000122668
0.000118729
0.0125462
0.000105551
0.020661
0.0151878
0.000141395
0.000100826
0.000119155
9.70395e-05
0.00129412
0.000199735
0.000106732
0.000106587
0.000137379
0.00019695
9.65461e-05
0.000131412
0.000126338
0.000102784
0.000104089
0.000146247
0.011156
0.000137698
0.000133446
0.00786536
0.000111464
9.22046e-05
0.000104474
0.0080326
0.00250079
0.00813983
0.000110475
0.000122822
9.53703e-05
0.000157479
9.23693e-05
0.00804818
9.7831e-05
0.00010213
0.000131295
0.000121974
9.44211e-05
0.000115134
0.000104638
0.000112073
0.0147858
0.00012202
0.000113968
0.000110042
0.000141562
0.000116173
0.000109654
0.00822102
0.000149339
9.78797e-05
0.000158497
9.25562e-05
0.000119188
0.000156096
0.000166055
9.52315e-05
0.0162416
0.00109697
0.000111092
9.39492e-05
0.000118105
0.000139687
0.000110538
0.00013668
0.000159126
0.000122878
0.0100621
0.000123957
9.88622e-05
0.000112796
0.000122296
0.0083718
0.000111352
0.000376922
0.000104471
0.000375856
0.000182678
0.000105513
0.000102193
9.49145e-05
0.0141244
9.10352e-05
0.00011539
0.000118052
0.00018822
0.00884404
0.0172625
0.000129476
0.000104009
0.0121593
0.000100806
0.000171287
0.00413657
0.000181345
0.00922346
0.000116038
0.000110244
0.000169486
9.80511e-05
0.000108469
0.000117418
0.00950014
9.83357e-05
0.000178171
0.000124788
0.000100501
0.00235295
0.000113385
0.00012902
9.5484e-05
9.25834e-05
0.00014874
0.0162362
0.016941
0.000113451
9.82546e-05
0.000137983
0.000110033
0.000113787
0.000105901
0.000216764
0.01496
0.000130365
0.000279354
0.000103676
0.00825929
0.0086832
0.000107254
0.000105705
0.000176192
0.000146338
0.000111742
0.000109997
0.000142527
0.00880955
0.000119426
0.000161042
0.0153929
9.33619e-05
0.00873146
0.00274163
0.00892888
0.000105781
0.000124777
0.000100908
9.57262e-05
0.000111449
0.000148422
9.82535e-05
0.000114906
0.00016586
0.000117532
0.0193362
0.000106903
0.000176943
0.00010048
9.44986e-05
0.000575814
0.000106583
0.0108732
0.000105771
0.000112222
0.00011099
0.000106726
0.000107478
0.00010155
0.000102673
0.00598642
0.000170974
0.000111102
0.00010708
0.000118003
0.0108994
0.000110741
0.0206018
0.000116531
0.000310243
0.000110184
0.000106769
0.000515915
0.000101938
9.59885e-05
9.91592e-05
0.000147213
0.000527431
9.72567e-05
0.000108955
0.00828852
0.00013053
0.00855249
0.00952517
0.000110519
0.000109542
0.0189914
0.00678928
0.000106252
0.00963073
0.000103972
0.000129514
0.000110897
0.0220624
0.00010245
0.000112312
0.00687815
0.00012534
0.000106928
9.8564e-05
9.71534e-05
0.00104989
0.0198281
9.9017e-05
9.99118e-05
0.000106256
9.90292e-05
0.0064927
9.92343e-05
0.000101054
0.00637079
0.00010994
9.68803e-05
0.000125192
9.76948e-05
9.45739e-05
0.000110202
0.000132534
0.000105346
0.000105889
0.00722906
0.000188042
0.000102954
0.00654956
0.000122754
9.55708e-05
0.00357207
0.000138875
0.00011905
0.000198465
0.000117042
0.000106027
0.000105064
0.000134417
0.000125273
9.69869e-05
9.93771e-05
9.95631e-05
0.00775147
0.000146178
0.000112244
0.000111443
0.000239986
0.000904959
0.000112323
0.00719137
0.00553474
0.000610935
9.69095e-05
0.0004448
0.00699481
0.000109101
0.00567465
0.000356194
0.000113647
0.00643649
9.95026e-05
0.000100904
0.00731835
0.000104417
0.000288183
0.000238228
0.00768609
9.50268e-05
0.000111301
0.000147371
0.00032446
0.000107861
0.000111249
0.0113186
0.000101903
0.000110624
9.727e-05
0.000119017
0.000135594
0.000244009
9.81171e-05
0.000100254
0.000121794
0.000182508
0.000113795
0.000108752
0.000101243
0.000130978
0.000109961
9.31893e-05
0.0124458
9.4267e-05
0.000258309
0.000104733
0.000123024
0.000126741
9.84214e-05
9.14951e-05
9.9e-05
0.000111917
0.000103574
0.000127393
0.000180057
0.000105147
9.79828e-05
0.000109618
9.78336e-05
0.000110127
0.00010784
0.000136958
0.0123178
0.00011824
9.47437e-05
9.07184e-05
0.00018626
0.000146274
9.54167e-05
0.00010862
0.000112349
0.000474015
0.00843256
0.00011036
0.0194145
0.000102217