/*--------------------------------*- C++ -*----------------------------------*\
| =========                 |                                                 |
| \\      /  F ield         | OpenFOAM: The Open Source CFD Toolbox           |
|  \\    /   O peration     | Version:  v2012                                 |
|   \\  /    A nd           | Website:  www.openfoam.com                      |
|    \\/     M anipulation  |                                                 |
\*---------------------------------------------------------------------------*/
FoamFile
{
    version     2.0;
    format      ascii;
    class       volScalarField;
    location    "350";
    object      nut;
}
// * * * * * * * * * * * * * * * * * * * * * * * * * * * * * * * * * * * * * //

dimensions      [0 2 -1 0 0 0 0];


internalField   nonuniform List<scalar> 
13308
(
0.000536511
0.000477123
0.00119448
0.00045516
0.000458374
0.000464952
0.000458887
0.000872395
0.000456815
0.000459132
0.000493674
0.00174985
0.00111758
0.000458775
0.000457153
0.000458328
0.00045333
0.000453762
0.000520118
0.000469402
0.000459423
0.000452683
0.000452528
0.00324942
0.000988354
0.000453951
0.00117218
0.000452892
0.000378454
0.000453004
0.00399165
0.00378851
0.00185867
0.00113089
0.000525983
0.00045524
0.000452334
0.000455681
0.000455282
0.000458777
0.000463659
0.000456876
0.000913749
0.000464643
0.00375318
0.000442294
0.000454496
0.00046409
0.000462785
0.000468938
0.00424321
0.000477686
0.000453139
0.000341999
0.000464678
0.000456687
0.000459734
0.000461574
0.00045902
0.000496904
0.000453474
0.000461628
0.000463268
0.000458658
0.000453821
0.000455554
0.000475509
0.0015003
0.00167577
0.000453776
0.000467104
0.000463109
0.000452057
0.000459417
0.000455919
0.000465151
0.00132775
0.000519571
0.00190014
0.000463135
0.000451808
0.000489403
0.000453083
0.000461434
0.00377568
0.000460744
0.000459935
0.000486027
0.000487392
0.000459542
0.000459321
0.00132178
0.000524812
0.000546288
0.000466411
0.000510967
0.000451989
0.000816615
0.000464944
0.000489523
0.000493882
0.000463783
0.000454115
0.000457031
0.000452184
0.000462478
0.00102595
0.000496791
0.000469072
0.00118417
0.000548441
0.00378903
0.00045928
0.00340361
0.000494028
0.00186258
0.000467026
0.000475518
0.000458913
0.000549281
0.000465913
0.000463851
0.000464334
0.000460689
0.00073477
0.00046041
0.00374092
0.0004618
0.000468161
0.00213973
0.000943184
0.000468449
0.000455364
0.000487401
0.000464031
0.000463657
0.000456891
0.000454138
0.00120342
0.000457095
0.00142151
0.00113352
0.00132559
0.000473524
0.00209726
0.000826919
0.000463091
0.000456058
0.000462477
0.00102257
0.00324949
0.000457116
0.000469243
0.000455845
0.000453326
0.000463239
0.00046298
0.000463264
0.000706319
0.00122565
0.000526977
0.00370646
0.000476039
0.00045701
0.000453073
0.000751301
0.000476446
0.00115126
0.000893904
0.00056041
0.000719863
0.000475946
0.00397371
0.00108167
0.000471981
0.000468351
0.000459857
0.000871486
0.000455017
0.000456209
0.000515129
0.000458843
0.000454273
0.0038226
0.000461472
0.000456976
0.000464047
0.000456002
0.000454342
0.000473605
0.000468165
0.000468418
0.000794514
0.003243
0.000859458
0.00101353
0.00052311
0.000463008
0.000453162
0.000689344
0.00168325
0.000476394
0.000490052
0.000456288
0.000483866
0.000845421
0.000461601
0.000459859
0.000462868
0.000463625
0.000489389
0.00337019
0.000467392
0.00173368
0.000488144
0.000491438
0.000451844
0.00106563
0.000453386
0.000453305
0.000457078
0.000465268
0.000457521
0.000523586
0.000455666
0.000941956
0.000476344
0.000468821
0.00448838
0.0004866
0.00046325
0.000465381
0.000457709
0.000455902
0.000470887
0.0004581
0.000452219
0.000451728
0.00046847
0.000458728
0.000458603
0.000484564
0.000464333
0.000983145
0.000487577
0.000462173
0.00166094
0.000460631
0.000464146
0.000470523
0.00052441
0.000455862
0.000782945
0.000465857
0.000468302
0.000490372
0.000453332
0.000459048
0.000457767
0.000475717
0.000493549
0.000452462
0.000453965
0.000455327
0.00110529
0.000455242
0.00132506
0.000518487
0.00342863
0.000522946
0.000452945
0.000488673
0.000460252
0.00046468
0.00072184
0.00105263
0.000451817
0.000467286
0.000872621
0.00045976
0.000460725
0.000457787
0.000679895
0.00055148
0.000539776
0.000465929
0.00046516
0.000571736
0.000453136
0.000467609
0.00171461
0.000992934
0.00133261
0.00140263
0.000486572
0.000452263
0.000460533
0.000461848
0.000381668
0.000458494
0.00149056
0.000464955
0.000494365
0.000456806
0.000539476
0.000461955
0.000500994
0.000499523
0.000460671
0.000455614
0.000476009
0.000497673
0.00424417
0.000458917
0.000772569
0.000762505
0.000906796
0.000468807
0.000778282
0.000479566
0.000460369
0.000539855
0.000464566
0.000453222
0.00048228
0.00053203
0.000456121
0.00046166
0.000477782
0.000459063
0.000677288
0.000856449
0.000480206
0.000461826
0.000476653
0.00440307
0.000736215
0.000462243
0.000454336
0.00047017
0.00169857
0.000465711
0.000470421
0.000462287
0.000477481
0.000465095
0.000458344
0.000456695
0.000457606
0.00422569
0.000460628
0.000458209
0.000486433
0.000460585
0.000582386
0.000457308
0.000488363
0.00175482
0.000887804
0.000462898
0.00049953
0.000469118
0.00156563
0.00046004
0.000867126
0.000458755
0.000489623
0.000916018
0.00046822
0.000478706
0.000780056
0.000888782
0.000617725
0.000983055
0.000474302
0.00046173
0.000768455
0.000457658
0.000748399
0.00045982
0.000463205
0.000548193
0.000461764
0.000645178
0.000534782
0.000459627
0.000459249
0.000494336
0.000454375
0.00325376
0.00109873
0.000466988
0.000464911
0.00178745
0.000467417
0.000572531
0.000461544
0.000462028
0.000803582
0.00112691
0.000538693
0.000499598
0.000459655
0.000533544
0.000467597
0.00045299
0.000460655
0.00046279
0.00229479
0.000497586
0.00077463
0.00158733
0.000963341
0.000457156
0.00321496
0.000464357
0.000537392
0.000461532
0.000459547
0.00045886
0.000464233
0.000464683
0.000536956
0.000467169
0.0043619
0.000500985
0.000461678
0.00333092
0.00196091
0.00197369
0.000458948
0.00327438
0.00140139
0.000495333
0.000457194
0.000523889
0.000453272
0.000455956
0.000463663
0.000462771
0.000460434
0.000460039
0.000460582
0.000489612
0.000453903
0.00107031
0.000666462
0.000462824
0.000462897
0.000758479
0.000829964
0.00045702
0.000461877
0.000463791
0.000502964
0.00162298
0.000455225
0.000455988
0.000917967
0.000807824
0.000458685
0.000498591
0.000463974
0.000466393
0.000458852
0.000474415
0.000455115
0.00463865
0.00046445
0.00045625
0.000486363
0.000458835
0.000533535
0.00075327
0.000460472
0.000467255
0.000469385
0.000467422
0.000497263
0.000469286
0.000524922
0.00046301
0.000494985
0.000519364
0.000454552
0.00381232
0.00046011
0.00365329
0.000452747
0.000488329
0.000475283
0.00352444
0.000454429
0.000535792
0.000460877
0.000525953
0.000824097
0.00046158
0.000460651
0.000456588
0.000462261
0.00194978
0.000510674
0.00387687
0.000486907
0.00124583
0.00046172
0.000886112
0.000477846
0.00373533
0.00045982
0.0028998
0.00321786
0.00049278
0.000460255
0.00137001
0.0019513
0.000465009
0.000531844
0.00045867
0.000541804
0.00088668
0.000456108
0.00104657
0.00195443
0.00455063
0.000748941
0.000511303
0.00410618
0.000533938
0.000461701
0.000466352
0.00328346
0.000507321
0.000469991
0.000462615
0.000486593
0.000475325
0.00117422
0.000466698
0.000839897
0.0011499
0.00222026
0.000462994
0.000461824
0.000515276
0.000467353
0.00203953
0.00121243
0.000784623
0.000460873
0.000464931
0.000730071
0.000461888
0.00054187
0.000451925
0.000536388
0.000454486
0.000861339
0.000451624
0.00045871
0.000463147
0.000528462
0.000461703
0.00046473
0.000470496
0.000769489
0.000529833
0.000468616
0.000463288
0.00363617
0.000459894
0.000458923
0.000329832
0.000460865
0.00163697
0.0004641
0.000468509
0.000510897
0.000460416
0.000469777
0.00046913
0.000488228
0.000455844
0.000528381
0.000461851
0.000474124
0.000463463
0.000569716
0.000720781
0.000457171
0.000456967
0.000462115
0.000663651
0.000462677
0.00048659
0.000462718
0.000523623
0.000464207
0.00141918
0.00330891
0.000462507
0.000460484
0.000455037
0.000458756
0.00046083
0.00377404
0.000535987
0.000664923
0.000458946
0.000460865
0.000451659
0.000554205
0.00340586
0.000461862
0.00174467
0.000457062
0.000455471
0.00406228
0.00108621
0.00181351
0.00048217
0.000527358
0.00347364
0.00201945
0.000463356
0.00111128
0.000693662
0.000683353
0.000478368
0.0016904
0.000457024
0.000460133
0.000455822
0.000563847
0.000461143
0.000460189
0.000457138
0.000501769
0.00248969
0.00342521
0.0043258
0.000826971
0.000461315
0.000459121
0.000458515
0.000460393
0.000462479
0.00046137
0.000497291
0.000684614
0.000453933
0.00359717
0.00045316
0.00381167
0.000492914
0.000455448
0.000453526
0.000456926
0.00049024
0.00046162
0.000458831
0.000456832
0.0032221
0.000526301
0.000463616
0.000720598
0.000463195
0.000464097
0.000456073
0.00333355
0.000553803
0.000489827
0.000462263
0.000457895
0.000481946
0.000478939
0.000458039
0.000463877
0.0042058
0.00105092
0.000510179
0.00417113
0.000465488
0.000459708
0.00105187
0.000465833
0.000534086
0.000465062
0.000457048
0.000455029
0.000460758
0.000787931
0.00046865
0.000462413
0.000478951
0.00158729
0.000452029
0.000462244
0.000472821
0.000456195
0.00047245
0.00106631
0.000497085
0.000455798
0.00423328
0.000891679
0.000526552
0.000456061
0.00192695
0.000471836
0.00077903
0.000462233
0.000460261
0.000455915
0.00045754
0.000462593
0.000521252
0.000456999
0.000903917
0.000465662
0.000476911
0.00112874
0.000456378
0.000455654
0.000506358
0.00352045
0.000523112
0.000658409
0.000458071
0.000465536
0.00463399
0.000468689
0.000467858
0.00046068
0.00124724
0.000554574
0.00330487
0.000457058
0.000644527
0.000817037
0.000457057
0.000486252
0.000488557
0.000465571
0.000458156
0.000460443
0.00047869
0.000580181
0.000460122
0.000943301
0.000462113
0.00321238
0.00046015
0.000704154
0.00218933
0.000467244
0.00162258
0.000467215
0.000466255
0.000465478
0.000599559
0.000457109
0.000456333
0.00045789
0.000464323
0.000462873
0.000457791
0.00417407
0.000470083
0.000884716
0.0004669
0.000505183
0.000535555
0.00100929
0.000478008
0.00318594
0.00412326
0.000469249
0.00404134
0.000457244
0.000454486
0.000459813
0.00045929
0.000459801
0.000456022
0.000704908
0.00415134
0.00173261
0.000468614
0.000461894
0.00045937
0.000458847
0.000463355
0.000903709
0.000457131
0.000471503
0.000510811
0.00256731
0.000467608
0.000461704
0.000466075
0.000456005
0.00046178
0.000463767
0.000685575
0.000460624
0.00045884
0.000459988
0.00211299
0.000460603
0.00347048
0.00045882
0.00144009
0.000498671
0.000459113
0.000462759
0.000463223
0.000460039
0.000467004
0.00045853
0.00071931
0.000649992
0.00103148
0.00053232
0.000457888
0.000458113
0.000461879
0.000454238
0.000536155
0.0004639
0.00420062
0.000485798
0.000518035
0.000493002
0.000459807
0.000457323
0.00046518
0.000459732
0.000497044
0.000462952
0.000462557
0.0037507
0.000481212
0.00045843
0.000467077
0.000459305
0.000469049
0.000454113
0.00052496
0.000461611
0.00285441
0.0018286
0.000460665
0.000460188
0.000458836
0.000466824
0.000453511
0.000477647
0.000455112
0.000462136
0.00045956
0.000466317
0.000468144
0.000772932
0.000501084
0.000487222
0.00322927
0.00045663
0.000460222
0.000464551
0.000470953
0.00101881
0.000456745
0.000468741
0.000468584
0.00051523
0.000758869
0.000480867
0.000458298
0.00326921
0.000478214
0.000459815
0.00045624
0.000456852
0.000461137
0.00160903
0.000458948
0.000824618
0.00211166
0.000522954
0.000821696
0.000459689
0.00376622
0.000459812
0.00150463
0.00397637
0.000461503
0.000467158
0.000456618
0.00045567
0.000497414
0.00404105
0.000456809
0.000469332
0.000460561
0.000469592
0.000816308
0.00333812
0.0004656
0.0033447
0.000459871
0.000476597
0.00121511
0.000453611
0.000461687
0.000906661
0.000457238
0.000455782
0.000463521
0.00100602
0.000461228
0.00339309
0.00444702
0.000468524
0.000690177
0.000963085
0.000460951
0.000494023
0.000456272
0.000461376
0.000837938
0.000462336
0.00160113
0.000461112
0.00046642
0.000462404
0.00323378
0.000495109
0.000707231
0.00198261
0.000457711
0.000384924
0.000502127
0.00402308
0.000460515
0.000712992
0.000588027
0.000457725
0.000476603
0.00186017
0.000503584
0.000461744
0.000464625
0.000458249
0.00343565
0.000463463
0.000467321
0.000501571
0.000460496
0.00045611
0.000468199
0.000460028
0.000562431
0.00046066
0.000455979
0.000469395
0.000457511
0.000457822
0.00054926
0.000467055
0.000519514
0.000458347
0.000454646
0.000462462
0.00122474
0.000456818
0.000493382
0.000456439
0.000415078
0.000475227
0.000918749
0.000453115
0.000479201
0.000785145
0.000455244
0.00260849
0.000456212
0.000467901
0.00136574
0.000499697
0.000691892
0.000880136
0.000464928
0.00046356
0.000459852
0.000458517
0.000486086
0.000534452
0.000456119
0.000458034
0.000457844
0.000465345
0.00045743
0.00046189
0.000812878
0.00155829
0.00420931
0.000461584
0.00121851
0.000470073
0.000501758
0.000662715
0.000525684
0.000469283
0.0018128
0.000468722
0.000458508
0.000401599
0.000542416
0.000452576
0.00188416
0.000456853
0.000536075
0.000463108
0.000456624
0.000468673
0.00403787
0.000682693
0.000650799
0.00120356
0.00113943
0.00387923
0.000458069
0.000980155
0.000464596
0.00332713
0.000456183
0.000467263
0.000470431
0.000822277
0.000457715
0.000453524
0.000468988
0.000512251
0.000491692
0.000520537
0.000707973
0.000452623
0.000469286
0.000469202
0.000458577
0.000463997
0.000496182
0.000457535
0.000456934
0.000457816
0.000460842
0.000465078
0.000469774
0.00123988
0.000458216
0.0038105
0.000460692
0.000456791
0.000597043
0.00046335
0.00407971
0.000459995
0.000466283
0.000457884
0.000456855
0.000684306
0.000459797
0.00046955
0.000468495
0.000462064
0.000458484
0.000469019
0.0004574
0.00369418
0.000477304
0.000492654
0.000460655
0.000476088
0.00047359
0.000460257
0.000460658
0.000466363
0.000465097
0.00102212
0.000522887
0.000473913
0.000459201
0.000727836
0.000462049
0.000462022
0.000732338
0.000451632
0.000460165
0.00049204
0.000461768
0.000458477
0.000499358
0.00045744
0.000473952
0.00245143
0.00120678
0.000455727
0.000459894
0.00046007
0.000456321
0.00179471
0.000459361
0.000460097
0.000453073
0.000456456
0.000672465
0.000463313
0.000456667
0.000671995
0.000465734
0.00419302
0.000525103
0.000455774
0.000460308
0.00410714
0.000458511
0.000501929
0.000456397
0.000499027
0.000487753
0.00050176
0.000681442
0.000519283
0.000452617
0.000453597
0.000465024
0.000468877
0.000455722
0.000456583
0.00413425
0.000523017
0.000470071
0.000452526
0.0015029
0.000452336
0.000462944
0.000459878
0.000468915
0.000457153
0.00046129
0.000456429
0.00082321
0.000458513
0.000487099
0.00046169
0.000456243
0.0035963
0.000468208
0.0014968
0.000713411
0.000500522
0.00160366
0.000468712
0.000459663
0.000457098
0.000462396
0.000453554
0.000499205
0.000798891
0.000465798
0.000497272
0.000457113
0.000460097
0.00376992
0.00068562
0.000454574
0.000546821
0.000457019
0.000464295
0.00358406
0.000463203
0.000459894
0.000452519
0.000458857
0.000459434
0.000452274
0.000468534
0.00122502
0.00406535
0.000460465
0.000458562
0.000457419
0.000462084
0.000459836
0.000526092
0.000452978
0.00114709
0.000468839
0.000781423
0.00160943
0.000452157
0.000462517
0.000456236
0.00046099
0.00406737
0.00108543
0.000464089
0.000522936
0.000494614
0.00141911
0.000466064
0.000470908
0.000452729
0.00179104
0.000462362
0.000480756
0.000600375
0.000479991
0.0039878
0.000457259
0.000517164
0.000460923
0.000805909
0.000799219
0.000460933
0.00324484
0.00046199
0.000460397
0.000784686
0.000524438
0.000456257
0.000503673
0.000456106
0.000457116
0.00045674
0.000482805
0.000596607
0.000478661
0.00350486
0.000525397
0.000461865
0.00120808
0.000457218
0.000458529
0.00061922
0.000724456
0.000457315
0.000453125
0.0043349
0.000464322
0.000458739
0.000454893
0.000484067
0.00046587
0.000460605
0.00381846
0.000468891
0.000466973
0.000460673
0.000463176
0.000455617
0.00309424
0.000468076
0.000461074
0.000463474
0.000458533
0.000560341
0.000462694
0.00186036
0.000489828
0.00045937
0.000469738
0.000489239
0.000468701
0.000484383
0.000456035
0.000469027
0.000476316
0.000467658
0.000881286
0.000783755
0.000463334
0.0017104
0.000524734
0.000495155
0.00239259
0.000463915
0.000458555
0.000465167
0.000827421
0.000768048
0.000453506
0.000459312
0.00326801
0.000770156
0.000456369
0.00107511
0.00341188
0.00398055
0.000460823
0.000460004
0.000468806
0.000460144
0.000462622
0.000501949
0.000465455
0.00046155
0.000453859
0.000487567
0.000947147
0.00054599
0.00336986
0.000478701
0.000458885
0.000459952
0.000462881
0.000460705
0.000464142
0.000474418
0.000460353
0.000814098
0.000460362
0.000460463
0.000497501
0.000475987
0.000489698
0.000694751
0.000467735
0.000453623
0.000526025
0.000454982
0.000453561
0.000525334
0.00045948
0.00198201
0.000458145
0.000459612
0.000468556
0.000465807
0.000461193
0.000451983
0.00045513
0.000468725
0.000459165
0.00182093
0.000465129
0.00196806
0.00463264
0.000964939
0.00359161
0.000463344
0.000495319
0.000827464
0.00339654
0.000460861
0.000469263
0.000474644
0.000460663
0.000466049
0.00273459
0.000475183
0.000460311
0.000527631
0.00417679
0.00045841
0.00177892
0.000644847
0.000458924
0.000456485
0.000471804
0.000476315
0.000476387
0.00112198
0.000468618
0.000475837
0.000465249
0.000458217
0.000462458
0.000460264
0.000466835
0.00405814
0.000458243
0.00393672
0.000462454
0.000463795
0.00395715
0.00312501
0.00387296
0.000455698
0.00045686
0.000461569
0.00432076
0.00145944
0.00052862
0.00049368
0.00125118
0.000459681
0.000465412
0.00046001
0.000453649
0.000462649
0.000459985
0.000455322
0.000666034
0.000489167
0.00045603
0.000458419
0.000488915
0.000486927
0.0011052
0.000619735
0.000460954
0.00392239
0.000509687
0.000488309
0.000479474
0.000696899
0.000460784
0.000464016
0.00395424
0.000465474
0.000463476
0.000462032
0.000479004
0.000458713
0.000458318
0.000480111
0.00155535
0.000489703
0.000474731
0.000498947
0.00153424
0.00124907
0.000460795
0.000454001
0.000457591
0.00126379
0.000463391
0.000458649
0.00393977
0.000468975
0.000633316
0.000455282
0.000468804
0.000462569
0.000518688
0.00324639
0.000715663
0.000459951
0.000460633
0.00152742
0.000460273
0.00066507
0.00259593
0.00108806
0.000469771
0.000456175
0.000468775
0.000469895
0.00370969
0.00046128
0.000607339
0.000458155
0.000459415
0.000464247
0.000462649
0.000797548
0.000460378
0.000463872
0.000461283
0.000459914
0.000459117
0.00383067
0.000458171
0.000461152
0.000455837
0.00046799
0.00359513
0.000455305
0.0034818
0.000453467
0.000547334
0.000457187
0.000469544
0.000527942
0.000500258
0.000457456
0.000456265
0.000461021
0.000459832
0.000547861
0.000600671
0.000459321
0.000464745
0.000460298
0.000471824
0.000457008
0.000468527
0.00164846
0.000560102
0.000477851
0.00045693
0.000456344
0.00391412
0.000461247
0.00173705
0.00196042
0.000460725
0.000459858
0.000467553
0.000461472
0.00111417
0.000462874
0.00151406
0.000454822
0.000452611
0.000462723
0.000460416
0.000479441
0.000706398
0.000489825
0.00332551
0.000684244
0.00046106
0.00172056
0.000460891
0.000469239
0.000456411
0.000477719
0.000547294
0.000607291
0.000456302
0.00046107
0.00045968
0.000454708
0.00182782
0.000458348
0.000456533
0.000459469
0.000463351
0.00239126
0.000464543
0.000469905
0.000455323
0.000477332
0.000453001
0.000458357
0.000463902
0.000464764
0.000496084
0.000456901
0.000460759
0.00113243
0.000453261
0.000458416
0.000925747
0.000543888
0.000464026
0.00059945
0.000458997
0.00047972
0.00428606
0.000534848
0.000465531
0.000463612
0.000657941
0.000523728
0.000456062
0.000477795
0.000480436
0.000460948
0.000458728
0.00046325
0.00075729
0.000464309
0.00167955
0.000455613
0.000454465
0.000453393
0.00116971
0.000462672
0.00045985
0.000472373
0.000654139
0.000468088
0.00045963
0.000456665
0.00046368
0.000453888
0.00046472
0.000459448
0.00051667
0.000824338
0.000483584
0.000459735
0.000546964
0.00153717
0.000456308
0.000464818
0.000465931
0.000459893
0.00150644
0.00328004
0.000529704
0.000459863
0.000456176
0.000456433
0.000495112
0.0017637
0.00124153
0.000488544
0.000491755
0.000462854
0.000767772
0.000533453
0.000692798
0.000731175
0.000459705
0.000909186
0.000457674
0.00140978
0.000466227
0.000546661
0.000454765
0.00055681
0.000462192
0.000467773
0.000462013
0.00376712
0.000464865
0.000466581
0.000469204
0.0036525
0.00045618
0.00419505
0.000459724
0.000460681
0.000462025
0.000476248
0.000455803
0.000484318
0.000699318
0.000451949
0.000455387
0.000514583
0.000460574
0.000468157
0.000470338
0.00342242
0.000456907
0.000464262
0.000518519
0.000466776
0.000456663
0.000458024
0.00218945
0.000462675
0.000465246
0.000474731
0.000649164
0.000455038
0.000455902
0.000575666
0.00177532
0.000456728
0.000460366
0.000514676
0.000643943
0.000457224
0.000484292
0.000481175
0.00163137
0.000709339
0.000464359
0.000459412
0.000463972
0.000467011
0.000659684
0.000460114
0.00104439
0.000540289
0.000463876
0.000475089
0.000460595
0.000468784
0.000463219
0.000459061
0.00045388
0.0028573
0.000456847
0.000489793
0.000633124
0.00047714
0.000487494
0.000461481
0.000464563
0.00059965
0.000458202
0.000459196
0.000519539
0.000532672
0.000459532
0.00045871
0.00345594
0.000463399
0.000480889
0.000517968
0.000458027
0.000481868
0.00318569
0.000486614
0.000456438
0.000700973
0.000531305
0.00046764
0.000576446
0.000460758
0.000459694
0.000624653
0.000463295
0.00263281
0.000492956
0.000473651
0.000463922
0.00380592
0.000452272
0.000490801
0.00127481
0.000464082
0.000704846
0.000483066
0.000470077
0.00382678
0.00428315
0.00335222
0.000456962
0.000466749
0.000458461
0.0011195
0.000467516
0.0045952
0.00052085
0.000486751
0.000953272
0.000456975
0.000505751
0.000468404
0.000459316
0.000481059
0.000460704
0.000496848
0.000884083
0.00052953
0.000455686
0.00108307
0.000483631
0.000540732
0.000460172
0.000487114
0.000461573
0.000988088
0.000549878
0.000921634
0.000464807
0.000825592
0.00162665
0.000452976
0.00376246
0.000454381
0.000455015
0.000462964
0.000463068
0.000462933
0.000476106
0.000463568
0.000490566
0.000671693
0.000457742
0.00108524
0.000454321
0.000467337
0.000487433
0.000458371
0.000572605
0.00386452
0.000464588
0.00045595
0.000467533
0.000451763
0.000487501
0.000467986
0.00172403
0.000455684
0.000460575
0.000462664
0.000457862
0.00440051
0.00420702
0.000483355
0.00401462
0.0036202
0.000458089
0.00324891
0.000509953
0.000458924
0.00137646
0.000463112
0.00310505
0.000488968
0.000666115
0.000458292
0.00049418
0.00308649
0.000398458
0.000490958
0.000458429
0.000455876
0.000659281
0.00046047
0.0024128
0.00046755
0.00167488
0.00220629
0.000489455
0.00102553
0.000464113
0.00418506
0.000460307
0.000473177
0.000475119
0.000459028
0.000517155
0.00388003
0.000459033
0.000466455
0.000483688
0.000459465
0.000452914
0.000504561
0.000718232
0.000467608
0.000473251
0.000474082
0.000463125
0.00353733
0.000460285
0.00425166
0.000951964
0.000456381
0.000476758
0.000461639
0.000454424
0.00331876
0.000456113
0.000510399
0.000464262
0.000464357
0.000458668
0.000660525
0.00047612
0.000458618
0.000462893
0.000458556
0.000458909
0.000460303
0.000460993
0.000460411
0.000469864
0.000665753
0.000468779
0.00343398
0.000452952
0.00419189
0.000491886
0.000669195
0.000455144
0.000479194
0.000611604
0.000484173
0.00101865
0.000928827
0.000462783
0.000464365
0.000700098
0.00052657
0.000460626
0.000463153
0.000765541
0.000457006
0.000465974
0.000459371
0.000458195
0.000466108
0.000468526
0.000489458
0.00045745
0.000501652
0.00046274
0.0044224
0.000530863
0.000461568
0.000465539
0.000458467
0.000450984
0.000466176
0.00047467
0.000458302
0.000488565
0.000458336
0.000457379
0.000468595
0.000463125
0.000463339
0.00366052
0.000484611
0.0016595
0.000463882
0.000458694
0.00159354
0.000457254
0.000530959
0.000459144
0.00047251
0.000457119
0.000484785
0.000484061
0.000464413
0.000459892
0.000488641
0.00381591
0.000454973
0.00349769
0.00337711
0.000454713
0.000461504
0.00300181
0.000600378
0.000459046
0.000452993
0.000460982
0.000485069
0.00046301
0.000455716
0.000716794
0.000460645
0.000489916
0.000464522
0.00046472
0.000464577
0.000657508
0.000462977
0.000474615
0.000455899
0.000489782
0.000454312
0.000464373
0.000569706
0.000468999
0.000457697
0.000612545
0.000568611
0.000460829
0.000462982
0.000463254
0.000458499
0.00160409
0.000462283
0.00335175
0.000468558
0.00045561
0.000467728
0.000527052
0.000486083
0.000628149
0.000468167
0.0035155
0.000488575
0.000674336
0.000461862
0.00101128
0.000955159
0.00367642
0.000468112
0.000478571
0.000470981
0.000471179
0.000628336
0.0040976
0.00192378
0.000486507
0.000595223
0.000455413
0.00270758
0.000462866
0.000634259
0.000519765
0.000479744
0.000466807
0.000486679
0.000485894
0.000459975
0.00046232
0.00045672
0.000459856
0.000474961
0.00424072
0.00183097
0.000465258
0.000463698
0.000459795
0.000469232
0.000454204
0.000459091
0.000458247
0.000463566
0.000616008
0.000453405
0.000458687
0.000459837
0.000490971
0.000462418
0.000454433
0.000487745
0.000469525
0.00381254
0.000458984
0.00047214
0.000456162
0.000460238
0.000900046
0.000456748
0.00045724
0.000580486
0.000464239
0.000461977
0.00400902
0.000458052
0.000461068
0.00070095
0.000562217
0.000644512
0.000464074
0.000472715
0.000454329
0.000468163
0.000465766
0.00403988
0.000474815
0.000511402
0.000491283
0.000455688
0.000519542
0.000928078
0.000458666
0.000462429
0.000460668
0.00046232
0.000489415
0.000519986
0.000455791
0.000455715
0.000698016
0.00062329
0.00393897
0.000458496
0.000510501
0.000468858
0.0037244
0.000479063
0.000461571
0.000458528
0.000455508
0.000630646
0.000461732
0.00334579
0.000460545
0.000459433
0.000457493
0.000459249
0.00107278
0.000473673
0.000459297
0.000453879
0.000461644
0.000462575
0.000460657
0.000459698
0.000530177
0.000462856
0.000458464
0.000458133
0.000457941
0.00045993
0.000456407
0.00335583
0.00124712
0.000656688
0.00194705
0.000459354
0.000465343
0.000456176
0.000580652
0.00365546
0.00045849
0.00233478
0.000487563
0.000460812
0.00110369
0.00416657
0.000456463
0.000460192
0.000453648
0.00265977
0.000462423
0.000457195
0.000674022
0.00175656
0.0009622
0.0016168
0.000462028
0.000490822
0.000458533
0.000468311
0.000596033
0.000458783
0.000456455
0.000458353
0.00100709
0.000468391
0.00406924
0.000478945
0.000458241
0.00359041
0.00391312
0.000513991
0.000484683
0.00373407
0.000670441
0.0006565
0.00094894
0.00321865
0.000458458
0.000462383
0.000465435
0.000521291
0.000460443
0.000521424
0.00046094
0.00351347
0.000473072
0.000631838
0.00045405
0.000456695
0.00344863
0.000643877
0.00196599
0.000459303
0.000456016
0.00243807
0.00109642
0.000807213
0.000531329
0.000459558
0.000455249
0.000465878
0.000458012
0.000462172
0.000523743
0.00370078
0.000491205
0.00369356
0.0038985
0.00046733
0.00048059
0.000460839
0.000455657
0.00136278
0.000695658
0.000463487
0.000457667
0.000466355
0.000669316
0.000455687
0.000464765
0.000463394
0.000455631
0.000460684
0.000468883
0.00350102
0.000466475
0.000465239
0.00349424
0.000485306
0.000452305
0.000478301
0.00351156
0.00189268
0.00354759
0.000476137
0.000462166
0.000453827
0.000588908
0.000452353
0.000366642
0.000456652
0.000461605
0.000464564
0.000462084
0.000455114
0.000500965
0.000458286
0.000460236
0.00409063
0.000462029
0.000459996
0.000463559
0.00046739
0.000460393
0.000458053
0.00353954
0.000469357
0.000467674
0.000603229
0.000452008
0.000461362
0.000624571
0.000629747
0.00045627
0.00380336
0.00123324
0.0004995
0.000454995
0.000461066
0.000563398
0.000473253
0.000466056
0.000624895
0.000505945
0.00344626
0.0005197
0.000475199
0.000479398
0.000521126
0.00357858
0.000477124
0.00111062
0.000461949
0.000981346
0.000673469
0.000460126
0.000456297
0.000453818
0.00419408
0.000452729
0.000459776
0.000460679
0.000647446
0.00223817
0.00363515
0.000463888
0.000460257
0.00350508
0.000463356
0.000683892
0.00225314
0.000718387
0.0012292
0.000460099
0.00047006
0.000607333
0.000459669
0.000458629
0.000512417
0.00347202
0.000474996
0.000675633
0.000462815
0.000457602
0.00168354
0.000459987
0.000537658
0.000460082
0.000453034
0.00046956
0.00258081
0.00429148
0.000482196
0.00046748
0.000466356
0.000459934
0.000515027
0.000460083
0.000700694
0.00266096
0.000464128
0.00100492
0.000455932
0.000957272
0.00206061
0.000462641
0.000456657
0.00075925
0.000468665
0.000459206
0.000462654
0.000467618
0.00241571
0.00046112
0.00059065
0.00390651
0.000454909
0.00341107
0.00206615
0.00349748
0.000457464
0.000462905
0.000480331
0.000455274
0.000462238
0.000469293
0.000454486
0.000516331
0.000687609
0.000460804
0.00440831
0.00045712
0.000623717
0.000456409
0.000452716
0.000980375
0.000489623
0.00185554
0.000491811
0.000460342
0.000458991
0.000463376
0.000494352
0.000455223
0.000459702
0.00282494
0.000611222
0.000507867
0.000465551
0.000460966
0.00284227
0.000465899
0.00386392
0.00046013
0.000972431
0.000471352
0.000475217
0.00141613
0.000462046
0.000458957
0.000463244
0.000468809
0.00117213
0.000454308
0.000465129
0.000832681
0.000464488
0.00353384
0.00372851
0.000467335
0.000496555
0.0036149
0.00189
0.000457799
0.00276932
0.000485309
0.000464442
0.000475991
0.00448636
0.000455977
0.000458841
0.00323921
0.000462755
0.000466132
0.000454388
0.000464024
0.00124756
0.00455826
0.00046345
0.00047979
0.000458172
0.000455067
0.00326697
0.000455105
0.000455035
0.0032586
0.000468919
0.000455597
0.000524476
0.000456241
0.000458264
0.000479892
0.000548508
0.000456513
0.000460917
0.00335844
0.000644844
0.00045692
0.00329152
0.000462236
0.000453863
0.00229619
0.000466568
0.000461245
0.000669002
0.000460715
0.000464213
0.000460768
0.000465466
0.000462728
0.000456882
0.000473421
0.000463322
0.00229385
0.000563806
0.000476569
0.000459078
0.000923024
0.00115731
0.000487011
0.00337205
0.00298784
0.000998476
0.000460935
0.000942394
0.00226912
0.000466198
0.00299181
0.00115342
0.000495721
0.0031669
0.000474155
0.000464941
0.00249006
0.00049336
0.000866489
0.00073547
0.00342601
0.000455788
0.000458999
0.000468855
0.000894428
0.000459892
0.000462687
0.00252068
0.00045547
0.000458347
0.000467159
0.000460861
0.000538781
0.000783005
0.000456475
0.000464228
0.000513705
0.000668558
0.000514853
0.000460989
0.000463943
0.000527876
0.000480633
0.000459142
0.00403837
0.000458193
0.000768469
0.00045825
0.000520461
0.000463029
0.00046756
0.000451657
0.000454391
0.000469929
0.000474186
0.00046353
0.000631015
0.000494016
0.000473899
0.000458106
0.000466804
0.000487239