/*--------------------------------*- C++ -*----------------------------------*\
| =========                 |                                                 |
| \\      /  F ield         | OpenFOAM: The Open Source CFD Toolbox           |
|  \\    /   O peration     | Version:  v2012                                 |
|   \\  /    A nd           | Website:  www.openfoam.com                      |
|    \\/     M anipulation  |                                                 |
\*---------------------------------------------------------------------------*/
FoamFile
{
    version     2.0;
    format      ascii;
    class       volScalarField;
    location    "350";
    object      p;
}
// * * * * * * * * * * * * * * * * * * * * * * * * * * * * * * * * * * * * * //

dimensions      [0 2 -2 0 0 0 0];


internalField   nonuniform List<scalar> 
13308
(
-0.0503473
-0.0526245
-0.0188109
0.0257869
0.0680422
-0.0272375
0.0749703
0.0145312
0.0492131
0.047454
0.00445577
0.0244095
-0.053333
0.0732353
0.0556971
0.0669475
-0.00187513
0.0197227
-0.0488683
-0.0480111
0.0638308
0.0169895
0.0167144
-0.0685351
-0.0183506
0.00811707
0.0116948
0.0177391
0.000607669
0.0199358
0.0345618
-0.0102643
-0.0560628
-0.0481059
-0.050012
0.0265689
0.0159692
0.0373844
0.0289247
0.0319535
0.0521094
0.00920066
0.0143405
0.0433372
-0.0131191
0.0335364
0.0189626
0.0578589
0.00465056
0.0534461
0.0353385
-0.0593964
0.0201912
0.00540632
-0.0253101
0.00989944
-0.0143056
0.0575328
0.0480132
0.103991
-0.00202082
0.0578081
-0.00455319
0.032941
0.0080658
-0.0139749
-0.0512916
-0.0159703
0.0106565
0.0204087
0.0476568
-0.00514975
0.00939172
-0.0274473
0.00914624
0.056374
-0.0306894
-0.0159235
-0.0529805
-0.00789727
0.0143397
0.0741602
0.00310661
0.0633858
-0.0126264
0.104048
0.0417368
0.0993034
0.0998412
0.0628466
0.0487284
-0.101136
-0.0105719
0.084316
0.095961
-0.0103437
0.0142826
-0.0274016
0.0446079
-0.0434014
-0.0535275
0.0582507
0.0159039
0.0409288
0.009504
0.0481411
-0.0874191
0.106666
-0.0453601
-0.0464954
0.0401978
-0.0100949
0.0485314
-0.0541467
-0.0519314
-0.0569103
0.150702
0.0696464
0.00873674
0.041058
0.0949147
0.058937
0.0548337
0.101504
0.0547909
0.0978507
-0.0187052
0.0675951
0.0535503
0.05125
-0.017597
-0.0283866
0.0278328
-0.0192407
0.0566909
0.00906265
0.0493148
0.0169285
-0.0481313
0.0422486
-0.0996998
-0.0397201
-0.0398691
0.0738993
0.0271371
0.134995
0.0031474
0.0322378
0.0626622
-0.0663695
-0.0921038
0.0522823
-0.0474457
0.0384998
0.0213302
0.00922892
0.0480725
0.0518915
0.0562054
-0.0426459
0.0519177
-0.0183184
0.0711579
0.052941
0.0191843
0.162633
0.0345265
-0.0979249
-0.019268
-0.0905908
0.025529
-0.0575411
0.00489146
-0.0514868
0.0115657
0.0488658
-0.0286279
-0.00654532
0.0281524
0.0405516
0.0575245
0.00800174
0.00970074
0.00425835
0.0888796
0.0477228
0.0559524
-0.0153778
0.0149327
0.0754763
-0.0288101
-0.0314122
0.1592
-0.0922485
-0.0865524
-0.0189182
-0.015192
0.0620574
-0.00105064
0.0251001
-0.0764224
0.0263371
0.0243688
0.0139507
0.127913
-0.0172638
0.0860791
0.0181055
0.0621649
-0.0165028
-0.0451351
-0.068623
0.0477407
0.0548048
0.0245457
0.0735624
0.00860872
0.132511
0.0161676
0.0161619
0.0550967
0.0518036
0.0594546
0.019903
0.0335406
-0.0503159
0.035654
0.0482449
0.0431113
0.0655286
-0.00716233
0.05507
0.0320099
-0.00886508
0.0961882
0.051765
0.0097249
0.0156794
-0.0318897
0.0541292
0.0391905
0.130778
0.0587516
-0.00660083
0.187145
0.112015
-0.0775127
0.0238525
0.0556897
0.0114845
-0.0118057
0.0331915
0.134313
0.0474452
0.04896
0.059385
0.0210268
0.0535796
0.0624412
0.0681528
0.0029993
0.00863458
0.00952572
-0.0140777
-0.0338494
0.0295332
-0.0454592
0.0579302
-0.0559521
0.0208394
0.0197654
0.0150646
0.101267
0.0403654
0.0568397
0.0601499
0.0161092
0.149458
-0.0268437
-0.0161876
0.105342
0.0621468
-0.0268388
-0.0893698
-0.0627126
0.0517449
0.052226
0.108137
0.00390351
-0.0385173
-0.0152927
-0.104369
-0.0539204
-0.025775
0.0671813
0.0156635
0.0227458
0.0718536
-0.00240509
0.0705922
-0.02357
-0.0213843
-0.00888243
0.0345275
0.0239791
0.0633691
-0.0771598
0.109239
0.100107
0.0315418
-0.0363962
-0.0565145
0.0328389
0.0797001
0.0551421
-0.0396527
0.000742615
-0.0426654
0.0557845
-0.00669203
0.10294
0.0386764
-0.0223681
0.00497288
-0.0654857
0.0519549
0.0145474
0.0622761
-0.0589498
0.0823334
-0.0504075
0.0611009
0.112392
0.109887
0.0275913
0.0329025
0.0540242
0.0742441
0.0104611
-0.0431134
-0.0731505
0.0553625
0.0969503
0.120652
-0.0564167
0.0553876
0.0387297
0.0476909
0.0608266
0.0573323
-0.00196255
0.0535006
0.0971052
0.0174522
0.108675
0.0547201
0.0284047
0.0146519
0.00273454
0.0612397
0.112317
-0.044799
0.0227163
0.0991245
-0.0507744
0.0116648
0.188877
-0.00756256
0.0483002
-0.00776286
-0.0394984
-0.0652497
-0.0560621
0.142986
0.0526974
0.0908397
0.0808143
0.0461715
0.123813
0.0193754
0.0601428
0.039239
0.0687324
0.216173
0.0862742
0.0677591
-0.0133305
-0.00722544
0.0117151
-0.0942849
-0.0828302
-0.00386499
0.0415763
0.0408108
-0.00599929
0.147286
0.0616615
0.11933
0.0648277
-0.0287379
-0.066009
0.0606232
0.0670837
0.0244293
-0.0029839
0.0192406
0.0890015
0.0482566
0.029632
-0.0303374
0.12398
-0.0132635
0.00137359
0.0562008
-0.0952882
-0.0126103
-0.0850789
0.0626534
0.0413902
0.0103499
-0.0332262
0.0580781
-0.0706159
-0.00686542
0.0437508
-0.0791957
0.120086
-0.0732352
-0.0156605
-0.0546343
0.0797177
-0.0809854
-0.0118933
0.0630767
0.0417493
-0.0207057
0.00581755
0.01086
-0.0154971
0.0797225
0.0433023
0.0576511
0.0768872
0.101774
0.0146625
-0.0549821
0.0234246
0.0493284
0.125789
0.0618397
-0.0676397
0.0556465
0.0801521
-0.0184298
0.060271
0.0345545
0.0277399
0.0170289
-0.00114266
-0.0546202
0.0145868
-0.0299544
-0.0332976
0.0474871
0.00523969
-0.0355161
0.0298655
0.0445453
-0.0194364
0.0357242
0.142804
0.0349899
-0.0687529
0.0517409
0.0436147
0.0520619
0.0560702
0.0522569
0.00145404
0.0489416
0.0509503
0.0491755
0.0525978
0.148517
0.0257592
-0.00344969
0.0533793
-0.0191097
0.0194108
0.060676
-0.0582587
0.0035125
0.019539
-0.0663326
-0.00269939
-0.0277344
-0.0841434
0.0637329
0.0909571
0.0474803
0.0761426
0.0232336
-0.00885744
-0.00384547
-0.0177289
-0.0136742
0.0640703
-0.0497372
-0.0561649
-0.0182197
0.0521173
-0.00513579
-0.0580664
-0.0699876
0.0268812
0.0587434
0.0143215
0.0528378
-0.013307
0.0360423
-0.0645423
-0.0473414
0.0163487
0.0625255
0.0641462
0.043883
-0.0710415
0.0579393
0.0308987
-0.0532384
0.0515384
0.0552998
-0.0837974
-0.0484509
0.0305718
0.0196945
0.0293472
0.0526452
0.0597387
0.0549735
-0.0158749
-0.0633695
0.0460037
0.0180346
0.0519484
-0.0108036
0.0541027
0.0419807
-0.0491914
-0.0682142
0.0466952
0.056479
0.0826164
0.0566757
-0.0498292
0.0158286
-0.0891119
0.0177511
-0.048413
0.0135071
0.0538688
0.0457451
-0.0250955
0.087959
0.0579057
0.152568
-0.00980459
-0.049089
0.0486387
0.050069
-0.0309732
0.041437
0.0743532
-0.0091277
0.046492
0.0342776
0.00740827
0.0527855
0.211242
0.0258543
0.0315807
0.0569239
0.0145056
0.0159639
-0.0265755
0.056982
-0.0563545
0.0573188
0.0310694
0.0522388
0.0207494
0.0187804
0.0793402
-0.0577105
0.0138081
0.0601839
0.0108415
-0.0309948
-0.0135383
-0.0270912
-0.0807421
0.0479985
0.0461031
0.0287614
0.0724442
0.0181889
-0.00525028
0.154567
-0.0832106
0.00596878
0.0457543
0.01342
0.149025
-0.0593081
0.0709868
-0.0749432
0.024504
0.0309904
0.0526982
0.0626191
0.0580833
-0.06438
-0.029185
-0.0506064
0.0299377
0.0500665
-0.00941696
-0.0155182
-0.038936
0.121186
-0.0276445
0.0197045
0.0418899
0.0317964
0.0446624
0.070913
0.0760954
0.0491323
0.0419286
0.0251247
0.0466073
0.0313955
0.081587
0.0448747
0.0750569
0.0702366
0.104612
0.0521064
0.0451824
-0.00110003
0.0239587
0.0150496
-0.0315543
0.0158187
-0.00510772
0.0603067
-0.00786783
-0.00106084
0.035772
-0.0196232
0.117982
0.0130955
0.0268089
-0.00565804
-0.0304223
0.0487753
0.000855159
0.0592224
0.05688
0.0395439
-0.0722071
0.0419293
-0.00176735
0.11456
0.0607456
-0.0623953
0.110368
0.0379421
-0.0355058
0.0229562
-0.0247
-0.00551468
0.0221083
0.0470991
-0.0244747
-0.0843307
0.051996
0.0448124
-0.0242857
0.0487487
-0.0125563
0.0209075
-0.0795517
0.0526317
0.0496943
0.000414295
-0.0207586
0.0162962
0.0568155
0.0836682
0.0357497
0.00217476
-0.0769605
-0.0571936
0.0320983
0.0346297
0.0070789
-0.01989
0.0350716
-0.0454039
0.00120921
-0.0580413
0.113992
0.0416122
0.0329195
0.047269
0.0484981
0.143762
0.0229542
0.00558777
0.0555382
0.0162314
-0.0584779
0.043462
0.0304872
-0.00530079
-0.0351338
0.217719
0.0338817
0.0378196
0.0559881
0.0419269
0.0489082
0.0532517
0.0827512
-0.0183721
0.0429154
-0.0762288
0.0423177
-0.0699681
0.0135795
0.0359456
0.0583704
-0.00239548
0.0556447
0.037729
0.0287086
0.00187342
0.0831529
0.0300634
0.00458335
0.0661211
-0.0848966
0.0686162
-0.0495929
0.0243877
0.0539453
-0.0462873
5.54451e-05
0.0519523
0.0205664
0.0808907
0.0491033
0.0421555
0.0641445
0.0575105
0.0807349
0.0598786
0.0536711
-0.0436311
0.00796062
0.0548506
-0.00354184
0.149854
-0.0991171
0.015955
-0.0986324
0.0207206
0.0484655
0.0119129
0.0128708
0.0254125
0.062757
-0.0231287
0.0421049
0.00830781
-0.0422144
0.0346039
-0.0430901
-0.0399415
0.052522
0.0844344
0.0653699
0.125206
0.0752877
0.0348553
0.0828085
-0.0491299
0.0141465
0.0480029
0.0509117
0.0535401
0.0334432
0.0672349
0.057044
0.176952
0.0426515
0.0379598
0.0440268
-0.0053713
0.0200573
-0.0492038
0.00235304
0.0680832
0.0623199
0.082764
0.0500835
0.0122554
0.0444059
0.00320747
0.0676629
0.0405428
0.0333245
-0.0657887
-0.0120555
0.0638676
0.0659611
0.122026
0.0222455
-0.0863165
0.0576519
0.0569009
0.0646202
-0.010051
0.0534616
0.0503216
0.0367885
0.0219783
0.0619041
0.119381
0.121542
0.122108
0.0479038
-0.0582288
0.0382909
0.00163461
0.0640556
0.0653048
0.0148676
0.049844
0.0728206
0.0138025
-0.0834632
0.107814
0.0681704
0.0652548
0.0521496
0.0221322
-0.0547881
0.000739999
0.0570314
0.08475
0.0521681
-0.0250335
0.0840529
-0.003268
0.0447014
-0.082379
0.0402226
0.106176
0.0516044
0.152304
-0.0416878
0.0477097
0.0531406
0.0666968
0.182365
0.0116486
-0.0561286
0.0670236
-0.0788836
0.171845
0.0412376
0.0369659
0.0168923
0.0573607
-0.0524253
0.00302738
-0.0609546
-0.0825314
-0.013987
-0.00758736
0.0433572
0.0042724
-0.0268498
-0.062058
0.0426373
0.043936
-0.00121161
0.0175974
0.0365034
0.00270954
0.0144056
-0.0163174
0.0483547
0.0777425
0.0334828
-0.0388903
-0.0750665
0.0530537
0.0470171
0.049594
0.0289313
-0.0179052
0.00803346
0.0717479
0.0646536
0.0566229
0.0167118
0.0459759
-0.0789906
0.0601588
0.00572767
0.0455574
0.0728327
-0.000106706
-0.000571461
0.112451
0.070384
0.0348722
0.0697435
0.00696105
0.0465273
0.058182
0.0444569
0.14809
0.052856
0.0413838
-0.0676789
0.00843409
0.023198
0.0478862
-0.104154
0.118836
0.0127418
0.0448941
-0.0693439
0.0307919
0.0373257
0.0296674
0.00166637
0.205484
0.0667755
0.0516911
0.0548457
-0.0576167
-0.0135949
-0.0101577
-0.0627792
0.0568925
0.0401704
-0.0269026
0.0570491
0.0302212
0.0920932
0.0308983
0.0535612
0.0469437
0.0486095
0.0450582
0.0545438
-0.0831834
0.051354
0.020836
0.0528344
-0.0795535
0.0363992
-0.0097392
0.043055
-0.00761318
-0.0269304
-0.0755887
0.000698134
0.123503
0.000584764
-0.000275621
-0.0284019
-0.0177302
-0.0219473
-0.0429256
0.0462475
0.0404836
0.0451807
0.00359996
0.0485945
0.0446543
0.0610039
0.146213
0.0459412
0.0328727
0.0655608
0.0378518
0.122209
0.0497475
0.0709958
0.00681321
0.0288737
0.0459522
0.0665285
-0.0962961
0.0344127
0.0362379
-0.0844831
0.184706
0.0482753
0.0459002
0.048788
0.0707782
-0.00644324
0.0443904
0.0137804
-0.00491684
0.0408888
-0.0524586
0.077513
0.0487154
-0.0347476
0.0188468
-0.01645
-0.0302698
0.0562964
0.0597034
-0.00186844
0.0431992
-0.0730074
0.0546695
-0.077751
0.0322682
-0.0365937
0.100166
-0.00899061
0.0480704
0.008988
0.153157
-0.00717453
0.00550265
0.0493689
0.0585205
0.0134686
0.0490777
0.0488038
0.0738168
-0.0353207
-0.0639022
0.0509829
-0.0178365
0.0484304
0.108794
0.0544988
0.0753475
-0.0929202
0.0401431
0.0516639
0.0840685
0.0357238
0.195928
0.0596139
0.0564443
0.0418791
-0.0354081
0.0460435
0.0277122
0.0509344
0.0518401
0.0403918
0.150887
0.0540978
0.0525197
-0.0420394
0.0501462
0.0048736
0.122194
0.0621539
0.100024
0.0385313
-0.0333059
0.0426599
0.101209
0.123526
-0.0413762
0.00329609
-0.0127538
0.0666964
0.0549657
-0.0466757
0.0550243
0.041424
0.17502
0.00782708
0.0563687
-0.0708579
0.120053
0.0697869
0.029379
0.050698
0.0650154
-0.0267881
0.057316
-0.00251238
0.095324
0.045308
0.00655929
-0.0199413
0.0539063
-0.0262688
0.015206
0.0484716
-0.0278073
0.0418532
0.0437678
-0.00934427
0.0526103
0.0198122
0.091047
0.00870379
0.10396
0.0136686
0.0728368
0.0374621
0.0329494
0.0779227
0.0436263
-0.0632887
0.187096
0.0871308
0.0144412
0.0183145
0.0279133
0.0529218
-0.00203135
0.00616318
0.0570733
0.00190677
0.0389414
0.0116385
0.0180514
0.0181817
0.0466355
0.067616
0.149095
0.0427664
0.0600281
0.0371724
0.00812172
0.0566352
0.034047
0.0513598
0.0415118
-0.0352012
0.0776998
0.00248066
0.057865
-0.00156846
-0.0228766
0.048539
0.0916379
0.0364229
0.0430832
0.0218265
0.030354
-0.0529114
0.0550333
0.0708323
0.0224164
0.0331559
-0.0133999
-0.0521879
0.0213934
-0.0866482
0.0410054
0.0626125
0.0394134
-0.00349801
0.0429488
0.0123699
0.0768405
0.0909696
0.0175374
0.0524479
-0.091345
0.034915
0.0955041
0.0522248
0.0463672
0.0554084
0.0583281
0.20899
0.0150341
-0.0602783
-0.0369893
-0.000717962
-0.0596605
0.0125473
0.125562
0.0409115
0.0791164
0.0366759
0.0574294
0.061202
-0.0583788
-0.062701
-0.0036542
0.0540108
0.0755568
0.0141665
0.0025098
0.118378
0.126943
-0.0832265
0.115411
0.00598894
0.0581776
-0.0496331
0.044136
0.0294569
-0.0501539
0.0805387
-0.0562183
0.082325
0.0739622
-0.0555021
0.00255213
0.0411351
0.0771164
0.0326552
0.0359561
0.0358881
0.0648231
0.203036
-0.00481049
-0.0228588
0.0941104
0.0690518
-0.0163776
0.0144975
0.045925
-0.0160192
0.0667063
0.0442153
0.00177114
0.054251
0.0508347
0.0629051
0.0170511
0.0444735
0.0923135
0.0972864
0.0359197
0.0522914
0.0543627
0.0939601
0.12968
0.0309376
-0.0976036
0.0535107
0.0660259
0.0593914
-0.0130147
0.102692
0.0467016
-0.00448245
-0.0503259
0.0665873
0.100875
0.0681783
0.0529914
0.0339868
0.0118036
0.0536016
-0.0382588
0.0481858
0.04459
-0.0701662
0.0582624
-0.0425227
0.00403292
-0.0711369
0.0265181
-0.022128
0.0386554
0.0541783
-0.0571333
0.0939219
0.0177947
0.0404444
-0.0597577
0.029564
0.0425935
-0.0554858
-0.0348197
0.0404995
0.00262996
0.102242
0.049536
0.0802261
0.0718944
0.0432626
0.0556871
0.115717
0.0234736
0.0307593
-0.0340964
0.0818833
0.0353916
-0.0352728
-0.0143188
-0.0282923
0.0213149
0.0832425
0.0435384
-0.0458282
0.107132
0.0123713
0.0417763
0.0558039
-0.0545442
0.0412808
0.0761935
0.0076393
0.0479116
0.0199008
-0.0522973
0.0290864
0.0221586
-0.0850585
0.0516297
-0.0041776
0.0700191
0.0836125
0.0532538
-0.0335249
0.0709167
0.0171432
0.0262666
-0.0373717
0.0420952
-0.00219693
0.0250107
0.0550694
0.0446025
-0.0337542
-0.0210145
-0.00974424
0.0406422
-0.0469718
0.0265164
0.00406663
0.04856
-0.0488892
0.0767067
0.0884869
0.0415081
-0.0258321
0.0422197
0.08535
0.0197713
0.0532344
-0.0609759
0.144154
-0.0213415
0.0429355
0.138536
0.0400513
0.0374188
0.0294236
-0.0344444
0.167988
0.0469369
0.0509666
0.0451145
0.0975977
0.00633257
0.0548015
0.0672143
0.00416487
0.0860323
0.132501
0.0575275
-0.026582
0.05251
0.0312947
0.0360869
0.0703426
0.0404086
-0.0558107
0.0226671
0.0402392
-0.0761036
0.0408941
0.0540291
0.0806437
0.0205183
0.0738013
0.0868822
-0.00180746
0.0120211
-0.0416803
0.0279243
0.0541161
0.0702628
0.0316948
0.0249839
0.000324787
0.0750559
0.0272086
-0.0411982
0.131005
-0.0371504
0.066575
-0.0193014
-0.0396197
0.0496327
0.143922
-0.0124984
0.0635144
-0.010978
0.0754607
0.0542457
-0.0499406
0.034521
-0.0460643
0.133606
0.0050445
0.00278734
0.0128262
0.080934
0.0245563
0.0367964
-0.004855
0.0580583
0.0756553
0.0294565
0.052853
0.187942
0.0313702
0.0488611
0.0634576
0.0227725
-0.0973458
0.051251
0.0618186
0.0156971
0.0565246
0.0751482
0.0447462
0.0411359
-0.0923913
0.0247655
0.0344821
0.0588874
0.0158263
-0.020169
0.115054
-0.0524543
0.0419169
0.0452603
0.0546468
0.0568963
-0.0156955
-0.019016
0.0972557
0.0848273
0.051389
0.066767
-0.0105434
0.0544179
0.0878121
-0.010389
0.0503856
-0.0320437
0.0291865
-0.0249852
0.00917977
0.109847
0.0416648
0.0734077
0.0045042
-0.0356552
0.0572985
0.0401423
0.07296
0.0682887
0.0305577
-0.0553958
0.0628782
0.135219
0.0994059
0.00397205
0.0319727
0.0495258
0.0141599
-0.0462009
0.0211607
0.0389815
0.0410511
0.00637216
0.115446
-0.0866746
-0.0590658
0.0807856
0.0430203
0.151814
0.114892
0.00117883
0.0563712
0.023733
0.0285701
-0.00152793
0.117592
0.0983335
-0.0612931
-0.0478389
-0.0291892
-0.070121
0.0635335
0.0644418
0.0342972
0.0427931
0.0481834
0.0459475
-0.0103503
0.105313
0.213058
0.0364751
0.111475
0.0922258
0.0290156
0.0276514
0.0406688
0.0433059
0.0743273
0.0384055
0.0272576
-0.0155704
-0.0412344
0.0290428
0.0225636
0.00209876
0.0709053
-0.021322
0.0494135
-0.0696729
0.0505062
0.0793273
-0.0775279
0.020079
0.0466145
0.0605658
0.00741521
-0.0240939
-0.0565861
0.0635079
-0.00396274
0.0426801
0.0892409
0.0237273
0.0719435
-0.0293596
0.022229
0.036459
0.0194332
-0.0530072
0.0857514
0.0622936
0.0482452
0.0625287
0.0492057
-0.0916026
0.00961597
0.0236462
0.0168521
-0.00358851
0.0618865
0.0328443
0.0146101
0.0601154
0.0530944
0.0507175
0.0448106
0.0230169
0.0242351
0.0544856
0.0673412
0.196092
0.0881049
0.0834668
0.0461956
-0.0455843
-0.00695799
0.0122714
0.0368637
0.0519304
0.0746814
0.0245869
0.0032603
-0.0594667
0.0874401
-0.00243217
0.0166057
0.0343653
-0.0254614
-0.0261099
0.0268842
-0.062401
0.0533348
0.066249
0.112126
0.0201837
0.0262119
0.0908387
0.00350193
0.0610309
-0.0723453
0.0515308
0.128032
0.0287005
0.111282
0.0462572
0.0508067
0.0477394
-0.00175874
0.0872935
-0.00923201
0.048795
0.039822
0.0341711
0.0304314
0.050281
0.0721619
0.0607031
0.13655
0.0322849
0.085624
0.0208651
0.0165357
0.0119637
-0.00714807
0.0731781
0.0512387
0.0143899
0.0504607
0.0379991
0.132398
0.0237356
0.0484545
0.0140093
0.0387578
-0.0165911
0.0568316
0.103209
0.0239669
0.0445978
-0.0111785
0.0349854
0.0916713
0.0295817
0.0496146
0.0471494
0.21229
-0.0712796
0.0179697
0.0752043
0.083095
-0.0899278
-0.0242836
-0.0164815
0.0619515
0.0577789
-0.0211924
-0.0400045
0.087633
-0.0751534
0.0466026
0.0420349
-0.0523246
0.0816516
0.143925
0.0244639
0.0806811
0.0237702
0.015608
0.0502799
0.051331
0.197149
0.0049079
0.0733129
0.117211
0.0277108
-0.0296164
0.0558275
0.0547611
0.0899359
0.00765929
0.074603
0.0389137
0.0461538
0.0534474
-0.055122
-0.0838911
0.0508575
0.0752136
-0.0252863
0.0500851
0.0149059
0.130158
-0.0228378
0.140215
0.0952066
0.0823115
0.0938799
0.0135467
0.0616051
-0.0283492
0.00226173
0.0726106
0.0505209
-0.01203
0.000455604
0.0405534
-0.0201376
0.0490815
0.0657262
0.045884
0.025997
0.0447022
0.0353053
0.0268125
0.0410593
0.0476536
0.0735628
-0.0412445
-0.00913823
0.0577733
-0.0593411
0.0390583
-0.0712293
0.0404829
0.192089
0.0742
0.0851387
0.144092
0.0420725
0.000576529
0.0594913
0.209273
0.0342016
-0.00772209
0.0351984
0.0477601
0.0771858
0.0514061
0.0694162
-0.0619713
0.0262865
0.0479625
0.134888
-0.0245643
-0.071515
0.0184701
0.0373331
0.0230006
0.00233576
0.0368787
0.105195
0.0463096
-0.0400354
0.0575837
-0.0601813
-0.0549175
0.0612962
-0.0070236
0.0226297
0.0767402
-0.0268545
0.0653189
0.119295
0.0191361
0.0907891
0.0361378
0.0491119
0.00701523
-0.0491872
-0.0237766
-0.0609538
0.0315017
0.0864611
0.0837508
0.0428292
0.0417164
0.0565159
0.0557803
0.0250018
0.0534183
0.0514268
-0.0498472
-0.042989
-0.011339
-0.0118151
0.0275535
-0.0676266
0.00103022
0.0630309
0.064686
-0.0190693
-0.0815634
0.0123757
-0.0185626
0.0587969
0.03952
0.0496027
0.0335892
-0.0706925
-0.0160268
-0.0984112
-0.0826647
-0.0106272
-0.0133977
0.0582749
0.0534974
0.0866252
-0.0269867
0.0614887
-0.00860435
0.0958372
0.0153713
0.0660936
0.0982555
0.0500141
0.0913208
0.0154076
0.173555
0.0620481
0.0695487
-0.04458
-0.0368241
0.0554728
0.0297653
0.0476881
0.0482792
0.0779022
0.0394793
0.148968
0.0613241
0.026032
-0.0224178
0.0416513
0.0588641
0.0574139
0.0403241
0.0176018
0.0350798
0.0176659
0.0570566
0.061384
-0.00319872
0.0643494
0.101126
0.00104673
0.0753444
0.137572
0.0274879
0.0482182
-0.0537279
0.0160067
0.0247386
-0.0675267
0.168782
0.031537
0.0286275
-0.0610978
0.0391137
-0.0409806
0.0478362
0.0627057
0.0579762
0.02715
0.0464294
0.107818
0.015216
0.0591226
0.0387541
0.00655771
0.0425276
0.0465433
0.0547591
0.0494579
0.00235509
0.0415659
-0.0349139
0.0462768
0.0581707
-0.0242083
0.0691382
0.0471643
-0.0200958
0.0126207
0.0550267
0.0630581
0.0392254
-0.0396296
-0.00854946
0.0590019
0.0432852
0.0561653
0.0486163
0.0434208
0.0287151
0.0169411
0.0487483
-0.00053278
-0.00612824
0.0363538
0.0392009
0.021178
-0.0323502
0.0308416
0.023178
0.178505
0.0368866
0.0988788
-0.0331917
0.0116245
0.0318561
-0.0412891
-0.0571616
-0.0099197
0.0736826
0.0191881
-0.0534917
-0.0236432
0.0146818
0.0723622
0.0177957
0.0609718
0.0111497
0.15339
0.105929
-0.0691946
0.0171762
0.0496062
0.0541284
-0.0679049
0.126884
-0.038974
0.0402915
0.133962
0.0232545
0.0552002
0.103354
0.0189422
0.0525506
-0.080942
0.0495173
0.0756727
0.033787
0.00618586
0.0411257
-0.00162077
0.0561684
0.010267
0.0519256
0.0311738
0.0480648
0.0385566
0.00118024
-0.00761171
0.0481765
0.058108
-0.0590709
0.0500595
0.0545294
0.0593149
-0.0762852
0.0098127
0.0480648
0.116964
-0.00434317
-0.0104014
-0.0146599
0.0265109
0.0583279
-0.0390073
0.088875
0.0301703
0.0287181
0.127121
-0.058867
0.0600433
-0.0467502
0.0486364
-0.0102736
-0.0328469
0.0732059
0.0540924
0.0393929
0.0728802
0.119433
0.0493595
0.0217073
-0.0411141
0.0977872
0.0434686
0.0601402
0.0211316
0.0695081
0.0583237
0.0260231
-0.0620318
0.00857881
-0.00769001
0.0747309
0.0715313
0.03994
0.0263344
-0.0286041
0.0372426
0.0044098
0.0644139
-0.0261186
-0.00103748
0.0752693
0.0133693
0.0122925
0.0586709
0.0289509
0.0576269
0.0543267
0.0113779
0.0494941
0.0439941
0.19658
0.12073
-0.0531797
-0.0268169
-0.0355034
0.0237294
0.048243
0.10047
0.0152153
0.018028
-0.0404261
0.0342808
0.0297465
-0.0175229
-0.0895218
0.0693326
0.0571338
0.0812335
0.051104
-0.0658887
0.162623
0.0283358
0.018315
0.139691
0.17088
0.0503385
0.0727786
0.161652
0.0910472
0.00546077
0.0273395
0.110101
0.0500488
0.0165721
0.00799155
0.112868
0.0545189
-0.0272809
0.0611347
0.0568135
0.0194557
0.0595319
-0.0505044
0.0717384
0.0225387
0.0474162
0.0275683
0.0623557
0.0928458
-0.061729
0.0433532
0.0177887
-0.00233155
-0.00761367
0.0505421
0.0371483
-0.041796
0.0602891
0.0112223
-0.0135008
0.050535
0.142921
0.0369157
0.0857739
-0.0219768
0.0236941
-0.00619703
0.194712
0.108832
-0.0134501
0.0584113
0.0216358
0.0977056
0.0229327
-0.0199076
0.0337581
0.0417704
0.0638167
0.0216048
0.0242237
-0.0122679
0.0445008
0.041686
-0.0223074
0.0515463
-0.0669864
0.0612204
0.0307306
0.0575964
-0.0955343
0.15221
0.0234771
-0.00116977
0.059822
-0.0257324
-0.00263544
0.175804
0.17443
0.0279766
0.0552673
-0.0102192
0.0287503
-0.0819458
0.0324963
0.0464338
0.0265821
-0.0334897
0.102375
-0.000413454
0.0713923
0.0560695
0.14219
-0.0744533
0.0240576
0.0493053
-0.0326927
-0.0426268
0.0107638
-0.0104073
0.00347035
-0.00327824
-0.0626509
0.00124299
0.0483044
0.0458323
0.0323487
0.0552387
0.0512686
0.0665839
-0.0221789
0.0409371
-0.0361115
0.0481966
0.0575221
0.0529014
-0.0520527
0.0656644
0.018974
0.0183613
0.0682101
0.100484
0.0592109
0.0546646
0.118948
0.0158664
0.0550083
0.0608914
0.0335919
0.0733718
0.0520941
0.0455622
0.0545517
0.0564909
-0.038098
0.0736486
0.00916879
0.0185688
-0.0300966
-0.0886616
-0.0363065
0.114797
0.0603371
0.0151648
0.0954157
0.0096257
-0.0143436
0.022698
0.0537954
0.0495129
0.0458651
0.00332203
0.0453619
0.0681632
0.0973486
0.0416109
0.0669675
0.0880517
0.129785
0.0487105
0.076464
0.0375329
-0.0422597
0.0493325
-0.0190533
-0.0367458
0.0148527
0.0699955
-0.0940379
-0.022454
0.00377137
0.0556777
-0.0441172
0.00365005
0.000170782
0.0766939
0.0436719
0.133222
0.0541708
-0.0469391
0.14209
0.0322
0.058791
-0.0479979
0.143863
0.0390177
-0.0281704
0.126079
0.0617139
0.0771192
-0.00488565
0.0131922
0.0826098
0.0458384
0.013148
0.0223263
-0.00179544
0.0462534
0.0656739
0.152947
-0.0251262
0.0371804
0.0584183
0.0721576
0.0490267
0.0353416
-0.0373495
0.0287273
-0.0228725
-0.00986873
0.0625242
0.140282
0.218182
0.0170461
0.0778444
0.0243044
0.020802
-0.0550928
-0.00801389
0.0471576
0.0408691
-0.00401407
0.078542
0.0321524
-0.0103138
0.00525811
0.0531947
0.0368877
0.0339234
0.135926
-0.0131133
0.0543195
0.0975033
-0.0457957
0.0848318
0.207737
0.0351983
0.057953
-0.0704015
0.0321596
-0.0933046
-0.0313677
0.104816
0.0335778
-0.0942296
0.0514056
0.0623871
0.124292
0.0526373
-0.0281792
0.0701128
0.187003
0.0577178
-0.00284803
0.0102985
0.0225015
0.00587132
0.0589727
0.0459692
-0.048922
0.0112657
0.12223
0.0528075
0.0250079
-0.0325856
-0.0953729
0.0787479
0.041213
0.0353545
0.179595
0.0382937
0.0192882
0.0232801
-0.00802439
0.0109317
-0.03757
0.100269
0.0722382
0.10046
-0.0235903
0.0298348
0.0589566
-0.000953276
0.1639
-0.0438706
0.103282
0.0775998
0.00028645
0.144895
0.0463757
0.0501886
0.0624032
0.135674
0.0595524
0.0622882
0.0510876
0.000220787
0.017722
0.0509382
0.0605068
0.0220172
0.127968
-0.0712055
0.0570009
-0.0111183
-0.00799443
0.147948
-0.0023755
0.0426957
-0.0992782
0.0598506
-0.0131566
-0.0261482
0.0581844
0.126497
0.0485009
0.0388616
0.0469186
-0.0319035
0.0452699
0.10051
0.0251895
-0.0107046
-0.0612879
0.0503698
0.0148528
-0.060746
0.0706696
0.0278411
-0.0726908
0.0283432
0.0295361
-0.0871839
0.138527
0.0180703
0.0533395
0.0222348
-0.0112009
0.0847985
0.031756
0.0330127
0.0879649
-0.0377383
0.207477
0.0521878
-0.0842409
0.0660625
0.0159267
0.0240705
0.0539828
0.0719735
0.126853
0.0558777
0.0916488
0.0810073
0.0560651
0.047055
0.01514
-0.0301536
0.021351
-0.0545855
0.0882391
0.15065
0.0711215
-0.00456357
-0.0792856
0.0775274
-0.050766
-0.0798676
0.0186954
-0.000241471
-0.0602502
-0.0813723
0.129599
-0.0665208
0.0615066
0.0511015
-0.0495381
-0.03218
0.0308185
-0.0688094
-0.0734962
0.0387584
0.0643752
-0.0278844
0.00445942
0.0622625
0.053492
0.0475052
0.0947212
0.127353
0.00798527
0.0301157
0.0591329
-0.0242896
0.0663426
0.103604
0.0607093
0.0247796
0.0260567
0.0650808
0.018419
-0.0439747
0.108556
0.0384544
0.109931
0.0768978
-0.0257313
0.0213927
-0.0136706
0.0636303
0.0674406
0.0481969
0.0468282
-0.0121268
0.00944387
0.0258259
0.162741
0.0253623
0.0503685
0.139545
-0.0632931
-0.0533262
0.0482747
-0.0151902
0.0488096
0.104417
0.124767
0.0312185
0.0765604
0.0196299
0.00787157
0.117624
-0.0733456
0.0205657
0.082845
0.0955193
0.0614774
-0.0365474
0.145013
0.0551929
0.0276438
0.0115722
0.00777125
-0.0208569
0.018638
0.0266492
0.0462324
0.0457585
0.0440133
0.0517246
0.0290044
-0.0419335
0.0077408
0.0631705
0.0979617
-0.00980376
0.0532518
0.133872
0.0477109
0.0378378
0.0559125
0.0240076
0.100091
0.0648003
0.0182275
0.0961244
0.216211
0.061552
0.0223197
0.200663
0.0279097
0.000201427
0.0634017
0.0225864
0.0255631
-0.0126103
-0.00564696
0.194037
-0.0490825
0.0568638
0.134708
0.0980382
0.189824
0.0566416
0.0602318
-0.0142222
-0.062523
0.0661984
0.0508639
0.00474248
0.078343
0.0975578
0.0147779
0.0325253
-0.0113112
0.0129546
0.0582855
0.0498598
0.192057
0.0549865
0.130099
0.00135955
0.0514968
0.00984916
0.130254
0.0593717
0.13309
0.044588
0.0293823
0.100617
0.0449717
-0.0278944
0.132261
0.139899
0.145121
0.0489979
0.043217
0.0308517
0.0709024
0.116713
0.132102
0.0122273
0.0255622
0.116783
0.0478809
0.0561021
0.133172
0.0782986
0.0428067
0.00134762
0.0751481
-0.0150311
0.047308
-0.0584603
-0.00257508
0.0488789
-0.0209747
0.0443837
0.000866068
0.0537222
0.0656863
0.00614373
0.0550853
0.0973378
0.0144158
0.0736485
0.0541722
0.0773717
0.0545702
0.0563672
0.191231
0.0553269
0.0264675
0.0471928
0.0289946
0.104144
0.0260564
0.0555654
-0.0804532
0.100208
0.107446
0.0691705
0.0565788
0.0513216
0.0696596
-0.0807113
0.158568
0.0157435
0.0377026
0.0824481
0.0547318
0.116035
0.0613922
0.0892916
0.111362
0.057169
-0.0581862
-0.0476486
0.0923458
0.061034
-0.000168175
0.0657333
0.0442979
0.0433073
0.0312347
0.0411576
0.039305
0.089016
0.0294315
-0.0774232
0.0912629
0.141818
-0.0429874
0.121013
0.0396082
0.140067
0.0537676
0.0709067
0.0871816
-0.0637797
-0.0139964
-0.0671397
0.0557033
0.0528849
0.05402
0.0384695
0.107111
0.0472185
0.0305891
0.015492
0.128958
-0.012496
0.080743
0.0169377
0.0163962
0.0317921
0.0593793
-0.00573368
0.0329446
0.144055
0.0758057
0.0931478
-0.0029925
0.129942
0.0529866
0.0239706
0.0663095
0.0513546
0.0528386
0.0599888
0.0140995
0.0814897
0.0482618
0.0139624
0.065599
0.0258454
0.0520788
0.00645214
0.0487871
0.0845953
0.0367492
0.0550952
0.0475755
0.0280705
0.0477095
0.0799712
0.102568
0.0957451
0.141447
0.0484045
0.0707701
0.0789732
0.0267575
-0.0167473
0.0830903
0.0167618
0.0260223
0.0468591
0.0498506
0.0479662
0.0499908
-0.0289775
0.106738
-0.0737775
0.0512226
0.0411769
-0.00127404
0.0179227
0.0683537
0.0979185
0.0383009
0.0364365
0.0878231
0.185548
0.0487437
0.017487
-0.0299
-0.0146937
0.0128762
-0.00139284
0.0509589
0.0434414
0.0492268
0.0641467
0.0226778
0.0787616
-0.0663068
0.00875069
0.0174473
0.066322
-0.0988649
-0.065067
0.0139547
0.0440943
0.0732491
0.0104736
0.0444217
0.0628845
0.116237
0.0170436
0.0247919
0.0101293
-0.0173038
0.00935322
0.0440639
0.119529
0.105804
0.0604683
0.119102
0.186644
0.0616763
0.124276
0.0282139
0.0529467
0.0663574
0.00114425
0.057452
0.0404984
0.0468821
0.0771899
-0.0186696
0.0726264
0.00964399
-0.00301109
0.0382509
0.0533944
0.0527948
-0.00339774
0.0605816
0.179838
0.0447206
0.0447457
0.00403392
0.0522277
0.0390164
0.0547494
0.00157796
0.0261429
0.00119021
-0.0918074
0.0399416
-0.0174437
0.0384418
0.102765
0.0941669
0.00820595
0.0595756
-0.0115944
0.0487497
-0.0958919
0.0224481
-0.00381012
0.0397791
0.0531896
-0.0178501
-0.00944133
0.0474947
-0.0776338
0.0255804
0.0608977
0.0616083
0.0240722
0.0885003
0.0319371
-0.0318634
0.0334404
-0.0440682
0.00413787
-0.0446535
-0.0424182
-0.0917966
-0.0119578
0.0725207
-0.0834787
0.0453628
0.0586517
-0.026309
0.0389231
0.0443314
0.0593568
0.0948239
0.013606
0.0617147
-0.010351
-0.0449215
-0.077643
0.0883275
-0.0206675
-0.0396181
-0.034767
0.0813472
-0.0583596
0.0557843
0.0473098
0.0574724
0.096634
0.0599223
-0.0390382
0.0296601
0.197094
0.0571687
0.0412093
0.146667
-0.038365
-0.0232222
0.0231752
0.105557
-0.0868954
-0.0240768