/*--------------------------------*- C++ -*----------------------------------*\
| =========                 |                                                 |
| \\      /  F ield         | OpenFOAM: The Open Source CFD Toolbox           |
|  \\    /   O peration     | Version:  v2012                                 |
|   \\  /    A nd           | Website:  www.openfoam.com                      |
|    \\/     M anipulation  |                                                 |
\*---------------------------------------------------------------------------*/
FoamFile
{
    version     2.0;
    format      ascii;
    class       volVectorField;
    location    "250";
    object      ddtCorrDdt0(U);
}
// * * * * * * * * * * * * * * * * * * * * * * * * * * * * * * * * * * * * * //

dimensions      [0 1 -2 0 0 0 0];


internalField   nonuniform List<vector> 
13308
(
(-0.0035069 -0.00546929 0)
(-0.0244355 0.000178882 3.76955e-21)
(0.00631855 0.00167503 1.53234e-21)
(2.22779e-05 -8.24144e-07 -3.03639e-22)
(0.0012986 -0.00254975 3.36792e-21)
(9.53711e-06 -4.40619e-06 -3.80003e-23)
(0.01213 -0.00338814 3.77307e-20)
(0.000502855 -1.00174e-05 0)
(0.00799747 -0.00661912 0)
(0.0580488 -0.0220033 3.21406e-20)
(-0.0581774 -0.144374 0)
(0.00695423 -0.0476338 1.35161e-20)
(6.74906e-06 -1.92582e-06 0)
(-2.03251e-05 -4.74709e-06 0)
(1.17376e-05 -7.98424e-06 0)
(0.0074495 0.00191487 0)
(-0.00452622 0.00645654 1.02434e-22)
(-0.0257444 -0.000389319 2.14126e-21)
(0.0839326 -0.00132937 -9.08459e-22)
(0.0374506 0.0041975 3.1994e-20)
(0.0065359 0.00212583 1.07699e-21)
(0.00131146 0.00223897 -1.29664e-21)
(-0.00401979 -0.00749535 -7.41077e-21)
(0.0020311 -0.000795414 -1.76542e-20)
(0.00768693 0.00204675 0)
(0.00279471 0.00195418 4.76036e-21)
(0.00405462 -0.00258359 9.0976e-21)
(-0.0494853 -0.146731 -2.26089e-22)
(0.00386172 -0.00292908 8.81692e-21)
(0.0102104 0.00517062 0)
(-0.0290995 -0.0104792 5.36247e-21)
(0.00824121 0.00352828 0)
(-0.00142283 -0.00338425 0)
(0.00194562 -0.00596759 0)
(-0.0584343 0.0350746 6.73669e-21)
(-0.00322101 0.00574453 -3.11375e-23)
(0.0112097 -0.00374705 -2.99128e-20)
(-0.00459947 -0.00811196 2.82559e-21)
(0.000670905 0.00126739 -1.50182e-22)
(0.007066 0.00149613 -8.02834e-22)
(1.23106e-05 6.16012e-06 0)
(0.000280805 -0.00016725 -6.35316e-21)
(-0.0606273 0.04393 3.53573e-22)
(4.97243e-05 -7.7389e-05 1.12914e-20)
(0.00039976 0.0015685 0)
(-0.00194499 -0.01918 0)
(1.73622e-05 -7.98654e-06 5.56932e-25)
(1.78537e-05 -2.2553e-06 1.54217e-23)
(0.0026835 -0.0046597 -1.00308e-22)
(0.00611293 0.00179185 -1.65177e-21)
(5.0266e-06 -7.5327e-06 -1.10424e-21)
(-0.00033115 -0.00128243 0)
(0.00313182 0.00975471 -1.73271e-21)
(0.00901665 0.267784 -1.17931e-20)
(0.00878683 0.00112103 7.39723e-21)
(0.00787232 0.00176908 1.62278e-21)
(4.63837e-05 -6.62841e-05 5.11761e-21)
(-8.71522e-06 -0.00167175 8.62182e-21)
(0.00184609 0.000590177 -9.636e-21)
(0.00167696 0.000667766 0)
(0.0946523 0.0363381 -5.74876e-21)
(-0.00193969 -0.000314788 9.34676e-21)
(-8.40519e-05 -0.00152083 -1.35237e-20)
(4.84626e-05 3.34917e-05 0)
(-5.22016e-06 -3.65583e-06 3.1764e-21)
(-0.00136377 -0.0035087 1.58614e-21)
(2.72533e-05 1.86787e-05 4.325e-21)
(-0.00607364 -0.0198359 0)
(-1.89986e-05 6.10699e-06 -1.34499e-21)
(0.0223028 0.02164 0)
(-0.0326042 -0.0376511 0)
(0.000523373 0.00132031 -7.26981e-21)
(-0.00557025 -0.000713985 6.29117e-23)
(0.00900863 0.00385151 -1.15291e-20)
(-0.0161514 -0.022704 7.61358e-21)
(0.00138805 0.000498867 1.06941e-20)
(8.50307e-05 6.78608e-05 0)
(0.00785327 0.00187949 -9.51286e-22)
(-6.31472e-05 -0.000348841 6.50676e-21)
(-0.0185336 -0.00687105 -9.31924e-23)
(-0.00118217 0.000283045 -5.60608e-21)
(0.000205147 0.000110677 0)
(0.00123048 0.000657043 -6.06483e-21)
(0.00208942 -0.000168337 0)
(0.00628561 -0.0172619 0)
(0.000499244 -5.92304e-05 0)
(0.00814424 0.000836658 -5.25454e-22)
(0.00728524 -0.064507 -7.4617e-22)
(0.0434521 0.0196084 -1.53429e-21)
(0.0386521 0.0140195 -6.37093e-20)
(0.000269055 0.000458414 1.86987e-20)
(2.8697e-05 3.35191e-05 0)
(0.00484958 -0.0022184 -8.80095e-21)
(0.00675859 0.00380062 -7.23177e-21)
(3.17279e-06 -9.22208e-06 -8.78412e-21)
(0.00272215 -7.68275e-05 -9.67002e-22)
(0.000290016 -0.000192074 -4.67648e-23)
(-0.0178146 -0.00967246 1.82604e-22)
(-0.0276652 -0.0415854 -3.8656e-22)
(0.0188571 0.0213955 0)
(0.000215185 0.000435656 -9.79863e-23)
(1.45052e-05 1.65383e-06 -6.46402e-21)
(-1.27401e-05 1.68463e-06 -3.23248e-21)
(0.00731624 0.00446404 0)
(-0.0984684 -0.0943692 8.82695e-21)
(-0.0278832 -0.0063308 -6.81396e-22)
(0.00605639 0.0017657 -1.58887e-21)
(-1.76431e-05 2.85984e-06 1.15445e-21)
(0.00407334 0.00242137 0)
(0.00241895 0.00190676 -5.14021e-21)
(0.000510607 -0.000392362 7.92003e-21)
(-0.00451032 -0.00270886 2.72923e-21)
(0.00806781 -0.000211421 2.43869e-21)
(-4.09623e-05 -0.000312145 -6.14823e-21)
(0.00858707 -0.00137425 -2.76664e-21)
(0.0843119 0.0231567 -6.3011e-21)
(-0.00351293 -0.0184638 1.28853e-20)
(-0.0169513 -0.00712341 -7.8713e-21)
(0.00445137 -0.0027699 -2.47256e-20)
(0.00130013 -0.00164334 0)
(0.00263429 -0.00196098 6.16035e-21)
(0.00521196 0.00763326 0)
(-0.000549326 0.000128507 3.30216e-21)
(-0.00928036 0.0122606 5.98019e-23)
(-0.0317018 -0.0089759 1.99854e-22)
(0.0319004 0.0371388 0)
(0.00454615 -0.0168024 1.05709e-20)
(0.00811761 -0.0160637 -9.70655e-21)
(-0.00626917 -0.00150116 -3.6473e-23)
(0.00856237 0.0012566 0)
(-0.0271543 -0.0382028 0)
(0.0129601 -0.00427589 -7.50525e-21)
(5.48743e-05 3.47792e-05 7.45723e-21)
(0.00307599 -0.000333658 3.5512e-22)
(0.00632774 -0.00673286 2.36258e-21)
(-0.0091846 0.0109096 7.73494e-22)
(4.3374e-05 1.92278e-05 0)
(-0.0307737 -0.00288711 0)
(0.00320957 -0.0470247 0)
(0.000270422 -0.000208113 -6.63736e-21)
(0.00558114 0.00239899 -5.95319e-22)
(0.000503094 -0.000346947 0)
(-2.72148e-05 6.97049e-05 0)
(0.00837672 0.00194912 0)
(0.000739336 0.000174371 -1.64891e-20)
(-0.0282657 -0.000787649 -2.84901e-20)
(-0.0136553 -0.00186782 0)
(0.0423463 0.0187232 -6.76286e-20)
(-0.00103077 0.000338001 1.06557e-20)
(0.0176008 -0.0100292 8.98312e-21)
(0.00837279 0.000806292 1.15899e-20)
(-1.46631e-06 6.08263e-06 0)
(0.039933 -0.0485614 1.55592e-21)
(0.0969633 0.0224401 -1.00952e-20)
(-0.0139481 -0.0155552 0)
(0.00854539 -0.0391334 -8.71396e-21)
(1.34136e-05 -3.18396e-06 1.32171e-21)
(-4.09381e-05 0.000391678 -5.86294e-21)
(1.29713e-05 5.69185e-06 0)
(0.0143006 -0.094148 0)
(0.0503627 -0.0322377 -4.24115e-20)
(-0.000301163 -0.00147595 -7.52735e-21)
(-2.87305e-05 6.29015e-05 3.19918e-21)
(-0.00263444 -0.000563255 -8.77229e-21)
(0.0124328 -0.0376166 8.80553e-21)
(0.0248971 0.01261 0)
(0.00195245 0.00266369 -3.1027e-21)
(-8.70337e-05 0.000357181 8.96185e-23)
(0.00431589 0.00230672 2.7334e-21)
(0.000542482 -0.00188461 -1.01037e-20)
(0.000427432 -0.000377904 -2.13381e-20)
(-0.00377989 -0.016157 1.74216e-20)
(4.60863e-06 3.48519e-06 3.69002e-21)
(0.00634305 0.00176479 9.06599e-22)
(0.00903673 0.00123173 2.96323e-23)
(0.00289821 0.00104414 5.39354e-21)
(0.00106997 0.0015128 -4.95395e-21)
(0.00609602 0.00177975 -8.22508e-22)
(0.020765 -0.00970678 -6.72535e-21)
(-1.44893e-05 -2.70454e-06 3.12023e-21)
(-0.00673324 -0.0505059 1.34417e-21)
(0.00108429 0.010315 1.76135e-23)
(1.18683e-05 2.1104e-05 -4.1468e-21)
(0.063123 -0.01639 -8.20663e-22)
(-0.00741802 -0.00396595 0)
(0.000224618 -0.000108097 9.1623e-22)
(0.0075366 0.00179395 -1.5102e-21)
(-0.0287013 -0.012707 0)
(0.0110249 0.00463493 0)
(-0.003867 0.0381167 0)
(0.00104823 0.0327677 0)
(0.0432503 0.00096563 0)
(0.000801884 0.000215013 7.25036e-21)
(-0.00214809 -0.0544498 1.95876e-20)
(0.000661739 -6.75177e-06 1.49233e-20)
(0.00283978 0.000901326 -4.55291e-21)
(0.00038256 -0.00036262 1.59343e-20)
(-0.0128165 -0.00050661 1.84633e-22)
(-0.00186097 -0.0304969 -1.90374e-20)
(0.000295512 -0.000150296 -8.03597e-21)
(0.00707523 0.00229376 1.18386e-21)
(0.00246197 0.0101995 2.60701e-21)
(-0.0287145 -0.077378 -3.67617e-21)
(0.0056577 -0.0062591 -5.76729e-22)
(0.00859408 0.00148491 0)
(0.000724033 -0.0164858 -1.35825e-20)
(0.0077379 0.00139147 -8.8689e-22)
(-0.0170372 -0.0227064 -7.85802e-21)
(0.00487548 0.0554589 1.8209e-21)
(0.00896355 0.00121096 -4.10484e-21)
(-0.00366726 0.0612797 7.41545e-22)
(-0.0121856 0.0348913 7.20182e-21)
(-0.000926771 -0.00241992 -1.99551e-21)
(0.00536862 0.002485 -1.79565e-21)
(0.000254388 0.00321998 -9.99686e-21)
(0.00139066 0.00873649 0)
(1.07386e-05 -3.17006e-06 -1.91977e-21)
(0.0116266 -0.0605784 -2.54706e-21)
(0.0307798 -0.0579087 -3.88474e-21)
(-0.0161922 -0.023494 -5.02415e-21)
(-0.0513214 -0.164474 -4.57029e-21)
(4.48927e-06 7.36983e-06 8.9982e-21)
(0.0126233 -0.0313028 0)
(-8.34606e-05 -5.35555e-05 -1.79367e-23)
(0.00515117 0.00896394 0)
(0.00795289 0.0048408 2.57454e-21)
(-0.0176062 -0.00530215 0)
(-0.103345 -0.0996282 -1.65143e-20)
(0.00772933 0.00186762 -2.04585e-23)
(-6.50779e-05 -0.0155011 4.23836e-21)
(0.00730368 0.0012722 8.69253e-22)
(-0.00290112 0.010113 4.11661e-23)
(0.00633471 0.00166581 3.84297e-22)
(0.00189872 -0.0182802 0)
(-0.00410074 -0.00813947 0)
(-0.00088692 -0.00189469 9.3367e-21)
(-0.00911509 0.00146871 0)
(-0.00981277 0.0483871 0)
(-0.0142592 -0.0167352 5.37757e-21)
(-0.00382116 0.011096 -5.86757e-21)
(0.00231565 -0.000141666 0)
(-0.00563213 -0.008931 0)
(0.00730894 0.00273301 -1.45318e-20)
(-8.53958e-06 -2.09582e-05 9.61294e-24)
(-0.0140293 -0.0996552 3.29746e-22)
(-0.0107768 -0.0100826 1.8363e-21)
(-0.0112749 0.0390635 -1.03868e-20)
(0.0427758 0.0152813 2.55082e-18)
(-0.000107862 -5.48379e-05 0)
(-0.00819948 -0.00488092 -9.06642e-22)
(1.10875e-05 0.00333939 9.88273e-21)
(-0.00094622 -0.00238936 4.28045e-21)
(1.01972e-05 1.80953e-06 2.08278e-21)
(-0.00146303 0.000262475 -3.16177e-22)
(0.00151488 -0.0340048 -1.6211e-20)
(0.00108491 0.00977863 -4.21032e-21)
(0.0322461 -0.0552384 1.2366e-20)
(8.7705e-06 7.81123e-06 -5.29977e-21)
(-0.00152149 0.246888 0)
(0.00798208 0.00180314 -3.53822e-21)
(0.0102382 0.00605146 0)
(0.0111554 -0.00562144 0)
(-0.000852276 -0.0020357 0)
(-0.00206211 -0.00028169 -8.98553e-21)
(0.0159466 -0.0294564 8.97235e-21)
(0.0114491 -0.00330731 -1.75111e-23)
(-0.00736943 -0.0765313 -1.59912e-20)
(4.79728e-05 2.46422e-05 0)
(-0.0601495 -0.181033 0)
(0.00665131 0.0038367 0)
(-0.0147931 0.0429406 4.407e-20)
(0.00258144 -0.0022113 -2.26547e-20)
(-1.9844e-05 -4.99733e-06 5.57939e-21)
(0.00860029 -0.0465628 0)
(-0.000222569 -0.000286298 9.30914e-22)
(-5.2364e-06 -1.51833e-06 -1.65829e-21)
(0.00418991 -0.000188783 2.3591e-22)
(-0.019756 -0.126221 -1.39994e-21)
(0.00107279 -0.00262377 7.17763e-21)
(-0.017326 -0.019421 2.03462e-20)
(0.00240488 0.000546808 -2.1534e-21)
(-5.29157e-06 5.7312e-06 -1.13266e-20)
(0.0396177 0.0375824 1.52891e-21)
(-0.000278434 0.0105223 2.63187e-21)
(-0.0300241 -0.0165649 0)
(0.0998639 0.0593952 -3.68422e-22)
(-0.00182191 -0.000285241 4.83063e-21)
(-0.00457908 -0.00608646 0)
(-0.0279714 -0.0201934 5.7038e-22)
(0.0856577 0.0986298 -2.52637e-20)
(0.00583115 -0.00188646 -9.248e-21)
(-4.68722e-05 0.000117038 -1.28205e-20)
(-0.000701709 -0.00112262 -4.67857e-21)
(0.00165156 0.00979944 -1.11678e-22)
(0.000539622 0.000627199 0)
(-0.0713729 -0.000487056 7.41553e-21)
(0.00708038 0.00204453 -3.73703e-21)
(0.00888937 0.00742414 -2.03306e-21)
(-0.0206993 -0.0207491 1.96061e-20)
(0.00783214 0.00449823 -5.14754e-22)
(-0.000854763 -0.0026011 2.14948e-21)
(-0.00996648 -0.0060868 8.93654e-21)
(0.00293573 0.00212538 -5.13606e-21)
(0.00308849 -0.0161053 -2.51634e-20)
(-0.00307755 -0.0194494 1.92378e-20)
(0.000430676 -0.00339048 -9.03191e-23)
(0.00650172 0.00176289 -1.97567e-20)
(0.00614588 0.00188781 1.80959e-21)
(0.0629531 -0.00318661 -1.80379e-19)
(0.000225993 -6.9452e-05 0)
(-0.0155871 -0.00346769 -6.00977e-22)
(0.00202034 0.0245314 8.24228e-22)
(0.00575113 -0.00228759 1.77012e-20)
(-0.032499 -0.0894531 -9.90155e-22)
(-0.057029 0.0458833 0)
(0.00917811 0.00131986 0)
(3.1301e-05 3.40529e-06 2.29624e-21)
(0.000426495 0.000677629 0)
(-9.95761e-07 7.45834e-06 -1.04031e-20)
(-0.00194376 -0.000977516 -2.00906e-21)
(1.20123e-05 9.28902e-07 -1.13215e-20)
(0.000162841 9.72371e-05 0)
(0.00846361 0.00114397 0)
(9.39342e-05 1.64936e-05 0)
(0.0110572 0.00760179 2.22381e-21)
(0.0090353 0.000878939 1.35275e-21)
(-0.00136789 0.00990977 -7.75224e-22)
(0.000122945 6.5053e-05 0)
(0.000522237 0.00154019 8.15474e-21)
(0.0272567 0.0101508 3.84683e-21)
(0.000567871 -0.00079314 -4.74155e-21)
(2.48093e-05 -1.56193e-05 5.3419e-21)
(-0.0150573 0.00979224 -3.53923e-19)
(-4.83661e-05 0.000839141 0)
(-1.0006e-05 -6.96533e-06 -9.02598e-22)
(-0.0640437 -0.0968066 -5.62983e-21)
(0.00705061 0.00303545 0)
(-0.000257071 0.000519564 2.04824e-21)
(-0.0156015 -0.0053688 0)
(0.0375425 0.0234094 0)
(0.00107334 -0.00172183 -6.21291e-21)
(0.000114836 5.26459e-05 0)
(-4.23788e-05 -6.79558e-05 -1.30795e-20)
(0.00243999 -0.00574744 4.31512e-21)
(-0.0958837 -0.0696427 0)
(0.082949 0.104916 -2.48536e-20)
(-0.0309049 -0.00780898 -2.96463e-20)
(-0.0271428 -0.00432588 1.14253e-20)
(1.34571e-05 6.4157e-07 0)
(0.00674714 -0.000580895 1.00713e-20)
(-0.00101938 -0.00258763 2.24601e-21)
(-0.0143937 -0.0176603 -2.65123e-21)
(0.0415487 0.212568 0)
(-4.96661e-05 7.51521e-05 0)
(0.00269616 -0.00570165 3.03787e-22)
(0.00164099 0.00127467 3.47608e-21)
(-0.00141262 0.0118837 0)
(0.0021573 -0.00294877 0)
(-0.0290396 -0.0114355 2.87399e-20)
(0.000429859 -0.0360628 -4.57821e-21)
(-0.0602959 0.0592973 -6.35109e-22)
(0.00705217 -0.00613367 -2.48097e-21)
(0.000658216 -0.0020491 0)
(-0.0149248 0.0398465 -3.70653e-20)
(0.000325937 0.00778797 6.58703e-22)
(0.00028019 0.00176521 1.43684e-21)
(-4.2801e-05 -5.73588e-05 1.2473e-20)
(-9.38521e-06 -2.81055e-05 -1.92805e-23)
(0.000220516 -0.00180174 1.67122e-20)
(8.03534e-05 -0.00101701 -2.73682e-21)
(0.00673368 0.00230532 0)
(0.00434083 0.0181909 5.70112e-22)
(0.0275039 -0.000392922 0)
(9.87678e-06 -8.75911e-06 -1.00995e-20)
(0.000404459 -0.00167923 -1.59552e-20)
(-0.0113712 -0.0195669 0)
(-0.00317847 -0.0012195 1.79693e-20)
(-0.000289729 -0.000631696 1.18156e-21)
(-0.00129927 0.000380023 5.66451e-21)
(-0.0155674 -0.134505 -9.19633e-22)
(-2.38542e-05 0.00117926 -4.12319e-21)
(-0.000141161 0.000944929 -7.13617e-22)
(0.0502214 -0.00252032 7.65968e-21)
(0.000650228 -0.00285094 1.1032e-20)
(0.00367933 0.000135015 -9.83133e-22)
(0.000593229 0.00857179 0)
(-0.00406381 -0.00264526 -2.37283e-21)
(0.00212636 0.00149981 0)
(2.26041e-05 1.99209e-05 -4.21867e-21)
(0.0711646 -0.00304691 -1.08535e-20)
(0.00619412 -0.000173843 -5.67146e-21)
(-0.00828067 -0.0128376 3.76899e-22)
(0.0284431 0.024724 -4.16779e-23)
(0.00727329 0.0028522 -1.37624e-21)
(-0.0249771 -0.0119253 -9.15922e-21)
(0.00822609 0.00775589 7.33185e-21)
(-0.0246734 0.275907 -1.6816e-21)
(-6.03825e-05 6.2663e-05 0)
(-0.0904696 -0.0741086 0)
(0.000248706 1.84638e-05 1.72088e-20)
(0.0828934 0.0265606 0)
(-1.43643e-05 -2.99923e-06 -4.27282e-21)
(0.0185126 0.0175112 0)
(0.000510863 0.00164601 -1.43914e-21)
(-0.000549487 -0.000178237 -1.14383e-24)
(-0.0649721 0.0214232 -8.05171e-21)
(1.58952e-05 -8.99999e-07 2.01467e-21)
(-0.000478099 9.00649e-05 -3.35137e-21)
(-0.0256888 -0.0378151 1.22818e-20)
(-0.103302 -0.114348 -7.43565e-21)
(-0.00221881 0.00440236 -1.5581e-22)
(0.0296108 0.00126399 4.35448e-19)
(-0.0417739 0.028869 0)
(-5.30269e-05 5.15999e-05 -3.5977e-21)
(4.65965e-05 5.31091e-05 -4.35651e-21)
(-0.00971319 -0.00943517 1.69331e-21)
(-0.000132934 0.00115925 9.1098e-23)
(4.43129e-05 6.08533e-05 0)
(0.00204907 0.00101011 -1.01806e-20)
(-0.0142163 -0.021237 -6.40539e-21)
(-0.0310513 -0.0179336 -8.76691e-21)
(0.000645459 -0.00184937 0)
(0.00111456 -0.00154483 1.12915e-20)
(-0.000769689 0.000677242 0)
(0.00781207 -0.00221074 -3.6464e-21)
(0.00604589 0.0017663 3.15081e-21)
(0.0375491 0.0262505 0)
(0.000680326 5.82769e-05 9.22322e-21)
(-0.00156468 0.270606 1.24379e-20)
(0.0399319 -0.043037 -6.04291e-21)
(0.097681 0.0669635 0)
(-5.21112e-05 -0.000248816 -2.67806e-21)
(0.024545 0.0228544 -3.88149e-21)
(-0.0098577 -0.0283786 -1.37475e-22)
(-0.000948374 -0.000288847 7.50233e-21)
(5.70575e-05 2.20024e-05 2.16818e-22)
(-0.00394743 -0.00149547 -9.14691e-21)
(3.6377e-05 3.08148e-05 -7.423e-21)
(0.00621573 -0.00205313 1.62601e-20)
(0.00706838 0.00142887 1.87389e-21)
(0.00395854 0.00325875 3.62889e-21)
(-0.00278426 -0.00220129 0)
(0.00559466 0.00205233 -3.29659e-21)
(0.000819306 -0.00171398 -8.06977e-21)
(-0.00525499 0.00444739 -1.76068e-21)
(0.000152483 -0.000964581 5.92296e-21)
(-0.00199581 -0.0114259 2.46907e-22)
(0.0031172 0.0092607 0)
(1.29422e-05 2.57195e-05 6.17697e-21)
(-0.00921187 -0.00630293 0)
(-0.00249046 -0.00573382 0)
(-0.0135104 -0.0366849 1.08089e-20)
(-0.0465195 0.0223645 6.07122e-21)
(-0.0154284 -0.00880699 0)
(0.00181858 -0.00080012 1.13918e-20)
(0.00592401 0.00091802 -1.44277e-20)
(0.000261361 -0.00202617 -3.76578e-21)
(-0.0319041 0.0220345 -4.51812e-21)
(-0.00468977 -0.00768599 0)
(0.0160184 0.0172414 0)
(0.106824 0.0533663 0)
(-0.0102438 0.00135125 -7.77398e-23)
(3.62507e-05 5.97761e-07 9.59078e-21)
(0.0471684 -0.0384847 0)
(0.00124264 -0.00140827 0)
(0.00805703 0.00175868 -5.82333e-21)
(-0.000309616 0.000475035 -2.92836e-21)
(-0.000863355 0.000726165 0)
(0.00016744 -0.000317921 1.47352e-20)
(0.0062677 0.0035598 -2.09442e-21)
(-0.0162522 -0.0216066 -1.67632e-20)
(9.96463e-05 3.24395e-05 0)
(-0.00548315 -0.00834511 -3.70993e-21)
(-0.000239422 0.000672844 1.08834e-20)
(-0.0143567 0.028297 -3.00657e-22)
(-1.24043e-05 0.000154428 -1.13296e-21)
(0.0167847 -0.0181617 -9.43296e-21)
(0.000600808 -0.000355456 0)
(-0.0309291 0.0304576 -6.4726e-22)
(-2.96693e-05 -7.50496e-05 0)
(-0.0186441 -0.00664676 -2.58726e-23)
(1.49206e-05 3.04736e-06 0)
(-0.0201189 -0.00677444 0)
(-0.00109902 -0.000253869 -1.18152e-20)
(-0.00196854 0.0244672 7.26092e-21)
(-0.000645944 0.000714469 0)
(0.00177907 -0.00437519 0)
(-0.0428555 -0.00499672 1.23652e-21)
(0.000565408 -0.000402202 -8.16801e-21)
(4.93071e-05 2.11196e-05 7.65214e-21)
(3.2131e-05 0.000101142 -1.37313e-20)
(0.00706285 0.00194773 -7.8679e-23)
(-0.0449376 -0.00761588 -2.37146e-21)
(8.80502e-05 4.63356e-05 2.2741e-24)
(-0.00059767 -0.000268701 2.59757e-24)
(-0.000580176 0.000791395 1.46966e-21)
(1.26403e-05 -4.22525e-06 0)
(-0.00634166 0.290125 -1.75759e-20)
(-0.0325743 -0.0459532 1.3189e-20)
(-0.0120463 -0.038443 -9.55586e-21)
(-0.0110513 -0.00894468 1.82849e-21)
(0.00796343 0.00181884 0)
(-0.0604867 0.0387977 -4.93017e-21)
(-0.0159642 -0.0853827 -3.07741e-22)
(0.00183913 0.00151401 0)
(-0.000414505 -0.00247609 3.81796e-21)
(0.000583107 0.0359366 1.07534e-21)
(0.00544583 0.00216976 3.9016e-21)
(3.02271e-05 -1.46538e-06 -4.79977e-21)
(0.00430379 0.00210261 6.62129e-22)
(0.0183533 -0.0155209 0)
(0.029675 0.0400208 -1.01438e-20)
(0.000304783 0.000989302 1.41696e-20)
(0.000800358 0.000583028 0)
(0.00213269 -0.000593093 -1.44154e-22)
(-0.000680866 -0.00336443 0)
(-0.000256028 -0.00497304 4.06107e-23)
(-1.14004e-05 4.42938e-06 0)
(0.00596965 0.0273898 -5.39385e-21)
(0.000337635 0.000576611 1.2146e-21)
(-0.010871 0.0829817 0)
(0.0609473 0.184067 0)
(-0.0083443 -0.00531923 0)
(-0.00565566 -0.0120136 -3.19908e-22)
(2.35186e-05 -3.08012e-06 0)
(-0.000795034 -0.0015412 1.25503e-21)
(-2.63601e-05 -8.76149e-05 -3.08727e-21)
(5.51962e-05 1.22919e-05 -2.18571e-22)
(-0.00288069 0.10381 -3.31856e-21)
(0.0372905 0.038749 0)
(-0.00181217 0.0229877 -2.63826e-21)
(-0.000573772 -0.00368686 7.76697e-21)
(-0.00221403 0.000957764 5.33365e-21)
(0.00341275 0.0058448 -4.33287e-21)
(0.000190865 -4.55832e-05 -3.7026e-22)
(-0.0932518 -0.104263 3.61518e-21)
(0.0651966 0.0456332 -2.41655e-21)
(-0.000904473 0.0123949 5.60962e-22)
(0.000101372 7.77652e-05 2.34336e-22)
(-0.0171544 -0.021961 1.44311e-20)
(2.82155e-05 -7.6123e-05 -5.38072e-21)
(0.0176243 0.0363729 2.1975e-21)
(1.53909e-05 2.98008e-06 -2.43668e-21)
(-0.0940895 -0.0783447 -1.8001e-20)
(0.000231327 0.00101773 -1.86838e-20)
(0.0103557 0.0071856 3.48006e-21)
(-0.0334502 -0.0495061 -9.46384e-22)
(0.00754676 -0.0156417 -1.79145e-20)
(3.84695e-05 2.23795e-05 7.77199e-21)
(-0.00104327 -0.00112179 -1.19453e-20)
(-0.00221007 0.000535999 0)
(0.00569574 -0.0235596 8.50878e-21)
(-0.0295169 -0.0378408 0)
(0.0416115 0.0662358 0)
(0.00225728 0.00163346 5.31459e-21)
(-0.0320096 0.0214801 2.74203e-22)
(-0.00344498 -0.00303662 -1.61745e-21)
(0.00722996 0.00199142 3.19666e-21)
(-0.00753351 -0.0153474 0)
(-0.00429537 -0.00335036 1.75107e-21)
(0.000508051 -0.0071926 0)
(1.08506e-05 1.00198e-06 4.72287e-21)
(-0.00125238 -0.00103196 0)
(-0.0811414 -0.013155 0)
(3.58314e-05 -0.000357617 -7.38139e-21)
(-0.00240205 -0.0023683 -3.84871e-21)
(0.00654648 0.00219891 -3.33376e-21)
(0.000111041 2.90796e-05 0)
(-0.0100079 -0.00783902 -1.02898e-20)
(-0.0107934 -0.00854095 -3.48279e-21)
(-0.0338333 -0.0411972 -6.67299e-21)
(7.19136e-05 -5.43217e-05 0)
(8.24423e-05 -0.000348501 7.50709e-21)
(6.68516e-05 -6.25361e-05 0)
(-0.00990341 -0.0272435 3.23812e-21)
(0.00643677 -0.00150681 -3.29756e-20)
(-5.46366e-05 8.84918e-05 -4.38215e-21)
(0.000226696 2.99953e-05 -5.74929e-21)
(-0.0125518 -0.0298132 9.9439e-21)
(-1.16336e-05 -2.1279e-07 0)
(0.00706725 0.00356258 -1.37768e-22)
(0.0155713 -0.0242942 8.9038e-21)
(-0.00207078 -0.00252756 -1.1036e-20)
(0.00544992 0.0129246 -2.10251e-20)
(4.10876e-05 2.44456e-05 0)
(1.97584e-05 -8.0302e-05 0)
(-4.54874e-05 7.72963e-05 0)
(-0.000354754 0.00864326 1.194e-20)
(0.00215907 0.000841063 1.28388e-20)
(1.26412e-05 -1.82279e-06 -3.7975e-21)
(-0.0214287 -0.145771 2.66792e-21)
(-4.88128e-05 3.20358e-05 -3.93599e-21)
(-0.00155343 -0.00051473 -7.06228e-25)
(-7.01763e-05 -6.32796e-05 0)
(3.26102e-05 1.82812e-06 0)
(0.00305544 0.0034803 0)
(0.000170133 -0.000125161 -7.77632e-23)
(-3.21762e-05 0.000128341 4.73879e-21)
(0.00746164 0.00173832 0)
(0.000341722 -0.000136881 3.67858e-21)
(3.08162e-05 3.11815e-06 0)
(1.75861e-05 0.000100646 0)
(-0.00295738 -0.00902238 1.76728e-20)
(-0.0093987 -0.00427038 -1.1168e-20)
(-0.000336487 0.00125657 0)
(0.000681139 -0.00242695 -1.53969e-20)
(-8.79556e-05 0.000111658 7.99342e-21)
(0.00365381 -0.0455167 1.73592e-20)
(0.000785903 -0.00640224 -1.09798e-20)
(-0.00565133 0.0115791 2.45792e-21)
(0.00121935 0.0127591 2.42628e-22)
(0.000365327 -0.00189405 1.19876e-20)
(0.00150978 -0.00274576 -1.93166e-20)
(1.20249e-05 1.80235e-06 -1.68631e-21)
(-0.0147916 -0.0104137 0)
(-0.00976219 -0.0283953 -1.05016e-20)
(0.00656806 0.00104583 0)
(-2.22763e-05 9.82322e-06 1.98135e-21)
(-0.0139463 -0.1199 7.77436e-22)
(-0.0257458 -0.0997504 -9.42974e-21)
(0.0024848 0.0173812 -1.20584e-20)
(-5.32644e-05 8.43219e-05 0)
(-0.00161686 -0.00716868 2.00196e-22)
(-0.0178709 -0.134333 -1.38971e-21)
(0.0179964 -0.022007 8.70942e-21)
(0.00932762 0.00175487 -2.76058e-21)
(-0.000946486 0.00024601 -1.5564e-20)
(3.70292e-05 3.5956e-07 -1.03022e-20)
(0.0088612 0.0116149 0)
(0.0090442 0.00176492 -5.25213e-21)
(-0.00708536 0.0102147 2.90974e-21)
(-0.00484988 -0.0042357 0)
(0.00282802 0.156672 -3.8139e-21)
(0.00685121 0.00145194 8.01588e-22)
(0.0116837 -0.0325703 -2.29871e-20)
(-0.0153255 0.0690067 0)
(-0.00139555 0.008319 -1.19879e-20)
(0.000261339 0.00153278 8.03105e-21)
(0.000918186 0.0151473 0)
(0.00440818 0.00215266 -8.65451e-23)
(-0.00215239 0.00364461 -2.72785e-22)
(-0.000114644 0.000110334 -4.4829e-21)
(0.00679264 0.00212345 0)
(-0.0666235 0.0144886 -6.81624e-21)
(-0.00175048 -0.004643 -1.06586e-20)
(0.0677868 0.0551147 3.44609e-21)
(0.000986384 -0.00074181 2.16245e-20)
(0.000224235 -1.73763e-05 2.78991e-21)
(-3.64463e-05 -5.27203e-05 0)
(-0.0318171 0.262562 -7.95541e-22)
(0.00830131 -0.0133655 0)
(-1.14372e-05 3.27535e-06 0)
(0.00289122 0.00564678 2.46421e-21)
(0.000210455 0.000589398 1.17269e-20)
(-0.0130407 -0.0274205 0)
(3.14601e-05 2.86715e-05 0)
(6.83564e-05 -3.70112e-05 0)
(-0.0103997 -0.0217348 0)
(-0.00785193 -0.00144539 0)
(0.00349343 -0.0053412 0)
(-0.0250606 0.0577837 2.70224e-22)
(0.00564007 -0.0628297 -5.1008e-20)
(0.00424223 0.0130373 1.6643e-20)
(-0.0129968 -0.0209086 1.54209e-20)
(-0.00594705 0.0113813 0)
(-0.0136299 -0.0230063 0)
(0.00162206 0.01279 -7.02473e-23)
(1.6445e-06 -4.91919e-06 5.50726e-22)
(0.00729117 0.00149214 8.22527e-22)
(0.00378654 0.00334517 3.64669e-21)
(0.0053673 -0.0273707 4.85639e-21)
(0.00123572 -0.00182905 -1.78833e-23)
(0.0215142 -0.0723057 0)
(5.96516e-06 -2.51168e-06 -4.17843e-23)
(2.60035e-05 2.8951e-05 0)
(0.00387574 0.00271972 0)
(0.000212909 -0.0286236 -3.87901e-21)
(-0.00601451 -0.0197941 -1.02193e-20)
(0.0585201 0.0769356 -2.66761e-22)
(0.0826158 0.00243031 0)
(0.00202402 -0.000393585 9.73698e-21)
(0.0315165 0.022023 -3.54276e-21)
(-0.0127333 0.0051911 -1.16748e-20)
(-4.83918e-05 -4.74703e-05 0)
(-0.00222931 -0.0082088 0)
(1.51513e-05 -1.53989e-06 3.52958e-22)
(0.00368817 0.00294773 6.09606e-21)
(0.00408744 0.00253966 0)
(0.00893187 -0.0164512 -3.89634e-22)
(0.0255099 -0.00787502 2.00359e-19)
(-7.60316e-05 -0.000209201 2.80217e-21)
(0.0324732 -0.00167922 -3.58191e-20)
(-0.012989 0.00328352 0)
(0.00238306 -0.0159331 -1.03429e-20)
(0.0114685 0.0554403 -2.84813e-20)
(-0.00174381 -0.00245454 -4.96713e-21)
(-0.000403781 0.000501355 4.79526e-22)
(-0.000247182 -0.00215145 3.8612e-21)
(-0.000449554 0.000427255 0)
(-0.00980857 -0.0267581 -4.71574e-21)
(-0.000295164 0.000893481 -4.60883e-21)
(0.0317875 -0.0541214 0)
(0.0540063 0.0851643 -2.32237e-21)
(0.00905085 0.010103 6.0026e-21)
(0.000884681 -0.00178933 -1.26472e-20)
(0.00205035 -0.00108829 -7.23604e-23)
(0.0256479 -0.0626965 0)
(0.00419135 0.155096 -4.20058e-21)
(0.0144586 -0.0651018 -5.73511e-21)
(0.00110419 -0.00183778 8.93079e-21)
(2.77601e-05 -1.35681e-05 0)
(4.10321e-05 -8.31805e-05 -6.45413e-24)
(0.00889622 0.00149374 1.24422e-20)
(-1.83064e-05 4.91081e-06 1.12624e-21)
(-0.00480149 -0.00237996 -9.2539e-22)
(0.00280906 -0.00244452 0)
(-0.000397569 0.000974417 -3.22705e-21)
(0.000188342 -1.43219e-05 4.50916e-22)
(1.85985e-05 1.22684e-05 0)
(-5.79647e-05 3.99796e-05 4.04928e-21)
(0.00194198 -0.00236452 4.69041e-23)
(0.000715962 -0.000318095 0)
(-0.00971411 -0.0149909 0)
(-0.000643074 0.0783294 -1.2754e-21)
(0.00104668 -0.0180925 1.1121e-20)
(-2.14864e-05 -2.71043e-06 0)
(0.0363204 0.0369542 1.16191e-20)
(0.000866419 0.0137575 0)
(-0.00165802 -0.00506352 1.73096e-20)
(-0.000264622 0.00201542 6.11361e-21)
(-0.00122883 0.00578029 -4.18937e-23)
(0.000273152 0.000575148 4.00887e-21)
(-0.00210393 0.00651765 8.01373e-23)
(-0.000199712 0.000551027 1.0737e-20)
(0.00675209 0.00149375 -2.14293e-21)
(0.0017141 0.00174859 -2.39406e-22)
(0.0750868 0.0477571 0)
(-0.0995364 -0.116404 6.49412e-21)
(-0.00889016 -0.0747241 0)
(0.000317105 -0.000345404 -4.2568e-21)
(5.34079e-05 -6.04025e-05 -1.04059e-20)
(-0.0145697 -0.0197984 2.1997e-21)
(-0.000180066 0.000401944 -1.06083e-20)
(-8.579e-05 0.00383425 0)
(-0.000187596 -0.000313467 -9.56624e-21)
(-0.00145399 -0.000340686 0)
(0.0894616 0.0133987 0)
(0.000203773 -0.00405627 9.11163e-23)
(0.000389055 -0.000184212 0)
(0.0138885 0.0140935 3.82992e-20)
(0.00876412 -0.00589178 0)
(0.00867939 0.00150662 -6.81257e-21)
(-0.0125764 -0.000235493 1.85529e-21)
(-0.0287309 -0.0183403 -5.01661e-22)
(-0.0630794 0.317678 -1.25662e-20)
(-7.34036e-06 -7.35444e-06 -3.72855e-22)
(2.92641e-05 1.53034e-06 0)
(0.00288508 -0.00173041 -1.3069e-20)
(0.0014464 -0.0713176 4.57912e-21)
(-0.000553366 -0.012402 0)
(0.00096418 -0.00311327 0)
(8.32304e-05 2.28811e-05 -9.51938e-21)
(-0.025074 -0.0272619 0)
(0.00285976 0.00362036 -3.88937e-21)
(-0.0013424 -0.000332207 -1.30484e-23)
(8.6404e-06 1.47976e-06 1.24083e-21)
(-0.00851328 -0.00203685 0)
(0.00441675 0.00190886 5.10863e-21)
(0.00151991 -0.00565599 0)
(-0.000217155 0.000494977 0)
(0.000102187 3.55421e-05 -2.52988e-22)
(-0.000219254 -0.00024452 -1.28798e-21)
(-0.000646754 -0.0002179 8.85302e-21)
(0.000340577 -0.00037049 3.24312e-21)
(7.83832e-05 1.62722e-05 0)
(0.000215499 0.000368117 -1.7629e-20)
(0.00140707 0.00141954 -3.47302e-21)
(-0.00059244 0.00202247 -1.00316e-20)
(3.79609e-05 1.14279e-05 -1.0658e-22)
(-0.00405768 -0.0240621 5.15915e-21)
(0.00362056 -0.0400732 0)
(0.0889227 0.000689205 1.38543e-20)
(0.0106392 0.0268612 -1.07438e-21)
(2.24881e-05 1.15879e-05 -1.8772e-21)
(0.000175053 -0.000362935 0)
(0.0278567 0.0073072 -7.22556e-20)
(-0.0014085 -0.0323853 1.75011e-20)
(0.0513562 0.0818651 3.8883e-21)
(-0.0396308 -0.0933325 2.19264e-22)
(0.034402 0.0613958 0)
(-0.0770536 -0.00840696 4.31971e-21)
(6.13292e-06 -2.61389e-06 -9.01337e-21)
(0.00347325 0.00318644 0)
(0.00146662 0.00173207 -1.09003e-20)
(0.00647702 0.0118244 0)
(1.56125e-05 1.65152e-05 0)
(0.00752747 0.00137449 8.75336e-22)
(-5.02695e-05 -4.04437e-05 6.20391e-21)
(0.0079812 -0.000588095 -8.40702e-21)
(-0.0144433 -0.000462035 -1.02912e-22)
(0.019977 0.0261577 -4.11447e-21)
(8.97346e-06 3.38802e-07 0)
(-1.16884e-05 0.000113332 -3.25084e-23)
(0.000841453 -0.000263679 8.78489e-21)
(4.47452e-07 -3.37884e-06 0)
(0.00627816 0.00227537 4.81367e-21)
(0.00559806 0.0125284 0)
(0.0148651 -0.0534453 0)
(-0.0128894 -0.000795183 3.08731e-23)
(0.000693992 0.000690676 4.75109e-21)
(0.0087938 0.00167217 0)
(0.00168057 -0.0034582 0)
(0.000382604 -0.000238544 3.44755e-24)
(-0.0131707 -0.132182 -1.60429e-21)
(-0.0132927 -0.0160226 2.12181e-21)
(-0.0357262 -0.00211707 -1.36744e-20)
(-0.0125417 -0.0688502 -6.23339e-21)
(0.00712297 0.00133022 9.98874e-22)
(0.000553584 1.22382e-05 0)
(-0.0116216 -0.00201246 -1.56436e-22)
(-0.00642765 -0.0760456 -1.92462e-21)
(1.7247e-05 -0.00012227 0)
(0.00221123 0.00124976 0)
(0.00133563 -0.000215505 3.99992e-21)
(-0.00288484 -0.00144863 1.95884e-24)
(-0.00125596 -0.00196712 4.0041e-21)
(0.00228929 -0.0509656 -3.49728e-21)
(0.00577319 0.00184139 -3.14544e-21)
(2.14704e-05 -3.42558e-06 -6.66033e-21)
(-0.00878667 0.000411622 1.44714e-21)
(3.40618e-05 -0.000113539 0)
(0.00343025 -0.00145733 2.67915e-22)
(0.0331507 0.0404612 -3.52321e-21)
(-0.0347597 -0.00872982 0)
(-0.0245337 0.01216 -5.91008e-22)
(-0.0142535 -0.00753446 -1.40083e-20)
(-1.12615e-05 -4.2746e-06 8.026e-22)
(0.00320086 0.00199479 7.47735e-21)
(0.000660425 0.000185705 0)
(-0.0195182 -0.122887 1.39056e-21)
(0.00865941 0.00126533 3.8092e-21)
(-1.65612e-05 2.11528e-05 3.55297e-21)
(0.00543073 -0.0328173 -3.75952e-20)
(0.0936644 0.0644354 1.25417e-20)
(-0.00387128 -0.00224468 0)
(6.89452e-05 2.45668e-05 0)
(-0.00126471 -0.000407917 4.68101e-21)
(0.00772887 0.00157186 0)
(8.59703e-06 5.01013e-06 -7.81106e-21)