/*--------------------------------*- C++ -*----------------------------------*\
| =========                 |                                                 |
| \\      /  F ield         | OpenFOAM: The Open Source CFD Toolbox           |
|  \\    /   O peration     | Version:  v2012                                 |
|   \\  /    A nd           | Website:  www.openfoam.com                      |
|    \\/     M anipulation  |                                                 |
\*---------------------------------------------------------------------------*/
FoamFile
{
    version     2.0;
    format      ascii;
    class       volScalarField;
    location    "250";
    object      epsilon;
}
// * * * * * * * * * * * * * * * * * * * * * * * * * * * * * * * * * * * * * //

dimensions      [0 2 -3 0 0 0 0];


internalField   nonuniform List<scalar> 
13308
(
5.9403e-07
0.00634182
0.00466209
1.06429e-06
2.14265e-06
5.25277e-07
3.16379e-06
1.66117e-06
3.19125e-06
0.0107363
0.00396268
0.000592178
5.47382e-07
1.26984e-06
5.85728e-07
0.00484277
5.5963e-07
0.0067054
0.00094294
0.00431621
1.24368e-06
0.00534884
0.0119258
1.87139e-06
0.00489597
0.00778077
2.22759e-06
0.00365233
2.27097e-06
2.49206e-06
0.00633308
2.28662e-06
0.011041
2.84043e-06
0.0105723
6.42175e-07
3.17193e-06
0.0126717
1.58827e-06
0.00471104
1.48258e-06
1.71607e-06
0.00716822
1.14897e-06
1.56841e-06
0.000529389
6.42966e-07
1.18306e-06
5.82708e-07
0.00450859
1.40522e-06
1.26868e-06
0.00437314
0.00140862
0.00757904
0.00473082
1.147e-06
1.25449e-06
1.73337e-06
1.71397e-06
0.00226981
0.0139178
1.2585e-06
1.56418e-06
1.08742e-06
0.0105407
1.01543e-06
0.00135743
6.29024e-07
4.56475e-06
0.00667104
1.57762e-06
3.31244e-07
2.35341e-06
0.00840804
1.12349e-06
4.61787e-07
0.00480599
1.2211e-06
0.000101666
1.38644e-06
4.66611e-07
1.11081e-06
1.80957e-06
0.000536698
1.67221e-06
0.00999887
0.00842595
1.49665e-05
0.00212274
1.54863e-06
1.00871e-06
2.25627e-06
1.25165e-06
1.27079e-06
6.44837e-07
1.72533e-06
0.000102285
0.00675404
4.10593e-06
1.54006e-06
1.60209e-06
9.59618e-07
1.26218e-06
0.00642736
0.00630004
0.00474759
7.07077e-07
0.00597959
0.00829893
1.74605e-06
4.57777e-06
9.17744e-07
1.22307e-06
9.32632e-07
0.000353947
0.00089623
6.98717e-05
2.28852e-06
1.22167e-06
2.05605e-06
1.24905e-06
7.07214e-07
1.20839e-06
0.000179975
3.17148e-06
0.000989573
0.000497216
3.53696e-07
0.00581087
0.00670756
1.4252e-06
1.5592e-06
6.5073e-07
3.101e-06
6.55507e-07
1.03692e-06
0.000176168
5.60674e-06
1.73494e-06
0.00411309
1.74789e-06
1.43178e-06
9.16886e-07
1.65137e-06
1.99464e-06
3.22097e-05
0.00173769
1.38748e-06
1.54819e-06
0.00840901
1.23622e-06
0.0094652
0.00192788
0.0159128
2.29531e-06
7.69267e-07
7.45957e-07
1.50563e-06
0.000539271
0.0102851
1.26885e-06
1.42708e-06
0.0147739
2.07531e-06
1.77946e-06
0.00523719
7.37752e-07
0.00580341
2.05511e-06
1.7571e-06
3.99806e-05
1.38304e-06
0.00436827
0.00972477
0.00655196
0.00566814
0.00458303
1.60607e-06
8.25471e-07
0.000319611
0.00416954
9.90973e-07
0.0109098
0.0183315
6.21831e-07
0.00448794
0.00609766
2.57709e-06
0.00497928
0.00362686
0.00490873
1.64767e-06
0.000663033
1.66946e-06
0.00681438
1.7558e-06
9.33465e-06
0.0112133
1.70679e-06
0.00484785
0.00431983
0.00384779
2.98898e-06
0.00567778
5.8476e-05
0.00488291
0.00969144
0.00923241
0.00818736
0.0104003
3.4842e-06
2.42843e-06
0.00416452
0.0113604
1.20143e-06
8.25604e-07
0.00873176
0.000306917
0.00960277
0.00342053
1.07233e-06
1.86166e-06
4.21735e-07
1.26405e-06
0.00513592
1.67391e-06
0.00559043
0.0046458
1.4176e-05
0.00466567
1.19336e-06
0.00459017
0.000923386
1.98209e-06
2.32275e-06
0.00476137
0.000137938
0.0156361
1.21617e-06
1.82647e-06
2.83391e-06
1.26118e-06
4.25159e-07
0.000467395
0.0171976
3.92894e-06
2.47159e-05
4.23283e-07
0.0181692
0.0117942
0.0112074
1.5605e-06
0.0134621
0.0116844
1.21465e-06
0.00917294
1.13955e-06
0.00533999
0.00485606
2.48168e-06
9.59234e-06
2.32958e-06
9.63691e-07
1.8219e-06
1.38231e-06
0.00076516
1.57636e-06
0.00345635
0.00478104
3.08824e-06
2.08543e-06
1.30338e-06
3.158e-06
1.25729e-06
1.18086e-06
6.60869e-07
0.000540167
2.1456e-06
1.74921e-06
0.00720297
1.59477e-06
6.83407e-06
1.21307e-06
0.00618938
0.00726515
9.57376e-07
6.26334e-07
1.56827e-06
0.0155833
2.28705e-06
9.79903e-07
0.00301224
0.00419677
7.85539e-07
0.00872154
0.00429648
2.35102e-06
1.79023e-06
0.00502878
0.0107284
1.05605e-06
0.00753853
0.00208375
0.00317662
5.39355e-07
2.1438e-06
0.00435353
0.000438212
6.16647e-07
0.00019154
0.0458372
2.31289e-06
0.00383898
0.0101596
0.00927947
9.61263e-07
7.79391e-07
1.43234e-06
0.00194868
1.51486e-06
4.64547e-07
0.00567864
4.68784e-07
0.0118722
9.31036e-07
1.20308e-06
1.58286e-06
1.57979e-06
1.83123e-06
0.00981776
1.14531e-06
0.000576255
1.02881e-06
6.86955e-07
0.0011595
0.00483267
7.37858e-07
1.63832e-06
0.000268908
1.98315e-06
1.58744e-06
1.23242e-06
2.78482e-06
0.00370631
0.0158292
1.95587e-06
1.99021e-06
3.37214e-06
1.26675e-06
2.45855e-06
0.00736638
0.0100611
9.65176e-07
6.34623e-07
1.11906e-06
0.00417189
5.35731e-07
1.91191e-06
0.0118132
0.00724758
3.06684e-06
2.07556e-06
3.75681e-06
0.00416998
0.0113979
1.23667e-06
4.22044e-07
1.25378e-06
1.95227e-06
0.00487675
0.0187008
1.30668e-06
1.4006e-06
1.24148e-06
1.65881e-06
0.0151976
0.0114004
1.39285e-06
0.000550255
1.51849e-06
1.02885e-06
0.000143459
2.21734e-06
6.54694e-07
0.00413474
4.03797e-06
1.72746e-06
1.00522e-06
0.0114486
1.25615e-06
1.58574e-05
2.28528e-06
0.00485336
5.82138e-05
2.3352e-06
0.00115405
9.52642e-07
0.00301656
1.62863e-06
0.000114265
8.8203e-07
3.82826e-06
0.010976
4.29313e-07
0.0101243
7.84571e-07
7.05898e-07
0.00682807
0.00499006
6.2439e-07
5.28697e-06
9.52251e-06
9.52086e-07
1.02416e-06
0.0171404
1.50642e-06
1.0116e-06
1.72876e-06
1.74578e-06
1.53651e-06
1.24148e-06
1.95255e-06
1.42256e-06
9.25901e-07
0.00482807
0.000271875
1.66237e-06
0.00148188
0.000240599
0.0100894
6.57302e-07
2.04768e-06
0.0116182
9.40545e-07
4.64812e-07
0.016045
1.02181e-06
2.34179e-06
0.00467227
0.00446145
0.00652653
0.0045902
1.23185e-06
0.00444417
1.93196e-06
0.000130595
0.00433621
9.87427e-07
0.0178966
5.77948e-07
0.00911577
2.22922e-06
0.0057715
1.85823e-06
2.114e-06
2.10119e-06
0.00056314
0.013268
3.46096e-06
4.58043e-05
0.00477825
1.12907e-06
0.0100315
1.21307e-06
0.00746467
7.34489e-07
1.4186e-06
1.17875e-06
0.00480576
0.00571327
1.59856e-06
0.0140419
1.46178e-06
0.000757458
0.0113982
1.62893e-06
1.73613e-06
0.00013104
1.21993e-06
0.000129591
2.73237e-06
0.00013513
9.45001e-07
2.6842e-06
1.43539e-06
5.65759e-07
0.000110226
1.74803e-06
1.03972e-06
1.012e-06
2.18103e-06
0.000107553
4.6429e-07
4.28503e-07
1.44007e-06
6.60406e-07
0.00127097
0.00687445
0.00948831
0.0152398
0.00628993
0.00851158
0.000819758
1.70633e-06
9.1501e-07
3.75335e-06
0.00457445
1.06996e-06
0.00601003
1.61786e-06
2.01875e-06
1.54598e-06
7.97882e-07
1.85339e-06
2.51785e-06
2.83404e-06
1.54588e-06
6.12526e-07
0.0110093
0.0132285
0.0107666
0.0180793
1.02411e-05
6.71732e-07
0.00418326
1.21606e-06
4.6693e-07
0.000289545
3.15079e-06
2.62276e-06
2.56924e-06
0.0148596
0.00448621
6.14447e-07
0.00274447
6.05226e-05
0.00422637
4.60519e-07
0.00897449
1.16346e-06
2.17929e-06
1.58906e-06
0.0069133
1.53962e-06
0.00953652
0.00705483
0.000209784
1.02757e-06
9.22294e-07
0.0146475
0.000354504
0.00660433
0.000226694
0.00852545
0.000126817
0.00678979
0.00435775
0.0123559
0.00657267
1.36466e-06
1.61562e-06
9.3177e-07
0.00849305
1.20756e-06
0.00232287
0.00408655
1.60541e-06
0.0176119
0.0170646
0.00685962
1.12263e-06
1.19485e-06
1.13165e-06
0.0136998
2.31373e-06
9.66797e-07
1.62747e-06
0.00979879
9.41421e-07
0.00481838
1.71594e-06
1.34683e-06
2.27613e-06
1.56759e-06
1.17624e-06
1.41314e-06
1.83865e-06
1.74798e-06
8.32841e-07
0.00101407
9.40472e-07
4.38555e-07
4.20704e-07
1.18255e-06
0.00616607
0.0109925
9.87673e-07
0.00446151
1.69696e-06
1.14449e-06
1.00576e-06
1.42502e-06
1.06246e-06
1.49591e-06
2.13698e-06
9.67151e-07
0.010418
1.34723e-06
0.00469059
0.00447484
2.07508e-06
2.15384e-06
7.97707e-07
0.00604246
0.0136135
2.15857e-06
6.02495e-07
0.000525427
0.000704719
2.39331e-06
1.39991e-06
8.08013e-07
0.000552742
1.69707e-06
0.00803238
1.38052e-06
1.09027e-06
2.49114e-06
0.00691113
1.20572e-06
0.00678473
0.00037005
0.004589
0.000462315
0.000193334
1.80451e-06
1.55346e-06
0.00669657
0.00582224
6.05192e-07
1.38731e-06
0.00416345
0.00903197
3.12939e-06
3.82386e-05
1.81325e-06
1.64306e-06
4.20918e-07
0.000929198
0.00174432
9.89166e-07
0.00449279
1.53072e-06
0.00940447
1.54758e-06
1.11008e-06
0.0036424
0.0052929
2.67852e-06
0.000152264
0.00912894
2.24263e-06
0.0045089
1.21582e-06
0.00503659
0.0046043
7.11338e-07
0.00475288
0.00461406
0.00989968
5.19963e-07
0.00017072
5.94997e-07
1.00955e-06
0.0059536
0.0104395
0.00113199
0.000655795
0.0103192
1.82523e-06
2.26419e-06
1.20911e-06
4.2187e-07
1.40609e-06
6.85778e-07
0.00591706
0.00580658
7.55247e-05
0.0021759
6.59043e-07
0.00430062
1.18797e-06
0.000217086
4.34547e-05
1.33796e-06
5.6372e-07
9.07874e-07
5.58699e-07
0.0119627
1.01718e-06
0.00927262
4.55565e-05
2.46325e-06
2.00919e-06
5.12031e-07
0.00898757
0.000355083
0.00302866
1.23167e-06
1.13195e-06
1.16071e-06
0.00637288
1.46535e-06
4.82577e-06
2.12389e-06
1.0168e-06
6.08578e-07
1.53925e-06
9.40424e-07
5.27203e-07
1.72956e-06
2.90561e-05
0.0128925
0.000468839
1.28704e-06
7.64317e-06
0.00464752
3.16427e-06
0.0122572
6.46112e-07
1.54377e-06
6.38328e-07
1.45536e-06
0.00455443
1.68908e-06
2.2302e-05
0.00344083
0.00760812
1.76448e-06
1.138e-06
0.00772854
1.44442e-06
0.0118298
1.25392e-06
9.49938e-07
0.010536
5.43101e-07
4.89765e-07
3.06336e-06
3.1955e-06
0.00580841
0.00493619
0.00607802
0.00509619
6.67256e-07
1.0377e-06
2.03735e-06
0.00323621
7.77732e-06
5.34875e-07
1.59739e-06
1.75687e-06
0.0063071
4.36757e-07
1.61672e-06
0.00532137
0.0060234
2.80514e-06
1.44957e-06
4.67254e-07
1.26492e-06
1.32159e-06
1.76703e-06
4.68685e-07
1.53961e-06
1.10862e-06
0.012854
4.67183e-07
1.63964e-06
0.0111761
0.00148208
1.17527e-06
1.02593e-06
1.18051e-06
0.00218779
0.0117692
0.000661804
0.00069821
7.92414e-06
0.00899977
3.01436e-06
0.00588769
1.67014e-06
0.00638364
9.98693e-07
0.00479502
1.25252e-06
1.29612e-06
4.67625e-05
1.21593e-06
1.62186e-06
9.92803e-07
1.72467e-06
8.1317e-07
0.00399433
0.00611909
0.00928091
1.12326e-06
7.90564e-07
0.00595211
5.43162e-07
4.91236e-07
0.000544605
0.00744924
0.000581178
0.000378343
0.004604
1.6577e-06
7.12832e-06
0.00769201
6.42604e-07
1.74399e-06
0.00724794
4.30862e-07
9.29192e-07
0.00961527
0.00495173
1.64116e-06
0.0049152
6.41362e-07
2.04012e-06
2.50289e-06
0.000165559
0.000153177
1.60003e-06
7.74515e-07
1.82136e-06
1.64224e-06
0.000528913
0.00601836
1.39677e-06
0.00885556
0.00242402
4.02622e-06
4.64627e-07
9.4455e-07
0.00489277
1.47347e-06
1.5518e-06
0.000127883
0.000474817
9.37006e-07
0.0114971
0.00973029
0.00418208
0.00027755
2.0909e-06
4.95066e-07
4.21427e-07
1.36636e-06
1.29601e-06
0.00450439
0.00586999
1.59264e-06
1.79062e-06
0.000380637
0.00847109
0.00469447
1.61533e-06
0.00416724
1.62427e-06
0.0102285
3.40885e-06
1.70582e-06
2.0773e-06
1.64395e-06
0.00864869
0.0129304
8.13009e-07
0.00500781
0.0167466
0.00256205
0.00938364
2.15453e-06
1.54331e-06
4.92825e-07
0.00441442
9.99705e-07
0.00917367
1.18981e-06
1.53644e-06
1.51674e-06
1.93319e-06
0.00649568
1.55871e-06
0.000117268
0.000137865
0.000256183
1.39718e-06
5.94929e-07
0.0163782
1.09901e-06
1.10884e-06
0.00735823
1.0889e-06
1.42521e-06
2.85127e-06
1.74251e-06
4.81335e-07
0.000112732
0.0113682
0.00528454
0.00625974
1.01446e-06
1.29724e-06
2.79788e-06
8.16616e-05
0.00439693
1.45332e-06
0.00992039
1.33432e-06
1.73702e-06
0.00539563
1.38584e-06
5.04259e-07
1.87773e-06
8.56286e-07
1.09329e-06
1.18051e-06
0.00013817
0.00977382
9.21532e-07
0.000742828
0.014233
2.36106e-06
1.58391e-06
5.07868e-07
1.39953e-06
1.36031e-06
0.000522745
3.703e-06
0.00479714
0.0049313
0.000530287
1.18284e-06
1.83721e-06
0.00975468
1.91864e-06
1.70149e-06
1.53335e-06
0.000562901
0.000149179
1.17879e-06
0.00672178
0.00024182
7.67704e-07
1.83099e-06
1.43274e-06
3.54147e-06
1.08587e-06
2.15429e-06
1.82985e-06
7.71983e-05
1.16039e-06
1.6932e-06
0.000129576
1.08848e-06
0.0137665
1.52414e-06
1.50662e-06
1.83888e-06
1.32432e-06
2.19884e-06
1.11836e-06
8.25032e-07
0.00209668
1.19087e-06
0.0143666
1.85743e-06
1.0031e-06
3.99486e-05
0.0066956
8.12877e-07
4.67479e-07
2.30592e-06
0.000545775
1.45029e-06
2.63594e-06
0.00242025
0.00788248
2.41983e-06
2.3551e-06
0.00632564
5.84135e-07
8.09875e-07
0.00987029
0.000291914
0.00244668
1.6921e-06
1.55332e-06
8.87934e-07
1.8294e-06
0.00802035
1.61315e-06
1.56139e-06
1.52227e-06
0.00483615
8.17404e-07
9.75012e-07
1.55042e-06
9.99399e-07
0.000113712
5.85368e-07
0.00427461
2.21795e-06
0.0141639
0.00775615
1.82074e-06
0.00449607
1.54141e-06
0.00927124
0.000123275
0.000124754
1.48288e-06
0.00489796
1.49814e-06
2.33905e-06
1.83191e-06
1.42297e-06
0.0101196
1.07901e-06
1.29143e-06
1.05472e-06
1.72689e-06
1.19632e-06
0.0113888
0.00456538
0.000582359
0.0048284
1.6123e-06
0.00488797
6.83835e-07
1.55431e-06
1.45255e-06
1.65868e-06
8.65307e-05
0.00840624
1.25478e-06
0.00435276
1.22677e-06
0.0091518
0.0173451
4.67811e-05
1.16657e-06
1.62707e-06
2.60269e-06
5.58066e-07
1.24577e-06
1.0527e-06
0.00577986
1.44504e-06
0.000499093
1.75827e-06
1.45839e-06
0.000225323
1.10643e-06
0.00576907
1.4619e-06
2.34166e-06
0.00472566
0.00822881
1.74078e-06
0.00242327
0.000228935
0.00485744
0.00116055
8.99473e-07
0.00639753
6.04284e-07
0.00430051
1.68881e-06
6.37362e-07
9.23696e-07
0.00639333
0.0107384
0.00515835
0.00144293
0.00491551
0.00605715
1.08038e-06
0.00992838
1.57399e-06
1.60301e-06
0.00467601
0.00406544
4.64163e-07
0.0114171
2.77045e-06
1.47805e-06
0.0165082
1.66808e-06
1.05248e-06
0.00466362
1.14423e-06
2.22769e-06
0.0117837
2.79286e-06
0.00469912
1.50192e-06
4.22942e-07
1.67092e-06
0.00691946
1.84174e-06
1.72843e-06
1.86963e-06
7.14413e-07
5.94106e-07
1.82857e-06
0.00684269
4.79362e-07
0.0107446
1.14398e-06
4.06273e-06
0.00423686
1.71987e-06
0.0104467
4.27261e-07
1.41548e-06
0.00631541
1.48576e-06
9.93131e-07
0.0068252
0.00466301
0.00785166
1.45114e-06
0.000233968
1.67386e-06
0.00786121
9.57167e-06
2.06825e-06
0.00135889
3.95416e-06
0.00518268
0.00468037
4.83273e-07
3.22888e-06
2.20728e-06
1.20929e-06
1.8113e-06
0.000831844
1.4943e-06
1.59492e-06
1.1298e-06
1.68176e-06
1.66198e-06
1.35761e-06
9.15014e-07
1.82502e-06
0.0107471
1.43964e-06
5.24811e-07
0.00964126
9.62769e-07
0.000265564
0.000142144
0.000298583
1.61586e-06
0.0137383
9.31955e-07
0.00456533
2.71856e-07
0.00734223
0.00415154
5.84556e-05
0.000408587
1.43092e-06
9.98454e-07
5.15897e-07
1.6319e-06
1.442e-06
0.00422228
1.23575e-06
1.03982e-06
1.56892e-05
0.0100498
3.36545e-06
0.00534913
0.00450978
3.09708e-06
6.25115e-07
4.98793e-07
9.37793e-05
1.40521e-06
1.84105e-06
0.013125
1.93757e-06
9.41966e-07
1.37033e-06
1.49719e-06
5.36553e-06
0.0146623
0.00277436
1.56259e-06
1.49777e-06
4.79765e-07
1.55592e-06
1.54798e-06
0.00761178
1.16011e-06
5.88383e-07
1.41901e-06
0.00112781
0.00574381
1.62329e-06
1.10297e-06
1.44344e-06
0.000505478
9.28263e-07
1.91941e-06
2.4659e-06
0.0103254
0.000221785
0.00711843
2.43495e-06
0.00020598
1.84358e-06
0.0171311
1.47631e-06
0.00406221
1.32712e-06
0.004751
0.0174408
0.00432085
1.5534e-06
0.00109668
1.26031e-06
0.00894434
0.00570852
0.00887141
0.0121498
0.00761744
1.54506e-06
2.44991e-06
0.00517362
1.11485e-06
9.31838e-06
2.12422e-06
0.00426176
0.0138218
0.00570085
0.00106482
0.00471313
1.00045e-06
0.00706201
2.96317e-06
0.00738047
5.03284e-07
5.1064e-06
0.0156647
5.3516e-06
0.0133724
2.13897e-06
0.000164322
1.75489e-06
0.00447485
0.00951264
1.5049e-06
0.00934665
0.000445582
1.44946e-06
0.000307385
9.9641e-07
2.50079e-05
5.97792e-05
1.65536e-06
0.0127476
0.00774793
8.94647e-07
0.0129397
1.17851e-06
1.10356e-06
0.0092914
0.00810478
0.00247477
0.00427521
9.31232e-07
1.36585e-06
8.61482e-06
5.39382e-07
0.00618146
0.000543904
0.00449015
0.00428151
5.8718e-07
2.51854e-06
4.3372e-07
0.00515695
0.00582604
0.00488414
2.09049e-06
5.43234e-07
0.0103054
3.07066e-06
2.11252e-06
0.000152148
1.34117e-06
0.0106748
7.14417e-07
1.66282e-06
1.62541e-06
4.90562e-07
1.33996e-06
1.00794e-06
0.000143485
0.00480546
6.07021e-07
4.70482e-07
0.00476826
0.00946597
3.52366e-06
1.59416e-06
0.018259
4.75566e-07
0.00506043
0.00976295
0.0128822
1.00615e-06
1.45513e-06
0.000467089
0.00484282
1.92187e-06
1.24853e-06
0.000462411
5.42053e-07
6.18688e-05
0.00433404
9.63217e-07
0.00828513
7.49318e-05
1.83317e-06
2.67242e-06
8.89361e-07
1.71442e-06
0.00590434
1.68594e-06
8.95513e-06
1.25666e-06
1.60631e-06
1.87272e-05
4.44671e-07
2.56681e-06
0.00441259
1.51839e-06
1.11001e-05
8.70939e-05
1.25145e-06
0.0168306
1.21966e-06
9.44785e-07
0.00456869
0.000127826
0.00485774
1.34556e-06
0.00738383
6.48081e-07
4.21545e-07
0.000424913
0.00955419
0.00542394
6.23126e-07
0.000169285
1.3733e-06
5.36026e-07
1.32472e-06
0.00477408
0.000648129
0.00456251
1.80036e-06
1.52331e-06
1.82477e-06
0.0082747
0.0113003
0.000504521
0.00888671
6.48175e-07
7.82827e-07
1.32923e-06
2.95788e-06
1.49698e-06
2.11669e-06
0.00669138
1.57838e-06
0.000419342
0.0108752
1.63036e-06
0.00720669
9.22537e-07
1.42348e-06
0.0126461
0.000380382
9.10958e-07
7.79495e-07
1.90494e-06
6.60887e-06
0.00410025
0.00243132
0.00847975
3.1445e-06
0.00596837
9.49416e-05
1.70976e-06
5.8724e-07
0.0049896
5.66042e-06
1.53366e-06
1.80763e-06
0.000682345
0.00014453
5.42953e-07
0.0053095
6.63694e-07
5.0742e-07
0.00294889
8.53557e-07
0.0105908
0.00461419
2.96368e-06
0.000138228
0.00465308
1.54363e-06
0.00853864
0.000113509
1.09376e-06
1.95882e-06
1.57617e-06
9.49069e-07
0.00942663
4.99822e-07
0.010148
1.53057e-06
5.36772e-06
0.00044777
1.25998e-06
0.00694763
1.8176e-06
4.58783e-06
0.0120204
9.4131e-06
2.77211e-06
5.58826e-07
0.010561
5.87573e-07
0.0162334
0.00587985
4.70384e-06
5.56909e-05
5.57074e-07
0.00940622
1.07635e-06
2.06517e-06
1.71711e-06
5.87218e-05
1.58258e-06
0.000668597
1.36577e-06
0.00960711
5.66764e-07
0.0137872
0.000518211
1.59189e-06
1.26496e-06
4.54081e-05
0.0121244
0.00420578
5.54636e-07
0.00832379
8.59218e-06
1.49095e-06
0.000233356
1.07546e-06
1.93433e-06
0.0142169
0.00712241
3.9243e-06
1.08105e-06
0.00190127
0.00745731
0.00192518
1.64961e-06
5.57105e-07
0.0171062
0.00462871
1.99943e-06
0.000219689
1.47458e-06
0.00424706
1.83596e-06
1.02497e-06
0.00292589
0.0174524
2.12644e-06
2.20246e-06
5.59062e-07
2.01405e-06
1.60394e-06
2.3794e-06
0.000509625
1.01e-05
1.50314e-06
4.80226e-07
0.0109322
1.14007e-06
1.18782e-06
1.08869e-06
0.0117291
0.00413018
2.32339e-05
1.96268e-06
6.01832e-07
6.60867e-07
0.015559
0.0060869
0.010975
3.15275e-06
0.0116157
1.60303e-06
0.0114229
2.02392e-06
3.69906e-06
9.26608e-07
7.84844e-07
1.08413e-06
0.00453292
1.01999e-06
9.76008e-07
8.97956e-06
0.0048553
0.0104335
0.00110671
1.44764e-06
0.00596234
1.04832e-06
0.00570045
1.49356e-06
0.000195915
4.71081e-07
6.4308e-07
0.000349309
5.16178e-05
1.3408e-06
1.5175e-06
1.28893e-06
0.000197219
2.20612e-06
0.00807026
5.61333e-06
0.0137323
0.00446719
0.0159055
0.00495323
1.14524e-06
0.0043548
2.21221e-06
9.51938e-07
5.95192e-07
1.63437e-06
9.77184e-07
1.32297e-06
1.54961e-06
9.29701e-07
1.47625e-06
1.18899e-06
1.21826e-06
0.000510291
0.00491133
0.00450096
1.19637e-06
9.59346e-07
0.000256017
1.37295e-06
0.00478959
1.52335e-06
9.23074e-07
0.0091011
0.00915198
1.76527e-06
3.83733e-06
7.92954e-06
1.33232e-06
2.9558e-05
2.6897e-06
0.00489479
0.0165945
7.13657e-05
1.68902e-06
0.00987228
1.6876e-06
1.07595e-06
2.61735e-06
5.88093e-07
1.82522e-06
1.45033e-06
0.00349626
5.18469e-07
6.00384e-07
0.0132363
8.82004e-07
1.97657e-06
0.00646365
5.87564e-07
0.000433511
5.16444e-07
6.88083e-07
6.26484e-07
0.000148891
1.55783e-06
0.00860666
0.0101757
1.36554e-06
9.55569e-07
1.6054e-06
0.00601402
0.00584559
8.09391e-07
1.27104e-06
6.53708e-07
6.8235e-07
7.70685e-07
9.49117e-07
4.64418e-07
2.07878e-06
1.49477e-06
0.0106947
0.00463628
1.77516e-06
1.27924e-06
1.94012e-06
9.3793e-07
0.00016627
0.00103883
0.00129516
0.000154385
1.27307e-06
0.00470932
0.0141149
9.54858e-07
0.00205928
0.000347901
6.8547e-07
6.75324e-07
0.00626969
1.32842e-06
6.73806e-07
2.40502e-06
0.0080172
0.00782624
0.000214788
0.000754344
1.07881e-06
0.00500581
0.00409528
1.48816e-06
1.48288e-06
1.73249e-06
8.38196e-07
2.34523e-06
0.00061168
1.31858e-06
0.000416315
0.00651432
0.00754449
0.00913271
1.11903e-06
0.00705768
1.16192e-06
0.0168648
0.00478227
1.52234e-06
8.08926e-07
0.00629539
1.52411e-06
0.0064734
1.32648e-06
0.00408806
2.89837e-06
3.31804e-05
1.27248e-06
0.00775142
0.0132433
0.0049743
1.4402e-06
0.00206879
0.00858451
0.0108591
0.00643092
1.51439e-06
0.0141247
0.00422308
3.22735e-05
0.00733649
0.00413912
0.00479366
0.00427981
0.0140617
0.00694727
0.00460777
8.5875e-07
0.00413454
0.00616406
0.000289208
3.14224e-06
8.1274e-07
0.0165768
1.61985e-06
0.00997751
0.00477148
0.00851289
0.00458022
0.0074029
1.57076e-06
9.12338e-07
0.0120949
0.00729916
0.00503398
1.49014e-06
0.00275271
1.46976e-06
0.00449701
0.000283384
0.00399752
0.000117539
1.37029e-06
0.00982506
1.60893e-06
0.00707983
9.84559e-07
4.95271e-07
0.0130825
1.05633e-06
0.00202191
0.00372681
0.000893571
0.00856758
1.31643e-06
1.08545e-06
0.00741401
0.0121881
1.07026e-06
0.0105007
0.0146487
1.71909e-06
0.00488527
9.06858e-07
1.09372e-06
3.30502e-06
4.62755e-05
4.87825e-07
0.00122147
1.40728e-06
4.81607e-07
0.0078813
0.00626056
4.77883e-07
1.09619e-05
0.00845616
0.00877718
0.0047318
1.59421e-06
0.0128176
4.38966e-07
2.53229e-06
0.0141763
1.0993e-06
0.015122
1.06055e-06
0.0127874
2.05189e-06
0.00105177
0.00652335
0.0123319
1.13137e-05
0.00094501
5.0361e-06
0.0112209
5.58703e-06
0.0179617
6.11775e-07
0.0048646
0.0126133
0.00690168
5.80919e-07
4.81157e-07
1.06621e-06
0.0133761
5.86885e-05
1.40102e-06
0.0169339
0.0115736
0.004546
0.000245908
5.63967e-06
8.60731e-05
0.000500347
4.27224e-07
0.000922367
0.00504148
1.65007e-06
0.00650462
7.21969e-07
1.31783e-06
1.57202e-06
0.00832574
0.00465026
9.08725e-07
9.75481e-07
4.69082e-07
0.00411451
0.00853804
0.00404485
0.0118398
0.00593523
0.00884452
9.75192e-07
0.000320383
0.00891411
1.74059e-06
6.84409e-07
9.9867e-07
7.78244e-07
1.06677e-06
0.00722824
0.0121595
0.0134294
9.06365e-07
1.57009e-06
5.63335e-07
2.06056e-06
4.71171e-06
0.00440214
0.00360456
5.03832e-05
4.4834e-06
1.70044e-06
8.21323e-07
1.65201e-06
3.33936e-05
0.00555268
4.92699e-07
2.34324e-06
2.08661e-06
0.00439542
0.0034312
0.0100314
0.000728132
1.4854e-06
0.0101811
1.60896e-06
0.0049033
0.00486048
5.65053e-07
0.00176716
0.0150656
0.0069943
2.17809e-06
0.0103522
0.00639137
1.66543e-06
0.00498137
5.45712e-07
4.86018e-07
0.00651809
0.0124872
0.0146198
5.35476e-07
0.00856875
3.54596e-06
0.00506537
0.0162903
9.04395e-07
0.0118407
2.28389e-06
1.66211e-06
0.00495212
8.0296e-07
0.0114422
2.46034e-06
0.00426502
0.00407865
0.000247618
5.81336e-07
2.82092e-06
0.0140742
0.0132546
0.000292813
0.007534
0.00478361
1.14092e-06
0.000494405
1.06924e-05
1.51278e-06
1.04144e-06
2.08948e-06
8.33738e-06
0.00470829
6.61746e-07
2.73272e-06
0.0047375
7.45639e-07
0.00788288
1.62879e-06
0.0139235
1.70535e-06
7.83799e-07
0.00716209
9.22218e-07
7.43507e-06
1.59673e-06
1.59652e-06
0.00639471
1.42118e-06
1.51863e-06
4.9878e-07
0.00408888
0.000127023
1.5781e-06
0.00499671
0.0166142
0.00485516
2.07932e-06
6.98901e-07
0.0040722
1.64386e-06
0.000153753
9.31881e-07
0.000284553
0.00954481
1.72394e-06
1.66575e-06
0.000516258
1.70851e-06
1.67081e-06
0.00482429
0.00455266
2.13732e-06
0.0046644
2.05273e-06
0.00789245
0.00423141
7.0608e-07
8.218e-07
1.32083e-06
0.00764131
0.0147815
0.00817588
0.00702065
0.00556989
0.00490943
0.00477521
0.00801399
1.53127e-06
0.0136119
0.0145453
1.0172e-06
1.94657e-06
6.10814e-06
1.31061e-06
1.17945e-06
0.00749339
0.00751778
0.0126565
1.6797e-06
2.10039e-06
0.00913516
0.0124396
6.66992e-06
0.00166025
4.91762e-06
0.00507465
0.00655559
0.0159917
0.000498329
0.00883568
0.00699575
8.4225e-07
0.0143307
7.78926e-07
1.72802e-06
0.0127622
1.38253e-06
9.1765e-07
0.00483333
1.62545e-06
1.63508e-06
0.00721354
9.39808e-07
1.33825e-06
0.00772351
0.00482549
0.004963
1.40462e-06
0.00419187
6.46265e-07
2.03467e-06
0.00479118
0.00935658
0.00490734
9.99056e-07
0.00486639
1.64144e-06
0.00690925
6.67459e-07
8.43347e-07
7.03793e-07
0.0093713
1.42489e-06
2.46129e-06
0.00794928
1.61157e-06
0.0043338
0.00441417
0.00500737
2.49988e-05
1.62194e-06
1.2169e-06
0.00539825
0.000423899
1.257e-06
0.00491648
0.0153945
0.0124655
4.06893e-05
2.08483e-06
0.0064184
0.0148144
0.000234876
7.63205e-06
0.00769658
6.9625e-07
0.00516026
1.60521e-06
0.0001177
1.48037e-06
0.00578954
0.013678
0.00484599
0.00682463
0.000508747
1.42773e-06
1.95128e-05
9.5315e-07
0.0172798
6.56554e-07
0.0148671
3.34858e-07
0.00430937
0.00606501
0.00561683
0.0047177
1.52316e-06
0.0139147
7.77173e-07
0.00820879
1.83552e-06
1.6673e-06
0.00427891
9.40616e-07
0.000781311
0.00434978
0.00840984
0.00397895
0.00726366
0.0080023
0.00754733
0.0145066
1.13391e-06
1.40788e-06
0.000135755
1.53209e-06
6.24215e-07
0.000246117
0.00597895
0.00490786
1.57902e-06
0.00875985
1.36944e-05
4.54931e-06
0.00500538
0.0096819
1.65138e-06
0.0156942
5.7284e-06
0.0109411
1.82115e-06
0.00478221
0.00651604
1.8928e-05
0.00473389
1.14172e-06
0.00594175
0.0143645
0.0130758
0.00763978
0.00497506
0.0152327
0.000128222
0.00481857
1.10682e-06
0.00649378
1.78047e-06
4.63599e-06
1.54797e-06
0.0177906
0.00382433
1.39265e-06
1.2578e-06
0.000217938
9.36524e-07
5.03073e-07
0.00516733
0.00673483
1.38581e-06
0.00862266
0.0133032
0.00517304
0.00561884
8.31621e-05
0.0125677
0.000471206
0.00726095
0.0126301
6.25731e-07
0.0147343
0.0172858
1.17348e-06
0.00489733
0.00879977
5.76268e-06
0.00481932
2.65485e-06
1.64401e-06
9.53446e-07
0.00536645
0.0062513
2.09588e-06
0.0048686
0.00456902
0.000953126
0.0146657
0.000398729
0.000193397
0.00489115
1.88158e-06
0.00645597
1.52118e-06
0.00480265
1.04479e-06
0.0120926
1.68258e-06
0.00459148
0.000335492
1.05345e-06
0.00611066
0.00622377
0.00490824
0.00468307
2.06387e-06
0.00593439
0.00469985
5.54406e-07
0.0145445
0.00496507
1.66527e-06
0.00444929
1.45094e-06
0.00414063
1.01119e-06
1.25103e-06
6.07869e-07
0.00723834
0.0169996
0.0164506
0.00556632
4.71468e-06
0.000419081
0.00634927
1.00711e-06
1.15906e-06
0.00414495
0.00874106
5.12672e-07
0.0179285
0.004415
0.00440753
0.0166567
0.0120152
0.015637
2.03617e-06
0.00461141
9.79013e-07
0.00683598
5.24154e-07
7.5178e-07
0.00498079
0.0110644
1.77647e-06
0.000602798
9.92183e-07
5.82035e-07
4.63661e-07
1.5332e-06
0.00418137
0.00803005
1.02151e-06
0.000163243
0.00876469
1.47469e-06
0.000711519
0.0166051
6.02572e-07
4.17821e-06
1.11021e-06
0.016124
1.67284e-06
1.5334e-06
9.15955e-07
1.51034e-06
1.0441e-05
5.68739e-07
7.12952e-06
0.00474436
0.00415228
1.97269e-06
1.99642e-06
0.00473214
0.0148608
0.00424232
1.51006e-06
0.00164854
0.0111454
4.23068e-07
0.00874548
0.00635982
0.0161407
5.61013e-06
0.000187156
0.0152605
0.00393519
3.48657e-06
4.63567e-06
0.00445588
0.00399805
0.00437709
0.000327281
0.00130383
0.0112879
0.000263185
0.0139425
1.06756e-06
0.00728604
4.20601e-06
0.00883193
0.00589808
0.00510997
9.10304e-07
0.00328286
1.26133e-06
1.34476e-06
7.52742e-06
2.07445e-06
7.80864e-07
9.2205e-07
0.00495878
0.0166935
0.00711634
0.00762297
0.00830132
8.53814e-05
0.00020211
0.0191557
0.000469535
7.65699e-07
0.00839465
2.00687e-06
0.00447277
0.00529623
0.016538
0.00113248
0.00813792
0.00764708
0.0118293
2.17301e-06
0.00475914
0.00826913
0.0185667
4.01253e-05
0.0168593
0.000341738
0.00487232
0.0117235
0.00425027
0.0105007
0.012048
8.60211e-06
0.0150829
1.73684e-06
0.000596183
1.55865e-06
0.00277667
0.00642559
0.0162056
5.67785e-06
1.31985e-06
0.000229108
0.00618795
5.81852e-06
8.87281e-06
1.80129e-06
5.01133e-07
0.0059526
1.20005e-06
1.38366e-06
0.00847591
2.07936e-06
1.72546e-06
0.00599419
0.0115069
0.0145925
4.70744e-07
0.0108602
0.00470066
1.44254e-06
1.3643e-05
1.1263e-06
9.10421e-07
1.52794e-06
2.3718e-06
1.55948e-06
9.02717e-07
0.00969101
0.00012465
0.0187776
0.00691466
0.00510578
4.6309e-06
0.0157333
4.53915e-06
0.000162664
8.1334e-07
3.66321e-06
2.14622e-06
0.00407465
0.004761
7.83431e-07
0.00520882
2.18962e-06
0.013934
0.0152859
9.54526e-07
0.00491958
0.0050022
8.47531e-06
0.0103673
0.00505859
5.74458e-06
2.8948e-06
6.78323e-06
1.48694e-05
1.22557e-06
5.42118e-06
0.0067956
0.0011582
0.00477403
0.00735005
7.6462e-06
2.19717e-05
0.000207887
0.00648097
0.00744113
1.16288e-05
2.00792e-06
0.00849145
1.48756e-06
0.00804734
0.0120354
0.00268947
0.00372983
8.04315e-07
0.00043182
0.00581708
1.05532e-06
0.00526271
0.00431758
0.0109543
4.53184e-06
5.60755e-07
0.000197525
0.00933301
1.46103e-06
1.24687e-06
0.0043942
1.40852e-06
2.14824e-06
1.73989e-06
4.70679e-06
0.00851698
0.000643355
0.00649798
1.90444e-06
0.00678055
0.0114905
2.93047e-05
0.000999278
1.12624e-06
0.00568087
0.00494437
1.95194e-06
1.98717e-06
1.9641e-06
5.89122e-06
2.75222e-06
1.04319e-06
3.84379e-05
0.00499633
0.00455862
2.57246e-06
2.11521e-06
0.00856725
0.0154892
0.000499668
0.0100351
0.00471175
0.00612931
4.33276e-07
2.24977e-06
0.00423421
1.34079e-06
0.0068466
0.0062229
2.14589e-06
2.18035e-06
0.00412137
0.0108015
1.67678e-06
0.014423
6.98739e-07
1.7234e-06
0.0055954
0.000354096
1.93816e-06
2.04011e-06
3.07964e-05
0.00808853
0.00774472
0.00794307
0.00698877
0.00896828
1.61693e-06
2.13834e-06
0.0140379
0.00434094
0.00539845
0.000354011
1.08249e-06
0.0032039
3.01096e-06
0.0167944
0.00568266
1.52799e-06
2.11301e-06
2.10968e-06
0.0108226
0.00506436
0.012376
8.98414e-07
4.83947e-06
0.00397911
0.00487466
0.0116575
1.97627e-06
5.42473e-07
3.41017e-06
0.00512709
0.00572467
1.48737e-06
0.0156495
0.00832043
0.000320415
4.40745e-07
0.00864337
0.00889439
8.44532e-07
0.00830532
2.56046e-05
0.00586725
8.07437e-07
1.93052e-06
1.38805e-06
0.0114842
0.00705992
0.00576523
0.00438565
1.92375e-06
1.28796e-05
7.69625e-07
1.77173e-05
0.0032076
0.00592508
0.000430469
1.6585e-06
8.86321e-07
5.33892e-06
1.9664e-06
1.47713e-06
2.11711e-06
4.31814e-07
0.000187093
8.06063e-07
0.00431671
2.05366e-06
1.34761e-06
0.000153947
8.81029e-07
4.28436e-07
0.00482925
7.18526e-07
3.85597e-06
1.2699e-06
0.00847908
0.0184436
0.00467208
4.58997e-07
7.5646e-07
0.00514764
0.00816304
0.0126692
0.00745453
0.00637102
0.00406789
1.94411e-06
1.34926e-06
0.00489853
0.00141659
4.69282e-06
0.00779472
1.97561e-06
1.66065e-06
1.91661e-06
1.98781e-06
0.00808235
1.13753e-06
1.63588e-06