/*--------------------------------*- C++ -*----------------------------------*\
| =========                 |                                                 |
| \\      /  F ield         | OpenFOAM: The Open Source CFD Toolbox           |
|  \\    /   O peration     | Version:  v2012                                 |
|   \\  /    A nd           | Website:  www.openfoam.com                      |
|    \\/     M anipulation  |                                                 |
\*---------------------------------------------------------------------------*/
FoamFile
{
    version     2.0;
    format      ascii;
    class       volScalarField;
    location    "250";
    object      k;
}
// * * * * * * * * * * * * * * * * * * * * * * * * * * * * * * * * * * * * * //

dimensions      [0 2 -2 0 0 0 0];


internalField   nonuniform List<scalar> 
13308
(
5.34331e-05
0.0618966
0.0479577
7.80996e-05
0.000109995
5.1434e-05
0.000147104
9.21693e-05
0.000147318
0.0913925
0.0489826
0.0135223
5.25937e-05
7.94244e-05
5.48648e-05
0.0477105
5.23709e-05
0.0627517
0.0158523
0.0300946
8.08154e-05
0.0605483
0.088416
0.00010047
0.0471189
0.0706395
0.000113828
0.0464745
0.000115274
0.000124625
0.0652811
0.000117158
0.0853763
0.000134603
0.0912656
5.80062e-05
0.000147183
0.0903591
9.06453e-05
0.0465117
8.55817e-05
9.35504e-05
0.0719311
7.54549e-05
9.00955e-05
0.00371634
5.80519e-05
8.35935e-05
5.37558e-05
0.046005
8.8668e-05
8.01206e-05
0.0489774
0.0207775
0.0258318
0.029385
7.5401e-05
7.97402e-05
9.57501e-05
9.5072e-05
0.0308832
0.0916822
7.98496e-05
8.86243e-05
7.63241e-05
0.0838295
7.07526e-05
0.00867703
5.65455e-05
0.000184716
0.0718899
9.02739e-05
4.04943e-05
0.000119717
0.0466041
7.52133e-05
4.69719e-05
0.0273756
7.81354e-05
0.00387223
8.39425e-05
4.72514e-05
7.47609e-05
9.83773e-05
0.00399486
9.25031e-05
0.0238671
0.0768296
0.00240524
0.0162596
8.87538e-05
7.04675e-05
0.000115026
8.13133e-05
8.17161e-05
5.64349e-05
9.38423e-05
0.00385004
0.072792
0.000176031
8.84059e-05
8.96173e-05
6.98019e-05
8.18811e-05
0.0636956
0.0641235
0.0495524
6.08194e-05
0.0602238
0.072969
9.50171e-05
0.000187003
6.8793e-05
7.81618e-05
6.94292e-05
0.00905116
0.00608582
0.00296698
0.000116045
7.8765e-05
0.00010727
8.16607e-05
5.87732e-05
5.69944e-06
0.00729183
0.000147813
0.00737608
0.00391621
4.15626e-05
0.0392123
0.0723693
8.8368e-05
8.84775e-05
5.67639e-05
0.000144065
3.07254e-05
7.14856e-05
0.00708551
0.000159393
9.40973e-05
0.0410705
9.49949e-05
8.46096e-05
6.89014e-05
9.21556e-05
0.000109287
0.00157621
0.0135311
8.3938e-05
9.35833e-05
0.0276999
8.20138e-05
0.0828234
0.0270183
0.0840631
0.000113898
6.37883e-05
6.04203e-05
8.63278e-05
0.00760378
0.0895829
8.01533e-05
8.44643e-05
0.0933256
0.000109792
0.000104842
0.0596106
6.00626e-05
0.0591801
0.000106454
9.52047e-05
0.00185047
8.81447e-05
0.042914
0.0224
0.0664135
0.062519
0.0471863
9.62689e-05
6.58376e-05
0.00933097
0.0490298
6.99788e-05
0.090695
0.090986
5.49076e-05
0.0314819
0.0655462
0.000127551
0.0434867
0.0324056
0.0345249
9.21739e-05
0.0150871
9.26085e-05
0.0676886
9.51384e-05
0.000495047
0.068767
9.32859e-05
0.0500822
0.0488461
0.0493567
0.000140131
0.0407489
0.000158415
0.0439202
0.0529852
0.0719458
0.0242678
0.0810176
0.000155762
0.000119459
0.042417
0.0826329
7.97842e-05
6.61178e-05
0.0765244
0.00456878
0.0531434
0.0439937
7.61942e-05
0.000103711
4.48022e-05
8.25099e-05
0.0474785
9.69158e-05
0.0556293
0.0288468
0.000678718
0.042661
7.98059e-05
0.0467474
0.00706304
0.000106368
0.000115599
0.0580066
0.00589046
0.0827814
8.07386e-05
9.91013e-05
0.000138709
8.16159e-05
4.50113e-05
0.0128966
0.0904113
0.000167256
0.00150627
4.48936e-05
0.0889345
0.0837174
0.0856512
8.81492e-05
0.0904261
0.0752713
8.04763e-05
0.0820755
7.86368e-05
0.0439791
0.0279928
0.000124257
0.00056576
0.000115906
6.93904e-05
0.000102823
8.66159e-05
0.0171474
8.89618e-05
0.0433162
0.051276
0.000214235
0.000108341
8.12811e-05
0.000127939
7.93244e-05
8.08295e-05
5.74074e-05
0.0149941
0.00011004
0.00010106
0.0697245
9.18079e-05
0.00221139
8.04941e-05
0.066784
0.0558529
6.92128e-05
5.32316e-05
0.000109246
0.11331
0.000116307
6.94971e-05
0.0153388
0.0493023
6.21853e-05
0.0819543
0.030109
0.00011997
0.000104538
0.0479583
0.0842335
7.48682e-05
0.0692797
0.0145071
0.0220591
5.15557e-05
0.00011172
0.0434353
0.00384619
5.46445e-05
0.00585711
0.0410281
0.000117071
0.0494698
0.0904085
0.0212234
7.13846e-05
6.19241e-05
8.45379e-05
0.0111267
8.62591e-05
4.7213e-05
0.0388783
4.7334e-05
0.0421931
6.95165e-05
8.00443e-05
8.93301e-05
9.04652e-05
0.000106781
0.0806512
7.55792e-05
0.00550166
7.15852e-05
5.96324e-05
0.0138062
0.0506165
6.01037e-05
9.54214e-05
0.00273722
0.000104091
8.94191e-05
7.82814e-05
0.000132952
0.0379347
0.116164
0.000109882
0.000107984
0.000137727
8.15391e-05
0.000120514
0.0733817
0.0811904
6.8941e-05
5.58346e-05
7.51969e-05
0.0482816
5.13943e-05
0.000110773
0.0782975
0.071671
0.00014297
0.000107265
0.000201865
0.0513987
0.0840937
7.84006e-05
4.48603e-05
7.9748e-05
0.000102175
0.0515553
0.0472247
0.00017633
8.86781e-05
7.93315e-05
9.65832e-05
0.0942516
0.0856053
8.42925e-05
0.0152677
8.8194e-05
7.16039e-05
0.00310422
0.000112578
5.7096e-05
0.0505206
0.000171328
9.58674e-05
7.03078e-05
0.0930551
8.10515e-05
0.000660428
0.00013064
0.0496324
0.00226614
0.000119301
0.0171825
6.8463e-05
0.0312754
9.08563e-05
0.00188898
6.88743e-05
0.000173479
0.0829361
4.53337e-05
0.0884337
6.45072e-05
5.871e-05
0.072723
0.0503272
5.62998e-05
0.000268164
0.000804856
6.84417e-05
7.10925e-05
0.0932067
8.77801e-05
7.06462e-05
9.57611e-05
9.95204e-05
0.000112451
7.94051e-05
0.000103006
8.50672e-05
6.90182e-05
0.0506559
0.00266749
9.23918e-05
0.0220101
0.00507633
0.0741046
5.65297e-05
0.00011919
0.086046
6.83112e-05
4.71275e-05
0.0953174
7.09531e-05
0.000118266
0.0454625
0.0470682
0.067995
0.0479014
7.90416e-05
0.0552645
0.000101465
0.00436609
0.0494755
6.96595e-05
0.0886637
5.29012e-05
0.0795783
0.000494816
0.0654475
9.99169e-05
0.000110446
0.000108047
0.00689815
0.0917515
0.00015813
0.000864207
0.0580781
7.66607e-05
0.0878187
7.8393e-05
0.017913
5.99561e-05
8.50328e-05
7.66907e-05
0.0525133
0.0336321
8.97259e-05
0.0933009
8.61295e-05
0.00843538
0.0852026
9.69301e-05
9.47477e-05
0.00570975
7.78453e-05
0.00604682
0.000136737
0.00628519
6.85087e-05
0.000133031
8.54125e-05
5.29791e-05
0.00431756
9.51307e-05
7.16008e-05
7.06733e-05
0.000113098
0.00421716
4.70993e-05
4.52885e-05
8.55844e-05
5.86538e-05
0.0187287
0.0734343
0.080389
0.0715033
0.0202994
0.0808734
0.0183785
9.51254e-05
6.76082e-05
0.000170225
0.0478571
7.59748e-05
0.0609008
9.62575e-05
4.30174e-05
8.90056e-05
6.27245e-05
9.98888e-05
0.000122898
0.000133939
9.0919e-05
4.25943e-05
0.0837832
0.102021
0.0864036
0.090868
0.000441661
5.81389e-05
0.0204712
7.77508e-05
4.72418e-05
0.00937574
0.00013154
0.000130525
0.000124694
0.0926784
0.0529773
5.45472e-05
0.029664
0.00133645
0.0478821
4.68843e-05
0.0487972
7.59473e-05
7.79404e-05
8.92674e-05
0.06776
8.88318e-05
0.0430822
0.0743892
0.00608882
7.11321e-05
6.77865e-05
0.0925587
0.00901407
0.0718493
0.0058727
0.0741912
0.00558444
0.0693568
0.0300842
0.0892225
0.068403
8.47306e-05
9.00524e-05
6.8117e-05
0.0748703
7.76549e-05
0.0128078
0.0311316
8.99263e-05
0.0887842
0.0834122
0.0728219
7.45741e-05
7.72167e-05
7.48917e-05
0.0874672
0.000117427
6.8998e-05
9.07635e-05
0.081745
6.90506e-05
0.0503553
9.97652e-05
8.32644e-05
0.000117737
8.87074e-05
7.64032e-05
8.40488e-05
0.000101532
9.64224e-05
6.66259e-05
0.0213718
6.79941e-05
4.59771e-05
4.47395e-05
8.09149e-05
0.0601158
0.0841376
6.98187e-05
0.0326868
9.30371e-05
7.93411e-05
7.04421e-05
8.70403e-05
7.464e-05
8.75143e-05
0.000109575
6.90308e-05
0.0783575
8.4e-05
0.0511407
0.0476601
0.000107128
0.000110492
6.51093e-05
0.0669935
0.0857944
0.000112094
5.48415e-05
0.0151715
0.00880306
0.000122523
8.36495e-05
6.20461e-05
0.0148837
9.97201e-05
0.0188857
8.36135e-05
7.40998e-05
0.000125385
0.020981
8.04582e-05
0.0695168
0.0116268
0.0446885
0.0109013
0.00656311
0.000100265
8.9534e-05
0.0467055
0.0595125
5.49802e-05
8.33166e-05
0.0313547
0.0837755
0.000143315
0.000836335
9.77927e-05
9.12321e-05
4.47506e-05
0.0140828
0.012506
7.15491e-05
0.0535225
8.83082e-05
0.080679
8.81031e-05
7.41324e-05
0.0228864
0.0617526
0.000129414
0.00537464
0.0864816
0.000116716
0.0266951
8.06485e-05
0.0307401
0.0476538
6.09297e-05
0.0460252
0.0485573
0.0618847
5.03771e-05
0.00228516
5.54116e-05
7.0493e-05
0.0597158
0.0641271
0.00779166
0.0133545
0.079666
9.88839e-05
0.000123509
8.11318e-05
4.48037e-05
8.62423e-05
5.98596e-05
0.0591669
0.0588837
0.000499895
0.0160884
5.65684e-05
0.0300871
8.10113e-05
0.00112921
0.000392143
8.2926e-05
5.22415e-05
6.72979e-05
5.20002e-05
0.0868827
7.11779e-05
0.0860187
0.00181456
0.000123988
0.000104962
4.99658e-05
0.0848905
0.0110979
0.040048
7.91426e-05
7.49857e-05
7.58819e-05
0.0247549
8.75668e-05
0.000194519
0.000109773
7.11784e-05
5.42526e-05
8.77848e-05
6.79999e-05
5.08595e-05
9.46436e-05
0.00121283
0.0979061
0.00322338
8.00994e-05
0.000733504
0.0465752
0.000144645
0.0864235
5.7741e-05
8.86784e-05
5.77911e-05
8.58336e-05
0.0446605
9.45266e-05
0.00124862
0.0366376
0.0771672
9.52948e-05
7.51107e-05
0.0749267
8.53743e-05
0.0832451
7.92241e-05
6.87576e-05
0.0804038
5.18595e-05
4.85312e-05
0.00014563
0.000147449
0.0264598
0.0592719
0.0671516
0.0377722
5.87154e-05
7.5209e-05
0.000106706
0.0429112
0.000268014
5.13018e-05
8.96212e-05
0.000100227
0.0607939
4.58735e-05
9.00857e-05
0.0620191
0.0613811
0.000133439
8.5588e-05
4.72608e-05
7.9548e-05
8.15951e-05
9.54201e-05
4.73338e-05
8.83795e-05
7.48015e-05
0.0879324
4.73392e-05
9.60333e-05
0.0781611
0.0218551
8.15458e-05
7.19486e-05
7.67649e-05
0.0169471
0.0737792
0.0134925
0.00852246
0.00122916
0.0818972
0.000151843
0.0586933
9.38053e-05
0.0469829
7.04045e-05
0.0443803
7.89101e-05
8.28968e-05
0.00225868
0.000100906
9.03438e-05
6.99708e-05
9.45964e-05
6.60814e-05
0.0329119
0.0472674
0.0757866
7.84331e-05
6.24298e-05
0.040588
5.18345e-05
4.86142e-05
0.0153179
0.0735971
0.0144641
0.0108739
0.043018
9.21423e-05
0.000381655
0.0774325
5.57894e-05
9.64341e-05
0.0704876
4.59777e-05
6.8122e-05
0.0778236
0.0522623
9.07727e-05
0.0592335
5.57309e-05
0.000106976
0.0008517
0.00669815
0.00658323
9.39404e-05
6.40856e-05
9.95957e-05
9.17995e-05
0.0145319
0.0281288
8.34261e-05
0.0823633
0.0326927
0.000170408
4.71121e-05
6.85029e-05
0.0450961
9.06064e-05
9.12064e-05
0.00472473
0.0114294
6.81358e-05
0.0788787
0.0816719
0.0520212
0.00833276
0.000124144
4.89839e-05
4.4797e-05
8.31832e-05
8.29443e-05
0.0474824
0.0601915
9.42487e-05
0.000103192
0.0104207
0.0743936
0.0438144
9.00288e-05
0.0487045
9.11272e-05
0.0819509
0.000156489
9.448e-05
9.85533e-05
9.1261e-05
0.0381356
0.104213
6.25466e-05
0.0536649
0.07992
0.0186211
0.0827021
0.000110951
9.08926e-05
4.8821e-05
0.04814
7.02508e-05
0.0752853
7.74097e-05
8.80965e-05
8.73297e-05
0.000102359
0.0203028
8.83734e-05
0.00226558
0.00629446
0.00760675
8.74375e-05
5.35908e-05
0.0957189
7.45005e-05
7.48887e-05
0.0706758
7.34068e-05
8.44208e-05
0.000141467
9.50635e-05
4.82303e-05
0.00432192
0.0821044
0.0236828
0.0532199
7.06374e-05
8.51857e-05
0.00013356
0.000417786
0.0463755
8.52519e-05
0.0784683
8.26709e-05
9.49999e-05
0.0546452
8.30636e-05
4.94197e-05
0.000101067
6.64101e-05
7.35544e-05
7.7403e-05
0.00623717
0.0771305
7.02178e-05
0.0114439
0.0670541
0.000132852
9.11745e-05
4.96805e-05
8.37257e-05
8.29188e-05
0.0150714
0.000165665
0.0533116
0.0593553
0.0151597
7.71208e-05
9.88124e-05
0.0433228
0.000101088
9.44835e-05
8.81038e-05
0.0120126
0.0065722
7.72712e-05
0.0639726
0.00797701
6.38298e-05
9.84375e-05
8.4617e-05
0.000155985
7.8712e-05
0.000117111
9.86143e-05
0.00111099
8.03915e-05
9.29816e-05
0.00558669
7.41743e-05
0.106995
9.28934e-05
8.78854e-05
0.000100335
8.23266e-05
0.000111785
7.44168e-05
6.65273e-05
0.0306902
7.70254e-05
0.0841552
0.000100221
7.21232e-05
0.00220771
0.0726138
6.32886e-05
4.72976e-05
0.000119351
0.0114733
8.55846e-05
0.000133313
0.0330059
0.080164
0.000119044
0.000116581
0.0198876
5.33387e-05
6.40304e-05
0.052522
0.00822083
0.0331896
9.27281e-05
9.25893e-05
6.90609e-05
0.000100507
0.0251172
9.08016e-05
8.84266e-05
9.12926e-05
0.0581481
6.35035e-05
6.93617e-05
8.93344e-05
7.19924e-05
0.0042171
5.33854e-05
0.0315791
0.000112634
0.0887966
0.0766935
0.000100304
0.0547377
8.90603e-05
0.0801039
0.00458711
0.00503165
8.75599e-05
0.0479518
8.98603e-05
0.000124363
9.94581e-05
8.63363e-05
0.0818909
7.37346e-05
8.55229e-05
7.56005e-05
0.000105641
8.16545e-05
0.0847032
0.0563237
0.00919415
0.0466955
9.03144e-05
0.0546476
5.77501e-05
8.82911e-05
9.14206e-05
9.16632e-05
0.000885088
0.0791573
7.88126e-05
0.0536617
8.22152e-05
0.0794024
0.0932672
0.00412726
7.66457e-05
9.03637e-05
0.000126038
5.18207e-05
8.22358e-05
7.24059e-05
0.0633638
8.71724e-05
0.011747
0.00010525
8.82857e-05
0.00870194
7.60618e-05
0.0583357
8.61677e-05
0.00012039
0.0267023
0.0731269
9.60535e-05
0.0300163
0.00893617
0.0554102
0.0141217
6.69892e-05
0.0666409
5.5331e-05
0.0398243
9.27129e-05
5.64578e-05
6.75991e-05
0.0262368
0.0790034
0.0359594
0.0216418
0.0521682
0.0652181
7.31024e-05
0.0450152
9.28799e-05
9.04457e-05
0.0529061
0.0494028
4.71161e-05
0.0907473
0.000136474
8.58134e-05
0.0944473
9.18839e-05
7.24169e-05
0.0491356
7.59988e-05
0.000114302
0.0877537
0.000132686
0.0492775
8.68953e-05
4.48647e-05
9.25897e-05
0.0678649
0.000101115
9.89087e-05
0.000111447
5.90949e-05
5.35765e-05
0.000100224
0.0596426
4.80743e-05
0.0849745
7.59814e-05
0.000177248
0.0518858
9.45597e-05
0.0838397
4.5165e-05
8.60337e-05
0.0623589
8.64574e-05
7.31639e-05
0.0688495
0.0472698
0.0727114
8.73761e-05
0.0091311
9.25019e-05
0.0804974
0.000306818
0.000107878
0.0199149
0.000174107
0.0348185
0.0542827
4.83489e-05
0.000148844
0.000112755
8.27147e-05
9.86011e-05
0.0189735
8.65489e-05
8.95521e-05
7.55055e-05
9.2434e-05
9.17151e-05
8.22576e-05
6.72383e-05
9.74816e-05
0.0566005
8.91457e-05
5.06527e-05
0.0722442
7.95195e-05
0.00609887
0.00560018
0.00905869
9.01457e-05
0.0894074
6.97751e-05
0.054901
3.73617e-05
0.0700211
0.0334751
0.00400014
0.0111777
8.49467e-05
7.06613e-05
5.01282e-05
9.14181e-05
8.76269e-05
0.0441359
7.86185e-05
7.56616e-05
0.00030502
0.0636973
0.000153004
0.0254943
0.0474486
0.000151626
5.6826e-05
4.92402e-05
0.00129883
8.46493e-05
0.000100868
0.0907614
0.000102693
6.83243e-05
8.35234e-05
8.58733e-05
0.000211507
0.0865283
0.0340157
9.37959e-05
8.78385e-05
4.80787e-05
8.83317e-05
8.85026e-05
0.071132
7.82836e-05
5.32926e-05
8.50332e-05
0.0230563
0.0578928
9.03719e-05
7.39118e-05
8.92925e-05
0.0147229
6.77707e-05
0.000101258
0.000120899
0.0826886
0.00665591
0.0701587
0.00011983
0.00783973
0.00010089
0.0936657
8.89719e-05
0.0499543
8.1596e-05
0.0561911
0.0944783
0.0529825
8.8739e-05
0.022511
8.144e-05
0.0763696
0.0574028
0.0762746
0.100417
0.0725007
9.17339e-05
0.000120656
0.0305885
8.09773e-05
0.00152682
0.00011493
0.0483999
0.0928042
0.0632027
0.0222311
0.033628
7.07179e-05
0.0694019
0.000142118
0.0175223
4.94812e-05
0.000200583
0.0933725
0.000210754
0.0883168
0.000111203
0.00639701
9.80219e-05
0.0282054
0.0808907
8.83052e-05
0.0748437
0.00971262
8.57847e-05
0.00751994
7.31916e-05
0.000311862
0.000406649
9.3308e-05
0.0923597
0.0728183
6.67019e-05
0.0909648
9.03947e-05
7.39079e-05
0.0781045
0.0733992
0.0333543
0.0449323
6.79537e-05
8.27053e-05
0.00160829
5.11195e-05
0.0682526
0.012102
0.054943
0.0531915
5.42553e-05
0.000123097
4.6048e-05
0.0381673
0.0420387
0.0328593
0.000109896
5.12965e-05
0.047214
0.000107514
0.00010876
0.00399055
8.20125e-05
0.0666981
5.90839e-05
9.21008e-05
9.527e-05
4.86692e-05
8.31447e-05
7.34376e-05
0.00570752
0.0547775
5.41857e-05
4.74913e-05
0.0553377
0.0767109
0.000132705
9.18013e-05
0.0938116
4.7839e-05
0.0546236
0.0814992
0.0877633
7.08054e-05
8.58372e-05
0.0103179
0.050996
0.000109753
7.88086e-05
0.0129249
5.10583e-05
0.00164211
0.0345365
6.89084e-05
0.0771958
0.00173798
0.000101514
0.000128252
6.84031e-05
9.45057e-05
0.046555
9.61744e-05
0.000277735
7.92266e-05
8.99194e-05
3.64126e-05
4.63601e-05
0.000129981
0.0465631
8.7677e-05
0.000346954
0.00360254
7.91354e-05
0.0927813
8.61702e-05
6.83656e-05
0.0540627
0.00285763
0.0573195
8.24574e-05
0.0751665
5.64299e-05
4.47917e-05
0.0119792
0.0758459
0.0623724
5.49371e-05
0.00511064
8.27768e-05
5.17754e-05
8.15473e-05
0.051843
0.0132199
0.0355077
0.000100277
9.08372e-05
0.000100645
0.0360821
0.0865859
0.0147373
0.0818244
5.64762e-05
6.30292e-05
8.16949e-05
0.000138002
8.87176e-05
0.000112024
0.069269
8.89744e-05
0.0102414
0.0844464
8.93504e-05
0.0530605
6.78776e-05
9.14388e-05
0.0884556
0.00933036
6.70884e-05
6.21214e-05
0.000107277
0.000251958
0.0500886
0.0328015
0.0713653
0.000148962
0.0576328
0.00401864
9.44771e-05
5.50107e-05
0.0540501
0.00021845
8.78262e-05
9.9981e-05
0.0165741
0.0063965
5.10942e-05
0.0350567
5.74456e-05
4.9637e-05
0.0387441
7.68083e-05
0.0843606
0.0547765
0.000137587
0.00190708
0.0488916
8.86689e-05
0.0706801
0.00354003
7.25243e-05
0.000103408
9.28542e-05
6.88046e-05
0.0798209
4.92082e-05
0.0818082
9.57117e-05
0.000268083
0.0107044
7.93397e-05
0.0720689
9.89753e-05
0.000178563
0.0879301
0.000222013
0.00013172
5.20934e-05
0.0828747
5.35436e-05
0.0957971
0.0361638
0.000191844
0.00243902
5.17777e-05
0.0849854
7.32133e-05
0.000108252
9.50149e-05
0.00117299
8.90613e-05
0.0130305
8.26199e-05
0.0400156
5.31115e-05
0.0908909
0.012455
9.54633e-05
8.20836e-05
0.000335441
0.0880663
0.0461371
5.18105e-05
0.0769822
0.000270379
8.66184e-05
0.00896582
7.29426e-05
0.000101697
0.0849811
0.0211181
0.000101261
7.33107e-05
0.0282826
0.0754081
0.0290877
9.19773e-05
5.20023e-05
0.0941857
0.0280139
0.000105485
0.00832612
8.78494e-05
0.0513253
9.78616e-05
7.13795e-05
0.0157052
0.0934796
0.000111853
0.000114169
5.20189e-05
0.000105698
9.04304e-05
0.000118999
0.0103778
0.000276803
9.06563e-05
4.80273e-05
0.083082
7.58159e-05
7.93853e-05
7.36287e-05
0.0528994
0.042766
0.00054313
0.000103045
5.39272e-05
5.78558e-05
0.0937924
0.0680017
0.0844468
0.000143694
0.08431
0.000101015
0.0817065
0.000106702
0.000162399
6.77595e-05
6.24247e-05
7.34591e-05
0.0523964
7.1196e-05
7.20563e-05
0.000304757
0.049401
0.0819813
0.0221276
8.50929e-05
0.0367572
7.54853e-05
0.0540724
8.64279e-05
0.00773548
4.75958e-05
5.65762e-05
0.00905666
0.0014127
8.22522e-05
8.7359e-05
7.99058e-05
0.00770423
0.000113707
0.0381262
0.000216861
0.0832276
0.0515492
0.0954627
0.0474619
7.56289e-05
0.0536257
0.000116995
7.25531e-05
5.4466e-05
9.15755e-05
6.9408e-05
8.16236e-05
8.80937e-05
6.75867e-05
8.6521e-05
7.74248e-05
8.15808e-05
0.0117009
0.0485723
0.0463325
7.77348e-05
6.91033e-05
0.00798196
8.28363e-05
0.04872
8.73123e-05
8.20126e-05
0.0578982
0.0790427
9.85873e-05
0.000177197
0.000340557
7.84445e-05
0.000586948
0.00012906
0.0524836
0.0934375
0.00339459
9.38999e-05
0.0748007
9.27053e-05
7.32236e-05
0.000126826
5.35659e-05
9.99198e-05
8.58648e-05
0.0361928
5.04361e-05
5.38599e-05
0.0851219
6.61668e-05
0.000104333
0.0677359
5.32779e-05
0.011436
5.02407e-05
5.85896e-05
5.58335e-05
0.00593305
8.83275e-05
0.0780634
0.0749485
8.26553e-05
5.62526e-05
9.19495e-05
0.0617299
0.0631582
6.32071e-05
7.93594e-05
5.66554e-05
5.76839e-05
6.14733e-05
6.85234e-05
4.71075e-05
0.000109282
8.64604e-05
0.0930432
0.0459847
0.000111817
8.04511e-05
0.000102207
7.03757e-05
0.00659316
0.00768752
0.0253781
0.00665664
7.93771e-05
0.0534858
0.0932147
6.88728e-05
0.0304065
0.0078105
5.83918e-05
5.73556e-05
0.069169
8.26954e-05
5.72968e-05
0.000124618
0.0791876
0.07356
0.0080818
0.0173328
7.87385e-05
0.0351714
0.0487864
8.85221e-05
8.80006e-05
9.49741e-05
6.4251e-05
0.000117907
0.0119194
8.10465e-05
0.0102549
0.0683065
0.0743289
0.0879116
7.51447e-05
0.0735558
7.66948e-05
0.0949862
0.0471853
8.72802e-05
6.31979e-05
0.0663782
9.28867e-05
0.0473177
8.1804e-05
0.048845
0.000129164
0.000589644
8.0089e-05
0.0689567
0.0856759
0.0354977
8.81053e-05
0.0302618
0.0400449
0.0851314
0.056919
9.14915e-05
0.0873758
0.0503959
0.00104575
0.0716767
0.0483371
0.0504842
0.0527281
0.0675156
0.0691722
0.0319313
6.74847e-05
0.048449
0.067486
0.00692828
0.000146111
6.30095e-05
0.0928476
9.44869e-05
0.0892371
0.050187
0.0784712
0.0331495
0.0754962
8.87837e-05
6.70941e-05
0.0886576
0.075074
0.0549985
8.77799e-05
0.035911
8.62468e-05
0.0329997
0.00822777
0.039372
0.00480113
8.27901e-05
0.0730441
9.36321e-05
0.0724775
7.40978e-05
4.90016e-05
0.0875833
7.51856e-05
0.0217408
0.0277446
0.0199684
0.0637065
8.13677e-05
7.34564e-05
0.0699725
0.0878906
7.28831e-05
0.076986
0.0763333
9.49149e-05
0.0589682
6.68565e-05
7.45908e-05
0.000155491
0.00166878
4.85772e-05
0.0244381
8.4369e-05
4.8102e-05
0.0771577
0.0612935
4.79588e-05
0.000349495
0.0780617
0.0787825
0.0554774
9.0113e-05
0.100833
4.59182e-05
0.000123851
0.0872765
7.45986e-05
0.0723303
7.53476e-05
0.0905338
0.000108551
0.021462
0.068888
0.0854559
0.000567452
0.0105455
0.000194176
0.0721961
0.000216773
0.0945823
5.61885e-05
0.0530106
0.0899812
0.0613307
5.37797e-05
4.81936e-05
7.27564e-05
0.0804095
0.000382516
8.41127e-05
0.0883982
0.0805864
0.032348
0.00864203
0.00021843
0.000597137
0.014341
4.52827e-05
0.0205264
0.0533409
9.32775e-05
0.0691832
5.94079e-05
8.13886e-05
9.08634e-05
0.0745576
0.0554872
6.69655e-05
7.14153e-05
4.74965e-05
0.0493683
0.0606544
0.0403424
0.0375026
0.0667248
0.0824684
7.40279e-05
0.00932318
0.037934
5.7554e-05
5.98402e-05
7.00841e-05
6.37425e-05
7.26202e-05
0.0742411
0.0868956
0.0690115
6.67111e-05
9.09589e-05
5.22182e-05
0.000112173
0.000275624
0.0483
0.0401341
0.00161038
0.000185865
9.46094e-05
6.33648e-05
9.17961e-05
0.00108252
0.0569215
4.88069e-05
0.000119887
0.000109253
0.0529309
0.0262583
0.0825823
0.00500467
8.73579e-05
0.0765461
9.01912e-05
0.0517265
0.0506291
5.29356e-05
0.0269457
0.0878943
0.0678435
0.00010656
0.083687
0.0315056
9.3777e-05
0.0552544
5.15036e-05
4.84349e-05
0.0669683
0.0892122
0.111426
4.2786e-05
0.0531417
0.000143571
0.0538271
0.0947136
6.95904e-05
0.0826948
0.000119281
4.74491e-05
0.0544118
6.26242e-05
0.0509041
0.000120852
0.0425194
0.0506934
0.00730356
5.29907e-05
0.000134564
0.108645
0.0894271
0.00631629
0.0757676
0.0491814
7.54526e-05
0.0110634
0.000329087
8.74561e-05
7.20209e-05
0.000114198
0.000265741
0.0495981
5.76425e-05
0.000134042
0.0323918
6.04048e-05
0.0685948
9.05026e-05
0.0895318
9.40474e-05
6.30761e-05
0.0401007
6.79019e-05
0.000473715
8.94723e-05
8.98886e-05
0.066129
8.45603e-05
8.79706e-05
4.89806e-05
0.0507999
0.00270837
9.28409e-05
0.0302477
0.0951868
0.0520234
0.000108463
5.83502e-05
0.0498853
9.19708e-05
0.00472905
6.81401e-05
0.010011
0.0893619
9.49481e-05
9.52475e-05
0.0149429
9.50375e-05
9.23938e-05
0.0554886
0.0479467
0.000111641
0.0559896
0.000107589
0.0789796
0.0487283
5.85723e-05
6.35953e-05
8.10965e-05
0.0730707
0.0468351
0.0733134
0.0475457
0.0622834
0.0554217
0.0500761
0.0773865
8.75479e-05
0.0922342
0.0941788
7.10468e-05
0.000109731
0.000276515
8.17092e-05
8.06319e-05
0.0721745
0.0710708
0.0868252
9.38529e-05
0.000110504
0.023009
0.0845123
0.000193124
0.0183815
0.000238924
0.0542699
0.0475977
0.0894626
0.0144685
0.0422822
0.0698213
6.44205e-05
0.0937549
6.36099e-05
9.49567e-05
0.0862402
8.31101e-05
6.71343e-05
0.0569853
9.0661e-05
9.40438e-05
0.0594542
7.20468e-05
8.19545e-05
0.0686228
0.0497441
0.0522755
8.66875e-05
0.0480556
5.68305e-05
0.000105722
0.0497533
0.0823169
0.0556259
7.06207e-05
0.0340835
9.14394e-05
0.0417371
5.77269e-05
6.49159e-05
5.94989e-05
0.0894398
8.47319e-05
0.000124719
0.0738581
9.03187e-05
0.0452892
0.0450001
0.0532665
0.000253812
9.02432e-05
8.80341e-05
0.0398422
0.0108761
7.93669e-05
0.053848
0.111462
0.0874423
0.000910333
0.000110413
0.0251761
0.0856574
0.00897908
0.000269932
0.0731991
5.82526e-05
0.0393126
8.97207e-05
0.00481035
9.42511e-05
0.0658772
0.0922211
0.0507025
0.0667259
0.0148846
8.76223e-05
0.000467794
7.09194e-05
0.0887186
5.70567e-05
0.0945481
2.91349e-05
0.0482395
0.0487562
0.0262613
0.0559235
9.27937e-05
0.0926255
6.27513e-05
0.0744032
9.90791e-05
9.7072e-05
0.0308965
7.20944e-05
0.0176038
0.0322602
0.0745358
0.0493187
0.0459415
0.0733191
0.0727408
0.0938458
7.54714e-05
8.43792e-05
0.00287763
8.77186e-05
5.56121e-05
0.00234854
0.0672634
0.0569798
8.90561e-05
0.0727625
0.000312338
0.000187009
0.0528095
0.085836
9.10545e-05
0.0928205
0.000220057
0.0933134
9.94033e-05
0.049482
0.0703644
0.00054976
0.0481148
7.5449e-05
0.0665801
0.0901447
0.0869332
0.0287463
0.0387065
0.0938325
0.00391279
0.0506878
7.62085e-05
0.0636148
9.85142e-05
0.000248361
8.84891e-05
0.0926188
0.0328856
8.51868e-05
7.89552e-05
0.00456358
7.01771e-05
4.94397e-05
0.0429431
0.0664372
8.32248e-05
0.0741204
0.0912406
0.0571116
0.0617037
0.00345939
0.0891019
0.00366746
0.0741292
0.0888778
5.61803e-05
0.088145
0.0795468
7.97757e-05
0.0515633
0.0719712
0.000146085
0.0241701
0.000131259
9.17508e-05
6.86402e-05
0.0387553
0.069219
0.000109264
0.0512198
0.0366665
0.0204931
0.0935403
0.00970731
0.00749072
0.058268
8.8681e-05
0.0626143
8.74002e-05
0.0501515
7.18236e-05
0.0883364
9.22176e-05
0.0555625
0.00849459
7.21206e-05
0.0680003
0.0518247
0.0517153
0.0489016
0.000109211
0.0669972
0.0372395
5.18026e-05
0.0659654
0.0575658
9.17391e-05
0.036145
8.53878e-05
0.0517088
7.40996e-05
8.36088e-05
5.42544e-05
0.0690306
0.0946412
0.0834185
0.0472299
0.000191707
0.0109423
0.0689841
7.06428e-05
7.65001e-05
0.0485742
0.073174
5.00961e-05
0.0827354
0.0504541
0.0535268
0.0934743
0.0880521
0.0706356
0.000106383
0.0484
7.15036e-05
0.0700322
5.07615e-05
6.15917e-05
0.0569266
0.0828287
0.000103907
0.0126243
7.29775e-05
5.30003e-05
4.71845e-05
8.80836e-05
0.0304078
0.0750018
7.12018e-05
0.00648292
0.0382036
9.08951e-05
0.0143008
0.0939961
5.39856e-05
0.000141644
7.4763e-05
0.0914018
9.47717e-05
9.2112e-05
6.70822e-05
8.75931e-05
0.000326171
5.23788e-05
0.00025366
0.0535456
0.0347437
0.000103282
0.000105787
0.0497574
0.0941656
0.0351799
8.82781e-05
0.025177
0.0830106
4.48993e-05
0.0722282
0.0678439
0.0950097
0.000216462
0.00712289
0.0917935
0.0335969
0.000153796
0.000190475
0.0468779
0.0339438
0.0461921
0.0109133
0.0212202
0.0840383
0.0021635
0.0889376
7.33383e-05
0.0763485
0.000180916
0.0716326
0.0636903
0.0607683
6.69824e-05
0.0370892
8.2122e-05
8.18631e-05
0.00027039
0.000107785
6.23002e-05
6.95793e-05
0.029774
0.0927252
0.0740673
0.0754121
0.0758043
0.00239926
0.00741215
0.0934364
0.011489
6.12714e-05
0.075998
0.000104549
0.0499262
0.0564085
0.0955583
0.00808021
0.0752947
0.075578
0.0541252
0.000113152
0.0501198
0.0189875
0.0939548
0.000276779
0.0899708
0.0114171
0.051214
0.0555281
0.0442392
0.0835074
0.086018
0.000272319
0.0947171
9.6906e-05
0.012639
8.85551e-05
0.032252
0.0620831
0.0910035
0.000219554
8.70828e-05
0.00872121
0.068086
0.000223018
0.000604887
0.000100491
4.91273e-05
0.0432299
8.01003e-05
8.32122e-05
0.0718207
0.000109996
9.43838e-05
0.0658501
0.0960317
0.0884389
4.74751e-05
0.0845167
0.0360149
9.04525e-05
0.000276629
7.51615e-05
6.99745e-05
9.0844e-05
0.000121996
9.21234e-05
6.9872e-05
0.0816551
0.00504465
0.0931943
0.071499
0.0288611
0.00018958
0.0899631
0.000186204
0.00395938
6.32789e-05
0.000141227
0.000111183
0.0341535
0.0233095
6.45543e-05
0.0552811
0.000113524
0.101655
0.0951129
6.85303e-05
0.0249041
0.0567421
0.000264347
0.0730955
0.0568708
0.000220002
0.000141985
0.000259433
0.000308748
8.00298e-05
0.00021393
0.0711225
0.0174217
0.0570155
0.0660202
0.000270042
0.000483997
0.00779733
0.066224
0.0417512
0.000354685
0.000106395
0.0709427
8.85599e-05
0.0788169
0.0838731
0.0346083
0.023164
6.48593e-05
0.0112181
0.0649959
7.36085e-05
0.0292015
0.0518312
0.0943706
0.000186254
5.21832e-05
0.00418739
0.0805165
8.90065e-05
7.93935e-05
0.0309954
8.41534e-05
0.000112867
0.000102565
0.000191697
0.0762832
0.00448043
0.064476
0.000109397
0.0676814
0.0851573
0.000580811
0.0214897
7.70787e-05
0.023911
0.0512129
0.000103521
0.00010528
0.000104155
0.00025827
0.000133459
7.19028e-05
0.000651737
0.0548834
0.0479717
0.000127241
0.000111772
0.0703381
0.0953934
0.0147368
0.08096
0.0569795
0.0440802
4.56347e-05
0.000116657
0.0340929
8.17777e-05
0.0385555
0.0607451
0.000113809
0.000111802
0.0492573
0.0756532
9.20737e-05
0.0927676
5.83789e-05
9.64845e-05
0.0467018
0.0116704
9.56454e-05
0.000107486
0.000276691
0.080162
0.0718542
0.0747954
0.0495799
0.0652317
9.01116e-05
0.000113068
0.0875311
0.0356564
0.0525711
0.0117343
7.49912e-05
0.0379648
0.00014486
0.0837391
0.0649858
8.78903e-05
0.000111176
0.000108511
0.0839796
0.053123
0.089177
6.65006e-05
0.000194538
0.0381803
0.0512147
0.0871821
0.000108037
5.13327e-05
0.000156192
0.0567405
0.0650703
9.67685e-05
0.0955199
0.0771126
0.00823839
4.59261e-05
0.0765424
0.0851073
6.44462e-05
0.0770844
0.000512905
0.0335509
6.54038e-05
0.000102078
8.37157e-05
0.0837576
0.0752755
0.0657398
0.0264855
0.000101738
0.000438654
6.21863e-05
0.000432009
0.017182
0.0668002
0.00312828
9.13464e-05
6.64157e-05
0.000262311
0.000103839
8.95371e-05
0.000110232
4.55746e-05
0.00465809
6.29239e-05
0.0448582
0.000108468
8.20353e-05
0.00609912
6.58171e-05
4.533e-05
0.0492055
6.02437e-05
0.000155056
7.95365e-05
0.0732497
0.0943696
0.0492407
4.69011e-05
6.12128e-05
0.0336794
0.078693
0.0855837
0.0774027
0.0475212
0.0331189
0.000103096
8.2052e-05
0.0484906
0.0264576
0.000191768
0.0761838
0.000104719
9.52239e-05
0.000100853
0.000104922
0.0741606
7.52943e-05
9.07031e-05
0.0344352
9.12375e-05
0.062874
9.29898e-05
0.000564686
0.000272249
8.47771e-05
7.94622e-05
0.0565203
0.00611673
8.57423e-05
0.0156736
0.000101464
4.57449e-05
0.00919597
0.0345294
7.28172e-05
0.00279496
0.089966
9.81926e-05
0.000101931
0.00480538
0.0478891
0.000158809
8.88811e-05
0.00020031
7.23379e-05
0.0768179
0.0824477
6.29755e-05
9.03369e-05
0.000112355
0.0560512
0.0810774
6.49e-05
0.0676062
0.000301232
7.51797e-05
0.000216548
9.08974e-05
0.0839461
0.00310128
7.85967e-05
0.0803135
0.0508998
0.000217534
0.0722805
0.0911013
0.000108062
0.0141076
0.000271254
5.96158e-05
0.0687349
9.64162e-05
0.000153708
8.47093e-05
0.0380624
0.000214984
0.00231203
0.117596
8.05007e-05
5.35684e-05
6.75241e-05
0.0106676
6.85846e-05
0.000116007
7.01841e-05
7.93885e-05
6.18154e-05
0.090905
0.000135503
0.0665583
0.0706695
0.0747868
0.0735287
0.0760508
0.000104987
0.0304485
0.00128839
0.000102564
0.0769487
9.85016e-05
0.0835975
0.0811701
0.000142007
0.000122539
0.000110698
0.0959089
8.25873e-05
0.0891264
0.000118385
0.000213329
0.0732836