/*--------------------------------*- C++ -*----------------------------------*\
| =========                 |                                                 |
| \\      /  F ield         | OpenFOAM: The Open Source CFD Toolbox           |
|  \\    /   O peration     | Version:  v2012                                 |
|   \\  /    A nd           | Website:  www.openfoam.com                      |
|    \\/     M anipulation  |                                                 |
\*---------------------------------------------------------------------------*/
FoamFile
{
    version     2.0;
    format      ascii;
    class       surfaceScalarField;
    location    "250";
    object      phi;
}
// * * * * * * * * * * * * * * * * * * * * * * * * * * * * * * * * * * * * * //

dimensions      [0 3 -1 0 0 0 0];
oriented        oriented;


internalField   nonuniform List<scalar> 
19737
(
-0.270243
0.657662
-0.387419
-0.0303968
0.0256699
0.00472685
-0.000529687
0.0142937
-0.013764
0.594401
-0.0605846
-0.533816
-0.361334
0.300458
0.0608768
-0.684305
0.406387
0.277919
-0.329713
0.274944
0.0547695
-0.405865
0.328385
0.0774805
-0.20265
0.308594
-0.105944
0.00792056
-0.0920927
0.0841722
0.13735
0.140736
-0.278086
0.260422
-0.468494
-0.456505
-0.227801
0.319449
-0.642485
0.323037
0.624124
-0.554355
-0.0697698
-0.0131837
0.0150633
-0.00187961
-0.372101
0.636147
-0.264046
-0.0288565
-0.330274
0.354997
-0.0247225
0.0713308
0.174602
-0.245933
0.313078
-0.475514
0.162435
0.0135798
0.000930577
-0.0145104
0.00710252
0.0143898
-0.0214924
-0.311547
0.370343
-0.0587965
-0.0153688
0.00218517
0.000360246
0.00465408
-0.00501432
-0.326845
0.284605
0.0422404
0.291783
-0.154434
-0.0735526
-0.253293
-0.200219
0.324002
-0.123783
0.0282489
-0.000578212
-0.0276706
0.203631
0.100967
-0.304598
0.0119981
-0.0143919
0.00239386
0.276511
-0.296187
0.0196755
-0.123406
0.242719
-0.119312
-0.583
0.210899
-0.128773
-0.200941
-0.0282224
0.035325
0.487986
-0.0958056
-0.39218
0.0150887
-0.0149129
-0.00017578
-0.674265
0.314462
0.359804
-0.172622
0.432815
-0.260193
-0.188283
0.109043
0.0792394
0.194112
-0.549428
0.355316
-0.471287
0.163311
0.307976
0.217406
-0.265301
0.0478953
0.628882
-0.00475726
0.594401
-0.11871
-0.476171
0.594882
-0.0146656
0.0137632
0.000902333
-0.579898
0.638974
-0.0590758
0.311884
-0.460516
0.148632
-0.0188769
0.00736109
0.0115158
-0.098603
0.338909
-0.240306
0.0106151
-0.0118804
0.00126524
-0.000396508
0.0122546
-0.0118581
0.60633
-0.412218
-0.269646
0.459454
-0.189808
0.147321
0.188629
-0.33595
-0.256154
0.403475
-0.341573
0.311142
0.0304312
-0.00184359
-0.0242499
0.0260935
-0.450574
0.180928
-0.0801409
-0.39818
0.478321
-0.426459
0.62565
-0.199191
0.0143741
-0.00237598
0.575083
-0.25223
-0.322853
0.26076
-0.0433541
0.12464
0.30754
-0.43218
0.0091599
0.223183
-0.232343
0.00288526
-0.0232815
0.0203963
0.365718
0.122267
0.529062
-0.544852
0.0157904
-0.144218
0.347849
-0.20437
0.187721
0.0166484
0.498228
-0.0226223
-0.475606
-0.482251
-0.0883411
0.570592
-0.011737
0.0127055
-0.000968497
0.145152
-0.512796
0.367644
0.610765
-0.0775358
-0.533229
-0.320147
-0.110775
0.430922
0.0828707
-0.560601
0.47773
0.377661
0.120567
0.276707
-0.379747
0.10304
0.258775
-0.246902
-0.0118739
-0.342019
-0.063846
0.00131365
0.007499
-0.00881265
-0.0346957
0.0532712
-0.0185755
0.504204
-0.494023
-0.0101811
0.30031
-0.228979
0.207401
0.189844
-0.397245
-0.622417
0.28056
0.341857
-0.357964
0.286895
0.0710695
0.280634
-0.457506
0.176872
-0.0496319
-0.530266
-0.344382
0.590468
-0.246087
-0.452029
0.279407
0.0706768
0.540088
0.0126292
-0.000526845
-0.0121024
-0.261516
0.270676
-0.279303
0.486704
0.695042
-0.517327
-0.177715
0.663557
-0.476023
-0.187534
0.438027
-0.157393
0.124481
-0.333891
0.20941
-0.00176009
0.0300089
-0.0135046
0.0129749
0.559
-0.43436
-0.0102295
0.011066
-0.000836455
-0.00129406
0.0016543
-0.205752
0.367123
-0.16137
-0.0372722
-0.176385
0.213657
-0.578681
0.464312
0.114368
-0.365346
0.510498
-0.539719
-0.038962
-0.331229
0.000954265
-0.112244
-0.153057
0.46756
-0.353587
-0.113974
-0.0733593
0.181651
-0.49986
0.318209
-0.148584
0.37398
-0.225396
0.331047
-0.475635
0.144588
0.215998
-0.584664
0.368666
0.0448891
0.404718
-0.449607
-0.515976
-0.106174
0.62215
0.448553
-0.152297
-0.296256
-0.247871
0.266701
-0.0188301
-0.252558
0.00468627
-0.120985
0.650047
-0.0122638
0.0150127
-0.00274889
0.00324281
0.00938641
0.126431
0.297904
-0.424335
-0.445205
0.365064
0.27475
-0.619131
-0.212595
0.268942
-0.0563478
-0.379469
0.424358
-0.304592
0.664792
-0.360199
0.0802521
-0.596228
0.527011
-0.249997
-0.277014
-0.112879
0.000775318
0.0108965
-0.0116718
-0.341184
0.135432
0.160928
0.335544
-0.496472
-0.562487
0.424841
0.137646
0.327548
-0.00159446
-0.325953
0.401458
-0.30588
-0.0955785
-0.285698
-0.319848
0.605546
0.0241724
0.276138
0.122637
-0.442784
0.332652
-0.464524
0.131872
0.00996988
-0.00865624
-0.417611
-0.180611
0.598222
-0.0058072
-0.0661773
0.0719845
-0.365989
0.024416
0.156295
-0.106439
-0.0498556
0.596549
-0.247477
-0.349072
-0.587392
0.510518
0.0768748
0.604134
-0.52667
-0.0774646
-0.485369
-0.188896
-0.132107
0.383582
-0.251475
-0.0545872
0.0625078
-0.13869
-0.360457
0.521385
0.035568
-0.0374116
0.261938
0.334612
-0.472119
0.361584
0.110534
-0.0022582
0.015838
0.148342
0.455792
-0.0122543
0.00202477
0.2406
-0.25697
0.0163696
-0.23762
-0.103564
0.524606
-0.298602
-0.226005
-0.548827
0.131216
0.0149604
-0.0164668
0.00150636
0.0122019
-0.00158677
0.00735167
-0.00865542
0.00130375
-0.0107766
0.0117072
-0.0151459
0.000480333
0.474044
-0.141392
-0.419593
0.594037
-0.174444
0.550561
-0.325217
0.0189705
-0.00047953
-0.018491
-0.204265
-0.36773
0.571995
0.0150754
-0.107168
0.0969673
0.0049354
-0.101903
0.654288
-0.460107
-0.194181
-0.0124591
0.0120626
-0.0270498
0.0264715
0.0864306
-0.286649
-0.323824
0.0375821
0.286242
-0.0816445
-0.24218
-0.0144243
0.189026
0.439588
-0.112041
0.44
-0.179578
0.418548
-0.299984
-0.118564
0.000136612
0.00721506
-0.348491
0.110872
0.269023
-0.554721
0.14059
-0.000450757
-0.14014
0.170748
0.262067
-0.00274159
-0.0126623
0.0154039
-0.0163921
-0.00248484
0.265468
-0.178033
-0.0874346
0.0823034
-0.294898
-0.0139252
0.00166142
-0.281246
0.1762
0.105046
0.0144869
-0.0146909
0.000204023
-0.230046
0.0256766
0.247631
-0.210049
0.0110192
0.00118273
0.0227628
0.224868
-0.080293
-0.227216
0.307509
0.178696
-0.285135
0.106439
0.0114686
-0.0106932
-0.013707
-0.000514811
0.0142218
0.267175
0.217223
-0.484397
-0.620763
0.0333704
-0.0630115
0.0283158
0.236562
-0.368669
0.182154
0.00556718
0.341261
-0.0494783
-0.657478
0.352557
0.304921
0.57295
-0.311012
-0.149693
0.531958
-0.382265
0.444308
-0.113261
0.0117343
-0.0148552
0.0031209
0.0590872
-0.342914
0.283827
0.382715
-0.258234
-0.0124966
0.00075956
-0.140444
-0.140802
0.0157309
-0.0159935
0.000262568
0.214653
-0.449565
0.234912
-0.000852237
0.00621786
-0.309597
-0.307378
0.616975
0.297513
-0.123041
-0.174472
-0.0237002
0.00790099
0.0157992
0.531759
-0.262625
0.0541562
0.102139
0.442997
-0.228344
-0.079866
0.356573
0.271113
-0.58071
-0.144428
0.511167
-0.00412562
-0.507041
0.252371
-0.00050319
0.089325
-0.0888218
0.183533
-0.263826
0.0552236
0.183846
-0.23907
0.441983
-0.591676
0.0985061
-0.00153885
-0.0135887
-0.000118314
0.0123757
-0.0142019
0.00182613
0.802414
-0.330973
-0.471441
0.00240646
-0.0266564
-0.0221739
-0.0999919
0.122166
0.448659
-0.181484
-0.0608492
0.055042
-0.443349
-0.214129
0.0861219
-0.0662687
-0.0198532
-0.000241938
0.21056
0.113442
-0.199673
0.254896
0.0840591
0.213454
-0.0280719
0.398666
-0.370594
0.25501
0.317939
-0.314914
0.441345
0.233511
0.206489
0.149614
-0.547795
0.0443651
0.296896
0.00127043
0.0137796
-0.01505
0.0891082
0.14814
-0.237249
0.114455
-0.263039
0.504554
-0.185105
0.279534
0.557385
-0.397644
-0.159741
0.0998351
-0.526294
0.267627
-0.553554
0.285927
0.504958
-0.233885
-0.271073
-0.119251
-0.242083
-0.131543
0.413316
-0.281773
-0.00590955
0.00604617
-0.0406974
0.534115
-0.493417
0.0849496
0.419255
0.465568
-0.0169099
-0.000631794
-0.026418
-0.00497691
0.183977
-0.179
0.341756
-0.369828
-0.577621
-0.43102
0.1255
0.30552
0.0947126
0.0154496
-0.110162
-0.350942
0.271142
0.0797994
-0.589887
0.420126
0.169761
-0.127042
0.159925
-0.0328824
0.00257842
0.585445
-0.225932
-0.359513
-0.263211
0.146939
0.116272
-0.0144675
0.00803667
0.0064308
0.249362
0.0519725
-0.301335
0.283398
-0.414941
-0.00256815
0.0143025
-0.00201623
-0.39177
-0.109979
0.501749
-0.000433702
0.00508778
-0.198603
0.23765
-0.0390471
0.0286885
-0.227291
-0.232346
0.63036
-0.398014
0.217842
-0.325503
0.107662
0.00255078
0.0124096
-0.371468
0.142375
0.229092
0.213158
0.44113
0.267618
0.199943
-0.00827076
-0.00416195
0.0124327
-0.0640473
0.201907
0.0635608
0.112508
-0.235914
1.94604e-05
0.0109997
-0.419243
0.624576
-0.205333
0.361832
0.223614
0.414334
-0.455031
0.0402258
0.392645
0.409769
0.441048
-0.358177
0.00478898
0.0102237
0.393314
0.191184
-0.584499
0.00524977
-0.0127237
0.00747393
-0.0981743
0.0160033
-0.278098
-0.13676
0.414859
-0.105568
-0.411132
-0.0609866
-0.00623375
0.00779385
-0.0015601
0.551733
-0.366176
-0.185557
-0.187621
0.307792
0.170545
-0.478337
0.663481
-0.480114
-0.183367
-0.145366
0.462236
-0.316871
0.0143154
-0.0170372
0.00272174
0.571717
-0.165524
-0.406192
0.364103
-0.305016
0.315807
-0.291635
0.0714044
-0.315237
0.243833
-0.436798
0.1587
-0.35598
0.504978
-0.148999
0.0271805
0.249331
0.368399
0.0137214
-0.382121
0.0931154
0.00159721
-0.327928
0.441586
-0.113659
0.0735306
0.679891
-0.679891
0.295594
0.102935
-0.398529
0.255916
-0.0772195
-0.00170047
0.00138415
0.000316322
-0.0336508
0.0529928
-0.019342
0.566274
-0.222446
-0.343828
0.412198
-0.530909
0.504017
-0.389521
-0.114496
0.0038652
-0.0175937
0.0137285
0.19522
-0.6179
0.422681
0.326295
0.115291
0.0692975
-0.0914714
-0.129411
-0.0588717
0.0662924
-0.0263925
0.266993
0.272641
0.00120201
-0.0178856
0.0166836
0.00824108
-0.00956551
0.00132443
-0.513836
0.157856
-0.126889
0.638056
0.489342
-0.0298881
0.0987632
0.234802
0.0128766
-0.0156182
-0.00869474
0.000423986
0.0194539
-0.219127
0.438855
0.200119
0.406047
0.0832945
-0.127249
0.426673
-0.299423
-0.000101934
0.0356699
-0.0127605
0.0123947
0.000365838
0.316942
-0.427718
0.20583
0.299129
0.419029
-0.35223
-0.0667991
0.473367
-0.165575
-0.581564
0.490113
0.0914507
-0.247906
0.322655
-0.0747486
0.542377
-0.0134716
0.0146736
-0.245172
0.2079
0.120928
-0.396337
0.275409
0.329785
0.245298
-0.0856838
0.100759
0.532277
-0.236683
0.33838
0.144902
-0.483281
0.0833376
-0.432619
0.349282
0.0153264
-0.00101094
-0.0158621
-0.337724
0.251848
-0.00248543
0.14729
-0.335014
0.187724
0.235961
0.330313
0.397391
-0.0289912
0.137605
-0.441557
0.303952
-0.107595
0.344157
0.104996
-0.524589
-0.0189405
-0.242575
0.0106111
-0.00237002
0.520086
-0.571374
0.0512879
0.12733
0.115389
0.0563156
-0.533179
0.476863
0.564496
-0.348498
-0.00594305
0.00918585
0.15153
0.231185
0.170446
0.398773
-0.569219
-0.227865
0.247319
0.170273
0.12767
-0.297943
0.577635
-0.341674
0.259905
0.256018
-0.515923
0.074317
-0.0748202
0.332537
0.0864924
-0.238077
0.497983
-0.392219
0.317025
0.0751943
0.286067
-0.104725
0.523809
-0.117761
0.33273
-0.261326
0.166518
-0.398992
0.232474
-0.1622
-0.377519
-0.000323005
-0.0131816
0.0767504
0.239057
0.198766
0.219781
-0.29479
-0.45874
-0.122824
0.15014
-0.155117
-0.436653
-0.127528
0.564182
0.444035
-0.360698
-0.0575798
0.0122185
0.0453613
-0.275727
-0.279693
0.555421
-0.413933
-0.165061
0.578994
0.0455624
-0.0456644
-0.454699
-0.167718
0.316578
-0.0454359
0.00207098
0.0130177
-0.00197566
-0.0101449
0.0121206
-0.00379169
0.00733997
-0.00354828
0.0153215
-0.012718
-0.00260355
0.38681
0.136998
0.00780946
0.0116414
-0.0194508
0.324574
-0.225811
0.261139
0.263467
-0.00407501
0.0114361
-0.576406
0.37214
-0.090604
-0.00528757
0.0958916
0.463488
0.194174
0.0158159
-0.0265993
0.0107834
-0.180778
0.351052
-0.00204958
-0.0130922
0.0151418
-0.0638539
-0.247693
0.238784
-0.327237
0.0884531
0.0404931
-0.273833
0.23334
-0.206918
0.334588
0.00135716
-0.0295796
-0.272504
0.253563
0.241132
-0.348727
-0.0202704
-0.00342975
-0.521246
0.579587
-0.0583404
-0.0774866
0.0228994
0.447895
-0.266244
-0.0112783
0.0116858
-0.000407536
0.416541
0.155175
0.395375
-0.228857
-0.165964
-0.325776
0.49174
-0.0137031
0.0149736
0.0830846
0.157833
-0.240917
-0.135025
-0.355636
0.490661
-0.0388663
0.0402234
0.287608
0.139071
-0.42668
-0.288562
-0.0132884
0.0126689
0.000619529
0.523937
-0.225887
-0.29805
-0.424797
0.309338
0.115458
0.336525
-0.439763
0.103238
0.312351
0.192628
-0.0110771
0.425706
-0.414629
0.545765
0.134127
-0.441952
0.430875
0.249066
-0.524793
-0.127675
0.271757
-0.144083
-0.440337
0.0413452
0.189717
-0.665888
0.225046
-0.46434
0.239294
-0.057674
-0.534448
0.229855
0.639725
-0.202894
-0.436831
0.308879
-0.0910373
0.470232
-0.245186
-0.642821
0.160571
0.646895
-0.126809
-0.418078
-0.0222591
-0.147968
0.249901
0.0890079
-0.0192592
0.018456
0.000803202
0.0312171
-0.0154011
-0.00106722
0.131224
-0.130157
-5.62949e-05
-0.011222
0.221551
-0.211999
0.445509
0.374683
-0.253755
0.176925
-0.53907
0.362145
-0.327424
0.301708
0.0257157
0.00768116
0.00764036
0.582231
-0.0101131
-0.572118
0.0103768
-0.0112612
0.000884379
0.14802
0.375917
0.354573
0.0939809
0.410436
-0.101778
-0.308658
0.631138
-0.267384
-0.363754
0.103568
0.266775
0.271485
-0.056001
-0.215484
0.289573
-0.104602
-0.184971
-0.644807
0.655217
-0.0104092
-0.52327
0.173271
0.349999
-0.0119912
-0.00129719
-0.191782
-0.00848844
0.20027
-0.0751725
0.0415217
0.00790212
0.609493
-0.526681
0.582997
0.145702
0.0142227
-0.184061
0.496411
0.166671
-0.580604
0.251395
-0.481183
0.157654
-0.309951
0.162893
-0.290568
0.282633
-0.0111482
0.0398936
-0.0221356
-0.017758
-0.0133228
0.0133009
2.19577e-05
0.630494
-0.417337
0.267497
-0.412863
0.607813
-0.293791
-0.314023
-0.00796116
0.0118264
-0.446219
0.357878
-0.146962
-0.549989
0.399645
0.150344
0.140389
-0.444036
0.303647
0.364069
-0.130079
-0.203812
0.0801652
0.33027
0.0141577
-0.00890794
-0.00279791
-0.0164613
0.503379
0.210093
-0.537747
0.127076
0.410672
0.00770986
0.0321837
0.270905
0.232474
-0.014813
0.0176983
0.385117
0.0757101
-0.460827
-0.00212075
0.000826693
0.548189
-0.211665
-0.00643673
0.00264504
-0.0117122
-0.00275524
0.0293614
0.0060701
-0.0354315
-0.0050671
-0.00136964
0.072213
-0.389744
0.317531
0.0648168
-0.582143
-0.487147
-0.0506005
-0.127495
-0.161015
0.288509
0.485276
-0.329663
-0.155612
-0.020915
0.166617
-0.00055785
-0.0118504
0.0124082
0.308159
-0.443184
0.00482525
-0.0954925
0.0906673
-0.109172
0.113997
-0.00482555
-0.561647
0.19825
0.363397
0.157916
0.32736
-0.383685
-0.177962
0.0972389
-0.00909741
-0.0881415
0.0716614
0.244917
0.292389
-0.514835
0.427961
-0.290357
-0.0178347
0.028052
-0.0102172
0.342635
0.320922
-0.0032576
0.560388
-0.305378
0.244298
-0.411872
0.167574
0.227941
-0.298344
0.0704034
0.504725
-0.355111
-0.51164
-0.038349
0.265816
-0.496251
0.230434
0.364359
-0.075015
-0.289344
-0.356762
-0.0354572
-0.0226613
0.170261
-0.433317
0.263056
-0.209296
0.570297
-0.361002
-0.273104
-0.335501
0.608605
-0.08803
0.619988
0.658679
-0.285384
-0.373295
0.00751209
-0.00766758
0.000155488
-9.16824e-05
-0.411374
-0.178513
-0.000393794
-0.0120654
0.339772
0.0663853
-0.406158
0.389374
0.269306
0.425165
0.214561
0.0751558
-0.385006
0.30985
0.0993852
-0.491155
-0.420966
0.103445
0.317522
-0.014592
0.28506
-0.270468
-0.603142
0.257629
0.345512
0.0324332
-0.0895722
0.057139
0.394802
-0.322589
-0.0210527
0.0176468
0.0182988
-0.00873535
-0.00956341
-0.216477
0.26109
0.0393674
-0.546807
0.573838
-0.0270313
0.0114856
-0.0135352
-0.00591243
0.103151
-0.0867194
0.569959
-0.262419
0.530492
-0.213247
-0.317245
0.107517
-0.464917
0.357401
0.324544
-0.345763
0.0212193
0.472138
-0.206321
0.63751
-0.174021
-0.271231
0.51024
0.334501
0.0101675
-0.0104753
0.000307865
0.439612
-0.316975
-0.50662
-0.0146261
-0.336476
0.306504
0.0299722
-0.000266699
0.0104342
-0.472294
0.0706772
0.401617
-0.00657025
0.00150315
0.0802881
0.0174357
-0.00401382
-0.0134218
0.239761
-0.449719
0.209957
0.307253
0.0571062
-0.215335
0.378646
0.00572544
-0.00187744
-0.377904
0.54835
-0.45849
0.114261
0.344229
0.0111082
-0.00307152
-0.135881
0.223026
-0.0211736
-0.201852
0.310304
0.297509
-0.140108
0.340143
-0.200035
0.33807
-0.415089
0.0770191
-0.517981
0.0238155
0.494166
0.320544
-0.173254
-0.208328
-0.0378732
0.246201
-0.563505
0.0874818
0.00168166
-0.0150045
-0.442927
0.0874165
0.355511
-0.0235266
0.00569185
-0.142618
-0.364552
0.507171
-0.591173
0.40908
0.182093
-0.218756
-0.0147273
0.233483
-0.0189396
0.0109619
0.00797777
-0.0468639
-0.219081
0.265945
0.450456
-0.210695
0.0238757
-0.0576457
0.267457
-0.0395167
-0.0821486
0.239981
-0.0292976
-0.227011
0.00825493
0.0101761
0.00812266
-0.333138
-0.235977
0.569115
-0.000156173
-0.0147568
-0.011434
0.00945829
0.171607
-0.143474
-0.0281326
-0.19553
0.596096
-0.400567
0.452703
-0.345186
-0.584437
0.127933
-0.314674
0.595234
-0.010988
0.0108585
0.000129496
0.1564
-0.0158098
0.178611
0.428073
-0.357919
-0.0701541
0.0550181
0.0783884
-0.133406
-0.276179
-0.0944493
-0.33817
0.486504
-0.323302
-0.163202
-0.606011
0.39033
-0.315174
0.465887
-0.526472
-0.0103363
0.0105415
-0.00020517
7.80048e-05
0.0348704
0.229237
-0.264107
0.322226
-0.179851
0.0850552
-0.521709
-0.120485
-0.125448
0.332924
0.153579
0.26392
-0.185469
-0.0784518
0.0934851
-0.253283
0.159798
-0.204897
0.449195
0.589395
-0.410156
-0.179239
0.52307
-0.346145
0.390828
0.198567
-0.0311826
-0.0263972
0.299395
0.173972
-0.0080506
0.0637435
-0.0556929
0.322027
-0.339407
0.0173804
-0.0780835
-0.258393
-0.320998
0.00576053
0.189924
-0.588324
0.3984
-0.0627341
0.0546835
-0.32642
0.406708
0.211077
-0.00298786
-0.208089
-0.11305
0.346416
0.205317
-0.149782
0.00976467
-0.0118054
0.00204071
-0.02691
0.5386
-0.51169
-0.220757
0.0443716
0.303618
-0.189163
0.441568
-0.142173
0.274693
0.355802
-0.574253
0.202102
0.372151
0.368339
-0.411391
0.60661
-0.411737
0.304581
0.107156
0.543726
-0.398824
-0.169019
0.213481
-0.181582
-0.460903
0.43641
-0.0818375
0.00326142
0.00737858
0.215647
-0.00733024
-0.00584677
0.013177
0.393972
0.183721
-0.577692
-0.383335
-0.0595925
-0.189028
0.161256
0.276656
-0.437912
0.00833949
0.00909617
0.105104
0.269579
0.211645
-0.11816
0.419027
0.00838655
0.0112883
-0.0196749
0.236227
0.111451
0.222645
0.00120114
-0.00290161
-0.148902
0.450479
-0.301577
0.0126629
-0.0133925
0.00072963
0.293728
0.263657
0.262684
0.166926
-0.42961
-0.0771637
0.132182
0.379638
-0.611985
-0.518363
0.0218684
0.496494
0.0236533
0.251229
-0.274883
0.271231
0.0373629
-0.00159436
0.011359
0.0200939
-0.000654051
-0.0194398
-0.0233001
0.0226683
0.0685367
0.0175852
0.363979
0.299502
0.102003
-0.521246
0.295101
0.0788785
-0.055535
0.266612
-0.0128433
0.211677
-0.198834
0.428183
0.202177
0.403666
-0.317373
-0.0862934
0.131224
-0.413258
0.282034
0.00729581
0.000216284
0.348452
-0.621557
0.51704
0.0335207
-0.550561
-0.00857607
-0.0103636
0.0112915
-6.25933e-05
-0.0112289
-0.110454
-0.185732
-0.294393
0.455649
-0.249507
0.00822968
-0.405874
-0.35309
-0.10584
0.458929
-0.112264
0.584723
-0.393539
0.153764
-0.433067
0.369617
0.1344
-0.020722
0.0133918
-0.174033
-0.403699
0.577732
0.125266
-0.431346
0.30608
-0.121475
0.0407038
0.0807707
0.0457757
0.309221
-0.167981
-0.355289
0.32388
0.347472
-0.671352
-0.491052
0.325088
0.201742
-0.100443
0.337221
0.0908523
0.329819
0.132417
-0.52186
0.391675
0.130185
-0.125472
0.27241
-0.00125226
0.485208
-0.483956
-0.00959229
0.00974423
-0.000151945
0.378047
-0.272943
-0.0162891
0.0091032
0.00718586
-0.592771
0.225041
0.0143307
0.357785
0.167495
-0.52528
0.517142
-0.414207
0.352322
-0.672169
-0.380089
0.520653
-0.140564
0.581857
-0.58979
0.178416
-0.412906
0.292833
0.120073
-0.47502
0.141882
0.0118415
-0.0123994
-0.00970429
-0.00658478
0.0332163
0.045973
-0.0791894
-0.146522
-0.338497
0.485019
0.405205
-0.0124597
-0.00146555
-0.512193
-0.00616956
-0.317675
0.523504
-0.000957546
0.00234169
-0.308574
0.464177
-0.155603
0.222066
0.0117171
-0.0967656
0.42515
-0.325072
0.594096
-0.0143383
0.0227249
0.475249
-0.00380503
-0.471444
-0.0793121
0.00511981
0.00169062
-0.00681043
-0.634701
0.346209
0.288492
0.582274
-0.398512
-0.183762
-0.0683958
0.0396072
0.0287886
-0.0128754
0.0125524
0.468282
-0.1447
0.0189551
-0.0110541
0.439753
0.0354951
-0.331926
0.0796781
0.252248
0.319472
0.116938
0.404275
-0.510449
0.373149
0.215119
-0.588268
0.0680072
0.296096
0.085561
-0.565675
0.244207
-0.328578
0.084371
-0.278859
0.277264
-0.505116
0.0106549
-0.011466
0.000811122
0.537729
-0.378356
-0.159372
-0.077122
0.0136621
0.29748
-0.00824849
-0.236924
0.419662
0.51175
-0.000533993
-0.0141569
-0.19627
0.286825
0.0428467
-0.329672
0.239035
0.211421
-0.18579
-0.295871
0.481662
-0.224587
0.541178
-0.316591
-0.052177
-0.0165069
-0.00701965
0.00203639
-0.019922
0.111247
-0.436464
0.319715
0.124321
0.194173
0.393907
-0.58808
-0.246273
0.688255
0.116371
0.323241
0.0767298
0.440412
-0.000932606
-0.0121345
0.0130671
3.02231e-05
-0.304215
0.429481
0.414622
-0.314574
-0.0935599
0.408134
0.00141423
-0.00235175
0.000937526
-0.0139225
-0.368828
-0.130631
0.499459
-0.0175946
9.16682e-07
0.405368
-0.151896
-0.253472
0.00127556
-0.00750931
-0.24885
0.250741
0.118202
-0.368943
-0.296949
0.437339
-0.103486
0.147126
-0.0173488
-0.129778
-0.122672
-0.0322294
0.154901
0.11099
0.526519
0.000727036
-0.014066
0.013339
-0.110239
0.0293219
-0.252966
0.324484
-0.0208658
0.358755
-0.0719301
-0.397948
0.592121
-0.0172437
0.0158042
0.00143951
-0.164625
0.0472286
-0.0899254
0.0426968
0.201781
0.286301
-0.488082
0.511422
-0.19696
-0.427717
0.358972
0.0687452
0.244421
0.0883093
-0.00105915
0.0117263
-0.0106672
-0.429824
-0.144429
0.216593
0.142852
-0.359445
-0.670975
0.229023
0.154911
-0.469485
-0.104013
0.445401
-0.341388
0.386947
-0.625834
0.238887
0.0461751
-0.000612685
-0.520897
0.367655
0.153242
-0.151281
-0.00731088
0.00140133
-0.185676
0.584902
-0.399226
-0.160707
0.315729
-0.0696228
-0.246106
-0.102399
0.392924
0.181452
-0.574376
-0.225305
-0.000925786
0.0118814
-0.0129405
-0.0137128
-0.0525559
-0.566904
-0.558922
-0.0193983
0.57832
-0.249001
0.202137
0.151676
0.00284697
-0.0129919
0.356004
0.160816
-0.51682
-0.0359626
0.189557
-0.394454
-0.108325
-0.0024469
0.378312
0.159417
-0.191201
0.59108
-0.399878
-0.278573
0.359699
-0.0811262
-0.486147
0.539153
-0.0530056
-0.548428
0.362751
0.529363
-0.337726
-0.191638
-0.389528
-0.281446
0.0740165
-0.0344093
0.55598
-0.013344
-0.542636
0.182522
0.138022
0.129822
0.00140229
0.113501
0.220464
-0.333965
-0.162404
0.442901
-0.280497
-0.403482
0.593406
-0.118419
-0.340072
0.430054
-0.313683
0.178474
0.352018
-0.225568
-0.101856
0.00140914
-0.0151123
-0.000176551
-0.530922
-0.274912
0.476693
0.282106
0.00130097
-0.283407
0.142721
0.00440542
0.228627
0.0959466
-0.357904
0.10175
0.44247
-0.288706
-0.112019
0.430559
-0.31854
-0.0708717
0.444021
0.325295
0.204068
-0.198324
-0.0888539
-0.457953
0.15875
-0.298858
-0.517498
0.157041
-0.215219
0.206971
0.405939
-0.531761
0.125822
-0.124322
0.271324
0.0107814
0.0920162
-0.449849
0.357833
-0.506097
0.359575
0.340642
-0.000869798
0.356082
0.175677
0.167672
-0.514933
0.347261
-0.13116
0.423189
-0.401413
-0.0217759
-0.0884295
0.330907
-0.0867003
0.459518
-0.269961
-0.262498
-0.392923
0.599596
-0.040596
0.114569
0.21932
-0.33389
0.507607
-0.557239
-0.0973553
0.104407
-0.00705133
-0.358439
0.551147
-0.184214
-0.366933
-0.393629
0.0977992
0.29583
-0.0153399
-0.204151
-0.313202
0.517354
0.577944
-0.411272
0.0347356
0.289808
-0.415778
0.303758
-0.443295
-0.569475
-0.110416
-0.319682
0.101283
0.218399
0.0049908
-0.0286838
0.023693
-0.201076
0.0306773
0.22329
0.0114815
0.000204335
-0.47411
-0.0476403
0.52175
-0.457759
-0.0283881
-0.18779
0.032469
0.155321
0.422529
-0.0520748
-0.267608
0.403397
-0.266996
-0.136401
0.115159
-0.419374
-0.523906
0.00111681
0.522789
0.306564
-0.313252
0.00668872
-0.00590435
-0.005976
0.131845
0.273523
-0.519212
0.0893885
0.421837
-0.306678
-0.0208395
0.0201855
-0.500588
0.296436
-0.183016
0.21795
-0.433286
0.198369
0.352778
0.610714
-0.325668
-0.285046
-0.549189
0.0750789
0.00179834
-0.0135106
0.203403
-0.000691736
0.0811523
-0.0804606
0.0228816
-0.0183449
-0.00453671
0.14663
0.159933
-0.0219716
0.00310476
0.0188669
-0.132658
0.350608
-0.021479
-0.00512037
0.297353
0.313361
0.147895
0.322337
-0.502576
-0.142231
-0.00266408
-0.0127047
0.059119
-0.366959
0.30784
0.34405
-0.230549
-0.24933
0.360979
-0.111648
-0.278544
-0.0759621
0.354506
0.00168409
0.00610976
0.488551
-0.32088
0.419346
0.103178
-0.522524
0.412303
0.169928
-0.146067
-0.29847
0.444537
0.557212
-0.151273
-0.00996675
-0.00202446
-0.0107465
0.0185559
-0.131972
0.314494
0.0145293
0.133212
0.29475
0.0145114
-0.0131022
0.185406
0.341629
-0.527036
0.362107
0.437603
-0.385671
-0.029418
-0.218512
0.295263
-0.0264913
-0.10292
-0.615009
0.236622
0.378386
0.0152119
0.00181333
-0.0170253
0.4098
0.147412
0.0205567
0.0106604
0.00635594
0.03544
-0.0417959
-0.00313092
-0.328098
0.22488
-0.591056
0.0994541
-0.215902
-0.0611762
0.277079
0.348752
0.200924
-0.549676
0.644225
0.316175
-0.490074
0.173899
-0.012483
0.00170645
-0.479829
0.201285
-0.457967
0.272176
-0.289441
0.0700736
-0.36462
0.294547
0.406958
-0.650178
0.24322
-0.174196
0.498076
0.000522161
0.422358
-0.13475
-0.254005
-0.0917588
0.00582949
0.00477226
-0.0106017
-0.000706524
-0.168133
-0.260743
-0.0425563
0.303299
0.602609
-0.195651
0.329899
-0.15928
-0.17062
-0.135098
0.172016
0.351054
0.00162266
0.00828636
-0.00990902
0.158156
0.357318
-0.515474
-0.121764
-0.209354
0.331118
0.347501
-0.460544
0.113042
-0.356246
-0.212396
0.568642
0.544505
-0.211935
-0.332569
0.0114363
-0.000781383
-0.0488684
0.0118203
-0.000980708
-0.0108396
-0.320213
0.0136037
-0.00141129
0.00998436
-0.00857307
0.375461
0.209441
0.144732
-0.14121
-0.00352274
0.350713
-0.282705
-0.272143
0.403988
0.13044
0.199459
-0.0148474
-0.00236378
0.0172112
0.403911
-0.116161
0.0304774
0.0749496
0.240779
-0.375838
-0.188823
0.564661
0.000249316
0.042335
-0.0425843
0.190468
-0.389815
0.199347
0.498017
-0.181842
-0.0121308
0.0111982
-0.375835
0.425488
-0.0496527
0.328527
-0.256865
0.0349187
-0.00555733
0.225251
0.0643226
0.00151422
-0.0142322
-0.484822
0.156404
0.328418
0.464702
-0.591591
-0.39675
0.000951469
0.00737189
-0.00832336
-0.148395
0.295025
-0.37093
0.0280163
-0.443016
-0.411793
-0.172871
0.598654
-0.211707
0.209179
-0.322775
0.113597
0.172092
-0.293856
-0.41265
-0.161925
0.574576
-0.0377728
0.00344743
-0.379282
0.244413
0.0203689
-0.264782
0.00166117
0.0150225
-0.391814
0.117741
0.274073
0.01653
-0.0131756
-0.00335439
-0.426784
0.422659
0.272396
-0.348358
-0.00911306
0.0082766
-0.124798
-0.328203
0.453002
-0.395386
-0.160588
0.555975
0.00706048
-0.00543782
-0.00437785
-0.0071834
0.0115612
0.0922314
-0.0829163
-0.00931511
-0.281576
-0.198252
0.213121
0.389488
-0.111112
-0.230908
-0.015709
0.0206998
-0.192747
0.179904
-0.0368251
-0.0155411
0.259954
0.0109452
0.000875038
-0.0226242
0.0218841
0.000740095
-0.59607
0.412861
0.183209
0.00912232
0.262109
0.0143425
-0.253126
0.238783
0.090922
-0.53427
0.107242
-0.224198
0.439355
-0.215157
0.135584
0.417508
-0.0138421
0.402865
0.296226
0.107171
-0.292129
0.482597
-0.514665
0.146364
0.368301
0.212423
0.332082
-0.112394
-0.217769
0.330163
-0.0280617
-0.159729
0.327283
-0.431295
-0.606921
-0.155483
0.0783195
-0.176596
-0.345185
0.521782
-0.415789
0.183098
0.23269
-0.635603
0.455218
0.180385
-0.380071
0.491319
-0.434025
0.116653
-0.0601637
0.0594719
-0.126845
0.551685
-0.00101276
-0.0209589
-0.516371
0.00578206
-0.00483059
-0.0125216
0.01432
0.318896
-0.402134
0.147167
0.303312
-0.106479
0.387415
-0.280936
0.403791
0.192305
0.117737
-0.269632
-0.314932
0.00858564
0.0053323
-0.0139179
-0.430995
-0.0818007
-0.398637
0.517334
-0.118696
0.433311
-0.341295
0.130245
0.041362
0.119053
-0.224998
0.0105907
-0.0108327
-0.0131132
-0.296839
0.609672
-0.598816
0.189223
0.409593
0.346743
0.10596
-0.450976
0.125113
0.325863
-0.322249
0.00899626
0.0515405
-0.0454704
-0.316516
0.243691
0.0728242
-0.504281
0.286614
-0.483117
0.196503
-0.522772
0.0374026
-0.212668
0.00664359
0.206024
-0.100929
0.00357367
-0.296126
0.0353833
-0.316504
0.101627
-0.405619
0.303992
0.161197
-0.573848
-0.512773
0.148221
-0.137776
-0.289608
0.427384
0.0011462
0.00463586
-0.457807
0.134505
0.385712
0.212942
-0.0556007
-0.119834
0.430623
-0.31079
0.000949201
-0.397827
-0.0361989
-0.37506
-0.173367
0.453071
-0.155167
-0.178081
0.516258
-0.338177
0.329243
-0.312819
0.22997
0.082849
0.208384
0.0475316
0.00147099
0.0392604
-0.0407314
-0.344961
0.476476
-0.131515
0.0017975
0.00526298
0.215837
-0.00745311
0.195721
-0.636447
0.440726
-0.11307
-0.0359678
0.0435259
-0.0075581
-0.305501
0.00266071
-0.0175081
0.328083
-0.476871
0.148789
1.09592e-05
-0.0227289
0.0227179
0.0733003
-0.0734739
0.000173512
0.0168731
0.282788
-0.420563
-0.425119
0.305286
-0.334989
-0.140525
-0.0297952
0.0096595
8.47322e-05
0.0755444
0.0880795
-0.120309
-0.00179203
0.00358953
0.062635
0.288078
-0.0667304
-0.206159
0.27289
-0.000567895
0.0131624
-0.0125945
-0.125565
-0.406196
-0.43691
0.369101
-0.256083
-0.113018
-0.0177232
-0.000557711
0.0413501
-0.0407924
0.0107536
-0.0121649
-0.254858
-0.0115642
-0.000752497
0.0123167
0.282846
-0.389325
-0.00219108
-0.030167
0.281396
-0.000297271
-0.431236
-0.16758
0.00447343
0.245634
-0.250107
-0.0319455
0.0321948
0.210541
-0.159585
-0.0509556
0.047224
-0.0563214
-0.0854621
-0.241775
-0.439882
-0.25481
0.373623
-0.118813
0.0122603
0.020008
0.00804399
0.11148
0.296876
-0.408357
-0.0439524
-0.0717987
0.456915
0.233376
0.188982
-0.214655
0.398088
-0.183433
-0.553393
0.569699
-0.0163061
-0.285128
0.0666158
0.243684
-0.0144471
0.271464
0.106583
0.0114793
0.138661
-0.00174472
0.00343535
0.507696
-0.33568
0.0347673
0.128278
-0.508367
-0.172373
0.581453
0.0194524
0.0524102
-0.0718626
-0.00152661
0.00267282
-0.315418
0.263343
0.0114326
0.214707
0.340714
0.472036
-0.498946
-0.156845
-0.337178
-0.612081
0.241878
0.370202
-0.0230337
-0.00026644
0.171913
0.2685
-0.440413
0.0162327
-0.0144194
-0.0149889
0.151162
0.351879
-0.503041
-0.316376
-0.318325
-0.0121962
0.010663
0.0015332
-0.0133973
0.000937604
-0.0121321
0.326074
-0.0234795
-0.302594
-0.393
-0.21908
-0.153346
0.000595821
0.15275
0.377354
-0.2197
0.0429767
0.467385
0.335925
0.138945
-0.47487