/*--------------------------------*- C++ -*----------------------------------*\
| =========                 |                                                 |
| \\      /  F ield         | OpenFOAM: The Open Source CFD Toolbox           |
|  \\    /   O peration     | Version:  v2012                                 |
|   \\  /    A nd           | Website:  www.openfoam.com                      |
|    \\/     M anipulation  |                                                 |
\*---------------------------------------------------------------------------*/
FoamFile
{
    version     2.0;
    format      ascii;
    class       volVectorField;
    location    "250";
    object      U;
}
// * * * * * * * * * * * * * * * * * * * * * * * * * * * * * * * * * * * * * //

dimensions      [0 1 -1 0 0 0 0];


internalField   nonuniform List<vector> 
13308
(
(1.0245 -0.00834961 0)
(-0.225459 -0.0380124 4.0455e-20)
(-0.201432 -0.0269757 -2.70726e-20)
(0.990858 -0.000107194 -7.20953e-22)
(1.19084 0.0505505 -1.46554e-20)
(0.993531 -0.0004161 -1.43684e-22)
(1.18292 0.146088 -1.0157e-19)
(1.11301 0.0197223 0)
(1.20726 0.124086 0)
(0.191245 0.332449 -3.70278e-20)
(0.768223 -0.0757488 0)
(0.82653 -0.214206 -9.46126e-21)
(0.993582 -0.000457962 0)
(1.03968 0.00401875 0)
(0.993498 -0.000247354 0)
(-0.21261 -0.036254 0)
(1.00223 -0.00939828 -6.15801e-23)
(-0.224818 -0.0417099 1.91911e-20)
(0.786102 0.311902 -3.04654e-21)
(0.901915 0.279898 3.1231e-20)
(1.02126 0.0487517 1.18033e-22)
(-0.135676 -0.0424464 2.81166e-20)
(0.189406 0.0151623 8.21028e-20)
(1.15527 0.0540376 5.78357e-20)
(-0.215721 -0.0378802 0)
(-0.0445385 -0.0118795 -6.32133e-20)
(1.18132 0.0841766 -3.07579e-20)
(0.753543 -0.0770307 -1.49757e-21)
(1.18548 0.0825155 -3.24185e-20)
(1.12666 0.138578 0)
(-0.209308 -0.03831 5.93507e-20)
(1.1343 0.123603 0)
(0.124528 0.00437021 0)
(1.22245 0.0792034 0)
(0.632527 -0.101467 7.94214e-21)
(1.00227 -0.00678793 -2.00315e-21)
(1.18617 0.140905 8.37299e-20)
(0.229837 0.0216238 -3.35628e-20)
(1.10117 0.0508449 1.32009e-22)
(-0.211451 -0.0307281 1.48282e-20)
(1.05299 0.00145022 0)
(1.11271 0.00279387 2.00623e-20)
(0.516822 -0.175211 8.79084e-22)
(1.02966 0.0132407 -1.139e-20)
(1.09578 0.054119 0)
(1.26332 0.141973 0)
(0.993528 -0.000168909 2.18517e-24)
(0.993929 -1.68585e-05 1.92514e-23)
(1.02186 0.00317913 6.03739e-22)
(-0.20475 -0.0253527 2.74684e-20)
(1.03105 0.00208138 1.26798e-21)
(1.04613 0.0385935 0)
(-0.204992 -0.0695023 1.35696e-19)
(0.664799 0.114925 1.67943e-20)
(-0.221264 -0.0338908 -1.42765e-19)
(-0.23669 -0.0339384 -2.72616e-20)
(1.02909 0.0121524 -5.1573e-21)
(1.04419 0.0396586 -7.08886e-21)
(1.12933 0.057897 2.41186e-20)
(1.12526 0.0563965 0)
(0.723709 0.287573 3.39506e-21)
(0.243099 0.0180341 -9.91497e-20)
(1.04451 0.0390258 1.11582e-20)
(1.06672 0.00564916 0)
(1.00478 0.00131875 -1.17745e-21)
(0.105238 0.00198026 -1.89048e-20)
(1.01521 0.0048233 -2.95731e-21)
(1.23678 0.146763 0)
(0.992702 0.000121092 -1.36256e-21)
(1.0702 0.204723 0)
(-0.141081 -0.019177 0)
(1.09846 0.0508562 1.43363e-20)
(1.01813 -0.0176285 -6.79789e-22)
(1.13304 0.129281 1.62917e-20)
(1.02728 0.155993 -1.24218e-19)
(1.02416 0.0303202 -4.85296e-21)
(0.996657 -0.00114346 0)
(-0.240662 -0.0358965 1.54519e-20)
(1.04053 0.0262014 -6.97971e-21)
(1.02831 -0.0424518 1.70197e-22)
(1.06365 0.0427875 7.53634e-21)
(0.998731 -0.00120502 0)
(1.02306 0.0290395 2.42933e-21)
(1.1436 0.0567924 0)
(1.23046 0.194525 0)
(1.11507 0.0183429 0)
(-0.208878 -0.0324639 1.0579e-20)
(0.151788 0.1709 1.8739e-20)
(0.913838 0.142744 -1.04473e-21)
(0.980604 0.282121 -3.04453e-20)
(1.09257 0.0305621 -4.09949e-20)
(1.01474 0.00693492 0)
(1.17749 0.0914521 2.58969e-20)
(1.01707 0.0477022 3.95516e-22)
(1.03393 0.00267173 1.03446e-20)
(1.0092 0.00679843 -1.3184e-21)
(1.11586 0.00257209 4.46055e-22)
(1.03476 -0.0375673 -8.4507e-22)
(-0.0835726 0.00910068 -1.04724e-20)
(1.06944 0.194351 0)
(1.08994 0.0297496 3.45343e-22)
(1.05419 0.000435787 1.29112e-20)
(1.00858 0.00236135 1.44967e-21)
(1.01506 0.048761 0)
(0.886857 -0.0628995 -3.75416e-21)
(-0.215301 -0.0384493 1.09895e-21)
(-0.194505 -0.0262386 2.67654e-20)
(0.990856 6.15079e-05 1.20368e-21)
(-0.124998 -0.0178224 0)
(-0.021706 -0.00903699 6.54292e-20)
(1.13499 0.0135498 -2.70415e-20)
(1.26689 0.0258041 -2.19169e-20)
(1.01812 0.0256252 7.7057e-22)
(1.03969 0.0249042 6.59512e-21)
(1.02095 0.0269625 -8.742e-22)
(0.806583 0.297836 3.78385e-21)
(1.25782 0.135608 -9.91271e-20)
(0.820432 -0.238767 4.67088e-21)
(1.18215 0.089802 8.5925e-20)
(1.03767 0.0400833 0)
(1.17404 0.0660254 -2.39845e-20)
(1.00722 0.0413989 0)
(1.0025 0.00208337 9.01707e-22)
(0.996743 -0.020882 -2.94047e-22)
(0.948592 -0.113928 -6.13606e-22)
(0.930867 0.111921 0)
(1.19536 0.211173 1.21254e-19)
(1.22031 0.206637 -1.09593e-19)
(1.0211 -0.0192911 2.71003e-22)
(-0.226432 -0.035795 0)
(-0.085099 0.00862657 0)
(1.03719 0.0708011 8.5672e-22)
(1.06822 0.00597091 -1.59649e-20)
(1.01059 0.00762548 7.04582e-22)
(1.21191 0.113082 -1.03256e-20)
(0.999521 -0.0192642 -4.6402e-21)
(1.01693 0.0070076 0)
(0.948728 -0.108912 0)
(1.11476 0.0613346 0)
(1.11695 0.000588421 2.16089e-20)
(-0.214945 -0.0262137 9.61272e-21)
(1.13284 0.0122384 0)
(1.05744 0.0118067 0)
(1.01402 0.0259695 0)
(1.11647 0.0317235 4.42288e-20)
(1.04624 0.0365811 -4.10509e-22)
(1.02594 -0.0400696 0)
(0.988958 0.28037 -4.46518e-20)
(1.06434 0.0416275 -1.48644e-20)
(1.04826 0.0831341 -7.71752e-22)
(-0.215289 -0.0330695 -2.34252e-19)
(1.00989 0.00145413 0)
(0.198453 0.284543 6.9688e-20)
(0.744952 0.273328 2.38002e-21)
(0.733908 0.0923074 0)
(1.10232 0.0729319 1.65474e-21)
(0.992369 0.000134566 6.10359e-22)
(1.0017 0.00398971 -7.7751e-22)
(1.05339 0.00132152 0)
(0.955379 0.344618 0)
(0.173847 0.323289 4.88291e-20)
(1.04596 0.0393733 6.52944e-21)
(1.05605 0.0112964 -5.62102e-21)
(0.288829 0.0229498 9.03618e-20)
(1.09926 0.0802407 -1.95894e-21)
(0.995724 0.0916617 0)
(-0.143182 -0.0440354 5.93438e-20)
(1.00141 0.00370601 -5.12933e-23)
(-0.133341 -0.0186851 -4.04956e-20)
(1.18756 0.0326881 4.7732e-20)
(1.13424 0.00872422 7.62895e-20)
(0.826992 -0.245177 -1.06445e-20)
(1.00834 0.00108302 -2.05046e-21)
(-0.213649 -0.0259724 -1.55833e-20)
(-0.220329 -0.0340707 9.42375e-23)
(-0.0922853 -0.0282782 -7.93613e-20)
(-0.119918 -0.0386255 8.91812e-20)
(-0.201609 -0.025527 1.38123e-20)
(1.04739 0.0894188 6.41751e-22)
(0.993496 0.000240911 7.41821e-22)
(0.857205 -0.201047 -3.7909e-21)
(-0.200612 -0.0662131 -2.46118e-21)
(1.01324 0.00422898 2.59654e-21)
(0.227176 0.332305 1.08082e-21)
(0.648907 0.0538807 0)
(0.998527 0.00145041 5.61458e-22)
(-0.235069 -0.0326142 2.54387e-20)
(-0.199294 -0.0335207 0)
(1.13179 0.142634 0)
(0.819707 0.0138178 0)
(0.853074 0.0234865 0)
(0.844393 0.282925 0)
(1.11696 0.0339063 -1.92881e-20)
(0.831826 -0.21059 -1.67717e-20)
(1.11908 0.0256548 -4.26536e-20)
(-0.0814999 -0.0263966 6.69045e-20)
(1.13207 0.00731442 -5.67888e-20)
(1.0238 -0.0358169 9.0398e-22)
(0.717332 0.19026 1.16649e-19)
(1.112 0.00460318 2.47625e-20)
(-0.204985 -0.0384965 -2.30769e-20)
(-0.20321 -0.069633 -1.94591e-19)
(0.681197 -0.194758 1.65901e-21)
(1.21042 0.107009 2.65526e-21)
(-0.226508 -0.0370052 0)
(1.27931 0.116572 -4.53858e-20)
(-0.220347 -0.0333074 1.754e-20)
(0.982444 0.14466 1.13908e-19)
(0.716994 0.0300775 -6.03538e-21)
(-0.222502 -0.0339733 7.74491e-20)
(0.684042 0.0165745 5.51923e-21)
(0.993269 0.105993 -1.30376e-22)
(1.21963 0.0254075 1.21999e-20)
(-0.210112 -0.0252857 2.87929e-20)
(0.11607 0.00976791 1.15344e-19)
(1.00401 0.0300188 0)
(0.991356 8.25369e-05 -8.00062e-22)
(0.195758 0.184389 3.96042e-20)
(0.987947 0.345723 1.1263e-20)
(0.97568 0.156613 8.62747e-20)
(0.763543 -0.0440778 4.88079e-21)
(1.01282 0.00204842 -5.29203e-21)
(1.08885 0.0798469 0)
(0.998426 -0.00178055 -8.55554e-23)
(1.00432 0.0412025 0)
(-0.220537 -0.0538309 -6.56082e-20)
(1.05577 0.0470955 0)
(0.952381 -0.0302527 7.93899e-21)
(-0.23879 -0.0347114 6.91417e-23)
(1.27994 0.111902 4.65228e-20)
(-0.21949 -0.0297421 -1.62911e-20)
(1.00083 0.0176967 2.30697e-22)
(-0.204723 -0.0266404 -6.65067e-21)
(1.20769 0.199524 0)
(1.0326 -0.0097975 0)
(1.21561 0.0166928 -5.75501e-20)
(-0.172852 -0.034774 0)
(0.801128 -0.197159 0)
(0.743682 0.0937071 -5.81986e-20)
(0.998806 0.0161789 -1.59539e-21)
(1.14444 0.0605427 0)
(1.03553 -0.0123675 0)
(1.01954 0.0500633 1.17163e-21)
(0.997978 -0.000796495 3.13113e-23)
(0.864078 -0.138835 -8.35485e-22)
(0.646911 0.0667388 -1.81304e-20)
(0.984366 0.111176 -1.94587e-21)
(1.14005 0.258849 6.17435e-20)
(0.999022 -0.00192057 0)
(0.687556 0.0572176 8.10079e-21)
(0.132773 0.0107553 -1.14286e-19)
(0.126028 0.0041578 -5.00798e-20)
(1.05472 0.000794526 -4.10607e-21)
(0.218104 0.0156177 3.13991e-21)
(0.586692 0.178398 1.1445e-19)
(1.00162 0.0293448 -7.34932e-22)
(0.176173 0.268236 -2.54895e-20)
(1.01301 0.00209483 3.23012e-21)
(0.192886 0.200679 0)
(-0.238469 -0.035004 5.90064e-20)
(1.122 0.139121 0)
(1.13447 0.251033 0)
(1.21574 0.0192454 0)
(1.01597 0.0113753 3.68596e-22)
(1.08578 0.0853663 -1.8934e-21)
(1.0345 0.0672288 -1.74293e-22)
(0.836401 -0.187562 1.84251e-20)
(1.06599 0.0046342 0)
(0.796171 0.00195985 0)
(-0.203726 -0.0486437 0)
(0.963055 0.109476 -1.58913e-21)
(1.17884 0.0673413 8.49393e-20)
(1.04001 0.00343013 -7.68675e-21)
(1.11468 0.0702801 0)
(1.04526 0.0272103 -1.08123e-21)
(1.0036 0.00100457 6.42624e-22)
(1.01218 0.00981545 4.04771e-22)
(0.903498 -0.0608296 5.01348e-21)
(1.19352 0.0480798 -3.25076e-20)
(1.07251 0.0407442 -2.06118e-21)
(-0.0629366 -0.0232811 3.00585e-20)
(1.05172 0.00163057 1.96386e-20)
(0.905442 0.128096 1.04725e-21)
(1.00052 0.0254649 4.20697e-22)
(-0.190385 -0.032376 0)
(0.676663 0.18834 -3.92522e-21)
(1.01576 0.0116136 -3.60467e-22)
(1.02701 -0.0103189 0)
(1.0696 0.027451 4.3571e-22)
(0.359693 0.246194 -1.7838e-22)
(1.17309 0.0991373 2.56571e-20)
(1.01308 0.0104864 6.46275e-21)
(1.22928 0.0278074 4.45919e-20)
(-0.201646 -0.0666942 9.6775e-21)
(1.00473 0.00678401 0)
(0.671231 -0.140575 3.93083e-21)
(-0.239672 -0.0343491 6.14393e-20)
(1.1134 0.134338 2.55381e-21)
(1.07375 0.0364129 -1.6087e-22)
(-0.218809 -0.0522828 1.52212e-20)
(0.106459 0.0016199 -2.5444e-20)
(1.03193 -0.00359589 2.00924e-21)
(-0.0540687 -0.0120701 6.8184e-20)
(1.13646 0.231435 -6.27601e-20)
(1.10381 0.223615 4.42409e-20)
(1.01676 -0.000842058 1.33225e-21)
(1.14254 0.108774 3.77894e-20)
(-0.211433 -0.0253854 -3.04065e-20)
(1.09584 0.270934 -2.8241e-20)
(0.998257 0.00137141 0)
(0.824726 -0.234626 3.26242e-23)
(-0.111039 -0.166453 -5.63681e-20)
(1.1778 0.0973254 -5.57394e-20)
(0.693254 -0.178077 5.85371e-22)
(0.57066 -0.119128 0)
(-0.221122 -0.0345693 0)
(0.997769 0.000718092 -2.23854e-22)
(1.00439 0.00634771 0)
(1.05099 0.00217027 1.8091e-20)
(1.2627 0.0234378 1.90311e-20)
(1.05472 0.000741705 2.21439e-20)
(0.9982 -0.00122158 0)
(-0.226338 -0.0346643 0)
(0.995835 -0.000881978 0)
(-0.226357 -0.0674016 -5.45794e-20)
(1.01675 0.0276246 4.69434e-22)
(1.00131 0.0227048 -1.35658e-22)
(1.07999 0.00972038 0)
(1.09831 0.0540014 -1.60816e-20)
(1.00148 0.0982648 1.05098e-21)
(0.0562916 -0.00505078 5.60381e-20)
(1.02698 0.00438639 -5.47256e-21)
(1.10893 0.266919 1.68827e-21)
(1.01669 0.0191993 0)
(0.991072 -0.000311059 -1.51115e-21)
(1.12798 0.0562313 3.19185e-21)
(-0.205821 -0.0438919 0)
(1.00246 0.00354768 4.04602e-22)
(1.05713 0.0485785 0)
(1.05365 0.274218 0)
(1.17764 0.0403011 2.57081e-20)
(1.07892 0.00843932 0)
(1.03843 0.0145096 1.64555e-20)
(1.21793 0.0818501 -2.20948e-20)
(1.02498 -0.0227647 0)
(0.310199 0.250363 7.54929e-21)
(1.05395 0.0294498 -9.92028e-22)
(1.05112 0.0361033 3.00614e-23)
(1.03577 0.000285549 0)
(1.0293 0.0524287 -2.04892e-21)
(1.2225 0.0274101 -1.36644e-20)
(-0.0155197 0.00619363 6.07353e-20)
(0.15745 0.15061 0)
(1.01176 0.00875656 0)
(1.02459 0.0037517 -1.49075e-21)
(1.0214 0.0310165 -1.08602e-21)
(-0.198117 -0.0487061 0)
(1.01648 0.0021907 0)
(1.05898 0.0304112 9.61665e-22)
(0.524765 0.163534 3.17087e-20)
(0.486995 -0.170466 -1.01513e-21)
(1.20633 0.11687 1.0842e-20)
(1.18885 0.0365128 0)
(0.971823 0.103514 1.33522e-21)
(-0.194539 -0.0597772 -3.42227e-20)
(0.115595 0.00605424 -1.62833e-20)
(1.03862 0.013739 -1.56924e-20)
(0.998141 -0.00088347 -7.00577e-23)
(1.04314 0.0401705 -1.25297e-20)
(1.1764 0.00714327 1.32906e-20)
(-0.198351 -0.0380685 0)
(-0.128095 -0.108794 -5.48245e-20)
(1.13978 0.235546 0)
(1.0315 0.00233981 1.11304e-20)
(1.04162 0.0394696 1.19622e-20)
(1.07282 0.0473205 0)
(0.31509 0.0256673 -1.85246e-19)
(0.124946 0.00440267 -1.32425e-20)
(1.06471 0.0444528 -7.61495e-21)
(0.911353 -0.0135253 5.25306e-21)
(1.08763 0.0461524 7.88572e-21)
(1.01632 0.0191405 2.21259e-22)
(0.97505 0.251417 6.27257e-21)
(1.20154 0.0453896 -5.48542e-20)
(1.01066 0.00878793 -1.6398e-21)
(-0.197915 -0.0617512 0)
(1.26259 0.0245855 1.9046e-20)
(1.12077 0.0683226 0)
(1.01438 0.00463948 2.88461e-21)
(0.246791 0.340235 3.37149e-20)
(1.02793 0.0502914 1.17902e-21)
(1.04433 -0.0156273 -1.55205e-21)
(0.965255 0.0975162 -7.75619e-23)
(-0.208927 -0.0430187 2.86289e-20)
(0.814889 -0.237856 5.87161e-21)
(1.10874 0.131888 -9.28645e-21)
(0.693636 -0.13114 3.21394e-21)
(1.01103 0.00839466 0)
(1.06374 -0.00167642 0)
(1.09589 0.0105076 -4.48825e-20)
(0.970685 0.33796 0)
(0.992211 0.000171859 -1.00707e-21)
(1.08202 0.189342 0)
(0.0988951 0.00496019 1.63872e-20)
(1.00457 -0.0040375 -2.14976e-23)
(0.662401 -0.109812 -6.45974e-21)
(0.99184 0.000139154 9.82415e-22)
(1.00196 0.00208164 -9.15145e-22)
(-0.0699346 0.0128795 -5.54134e-20)
(0.989067 -0.000685337 6.34681e-21)
(1.00334 -0.00454159 -1.94841e-21)
(1.13325 0.227324 -8.01289e-20)
(0.985577 0.0253304 0)
(1.01064 0.00773144 1.71676e-21)
(1.01651 0.00942314 2.94367e-21)
(0.579874 0.0602399 -1.81674e-20)
(1.08526 0.0460276 3.53365e-24)
(1.01633 0.00972931 0)
(1.12444 0.0636993 2.379e-20)
(1.07525 0.0440612 6.23026e-22)
(1.06449 0.0245973 -8.11021e-22)
(1.04112 0.0403924 0)
(1.1734 0.0394284 -4.59217e-20)
(1.07061 0.0423261 0)
(1.02224 0.0253222 -9.12502e-22)
(-0.191051 -0.0268209 -5.32336e-20)
(1.05308 0.270128 0)
(1.11736 0.0271851 -2.53049e-20)
(0.697922 0.142621 -2.12741e-20)
(0.992969 0.236282 -4.36719e-21)
(0.600079 0.211722 0)
(0.999754 0.00157958 -1.03625e-21)
(0.970429 0.0871603 -1.43143e-21)
(0.282086 0.0726526 1.49034e-21)
(1.01364 0.0116297 -1.08398e-21)
(0.995749 -0.000797989 6.73379e-22)
(0.366511 0.0306556 9.06945e-20)
(1.01563 0.00719663 5.26171e-21)
(1.17338 0.105015 -4.45836e-20)
(-0.21353 -0.0299649 -3.48056e-20)
(-0.183279 -0.0218745 -5.56841e-20)
(-0.0650022 -0.02587 0)
(-0.194833 -0.0237081 5.36533e-20)
(1.03978 0.0398074 5.28996e-21)
(-0.180129 -0.0434747 1.09506e-19)
(1.17226 0.00761748 -2.72756e-20)
(0.827107 -0.241289 8.98705e-24)
(-0.204425 -0.0679651 0)
(1.01271 0.00489622 -3.89444e-21)
(0.690322 0.0601598 0)
(1.02486 -0.00645654 0)
(0.125432 0.0609267 -8.67353e-20)
(0.995964 0.0269501 1.70766e-21)
(-0.125281 -0.0176052 0)
(1.15525 0.0507265 -3.72525e-20)
(1.14829 0.102111 3.28342e-20)
(1.19443 0.0305725 1.84469e-20)
(0.960437 0.0107689 1.15031e-20)
(0.257621 0.0240901 0)
(1.08188 0.179915 0)
(0.978622 0.31664 0)
(-0.177628 -0.0333681 5.36328e-21)
(1.02061 0.00316591 -7.87567e-21)
(0.176738 0.31409 0)
(1.03684 0.038527 0)
(-0.252953 -0.0413027 9.3163e-20)
(1.00235 0.00332374 -6.18881e-22)
(1.07069 0.0431226 0)
(1.0342 0.0242515 -1.37254e-20)
(-0.196799 -0.0469491 4.52119e-20)
(1.11246 0.147776 2.15543e-19)
(1.07667 0.00614887 0)
(0.303821 0.0310385 3.90661e-20)
(1.07762 0.0371562 -1.92057e-20)
(0.9311 0.0126254 -1.5945e-20)
(0.120267 0.00474302 1.2683e-20)
(1.06483 0.084301 1.39865e-21)
(1.13293 0.0181737 0)
(0.814208 -0.151959 -4.4146e-22)
(1.03714 0.0143456 0)
(1.00363 -0.0686261 -7.06615e-22)
(1.05241 0.000549281 0)
(0.994978 -0.073873 0)
(1.01406 0.0118538 1.62093e-21)
(1.03101 0.122985 -1.90743e-20)
(1.07199 0.0414548 0)
(1.02061 0.00143725 0)
(0.817521 -0.213862 2.44206e-21)
(1.135 0.0165992 2.78861e-20)
(1.01755 0.00782973 -5.71662e-21)
(1.01567 0.011148 8.41815e-21)
(1.14212 0.112744 -8.71764e-22)
(0.82811 -0.199938 -4.87975e-21)
(0.996255 -0.00103345 1.32869e-23)
(1.0054 -0.00431716 8.00539e-23)
(1.07399 0.0418071 -2.38076e-21)
(0.993035 -0.00024136 0)
(0.660231 0.0279673 3.14598e-20)
(-0.123481 -0.0138996 8.81024e-20)
(0.158087 0.0725275 7.71355e-20)
(0.890785 0.0736164 -1.61223e-20)
(-0.251202 -0.0407734 0)
(0.556534 -0.151368 -6.42802e-21)
(0.848877 -0.176828 1.95631e-23)
(1.11774 0.0654422 0)
(1.01872 0.0111309 1.23985e-22)
(0.99994 0.142926 8.19642e-22)
(-0.193692 -0.0229126 -6.35438e-20)
(0.997509 0.000607536 7.82153e-22)
(-0.126539 -0.0198129 -9.63352e-21)
(1.05995 0.0862843 0)
(0.924301 0.0979578 -9.58208e-21)
(1.09446 0.0442174 -2.83965e-20)
(1.00579 0.00785849 0)
(1.15153 0.0562129 5.98096e-22)
(1.22307 0.0398166 0)
(1.23001 0.0577562 9.44855e-22)
(1.04881 0.00164467 0)
(0.967213 0.0182474 -5.18986e-21)
(0.102369 0.00319154 -1.41941e-20)
(0.560931 0.00229448 0)
(0.152414 0.202747 0)
(0.649143 0.0556842 0)
(1.04268 -0.011907 1.30992e-21)
(0.9939 0.000183247 0)
(1.21497 0.030839 -1.17232e-20)
(1.03693 0.0151583 3.64287e-21)
(0.995815 -0.000705907 -6.78825e-22)
(0.810827 -0.183085 -6.41568e-21)
(0.928769 0.123719 0)
(1.03708 0.121584 5.63729e-21)
(1.22405 0.0437511 -4.49948e-20)
(0.284286 0.0227686 -5.549e-20)
(-0.189638 -0.057476 1.04832e-19)
(0.997616 0.00122561 -2.37626e-22)
(1.08047 0.0337359 -1.53094e-21)
(0.996269 0.206308 4.61782e-22)
(-0.194518 -0.0469557 2.395e-20)
(0.997193 -0.00121115 1.0158e-21)
(1.01589 0.143476 -1.95167e-19)
(1.03116 0.0128817 5.68724e-21)
(0.949634 0.0654523 2.05008e-21)
(1.05412 0.000477732 4.83496e-21)
(0.848319 -0.0879084 3.95636e-21)
(1.09219 0.0444917 3.74433e-20)
(-0.226451 -0.0651989 -8.93045e-20)
(-0.122443 -0.0166205 -1.36865e-21)
(0.829641 -0.237984 8.92223e-21)
(1.01598 0.00671632 -5.50908e-21)
(1.01539 0.0108048 6.09223e-22)
(0.277723 0.0213183 0)
(0.828549 -0.233115 -4.88107e-21)
(-0.124041 -0.0096472 0)
(0.877151 0.102885 0)
(-0.0114798 -0.00886087 -6.79848e-20)
(0.813604 -0.166028 4.39536e-22)
(-0.0516824 -0.0224098 2.53567e-20)
(-0.239109 -0.0342695 -5.23971e-20)
(0.258103 0.0377457 0)
(-0.0605572 -0.022972 -2.74159e-20)
(1.05213 0.0535879 0)
(1.05425 0.000249466 -9.38552e-21)
(1.01563 0.0108624 0)
(0.820013 -0.0804699 0)
(1.03799 0.0253812 7.38938e-21)
(1.24705 0.0327634 3.52878e-20)
(-0.239514 -0.0340416 5.36218e-20)
(1.0787 0.00606028 0)
(0.688078 0.0628815 9.61505e-20)
(0.764965 0.0687391 3.09062e-20)
(-0.139788 -0.0223746 -4.13424e-20)
(1.02657 0.0123085 0)
(1.03665 0.0249996 -7.51522e-21)
(1.02754 0.012624 0)
(0.489021 0.104182 -4.10922e-20)
(1.16816 0.106541 8.63144e-20)
(1.01211 0.0093913 2.24324e-21)
(1.09337 0.0102837 1.491e-20)
(0.151497 0.0532606 -9.57125e-20)
(1.00827 0.00220997 0)
(-0.207921 -0.0472271 3.10366e-21)
(1.0766 0.0834227 -1.56495e-21)
(1.0535 0.0480948 8.78345e-21)
(1.08115 0.128817 2.57687e-20)
(1.06447 0.00455844 0)
(1.03221 0.013263 0)
(1.05667 0.0132476 0)
(1.07788 0.0953759 -1.58227e-20)
(1.12823 0.063318 -3.00001e-20)
(0.990969 0.000122646 -1.79196e-21)
(0.86517 -0.0781144 -7.97961e-21)
(1.00952 0.00676818 1.82335e-21)
(1.01056 -0.00745383 1.50103e-23)
(0.998382 -0.00167881 0)
(1.01942 0.00242447 0)
(-0.106551 -0.0124274 0)
(0.103941 0.0020761 9.03417e-22)
(1.01372 0.0109554 -2.45594e-21)
(-0.233224 -0.0316334 0)
(1.11317 0.00799276 -1.10404e-20)
(1.01915 0.0024394 0)
(1.01503 0.0107046 0)
(1.058 0.0536228 -7.47115e-21)
(1.02827 -0.00214756 -2.47114e-21)
(1.0828 0.0477864 0)
(1.19487 0.0413653 7.36461e-20)
(1.01217 0.0103274 -3.63711e-21)
(0.341665 0.155705 -1.16328e-19)
(1.05044 0.0526726 5.43891e-21)
(-0.216204 -0.0291363 6.8044e-20)
(-0.189998 -0.0669403 9.91945e-20)
(1.1904 0.0298449 -5.75545e-20)
(1.1921 0.0551029 8.48622e-20)
(0.990605 4.03294e-05 -1.06676e-21)
(-0.104914 -0.0135259 0)
(0.520578 0.114587 1.3568e-19)
(1.14783 0.106754 0)
(0.993621 4.10081e-05 2.03004e-21)
(0.952726 -0.00279821 -5.25937e-21)
(1.14524 0.116272 8.96163e-21)
(1.0592 0.126442 1.56775e-20)
(1.05711 0.0139991 0)
(1.02835 -0.00508664 -1.27451e-21)
(0.881254 -0.0561995 4.15404e-21)
(1.07252 0.0873671 -1.29333e-21)
(-0.236446 -0.0388648 4.64811e-20)
(1.06307 0.0400578 2.17549e-20)
(1.02124 0.00356868 8.45984e-21)
(1.09333 0.141441 0)
(-0.238642 -0.0384039 8.78407e-20)
(1.00126 0.00851626 1.01697e-21)
(-0.0494239 -0.0202221 0)
(0.815981 0.037827 -8.58858e-21)
(-0.213303 -0.0286395 -1.46269e-20)
(0.827645 -0.225781 1.32674e-20)
(0.795255 -0.216922 0)
(1.07473 0.0923754 1.54704e-20)
(1.09366 0.0518027 -1.54285e-20)
(-0.127074 -0.0550289 0)
(-0.133823 -0.0202023 1.30305e-21)
(1.00391 -0.00441584 -1.97371e-21)
(1.0578 0.0187877 7.56443e-21)
(-0.238181 -0.0335828 0)
(0.640108 -0.137854 -5.94329e-21)
(1.24238 0.0474934 7.0823e-20)
(0.982552 0.198321 3.94595e-22)
(1.15099 0.0312787 -7.77682e-20)
(1.09557 0.00730346 -7.37323e-21)
(0.997985 -0.00136205 0)
(0.662488 -0.135717 3.25546e-21)
(1.13139 0.243662 0)
(1.00896 0.00200354 0)
(-0.186384 -0.0565114 -5.85713e-20)
(1.09028 0.0342274 -2.43187e-20)
(0.121759 0.0440924 0)
(1.06232 0.00522878 0)
(1.02499 0.0109198 0)
(1.14608 0.184592 0)
(-0.132176 -0.0302551 0)
(1.20982 0.0880314 0)
(0.787801 -0.216127 4.55707e-22)
(0.15767 0.267445 3.38001e-20)
(1.07776 0.125347 -2.02785e-20)
(1.16096 0.157164 -1.96028e-19)
(0.999279 0.0109682 0)
(1.10811 0.175176 0)
(-0.189946 -0.0704341 -5.26546e-20)
(0.990859 -0.000236294 1.02215e-21)
(-0.214126 -0.0320093 -1.57144e-20)
(-0.175171 -0.0205631 -5.52786e-20)
(0.7495 0.214991 -1.34721e-20)
(1.01136 0.000614704 1.97059e-21)
(1.14844 0.122304 0)
(0.992658 -0.000369327 -1.47595e-22)
(1.01443 0.00610224 0)
(-0.12401 -0.0161621 0)
(0.754794 0.202706 -1.71123e-21)
(1.23652 0.154668 1.10987e-19)
(0.812645 0.117943 5.37418e-22)
(0.388244 0.327349 0)
(1.14707 0.0547541 -2.92126e-20)
(0.971918 0.107336 -1.69782e-21)
(1.01135 -0.00604168 -4.26786e-21)
(0.997908 -0.00144133 0)
(1.05647 0.0534508 0)
(0.990774 -0.000219264 7.92056e-22)
(-0.122951 -0.0150104 -8.75782e-20)
(-0.131707 -0.0173166 0)
(1.26643 0.154315 4.12204e-22)
(1.0217 0.278454 3.13673e-20)
(0.999368 0.00155167 1.08427e-21)
(0.910477 0.280434 -3.50432e-20)
(1.01471 -0.00688732 0)
(1.27425 0.126858 -9.53398e-20)
(0.925392 0.140757 5.69253e-21)
(1.05272 0.0471165 4.27325e-21)
(1.00036 -0.000808173 8.96738e-22)
(1.01749 0.0111477 7.99752e-23)
(1.00032 -0.000942483 0)
(0.29629 0.0727704 5.31596e-20)
(1.01577 0.0180372 1.41131e-21)
(0.128803 0.294773 0)
(0.833469 0.362115 1.02475e-21)
(1.10042 0.139348 -7.03101e-21)
(1.18105 0.0374655 5.54946e-20)
(1.01039 0.00192952 1.30686e-21)
(0.11921 0.276172 0)
(0.796453 0.0276953 -8.10564e-21)
(0.651018 -0.227121 -3.86144e-21)
(1.03912 0.0406884 -5.85431e-21)
(1.02617 0.00413951 0)
(1.03065 0.0135797 -6.93992e-23)
(-0.231274 -0.0348118 -2.20819e-19)
(1.04781 0.00203122 -1.79889e-21)
(1.26995 0.0230901 7.69432e-21)
(1.18145 0.0698381 0)
(1.01551 0.017971 8.76231e-22)
(0.997434 0.00115665 2.8939e-22)
(1.05672 0.00296507 0)
(1.00996 0.00741118 -1.93225e-21)
(1.01424 0.00182753 -6.56608e-22)
(1.13332 0.0231597 0)
(1.04877 -0.017969 0)
(0.591489 0.0241557 5.94652e-21)
(1.25867 0.161173 -1.23557e-19)
(1.04056 0.00412426 0)
(0.904684 0.0968573 1.21396e-20)
(-0.166042 -0.0463736 0)
(1.24343 0.0513115 -1.14444e-19)
(0.153844 0.011024 -6.76868e-20)
(1.00154 -0.00249945 -1.52256e-21)
(1.09254 0.033807 -8.61625e-21)
(1.00089 -0.00443829 2.38308e-21)
(1.07591 0.0339837 -1.90964e-20)
(-0.212858 -0.0274216 3.88312e-20)
(1.11407 0.0660962 2.33944e-22)
(0.886985 0.149406 0)
(1.05225 0.031589 -4.73787e-21)
(0.0380217 0.111509 0)
(1.13101 0.00260175 1.50279e-20)
(1.02801 0.0118886 1.0413e-20)
(0.00663856 0.0128066 -5.31404e-20)
(1.0722 0.0298536 1.90648e-20)
(0.135405 0.0108436 0)
(1.04404 0.0271519 1.09018e-20)
(1.01496 0.0117393 0)
(0.408401 0.328238 0)
(1.01904 -0.0012164 -1.34451e-21)
(1.00068 -0.000745764 0)
(1.09144 0.167403 -3.66395e-20)
(1.20143 0.127028 0)
(-0.232434 -0.0343114 1.19804e-19)
(-0.178591 -0.0300039 -7.01118e-20)
(-0.17651 -0.0265782 -5.84288e-20)
(0.256016 0.117559 1.54977e-20)
(0.990696 -0.000232451 -7.04235e-22)
(0.996463 0.000535847 0)
(1.17051 0.0683284 4.4306e-20)
(0.657257 -0.215861 3.08318e-21)
(1.27065 0.0969893 0)
(1.01607 0.000107949 0)
(1.07387 0.00498851 2.15531e-20)
(1.08259 0.0280706 0)
(-0.0989852 -0.0117481 5.34676e-20)
(1.00905 -0.00671572 -1.75852e-22)
(1.05433 0.000314949 -2.45972e-21)
(-0.132454 -0.0294977 0)
(-0.127203 -0.0223116 -7.63978e-20)
(1.22278 0.0747109 0)
(1.07404 0.0327425 0)
(0.996302 -0.000987524 -9.45513e-22)
(1.04558 0.0264262 1.57245e-21)
(1.05418 0.0346566 -1.13823e-20)
(1.13328 0.00404609 -1.19958e-20)
(0.995609 -0.000844775 0)
(1.0893 0.0271366 3.85858e-20)
(1.02041 0.0296807 1.08506e-21)
(0.179304 0.0118948 1.08073e-19)
(0.996197 -0.000556521 -3.14546e-22)
(1.07844 0.0559086 -7.37345e-22)
(0.44052 0.163026 0)
(0.766735 0.308826 -5.49076e-21)
(0.96817 0.0277474 -1.01506e-21)
(1.0163 0.00326269 1.30544e-21)
(1.03492 0.025362 0)
(1.0017 0.281892 -3.13163e-20)
(0.645339 0.177159 -1.41597e-19)
(0.801017 0.0879449 -3.08837e-22)
(1.14542 0.0810873 -4.13333e-22)
(0.90541 0.089281 0)
(0.727178 -0.118586 1.68213e-21)
(1.02217 0.00101126 9.90906e-21)
(-0.121471 -0.014253 0)
(1.11126 0.0636794 2.25632e-20)
(-0.208249 -0.0819318 0)
(1.01437 0.00374222 0)
(-0.218423 -0.0321414 -1.68237e-20)
(1.04001 0.0131223 -8.12952e-21)
(1.02858 0.0553809 1.38129e-21)
(1.02072 -0.0448854 -6.41259e-22)
(0.965708 0.0456748 -3.7699e-21)
(1.05467 0.000455995 0)
(1.01405 0.0106586 3.14422e-23)
(1.13289 0.0280504 -2.7678e-20)
(0.990115 -0.00013997 0)
(-0.236057 -0.0326644 -7.72444e-20)
(-0.203185 -0.0834097 0)
(0.275793 0.191763 0)
(1.02238 -0.0076781 1.49998e-23)
(1.00534 0.00738769 6.98988e-22)
(-0.227012 -0.0385561 0)
(1.01768 0.00136098 0)
(1.00099 -0.000689449 2.17225e-23)
(0.927102 0.00619543 1.04679e-20)
(-0.0108322 0.00637784 -4.04149e-20)
(0.858101 -0.193753 4.15255e-21)
(0.862326 -0.181803 1.71799e-20)
(-0.217974 -0.0289263 -1.83441e-20)
(1.11407 0.0227108 0)
(1.0265 -0.0314224 -7.52774e-22)
(0.0472568 0.123384 -2.69598e-20)
(0.997306 0.00127808 0)
(1.12414 0.0677397 0)
(-0.0528234 -0.024135 -5.81414e-20)
(1.01658 -0.0110664 8.29158e-23)
(1.01812 0.0104663 6.36045e-23)
(0.256121 0.147302 2.91211e-20)
(-0.182765 -0.0260477 5.16942e-20)
(1.05783 -0.000626924 1.3966e-20)
(-0.160123 -0.033543 -4.71527e-20)
(0.997025 0.00122089 0)
(1.16705 0.0753194 -1.09155e-22)
(0.899437 0.0810689 -4.77698e-21)
(0.927385 -0.126873 0)
(0.929125 -0.0952176 -1.65535e-21)
(1.05956 0.0483736 3.51554e-21)
(0.989919 -0.000278674 1.30119e-21)
(1.12525 0.0815027 -1.54056e-20)
(1.11365 0.0308807 0)
(0.887211 -0.0824712 -4.98645e-21)
(-0.228568 -0.0330423 -6.98449e-20)
(1.04872 0.00581118 -5.94214e-21)
(0.194366 0.315392 1.89427e-20)
(0.700122 0.267021 -8.45679e-21)
(1.2609 0.0208917 0)
(0.99562 -0.000873572 0)
(1.01454 0.011573 -5.73779e-22)
(-0.218785 -0.0346383 0)
(1.0093 0.00108916 4.57708e-21)
(1.05848 0.0606182 0)
(0.79673 -0.22679 8.82637e-21)
(0.878287 -0.0336712 0)
(1.0127 0.0115579 3.78188e-22)
(0.457834 0.159227 -9.78288e-20)
(0.140108 0.0434494 -6.96878e-21)
(-0.191746 -0.0571333 3.204e-20)
(0.858894 -0.209406 -3.04006e-22)
(0.965604 0.0776385 0)
(1.00618 0.000725228 0)
(0.999754 -0.00209765 0)
(1.06112 0.0396239 -1.30813e-20)
(1.02631 0.0559506 0)
(-0.186707 -0.0216778 1.18305e-22)
(-0.134059 -0.0221955 1.07937e-19)
(1.07428 0.0575457 -9.69276e-22)
(1.08038 0.034298 1.02683e-22)
(0.841728 -0.212987 -1.78355e-21)
(-0.0128059 -0.0105309 -8.59357e-20)
(-0.217897 -0.0303958 0)
(1.05819 0.000265455 2.7611e-20)
(-0.200891 -0.0466622 7.37336e-20)
(1.10811 0.0272412 -1.92819e-20)
(0.0730761 -0.00248417 4.17604e-20)
(1.09154 0.175917 4.3352e-21)
(1.12762 0.0475785 2.48829e-20)
(0.956518 0.0568576 0)
(1.097 0.00910579 0)
(1.12296 0.049578 -4.00441e-20)
(0.457436 -0.0259731 0)
(1.02794 -0.00301434 2.22745e-21)
(-0.185351 -0.0346822 4.57684e-20)
(0.809102 0.0688868 8.30326e-20)
(1.10244 0.236598 7.50804e-21)
(0.755535 -0.0971864 -2.85133e-21)
(1.1805 0.0739928 5.37112e-20)
(1.05871 0.0597825 8.34107e-22)
(1.00521 0.000324153 0)
(-0.198933 -0.0712214 2.23596e-20)
(1.0147 0.0110903 -2.66633e-21)
(0.281684 0.216543 4.79322e-21)
(1.03495 0.0337701 0)
(1.05351 0.00136924 0)
(1.07267 0.0133162 -1.04279e-20)
(1.17067 0.0422564 7.6142e-20)
(-0.24855 -0.0406495 0)
(1.05719 0.00255937 0)
(0.775072 -0.286517 -6.47444e-21)
(0.981293 -0.0809341 1.03176e-21)
(0.830627 -0.221733 1.48498e-21)
(1.02651 0.0682418 -1.95415e-22)
(0.995952 0.000754589 0)
(0.393899 0.0335863 0)
(1.01855 0.0283647 1.78679e-21)
(1.01942 0.0297113 1.68197e-21)
(-0.05367 -0.0227631 2.96403e-20)
(1.02313 0.0118558 -1.09606e-20)
(1.05772 0.0125934 1.36527e-20)
(1.01174 0.106594 -3.2782e-22)
(1.13518 0.0214421 1.58068e-20)
(0.995246 -0.000408202 0)
(0.800771 -0.217601 0)
(0.11506 0.00929131 -1.62852e-20)
(-0.247136 -0.0388349 0)
(0.150971 0.214943 -2.69715e-20)
(1.01505 0.00553103 1.56226e-21)
(1.01454 0.00154349 0)
(1.21485 0.0903627 -3.60322e-22)
(1.27499 0.132806 -9.32834e-20)
(-0.188414 -0.0223258 0)
(1.05659 0.00890896 0)
(0.276227 0.143619 -4.004e-21)
(1.05293 0.0461247 2.7749e-22)
(1.13499 0.0262562 1.46332e-20)
(-0.226928 -0.0268143 -2.57387e-20)
(1.0479 0.00581748 1.8337e-20)
(1.00707 0.000529196 -6.18599e-22)
(1.14967 0.0663538 0)
(0.997129 0.000650019 1.62523e-23)
(1.02367 0.0128944 4.66895e-21)
(1.03083 0.0373952 0)
(0.975605 -0.079188 3.98261e-22)
(0.295345 0.164372 -2.86833e-20)
(0.992583 0.000216591 1.59233e-23)
(0.669287 -0.202293 7.93517e-22)
(0.928464 0.0785094 0)
(1.01217 0.0519428 0)
(1.08773 0.0659521 0)
(1.00895 0.00145209 0)
(1.05908 0.0186682 8.44754e-21)
(1.05992 0.0382869 -1.38411e-20)
(0.958094 0.038695 0)
(1.01085 0.147216 -5.52257e-21)
(-0.192181 -0.0481658 -4.56382e-20)
(-0.171156 -0.0307383 8.78768e-20)
(0.936216 -0.0205097 5.18889e-21)
(1.03413 0.0324655 2.77715e-21)
(1.15528 0.0381333 1.04443e-19)
(1.08723 0.0529277 -2.68409e-21)
(1.17073 0.0107073 -2.67091e-20)
(1.12491 0.0524548 2.73109e-20)
(1.08691 0.0263399 2.42749e-20)
(0.787078 0.026939 0)
(0.945855 -0.0916188 0)
(1.02965 0.0372383 0)
(-0.221009 -0.0429916 0)
(0.794544 -0.189195 -1.86872e-20)
(0.991587 7.67032e-05 0)
(1.15464 0.0315475 4.28864e-20)
(1.05586 0.0101812 -1.18271e-20)
(1.2565 0.0203972 8.39829e-20)