/*--------------------------------*- C++ -*----------------------------------*\
| =========                 |                                                 |
| \\      /  F ield         | OpenFOAM: The Open Source CFD Toolbox           |
|  \\    /   O peration     | Version:  v2012                                 |
|   \\  /    A nd           | Website:  www.openfoam.com                      |
|    \\/     M anipulation  |                                                 |
\*---------------------------------------------------------------------------*/
FoamFile
{
    version     2.0;
    format      ascii;
    class       volScalarField;
    location    "200";
    object      k;
}
// * * * * * * * * * * * * * * * * * * * * * * * * * * * * * * * * * * * * * //

dimensions      [0 2 -2 0 0 0 0];


internalField   nonuniform List<scalar> 
13851
(
0.000199191
0.000154325
0.000153962
0.0200463
0.00014844
0.000156684
0.000155034
0.000147944
0.0469109
0.000148371
0.000174563
0.00014842
0.000148849
0.0278833
0.000167651
0.000198124
0.0181621
0.000148319
0.000267333
0.000198287
0.000170578
0.000155674
0.0199222
0.000149726
0.00512235
0.00018223
0.000230175
0.00502768
0.042112
0.000146622
0.0442759
0.000155043
0.000198979
0.0619106
0.000167705
0.0418117
0.000149797
0.00350014
0.0639835
0.000148611
0.0676695
0.043381
0.00646806
0.000226687
0.0449402
0.000147535
0.000144941
0.000197703
0.000152259
0.000148855
0.0246029
0.000149206
0.000198676
0.00016362
0.0258863
0.000148622
0.000200101
0.0653346
0.000251035
0.0299846
0.000148477
0.000254469
0.000148592
0.000152643
0.000178943
0.000180805
0.0250873
0.000165486
0.000149038
0.0287031
0.0392561
0.000174929
0.000148426
0.0271319
0.000165088
0.00015254
0.0232031
0.000145892
0.00318812
0.000147726
0.000149004
0.000216054
0.000167143
0.030229
0.0311089
0.0430957
0.000156064
0.0198971
0.000148352
0.0443025
0.000149256
0.000155184
0.00942382
0.0387566
0.0575133
0.000178103
0.000147622
0.000199132
0.0262354
0.00018873
0.000199478
0.000161391
0.000162217
0.000148633
0.000147585
0.000173064
0.000147543
0.0417118
0.000155012
0.000148223
0.000158878
0.000147574
0.000194392
0.000177454
0.000199599
0.000162943
0.000146471
0.000146761
0.0175529
0.0323906
0.000175703
0.000147524
0.000148999
0.0471078
0.000214533
0.000170957
0.000147639
0.000169823
0.061337
0.000172922
0.000155477
0.000161068
0.00134894
0.0612866
0.000175273
0.0574641
0.000164833
0.0415251
0.000159404
0.000172628
0.000175435
0.000150227
0.000148407
0.000170223
0.011368
0.000151686
0.000145804
0.0393494
0.0377546
0.000170702
0.000198336
0.000193844
0.00017813
0.000206059
0.000149349
0.000148649
0.000148582
0.0601202
0.000170575
0.0001537
0.000149583
0.042012
0.000172381
0.000198169
0.028403
0.0485
0.0490773
0.0289599
0.000158404
0.061754
0.000148586
0.000146439
0.000176977
0.000148828
0.0608819
0.000250605
0.000206877
0.000146367
0.000165137
0.000206339
0.000225761
0.000209243
0.000157955
0.000172123
0.00768116
0.038281
0.000199784
0.000156765
0.000149092
0.000147083
0.00298836
0.000170514
0.022801
0.000156959
0.000151655
0.000200219
0.000199184
0.000149398
0.000149472
0.000166187
0.000239017
0.0625314
0.0662401
0.000167065
0.000508237
0.0586915
0.000151868
0.000173354
0.0482102
0.000155554
0.000195373
0.000148895
0.000189379
0.000149531
0.000168562
0.000153709
0.000148725
0.000205464
0.000149405
0.00108549
0.000146333
0.000197737
0.0261355
0.0590986
0.000156501
0.000173123
0.000149754
0.000168822
0.000148066
0.000168037
0.0348343
0.000156625
0.000155316
0.00014869
0.0641877
0.000146605
0.00998469
0.0654462
0.000187154
0.000149647
0.000212161
0.0316603
0.0446678
0.00019614
0.000164579
0.000173596
0.0002119
0.000165388
0.000181276
0.000159417
0.0209824
0.000196686
0.00014708
0.00015693
0.00020119
0.0411751
0.0227867
0.000147
0.000171904
0.000148312
0.000206885
0.000203839
0.000157454
0.00017261
0.000197532
0.000148137
0.000161753
0.000195584
0.00053984
0.000148456
0.000148754
0.000156757
0.0526997
0.0124356
0.000173477
0.000147627
0.000220705
0.000233305
0.000196955
0.000172109
0.0527376
0.0258511
0.000158156
0.000165048
0.00717441
0.000147515
0.000148568
0.000198371
0.000171947
0.000146641
0.000149513
0.000148039
0.000147902
0.000163937
0.000148536
0.0481783
0.00017197
0.000148206
0.0409134
0.044675
0.000149081
0.000198418
0.0251596
0.000150438
0.000149316
0.00017255
0.0290044
0.0750882
0.000179849
0.000148326
0.0580236
0.000148523
0.00018169
0.0297874
0.00106407
0.000153436
0.00167439
0.000307752
0.0464634
0.000195505
0.000161838
0.0623701
0.0528616
0.00399364
0.000149662
0.0245213
0.00898173
0.000208356
0.000203976
0.000151689
0.000178718
0.000157401
0.0210666
0.000162785
0.000146952
0.000143986
0.000157485
0.0429419
0.000678803
0.000147453
0.056537
0.000157498
0.0001618
0.000153848
0.0254071
0.000206818
0.000200934
0.00015313
0.000154833
0.0409166
0.000149122
0.000230074
0.000157851
0.000172279
0.000157875
0.00014834
0.000148193
0.00019225
0.00019157
0.000198153
0.000291431
0.0414384
0.00015205
0.0633403
0.000219531
0.000146517
0.0004995
0.000188942
0.0304651
0.000157033
0.000182632
0.000255346
0.00209349
0.00018957
0.023244
0.000150679
0.000246362
0.00835942
0.000161648
0.025298
0.000163658
0.068574
0.000164725
0.000170924
0.000197501
0.000199926
0.000148638
0.000156838
0.000172873
0.000165527
0.000147757
0.000173736
0.0493369
0.000148381
0.000173874
0.0129952
0.000153705
0.000553713
0.000172328
0.0761278
0.000156273
0.00018121
0.000243807
0.000187728
0.000172994
0.0195538
0.0273765
0.000220828
0.00014814
0.000191586
0.000164569
0.000182206
0.000147577
0.0077731
0.0586325
0.0031492
0.000154665
0.000197333
0.000256337
0.0138754
0.000145401
0.0188351
0.000200358
0.0217864
0.000160006
0.00933
0.000148528
0.000148753
0.0224362
0.000246284
0.000148356
0.000154273
0.000174175
0.000146684
0.0536407
0.000179333
0.00018827
0.000156959
0.000150822
0.000149179
0.00077476
0.000148146
0.000149035
0.0192199
0.0475543
0.000154657
0.000230801
0.000148619
0.000148515
0.000154069
0.000198521
0.000172504
0.000147781
0.000151437
0.000178739
0.00015257
0.0748017
0.000148427
0.000159476
0.045182
0.000160449
0.000144555
0.000148711
0.000156896
0.000149845
0.000221399
0.0283755
0.000165194
0.00111678
0.00015424
0.000148303
0.0573909
0.000252292
0.000159641
0.000148403
0.050666
0.000159157
0.00113177
0.000148635
0.000161796
0.000190736
0.000166197
0.0563373
0.000258139
0.00129211
0.00015222
0.000195917
0.000148118
0.0411941
0.000172532
0.000199916
0.000164138
0.000152947
0.000160218
0.000177553
0.000148494
0.0143293
0.0561231
0.0742486
0.00680462
0.0258991
0.0326593
0.000230064
0.00015606
0.000149345
0.00117055
0.000148407
0.00014771
0.000157161
0.0636123
0.000153791
0.000150141
0.000172777
0.000171346
0.0001484
0.0638263
0.000147651
0.0617613
0.000258334
0.00014769
0.000153118
0.00020702
0.00129016
0.000146665
0.0203483
0.00628961
0.000146678
0.0556596
0.000234249
0.000197858
0.000152281
0.0168541
0.0304961
0.000146876
0.00025727
0.000149033
0.000147654
0.0149518
0.0695301
0.000167438
0.000172365
0.000148414
0.000177939
0.0624373
0.0600594
0.000147769
0.0239548
0.000147741
0.000149094
0.000172974
0.000159722
0.000145362
0.000152735
0.0574237
0.000200634
0.0538491
0.000153336
0.00014832
0.0519244
0.000149136
0.000191946
0.000159274
0.000164873
0.00016352
0.0423878
0.030135
0.000156467
0.0176725
0.000152905
0.000178651
0.0438248
0.0311554
0.000148845
0.000148157
0.000162435
0.0549447
0.000215084
0.000177278
0.00407969
0.000159872
0.000164022
0.0430012
0.0667006
0.000183057
0.0603027
0.000211165
0.0424181
0.000150265
0.000246195
0.000486702
0.000148416
0.0126764
0.0791023
0.000158686
0.000172537
0.000148575
0.000864542
0.000174091
0.0323961
0.000148126
0.000149035
0.000154949
0.000170975
0.000148466
0.0605659
0.000148976
0.00020923
0.00015214
0.000182857
0.000148534
0.000148446
0.00016585
0.0243215
0.000172058
0.0555646
0.00016171
0.000146755
0.000147179
0.000177441
0.000151252
0.000184994
0.000154578
0.000159349
0.000245133
0.000149143
0.0191158
0.000149666
0.000187371
0.0198342
0.0473168
0.000156109
0.0192788
0.000172122
0.000198164
0.0795821
0.000148204
0.070833
0.000157667
0.000162244
0.00902394
0.000171492
0.000146644
0.000185057
0.000149295
0.0416045
0.0253977
0.00014956
0.000166272
0.0579682
0.000149744
0.000149665
0.000182291
0.015928
0.00743889
0.000149262
0.000196314
0.000152209
0.000148463
0.000248631
0.000197747
0.000188834
0.000145177
0.000195819
0.000162944
0.000179527
0.000150355
0.000151548
0.000172344
0.000154488
0.000196562
0.00017485
0.000174244
0.000175749
0.000371832
0.00022251
0.0324983
0.0115851
0.000197726
0.0361673
0.000162759
0.0182493
0.000198839
0.000148104
0.000163463
0.000213751
0.000156555
0.00014774
0.000147686
0.000187179
0.0210078
0.000159859
0.0625133
0.0001468
0.0104619
0.000176041
0.0240571
0.000185115
0.00015649
0.000154096
0.0279209
0.000186754
0.000162024
0.000252228
0.000150363
0.000439871
0.000187548
0.000207553
0.000162301
0.000231482
0.000148473
0.000149616
0.000151474
0.000148472
0.0440408
0.000147803
0.000245773
0.0521747
0.000185932
0.061744
0.0289874
0.000206715
0.000204916
0.000156171
0.00014913
0.00014865
0.000145938
0.000147104
0.000148857
0.000179251
0.000195039
0.0001636
0.00217883
0.000151538
0.0470606
0.000149952
0.023214
0.000165632
0.000149882
0.000148793
0.0478355
0.000156938
0.00368654
0.078708
0.000171888
0.000181644
0.000146494
0.0624207
0.000153089
0.00015398
0.000235058
0.000149139
0.000150203
0.000147972
0.000173172
0.0221927
0.000159402
0.000163005
0.000215019
0.0564501
0.000156594
0.000155831
0.0432661
0.000145867
0.0428677
0.000149289
0.000152671
0.00189712
0.000186816
0.000198988
0.000180327
0.000172803
0.000149482
0.000149952
0.000179935
0.000150363
0.000149549
0.000160403
0.000203222
0.00014775
0.000192994
0.000304318
0.00145746
0.000180177
0.0451618
0.000159781
0.000149091
0.000188423
0.000146912
0.000157067
0.0276261
0.0412763
0.0699646
0.0433083
0.000149626
0.000149195
0.000167768
0.000151327
0.000147373
0.0178528
0.000208799
0.0271325
0.000187853
0.000187401
0.000148537
0.000146666
0.000755528
0.000187914
0.000153164
0.000149661
0.000199202
0.000199423
0.0642504
0.000149283
0.000148926
0.0190241
0.000150232
0.000163077
0.000146682
0.0650742
0.000148395
0.0221805
0.000148443
0.000185673
0.000167561
0.000167299
0.000162732
0.000148403
0.000153997
0.00014803
0.000250452
0.000150314
0.0266407
0.000150483
0.00676929
0.0566449
0.00016156
0.000147861
0.0143195
0.0275231
0.000156877
0.000186592
0.000148714
0.0182245
0.000148271
0.000222557
0.000148352
0.00014798
0.00220843
0.000164247
0.000148635
0.000164098
0.0628252
0.000374263
0.062018
0.000146938
0.0384397
0.000148414
0.000147795
0.000149318
0.000144075
0.000149535
0.069566
0.0324869
0.000149504
0.000148941
0.000167778
0.000147598
0.0179571
0.000189381
0.0320992
0.0636874
0.000153992
0.000197321
0.000148371
0.000169759
0.000173909
0.000148109
0.000149349
0.000152548
0.027242
0.0001808
0.0101725
0.000180377
0.000148608
0.000168162
0.00018694
0.0209015
0.000163417
3.03326e-05
0.000187886
0.000149455
0.0489935
0.0511312
0.0268434
0.000214657
0.0143344
0.000152256
0.000173336
0.000149091
7.20014e-05
0.000156276
0.000146948
0.066382
0.0001512
0.000147874
0.000148951
0.000150945
0.0619673
0.000201201
0.000147141
0.000168717
0.0289269
0.0001517
0.00977156
0.000151157
0.000185807
0.068309
0.000148543
0.000230267
0.00015871
0.000162643
0.000623463
0.000151218
0.000213331
0.000180559
0.0663384
0.000149689
0.024782
0.000161257
0.0399794
0.0216227
0.020311
0.000172914
0.000148503
0.000149859
0.000149745
0.000170074
0.000148748
0.0582413
0.00015746
0.000156052
0.000156532
0.000151916
0.000146909
0.000158657
0.000157263
0.000153028
0.000156377
0.0796637
0.000245701
0.000160776
0.000168295
0.0650513
0.000150305
0.0461882
0.000145907
0.000160336
0.000150337
0.000148083
0.000165531
0.000148281
0.000147086
0.000161811
0.000148655
0.000196264
0.000150951
0.0113003
0.00036164
0.000212033
0.000224081
0.000148963
0.0583146
0.00020224
0.000149479
0.000157085
0.000150054
0.049813
0.000151378
0.000161776
0.000225266
0.0106159
0.000175858
0.000149147
0.043723
0.000713671
0.0176829
0.000158673
0.000146704
0.000147666
0.000179699
0.000148527
0.0265388
0.000193396
0.000149269
0.000216518
0.000208658
0.000147877
0.0794957
0.0205244
0.000210399
0.000150924
0.0431012
0.000178626
0.000148022
0.022361
0.000155641
0.000147707
0.000147726
0.000164003
0.000170445
0.0502329
0.0479628
0.00017099
0.0497409
0.000165175
0.000148398
0.000167417
0.000147724
0.000372354
0.000147941
0.000148177
0.0001536
0.000150253
0.0542384
0.0205776
0.000212863
0.029306
0.0777856
0.00015647
0.000148372
0.000150856
0.000283496
0.000147822
0.000148889
0.000166606
0.0016789
0.000246366
0.000145386
0.000163272
0.000163698
0.000198135
0.00853567
0.000146668
0.000145267
0.000153202
0.000151457
0.00016027
0.0629164
0.000151832
0.000149015
0.000147746
0.000147676
0.000153792
0.000213478
0.0424099
0.0477031
0.00015633
0.000148301
0.000362474
0.000149911
0.015161
0.0368276
0.000157397
0.0270414
0.0434933
0.0402814
0.000176186
0.000163075
0.0425081
0.000161349
0.000159707
0.000168273
0.000197401
0.000150357
0.000284137
0.000148395
0.0228085
0.0033393
0.000145951
0.000152212
0.000165639
0.00022652
0.000164432
0.000148861
0.000159493
0.000151254
0.00015668
0.000228361
0.000149009
0.0310976
0.0222728
0.000148429
0.000162585
0.000169882
0.000148444
0.04071
0.011567
0.0602422
0.0313513
0.0001482
0.000153832
0.000156416
0.000149324
0.000215104
0.000164509
0.000149684
0.000180044
0.000154171
0.0154408
0.000168035
0.0245982
0.000151341
0.000151676
0.000162919
0.000187492
0.000181648
0.000148124
0.00965723
0.0433741
0.0144077
0.0369352
0.0270075
0.0490026
0.0381311
0.000148126
0.000148305
0.000148647
0.000211878
0.000171846
0.000180824
0.0144146
0.000149498
0.000145592
0.000148453
0.000203416
0.00014575
0.000157491
0.000152471
0.0124924
0.000150893
0.000146938
0.000148481
0.000148162
0.000149
0.000159588
0.000213257
0.000159717
0.0451696
0.000148273
0.000147668
0.0608433
0.0577876
0.0196684
0.00346055
0.000162911
0.00996887
0.000146671
0.000167459
0.000151564
0.000148455
0.00015446
0.0258631
0.000151648
0.000188124
0.000972816
0.000149576
0.000148037
0.000154619
0.000212619
0.000149797
0.0127532
0.000148577
0.000209023
0.000148758
0.000149438
0.000157161
0.000169558
0.000148878
0.000250468
0.040255
0.000203773
0.0599854
0.000148546
0.0245067
0.000175317
0.000148291
0.00123631
0.000149258
0.000161331
0.000149198
0.000149415
0.00014763
0.000148442
0.000149902
0.000155254
0.000181126
0.000149395
0.000148579
0.000165136
0.000146518
0.0708519
0.000148759
0.000162691
0.000165444
0.0342931
0.000711105
0.000148897
0.000215573
0.00014663
0.000162522
0.000170215
0.00239146
0.000173611
0.000149801
0.000193796
0.000166848
0.000187307
0.000173672
0.000160248
0.000193229
0.000177722
0.000181945
0.000150724
0.000147613
0.00148821
0.0121101
0.000153828
0.000148017
0.00981662
0.000146859
0.000169552
0.000147736
0.000175727
0.00192901
0.000144899
0.0163246
0.000156431
0.00014906
0.000206609
0.000147019
0.000160855
0.0329206
0.000167283
0.00236608
0.00014759
0.000149751
0.000161482
0.000149481
0.000149603
0.000159464
0.0001606
0.000180667
0.000175981
0.000148709
0.000163306
0.000147443
0.000148338
0.00014939
0.000148312
0.000183514
0.00014799
0.000151427
0.000226025
0.000146815
0.000147927
0.0544876
0.000149627
0.0134817
0.000151944
0.0499592
0.000222297
0.000163399
0.000382147
0.000175266
0.00021333
0.000149918
0.000200976
0.000156935
0.000147503
0.000147549
0.000151432
0.000161858
0.000148089
0.000168794
0.000147272
0.000151692
0.00822024
0.0244715
0.00100639
0.00015435
0.000162288
0.0358828
0.0302291
0.000149094
0.000157117
0.000215048
0.000149242
0.000166041
0.000132995
0.0473839
0.000158243
0.0001719
0.000150693
0.000209327
0.000149897
0.000160554
0.00743302
0.000149002
0.000148386
0.0682375
0.000167984
0.000218392
0.0604101
0.000188111
0.000149712
0.000147304
0.000149613
0.0314442
0.00043568
0.0348066
0.000172581
0.000148515
0.0407668
0.000148669
0.000195101
0.000154489
0.000152644
0.000169929
0.000148316
0.0793921
0.0773369
0.000146467
0.000180996
0.000172371
0.000212073
0.000168898
0.000177216
0.000212876
0.000165144
0.000246158
0.000178672
0.000148676
0.000165906
0.000166994
0.0202148
0.00014818
4.73492e-05
0.000170049
0.000179254
0.000149803
0.0780298
0.000156647
0.000151977
0.0001474
0.000164467
0.000164336
0.000165237
0.000148642
0.000150346
0.000169503
0.008272
0.000173457
0.000148971
0.000150077
0.00016584
0.00021113
0.000149087
0.000177769
0.00157257
0.000166063
0.0468469
0.000169865
0.025658
0.000213238
0.000148147
0.000413828
0.000149566
0.000154104
0.000163984
0.00016523
0.000185898
0.000173281
0.00016458
0.000165015
0.000161243
0.0001533
0.000145665
0.000168292
0.000155876
0.000156965
0.000296525
0.000155704
0.000157623
0.000147692
0.0241059
0.000175574
0.000148708
0.000154519
0.000151375
0.0290736
0.000191552
0.000163976
0.0445609
0.000224661
0.000280486
0.000186381
0.000239452
0.000147228
0.000179739
0.000147687
0.00015484
0.00439551
0.0405363
0.000254939
0.000240261
0.000148746
0.0256531
0.000147217
0.00018668
0.00015357
0.00890692
0.0706974
0.000157336
0.000148004
0.000218624
0.000161398
0.00014818
0.0372627
0.000148411
0.00015231
0.000156013
0.000149185
0.000160061
0.000151733
0.000148549
0.000162021
0.000224922
0.000168981
0.000173768
0.000148165
0.0295271
0.0410341
0.000147885
0.000247942
0.000153643
0.000156735
0.0335038
0.000147885
0.000150277
0.000156321
0.0447544
0.000148153
0.000149156
0.000167754
0.0172473
0.000147783
0.000158829
0.000160888
0.000185158
0.000169002
0.000166951
0.000215297
0.000148445
0.000171863
0.000145971
0.0284347
0.000160077
0.000148402
0.000158496
0.000182625
0.000148917
0.00014914
0.000198551
0.0403792
0.000149866
0.0297384
0.000149206
0.000145925
0.000178871
0.000148165
0.000147972
0.0753835
0.000149811
0.000168846
0.000203719
0.0524776
0.000292752
0.00014772
0.00015247
0.000155874
0.000148386
0.000148551
0.000148529
0.00165287
0.000149259
0.000255558
0.000195819
0.000147457
0.000146661
0.000160435
0.000195746
0.000235011
0.000165026
0.000174598
0.00015268
0.047802
0.000174976
0.000162427
0.000170246
0.000170214
0.000183991
0.0236854
0.000168937
0.028056
0.00706937
0.0246669
0.000154349
0.000148127
0.000164997
0.000158684
0.000147484
0.000149908
0.000174775
0.000149597
0.000149541
0.00014828
0.00014522
0.000152778
0.000148754
0.0220018
0.000147972
0.00644604
0.000148435
0.00017213
0.000150424
0.000197082
0.000171682
0.000148556
0.034347
0.000152311
0.00014948
0.000168184
0.000147345
0.000158056
0.000148333
0.0421793
0.000153144
0.000168281
0.000169845
0.0305203
0.000157581
0.000247784
0.000363665
0.000168334
0.000148912
0.000151177
0.000174296
0.000178173
0.0243181
0.000146718
0.0331087
0.000148664
0.000168085
0.0742598
0.000163365
0.00862311
0.000154483
0.00016249
0.000153046
0.0786487
0.000160812
0.000148853
0.000167201
0.000193665
0.000151877
0.000148285
0.000148866
0.0628453
0.000149659
0.000156516
0.0595782
0.000155003
0.000148125
0.000169558
0.000154134
0.0181137
0.000145596
0.000148355
0.000147041
0.00015423
0.000149793
0.000148991
0.000180431
0.05711
0.000148021
0.0001486
0.0280301
0.000149611
0.0166638
0.000153627
0.0774659
0.000147459
0.000152616
0.000146631
0.0289372
0.0584796
0.000157639
0.000167916
0.000154882
0.00014798
0.000148695
0.0419083
0.000148816
0.000186347
0.000147184
0.000171274
0.00014922
0.0429361
0.00014685
0.000171474
0.00014771
0.000227777
0.000227907
0.000147111
0.000165199
0.0785725
0.00018156
0.00835898
0.00606662
0.000194572
0.000151558
0.000164468
0.000186469
0.00233948
0.000149572
0.000168265
0.000156142
0.000148159
0.0261808
0.0385734
0.000181403
0.000201114
0.000197941
0.000161162
0.0509784
0.000147394
0.000146994
0.000183775
0.0735873
0.000201193
0.000193237
0.000716695
0.000146668
0.0780452
0.0332081
0.0715023
0.0001493
0.0303914
0.0451457
0.000238178
0.000471014
0.0442836
0.000187295
0.000159785
0.000196558
0.000154131
0.000148138
0.000156838
0.000188808
0.000145531
0.035372
0.000149216
0.000157513
0.000170379
0.000155048
0.000168872
0.000159842
0.0129426
0.00017242
0.000154207
0.00188664
0.0708444
0.000197502
0.00014964
0.00015391
0.000180467
0.000166831
0.000146748
0.000170916
0.000165896
0.000192499
0.000148086
0.000203039
0.000153051
0.000166872
0.0210098
0.000252884
0.000151054
0.000181832
0.0327665
0.000148998
0.000150602
0.0742467
0.000205354
0.000153236
0.000154202
0.000148516
0.000171657
0.000156293
0.0431712
0.000184699
0.000149964
0.000149442
0.000165712
0.00015804
0.000186385
0.0281898
0.000147413
0.000148199
0.000157524
0.000149253
0.000153465
0.000150965
0.000150932
0.000154115
0.000147739
0.000153402
0.000149174
0.000172647
0.00174827
0.000149746
0.0519805
0.0176862
0.00014598
0.000179519
0.000183933
0.000176194
0.000150438
0.000188842
0.000157646
0.000167317
0.000160334
0.000151751
0.000149339
0.0240239
0.000159736
0.00237759
0.000150394
0.000148405
0.000148091
0.000170443
0.000147947
0.00017272
0.00017914
0.000191378
0.000147449
0.000263016
0.00137447
0.0452673
0.000146655
0.000189359
0.000220772
0.00122783
0.000342953
0.000150145
0.000149362
0.000189534
0.000216338
0.000485651
0.000168256
0.000248891
0.000149514
0.000147639
0.000162972
0.00014926
0.000148995
0.000192385
0.000149762
0.000168062
0.000147435
0.0712508
0.0507899
0.014177
0.0188216
0.0423926
0.000148919
0.000148888
0.0719156
0.000146898
0.000147237
0.000145956
0.000179074
0.0644564
0.0254686
0.000155629
0.000149183
0.000151574
0.00016169
0.029034
0.000148102
0.00623762
0.0726424
0.000149211
0.000149134
0.0335256
0.000185169
0.000152456
0.000148288
0.0610673
0.0434117
0.000148578
0.000210326
0.000149665
0.0469882
0.000643896
0.000153231
0.0286907
0.016564
0.0384201
0.000147274
0.000149511
0.00014962
0.000149898
0.0585323
0.000147676
0.000186621
0.000237157
0.022578
0.000150678
0.000171255
0.000234354
0.000171611
0.0696571
0.0513634
0.000145379
0.00015613
0.000156161
0.00019415
0.0456638
0.000145075
0.0228789
0.000159634
0.000171478
0.000150477
0.000147498
0.000207376
0.000166107
0.0197448
0.00014925
0.000171334
0.0001502
0.000197967
0.000153786
0.0559339
0.000718151
0.000188713
0.000186958
0.000148006
0.000153087
0.000187827
0.000180163
0.0515147
0.0775621
0.00014891
0.00715201
0.000169227
0.0700604
0.000158245
0.000167741
0.000166365
0.000148882
0.0463827
0.000148374
0.000163359
0.0292783
0.0696416
0.000295731
0.0652232
0.000157693
0.000172352
0.000146726
0.0716352
0.000155722
0.0168007
0.000146651
0.0248988
0.000144945
0.000147976
0.000162471
0.000158179
0.000159107
0.000148114
0.0350434
0.000171928
0.000147663
0.000164289
0.0294982
0.000218725
0.000148527
0.056195
0.000153396
0.000165112
0.000163517
0.000145799
0.000175839
0.000147959
0.00259973
0.00017172
0.000158188
0.000148286
0.000207119
0.000167063
0.000146643
0.02743
0.000934251
0.000200522
0.000146315
0.000268319
0.000148857
0.000185945
0.000158543
0.00017834
0.0024187
0.0344315
0.000159023
0.0644856
0.000167353
0.000156593
0.0001469
0.0385598
0.000177542
0.000185262
0.000164468
0.000149592
0.0130709
0.000179899
0.000229424
0.000222205
0.079851
0.0350742
0.000883146
0.032415
0.000157531
0.000158394
0.000148542
0.000148802
0.00014523
0.000205263
0.000157839
0.000159121
0.0615072
0.000147707
0.00014693
0.00017068
0.000195502
0.000158895
0.000146861
0.06369
0.000153472
0.000173132
0.00014917
0.0227514
0.000156775
0.0675584
0.000165264
0.000163745
0.000169663
0.000148486
0.0114805
0.000242434
0.000178354
0.000148458
0.000147212
0.0223802
0.0438118
0.041014
0.000147791
0.000178402
0.000143526
0.000148859
0.000147952
0.000148871
0.0635345
0.000170364
0.000161969
0.000158864
0.000156871
0.0251656
0.000176602
0.000198923
0.000157632
0.000162729
0.000145192
0.000179272
0.000170106
0.000148314
0.0411223
0.0535215
0.0604256
0.0389197
0.0409383
0.0753779
0.0739531
0.000151437
0.000147852
0.0555107
0.0370751
0.0123957
0.000148605
0.000168539
0.000148503
0.000147999
0.00545807
0.0712536
0.00017935
0.000148005
0.000257052
0.000187686
0.000171209
0.0368727
0.000124426
0.000247268
0.000147252
0.0561766
0.000587551
0.000210507
0.000163398
0.000169464
0.000149058
0.000147164
0.000165627
0.000169659
0.000153514
0.000169991
0.000158733
0.000153461
0.000208225
0.0334206
0.000158548
0.000169905
0.0445686
0.000210531
0.000148658
0.000190673
0.000247385
0.0253628
0.000166927
0.000149041
0.00016038
0.000156761
0.000157713
0.000145789
0.000158667
0.000162482
0.000172672
0.00019476
0.000149494
0.00015141
0.0350341
0.0431775
0.0681117
0.000228114
0.000192463
0.000144744
0.000148434
0.000160497
0.00014665
0.0800718
0.000148492
0.000149807
0.000146235
0.0414742
0.00851144
0.000149672
0.000179913
0.000157758
0.000160866
0.000160168
0.000159426
0.000168044
0.00016415
0.0213448
0.000156652
0.0394366
0.000164919
0.0666497
0.000159007
0.000147417
0.000146816
0.000189321
0.00019906
0.000146701
0.00016184
0.000159302
0.000172708
0.0172015
0.0263099
0.0111925
0.000149805
0.000262049
0.000157563
0.00016255
0.000148276
0.000176773
0.00015267
0.0274087
0.00029081
0.000163924
0.000148447
0.0427453
0.000155443
0.0334795
0.0363146
0.000205035
0.000152828
0.000191663
0.0169202
0.000113667
0.0476581
0.000174318
0.000148366
0.000165172
0.000147833
0.0691207
0.000153033
0.000161352
0.000257135
0.0642445
0.000148042
0.000148022
0.0407206
0.000167227
0.0750617
0.00015825
0.00014827
0.000168168
0.0002139
0.000161693
0.00282918
0.000162616
0.000106947
0.000154794
0.000149602
0.000147942
0.000207053
0.000150257
0.000178864
0.000148594
0.00014862
0.000200698
0.000157087
0.000148948
0.000148179
0.000162579
0.000186845
0.00016995
0.000165968
0.000154824
0.000175638
0.000148452
0.000186613
0.000160643
0.000169618
0.000166187
0.000159503
0.000171728
0.000162391
0.000147706
0.000181467
0.0492522
0.0321383
0.000149035
0.000145116
0.0327345
0.000148002
0.000150502
0.000220719
0.0392827
0.000155751
0.0320618
0.000206985
0.000148957
0.000187316
0.000145182
0.000156078
0.000175401
0.00870417
0.000208908
0.000219685
0.000224187
0.039404
0.051029
0.000152722
0.0425207
0.000148398
0.00126249
0.0484274
0.000148559
0.000148428
0.0311113
0.000148878
0.000148487
0.000270266
0.0465486
0.000207127
0.000156973
0.0438418
0.000148586
0.0418762
0.0368723
0.000149203
0.000216871
0.000695348
0.0424654
0.0329992
0.0374087
0.030067
0.000147177
0.000151146
0.000177038
0.00017975
0.000148459
0.000208949
0.000148298
0.0378916
0.000246132
0.000163422
0.000223266
0.0383581
0.000233058
0.000217593
0.00016501
0.0195988
0.000218567
0.000155695
0.000145499
0.00180916
0.000160646
0.000146826
0.0783102
0.000148093
0.00212785
0.000149013
0.067907
0.000156113
0.000148056
0.00265958
0.000155807
0.000160103
0.0281312
0.0621946
0.000278547
0.000159
0.000172629
0.000151536
0.000169773
0.000196409
0.000169203
0.000149389
0.000168955
0.00017737
0.000160284
0.029052
0.00016794
0.000161316
0.000191725
0.000180408
0.000170912
0.00014803
0.000196858
0.000146854
0.000195914
0.000255226
0.0399422
0.000147081
0.000165896
0.0254544
0.000152139
0.00017549
0.000162784
0.000167494
0.0628544
0.000178193
0.000151375
0.00953096
0.000147117
0.0423152
0.000148751
0.000151402
0.000196943
0.0416822
0.000160376
0.000185122
0.000232073
0.000162965
0.000149394
0.000174267
0.00016896
0.0610866
0.000154864
0.000900478
0.000199164
0.000162604
0.000159901
0.000175832
0.000164143
0.000166651
0.000178549
0.000161418
0.000153598
0.000149132
0.000172104
0.000148355
0.000158903
0.000144929
0.000193076
0.000159485
0.000178201
0.0413954
0.000150755
0.000198306
0.00014449
0.00014897
0.000149209
0.000149344
0.00015762
0.000147611
0.000187564
0.0256491
0.000178065
0.000170673
0.000155553
0.000148646
0.000248043
0.000148354
0.0107471
0.0190105
0.0276035
0.000203978
0.00016199
0.00015833
0.000149131
0.000157572
0.000169026
0.000166128
0.0468032
0.000178767
0.0572606
0.000197847
0.000149349
0.00014682
0.0316927
0.000147977
0.000160443
0.000165505
0.000237419
0.000152455
0.0609394
0.000149092
0.000155256
0.000148534
0.000150197
0.000175065
0.000193102
0.000149407
0.000163913
0.000158642
0.000172625
0.000177396
0.000223425
0.000177722
0.000200766
0.000197997
0.000157426
0.00015125
0.000177794
0.0414365
0.0697152
0.0441878
0.000163118
0.0120259
0.000191135
0.000150861
0.000147928
0.000179645
0.000148886
0.000164031
0.0222354
0.000147944
0.000147418
0.000242645
0.00756955
0.000173739
0.000190732
0.000148843
0.0260266
0.000166235
0.0681719
0.000156496
0.000148432
0.0424198
0.000164206
0.00014851
0.000171141
0.000149661
0.000185927
0.000158993
0.000163523
0.0787499
0.000158893
0.0353504
0.000147597
0.0521181
0.000148894
0.000156316
0.000150049
0.000168888
0.000148873
0.000164914
0.0429122
0.000240213
0.000172055
0.000159825
0.000167159
0.000147922
0.000149039
0.000151555
7.89389e-05
0.0001557
0.0711488
0.0343989
0.000184868
0.000149397
0.000188144
0.00019663
0.000197003
0.00015714
0.0380197
0.000148093
0.000144726
0.000147984
0.000661078
0.000148857
0.000148365
0.0436821
0.00014801
0.00019374
0.00016995
0.000147559
0.0534309
0.000159843
0.0678421
0.000148235
0.000469916
0.000151012
0.000166256
0.032568
0.000180241
0.000147769
0.000158528
0.0154863
0.000163655
0.000189057
0.000161708
0.0001561
0.000184127
0.000157717
0.000149659
0.00748555
0.000159303
0.000159803
0.000195106
0.000148066
0.000147414
0.000149194
0.000162832
0.000148882
0.000154558
0.0415347
0.0131893
0.000169782
0.0102905
0.000179002
0.000165745
0.0657736
0.0489073
0.000149781
0.017304
0.0185836
0.0331292
0.000282052
0.000160726
0.0134779
0.0452585
0.0381479
0.000280129
0.0713903
0.000162032
0.000167813
0.000157327
0.000157165
0.000149856
0.000214447
0.000149901
0.0190858
0.000171773
0.00017491
0.000145086
0.000184104
0.000162685
0.000151879
0.00014995
0.000148674
0.000171775
0.000153006
0.00014967
0.000169244
0.0545819
0.000153926
0.000186682
0.000146747
0.000172478
0.000167862
0.000148973
0.000155085
0.000147624
0.0675932
0.0524395
0.000202677
0.000797876
0.000159515
0.000186139
0.000148809
0.000170141
0.000148667
0.000149667
0.000149527
0.032273
0.00014673
0.000172922
0.00023358
0.000157085
0.000162208
0.00014813
0.0656228
0.00019446
0.0381849
0.0325852
0.000193423