/*--------------------------------*- C++ -*----------------------------------*\
| =========                 |                                                 |
| \\      /  F ield         | OpenFOAM: The Open Source CFD Toolbox           |
|  \\    /   O peration     | Version:  v2012                                 |
|   \\  /    A nd           | Website:  www.openfoam.com                      |
|    \\/     M anipulation  |                                                 |
\*---------------------------------------------------------------------------*/
FoamFile
{
    version     2.0;
    format      ascii;
    class       volScalarField;
    location    "200";
    object      p;
}
// * * * * * * * * * * * * * * * * * * * * * * * * * * * * * * * * * * * * * //

dimensions      [0 2 -2 0 0 0 0];


internalField   nonuniform List<scalar> 
13851
(
-0.122237
-0.0528839
-0.0514194
-0.422604
0.00624079
-0.0625737
-0.0376017
-0.00448235
-0.0721137
0.0318942
-0.153639
0.0142064
0.0414488
-0.0929927
-0.0820391
-0.0712823
-0.366634
-0.0195479
-0.202392
-0.124871
-0.0950567
-0.0232637
-0.405151
0.00825654
-0.273203
-0.0697513
-0.0787593
-0.19279
-0.0572245
-0.00806453
-0.394547
-0.0378423
-0.114737
-0.134442
-0.115916
-0.0601599
0.00831953
-0.342408
-0.292226
0.0121152
-0.193536
-0.0577972
-0.395959
-0.197724
-0.057725
0.00070696
-0.00944815
-0.0759906
-0.0278742
0.0418951
-0.264766
0.0499791
-0.0716579
-0.0545689
-0.0665795
0.0132103
-0.117127
-0.197961
-0.0693962
-0.156462
0.0142588
-0.0801535
0.028495
-0.0284185
0.0268841
0.0393177
-0.158
0.271697
-0.00254267
-0.416342
-0.379005
-0.106011
0.0267252
-0.152625
-0.062082
-0.00350547
-0.367328
-0.0101551
-0.269673
0.0114496
-0.00371226
-0.265283
-0.111636
-0.0994443
-0.151043
-0.388318
-0.0277251
-0.0554848
0.0305969
-0.394146
0.0510432
-0.0390968
-0.281972
-0.390775
-0.275333
-0.165183
0.00689699
-0.0731812
-0.231715
-0.231325
-0.0735145
0.181913
0.178876
0.0313024
-0.00309877
-0.11208
-0.00209196
-0.380734
-0.0393844
-0.0188234
-0.0148312
-0.000350977
-0.204746
-0.147182
-0.0981419
-0.0536979
-0.00386185
-0.00489982
-0.423514
-0.416593
-0.16583
-0.0141512
0.00219414
-0.143436
-0.176713
0.308609
0.00608139
-0.126141
-0.152711
-0.094107
-0.0194834
-0.0824098
-0.335606
-0.128816
-0.158858
-0.275781
0.262091
-0.38632
0.157408
-0.0889414
-0.262236
0.0446384
0.0314443
0.186894
-0.255694
0.0102607
-0.0100482
-0.392705
-0.0588727
-0.132935
-0.0743787
-0.203215
-0.151151
-0.189656
0.0491772
0.03976
0.0127535
-0.297157
-0.0871725
-0.0421219
0.00843199
-0.0579392
-0.108843
-0.0770041
-0.0907022
-0.0632714
-0.0662256
-0.266158
-0.0149343
-0.228354
0.0147998
-0.00395832
-0.128506
0.00717992
-0.270827
-0.101567
-0.0790599
-0.00438968
-0.0601587
-0.0785451
-0.171671
-0.191363
-0.0198466
-0.0919465
-0.370971
-0.0597786
-0.111353
0.123619
0.0447476
-0.00538317
-0.252735
-0.0881313
-0.0916289
-0.0640764
0.00902534
-0.0723335
-0.108615
-0.0285126
-0.023906
0.253131
-0.26318
-0.246914
-0.204439
-0.0802009
-0.195056
-0.246461
0.084041
-0.0810863
-0.0764043
-0.057368
-0.0708094
0.00288039
-0.267013
0.014592
-0.121016
-0.00829686
0.0405709
-0.138641
-0.0280424
0.391648
-0.00452887
-0.129351
-0.100141
-0.271954
0.111047
-0.0808588
0.0143217
0.19381
0.0154437
-0.116917
-0.422926
0.117868
-0.0570897
0.0281914
-0.200278
-0.00876973
-0.393169
-0.210258
-0.219884
0.00855218
-0.326194
-0.145036
-0.0580409
-0.0710057
-0.086095
0.206459
-0.1377
-0.0596718
-0.160911
-0.0337122
-0.0558661
-0.155688
-0.00136481
-0.0621802
-0.0726444
-0.0556597
-0.0623743
-0.00506271
0.328167
0.0294567
-0.112211
-0.180508
-0.0640841
-0.108366
-0.160766
0.019744
0.185129
-0.078495
-0.174581
0.0233395
0.0407446
0.116484
-0.0835678
-0.4215
-0.098398
-0.0149916
-0.170033
-0.185171
-0.101711
-0.107024
-0.0862671
-0.211056
-0.0672127
-0.0770447
-0.36326
-0.00516353
0.0120095
-0.103759
-0.13795
-0.00986627
0.0139378
0.0159255
0.00413412
-0.0819468
0.0122702
-0.0738424
-0.0970127
0.00616859
-0.0610348
-0.139771
0.0478382
-0.12817
-0.249099
0.0457092
0.0494387
-0.0995447
-0.110235
-0.350434
-0.129855
0.00599409
-0.225338
0.0147514
-0.135944
-0.250776
-0.167207
-0.0409011
-0.352525
-0.32128
-0.372788
-0.205473
0.209085
-0.276646
-0.147582
-0.194499
-0.0252113
-0.389773
-0.0537156
0.310828
0.282273
0.0851637
-0.132673
0.0647927
-0.0560006
0.200258
0.000514362
-0.00950729
-0.0548753
-0.376758
0.352571
-0.00545916
-0.268119
0.0745704
-0.0836795
-0.042197
-0.107006
-0.166422
-0.0718524
-0.0059111
-0.0548165
-0.0642084
0.0446049
-0.189347
-0.0659241
-0.101294
0.078852
0.0302281
0.00537178
-0.221383
-0.239043
-0.151835
-0.33138
-0.0633733
0.00858517
-0.207923
-0.118757
-0.0145074
-0.165655
-0.12023
-0.233894
-0.0523152
-0.0666331
-0.0702769
-0.313593
-0.219314
-0.0550182
-0.0278039
-0.103185
-0.396807
-0.0817828
-0.0568012
-0.0885204
-0.217525
-0.076016
-0.0573809
-0.163941
-0.259423
0.0394681
-0.0644573
-0.141768
-0.0616773
0.00333814
-0.0983396
-0.132034
0.0257087
-0.0825646
-0.424297
-0.0477123
-0.325367
-0.0678288
-0.347548
-0.0595748
-0.0690905
-0.156746
-0.18063
-0.112941
-0.0619583
-0.146229
-0.309243
0.0207421
-0.216465
-0.0906209
-0.0670974
-0.0126339
-0.385923
-0.160261
-0.295839
-0.054505
-0.164401
-0.0860402
-0.421293
-0.0125177
-0.389312
-0.268727
-0.41285
-0.0403631
-0.225924
0.0346981
0.00698515
-0.0647097
-0.0895895
0.0327652
-0.0527388
-0.0845966
-0.00193525
-0.160617
-0.133033
-0.120474
-0.0557163
-0.0284542
0.052001
-0.311757
0.00723991
0.0507517
-0.0599509
-0.137204
-0.0160173
-0.0723069
0.0284882
0.011594
-0.0503407
-0.154411
-0.0642839
0.00347662
-0.0376241
-0.160273
-0.0449298
-0.360262
0.013283
-0.0550362
-0.0555384
0.0670051
-0.00905534
0.0162402
-0.0553341
-0.0309145
-0.303361
-0.0595739
-0.0871191
-0.11562
-0.052352
0.0176663
-0.122438
-0.0711923
0.126539
0.0242652
-0.14474
0.146956
-0.32131
0.0319616
-0.0837732
-0.223417
-0.0683851
-0.148443
-0.0838996
-0.291798
0.0418982
-0.206974
0.0184032
-0.0579535
-0.0683423
-0.106099
-0.0888455
-0.0061713
0.0617289
-0.129077
0.00649058
-0.415115
-0.12556
-0.363837
-0.426248
-0.0595171
-0.323158
-0.184869
0.100862
0.0213728
-0.348755
0.0321245
0.00367076
0.104964
-0.265189
-0.0499555
0.0501546
-0.0985959
-0.121475
0.0348416
-0.280884
0.00836313
-0.142484
-0.29497
0.0109351
-0.0443639
-0.266617
-0.172269
-0.00930499
-0.344818
-0.373832
-0.0174324
-0.335776
-0.197828
-0.133705
0.0437389
-0.0604272
-0.189804
-0.0179677
-0.225124
-0.000331196
0.00787951
-0.0661784
-0.21791
-0.102196
-0.0631748
0.0332523
-0.0731359
-0.14957
-0.287108
-0.020423
-0.351818
0.00386012
-0.00160977
-0.11415
-0.0507364
-0.0126862
8.22104e-05
-0.33096
-0.251258
-0.333593
-0.0482436
0.0290332
-0.0789901
0.0212704
-0.215782
-0.0588204
-0.0639782
-0.0872695
-0.0573087
-0.213526
-0.0636112
-0.396959
-0.040079
-0.140765
-0.0578237
-0.0679041
0.00691679
0.0193143
0.170817
-0.32626
-0.0696953
-0.0720199
-0.35988
-0.0507526
-0.0741074
-0.419764
-0.2858
-0.127694
-0.13874
-0.0930671
-0.0615468
-0.0242294
-0.0685766
-0.222191
0.0183979
-0.282985
-0.259557
-0.0195139
-0.0911086
0.0167461
-0.0332069
-0.147451
-0.404366
0.00818497
0.00752139
0.105158
-0.120277
0.0129295
-0.26805
0.00739591
-0.0948224
0.0485932
-0.0680506
0.0301173
0.0355975
-0.0902915
-0.349088
-0.114746
-0.275394
-0.0848499
-0.00179033
-0.0167311
-0.131314
-0.0364888
-0.176502
-0.0541942
0.128627
-0.0683822
0.0220755
-0.0649107
0.01428
-0.0694669
-0.398665
-0.0606598
0.132314
-0.394651
-0.0833729
-0.251053
-0.258729
-0.0223517
-0.28481
0.0695699
-0.0844229
-0.425876
-0.248379
-0.0148513
-0.174525
-0.0279059
-0.0615487
-0.28014
-0.00630291
0.265354
-0.179529
0.0183909
0.0182889
-0.0693324
-0.0642266
-0.0618303
0.0502959
-0.167602
-0.0430721
0.0366326
-0.067639
-0.16784
-0.228254
-0.0116296
-0.0796972
0.0842961
-0.0671964
0.0646667
0.0104865
-0.139772
0.101221
-0.0773483
-0.103193
-0.106592
-0.111937
-0.279877
-0.20285
-0.0815554
-0.336729
-0.074953
-0.0963937
-0.0224688
-0.0651859
-0.132405
-0.016183
-0.0726811
-0.199113
-0.0400618
0.0111264
0.0100535
-0.0703778
-0.0546056
-0.0566349
-0.213591
-0.00153614
-0.0610013
-0.0554101
-0.252524
-0.175858
-0.0624136
-0.0519055
-0.253888
-0.228799
-0.020885
-0.0874122
-0.0280394
-0.34467
-0.07006
-0.0971549
-0.0886584
-0.286911
0.0338649
0.0146456
0.0797617
0.0372097
-0.0573215
0.00446628
-0.0682433
-0.0796321
-0.180611
-0.282395
-0.230493
-0.0989416
-0.260414
0.130127
0.0260205
0.0395591
-0.00935138
-0.0158788
0.00725331
-0.138161
-0.196872
0.0854523
-0.188079
-0.00574474
-0.0752947
0.0233284
-0.422045
-0.104969
0.0234689
0.0274538
-0.0613931
-0.0640112
-0.0677978
-0.258818
-0.0876756
-0.113594
-0.017044
-0.138287
0.0318593
-0.0511119
-0.0676596
0.0258425
0.045989
-0.0202297
-0.0705001
-0.0548917
-0.0752144
-0.0893346
-0.273799
-0.288374
0.12719
0.0280136
-0.0595043
-0.0091531
-0.0596032
0.00867437
-0.045617
-0.265266
-0.0870043
-0.100318
-0.183069
-0.115606
0.0245985
0.0227295
-0.144279
-0.0258933
0.0244823
-0.054756
-0.271921
0.00510885
-0.239296
-0.321845
-0.0662535
-0.18054
-0.406053
0.165766
0.026067
-0.219431
-0.000733274
-0.0647996
-0.0804511
-0.0653599
-0.281177
-0.0592349
-0.0104172
-0.00648651
-0.00110921
0.014259
-0.00789655
-0.404786
-0.110432
-0.0585953
-0.0693263
-0.0883743
0.0384161
-0.00780504
-0.347385
-0.123115
-0.0472559
0.0248401
-0.0958174
-0.217131
-0.215157
0.0492645
0.0101126
-0.0544473
0.0636547
-0.0881045
-0.00173338
-0.263038
-0.00109235
-0.395268
0.0283686
-0.211191
-0.0928031
0.0205383
-0.0906163
0.0276126
-0.0525946
0.00613835
-0.0677554
0.0598321
-0.0622338
-0.0301836
-0.1176
-0.111035
-0.0844199
0.00482172
-0.425195
-0.0591925
-0.0658084
-0.085364
0.0397305
-0.0583046
-0.0168809
-0.201322
0.0198978
0.00576983
-0.0685783
-0.0880206
0.0161873
-0.0560938
-0.181178
-0.0746702
-0.182019
-0.00431294
-0.0946135
0.0236382
0.00520147
0.0476726
-0.00959519
0.0197877
-0.206684
-0.0918078
-0.0284527
0.0074138
-0.103149
-0.000933028
-0.424518
-0.223416
-0.0944012
-0.27894
-0.0521435
-0.0782536
0.0184085
-0.0952254
-0.0439944
-0.0217278
0.00884384
-0.322148
-0.278884
-0.110794
-0.368593
-0.0933782
0.0280844
-0.109726
-0.0845832
-0.33173
-0.0802312
-0.0705448
-0.126547
0.0136374
-0.408455
-0.408413
-0.0554526
-0.252012
-0.0670945
0.0391028
0.188494
0.0507439
-0.130433
-0.0391414
0.00062405
-0.187707
-0.00147849
0.00487318
0.00505354
-0.000164084
-0.264067
-0.193576
0.00112589
-0.111925
-0.104072
-0.01951
-0.37214
0.0621256
-0.0937145
-0.229354
0.0130867
-0.0689454
-0.0512792
-0.0875267
-0.0741522
-0.00395086
-0.2535
-0.0677222
-0.182477
-0.0290926
-0.0579387
-0.0805085
-0.136945
-0.301295
-0.0574198
-0.0856284
0.0310341
-0.00945912
0.0190625
-0.0565646
0.0269984
-0.152298
-0.0159147
0.0884058
0.124137
0.0371323
-0.0040453
-0.0441176
-0.0467412
-0.0443749
-0.029267
-0.253196
-0.0679332
-0.0771745
-0.107307
-0.193403
0.0491924
-0.369864
-0.00872032
-0.0192344
0.0616667
-0.00688381
-0.0729536
0.0181773
0.0006552
0.201243
0.0406588
-0.267245
-0.0346554
-0.286504
-0.180677
-0.154324
-0.221647
-0.0253845
-0.284582
-0.142497
0.0142905
-0.0439296
0.0486015
-0.368112
0.0662516
0.176442
-0.160383
-0.424218
-0.159489
-0.0202104
-0.0573399
-0.156371
-0.0663425
-0.0466049
-0.00230859
-0.0201552
-0.127122
0.0329338
-0.187274
-0.2194
0.0214636
-0.122106
-0.270535
-0.0195382
-0.251738
-0.393284
-0.108326
-0.0311172
-0.0575139
-0.134764
0.00926837
-0.0577612
0.0250013
-0.0176086
0.0111457
-0.0609089
-0.0586849
-0.0769942
-0.39575
-0.0694785
-0.0691476
-0.068026
0.0303308
0.28576
0.0105697
-0.336903
-0.0208788
0.0067231
0.00814732
-0.0262964
-0.0941056
-0.0585546
-0.0775369
-0.21785
-0.304654
0.104308
0.0241052
-0.0335874
-0.260846
-0.0206719
-0.00750344
-0.108459
-0.267566
-0.0700983
-0.00905258
-0.0813225
-0.0911651
-0.1436
-0.39418
-0.0173612
-0.012489
-0.0410456
-0.300737
-0.0530273
-0.156607
0.013156
0.0102594
-0.018201
0.00966942
-0.0106157
-0.103627
-0.0623671
-0.0647564
0.133576
0.0188143
-0.337137
-0.0312463
-0.229852
-0.191262
0.110531
-0.353183
-0.0575946
-0.404928
-0.0697081
-0.0784802
-0.0957875
-0.0796499
0.0370625
-0.016936
-0.250891
-0.0221305
-0.132494
0.0312751
-0.0722952
-0.301443
-0.00830823
0.0465491
-0.0798692
-0.270047
-0.0836422
0.00892534
-0.0606708
0.0735335
-0.053157
-0.0491621
0.0245843
-0.0585282
-0.0546873
0.0316368
-0.0764211
-0.0592907
0.0179222
-0.063632
-0.054197
-0.280611
-0.0621249
0.0159175
-0.02053
-0.0505487
0.04603
-0.0744789
-0.0834721
0.0246073
-0.0819719
0.0973937
-0.114085
-0.0927842
-0.105442
0.0729768
-0.0165181
0.189539
-0.133436
-0.133049
0.02126
-0.0543822
-0.157658
-0.396982
-0.324209
-0.0732232
-0.0679385
-0.132302
0.0223473
0.0282524
-0.0242254
-0.0701995
-0.0649697
-0.136158
-0.408143
-0.0282937
-0.00749211
0.0332422
-0.070213
-0.0104566
-0.0620366
0.00622122
-0.0597502
0.0469983
-0.000166208
0.0226751
0.0116362
0.00758833
0.0801673
-0.0757854
0.0313103
-0.164496
0.0268649
0.00926141
-0.145771
-0.112277
-0.0546261
-0.0622593
0.140355
-0.0613597
-0.00250769
-0.0696146
-0.0142852
0.0278668
-0.0438054
-0.392082
-0.0404583
-0.132665
-0.350395
-0.0295292
-0.0065819
0.097252
-0.10153
0.0132937
-0.0598926
-0.0238001
-0.070906
0.027557
-0.0277633
-0.0661443
0.0877084
0.0422026
-0.0789079
-0.385218
-0.0703615
-0.123306
0.0350423
-0.334118
-0.129488
0.0248022
-0.30826
0.046084
0.194712
0.0461906
-0.0251656
0.00533227
0.0362006
-0.00333049
0.115045
-0.104407
-0.0213012
0.0289354
0.240817
-0.015446
-0.32612
0.0277447
-0.0857744
-0.0635516
-0.164956
-0.18968
0.0239575
-0.106324
-0.00192996
-0.0523637
-0.12798
-0.0628613
-0.0870023
0.0126841
-0.0777755
0.186887
-0.0945072
-0.18428
0.0480226
-0.192804
-0.0739974
-0.0966831
0.0447595
-0.0133684
-0.0679886
-0.425269
-0.0377641
0.00968226
-0.383939
-0.00149427
-0.100002
0.0103347
-0.15694
-0.328229
-0.0122241
-0.414114
-0.0625966
0.0100649
-0.0773566
0.000818099
0.194368
-0.0627586
-0.103309
-0.0662446
0.00503742
0.0135819
0.204659
0.0216004
0.0249823
-0.0582703
-0.0778017
-0.107527
-0.167909
0.030868
-0.0808807
-0.0119704
0.017775
0.0216976
0.0248397
-0.325836
-0.0209897
0.0646797
-0.0733885
-0.00179206
0.00854966
-0.0915911
0.0247776
-0.280388
-0.0419039
-0.0747156
-0.156095
0.145614
-0.346996
-0.152099
-0.0927241
-0.0292714
-0.218315
-0.0529294
-0.0133896
0.00180717
0.0663271
-0.0804227
0.011349
-0.120234
0.00290075
-0.0185091
-0.386967
-0.268053
-0.240799
-0.0432877
0.198227
-0.219084
-0.420131
0.0217826
-0.0604831
-0.187198
-0.0268701
-0.104292
-0.338712
-0.0607651
-0.0581641
-0.0794159
0.00348135
-0.273979
0.0229639
0.0408751
-0.217076
0.0323746
-0.00518194
-0.32813
-0.115256
-0.0781281
-0.127102
-0.0715272
0.045023
0.0035029
-0.0283755
-0.354329
-0.217763
-0.167662
-0.138477
0.0373826
-0.247438
0.0276607
-0.211675
0.114537
-0.0387447
-0.100158
0.0199207
-0.25201
-0.298721
-0.0164399
-0.119795
-0.0664255
-0.339946
-0.117025
-0.070118
-0.0760464
-0.065499
-0.068187
-0.0750948
0.0273433
-0.0690395
0.281815
-0.0593995
0.016355
-0.0700956
-0.120876
-0.0678687
0.0139837
-0.317826
-0.0602328
0.0320177
-0.00670347
-0.0929953
-0.0891096
0.0380396
0.00662895
0.00686035
-0.125025
-0.284786
-0.145674
0.0249482
0.0618378
-0.0665953
-0.19975
0.0210423
-0.174295
-0.352417
-0.0873358
-0.0604531
-0.0571976
-0.235609
-0.252543
0.022221
-0.30844
0.00806182
-0.0181557
-0.0690908
-0.0859687
-0.169659
-0.0728629
-0.0602921
-0.0852851
-0.0820698
0.00830791
-0.0103583
0.0878134
-0.0571633
0.0643375
-0.184643
-0.0358479
-0.00649481
0.010225
-0.0554567
-0.167282
0.0316439
-0.0537272
0.0785664
-0.115304
-0.213785
-0.06832
-0.0575053
-0.172181
-0.312054
-0.148499
-0.0685948
0.0034153
0.344374
-0.00774464
0.114056
-0.356321
-0.0681444
-0.236725
-0.330262
0.0266651
-0.112618
0.00300519
-0.0821835
0.0180772
-0.0625824
-0.204658
-0.0424208
0.00529001
-0.235398
0.19019
0.0196487
-0.357857
0.0314294
0.0347319
-0.0573693
0.0477839
-0.0788564
0.0804307
0.0378301
-0.0579442
-0.280889
-0.0905662
-0.143564
0.0203063
-0.238003
-0.067795
0.00514394
-0.0794017
0.0219397
0.101934
-0.141733
0.00536352
0.0372369
0.0677977
-0.246498
0.0191548
0.0101954
-0.10496
-0.0678916
0.00476127
0.0333983
-0.0247074
-0.177941
-0.119149
-0.105585
-0.11512
0.0308417
0.208293
-0.00676227
-0.163536
-0.0707815
0.032524
-0.0499621
-0.180282
0.00962066
-0.026462
-0.146911
-0.0616939
-0.030568
-0.140546
0.01366
-0.00750998
-0.129729
0.0153262
-0.0210587
-0.259237
0.0195138
-0.0970036
-0.0769242
-0.362631
-0.173978
-0.0203215
0.0906094
0.0958438
0.0109588
0.0325029
0.0225315
-0.0652856
0.0177355
-0.0691722
-0.0910837
-0.00543607
-0.0157346
-0.0791109
-0.0929305
-0.0770815
0.0119831
-0.148017
0.00208089
-0.0711232
-0.149763
-0.0506236
-0.0789442
-0.11635
-0.165906
-0.4235
-0.058431
-0.0619414
-0.123593
-0.422187
-0.0528174
0.00124306
-0.0997464
0.162034
-0.0172773
-0.031012
-0.0949678
0.0138807
-0.0126757
0.0191796
-0.0119669
-0.0424893
-0.0227605
-0.374952
0.00523216
-0.314811
0.0114088
-0.103507
-0.0237236
-0.0999732
-0.112153
0.0316526
-0.0884016
0.0886119
0.0194411
-0.0843984
-0.0120528
0.0422787
-0.0202347
-0.0622672
-0.0127604
-0.105823
0.297727
-0.0864995
-0.0028996
-0.0693482
-0.186605
-0.105077
-0.0246568
-0.0374049
-0.079989
-0.137599
-0.299815
-0.0103656
-0.417927
0.00799682
0.161338
-0.359556
-0.0852119
-0.0645389
-0.018626
-0.085536
0.0100271
-0.296196
-0.0731751
0.0074545
-0.098285
-0.175727
-0.025381
0.0272177
0.00932941
-0.290644
0.0191035
0.00082581
-0.121605
0.0262691
0.0213357
-0.119424
-0.0208368
-0.0975218
-0.00772485
0.0297251
0.000754932
0.107319
-0.0281359
-0.0240658
-0.0909239
-0.116461
0.0177215
0.0288456
-0.163947
-0.0280521
-0.416047
-0.0339262
-0.322708
-0.00644948
0.0299215
-0.00214027
-0.0565152
-0.116654
-0.00135605
0.00637848
0.117051
0.00589275
0.0279744
-0.0616549
0.00747017
-0.0798767
-0.00806628
-0.0594331
0.0219294
-0.168031
-0.00103344
-0.0745203
-0.00296837
-0.236684
-0.298073
-0.0114108
-0.067577
-0.274793
-0.0946038
-0.0606667
-0.0642329
-0.247813
0.0763439
-0.0901523
-0.151536
-0.179469
-0.0258421
-0.0590778
0.093805
0.00101096
-0.0596331
-0.417482
-0.106684
-0.144023
-0.242054
-0.0592606
-0.0740878
-0.0172956
-0.0108312
-0.182476
-0.302705
-0.199634
-0.210197
-0.150524
-0.00254254
-0.311196
-0.0588106
-0.367067
0.010121
-0.3085
-0.40325
-0.303499
-0.127025
-0.0986075
-0.0833049
-0.0781674
-0.20195
0.102937
0.0100269
-0.305909
-0.115236
-0.0105726
-0.158647
0.0180898
0.00641379
-0.0927706
0.085204
-0.240876
0.0733756
-0.423411
-0.0696108
0.10954
-0.124867
-0.243062
-0.14792
0.0586454
0.0974976
-0.142484
-0.0580816
-0.00105993
-0.120723
0.0361752
-0.203024
0.0153671
-0.195218
0.00647498
-0.0973371
-0.0584836
-0.0681636
0.0756562
-0.194949
-0.357155
0.0332171
0.00565871
-0.36983
-0.264918
-0.0361643
-0.0520041
0.0179402
-0.136658
-0.0518513
-0.0588127
-0.17239
0.0462352
0.00922166
0.228671
-0.0242534
-0.139431
-0.269365
-0.000597934
0.0194566
-0.0515158
0.0133761
-0.0461594
0.00231823
-0.0305021
0.0937371
0.0106362
0.0126969
0.0478624
-0.0753206
-0.181942
0.0129502
-0.164428
-0.35208
-0.0070498
0.0681616
-0.202213
-0.168653
0.0389567
-0.111447
-0.0667338
0.156426
-0.0756663
-0.0243503
0.0091476
-0.307698
-0.0457004
-0.0645593
0.0423664
0.0338164
0.0156151
-0.124906
0.0161987
-0.107173
-0.0812447
-0.174886
0.00592424
-0.138405
-0.321772
-0.161789
-0.00288349
-0.209598
0.124326
-0.317533
-0.261649
0.0636424
0.00179089
-0.225307
-0.144442
-0.0677872
-0.0951895
-0.0774443
0.007998
-0.0157192
-0.0481843
0.0169019
0.0481792
-0.217877
0.0151272
0.183272
-0.00759318
-0.220354
-0.14545
-0.11742
-0.0587685
-0.164174
0.0449319
0.0218585
-0.255882
-0.010912
-0.011449
-0.00776503
-0.185327
-0.147389
-0.303278
0.0857359
-0.0265636
-0.016868
-0.0256657
-0.0958491
0.00645664
-0.0633356
-0.221129
0.0211389
0.025613
-0.0670846
-0.0796785
-0.0374526
0.0258745
-0.18667
-0.22286
-0.0217403
-0.114579
0.0150766
-0.148864
-0.25319
-0.0333737
-0.424673
-0.407087
-0.175415
-0.00734157
-0.026106
0.0197028
0.024574
-0.115826
0.00464112
-0.229589
-0.068588
-0.286798
-0.0304423
-0.137897
-0.165438
-0.122286
-0.250939
-0.347879
-0.00795036
-0.0585818
-0.0598124
-0.0703843
-0.0594225
-0.0114651
-0.0547461
-0.01918
-0.0800849
0.0408509
0.00370155
-0.246847
-0.10348
-0.423778
0.016191
-0.134692
-0.0289629
-0.105446
-0.0506022
-0.112875
-0.124019
-0.241023
-0.0712526
0.0148229
0.00625052
-0.11037
-0.000456119
-0.0761296
-0.263658
0.00919285
-0.0621444
0.128168
-0.274688
-0.043315
-0.112695
-0.105461
-0.0193519
-0.175728
0.0194193
-0.0832507
-0.0643041
-0.212239
-0.323898
-0.157521
-0.00745705
-0.104961
-0.0137044
-0.228994
-0.000188912
-0.251935
-0.0141781
-0.0965972
-0.0123505
0.014391
-0.0827762
0.0892806
0.0306104
0.0091999
-0.0599031
-0.0703952
0.00520188
-0.0889531
-0.0558908
-0.252307
0.0343596
-0.348692
-0.0177527
-0.0689211
-0.061325
-0.00640434
-0.145788
0.0147995
-0.343854
-0.0996327
-0.0484952
0.0279232
-0.271938
-0.101827
-0.0147099
-0.137878
-0.223437
-0.161441
-0.0158473
-0.170884
0.0243712
-0.216862
-0.0599878
-0.173004
-0.244389
-0.0643376
0.157225
-0.150928
-0.109528
0.0145096
-0.00307777
-0.129793
-0.156231
-0.175342
0.23728
0.0095054
-0.0642184
-0.175837
-0.268765
-0.0722312
-0.264776
-0.059279
-0.336711
-0.320741
0.0118705
0.0893619
0.0234348
-0.0194634
-0.0114419
-0.111785
-0.0116275
0.0676718
-0.315775
0.0108094
0.000257186
-0.0677973
-0.171884
-0.069728
-0.00405863
-0.251043
-0.0451645
-0.0699147
0.0190399
-0.385305
0.0685885
-0.2018
0.0196238
-0.0897174
-0.121763
0.0236823
-0.424241
-0.160885
-0.152662
0.0145288
0.00166574
-0.0673425
-0.386707
-0.0605333
-0.01756
-0.155086
-0.152013
-0.022979
0.00895571
-0.00253
-0.144127
0.10033
-0.0615655
-0.0454671
-0.0566995
-0.0759429
-0.171232
-0.164826
-0.0477141
-0.0845618
-0.0121099
-0.182934
-0.131863
0.0288721
-0.0643091
-0.341958
-0.183527
-0.0623232
-0.405338
-0.341198
-0.253052
0.0756874
-0.0205312
-0.209154
-0.256616
-0.252341
0.015841
-0.0967352
0.0381721
0.0167589
-0.0668511
-0.214194
-0.106967
0.0158194
-0.0973777
-0.129321
-0.115821
-0.109491
-0.276157
-0.0815427
0.00192978
-0.119419
-0.0661922
-0.273613
-0.0631985
-0.104068
0.0490676
0.00185902
-0.103206
-0.115173
-0.0152354
-0.0771674
-0.0682123
0.0142536
-0.069672
-0.0696149
0.0404155
-0.0750965
-0.167107
-0.0708134
0.0283353
0.292111
-0.13428
-0.0559961
-0.107494
-0.0204282
-0.0763756
-0.0480868
0.038869
-0.00664432
0.14115
-0.0699124
-0.0798597
-0.242602
0.00943756
-0.0211416
-0.061099
-0.0588676
-0.251212
-0.167873
-0.0763591
-0.011713
0.0358398
-0.0801632
-0.0131147
-0.277559
0.0341075
0.0179745
-0.00859245
-0.0645209
-0.383555
0.0458161
-0.0945727
-0.0463408
0.00188227
-0.0784257
0.144741
-0.0905334
-0.0965928
-0.419896
-0.0618066
-0.230322
-0.0974161
-0.259725
-0.0723185
0.00290398
-0.00320881
-0.11814
-0.151102
-0.0014079
-0.00550318
-0.0748124
-0.141399
-0.0598046
-0.422703
-0.0902431
0.0170505
-0.229166
0.00404143
-0.0760868
0.0271933
-0.152546
0.0043875
-0.0635913
-0.143315
-0.0857045
0.026249
-0.0596206
0.107083
-0.0825266
-0.239216
-0.0695218
-0.00239367
-0.172043
-0.0803217
-0.219437
-0.0996089
-0.141356
-0.011457
-0.0973402
-0.0191009
-0.348768
0.00884277
-0.0776983
-0.0947092
-0.273567
-0.0105308
0.0103745
-0.355202
-0.108774
-0.352363
0.154338
0.025214
-0.111441
-0.125034
0.154427
-0.061658
-0.0772754
-0.208402
-0.0474486
0.0186072
0.00686701
-0.258441
0.0576438
-0.17676
0.0388686
-0.00760996
-0.255063
-0.0567756
-0.0179084
0.0149163
-0.0807181
-0.196791
-0.0743757
-0.103617
0.0806891
-0.140609
0.0208749
-0.218631
-0.0815014
-0.106456
0.191771
-0.0462146
-0.117973
0.122637
-0.0184203
-0.101135
-0.410775
-0.0644407
-0.024954
-0.333169
-0.0752625
0.0153593
0.0637833
-0.131617
-0.126769
0.11922
-0.0646902
-0.242697
-0.0257105
-0.091313
-0.0111082
-0.0621377
-0.137908
-0.359896
-0.103341
-0.0700486
-0.151113
-0.0642432
-0.150032
-0.0384086
-0.0869368
0.0315119
-0.0671485
-0.174209
0.0220266
0.00664049
-0.0609321
0.0460334
0.0259433
-0.119032
-0.0654104
-0.176047
-0.0548241
-0.172858
0.00664936
-0.0588664
-0.0765779
0.0100129
-0.0936058
-0.326307
-0.257132
-0.0563101
-0.0704633
-0.0580991
0.00234188
0.0725072
-0.133685
-0.106218
0.0270947
-0.0701575
0.028277
-0.0652427
-0.102863
0.111284
-0.0828043
-0.0617777
-0.0984957
-0.0732062
0.227731
-0.372468
-0.283004
-0.054351
-0.0102111
-0.0642922
-0.000537935
-0.0103829
-0.315377
0.0191981
-0.062936
0.0479055
-0.180122
-0.0522539
0.020064
-0.349441
0.111787
0.0722023
-0.0604739
-0.249933
-0.315414
-0.0567675
-0.0613703
0.0463622
-0.0669835
-0.136643
-0.0740825
0.0248424
-0.207373
-0.122336
-0.0460431
-0.0556712
-0.101311
-0.00319483
-0.237653
-0.143795
-0.0752574
0.0192155
-0.223965
-0.00351319
-0.12701
-0.0674751
-0.180875
0.00133671
-0.103647
-0.41835
-0.0424624
-0.147878
-0.0581117
-0.109408
-0.210261
-0.116129
0.0751621
-0.380016
0.00178354
-0.0606026
0.0158215
-0.0380375
-0.114241
-0.0608628
-0.0547281
0.28433
-0.216209
-0.0658726
-0.0227122
0.0337493
-0.115127
-0.303175
0.107821
-0.351585
-0.14197
-0.062146
-0.0774109
-0.147125
-0.0935365
0.166628
-0.112908
-0.00109583
-0.0415807
-0.0265051
-0.332622
0.0262613
-0.0720339
-0.00888576
-0.0936978
-0.0756369
-0.10566
-0.111089
0.0739416
-0.189999
-0.00996392
0.0464119
0.0165075
0.0249548
-0.0503654
0.00848994
-0.0901779
-0.215588
-0.0996726
-0.10252
-0.0510418
-0.00814059
-0.0687097
0.0200965
-0.0819875
-0.137937
-0.395853
-0.0792327
-0.0737449
-0.0558401
0.0204075
0.0591097
0.149742
-0.10884
-0.221341
-0.093047
-0.363487
-0.0754803
0.0104124
-0.000570285
-0.0633125
0.00999318
-0.0747767
0.212901
-0.238383
-0.0413314
-0.136402
0.0258385
-0.0349599
0.0385378
0.0419758
0.0460205
-0.0825354
-0.0117437
-0.0628576
0.167693
-0.0964363
-0.0842695
-0.203577
-0.178012
-0.258233
-0.0725644
-0.0415821
-0.0217459
-0.0789674
-0.0629799
-0.24499
-0.0579006
-0.0710684
-0.218765
-0.0764291
-0.0357494
0.0137053
-0.0690903
0.0196518
-0.0588598
-0.402173
0.0165709
-0.0141047
-0.28284
-0.0685317
-0.0720373
-0.321236
0.0445331
-0.0690128
-0.10852
-0.2562
0.131389
0.0163122
-0.0579547
0.244828
0.0324163
-0.100463
0.0214841
-0.212618
-0.0694088
0.238689
-0.301884
0.1107
-0.153107
0.00874777
-0.383358
0.0413091
-0.0586406
-0.00521692
-0.118672
0.00978134
0.0314609
-0.0599637
-0.264694
-0.117196
-0.0442004
0.142638
-0.00686326
-0.00286798
-0.039932
-0.0916583
-0.0557534
-0.198827
-0.111651
-0.20803
0.0209553
-0.217637
-0.246143
-0.172064
-0.0421614
-0.221716
0.016929
-0.0114124
0.0148527
-0.305841
-0.0181272
0.0274262
-0.0581202
0.0186151
-0.208109
0.0586742
-0.0197041
-0.0864617
-0.0476053
-0.185916
-0.0103563
-0.147125
-0.0176909
0.207813
-0.426398
-0.117805
0.0125557
-0.0526267
-0.0919283
-0.0592626
-0.218279
-0.0812464
-0.0458771
-0.203715
-0.00187198
-0.0280821
-0.357915
-0.072443
-0.0516748
-0.0705671
0.0182915
-0.0026568
0.00917619
-0.0518517
0.0386989
0.0228083
-0.156872
-0.425927
0.115467
-0.423533
-0.0697657
-0.0527003
-0.274492
-0.377543
0.0525979
-0.354
-0.316308
-0.060421
-0.316461
-0.0805257
-0.0954183
-0.0581784
-0.411994
-0.312727
-0.237429
0.073956
0.0793228
0.0541774
-0.0494814
0.00320771
-0.296355
0.0195189
-0.423596
0.0329058
-0.173328
-0.0087257
-0.0999543
0.0740252
0.0838757
0.0246526
0.00680637
0.066103
-0.0435459
-0.0298499
-0.063258
-0.31401
-0.0516094
-0.22318
-0.00119615
0.0811343
0.108009
0.0394957
0.00272807
0.0083644
-0.173748
-0.0838077
-0.152479
-0.361085
-0.0284945
-0.135005
0.0269594
-0.0702477
0.00351772
-0.0121098
0.0218947
-0.0821099
-0.00799193
-0.0625078
-0.269436
-0.0119229
-0.076155
0.0213869
-0.303499
-0.219561
-0.41862
-0.0894106
-0.213823
-0.210331
-0.0580239
-0.228762
-0.0675215
-0.387219
0.0445709
0.164672
-0.282193
-0.240943
0.0279142
-0.425334
-0.204504
-0.151897
-0.00830011
-0.10105
-0.291539
0.0155665
-0.42119
0.101215
-0.264151
0.00816859
0.0457999
-0.151743
-0.00858689
-0.0517883
-0.144647
-0.0147714
-0.0226957
-0.057227
-0.179344
-0.415688
-0.0684522
-0.0272159
0.0560057
0.0158806
-0.0192344
-0.0966843
-0.0795084
-0.116241
-0.266612
-0.0817804
0.00398785
0.00476571
-0.134599
-0.426661
-0.248638
0.109339
-0.0128478
0.125945
-0.420193
-0.424449
-0.0119633
0.0138511
-0.29905
-0.0265553
-0.14917
0.0715202
0.0183602
-0.0351124
0.0932799
-0.162811
-0.29177
0.00927334
-0.0148788
-0.0408764
-0.0697534
-0.276548
0.0214361
-0.208905
-0.253678
-0.0116833
-0.0679846
-0.0578142
-0.417225
0.0269919
-0.423211
-0.282261
-0.0419936
-0.0526692
-0.0424353
0.32532
-0.228625
-0.058293
0.0120812
-0.426389
-0.237198
-0.00791244
-0.137006
-0.201256
-0.0763403
-0.193818
-0.275056
-0.146642
-0.256823
-0.0572537
0.0772606
-0.0410547
-0.162918
-0.266764
-0.262803
-0.426371
-0.194748
-0.0130333
-0.0804996
0.00770071
0.0107646
0.0286615
0.0107718
0.0242701
-0.00936271
-0.0596225
-0.321833
-0.329827
0.00149403
-0.191096
0.175868
-0.00237244
0.00446197
-0.156379
0.0215534
-0.0613849
-0.0578423
0.0240529
-0.0129531
-0.0574607
0.00707488
-0.256922
-0.0557077
-0.00516434
-0.0135359
-0.205623
-0.00978103
-0.311773
-0.169833
-0.0111541
-0.111154
-0.00995179
-0.0395463
-0.0222293
-0.17584
-0.0711028
0.0105217
-0.186834
-0.101383
0.0161709
-0.0147163
0.0340773
-0.0298743
0.0208674
-0.279202
-0.254233
-0.423573
-0.0625564
-0.417911
0.0217575
-0.0589487
-0.0269466
-0.214419
0.0487727
-0.09274
0.00038366
-0.0613833
-0.134615
-0.370895
-0.0757304
0.000182229
-0.112298
-0.00343533
-0.195909
-0.00874981
-0.0157772
-0.0512171
-0.0602376
0.000865427
0.0116873
0.0629399
-0.174797
0.0499329
-0.0205248
-0.0492021
0.00309513
-0.0876102
0.0203759
-0.424427
-0.0611004
-0.0428735
-0.113357
-0.41916
-0.0634415
-0.236493
-0.0102463
0.016656
-0.0612538
-0.0642668
-0.211201
-0.0604693
-0.0610265
-0.040576
-0.118753
-0.0731233
-0.0634249
0.0229212
0.00435819
-0.171659
-0.145716
-0.422897
-0.0541796
-0.00831904
0.0222562
-0.422734
-0.101068
-0.00929443
-0.233991
-0.0167541
-0.0794234
-0.0803609
-0.081747
-0.0241818
0.0172831
0.00595318
-0.0540478
-0.19269
-0.269859
-0.0109824
-0.0116981
-0.260585
0.00731181
0.00439395
0.107612
0.0997356
-0.0625925
0.0171153
-0.057603
-0.0742046
0.101218
-0.355379
-0.113974
0.0256398
-0.0519842
0.0331741
0.0062225
-0.413128
0.304792
-0.0575504
-0.0266665
0.0196216
-0.14326
0.0880235
0.0229916
-0.069278
-0.339723
-0.0128854
-0.100887
0.0273568
-0.113173
0.0266601
-0.0179249
-0.421388
-0.16044
-0.152865
0.0178718
-0.138925
-0.0154938
0.0225203