/*--------------------------------*- C++ -*----------------------------------*\
| =========                 |                                                 |
| \\      /  F ield         | OpenFOAM: The Open Source CFD Toolbox           |
|  \\    /   O peration     | Version:  v2012                                 |
|   \\  /    A nd           | Website:  www.openfoam.com                      |
|    \\/     M anipulation  |                                                 |
\*---------------------------------------------------------------------------*/
FoamFile
{
    version     2.0;
    format      ascii;
    class       volVectorField;
    location    "200";
    object      U;
}
// * * * * * * * * * * * * * * * * * * * * * * * * * * * * * * * * * * * * * //

dimensions      [0 1 -1 0 0 0 0];


internalField   nonuniform List<vector> 
13851
(
(1.13507 0.0611986 -1.06529e-20)
(1.06985 -0.0205196 0)
(1.06839 -0.0187123 0)
(-0.162849 -0.0150699 0)
(1.00201 -0.000603147 2.72866e-22)
(1.07984 -0.0333242 -2.26953e-20)
(1.05449 0.015337 -2.9797e-20)
(1.01217 -0.000924602 0)
(0.366484 0.0552238 -3.51006e-20)
(0.991901 -0.00769556 1.24838e-20)
(1.15847 -0.0966935 0)
(1.00139 -0.00806746 2.19037e-21)
(0.981995 -0.0205585 4.51532e-21)
(0.135506 0.0208566 3.04943e-20)
(1.09917 0.0147107 2.25016e-20)
(1.09036 0.0505114 0)
(-0.260763 0.0031119 0)
(1.03413 -0.0176019 1.34186e-22)
(1.21511 0.0310937 0)
(1.13747 0.0600011 2.8752e-20)
(1.11209 0.00783283 2.4489e-20)
(1.04014 -0.0904651 8.70446e-21)
(0.74709 -0.353924 1.11185e-19)
(1.00006 -0.000218824 0)
(1.24149 -0.029693 3.6386e-20)
(1.08805 0.0488861 -3.4062e-20)
(1.0823 0.0758136 -2.68739e-20)
(1.18976 0.0854051 6.21629e-20)
(0.520899 0.0346443 5.6575e-21)
(1.01965 -0.0113426 0)
(-0.0448661 -0.00615367 -1.63567e-19)
(1.05479 0.0155603 9.44861e-21)
(1.12712 0.0628147 -4.41e-21)
(0.430085 0.0837275 1.65392e-21)
(1.12682 -0.0790022 -1.25085e-20)
(0.54971 0.0315446 0)
(1.00003 -0.000199065 0)
(1.28189 -0.138113 -1.64125e-20)
(0.0691128 0.0187954 1.68372e-19)
(1.00719 -0.037812 6.76098e-21)
(0.22831 0.051429 6.5255e-20)
(0.555996 0.0377281 -5.68935e-21)
(-0.298288 -0.00188544 0)
(1.10684 -0.448976 0)
(0.572049 0.0470692 0)
(1.01454 -0.0219465 -1.74762e-22)
(1.01722 0.000112523 -3.45649e-21)
(1.0904 0.0546492 3.29686e-23)
(1.04571 -0.0504032 -1.31328e-20)
(0.98175 -0.0185329 0)
(-0.18881 0.00327676 -1.59962e-19)
(0.973885 -0.0144453 9.10848e-21)
(1.0903 0.0515218 0)
(1.07243 0.0275107 1.41268e-20)
(0.223769 0.0165225 -3.54589e-20)
(1.00618 -0.0371972 -6.15064e-21)
(1.12902 0.0628653 0)
(0.190467 0.0446177 -8.56458e-20)
(1.07827 0.0559426 0)
(-0.0217627 0.0167729 2.15462e-20)
(1.00135 -0.00746008 -6.15445e-21)
(1.0849 0.071944 4.54816e-20)
(0.995844 -0.00303922 0)
(1.04601 -0.0563721 -9.20974e-21)
(0.880558 -0.455999 1.3186e-22)
(0.890942 -0.431368 -1.59023e-22)
(-0.0411293 0.0121236 1.44856e-20)
(0.705056 -0.130306 1.01174e-19)
(1.0205 -0.0375769 6.61852e-22)
(-0.125512 -0.00988239 1.47393e-19)
(-0.117127 0.00121164 -1.83346e-19)
(1.12199 0.0113149 5.94867e-22)
(0.994647 -0.0261356 -4.86076e-21)
(-0.021866 0.0146282 0)
(1.07993 0.025065 1.68484e-20)
(1.02195 -0.0715155 0)
(-0.236953 0.00215837 -9.399e-20)
(1.02012 -0.00556304 -2.56157e-21)
(1.24123 -0.0281035 2.93321e-20)
(1.00508 -0.0173449 8.34888e-21)
(1.0216 -0.0367626 0)
(1.24886 -0.0786434 -1.25251e-19)
(1.1232 -0.0790001 0)
(0.119142 0.0213502 -5.26302e-20)
(-0.00556744 0.0176114 -1.02461e-20)
(-0.0699354 -0.00315832 0)
(1.04463 -0.0872907 -9.76896e-21)
(0.338515 0.00859225 -1.35884e-22)
(0.992484 -0.0118987 4.50885e-22)
(-0.0410585 -0.00576554 0)
(0.972866 -0.0135167 4.40805e-21)
(1.05602 0.0143424 3.92233e-20)
(-0.246318 -0.00115864 1.84907e-19)
(-0.105993 -0.00309359 1.81801e-19)
(0.0124632 0.0104187 1.30607e-19)
(1.09067 -0.417511 -9.80689e-20)
(1.00996 -0.02306 4.26135e-21)
(1.08946 0.053133 0)
(-0.150773 0.00706401 9.05365e-21)
(1.21149 -0.182795 8.32762e-20)
(1.08907 0.0536175 0)
(0.820367 -0.122675 -4.14191e-20)
(0.823145 -0.14177 -2.09938e-20)
(0.990724 -0.0277551 0)
(1.01785 -0.0198068 0)
(1.12775 -0.00383169 1.97912e-20)
(1.01687 -0.0211868 7.90426e-22)
(-0.0980694 -0.000766191 1.94643e-19)
(1.05636 0.0144941 -2.13752e-20)
(1.03325 -0.0169456 2.8692e-21)
(1.02942 -0.125853 1.97204e-21)
(1.01549 -0.0211239 0)
(1.20826 -0.0205988 0)
(1.15696 -0.0416562 0)
(1.11031 0.0624968 1.88099e-20)
(1.07148 0.0263105 -3.492e-20)
(1.01375 -0.0072572 1.36658e-21)
(1.01261 -0.000733669 1.95453e-21)
(-0.179372 -0.0135265 -1.95946e-20)
(-0.08473 -0.0137646 4.86746e-20)
(1.12042 -0.340931 8.65026e-20)
(1.02749 -0.0143014 -6.72458e-22)
(1.01598 -0.0378061 -3.50651e-22)
(0.107198 0.0388194 9.2316e-21)
(1.1909 0.0542989 -1.07055e-22)
(0.635735 -0.184773 0)
(1.01032 -0.0232682 -5.27838e-21)
(1.12842 -0.135755 0)
(0.252884 0.0627529 6.30965e-20)
(1.11032 0.0190714 -4.24699e-21)
(1.03675 -0.0876847 -9.05941e-22)
(1.09739 -0.0601527 0)
(1.30062 -0.146355 1.0794e-19)
(0.411228 0.0820885 4.6837e-20)
(1.16218 -0.0865955 0)
(0.00557334 0.0136135 5.46014e-20)
(0.716465 -0.105321 7.30678e-20)
(-0.0858845 -0.0022199 2.53644e-20)
(0.854919 -0.0837564 2.65385e-20)
(1.10546 0.0248955 2.96052e-20)
(1.24721 -0.0866834 1.13306e-19)
(0.977229 -0.0435387 0)
(0.99172 -0.0121057 0)
(0.774133 -0.296184 -2.437e-20)
(1.19283 -0.00561525 5.47407e-21)
(1.00871 -0.0710828 0)
(1.01989 -0.00511042 6.10174e-22)
(-0.0972111 -0.00367661 -9.18698e-20)
(0.37937 0.0326353 -1.23952e-20)
(1.13451 -0.143787 0)
(1.08935 0.0537358 0)
(1.20745 -0.0230575 -9.13366e-21)
(1.16084 -0.0387768 -4.35969e-20)
(1.20209 0.0369858 -8.74423e-20)
(0.974447 -0.0219129 0)
(0.984538 -0.0096496 0)
(1.00138 -0.00654376 -5.54906e-21)
(0.0308687 0.015681 -1.67914e-19)
(1.1043 0.0195694 0)
(1.05897 0.00586178 -1.36057e-20)
(1.00016 -0.000460948 5.79009e-21)
(0.532249 0.0329064 0)
(1.12449 0.000676723 0)
(1.09076 0.05567 -3.88876e-20)
(0.140701 0.0196711 -2.86305e-20)
(0.468793 0.0645231 6.79888e-21)
(0.478849 0.066711 0)
(-0.173041 0.00428131 2.18771e-19)
(1.02865 -0.118661 -1.02114e-20)
(0.779741 0.0617175 0)
(1.00101 -0.00701252 -4.10795e-21)
(1.01369 -0.00711645 1.0359e-21)
(1.14249 -0.00549553 0)
(1.00104 -0.000444402 0)
(0.0408464 0.0146077 -1.19716e-19)
(1.10789 0.0948413 -5.5251e-20)
(1.09032 0.0607414 -8.12277e-21)
(1.0141 -0.00677272 0)
(1.07813 0.0262198 0)
(1.09027 0.060253 0)
(1.18601 0.055916 -2.32785e-20)
(1.11556 -0.426907 4.30959e-20)
(1.03538 -0.10632 -4.43091e-21)
(1.10837 0.0226793 0)
(-0.301225 -0.00163832 -6.02311e-20)
(0.387627 0.0319927 2.28942e-22)
(1.12377 0.064587 -2.08599e-20)
(0.894219 -0.0614039 -1.82988e-20)
(0.978722 -0.0243851 9.07987e-21)
(1.01831 -0.015505 -8.34412e-22)
(1.24335 -0.0107401 7.82236e-20)
(1.10484 0.0183864 0)
(0.115345 0.0131586 -1.56617e-20)
(1.08099 -0.0304039 2.36468e-20)
(1.0102 -0.0660718 2.79723e-21)
(1.0898 0.0519551 0)
(1.12083 0.0647661 0)
(1.04351 -0.00844604 -4.88092e-21)
(1.04005 -0.0249527 -7.98414e-21)
(0.72185 -0.178031 0)
(1.24703 -0.0958547 5.86644e-20)
(0.060496 0.0201523 -4.97476e-20)
(0.173568 0.044182 0)
(1.09751 0.0156599 -4.20469e-20)
(0.989283 -0.688089 -7.936e-20)
(0.0254984 0.0189958 0)
(0.93857 -0.0263398 0)
(1.09799 0.0303486 -3.06655e-20)
(0.356211 0.0590619 -1.71482e-20)
(1.07411 -0.0415522 0)
(1.09118 0.0501857 -4.69111e-22)
(1.01528 -0.0374307 -8.22692e-22)
(1.24957 -0.0912479 -1.81804e-20)
(1.00014 -0.00224823 -3.43192e-22)
(1.13165 -0.0707437 -2.96245e-21)
(1.02644 -0.0787906 3.76084e-21)
(0.982991 -0.0178204 -7.02318e-21)
(1.15052 0.0777942 0)
(1.04361 -0.0169983 -8.78992e-21)
(0.152779 -0.57278 -1.50272e-19)
(1.01414 -0.00674156 -8.72135e-22)
(1.14225 0.0587623 0)
(0.0982426 0.0161383 5.29978e-20)
(0.0205187 0.0125568 7.38653e-20)
(0.906827 -0.0759373 0)
(1.09794 0.0308972 2.44974e-20)
(1.00002 -0.00122913 0)
(0.760698 -0.298062 2.38808e-20)
(1.00177 -0.0125461 0)
(1.12881 -0.0711093 0)
(0.0272122 -0.0434868 -4.80909e-20)
(0.900198 -0.0718689 -3.09252e-20)
(1.07404 -0.0398187 0)
(0.996502 -0.00137944 1.02827e-21)
(0.157338 0.0439781 3.01332e-22)
(1.02039 -0.0108911 2.80736e-21)
(1.04183 -0.470797 0)
(0.151761 0.0389477 -8.2244e-20)
(1.20454 -0.172454 0)
(1.0001 -0.000508796 -6.69037e-21)
(1.28032 -0.293281 0)
(0.00845776 0.0182935 -7.79587e-20)
(0.601768 0.0478608 0)
(1.09096 0.0509589 0)
(1.10323 -0.00932645 0)
(0.727785 -0.33914 -6.04739e-20)
(1.15093 0.0707407 3.76331e-20)
(1.07757 0.0276966 0)
(1.09725 -0.397117 0)
(1.04657 -0.125071 1.06096e-20)
(0.281334 0.00963402 0)
(1.16921 0.0364717 -1.06441e-19)
(1.00937 -0.00114687 5.85006e-24)
(1.07921 -0.0114021 0)
(1.08935 0.0525065 -2.01733e-21)
(0.522851 0.0308007 0)
(0.400166 0.00729173 8.94468e-21)
(1.01784 -0.0142543 1.02084e-21)
(0.60044 -0.217342 0)
(0.993284 -0.0125824 2.36066e-20)
(1.12316 0.07589 -7.89996e-20)
(1.19454 0.0495955 -4.51606e-21)
(1.08128 -0.00938871 0)
(1.12455 0.00197576 -8.49123e-20)
(1.17415 0.0340618 1.11377e-19)
(1.00001 -0.0239082 -1.54091e-20)
(0.820644 -0.120227 4.95014e-20)
(1.09273 0.0546498 0)
(1.18584 0.0939643 -2.11507e-20)
(0.997977 -0.00803814 0)
(0.982963 -0.0168901 -8.84821e-22)
(0.902298 -0.0730902 2.05862e-20)
(0.456558 0.078795 0)
(-0.231543 -0.00660764 0)
(1.11453 0.0139276 3.87617e-20)
(1.02848 -0.015175 3.58077e-21)
(1.18358 0.0608161 5.56908e-21)
(1.19856 0.0440435 1.32647e-19)
(1.11437 0.0603005 -4.8748e-20)
(1.12294 0.00372481 6.8159e-20)
(0.421472 0.0744078 0)
(-0.12412 0.00802594 -3.35429e-20)
(1.08442 -0.017555 0)
(1.09411 0.0127827 -7.1351e-20)
(1.26017 -0.177174 0)
(1.01956 -0.0196697 1.13661e-21)
(1.00152 -0.00603582 -2.84491e-21)
(1.11603 0.0600925 -1.08937e-20)
(1.14308 -0.104265 5.33711e-20)
(1.02164 -0.0109775 6.94192e-21)
(1.00015 -0.00208451 -5.32289e-21)
(1.00161 -0.013672 0)
(1.00396 -0.000726481 -2.44187e-23)
(1.0988 0.000942628 -1.03324e-19)
(1.00159 -0.00637744 8.34185e-21)
(0.377567 0.0589527 1.77022e-20)
(1.11345 0.0110681 0)
(1.01164 -0.0313057 -2.00055e-21)
(0.526376 0.0290374 0)
(0.0954059 0.0360799 0)
(0.976052 -0.0193025 0)
(1.14142 0.0590798 -2.42874e-20)
(-0.173181 0.00417589 1.9735e-20)
(0.976813 -0.0446623 0)
(0.974975 -0.0182788 0)
(1.11615 0.00951949 0)
(0.0790866 0.0164645 -4.0786e-21)
(0.33823 0.00275764 -7.94519e-20)
(1.14353 0.00579426 5.78849e-20)
(1.00222 -0.000446963 -1.08369e-21)
(0.813679 0.0652405 0)
(1.00108 -0.00752726 0)
(1.15013 0.00547077 5.68699e-20)
(-0.157545 0.00541291 0)
(1.18326 0.097511 1.05554e-19)
(1.05748 0.00452588 1.01061e-20)
(1.2929 -0.186041 -1.98933e-21)
(1.292 -0.15396 0)
(-0.0662127 0.00190848 -1.49706e-19)
(1.20811 -0.0286695 0)
(0.794439 -0.086708 -4.91604e-20)
(0.0518432 0.0144312 4.51515e-22)
(0.151665 0.0484771 5.95256e-22)
(1.1906 0.0820712 -6.63716e-20)
(1.0413 -0.0265812 8.62128e-21)
(-0.217372 -0.00115501 -1.10319e-19)
(0.263387 0.00320137 -3.60133e-23)
(0.482171 -0.475392 -1.45725e-19)
(0.553434 -0.450704 1.27349e-19)
(0.937799 -0.0201708 1.33053e-20)
(1.14636 0.000238686 -7.33028e-20)
(0.952395 -0.111579 0)
(0.346548 0.00813797 3.10461e-20)
(0.798736 -0.131422 4.73048e-20)
(1.00776 -0.00187839 3.11167e-22)
(1.01741 0.000155282 3.66763e-21)
(1.0708 -0.0759342 -2.44431e-20)
(-0.0945307 -0.0014721 2.05973e-19)
(0.318665 -0.528648 1.29796e-19)
(1.01965 -0.0194042 -2.61057e-21)
(0.00433331 0.0114997 -1.34052e-19)
(0.942657 -0.110118 -1.89391e-20)
(1.09807 -0.0621634 -1.18063e-20)
(1.05892 0.00592819 1.496e-20)
(0.071861 0.0128671 -2.45573e-21)
(1.18029 0.0624333 0)
(1.08984 0.0515558 0)
(1.02403 -0.0774808 1.07736e-21)
(1.07167 -0.0382282 2.7744e-20)
(0.586362 0.0266778 0)
(0.978818 -0.0244506 -2.86635e-20)
(1.20274 0.0378346 -4.57604e-20)
(1.08324 -0.0161433 0)
(1.11726 0.00783844 0)
(0.936887 -0.118126 0)
(0.992615 -0.0126564 -1.61469e-20)
(1.01247 -0.0307473 1.98537e-21)
(1.2147 -0.079994 0)
(1.21857 -0.169493 3.33379e-21)
(1.16608 0.0425841 -1.08604e-19)
(1.30312 -0.153787 9.81982e-23)
(0.596549 0.0278738 6.38921e-21)
(1.01016 -0.0692836 0)
(0.132067 0.0391259 4.42691e-20)
(1.12953 0.0827139 -2.15705e-20)
(1.02618 -0.00702858 -3.26266e-22)
(1.17808 0.0993985 -8.91478e-20)
(1.1349 0.0426226 1.89439e-20)
(-0.136933 0.00795615 -6.48816e-20)
(1.06834 -0.0729776 0)
(1.08655 0.0512151 0)
(1.07855 0.0569082 0)
(1.28833 -0.0846397 9.04308e-20)
(1.21237 -0.0907301 1.4318e-22)
(0.339995 0.00995631 3.95194e-21)
(1.04472 -0.0361328 -7.58076e-21)
(1.10903 0.0974513 6.50816e-20)
(-0.295309 -0.000920782 0)
(1.09828 -0.0211803 4.8761e-20)
(0.30141 0.0141507 3.93583e-20)
(1.10482 -0.0218813 -2.32366e-20)
(0.183533 0.0380862 -8.08158e-20)
(1.09348 0.0104594 4.36906e-20)
(1.07582 0.0401544 2.08635e-20)
(1.17673 0.0295082 0)
(1.238 -0.151176 0)
(0.984726 -0.0109455 0)
(1.08154 -0.0217027 1.40167e-20)
(1.14593 -0.109679 4.70418e-21)
(1.0796 0.0263897 0)
(1.01279 -0.0233806 0)
(1.11382 0.0156454 -4.21346e-20)
(0.737854 0.104244 1.68562e-21)
(0.99541 -0.0257722 -1.16223e-20)
(1.09942 0.0290705 0)
(-0.192236 -0.012102 2.40629e-19)
(1.06491 -0.0359289 -1.39851e-20)
(1.22753 -0.433995 -9.52238e-20)
(1.08582 0.0365522 -3.28138e-21)
(0.408696 -0.000703305 0)
(1.07665 -0.0412358 2.34421e-20)
(1.0875 0.047826 0)
(0.952329 -0.663921 9.30246e-20)
(1.19457 0.0493507 2.04747e-20)
(1.12858 -0.00801911 1.90956e-20)
(0.381184 0.00524678 3.38024e-23)
(-0.0108271 0.0141913 9.62727e-20)
(1.25626 -0.296183 0)
(0.999244 -0.0245896 -6.39165e-21)
(1.21175 -0.0755957 0)
(1.10648 -0.0297303 -4.96112e-20)
(1.0866 0.0506118 0)
(1.02621 -0.0164428 -8.521e-21)
(-0.297206 -0.00529748 5.26192e-22)
(0.673623 0.0942314 -3.34634e-20)
(1.26436 -0.0565793 -1.95612e-19)
(1.07157 -0.0369946 -2.66413e-20)
(1.17697 0.0305589 0)
(1.09063 0.0797191 -5.95362e-20)
(-0.219672 -0.00785233 0)
(1.02254 -0.00225991 3.95883e-21)
(-0.250064 -3.33971e-06 -1.27125e-19)
(1.24663 -0.141675 1.50419e-20)
(0.501073 -0.281979 2.63606e-21)
(1.05223 -0.126587 -1.38561e-20)
(1.18572 0.0476978 -1.24486e-19)
(0.988406 -0.0166003 1.45398e-20)
(1.00126 -0.000413569 -1.35359e-21)
(0.216706 0.0134513 4.26955e-20)
(1.09421 0.0840246 5.26699e-20)
(0.991078 -0.0085457 -7.32649e-21)
(1.06988 -0.0209142 5.89361e-21)
(1.10129 0.0296173 -8.84811e-21)
(1.01213 -0.00791422 6.42474e-22)
(0.747502 0.0985459 0)
(1.14694 -0.00076314 1.61828e-20)
(1.13503 0.0420583 0)
(1.07304 0.00367776 1.03688e-20)
(1.0453 -0.0355324 0)
(0.972721 -0.00604031 0)
(1.28949 -0.0899202 0)
(1.01064 -0.0299005 0)
(0.973782 -0.00692623 0)
(0.943683 0.0440973 9.57346e-21)
(0.76328 0.104925 0)
(1.03325 -0.08799 0)
(1.08137 0.0588592 2.0353e-20)
(0.995975 -0.00264478 -1.14284e-21)
(1.00165 -0.00608322 -2.72597e-21)
(1.06773 -0.0379445 4.2277e-20)
(1.16847 0.0416907 1.23941e-19)
(1.0825 0.039359 -2.91607e-20)
(1.01311 -0.0246716 0)
(1.05427 -0.0277771 1.50508e-20)
(1.1224 -0.319467 4.37749e-20)
(1.06206 -0.0133885 -1.85858e-20)
(0.46648 -0.0162641 0)
(1.00162 -0.00772788 -2.97966e-21)
(1.07247 0.0153444 2.15762e-20)
(0.579881 0.0498467 1.08219e-20)
(0.943593 -0.157469 0)
(1.01699 -0.00047424 -8.91071e-22)
(1.00058 -0.0066706 -4.67613e-21)
(1.07283 0.00319966 -5.27098e-21)
(1.04632 -0.00703897 0)
(1.2383 -0.342794 5.23672e-20)
(0.868113 0.0442855 -1.08632e-20)
(1.10379 -0.00658946 5.85679e-21)
(0.2245 -1.26281 0)
(1.06941 -0.0349526 -2.21064e-20)
(1.00043 -0.0100414 -5.49813e-21)
(0.302134 0.0693917 -2.78897e-20)
(1.0787 0.0594222 1.94241e-20)
(0.886638 -0.115832 0)
(0.996686 -0.0290328 0)
(0.138662 0.0458155 4.22868e-20)
(0.866436 -0.0948676 5.10577e-20)
(1.17329 -0.582306 -1.9987e-20)
(0.990146 -0.0271288 -1.14301e-20)
(1.099 -0.0562211 0)
(1.21542 -0.0828857 0)
(1.08601 0.0229493 0)
(0.189966 0.0548925 2.66993e-20)
(1.08869 0.0794553 5.85691e-20)
(1.2753 -0.0584305 1.59103e-19)
(0.978744 -0.0680902 0)
(1.20947 -0.0274062 7.63095e-22)
(1.00111 -0.0251401 4.99442e-21)
(0.509519 0.0328928 0)
(1.08618 0.0376349 1.14427e-20)
(1.11842 0.0642477 0)
(1.10531 -0.0275074 4.18383e-20)
(1.02465 -0.0709787 2.13703e-21)
(0.950484 -0.149996 0)
(1.14316 -0.00505749 1.46175e-20)
(1.00173 -0.00051815 0)
(-0.244725 -0.0026065 0)
(0.266775 0.0638725 0)
(0.510743 -0.0221596 6.65821e-20)
(-0.146581 -0.0200682 -1.86608e-20)
(0.886322 0.0453681 9.39937e-21)
(-0.178705 0.00837967 -4.03387e-20)
(1.19861 0.04403 -9.99305e-20)
(0.917494 -0.0762606 0)
(0.999701 -0.00306888 -9.63968e-21)
(1.22824 -0.444627 -5.74893e-20)
(0.991865 -0.00759591 -9.64863e-21)
(1.01237 -0.0228526 1.00857e-22)
(0.914399 -0.0885693 1.7006e-20)
(0.0640148 0.0161012 7.3698e-20)
(1.0669 -0.012856 -2.86518e-20)
(0.972674 -0.0393102 -8.57823e-23)
(1.0839 -0.269213 -1.1193e-21)
(1.13478 -0.0294906 0)
(0.989752 -0.0027681 1.1012e-21)
(0.783729 0.0099021 7.10379e-20)
(1.0085 -0.0228271 -3.66371e-21)
(0.307888 0.0705638 -3.0001e-20)
(1.2359 -0.341228 -1.69658e-19)
(1.00556 -0.0177911 0)
(1.06129 -0.00512715 -2.23725e-20)
(1.24777 -0.114373 -6.78869e-20)
(1.18417 0.0962872 -1.19781e-20)
(1.02108 -0.0114621 3.7839e-22)
(1.166 -0.103569 0)
(1.16349 -0.395754 1.08679e-19)
(1.0294 -0.00111414 0)
(-0.00994136 0.0153881 3.40694e-20)
(1.21072 0.0370912 -5.26692e-21)
(1.14685 0.0565638 0)
(0.977254 -0.0686964 1.59175e-20)
(0.956938 0.0464839 -3.90684e-20)
(-0.0750579 0.0132608 4.05096e-20)
(1.03013 -0.00181781 -4.58186e-21)
(1.22609 -0.0105279 1.36351e-19)
(1.01836 -0.0380279 -1.23103e-22)
(1.00887 -0.0224182 1.80988e-21)
(0.993576 0.03548 2.54094e-21)
(0.189575 0.037512 9.93943e-20)
(1.11748 -0.0255314 0)
(1.08146 0.0391061 2.43894e-20)
(0.990984 -0.00610296 -1.29215e-20)
(1.0908 0.043061 0)
(0.289952 0.0672067 -7.20813e-22)
(0.0296386 0.0147717 1.17046e-19)
(1.03349 -0.00435106 1.22313e-21)
(-0.235918 0.00549474 0)
(1.01268 -0.0247267 0)
(1.01952 -0.0380055 -7.4594e-22)
(1.12907 -0.00488891 2.59756e-21)
(1.0683 0.0206656 0)
(1.02264 -0.00198395 2.1463e-21)
(1.01903 -0.0704013 -1.98804e-22)
(0.00709577 0.014651 0)
(1.23167 -0.145697 -5.98991e-20)
(-0.0250869 0.0140977 0)
(1.06503 -0.0138901 -2.17149e-20)
(0.993461 -0.0130111 -1.65223e-22)
(0.483607 0.078133 -7.60946e-21)
(0.999538 -0.00425783 0)
(1.21247 -0.0670808 0)
(1.07618 0.0104998 3.19544e-20)
(1.08168 0.0234965 -3.75779e-20)
(1.10389 -0.0124169 1.03756e-20)
(0.680671 0.0512405 0)
(-0.111453 0.00939585 0)
(1.08057 -0.0270724 -2.45496e-20)
(-0.249589 -0.000858714 0)
(1.05636 0.00273315 4.96774e-21)
(1.15288 -0.0172347 0)
(0.565464 0.0401686 1.69686e-20)
(0.248132 0.023631 1.06399e-21)
(1.01173 -0.0383821 -2.19157e-21)
(1.00037 -0.0256206 6.28006e-21)
(0.825218 -0.16373 0)
(-0.0126715 0.0142544 0)
(1.08553 0.0491862 -5.66683e-20)
(1.08973 0.0424899 0)
(1.14015 -0.568785 1.90889e-20)
(1.06833 0.0203999 0)
(1.09134 0.0113498 0)
(0.174282 -0.063093 -9.31793e-20)
(0.736433 0.0104098 9.85516e-20)
(1.09101 -0.33201 -4.013e-20)
(0.289262 0.0689147 0)
(1.1021 0.0727993 -1.18389e-20)
(0.605417 0.0321557 -1.66486e-20)
(1.04095 -0.03571 1.63277e-22)
(1.0783 0.0546722 0)
(1.23597 0.0410514 0)
(1.00003 -0.00904519 5.32883e-21)
(-0.242717 0.00145337 -9.23554e-20)
(0.514005 0.0278694 4.6014e-20)
(1.03422 -0.120121 9.0977e-21)
(1.10753 0.021025 -3.1275e-20)
(1.00316 -0.0345573 3.97915e-22)
(0.67208 -0.80931 3.91224e-21)
(1.14461 -0.177399 0)
(0.813924 -0.247959 2.20032e-19)
(1.01013 -0.0313698 -2.9383e-21)
(1.00074 -0.000515776 0)
(0.91561 -0.0446429 0)
(1.13364 -0.0328247 1.28138e-20)
(1.00158 -0.00732985 0)
(0.032843 0.0145285 -1.26184e-19)
(1.00088 -0.000611869 2.03821e-21)
(1.10385 0.0733426 0)
(0.972836 -0.0642836 5.21685e-22)
(1.08746 0.0501604 -8.94778e-21)
(0.991821 -0.0273085 -1.21287e-20)
(0.989067 -0.00294131 -1.28253e-20)
(1.09474 -0.152468 0)
(-0.234124 0.00286822 2.36879e-19)
(1.13011 -0.0133224 -7.87961e-20)
(-0.00962336 0.0127561 1.5336e-20)
(1.09946 -0.0567334 6.05633e-21)
(1.01231 -0.00928614 5.08068e-22)
(1.02932 -0.00923343 5.5054e-21)
(1.14483 -0.00957972 -3.68971e-21)
(1.05323 -0.0289514 2.47183e-21)
(1.18238 -0.0253212 1.08319e-19)
(1.07121 -0.0157448 -1.6751e-20)
(0.883138 -0.119889 0)
(1.0786 0.0528074 0)
(0.99938 -0.00425077 5.21795e-21)
(0.394335 0.0047821 0)
(1.00008 -0.00144114 5.53295e-21)
(1.08996 0.0524405 5.02296e-20)
(-0.235815 -0.00165499 0)
(0.538868 0.060196 0)
(0.887589 -0.0256718 3.30474e-20)
(1.00357 -0.324513 -1.90943e-19)
(1.06924 -0.274483 -5.23955e-20)
(1.21941 -0.232216 -5.02771e-20)
(0.482244 0.0294519 0)
(1.03599 -0.00552698 -2.51652e-21)
(0.692474 0.0143796 3.05067e-20)
(0.946965 -0.116648 0)
(1.10092 -0.0207454 -1.08225e-20)
(-0.139593 -0.0220832 1.30098e-19)
(1.24913 -0.0140544 -7.65554e-21)
(1.02675 -0.00757648 -3.86587e-21)
(1.18095 -0.0301151 -1.07018e-19)
(1.04281 -0.00764138 -4.91195e-21)
(0.572046 0.0292935 3.31502e-21)
(-0.196007 0.00486942 -4.58205e-20)
(1.0244 -0.0384511 9.16849e-23)
(0.707147 -0.14572 -9.82806e-20)
(0.731739 0.090456 6.76141e-20)
(0.999978 -0.00140279 -7.99837e-21)
(0.999996 -0.00151407 -5.98316e-21)
(1.08791 0.0490461 4.46506e-20)
(0.376127 0.00341459 6.36404e-21)
(1.02633 0.0473208 -2.66862e-20)
(0.974064 -0.0164501 4.2072e-21)
(1.17994 0.0246209 7.15144e-21)
(1.05947 -0.0147687 9.25916e-21)
(0.987979 -0.00415005 0)
(1.07957 0.0501811 5.09338e-21)
(1.18027 0.0252757 0)
(1.21272 -0.153708 4.37704e-20)
(1.02115 -0.00189508 0)
(1.0936 0.0549868 3.56902e-20)
(0.914714 -0.206098 0)
(1.08588 0.0467072 7.98198e-21)
(0.959478 -0.0179635 -3.88035e-20)
(1.00954 -0.0646037 6.20227e-22)
(1.13499 -0.174981 0)
(0.919398 -0.0502845 0)
(1.09152 0.0547226 -1.45729e-20)
(1.11921 0.0154336 3.43271e-20)
(1.12234 0.011759 6.38226e-22)
(1.08243 -0.30675 5.86479e-20)
(1.14797 -0.586767 -7.72814e-20)
(1.21483 0.0313683 -1.18059e-21)
(0.818966 0.100915 1.72765e-22)
(1.21291 -0.10089 0)
(1.08991 0.054048 0)
(0.162327 0.0302402 2.83531e-20)
(1.03026 -0.170604 -1.30819e-20)
(0.967476 0.036196 0)
(1.14569 0.0573853 0)
(1.03068 -0.018331 0)
(1.09034 0.00932105 -1.91706e-20)
(1.21062 0.0249921 -1.44977e-19)
(1.05678 -0.082894 -1.83471e-20)
(1.00509 -0.01686 3.49756e-23)
(1.00555 -0.015988 -3.44281e-21)
(1.08996 0.0518509 2.26353e-20)
(0.333247 0.0070804 1.30192e-20)
(1.07419 0.015868 -2.27049e-20)
(0.113287 0.0343545 4.51212e-20)
(1.01224 -0.00918387 4.99035e-22)
(1.00469 0.048941 5.65587e-21)
(1.01379 -0.348329 0)
(-0.179913 0.00327657 1.8828e-19)
(1.1816 -0.0327099 -5.44246e-20)
(1.0793 -0.0413873 -2.50386e-20)
(1.06881 -0.0170167 -1.60159e-20)
(-0.16785 0.00577121 -6.82588e-20)
(1.21225 -0.157754 -1.65881e-19)
(1.02731 -0.162142 1.2898e-20)
(1.09197 0.0831119 -1.24025e-20)
(1.04498 -0.0311922 0)
(1.23769 -0.416876 0)
(1.09003 0.0516049 -1.34138e-20)
(1.10657 0.0753569 -2.19815e-20)
(1.10419 -0.0391986 1.14739e-20)
(1.26092 -0.127598 0)
(0.989195 -0.0182884 9.49373e-21)
(1.00008 -0.00179736 3.52832e-22)
(0.943858 -0.0160717 3.48429e-20)
(0.987364 -0.00473718 -2.15101e-21)
(0.548276 0.0411799 0)
(1.00373 -0.000836362 0)
(1.08034 0.0496536 0)
(0.444633 0.0754218 0)
(1.18568 -0.0384429 0)
(0.0458364 0.0154322 0)
(-0.138957 0.0076411 0)
(1.10782 0.0741001 0)
(1.2295 -0.215667 1.32039e-19)
(0.887505 -0.039121 -2.70608e-20)
(0.998715 -0.00106519 -1.33729e-20)
(0.984061 -0.0157374 9.33852e-22)
(1.01918 -0.00559936 0)
(1.02852 -0.00952155 -6.99853e-21)
(1.00101 -0.000422741 -1.44046e-21)
(1.15097 -0.0102919 0)
(1.20234 -0.012608 -6.91961e-20)
(0.913441 -0.210117 0)
(1.19152 0.0866328 -1.22041e-19)
(1.02457 -0.0594359 3.83596e-22)
(0.349279 0.0556205 -8.46994e-21)
(0.999993 -7.53072e-05 -4.00705e-21)
(-0.129071 -0.0193026 -2.62401e-19)
(1.11638 -0.0830235 -1.04207e-20)
(0.999919 -0.000498602 -1.14865e-21)
(0.997177 -0.0017317 -7.87894e-21)
(0.520573 0.0627213 2.71255e-20)
(1.08098 -0.0338962 1.71137e-20)
(1.04728 0.0776071 1.36573e-20)
(0.528095 0.028294 5.98345e-21)
(1.10451 0.0214826 0)
(1.1287 0.0276122 -1.86238e-20)
(1.02887 -0.000542222 -3.64098e-21)
(0.385742 0.0781893 -4.90817e-20)
(0.988146 -0.0773283 0)
(1.06806 -0.0140163 3.01304e-20)
(1.07864 0.0522071 0)
(0.998753 -0.00149437 6.3632e-21)
(0.976783 -0.0416843 -5.28047e-21)
(1.03385 -0.00987265 0)
(1.08813 0.0364024 2.78936e-20)
(0.30886 0.010278 2.52863e-20)
(1.09094 -0.0524283 -3.23165e-20)
(1.10529 -0.035454 -4.51302e-20)
(1.24891 -0.147405 0)
(-0.00284606 0.0137437 -1.19705e-19)
(0.892092 -0.0532122 -3.60333e-20)
(0.991409 -0.101642 0)
(0.593581 0.0368381 7.79617e-23)
(1.01878 -0.00523211 0)
(0.582244 0.0350575 -1.09614e-20)
(1.00041 -0.00125143 -1.73722e-21)
(1.062 -0.0128225 0)
(1.24296 -0.0258137 -3.26841e-20)
(1.10235 0.0498148 7.9394e-20)
(1.11259 0.0642116 0)
(1.18224 -0.091058 -9.66282e-20)
(1.1303 -0.0109084 1.11044e-20)
(0.999529 -0.0013547 -5.94661e-21)
(0.999997 -0.000214516 -8.39224e-21)
(1.15706 -0.013887 0)
(1.04267 -0.0346862 -5.65638e-21)
(0.999601 -0.00113736 -1.07403e-20)
(1.07236 0.0191768 0)
(1.24429 -0.178563 -1.32766e-19)
(1.00471 -0.00521096 -2.95786e-21)
(1.20711 -0.245949 1.01163e-19)
(1.23708 -0.421561 6.76594e-20)
(1.0612 0.0676011 1.17169e-20)
(1.18134 -0.0865424 6.15021e-20)
(0.00298501 -0.0161673 9.33005e-20)
(0.843233 -0.0975653 6.11674e-20)
(0.998556 -0.00135651 0)
(1.21222 -0.100006 3.74716e-20)
(1.01165 -0.00961706 0)
(1.08176 -0.0212189 -3.146e-21)
(0.863134 0.100773 -1.43952e-20)
(0.604975 0.0263019 2.67293e-20)
(0.695169 0.0145802 2.26367e-20)
(0.632633 0.0399 0)
(1.02806 -0.0406253 0)
(1.02426 -0.0381761 -9.19672e-23)
(0.99246 -0.266491 -3.00695e-22)
(1.00569 -0.0616478 -4.88166e-22)
(1.02154 -0.0178594 0)
(0.791529 -0.390233 1.09524e-19)
(1.12116 0.0761716 2.80299e-20)
(0.286473 0.0171948 0)
(1.0901 0.0522951 -5.72846e-20)
(1.10351 0.0500171 -5.16419e-20)
(0.985976 -0.00713407 2.78279e-21)
(1.01956 -0.0115953 0)
(1.28303 -0.299677 5.62932e-20)
(1.13806 0.0398667 7.51451e-20)
(1.06433 -0.0120183 2.59246e-20)
(0.999807 -0.00041601 -2.39377e-21)
(1.10805 0.0631615 -2.51999e-20)
(1.2148 -0.0421355 -6.32592e-22)
(0.127799 0.0344982 0)
(0.97437 -0.0218795 0)
(1.00094 -0.00342876 3.94781e-21)
(0.290833 0.00816496 -2.00161e-20)
(0.960249 -0.0197739 3.17057e-20)
(1.10439 -0.0170431 5.67112e-21)
(1.01174 -0.00745977 0)
(0.0812849 0.0170122 0)
(1.00884 -0.000548088 5.05233e-22)
(-0.226045 -0.00113623 0)
(0.995276 -0.00570549 1.3028e-20)
(1.19651 -0.183482 7.89467e-20)
(1.10954 0.00337123 -2.87885e-20)
(0.963997 -0.27797 4.0148e-21)
(1.1057 -0.0360907 6.83496e-21)
(0.993819 -0.0249683 0)
(1.06951 -0.0254587 0)
(1.00331 -0.00398146 -6.41176e-23)
(1.08163 0.0477461 -9.88373e-21)
(0.963689 -0.0274812 0)
(0.422011 0.00987243 -7.7438e-21)
(1.04659 -0.0318801 -3.85475e-21)
(1.08767 0.120438 -2.55725e-20)
(0.352938 0.0743328 0)
(1.10019 -0.0430534 -2.2896e-20)
(1.00388 -0.00273635 -1.28065e-21)
(-0.165429 -0.0167722 -6.233e-20)
(0.869598 0.0483017 -5.38629e-21)
(1.08283 -0.0266304 5.19345e-20)
(1.10071 0.049617 -5.24932e-20)
(0.984013 -0.0156796 0)
(0.361446 0.00730226 0)
(1.03159 -0.0194838 2.78212e-21)
(1.21214 0.025457 0)
(0.999435 -0.00984562 6.13855e-21)
(1.00363 -0.00362578 1.48689e-21)
(1.05678 0.0771213 1.99355e-20)
(1.10466 -0.0115066 0)
(1.00068 -0.0071736 0)
(1.07397 0.0273912 9.43636e-21)
(0.184985 0.0496034 0)
(0.760217 -0.823839 1.33826e-20)
(0.681407 0.0862266 -7.04164e-20)
(1.01699 -0.0148069 -9.98103e-22)
(0.182086 0.0345569 -6.12892e-21)
(0.997793 -0.00887618 8.28592e-21)
(1.00455 -0.00502519 2.23324e-21)
(0.975855 -0.0248465 -1.06183e-20)
(1.01763 5.88781e-05 0)
(0.999835 -0.00250348 -4.62486e-21)
(0.616377 0.0707756 5.86985e-20)
(0.833069 0.107635 0)
(1.04408 -0.0174633 0)
(1.00094 -0.000925677 -3.55715e-21)
(1.1181 -0.0245589 2.97645e-20)
(1.01607 -0.0220701 1.73126e-22)
(-0.130825 -0.0197864 -5.4151e-20)
(1.21397 -0.093937 -1.12122e-20)
(0.144211 0.0243646 -4.52629e-21)
(0.0655985 0.0151733 -5.70412e-20)
(1.06913 -0.0238936 0)
(1.09201 0.0554555 0)
(1.00003 -0.00919116 5.68826e-21)
(1.11199 0.0071912 -2.62584e-20)
(1.00972 -0.331855 3.08986e-21)
(1.0352 -0.00473133 1.00865e-20)
(1.00034 -0.00126159 4.86631e-22)
(1.27963 -0.285349 0)
(-0.187717 0.00392573 -4.96718e-20)
(1.12628 0.0286581 0)
(-0.298394 -0.000735647 7.43659e-20)
(1.10942 0.036634 0)
(0.996175 -0.00368145 0)
(1.12442 -0.0391504 -3.78981e-20)
(1.1 0.0488387 5.03208e-20)
(-0.240626 0.00381996 -1.41363e-20)
(1.09734 -0.00249794 0)
(1.07861 0.0696051 -1.42401e-21)
(1.14122 0.038938 -1.04254e-19)
(1.00024 -0.00253369 6.99114e-21)
(0.534984 -0.143299 0)
(0.448642 -0.115767 0)
(0.339914 0.0143512 1.10594e-20)
(1.2479 -0.0138348 1.04732e-20)
(1.00318 0.0344997 -1.78079e-20)
(0.981956 -0.0699021 4.11433e-21)
(0.744661 -0.362132 6.61443e-20)
(0.973739 -0.0051951 -1.0545e-20)
(1.14364 0.106466 -7.96173e-20)
(1.05576 -0.0780449 1.67533e-20)
(1.00762 -0.00137395 -1.86016e-22)
(0.634328 0.0798781 -8.09912e-20)
(1.02038 -0.0588438 -6.08913e-22)
(1.00379 -0.0024138 0)
(1.0136 -0.0376334 2.34757e-21)
(1.01917 -0.0579856 1.57139e-22)
(0.0492467 0.0154512 0)
(1.2059 0.0317775 5.199e-20)
(1.01165 -0.0138767 -1.61918e-22)
(1.12591 -0.0341512 0)
(0.0984911 0.0181592 6.88448e-20)
(1.03764 -0.0538271 0)
(-0.298042 -0.000402035 1.06716e-19)
(0.960453 -0.0434223 0)
(1.10918 0.0454554 3.10288e-20)
(0.151141 0.0323942 0)
(1.00135 -0.00648751 0)
(1.08386 0.0489044 2.54254e-21)
(1.06604 -0.0934922 7.54369e-21)
(1.10295 -0.0438538 0)
(0.792859 -0.808061 0)
(1.0228 -0.0587325 0)
(1.24137 -0.0657154 6.82996e-20)
(1.08625 0.048431 -2.11104e-20)
(0.235732 0.0548901 0)
(1.04398 -0.00162383 1.03403e-20)
(0.384904 0.00975071 -2.29222e-21)
(1.09715 -0.0240196 -9.42818e-21)
(0.0731824 0.0295337 3.71501e-20)
(-0.220647 0.00375556 -2.01596e-19)
(0.362341 0.0065682 2.22764e-20)
(1.10242 0.0235216 0)
(0.991139 -0.0242301 0)
(1.02749 -0.040291 0)
(0.999988 -0.00136363 0)
(1.07492 0.0384671 1.86216e-20)
(0.997154 -0.00323264 8.32649e-21)
(0.204712 0.0564556 3.31346e-20)
(1.03076 -0.112757 4.39389e-21)
(0.93138 -0.0861623 0)
(0.893473 -0.0577721 6.31106e-20)
(0.983385 -0.0652141 0)
(1.01663 -0.0138576 0)
(1.06166 0.0218979 0)
(1.06338 -0.0793605 -9.62563e-21)
(1.06126 -0.00554159 0)
(1.04508 -0.093674 3.47118e-21)
(0.399728 0.0308683 0)
(1.08402 0.0461748 0)
(1.09379 -0.0146235 -1.83089e-20)
(1.11265 -0.146092 0)
(0.659614 0.0788141 4.16343e-20)
(0.973026 -0.040077 1.8283e-20)
(-0.0772587 0.00380396 -4.08526e-20)
(1.01826 -0.00573188 2.39118e-21)
(1.03229 -0.134803 0)
(0.961889 -0.0240311 1.77814e-20)
(1.02255 -0.0260351 2.93122e-21)
(1.08108 -0.154276 4.4798e-20)
(1.00018 -0.0106192 3.30084e-21)
(1.01196 -0.0136272 6.35034e-22)