/*--------------------------------*- C++ -*----------------------------------*\
| =========                 |                                                 |
| \\      /  F ield         | OpenFOAM: The Open Source CFD Toolbox           |
|  \\    /   O peration     | Version:  v2012                                 |
|   \\  /    A nd           | Website:  www.openfoam.com                      |
|    \\/     M anipulation  |                                                 |
\*---------------------------------------------------------------------------*/
FoamFile
{
    version     2.0;
    format      ascii;
    class       volScalarField;
    location    "100";
    object      epsilon;
}
// * * * * * * * * * * * * * * * * * * * * * * * * * * * * * * * * * * * * * //

dimensions      [0 2 -3 0 0 0 0];


internalField   nonuniform List<scalar> 
13749
(
1.90629e-06
3.46613e-06
2.88638e-06
2.08889e-06
2.21521e-06
2.24177e-06
3.9079e-06
1.64354e-06
2.7786e-06
2.0807e-06
2.28762e-06
3.08185e-06
2.14965e-06
0.00537554
0.00710388
1.65962e-06
2.51054e-06
4.77503e-06
2.9441e-06
3.3555e-06
0.0213568
0.00709179
0.00403872
2.36564e-06
2.22317e-06
1.99116e-06
1.96472e-06
2.04658e-06
1.83771e-06
2.40679e-06
3.61661e-05
0.00810121
2.33866e-06
1.84683e-06
2.16e-06
1.88516e-06
2.82714e-06
2.41628e-06
1.87606e-06
1.94056e-06
2.2434e-06
0.0331984
2.34888e-06
2.37539e-06
5.11112e-06
1.97797e-06
3.08623e-06
2.49037e-06
1.93738e-06
0.0513898
2.39434e-06
0.0203127
1.95381e-06
9.23619e-05
2.21524e-06
1.94392e-06
2.14259e-06
2.3355e-06
2.09422e-06
0.00277843
2.33515e-06
1.99993e-06
0.00778856
3.11923e-06
1.96282e-06
2.37919e-06
2.7593e-06
2.42828e-06
1.673e-06
1.97126e-06
0.00447663
2.25796e-06
0.00146655
1.97248e-06
4.56758e-06
4.37819e-06
1.71687e-06
2.10277e-06
2.12963e-06
4.06875e-06
1.87993e-06
2.25212e-06
2.37241e-06
1.83103e-06
2.29376e-06
3.84768e-06
0.0063839
7.41749e-06
2.18085e-06
2.46318e-06
2.29372e-06
0.000242328
1.95743e-06
0.00147652
1.79309e-05
2.37672e-06
1.78784e-06
3.29869e-06
2.23209e-06
2.38545e-06
0.0133923
1.90952e-06
1.75792e-06
0.0078058
4.03555e-06
0.00784847
2.54742e-06
2.76542e-06
2.46011e-06
2.99828e-06
3.04186e-06
2.34333e-06
2.60907e-06
0.18855
0.0160269
1.82513e-06
1.91356e-06
2.21108e-06
2.61439e-06
2.04046e-06
1.64698e-06
3.89036e-06
1.80224e-06
1.74505e-06
2.2424e-06
0.00454307
2.23812e-06
0.010839
1.85992e-06
0.00148842
2.05084e-06
0.0066912
0.00787066
3.33911e-05
2.11111e-06
2.45686e-06
4.73982e-06
1.91575e-06
1.77529e-06
0.0450702
2.57157e-06
1.87571e-06
1.86692e-06
0.0309245
2.18772e-06
0.0735882
2.08057e-06
2.4121e-06
2.60132e-06
2.75519e-06
2.19387e-06
1.80262e-06
0.00805072
0.000284433
1.69401e-06
0.0110159
2.07104e-06
2.17454e-06
3.63281e-06
2.69402e-06
0.167836
2.80879e-06
0.0307224
2.34133e-06
3.31046e-06
2.48114e-06
6.26305e-06
2.91439e-06
2.39633e-06
2.16253e-06
1.87403e-06
2.98852e-06
1.92092e-06
1.81475e-06
2.4556e-06
4.27661e-06
4.93628e-06
1.69616e-06
0.0108914
0.0120367
4.09688e-06
1.83335e-06
1.81223e-06
3.41137e-05
0.000280161
2.4465e-06
0.0299895
2.10149e-06
0.00169551
2.31765e-06
1.81825e-06
0.00437788
1.67245e-06
2.86546e-06
0.0267424
3.83505e-06
2.21194e-06
0.105072
1.83325e-06
1.86544e-06
1.78508e-06
2.28152e-06
2.16892e-06
2.32238e-06
0.00654192
1.85169e-06
2.13377e-06
2.90336e-06
0.000204516
2.68701e-06
1.81816e-06
0.00466082
0.0370693
9.98272e-06
1.98014e-06
2.79036e-06
0.00563813
1.95733e-06
0.00652241
1.85605e-06
0.0172307
2.32818e-06
9.28997e-05
0.00462168
2.32884e-06
0.000531673
1.85139e-06
2.62004e-06
0.00667024
0.00392179
2.9866e-06
4.26051e-06
3.82833e-06
3.10543e-06
0.00494465
2.23544e-06
3.16411e-06
0.000206075
3.39105e-06
2.51957e-06
2.20497e-06
0.00672283
0.00160886
3.10266e-06
2.3736e-06
0.0271266
2.2655e-06
0.0070962
1.9587e-06
2.98374e-06
0.0400396
2.44745e-06
2.42689e-06
1.95649e-06
2.74296e-06
1.86478e-06
2.78619e-06
0.0307602
3.89757e-06
0.11882
1.77257e-06
2.39309e-06
2.49697e-06
2.04646e-06
2.57125e-06
4.6803e-06
4.51104e-05
2.00355e-06
3.34579e-06
2.71879e-06
1.7681e-06
0.0171312
2.5543e-06
0.0319353
2.10282e-06
0.00945657
0.0414606
1.80626e-06
2.669e-06
1.80544e-06
2.49883e-06
1.99697e-06
0.000248638
0.0242686
1.89427e-06
2.58719e-06
2.09957e-06
2.07826e-06
0.000925768
2.20764e-06
4.31835e-05
1.98186e-06
0.0070947
2.28245e-06
0.0046791
0.000174693
3.21497e-06
1.89151e-06
1.8431e-06
1.91342e-06
1.72246e-06
2.16433e-06
1.79033e-06
0.0379972
1.80216e-06
1.76329e-06
1.78439e-06
3.33424e-06
1.68661e-06
1.82224e-06
0.018412
2.25321e-06
2.01438e-06
0.0112873
1.78258e-06
2.21693e-06
1.76374e-06
0.00518567
2.02715e-06
1.72777e-06
6.89192e-06
0.0265153
2.05032e-06
4.26866e-06
0.0638671
4.12908e-06
2.16997e-06
1.838e-06
2.65197e-06
2.56031e-06
1.85047e-06
3.13923e-06
1.73065e-06
2.04278e-06
2.0265e-06
1.77916e-06
1.98373e-06
1.96949e-06
2.66516e-06
2.33968e-06
3.25312e-06
3.98629e-05
2.0546e-06
0.00116942
2.67761e-06
1.77169e-06
1.72646e-06
2.49727e-06
2.10099e-06
2.7021e-06
2.29911e-06
2.29084e-06
0.17319
0.183948
1.9924e-06
2.25011e-06
2.32975e-06
0.000222703
2.45612e-06
0.000158258
3.01278e-06
4.22727e-06
1.9895e-06
0.0248245
2.70277e-06
2.63415e-06
2.43348e-06
0.0174426
0.00800605
3.24574e-06
0.00470225
1.87241e-06
2.38083e-06
4.13474e-06
2.65585e-06
1.93068e-06
2.44441e-06
0.111423
3.9052e-06
1.79992e-06
3.89753e-06
3.27659e-06
0.00744037
2.48901e-06
4.10149e-06
2.03011e-06
0.00868731
2.36181e-06
2.70931e-06
1.7533e-06
5.20392e-06
4.23041e-05
0.0306485
2.26272e-06
2.31407e-06
0.00012608
0.202066
3.51927e-05
2.8361e-06
0.000516113
2.79165e-06
2.3074e-06
3.12627e-06
3.0107e-06
1.68826e-06
1.89124e-06
0.00596865
2.89171e-06
2.79544e-06
2.08449e-06
1.82382e-06
1.76548e-06
2.82207e-06
0.0117694
2.42671e-06
3.94263e-06
0.00513299
0.00504457
1.8129e-06
2.38493e-06
2.65306e-06
2.26134e-06
0.0010439
1.74749e-06
0.00012594
2.78935e-06
3.08614e-06
0.123201
0.0103181
3.91593e-06
6.25861e-06
4.0824e-06
3.14832e-06
2.43e-06
9.8357e-05
1.96546e-06
1.92978e-06
1.98313e-06
2.42338e-06
0.0176364
2.79134e-06
2.51662e-06
4.17764e-06
1.80632e-06
2.06842e-06
1.78704e-06
2.69134e-06
1.02904e-05
2.66912e-06
4.32278e-06
0.000213265
2.38141e-06
0.00967097
1.98393e-06
0.0343785
1.9399e-06
2.07518e-06
2.091e-06
0.00865969
3.27763e-06
3.19875e-06
4.23369e-06
1.74299e-06
0.0165277
1.8823e-06
1.73021e-06
3.3522e-06
9.51121e-06
0.209678
2.38184e-06
0.00179393
2.71354e-06
7.1953e-06
0.0122506
2.36915e-06
2.67017e-06
2.68834e-06
2.40611e-06
2.96675e-06
2.52702e-06
2.05474e-06
1.67121e-06
1.82023e-06
0.0073834
0.0114156
0.000201845
0.0273431
0.0075532
2.16709e-06
1.76091e-06
1.82929e-06
1.66769e-06
3.09431e-06
1.92698e-06
1.82832e-06
2.06453e-06
0.0317268
1.98173e-06
0.198732
2.26482e-06
2.53619e-06
0.00477048
1.72098e-06
0.000151253
1.9718e-06
0.00976647
2.45952e-06
3.03625e-06
2.41551e-06
2.06366e-06
4.1027e-06
1.84178e-06
2.14808e-06
0.0226565
1.7346e-06
0.0277753
2.3692e-06
0.00247782
1.95314e-06
2.91692e-06
0.0026064
0.0170327
2.34838e-06
2.45107e-06
2.38397e-06
1.67947e-06
3.01763e-06
1.95745e-06
2.06869e-06
2.90619e-06
2.27793e-06
2.47926e-05
2.36663e-06
1.73121e-06
1.78734e-06
2.25009e-06
2.85832e-06
0.00228436
0.00700305
0.00506967
0.00262762
0.00121225
3.82314e-06
5.64471e-05
0.053124
2.30497e-06
2.24433e-06
0.00620018
0.0157371
0.00201985
2.24653e-06
2.47637e-06
0.00864293
2.09787e-06
2.02778e-06
1.83544e-06
3.02336e-06
1.93982e-06
1.68154e-06
0.0139143
0.0051036
1.88409e-06
1.74234e-06
0.000503978
2.48782e-06
0.0171968
3.2371e-06
3.09018e-06
2.08998e-06
5.91495e-06
3.93462e-06
9.49718e-06
0.00630285
3.14815e-06
1.82285e-06
1.79147e-06
0.0117527
0.013007
2.01866e-06
2.38593e-06
1.93392e-06
3.00236e-06
0.0666426
2.3254e-06
2.21857e-06
4.1584e-06
0.0149774
0.00325296
2.76909e-06
2.05641e-06
1.87693e-06
1.72582e-06
2.17379e-06
2.31778e-06
0.00598811
0.00273947
2.11773e-06
0.0425989
0.0332719
1.70414e-06
1.70659e-06
0.00296324
5.24932e-06
0.0113095
0.076994
1.88923e-06
1.92485e-06
0.011522
0.0547187
4.14365e-06
2.45526e-06
1.78101e-06
2.29705e-06
0.00606818
2.29455e-06
2.02482e-06
2.22255e-06
2.2161e-06
2.53251e-06
1.98301e-06
6.99548e-06
2.69224e-06
3.4872e-05
2.08408e-06
5.41227e-05
0.0478941
3.99595e-06
0.000689048
1.67903e-06
2.68876e-06
0.00314172
1.87089e-06
2.69002e-06
2.4872e-06
1.73765e-06
2.92708e-06
1.71034e-06
1.79069e-06
0.00335622
2.07911e-06
1.89694e-06
2.70165e-06
2.39669e-06
0.0481577
4.17048e-06
1.78126e-06
4.13066e-06
2.34164e-06
0.0268958
0.00780493
1.76713e-06
1.81709e-06
2.3969e-06
1.73656e-06
3.17325e-06
1.9385e-06
8.89288e-06
0.0106856
2.74906e-06
4.10067e-06
1.96796e-06
2.92098e-06
4.0423e-06
6.20112e-06
3.12681e-06
0.0141469
2.18159e-06
2.45959e-06
3.48787e-06
2.00581e-06
0.00491584
3.07411e-06
4.17303e-05
1.79577e-06
1.68443e-06
1.05179e-05
2.37613e-06
1.89537e-06
0.00797159
0.00621602
4.76641e-06
2.73743e-06
0.0176313
2.49633e-06
2.75591e-06
1.73889e-06
4.42198e-06
2.71001e-06
1.85913e-06
0.0126546
0.045222
2.11676e-06
2.21472e-06
1.95082e-06
1.88378e-06
0.00605487
2.42367e-06
1.88084e-06
2.31731e-06
2.15112e-06
1.95235e-06
1.77204e-06
2.23437e-06
2.06237e-06
4.09692e-06
1.70449e-06
2.35235e-06
0.00558369
2.25115e-06
7.14587e-06
1.78924e-06
2.26894e-06
0.0117059
2.07943e-06
1.71593e-06
0.000347807
0.0108825
3.30074e-06
0.0239185
2.01626e-06
2.25505e-06
2.38362e-06
2.34483e-06
0.203699
2.46866e-06
2.83037e-06
0.0277949
2.33821e-06
2.28283e-06
3.65203e-06
2.28555e-06
9.74602e-06
7.34254e-06
0.00179921
0.000735485
2.96138e-06
1.79727e-06
2.17605e-06
1.92702e-06
2.11059e-06
0.00485303
2.74377e-06
1.81301e-06
2.67055e-06
5.23235e-05
1.77272e-06
2.56115e-06
2.31358e-06
2.31213e-06
2.52232e-06
0.00694649
2.67905e-06
2.24943e-06
2.70609e-06
2.79527e-06
0.00151783
1.8351e-06
2.43492e-06
2.17498e-06
2.01915e-06
2.05176e-06
0.00358401
3.94048e-06
1.8888e-06
0.00013078
0.00529283
4.15647e-06
2.46539e-06
3.63731e-06
2.19769e-06
0.000781445
0.00860701
0.00696945
3.24526e-06
2.3917e-06
0.00730871
2.52398e-06
2.19929e-06
4.49721e-06
1.74294e-06
2.03116e-06
1.75201e-06
0.00352165
1.69604e-06
0.00992706
1.71933e-06
0.0544402
2.94894e-06
0.0149372
0.0119189
0.00498041
0.00457016
3.91903e-06
1.91364e-06
0.0528663
2.16133e-06
2.21733e-06
3.17308e-06
1.06056e-05
2.66284e-06
0.0252647
6.20882e-06
2.33587e-06
2.38802e-06
2.3754e-06
0.00729256
2.21278e-06
2.24119e-06
2.76235e-06
0.00593309
1.10694e-05
3.45311e-06
2.82054e-06
0.0166171
2.06707e-06
0.0136045
4.09986e-06
0.00134496
1.79483e-06
2.87377e-06
2.38138e-06
9.21793e-06
2.97914e-06
1.78303e-06
2.72484e-06
2.48719e-06
0.00770344
0.00522254
0.00814595
0.00717273
4.62119e-06
0.00315902
2.49074e-06
0.000163872
2.71737e-06
0.000307431
9.6803e-06
2.04365e-06
9.77788e-06
7.36022e-06
1.02852e-05
2.92748e-06
3.11051e-06
0.0715978
2.93961e-06
1.82882e-06
2.74345e-06
3.14916e-06
2.90428e-06
0.00451782
3.99178e-06
2.04303e-06
2.89048e-06
3.34863e-06
1.80267e-06
2.28876e-06
2.38428e-06
1.69781e-06
1.45703e-05
3.47055e-06
6.02364e-06
0.0212529
2.82296e-06
3.96622e-06
1.90769e-06
5.94202e-05
3.54295e-06
0.00433952
3.00746e-06
3.36905e-06
0.0454718
2.37565e-06
0.0120724
2.05514e-06
9.96832e-06
0.00043209
3.13607e-06
4.22369e-06
1.69272e-06
0.00467266
1.82159e-06
0.00105184
1.85954e-06
2.33685e-05
2.09634e-06
3.91715e-06
0.00563706
2.33689e-06
0.0067915
1.94947e-05
2.65453e-06
1.85363e-06
0.0114888
2.06436e-06
2.74524e-06
0.0725228
3.46598e-06
3.21971e-06
2.15509e-06
1.80814e-06
1.8585e-06
2.6624e-06
4.27112e-06
2.72342e-06
0.00582462
2.42185e-06
2.47241e-06
2.36718e-06
0.000287095
2.30436e-06
3.27179e-06
2.06511e-06
2.06626e-06
4.10469e-06
2.70959e-06
2.33605e-06
2.28197e-06
6.85703e-06
7.83677e-05
1.82265e-06
4.06791e-06
2.50936e-06
3.88462e-06
1.79624e-06
0.000250905
2.37789e-06
2.61107e-06
0.00119849
4.13685e-06
1.06042e-05
1.86789e-06
2.29617e-06
3.18753e-06
9.66065e-06
2.33465e-06
4.04628e-06
2.46931e-06
1.70868e-06
2.23366e-06
1.96485e-06
2.83902e-06
2.9283e-06
0.00675842
4.20617e-06
0.0182283
0.0465245
3.33519e-06
0.0264209
2.32831e-06
2.30282e-06
2.3775e-06
4.21123e-06
1.79889e-06
2.74779e-06
2.14364e-06
2.74585e-06
1.95615e-06
2.39512e-06
3.11962e-06
0.00580083
1.91796e-06
0.00962533
4.27275e-06
2.54464e-06
1.8084e-06
2.49696e-06
0.0104002
0.00601989
0.15387
2.17994e-06
1.67431e-06
0.00357727
2.47807e-06
3.28152e-06
2.44058e-06
2.32465e-06
1.7181e-06
0.00829629
2.87852e-06
1.88874e-06
2.14025e-06
1.05861e-05
2.44764e-06
6.22766e-06
1.9106e-06
0.0167219
2.32274e-06
1.93715e-06
3.21044e-06
0.00124554
2.30779e-06
9.79082e-06
2.35057e-06
2.605e-06
3.80768e-06
4.14907e-06
3.2531e-06
2.76179e-06
2.89966e-06
2.17364e-06
0.0112676
1.87743e-06
0.0167412
0.0165209
2.43263e-06
1.06815e-05
0.0103939
1.94945e-06
2.32069e-06
0.114609
4.54749e-06
0.0072034
3.97175e-06
1.96181e-06
1.00288e-05
3.40117e-06
0.00844557
2.51989e-06
0.164797
3.11628e-06
0.00968983
2.7385e-06
0.00776212
2.09712e-05
9.73532e-06
2.90439e-06
0.0071845
0.000304683
2.04154e-06
0.0065199
2.36626e-06
0.000633658
1.86626e-06
0.00439598
4.1357e-06
2.37432e-06
3.34219e-06
1.88067e-06
1.77367e-06
3.28291e-06
6.26529e-06
2.39525e-06
5.71686e-06
2.55031e-06
3.21408e-06
0.0299316
1.83263e-06
2.0568e-06
0.0122288
1.76574e-06
2.26532e-06
2.41566e-06
0.00540061
2.35034e-06
0.193026
3.26249e-06
1.82116e-06
1.70707e-06
2.28837e-06
3.80491e-06
0.0345859
2.35696e-06
2.34835e-06
2.52758e-06
3.66415e-06
4.02795e-06
1.78146e-06
3.1606e-06
2.09509e-06
0.0317324
1.67975e-06
1.67659e-06
1.15999e-05
1.87287e-06
1.9269e-06
2.2863e-06
0.011629
2.27138e-06
1.91965e-06
0.00459361
3.36056e-06
2.7157e-06
0.0108118
3.24369e-06
1.78834e-06
2.15932e-06
2.1817e-06
1.87794e-06
2.37237e-06
2.47557e-06
2.24973e-06
0.004792
0.0119401
2.10252e-06
1.77251e-06
0.00926215
1.82743e-06
2.38874e-06
3.69698e-05
3.63147e-06
2.30948e-06
0.00206195
8.37785e-06
4.3839e-05
2.21745e-06
2.59072e-06
2.1109e-06
2.66845e-06
2.66124e-06
2.37331e-06
3.48051e-06
3.03379e-06
0.00743576
3.66441e-06
4.09917e-06
2.11524e-06
2.11379e-06
2.19013e-06
1.96123e-06
0.134704
2.75492e-06
1.70944e-06
0.145485
3.72291e-06
3.3499e-06
2.21552e-06
1.96261e-06
1.67829e-06
0.0956522
0.0026835
1.68613e-06
0.0148492
2.18328e-06
0.0606507
2.76965e-06
0.00420036
3.833e-06
0.0130558
1.69759e-06
2.92253e-06
0.153931
3.28488e-06
2.40092e-06
3.3256e-06
2.25144e-05
0.106248
3.72556e-06
3.10501e-06
3.29435e-06
2.83224e-06
0.050924
2.89446e-06
1.66766e-06
3.37087e-06
1.91616e-06
2.99884e-06
2.94506e-06
3.33157e-06
4.0011e-06
1.77704e-06
1.92799e-06
2.05021e-06
1.77632e-06
1.74795e-06
2.4013e-06
2.22076e-06
2.14979e-06
2.77193e-06
2.19622e-06
0.0114647
2.52625e-06
0.0186827
2.81846e-06
1.80085e-06
2.78816e-06
2.46565e-06
2.26678e-06
0.0060006
1.73622e-06
4.10666e-06
2.62486e-06
8.36397e-05
0.00615656
2.31781e-06
2.54417e-06
2.68947e-06
1.85236e-06
0.113834
2.29712e-06
0.00587423
2.90321e-06
1.767e-06
2.30972e-06
2.80675e-06
0.00757797
2.45737e-06
2.006e-06
2.83183e-06
1.96519e-06
2.49699e-06
0.00587798
2.35454e-06
0.0486331
2.56241e-06
2.27378e-06
0.00412898
4.10219e-06
2.72403e-06
2.23124e-06
2.15412e-06
8.03521e-06
0.00111571
2.50038e-06
0.00645797
2.91098e-06
2.04679e-06
2.64982e-06
4.26888e-06
2.35842e-06
2.41297e-06
0.000178383
2.35218e-06
2.66313e-06
3.78505e-06
0.00871354
3.05164e-06
0.0261628
0.0103403
1.98646e-06
2.3962e-06
2.28629e-05
1.86278e-06
2.74574e-06
0.00368724
3.43211e-06
2.54561e-06
2.09891e-06
1.93072e-06
2.27314e-06
4.1472e-06
2.40851e-06
1.77641e-06
0.000456723
2.62285e-06
0.000736471
1.96181e-06
2.58855e-06
2.03188e-06
2.3643e-06
0.00448222
0.0211839
2.64594e-06
2.16835e-06
2.95425e-06
1.78032e-06
2.3457e-06
0.00430171
2.82043e-06
0.00374047
2.57235e-06
3.43661e-05
0.000343063
1.17743e-05
3.53633e-06
2.51575e-06
2.13321e-06
3.62864e-06
2.42108e-06
7.48697e-06
2.29306e-06
2.67279e-06
1.77127e-06
1.99895e-06
0.00443552
3.00997e-06
1.86094e-06
2.46039e-06
2.96726e-06
4.14847e-06
3.77913e-06
0.0256235
2.17717e-06
3.29015e-06
0.0103504
1.92748e-06
2.06789e-06
2.60374e-06
4.14494e-06
3.13032e-06
2.89202e-06
3.1456e-06
2.03109e-06
1.83725e-06
0.00285935
1.87245e-06
0.0130332
1.70465e-06
2.3351e-06
0.00700158
1.68277e-06
4.04081e-06
2.37793e-06
0.0152722
0.00918721
2.10718e-06
3.12811e-06
2.91361e-06
2.11034e-06
2.15725e-06
2.4574e-06
0.0331112
2.51545e-06
2.04455e-06
3.02913e-06
1.79175e-06
3.0498e-06
1.77232e-06
0.00698947
1.73058e-06
1.69143e-06
3.0181e-06
3.61797e-06
2.62455e-06
2.64571e-06
0.00229817
1.97475e-06
1.87114e-06
2.10198e-06
2.79219e-06
0.0176837
1.83272e-05
2.99423e-06
2.86203e-05
0.082387
1.96346e-06
1.94731e-06
2.09602e-06
1.94735e-06
0.00637063
0.0119919
1.83077e-06
2.39406e-06
2.46712e-06
3.37202e-06
3.31093e-06
0.0129417
2.85576e-06
3.24926e-06
2.08282e-06
0.0188605
2.30415e-06
2.32853e-06
0.000356817
2.82277e-06
1.82817e-06
0.00507328
2.02626e-06
3.13635e-06
3.93547e-06
1.78386e-06
2.40793e-06
1.78404e-06
2.65114e-06
0.00674708
0.113069
2.77938e-06
2.00784e-06
1.90349e-06
2.13543e-06
3.36e-06
1.83521e-06
2.18187e-06
7.24075e-06
2.57014e-06
0.0185339
2.444e-06
6.39151e-06
1.76246e-06
2.12534e-06
0.00798339
0.120866
2.86059e-06
3.32804e-06
0.0915661
0.0187545
2.35242e-06
2.12788e-06
1.73861e-06
2.52881e-06
1.68266e-06
3.04973e-06
0.126039
4.00256e-06
2.55425e-06
0.00331092
3.0943e-06
0.00448529
1.7785e-06
0.00540995
2.20349e-06
2.01152e-06
2.24253e-06
1.97925e-06
3.03129e-06
3.89934e-06
1.86009e-06
1.03751e-05
0.0489922
0.00157634
3.17487e-06
2.11337e-06
2.3783e-06
0.00216979
2.65084e-06
0.00933388
1.10814e-05
2.05776e-06
1.04572e-05
2.16889e-06
3.34972e-06
3.71947e-06
4.10489e-06
5.49167e-06
3.33876e-06
2.05396e-06
2.12405e-06
2.83146e-06
3.99369e-06
1.80099e-06
0.0688695
2.126e-06
1.82591e-06
0.0124473
1.82289e-06
0.0233858
0.00399138
2.67641e-06
2.77645e-06
2.5856e-06
0.0001328
5.49832e-06
0.00775322
3.67228e-06
4.13654e-06
2.42853e-06
3.95035e-06
1.77656e-06
0.00956213
1.72469e-06
2.31558e-06
1.74512e-06
2.02876e-06
2.4024e-06
4.13952e-06
4.15036e-06
5.96964e-06
2.04593e-06
2.02494e-06
2.19736e-06
7.95947e-06
2.89797e-06
1.66949e-06
2.39449e-06
0.0102279
1.70601e-06
3.25346e-06
0.0201121
2.7228e-06
0.0102195
7.19341e-06
2.46761e-06
3.10807e-06
1.82459e-06
3.38786e-05
0.00761759
1.74751e-06
3.04543e-06
4.05889e-06
2.15248e-06
0.00420268
2.16516e-06
0.0211236
1.55196e-05
2.90297e-06
1.70572e-06
2.78649e-06
2.30787e-06
1.44064e-05
1.82358e-06
4.22534e-06
0.00979695
2.74876e-06
4.04056e-06
1.6735e-06
4.73685e-06
1.79838e-06
1.80218e-06
0.0464603
1.98173e-06
1.77354e-06
2.37835e-06
0.00130602
2.16162e-06
0.00414012
0.00608067
2.96669e-06
3.03239e-06
4.09206e-06
8.75625e-06
2.73564e-06
2.16401e-06
4.21835e-06
4.04975e-06
1.93393e-06
2.16086e-06
1.85947e-06
0.00106194
0.0558931
4.15638e-06
2.26261e-06
3.24121e-06
0.00735912
2.06088e-06
9.16387e-06
2.05206e-06
3.43479e-06
0.0438589
0.00769413
0.00201512
3.11905e-06
2.46714e-06
2.98262e-06
0.00459861
2.62034e-06
0.00366088
1.70634e-06
0.00904245
1.88891e-06
0.0299083
2.16329e-06
4.43531e-06
2.17516e-06
1.92959e-06
2.40611e-06
2.89982e-06
1.68032e-06
4.1084e-06
5.54488e-06
1.79007e-06
0.00636542
1.69362e-06
2.00019e-06
2.21231e-06
0.0343758
0.0218434
0.00334642
2.63088e-06
0.00962066
0.00424553
2.41303e-06
5.38573e-06
2.01653e-05
0.0598364
0.0180688
0.00957143
2.84441e-06
3.18112e-05
3.1603e-06
7.54368e-06
2.55111e-06
3.18574e-06
3.42195e-06
0.000209932
2.9621e-06
2.32642e-06
2.1931e-06
2.33589e-06
2.65668e-06
2.99159e-06
4.16187e-06
3.72045e-06
1.78364e-06
5.47777e-06
3.32677e-06
0.0884917
4.21355e-06
4.21143e-06
1.76143e-06
2.81769e-06
2.90045e-06
2.01178e-06
2.03519e-06
4.72129e-06
2.40119e-06
3.44707e-06
3.22108e-06
2.36684e-06
4.7543e-05
0.00488091
2.21407e-06
2.11445e-06
2.68628e-06
4.09758e-06
1.84646e-06
2.34443e-06
3.37203e-06
2.56267e-06
2.42498e-06
2.13616e-06
4.14285e-05
2.19176e-06
0.00165476
3.42426e-06
4.56744e-05
3.44477e-06
1.92876e-06
0.0131555
2.55296e-06
1.68753e-06
2.28235e-06
0.0409638
0.00504541
1.90295e-06
2.21171e-06
2.38552e-06
1.91061e-06
2.91252e-06
3.14201e-06
2.57241e-06
1.80819e-06
7.06698e-05
0.0165253
0.00714343
3.56484e-06
3.22915e-06
0.00611213
4.15407e-06
2.37448e-06
8.87594e-06
3.40079e-06
6.60318e-05
3.16899e-06
0.00442953
2.03343e-06
3.67902e-06
4.76408e-06
3.22012e-06
0.0157934
0.0050019
1.71619e-06
1.97697e-06
2.02818e-06
2.73748e-06
1.85261e-06
1.71795e-06
0.00963382
0.00728137
2.55339e-06
2.72454e-06
2.47276e-06
0.0188784
3.1188e-06
1.87312e-06
3.35997e-06
2.02514e-06
0.000837157
1.86673e-06
3.17518e-06
2.40011e-06
2.30424e-06
0.00958875
4.00316e-06
1.95423e-06
5.43211e-06
1.91962e-06
8.28938e-06
8.38127e-06
1.9477e-06
1.72849e-06
2.01586e-06
0.000625199
1.70563e-06
2.06401e-06
3.17644e-06
3.11198e-06
4.13718e-06
0.0161927
0.000531515
0.0300466
0.00515736
0.0547212
2.00145e-06
0.00786517
1.7416e-06
0.00409278
2.68038e-06
0.0256104
2.88776e-06
0.000494955
0.0188674
2.01209e-06
2.22898e-06
2.27928e-06
0.0133806
8.61028e-05
6.61559e-06
2.28037e-06
1.91621e-06
1.8789e-06
2.34825e-06
0.00495203
2.52675e-06
2.63079e-06
1.77172e-06
1.7412e-06
2.0349e-06
3.63314e-06
0.0324573
2.61116e-06
1.99673e-06
1.66755e-06
0.0915583
2.30026e-06
2.51098e-06
0.00739879
2.15441e-06
4.1438e-06
3.57528e-06
4.69049e-05
7.73431e-06
2.20968e-06
1.79553e-06
2.16068e-06
0.218187
3.0035e-06
2.37412e-06
2.56145e-06
2.05003e-06
0.00777455
2.52236e-06
4.48332e-06
0.00176316
0.0132669
2.07581e-06
2.34981e-06
1.89132e-06
1.74413e-06
0.00563511
0.00545731
0.00244488
3.62133e-06
0.0091769
0.141426
3.18789e-06
0.00466947
1.78453e-06
2.20608e-06
0.00440911
4.22135e-06
4.69707e-06
1.63462e-06
0.00706114
3.41136e-06
0.00615064
2.29763e-06
0.00426204
2.01989e-06
3.77598e-05
4.09233e-06
2.87122e-06
3.5137e-06
0.015995
2.16495e-06
2.18433e-06
1.95319e-06
7.39266e-06
2.36704e-06
2.88963e-06
0.0901719
2.31675e-06
0.22821
0.0923954
5.95035e-05
1.80138e-06
1.79741e-06
5.33644e-06
0.00423683
0.000237677
2.47639e-06
0.0590937
4.15039e-06
1.64156e-06
1.67838e-06
0.0228298
1.77766e-06
1.06413e-05
4.96586e-06
7.99649e-05
1.641e-06
0.0368822
4.15737e-06
3.74097e-06
2.46746e-06
0.0373319
2.40562e-06
2.84857e-06
1.99671e-06
0.152598
8.13169e-06
2.01408e-06
2.50038e-06
2.08402e-06
4.23092e-06
0.00454979
8.00817e-06
0.00581502
2.37656e-06
2.10404e-06
0.00420039
2.40808e-06
0.000210743
1.79829e-06
3.21191e-06
1.84639e-06
2.65735e-06
4.09781e-06
2.92387e-06
3.41009e-06
3.98483e-06
3.43413e-06
2.81583e-06
2.43878e-06
2.11304e-06
3.50355e-06
2.80504e-06
0.0129587
0.000301021
1.83731e-06
2.30002e-06
1.76334e-06
1.83638e-06
5.20841e-06
0.0496666
1.71168e-06
0.0237491
0.000137809
2.37787e-05
0.0562388
0.00749657
0.0714651
0.00468518
1.94421e-06
0.0106656
0.00752734
4.96969e-05
2.40036e-06
2.0671e-06
0.000276697
2.70056e-06
0.0092247
0.00674502
5.49663e-06
2.43084e-06
1.1465e-05
1.94659e-06
1.51559e-05
1.98058e-06
3.34399e-06
4.63698e-06
2.50914e-06
1.76864e-06
0.000625437
2.31255e-06
2.5236e-06
2.35438e-06
2.74753e-06
2.35221e-06
2.32176e-06
2.08949e-06
1.02338e-05
1.8898e-06
2.6641e-06
1.73861e-06
1.70517e-06
1.78874e-06
1.80515e-06
3.77083e-06
0.00951336
0.00479897
2.54642e-06
0.0008108
2.343e-06
2.90823e-06
4.83532e-06
2.27472e-06
0.000149077
2.9744e-05
0.0956307
2.68958e-06
2.3116e-06
0.00591112
2.08656e-06
0.00103503
2.12504e-06
1.77958e-06
2.85773e-06
0.00574287
1.89765e-06
0.15645
0.00420684
2.35646e-06
3.58693e-06
4.15037e-06
6.44587e-06
0.0165511
0.00485626
5.35087e-06
2.08022e-06
2.2224e-06
0.000180862
0.00848674
1.82267e-06
1.95788e-06
1.82523e-06
2.38006e-06
2.42399e-06
3.4015e-06
2.55204e-06
1.65356e-06
4.1049e-06
0.000357839
3.8779e-06
0.00431625
0.0744698
0.000165806
2.32774e-06
0.0126895
0.0174245
3.3264e-06
0.00276829
0.0697297
0.0172647
0.00391469
1.87808e-06
7.31085e-06
2.51946e-06
3.48001e-06
2.20615e-06
3.05893e-06
1.86481e-06
1.77232e-06
0.00012051
1.84982e-06
2.34208e-06
1.66524e-06
2.3263e-05
2.30345e-06
1.94016e-06
2.19865e-06
1.85704e-06
0.00745535
0.00720226
1.86484e-06
1.73332e-06
1.92999e-06
2.13585e-06
0.0207552
2.05084e-06
2.28505e-06
2.35693e-06
0.000172075
2.36857e-06
0.00601705
3.72315e-06
2.42689e-06
2.17385e-06
0.0163683
0.00683552
2.52282e-06
4.68631e-06
0.00909647
2.38115e-06
2.13723e-06
2.3652e-06
0.0100202
2.23919e-06
3.07552e-06
0.0741417
0.0132691
2.74622e-06
0.000544716
2.42939e-06
0.0527831
2.14898e-06
0.0104262
3.40546e-06
2.18854e-06
2.46648e-06
0.0494971
0.00769259
2.9486e-06
0.000112276
0.232178
1.86261e-06
1.97163e-06
0.00234955
1.93731e-06
6.49305e-06
3.49964e-06
0.0214412
7.34497e-05
3.48696e-06
2.65031e-06
3.10381e-06
3.78726e-06
1.86006e-06
2.22744e-06
2.18204e-06
2.28987e-06
3.30424e-06
1.92027e-06
1.72271e-06
2.60572e-06
2.8284e-06
3.23552e-06
2.24957e-06
7.69735e-06
0.00926883
2.72534e-06
2.33782e-06
2.74236e-06
3.25187e-05
2.38921e-06
0.023256
2.18262e-06
3.82135e-06
1.95371e-06
3.30815e-06
3.29459e-06
2.34997e-06
1.66625e-06
2.06084e-06
2.85411e-06
5.84433e-05
2.17911e-06
8.52186e-06
0.0227325
0.00247437
2.61537e-06
4.58058e-05
0.0778375
4.71274e-06
2.27055e-06
2.45572e-06
2.11871e-06
3.17704e-06
2.16363e-06
2.7457e-06
1.93761e-06
1.56794e-05
1.75845e-06
2.03007e-06
2.8175e-06
0.00797835
1.98689e-06
1.83782e-06
2.47096e-06
0.00635912
0.0170023
3.05853e-06
1.91579e-06
1.1426e-05
3.55715e-06
0.00185594
0.00497402
2.77539e-06
0.00522374
3.30054e-06
8.69998e-06
2.17036e-06
0.00626779
2.17633e-06
3.06987e-06
2.73074e-06
0.00504757
5.17771e-06
6.96906e-06
0.0061352
1.94854e-06
2.24979e-06
1.77921e-06
0.00128952
0.0116134
0.00442889
0.00247396
2.18403e-06
5.9244e-06
2.85064e-06
3.40806e-06
0.000145145
2.00662e-06
0.0103967
5.95752e-05
2.11516e-06
2.36323e-06
0.0100488
0.00609582
1.80998e-06
0.0112706
1.91962e-06
2.38727e-06
0.00238604
2.36329e-06
0.0057137
1.75325e-06
1.91665e-06
1.88569e-06
0.00231181
1.76228e-06
3.41057e-06
0.00908749
3.47934e-06
2.06097e-06
1.83289e-06
1.67004e-06
1.69826e-06
0.00527441
9.10136e-06
2.33252e-06
2.22621e-06
0.00748715
2.52475e-06
3.21177e-06
0.00222038
2.00702e-06
1.85641e-06
2.64623e-06
2.41628e-06
0.00415791
2.64893e-06
1.99026e-06
0.000113037
2.17972e-06
0.0114948
0.00608797
3.39051e-05
7.99182e-05
3.02242e-06
1.90159e-06
6.49053e-06
2.87152e-06
0.0815225
0.00511288
1.10653e-05
0.0014837
1.84696e-06
7.62017e-06
0.0122597
1.92598e-06
2.16563e-06
0.015421
0.0099043
2.31717e-06
1.7672e-06
1.87033e-06
1.79707e-06
0.00407593
2.15173e-06
0.0204282
6.96842e-06
2.21383e-06
2.20248e-06
4.84777e-06
2.25741e-06
1.87467e-06
5.92847e-06
2.88165e-06
2.52667e-06
2.03159e-06
3.10554e-06
2.57867e-06
1.91396e-06
1.95351e-06
1.65903e-06
2.13546e-06
0.00458109
2.08221e-06
0.00427905
1.99498e-06
0.000113552
1.76941e-06
2.32139e-06
0.000915724
0.00333416
2.28778e-06
0.0776896
1.91255e-06
0.0118326
2.72124e-05
0.00952082
2.82403e-06
2.50335e-06
3.36824e-06
0.00465054
1.72131e-06
2.33927e-06
1.87991e-06
0.00486393
0.00892646
2.10133e-06
2.5009e-06
0.0372054
0.00509493
1.82385e-05
0.0225764
2.07825e-06
2.77778e-06
0.0209399
2.3966e-06
2.90743e-06
1.41112e-05
3.03846e-06
1.94434e-06
1.93514e-06
1.65478e-06
0.00637051
0.00297391
0.00779763
2.1443e-06
1.0688e-05
2.30846e-06
1.73055e-06
0.0258299
2.2405e-06
1.92621e-06
1.82351e-06
7.59612e-06
3.32189e-05
0.0192978
2.10966e-06
0.00703323
2.34837e-06
0.0333536
6.29222e-06
0.0792415
1.97687e-06
0.00187995
2.08169e-06
2.39441e-06
1.9124e-06
1.88082e-06
1.77487e-06
3.05304e-06
1.9981e-06
1.94127e-06
1.93514e-06
2.01022e-06
0.00657134
0.287827
0.00146231
0.00492199
0.00110922
0.0063599
2.40024e-06
1.80658e-06
2.32129e-06
3.16445e-06
8.01386e-06
2.5216e-06
1.85242e-06
2.2939e-06
2.48808e-06
2.22834e-06
0.0205653
2.11738e-06
7.24064e-06
0.00661391
2.89065e-06
1.96736e-06
3.57114e-06
6.67831e-06
0.00462643
2.16237e-06
0.00549413
2.36477e-06
2.77517e-06
1.8044e-06
0.0318239
1.8528e-06
0.00535137
0.00139451
0.00491122
0.000722971
3.43548e-06
5.76286e-06
0.00491101
0.00725875
6.52574e-06
1.66665e-06
4.3512e-06
0.0679933
3.36537e-06
2.08954e-06
5.04499e-06
2.25187e-06
0.0293108
1.97904e-06
2.09053e-06
1.99833e-06
0.00565368
0.0155169
2.12264e-06
9.53125e-05
3.25325e-06
2.08241e-06
0.265654
2.38225e-06
1.91456e-06
2.36177e-06
1.93841e-06
4.35511e-06
3.18912e-06
5.22529e-06
0.00441331
2.2701e-06
0.0457409
1.97436e-06
2.52102e-06
1.9117e-06
1.9197e-06
0.0146804
2.00634e-06
2.32721e-06
0.00543915
1.94062e-06
2.23272e-06
2.75349e-06
3.23389e-06
1.91901e-06
0.0140859
1.96893e-06
2.0323e-06
2.4936e-06
0.0796911
2.91548e-06
0.0165188
2.14971e-06
0.000986766
2.11068e-06
0.022072
2.15057e-06
7.10743e-06
2.2792e-06
1.82194e-06
2.62502e-06
2.73081e-06
2.83546e-06
2.01897e-06
0.00584172
3.0028e-06
2.39186e-06
1.90764e-06
0.0085108
2.92925e-06
0.00373657
4.55168e-06
0.00859131
9.70147e-05
0.00841663
2.3897e-06
1.9102e-06
2.69069e-06
1.96819e-06
0.00849197
0.0148554
0.0205457
8.97526e-05
2.75004e-06
1.99176e-06
3.99992e-05
2.17754e-06
1.91337e-06
1.81392e-06
2.65978e-06
2.47463e-06
2.20696e-06
2.35391e-06
1.84789e-06
4.17361e-06
0.000533997
0.00819274
1.90207e-06
2.75798e-06
1.96551e-06
0.0254441
0.0116398
2.60723e-06
2.15904e-06
2.16346e-06
2.12371e-06
0.00544379
2.34587e-06
1.94094e-06
0.00515936
1.67262e-06
5.03187e-06
0.0648814
2.70749e-06
1.71158e-06
1.87867e-06
2.12257e-06
1.96559e-06
2.89863e-06
2.3115e-06
0.00925161
0.00430178
1.78955e-06
0.151683
3.53528e-06
0.0128117
2.59891e-06
1.91753e-06
3.47602e-06
2.69236e-06
0.000396304
0.00431151
1.45263e-05
3.02444e-06
1.89098e-06
2.16711e-06
2.08631e-06
1.89234e-06
2.72897e-06
0.0323907
0.00514426
0.00479176
3.49191e-06
0.00464278
2.39083e-06
0.00527649
0.00244874
3.28427e-06
0.0214023
0.00189982
2.27423e-06
2.46006e-06
1.70207e-06
1.79031e-06
2.49729e-06
2.05952e-06
1.97124e-06
3.62671e-06
0.010811
2.03646e-06
1.63362e-06
2.39718e-06
1.71716e-06
1.9133e-06
1.93083e-06
2.44892e-06
0.00251034
1.6975e-06
0.0067679
0.00531544
3.28668e-06
4.58697e-05
2.25965e-06
1.81155e-06
1.83407e-06
0.00632304
2.11996e-06
1.96078e-06
0.008896
2.22172e-06
1.97195e-06
3.51451e-06
2.38346e-06
2.12111e-06
1.97791e-06
2.30186e-06
2.10833e-06
3.78533e-06
2.0687e-06
2.60001e-06
1.7553e-06
3.40066e-06
2.37689e-06
0.0439525
2.4422e-06
1.97741e-06
0.00576548
3.03395e-06
2.27227e-06
1.72772e-06
2.06721e-06
2.61803e-06
3.18738e-06
5.19454e-06
1.72514e-06
2.02441e-06
2.10811e-06
2.19238e-06
0.00741873
3.59271e-06
1.97679e-06
4.70168e-06
3.72942e-06
0.00300529
0.0572101
1.73916e-06
1.57152e-05
2.57979e-06
0.0514586
0.000239078
1.80895e-06
0.0368237
2.29791e-06
2.59974e-06
2.01326e-06
1.99081e-06
2.36322e-06