/*--------------------------------*- C++ -*----------------------------------*\
| =========                 |                                                 |
| \\      /  F ield         | OpenFOAM: The Open Source CFD Toolbox           |
|  \\    /   O peration     | Version:  v2012                                 |
|   \\  /    A nd           | Website:  www.openfoam.com                      |
|    \\/     M anipulation  |                                                 |
\*---------------------------------------------------------------------------*/
FoamFile
{
    version     2.0;
    format      ascii;
    class       volScalarField;
    location    "100";
    object      epsilon_0;
}
// * * * * * * * * * * * * * * * * * * * * * * * * * * * * * * * * * * * * * //

dimensions      [0 2 -3 0 0 0 0];


internalField   nonuniform List<scalar> 
13749
(
1.9063e-06
3.4661e-06
2.88636e-06
2.08889e-06
2.2152e-06
2.24179e-06
3.90792e-06
1.64353e-06
2.77857e-06
2.08067e-06
2.28761e-06
3.08183e-06
2.14962e-06
0.00537568
0.00710392
1.65963e-06
2.51061e-06
4.7751e-06
2.94409e-06
3.35559e-06
0.0213566
0.00709182
0.00403879
2.36563e-06
2.22315e-06
1.99113e-06
1.96469e-06
2.04657e-06
1.83771e-06
2.40686e-06
3.62244e-05
0.00810124
2.33869e-06
1.84682e-06
2.15997e-06
1.88515e-06
2.82708e-06
2.41629e-06
1.87606e-06
1.9406e-06
2.24343e-06
0.0331985
2.34883e-06
2.37539e-06
5.11124e-06
1.97798e-06
3.08621e-06
2.49037e-06
1.93737e-06
0.0513893
2.39436e-06
0.0203125
1.95387e-06
9.22924e-05
2.21524e-06
1.94392e-06
2.14258e-06
2.33554e-06
2.0942e-06
0.00277778
2.33515e-06
1.99994e-06
0.00778857
3.11922e-06
1.96281e-06
2.37923e-06
2.75933e-06
2.4283e-06
1.67299e-06
1.97126e-06
0.00447662
2.25796e-06
0.001466
1.9725e-06
4.56746e-06
4.37815e-06
1.71686e-06
2.10277e-06
2.12962e-06
4.06876e-06
1.87992e-06
2.2521e-06
2.3724e-06
1.83104e-06
2.29376e-06
3.84768e-06
0.00638393
7.41712e-06
2.18086e-06
2.46318e-06
2.29373e-06
0.000242146
1.95741e-06
0.00147636
1.76521e-05
2.37671e-06
1.78783e-06
3.29875e-06
2.23209e-06
2.38548e-06
0.0133923
1.90953e-06
1.75791e-06
0.00780585
4.03563e-06
0.00784853
2.54743e-06
2.76543e-06
2.46011e-06
2.99816e-06
3.04185e-06
2.3433e-06
2.60907e-06
0.188554
0.0160268
1.82512e-06
1.91355e-06
2.2111e-06
2.6144e-06
2.04048e-06
1.64698e-06
3.89036e-06
1.80224e-06
1.74505e-06
2.24236e-06
0.00454306
2.23816e-06
0.0108389
1.8599e-06
0.00148789
2.05083e-06
0.00669124
0.00787075
3.33784e-05
2.11113e-06
2.45686e-06
4.73962e-06
1.91572e-06
1.77527e-06
0.0450704
2.57179e-06
1.87571e-06
1.86696e-06
0.0309249
2.18772e-06
0.073589
2.08055e-06
2.4121e-06
2.60133e-06
2.75513e-06
2.19388e-06
1.80262e-06
0.0080508
0.00028466
1.69403e-06
0.0110158
2.07103e-06
2.17452e-06
3.63278e-06
2.69403e-06
0.16784
2.80879e-06
0.0307229
2.34137e-06
3.31046e-06
2.48115e-06
6.2628e-06
2.91439e-06
2.39636e-06
2.16251e-06
1.87407e-06
2.98844e-06
1.92089e-06
1.81475e-06
2.45559e-06
4.2766e-06
4.93625e-06
1.69618e-06
0.0108913
0.0120366
4.09677e-06
1.83334e-06
1.8122e-06
3.42738e-05
0.000279974
2.4465e-06
0.02999
2.10151e-06
0.00169706
2.31764e-06
1.81822e-06
0.00437795
1.67243e-06
2.86542e-06
0.0267425
3.83505e-06
2.21197e-06
0.105073
1.83325e-06
1.86543e-06
1.78507e-06
2.28151e-06
2.16891e-06
2.32239e-06
0.00654192
1.85171e-06
2.13375e-06
2.90332e-06
0.00020436
2.68697e-06
1.81815e-06
0.00466097
0.0370691
9.96385e-06
1.98011e-06
2.7903e-06
0.00563813
1.95731e-06
0.00652241
1.85604e-06
0.0172321
2.32822e-06
9.28341e-05
0.00462241
2.3289e-06
0.000531434
1.8514e-06
2.62174e-06
0.00667023
0.00392193
2.98655e-06
4.26051e-06
3.82833e-06
3.10539e-06
0.00494463
2.23542e-06
3.16409e-06
0.000205926
3.39094e-06
2.51961e-06
2.20497e-06
0.00672345
0.00160894
3.10267e-06
2.37359e-06
0.0271267
2.26548e-06
0.0070962
1.9587e-06
2.98377e-06
0.0400398
2.4474e-06
2.42689e-06
1.95649e-06
2.7431e-06
1.86478e-06
2.78623e-06
0.0307606
3.89756e-06
0.118817
1.77259e-06
2.39307e-06
2.49697e-06
2.04644e-06
2.57123e-06
4.68014e-06
4.50763e-05
2.00352e-06
3.34578e-06
2.71885e-06
1.76809e-06
0.0171312
2.55429e-06
0.0319358
2.10284e-06
0.00945654
0.0414601
1.80625e-06
2.66903e-06
1.80544e-06
2.49887e-06
1.99697e-06
0.000248734
0.0242686
1.89428e-06
2.58718e-06
2.0996e-06
2.07821e-06
0.000927134
2.20763e-06
4.31748e-05
1.98189e-06
0.00709469
2.28245e-06
0.00467909
0.000174554
3.21511e-06
1.89151e-06
1.84308e-06
1.91342e-06
1.72246e-06
2.16436e-06
1.79034e-06
0.0379976
1.80216e-06
1.7633e-06
1.78439e-06
3.33432e-06
1.68661e-06
1.82223e-06
0.0184119
2.25323e-06
2.01439e-06
0.0112872
1.78258e-06
2.21694e-06
1.76373e-06
0.00518565
2.02717e-06
1.72779e-06
6.89241e-06
0.0265152
2.05027e-06
4.26866e-06
0.0638655
4.12909e-06
2.16999e-06
1.838e-06
2.65197e-06
2.56031e-06
1.85047e-06
3.13925e-06
1.73064e-06
2.04278e-06
2.02653e-06
1.77916e-06
1.98372e-06
1.96946e-06
2.66513e-06
2.33974e-06
3.25314e-06
3.99242e-05
2.05456e-06
0.00116941
2.67758e-06
1.77167e-06
1.72647e-06
2.49729e-06
2.101e-06
2.70205e-06
2.29912e-06
2.29086e-06
0.173194
0.183941
1.99241e-06
2.25013e-06
2.32974e-06
0.000222787
2.45613e-06
0.000158483
3.01278e-06
4.22725e-06
1.98954e-06
0.0248244
2.70049e-06
2.63413e-06
2.43346e-06
0.0174426
0.00800614
3.24576e-06
0.00470224
1.87241e-06
2.3808e-06
4.13474e-06
2.65584e-06
1.93068e-06
2.44441e-06
0.111425
3.90517e-06
1.79991e-06
3.89752e-06
3.27662e-06
0.00744042
2.48901e-06
4.10153e-06
2.0301e-06
0.00868735
2.36183e-06
2.70927e-06
1.75329e-06
5.20389e-06
4.23065e-05
0.0306487
2.26272e-06
2.3141e-06
0.000126324
0.202069
3.51792e-05
2.83608e-06
0.000515965
2.79165e-06
2.30739e-06
3.12627e-06
3.01071e-06
1.68827e-06
1.89125e-06
0.00596835
2.8917e-06
2.79544e-06
2.0845e-06
1.8238e-06
1.76549e-06
2.82206e-06
0.0117693
2.4267e-06
3.94262e-06
0.00513297
0.00504455
1.81289e-06
2.38493e-06
2.65308e-06
2.26135e-06
0.00104444
1.74748e-06
0.000125877
2.78937e-06
3.08617e-06
0.123195
0.0103181
3.91594e-06
6.25852e-06
4.08239e-06
3.14833e-06
2.43001e-06
9.84791e-05
1.96547e-06
1.9298e-06
1.98312e-06
2.42337e-06
0.0176361
2.79135e-06
2.51651e-06
4.17765e-06
1.8063e-06
2.06838e-06
1.78705e-06
2.69133e-06
1.0278e-05
2.66913e-06
4.32273e-06
0.000213394
2.38143e-06
0.00966875
1.98392e-06
0.034379
1.93991e-06
2.07515e-06
2.09098e-06
0.00865963
3.2776e-06
3.19874e-06
4.23369e-06
1.74298e-06
0.0165277
1.8823e-06
1.73022e-06
3.35216e-06
9.51253e-06
0.209679
2.38186e-06
0.001794
2.71355e-06
7.19553e-06
0.0122506
2.36919e-06
2.67014e-06
2.68828e-06
2.40611e-06
2.96677e-06
2.52687e-06
2.05472e-06
1.6712e-06
1.82022e-06
0.00738339
0.0114156
0.000201892
0.0273433
0.0075532
2.1671e-06
1.76093e-06
1.82926e-06
1.66768e-06
3.09431e-06
1.92701e-06
1.8283e-06
2.06454e-06
0.0317272
1.98172e-06
0.198736
2.26484e-06
2.5362e-06
0.00477056
1.72099e-06
0.000151231
1.97179e-06
0.00976651
2.4595e-06
3.03626e-06
2.41554e-06
2.06366e-06
4.10271e-06
1.8418e-06
2.14807e-06
0.0226565
1.73462e-06
0.0277755
2.36919e-06
0.00247777
1.95313e-06
2.91689e-06
0.00260639
0.0170311
2.34834e-06
2.45102e-06
2.38398e-06
1.67946e-06
3.01764e-06
1.95742e-06
2.0687e-06
2.90616e-06
2.27794e-06
2.48738e-05
2.36662e-06
1.73122e-06
1.78735e-06
2.25011e-06
2.85826e-06
0.00228432
0.00700304
0.00506966
0.00262776
0.00121371
3.8231e-06
5.64457e-05
0.0531234
2.30496e-06
2.24432e-06
0.00620018
0.015737
0.00201986
2.24654e-06
2.47639e-06
0.00864296
2.09836e-06
2.02773e-06
1.83543e-06
3.02338e-06
1.93986e-06
1.68155e-06
0.0139142
0.00510375
1.88409e-06
1.74234e-06
0.000504041
2.48784e-06
0.0171966
3.23706e-06
3.09021e-06
2.08997e-06
5.91504e-06
3.93455e-06
9.49619e-06
0.00630285
3.14815e-06
1.82286e-06
1.79147e-06
0.0117526
0.0130069
2.01868e-06
2.38597e-06
1.93393e-06
3.00236e-06
0.0666416
2.32541e-06
2.21858e-06
4.1584e-06
0.0149747
0.00325308
2.76912e-06
2.05638e-06
1.87693e-06
1.72581e-06
2.1738e-06
2.3178e-06
0.00598815
0.00273947
2.11775e-06
0.0425991
0.0332724
1.70417e-06
1.70662e-06
0.00296324
5.24927e-06
0.0113094
0.0769934
1.88922e-06
1.92486e-06
0.011522
0.054718
4.14369e-06
2.45524e-06
1.78101e-06
2.29706e-06
0.00606818
2.29455e-06
2.02484e-06
2.22255e-06
2.21611e-06
2.53251e-06
1.98302e-06
6.99556e-06
2.69224e-06
3.48608e-05
2.08407e-06
5.40926e-05
0.047893
3.99614e-06
0.000690312
1.67901e-06
2.68872e-06
0.00314172
1.87091e-06
2.68881e-06
2.4872e-06
1.73765e-06
2.9271e-06
1.71036e-06
1.7907e-06
0.00335621
2.07911e-06
1.89695e-06
2.70165e-06
2.3967e-06
0.0481571
4.1705e-06
1.78128e-06
4.13068e-06
2.34162e-06
0.0268957
0.00780502
1.76713e-06
1.81708e-06
2.39691e-06
1.73658e-06
3.17325e-06
1.93851e-06
8.89278e-06
0.0106855
2.749e-06
4.10059e-06
1.96794e-06
2.92095e-06
4.04236e-06
6.20108e-06
3.12681e-06
0.0141468
2.18155e-06
2.45955e-06
3.48797e-06
2.0058e-06
0.00491581
3.07412e-06
4.17267e-05
1.79578e-06
1.68444e-06
1.05163e-05
2.37614e-06
1.89537e-06
0.00797157
0.00621602
4.76646e-06
2.73742e-06
0.0176324
2.49683e-06
2.7559e-06
1.73891e-06
4.42194e-06
2.70996e-06
1.85913e-06
0.0126546
0.045222
2.11678e-06
2.21472e-06
1.95082e-06
1.88379e-06
0.00605488
2.42364e-06
1.88085e-06
2.3174e-06
2.15112e-06
1.95235e-06
1.77204e-06
2.23434e-06
2.06234e-06
4.09709e-06
1.70449e-06
2.35235e-06
0.0055839
2.25116e-06
7.14597e-06
1.78925e-06
2.26895e-06
0.0117058
2.07941e-06
1.71595e-06
0.000348118
0.0108824
3.30069e-06
0.0239185
2.01627e-06
2.25503e-06
2.38359e-06
2.34484e-06
0.203698
2.46866e-06
2.83039e-06
0.027795
2.3382e-06
2.28285e-06
3.65203e-06
2.28551e-06
9.74548e-06
7.34269e-06
0.00179924
0.000736569
2.9614e-06
1.79726e-06
2.17602e-06
1.92701e-06
2.11058e-06
0.00485318
2.74378e-06
1.81301e-06
2.67052e-06
5.24626e-05
1.77272e-06
2.56111e-06
2.31358e-06
2.31211e-06
2.52201e-06
0.00694653
2.67899e-06
2.24945e-06
2.7061e-06
2.79522e-06
0.00151774
1.83512e-06
2.43489e-06
2.17498e-06
2.01916e-06
2.05174e-06
0.003584
3.94047e-06
1.88878e-06
0.000130817
0.00529281
4.15647e-06
2.46534e-06
3.63726e-06
2.19769e-06
0.000781082
0.00860701
0.00696948
3.24527e-06
2.39167e-06
0.00730875
2.52395e-06
2.19928e-06
4.49725e-06
1.74294e-06
2.03118e-06
1.75199e-06
0.00352181
1.69605e-06
0.00992702
1.71931e-06
0.054439
2.94894e-06
0.0149372
0.0119188
0.00498039
0.00457012
3.91901e-06
1.91365e-06
0.0528657
2.16132e-06
2.21735e-06
3.17302e-06
1.06072e-05
2.66284e-06
0.0252616
6.18299e-06
2.33585e-06
2.38803e-06
2.37539e-06
0.0072926
2.21278e-06
2.24119e-06
2.76241e-06
0.00593316
1.10683e-05
3.45308e-06
2.82048e-06
0.016617
2.06706e-06
0.0136044
4.09985e-06
0.00134486
1.79482e-06
2.87371e-06
2.38143e-06
9.21628e-06
2.97914e-06
1.78303e-06
2.72325e-06
2.48721e-06
0.00770351
0.00522252
0.00814596
0.00717276
4.62124e-06
0.00315903
2.4907e-06
0.000164433
2.71736e-06
0.000307214
9.67945e-06
2.04366e-06
9.77708e-06
7.36406e-06
1.02852e-05
2.92747e-06
3.11047e-06
0.0715965
2.93958e-06
1.82883e-06
2.74344e-06
3.14914e-06
2.90426e-06
0.0045178
3.99174e-06
2.04304e-06
2.89047e-06
3.34873e-06
1.80267e-06
2.28879e-06
2.38428e-06
1.69781e-06
1.44789e-05
3.47057e-06
6.06311e-06
0.0212525
2.8229e-06
3.96627e-06
1.9077e-06
5.9396e-05
3.54296e-06
0.00433949
3.00747e-06
3.36906e-06
0.0454709
2.37565e-06
0.0120723
2.05513e-06
9.96697e-06
0.000432074
3.13608e-06
4.22369e-06
1.69273e-06
0.00467266
1.82159e-06
0.00105181
1.85955e-06
2.33709e-05
2.09802e-06
3.91712e-06
0.00563711
2.33687e-06
0.00679152
1.94864e-05
2.6545e-06
1.85362e-06
0.0114887
2.06434e-06
2.74518e-06
0.0725214
3.46608e-06
3.21972e-06
2.15507e-06
1.80814e-06
1.85849e-06
2.66237e-06
4.27112e-06
2.72336e-06
0.00582462
2.42186e-06
2.47242e-06
2.36718e-06
0.000286868
2.30435e-06
3.27186e-06
2.06508e-06
2.06626e-06
4.10466e-06
2.70964e-06
2.33604e-06
2.28195e-06
6.78333e-06
7.82873e-05
1.82265e-06
4.06792e-06
2.50936e-06
3.88465e-06
1.79625e-06
0.000250696
2.37789e-06
2.61107e-06
0.00119853
4.13684e-06
1.06057e-05
1.8679e-06
2.29616e-06
3.18741e-06
9.65983e-06
2.3346e-06
4.04629e-06
2.4693e-06
1.70868e-06
2.23372e-06
1.96485e-06
2.83903e-06
2.9283e-06
0.00675845
4.20617e-06
0.0182282
0.046524
3.33518e-06
0.0264209
2.32831e-06
2.30281e-06
2.37753e-06
4.21124e-06
1.79889e-06
2.74785e-06
2.14364e-06
2.74585e-06
1.95616e-06
2.39519e-06
3.11958e-06
0.00580083
1.91798e-06
0.00962537
4.27275e-06
2.54464e-06
1.8084e-06
2.49698e-06
0.0104002
0.00601989
0.153871
2.17995e-06
1.67431e-06
0.00357738
2.47804e-06
3.28152e-06
2.44057e-06
2.32465e-06
1.71808e-06
0.00829632
2.87855e-06
1.88874e-06
2.14025e-06
1.05853e-05
2.44767e-06
6.22806e-06
1.91059e-06
0.0167217
2.32274e-06
1.93717e-06
3.21045e-06
0.00124607
2.30778e-06
9.78939e-06
2.35062e-06
2.60499e-06
3.80768e-06
4.14914e-06
3.25309e-06
2.76189e-06
2.89968e-06
2.17361e-06
0.0112675
1.87743e-06
0.0167416
0.0165207
2.43267e-06
1.06805e-05
0.0103939
1.94945e-06
2.32074e-06
0.114608
4.54751e-06
0.00720339
3.97176e-06
1.9618e-06
1.00289e-05
3.40117e-06
0.0084456
2.51988e-06
0.164802
3.11632e-06
0.00968979
2.73853e-06
0.00776223
2.09754e-05
9.7346e-06
2.90438e-06
0.0071845
0.000304844
2.04157e-06
0.0065199
2.36625e-06
0.000633483
1.86624e-06
0.00439595
4.1357e-06
2.37431e-06
3.34215e-06
1.88065e-06
1.77364e-06
3.28291e-06
6.2652e-06
2.39526e-06
5.71699e-06
2.55029e-06
3.21417e-06
0.0299313
1.83264e-06
2.05684e-06
0.0122287
1.76574e-06
2.26537e-06
2.41564e-06
0.00540059
2.35034e-06
0.193031
3.26248e-06
1.82113e-06
1.70707e-06
2.28836e-06
3.80493e-06
0.0345864
2.35696e-06
2.34837e-06
2.52757e-06
3.66421e-06
4.02797e-06
1.78147e-06
3.16057e-06
2.09511e-06
0.031732
1.67975e-06
1.67659e-06
1.15985e-05
1.87286e-06
1.92692e-06
2.28631e-06
0.0116289
2.27139e-06
1.91963e-06
0.00459358
3.36056e-06
2.71565e-06
0.0108118
3.24367e-06
1.78834e-06
2.15932e-06
2.18172e-06
1.87791e-06
2.37234e-06
2.47558e-06
2.24972e-06
0.00479196
0.01194
2.10255e-06
1.77247e-06
0.0092622
1.82745e-06
2.38874e-06
3.69163e-05
3.63151e-06
2.30949e-06
0.00206194
8.37811e-06
4.36303e-05
2.21745e-06
2.59069e-06
2.11092e-06
2.66853e-06
2.66126e-06
2.37326e-06
3.48046e-06
3.03379e-06
0.0074358
3.66446e-06
4.0992e-06
2.11519e-06
2.11384e-06
2.1901e-06
1.96123e-06
0.134707
2.75486e-06
1.70944e-06
0.145485
3.72294e-06
3.34996e-06
2.21555e-06
1.96262e-06
1.67829e-06
0.095648
0.0026835
1.68613e-06
0.014847
2.18334e-06
0.0606497
2.76965e-06
0.00420033
3.833e-06
0.0130557
1.69758e-06
2.92254e-06
0.153934
3.28492e-06
2.40091e-06
3.3256e-06
2.25178e-05
0.106248
3.72559e-06
3.10502e-06
3.29436e-06
2.83225e-06
0.050923
2.89446e-06
1.66766e-06
3.37087e-06
1.91615e-06
2.99883e-06
2.94502e-06
3.33161e-06
4.00115e-06
1.77703e-06
1.92798e-06
2.0502e-06
1.77632e-06
1.74795e-06
2.40131e-06
2.22075e-06
2.14977e-06
2.77196e-06
2.19626e-06
0.0114646
2.52633e-06
0.0186802
2.81841e-06
1.80085e-06
2.78816e-06
2.46565e-06
2.26676e-06
0.0060006
1.73623e-06
4.10671e-06
2.62486e-06
8.35338e-05
0.00615657
2.31783e-06
2.5442e-06
2.68938e-06
1.85236e-06
0.11383
2.29711e-06
0.00587432
2.9033e-06
1.767e-06
2.30972e-06
2.80674e-06
0.00757802
2.45735e-06
2.006e-06
2.83184e-06
1.9652e-06
2.49698e-06
0.00587798
2.35453e-06
0.0486328
2.5624e-06
2.27376e-06
0.00412904
4.10219e-06
2.72401e-06
2.23124e-06
2.1541e-06
8.08017e-06
0.00111566
2.50035e-06
0.00645801
2.911e-06
2.04682e-06
2.64983e-06
4.26888e-06
2.35836e-06
2.41309e-06
0.000178456
2.35217e-06
2.66315e-06
3.78506e-06
0.00871354
3.05169e-06
0.0261628
0.0103403
1.98647e-06
2.39621e-06
2.2851e-05
1.86276e-06
2.74575e-06
0.00368726
3.43207e-06
2.54567e-06
2.09892e-06
1.9307e-06
2.27315e-06
4.14722e-06
2.40854e-06
1.77638e-06
0.000456905
2.62608e-06
0.000736525
1.96178e-06
2.58853e-06
2.03189e-06
2.36428e-06
0.00448219
0.0211835
2.64588e-06
2.16831e-06
2.95426e-06
1.78033e-06
2.34571e-06
0.00430168
2.82045e-06
0.00374061
2.57233e-06
3.43575e-05
0.000342866
1.17731e-05
3.5363e-06
2.51567e-06
2.13318e-06
3.62864e-06
2.42108e-06
7.48715e-06
2.29306e-06
2.6728e-06
1.77127e-06
1.99895e-06
0.00443574
3.00992e-06
1.86097e-06
2.46039e-06
2.96724e-06
4.14848e-06
3.77914e-06
0.0256236
2.17713e-06
3.29018e-06
0.0103513
1.92749e-06
2.0679e-06
2.60374e-06
4.14504e-06
3.13031e-06
2.8921e-06
3.14563e-06
2.03107e-06
1.83725e-06
0.00285936
1.87246e-06
0.0130331
1.70465e-06
2.33507e-06
0.00700159
1.68276e-06
4.04087e-06
2.37792e-06
0.0152722
0.00918722
2.10717e-06
3.1281e-06
2.91367e-06
2.11035e-06
2.15723e-06
2.45741e-06
0.0331142
2.51552e-06
2.04453e-06
3.02914e-06
1.79176e-06
3.0498e-06
1.77233e-06
0.00698947
1.73059e-06
1.69143e-06
3.01804e-06
3.61794e-06
2.62456e-06
2.64572e-06
0.00229809
1.97474e-06
1.87114e-06
2.10196e-06
2.7921e-06
0.0176837
1.83335e-05
2.99425e-06
2.8618e-05
0.0823843
1.96347e-06
1.94731e-06
2.09603e-06
1.94735e-06
0.0063706
0.0119918
1.83079e-06
2.39406e-06
2.46716e-06
3.37204e-06
3.31093e-06
0.0129416
2.85579e-06
3.24926e-06
2.08284e-06
0.0188606
2.30415e-06
2.32854e-06
0.000357232
2.82273e-06
1.82817e-06
0.00507328
2.02624e-06
3.13636e-06
3.93547e-06
1.78388e-06
2.40793e-06
1.78403e-06
2.65115e-06
0.00674707
0.113061
2.77939e-06
2.00782e-06
1.90348e-06
2.13543e-06
3.36005e-06
1.83521e-06
2.18185e-06
7.23926e-06
2.57015e-06
0.0185338
2.44398e-06
6.39146e-06
1.76246e-06
2.12514e-06
0.00798348
0.120869
2.86057e-06
3.32805e-06
0.0915666
0.0187543
2.35241e-06
2.12788e-06
1.73862e-06
2.5288e-06
1.68266e-06
3.04973e-06
0.126038
4.00237e-06
2.55425e-06
0.00331107
3.0943e-06
0.00448547
1.77851e-06
0.00540993
2.20347e-06
2.01152e-06
2.24253e-06
1.97923e-06
3.03124e-06
3.89937e-06
1.86009e-06
1.03714e-05
0.0489917
0.00157631
3.17486e-06
2.11338e-06
2.37832e-06
0.00216983
2.65079e-06
0.00933388
1.10808e-05
2.05773e-06
1.04578e-05
2.16888e-06
3.34973e-06
3.71946e-06
4.10489e-06
5.49165e-06
3.33872e-06
2.05395e-06
2.12406e-06
2.8315e-06
3.9937e-06
1.801e-06
0.068868
2.1257e-06
1.82593e-06
0.0124472
1.82291e-06
0.0233857
0.00399144
2.67642e-06
2.77641e-06
2.58558e-06
0.000133126
5.49572e-06
0.00775332
3.67231e-06
4.13654e-06
2.42846e-06
3.95033e-06
1.77656e-06
0.00956211
1.72468e-06
2.3156e-06
1.74512e-06
2.02877e-06
2.40242e-06
4.13952e-06
4.15036e-06
5.97004e-06
2.04589e-06
2.02492e-06
2.19736e-06
7.95979e-06
2.89794e-06
1.66948e-06
2.3945e-06
0.0102278
1.706e-06
3.25346e-06
0.0201121
2.7228e-06
0.0102195
7.19346e-06
2.46762e-06
3.10807e-06
1.82458e-06
3.38002e-05
0.00761774
1.74751e-06
3.04541e-06
4.05889e-06
2.15247e-06
0.00420263
2.16516e-06
0.0211243
1.55125e-05
2.90299e-06
1.70573e-06
2.78643e-06
2.30789e-06
1.44069e-05
1.82358e-06
4.22533e-06
0.00979668
2.74876e-06
4.0405e-06
1.6735e-06
4.73675e-06
1.79838e-06
1.80218e-06
0.0464604
1.98168e-06
1.77355e-06
2.37835e-06
0.00130599
2.16159e-06
0.00414008
0.00608068
2.96669e-06
3.03245e-06
4.09207e-06
8.75547e-06
2.73567e-06
2.16404e-06
4.21835e-06
4.04958e-06
1.93394e-06
2.16082e-06
1.85948e-06
0.00106185
0.0558916
4.15637e-06
2.26259e-06
3.24097e-06
0.00735926
2.06085e-06
9.16413e-06
2.05204e-06
3.43482e-06
0.043859
0.00769339
0.00201519
3.11905e-06
2.46713e-06
2.98263e-06
0.00459859
2.62036e-06
0.00366196
1.70636e-06
0.00904246
1.88889e-06
0.0299081
2.16328e-06
4.43535e-06
2.17515e-06
1.92959e-06
2.40608e-06
2.89986e-06
1.68032e-06
4.1084e-06
5.54499e-06
1.79006e-06
0.00636615
1.69361e-06
2.00021e-06
2.21234e-06
0.0343764
0.021844
0.00334662
2.63092e-06
0.00962003
0.0042455
2.41303e-06
5.38562e-06
2.017e-05
0.0598347
0.0180688
0.00957139
2.84445e-06
3.18675e-05
3.16033e-06
7.54356e-06
2.55111e-06
3.1857e-06
3.42195e-06
0.000210019
2.9621e-06
2.3264e-06
2.19312e-06
2.33588e-06
2.65666e-06
2.99159e-06
4.16186e-06
3.72049e-06
1.78363e-06
5.48169e-06
3.32672e-06
0.0884911
4.21354e-06
4.21142e-06
1.76143e-06
2.81766e-06
2.90044e-06
2.01178e-06
2.03518e-06
4.7212e-06
2.40118e-06
3.44705e-06
3.22099e-06
2.36681e-06
4.75655e-05
0.00488104
2.21405e-06
2.11447e-06
2.68628e-06
4.09759e-06
1.84644e-06
2.34438e-06
3.37205e-06
2.56268e-06
2.42497e-06
2.13618e-06
4.14155e-05
2.19174e-06
0.00165647
3.4242e-06
4.55831e-05
3.44477e-06
1.92876e-06
0.0131568
2.55297e-06
1.68754e-06
2.28235e-06
0.040964
0.00504541
1.90294e-06
2.21172e-06
2.38555e-06
1.91061e-06
2.91251e-06
3.14201e-06
2.57241e-06
1.80819e-06
7.07241e-05
0.0165251
0.00714348
3.56486e-06
3.22902e-06
0.00611188
4.15406e-06
2.3745e-06
8.87606e-06
3.40078e-06
6.60467e-05
3.169e-06
0.0044295
2.03345e-06
3.67902e-06
4.7641e-06
3.22013e-06
0.0157937
0.0050019
1.7162e-06
1.97696e-06
2.02817e-06
2.73745e-06
1.85259e-06
1.71794e-06
0.00963383
0.00728146
2.55339e-06
2.72452e-06
2.47275e-06
0.0188782
3.11881e-06
1.87312e-06
3.35996e-06
2.02513e-06
0.0008371
1.86672e-06
3.17516e-06
2.40012e-06
2.30426e-06
0.00958813
4.00312e-06
1.95423e-06
5.43195e-06
1.91962e-06
8.28982e-06
8.38168e-06
1.94769e-06
1.72851e-06
2.01588e-06
0.000624782
1.70564e-06
2.06403e-06
3.17643e-06
3.11198e-06
4.13719e-06
0.0161925
0.000531539
0.0300468
0.00515736
0.0547195
2.00146e-06
0.00786524
1.7416e-06
0.00409275
2.68036e-06
0.0256103
2.88786e-06
0.000494766
0.0188673
2.01207e-06
2.22896e-06
2.27926e-06
0.0133805
8.64062e-05
6.61547e-06
2.28037e-06
1.91621e-06
1.87894e-06
2.34828e-06
0.00495204
2.52676e-06
2.63089e-06
1.77173e-06
1.74119e-06
2.0349e-06
3.63316e-06
0.0324572
2.61114e-06
1.99668e-06
1.66755e-06
0.091558
2.30027e-06
2.51099e-06
0.00739886
2.15443e-06
4.1438e-06
3.57526e-06
4.69426e-05
7.7344e-06
2.20971e-06
1.7955e-06
2.16066e-06
0.218185
3.0035e-06
2.37419e-06
2.56144e-06
2.05003e-06
0.00777458
2.52239e-06
4.46994e-06
0.00176314
0.0132668
2.07577e-06
2.34978e-06
1.89131e-06
1.74411e-06
0.00563511
0.00545738
0.0024448
3.62131e-06
0.00917692
0.141424
3.18793e-06
0.00466943
1.78454e-06
2.20608e-06
0.00440907
4.22135e-06
4.69712e-06
1.6346e-06
0.00706125
3.41136e-06
0.00615064
2.29761e-06
0.00426214
2.01989e-06
3.7827e-05
4.09237e-06
2.87122e-06
3.51369e-06
0.0159949
2.16494e-06
2.1843e-06
1.95319e-06
7.39283e-06
2.36704e-06
2.88965e-06
0.0901715
2.31674e-06
0.22821
0.0923945
5.96092e-05
1.80137e-06
1.79741e-06
5.33647e-06
0.0042368
0.00023764
2.47638e-06
0.0590886
4.15035e-06
1.64157e-06
1.67838e-06
0.0228296
1.77764e-06
1.06412e-05
4.96573e-06
8.00315e-05
1.641e-06
0.0368829
4.15738e-06
3.74093e-06
2.46742e-06
0.0373327
2.40572e-06
2.84855e-06
1.99669e-06
0.152601
8.13207e-06
2.01407e-06
2.50043e-06
2.08402e-06
4.23096e-06
0.00454976
8.00784e-06
0.00581503
2.37659e-06
2.10409e-06
0.00420036
2.40808e-06
0.000210368
1.7983e-06
3.21194e-06
1.84638e-06
2.6573e-06
4.0978e-06
2.92386e-06
3.41015e-06
3.98484e-06
3.43414e-06
2.81585e-06
2.43879e-06
2.11305e-06
3.50362e-06
2.80501e-06
0.0129606
0.00030097
1.83728e-06
2.30003e-06
1.76333e-06
1.83637e-06
5.22903e-06
0.0496663
1.71167e-06
0.0237489
0.00013829
2.43145e-05
0.0562393
0.00749656
0.0714642
0.00468515
1.94421e-06
0.0106655
0.0075274
4.97298e-05
2.40039e-06
2.06711e-06
0.000276373
2.70052e-06
0.00922558
0.00674573
5.49663e-06
2.43085e-06
1.14648e-05
1.94659e-06
1.51632e-05
1.98059e-06
3.34403e-06
4.63703e-06
2.50914e-06
1.76866e-06
0.000625463
2.31257e-06
2.52361e-06
2.35436e-06
2.74754e-06
2.3522e-06
2.32175e-06
2.08948e-06
1.03005e-05
1.88978e-06
2.66411e-06
1.73863e-06
1.70516e-06
1.78874e-06
1.80516e-06
3.77084e-06
0.00951335
0.00479894
2.54646e-06
0.000810599
2.34301e-06
2.90825e-06
4.83516e-06
2.27468e-06
0.000149126
2.9764e-05
0.095631
2.68958e-06
2.31161e-06
0.00591048
2.08653e-06
0.00103507
2.12506e-06
1.7796e-06
2.85774e-06
0.00574285
1.89765e-06
0.156452
0.004207
2.35647e-06
3.5869e-06
4.15041e-06
6.44578e-06
0.016551
0.00485852
5.35075e-06
2.08025e-06
2.22241e-06
0.000180947
0.00848681
1.82264e-06
1.95787e-06
1.8252e-06
2.3801e-06
2.42389e-06
3.40149e-06
2.55201e-06
1.65355e-06
4.10495e-06
0.000358285
3.87792e-06
0.00431622
0.0744691
0.000165876
2.32777e-06
0.0126902
0.0174242
3.32643e-06
0.00276834
0.0697244
0.0172643
0.003914
1.87805e-06
7.29853e-06
2.51947e-06
3.48003e-06
2.20614e-06
3.05886e-06
1.86483e-06
1.77231e-06
0.000120204
1.84983e-06
2.34211e-06
1.66524e-06
2.32688e-05
2.30341e-06
1.94016e-06
2.19863e-06
1.857e-06
0.00745534
0.00720232
1.86483e-06
1.73331e-06
1.92997e-06
2.13586e-06
0.0207548
2.05086e-06
2.28504e-06
2.35694e-06
0.00017183
2.36856e-06
0.00601706
3.72315e-06
2.42695e-06
2.17395e-06
0.0163696
0.00683555
2.52282e-06
4.68618e-06
0.00909648
2.38118e-06
2.13722e-06
2.3652e-06
0.0100201
2.23922e-06
3.07551e-06
0.0741404
0.0132691
2.74618e-06
0.000544776
2.42938e-06
0.0527828
2.14899e-06
0.0104262
3.40551e-06
2.18852e-06
2.46647e-06
0.0494969
0.00769263
2.9486e-06
0.000112368
0.232176
1.8626e-06
1.97163e-06
0.00235105
1.93731e-06
6.49294e-06
3.49958e-06
0.0214409
7.33919e-05
3.48696e-06
2.65026e-06
3.10381e-06
3.78728e-06
1.86006e-06
2.22742e-06
2.18207e-06
2.28983e-06
3.30425e-06
1.92029e-06
1.72271e-06
2.60571e-06
2.8284e-06
3.23544e-06
2.24957e-06
7.69743e-06
0.00926879
2.72534e-06
2.33782e-06
2.74233e-06
3.25128e-05
2.38918e-06
0.0232558
2.1826e-06
3.82135e-06
1.95369e-06
3.30815e-06
3.29494e-06
2.34997e-06
1.66625e-06
2.06082e-06
2.85411e-06
5.8491e-05
2.17913e-06
8.52216e-06
0.0227323
0.00247503
2.61546e-06
4.57686e-05
0.0778369
4.71281e-06
2.27052e-06
2.45571e-06
2.11871e-06
3.17705e-06
2.16359e-06
2.74567e-06
1.9376e-06
1.56807e-05
1.75844e-06
2.03008e-06
2.81751e-06
0.00797841
1.98688e-06
1.83784e-06
2.47096e-06
0.00635931
0.0170022
3.05853e-06
1.91579e-06
1.14253e-05
3.55713e-06
0.00185607
0.00497416
2.7753e-06
0.00522374
3.30112e-06
8.69962e-06
2.17036e-06
0.0062678
2.17631e-06
3.06988e-06
2.73078e-06
0.00504754
5.17759e-06
6.96901e-06
0.0061352
1.94852e-06
2.24977e-06
1.77922e-06
0.00128952
0.0116127
0.00442887
0.00247393
2.184e-06
5.92436e-06
2.85064e-06
3.40801e-06
0.000145191
2.00662e-06
0.0103974
5.96132e-05
2.11519e-06
2.36322e-06
0.0100487
0.00609586
1.80995e-06
0.0112705
1.91963e-06
2.38727e-06
0.00238755
2.3633e-06
0.0057137
1.75324e-06
1.91667e-06
1.88568e-06
0.00231192
1.76229e-06
3.41058e-06
0.00908747
3.47929e-06
2.06098e-06
1.83285e-06
1.67002e-06
1.69827e-06
0.00527439
9.09937e-06
2.33254e-06
2.22623e-06
0.00748719
2.52472e-06
3.21178e-06
0.00222051
2.00703e-06
1.85641e-06
2.6463e-06
2.4163e-06
0.00415788
2.64898e-06
1.99028e-06
0.000113082
2.17974e-06
0.0114961
0.00608796
3.38966e-05
7.99529e-05
3.02241e-06
1.90159e-06
6.49052e-06
2.87153e-06
0.0815219
0.00511287
1.10646e-05
0.00148371
1.84695e-06
7.61979e-06
0.0122596
1.92599e-06
2.16592e-06
0.015421
0.00990422
2.31714e-06
1.76722e-06
1.87033e-06
1.79707e-06
0.00407589
2.15174e-06
0.0204279
6.96838e-06
2.21384e-06
2.2025e-06
4.84753e-06
2.25741e-06
1.87467e-06
5.92847e-06
2.88165e-06
2.52667e-06
2.03156e-06
3.10546e-06
2.57865e-06
1.91396e-06
1.95348e-06
1.65902e-06
2.13546e-06
0.00458108
2.08219e-06
0.00427889
1.99498e-06
0.000113578
1.76941e-06
2.3214e-06
0.000915032
0.0033342
2.28778e-06
0.0776911
1.91254e-06
0.0118325
2.7199e-05
0.0095208
2.82402e-06
2.50336e-06
3.36836e-06
0.00465053
1.72129e-06
2.33922e-06
1.8799e-06
0.00486393
0.00892648
2.10135e-06
2.50093e-06
0.0372038
0.00509493
1.82283e-05
0.0225761
2.07824e-06
2.7778e-06
0.0209398
2.39659e-06
2.90745e-06
1.41092e-05
3.03846e-06
1.94432e-06
1.93513e-06
1.65475e-06
0.00637054
0.00297408
0.00779751
2.14433e-06
1.06881e-05
2.30839e-06
1.73055e-06
0.0258301
2.24051e-06
1.92621e-06
1.82349e-06
7.59608e-06
3.32707e-05
0.0192976
2.10969e-06
0.00703332
2.34837e-06
0.0333541
6.29165e-06
0.0792419
1.97686e-06
0.00187996
2.08102e-06
2.39445e-06
1.91242e-06
1.88082e-06
1.77489e-06
3.05302e-06
1.99807e-06
1.94125e-06
1.93515e-06
2.01022e-06
0.00657138
0.287826
0.00146237
0.00492199
0.00110933
0.00635991
2.40024e-06
1.80655e-06
2.32128e-06
3.16444e-06
8.01405e-06
2.52158e-06
1.85241e-06
2.2939e-06
2.48811e-06
2.22835e-06
0.0205648
2.11741e-06
7.24074e-06
0.00661392
2.89067e-06
1.96736e-06
3.57112e-06
6.67828e-06
0.00462638
2.16237e-06
0.00549412
2.3648e-06
2.7752e-06
1.80438e-06
0.0318244
1.8528e-06
0.00535135
0.00139451
0.00491118
0.000722947
3.43548e-06
5.76274e-06
0.00491101
0.00725886
6.52588e-06
1.66663e-06
4.35132e-06
0.0679917
3.36529e-06
2.08953e-06
5.04493e-06
2.25185e-06
0.0293111
1.97903e-06
2.09052e-06
1.9983e-06
0.00565367
0.0155168
2.12268e-06
9.51362e-05
3.25326e-06
2.08239e-06
0.265657
2.38224e-06
1.91457e-06
2.36176e-06
1.93841e-06
4.35509e-06
3.18913e-06
5.20019e-06
0.00441329
2.27011e-06
0.0457409
1.97437e-06
2.52102e-06
1.9117e-06
1.91969e-06
0.0146804
2.00636e-06
2.3272e-06
0.00543913
1.94061e-06
2.23275e-06
2.7535e-06
3.23406e-06
1.91899e-06
0.0140873
1.96897e-06
2.03226e-06
2.49359e-06
0.0796898
2.91547e-06
0.0165187
2.1497e-06
0.000988153
2.11069e-06
0.0220717
2.15057e-06
7.10979e-06
2.27919e-06
1.82191e-06
2.62503e-06
2.7308e-06
2.83546e-06
2.01893e-06
0.00584167
3.00279e-06
2.39183e-06
1.90765e-06
0.00851088
2.92928e-06
0.00373662
4.55164e-06
0.00859132
9.71827e-05
0.0084167
2.38969e-06
1.91018e-06
2.69068e-06
1.96818e-06
0.00849201
0.0148554
0.0205456
8.97786e-05
2.75009e-06
1.99174e-06
3.96955e-05
2.17752e-06
1.91336e-06
1.81389e-06
2.65977e-06
2.47463e-06
2.20694e-06
2.35391e-06
1.84788e-06
4.1736e-06
0.000533526
0.0081933
1.90207e-06
2.75799e-06
1.96552e-06
0.0254441
0.0116397
2.60722e-06
2.15904e-06
2.16344e-06
2.12372e-06
0.00544379
2.34588e-06
1.941e-06
0.00515936
1.67262e-06
5.0463e-06
0.0648794
2.70752e-06
1.71159e-06
1.87866e-06
2.12258e-06
1.96557e-06
2.89864e-06
2.3115e-06
0.00925163
0.00430176
1.78956e-06
0.151679
3.53529e-06
0.0128117
2.59887e-06
1.91757e-06
3.47605e-06
2.69241e-06
0.000396327
0.00431148
1.45396e-05
3.0245e-06
1.89097e-06
2.16711e-06
2.08636e-06
1.89233e-06
2.72893e-06
0.0323919
0.00514426
0.00479176
3.49191e-06
0.00464278
2.39085e-06
0.00527516
0.00244894
3.28427e-06
0.0214019
0.00189981
2.27422e-06
2.46e-06
1.70206e-06
1.79029e-06
2.49726e-06
2.05952e-06
1.97127e-06
3.62671e-06
0.0108109
2.03651e-06
1.63361e-06
2.39717e-06
1.71714e-06
1.9133e-06
1.93085e-06
2.44896e-06
0.00251044
1.69749e-06
0.0067679
0.00531543
3.28702e-06
4.60102e-05
2.25967e-06
1.81154e-06
1.83405e-06
0.00632303
2.11998e-06
1.9608e-06
0.00889603
2.22173e-06
1.97196e-06
3.5145e-06
2.38347e-06
2.1211e-06
1.97791e-06
2.30185e-06
2.10835e-06
3.78533e-06
2.06868e-06
2.59997e-06
1.75528e-06
3.40063e-06
2.37689e-06
0.0439527
2.4422e-06
1.97742e-06
0.00576548
3.03393e-06
2.27227e-06
1.72774e-06
2.06722e-06
2.61803e-06
3.1874e-06
5.19456e-06
1.72511e-06
2.02437e-06
2.1081e-06
2.1924e-06
0.00741877
3.59272e-06
1.97679e-06
4.70744e-06
3.72946e-06
0.00300529
0.0572093
1.73915e-06
1.57543e-05
2.57974e-06
0.0514571
0.00023896
1.80895e-06
0.0368242
2.29793e-06
2.59967e-06
2.01324e-06
1.99082e-06
2.36322e-06
2.67514e-06
0.310756
0.00878699