/*--------------------------------*- C++ -*----------------------------------*\
| =========                 |                                                 |
| \\      /  F ield         | OpenFOAM: The Open Source CFD Toolbox           |
|  \\    /   O peration     | Version:  v2012                                 |
|   \\  /    A nd           | Website:  www.openfoam.com                      |
|    \\/     M anipulation  |                                                 |
\*---------------------------------------------------------------------------*/
FoamFile
{
    version     2.0;
    format      ascii;
    class       volVectorField;
    location    "100";
    object      U;
}
// * * * * * * * * * * * * * * * * * * * * * * * * * * * * * * * * * * * * * //

dimensions      [0 1 -1 0 0 0 0];


internalField   nonuniform List<vector> 
13749
(
(1.01409 0.000661221 -2.82894e-21)
(1.06139 0.0206342 -1.44646e-20)
(0.987353 -0.00639503 0)
(1.02333 0.0592093 1.18836e-23)
(0.990759 0.0481068 0)
(1.06105 0.0461811 1.7057e-20)
(0.967149 0.194267 1.03576e-20)
(1.03707 0.00932771 0)
(0.992644 0.00718514 6.78994e-22)
(1.02422 0.0576555 -1.7577e-22)
(1.06076 0.0168497 0)
(1.00069 0.00461822 9.8871e-21)
(1.04197 0.0666961 -1.2774e-21)
(0.91764 0.0145246 0)
(0.754809 0.0112067 0)
(1.0437 0.00938189 -6.09378e-21)
(0.989516 0.0161677 -7.17127e-21)
(1.06113 0.0226248 0)
(1.0021 0.0037756 7.04154e-21)
(0.99717 4.62856e-07 -1.8608e-21)
(0.330272 0.00106638 -2.1333e-20)
(0.734263 0.0122141 3.47351e-21)
(0.979232 0.0165006 -2.53285e-21)
(1.06351 0.0122184 0)
(0.98863 0.0478954 0)
(1.05304 0.0345968 2.09883e-20)
(1.05098 0.0356941 7.1694e-21)
(1.04199 0.0526222 -9.40522e-21)
(1.01627 0.00598155 2.846e-21)
(0.970926 0.0209619 -1.79032e-21)
(1.13347 0.212378 2.73554e-21)
(0.563312 0.0167621 0)
(0.922129 0.0482643 -1.45462e-20)
(1.05678 0.0132704 1.48478e-20)
(1.01095 0.0119687 4.73674e-22)
(1.0149 0.0054794 0)
(0.986039 -0.005269 8.74196e-21)
(0.993922 0.0207274 -9.50287e-21)
(1.03833 0.0293532 -4.06687e-21)
(1.05583 0.0207551 1.11026e-20)
(1.06037 0.0470604 -2.00625e-20)
(0.25041 0.00570745 1.50192e-20)
(0.940392 0.0244609 0)
(0.923994 -0.00392912 0)
(1.0612 0.0226718 -2.36322e-22)
(1.04039 0.0433462 0)
(1.00023 0.0045163 0)
(1.06169 0.0305663 9.29796e-21)
(1.01877 0.0143485 0)
(0.0271844 -0.0169409 -5.90763e-20)
(1.06366 0.0127686 2.70219e-21)
(0.341899 0.000859808 1.89275e-20)
(1.05607 0.0211181 -1.28842e-20)
(1.07166 0.0231988 9.34372e-21)
(1.00105 0.0829104 0)
(1.01821 0.0143482 -1.4112e-21)
(1.04591 0.0628259 -1.47211e-23)
(0.925274 0.0458468 0)
(1.01308 0.0149202 4.63268e-21)
(1.03141 0.0177244 -1.25363e-20)
(1.00242 0.0198482 4.33101e-21)
(1.02593 0.0383161 0)
(0.578973 0.0147237 0)
(1.00058 0.00433681 -1.03459e-20)
(1.0241 0.0285425 6.12067e-22)
(0.947494 0.0144645 5.63874e-21)
(0.992503 0.00772321 -5.55142e-22)
(0.994479 0.0199841 0)
(1.04641 0.00990904 1.44238e-20)
(1.04009 0.0422099 0)
(0.748432 0.0152355 -2.10179e-20)
(1.00804 0.00147742 4.91654e-21)
(1.0531 0.0200452 -1.05874e-20)
(1.01891 0.0184624 3.04033e-21)
(1.06794 0.0142371 -4.07673e-21)
(1.07219 0.147875 -4.31793e-21)
(1.04294 0.0146361 0)
(1.01293 0.0154891 0)
(1.04618 0.0610553 7.5566e-21)
(1.00001 0.000500824 0)
(1.01519 0.0057707 1.52835e-21)
(0.98168 0.0448609 -1.14011e-20)
(1.06396 0.0118191 3.05462e-21)
(1.01653 0.00621619 -1.83879e-21)
(1.05979 0.0585285 -6.93738e-21)
(1.05607 0.148164 1.00896e-20)
(0.951319 0.013342 6.68451e-21)
(1.06609 0.0255029 5.43418e-21)
(1.01061 0.0115053 -4.96516e-22)
(1.06114 0.0297055 -7.51169e-23)
(1.00783 0.00785473 1.99581e-21)
(1.07261 0.0227612 0)
(1.0281 0.0332433 0)
(1.12826 0.0372732 0)
(0.774786 0.290296 0)
(1.05927 0.0243411 8.5584e-21)
(1.04728 0.0206069 0)
(0.995776 -0.0034985 -7.58819e-21)
(1.00808 0.00171434 0)
(0.950042 0.0145803 9.23674e-21)
(0.448537 0.00723151 2.55111e-20)
(1.01445 0.00556945 0)
(1.0432 0.0182824 3.6157e-21)
(0.687145 0.0110265 -1.56875e-21)
(0.999783 -0.00108351 -2.12353e-21)
(0.704169 0.0107147 1.60456e-21)
(1.06302 0.0324129 0)
(0.994811 0.0082942 1.16726e-20)
(1.06112 0.029176 2.27552e-22)
(0.99641 0.00457746 9.8363e-21)
(1.00063 0.00488432 -9.59956e-21)
(0.937335 0.0247535 -8.90591e-21)
(1.06367 0.0325949 -6.77153e-21)
(0.447104 0.0469883 6.11481e-20)
(0.406834 0.00456306 -3.30756e-21)
(1.02838 0.0180486 2.63365e-21)
(1.01419 0.00521486 -3.28804e-21)
(0.998905 0.0808126 -2.47883e-21)
(0.973083 -0.0120502 0)
(1.01462 0.0140185 -3.20883e-21)
(1.03667 0.00955451 -8.30429e-22)
(1.00015 0.00012914 -3.18824e-21)
(1.01487 0.000979076 2.17327e-21)
(1.01748 0.00461906 -5.35129e-22)
(0.985927 0.0448862 -2.591e-21)
(0.757816 0.0158757 1.96256e-20)
(1.06074 0.0447775 0)
(0.729126 0.00648536 -1.09707e-20)
(1.04685 0.0277385 2.44949e-21)
(1.05769 0.0206864 1.99719e-20)
(1.03375 0.05477 4.66738e-21)
(0.903043 0.0132621 -6.93949e-21)
(0.915945 0.0114115 -9.72292e-23)
(1.0686 0.0235426 4.59147e-21)
(1.05016 0.05415 -1.25547e-20)
(0.959108 0.00296135 4.00431e-20)
(1.06787 0.0148133 0)
(1.0189 0.0135234 2.56416e-21)
(1.03432 0.0181783 4.88067e-23)
(0.0568201 -0.00810305 0)
(0.857225 0.0393671 4.81768e-20)
(1.05187 0.0247904 -2.21097e-23)
(1.04235 0.0294373 3.10112e-21)
(0.564451 -0.0143135 2.2748e-20)
(1.00902 0.00202866 1.93491e-21)
(0.0130153 -0.00936216 0)
(1.04328 0.0570527 5.66586e-21)
(0.995354 0.113793 -4.77537e-21)
(0.972856 -0.00555969 1.70839e-20)
(1.05993 0.0221778 1.23679e-20)
(1.00875 0.00187991 0)
(1.05564 0.012368 0)
(0.734131 0.0100844 -8.45997e-21)
(1.08211 0.0236976 -2.30516e-20)
(1.04684 0.0117759 0)
(0.489502 0.0101563 0)
(1.04352 0.0552004 9.84715e-23)
(1.04792 0.0661609 0)
(1.06146 0.020831 1.33184e-20)
(0.998852 0.0100004 1.87667e-20)
(0.673726 0.0977403 1.78694e-20)
(1.00303 0.00139056 -3.36997e-21)
(0.222235 -0.00897468 5.34949e-20)
(0.92246 0.0521097 1.72119e-20)
(0.997517 0.0015622 -7.21761e-23)
(0.998806 0.015754 -2.17407e-20)
(1.06604 0.0259332 9.87473e-21)
(0.988023 -0.00678506 0)
(0.970207 0.0225851 -2.69531e-20)
(1.04226 0.0689981 -3.26761e-21)
(1.04271 0.0302495 0)
(0.996149 0.00480565 0)
(1.01903 0.0139786 0)
(1.05185 0.0193438 0)
(0.961954 0.00700768 4.78003e-21)
(0.972869 0.203125 0)
(1.07815 0.148828 6.69174e-21)
(1.04655 0.0122048 -3.89229e-21)
(0.707339 0.00717379 2.06952e-20)
(0.676065 0.0046106 3.53562e-21)
(0.999898 -0.000784206 1.91855e-21)
(1.05651 0.0128239 -5.67125e-21)
(1.04708 0.0228835 -6.66684e-21)
(0.827865 0.350926 -7.10094e-21)
(1.071 0.0225079 -1.58575e-20)
(0.960158 0.00687789 0)
(0.550089 -0.0126125 -3.86178e-20)
(1.01287 0.0415342 -4.32592e-21)
(1.16164 0.0668127 4.6817e-20)
(1.00286 0.0204328 -1.54347e-21)
(1.04741 0.0234523 1.26707e-20)
(0.966735 0.0160047 1.60451e-20)
(1.03955 0.011149 3.31883e-21)
(1.0724 0.0490406 -3.04118e-20)
(0.532953 -0.00901906 6.46836e-21)
(1.06191 0.146052 -1.47559e-20)
(1.05986 0.043996 8.47149e-21)
(-0.0905946 -0.0144236 0)
(1.01519 0.00070756 0)
(1.04642 0.0282216 4.59378e-21)
(1.01969 0.00820683 0)
(1.06284 0.0130744 1.19211e-20)
(1.04783 0.0640842 1.33628e-23)
(0.948206 0.0355747 1.85001e-21)
(0.611042 0.0179862 5.17935e-21)
(1.03181 0.0233877 -1.35979e-21)
(1.01184 0.013868 -3.05623e-21)
(1.07283 0.0479016 2.62174e-20)
(1.07078 0.0227413 0)
(1.06667 0.0380388 0)
(1.02897 0.0183598 -2.30638e-21)
(0.948498 0.0154438 1.52741e-21)
(0.210345 0.0030715 -1.8923e-20)
(0.863791 0.266998 5.12255e-21)
(1.05189 0.0355254 -7.50975e-21)
(1.06967 0.0434497 2.1464e-20)
(0.636012 0.0184622 0)
(1.05843 0.0154199 0)
(0.603718 0.0189234 -1.49564e-20)
(1.01586 0.00599364 0)
(1.18943 0.158075 -8.01685e-20)
(0.950754 0.034777 0)
(1.07135 0.0232676 -2.51553e-20)
(1.03297 0.0152669 0)
(0.949928 0.088038 1.17692e-20)
(1.07071 0.022101 0)
(1.03207 0.0241004 0)
(0.849472 0.0399068 -5.32994e-20)
(0.620406 0.0178182 0)
(0.969668 0.0165414 5.35127e-21)
(0.99104 -0.00241065 2.18694e-20)
(0.999996 -5.15501e-05 -8.26497e-21)
(1.0002 0.000150223 0)
(1.00036 0.00453311 0)
(0.803129 0.0136964 1.65122e-20)
(0.984663 0.0456581 1.33774e-20)
(0.983557 0.16647 -5.97846e-21)
(1.0716 0.0229509 1.49953e-20)
(0.99747 -0.000114643 1.70142e-21)
(0.990306 0.0159637 0)
(0.990895 0.0519242 -2.32535e-21)
(1.00647 0.0137989 0)
(1.02962 0.0199043 -5.20632e-21)
(1.06137 0.0256297 5.85974e-21)
(1.06383 0.0553543 -2.23738e-20)
(0.568617 -0.0101124 -4.70681e-23)
(0.981534 0.0428012 2.66585e-20)
(0.591806 0.0215072 7.27845e-22)
(1.04103 0.0405155 1.70212e-21)
(0.993047 0.00169756 5.0777e-22)
(0.137302 -0.0135196 -2.23903e-20)
(0.958925 0.00426917 -3.67036e-20)
(1.00621 0.000624764 -4.94027e-21)
(1.02822 0.034177 4.04402e-22)
(0.855126 0.0739577 0)
(1.05114 0.0247 7.23484e-21)
(0.994458 0.00794027 -1.15475e-20)
(0.187732 -0.0031974 -3.44992e-20)
(1.0541 0.155238 -6.37251e-21)
(0.61204 0.0155091 0)
(1.02072 0.00863152 6.57157e-22)
(0.920392 0.0790851 7.15485e-21)
(1.06169 0.0299606 9.79855e-21)
(1.02014 0.0393919 1.04519e-21)
(0.972231 -0.00111324 2.07954e-20)
(1.06743 0.0149936 -2.21089e-21)
(1.06743 0.0232231 -2.69862e-20)
(1.05351 0.0352685 -1.1987e-20)
(0.895932 0.161341 2.54788e-20)
(0.84868 0.0682603 1.18893e-19)
(1.01542 0.00193296 5.23094e-21)
(0.372457 0.00593487 2.10458e-21)
(1.06032 0.0197344 -1.32982e-20)
(0.537071 -0.0145795 0)
(1.0125 0.0404462 5.49875e-23)
(0.523711 0.0117851 5.32916e-21)
(0.190351 0.00271401 -1.26275e-21)
(1.05324 0.017172 1.0703e-20)
(0.850408 0.058182 -4.19983e-20)
(1.05122 0.0193002 -6.53638e-21)
(0.999038 0.015108 9.24885e-21)
(1.01721 0.0170429 1.96111e-22)
(1.09241 0.0257719 -3.81269e-21)
(0.284315 -0.00297238 -2.53743e-21)
(1.05283 0.0250441 -1.4142e-20)
(0.971604 -0.00656062 -1.88409e-20)
(1.05441 0.0468203 -1.14546e-20)
(1.01364 0.0149523 0)
(1.15915 0.0705273 -1.65567e-20)
(0.99349 0.0457656 0)
(1.06527 0.0228678 -4.67759e-21)
(1.01709 0.0148142 0)
(0.590846 0.0190797 2.16864e-20)
(1.06107 0.016568 -4.89257e-21)
(0.787783 0.0133331 0)
(1.07083 0.022958 -5.17866e-21)
(0.994926 -0.00271979 1.8041e-20)
(1.01387 0.00334783 0)
(1.03671 0.02517 -7.37298e-21)
(1.01397 0.000805457 3.74721e-21)
(1.04334 0.0150229 -3.86219e-21)
(1.01086 0.0111298 -4.15542e-21)
(1.05563 0.0113806 0)
(0.118662 -0.0108432 2.06969e-20)
(1.05594 0.0118655 0)
(1.02116 0.00868739 1.6588e-22)
(1.02727 0.014556 -5.00872e-22)
(0.9977 0.00138201 -7.48134e-21)
(1.03725 0.0123105 0)
(1.05309 0.0186813 0)
(0.353931 0.00551241 0)
(1.06044 0.0497102 -6.75039e-21)
(1.02087 0.0321906 0)
(0.598988 0.00617817 3.88697e-21)
(1.01522 0.00168464 -3.38316e-21)
(0.991665 0.0457187 0)
(1.04363 0.0186197 4.49198e-21)
(0.789118 0.0141045 3.5929e-21)
(1.01517 0.0139589 0)
(1.04669 0.0152577 4.82294e-21)
(1.07046 0.0281749 0)
(0.309378 0.0082592 2.50731e-20)
(1.05669 0.0264913 -9.99361e-23)
(1 9.35513e-05 0)
(-0.0847647 -0.0165283 7.18147e-20)
(0.99993 -0.000138771 -7.53706e-21)
(1.01056 0.0106909 3.89144e-21)
(1.01925 0.00988339 0)
(0.99355 0.0111032 0)
(0.97084 -0.00206899 1.78173e-20)
(1.01898 0.0101119 0)
(1.00062 0.00414992 1.11676e-20)
(1.01779 0.00481097 1.00978e-21)
(1.04335 0.0517635 -4.56902e-21)
(1.02007 0.0322538 -1.1131e-21)
(1.03368 0.018022 0)
(1.01832 0.0180608 -2.84999e-21)
(1.05046 0.0364883 0)
(0.993353 0.0107313 -3.29599e-22)
(0.945953 0.089642 -1.55936e-20)
(0.995082 -0.00517189 -1.08016e-20)
(1.12474 0.220265 -3.17539e-21)
(1.0189 0.0394952 -2.13527e-21)
(1.0344 0.0169363 -3.13751e-21)
(1.06664 0.0370963 -1.09352e-20)
(1.0348 0.0180059 -2.21259e-21)
(1.04604 0.01533 0)
(0.96627 0.00347797 2.5904e-20)
(1.01318 0.0189158 4.95669e-21)
(0.994063 0.0098251 -6.73491e-21)
(1.00094 0.0240655 7.70484e-21)
(1.00059 0.0249632 0)
(0.126003 -0.000683732 -2.12325e-21)
(0.81619 0.210285 7.10636e-20)
(1.02704 0.0381926 -1.50676e-22)
(1.00703 0.0176987 5.14234e-21)
(1.06047 0.0636743 1.45407e-20)
(1.06616 0.0182393 0)
(1.03852 0.102292 -6.30096e-21)
(1.14583 0.243234 6.55499e-20)
(0.991645 -0.00243125 0)
(0.999976 -6.98548e-05 7.44777e-21)
(1.01656 0.0147638 0)
(0.251607 0.00208841 0)
(0.83742 0.0273951 0)
(0.999519 0.0111079 -5.22429e-23)
(0.99958 0.115876 0)
(0.380499 0.00701644 -4.10824e-21)
(0.751779 0.0101888 0)
(0.995523 -0.00143308 1.73855e-20)
(0.806055 0.0139467 0)
(1.05209 0.0244877 6.93309e-21)
(0.914156 0.0668272 6.19127e-20)
(1.00002 0.000380926 -6.71738e-21)
(0.999417 0.0106283 -4.39557e-21)
(1.02991 0.0314006 0)
(1.03256 0.105996 2.91577e-21)
(-0.0385883 -0.0102069 0)
(1.07797 0.0432673 8.01885e-21)
(1.04721 0.0217387 0)
(0.99951 -0.00121494 5.82624e-21)
(0.995474 -0.00396894 0)
(0.732719 0.0109348 -1.89248e-20)
(0.966652 0.00517212 -2.3928e-20)
(0.999894 -0.000114679 9.09087e-21)
(1.0121 0.000233529 2.79068e-21)
(0.541831 0.018961 -4.73149e-21)
(1.00015 0.0203043 -8.75856e-21)
(0.999182 0.00971939 -1.8655e-20)
(1.04331 0.0177769 0)
(1.0619 0.0239276 0)
(1.0694 0.023843 -1.22748e-20)
(0.51595 -0.0143194 0)
(1.00345 0.0242722 -6.84581e-21)
(0.963252 0.0382054 6.36317e-21)
(1.16736 0.145445 4.12252e-20)
(0.538818 0.0849697 1.32279e-19)
(1.1268 0.198539 1.09087e-21)
(1.0601 0.0235204 5.87904e-21)
(1.07299 0.0225185 0)
(1.00326 0.00143095 -7.7084e-21)
(1.0605 0.0600955 0)
(1.00171 0.000449547 0)
(1.06322 0.0171765 0)
(1.03666 0.0123126 2.77097e-21)
(1.05278 0.0245538 4.57234e-21)
(1.0507 0.0162962 2.01382e-20)
(1.06023 0.0239288 2.27282e-20)
(1.06359 0.0157376 7.54593e-21)
(1.01348 0.0195075 0)
(1.03786 0.0237356 -3.50366e-21)
(1.04742 0.018416 -5.01548e-21)
(1.06013 0.0233778 -6.97303e-21)
(0.688145 0.00527696 0)
(1.02867 0.105568 6.44164e-22)
(0.999637 -0.000296057 -1.38126e-20)
(0.779751 0.0138927 0)
(0.798005 0.0133887 -1.14314e-20)
(1.05592 0.012874 0)
(1.05928 0.0246339 -9.72832e-21)
(0.995016 0.0111582 7.61566e-21)
(1.06031 0.0524179 0)
(1.16597 0.0830623 0)
(1.04264 0.0174443 -7.33856e-21)
(1.06938 0.0231091 5.52956e-21)
(1.00276 0.00460775 8.27856e-21)
(0.89783 0.150937 -4.49287e-20)
(0.983113 0.255659 0)
(0.517129 0.0131072 -2.03742e-20)
(0.955093 0.19419 2.05094e-21)
(1.06384 0.0248042 -8.84346e-21)
(1.00003 0.000405751 -7.12499e-21)
(1.06136 0.0254038 -1.24877e-20)
(1.0351 0.101947 3.74969e-21)
(1.07961 0.0243166 0)
(1.04112 0.041538 1.98499e-21)
(1.03081 0.0318324 -1.63722e-21)
(1.02307 0.0305554 -1.01726e-21)
(0.9931 0.0205862 -5.76894e-21)
(0.659125 -0.000972827 -4.24341e-21)
(0.993079 0.00715616 0)
(0.977148 0.0114489 -3.45793e-20)
(1.00001 0.00032458 -8.53213e-21)
(1.04752 0.0223173 7.19487e-23)
(1.02684 0.0562085 1.02916e-21)
(1.02029 0.00890501 0)
(1.00373 0.0045736 -1.14456e-20)
(0.847673 0.272397 -6.66499e-21)
(1.06323 0.0306326 -1.10092e-20)
(1.07901 0.0420789 1.02326e-23)
(1.09028 0.026135 -4.07341e-21)
(0.953619 0.0174499 2.27002e-20)
(1.22076 0.2106 0)
(1.01782 0.0168886 -4.56429e-21)
(0.576823 -0.0147109 1.58332e-20)
(1.05192 0.0310045 8.37645e-21)
(1.02622 0.0576735 -1.0372e-21)
(1.04108 0.0594436 -4.26833e-21)
(1.02169 0.0138632 1.29684e-20)
(0.995958 -0.00150638 1.33895e-24)
(1.00138 0.00086561 5.83386e-21)
(1.00001 0.000165868 -8.04599e-21)
(1.04257 0.0169991 3.6187e-21)
(0.398918 0.00656139 -4.05034e-21)
(1.03769 0.0297661 4.32108e-21)
(1.05344 0.00935195 -7.71325e-21)
(1.06093 0.0212129 0)
(1.11012 0.0795361 0)
(0.477531 0.0851561 -1.63285e-19)
(0.926057 -0.00718739 1.60432e-20)
(1.0201 0.0188801 -7.3448e-22)
(1.00326 0.00475686 3.65981e-21)
(1.10599 0.0812621 0)
(0.46521 0.0084721 0)
(1.00049 0.0195614 -2.24816e-22)
(0.995495 0.0107983 0)
(1.05991 0.0217153 0)
(1.06378 0.0619404 -8.30517e-21)
(0.993108 0.0021693 0)
(0.978365 0.0114564 2.10919e-20)
(1.0419 0.0541738 8.44428e-21)
(1.03718 0.0112575 2.54236e-21)
(1.01995 0.0098727 -1.34294e-21)
(0.580726 0.0180284 -8.07598e-21)
(0.501059 0.0136547 -5.96754e-21)
(1.16694 0.1532 2.84379e-20)
(0.244307 -0.00619749 0)
(0.5718 0.0136132 3.44604e-22)
(0.998666 0.0578018 0)
(1.04776 0.0179768 0)
(1.03707 0.0237828 0)
(1.0374 0.0109246 -9.30732e-21)
(1.00171 0.00134184 0)
(1.05586 0.0199517 3.28985e-21)
(1.01971 0.0100765 0)
(1.01696 0.0368819 -4.38734e-21)
(0.499578 -0.0140188 0)
(1.02302 0.0297158 9.26097e-22)
(0.219379 0.0268182 0)
(1.00712 0.0172541 0)
(0.970851 0.00247142 1.10579e-20)
(0.960255 0.014993 9.83582e-21)
(1.04568 0.014808 4.1021e-21)
(1.07432 0.0230526 1.07502e-20)
(1.02326 0.0279355 -1.11653e-21)
(0.526574 0.0125263 2.32477e-20)
(1.06078 0.0183693 -1.6791e-20)
(1.06296 0.0174589 0)
(0.995287 0.0201658 -1.02603e-20)
(1.01064 0.000243648 -1.75043e-21)
(0.999917 1.58587e-05 -6.46583e-21)
(1.03147 0.0219566 0)
(1.01137 0.0138583 6.69326e-22)
(0.31562 0.00936562 -7.5176e-22)
(1.04699 0.015749 2.72464e-21)
(0.211343 -0.00108714 0)
(0.913552 0.0615051 -2.4788e-20)
(0.986604 0.015905 1.96537e-20)
(1.05835 0.0150198 7.54748e-21)
(1.00211 0.00403526 -7.22869e-21)
(0.984539 0.0164413 2.22705e-20)
(1.20914 0.198369 1.8933e-20)
(0.987316 0.0274074 1.51414e-20)
(1.06057 0.0185806 2.34865e-23)
(0.974558 0.0249996 0)
(1.02821 0.00961868 -4.7909e-22)
(0.998379 0.00536366 9.64915e-21)
(1.04951 0.0363658 -6.70735e-21)
(1.01615 0.0371226 0)
(1.07349 0.0519852 -1.20452e-20)
(1.0012 0.025693 0)
(0.782263 0.319159 7.541e-20)
(0.994135 0.109692 -1.86968e-21)
(1.05319 0.00981825 2.3713e-21)
(1.05175 0.0171169 -9.46203e-21)
(1.06116 0.0486838 7.48798e-21)
(0.986908 -0.00494237 -1.00997e-20)
(0.995078 0.0162603 -1.4842e-20)
(0.594906 0.0174276 9.03928e-21)
(0.781499 0.0144807 1.18763e-20)
(1.00462 0.0184812 1.70933e-20)
(1.16667 0.0770729 -3.22924e-20)
(1.06119 0.0214731 0)
(1.0663 0.0229195 1.46691e-21)
(0.065992 -0.0203994 5.54953e-20)
(1.06076 0.0172175 0)
(0.973346 0.0596532 1.00969e-20)
(0.617387 0.0152827 -5.4689e-21)
(0.406994 0.00402023 1.14696e-20)
(1.00661 0.0171337 1.52751e-20)
(1.06119 0.0157969 -1.8062e-23)
(0.960807 8.35314e-05 0)
(0.5504 0.0169591 -5.04856e-21)
(1.05854 0.0190381 -1.56484e-20)
(1.05625 0.0265328 -7.89667e-21)
(1.03753 0.0253645 4.07405e-21)
(0.998199 0.0051678 1.11279e-22)
(1.05609 0.0203235 0)
(1.04281 0.011506 -4.10155e-21)
(0.437752 0.00881489 2.02532e-20)
(0.929695 0.0149915 -5.69577e-21)
(1.0141 0.00364435 -1.62616e-21)
(1.02194 0.00870722 0)
(1.05758 0.0180636 -6.7518e-21)
(0.962646 -0.000579702 -1.4132e-20)
(0.620544 -0.00141605 -4.24958e-21)
(0.995305 -0.00227397 -1.82737e-20)
(0.992443 -0.00695035 7.05846e-22)
(1.01358 0.0286106 4.36964e-21)
(1.07004 0.0285211 -1.08283e-20)
(0.999609 -0.00122209 -7.02943e-21)
(1.0807 0.0324515 6.11712e-21)
(0.612696 0.0150563 7.57913e-21)
(1.00156 0.000416372 -8.22049e-21)
(1.03355 0.0217513 0)
(1.02673 0.0145124 -6.56348e-22)
(0.662832 0.00522143 -3.71332e-21)
(0.444465 0.0076214 5.25602e-21)
(1.04788 0.045754 1.05279e-20)
(0.9384 0.0920017 -7.5443e-21)
(1.03086 0.0327281 1.66782e-21)
(1.06398 0.0158456 -8.27688e-21)
(-0.0402818 -0.0176122 9.03306e-20)
(0.930249 0.0467351 1.84526e-20)
(0.984139 0.0627965 0)
(0.999971 0.000340063 0)
(0.63826 0.652208 4.16846e-20)
(0.984478 0.0172984 1.30282e-20)
(1.003 0.00482613 4.31515e-21)
(1.02903 0.0545842 -2.20438e-21)
(1.04618 0.0295462 -9.52846e-21)
(1.0414 0.0155533 0)
(0.997731 0.0567463 0)
(0.964006 0.0368564 -2.11115e-20)
(0.924604 0.0137612 1.51716e-20)
(0.988466 0.0175378 1.12673e-20)
(1.01236 0.0154973 -4.96434e-21)
(0.0737111 -0.012652 -6.16151e-20)
(0.522123 -0.014142 1.79406e-20)
(1.04692 0.0128168 0)
(1.04665 0.0132234 2.54411e-21)
(0.973982 0.0164166 6.82114e-21)
(1.062 0.0240845 -6.93394e-21)
(0.481252 0.0115451 0)
(0.0386834 -0.0220076 0)
(1.03793 0.0307238 0)
(1.05109 0.0309543 7.00464e-21)
(0.676275 0.00552761 0)
(0.0410567 -0.0207785 0)
(0.99997 0.000314296 4.55317e-21)
(1.00063 0.0156751 -6.18583e-21)
(1.04232 0.0202698 6.70135e-21)
(1.00798 0.00756826 -8.49851e-22)
(0.635696 0.0141529 -1.05672e-20)
(1.06263 0.0134767 -1.45721e-20)
(1.04745 0.0466866 -7.78641e-21)
(0.995259 0.0822832 0)
(0.99307 0.0797831 0)
(0.995916 0.0148333 7.83021e-21)
(1.03988 0.0441065 0)
(1.05142 0.205185 7.85338e-21)
(0.995511 0.0101415 -2.03645e-20)
(1.06823 0.0236986 9.54229e-21)
(1.01439 0.0288047 -2.29898e-21)
(0.940202 0.38614 -4.86737e-21)
(0.584465 -0.0200125 -1.98033e-20)
(0.999685 -0.00117955 0)
(1.18249 0.134989 4.57387e-21)
(1.03953 0.0116213 1.02569e-21)
(0.994564 0.0101483 0)
(0.968048 0.0165873 3.37511e-21)
(1.02035 0.012903 9.37839e-22)
(0.844118 0.0537119 -8.98454e-20)
(1.00426 0.0102919 -6.33509e-21)
(1.04613 0.016432 8.18834e-21)
(1.0023 0.00309852 0)
(1.04568 0.0137613 -1.93558e-21)
(1.0325 0.0183702 -3.0888e-21)
(0.959018 0.0160176 -3.55865e-21)
(1.01429 0.0183811 0)
(1.01761 0.0102752 1.10516e-21)
(0.99305 0.00959407 0)
(1.00502 0.0129048 0)
(0.524229 -0.0191376 -2.23955e-20)
(1.07274 0.0347535 0)
(1.05121 0.0171603 1.21874e-20)
(1.07211 0.0343511 0)
(0.987728 0.0283425 5.24233e-21)
(0.303345 0.00803276 -4.25625e-21)
(0.760875 0.0103867 -3.19252e-21)
(1.01559 0.00110394 2.50576e-21)
(1.05303 0.0182083 -7.11912e-21)
(1.06334 0.0131303 -5.8232e-21)
(1.02233 0.00860328 -2.92719e-22)
(1.00148 0.000772585 -6.04813e-21)
(1.05235 0.0304997 -1.17776e-20)
(1.07942 0.0325953 1.05945e-20)
(0.485275 0.0102353 0)
(1.06003 0.0219779 0)
(0.999953 0.000413672 -4.90799e-21)
(1.024 0.0293994 0)
(1.0738 0.0506081 3.90199e-20)
(0.999815 -0.000640878 -1.00232e-20)
(1.06404 0.0250606 -4.13405e-21)
(1.0016 0.00143582 0)
(0.42528 0.00952789 -2.63955e-20)
(1.00059 0.0411174 0)
(1.00377 0.0123628 6.90628e-21)
(0.998245 0.000238051 0)
(1.01712 0.0176128 0)
(0.827528 0.0134283 5.84601e-21)
(1.06113 0.0251201 0)
(1.07003 0.0236089 -1.00077e-20)
(1.02021 0.00919014 0)
(1.04301 0.0118933 3.72925e-21)
(1.10391 0.0576189 -4.81564e-22)
(0.951247 0.0173992 -1.20492e-20)
(1.03725 0.0312177 -5.98613e-21)
(0.57294 0.0166565 4.12157e-22)
(0.622428 0.0199376 -5.89005e-21)
(1.06115 0.0225047 -1.51823e-20)
(1.00359 0.00173063 2.85763e-21)
(1.19919 0.174887 1.13378e-19)
(0.868853 0.0315492 1.13448e-20)
(0.983008 -0.00438101 2.77143e-21)
(1.02074 0.00761 6.78923e-23)
(1.06718 0.1516 2.12845e-20)
(1.06762 0.0396484 -6.0597e-21)
(1.01561 0.00569201 -3.5006e-21)
(0.45576 0.0102108 1.12127e-20)
(0.0952259 -0.0149544 5.50283e-20)
(1.05153 0.054085 3.11719e-21)
(0.997122 0.0397236 -1.28365e-20)
(1.01902 0.0165971 -1.5556e-21)
(1.01797 0.010567 -2.33654e-21)
(0.654452 0.0142808 7.76214e-21)
(1.02138 0.109054 1.8501e-22)
(1.01457 0.000778413 0)
(0.949474 0.08322 2.17805e-20)
(1.01112 0.0185506 -4.66845e-22)
(1.04193 0.0398527 0)
(1.02007 0.00799214 -9.20716e-22)
(0.988013 0.0452881 0)
(1.02864 0.055973 2.20602e-21)
(0.999934 0.000388158 0)
(1.04284 0.0135591 5.91793e-21)
(0.996434 0.107453 7.95206e-21)
(0.957235 0.0142831 -1.87066e-20)
(1.06092 0.016094 -1.50553e-20)
(1.10493 0.0858494 7.76852e-21)
(1.05588 0.0108713 0)
(1.0612 0.0512045 7.28255e-21)
(0.468302 0.0122273 2.5472e-21)
(1.04149 0.057596 -1.10625e-21)
(1.04604 0.0142496 -4.21279e-21)
(1.08262 0.0230867 3.2312e-20)
(0.493332 0.0139271 0)
(0.996084 -0.00187061 -1.73015e-20)
(0.362507 0.0114 -2.08231e-22)
(1.04503 0.0467189 -1.67218e-20)
(0.971194 0.055023 -1.68674e-20)
(0.903752 0.045506 -1.99104e-20)
(1.00059 0.0209767 8.63839e-21)
(0.0752936 0.0629257 7.27507e-20)
(1.0059 0.00077542 5.68339e-21)
(1.06228 0.0176057 -1.25947e-20)
(0.350029 0.00695726 0)
(0.998993 0.0227233 8.50386e-21)
(0.979443 0.039968 -1.77079e-20)
(1.06617 0.0294195 -1.35019e-20)
(1.00727 0.0151356 0)
(1.09676 0.0491538 -1.6751e-20)
(1.04758 0.215447 -6.74522e-21)
(1.01481 0.0177692 3.13118e-21)
(1.18119 0.142738 -5.06465e-21)
(1.06084 0.0251041 0)
(1.01975 0.00858264 0)
(1.03505 0.0738276 -4.14774e-21)
(1.02986 0.0304601 3.40626e-22)
(1.01208 0.0291296 -1.16898e-21)
(0.936102 0.0152887 8.98205e-21)
(0.982253 -0.00514916 -1.5417e-21)
(1.05221 0.0189319 -7.8746e-21)
(0.998959 0.0104702 0)
(1.12952 0.236268 0)
(1.01548 0.0010223 0)
(0.972156 0.00028142 -1.99514e-20)
(1.00037 0.0233283 7.95537e-21)
(0.944647 0.0756167 -1.88001e-20)
(0.861326 0.030554 1.27597e-20)
(0.763982 0.0116942 3.26598e-21)
(1.06002 0.0215373 0)
(1.00416 0.0245313 -4.03351e-21)
(1.00346 0.00490913 2.63683e-21)
(1.06002 0.0223684 -1.79295e-20)
(1.13148 0.0396682 0)
(1.03226 0.02215 0)
(1.00417 0.0128096 1.16773e-20)
(1.01064 0.0132702 -1.28313e-21)
(1.04632 0.0470068 8.88167e-21)
(1.01466 0.0155533 4.20045e-21)
(0.951793 0.0161192 0)
(0.999798 0.000484843 -1.01783e-20)
(1.05716 0.015312 -7.683e-21)
(1.07404 0.023408 -6.57479e-22)
(0.783468 0.0135635 1.39391e-20)
(0.999931 -0.000674803 0)
(1.00462 0.0105761 6.78714e-21)
(0.999144 0.000829248 4.723e-21)
(0.991938 0.0533746 2.54533e-21)
(1.14569 0.0552092 -3.61764e-20)
(0.560671 0.015857 0)
(0.746356 0.0115602 0)
(1.06243 0.0266006 0)
(0.917585 0.0761978 0)
(0.723123 0.0111165 1.06267e-20)
(0.995399 0.0152482 0)
(0.994412 0.0474909 -8.97195e-21)
(1.06113 0.0230682 1.95697e-21)
(1.04603 0.0169236 0)
(1.01959 0.0333687 2.70647e-21)
(1.05204 0.0135219 0)
(0.978826 0.0170883 0)
(1.0364 0.0128533 5.5707e-21)
(1.02121 0.0130536 2.30883e-20)
(1.04109 0.0150177 0)
(0.561569 -0.0198485 2.41184e-20)
(0.996451 0.00551195 0)
(0.412747 0.00978573 -1.23117e-20)
(0.47028 0.014511 0)
(0.78861 0.0137475 -1.66322e-20)
(0.671664 0.0189949 -1.18705e-20)
(1.06112 0.0217183 0)
(1.05586 0.0191524 -6.50766e-21)
(0.48242 -0.0222002 -3.77474e-20)
(1.01109 0.0132949 1.20949e-21)
(0.98293 0.0650563 0)
(0.996342 0.00210616 -3.27011e-21)
(1.11591 0.108195 0)
(1.00386 0.00489184 4.03538e-21)
(1.14919 0.473596 -8.37887e-20)
(0.767437 0.166976 1.7479e-20)
(0.981052 0.102638 -1.1006e-20)
(1.00008 0.0188959 -6.78453e-21)
(0.990118 0.0250616 0)
(0.741257 0.011796 2.01398e-20)
(0.988784 0.0521641 0)
(0.975652 0.0590106 -6.15169e-21)
(1.00192 0.0070416 0)
(0.918748 0.013571 -2.84648e-21)
(1.10724 0.0626568 0)
(1.06099 0.0213956 0)
(1.07059 0.0456582 2.55934e-20)
(0.378144 0.00830221 -1.80656e-22)
(1.01502 0.0280828 -1.80701e-21)
(0.431808 0.0112282 -1.53345e-20)
(1.06121 0.0217914 -8.0772e-21)
(1.12838 0.0378325 0)
(1.04757 0.021217 0)
(1.07197 0.0462015 -3.27158e-20)
(0.957199 0.0198381 1.22583e-21)
(1.08228 0.034334 -2.3771e-20)
(1.00193 0.0035737 0)
(1.04763 0.0201075 2.68514e-21)
(0.832303 0.0352574 0)
(1.00541 0.00659641 0)
(0.752054 0.0109178 3.29809e-21)
(0.774108 0.0135133 -2.18716e-20)
(0.568469 0.017444 -2.55229e-21)
(0.730877 0.0115762 -1.76667e-20)
(1.06115 0.0229806 0)
(0.977387 0.0171306 0)
(0.968863 0.00749133 0)
(1.15114 0.25831 -6.80839e-20)
(1.00377 0.00186532 -8.60428e-21)
(1.10052 0.028146 8.5052e-21)
(1.08447 0.0356714 -2.40648e-20)
(1.03421 0.0536287 -4.64187e-21)
(1.06824 0.0255462 1.22422e-22)
(0.865993 0.246701 -1.99925e-20)
(1.11483 0.0982946 -1.84266e-20)
(0.990893 0.000448899 0)
(0.987332 0.161496 7.21823e-21)
(0.407125 -0.0250672 0)
(0.996184 0.00535152 0)
(1.04119 0.024771 2.61914e-21)
(1.00334 0.00407282 -3.01854e-21)
(1.00011 0.00424408 0)
(1.00238 0.00336782 4.89973e-22)
(0.832628 0.013606 -4.1794e-21)
(0.999732 -0.000652918 2.2576e-20)
(1.01537 0.0172041 2.26597e-21)
(1.06028 0.0237169 -1.81349e-20)
(0.99624 -0.00495252 7.91252e-21)
(1.05276 0.0171081 -1.27054e-21)
(1.00654 0.0167331 4.57653e-21)
(0.900358 0.0420802 3.35051e-20)
(1.03578 0.0128595 -1.34956e-21)
(0.79314 0.274463 4.68746e-21)
(0.998586 0.00124522 6.71904e-21)
(0.735492 0.125449 8.08558e-20)
(0.64717 -0.00554342 1.02698e-20)
(1.07066 0.044019 -2.65193e-20)
(1.06665 0.014912 0)
(1.0533 0.0250289 -1.15498e-22)
(0.914611 0.384734 -1.91266e-21)
(1.06561 0.0294266 1.75134e-20)
(0.814971 0.0135915 4.11789e-21)
(0.908276 0.148806 0)
(0.997987 0.00150561 1.15543e-20)
(0.621426 -0.0171925 0)
(0.954779 0.0197018 -2.18822e-20)
(0.458662 0.0126941 5.29457e-21)
(1.03201 0.0551491 -1.75048e-21)
(1.08387 0.0346288 0)
(1.12364 0.0395259 -2.56268e-20)
(1.0621 0.0265369 0)
(0.999977 -0.000118417 -1.0997e-21)
(1.04395 0.0123256 1.74738e-21)
(0.671268 0.0171714 8.35851e-21)
(1.04166 0.0243024 -1.05389e-20)
(1.03906 0.0168794 -6.38413e-21)
(1.04425 0.0284645 3.55613e-21)
(1.06417 0.0222968 9.20277e-21)
(1.05856 0.0187531 1.01961e-20)
(1.06134 0.0214075 2.88868e-21)
(0.931702 0.0138007 -1.0996e-20)
(1.00741 0.00622339 -9.62003e-21)
(0.772994 0.0120172 1.08031e-20)
(1.066 0.0208961 1.04794e-20)
(1.00189 0.00900315 8.96915e-21)
(1.02731 0.0195015 -8.41498e-22)
(0.701896 0.00526464 6.75217e-21)
(1.01574 0.0282859 6.93134e-21)
(1.06861 0.041417 6.11065e-21)
(0.48421 -0.0243872 -9.22401e-22)
(0.99803 1.76367e-05 1.15581e-22)
(1.06243 0.018611 0)
(1.01183 0.0720366 1.32199e-21)
(1.05648 0.0108859 -1.23105e-20)
(1.0267 0.0191532 0)
(1.00173 0.00871376 3.761e-21)
(1 7.91062e-05 0)
(1.06763 0.0386092 1.26322e-20)
(0.786308 0.0133324 0)
(1.00353 0.0140641 9.67895e-21)
(1.0055 0.00694136 0)
(0.933782 0.0105775 4.49782e-21)
(1.11894 0.0402109 2.16544e-20)
(1.05932 0.0617517 -1.44032e-20)
(0.995555 -0.00321106 1.36546e-20)
(1.01406 0.0155109 3.24449e-23)
(1.01473 0.0189286 0)
(0.999948 0.000283031 0)
(0.995993 0.00991337 1.26914e-20)
(0.977223 0.101736 3.59175e-21)
(0.966152 0.0464266 1.05125e-20)
(0.765938 0.184951 -6.02745e-20)
(1.14914 0.0939069 1.32913e-21)
(1.05751 0.0100967 1.35982e-20)
(1.061 0.0224582 -2.22292e-21)
(0.9645 -0.00307655 1.02598e-22)
(0.999574 -0.00021779 1.35008e-20)
(1.02988 0.0170652 5.54843e-22)
(1.09776 0.0284066 0)
(0.906237 -0.00340299 -1.44455e-20)
(1.06396 0.0331665 3.78312e-21)
(1.03427 0.0185255 -2.10676e-20)
(1.00002 0.000314452 7.77911e-21)
(1.11831 0.104137 1.93171e-20)
(1.05078 0.0253318 0)
(1.06173 0.0151494 0)
(0.996629 0.00205708 6.06286e-21)
(1.06799 0.0252305 2.07813e-20)
(0.970106 0.0322756 8.20644e-21)
(0.999854 4.11031e-05 -1.19668e-20)
(0.968223 0.0103932 1.15431e-20)
(1.01642 0.00101155 2.02932e-21)
(1.06264 0.0125217 -1.0433e-20)
(1.05292 0.0318566 -2.27303e-21)
(0.910298 0.139133 2.21418e-20)
(1.00223 0.00345867 -4.78522e-21)
(0.800131 0.0119451 -1.79427e-20)
(1.00001 0.000201309 0)
(0.450003 0.0151103 -8.28531e-21)
(0.572214 -0.0191188 -1.15018e-20)
(0.999035 0.00299998 0)
(0.594045 -0.00930044 0)
(1.00739 0.000895744 0)
(1.0071 0.0145359 0)
(0.9909 0.024609 -8.16224e-21)
(1.00001 0.000173442 0)
(1.0294 0.0172955 -1.11351e-22)
(0.986553 0.00308663 5.73472e-21)
(1.01138 0.0192005 0)
(0.994634 0.00880988 0)
(1.01276 0.00335829 -1.97438e-21)
(0.973298 0.0237442 0)
(0.99529 0.159907 0)
(0.810924 0.0128588 0)
(1.02072 0.0165587 -8.24071e-23)
(0.528206 0.0175418 0)
(1 4.15617e-05 0)
(0.970706 0.00102434 2.23741e-20)
(1.05089 0.0198825 7.64701e-21)
(0.962737 -0.0024622 -1.40127e-20)
(0.503405 0.012847 0)