/*--------------------------------*- C++ -*----------------------------------*\
| =========                 |                                                 |
| \\      /  F ield         | OpenFOAM: The Open Source CFD Toolbox           |
|  \\    /   O peration     | Version:  v2012                                 |
|   \\  /    A nd           | Website:  www.openfoam.com                      |
|    \\/     M anipulation  |                                                 |
\*---------------------------------------------------------------------------*/
FoamFile
{
    version     2.0;
    format      ascii;
    class       volVectorField;
    location    "100";
    object      U_0;
}
// * * * * * * * * * * * * * * * * * * * * * * * * * * * * * * * * * * * * * //

dimensions      [0 1 -1 0 0 0 0];


internalField   nonuniform List<vector> 
13749
(
(1.01409 0.000661213 -2.82735e-21)
(1.06139 0.0206339 -1.44666e-20)
(0.987353 -0.00639516 0)
(1.02333 0.0592091 1.0271e-23)
(0.990759 0.0481066 0)
(1.06104 0.0461809 1.70588e-20)
(0.967149 0.194267 1.03567e-20)
(1.03707 0.00932745 0)
(0.992644 0.007185 6.78892e-22)
(1.02422 0.0576553 -1.74166e-22)
(1.06076 0.0168493 0)
(1.00069 0.00461819 9.88503e-21)
(1.04197 0.0666958 -1.27769e-21)
(0.917639 0.014526 0)
(0.754807 0.0112069 0)
(1.0437 0.00938169 -6.09535e-21)
(0.989516 0.0161675 -7.17031e-21)
(1.06113 0.0226255 0)
(1.0021 0.00377558 7.03988e-21)
(0.99717 3.92799e-07 -1.86047e-21)
(0.330268 0.00106691 -2.13346e-20)
(0.734261 0.0122144 3.47403e-21)
(0.979231 0.0165011 -2.5332e-21)
(1.06351 0.0122181 0)
(0.98863 0.0478952 0)
(1.05304 0.0345968 2.09914e-20)
(1.05097 0.0356941 7.17055e-21)
(1.04199 0.052622 -9.40744e-21)
(1.01627 0.00598148 2.84384e-21)
(0.970926 0.0209618 -1.79015e-21)
(1.13349 0.212399 2.73553e-21)
(0.56331 0.0167624 0)
(0.922129 0.0482639 -1.45454e-20)
(1.05678 0.0132703 1.48501e-20)
(1.01095 0.0119686 4.73499e-22)
(1.0149 0.00547935 0)
(0.986039 -0.00526915 8.74076e-21)
(0.993922 0.0207273 -9.50146e-21)
(1.03833 0.0293531 -4.06828e-21)
(1.05583 0.0207551 1.11043e-20)
(1.06037 0.0470602 -2.00647e-20)
(0.250412 0.0057073 1.50202e-20)
(0.940391 0.0244607 0)
(0.923994 -0.00392941 0)
(1.0612 0.0226726 -2.36353e-22)
(1.04039 0.043346 0)
(1.00023 0.00451626 0)
(1.06169 0.0305664 9.29898e-21)
(1.01877 0.0143484 0)
(0.0271799 -0.0169389 -5.90779e-20)
(1.06366 0.0127683 2.70253e-21)
(0.341895 0.000860333 1.89291e-20)
(1.05607 0.0211181 -1.28861e-20)
(1.07166 0.0231999 9.34452e-21)
(1.00105 0.0829101 0)
(1.01821 0.0143481 -1.41017e-21)
(1.04591 0.0628256 -1.47236e-23)
(0.925274 0.0458464 0)
(1.01308 0.0149201 4.63081e-21)
(1.03141 0.017727 -1.25372e-20)
(1.00242 0.0198481 4.33012e-21)
(1.02593 0.0383159 0)
(0.57897 0.0147238 0)
(1.00058 0.00433678 -1.03437e-20)
(1.02409 0.0285424 6.10384e-22)
(0.947494 0.0144642 5.63835e-21)
(0.992503 0.00772306 -5.55059e-22)
(0.994478 0.019984 0)
(1.04641 0.00990887 1.4427e-20)
(1.04009 0.0422098 0)
(0.748433 0.0152354 -2.10204e-20)
(1.00804 0.00147741 4.91481e-21)
(1.0531 0.0200474 -1.05882e-20)
(1.01891 0.0184623 3.03806e-21)
(1.06794 0.0142366 -4.0772e-21)
(1.07219 0.147874 -4.3182e-21)
(1.04294 0.0146359 0)
(1.01293 0.015489 0)
(1.04618 0.061055 7.55789e-21)
(1.00001 0.000500819 0)
(1.01519 0.00577065 1.52734e-21)
(0.98168 0.0448607 -1.13999e-20)
(1.06396 0.0118189 3.055e-21)
(1.01653 0.00621613 -1.8374e-21)
(1.05979 0.0585282 -6.9381e-21)
(1.05607 0.148164 1.00905e-20)
(0.95132 0.0133466 6.68518e-21)
(1.06609 0.0255025 5.43466e-21)
(1.01061 0.0115052 -4.96344e-22)
(1.06114 0.0297057 -7.51127e-23)
(1.00783 0.00785468 1.9952e-21)
(1.07261 0.0227626 0)
(1.0281 0.0332431 0)
(1.12825 0.0372741 0)
(0.774795 0.290437 0)
(1.05927 0.0243415 8.55951e-21)
(1.04728 0.0206069 0)
(0.995776 -0.00349857 -7.58684e-21)
(1.00808 0.00171433 0)
(0.950042 0.01458 9.23608e-21)
(0.448543 0.00723107 2.55125e-20)
(1.01445 0.0055694 0)
(1.0432 0.0182823 3.61665e-21)
(0.687144 0.0110277 -1.56898e-21)
(0.999783 -0.00108353 -2.12308e-21)
(0.704168 0.0107159 1.60479e-21)
(1.06302 0.0324129 0)
(0.994811 0.00829407 1.16708e-20)
(1.06112 0.0291762 2.27589e-22)
(0.99641 0.00457739 9.83464e-21)
(1.00063 0.00488429 -9.59755e-21)
(0.937335 0.0247532 -8.90536e-21)
(1.06367 0.0325949 -6.77222e-21)
(0.447111 0.0469815 6.11477e-20)
(0.406833 0.0045616 -3.30787e-21)
(1.02838 0.0180485 2.63705e-21)
(1.01419 0.0052148 -3.28617e-21)
(0.998905 0.0808123 -2.47835e-21)
(0.973083 -0.0120505 0)
(1.01462 0.0140184 -3.2073e-21)
(1.03667 0.00955426 -8.30756e-22)
(1.00015 0.000129139 -3.18749e-21)
(1.01487 0.000979065 2.17182e-21)
(1.01748 0.00461899 -5.34623e-22)
(0.985927 0.044886 -2.59069e-21)
(0.757818 0.0158755 1.9628e-20)
(1.06074 0.0447773 0)
(0.729127 0.00648753 -1.09718e-20)
(1.04684 0.0277385 2.45001e-21)
(1.05768 0.0206882 1.99734e-20)
(1.03375 0.0547698 4.66951e-21)
(0.903042 0.013263 -6.94041e-21)
(0.915947 0.0114158 -9.71988e-23)
(1.06859 0.0235441 4.59186e-21)
(1.05016 0.0541497 -1.25567e-20)
(0.959108 0.00296113 4.00399e-20)
(1.06787 0.0148127 0)
(1.0189 0.0135233 2.56196e-21)
(1.03432 0.0181782 4.88079e-23)
(0.0568141 -0.00810433 0)
(0.857224 0.0393669 4.81751e-20)
(1.05187 0.0247904 -2.21139e-23)
(1.04235 0.0294373 3.10194e-21)
(0.564454 -0.0143069 2.27489e-20)
(1.00902 0.00202864 1.93418e-21)
(0.0130092 -0.00936334 0)
(1.04328 0.0570524 5.66705e-21)
(0.995353 0.113793 -4.77459e-21)
(0.972856 -0.00555991 1.70821e-20)
(1.05993 0.0221781 1.23696e-20)
(1.00875 0.00187989 0)
(1.05564 0.0123679 0)
(0.73413 0.0100858 -8.46116e-21)
(1.08211 0.0236945 -2.30534e-20)
(1.04684 0.0117757 0)
(0.489507 0.010157 0)
(1.04352 0.0552002 9.84369e-23)
(1.04792 0.0661606 0)
(1.06146 0.0208307 1.33202e-20)
(0.998852 0.0100003 1.87633e-20)
(0.673736 0.0977326 1.78693e-20)
(1.00303 0.00139054 -3.36909e-21)
(0.222242 -0.0089757 5.34948e-20)
(0.92246 0.0521094 1.72109e-20)
(0.997516 0.00156214 -7.2173e-23)
(0.998806 0.0157538 -2.17368e-20)
(1.06604 0.0259329 9.87562e-21)
(0.988023 -0.00678518 0)
(0.970207 0.0225849 -2.69506e-20)
(1.04226 0.0689978 -3.26825e-21)
(1.04271 0.0302495 0)
(0.996149 0.00480558 0)
(1.01903 0.0139785 0)
(1.05185 0.0193437 0)
(0.961954 0.00700747 4.77963e-21)
(0.972869 0.203124 0)
(1.07815 0.148827 6.69207e-21)
(1.04655 0.0122047 -3.89316e-21)
(0.70734 0.00717585 2.06974e-20)
(0.676068 0.00461302 3.53593e-21)
(0.999898 -0.000784216 1.91814e-21)
(1.05651 0.0128238 -5.67212e-21)
(1.04708 0.0228835 -6.66821e-21)
(0.827875 0.35081 -7.09986e-21)
(1.07099 0.02251 -1.5859e-20)
(0.960158 0.00687768 0)
(0.550092 -0.0126064 -3.86195e-20)
(1.01287 0.0415339 -4.32437e-21)
(1.16166 0.0668307 4.68174e-20)
(1.00286 0.0204327 -1.54316e-21)
(1.04741 0.0234523 1.26733e-20)
(0.966733 0.0160052 1.60472e-20)
(1.03955 0.0111488 3.31987e-21)
(1.0724 0.0490403 -3.04141e-20)
(0.532953 -0.00901508 6.46883e-21)
(1.0619 0.146052 -1.4757e-20)
(1.05986 0.0439958 8.47245e-21)
(-0.0905943 -0.0144273 0)
(1.01519 0.00070755 0)
(1.04642 0.0282216 4.59472e-21)
(1.01969 0.00820674 0)
(1.06284 0.0130741 1.19226e-20)
(1.04783 0.0640839 1.33651e-23)
(0.948206 0.0355744 1.84988e-21)
(0.61104 0.0179858 5.18005e-21)
(1.03181 0.0233876 -1.36077e-21)
(1.01184 0.0138679 -3.05508e-21)
(1.07282 0.0479013 2.62193e-20)
(1.07078 0.0227442 0)
(1.06667 0.0380387 0)
(1.02897 0.0183597 -2.30899e-21)
(0.948498 0.0154456 1.52763e-21)
(0.210342 0.00307127 -1.89248e-20)
(0.863787 0.267002 5.12206e-21)
(1.05189 0.0355254 -7.51095e-21)
(1.06967 0.0434496 2.14657e-20)
(0.636012 0.0184621 0)
(1.05843 0.0154197 0)
(0.603716 0.018923 -1.49584e-20)
(1.01586 0.00599358 0)
(1.18945 0.158106 -8.01689e-20)
(0.950754 0.0347767 0)
(1.07134 0.023269 -2.51575e-20)
(1.03297 0.0152609 0)
(0.949928 0.0880377 1.17684e-20)
(1.07071 0.0221026 0)
(1.03207 0.0241003 0)
(0.849472 0.0399064 -5.32975e-20)
(0.620407 0.0178181 0)
(0.969667 0.016543 5.35204e-21)
(0.99104 -0.00241074 2.18661e-20)
(0.999996 -5.15512e-05 -8.26334e-21)
(1.0002 0.000150221 0)
(1.00036 0.00453308 0)
(0.80313 0.0136956 1.65141e-20)
(0.984663 0.0456578 1.33758e-20)
(0.983556 0.16647 -5.97755e-21)
(1.07159 0.0229529 1.49967e-20)
(0.99747 -0.000114717 1.70112e-21)
(0.990306 0.0159635 0)
(0.990895 0.0519239 -2.32503e-21)
(1.00647 0.0137932 0)
(1.02962 0.0199044 -5.2071e-21)
(1.06136 0.0256304 5.86042e-21)
(1.06383 0.055354 -2.23759e-20)
(0.568617 -0.0101081 -4.70719e-23)
(0.981534 0.042801 2.66555e-20)
(0.591805 0.0215069 7.27945e-22)
(1.04103 0.0405154 1.70259e-21)
(0.993047 0.00169748 5.0769e-22)
(0.137296 -0.0135222 -2.23913e-20)
(0.958925 0.00426894 -3.67006e-20)
(1.00621 0.000624759 -4.93876e-21)
(1.02822 0.0341769 4.05101e-22)
(0.855126 0.0739573 0)
(1.05114 0.0247 7.2361e-21)
(0.994458 0.00794014 -1.15457e-20)
(0.187739 -0.00319811 -3.44991e-20)
(1.0541 0.155237 -6.373e-21)
(0.612036 0.0155117 0)
(1.02072 0.00863142 6.55975e-22)
(0.920392 0.0790847 7.15449e-21)
(1.06169 0.0299608 9.79965e-21)
(1.02014 0.0393917 1.04417e-21)
(0.972231 -0.00111346 2.07933e-20)
(1.06743 0.0149929 -2.21115e-21)
(1.06742 0.0232262 -2.69892e-20)
(1.05351 0.0352684 -1.19888e-20)
(0.895932 0.16134 2.54778e-20)
(0.84868 0.0682597 1.18889e-19)
(1.01542 0.00193293 5.22705e-21)
(0.372454 0.00593389 2.10479e-21)
(1.06032 0.0197342 -1.33e-20)
(0.537076 -0.0145731 0)
(1.0125 0.040446 5.49878e-23)
(0.523713 0.0117858 5.32978e-21)
(0.190349 0.00271404 -1.26285e-21)
(1.05324 0.0171719 1.07048e-20)
(0.850408 0.0581813 -4.19968e-20)
(1.05122 0.0193001 -6.53755e-21)
(0.999038 0.0151079 9.24722e-21)
(1.01721 0.0170428 1.95984e-22)
(1.09242 0.0257775 -3.81294e-21)
(0.28432 -0.00297038 -2.53746e-21)
(1.05283 0.0250441 -1.41443e-20)
(0.971604 -0.00656085 -1.8839e-20)
(1.05441 0.0468201 -1.14562e-20)
(1.01364 0.0149522 0)
(1.15916 0.0705467 -1.6557e-20)
(0.99349 0.0457654 0)
(1.06527 0.0228687 -4.67827e-21)
(1.01709 0.0148141 0)
(0.590845 0.0190794 2.16895e-20)
(1.06107 0.0165676 -4.89323e-21)
(0.787785 0.0133328 0)
(1.07083 0.022961 -5.17925e-21)
(0.994926 -0.00271986 1.80379e-20)
(1.01387 0.00334779 0)
(1.03671 0.02517 -7.37589e-21)
(1.01397 0.000805446 3.7451e-21)
(1.04334 0.0150228 -3.86318e-21)
(1.01086 0.0111297 -4.15392e-21)
(1.05563 0.0113806 0)
(0.118657 -0.0108452 2.06978e-20)
(1.05594 0.0118654 0)
(1.02116 0.00868728 1.65498e-22)
(1.02726 0.0145559 -5.01687e-22)
(0.9977 0.00138194 -7.47999e-21)
(1.03725 0.0123103 0)
(1.05309 0.0186813 0)
(0.353929 0.00551168 0)
(1.06044 0.04971 -6.75109e-21)
(1.02087 0.0321904 0)
(0.598992 0.00617984 3.8873e-21)
(1.01522 0.00168462 -3.38064e-21)
(0.991665 0.0457185 0)
(1.04363 0.0186196 4.49309e-21)
(0.789118 0.0141034 3.59334e-21)
(1.01517 0.0139588 0)
(1.04669 0.0152576 4.82399e-21)
(1.07046 0.0281742 0)
(0.30938 0.00825939 2.50757e-20)
(1.05669 0.0264915 -9.99325e-23)
(1 9.35503e-05 0)
(-0.0847636 -0.0165266 7.18149e-20)
(0.99993 -0.000138778 -7.53557e-21)
(1.01056 0.0106908 3.89004e-21)
(1.01925 0.00988331 0)
(0.99355 0.011103 0)
(0.97084 -0.00206921 1.78155e-20)
(1.01898 0.0101119 0)
(1.00062 0.00414989 1.11652e-20)
(1.01779 0.00481089 1.00868e-21)
(1.04335 0.0517634 -4.56997e-21)
(1.02007 0.0322536 -1.11219e-21)
(1.03368 0.0180219 0)
(1.01832 0.0180606 -2.84787e-21)
(1.05046 0.0364883 0)
(0.993353 0.0107312 -3.2955e-22)
(0.945953 0.0896416 -1.55926e-20)
(0.995082 -0.00517196 -1.07997e-20)
(1.12475 0.220306 -3.17538e-21)
(1.0189 0.039495 -2.13389e-21)
(1.0344 0.0169347 -3.13785e-21)
(1.06664 0.0370961 -1.09362e-20)
(1.0348 0.0180058 -2.21365e-21)
(1.04604 0.0153298 0)
(0.96627 0.00347776 2.59017e-20)
(1.01318 0.0189156 4.9547e-21)
(0.994063 0.00982495 -6.73387e-21)
(1.00094 0.0240654 7.70336e-21)
(1.00059 0.0249631 0)
(0.126003 -0.000687888 -2.12326e-21)
(0.816187 0.210278 7.10653e-20)
(1.02704 0.0381924 -1.50958e-22)
(1.00703 0.0176986 5.14104e-21)
(1.06047 0.063674 1.45422e-20)
(1.06615 0.0182375 0)
(1.03851 0.102292 -6.30246e-21)
(1.14584 0.24329 6.55471e-20)
(0.991645 -0.00243133 0)
(0.999976 -6.98556e-05 7.4463e-21)
(1.01655 0.0147637 0)
(0.251612 0.00208981 0)
(0.83742 0.0273948 0)
(0.999519 0.0111078 -5.22433e-23)
(0.999579 0.115875 0)
(0.3805 0.00701568 -4.10857e-21)
(0.751779 0.0101902 0)
(0.995523 -0.00143315 1.73826e-20)
(0.806056 0.0139463 0)
(1.05209 0.0244877 6.93426e-21)
(0.914156 0.0668268 6.19097e-20)
(1.00002 0.000380923 -6.71591e-21)
(0.999417 0.0106282 -4.39475e-21)
(1.02991 0.0314005 0)
(1.03256 0.105996 2.9166e-21)
(-0.0385861 -0.0102111 0)
(1.07796 0.0432672 8.01936e-21)
(1.04721 0.0217386 0)
(0.99951 -0.00121498 5.82505e-21)
(0.995474 -0.00396901 0)
(0.732718 0.0109357 -1.89277e-20)
(0.966652 0.00517191 -2.39258e-20)
(0.999894 -0.000114689 9.08909e-21)
(1.0121 0.000233524 2.78935e-21)
(0.54183 0.0189612 -4.73219e-21)
(1.00015 0.0203042 -8.75696e-21)
(0.999182 0.00971928 -1.86515e-20)
(1.04331 0.0177768 0)
(1.0619 0.0239291 0)
(1.06939 0.0238444 -1.22758e-20)
(0.515955 -0.0143134 0)
(1.00345 0.024272 -6.84437e-21)
(0.963252 0.0382052 6.36263e-21)
(1.16736 0.145477 4.12258e-20)
(0.538823 0.0849612 1.32281e-19)
(1.12683 0.198546 1.09083e-21)
(1.0601 0.0235209 5.8798e-21)
(1.07298 0.0225197 0)
(1.00326 0.00143093 -7.70636e-21)
(1.06049 0.0600952 0)
(1.00171 0.000449544 0)
(1.06322 0.0171757 0)
(1.03666 0.0123124 2.77208e-21)
(1.05278 0.0245539 4.5731e-21)
(1.0507 0.0163056 2.01394e-20)
(1.06023 0.0239294 2.27311e-20)
(1.06359 0.0157369 7.5469e-21)
(1.01348 0.0195073 0)
(1.03786 0.0237356 -3.50489e-21)
(1.04742 0.0184159 -5.01652e-21)
(1.06013 0.0233783 -6.97392e-21)
(0.688148 0.00527942 0)
(1.02867 0.105568 6.44522e-22)
(0.999637 -0.000296093 -1.38099e-20)
(0.779751 0.0138917 0)
(0.798006 0.0133878 -1.14327e-20)
(1.05592 0.012874 0)
(1.05928 0.0246343 -9.72957e-21)
(0.995016 0.011158 7.61446e-21)
(1.06031 0.0524176 0)
(1.16597 0.0830609 0)
(1.04264 0.0174442 -7.34052e-21)
(1.06938 0.0231129 5.53019e-21)
(1.00276 0.00460771 8.27655e-21)
(0.89783 0.150937 -4.49267e-20)
(0.983105 0.255649 0)
(0.51713 0.0131076 -2.03767e-20)
(0.955093 0.19419 2.05089e-21)
(1.06384 0.0248054 -8.84433e-21)
(1.00003 0.000405748 -7.12342e-21)
(1.06135 0.0254045 -1.24891e-20)
(1.0351 0.101947 3.75042e-21)
(1.07962 0.0243143 0)
(1.04112 0.0415379 1.98549e-21)
(1.03081 0.0318323 -1.6385e-21)
(1.02307 0.0305553 -1.01528e-21)
(0.9931 0.020586 -5.76813e-21)
(0.659127 -0.000976871 -4.24367e-21)
(0.993079 0.00715603 0)
(0.977148 0.0114487 -3.45756e-20)
(1.00001 0.000324578 -8.53035e-21)
(1.04752 0.0223173 7.19497e-23)
(1.02684 0.0562082 1.03102e-21)
(1.02029 0.00890491 0)
(1.00373 0.00457356 -1.14426e-20)
(0.847664 0.272397 -6.66444e-21)
(1.06323 0.0306327 -1.10104e-20)
(1.07901 0.0420789 1.02349e-23)
(1.09028 0.0261414 -4.07367e-21)
(0.953618 0.0174497 2.26985e-20)
(1.22075 0.210576 0)
(1.01782 0.0168885 -4.56112e-21)
(0.576829 -0.0147044 1.58333e-20)
(1.05192 0.0310045 8.37779e-21)
(1.02622 0.0576732 -1.03895e-21)
(1.04108 0.0594433 -4.26941e-21)
(1.02169 0.0138732 1.2969e-20)
(0.995958 -0.00150645 1.33486e-24)
(1.00138 0.000865604 5.83244e-21)
(1.00001 0.000165867 -8.04431e-21)
(1.04257 0.016999 3.61965e-21)
(0.398918 0.00656026 -4.05068e-21)
(1.03769 0.029766 4.32257e-21)
(1.05344 0.00935192 -7.71457e-21)
(1.06093 0.0212129 0)
(1.11013 0.0795363 0)
(0.477533 0.0851491 -1.63287e-19)
(0.926057 -0.00718767 1.60423e-20)
(1.0201 0.0188799 -7.34587e-22)
(1.00326 0.00475681 3.6589e-21)
(1.106 0.0812619 0)
(0.465216 0.00847236 0)
(1.00049 0.0195613 -2.24774e-22)
(0.995495 0.0107981 0)
(1.05991 0.0217155 0)
(1.06378 0.06194 -8.30595e-21)
(0.993108 0.00216922 0)
(0.978365 0.0114562 2.10897e-20)
(1.0419 0.0541736 8.44625e-21)
(1.03718 0.0112572 2.54328e-21)
(1.01995 0.00987261 -1.34106e-21)
(0.580724 0.0180281 -8.07718e-21)
(0.501061 0.0136552 -5.96824e-21)
(1.16694 0.15321 2.84379e-20)
(0.244315 -0.00619684 0)
(0.571797 0.0136132 3.446e-22)
(0.998666 0.0578016 0)
(1.04776 0.0179768 0)
(1.03707 0.0237827 0)
(1.0374 0.0109244 -9.31083e-21)
(1.00171 0.00134183 0)
(1.05586 0.0199517 3.29035e-21)
(1.01971 0.0100764 0)
(1.01696 0.0368817 -4.38495e-21)
(0.499584 -0.014013 0)
(1.02302 0.0297156 9.24295e-22)
(0.219379 0.0268137 0)
(1.00712 0.0172541 0)
(0.970851 0.00247121 1.10568e-20)
(0.960253 0.0149938 9.83715e-21)
(1.04568 0.0148078 4.10303e-21)
(1.07431 0.023054 1.07511e-20)
(1.02326 0.0279353 -1.11346e-21)
(0.526575 0.0125267 2.32507e-20)
(1.06078 0.0183689 -1.67933e-20)
(1.06296 0.0174581 0)
(0.995287 0.0201656 -1.02587e-20)
(1.01064 0.000243646 -1.74959e-21)
(0.999917 1.58511e-05 -6.46457e-21)
(1.03147 0.0219565 0)
(1.01137 0.0138582 6.6908e-22)
(0.315621 0.00936577 -7.51855e-22)
(1.04699 0.0157488 2.72521e-21)
(0.211351 -0.00108669 0)
(0.913552 0.0615047 -2.47868e-20)
(0.986605 0.0159035 1.96559e-20)
(1.05835 0.0150197 7.54857e-21)
(1.00211 0.00403523 -7.22699e-21)
(0.98454 0.0164395 2.22731e-20)
(1.20915 0.198365 1.89327e-20)
(0.987316 0.0274072 1.51395e-20)
(1.06057 0.0185802 2.34874e-23)
(0.974558 0.0249994 0)
(1.02821 0.00961847 -4.79637e-22)
(0.998379 0.00536361 9.64739e-21)
(1.04951 0.0363658 -6.70852e-21)
(1.01615 0.0371223 0)
(1.07349 0.0519848 -1.20461e-20)
(1.0012 0.0256928 0)
(0.782294 0.319231 7.53723e-20)
(0.994135 0.109692 -1.86927e-21)
(1.05319 0.00981821 2.37171e-21)
(1.05175 0.0171168 -9.46369e-21)
(1.06116 0.0486836 7.48877e-21)
(0.986908 -0.00494251 -1.00983e-20)
(0.995078 0.0162586 -1.48437e-20)
(0.594904 0.0174272 9.04063e-21)
(0.7815 0.0144798 1.18777e-20)
(1.00462 0.0184826 1.70958e-20)
(1.16668 0.0770834 -3.22934e-20)
(1.06119 0.0214732 0)
(1.0663 0.0229202 1.46712e-21)
(0.0659865 -0.020397 5.54969e-20)
(1.06076 0.0172171 0)
(0.973346 0.0596529 1.00959e-20)
(0.617384 0.0152824 -5.46971e-21)
(0.406993 0.00401879 1.14706e-20)
(1.00661 0.0171319 1.52769e-20)
(1.06119 0.0157965 -1.80608e-23)
(0.960807 8.3314e-05 0)
(0.550399 0.0169595 -5.04929e-21)
(1.05854 0.019038 -1.56507e-20)
(1.05625 0.026533 -7.89777e-21)
(1.03753 0.0253644 4.07553e-21)
(0.998199 0.00516775 1.11276e-22)
(1.05609 0.0203235 0)
(1.04281 0.0115058 -4.10263e-21)
(0.437757 0.00881431 2.02544e-20)
(0.929694 0.0149931 -5.69661e-21)
(1.0141 0.00364431 -1.62517e-21)
(1.02194 0.00870709 0)
(1.05758 0.0180618 -6.75253e-21)
(0.962646 -0.00057992 -1.41308e-20)
(0.620546 -0.00141959 -4.24984e-21)
(0.995305 -0.00227404 -1.82705e-20)
(0.992443 -0.00695042 7.05726e-22)
(1.01358 0.0286104 4.36793e-21)
(1.07004 0.0285203 -1.08292e-20)
(0.999609 -0.00122212 -7.02799e-21)
(1.0807 0.0324519 6.11752e-21)
(0.612694 0.015056 7.58027e-21)
(1.00156 0.00041637 -8.21848e-21)
(1.03355 0.0217513 0)
(1.02673 0.0145123 -6.577e-22)
(0.662835 0.00522369 -3.71366e-21)
(0.44447 0.00762113 5.2563e-21)
(1.04788 0.0457539 1.05298e-20)
(0.9384 0.0920013 -7.54384e-21)
(1.03086 0.032728 1.66913e-21)
(1.06398 0.015845 -8.27793e-21)
(-0.0402746 -0.0176102 9.033e-20)
(0.930249 0.0467348 1.84516e-20)
(0.984138 0.0627962 0)
(0.999971 0.000340059 0)
(0.638238 0.652241 4.16788e-20)
(0.984478 0.0172991 1.30301e-20)
(1.003 0.00482608 4.3141e-21)
(1.02903 0.054584 -2.20642e-21)
(1.04618 0.0295462 -9.53042e-21)
(1.0414 0.0155532 0)
(0.997731 0.056746 0)
(0.964006 0.0368562 -2.11098e-20)
(0.924602 0.013762 1.51736e-20)
(0.988465 0.0175353 1.12689e-20)
(1.01236 0.0154972 -4.96247e-21)
(0.0737024 -0.0126525 -6.16181e-20)
(0.522129 -0.0141361 1.79407e-20)
(1.04692 0.0128166 0)
(1.04665 0.0132233 2.54468e-21)
(0.973982 0.0164144 6.82199e-21)
(1.062 0.0240859 -6.93472e-21)
(0.481257 0.0115457 0)
(0.0386913 -0.0220045 0)
(1.03793 0.0307237 0)
(1.05109 0.0309543 7.00582e-21)
(0.676277 0.00552989 0)
(0.0410533 -0.0207758 0)
(0.99997 0.000314292 4.55227e-21)
(1.00063 0.015675 -6.18466e-21)
(1.04232 0.0202697 6.70312e-21)
(1.00798 0.00756821 -8.4958e-22)
(0.635693 0.0141524 -1.05688e-20)
(1.06262 0.0134764 -1.4574e-20)
(1.04745 0.0466864 -7.78785e-21)
(0.995259 0.0822829 0)
(0.99307 0.0797827 0)
(0.995916 0.0148332 7.82894e-21)
(1.03988 0.0441063 0)
(1.05142 0.205184 7.85393e-21)
(0.995511 0.0101414 -2.03612e-20)
(1.06823 0.0237005 9.54308e-21)
(1.01439 0.0288045 -2.29806e-21)
(0.940202 0.386308 -4.86943e-21)
(0.584467 -0.0200204 -1.98033e-20)
(0.999685 -0.00117957 0)
(1.1825 0.135039 4.57371e-21)
(1.03953 0.011621 1.02602e-21)
(0.994564 0.0101482 0)
(0.968048 0.0165849 3.37554e-21)
(1.02035 0.0129029 9.36742e-22)
(0.844118 0.0537112 -8.98423e-20)
(1.00426 0.0102918 -6.3336e-21)
(1.04613 0.0164319 8.19019e-21)
(1.0023 0.00309849 0)
(1.04568 0.0137612 -1.93603e-21)
(1.0325 0.0183701 -3.09069e-21)
(0.959018 0.0160154 -3.5591e-21)
(1.01429 0.0183809 0)
(1.01761 0.0102752 1.10426e-21)
(0.99305 0.00959392 0)
(1.00502 0.0129047 0)
(0.524232 -0.019145 -2.23956e-20)
(1.07274 0.0347535 0)
(1.05121 0.0171602 1.21896e-20)
(1.07211 0.034351 0)
(0.987728 0.0283423 5.24167e-21)
(0.303341 0.00803247 -4.25665e-21)
(0.760874 0.0103881 -3.19299e-21)
(1.01559 0.00110393 2.50389e-21)
(1.05303 0.0182083 -7.12031e-21)
(1.06334 0.01313 -5.82394e-21)
(1.02233 0.00860316 -2.91268e-22)
(1.00148 0.00077258 -6.04666e-21)
(1.05235 0.0304997 -1.17795e-20)
(1.07942 0.0325961 1.05952e-20)
(0.48528 0.0102359 0)
(1.06003 0.0219782 0)
(0.999953 0.000413666 -4.90702e-21)
(1.024 0.0293992 0)
(1.0738 0.0506077 3.90227e-20)
(0.999815 -0.000640896 -1.00212e-20)
(1.06404 0.0250616 -4.13445e-21)
(1.0016 0.00143581 0)
(0.425285 0.00952757 -2.6397e-20)
(1.00059 0.0411172 0)
(1.00377 0.0123627 6.90473e-21)
(0.998245 0.000237974 0)
(1.01712 0.0176127 0)
(0.827529 0.0134274 5.8467e-21)
(1.06113 0.0251208 0)
(1.07002 0.0236108 -1.00085e-20)
(1.02021 0.00919005 0)
(1.04301 0.0118932 3.73024e-21)
(1.10391 0.0576143 -4.81582e-22)
(0.951247 0.017399 -1.20483e-20)
(1.03725 0.0312176 -5.98834e-21)
(0.572937 0.0166563 4.12211e-22)
(0.622428 0.0199374 -5.89079e-21)
(1.06115 0.0225053 -1.51843e-20)
(1.00359 0.00173061 2.85685e-21)
(1.1992 0.174909 1.13379e-19)
(0.868852 0.0315487 1.13444e-20)
(0.983008 -0.0043812 2.77108e-21)
(1.02074 0.00760989 6.78938e-23)
(1.06717 0.151599 2.12858e-20)
(1.06762 0.0396483 -6.06023e-21)
(1.01561 0.00569195 -3.49823e-21)
(0.455766 0.010211 1.12133e-20)
(0.0952172 -0.0149546 5.5031e-20)
(1.05153 0.0540848 3.11764e-21)
(0.997122 0.0397234 -1.28343e-20)
(1.01902 0.016597 -1.55435e-21)
(1.01797 0.0105669 -2.33464e-21)
(0.654449 0.0142803 7.76334e-21)
(1.02138 0.109053 1.85718e-22)
(1.01457 0.000778407 0)
(0.949474 0.0832196 2.17791e-20)
(1.01112 0.0185504 -4.66692e-22)
(1.04193 0.0398526 0)
(1.02007 0.00799204 -9.19321e-22)
(0.988013 0.0452879 0)
(1.02864 0.0559728 2.20806e-21)
(0.999934 0.00038815 0)
(1.04284 0.013559 5.9195e-21)
(0.996433 0.107453 7.95067e-21)
(0.957234 0.0142865 -1.87089e-20)
(1.06092 0.0160936 -1.50573e-20)
(1.10493 0.0858494 7.76885e-21)
(1.05588 0.0108713 0)
(1.0612 0.0512043 7.28332e-21)
(0.468307 0.0122278 2.5474e-21)
(1.04149 0.0575958 -1.10652e-21)
(1.04604 0.0142494 -4.21375e-21)
(1.08262 0.0230826 3.23142e-20)
(0.493336 0.0139277 0)
(0.996084 -0.00187068 -1.72985e-20)
(0.362509 0.0113997 -2.08191e-22)
(1.04503 0.0467188 -1.67252e-20)
(0.971193 0.0550227 -1.68659e-20)
(0.903751 0.0455056 -1.99095e-20)
(1.00059 0.0209766 8.63678e-21)
(0.0752908 0.0629311 7.27509e-20)
(1.0059 0.000775413 5.68165e-21)
(1.06228 0.0176051 -1.25964e-20)
(0.350033 0.00695701 0)
(0.998993 0.0227232 8.50234e-21)
(0.979443 0.0399678 -1.7706e-20)
(1.06617 0.0294193 -1.35032e-20)
(1.00727 0.0151356 0)
(1.09676 0.0491525 -1.67517e-20)
(1.04758 0.215445 -6.7458e-21)
(1.01481 0.0177672 3.13156e-21)
(1.1812 0.142785 -5.06449e-21)
(1.06084 0.0251048 0)
(1.01975 0.00858254 0)
(1.03505 0.0738273 -4.14883e-21)
(1.02986 0.03046 3.40925e-22)
(1.01208 0.0291294 -1.16856e-21)
(0.936102 0.0152899 8.98338e-21)
(0.982253 -0.00514935 -1.54151e-21)
(1.05221 0.0189319 -7.87597e-21)
(0.998959 0.0104701 0)
(1.12954 0.236321 0)
(1.01548 0.00102229 0)
(0.972156 0.000281206 -1.99494e-20)
(1.00037 0.0233282 7.95389e-21)
(0.944647 0.0756163 -1.87989e-20)
(0.861326 0.0305536 1.27592e-20)
(0.76398 0.0116941 3.26648e-21)
(1.06002 0.0215374 0)
(1.00416 0.0245312 -4.03262e-21)
(1.00346 0.00490908 2.63618e-21)
(1.06002 0.0223687 -1.79319e-20)
(1.13148 0.0396677 0)
(1.03226 0.0221499 0)
(1.00417 0.0128095 1.16746e-20)
(1.01064 0.0132701 -1.28268e-21)
(1.04632 0.0470066 8.88333e-21)
(1.01466 0.0155532 4.19844e-21)
(0.951793 0.0161169 0)
(0.999798 0.000484815 -1.01764e-20)
(1.05716 0.0153118 -7.68416e-21)
(1.07403 0.0234086 -6.5752e-22)
(0.783469 0.0135623 1.39408e-20)
(0.999931 -0.000674809 0)
(1.00462 0.0105761 6.7855e-21)
(0.999144 0.000829179 4.72211e-21)
(0.991938 0.0533743 2.54497e-21)
(1.1457 0.0551878 -3.61784e-20)
(0.560669 0.015857 0)
(0.746354 0.0115602 0)
(1.06243 0.0266011 0)
(0.917585 0.0761974 0)
(0.723121 0.0111172 1.06283e-20)
(0.995399 0.0152481 0)
(0.994411 0.0474906 -8.97054e-21)
(1.06113 0.0230691 1.95722e-21)
(1.04603 0.0169235 0)
(1.01959 0.0333685 2.70438e-21)
(1.05204 0.0135218 0)
(0.978826 0.0170898 0)
(1.0364 0.0128531 5.57295e-21)
(1.02122 0.0130682 2.30887e-20)
(1.04109 0.0150175 0)
(0.561568 -0.0198586 2.4119e-20)
(0.996451 0.00551188 0)
(0.412751 0.00978532 -1.23125e-20)
(0.470284 0.0145114 0)
(0.788611 0.0137467 -1.66341e-20)
(0.671665 0.0189949 -1.18718e-20)
(1.06112 0.0217185 0)
(1.05586 0.0191524 -6.50865e-21)
(0.482419 -0.0222093 -3.77484e-20)
(1.01109 0.0132948 1.20906e-21)
(0.98293 0.065056 0)
(0.996341 0.0021061 -3.26955e-21)
(1.11591 0.108198 0)
(1.00386 0.00489179 4.03434e-21)
(1.14922 0.473637 -8.37916e-20)
(0.767437 0.166969 1.74804e-20)
(0.981052 0.102638 -1.10047e-20)
(1.00008 0.0188958 -6.78326e-21)
(0.990118 0.0250614 0)
(0.741255 0.0117966 2.0143e-20)
(0.988784 0.0521638 0)
(0.975651 0.0590103 -6.15112e-21)
(1.00192 0.00704153 0)
(0.918747 0.0135718 -2.84687e-21)
(1.10725 0.0626525 0)
(1.06099 0.0213957 0)
(1.07059 0.0456579 2.55954e-20)
(0.378142 0.0083012 -1.8068e-22)
(1.01502 0.0280826 -1.80614e-21)
(0.431814 0.0112283 -1.53353e-20)
(1.06121 0.0217916 -8.0783e-21)
(1.12838 0.037834 0)
(1.04757 0.021217 0)
(1.07197 0.0462013 -3.27183e-20)
(0.957199 0.0198379 1.22573e-21)
(1.08228 0.0343342 -2.37725e-20)
(1.00193 0.00357367 0)
(1.04763 0.0201074 2.68568e-21)
(0.832303 0.0352569 0)
(1.00541 0.00659636 0)
(0.752053 0.010919 3.29857e-21)
(0.774108 0.0135122 -2.18743e-20)
(0.568467 0.0174441 -2.55268e-21)
(0.730875 0.0115766 -1.76695e-20)
(1.06115 0.0229815 0)
(0.977387 0.0171283 0)
(0.968863 0.00749112 0)
(1.15115 0.258377 -6.80826e-20)
(1.00377 0.0018653 -8.60197e-21)
(1.10052 0.0281536 8.50584e-21)
(1.08447 0.0356723 -2.40661e-20)
(1.03421 0.0536285 -4.64388e-21)
(1.06823 0.0255437 1.22431e-22)
(0.865992 0.246684 -1.99912e-20)
(1.11483 0.098295 -1.84272e-20)
(0.990893 0.000448797 0)
(0.987332 0.161495 7.21713e-21)
(0.407117 -0.0250672 0)
(0.996184 0.00535145 0)
(1.04119 0.0247709 2.61988e-21)
(1.00334 0.00407278 -3.01778e-21)
(1.00011 0.00424405 0)
(1.00238 0.0033678 4.89853e-22)
(0.83263 0.0136058 -4.17987e-21)
(0.999732 -0.000652944 2.25715e-20)
(1.01537 0.017204 2.26487e-21)
(1.06028 0.0237175 -1.81372e-20)
(0.99624 -0.00495259 7.91101e-21)
(1.05276 0.017108 -1.27075e-21)
(1.00654 0.0167331 4.57539e-21)
(0.900358 0.0420799 3.35035e-20)
(1.03578 0.0128593 -1.3501e-21)
(0.793114 0.274476 4.68873e-21)
(0.998586 0.00124514 6.71779e-21)
(0.735497 0.125437 8.08527e-20)
(0.647168 -0.00554765 1.02708e-20)
(1.07066 0.0440188 -2.65215e-20)
(1.06665 0.0149114 0)
(1.0533 0.0250289 -1.15499e-22)
(0.914583 0.384876 -1.91093e-21)
(1.06561 0.0294264 1.7515e-20)
(0.814973 0.0135916 4.11835e-21)
(0.908276 0.148806 0)
(0.997987 0.00150555 1.15522e-20)
(0.62143 -0.0171993 0)
(0.954778 0.0197015 -2.18806e-20)
(0.458668 0.0126945 5.29493e-21)
(1.03201 0.0551489 -1.75132e-21)
(1.08387 0.0346291 0)
(1.12364 0.0395277 -2.56273e-20)
(1.0621 0.0265374 0)
(0.999977 -0.000118418 -1.09948e-21)
(1.04395 0.0123254 1.74781e-21)
(0.671268 0.0171712 8.3595e-21)
(1.04166 0.0243024 -1.05418e-20)
(1.03906 0.016878 -6.38484e-21)
(1.04425 0.0284644 3.55699e-21)
(1.06417 0.0222969 9.20405e-21)
(1.05856 0.0187529 1.01975e-20)
(1.06134 0.0214075 2.88908e-21)
(0.9317 0.0138014 -1.09975e-20)
(1.00741 0.00622336 -9.61703e-21)
(0.772992 0.0120167 1.08047e-20)
(1.066 0.0208942 1.04808e-20)
(1.00189 0.00900306 8.96725e-21)
(1.02731 0.0195014 -8.43093e-22)
(0.701898 0.00526711 6.75286e-21)
(1.01574 0.0282857 6.9281e-21)
(1.06861 0.0414168 6.11118e-21)
(0.484202 -0.0243878 -9.22458e-22)
(0.99803 1.75593e-05 1.1556e-22)
(1.06243 0.0186103 0)
(1.01183 0.0720362 1.32147e-21)
(1.05648 0.0108858 -1.23124e-20)
(1.0267 0.0191531 0)
(1.00173 0.00871367 3.76022e-21)
(1 7.91054e-05 0)
(1.06763 0.038609 1.26334e-20)
(0.786307 0.0133308 0)
(1.00353 0.014064 9.67683e-21)
(1.0055 0.00694131 0)
(0.933782 0.0105772 4.49754e-21)
(1.11893 0.0402126 2.16551e-20)
(1.05932 0.0617514 -1.44047e-20)
(0.995555 -0.00321113 1.36522e-20)
(1.01406 0.0155107 3.24301e-23)
(1.01473 0.0189285 0)
(0.999948 0.000283024 0)
(0.995993 0.00991324 1.26893e-20)
(0.977223 0.101735 3.59135e-21)
(0.966152 0.0464264 1.05116e-20)
(0.765937 0.184971 -6.02772e-20)
(1.14914 0.0938884 1.32918e-21)
(1.05751 0.0100967 1.36002e-20)
(1.061 0.0224587 -2.22322e-21)
(0.9645 -0.00307677 1.02589e-22)
(0.999574 -0.00021783 1.34982e-20)
(1.02988 0.0170651 5.55319e-22)
(1.09776 0.0284109 0)
(0.906237 -0.00340331 -1.44448e-20)
(1.06396 0.0331664 3.7835e-21)
(1.03427 0.0185236 -2.10702e-20)
(1.00002 0.00031445 7.77739e-21)
(1.11831 0.104138 1.93178e-20)
(1.05078 0.0253318 0)
(1.06173 0.015149 0)
(0.996629 0.00205702 6.06181e-21)
(1.06799 0.0252278 2.0783e-20)
(0.970106 0.0322754 8.20568e-21)
(0.999854 4.10877e-05 -1.19645e-20)
(0.968223 0.010393 1.1542e-20)
(1.01642 0.00101153 2.02755e-21)
(1.06264 0.0125214 -1.04344e-20)
(1.05292 0.0318566 -2.27339e-21)
(0.910298 0.139132 2.21407e-20)
(1.00223 0.00345864 -4.78407e-21)
(0.800129 0.0119447 -1.79454e-20)
(1.00001 0.000201307 0)
(0.450006 0.0151107 -8.28617e-21)
(0.572218 -0.0191254 -1.15017e-20)
(0.999035 0.00299993 0)
(0.594044 -0.0092973 0)
(1.00739 0.000895738 0)
(1.0071 0.0145358 0)
(0.9909 0.0246089 -8.1611e-21)
(1.00001 0.00017344 0)
(1.0294 0.0172954 -1.11354e-22)
(0.986553 0.00308646 5.73397e-21)
(1.01138 0.0192004 0)
(0.994634 0.00880975 0)
(1.01276 0.00335825 -1.97336e-21)
(0.973298 0.023744 0)
(0.995289 0.159907 0)
(0.810924 0.012857 0)
(1.02072 0.0165586 -8.24078e-23)
(0.528205 0.0175421 0)
(1 4.15612e-05 0)
(0.970706 0.00102413 2.2372e-20)
(1.05089 0.0198825 7.64837e-21)
(0.962737 -0.00246242 -1.40115e-20)