/*--------------------------------*- C++ -*----------------------------------*\
| =========                 |                                                 |
| \\      /  F ield         | OpenFOAM: The Open Source CFD Toolbox           |
|  \\    /   O peration     | Version:  v2012                                 |
|   \\  /    A nd           | Website:  www.openfoam.com                      |
|    \\/     M anipulation  |                                                 |
\*---------------------------------------------------------------------------*/
FoamFile
{
    version     2.0;
    format      ascii;
    class       volScalarField;
    location    "400";
    object      ddt0(k);
}
// * * * * * * * * * * * * * * * * * * * * * * * * * * * * * * * * * * * * * //

dimensions      [0 2 -3 0 0 0 0];


internalField   nonuniform List<scalar> 
14315
(
1.12033e-07
0.000134418
1.21959e-08
-2.91294e-08
-5.75807e-08
-1.64135e-08
-1.33904e-09
5.96351e-09
0.000251919
-3.76524e-09
5.15913e-09
5.44295e-08
-0.00103098
3.99956e-08
-1.06005e-09
2.63777e-08
-1.44267e-08
0.00146666
-1.28749e-09
3.86593e-08
-6.1252e-08
8.36969e-09
-2.14469e-09
4.18248e-09
0.00173794
8.37799e-08
7.60952e-07
-8.56378e-09
-2.52415e-05
3.21906e-09
-1.02016e-08
-3.23333e-09
-1.54354e-05
-1.79406e-08
-1.54371e-10
-3.59925e-09
3.06227e-09
-2.50217e-08
3.916e-09
-2.15053e-08
1.32953e-05
2.40909e-08
8.66722e-09
4.80357e-07
-1.65188e-07
2.90427e-08
8.34883e-09
-2.58426e-09
2.19338e-08
2.54679e-09
8.59604e-09
-1.04655e-07
-9.87499e-10
-1.21453e-08
-1.91857e-09
7.8981e-09
-0.000116921
2.36176e-09
5.59023e-08
0.00139295
6.77523e-10
2.25556e-08
8.07e-08
-6.13895e-09
4.19072e-09
-4.57651e-09
1.62201e-08
2.97487e-09
-6.78142e-09
-4.02055e-09
-2.03236e-08
-9.92937e-09
-4.93543e-10
-7.72672e-08
5.86803e-09
-7.6194e-09
-1.82152e-08
1.65603e-09
2.55644e-09
2.82394e-07
-3.93241e-09
-5.04039e-05
2.56027e-08
-8.21017e-09
-1.41539e-10
-0.000462987
-1.61648e-07
-9.74399e-09
-1.5146e-08
-1.06224e-08
-3.32533e-08
0.000535552
-0.00122469
4.72599e-09
1.7455e-09
-3.08942e-09
1.51939e-09
-6.3652e-10
9.96074e-10
-1.09982e-08
-4.17296e-08
-2.55269e-08
-2.83492e-09
1.75262e-08
-1.93131e-08
-3.50549e-10
-4.91033e-08
-3.15838e-08
-1.4467e-09
-3.1708e-09
7.02494e-08
8.8963e-08
-2.59258e-08
-1.86222e-06
8.2756e-09
-1.02399e-07
-1.12391e-08
-2.0401e-09
6.52312e-05
6.71047e-05
6.75557e-09
-2.19598e-08
-1.85289e-08
5.28902e-08
-7.89311e-07
3.03216e-09
-0.000541439
1.21848e-07
1.03859e-08
5.00346e-09
4.06432e-09
-0.000187463
0.000500237
0.000114333
-6.06345e-10
6.07547e-09
0.000637002
-1.90959e-06
-0.000867216
-0.000729877
3.74516e-08
-2.4695e-06
1.69081e-09
-0.000467043
7.27672e-06
-5.19036e-08
-1.61246e-08
5.14091e-09
3.79143e-08
-1.82122e-08
-2.36171e-08
4.85628e-09
1.09284e-09
-4.67317e-07
-2.07406e-09
1.67025e-11
3.12201e-08
6.64534e-09
-7.83612e-05
-1.08691e-07
4.34526e-08
3.4117e-08
-3.21316e-06
4.05793e-08
-1.50179e-09
-0.000368916
-3.10903e-09
-6.4258e-09
-9.16625e-10
-1.07884e-08
-1.65954e-05
1.96355e-05
-6.83771e-09
2.26185e-08
-0.000806604
0.000582946
9.13508e-08
9.20072e-10
-4.89014e-08
-3.15634e-07
-2.6535e-05
6.01152e-08
-2.01839e-08
-2.19387e-08
-5.01835e-08
-0.00021688
6.54966e-08
6.42637e-08
-9.2284e-10
3.98123e-08
-1.37973e-08
0.000600282
8.15432e-06
7.95749e-09
-2.24345e-09
1.45097e-08
7.43535e-05
2.23482e-08
3.61084e-08
-5.72987e-09
-1.29027e-05
4e-08
-3.40461e-08
-4.01008e-08
-2.90593e-08
4.81755e-09
-2.15028e-08
5.23624e-07
9.44182e-10
-1.28168e-08
4.98069e-10
-4.72662e-08
4.70623e-08
-1.65442e-08
-5.36706e-06
3.45484e-08
-1.29066e-07
1.73233e-08
-2.32466e-08
1.03362e-10
-5.37474e-05
9.016e-09
-0.000104496
0.00072196
-4.88026e-09
1.39565e-08
-1.35534e-08
-7.34131e-09
-8.1958e-09
-1.44514e-08
5.1518e-09
0.000382697
-5.37487e-09
-3.14279e-07
1.35646e-09
-2.53936e-08
3.14944e-07
-1.25618e-08
3.61546e-09
0.000706263
-0.000110714
-4.37507e-08
7.24194e-09
0.000958892
-4.97511e-05
-1.43084e-08
-0.000207905
-1.3382e-09
-1.22383e-08
-1.50893e-09
1.96523e-08
-1.63669e-08
-0.000441607
-3.19651e-09
-1.49634e-09
0.000112144
0.000593125
-4.46178e-07
7.34047e-06
-1.09114e-08
6.0901e-08
-8.795e-09
3.55578e-08
-0.000133968
6.48301e-08
3.42969e-06
-1.64625e-08
-1.08135e-05
-5.73053e-08
1.96995e-08
-3.38907e-05
1.41814e-08
1.34415e-09
-2.70682e-09
-1.72231e-09
-3.06721e-09
2.67762e-06
-1.63772e-09
3.61586e-08
-7.91459e-08
5.48258e-09
4.51482e-08
2.9371e-09
1.83854e-07
-5.59824e-08
0.000591739
-0.00128262
1.98894e-08
5.7632e-10
1.84549e-08
8.18403e-07
1.76495e-08
-4.04109e-09
1.72522e-06
1.81592e-09
2.75823e-08
3.5903e-09
2.74344e-06
2.54903e-08
-0.000171516
3.62071e-08
2.76969e-08
6.28326e-08
3.15363e-10
-2.676e-08
3.39596e-09
-1.87512e-08
3.12254e-08
4.11672e-08
-3.06307e-08
-2.59547e-09
-8.76235e-10
6.80091e-08
-1.86425e-08
1.96577e-09
-0.00104138
7.75165e-05
1.41805e-08
-1.51143e-09
0.00191458
4.79025e-08
-5.29337e-08
7.72831e-06
-1.34469e-08
-1.04716e-08
4.59212e-09
3.87543e-06
2.82606e-09
0.000110354
1.3342e-09
0.00124456
-5.93646e-05
0.000547053
0.000287335
4.60083e-05
-1.25845e-09
-1.78458e-08
-5.77572e-09
-0.000745409
2.58527e-09
9.50774e-08
0.000463041
7.52286e-05
1.21648e-08
-8.29221e-10
0.00169601
-1.37018e-06
0.000178401
7.4906e-09
4.08227e-09
0.000960645
0.000161697
3.64191e-09
1.54145e-09
1.44693e-07
3.39549e-08
-3.26878e-08
0.00197033
0.000106995
-1.15985e-10
-9.27513e-09
-1.93578e-06
-1.0355e-08
2.87855e-09
-9.82329e-09
2.29362e-08
-2.29339e-08
8.84389e-09
-1.66315e-08
3.05877e-09
-5.12218e-06
-4.82643e-05
-1.06267e-08
-0.00101583
-4.08342e-09
3.82663e-08
-3.17525e-06
-1.4658e-05
2.65263e-08
2.42664e-09
1.66301e-08
1.61306e-08
-1.14385e-05
1.15309e-07
1.49692e-09
-6.80117e-08
4.27817e-06
3.79191e-09
-0.000526731
4.75313e-07
-3.45972e-05
1.06039e-08
1.01616e-08
-4.35719e-09
-7.11781e-10
-3.98692e-09
1.30919e-09
-1.64749e-08
1.79773e-08
2.48954e-07
-1.6593e-09
-7.21863e-09
-2.1512e-06
-2.53084e-08
0.000159372
-4.55982e-05
0.000769231
1.13389e-07
-4.19996e-08
1.52848e-07
8.19219e-10
4.45999e-08
-1.00667e-08
6.9198e-06
-1.21516e-08
5.63954e-08
-4.13355e-09
-7.81976e-08
1.20764e-08
0.000133041
2.118e-06
7.97387e-06
1.20251e-07
8.78885e-09
5.716e-10
5.23606e-08
-2.11623e-08
-3.19448e-08
-9.63604e-06
6.83774e-05
6.52542e-05
1.18409e-08
6.22355e-10
-9.79899e-07
5.57392e-08
4.0419e-10
0.000256501
2.85136e-06
-4.42248e-08
-7.70459e-09
-1.07007e-06
-1.57649e-09
3.72832e-08
-4.56043e-05
0.00176896
2.63387e-07
-8.94739e-10
-1.47159e-09
2.52519e-10
3.10173e-08
-7.81617e-08
2.64274e-09
0.000217563
3.71115e-05
-2.59742e-09
0.000250813
5.36585e-09
-3.36819e-08
-1.12278e-08
-3.13067e-08
-4.62267e-05
-3.77057e-09
-2.07816e-07
-0.000678427
-1.26393e-06
-5.31813e-09
0.00154933
0.000356886
1.23635e-07
-1.0467e-08
-9.62739e-08
2.63702e-08
4.56493e-08
-1.84816e-08
-1.61064e-08
4.36563e-08
3.20091e-07
-0.000176562
1.07989e-08
-7.65275e-09
-9.2964e-08
7.22716e-09
0.000175502
-3.69449e-09
4.45987e-08
0.000224685
-1.01652e-06
-1.94885e-08
4.46128e-05
7.87818e-09
0.000659708
1.32616e-09
6.88483e-09
-9.21402e-09
0.00175809
-4.82672e-08
-1.19785e-06
1.88427e-08
-1.50418e-08
9.7649e-09
0.000256711
1.90757e-08
-8.0116e-06
-8.17867e-10
-3.9951e-06
-4.78606e-09
5.01427e-09
-7.24226e-10
-3.15626e-09
-6.96236e-09
-6.13711e-07
-1.26374e-08
-3.12161e-08
6.70353e-06
-1.03675e-08
-3.45142e-08
1.91748e-08
-1.47808e-07
9.67943e-09
1.58576e-06
-2.23268e-09
0.00011526
2.65545e-06
0.00143842
5.71388e-06
-5.0772e-07
1.06707e-07
2.22851e-07
0.00106805
3.39463e-09
1.1852e-08
-1.13293e-06
-3.06936e-08
7.87639e-09
-4.09624e-09
2.35073e-09
-2.13491e-07
-5.73554e-09
-0.000385645
-5.68579e-09
4.18429e-09
0.000879612
-4.03061e-07
-1.03135e-10
-5.86713e-09
6.31004e-09
-4.95745e-10
9.5183e-09
0.000376874
-6.52606e-09
8.4014e-10
1.52337e-08
5.05775e-09
2.97907e-09
-1.48967e-07
-3.57333e-08
2.1695e-08
-6.9559e-08
-4.45515e-08
-5.01635e-09
2.16448e-08
-5.11685e-06
-1.8324e-09
0.00169827
0.000984062
-1.68628e-08
-1.86887e-08
1.30789e-07
0.000124828
4.74327e-08
-1.52447e-09
8.14689e-09
2.35827e-07
-2.97947e-09
8.49961e-05
5.82172e-07
8.17619e-08
4.7627e-08
-1.30552e-06
0.0014179
-9.00644e-09
0.00139441
-2.3068e-06
8.10346e-08
-6.01488e-10
0.00136301
2.37921e-09
4.66701e-08
-2.30003e-10
-2.19482e-05
-1.99319e-11
1.26685e-08
-1.12646e-06
0.00059347
0.000480891
5.32949e-06
-3.95236e-09
-3.93311e-09
0.000691635
1.63974e-08
-0.000996907
6.78152e-08
1.14185e-08
5.57689e-09
-1.63791e-09
-1.97741e-08
2.62163e-08
3.87737e-08
1.50318e-08
-7.94285e-10
1.6928e-07
-6.19432e-10
-1.52744e-07
7.28504e-09
7.01607e-10
3.21203e-08
3.23384e-09
-2.33128e-05
-1.87575e-08
1.67647e-08
-0.000743769
-3.6365e-09
-4.61437e-06
-0.000595493
-3.01497e-08
-6.76985e-09
3.95259e-08
-3.68024e-05
1.55809e-09
1.41843e-09
-3.47153e-07
1.38462e-07
1.79059e-08
-0.000208695
-1.09843e-08
4.41448e-09
4.952e-09
7.6845e-05
-2.731e-09
1.19746e-09
3.63223e-07
5.34321e-09
-7.06974e-09
-3.24413e-09
-2.02558e-07
-1.47873e-06
-3.2043e-09
-6.33067e-08
1.89356e-07
1.03356e-08
1.18073e-05
2.02681e-08
0.00142843
-5.83967e-10
2.01378e-07
-5.23747e-09
-0.00048406
-1.16187e-08
-8.414e-08
9.66655e-09
8.47058e-05
-3.31285e-08
-4.10694e-08
0.000325243
-1.99062e-08
1.29303e-08
0.000242172
-4.71797e-06
-2.49948e-08
4.36671e-08
-2.28623e-07
0.000124302
0.000343506
-4.47798e-09
0.000130918
-7.80135e-10
1.48085e-08
-2.79612e-08
0.000372897
2.4152e-09
-1.44542e-08
2.49958e-11
-1.27908e-08
2.9134e-08
0.00111864
0.000298629
2.94887e-08
5.41304e-08
9.14668e-10
2.49199e-08
-1.89661e-09
0.000420348
-1.35379e-08
7.67751e-08
2.13085e-08
9.48603e-09
1.6075e-08
-0.000122721
-9.04043e-08
0.00205427
1.58548e-09
5.0923e-08
-4.31256e-09
-1.65883e-08
2.21446e-08
1.74105e-06
1.1587e-09
3.06668e-08
7.33456e-06
7.64431e-05
-8.67716e-07
-9.89711e-09
-1.81943e-09
0.00177092
5.0299e-05
-2.35746e-08
0.000177909
-3.06691e-09
2.06018e-07
1.31364e-07
9.64792e-08
1.87455e-08
-0.000309944
0.00114126
1.38375e-07
-1.98342e-08
4.49948e-10
5.67565e-08
2.97391e-07
0.000687394
1.55352e-08
1.05867e-07
-1.14206e-05
1.20707e-07
3.12481e-08
0.000598953
0.00168504
9.2634e-09
-7.08454e-10
2.75011e-07
1.05822e-07
-1.00308e-08
-2.27086e-09
-1.20054e-08
0.000248982
-1.03756e-09
-1.75589e-08
-3.55841e-08
2.46629e-06
-1.38983e-10
1.05379e-07
-2.88148e-07
-2.91389e-08
-3.8921e-09
-4.3447e-08
0.00158346
1.97981e-05
0.000963497
-1.71288e-08
1.98177e-09
1.34767e-05
-9.43425e-05
4.74558e-05
-3.66081e-08
-4.15089e-08
0.00159575
-4.29992e-10
-6.15433e-09
-1.06619e-07
0.00132139
-2.53089e-08
-4.6914e-10
7.25748e-05
1.4667e-09
-1.29936e-08
3.11681e-09
0.000245271
3.05462e-09
-4.57237e-09
-0.000321263
6.29286e-08
-2.9631e-05
-2.54606e-10
1.31952e-08
-2.9989e-08
3.58594e-09
0.000677082
0.000429283
4.59587e-08
1.82189e-08
-2.37183e-08
0.000857962
-1.22964e-09
-1.64909e-08
1.92612e-08
1.14038e-06
0.000243787
1.7152e-09
-8.82506e-08
9.34416e-09
-5.70335e-09
2.41428e-07
8.53382e-06
-2.59855e-05
5.62819e-07
-1.48035e-08
-2.03227e-08
-1.28477e-08
1.87872e-05
1.18246e-09
-1.8463e-08
-3.18192e-08
0.000116273
0.000756077
1.08453e-09
-7.02437e-08
0.000131957
8.73296e-09
1.41333e-09
7.50876e-08
8.53935e-08
-0.000446067
-2.95593e-09
-2.30662e-08
2.26094e-08
0.000376039
6.7509e-08
1.49173e-08
-1.17113e-08
-7.09172e-08
-2.63187e-08
-8.82312e-08
1.87532e-08
6.8397e-06
-2.11869e-06
0.000140529
-7.18846e-09
-1.78995e-08
-5.0736e-05
-9.04048e-08
4.07944e-10
-0.000958285
2.06878e-06
-2.74177e-08
-3.05793e-09
7.72023e-08
4.28581e-10
-0.00259723
-1.07472e-08
-3.88167e-09
1.17871e-08
-1.66394e-08
-2.86595e-07
2.98824e-07
3.36847e-08
-2.32669e-08
0.000120458
-2.7671e-09
0.001672
7.59074e-09
-4.11616e-08
-7.24988e-09
-5.10367e-08
2.72411e-07
5.35887e-08
3.48256e-09
-2.67272e-09
-2.66071e-07
-8.29372e-05
6.54887e-07
1.07438e-07
-6.90336e-10
-3.3157e-08
-0.00023323
-9.25329e-09
-1.75921e-09
1.71517e-09
-2.75621e-08
-4.15889e-05
2.84819e-05
-2.40928e-08
1.38917e-06
-2.13467e-09
1.31333e-05
7.84531e-05
0.00162553
-2.86741e-08
8.9109e-09
-0.00022468
-0.000193397
2.7573e-08
1.41494e-08
2.84872e-08
1.39978e-07
-2.98226e-05
-2.0651e-08
-2.88987e-08
-8.07671e-10
-1.77768e-08
-1.02634e-08
3.59915e-06
1.09685e-06
1.65845e-09
0.000944447
-2.30645e-08
-8.85943e-05
9.34771e-10
-1.09447e-06
3.89067e-09
1.48786e-08
1.48642e-07
2.57817e-08
-1.85278e-05
1.2824e-08
3.46454e-08
1.80339e-08
-7.34784e-09
-1.36417e-09
0.000485488
-7.42296e-10
2.80992e-09
1.74583e-09
6.76249e-09
1.93378e-08
2.0417e-08
9.62886e-09
-2.34712e-06
1.38523e-08
4.11073e-08
5.97881e-10
-4.38701e-08
-1.83611e-09
-1.92468e-08
-1.45268e-05
-0.000445836
-1.61909e-08
4.09992e-05
-1.27268e-08
0.00134198
-7.3515e-09
3.89519e-08
3.67161e-08
-1.5379e-08
6.15156e-05
4.04475e-06
-3.88886e-05
0.000126465
-0.000209307
-8.35305e-08
1.61979e-07
8.40881e-09
0.000140295
0.00020948
-6.1428e-10
4.21384e-08
-3.36753e-05
4.08234e-08
2.32438e-09
-0.000501036
8.09996e-09
-0.000679649
-3.61998e-09
0.000643336
7.27491e-06
2.37488e-07
-1.01283e-08
9.57857e-07
1.7935e-10
-3.10752e-08
2.0259e-08
0.00126071
5.77252e-09
-4.49287e-09
7.76442e-09
0.00137638
2.18129e-08
1.12038e-08
8.61566e-09
-1.09815e-08
4.68114e-08
2.5907e-09
-6.79686e-08
0.000174969
0.000352451
2.96468e-06
6.90118e-09
-1.21373e-08
-2.362e-08
0.000377998
-4.86857e-09
-2.1385e-08
-5.95565e-07
2.88131e-09
-4.16137e-08
-0.000126994
6.08816e-09
6.64346e-09
1.24289e-08
-1.83623e-08
0.0017521
-3.0833e-08
1.30732e-08
9.64862e-09
-3.85151e-05
1.08715e-08
2.93403e-07
0.00108815
-3.80766e-09
-4.46705e-07
1.6344e-08
5.01039e-07
-8.33123e-08
2.42718e-09
-2.81424e-05
1.64573e-08
-2.48252e-08
-5.61919e-10
1.22354e-08
-5.0949e-08
0.000292259
-1.76795e-08
0.00133428
-2.40713e-08
-9.00122e-09
0.00154457
1.00067e-09
7.99059e-08
1.4432e-08
-1.61389e-07
9.33648e-09
9.32827e-09
-2.24535e-08
-1.54884e-09
-0.000339691
-3.08189e-05
1.2465e-08
0.000711754
1.39113e-08
-4.80145e-09
-1.06033e-08
-2.02769e-07
8.96916e-09
2.10868e-09
-3.28334e-09
8.37703e-08
-1.61239e-07
-0.00033702
-8.19471e-09
-0.000525425
-3.4358e-08
-8.87624e-08
6.572e-05
1.03078e-08
-8.59514e-09
1.94256e-08
-1.21171e-08
-2.87096e-07
-1.31162e-08
-3.11722e-09
1.61059e-08
-3.03312e-07
-3.38126e-05
-2.79041e-08
8.96245e-05
5.67231e-06
-1.73687e-05
1.14692e-08
1.24725e-07
1.2285e-08
-1.59951e-08
1.12955e-06
0.000437018
0.00148745
1.75058e-08
-1.53417e-08
-1.11071e-06
-3.6527e-08
-7.12681e-08
-1.99027e-08
-2.58586e-09
7.65271e-08
-2.10446e-08
1.08678e-08
-7.72719e-09
-9.66492e-05
0.00107347
3.45043e-07
5.97844e-07
1.84567e-08
-2.56e-08
5.33426e-09
2.67427e-10
-3.11362e-09
1.64495e-06
0.000421176
4.26734e-08
0.000439194
4.7717e-08
-1.08901e-08
1.70402e-05
-7.97752e-07
2.33087e-08
-1.63779e-08
-2.40067e-07
2.32261e-09
-1.11237e-08
-1.46478e-07
-3.38227e-08
4.51512e-09
0.00128877
2.62124e-07
1.41008e-05
-3.72233e-09
4.03209e-06
2.27038e-06
1.60817e-09
9.69433e-09
-0.0001087
-5.71667e-07
-9.08876e-10
-1.65371e-09
-8.57121e-10
-6.57116e-05
-1.53963e-09
-7.18292e-09
0.0015558
0.00020731
1.18446e-08
2.51696e-08
-3.19363e-08
3.55134e-08
-4.88162e-08
-0.000499425
2.74433e-08
-2.34252e-08
2.98011e-09
-1.35721e-05
4.18097e-09
0.000808354
0.000192504
6.34235e-09
1.24676e-08
-5.9199e-07
8.8859e-09
-1.39767e-09
9.98838e-05
-2.45713e-09
1.05592e-08
-1.87613e-09
0.00141357
1.03972e-09
0.000105671
6.3042e-09
-1.59242e-09
1.40718e-08
0.000100542
-1.39467e-06
-2.43905e-08
-3.12693e-08
-1.64684e-06
-9.19935e-08
1.13262e-08
-5.39485e-08
4.39146e-07
-8.44605e-08
9.64584e-05
4.89735e-08
-1.12301e-08
-3.915e-09
0.000139671
-2.2242e-08
1.99904e-09
1.24739e-08
5.26748e-10
-5.58855e-10
1.01341e-08
2.19093e-08
-1.17086e-08
2.75264e-08
-5.13643e-08
-1.26301e-08
-1.40035e-05
-4.38103e-08
1.39592e-07
3.5978e-08
-5.62458e-08
2.86995e-08
1.81277e-08
1.4137e-08
-1.8554e-08
5.51135e-05
-2.13749e-09
4.17952e-08
5.53285e-05
-1.48429e-09
0.00119711
-3.65939e-10
0.000330892
-3.13114e-08
2.65416e-09
3.33546e-08
0.000108629
2.31469e-09
-1.33767e-08
1.09397e-09
8.14859e-09
2.29243e-08
-6.63583e-08
-0.000343065
8.61623e-05
-9.72517e-08
-4.39633e-08
-1.679e-10
-9.96867e-09
-5.72167e-08
1.09723e-08
-5.70493e-05
2.06412e-08
4.25345e-05
8.0903e-07
0.000120538
-3.24432e-09
-1.94396e-08
3.55507e-09
-1.1318e-08
-6.91069e-09
-5.10639e-10
3.52964e-09
2.59063e-12
1.24568e-08
9.52118e-05
0.000912593
3.48375e-08
-3.00931e-10
-4.56908e-08
3.90858e-05
3.16261e-07
7.01113e-09
-1.82399e-08
-0.000620975
8.29479e-09
-6.7452e-09
2.89094e-08
-1.36619e-09
1.30295e-08
-3.76246e-05
-5.91673e-09
1.60967e-08
2.38729e-07
7.05028e-09
6.99023e-06
-6.37021e-09
0.00184532
0.00161502
-7.99048e-09
5.67939e-09
-1.08588e-08
1.8737e-08
-4.12906e-09
-7.36772e-08
9.47059e-09
2.97999e-09
-8.948e-08
-2.13824e-06
-4.68004e-08
-7.77134e-05
1.05611e-08
-3.88599e-10
0.00124559
-8.99258e-07
-3.42358e-08
6.02951e-10
-0.000112034
-2.01205e-07
5.18022e-08
0.000303482
-7.004e-07
8.5622e-09
0.00114206
6.57229e-09
1.24174e-08
-1.91739e-08
0.000123185
2.53393e-09
-2.19198e-09
-9.46556e-08
-0.000434107
9.10554e-07
-1.11993e-07
4.66434e-09
4.61827e-09
1.36407e-07
8.87184e-10
-2.22152e-08
-3.80253e-08
1.48229e-07
-3.06337e-08
-2.56925e-08
-5.70268e-08
-7.53711e-07
-0.000212711
-8.5442e-08
-0.000121441
-2.7707e-09
0.000156506
7.66016e-05
-0.00104528
2.73865e-09
1.8027e-08
-3.76142e-08
3.27604e-08
-9.39732e-09
-4.57592e-09
0.00191938
6.7682e-07
3.83019e-07
9.21502e-09
6.38882e-09
-7.41324e-06
-2.77421e-06
2.44746e-07
4.7176e-08
-7.54645e-08
-6.28516e-09
-1.09078e-05
-1.45125e-05
-4.69827e-08
-0.00108572
0.000692108
-2.94776e-08
-1.91383e-08
3.11942e-09
-5.27658e-09
-2.8025e-09
-0.000274024
-9.7912e-09
2.07729e-05
-1.98131e-09
3.3482e-09
-4.80459e-09
-2.71989e-09
-3.04632e-09
-6.28036e-09
6.03095e-08
4.34918e-05
-4.77791e-08
3.39992e-06
-3.64812e-09
0.0012081
-0.000193644
-3.70659e-07
0.00177623
1.71036e-06
-4.70116e-09
-4.46509e-09
0.000527887
-3.58283e-09
-1.92804e-09
4.01802e-09
-3.2816e-09
-5.20942e-08
-3.11421e-09
9.76796e-09
1.13702e-10
-3.43418e-09
3.58245e-08
-0.000311815
1.57863e-08
-4.1136e-09
0.000468219
-1.66515e-08
3.38518e-08
0.00122255
1.16388e-07
1.94306e-09
6.07228e-05
-4.20701e-07
5.87629e-09
0.000245726
-0.00161369
1.33501e-05
-4.14071e-05
1.31665e-08
3.1992e-07
2.99727e-07
7.57631e-05
-2.41948e-07
4.10445e-08
5.44783e-05
1.27497e-07
1.52063e-08
-5.59596e-08
1.13933e-07
-5.57993e-08
-5.3846e-09
2.88889e-10
1.99555e-09
-2.66942e-08
-2.15685e-08
2.38622e-07
-1.7522e-08
5.45637e-09
1.84998e-08
2.28206e-08
-8.47518e-10
-2.15789e-07
-0.00020723
-2.40471e-09
5.8605e-07
-3.91253e-09
1.44545e-08
1.0229e-09
-3.5926e-09
2.9471e-08
8.13467e-09
0.000123701
-2.11381e-08
-2.06281e-07
3.23195e-08
0.000691048
7.80177e-07
0.000267373
-5.80951e-09
-1.37468e-05
4.16398e-08
-4.40146e-09
-2.2039e-05
2.41335e-09
-1.18941e-05
1.22384e-08
-5.32405e-08
4.37203e-08
1.92678e-08
-3.90165e-08
-4.7331e-07
2.65576e-08
1.91361e-05
-2.56897e-08
2.58328e-07
-3.64722e-09
-7.8741e-09
0.000886914
0.00111505
-7.68077e-05
-1.3354e-08
2.01456e-06
0.000124845
-8.54308e-09
-1.38501e-07
-2.12933e-08
1.23172e-08
-8.0642e-09
0.00120336
1.12993e-05
1.34305e-05
-1.23953e-07
2.09244e-08
2.72649e-08
-4.19562e-07
-4.01082e-08
6.0088e-09
6.79588e-07
3.69413e-07
-1.90644e-09
3.72504e-10
-2.2619e-09
1.86611e-08
-5.72631e-09
-4.58215e-09
-0.000126998
3.6968e-05
0.00152641
-1.84795e-08
1.37248e-08
4.25908e-08
-4.66352e-08
-3.70803e-08
-8.63576e-06
2.08503e-08
6.01909e-06
-1.20076e-09
0.000149607
-1.75103e-08
-3.13864e-08
4.75133e-09
-2.33421e-08
1.48741e-08
-4.31912e-10
-0.000124427
6.20162e-09
-7.1087e-08
-3.19425e-10
-2.40788e-08
0.00157017
-2.3252e-06
5.53195e-07
3.22699e-06
-0.000788495
-1.27781e-05
-5.60658e-07
-4.79471e-05
-9.29437e-07
-1.1046e-06
-5.51699e-09
-1.37366e-08
-1.44705e-08
-6.64307e-09
-9.71075e-07
1.16713e-08
-0.000149627
-8.68951e-09
-1.16193e-06
-2.4582e-10
5.25474e-09
3.5129e-08
-6.04526e-09
9.60583e-09
-0.00017892
-1.55648e-07
-5.42457e-09
-1.92374e-08
-6.45916e-08
-6.42214e-07
5.81709e-07
5.5156e-05
-2.41587e-08
-1.30715e-08
-1.20773e-09
1.22462e-07
0.000370819
-2.30233e-10
7.74712e-06
-1.43264e-08
5.40302e-09
4.90901e-05
2.42177e-08
8.28856e-05
-7.75801e-06
-2.78105e-08
-0.000317614
4.04318e-09
4.2877e-05
2.92757e-05
0.00125017
5.02493e-10
-1.11366e-08
6.59161e-09
-0.00110404
1.50335e-09
-0.000551907
-3.57118e-08
1.31754e-09
3.63937e-08
-3.09957e-08
0.00185381
3.71577e-08
-2.54965e-08
2.06279e-08
-6.20175e-08
1.72334e-08
3.37745e-08
-0.000140903
-6.57952e-07
-1.02191e-05
-1.2097e-08
-2.39384e-08
6.85763e-09
-0.000109187
-0.000466219
3.06511e-08
7.72574e-08
0.00145766
0.000588137
-6.30469e-10
-1.25918e-09
-9.80903e-10
-4.79137e-08
2.75901e-09
-1.11264e-08
4.73015e-08
0.000183338
2.9884e-08
-3.16695e-09
2.1311e-07
-2.31067e-05
1.14156e-08
-1.90012e-08
-0.000504295
-0.00151262
-1.07695e-08
8.39791e-09
2.43987e-06
-4.36998e-10
5.91703e-08
-1.67171e-08
-7.58012e-08
-2.93272e-08
-0.00234189
5.01148e-08
6.19245e-10
-2.33691e-06
3.35379e-06
-0.000394058
-2.12623e-08
-1.12899e-08
9.92755e-10
-1.35173e-05
1.04367e-08
-2.06789e-08
-3.91688e-09
8.0742e-09
-4.16155e-09
0.00101215
0.000621219
-3.03824e-08
-1.69903e-08
-2.75121e-09
3.4093e-08
4.24482e-09
4.47576e-06
-1.35247e-07
1.89709e-09
-7.24024e-09
2.48409e-08
3.63278e-09
-8.59157e-09
-3.09547e-09
1.52824e-05
-1.21902e-05
-1.01849e-06
-4.76742e-09
-5.70091e-08
1.47923e-08
-9.45724e-09
-1.85615e-08
3.0913e-08
-2.88932e-09
-1.03059e-08
-1.26895e-08
1.40242e-09
-1.76789e-06
1.98519e-08
0.000605523
-9.91228e-10
3.1391e-05
-2.5662e-09
1.84432e-08
8.81536e-06
-1.04267e-08
-9.5583e-08
9.69751e-08
2.27478e-08
0.000262148
0.000870211
-0.000337822
-1.90764e-09
0.00151311
-2.85723e-09
3.34162e-08
7.53542e-06
-0.000752975
0.000166047
-2.90119e-09
-7.6316e-09
4.67055e-08
-1.39903e-09
-1.36167e-10
-4.11668e-08
-2.50702e-08
-2.07023e-07
-4.58506e-05
-1.90336e-08
-0.00011346
-9.14406e-06
1.38073e-06
-3.89292e-10
-3.30976e-08
9.2688e-09
6.74676e-05
7.22033e-09
1.80657e-09
-9.19174e-11
-7.18447e-09
-4.83012e-08
-2.18053e-09
1.20724e-08
-4.97401e-09
0.000136928
-1.66186e-08
2.00822e-08
1.38033e-09
1.69278e-09
-7.7208e-09
-5.14486e-06
3.19631e-08
-7.39848e-09
2.09929e-05
2.02932e-07
7.398e-09
1.637e-08
-3.28406e-08
0.000114119
-1.62653e-09
-0.000234449
-4.80329e-09
2.38981e-05
-1.08291e-08
-1.14273e-09
1.02301e-08
2.08132e-08
-0.00165625
2.6362e-08
-4.30699e-08
-8.97772e-08
1.27521e-08
-0.000137114
1.23254e-07
0.000498062
-3.28583e-07
1.36525e-08
-1.03326e-07
-0.000716631
2.0983e-07
-1.45653e-08
-7.19266e-08
-1.07383e-08
5.7409e-09
-1.73287e-08
4.90661e-08
6.31434e-10
3.33177e-09
-1.19102e-08
-4.59258e-09
4.06985e-09
-0.000451217
-3.57411e-08
-6.13946e-08
1.02486e-08
1.96638e-06
-4.06674e-08
-0.00105068
-1.42473e-10
5.23071e-11
-1.25428e-05
-5.26291e-09
-9.54159e-08
-0.000775262
1.06464e-09
2.08519e-08
1.6275e-08
-7.43395e-10
-4.53832e-08
-0.00014742
-1.60721e-08
-9.8144e-09
2.18255e-08
-2.06201e-07
4.90671e-08
2.59736e-07
-5.298e-08
0.000163497
-3.86031e-08
2.55272e-08
0.000159957
-1.31287e-09
-2.9043e-08
-2.68529e-09
8.57969e-09
-2.3817e-08
-0.00302484
-3.11989e-09
-8.15685e-10
3.26219e-08
-2.46811e-09
7.94943e-09
7.79348e-09
-0.000716666
4.83986e-05
7.84433e-05
-1.08458e-05
-1.00129e-08
-2.007e-07
0.000263209
3.16407e-08
-3.54787e-08
4.76947e-09
-4.03968e-08
7.8007e-05
-2.79762e-08
-7.9542e-06
-6.13587e-08
5.64639e-08
-1.80886e-09
-6.31007e-09
-1.83971e-08
4.36371e-05
1.12101e-08
-6.72828e-08
2.51683e-08
-0.000195277
5.70505e-08
-0.000496247
-1.80461e-09
7.78634e-05
2.67762e-08
-6.27243e-11
-6.92699e-10
2.90324e-08
0.000533251
0.000195109
8.13264e-09
-0.000601796
-9.49823e-10
-1.54835e-07
0.000113735
-6.60067e-08
-4.7416e-08
4.1239e-09
-7.4706e-08
3.39275e-05
-0.000491307
9.19397e-09
-1.11587e-05
3.58546e-08
-0.000618679
-3.74208e-08
-1.33828e-08
-0.00106845
-2.70254e-08
-1.80155e-08
3.64848e-08
9.05737e-09
-2.01386e-08
-6.19839e-08
8.76992e-09
-1.54982e-09
-1.00789e-08
-1.33076e-07
1.4343e-09
0.000115134
-5.82163e-09
3.00516e-08
-3.55014e-10
1.90462e-06
3.29862e-09
0.000809337
1.80804e-08
-1.14176e-10
8.96152e-05
-1.78411e-08
-1.93149e-08
2.05213e-08
4.93241e-08
5.59444e-09
-1.75282e-07
-1.77246e-08
-7.04445e-06
-1.76277e-08
4.13316e-07
0.00104272
0.000295031
3.89319e-08
4.62523e-09
1.30819e-08
-1.52447e-05
5.67197e-09
2.15264e-08
-8.51734e-05
1.61227e-09
-1.28472e-08
1.5979e-09
-0.00140762
5.70764e-09
0.00116008
1.10397e-08
-1.31531e-08
-5.86551e-08
5.89807e-09
0.000179733
-6.26865e-08
-3.73356e-05
-0.000241714
0.00086327
3.16076e-05
-3.39928e-08
-9.788e-09
-6.77297e-08
0.00115335
-4.7629e-09
-0.000177643
4.02315e-08
0.000408867
1.07584e-08
-2.1549e-08
-4.3677e-06
-6.14046e-07
-0.00120872
1.41047e-08
-5.75127e-08
0.0010354
6.63523e-09
-5.37591e-09
-5.56696e-08
4.32876e-07
-5.04086e-08
1.06882e-09
-2.14457e-08
1.24365e-07
0.000829592
-2.19968e-08
6.43078e-05
1.05412e-05
-3.79177e-08
1.61926e-08
-0.00148694
-0.000930758
-1.97445e-08
4.61765e-09
3.74286e-08
1.30236e-06
-3.27601e-05
-6.26062e-09
-2.11132e-09
2.41732e-09
-2.31834e-07
2.24024e-08
-2.35626e-08
-1.71598e-08
-7.67925e-09
0.000594573
1.16227e-08
0.000861991
-1.11058e-08
0.00208849
6.80988e-09
0.00168314
-9.67138e-09
-1.12751e-08
2.34625e-08
-0.000161478
-7.72776e-06
4.46482e-05
-1.25888e-05
0.000411334
4.03729e-08
-2.41305e-07
2.00893e-09
1.3183e-08
-0.000569658
0.00138257
5.22855e-09
-2.59126e-09
-2.67524e-09
-6.99953e-06
-2.79537e-07
1.05384e-09
1.79275e-09
-4.57628e-08
1.80929e-08
2.1879e-08
-3.95045e-09
2.95569e-08
-1.33493e-08
4.4065e-08
-3.85382e-08
-1.84595e-07
4.39467e-08
-4.85702e-08
-4.45513e-08
-1.58895e-08
0.000242706
-0.000763311
-1.0664e-08
1.38686e-09
3.53216e-08
2.76992e-09
4.57458e-09
0.000378983
4.45576e-09
-0.00021285
-0.00152244
-7.37489e-09
7.14056e-10
-2.11338e-08
-6.34606e-10
-0.00107318
8.18779e-05
-3.11882e-09
1.62067e-09
-4.92152e-09
1.51043e-08
2.47495e-07
3.34672e-09
0.000598638
2.81075e-09
2.99181e-10
-0.000262351
-4.60194e-07
1.12649e-08
1.29988e-09
-6.44139e-08
-2.75879e-10
-4.26526e-05
-1.20091e-05
8.88299e-09
-1.30317e-08
-0.000485178
-0.000488733
-6.66744e-06
5.58207e-10
1.33166e-08
6.49187e-08
2.92278e-06
-9.77864e-08
-0.00104344
7.47325e-10
-2.91788e-09
-4.85026e-10
-2.82653e-08
-1.78843e-05
-5.80415e-08
0.000648282
-5.25795e-08
-0.000926452
-3.74262e-08
-2.4644e-09
-5.06696e-05
3.1483e-07
-1.82547e-07
-1.29503e-06
-8.37976e-09
-1.98859e-08
1.4838e-07
-0.000202695
-7.2416e-10
-1.72206e-08
-4.74079e-06
3.27493e-09
7.37159e-09
3.06572e-10
4.41608e-08
9.48945e-05
-0.000447519
3.22629e-08
4.82633e-09
3.55944e-09
0.00153462
3.14784e-08
-6.98383e-08
-2.86416e-08
-4.04748e-05
-1.98457e-08
0.000693192
1.27879e-06
0.00022343
2.23045e-08
6.22161e-08
4.95437e-08
-2.44124e-08
1.12924e-08
-0.000683769
0.00110353
1.86298e-09
4.50943e-06
1.55436e-08
-4.6623e-09
0.00151282
4.40779e-09
0.000511869
2.90211e-05
7.7752e-08
-5.68392e-05
-1.43915e-09
2.43575e-05
4.03402e-10
4.0916e-09
-0.00136382
-1.04881e-08
-1.83932e-08
-3.03985e-06
0.00152157
-2.72074e-08
-2.47472e-08
-1.15444e-09
0.00163601
-2.19709e-08
-0.000113452
2.3122e-08
-1.36748e-08
-1.16711e-06
-3.42324e-08
-3.04109e-08
-1.62758e-07
-7.04829e-09
-4.95107e-08
-1.02281e-05
-7.77776e-07
-3.30996e-09
6.0178e-08
-0.00084255
-4.39362e-09
-3.52883e-08
-7.02107e-09
8.21593e-06
-0.00113922
2.11625e-06
-3.49543e-08
0.000171404
0.00174058
9.42004e-09
-5.21731e-07
6.61361e-08
1.32723e-05
-1.00875e-08
2.41269e-06
0.00151319
-2.72459e-06
0.000819554
0.000553212
3.25857e-08
9.91011e-10
3.80748e-08
-1.26723e-08
0.00138603
7.67319e-10
0.000273437
0.00117715
4.08618e-08
-1.37148e-09
6.46116e-08
-1.65319e-08
0.00183186
-2.01666e-09
1.259e-08
7.67346e-10
-0.00017158
-1.05992e-10
2.74192e-08
-9.69188e-08
4.48295e-09
-2.36991e-08
2.33422e-07
-4.24355e-07
-3.72878e-10
-5.43093e-08
-4.18758e-09
0.00171832
-4.34557e-09
1.12679e-08
1.38096e-08
2.23712e-07
-6.4936e-06
-3.14126e-10
9.36551e-10
2.08883e-08
-2.66923e-08
-0.00306898
7.03368e-09
-4.77794e-09
-0.000330097
-1.61885e-09
-3.56242e-09
-1.46101e-09
-1.54673e-05
-1.30078e-05
-4.4979e-10
0.000683469
0.000269653
7.43009e-05
-5.00434e-07
-0.000471867
-0.000211722
-0.000903605
1.6243e-10
-2.04896e-08
3.03358e-08
2.30469e-09
1.08617e-08
-0.000864101
-9.47429e-06
-1.0599e-08
-6.82623e-08
-2.80967e-09
-5.23996e-10
5.53677e-09
-2.32085e-08
-3.52784e-08
-6.96685e-07
1.36129e-06
5.89138e-07
0.00150844
2.3274e-06
-4.28994e-08
1.04778e-08
0.000208548
1.25046e-08
0.000281533
-3.04815e-07
-1.72983e-08
-2.31729e-08
-7.51556e-07
-0.00122109
-3.37478e-09
-1.55503e-08
-7.33778e-09
-6.93658e-06
-1.33239e-06
-1.88281e-08
-0.0011813
1.12056e-06
5.60984e-09
0.000318795
0.00158725
-1.44022e-07
-1.65545e-09
1.52264e-08
6.13505e-10
-1.29184e-07
-1.0236e-07
-1.8735e-07
-0.000285552
1.31015e-07
1.8991e-08
0.000111054
-1.60231e-07
4.01862e-06
2.26933e-09
-4.11949e-07
-5.0056e-06
2.19228e-08
0.000698087
0.00134941
0.00192942
1.90068e-06
-4.95469e-05
-5.36722e-08
-1.92943e-09
-4.2539e-06
-7.50232e-06
-1.00388e-08
8.98712e-09
-2.55936e-08
5.73967e-09
0.00141656
-1.46606e-08
3.24846e-09
-1.21942e-05
1.5656e-08
0.000281805
-1.1412e-06
1.47076e-09
1.81023e-05
-0.000431292
0.00189885
-1.05928e-08
-2.79804e-08
1.07818e-08
0.00152919
0.000348378
-2.89601e-07
9.55472e-09
-1.01202e-07
-6.56425e-08
0.00137152
3.97418e-08
0.00174988
1.20355e-08
0.000356693
9.66651e-08
-8.54242e-05
-3.08225e-08
-6.63759e-08
2.89364e-08
-4.96728e-08
-1.3093e-09
-1.19929e-08
-7.22248e-09
2.15045e-08
-1.80513e-07
0.000427349
-2.29952e-08
-2.23175e-08
-3.62821e-08
-3.89632e-05
-0.000369081
3.61686e-08
1.23844e-08
0.00106773
3.89284e-07
0.000378756
1.38262e-08
3.92513e-07
-1.17592e-07
0.00179375
-7.96269e-09
0.000387568
0.00145084
6.17581e-08
-1.52228e-08
-3.17547e-09
5.93512e-08
-1.73514e-08
7.63896e-09
2.61575e-07
1.73718e-06
-1.99176e-09
-0.000791692
-1.64393e-08
-0.00074568
-1.24786e-08
-0.000876668
0.00173199
4.21043e-08
3.81924e-08
0.000385799
3.69459e-11
-7.19747e-10
-3.55335e-08
1.53488e-08
-4.95145e-07
1.84435e-08
-1.48594e-09
2.14335e-08
-0.000126497
0.00171865
1.09075e-08
2.9022e-08
3.66252e-09
3.17638e-06
-0.000594324
-3.18458e-09
3.70122e-08
-6.49114e-10
1.35703e-06
-4.79188e-08
0.001592
0.00188789
8.04195e-06
1.44596e-08
4.22193e-07
8.20071e-08
1.10392e-08
-0.000753011
-1.16467e-07
1.49261e-09
0.000907161
-2.211e-05
-5.14098e-08
8.25798e-11
3.8989e-07
4.2544e-08
1.37315e-07
-0.000526997
8.86876e-05
-1.44931e-08
1.52806e-08
-2.35497e-06
-0.000363867
0.000435396
3.36674e-07
7.19865e-10
0.00161229
3.64032e-05