/*--------------------------------*- C++ -*----------------------------------*\
| =========                 |                                                 |
| \\      /  F ield         | OpenFOAM: The Open Source CFD Toolbox           |
|  \\    /   O peration     | Version:  v2012                                 |
|   \\  /    A nd           | Website:  www.openfoam.com                      |
|    \\/     M anipulation  |                                                 |
\*---------------------------------------------------------------------------*/
FoamFile
{
    version     2.0;
    format      ascii;
    class       surfaceScalarField;
    location    "400";
    object      phi_0;
}
// * * * * * * * * * * * * * * * * * * * * * * * * * * * * * * * * * * * * * //

dimensions      [0 3 -1 0 0 0 0];
oriented        oriented;


internalField   nonuniform List<scalar> 
21240
(
-0.362265
0.573715
-0.211451
-0.0420432
0.152498
-0.110455
-0.158576
-0.348391
0.506967
0.248948
-0.181457
-0.0674916
-0.0876805
0.246935
-0.159254
-0.25644
-0.215269
0.471709
0.62027
-0.484986
-0.135284
-0.25657
-0.114789
0.371358
0.042927
-0.0630119
0.0200849
0.571964
-0.480107
-0.0918573
-0.644721
0.375199
0.269522
0.390482
0.020137
-0.410619
0.184795
-0.0195774
-0.165217
0.139404
0.236405
-0.375809
0.502984
0.117285
0.0134651
-0.345779
0.332313
-0.387052
0.536277
-0.149225
0.0401567
-0.0347925
-0.00536423
0.414728
-0.573277
0.158549
0.279241
-0.265776
0.00940716
0.141612
-0.151019
0.0740945
-0.407258
0.333164
-0.680349
0.484071
0.196278
-0.310423
-0.334298
0.0412215
0.0461355
-0.087357
0.321337
-0.0592999
-0.262037
0.167157
-0.058649
-0.108508
0.426307
0.145657
0.152567
0.01459
-0.579272
0.621939
-0.0426668
-0.0508239
0.150025
-0.0992012
0.633829
-0.167012
-0.466818
-0.00265181
0.0048468
-0.00219499
0.626493
-0.453178
-0.173314
-0.0310912
0.238859
-0.207768
0.105217
0.528613
0.413987
0.146751
-0.560738
-0.298366
0.267275
-0.752346
0.398676
0.35367
-0.184889
0.279625
-0.0947357
0.0671989
-0.0242719
-0.181827
-0.135683
0.31751
0.0169597
0.168903
-0.185863
-0.108007
-0.0171906
0.125198
0.235019
-0.137413
-0.0976069
0.291045
-0.158927
-0.132118
0.356022
-0.514598
0.581939
-0.155632
0.456597
-0.211321
-0.245276
0.235486
-0.218527
-0.160629
0.574616
0.00302219
-0.1184
0.115378
-0.702837
0.378279
0.324558
0.395415
-0.568798
0.173383
-0.443196
-0.259641
0.218659
0.0732095
-0.291868
0.371594
-0.279407
-0.092187
0.670355
-0.496151
-0.174203
-0.0369973
0.358334
0.103413
-0.0621914
0.628976
-0.233561
0.154842
0.136203
-0.166622
0.188144
-0.0215218
0.211027
-0.625564
0.414537
0.398699
0.0900745
-0.488774
-0.382952
0.554085
-0.171133
-0.493315
0.144925
0.0865524
-0.137376
-0.357261
0.167523
0.189737
0.678521
-0.573304
0.200037
-0.655317
0.45528
-0.616223
0.220887
0.395336
0.175013
-0.570112
0.395099
0.264382
0.0894237
-0.353805
0.627334
-0.439175
-0.18816
0.461205
-0.225035
-0.236171
-0.405196
0.244589
-0.046279
-0.19831
0.54314
0.135381
-0.0402178
-0.0626229
0.102841
0.562429
0.0146921
-0.577122
0.0648293
-0.283366
0.218536
0.271144
0.185453
0.644632
-0.423745
0.787055
-0.408776
0.096439
-0.0459782
-0.0504608
0.0810386
0.153981
-0.625509
0.16034
0.465169
-0.450496
0.669067
-0.46903
0.17641
-0.0423672
-0.134043
0.0314327
0.00497782
-0.0364106
0.0213249
0.16347
0.0683707
0.488051
0.605079
-0.615815
0.0107363
0.558611
0.00381831
0.424034
0.363021
0.466848
-0.677427
0.210579
-0.253865
0.646832
-0.392967
-0.380605
0.198778
-0.401239
0.543611
-0.142372
-0.439546
0.591612
-0.152066
-0.363602
-0.316748
0.0435012
-0.234722
0.191221
0.585956
-0.425616
0.358104
0.0735858
-0.431689
-0.315694
0.130805
-0.22428
0.194407
0.0298725
-0.0217361
0.214897
-0.193161
0.126413
-0.132974
0.00656085
-0.185512
0.248724
-0.0632114
0.114004
-0.00302515
-0.110979
0.368103
-0.379403
0.0113
0.1311
-0.000242249
-0.130858
0.35595
-0.281856
-0.117687
0.12071
0.331194
-0.17278
-0.158414
-0.118401
0.0752244
-0.000238712
-0.0749856
0.257048
-0.192219
0.144739
0.4372
-0.583833
0.196781
-0.198609
0.613337
0.252568
-0.132603
-0.119966
-0.0473473
-0.0498024
0.0971498
0.560439
-0.265172
-0.295267
0.0356148
0.0982855
-0.1339
-0.537519
0.175254
0.61805
-0.376898
-0.241152
-0.556922
0.155683
-0.0460921
-0.0884199
0.134512
0.141891
-0.0293371
-0.112554
-0.268239
0.185723
0.0825156
-0.0834018
0.201793
0.259412
0.359433
0.258618
-0.0453221
-7.1676e-06
0.0453293
0.151478
-0.0203773
-0.012487
-0.114577
0.127064
0.170492
-0.134878
-0.192416
0.150421
0.0419947
-0.0815747
0.0342274
-0.154234
-0.425039
0.140038
0.00185313
0.00236414
-0.00398431
0.00162017
-0.091748
0.35613
-0.0633694
0.431472
0.359932
0.148905
-0.136309
-0.0125955
-0.0133857
0.139799
0.400172
0.143439
-0.281333
0.713334
-0.432
-0.607869
0.281224
0.326644
-0.486483
-0.105027
0.591509
-0.678408
0.513654
0.164754
0.242758
-0.264494
-0.257567
0.167742
0.0898244
-0.637166
0.150684
0.305177
0.0664165
0.0794854
-0.119703
-0.174899
-0.0120984
0.186997
-0.218063
0.350866
-0.132803
0.0028754
-0.0223817
0.149101
-0.126719
0.405091
-0.641651
0.23656
0.0191537
0.0772854
-0.323091
-0.429255
0.118724
-0.182516
0.063792
0.609263
-0.127943
-0.48132
-0.552001
0.295562
0.0768269
-0.00160251
0.0473329
-0.0350886
-0.0122444
-0.303705
0.14092
0.162785
-0.00865369
-0.191224
0.199878
-0.0601991
0.088373
-0.0281739
-0.283069
0.0829699
0.200099
-0.114509
0.504991
0.176565
0.383874
0.0147557
-0.155613
0.140857
0.0208392
-0.13837
0.117531
0.00130118
0.00334335
-0.00464452
0.0960769
0.156491
0.502633
-0.102461
0.20247
-0.291648
0.0891779
-0.149177
0.158584
-0.205379
-0.0779868
-0.241344
0.0558321
-0.189412
-0.0519326
0.0682269
0.327789
-0.396016
0.155881
-0.006976
-0.276277
-0.0889511
0.365228
0.238629
-0.0255949
-0.213034
0.107257
-0.00304982
-0.104207
-0.399846
-0.21267
0.612517
0.641429
-0.174581
0.332073
-0.147295
-0.184778
-0.354016
0.252509
0.48519
-0.211846
-0.273344
-0.177726
0.00282743
0.103564
-0.149656
0.00280662
-0.00545842
-0.500044
0.35659
0.143454
-0.64558
0.206033
0.268946
-0.360694
0.145088
0.10386
-0.543656
0.289395
0.254261
-0.304201
0.027924
-0.124111
0.0161032
-0.119665
0.622649
-0.182761
0.630673
-0.447913
-0.333925
0.402152
-0.243449
0.332873
-0.068428
-0.0708364
0.139264
-0.0745728
0.193296
0.00333099
0.00151581
-0.142743
-0.0539155
0.196658
0.0256198
0.0676816
-0.0933014
-0.36192
-0.195002
0.159314
0.343319
0.601847
0.00741656
0.0254915
-0.101579
0.0760876
-0.0789437
0.297602
0.0944051
-0.0689136
-0.190396
-0.0778432
-0.00343371
0.248023
0.0385777
0.185686
-0.224263
0.150115
0.181079
-0.151452
0.12907
0.418342
-0.616951
0.109291
-0.270191
0.160901
0.202546
0.129527
0.0110979
-0.107362
0.0962643
0.48596
-0.129938
-0.370731
-0.178304
0.549035
0.0775646
0.194062
-0.271627
0.228189
-0.206181
-0.0220078
0.107067
-0.124257
-0.258344
0.0773346
0.181009
0.232808
-0.355039
0.122231
-0.0061691
-0.039153
0.0181556
0.0248087
-0.0429643
0.0473794
0.0838338
-0.131213
-0.571895
0.188943
-0.0973455
-0.063854
-0.037725
0.459038
-0.670499
0.21146
-0.0118924
0.030048
-0.753617
0.299182
0.454435
0.542598
-0.124257
0.472755
-0.608557
0.135802
-0.155989
-0.101578
-0.449426
-0.205891
0.0122234
-0.0261987
0.0139753
-0.406887
0.553638
0.122978
-0.379547
0.053595
-0.103219
0.0496242
0.0558001
-0.0489776
-0.00682255
-0.135922
0.099263
0.0366585
0.00305407
-0.000689934
-0.0949373
0.363883
0.398354
-0.226225
-0.172129
0.169375
0.0748779
-0.244253
0.0464702
-0.189213
-0.0316617
0.0438851
0.178949
-0.00404931
-0.174899
-0.114525
0.0181796
0.0963456
-0.321601
0.140604
0.180997
0.00541581
-0.00405402
-0.145123
-0.058704
0.145256
0.370404
-0.288476
-0.0819284
-0.414224
0.482595
0.686947
-0.376686
-0.310262
0.622805
-0.163767
0.666077
-0.595881
-0.0701963
0.128903
-0.613888
-0.088024
0.112851
-0.0248266
-0.608937
0.327604
-0.153377
-0.0855014
0.238878
-0.157844
0.15379
0.51029
0.117044
0.0127914
-0.482572
0.195613
0.286959
0.13042
0.014952
-0.145372
-0.237559
0.149878
-0.057099
0.00504099
0.052058
-0.133622
0.121135
0.222117
-0.0274919
-0.194625
-0.426356
0.59908
-0.172724
-0.457343
-0.110538
0.567881
-0.0478811
-0.0532021
0.101083
-0.199831
-0.300214
0.54592
-0.140829
-0.0318012
-0.0630097
0.0948109
0.178995
0.442945
-0.349196
0.131133
0.758047
-0.354059
-0.403988
0.000365854
0.00157761
0.282314
0.140584
-0.422898
-0.396122
0.129377
0.266745
-0.221476
0.170305
0.0511709
0.339477
0.0619148
-0.401392
0.40688
-0.267476
-0.319583
0.146803
-0.239818
0.0583612
-0.256348
-0.351521
-0.214843
-0.125399
-0.0225848
0.201533
-0.148098
-0.0185244
-0.699436
0.28858
0.410855
-0.272906
-0.426529
0.163639
0.0137471
-0.177386
0.129777
-0.143163
0.291966
-0.208875
-0.0830909
-0.0356485
0.0626162
-0.0269676
0.195744
0.0613042
0.235235
0.163119
0.552579
0.113498
-0.0387154
0.00784973
0.0308657
0.349499
-0.123001
-0.226498
0.114544
0.255877
-0.370421
0.666423
-0.508816
-0.157607
0.42649
-0.144176
0.242571
0.426496
0.21228
-0.0104279
-0.201852
0.0900827
-0.0644629
-0.065953
0.464652
-0.0854051
0.32225
0.435797
-0.0476263
0.0135769
0.0340494
-0.094029
0.030175
0.0368387
-0.00540595
-0.0802577
0.0760623
0.00419537
-0.103652
0.0611073
0.0425447
0.547915
-0.493801
-0.0541136
0.585808
-0.415739
-0.170069
0.221123
-0.111832
-0.0889585
0.0287594
0.34258
-0.127683
0.10266
-0.161364
0.00634255
0.0569945
-0.0633371
0.031047
0.016286
0.00588334
-0.389309
0.383425
0.496816
0.0510988
-0.0405431
0.00182773
-0.00158549
-0.00101156
0.00259705
-0.00488736
-0.0581245
-0.568996
0.408367
0.195285
-0.0870337
0.0933762
-0.0809941
0.000736381
0.455831
-0.652749
0.196918
-0.614182
0.187826
-0.0203249
0.150745
-0.111377
0.124844
-0.0774642
0.0893165
-0.000443238
-0.0888732
0.108696
-0.0551006
-0.431367
0.140029
-0.172523
0.0324933
0.00182382
-0.00340931
0.684858
-0.299886
-0.384973
0.424559
0.161396
0.337379
0.34748
0.168202
-0.0193712
0.149148
0.348003
-0.115195
0.245366
-0.168031
0.489514
-0.555467
-0.00612185
0.113379
-0.0022975
0.0015819
0.0007156
0.0196764
-0.166689
0.147013
-0.0528686
0.0172201
0.51653
0.0293898
0.0726511
-0.349441
0.27679
-0.492188
0.318726
0.173462
-0.00322103
0.000923537
0.00321238
-0.119228
0.116015
-0.450992
0.494899
-0.0439066
-0.192786
-0.128814
-0.232281
-0.250292
-0.10774
0.0197162
-0.322639
-0.13586
0.4585
-0.470823
-0.143358
-0.0345202
0.161374
-0.126854
0.34381
0.241998
0.253416
-0.172919
-0.0804976
-0.0716226
0.132115
-0.0604928
-0.102798
-0.0213125
0.0780602
-0.102247
0.0241866
0.116191
-0.278588
0.162397
0.611518
-0.449096
-0.162422
0.49191
0.0246199
0.434586
-0.232792
0.53915
-0.498813
-0.0403371
0.455034
0.231914
0.185403
0.042786
0.201451
0.233134
0.393929
-0.0720982
-0.321831
-0.149885
-0.420227
-0.0889413
0.447045
-0.200328
0.260257
-0.0599296
-0.13649
-0.133702
-0.0466574
0.0719301
0.022475
0.0974231
-0.0863252
-0.00737217
0.121376
-0.0347531
-0.125636
0.160389
-0.13621
0.139422
-0.670537
0.396009
0.274528
-0.273127
0.145049
0.392082
-0.537131
-0.00271986
0.000339726
0.00238014
-0.11583
-0.0356227
-0.241662
0.0522502
-0.187514
-0.126009
0.140765
0.0186941
0.0740463
-0.372691
0.298645
-0.158423
0.502232
-0.0458589
0.0666824
-0.0208235
-0.0958427
0.0332199
-0.0495699
0.389047
0.477029
0.150354
-0.627383
-0.0245096
0.188149
-0.170988
0.136235
-0.330522
0.0870732
0.159892
-0.575631
0.0853381
-0.127381
0.0793586
-0.00934789
-0.0700107
-0.342085
0.347968
0.600997
-0.331948
-0.269049
0.21338
-0.180326
-0.0330533
0.335206
-0.449715
-0.280618
-0.389919
0.02134
-0.103402
-0.0111232
0.0437727
0.132637
-0.174708
-0.377293
-0.0336764
0.142461
-0.108784
-0.668676
0.388552
0.280124
0.304057
0.0525331
-0.0280468
-0.0659822
0.100725
-0.0114081
-0.116309
-0.489682
-0.11576
0.504312
-0.218468
-0.336266
0.554734
0.120122
0.31153
-0.431651
-0.500746
0.336739
0.164008
0.335825
0.293155
-0.0974105
0.341706
-0.26766
0.316727
-0.432487
-0.00254399
-0.00154966
0.00409365
0.313487
0.254788
0.371705
0.218387
-0.179063
-0.0393239
0.295285
-0.20139
-0.0938955
-0.301741
0.415528
-0.113788
0.501281
0.0378686
-0.0660565
-0.069865
0.0877594
-0.0191882
-0.0685712
-0.129933
0.00858713
0.121346
-0.614761
0.0415395
-0.00138279
0.0720603
-0.0225164
-0.0495439
0.318708
0.0752208
-0.539598
-0.0164805
0.556078
0.165695
-0.0496896
-0.116005
-0.0716548
-0.206933
-0.39153
0.222179
0.169351
0.24694
0.392018
-0.534197
0.142179
-0.1641
-0.0601804
-0.119498
0.0167
-0.131297
-0.264825
-0.130848
-0.154749
0.285597
-0.149753
-0.389844
0.274757
-0.645488
-0.0947562
0.550588
0.202352
0.0908029
-0.0988413
0.301311
-0.222661
0.069284
-0.270762
-0.101929
-0.0988735
0.119713
-0.457523
0.167695
0.289828
0.148306
0.00419148
0.210295
-0.218949
0.0584967
0.0135636
0.215249
-0.469114
-0.344997
-0.198659
0.212158
0.0798075
-0.0957487
-0.00751982
0.103268
-0.160156
-0.0969999
0.0651987
0.26492
-0.379709
0.220886
-0.0354834
-0.570318
0.0446288
0.525689
-0.00087291
-0.00167108
0.450262
0.133512
-0.583774
0.0477901
-0.0331588
-0.0146313
-0.118638
0.591393
0.212544
-0.0414278
-0.171116
-0.438238
0.588496
-0.150258
-0.103077
0.580106
0.476771
-0.642378
0.165608
0.184788
-0.460841
-0.164723
0.0189708
0.194409
-0.213991
0.2872
-0.162681
0.0310252
-0.190676
-0.359424
-0.13175
0.491174
-0.168574
0.14309
0.0254833
0.0543762
0.174112
-0.228488
0.0705594
-0.270887
-0.554541
0.515591
0.0389504
0.554638
-0.178423
-0.376215
-0.614443
0.0599021
-0.547672
0.218869
0.328802
0.371576
0.183063
-0.0387415
0.00394906
-0.00168139
-0.00103847
0.341681
-0.321544
0.0333388
0.154805
0.110636
-0.0181136
-0.0925224
-0.0133992
-0.0342271
0.0180895
-0.497639
0.479549
-0.15068
-0.465069
0.634297
-0.169227
-0.266061
0.160224
0.427827
-0.588051
-0.589307
0.255382
-0.26191
-0.197099
0.0378988
0.159201
-0.728576
0.307421
0.421155
0.0511274
-0.0374104
-0.013717
-0.439995
0.661183
-0.296404
-0.364779
-0.0483899
0.0349907
-0.000757077
0.0025809
0.505185
0.139446
0.342726
0.0375474
-0.380273
0.684883
-0.179697
0.551653
-0.61768
0.066027
-0.495114
0.320406
-0.047462
-0.00963702
-0.246581
0.487127
-0.363981
-0.123146
0.406239
-0.286118
0.526526
0.0109897
-0.537516
-0.00625462
0.495768
-0.160671
0.132519
0.0281519
0.209575
-0.323561
0.113987
0.302898
0.0842949
-0.387193
-0.0333277
0.173357
0.415053
-0.247358
0.39698
0.00694357
-0.203085
0.196142
-0.245109
-0.247079
-0.1716
0.0289214
0.142679
0.0894804
-0.0433449
-0.047255
0.0788201
-0.0315651
-0.208827
0.485334
-0.276508
0.059241
-0.257566
0.198325
0.104621
-0.5578
0.242541
-0.159571
-0.0591164
0.294352
0.562653
-0.207596
-0.355057
-0.570318
0.213679
-0.272796
-0.379226
-0.255609
0.0969735
0.158635
-0.503606
0.315441
0.188165
0.0871293
0.458842
-0.545972
0.118823
-0.387864
0.269041
0.133058
0.0184198
0.0432172
-0.0296403
-0.311821
0.103251
0.20857
-0.049568
-0.0755401
0.125108
0.198348
0.0595927
-0.257941
-0.335263
0.61002
0.368872
-0.0113888
-0.0273528
-0.646231
0.421578
0.224653
-0.652859
0.187789
0.485559
0.0804584
-0.566017
0.260883
0.0808232
-0.590488
0.415009
0.0394803
-0.454489
0.060847
0.0614168
-0.226196
0.310769
-0.0845734
0.0352941
0.020506
0.00278149
-0.00356107
0.000779586
0.596585
-0.112514
0.642557
0.00859651
0.0577226
-0.0663191
-0.160911
0.19151
-0.0305987
-0.0427217
0.0616805
-0.0189588
0.12327
0.244037
0.103966
0.445266
-0.0700669
-0.645988
0.395908
0.25008
0.358715
-0.149141
-0.109726
0.412624
0.373607
-0.0548989
0.385346
-0.323431
-0.665167
0.192167
0.473001
0.107049
0.00302261
-0.110072
-0.244913
-0.420254
-0.0704528
-0.126647
0.518725
0.166157
-0.527342
0.308874
0.313508
-0.248804
-0.0647035
0.516429
0.08865
0.024249
0.023541
0.213848
0.0814373
-0.219794
0.34752
-0.127726
0.0305154
0.057244
0.127703
0.0972178
-0.023501
-0.0737168
-0.0278804
-0.00378224
0.0316626
-0.251248
-0.249498
-0.467473
0.119662
-0.339456
0.142326
-0.143588
0.0012624
-0.121258
-0.420211
-0.195605
-0.00340893
0.00265185
0.0223567
-0.0721591
0.160254
-0.15331
0.0579717
-0.038818
0.374845
0.187808
-0.223759
0.1772
0.0465592
0.480489
0.0460373
-0.145707
-0.109902
-0.20246
-0.152578
-0.675185
0.402279
0.120623
-0.0135561
-0.424853
0.209583
0.175934
-0.0314806
-0.144453
-0.286136
0.0844979
0.201638
0.113887
-0.014624
0.152623
-0.0195649
-0.62606
0.290699
0.335361
0.119375
-0.305246
0.185871
-0.451691
0.129051
-0.259342
-0.366718
-0.639685
0.432903
0.206781
0.0919568
-0.300161
0.208204
-0.00470557
0.102129
-0.082785
0.568344
0.0263758
0.0842602
0.144554
0.446028
-0.590582
-0.10096
0.356212
-0.112174
-0.0349187
0.113389
-0.0784705
-0.216605
-0.329958
0.546563
-0.13444
0.0947562
0.360965
-0.540334
0.179369
-0.138168
-0.0103927
0.00951982
0.0106837
0.207703
0.567458
-0.339438
-0.22802
0.00634833
-0.00518058
-0.00116774
0.172669
0.0398742
0.532474
-0.171509
-0.164987
0.0355679
-0.106404
-0.281015
-0.266657
-0.0467437
0.101296
-0.0545521
-0.472609
0.263783
-0.312331
-0.153233
0.465564
0.584738
-0.256948
0.195592
-0.162064
-0.0335276
-0.0699621
-0.169856
0.0482337
-0.271631
-0.403554
0.359036
0.126924
-0.610893
0.58395
0.0269424
-0.14183
-0.30871
0.45054
-0.185421
0.0718271
-0.117015
0.0451878
0.298821
-0.0964692
0.198102
-0.278561
0.0804589
-0.153141
-0.238389
0.199617
0.385121
0.286365
0.0271424
0.480864
-0.583942
0.0395528
-0.034575
0.0755139
-0.2605
0.184986
0.0158564
0.292028
-0.307884
-0.111587
0.376507
0.392027
0.175431
-0.382026
0.270439
-0.052771
0.198641
-0.14587
0.138956
0.0267391
0.00497596
-0.106789
0.544397
-0.437607
-0.0751223
0.273224
0.448258
-0.617352
0.169094
-0.19916
0.258401
-0.308372
0.229428
0.0697823
-0.122984
-0.0305034
0.511368
-0.0447804
0.430127
-1.81329e-05
0.00279962
-0.0203227
0.0983828
0.326644
-0.504948
-0.198003
-0.29503
0.493033
0.522262
-0.377212
0.0461127
-0.0432964
-0.00281631
-0.242628
0.0652316
0.177396
0.361396
-0.493146
0.0799203
0.218901
0.101611
-0.41322
0.311608
-0.6133
0.278037
0.10873
-0.00168127
-0.364599
0.240398
0.124201
-0.256985
0.107971
-0.0332832
-0.0746883
-0.0778769
0.0306219
-0.116485
-0.313103
0.110267
0.202836
-0.436123
0.454213
0.129064
0.312592
-0.441656
-0.110376
-0.0130033
0.12338
0.0432125
-0.0183956
-0.0248168
-0.558656
0.101313
0.0834115
0.0253187
0.084001
-0.00464247
0.000585333
0.103126
0.0361384
0.0216621
0.0215503
0.0166745
0.0294382
0.419146
-0.567565
0.148419
0.0369793
0.183907
-0.0958159
-0.0230913
0.118907
-0.210368
0.303839
-0.442573
0.138734
0.571363
-0.426809
-0.126001
0.0375812
-0.0040444
-0.496997
0.133016
0.185563
-0.040475
0.278279
-0.0763315
-0.201948
0.0773811
0.16516
0.654098
-0.40916
-0.244938
0.291642
-0.0965269
-0.195116
-0.589928
0.441105
0.148823
-0.1458
-0.0257997
0.128309
-0.651096
0.207043
0.444053
0.0163239
0.0252156
-0.0172785
0.159604
-0.0779567
0.134845
-0.0568885
0.120665
-0.309416
0.188751
-0.284679
-0.392748
-0.00230079
0.00378914
-0.00148835
-0.598693
0.253673
0.34502
-0.00386247
0.00187755
0.00198492
0.0324034
0.14353
-0.124801
0.0537466
-0.00584217
-0.0479045
0.0889976
0.352254
-0.441252
0.118225
0.322112
-0.440337
-0.0923673
-0.0145767
0.106944
0.305332
0.149269
-0.454601
-0.182052
0.406203
-0.317206
-0.145654
-0.676363
0.265105
0.411258
0.113104
0.327583
-0.440688
0.161967
-0.543593
0.381626
-0.0137831
-0.0409566
0.0547397
-0.739079
0.516209
0.22287
0.0603737
0.167422
-0.227796
0.0428861
0.0650853
-0.264604
0.205305
-0.0633582
0.0887985
-0.0254403
-0.408771
0.103959
-0.304944
0.200984
-0.276778
0.420611
-0.143833
-0.192429
-0.54665
0.0456654
-0.0924091
0.0578103
-0.0492137
0.100695
-0.167266
-0.327848
-0.286647
-0.158551
0.445198
0.0153213
-0.093278
-0.344427
0.462652
0.4412
-0.328096
-0.139184
-0.451538
-0.134882
0.586419
-0.000304768
0.058115
-0.322211
-0.354152
-0.372431
0.459561
0.418807
0.0549332
-0.47374
0.679862
-0.186421
-0.493441
-0.0988411
-0.599215
0.460433
0.138782
0.455628
-0.33076
-0.124868
-0.0685203
0.266868
0.110956
-0.502628
0.391673
-0.228352
-0.442147
0.497436
-0.38648
-0.450232
-0.148983
-0.142625
0.446464
0.0621314
0.216148
0.0797545
-0.232297
0.152543
0.478302
-0.297402
-0.1809
0.0785071
-0.0382011
-0.040306
0.313272
0.099884
-0.413156
0.196663
-0.0521275
-0.144536
-0.548873
0.267858
-0.211042
-0.0750944
0.289345
0.390518
-0.0227267
-0.158253
0.18098
-0.0310412
0.114453
0.023247
-0.161198
0.429574
-0.268375
0.0948755
0.21114
-0.306016
0.0166521
-0.195043
0.178391
-0.211117
0.158346
0.177069
-0.131382
0.420181
-0.288799
-0.184126
0.152482
0.0316444
-0.440766
0.304906
-0.195497
0.18398
0.264965
-0.0709025
0.233018
0.433405
0.0323314
-0.0956897
0.0590131
0.027712
-0.0867251
-0.2015
0.270817
-0.0693172
0.420218
-0.106946
-0.000173416
0.00351676
-0.157249
0.174443
-0.0171939
-0.675467
0.28284
0.392627
0.0198945
-0.0259117
-0.0774903
-0.330772
-0.0746227
0.405395
0.653783
-0.346362
-0.155329
-0.372137
-0.30333
0.190644
0.287658
-0.409848
0.110921
-0.520584
0.409663
-0.201342
0.293299
-0.276355
0.56575
0.192539
-0.173569
0.0505076
0.323099
-0.142886
-0.0797747
-0.558637
0.200344
0.358293
-0.291938
-0.256935
0.270969
-0.365906
-0.0133531
0.0577999
-0.0444468
-0.368554
0.597219
-0.228665
-0.155618
0.135293
0.390647
0.279779
0.135274
0.0674899
-0.0905813
0.190034
-0.265156
0.61257
-0.61257
-0.188085
0.165501
0.0355848
-0.145324
0.10974
0.0202627
-0.0491843
-0.362018
-0.22791
0.0332672
0.0941702
-0.732917
0.396651
-0.316004
0.109416
0.206589
0.00412265
-0.00790489
-0.104232
0.375201
-0.0887739
0.565545
0.220769
0.402037
0.149712
-0.338258
0.445232
-0.106974
0.107531
-0.409271
-0.0278977
0.0291932
0.0653382
0.715792
-0.29771
-0.418082
0.00148203
-0.00287537
0.00139334
-0.0498195
0.134238
0.0732539
-0.0605394
-0.0127145
-0.0268851
0.177306
-0.118768
0.537575
0.00759351
-0.00601161
0.463026
-0.637367
0.174341
0.474079
-0.596969
0.404105
0.192864
0.191337
-0.174685
0.208742
0.38287
-0.205633
-0.0493269
0.25496
0.261657
-0.0122775
-0.24938
-0.394142
0.0578514
-0.100945
0.165156
0.190003
-0.640235
0.158589
-0.0644464
-0.0941425
0.510352
0.13648
0.0455969
0.00509079
-0.0506877
-0.196346
-0.362291
0.0110681
0.0469036
0.283874
0.431918
0.111863
-0.0936831
0.182459
0.478724
-0.587743
0.245684
0.342059
0.212551
0.0790911
-0.156465
0.624992
-0.170995
-0.453997
-0.438984
-0.142047
0.581031
0.230818
-0.272829
0.0420109
-0.169383
0.146082
0.392149
-0.538231
-0.703515
0.418836
0.109315
0.0671204
-0.176436
-0.38809
-0.344827
0.17125
0.347476
-0.416123
-0.287392
-0.314103
0.117533
0.19657
-0.548775
0.166707
0.0288843
-0.490263
0.322997
0.0691709
-0.37833
-0.194948
-0.644495
0.231573
0.412922
0.421107
0.177974
0.112513
0.0115923
-0.124105
-0.0254787
-0.124279
0.149758
-0.570627
0.231122
0.339506
-0.359982
0.120165
0.239816
-0.0608672
-0.0413796
-0.191156
-0.0836446
-0.0507958
-0.0658717
0.480881
-0.0411718
0.112999
0.244047
-0.423726
-0.0811735
-0.185709
0.266882
0.150192
0.0303778
-0.18057
-0.0294772
0.0884903
-0.139144
0.599576
-0.174608
-0.000394214
-0.00115544
0.00325484
-0.0151473
0.0479178
0.148746
0.503355
-0.36605
-0.137306
0.27303
-0.0422116
-0.139432
0.089613
0.343517
-0.257084
-0.0864334
0.150677
-0.322791
0.19979
-0.00900455
0.0152914
-0.00628689
-0.141184
0.137135
0.10278
0.499899
-0.602679
0.0365646
-0.0825428
-0.0288692
0.195577
-0.0974912
0.059035
0.0384562
-0.114113
-0.309006
0.42312
0.0295755
-0.216104
0.186528
-0.0564676
-0.452349
0.0126965
0.111308
-0.124004
0.505802
-0.373919
-0.131883
-0.674925
0.376974
0.297951
0.455008
-0.523402
0.162262
0.36114
0.194965
-0.24106
0.0460944
-0.10913
0.0595618
0.528846
0.0837238
0.410429
0.243353
0.136399
-0.517276
0.380878
-0.0483088
0.0299132
-0.196201
-0.519395
0.306725
0.580871
-0.436133
-0.430088
0.159337
0.270751
-0.226861
-0.0319002
0.258761
-0.381126
0.188566
0.0583692
0.260116
-0.205258
-0.00349855
0.208757
0.0921584
0.118455
0.426689
0.154182
0.706803
-0.289123
-0.417681
0.193035
-0.0837199
0.273872
0.432931
0.479455
-0.195476
-0.283979
0.590186
-0.415947
-0.174238
-0.142712
-0.0390337
-0.114229
0.153263
0.284231
-0.362681
0.227955
0.134726
0.297844
-0.514448
-0.228636
0.111278
-0.0986062
0.0910864
-0.234097
0.164135
-0.0462416
0.148901
-0.201693
0.11737
-0.287697
0.107224
0.396132
0.0182606
0.0549933
-0.390452
0.526851
0.44062
0.149566
0.119695
0.0107169
-0.130412
0.12699
0.0256328
-0.00238332
-0.118598
0.120981
-0.142082
0.540466
-0.398384
0.249594
0.12081
0.278485
-0.39994
0.121455
-0.189644
-0.119772
0.472989
-0.645764
0.172775
-0.0851613
0.30734
-0.0789717
0.167405
-0.0884337
-0.175683
-0.0723501
0.224441
-0.152091
-0.0316343
0.170668
-0.026565
-0.144103
-0.391707
0.0519254
0.00182126
-0.316366
-0.167006
-0.197593
-0.705803
0.280345
0.425458
0.190147
-0.163984
-0.0261626
0.535154
-0.0195629
-0.421929
0.184781
0.000782864
-0.420625
0.57721
-0.156585
-0.408337
0.299113
0.109224
0.633039
-0.170014
-0.488924
0.202277
-0.148983
0.108331
-0.154573
-0.23552
-0.410468
0.552049
-0.160031
-0.125086
0.0415865
-0.203651
-0.203475
0.0393754
-0.71427
0.41656
-0.354776
0.18777
0.0215162
0.134339
-0.155855
0.0113703
-0.00377681
-0.0132794
0.0923171
-0.11264
-0.102156
-0.149777
0.174418
-0.0246411
0.296488
-0.608819
-0.43309
0.301709
-0.135518
0.482169
-0.346651
-0.239765
0.0678008
0.171964
-0.414893
0.30078
-0.696105
0.262811
0.433294
-0.499422
0.362734
0.136688
0.207947
0.0721873
-0.280134
0.169467
-0.284011
-0.412094
-0.199703
-0.203704
0.403407
-0.046446
0.196638
0.0436187
-0.0125718
0.158347
-0.00152966
-0.00077113
0.263329
-0.00167179
0.114354
-0.13727
0.0229156
0.140106
0.0810168
-0.127993
-0.195568
-0.203737
0.235315
-0.0315781
0.0419102
-0.00661603
0.037853
-0.443264
0.301434
-0.225047
-0.0791542
-0.13255
-0.108195
-0.0318243
0.140019
-0.120071
0.382605
0.48803
-0.126634
-0.322573
-0.166352
-0.152628
0.232383
-0.111556
0.0929662
0.253171
-0.346137
0.22161
-0.323057
-0.251791
0.0102463
0.191565
0.382151
-0.13461
0.303961
-0.12158
-0.1193
0.24088
-0.183597
0.473705
-0.290108
0.425746
-0.123756
-0.116009
-0.590681
-0.0493356
-0.163699
-0.265982
0.184808
-0.0735841
0.149219
-0.0756352
0.114165
-0.140694
0.0265294
0.510677
-0.183499
-0.327178
0.00378664
-0.00452491
0.00073827
0.0125273
0.149692
-0.0355268
-0.00572514
0.190506
-0.0316695
-0.113655
0.555739
-0.156446
-0.399293
-0.267494
-0.0951877
0.0283613
0.161786
0.275326
0.301094
-0.57642
0.388392
0.167347
-0.041029
-0.0109698
0.203509
0.111993
-0.311696
0.461093
0.0740608
-0.675115
0.226769
0.448346
-0.264765
-0.410349
-0.133515
-0.346592
0.348797
-0.492653
0.143855
-0.447147
0.116388
-0.636298
0.24618
0.390118
-0.424925
-0.449484
0.611106
-0.486597
-0.124509
-0.0579637
0.0441806
0.12151
0.234702
0.150151
0.444429
-0.594579
0.0542624
-0.0601046
-0.00170937
-0.00347122
0.263816
-0.0688505
0.20139
-0.286552
0.102325
-0.144692
-0.0675498
0.130629
-0.15
0.0439208
0.0166633
-0.0605842
-0.327881
0.00530866
0.153833
0.325621
-0.511001
0.59146
-0.0658589
0.0934708
-0.0276119
0.0699029
0.235518
-0.305421
-0.0271517
-0.0137382
0.0408899
-0.0368437
-0.0606475
0.169808
-0.587398
0.41759
0.164006
-0.53256
0.0341401
0.143503
-0.582487
0.551549
-0.398978
-0.152571
-0.000595175
0.00191041
-0.00131524
-0.356196
0.604042
-0.247846
0.39619
-0.117705
0.658816
-0.199973
-0.0350607
0.0014217
0.033639
0.611977
-0.202466
-0.409511
-0.445171
0.541809
-0.379843
0.466749
-0.549534
0.611828
-0.161566
-0.00823369
-0.000770856
0.1283
-0.473152
0.314601
-0.703791
0.414669
-0.003272
-0.0999472
0.147612
-0.0199832
-0.127628
-0.357625
-0.136629
0.494255
-0.197912
-0.348281
-0.155557
-0.428949
-0.16834
0.597288
-0.203488
0.276961
-0.0734733
-0.498699
0.332694
0.166005
0.480998
0.0705511
-0.034933
0.0410712
-0.00613822
-0.197217
-0.0855433
0.282761
0.56497
-0.176577
-0.453734
0.270136
-0.18233
-0.364624
0.546953
0.170304
-0.583496
0.413192
-0.398482
-0.189261
0.129944
0.357831
-0.487776
-0.137961
-0.105606
-0.27642
0.206491
-0.057745
0.132009
0.226706
0.450903
0.174089
0.128634
0.262318
-0.390953
0.0478863
-0.187189
0.139302
0.166815
0.0246949
0.0768906
-0.155862
-0.140445
-0.259495
0.0724171
0.239038
-0.311455
0.268434
-0.372666
0.296849
-0.40322
0.106371
0.00165724
-0.00225241
0.471274
-0.300024
0.191331
-0.299161
0.10783
0.00339243
0.534859
-0.534859
0.0813651
-0.0290874
-0.0522777
-0.150053
-0.454122
0.604175
-0.0150399
0.0595661
-0.0445262
-0.21078
0.283197
0.291027
0.110517
0.0453633
-0.0557678
0.0464199
-0.536982
0.354653
0.0160438
0.0964689
0.103009
-0.59916
-0.106653
0.247256
-0.191868
-0.0783574
0.270226
-0.150393
-0.022364
0.172757
0.0182421
-0.0686367
0.0503946
-0.0957347
0.348243
-0.134741
-0.0225073
-0.13537
-0.0202426
0.165992
0.107325
-0.540867
0.433541
-0.583023
0.32368
0.0631915
0.161612
-0.224803
-0.0785443
0.0554782
0.0230661
0.0792562
0.000967791
-0.699972
0.41596
-0.0431766
0.00824355
-0.571621
0.430741
0.111858
-0.536834
0.51947
0.0173642
-0.21822
0.302718
0.136084
0.347698
-0.483783
0.5293
-0.0625507
0.293191
-0.223288
-0.620397
0.450873
0.169524
0.581771
0.128648
-0.149557
0.0209089
0.0980111
0.0368341
-0.208167
-0.349273
-0.271124
-0.379137
0.244526
-0.00138261
-0.00247986
-0.427556
0.128218
-0.153696
-0.423447
0.0614886
-0.0175677
-0.256086
-0.171347
0.427434
-0.432654
0.291835
0.140818
0.276071
-0.0860377
0.147514
-0.586688
-0.265146
0.0708234
0.0817441
0.385972
0.166077
0.264553
0.00659194
-0.4261
0.557379
-0.344082
-0.213297
-0.0953361
0.610556
-0.452048
-0.158508
-0.0209388
0.050377
0.045357
-0.0587101
-0.122782
-0.227033
0.349815
0.251586
0.37739
-0.374781
0.493365
-0.358452
-0.134913
-0.0690117
-0.172048
0.295288
-0.200413
-0.44009
-0.149709
0.589799
-0.430523
0.520952
-0.0904293
-0.311702
0.00186384
0.154029
-0.284877
-0.038186
0.00309741
-0.308447
0.408331
-0.334839
0.0546403
-0.0593459
0.181632
0.452665
-0.0825543
-0.207796
-0.401141
-0.0617999
0.0215634
0.0402364
-0.319016
0.104135
0.214881
0.140786
0.029882
0.0455984
-0.00368826
-0.693225
0.42846
-0.531629
0.389548
0.232926
-0.19165
-0.528243
0.117768
0.410474
0.123179
0.251744
-0.374923
0.0439323
-0.044237
-0.13072
0.479517
-0.152461
0.538433
0.0240496
0.101869
0.0259195
-0.127788
0.10015
-0.0834483
-0.016702
-0.183105
-0.354906
-0.447827
-0.147721
0.595548
-0.417679
0.570342
-0.152663
-0.639094
0.205236
0.433858
-0.449564
0.140854
-0.112037
-0.106465
0.407623
-0.127844
-0.144829
-0.0392971
-0.167675
0.128642
-0.430414
0.143934
0.03495
-0.178884
0.277183
-0.157808
-0.327524
-0.27117
0.168928
-0.0281425
0.000498057
-0.00216914
0.138584
-0.155862
-0.0515951
0.0821105
0.313099
0.17647
-0.489569
0.0885168
0.404848
-0.19574
0.306007
0.105853
0.174687
-0.28054
0.373947
0.180137
-0.522224
0.386705