/*--------------------------------*- C++ -*----------------------------------*\
| =========                 |                                                 |
| \\      /  F ield         | OpenFOAM: The Open Source CFD Toolbox           |
|  \\    /   O peration     | Version:  v2012                                 |
|   \\  /    A nd           | Website:  www.openfoam.com                      |
|    \\/     M anipulation  |                                                 |
\*---------------------------------------------------------------------------*/
FoamFile
{
    version     2.0;
    format      ascii;
    class       volScalarField;
    location    "400";
    object      nut;
}
// * * * * * * * * * * * * * * * * * * * * * * * * * * * * * * * * * * * * * //

dimensions      [0 2 -1 0 0 0 0];


internalField   nonuniform List<scalar> 
13917
(
0.00423607
0.00145127
0.000579876
0.00593141
0.00486404
0.00170059
0.00329189
0.00370104
0.00294979
0.000293233
0.00196579
0.00683661
0.00332795
0.00881646
0.0058783
0.00223119
0.00679282
0.00192281
0.000695121
0.00347746
0.00207007
0.00682438
0.00212883
0.00682424
0.00627266
0.00143131
0.00286016
0.000215576
0.00125746
0.00684635
0.000193038
0.00171931
0.00662697
0.00844195
0.00681268
0.00954715
0.00651553
0.00684297
0.00223681
0.00180944
0.00681689
0.00679185
0.00260434
0.000687863
0.000681552
0.000396874
0.00180407
0.00460158
0.0158729
0.0068118
0.00683524
0.000572201
0.000648857
0.00683757
0.0068364
0.00058548
1.01934e-05
0.00225069
0.00681593
0.000291275
0.0121419
0.00669312
0.00679666
0.0044177
0.00359189
0.00430814
0.00140732
0.00984514
0.000265298
0.0034324
0.000991404
0.00794645
0.00681409
0.00674761
0.00141648
0.00455038
0.00639743
0.0067652
0.00474397
0.00679361
0.00679397
0.00679116
0.00681231
0.0017924
0.00671155
0.00326677
0.00091654
0.00672662
0.00144588
0.00678454
0.00672355
0.0025181
0.0160687
0.00682417
0.00679487
0.00118217
0.000270082
0.00679142
0.00672456
0.000886262
0.00681008
0.00680197
0.00678584
0.00674682
0.00642431
0.00442484
0.00782645
0.00675777
0.00670063
0.0046185
0.00672857
0.00855517
0.00129173
0.00415691
0.00338883
0.00518337
0.000689707
0.00674251
0.000566407
0.00678674
0.00678283
0.00680928
0.00139653
0.000779423
0.00413363
0.00255695
0.00489314
0.00153511
0.00681962
0.00106537
0.00213006
0.000567477
0.00992067
0.00458848
0.000984358
0.00401893
0.0133069
0.00448824
0.00108053
0.00681965
0.00523711
0.00680006
0.00421009
0.00678094
0.00680287
0.00551264
0.00119284
0.00826452
0.00360826
0.00683754
0.00174726
0.00679504
0.0067968
0.00678717
0.000707436
0.00672129
0.0067402
0.0107764
0.00679733
0.00675688
0.00672949
0.00435518
0.00615725
0.00472087
0.00665558
0.00132471
0.000168737
0.00712896
0.006676
0.00109867
0.00681049
0.00929097
0.00254122
0.0131771
0.00157355
0.00679376
0.00633226
0.000450429
0.00257708
0.00525776
0.00260802
0.00681753
0.00683616
0.000351799
0.000446127
0.000219574
0.00683425
0.000293622
0.00685046
0.00585013
0.00104717
0.000825642
0.000408005
0.00464694
0.00682364
0.00439984
0.00383215
0.00947092
0.00681695
0.00675393
0.00189673
0.00352201
0.00280773
0.00658205
0.00498879
0.00150886
0.00158153
0.00681451
0.000522376
0.00679269
0.00675593
0.00103493
0.00241319
0.00420987
0.0014475
0.00137388
0.0062204
0.0067598
0.00674853
0.00674758
0.00645584
0.000429389
0.000450101
0.00671598
0.00681603
0.00522418
0.00278299
0.00672836
0.00672384
0.00680228
0.00675792
0.00675719
0.00741229
0.00522393
0.00682659
0.00669526
0.00135074
0.00735018
0.00679542
0.00671494
0.0046358
0.00471099
0.0003395
0.00652519
0.000712987
0.00678118
0.00697469
0.00119824
0.00134197
0.00108204
0.00661929
0.00452678
0.0067942
0.0029248
0.00211551
0.00681573
0.00679008
0.00527222
0.0061459
0.0067977
0.00686087
0.00590341
0.00681203
0.00671949
0.00669589
0.00672024
0.00679368
0.00669301
0.00324179
0.0068112
0.00612733
0.00782515
0.00680608
0.00628382
0.00211927
0.00676075
0.000805006
0.00812056
0.00676084
0.00521407
0.00680608
0.00408304
0.00680405
0.00614149
0.00680894
0.0067812
0.000376546
0.00679264
0.000569203
0.00304914
0.00623878
0.00528004
0.00269514
0.00416135
0.00676326
0.00373607
0.00600556
0.0046339
0.00469269
0.00599808
0.00682146
0.00677474
0.000481708
0.00216975
0.00277057
0.00581986
0.00671419
0.0101262
0.00203915
0.00681283
0.00381268
0.004659
0.0118212
0.00065967
0.00792188
0.012857
0.00376014
0.000537041
0.00633755
0.00134249
0.00981216
0.00057398
0.00669164
0.00579256
0.00335129
0.00677509
0.00134278
0.000788377
0.00679691
0.00909849
0.00671518
0.00179636
0.00680347
0.000529885
0.0067116
0.00236616
0.0015196
0.00328526
0.00677651
0.00109754
0.00295921
0.00680757
0.00677197
0.00872945
0.00341723
0.00612907
0.00691873
0.00675034
0.00683103
0.00524479
0.000563696
0.00675107
0.00445253
0.00683635
0.000993512
0.00289915
0.000663932
0.000575251
0.000802287
0.00159422
0.00742751
0.00682407
0.00680817
0.004777
0.000367717
0.00680214
0.00285549
0.00202672
0.0118012
0.0068346
0.000697441
0.00657227
0.0131305
0.00658674
0.000441042
0.00102201
0.00159653
0.00681269
5.74014e-05
0.00680702
0.00674884
0.000378004
0.00662498
0.0149705
0.00675879
0.00673551
0.00676547
0.00403279
0.00883949
0.0051859
0.00658238
0.000927698
0.00667787
0.00610468
0.000716663
0.00667339
0.000399423
0.00683729
0.000695124
0.00050554
0.00671645
0.00281397
0.00504168
0.00677156
0.00671461
0.00682736
0.011549
0.000967937
0.00682431
0.00682913
0.00683251
0.00378672
0.015331
0.00678591
0.00667583
0.000699586
0.000607458
0.00678829
0.0066267
0.0118727
0.000302319
0.00525996
0.000665367
0.000222374
0.00681216
0.00678147
0.00234295
0.00671273
0.00678719
0.00682096
0.00678163
0.00681124
0.00625265
0.00683499
0.00162987
0.00713977
0.00250828
0.00676112
0.00679152
0.00514386
0.0019333
0.00266011
0.00679936
0.00673078
0.00681575
0.00676872
0.00654441
0.00672528
0.0119227
0.00187538
0.00518515
0.00673043
0.00338344
0.00309446
0.00680278
0.000710358
0.00693804
0.00683591
0.00166307
0.00676628
0.00671877
0.00683301
0.00675919
0.00674563
0.006737
0.0104793
0.0127742
0.00674114
0.00345761
0.000743101
0.00675937
0.00288886
0.00131021
0.00636006
0.00277503
0.00444893
0.0121107
0.010529
0.00672643
0.00356466
0.000232647
0.00664559
0.00111482
0.00673119
0.00683747
0.00679609
0.00387894
0.00165524
0.000726185
0.00158269
0.0065506
0.00622686
0.00239053
0.000987789
0.00682511
0.00756604
0.00473128
0.00301672
0.00776385
0.00671199
0.000891342
0.000471176
0.00670649
0.0111945
0.00672275
0.00676825
0.00368882
0.00679945
0.0067438
0.000477403
0.0115553
0.00701827
0.0067268
0.00496412
0.00644204
0.00105943
0.0101289
0.00683236
0.00683701
0.00672208
0.00330749
0.0136434
0.00682569
0.00679345
0.00676964
0.0067635
0.00603204
0.00316334
0.00674686
0.00156452
0.006706
0.00683322
0.00604315
0.00801559
0.00669424
0.00438895
0.00679998
0.00169265
0.00160684
0.00120445
0.00153642
0.00128118
0.0051367
0.00156647
0.00873224
0.00577167
0.00855653
0.00680456
0.00683259
0.00725264
0.00676473
0.00385169
0.00677129
0.0101029
0.00363787
0.00688899
0.000568237
0.00335271
0.000856825
0.006742
0.00142936
0.00678253
0.00657093
0.00609778
0.00680538
0.000762308
0.00681542
0.00673736
0.00683256
0.000532335
0.00613209
0.00670743
0.00063525
0.00310919
0.00811913
8.38118e-05
0.0105434
0.00605115
0.00669379
0.00306703
0.00675028
0.0123254
0.0069691
0.00685249
0.00911841
0.00680571
0.00351965
0.00320464
0.0068033
0.00678232
0.00669884
6.46216e-05
0.00673407
0.00147349
0.00683521
0.0067048
0.00678773
0.000559102
0.00196635
0.000573305
0.0013788
0.00329568
0.000218296
0.00781748
0.00677518
0.00360286
0.0067026
0.000991314
0.0067663
0.000146822
0.00675862
0.00614676
0.00680775
0.00882586
0.00334191
0.0044307
0.00674653
0.00369662
0.00681629
0.0068166
0.00780249
0.00154965
0.00679776
0.000572356
0.00671478
0.00675811
0.00680985
0.00825687
0.00673377
0.00472645
0.006771
0.0068075
0.000454468
0.00680217
0.000860261
0.0067909
0.00671051
0.0128549
0.00133946
0.00683503
0.000661477
0.00085085
0.0103094
0.000333626
0.00673788
0.00388163
0.00780898
0.000605042
0.00235183
0.00652456
0.00616217
0.00678342
0.00682376
0.00466579
0.00135534
0.00408573
0.0087054
0.00399004
0.0167391
0.0108825
0.00270955
0.00387289
0.000413621
0.00610143
0.00682205
0.00605746
0.00498513
0.00671015
0.00675453
0.00679012
0.00653789
0.00672617
0.00360281
0.00188626
0.00672118
0.000774903
0.00674009
0.00778427
0.0068054
0.00682144
0.0116095
0.0019701
0.0117058
0.00682198
0.00699423
0.00682138
0.00542715
0.00276923
0.00678635
0.00351083
0.00345114
0.0109881
0.0118872
0.00582727
0.010651
0.00500879
0.00677542
0.0068104
0.00863806
0.0072688
0.00431781
0.00366132
0.013491
0.00671372
0.00681825
0.00653277
0.00371668
0.00932061
0.00475627
0.00609911
0.0038222
0.000905638
0.00644245
0.00054134
0.00185178
0.00680324
0.0061788
0.00677556
0.00268975
0.00619626
0.000894855
0.00435351
0.00724133
0.00359454
0.00836514
0.0127864
0.00657252
0.00200079
0.0035323
0.000576799
0.00678403
0.00104964
0.00142213
0.0139604
0.00676764
0.00473434
0.00677868
0.00674393
0.00680083
0.00386381
0.000186988
0.000466149
0.000571057
0.00673433
0.000636462
0.00243152
0.00333056
0.000435167
0.00682485
0.0010332
0.000340646
0.00669628
0.00207236
0.000746427
0.00197442
0.00678749
0.00674887
0.00682399
0.0022905
0.00641367
0.00677641
0.00198233
0.00679318
0.00677608
0.000531814
0.000802985
0.00271726
0.000889579
0.000781971
0.00565206
0.00680019
0.00631707
0.000309242
0.00672558
0.00642108
0.00678167
0.00675204
0.00682439
0.00428066
0.00104853
0.00678665
0.00707856
0.00679249
0.00707465
0.00617371
0.00278834
0.00679738
0.000868532
0.00606759
0.0045997
0.00216634
0.00680142
0.00789716
0.00678054
0.0062067
0.00332665
0.00283257
0.00652017
0.00679455
0.0067624
0.00756425
0.00352662
0.0125287
0.00129751
0.00674145
0.00174092
0.00669208
0.00624865
0.0107105
0.00669949
0.00632832
0.00395762
0.00324779
0.000713062
0.0111388
0.00673192
0.00674429
0.000567621
0.00673865
0.00683783
0.0067108
0.0068321
0.00175217
0.00672879
0.0017484
0.00680284
0.00336886
0.00599451
0.0103669
0.00572673
0.0020699
0.00242816
0.0135425
0.00671094
0.00678623
0.0067954
0.00676445
0.00672452
0.00353671
0.0067543
0.0147177
0.00683829
0.000138566
0.00681487
0.00214722
0.000698632
0.00681565
0.0012373
0.00559166
0.00655937
0.00423476
0.00682813
0.0108939
0.00127819
0.00570186
0.00681496
0.00673641
0.00679719
0.00677879
0.00726494
0.00671276
0.00137202
0.00675246
0.0129219
0.00569117
0.00677173
0.00133249
0.00681308
0.00671512
0.0119054
0.00201382
0.00650265
0.00091269
0.00674158
0.00099087
0.00668708
0.00678113
0.00641142
0.00676058
0.00571777
0.000861232
0.00572612
0.00693665
0.0148373
0.000179889
0.00661987
0.00664596
0.00683277
0.000359122
0.00673262
0.000810181
0.00682663
0.0113029
0.00612127
0.0132744
0.00682911
0.0067857
0.010333
0.00674314
0.00750844
0.00817558
0.00671358
0.0067188
0.00786933
0.00657041
0.00678041
0.0014904
0.0066927
0.00411473
0.00157479
0.00126436
0.00038753
0.00496863
0.0108274
0.00677816
0.00176491
0.00673483
0.00737433
0.0123869
0.00681873
0.00662916
0.00673508
0.0068317
0.00677868
0.00681245
0.00681094
0.00675633
0.00307268
0.00669465
0.00673864
0.00108557
0.00564056
0.00454541
0.000856424
0.00679975
0.00964382
0.00674259
0.000322989
0.0129417
0.000174413
0.00676806
0.0067131
0.00672885
0.00683908
0.00676355
0.0067974
0.0067419
0.00407352
0.00671894
0.00186118
0.00980056
0.00673806
0.00709576
0.00673685
0.00682687
0.00700297
0.00829397
0.000989522
0.00678098
0.0109535
0.00682278
0.00682714
0.000246136
0.00678783
0.000739937
0.00677788
0.000493365
0.00675918
0.00680909
0.00247208
0.0094489
0.00620691
0.00854087
0.0012421
0.00678483
0.00660415
0.00673935
0.00674417
0.00100364
0.00201337
0.0037621
0.0093384
0.00326445
0.00747705
0.00100843
0.00681222
0.00918994
0.0068064
0.0134567
0.0020361
0.00268647
0.0060997
0.0142675
0.00757125
0.000973843
0.0063345
0.00807443
0.00682963
0.00675332
0.00183265
0.00681082
0.0068226
0.00143591
0.00536687
0.00680634
0.00209599
0.00723962
0.00680814
0.0067466
0.00889052
0.00716553
0.00679535
0.00676164
0.00377531
0.00678761
0.00682497
0.00250727
0.00623043
0.00678869
0.0100459
0.00596129
0.00566174
0.0121275
0.00399805
0.00760255
0.00682203
0.0068202
0.00573793
0.00582811
0.00566293
0.00485294
0.0018594
0.00537043
0.00552758
0.00707909
0.00477856
0.0102538
0.00673943
0.00165066
0.00677577
0.0138097
0.00135131
0.000739807
0.00144039
0.000193899
0.00888204
0.0104929
0.00916575
0.00684793
0.000228268
0.00675216
0.00317385
0.00142605
0.0096832
0.00381048
0.00655868
0.00324292
0.0161041
0.00668483
0.00619545
0.00399022
0.00069545
0.0114524
0.00674513
0.000971044
0.00664294
0.00684042
0.00745033
0.00482768
0.00678641
0.00672803
0.00588235
0.00238238
0.00672221
0.00670604
0.00361399
0.00677984
0.00682104
0.000556706
0.00106136
0.00674547
0.00681084
0.00166487
0.0102913
0.00178982
0.0108065
0.00682697
0.00673447
0.00579723
0.00678197
0.00667275
0.00894456
0.00817573
0.00404673
0.00319192
0.00478292
0.0020243
0.00108353
0.00198603
0.000753781
0.00682265
0.00102142
0.00587501
0.000518787
0.012349
0.00812112
0.00681282
0.00683356
0.00669883
0.00682533
0.00683091
0.000883477
0.00676138
0.00425641
0.00671223
0.001589
0.00583355
0.00668203
0.00219723
0.000928546
0.00673783
0.00121524
0.00615514
0.00673463
0.00674739
0.00902322
0.00112229
0.00627884
0.0030209
0.00993413
0.00067567
0.00702662
0.00967843
0.00438748
0.0104748
0.00677867
0.000180318
0.00674704
0.00434009
0.00149797
0.00627427
0.00573237
0.0015835
0.0126566
0.00673188
0.000611918
0.00287789
0.00683896
0.00674062
0.00537711
0.00123674
0.000491239
0.0067846
0.00227997
0.00140208
0.0130338
0.00273796
0.00681535
0.0067073
0.00681303
0.00673882
0.00678928
0.00656239
0.00129312
0.00676582
0.00359131
0.00444803
0.00183954
0.00105446
0.00680672
0.0101833
0.00681973
0.00673771
0.00670679
0.00675348
0.00149248
0.0102368
0.00598691
0.000662431
0.00264266
0.00168808
0.00344285
0.00344862
0.00485866
0.000748902
0.00682358
0.000979343
0.00350414
0.00677067
0.00681634
0.00871572
0.00394831
0.00378719
0.00619228
0.000510028
0.00682
0.000871922
0.00679294
0.00671538
0.00472964
0.00991378
0.00682411
0.00412387
0.000780542
0.00194517
0.00680344
0.00672754
0.00674362
0.00675789
0.00673867
0.00345706
0.00121505
0.00535167
0.00170573
0.00271043
0.00236515
0.000834929
0.00680659
0.00143359
0.000375495
0.000508359
0.00783753
0.00671665
0.00672811
0.00791549
0.00670998
0.00388739
0.00544982
0.00114712
0.0068319
0.00671168
0.000436025
0.0038861
0.00672523
0.00673406
0.0120632
0.000388094
0.00771005
0.00680823
0.00683654
0.0102434
0.00676152
0.00681067
0.000529166
0.0120634
0.00326282
0.00274392
0.00680902
0.00161671
0.00672114
0.00648851
0.0045876
0.00672411
0.000647707
0.00672388
0.00675267
0.00195233
0.00145246
0.0119685
0.000512899
0.00671633
0.00564802
0.00677423
0.00681719
0.00658085
0.00673537
0.00683278
0.000712008
0.00681311
0.00177783
0.0071409
0.0127727
0.00679273
0.0126789
0.00682242
0.00920873
0.00680431
0.0155228
0.00112594
0.00673061
0.00180943
0.00229328
0.00337261
0.00682578
0.00628185
0.00674084
0.0067733
0.00962305
0.00179723
0.00767073
0.0067387
0.00682119
0.00683306
0.00190857
0.00677228
0.00646281
0.00419332
0.00680736
0.0067144
0.00675053
0.00419876
0.00475972
0.00503856
0.0053176
0.0140221
0.00858372
0.000784309
0.00655404
0.00319875
0.00671247
0.00679867
0.00391043
0.00638443
0.00675462
0.00879857
0.00683987
0.00674075
0.000601256
0.000962099
0.00217707
0.00688648
0.00360801
0.000654561
0.0049362
0.00681095
0.00313724
0.00673658
0.00679597
0.0102707
0.00673514
0.00853106
0.00584564
0.00674837
0.00676111
0.00681152
0.00904173
0.00680923
0.00672873
0.00125466
0.00671757
0.00677002
0.006381
0.00681721
0.00177465
0.00682135
0.00645999
0.00670724
0.00237531
0.00518634
0.00670905
0.00671113
0.00680161
0.00671379
0.00367031
0.00680091
0.00680994
0.00682245
0.00672494
0.00677144
0.00680281
0.00148461
0.00675223
0.00121853
0.00682816
0.0014343
0.00677945
0.00683055
0.00678241
0.00679596
0.00139102
0.00619735
0.00306074
0.0124851
0.00313102
0.0106446
0.00700988
0.000917413
0.00621681
0.00683522
0.0067953
0.000540654
0.0136971
0.00685071
0.00765731
0.00676274
0.000665293
0.0135824
0.00396512
0.00103185
0.0128922
0.0100014
0.00674563
0.00156256
0.00674187
0.00308937
0.00381125
0.00869968
0.00546988
0.00683686
0.00393722
0.000399057
0.00679821
0.00148917
0.00945446
0.00668421
0.00670937
0.00590163
0.00841079
0.00681262
0.00243713
0.00682957
0.000240487
0.000489555
0.00683194
0.00678724
9.87585e-05
0.00681365
0.00673722
0.00557619
0.00673172
0.00126152
0.00358201
0.00387526
0.00957998
0.00673853
0.000725675
0.00681113
0.00587942
0.0035831
0.00259963
0.00677493
0.00322497
0.00676554
0.00675695
0.0038315
0.00682027
0.00162981
0.00675607
0.00674063
0.00673143
0.00684901
0.00671138
0.00721883
0.010286
0.0114089
0.00682874
0.00679698
0.00672628
0.0137928
0.00683496
0.00310279
0.00675222
0.00102177
0.00670045
0.00651539
0.000509827
0.00683779
0.00678202
0.00799826
0.000603544
0.00864574
0.00674615
0.00659889
0.00152159
0.00683779
0.00848848
0.00683988
0.00631034
0.00828306
0.00660877
0.00132864
0.00607613
0.00339277
0.00116726
0.00678538
0.00112956
0.00673918
0.00731919
0.00672335
0.00511701
0.00674079
0.00673388
0.00656302
0.00762886
0.0068018
0.00392266
0.000850867
0.0128388
0.00674444
0.00234892
0.00671271
0.0128814
0.00630661
0.0015616
0.006782
0.000631178
0.0017147
0.00653211
0.000105393
0.00679117
0.000532427
0.00292458
0.00680998
0.00283952
0.00671547
0.00567465
0.000159822
0.00659031
0.00653969
0.00837808
0.0112663
0.00673034
0.00561558
0.00673702
0.00683697
0.00303659
0.00186919
0.000408193
0.00682176
0.0033833
0.00851611
0.00215696
0.014092
0.000911714
0.00671125
0.00672947
0.000576879
0.0129285
0.0113185
0.0126639
0.000701928
0.00146881
0.00351817
0.0073627
0.00634928
0.0134265
0.00670898
0.00115422
0.00428731
0.0012013
0.00679663
0.00375843
0.00193527
0.000840005
0.0129073
0.00659977
0.0135812
0.00929919
0.000907643
0.00672955
0.00673215
0.00899119
0.00680799
0.0105997
0.00341774
0.00662757
0.000453973
0.00338007
0.00670918
0.00363271
0.00335792
0.00680083
0.00947987
0.00810652
0.0102644
0.00681964
0.00875489
0.000455759
0.000712748
0.00680316
0.00331453
0.00300628
0.000818004
0.000572602
0.00145084
0.00304983
0.00173093
0.00671463
0.00507819
0.00671826
0.000498054
0.0027506
0.00675953
0.00670559
0.00662828
0.00321749
0.00227765
0.00682184
0.00125023
0.000469924
0.00671615
0.00285701
0.00655378
0.00874577
0.00540481
0.00879388
0.00361916
0.00340554
0.00645306
0.000215298
0.00674167
0.00104391
0.00778675
0.00372527
0.000730534
0.0023155
0.00138448
0.0128734
0.00618494
0.00678151
0.0114878
0.00162629
0.00673433
0.000737686
0.00190111
0.000458145
0.000331859
0.00026756
0.0142869
0.000740604
0.00736669
0.003447
0.00111183
0.00676019
0.00681993
0.00681557
0.00673597
0.000486022
0.000897124
0.00678876
0.00137826
0.000575294
0.00673872
0.0121049
0.00425838
0.00683636
0.0068366
0.00677694
0.00675993
0.0018692
0.00673946
0.00892933
0.00284679
0.0018174
0.00622573
0.00123075
0.00355002
0.00263704
0.0116502
0.00680259
0.00674308
0.00678157
0.00681309
0.00813465
0.00113192
0.00298987
0.01184
0.00681565
0.00681511
0.00233418
0.00676669
0.00680921
0.000622023
0.00362876
0.00738396
0.0112875
0.0135164
0.0067814
0.013562
0.00674346
0.000256879
0.00670732
0.000641388
0.0144502
0.00672052
0.00215099
0.00712228
0.00258091
0.00673736
0.0067496
0.00303345
0.00652735
0.00672888
0.00682709
0.00677848
0.00684646
0.000670998
0.00673132
0.00343447
0.00671118
0.00678966
0.000109084
0.00403666
0.00655606
0.000504582
0.00676836
0.00838092
0.00568577
0.00675167
0.0067691
0.00774327
0.00680554
0.00152704
0.0067964
0.00341009
0.00674331
0.00679026
0.00512011
0.00435587
0.00672666
0.00677761
0.00671016
0.000758427
0.00183131
0.000523931
0.00672786
0.00656155
0.0067219
0.00951062
0.00681955
0.000225804
0.00140439
0.00681604
0.00064582
0.00267436
0.00660769
0.00437895
0.00681463
0.00334636
0.00105115
0.000513578
0.00682408
0.00682453
0.006759
0.00831781
0.00673008
0.00673503
0.00572533
0.00669382
0.00166281
0.00402512
0.00681624
0.00681877
0.00603425
0.00322782
0.0122034
0.00692864
0.00672946
0.00170885
0.00683208
0.000737245
0.00182684
0.00673577
0.00679967
0.00672688
0.00673917
0.0127505
0.00159197
0.0090485
0.00766311
0.00674488
1.23321e-05
0.00130835
0.000231256
0.00675047
0.00913648
0.0062824
0.00228214
0.00672753
0.00525823
0.00682484
0.0133965
0.0078591
0.00659434
0.00673046
0.00296974
0.00807956
0.00681693
0.00522411
0.00669445
0.000820381
0.000301209
0.00671121
0.00486257
0.00440495
0.00672768
0.00326845
0.00146879
0.00215386
0.00632289
0.00168413
0.00624564
0.00674915
0.00596094
0.00681002
0.00196999
0.00115497
0.00681056
0.00386308
0.000715123
0.0130904
0.00672552
0.00059434
0.0138801
0.000751162
0.00678722
0.00680316
0.00938311
0.000646789
0.0063248
0.00679858
0.012997
0.00135285
0.00675127
0.0052555
0.00308154
0.00683781
0.000185696
0.00683293
0.00234545
0.00679224
0.00670307
0.00682607
0.00671048
0.00340353
0.00679866
0.00671751
0.00110025
0.00268537
0.00646293
0.000823118
0.00682918
0.00673008
0.00672782
0.00678233
0.0129161
0.0142631
0.00028101
0.00955926
0.00212558
0.00940786
0.00102454
0.00621013
0.0133862
0.00355474
0.00675079
0.00267354
0.00675229
0.00683868
0.00681919
0.00669064
0.000887937
0.00137956
0.00131456
0.00673658
0.00672911
0.00131866
0.00682984
0.00682903
0.00683351
0.0100983
0.00218189
0.00184409
0.00677562
0.00865465
0.00681876
0.00679929
0.00679691
0.00202238
0.00674916
0.000889451
0.00849609
0.00135945
0.00749312
0.00631327
0.00681322
0.00295533
0.00724129
0.000681483
0.00680839
0.00681602
0.00673202
0.00772903
0.00670618
0.00510011
0.00105054
0.00106714
0.00981244
0.00667708
0.00138872
0.00953236
0.00682067
0.00669503
0.00513141
0.00202713
0.00678906
0.00678401
0.00453934
0.00670892
0.000386452
0.00673262
0.00680812
0.00459281
0.00677968
0.00171527
0.00818407
0.00780251
0.00404142
0.00674212
0.000626978
0.00677273
0.000892099
0.00673272
0.000660549
0.000809809
0.00682946
0.00683876
0.00673804
0.000728715
0.00308716
0.000459386
0.000952173
0.00256235
0.00176506
0.000915191
0.000891617
0.004623
0.00674664
0.00729105
0.00679743
0.0100239
0.00046663
0.0067448
0.00350853
0.00679551
0.00366871
0.0047887
0.00683134
0.00591746
0.00682411
0.00678971
0.00499654
0.00681561
0.00242786
0.000488544
0.00040594
0.0100405
0.00379572
0.00151196
0.00676648
0.00680295
0.00680608
0.000547994
0.000943937
0.0141773
0.00153546
0.00679882
0.00673492
0.00680514
0.000664616
0.00652829
0.00675521
0.00414405
0.000800231
0.00295303
0.00131385
0.00200567
0.00700699
0.00356101
0.00263156
0.0067492
0.00377749
0.00155813
0.00828787
0.000831886
0.00676928
0.00461578
0.00369313
0.00679127
0.00401548
0.00849356
0.0103231
0.00160251
0.00670919
0.0069908
0.00682444
0.00671642
0.00680141
0.0106973
0.000104785
0.0068145
0.00294621
0.00166891
0.00671905
0.00215715
0.00243578
0.0108015
0.0021964
0.007468
0.00682196
0.00732136
0.00598109
0.00780487
0.00405109
0.00680604
0.00890658
0.00672801
0.00679003
0.00219444
0.00264629
0.00207667
0.00269033
0.0033614
0.00576837
5.68616e-06
0.00678799
0.00672122
0.00677723
0.00425397
0.00674766
0.00417305
0.00400887
0.00939528
0.000176897
0.00680422
0.00610408
0.0067033
0.00905934
0.00777284
0.00677671
0.00682801
0.00273111
0.00166742
0.000622374
0.00175234
0.00860135
0.00500635
0.00175757
0.00662799
0.00192107
0.00744208
0.00326969
0.000162879
0.0068391
0.00682994
0.00677124
0.00676701
0.00671875
0.00289003
0.00788264
0.00249837
0.00798453
0.00529055
0.00181412
0.0138454
0.00830899
0.00456465
0.00839306
0.000685537
0.00109799
0.00670401
0.00682995
0.00123684
0.00618653
0.00670407
0.00399632
0.00844719
0.00676566
0.00680075
0.00676394
0.000588845
0.00681692
0.00147967
0.0075329
0.00672322
0.00671523
0.00675477
0.00680465
0.000856368
0.00839009
0.00143564
0.00243429
0.000562441
0.0067342
0.0101197
0.000468962
0.00678841
0.000342582
0.00024443
0.0143338
0.00793034
0.00742369
0.00683245
0.000747809
0.00871264
0.000401252
0.00198293
0.00681821
0.00666317
0.00471297
0.00380938
0.00382653
0.00244719
0.00682787
0.003051
0.00958092
0.00878454
0.00666609
0.0149489
0.0110679
0.00800266
0.00681812
0.00286364
0.00066346
0.00672574
0.00672559
0.0138833
0.00673953
0.000821046
0.00870126
0.00485289
0.00674511
0.000665421
0.000616009
0.00678601
0.00677911
0.0114014
0.0114189
0.0067916
0.00203153
0.000319743
0.000587499
0.00852174
0.00223014
0.0035693
0.0132861
0.0102156
0.00279184
0.00671139
0.00331937
0.00670531
0.00679985
0.00727167
0.00133218
0.000807371
0.00361689
0.00631323
0.00680596
0.00673812
0.00680964
0.00541855
0.00403002
0.00374372
0.00146105
0.0035802
0.00218024
0.00130888
0.00782955
0.00713858
0.00554495
0.00670213
0.00351466
0.00340786
0.00398317
0.00045177
0.0120873
0.00680735
0.000378713
0.00856361
0.00322074
0.00103442
0.00113338
0.000851215
0.000797688
0.00468901
0.000799074
0.000649013
0.000610071
0.000656224
0.000824755
0.000872733
0.00616516
0.00671311
0.00332352
0.000922116
0.00674622
0.000244443
0.00903372
0.000470635
0.00830793
0.00676129
0.00677759
0.00726906
0.00127145
0.00578918
0.00657138
0.0023159
0.0109177
0.00465029
0.00682186
0.00249174
0.0039865
0.000957407
0.0107388
0.00354207
0.000283251
0.00876921
0.000698632
0.00729186
0.000814019
0.00956139
0.00898248
0.006677
0.00854715
0.00959819
0.00677387
0.00146513
0.00053042
0.00630011
0.00678904
0.00166688
0.0114539
0.00681718
0.00681723
0.013693
8.15162e-05
0.000877669
0.00683741
0.000623699
0.000567616
0.00871409
0.00742622
0.00679382
0.00672498
0.00633728
0.00677814
0.00597276
0.00582754
0.00491665
0.00112469
0.000476136
0.0129267
0.0067847
0.00671079
0.00877487
0.00681491
0.00795975
0.0068025
0.00731139
0.00600425
0.00678077
0.00993504
0.00672648
0.000805312
0.00720768
0.00670805
0.00661484
0.00675597
0.000711636
0.00740383
0.000432061
0.00905983
0.00685284
0.0067965
0.00309594
0.00115838
0.00954218
0.0114837
0.000571134
0.000541492
0.000635972
0.000502947
0.00736668
0.00681285
0.0067264
0.00670557
0.000465568
0.00154048
0.00757466
0.00124512
0.000513426
0.00677743
0.0120348
0.00367501
0.000998728
0.00672634
0.00544847
0.00670672
0.00905637
0.00908705
0.00771632
0.00043161
0.000782827
0.000529411
0.00673472
0.00284583
0.000514945
0.000442754
0.000167443
0.00672777
0.000705696
0.00682091
0.00677389
0.000578892
0.00745321
0.00663417
0.00683407
0.000699537
0.000286749
0.0140167
0.00412063
0.00588825
0.00540383
0.00680843
0.00331294
0.00682571
0.000525772
0.00682414
0.000473794
0.00667016
0.00395396
0.0124983
0.00752428
0.0068213
0.000711413
0.00958576
0.000967625
0.00662292
0.00141871
0.000850688
0.00679307
0.00674605
0.0043479
0.00334541
0.0004937
0.000415956
0.00946362
0.0053058
0.00681984
0.00225678
0.00840108
0.00810852
0.00114444
0.00333976
0.000753762
0.00081843
0.0051658
0.0028017
0.00641418
0.000140843
0.00223056
0.000205179
0.00304704
0.00726215
0.00334143
0.000128176
0.00309439
0.0041453
0.00446997
0.00780978
0.000436434
0.000114387
0.00237815
0.00671178
0.0067103
0.00851733
0.00826223
0.00327271
0.00682037
0.00108899
0.00551745
0.00198125
0.000814847
0.00959972
0.00354903
0.00955654
0.000486969
0.0150862
0.0066134
0.00045344
0.0107431
0.00684454
0.00107038
0.00674782
0.00404329
0.0068039
0.0136731
0.00676336
0.00678829
0.00865135
0.000973173
0.00670263
0.00950216
0.00679821
0.0068302
0.00674287
0.00680179
0.00682269
0.000146023
0.00940203
0.00675599
0.00162062
0.00116335
0.00173049
0.000131552
0.000893379
0.00382537
0.00197777
0.00671421
0.0134766
0.00329853
0.0090984
0.00677346
0.00265534
0.000305868
0.00164286
0.000876431
0.00941115
0.00671191
0.00679703
0.0035417
0.0013881
0.00399809
0.00679175
0.00190845
0.000769792
0.00679201
0.0115018
0.00671483
0.00515344
0.000601221
0.0116468
0.000554839
0.000695268
0.00856794
0.00683018
0.00682449
0.00132123
0.00672417
0.00682621
0.00682779
0.00317062
0.00677261
0.00672305
0.00676021
0.000971055
0.00650568
0.00299628
0.006741
0.00250599
0.00106526
0.00512241
0.00619938
0.00505072
0.00673948
0.000885652
0.0017577
0.00676051
0.00677729
0.0015939
0.00347669
0.00842571
0.00315779
0.000562959
0.00673055
0.00683233
0.00108856
0.0101588
0.0010504
0.00161096
0.00671772
0.00893995
0.00680912
0.00672212
0.00103259
0.00364989
0.000437437
0.00955564
0.00072339
0.00134688
0.00142694
0.00511661
0.00683589
0.00682392
0.00125791
0.0123944
0.00135341
0.00068156
0.00861686
0.00301776
0.00681366
0.00373452
0.000487347
0.00142859
0.00679718
0.000892152
0.000986527
0.00195141
0.00681795
0.0067921
0.000324171
0.00269469
0.000435151
0.0106737
0.00658833
0.00117146
0.00682008
0.00189261
0.00386929
0.00683803
0.000468888
0.00496696
0.00106915
0.0139773
0.00678069
0.00682913
0.0067188
0.00812304
0.000496746
0.00663666
0.000789883
0.00072059
0.00681711
0.00683271
0.000246915
0.00854822
0.000376823
0.00932433
0.000479177
0.00238887
0.00032911
0.000767729
0.00240345
0.0068993
0.000743307
0.00646263
0.00680086
0.000980201
0.000732447
0.00679214
0.00173453
0.00154192
0.00151812
0.0031496
0.000725116
0.00677144
0.00647792
0.0032335
0.00670589
0.00681804
0.00672952
0.00676171
0.00678515
0.00678461
0.00385692
0.00683566
0.00679712
0.0128998
0.00102986
0.00680277
0.00221273
0.00415662
0.00858115
0.00673173
0.0018967
0.00631718
0.000594225
0.00678545
0.00677596
0.00106542
0.000830366
0.00681976
0.00680851
0.000518009
0.00356333
0.000604016
0.0025777
0.00682828
0.000985746
0.00329423
0.00679944
0.000647247
0.00972134
0.00677985
0.00341062
0.00681533
0.00246918
0.00681683
0.00336459
0.00674565
0.00678039
0.00252707
0.00231017
0.00028578
0.00379805
0.00679571
0.00257756
0.0104103
0.000912359
0.000462713
0.000920898
0.00679559
0.00309854
0.00590603
0.000402847
0.00282647
0.00354756
0.00887272
0.0119188
0.00339829
0.00682322
0.000685719
0.00680533
0.00135006
0.00848403
0.00683361
0.00483018
0.0068355
0.00816496
0.00249438
0.00585768
0.00188835
0.00896287
0.00830085
0.00425989
0.00114946
0.00341876
0.00670148
0.0109075
0.0067149
0.00174334
0.00673286
0.00637633
0.00684734
0.00106338
0.00674954
0.00366051
0.000346668
0.00682867
0.00682942
0.00326173
0.00631242
0.0067903
0.00414735
0.00645447
0.00681954
0.0067514
0.00138516
0.000850619
0.000716575
0.00671644
0.00155763
0.00851494