/*--------------------------------*- C++ -*----------------------------------*\
| =========                 |                                                 |
| \\      /  F ield         | OpenFOAM: The Open Source CFD Toolbox           |
|  \\    /   O peration     | Version:  v2012                                 |
|   \\  /    A nd           | Website:  www.openfoam.com                      |
|    \\/     M anipulation  |                                                 |
\*---------------------------------------------------------------------------*/
FoamFile
{
    version     2.0;
    format      ascii;
    class       volScalarField;
    location    "400";
    object      p;
}
// * * * * * * * * * * * * * * * * * * * * * * * * * * * * * * * * * * * * * //

dimensions      [0 2 -2 0 0 0 0];


internalField   nonuniform List<scalar> 
13917
(
-0.163711
0.0105144
-0.0882031
-0.0221129
0.00652934
0.00922983
-0.033617
0.0248511
-0.0469911
-0.265218
0.0248867
-0.0137125
-0.0120315
-0.015098
0.00538785
-0.159688
0.000603467
0.0224798
-0.0550984
-0.218769
0.00256562
0.00041845
-0.0418041
0.000536951
-0.0169339
0.00643122
-0.0538149
-0.265285
0.0169803
3.49404e-05
-0.254479
-0.0653644
-0.0172284
-0.144183
0.0016977
0.0223861
-0.0032518
-0.00207081
-0.0351662
-0.00626456
0.000385378
0.00118824
-0.0421634
-0.0684135
-0.0654703
0.0242104
0.00204598
-0.113402
-0.0591877
0.0017188
-0.0134082
-0.00328725
-0.121641
-0.0061104
-0.00702685
-0.00539901
-0.255531
-0.0401562
0.00117142
0.0225837
0.0316073
0.00243734
8.01608e-05
-0.0170637
-0.112778
-0.000321955
0.0192463
0.0176994
0.0243854
-0.131577
-0.100301
-0.143839
-0.0219655
0.00116143
0.0024334
-0.0119227
0.00465691
0.00110001
-0.0122468
-0.017215
-0.0012464
0.000605539
-0.0217241
-0.113193
-0.00753076
0.0322599
-0.0644251
-0.00729706
-0.00524061
0.00059769
0.00060623
-0.0435106
-0.0676356
0.00138626
-0.00432968
0.0189998
-0.013037
0.000319215
-0.00754832
-0.00401289
0.00024629
0.00022916
-0.00122076
0.000148296
0.00427603
-0.119496
-0.16357
0.00261623
0.00123389
-0.0659786
-0.0133382
-0.146483
0.0155623
-0.124762
-0.112815
-0.00990833
-0.0546213
0.000496033
-0.0798179
-0.0213981
0.000604155
0.00108169
0.0205302
-0.0312092
-0.121791
-0.115941
-0.0179278
0.00378933
0.000958981
-0.0334495
-0.0519878
-0.0225047
-0.124417
-0.00915121
-0.0672038
-0.0621898
0.0281881
-0.119969
0.00896175
-0.00191266
-0.013304
0.00108932
-0.120186
-0.00217682
-0.0201592
0.00155388
-0.102702
-0.0185066
-0.139367
-0.00621596
-0.00564471
0.000192086
-0.0199283
-0.0217683
-0.0137626
0.00248107
0.000175558
-0.125391
0.000454687
0.000489331
-0.00550104
-0.0431796
0.00206286
-0.0194159
0.00657851
-0.0101754
-0.121521
-0.0167348
1.44583e-05
0.0104809
0.00111567
-0.124972
-0.0474967
0.052188
-0.0134272
0.000337006
-0.0228358
0.00276704
-0.0515881
0.00289407
-0.0404484
0.000888706
-0.012907
0.000960869
-0.0783966
-0.0259232
-0.012676
0.00602334
2.89613e-05
0.0227218
-0.0126666
-0.0643867
-0.0131537
-0.176226
0.00140071
-0.122465
-0.0181807
-0.124387
0.00161472
0.00222516
-0.000346063
-0.135259
-0.119413
-0.00198136
-0.0746113
0.0100989
-0.00599139
0.00111159
4.03599e-05
-0.000823427
0.000271699
0.0078258
0.00837705
-0.119649
-0.0668113
0.0075336
-0.114772
-0.00367872
0.000686136
0.00067389
-0.0327735
-0.0058269
0.0160862
-0.0129535
6.85905e-05
-0.0700109
-0.122738
0.000677816
0.000669851
0.000408995
0.000684247
0.000671336
-0.146232
-0.0935489
-0.000449251
2.977e-05
-0.0198441
-0.135096
0.000522752
-0.012734
-0.0749662
-0.120861
-0.00341282
-0.123376
-0.00594165
-0.00236165
-0.00780575
-0.0198284
0.014488
-0.0495835
-0.00253015
-0.111159
-0.0214449
-0.015148
-0.0159019
0.000174067
0.000374636
-0.0178506
0.00419767
0.00165122
-0.123423
-0.0289016
0.00117044
0.000671663
0.00267681
0.000684438
-0.0217471
-0.0118271
-0.0285743
0.00120105
-0.120283
-0.148082
-0.0107602
0.00441211
0.0289454
0.000544612
-0.00386142
-0.123989
0.000555801
-0.132655
0.00158779
-0.0305764
0.000327921
0.00433579
0.000448537
-0.00152691
-0.0417655
-0.0011276
-0.0144973
-0.0142736
-0.0285073
0.00168655
-0.0533133
-0.11948
0.000522771
-0.0326674
0.00510164
-0.00766685
0.00570727
-0.0131141
0.00146057
-0.00100531
0.00362416
0.00602071
-0.0153897
-0.0133596
-0.012396
-0.124236
-0.135788
0.000968057
9.75195e-05
-0.00845533
-0.0107213
-0.0870935
-0.162176
0.0580299
-4.28923e-05
-0.0183383
0.00407841
-0.110486
-0.0103991
-0.0891623
-0.0122667
0.00500446
-0.0574264
0.00181298
0.0117485
-0.0621229
0.000590168
-0.125786
-0.00742484
-0.0672493
0.000454401
-0.233322
-0.00085315
-0.0165427
0.0110696
3.25356e-05
0.000594434
-0.0535054
-0.11784
-0.00518241
0.00193941
-0.144378
-0.119131
0.0508657
-0.00589584
0.000557414
-0.00135267
-0.121381
-0.0136929
0.000571691
0.00555649
-0.00963268
0.00808434
-0.0164012
-0.0193679
-0.0104896
-0.00108204
-0.0627594
-0.163739
0.00103589
-0.00571702
0.00711816
-0.0572153
0.000545303
-0.170797
-0.0632303
0.00104278
-0.00670212
-0.0110755
0.000199216
-0.0540501
0.00108635
0.0111469
0.0301135
0.0121853
-0.0106575
-0.0691814
0.000454103
0.0130769
-0.0110137
0.00105242
-0.0591774
0.00161534
0.000783323
0.000915807
-0.215305
-0.000447167
-0.0059399
-0.0814426
0.00176498
-0.00305285
0.0235162
-0.106244
-0.0075391
-0.0382236
-0.00240233
0.00328671
-0.0848895
-0.00758193
-0.0398127
-0.0142176
-0.00202239
-0.00254416
0.00107242
0.00934069
-0.0130335
-0.00627047
0.00128785
2.53941e-05
-0.0262143
-0.000568462
0.000487863
2.29024e-05
-0.0849365
-0.0126988
-0.0014884
-0.0062809
0.0648474
-0.00225694
-0.000499106
-0.0583644
-0.107463
0.00071136
0.000496264
0.00286378
-0.00259852
0.000502005
-0.000129572
0.000513856
0.000705665
-0.0306423
-0.00242602
-0.00806326
-0.120583
-0.0312067
0.000306694
-0.019413
0.0144205
0.00120624
-0.120934
0.000468456
-0.0124701
0.000460353
0.000673507
-0.00338592
0.00209312
0.0666425
0.000705133
-0.120904
-0.0121399
-0.0466335
0.00100937
-0.000901299
-0.00686052
0.0572657
-0.00988897
-0.0202804
0.000281129
-0.00243294
-6.14017e-05
0.00141336
0.000226729
-0.00572999
-0.124189
0.041722
0.000201378
-0.0607909
-0.0824977
-0.012549
-0.029663
-0.0816432
-0.00454483
-0.0426583
-0.120564
0.00152511
0.00199238
0.00196667
-0.000199801
0.000785316
-0.00251664
0.0273312
0.000603072
-0.00646102
-0.00480248
-0.0430734
-0.000796398
-0.0713588
-0.0486233
0.00152591
0.00465245
0.0223189
-0.00900166
-0.00595777
-0.0243301
-0.0336354
-0.0151459
0.0300036
-0.0076413
-0.00900399
0.0065253
-0.00156365
-0.123684
-0.00261193
0.000669231
-0.0268913
0.000475191
-0.00341426
0.00125327
-0.123879
-0.0776193
-0.00566235
-0.0276579
0.00140791
0.0399024
0.0141372
-0.00579491
-0.00680092
-0.00564822
-0.0181808
-0.0327005
0.00124728
0.000534725
0.00205035
-0.00223911
0.00407821
-0.0234812
0.000590934
-0.0472965
-0.00160484
-0.000154747
-0.0144945
-0.17247
0.000621086
-0.0331862
0.00166129
-0.0462521
-0.0304252
0.0142416
-0.014811
-0.00996893
-0.012777
0.0210629
-0.12393
-0.0397757
-0.121247
0.000964466
5.03592e-05
0.0016297
-0.0122101
-0.117748
0.000543579
-0.0356947
-0.019155
-0.122599
-0.00404298
-0.0415058
-0.301508
0.000277462
-0.0757569
0.00034882
0.00179279
-0.122909
0.000475428
-0.0964473
0.00011422
-0.0124741
0.00014813
-0.0709905
0.00409012
0.00066803
-0.0719987
-0.0287835
-0.0147644
-0.101676
-0.125053
-0.00148022
0.000612643
-0.125436
0.000138574
0.0354108
-0.0072836
0.00181317
0.000278404
0.000239311
-0.0332561
-0.0399996
0.000486967
0.00028075
-0.0108593
-0.0977379
-0.00626759
-0.0645696
-0.00631002
0.000659139
0.000463806
0.0207662
-0.0120708
-0.282353
-0.0488989
-0.0243417
-0.0311881
-0.13347
0.000962679
0.0417679
-0.0112249
-0.0884165
-0.0118647
-0.0723407
-0.00221375
0.00368177
-0.0207326
-0.011646
-0.0305751
-0.111456
0.00061214
-0.0289004
0.00165984
0.000231328
-0.166552
-0.00184398
0.00183613
-0.0175777
-0.0125657
0.00150559
0.000186894
-0.161974
-0.00654973
0.00469208
0.000532263
0.00175767
-0.0523331
0.000207029
-0.0267478
0.00056541
-0.00107861
0.027716
-0.0655585
-0.00578307
-0.118555
-0.0957154
-0.00676712
0.00950536
0.000256279
0.00577716
-0.180643
-0.104587
0.0019685
-0.00376276
0.00403277
0.000551238
0.000705702
-0.000475561
-0.0272818
-0.0151659
0.0233373
-0.0314919
-0.0140953
0.0242736
0.00596318
-0.019661
-0.0173486
-0.134643
0.00145971
0.00535418
-0.000530877
-0.00119471
0.000605929
0.000444078
0.00148898
-0.00431833
-0.126515
-0.0599676
-0.000106018
-0.0614464
0.000616323
-0.151014
0.00157708
0.0010376
-0.124315
-0.0330505
-0.00108778
-0.0215765
0.000385176
0.00120573
-0.0254588
-0.0353445
-0.000993159
-0.119981
-0.0137049
-0.0253607
-0.0019091
0.00496278
-0.123253
-0.0272048
0.000155306
0.00174373
-0.124595
-0.0840813
-0.0178576
-0.120926
-0.0484557
-0.000862899
0.00103887
-0.00263166
-0.118791
0.00122177
-0.0293407
-0.0248365
-0.0325914
-0.0901245
0.00386693
-0.0226283
-0.0591823
-0.00429864
-0.0167836
6.14061e-05
-0.0344579
0.0045252
-0.107708
-0.00629882
0.0012874
-0.120466
-1.10118e-05
-0.041459
-0.00440909
0.00871405
-0.0228047
-0.102803
0.000608711
-0.0751977
-0.0170604
0.000151238
-0.0129655
-0.00709256
-0.00423825
-0.0113166
-0.0209124
0.00788744
0.00118625
0.0157074
-0.0241815
0.000310585
-0.109446
-0.0459801
-0.042629
-0.0196657
-0.00101468
-0.074379
-0.0173004
0.000654814
-0.0347986
-0.0101413
-0.0576296
0.000244793
0.00015777
0.000765082
-0.132667
-0.0165223
0.00162811
-0.0655216
-0.000955158
0.00047402
-0.00760136
-0.0141285
0.00971274
-0.0105554
0.00746276
-0.121588
-0.0213902
0.00497392
-0.0518092
0.00175063
0.00249553
0.000592129
0.00059021
-0.0201978
-0.00482096
0.0143392
0.000268331
-0.000160772
0.00196318
-0.00536459
-0.00506468
-0.0433128
0.000468401
-0.0478639
0.00450884
0.00616348
0.00936679
0.00059694
-0.168167
-0.0160236
-0.123503
-0.040038
0.0102697
0.00362142
0.000952889
-0.0129682
-0.127822
-0.032509
-0.00563929
-0.00038772
-0.011277
-0.0569945
2.11098e-05
0.0027103
-0.0216767
2.88534e-05
-0.0146814
-0.03487
0.0102141
-0.0521919
-0.0102691
0.000768125
0.000544945
-0.0106622
0.000331105
-0.00553758
-0.008735
0.000146762
-0.0648819
0.000751432
0.0235247
-0.00384392
-0.152734
-0.122708
-2.47739e-05
-0.121465
-0.0251519
-0.154911
-0.0171653
-0.00042201
0.00143329
-0.0155376
-0.0125441
-0.00549829
-0.0334726
-0.00524957
0.00781849
-0.00565353
-0.101945
-0.0166032
-0.0573792
-0.0127279
0.00116106
-0.00590808
-0.0154535
0.00196753
-0.027402
0.000435361
-0.124511
-0.0261743
0.000254353
0.00102898
-0.0163439
0.00152185
0.00210003
0.0249723
-0.00053064
-0.00351915
-0.00240788
0.00308345
0.00460178
-0.00314688
-0.0761619
0.00196476
-0.000536886
-0.00336687
0.032537
-0.000188706
-0.0519515
0.000509329
-0.00156211
0.000417747
0.00201152
-0.166332
0.000541669
-0.0220872
-0.0591802
-0.161992
0.000434987
-0.0239895
-0.0531004
0.00117799
0.00313163
0.000236369
-0.104702
-0.0157398
-0.0731189
-0.0149084
-0.123215
0.00456343
-0.00814824
0.0012334
0.000362973
0.00208311
-0.00555922
-7.55295e-06
-0.123455
-0.00546575
-0.00190127
-0.017538
0.00111919
0.00139112
-0.0294509
-0.00724938
-0.118021
-0.00810897
-0.0796156
0.00756339
-0.0316256
-0.124179
-0.00339423
-0.0324289
-0.0135089
-0.121453
0.00279332
-0.0232282
0.000430786
0.0018272
-0.00616812
0.000425232
0.000865682
0.00123039
-0.0133049
-0.0216637
0.000648207
-0.00594256
-0.0611541
-0.0196324
-0.0039447
-0.0582842
0.00141694
0.00238859
-0.00530249
-0.055997
-0.0297581
-0.11837
0.000623354
-0.000427482
-0.00985618
-0.00338551
0.000613242
0.000462188
-0.00788137
-0.019349
-0.00205079
-0.244038
-0.0177579
-0.00109103
-0.127713
-0.0137853
0.00101926
0.0027798
-0.162554
-0.00849111
0.000434768
-0.00210742
0.00147881
0.00118466
-0.110993
0.00146663
0.000301095
-0.0226212
0.0093615
0.000225971
0.00115065
-0.00104424
-0.0114536
-0.0131997
-0.133507
0.00114641
-0.00208024
0.00347115
-0.016552
0.000139465
-0.0767294
-0.0613768
-0.0146307
-0.12489
-0.23385
-0.00818293
-0.0779819
0.00118391
-0.122547
0.00109824
0.0644408
-0.0172429
-0.0410362
-0.0124948
-0.00247432
-0.0802291
-0.116518
0.000312433
-0.0132945
0.000433237
-0.00553727
-0.0622778
-0.00383712
-0.0144468
-0.0376033
-0.142746
0.00113944
-0.0525096
-0.131865
8.66658e-05
0.000585771
-0.0319708
-0.11643
-0.012891
0.000128404
-0.0331672
-0.0185748
0.00117814
0.00748719
0.00240516
-0.0154502
-0.0238843
0.000349914
-0.000789212
-0.0255884
0.00179
-0.122014
-0.022159
-0.0160452
0.00142195
-0.173195
0.000767191
0.000296101
0.00290012
-0.0275786
-0.0226433
0.000421942
0.0151036
0.00127386
0.00233773
-0.0512285
-0.00204079
0.000165257
-0.043881
-0.0812988
-0.075807
0.0263647
-0.000890619
0.0647819
-0.129949
-0.00175669
0.0214669
0.00059209
-0.0176573
-0.0176427
-0.0231321
-0.0266436
0.00178126
-0.0204394
-0.00539425
-0.00363372
0.0204794
-0.025896
-0.00889955
0.0624572
0.000599388
-0.0866404
-0.00711094
-0.00343933
0.00357909
-0.000279272
0.000377747
0.000396328
-0.0130404
-0.118345
-0.00162496
-0.00484734
-0.0405962
-0.00387053
-0.00937405
-0.0116841
-0.0791142
0.00224669
0.00102582
0.0222207
0.00156834
0.00924949
-0.124593
-0.019943
-0.0152582
-0.0686675
0.0016363
-0.00434308
-0.130758
-0.122041
0.0069362
-0.0161647
0.00109679
-0.120377
0.00338187
-0.00159705
-0.0962363
0.0011701
-0.0215725
-0.0184413
-0.0828985
-0.029606
-0.0465805
0.000690566
-0.000211014
-0.0101432
-0.00939783
0.000119928
-0.108081
0.000549899
-0.0278149
0.000658919
-0.074797
0.00218878
-0.00651478
0.0477384
-0.0142091
-0.015273
-0.0811796
0.003154
-0.00747443
-0.0108134
-0.121936
-0.0464866
-0.143486
-0.00894061
0.000238685
-0.0098521
0.000388442
0.00385703
-0.0279978
0.000305175
-0.00295637
0.0109644
-0.0111312
-0.00559637
0.00507895
0.00196955
-0.0282699
-0.0517024
-0.0207076
-0.00561054
0.00561416
0.00936669
-0.00508882
-0.0049543
0.00152593
-0.116761
-0.0279223
0.000944302
-0.0566403
0.000146486
-0.0106198
-0.119258
-0.0144519
-0.00203396
0.000675536
-0.0166162
-0.00518719
-0.00261051
-0.117243
0.00215308
-0.0318745
0.000534526
0.000196253
-0.0560649
-0.102963
0.0122624
-0.0226068
-0.000977241
-0.00200903
-0.00577805
-0.0807808
-0.124505
0.00011512
-0.012506
0.00116254
-0.0520633
-0.0388737
0.000208127
-0.00473363
-0.0695053
0.00137123
0.00543307
-2.37024e-05
0.000916665
-0.0227093
-0.139704
-0.0268001
0.000613107
-0.00736707
0.000577365
0.00115186
0.0214401
-0.00379137
-0.00929742
0.0442095
-0.0210401
0.00138977
0.00720925
-0.0473816
-0.00585987
-0.0178812
0.000738825
-0.00503689
0.000361173
-0.0114539
-0.0223814
-0.00981315
-0.120774
-0.00639867
-0.0273304
-0.0483121
-0.0106819
0.00101559
0.000437306
0.0147144
-0.103946
-0.142101
-0.00246997
0.000728245
-0.121461
-0.00218487
0.00154573
-0.0200715
-0.00701986
-0.00917181
-0.0023514
-0.102443
-0.0226433
-0.00161215
-0.0160478
-0.0596706
-0.0923997
-0.131047
0.00174351
-0.000717856
-0.0450461
0.00049037
0.000727607
-0.017769
-0.03151
-0.0104829
-0.0352869
-0.0178859
-0.116219
-0.00991884
0.00369939
-0.028645
0.000714898
-0.103759
-0.00956441
0.000334763
-0.0426056
-0.0649339
-0.0678538
-0.0933134
-0.00853064
-0.0368143
0.000406319
0.00114043
0.00359154
-0.00985111
-0.00968316
-0.102405
-0.0140209
-0.0211413
0.00315665
0.00116874
-0.0190992
0.00034414
0.000971936
-0.121689
0.000411959
-0.0143803
-0.0603571
-0.0101217
-0.0525096
-0.0365563
-0.0365754
-0.00731659
0.00260977
-0.000682082
0.000940796
0.00149234
0.00929008
0.00109693
0.000230547
0.00156025
0.000509595
0.0240258
-0.00223076
-0.113019
-0.0288179
0.00118412
-0.01178
0.000856282
-0.0264354
-6.05596e-05
-0.0626154
0.00247247
0.000424321
0.00125412
-0.00718313
0.00162824
-0.0170222
0.000670702
0.000401152
-0.0133263
0.000669614
0.000871705
-0.141705
-0.00302869
0.000133552
-0.0181116
0.0165546
-0.119953
7.68776e-05
-0.0220706
-0.0199458
-0.000574551
0.000819997
-0.0265179
-0.014063
0.000315513
-0.0279506
0.000801488
-0.142841
-0.000267488
-0.00237093
-0.0133272
0.000849114
-0.123765
0.000444799
0.000735998
-0.0629215
-0.00859193
0.000425265
0.000383262
0.000769313
-0.0561388
-0.0186104
0.0039118
-0.000219582
-0.0589538
-0.00291897
-0.000318459
-0.000324584
-0.0125077
-0.0113672
-0.0341964
0.0016663
0.00149661
-0.0196208
-0.00700601
-0.00620849
-0.0112428
0.0221404
0.000867814
-0.0455398
0.000322544
0.0141873
0.000937991
-0.00993588
-0.00135152
0.000443101
-0.00442231
0.00436015
-0.0426878
-0.0560659
0.000904784
-0.124497
-0.120384
-0.0556012
-0.122116
-0.000417834
-0.0113133
-0.0250749
0.0631914
0.00051321
-0.128934
0.000896251
-0.0864943
-0.0510283
-0.0311474
-0.0379627
-0.0085968
-0.0982949
0.000513741
-0.0566393
-0.0010856
0.0047448
-0.0311541
-0.131879
-0.220974
-0.011093
0.000582656
-0.041493
0.000597717
0.0467098
0.000989212
-0.00829094
-0.00321144
0.000122546
-0.123187
0.000809466
-0.0495575
-0.00207586
-0.0199892
0.00247408
-0.00660961
0.000980083
-0.112851
0.00112118
-0.0154494
-0.0217863
0.000411943
0.0386643
0.00551493
-0.0316062
-0.123044
-0.0117708
0.00976367
-0.0221831
0.000208564
-0.0185454
0.00324159
0.000925674
-0.0357973
0.000340325
0.000233209
-0.0416581
-0.007128
0.0384997
-0.00789979
0.000455183
-0.00587254
0.00141586
-0.00275683
-0.0131336
0.0615882
-0.032805
0.000960304
0.00099379
-0.00950831
-0.0213693
-0.00537522
-0.119338
0.000514604
0.000697277
-0.00630433
0.00194913
-0.0972615
-0.00499864
0.000608039
-0.122956
-0.0499276
-0.145456
0.00178274
-0.122189
0.00399369
-0.00300927
-0.129102
-0.00273741
0.00363813
0.0112504
0.000841655
0.0135163
-0.157355
0.00533824
-0.0465181
-0.0191659
-0.114768
-0.0148757
-0.0155467
-0.00987014
-0.13652
-0.015442
-0.0131753
0.00340144
-0.0045998
0.00100179
0.000682169
-0.00881193
-0.0186717
-0.00812805
-7.6118e-05
-0.12345
-0.00179318
0.00510396
-0.0171994
0.000968342
-0.0274986
0.0050823
-0.000305384
-0.0252118
0.000371918
-0.0110586
-0.14022
0.00110003
-0.119364
-0.0119718
-0.120787
0.0361252
-0.00994707
0.00389442
-0.0173797
-0.0379521
-0.0155381
-0.0194592
0.000485733
-0.00450593
-0.116758
-0.0156761
-0.104107
0.00158452
-0.0171439
-0.140158
0.000807939
-0.0192156
-0.115942
-0.00767126
-0.0136617
-0.0919994
0.0657662
-0.0181528
-0.0474392
-0.103385
-0.0024608
0.0097774
-0.125551
0.00881298
-0.0342759
-0.00309319
-0.0241505
-0.0256199
-0.0127478
-0.00960257
-0.0449655
-0.0151367
0.00310925
-0.0345022
0.00124748
0.015799
-0.123579
0.0117695
-0.014763
-0.0149152
-0.0117242
0.00111496
-0.124624
-0.0156091
0.000462014
0.00821035
0.00183143
-0.000227904
-0.0268294
-0.0362234
-0.0103356
-0.123403
0.00119512
-0.124239
0.00128593
-0.134892
-0.0888536
-0.091459
0.00043192
-0.00916007
0.00573432
0.0221129
-0.00364191
-0.0585841
-0.11649
0.0074166
1.86694e-05
-0.0138374
0.00191415
-0.0288289
-0.121534
0.000265436
-0.000127077
-0.0117781
0.0047389
0.0249267
0.00131081
-0.00916863
0.00307869
-0.00219544
0.00069094
-0.00194436
-0.123928
0.00504368
0.0032153
-0.119915
-0.0306721
0.000428651
-0.0432137
-0.00465991
0.0130996
-0.168534
-0.00992403
0.00579037
-0.058843
-0.0620755
0.0621004
-0.121787
-0.0183648
-0.0684104
0.0106532
0.000790825
-0.0844299
-0.0293038
-0.0119903
0.0303962
-0.0429514
-0.050967
-0.00910429
-0.125137
-0.0113286
-0.0777458
3.3379e-05
-0.0214022
-0.0101426
-0.000816952
-0.0997646
0.0068044
0.000389004
0.0123523
-0.0903966
-0.00455972
-0.0332227
-0.113279
2.4692e-05
-0.00530033
2.61773e-05
-0.0029399
-0.0571571
-0.0147065
0.000538676
-0.0353779
-0.0204184
0.00277344
-0.0130956
0.0113272
0.00712726
0.011734
-0.00980245
-0.00294211
0.000369701
0.00119677
-0.122952
-0.085438
-6.83183e-05
0.0111246
0.00169995
-0.00130265
0.00684179
0.000905376
0.00122489
-0.00738284
-0.0222278
-0.155727
-0.0808656
0.0481576
-0.0207641
0.0195975
-0.0084818
-0.106249
-0.000136119
-0.0629921
0.010313
-0.00316377
-0.00234565
-0.129677
0.00194506
-0.00603186
0.000476145
-0.00586709
0.0574567
0.000449672
-0.019845
-0.00124586
-0.00236068
-0.0963181
-0.0109488
-0.0194866
-0.00665292
-0.00019575
-0.037991
-0.0260898
0.00331144
-0.0321567
-0.010587
-0.130526
-0.0488513
-0.00518887
-0.000872878
-0.181511
-0.00905509
-0.0447669
-0.0213244
-0.117353
0.00231635
0.00179812
0.00624102
-0.0119987
-0.0137894
0.00095304
0.000665806
-0.0968294
-0.240186
-0.00212573
-0.0153181
0.00133318
-0.0017666
-0.12223
4.27662e-05
-0.0932158
-0.0631755
0.00162069
0.0206643
0.00790187
0.0005206
-0.0294664
0.000739209
-0.0141363
0.012797
-0.0189644
-0.019172
-0.00419797
0.00219053
-0.157043
-0.00303001
-0.0118127
-0.121354
-0.00561999
0.00140881
-0.0250938
0.000973778
0.00152907
-0.00886308
-0.0383453
-0.0101923
0.0023052
0.000372462
0.0106452
-0.00966932
-0.00861437
-0.0134315
-0.0107351
0.000448144
0.000353564
-0.01438
-0.0636652
-0.059211
-0.121219
-0.118165
-0.000669543
0.000658974
-0.0035314
-0.102379
-0.0135894
-0.000722435
-0.122214
-0.11477
-0.000201847
-0.0186951
-0.0161537
-0.0117057
-0.124525
0.000473612
-0.0131414
-0.0345459
-0.0142204
-0.018491
-0.0200528
-0.00113771
-0.0869054
-0.0701514
0.000624927
-0.00501413
0.0053364
-0.0144534
0.0465228
-0.0604257
0.00636718
-0.0460642
-0.000797492
0.00383419
-0.0123449
0.00170486
-0.00338695
0.0211403
0.0031469
0.0015052
-0.026789
-0.0950018
-0.0407435
0.00043548
-0.00577763
0.0207874
-0.00648168
0.00154549
-0.0138686
0.000190879
-0.109817
0.00326317
-0.000451495
-0.00281779
-0.07701
0.000387653
-0.121578
-0.00875498
-0.00169473
0.0166745
0.000311757
0.00183316
0.000985324
0.000322377
0.00106992
0.000682409
-0.109557
0.000423353
-0.00512999
-0.0385892
-0.0414445
0.000828949
-0.0624438
-0.00601512
-0.0155726
-0.00843098
-0.00803214
0.00142123
0.000713972
-0.0998887
-0.0641699
0.00621956
-0.0219533
0.00730293
-0.0961121
-0.0195232
-0.0955977
-6.152e-06
0.0059008
-0.0142651
-0.00266338
0.00127539
0.00157365
-0.100862
-0.0700667
0.00497381
-0.00420227
-0.0138863
-0.0731484
-0.0177986
-0.00326348
-0.00480232
-0.122136
-0.0129301
-0.138
-0.0203397
0.00194024
-0.0042585
0.00178056
0.000949537
-0.056636
-0.00215729
-0.0213141
-0.151495
-6.02685e-05
-0.121729
-0.00304695
-0.000264558
-0.0178908
0.00321415
-0.00298999
0.000447491
0.00123713
0.000361223
-0.139136
0.000289812
0.00216137
0.00149289
-0.0231287
0.00287254
0.00654584
-0.0579819
-0.125234
0.000779424
0.000571859
0.000693638
-0.117365
-0.00978785
-0.0193921
-0.030156
-0.00320455
0.0151072
-0.00864967
5.1773e-05
-0.00392479
-0.0157279
-0.0232712
-0.166448
-0.151362
-0.0258043
-9.75985e-05
-0.00985224
-0.0139494
-0.0113842
-0.000821185
-0.0793678
-0.0773449
-0.0036907
-0.00169781
0.000401462
-0.0152338
0.0116718
-0.0975973
0.032978
-0.012806
-0.112769
-0.0638419
-0.085443
-0.119418
-0.00871351
-0.102468
-0.0135682
-0.121754
-0.0996444
-0.0941697
-0.117484
0.000607708
-0.0182454
0.000536819
0.000743385
-0.151072
-0.0058821
-0.0136871
-0.0383091
-0.0185239
-0.0434909
-0.109623
-0.112798
0.0241878
-0.021154
0.000314883
-0.00764706
0.00190547
-0.0210947
0.00118363
-0.0617437
0.0570924
-0.0135088
0.000409357
0.000373773
0.000772047
-0.105138
-0.000798528
0.00191384
-0.0124395
0.000684232
-0.0437833
0.012225
0.00661223
-0.0962574
-0.0123351
-0.0431111
-0.0139012
-0.0391964
0.0107214
-0.00429117
0.00570485
0.0009269
0.0536878
-0.0273765
-0.000491152
-0.0284743
-0.149413
1.53047e-05
0.000759424
-0.00310512
0.0287684
-0.00375688
-0.0023708
0.000424021
-0.0399019
-0.0486063
-0.000203493
0.0510288
-0.0979029
-0.00865068
0.00649611
-0.0163971
-0.123861
-0.0123593
-0.125069
-0.00288301
-0.00189981
0.00179454
-0.123134
-0.0334549
0.00113849
-0.134961
-0.0103199
-0.00779713
-0.00372754
-0.118492
0.000366506
0.017536
-0.0380919
-0.0194609
-0.0922429
-0.000815472
-0.00813879
-0.0191414
-0.0243735
-0.0132235
0.00669654
-0.00940682
-0.00254071
-0.108688
-0.0208804
-0.138578
-0.00965024
-0.135283
-0.122538
-0.0178561
-0.0177514
-0.036675
0.00574427
-0.100669
-0.0244642
-0.148717
-0.0231241
0.0125484
0.00214942
-0.117253
-0.189253
0.0102289
-0.0900204
-0.00456804
0.000293187
-0.0198487
-0.00205827
-0.00905541
-0.04432
-0.140397
0.00598305
0.00143684
-0.0844269
-0.117898
0.0545842
-0.129061
0.00554597
-0.12389
-0.0243121
-0.065417
-4.07929e-05
0.000694014
-0.0539592
-0.122054
0.00261027
0.00665356
-0.133723
0.000225376
-0.0172867
0.00168175
-0.0109796
-0.00335379
-0.0242901
-0.124124
0.000470516
-0.0134757
6.18161e-06
-0.0138173
-0.0746439
-0.149519
0.00639609
-0.116889
-0.0039041
-0.00598708
0.00200751
-0.0148422
0.000582741
-0.0998457
-0.104557
0.0551065
-0.00406424
-0.127394
0.000370887
-0.109487
-0.137887
0.00622253
-0.114278
0.00124003
-0.00372409
-0.00939702
-0.0331948
-0.118112
-0.0216672
-0.0167791
-0.0167444
0.0016442
-0.130143
0.00214408
0.000433153
-0.123704
-0.130376
-0.0208377
-0.00493899
-0.00619356
-0.0119858
-0.014316
-0.0120967
-0.00428509
-0.106848
0.00227802
-0.119715
-0.00213075
-0.00507561
-0.048433
-0.000379258
0.000365824
-0.0685604
0.0037581
0.00203048
0.00707797
0.000613365
-0.101952
-0.12415
0.0487415
-0.0121689
0.00247676
0.00124094
-0.0183399
-0.00681065
0.0193024
0.000672573
0.000391683
-0.150215
-0.00198964
-0.0098461
-0.0276632
0.00389539
0.00108217
0.000799456
-0.0203147
-0.0203028
0.0546097
-0.0276513
0.0391902
-0.120235
-0.0127307
-0.0410293
0.0619469
-0.12267
0.0587061
0.000404816
-0.0281536
-0.019099
-0.0119105
0.012938
0.00188763
-0.0213085
0.0329194
-0.123621
-0.00817949
-0.0661373
-0.0407141
-0.0693457
-0.0730888
-0.0206424
-0.0765783
-0.0802367
-0.0842263
-0.0882332
-0.0794176
-0.0357746
0.00488384
-0.00503505
-0.0326228
-0.0626746
-0.00281824
0.0311472
-0.124573
0.0125046
-0.142959
0.00037631
0.000976219
0.000284815
-0.0917925
-0.0203376
-0.00138477
-0.07725
0.00169876
-0.0333487
-0.00671207
0.0070357
-0.0215147
-0.320373
0.00183381
-0.0376755
-0.045571
-0.132354
-0.0565676
-0.126452
-0.0112497
-0.002445
-0.124171
1.77138e-05
-0.123563
-0.124018
-0.00680828
-0.0133303
-0.00719616
0.00388312
0.000948662
-0.000486011
-0.0456081
0.0010396
0.00107344
0.0573001
-0.104256
-0.0113002
-0.0085334
-0.0951614
-0.013119
-0.133523
-0.121572
-0.0171706
-0.0134951
-0.0197446
-0.0032255
-0.123854
-0.0356348
-0.0985587
-0.0631747
-0.0972175
-0.0319334
-0.00234666
-0.00319763
-0.128268
0.00121636
-0.123932
8.17563e-05
-0.126703
-0.0200561
-0.00205859
-0.0299016
-0.00335179
-0.064106
-0.00961064
-0.0129836
0.000522961
-0.0199934
-0.0991881
-0.138672
0.00310015
-0.134274
-0.00323
-0.000446804
-0.0331827
-0.0118742
-0.124533
0.0221455
-0.00891199
-0.0931347
-0.0682024
-0.0903295
-1.22621e-05
0.00119586
0.000483929
-5.06279e-05
-0.0540727
0.0199519
0.00501669
-0.00140451
-0.0737847
-0.00119913
0.00126256
0.0248779
-0.311555
-0.0150513
-0.018776
0.000330492
-0.134331
0.000627076
-0.00720426
-0.044512
-0.0652736
-0.0943291
0.000381633
-0.0405562
0.00361008
-0.0628517
-0.102163
-0.0103865
-0.0694974
-0.00132598
0.00218472
-0.0126887
-0.0584623
-0.0122439
-0.0013653
-0.0108703
-0.0304844
0.0484775
-0.124534
-0.121439
-0.120514
0.000965679
-0.0221151
0.00157822
-0.0725539
0.00146061
-0.00626946
0.00182565
-0.0297866
-0.00127946
-0.0127626
-0.00165305
-0.000539774
-0.124514
-0.0889038
0.00156051
-0.00387602
-0.0858149
0.000368022
0.00256922
-0.119012
-0.0218523
-0.00258156
-0.0880029
-0.000198943
-0.153816
-0.000455785
-0.0937906
-0.157263
-0.0510605
-0.00480915
-0.0285681
-0.0616175
-0.0541677
-0.12075
0.000582762
-0.0197412
-0.0946803
0.00648999
0.0258271
-0.00368821
0.00648165
-0.0104098
-0.10663
-0.0443684
0.0043953
-0.00897356
-0.158793
0.00583126
-0.0878631
-0.119788
-0.00294154
0.000298079
-0.131166
-0.123549
0.00206318
-0.0179233
-0.00168836
0.00601711
-0.107554
0.0181337
-0.123462
-0.00976104
-0.12264
-0.00142026
-0.0595532
-0.0191289
0.0201054
0.0339997
-0.00250887
-0.0759208
0.000398948
-0.0251971
-0.0181884
0.00250622
-0.00360483
-0.0201819
-0.124055
-0.111669
3.87599e-05
-0.124616
-0.0148244
0.000552564
-0.010042
0.00106482
-0.0206225
-0.101913
-0.124789
0.000883967
0.00584887
-0.0573933
-0.0607241
-0.0633295
-0.0652402
-0.0111436
-0.0526864
-0.0115647
0.000995426
0.00626143
-0.124348
-0.00666766
-0.116034
-0.0856869
-0.018632
-0.115183
-0.122218
-0.000744624
-0.12634
-0.0224353
-0.0429621
0.00981224
-0.00113877
0.00226749
-0.102318
-0.0175347
0.00450952
-0.0133726
-0.120083
-0.0808571
0.0602924
-0.0970766
-0.0933695
-0.123757
-0.00855178
0.0014742
-0.0590771
-0.0107971
-0.0182278
-0.0187955
-0.00650583
-0.00103562
-0.00831873
-0.0108442
0.00288036
-0.0106976
-0.00262595
-0.00709239
0.00701084
-0.0864035
-0.0104857
-0.121388
-0.0127856
-0.0085936
-0.0682555
-0.0598236
-0.00407532
-0.000557724
0.0108337
-0.0388949
-0.127458
-0.0382542
-0.00360194
-0.0111564
0.000772166
0.00706304
-0.12426
-0.0580119
0.00374894
0.000568744
-0.131483
-0.0187382
-0.00725591
-0.0604744
-0.0298324
-0.00665039
-0.125392
-0.0520459
0.0117333
-0.0027472
-0.140499
-0.00126615
-0.0134172
-0.0136966
0.00190822
-0.0585795
-0.00739396
0.0400978
-0.00462019
-0.0131294
-0.0324001
-0.0924793
-0.0707488
-0.0180414
-0.071725
-0.0828646
-0.0263648
-0.0217766
-0.0208216
0.00529615
-0.0211275
-0.114357
-0.029868
0.0017291
-0.044237
-0.0204548
-0.0595966
0.0524765
-0.00786873
-0.00402476
1.36647e-05
-0.01195
-0.0512325
-0.016903
-0.000687158
-0.0102434
-0.124006
-0.0909461
-0.00516805
0.00399856
-0.0753646
-0.0198751
-0.000215232
-0.0342206
-0.123937
0.00929269
-0.124003
-0.0186426
-0.0507944
-0.0961229
-0.0788267
-0.0465772
0.00333634
-0.0746925
0.000353855
-0.0128209
-0.0849229
-0.0825579
-0.00990776
0.0123838
-0.00914394
0.0207228
-0.00748354
-0.0865345
-0.0012095
-0.120962
-0.0398772
-0.00112507
0.00124034
0.000222028
-0.00855941
-0.0108452
0.000864273
-0.038347
-0.0079177
-0.00900741
-0.000331337
-0.0625208
-0.021412
-0.0236032
-0.0137945
0.000317732
0.000772826
-0.0528114
0.00407056
-0.107643
-0.0173935
-0.0193725
-0.0126366
-0.00209794
-0.0130763
-0.0127663
-0.00171111
-0.037156
-0.00869991
-0.0245048
0.00140682
-0.298644
-0.0369491
-0.0118238
-0.00643225
-0.124694
-0.000381795
-0.0215743
0.00102626
-0.0402104
0.0016634
-0.00357204
-0.00538559
-0.0198706
0.00564346
-0.0273312
-0.259498
-0.0225706
-0.0124839
-0.00421639
-0.122225
0.00844908
-0.0992572
-0.060729
-0.0202364
-0.0170899
-0.0106612
-0.0745083
0.0114738
-0.0106339
-0.121888
-0.00171984
0.00564879
-0.0181564
-0.0117842
-0.0144551
-0.0685173
-0.135587
-0.00573557
0.00289606
-0.00775586
-0.155742
0.0115009
-0.0161302
-0.0301812
-0.137098
0.000192183
-0.0290459
-0.0368156
-0.0335764
0.000107902
-0.0815586
0.000654756
0.00398265
-0.0043722
0.00183564
0.0383579
-0.0599622
0.000275741