/*--------------------------------*- C++ -*----------------------------------*\
| =========                 |                                                 |
| \\      /  F ield         | OpenFOAM: The Open Source CFD Toolbox           |
|  \\    /   O peration     | Version:  v2012                                 |
|   \\  /    A nd           | Website:  www.openfoam.com                      |
|    \\/     M anipulation  |                                                 |
\*---------------------------------------------------------------------------*/
FoamFile
{
    version     2.0;
    format      ascii;
    class       volVectorField;
    location    "400";
    object      U_0;
}
// * * * * * * * * * * * * * * * * * * * * * * * * * * * * * * * * * * * * * //

dimensions      [0 1 -1 0 0 0 0];


internalField   nonuniform List<vector> 
13917
(
(0.59468 0.0362882 0)
(1.03285 -0.0051859 -3.75589e-21)
(1.06387 0.110284 -4.78275e-21)
(1.03287 0.0135747 7.47831e-21)
(1.01561 -0.00896194 2.86951e-22)
(1.03533 -0.00167865 0)
(1.04642 0.0282588 1.09416e-20)
(0.965118 -0.0953624 0)
(1.05736 0.0181096 -1.65588e-20)
(0.0752906 -0.180346 7.54429e-22)
(0.979094 -0.0780251 -5.2053e-22)
(1.02388 0.0111541 0)
(1.01227 0.000204803 0)
(0.680132 -0.0261501 1.58191e-22)
(1.02037 0.0150184 0)
(0.572759 0.0255762 0)
(1.00485 -8.31737e-06 -2.27741e-22)
(0.973414 -0.0455081 -3.77831e-21)
(1.04283 0.0808183 0)
(0.671471 0.133362 0)
(1.00491 0.0312717 0)
(1.01353 0.00515226 0)
(1.05212 0.0455479 3.50356e-22)
(1.01352 0.0051834 0)
(1.02982 0.0211429 0)
(0.998059 0.0282867 0)
(1.08547 0.260824 0)
(0.0546859 -0.117646 0)
(0.978105 0.0050373 9.00447e-21)
(1.01508 -0.000336092 0)
(0.0406638 -0.115926 8.81434e-20)
(1.06698 0.0590424 0)
(1.02861 0.0151887 6.94908e-21)
(0.611858 0.0606661 0)
(1.01391 0.000562785 4.57089e-22)
(0.946703 -0.111446 0)
(1.01798 0.0172406 6.62169e-22)
(1.00387 7.32715e-05 1.40961e-21)
(1.04778 0.0279974 0)
(1.02366 0.0489276 -3.0215e-21)
(1.00296 -2.1927e-05 0)
(1.01571 -0.00104826 1.14924e-23)
(1.05265 0.0141676 2.83797e-20)
(1.05907 0.0800981 0)
(1.05642 0.0792171 -9.09044e-21)
(1.01427 -0.0396873 0)
(1.00748 0.0293042 0)
(0.355339 0.361293 1.59675e-20)
(0.943732 -0.147048 0)
(1.01392 0.000595044 -5.64802e-22)
(1.02346 0.0106807 -3.26378e-21)
(1.02323 0.0241748 -9.07101e-22)
(0.371209 0.00413192 0)
(1.01774 0.00974325 0)
(1.01873 0.0105697 -2.55184e-21)
(1.02211 0.0269873 2.44392e-21)
(-0.000664185 0.0194986 -7.57328e-20)
(1.05093 0.0451609 4.47688e-22)
(1.0156 -0.00118133 4.77322e-22)
(1.02696 -0.040714 -4.6128e-21)
(0.217604 0.0199512 -5.77537e-21)
(1.01964 0.0125296 0)
(1.00586 9.82884e-06 0)
(1.02977 0.0200098 0)
(0.964049 0.152845 -8.82707e-21)
(1.02707 0.00478458 9.80856e-23)
(0.974586 -0.00967012 0)
(0.96494 -0.134128 0)
(0.959719 -0.0631318 3.93098e-21)
(0.48488 0.0192362 -4.76076e-20)
(1.03809 0.143365 2.8856e-20)
(0.592338 0.0534614 0)
(1.03049 0.00604303 4.62841e-21)
(1.01543 -0.000977389 -6.9566e-22)
(1.00487 0.0329042 0)
(1.0254 0.0219894 0)
(1.01283 0.00162012 -9.04408e-22)
(1.01531 -0.00105268 4.37378e-22)
(1.0256 0.0209073 0)
(1.02879 0.01579 5.67447e-21)
(1.01601 0.0103845 0)
(1.00467 -1.11887e-05 0)
(1.03021 0.00544554 0)
(1.05335 0.130778 7.58545e-21)
(1.01325 0.00176731 -1.00577e-23)
(0.855727 0.0247 1.12976e-20)
(1.06656 0.0571433 0)
(1.01217 0.0011331 -3.20305e-22)
(1.02195 0.0505506 1.76433e-21)
(1.00504 -3.04727e-05 2.65661e-22)
(1.0071 -4.08202e-05 -1.18423e-22)
(1.05394 0.0142203 -3.49099e-20)
(0.955264 -0.0802041 -3.09464e-20)
(1.013 -1.09665e-05 -1.40875e-22)
(1.01807 0.0122066 0)
(0.970201 -0.00271566 -1.05716e-20)
(0.980461 0.229075 5.63878e-21)
(1.00487 1.80828e-05 0)
(1.01259 0.0010326 1.62357e-21)
(1.02001 0.149034 0)
(1.00497 -2.0506e-07 -8.96477e-23)
(1.0051 -1.65307e-06 0)
(1.01611 0.0106405 2.88043e-22)
(1.00653 9.9576e-05 5.48864e-23)
(1.01349 0.000952094 3.95073e-23)
(1.02832 0.0974269 0)
(0.654444 0.23613 0)
(1.01664 0.00939078 0)
(1.01582 -0.00112905 2.99305e-22)
(1.0605 0.264666 2.55212e-21)
(1.01742 0.000182603 -1.1786e-21)
(0.632828 0.0692616 -5.78722e-20)
(0.976698 0.00753242 -4.7474e-22)
(0.29755 0.389215 -5.24181e-20)
(0.970032 0.149863 4.42121e-21)
(1.02357 0.0228388 -3.9131e-22)
(1.04473 0.0756857 1.37193e-20)
(1.00679 -1.70719e-05 -8.87839e-23)
(1.05756 0.102021 -7.66355e-21)
(1.02912 0.00236662 -1.31672e-20)
(1.00516 -1.72319e-05 5.37087e-23)
(1.01453 -0.000665295 -2.11734e-22)
(0.965612 -0.0169416 -1.65236e-20)
(1.03088 0.0573457 6.6245e-21)
(0.404211 0.0161105 -4.20751e-21)
(1.0338 0.131751 -1.21903e-20)
(1.03036 0.0191332 -7.84196e-21)
(1.0015 0.0355218 2.80439e-21)
(1.01201 0.00129372 2.49905e-22)
(1.03213 0.0588234 0)
(1.06157 0.0331934 2.7673e-22)
(1.14222 0.0245119 0)
(0.711498 0.0722218 0)
(1.02281 0.0222062 -2.73253e-21)
(1.06657 0.0648149 -1.74855e-20)
(1.04454 0.297862 2.22826e-20)
(0.227472 -0.0853123 0)
(0.336565 0.0124718 1.96272e-24)
(0.992784 0.0260639 7.01296e-22)
(1.00274 0.000152041 -6.38885e-22)
(0.823891 -0.107255 8.11821e-21)
(1.01495 -0.000847683 -2.14248e-22)
(1.0339 0.0953293 -8.44115e-21)
(1.01249 0.00416757 4.8214e-23)
(1.0284 0.00581172 0)
(1.01478 -0.00378027 -4.50709e-22)
(1.03806 0.141933 -1.15892e-20)
(0.849765 -0.0300587 -8.67844e-21)
(0.412512 0.374701 0)
(1.01797 0.0101693 5.41306e-22)
(1.02126 0.0459043 0)
(1.00556 -1.36958e-05 1.50959e-24)
(1.028 0.00532406 0)
(1.02945 0.00208735 1.19312e-22)
(0.964293 0.274642 1.56473e-21)
(1.01473 0.0035032 -4.44479e-23)
(1.00656 7.00518e-05 -7.41578e-23)
(0.660734 0.0633936 5.304e-20)
(1.00496 -1.31278e-05 4.68534e-24)
(1.00633 -2.00722e-05 0)
(1.0129 0.00350221 0)
(0.774742 0.180982 -9.88619e-21)
(1.01547 0.0137365 1.45699e-22)
(0.857139 -0.157662 -1.84924e-21)
(0.442236 0.196737 -4.17459e-21)
(1.01587 0.182579 -3.51125e-21)
(0.35941 0.00770554 0)
(0.261799 0.248726 -9.27651e-21)
(1.00942 -8.05448e-05 0)
(0.988009 0.0238834 1.03159e-21)
(1.01353 0.00479736 -3.68171e-22)
(0.746219 0.0835352 4.25239e-20)
(1.05786 0.0183224 1.47244e-20)
(0.325747 -0.0111623 3.47749e-20)
(1.04817 0.0364677 0)
(1.00538 -1.99711e-05 6.07574e-23)
(1.03349 0.01359 0)
(1.02197 0.0158867 1.1128e-21)
(1.06133 0.0321205 3.62229e-20)
(1.01486 0.0131502 -5.37736e-22)
(1.05109 0.0152033 -9.76593e-21)
(1.01354 0.0047684 0)
(1.02308 0.010877 1.85234e-21)
(0.982732 0.043804 3.59258e-22)
(1.0539 0.10349 0)
(1.14827 0.0416214 0)
(1.02275 0.0104211 0)
(0.981601 0.0402624 -3.53314e-22)
(1.01504 -0.000329581 -1.01828e-23)
(0.874169 0.0137536 1.01469e-20)
(1.05029 0.0379773 5.51242e-21)
(1.0572 0.0755041 9.1659e-21)
(1.00399 0.0493594 3.31003e-21)
(0.621882 0.0482365 9.55151e-20)
(1.01292 2.82331e-05 9.13709e-22)
(0.419254 0.0173054 -3.36592e-20)
(1.03306 0.0292631 -5.27301e-21)
(0.756554 0.0769487 -4.56082e-20)
(1.01379 0.000498689 -1.75925e-22)
(1.01432 0.00372395 9.26322e-22)
(1.01154 0.0291994 -2.10655e-22)
(0.500473 0.0196072 0)
(0.327557 0.0114661 -4.77659e-20)
(1.01762 0.0147145 0)
(1.12185 0.200928 -3.9833e-20)
(1.00371 0.002215 9.77377e-22)
(1.02247 0.0447947 0)
(1.01477 -0.000785894 -1.32881e-23)
(1.01954 0.0192128 -1.85868e-22)
(1.01562 0.0100085 8.96901e-23)
(1.01041 0.00104592 8.04026e-23)
(1.02444 -0.0223943 -4.82944e-21)
(1.0216 -0.0286943 8.48914e-22)
(0.397144 0.355005 -1.68042e-20)
(1.06651 0.0637792 9.38253e-21)
(0.994704 0.0290665 -2.04418e-21)
(0.807183 0.180363 3.30259e-20)
(1.00821 0.000469774 0)
(1.01125 -0.000241715 -2.68191e-22)
(1.01122 -0.000242357 0)
(0.249711 0.275848 9.7606e-21)
(0.995261 0.0462233 2.56664e-21)
(0.967074 0.0329017 -3.33461e-21)
(1.01774 0.00138254 0)
(1.00499 4.28626e-06 -1.06481e-23)
(1.00029 0.29895 -4.81151e-20)
(0.413679 0.0137604 -3.61652e-20)
(1.01047 -0.000202203 1.56526e-22)
(1.01024 -0.0001954 -1.40465e-22)
(1.00269 -3.49743e-05 0)
(1.01161 -0.000272834 0)
(1.01159 -0.000271245 -2.62708e-22)
(0.586919 0.0490686 2.31066e-20)
(0.446441 0.312363 0)
(1.01435 0.00735023 -4.69912e-23)
(1.01058 -0.00015445 -6.17414e-24)
(1.03854 0.0399958 0)
(0.539184 0.0384214 0)
(1.00511 -1.38207e-05 1.24509e-23)
(1.01752 0.00133771 0)
(1.1082 0.227112 2.51163e-20)
(1.02514 0.0907011 0)
(0.99186 0.0467453 -6.912e-22)
(0.799349 0.179969 0)
(1.0539 0.0245177 0)
(1.0126 0.00415956 -7.87538e-22)
(0.32384 0.228282 -1.3095e-22)
(1.03665 0.0411892 1.54088e-21)
(0.982529 0.0117322 -9.80766e-21)
(1.04945 0.0609695 4.72635e-21)
(1.01798 0.0143977 0)
(0.451865 0.324997 2.06765e-20)
(1.02938 0.00326443 5.39162e-21)
(1.04042 0.0463332 -3.90658e-21)
(1.04825 0.0390749 0)
(1.01412 0.00714638 -3.94859e-23)
(1.00201 -3.70845e-05 0)
(1.0305 0.0200019 0)
(1.02355 0.000666155 6.13714e-22)
(1.01425 -0.000529658 0)
(0.442065 0.0259497 3.30313e-20)
(0.814679 -0.347058 -1.71907e-20)
(1.0143 -0.00032762 -2.15641e-22)
(1.00998 -0.000174491 0)
(1.01477 0.00346244 8.17141e-22)
(1.00998 -0.000178807 0)
(1.02957 0.00296573 9.63458e-21)
(1.01333 0.000192339 -2.94416e-21)
(1.04556 0.0399726 -6.52632e-21)
(1.01464 -0.00029505 -2.29421e-22)
(0.338857 0.0148424 4.41598e-21)
(0.655598 0.236538 0)
(1.02007 0.00814298 -1.79174e-21)
(1.01804 0.000849234 0)
(1.0155 -0.0683374 7.50904e-21)
(1.01194 -0.000358784 -5.22223e-23)
(1.01395 0.123122 -7.04643e-22)
(0.463069 0.0320628 1.24606e-22)
(1.01193 -0.000367076 5.37604e-23)
(0.503359 0.0260187 4.34155e-20)
(1.01411 -0.000589631 0)
(0.774813 0.175923 0)
(1.00497 -6.89907e-06 8.59578e-25)
(1.01775 0.0146765 -3.05833e-21)
(1.01402 0.00722123 2.01717e-23)
(1.01208 0.00364942 3.85631e-22)
(1.02043 0.0848358 0)
(1.00567 0.000217611 -7.7904e-22)
(1.02505 0.192357 -5.48556e-21)
(1.03045 0.0344321 0)
(0.819527 -0.345477 5.68887e-21)
(1.01387 -0.002699 0)
(1.14947 0.170851 0)
(0.316669 0.0108953 -4.64266e-21)
(1.00628 -1.41715e-05 -2.42884e-22)
(1.04635 0.0452219 -1.00233e-20)
(1.02237 -0.00330325 7.42703e-22)
(1.02137 0.0223304 -2.75091e-21)
(1.01801 -0.00730755 -2.43496e-25)
(1.02643 0.0210707 -8.17002e-21)
(1.01339 -0.000210642 -2.91466e-22)
(1.00635 0.000167164 3.61854e-22)
(1.03302 0.00950332 -6.41527e-22)
(0.986442 -0.00284733 0)
(1.03994 0.0454961 6.67309e-21)
(1.02649 0.0206555 2.6853e-21)
(1.01718 0.00139495 -2.22739e-21)
(0.692837 0.0682027 -5.21335e-20)
(0.492979 0.0181263 0)
(1.01185 0.00105508 -2.02232e-22)
(1.02035 -0.00228809 4.95906e-25)
(1.0221 0.0231872 0)
(1.03504 -0.150152 0)
(1.08313 0.0801474 -6.48683e-20)
(0.691685 0.200836 -1.22238e-20)
(0.380109 -0.008366 -2.83527e-20)
(1.02449 0.0040227 2.40898e-23)
(1.12149 0.0271213 1.2127e-20)
(1.01826 0.00122414 -6.53602e-22)
(1.05599 0.130056 -3.90701e-20)
(1.00731 -0.180277 6.90494e-22)
(1.06658 0.107995 0)
(1.01373 0.000202414 0)
(1.01953 0.0158221 0)
(1.10503 0.230454 0)
(1.01381 0.00422957 7.64103e-23)
(1.0379 -0.00855359 2.06135e-21)
(1.05516 0.0756223 8.93172e-21)
(1.00474 -2.22403e-05 -3.02299e-22)
(0.759068 0.0862417 -2.28509e-22)
(1.01287 0.00137933 0)
(1.07442 0.0366621 0)
(1.01459 -0.000308984 -2.50725e-22)
(0.658778 0.120527 1.58984e-19)
(1.00892 0.000884972 3.89037e-22)
(1.03952 0.0438963 -1.00552e-21)
(1.00046 0.00507862 9.07531e-22)
(1.02242 0.00356977 -7.53934e-24)
(1.00556 -4.45948e-06 1.91379e-22)
(1.05291 0.0625403 1.21716e-20)
(1.05932 0.106932 1.30391e-20)
(1.01839 0.0121424 1.1143e-21)
(1.01389 0.00421171 -6.80018e-22)
(0.657999 0.078577 -2.95681e-20)
(1.0522 0.102281 0)
(0.708927 0.0688939 3.99732e-20)
(0.675728 -0.0826796 0)
(1.01156 -0.000355972 2.54423e-23)
(1.01495 0.0081992 -2.19954e-22)
(1.01298 0.0859771 0)
(1.1176 0.0216657 -1.06106e-20)
(1.01156 -0.000361254 -2.19267e-22)
(1.02125 -0.0047467 7.0743e-22)
(1.02036 0.0104278 2.49933e-21)
(0.983986 0.0602808 0)
(1.04013 0.0444667 -3.25727e-21)
(1.01958 0.0501936 5.65656e-22)
(1.07484 0.0393428 2.69503e-21)
(1.0092 0.122348 -5.45607e-22)
(1.07016 0.0385935 2.95652e-20)
(0.637281 0.0705508 0)
(1.01212 0.00138196 -4.85476e-22)
(1.01881 0.0121766 0)
(1.01548 -0.0116025 1.32391e-21)
(1.02885 0.0989529 -1.11941e-20)
(1.00463 -2.69328e-05 9.7287e-23)
(0.602553 0.0340954 -1.18928e-19)
(1.07067 0.0384277 -2.05716e-20)
(0.875854 -0.0150377 1.37267e-22)
(1.01865 0.0108431 3.26932e-21)
(1.09436 0.0287834 0)
(1.02033 -0.00217302 2.29755e-23)
(1.02277 0.0954093 0)
(1.01654 -0.00170196 -2.49454e-22)
(0.970278 0.0351235 3.68035e-21)
(1.01322 -0.0633735 -6.47827e-21)
(0.996842 1.16704e-05 9.83583e-22)
(1.02019 0.00862133 -5.67118e-21)
(1.02023 0.132597 0)
(1.01547 -0.00047953 0)
(0.40655 0.186495 3.82634e-21)
(0.998435 0.0529639 -2.57396e-21)
(1.01695 -0.00165257 -2.30844e-22)
(1.01107 0.0378934 2.52842e-20)
(1.01365 0.00718878 -6.96298e-22)
(0.998706 -0.0139269 5.74082e-23)
(1.01089 -6.9732e-05 2.03761e-22)
(0.676401 0.145128 0)
(0.999274 -0.0263137 9.35623e-23)
(1.02003 0.0175149 -6.59007e-23)
(0.983016 0.27395 2.75258e-20)
(1.00114 0.109608 0)
(1.01817 0.0139302 1.54301e-21)
(0.588132 0.148723 5.40772e-21)
(1.11134 0.0769615 -1.85214e-20)
(1.0211 0.0173365 -6.11305e-22)
(1.01589 0.0799393 6.19598e-21)
(1.01541 0.0085567 4.8771e-22)
(0.99306 0.106101 1.35678e-21)
(1.06038 0.108495 3.44482e-20)
(1.01296 0.00132192 0)
(1.05132 0.025028 -1.49583e-20)
(1.02727 0.0205467 3.56394e-21)
(1.01211 0.00371611 4.13349e-22)
(1.01002 0.00170977 2.71449e-23)
(1.0122 0.00163831 4.74474e-22)
(0.19465 -0.102787 0)
(1.03796 0.164732 3.60119e-21)
(1.01879 0.0115567 1.62276e-21)
(1.01248 0.00144768 3.15299e-22)
(1.01334 0.0049785 -6.83167e-24)
(1.04506 0.0427698 -1.51228e-20)
(1.02181 -0.151057 0)
(1.01318 -0.000272147 0)
(1.00927 -6.98132e-05 0)
(1.08061 0.0792129 4.32009e-20)
(1.09707 0.0339713 0)
(1.01228 0.00386629 3.75538e-22)
(1.02027 0.0175203 5.48284e-23)
(0.57044 -0.0382692 0)
(0.874215 0.278193 -2.92747e-22)
(1.02852 0.00637572 0)
(1.04464 0.0806004 0)
(1.07313 0.129303 7.57801e-21)
(1.01459 -0.000321275 4.4649e-22)
(1.01274 -0.000286151 -1.77469e-22)
(1.00689 0.0237772 -1.94403e-21)
(1.00998 0.00163525 2.39176e-23)
(1.0132 -0.000277927 1.8053e-22)
(1.01427 0.00762825 2.90028e-23)
(1.01276 -0.000287564 -3.36989e-24)
(1.01431 -0.000379132 0)
(0.345728 0.264586 -9.03152e-22)
(1.01563 0.00888113 -7.37344e-23)
(1.02874 0.0521218 0)
(0.356267 0.0178397 0)
(1.04566 0.0455309 0)
(1.01053 0.00108633 -1.6785e-22)
(1.02738 0.00534502 0)
(0.6228 0.157972 0)
(1.0099 0.0275036 -1.29211e-22)
(0.385787 0.0127909 4.20777e-20)
(1.01411 -0.00029221 0)
(1.01847 0.00341037 -4.27472e-21)
(1.01571 -0.000390462 0)
(1.01199 -0.000320465 2.7908e-22)
(1.01817 0.0167355 1.00862e-21)
(1.01328 0.00712407 6.90086e-22)
(0.603438 -0.0575458 0)
(1.02481 -0.00542143 0)
(1.01164 0.091805 5.33679e-21)
(1.01817 0.0036827 0)
(1.05706 0.0385282 -1.29245e-20)
(1.02226 -0.00710054 -2.15479e-22)
(1.01552 0.00964271 0)
(1.04857 0.0230573 0)
(0.68974 0.0563565 -7.22866e-21)
(1.02042 0.01026 -2.58111e-21)
(0.889982 0.361598 -5.99136e-21)
(1.01069 0.00123927 -7.33687e-24)
(1.00869 0.000622674 9.68655e-22)
(1.01323 0.00467067 -2.42311e-23)
(1.01377 0.00752648 4.56686e-22)
(1.01004 0.000970498 -2.12592e-23)
(1.0105 0.000622035 0)
(0.680884 0.0679323 6.1994e-21)
(0.27371 0.0240109 -2.38136e-20)
(1.00991 0.000884788 0)
(1.15168 0.163415 -2.56219e-20)
(1.07644 0.0806963 0)
(1.0163 0.000354027 4.91613e-21)
(1.04431 0.0448154 -8.38471e-21)
(1.08521 0.0535233 1.1489e-20)
(0.561082 0.190972 8.14606e-22)
(1.05392 0.0260895 -1.74064e-20)
(1.02707 0.0987219 1.7112e-20)
(0.942061 -0.00194965 4.71735e-22)
(0.950266 0.00982979 -5.58077e-22)
(1.01336 0.00729446 9.39575e-22)
(1.02488 0.00420758 -9.59508e-23)
(1.0211 -0.0080573 0)
(1.01797 0.0141706 -1.45131e-22)
(0.899761 0.0571719 0)
(1.00686 -3.57625e-05 -1.30497e-22)
(1.01776 0.00956801 0)
(1.01838 0.0124416 2.48628e-21)
(1.0541 0.0227618 -1.18778e-20)
(1.01103 0.0370329 9.87401e-24)
(1.04907 0.0973885 -1.5147e-20)
(1.05505 0.0506208 -2.19283e-20)
(1.0152 -0.000300788 0)
(1.01964 -0.000937056 1.43261e-21)
(0.961192 -0.0373041 0)
(1.03893 0.0633837 -4.23523e-21)
(1.01853 0.0116124 -1.52157e-21)
(0.671983 -0.0324429 2.0645e-21)
(1.04824 0.0395028 -9.69298e-21)
(1.03165 0.0340236 4.5903e-21)
(0.391062 0.1469 -1.21688e-20)
(1.01328 0.00170986 -3.49265e-21)
(1.04172 0.065585 4.68864e-21)
(1.01839 0.00683611 0)
(1.00902 0.000928756 1.9235e-23)
(0.550763 0.0483818 -3.35565e-21)
(1.00865 0.000616335 0)
(1.012 -0.000328758 0)
(1.04487 0.0433313 1.62801e-20)
(1.01411 -0.000273906 0)
(1.00837 0.000416732 -5.90281e-22)
(1.03761 0.00727213 0)
(0.618668 0.0523467 0)
(0.906973 0.283221 2.58774e-20)
(1.01288 0.00334349 1.34003e-21)
(1.03821 0.0129033 1.34861e-20)
(1.01754 0.00254238 3.72935e-22)
(0.911387 0.0179982 -1.17816e-20)
(0.925947 -0.121295 2.80603e-21)
(1.01808 0.0109295 2.77706e-21)
(1.01842 0.0103263 1.81823e-21)
(1.01259 0.00300594 0)
(1.04647 0.0409828 1.0342e-20)
(0.947504 0.0182467 1.85265e-20)
(1.01239 0.00109174 -3.13344e-22)
(1.00507 -1.86918e-05 4.10134e-23)
(1.01427 0.00363618 -1.2481e-21)
(1.01198 0.00358566 -1.42628e-21)
(1.01361 -0.0062427 0)
(1.03948 0.0336334 0)
(1.00644 -3.71027e-05 2.30262e-22)
(1.05392 0.0505635 2.28291e-20)
(1.00899 0.000877063 -3.34762e-22)
(1.01351 0.00531828 -1.44788e-22)
(1.02739 0.020095 1.70172e-21)
(0.702362 0.156357 7.04151e-20)
(1.00793 -7.26368e-05 -2.90477e-22)
(1.04469 0.0189913 4.72006e-21)
(1.01409 -0.000454873 0)
(1.05677 0.0366988 -2.23483e-20)
(1.04139 0.0478813 -5.09582e-21)
(0.963319 0.0402317 5.79116e-21)
(1.04762 0.0383605 0)
(1.03218 0.151749 0)
(1.02553 0.0186141 0)
(0.972239 -0.0257466 7.6318e-21)
(0.790762 0.0821268 2.36598e-20)
(0.385733 0.270646 0)
(0.379234 0.0220265 -3.15705e-20)
(1.01168 0.000894491 1.9788e-22)
(1.01311 0.00433354 0)
(1.01519 0.00108767 -4.18073e-22)
(1.01999 0.00616999 0)
(0.964909 0.144759 1.76764e-20)
(1.01233 -0.000351289 0)
(0.892012 -0.248549 0)
(1.03397 0.0290165 7.6239e-21)
(0.904149 0.105111 4.07893e-20)
(1.02278 0.132884 9.46423e-22)
(1.05216 0.0154015 2.92415e-21)
(0.40082 0.195062 4.69411e-20)
(1.0099 0.000865206 1.88128e-22)
(1.07965 0.051766 4.23801e-20)
(1.0051 8.13226e-06 1.57101e-22)
(1.01678 -0.0021 1.50829e-21)
(0.868621 0.101095 3.02861e-20)
(1.01364 -0.000282362 4.23183e-23)
(1.08466 0.0986711 7.91756e-20)
(1.00505 -5.15627e-06 2.39825e-23)
(1.01533 0.000355931 -2.67622e-21)
(1.01321 0.00459077 0)
(1.04999 0.0972858 1.44171e-20)
(1.01465 -0.0075931 -5.13101e-22)
(1.00924 -0.000141637 -1.69535e-22)
(1.06353 0.0797786 0)
(1.04435 0.0444852 -1.71497e-21)
(0.852472 0.219551 4.29803e-21)
(1.05594 0.139523 0)
(0.708728 0.0668444 2.22775e-20)
(0.530024 0.196958 -1.835e-21)
(1.00791 -6.53843e-05 3.45784e-22)
(0.442185 0.0188817 -1.17765e-20)
(1.0071 -2.92135e-05 2.60584e-23)
(0.236747 -0.0544494 0)
(0.850046 -0.0112396 0)
(1.01754 -0.00294705 -4.22744e-22)
(1.01936 -0.00301822 6.33485e-23)
(1.00515 1.52225e-05 1.04994e-22)
(1.0481 0.0391773 0)
(1.05068 0.0135217 1.06687e-20)
(1.01365 -0.000275504 -4.34843e-23)
(1.00516 1.85886e-05 0)
(1.01262 0.000217833 -2.08257e-21)
(1.05779 0.135295 -2.27661e-20)
(1.0137 0.0039112 -8.60232e-22)
(1.06787 0.0547885 2.93985e-20)
(1.01748 0.00919295 0)
(1.00915 -0.000129504 4.09834e-22)
(1.00555 -1.6743e-05 2.53731e-22)
(1.0147 -0.0286647 -8.56403e-22)
(0.891477 0.126727 -3.07869e-21)
(0.629163 0.269414 -6.99129e-20)
(1.05043 0.0588572 -1.40912e-20)
(1.04012 0.0330819 0)
(0.982978 0.103134 -2.93229e-21)
(0.540271 0.0409009 -4.65557e-20)
(1.01119 -0.000119213 -2.25489e-22)
(0.8152 0.0547474 0)
(1.01247 0.000162556 4.46214e-21)
(1.09029 0.0629293 -5.5241e-20)
(1.01975 0.00619645 7.26581e-21)
(1.02501 0.130819 9.04599e-21)
(1.0118 0.00343824 5.38249e-22)
(1.01171 -0.00643998 0)
(1.02906 0.00568016 0)
(0.842467 0.192723 -1.71824e-21)
(1.04654 0.0399966 -1.18474e-20)
(0.918119 0.160922 -1.8346e-20)
(1.00646 -1.69891e-05 -1.51248e-24)
(1.04559 0.0387892 -7.21164e-21)
(1.01359 0.00071943 0)
(1.0042 9.87603e-07 -1.52907e-22)
(0.655718 0.0832661 -1.25733e-21)
(0.986696 0.172246 -5.319e-23)
(1.01441 0.000571235 -1.30511e-22)
(1.01379 0.0492258 -1.15978e-21)
(1.01739 0.0015282 3.37428e-21)
(1.01723 -0.00169571 0)
(1.00495 -3.9405e-06 0)
(0.670933 0.0928481 7.63078e-20)
(1.01394 0.00407494 8.91125e-22)
(1.02354 -0.00245418 0)
(1.01235 -0.000346846 1.27916e-22)
(1.01403 0.000656641 -9.09083e-22)
(1.02441 0.0984167 0)
(1.00525 -1.49828e-05 -3.16063e-23)
(1.02069 0.0599915 -3.63664e-21)
(1.00447 -9.63914e-06 4.49561e-24)
(1.00896 0.00096193 0)
(0.201902 -0.015092 -1.01638e-21)
(1.06849 0.0550294 0)
(1.01791 0.0103393 -1.64044e-21)
(0.271264 0.00450439 0)
(1.08486 0.0997308 -7.07059e-20)
(1.11958 -0.0530801 1.20247e-21)
(1.01811 0.00675301 0)
(1.00978 0.000811912 -9.90334e-23)
(1.0214 0.0167194 -3.17434e-21)
(0.693236 0.152211 -2.57472e-22)
(1.10349 0.0905091 4.6233e-22)
(1.00929 0.0245936 0)
(1.0182 0.0178155 -3.07842e-22)
(1.00964 -0.00480508 -1.49697e-21)
(1.00503 -1.34857e-05 2.50014e-22)
(1.0121 0.00214663 0)
(1.02548 0.00672211 -2.4662e-23)
(1.03886 0.0468793 0)
(1.02932 0.0266284 -2.1827e-21)
(0.321357 0.161586 -2.16063e-21)
(1.0471 0.040303 1.42953e-20)
(1.01295 -0.16701 4.63586e-21)
(0.871263 -0.132375 1.01246e-20)
(0.985798 -0.00123939 0)
(1.04073 0.0414303 -9.55039e-21)
(1.00721 0.056286 0)
(0.521707 0.0312542 4.1905e-20)
(1.01332 -0.000152725 0)
(1.00351 0.0107627 1.64383e-21)
(1.02209 0.00669048 0)
(1.00901 0.00098376 0)
(1.00632 -7.80458e-06 2.20137e-22)
(1.00562 -1.58237e-05 -7.29784e-23)
(1.01773 0.00343995 0)
(1.00921 0.000537678 0)
(0.447139 0.017725 1.29948e-20)
(1.06833 0.0327025 1.66288e-20)
(1.00712 0.00016158 0)
(1.05643 0.0710764 -9.15346e-21)
(1.00659 -2.52238e-05 4.59353e-22)
(0.70243 0.202563 -2.55259e-20)
(1.01426 -0.000610312 0)
(1.01206 0.00120899 0)
(0.5812 0.0483578 0)
(1.04366 0.0484539 1.32569e-20)
(0.865481 0.0719577 3.40227e-22)
(1.0306 0.00799105 0)
(1.01708 -0.00107706 0)
(1.01224 0.000934807 1.9406e-23)
(1.03547 0.0106498 -5.93865e-21)
(1.04834 0.0314283 -7.13086e-22)
(1.01192 0.00336437 3.74133e-22)
(0.362326 0.0129338 -3.58827e-20)
(1.03134 0.0372163 0)
(0.912197 -0.183979 -1.58304e-20)
(0.877981 0.027123 5.60679e-22)
(1.0029 0.0114639 -1.68602e-21)
(0.710724 0.0664404 0)
(1.03791 0.0133404 0)
(1.00573 6.1625e-05 7.14175e-23)
(1.01381 0.00056041 9.71552e-22)
(0.482554 0.0365357 -3.16419e-20)
(0.926545 0.260183 0)
(1.03302 0.0298319 -5.75127e-21)
(0.388996 0.0146141 0)
(0.905321 -0.0871646 -8.32642e-21)
(1.00902 0.000969597 -4.75455e-22)
(1.01197 0.00110416 0)
(1.0178 0.0159939 1.44459e-21)
(1.04454 0.104402 0)
(0.901017 0.0917278 0)
(1.04603 0.0404337 -3.8557e-21)
(1.0348 0.0106845 4.95313e-21)
(1.04423 0.0187709 0)
(1.09186 0.0628022 5.98982e-20)
(1.01694 0.00194227 6.11058e-22)
(1.01998 0.052942 6.6843e-21)
(1.06763 0.0332642 0)
(1.01795 0.0118847 -1.43952e-21)
(1.02844 0.0156899 -9.69933e-21)
(1.00559 4.73082e-05 -2.56635e-23)
(1.04755 0.0312177 0)
(1.02065 -0.000186286 -1.44238e-21)
(1.1131 0.0795631 -7.10578e-20)
(1.01997 0.0224809 1.07842e-21)
(1.02278 -0.000399379 3.43106e-22)
(0.372918 0.0126683 -4.81809e-20)
(1.01857 0.0001217 0)
(0.907736 -0.135269 -7.38754e-21)
(1.01881 0.0173315 -1.39581e-21)
(1.02395 0.00422334 1.40969e-21)
(1.03721 0.0285563 -3.98783e-21)
(1.10062 0.0900649 3.08799e-20)
(1.00529 -2.52773e-05 -2.14353e-22)
(1.0796 0.0489852 -1.89547e-20)
(0.912321 0.130953 6.63744e-21)
(0.89319 0.0126603 -5.66019e-23)
(1.02076 0.00626105 2.37807e-21)
(1.02074 0.0234982 2.93345e-21)
(1.0079 0.000461122 4.46045e-22)
(1.01828 0.00492048 4.26892e-21)
(1.029 0.00461571 1.30863e-21)
(0.997354 0.0167269 0)
(1.02393 -0.00627075 0)
(1.02976 -0.0236496 -4.09084e-21)
(1.01899 0.0584037 0)
(1.00965 0.00070661 -1.46678e-22)
(1.11433 0.0831061 -2.24015e-20)
(1.05646 0.0194344 2.87276e-20)
(1.05375 0.0221561 1.9487e-20)
(1.01255 0.0541351 0)
(1.01494 0.00840965 -1.47631e-22)
(1.07846 0.0515734 2.17966e-20)
(1.00427 0.232602 -5.63632e-21)
(1.00851 -0.000115954 -2.58471e-22)
(1.04419 0.0492489 0)
(1.05612 0.0310602 3.19835e-21)
(1.06626 0.0331844 0)
(1.01126 0.0017098 -2.24637e-23)
(1.01018 0.00105246 1.52768e-22)
(1.01207 0.00212318 0)
(0.481055 0.016091 1.9206e-22)
(1.02782 0.0149822 -4.97062e-21)
(1.01487 -0.000884891 -5.24955e-24)
(1.07287 0.0375706 0)
(1.01207 0.00353628 -4.91282e-22)
(1.01092 0.00115016 5.07287e-23)
(1.02486 0.028511 -2.99647e-22)
(1.00002 0.207091 3.54331e-21)
(0.981702 0.00368642 1.1962e-21)
(0.892056 0.299548 3.1953e-21)
(0.987843 0.0550961 0)
(1.00369 0.0811426 0)
(1.02945 0.00438624 -1.41723e-20)
(1.01233 0.000643659 6.0326e-22)
(1.00438 0.117765 1.16985e-20)
(1.01843 -0.00283172 -7.94324e-22)
(1.01761 0.0181896 7.11407e-22)
(1.00529 -2.78187e-05 1.18404e-22)
(1.00638 -9.81644e-06 2.42271e-22)
(1.02929 0.00858349 5.54574e-21)
(1.01854 0.0221241 -1.01139e-21)
(0.962397 0.0492205 1.99523e-21)
(1.01126 0.00173145 2.65287e-23)
(1.03634 0.00606205 -4.66596e-23)
(1.01401 0.00341786 -2.79681e-22)
(0.84988 0.0180333 0)
(1.01915 0.0180214 0)
(1.05441 0.0254624 1.98472e-20)
(1.01454 -0.000287004 -1.92038e-22)
(1.04799 0.0608181 -3.33994e-20)
(1.01853 0.0146453 2.76382e-21)
(0.73214 0.146338 7.46518e-22)
(0.979494 0.0142152 1.20446e-21)
(1.00454 1.63072e-05 6.39499e-23)
(0.69803 0.185264 -4.60145e-20)
(1.02792 0.0165718 3.65386e-21)
(0.439595 0.0232566 -3.2929e-20)
(1.05053 0.0119506 0)
(0.950077 0.0257109 -2.53152e-21)
(1.01572 0.00241832 2.78773e-23)
(1.01146 0.000695109 -2.24774e-22)
(1.02054 0.00581766 -1.04208e-22)
(0.789356 0.0955401 0)
(1.04612 0.0314803 -7.8125e-21)
(1.09227 -0.0892135 -9.99866e-22)
(0.844185 0.274429 -1.81057e-22)
(1.01808 0.00468019 0)
(1.06569 0.0339379 0)
(1.01047 -0.00015704 0)
(1.01418 0.0044005 -7.30712e-22)
(0.952299 0.132489 6.1254e-21)
(1.01077 -0.000158227 -7.15757e-24)
(0.362476 0.239711 9.75487e-22)
(1.04621 0.018543 0)
(0.948593 0.0340398 0)
(1.04323 0.0749552 -6.70623e-22)
(1.09417 0.0274635 -4.00248e-21)
(1.01025 -0.000308264 0)
(1.00639 3.25473e-05 -3.21042e-22)
(1.07988 0.0357154 3.00828e-21)
(1.00979 0.000768513 7.99282e-23)
(1.01718 0.00937465 2.17035e-21)
(1.022 0.0171844 -2.86719e-21)
(1.01296 0.00406531 -3.78115e-23)
(1.07222 0.037535 -3.13977e-21)
(1.01012 -0.0003042 -9.28369e-23)
(0.897279 0.0663797 2.66591e-21)
(1.01767 0.0116775 1.295e-21)
(0.562615 0.0284922 1.03116e-19)
(0.424625 0.0220409 4.208e-21)
(0.988002 -0.151915 0)
(0.996295 0.0867103 -1.08196e-20)
(0.914374 0.361887 7.22057e-21)
(0.559775 0.0264592 -1.06897e-19)
(1.05434 -0.102076 0)
(1.00873 0.000706238 1.81239e-22)
(1.01737 -0.00091416 -3.32636e-22)
(1.02399 0.00762538 6.14769e-21)
(1.02478 0.0162756 -4.40884e-21)
(1.01262 0.00312234 0)
(1.0469 0.0317364 1.77371e-21)
(1.01387 0.0048986 -8.44287e-22)
(0.987464 -0.163763 1.87329e-21)
(1.01744 0.00974995 -3.34262e-21)
(1.07463 0.125838 -2.73713e-20)
(1.02772 0.0141595 0)
(1.06646 0.0275651 2.98003e-20)
(1.07587 0.05186 0)
(1.01208 0.000780831 5.22837e-22)
(1.02421 0.0518917 1.60485e-21)
(1.02743 0.0162258 9.20778e-22)
(1.01519 -0.00231933 3.83985e-24)
(1.04133 0.0284425 -1.0187e-20)
(1.01553 -0.000471736 0)
(0.703886 0.0595677 0)
(1.03674 0.0473382 0)
(1.03057 0.0102231 0)
(1.0119 0.001015 0)
(1.0221 0.000614515 0)
(1.01365 0.00460079 5.40838e-22)
(1.01422 0.00354366 0)
(0.430353 0.160238 0)
(1.00885 0.000785574 1.17038e-22)
(1.0044 0.169399 0)
(1.01168 0.00329945 2.7109e-22)
(0.914932 -0.0108087 0)
(1.01511 0.0145282 8.74565e-22)
(1.01293 0.00442359 1.42724e-21)
(1.08001 0.0507696 1.02322e-21)
(1.02119 0.011964 0)
(1.00896 0.000865629 -5.80258e-23)
(0.876907 0.0192777 -1.62941e-21)
(0.866059 0.0614205 0)
(1.01724 0.0137383 0)
(1.05136 0.0625611 1.34588e-20)
(1.00991 0.000595293 1.22378e-22)
(1.0035 0.153857 0)
(1.01663 -0.000942193 7.86308e-23)
(1.01419 0.00354935 0)
(0.624809 0.0606396 4.68289e-20)
(1.00583 7.70709e-06 2.59429e-22)
(1.03303 0.014379 0)
(1.05444 0.0714313 1.6935e-20)
(0.604996 0.0478746 -8.96444e-20)
(1.01682 -0.00109332 -8.09582e-23)
(1.04653 -0.0482468 0)
(1.003 0.124353 0)
(1.016 -0.00173609 0)
(1.01307 0.00454738 -5.72592e-22)
(1.01309 0.00429707 -5.9305e-23)
(1.07256 0.128542 0)
(1.02135 0.00127808 1.11861e-21)
(1.06285 0.0827067 -2.74034e-20)
(1.02434 0.0095225 1.29754e-22)
(0.561316 0.0498334 0)
(1.01702 0.015063 5.24383e-22)
(0.807825 -0.180267 -6.59942e-21)
(1.01242 0.00155198 0)
(1.01325 -0.00046539 -6.67088e-23)
(0.989769 -0.024267 -1.37238e-22)
(1.00956 0.000595713 9.88372e-22)
(1.01813 8.1693e-05 -2.13052e-25)
(0.838524 0.0868647 -4.58953e-20)
(1.01947 0.0152186 7.66122e-22)
(1.00985 0.0018079 -8.63559e-22)
(0.963122 -0.240174 4.03631e-21)
(1.01654 -0.00176722 0)
(1.01752 -0.000603102 3.28941e-22)
(1.03944 0.0482841 -6.2416e-21)
(1.02078 0.0169538 -1.16187e-21)
(0.954226 0.14727 0)
(1.02814 0.0504963 3.12316e-22)
(1.08288 0.0552256 2.23824e-20)
(1.02959 0.000196637 0)
(1.0433 0.0194095 4.71584e-21)
(0.585872 0.0549846 2.24801e-23)
(1.01771 0.0122521 1.60648e-21)
(1.04202 0.048837 0)
(1.01961 0.0036366 4.43357e-21)
(0.391868 0.0220758 -3.64845e-20)
(0.918278 0.0107091 -4.47017e-22)
(1.03236 0.00751525 7.56494e-21)
(1.01648 -0.000901297 8.50752e-23)
(1.01544 -0.00171519 1.25448e-21)
(1.01838 0.0108176 0)
(1.01608 -0.000678688 -1.72341e-25)
(1.01409 -0.00054817 1.87889e-22)
(1.01445 -0.000208445 -8.25757e-22)
(1.02058 0.0053801 9.46659e-21)
(1.03827 0.0345578 0)
(1.00842 -9.93282e-05 2.89627e-22)
(1.01973 0.0149098 8.01551e-22)
(1.06175 0.0622735 1.94546e-21)
(0.457179 0.23191 0)
(0.712828 0.160538 -8.38218e-22)
(1.05548 0.0667188 1.48195e-20)
(1.01355 0.00467324 -1.37704e-22)
(0.984183 -0.0116297 0)
(1.0134 0.00429297 0)
(1.01195 0.116171 -3.7539e-20)
(0.939464 0.0640285 0)
(0.240058 0.00382758 0)
(1.01207 -0.000419705 -4.66749e-22)
(1.00882 0.000778361 -1.65376e-22)
(1.01427 0.000921491 -1.82426e-21)
(1.01539 0.00803623 -6.62587e-22)
(1.0119 -0.000411181 4.42127e-22)
(1.01565 -0.000339365 9.30137e-23)
(1.01533 0.00476931 4.36248e-21)
(1.04128 0.0414484 -4.99597e-21)
(1.00996 0.00182463 0)
(0.653805 0.241385 -7.12717e-20)
(0.997705 -0.199417 3.93222e-21)
(1.01034 0.0020172 -2.3941e-22)
(0.819454 0.100427 2.78523e-20)
(1.02 0.0037779 -5.26275e-21)
(1.0122 0.0016971 -3.29121e-22)
(1.01539 0.00930977 -3.29321e-22)
(0.687991 0.104733 -3.76814e-20)
(1.03944 0.0694924 -5.22746e-21)
(1.00589 -2.14598e-05 -8.34929e-23)
(0.866798 0.0929732 -3.43476e-22)
(1.01328 0.000513518 0)
(1.0124 0.00133026 0)
(1.11659 0.0882907 3.07284e-20)
(1.0175 -0.00147412 1.68877e-22)
(0.916609 0.246619 -1.20285e-23)
(1.03371 0.0150203 1.11676e-20)