/*--------------------------------*- C++ -*----------------------------------*\
| =========                 |                                                 |
| \\      /  F ield         | OpenFOAM: The Open Source CFD Toolbox           |
|  \\    /   O peration     | Version:  v2012                                 |
|   \\  /    A nd           | Website:  www.openfoam.com                      |
|    \\/     M anipulation  |                                                 |
\*---------------------------------------------------------------------------*/
FoamFile
{
    version     2.0;
    format      ascii;
    class       volVectorField;
    location    "100";
    object      U;
}
// * * * * * * * * * * * * * * * * * * * * * * * * * * * * * * * * * * * * * //

dimensions      [0 1 -1 0 0 0 0];


internalField   nonuniform List<vector> 
13308
(
(0.820972 -0.439812 0)
(0.0851644 0.701072 5.28941e-20)
(-0.198879 -0.017934 -3.43365e-20)
(1.06689 -0.00461916 -9.97829e-21)
(1.19004 0.0403286 -1.43188e-20)
(1.12496 0.00291134 -1.73473e-21)
(1.0717 0.128383 -4.07348e-20)
(1.11787 0.000406157 0)
(1.14512 0.156578 0)
(0.30163 -0.816663 -8.21171e-20)
(0.831922 0.537294 0)
(1.03773 0.157621 4.96681e-21)
(1.12399 0.00260147 0)
(1.0502 0.00443439 0)
(1.11991 0.00259878 0)
(-0.2223 0.0145604 0)
(0.663259 -0.0275096 3.87727e-21)
(0.122653 0.7194 2.6699e-20)
(0.794893 0.0581623 8.06051e-21)
(0.15699 -0.0352895 -1.39457e-20)
(1.04645 0.10025 4.05132e-22)
(-0.106136 0.185011 3.65404e-20)
(0.139224 0.254843 1.33678e-19)
(1.15055 0.0307157 4.88006e-20)
(-0.229662 0.0161871 0)
(0.0294432 0.0121622 -9.08018e-20)
(1.15894 0.0723902 -2.37809e-20)
(0.830153 0.510324 2.82662e-21)
(1.16487 0.0791106 -2.73136e-20)
(1.05438 0.0312007 0)
(0.0451463 0.806136 1.06376e-19)
(1.07641 0.0414921 0)
(0.13047 0.161695 0)
(1.22818 0.0950653 0)
(0.943534 -0.109378 -3.97507e-20)
(0.667689 -0.00877502 1.25697e-20)
(1.08538 0.146746 3.57437e-20)
(0.167217 0.254059 -5.53374e-20)
(1.11607 0.0150654 -2.73423e-22)
(-0.223931 -0.00634676 1.8216e-20)
(1.05939 -0.000152784 0)
(1.11542 -0.0110708 1.84582e-20)
(0.820942 -0.17277 1.52235e-21)
(1.04302 0.0194622 -4.31197e-21)
(1.1155 0.0160739 0)
(1.04459 0.300784 0)
(1.11614 0.00338888 2.52127e-23)
(1.06703 -0.00544696 2.95695e-22)
(1.00871 -0.489622 3.20105e-22)
(-0.207353 -0.0318368 3.54035e-20)
(1.03884 0.00402193 5.72881e-22)
(1.08846 0.0506461 0)
(-0.187418 0.109879 1.29586e-19)
(0.882868 -0.0320692 -6.57658e-21)
(-0.359689 -0.0545559 -1.76394e-19)
(-0.333019 -0.0639212 -3.69413e-20)
(1.04204 0.0179859 -1.95186e-21)
(1.08684 0.0566514 -2.38405e-21)
(1.12966 0.0239838 1.66037e-20)
(1.12774 0.0216729 0)
(0.84759 0.0191217 -4.40791e-21)
(0.26542 0.0485391 -1.57427e-19)
(1.0874 0.0555077 3.75935e-21)
(1.07404 -0.00153783 0)
(0.983798 0.00333053 1.47756e-21)
(0.110392 0.175805 -3.04539e-20)
(1.01601 0.0106967 1.9633e-23)
(1.00228 0.309521 0)
(0.971221 -0.0114185 -1.65022e-20)
(0.739708 -0.0596816 0)
(-0.0553097 0.875091 0)
(1.11514 0.0158777 8.43966e-21)
(1.21359 0.202467 9.13345e-21)
(1.06624 0.0383305 4.52554e-22)
(0.666893 0.383092 -1.3286e-19)
(1.04323 0.0632146 6.52088e-22)
(1.15231 -0.0431415 0)
(-0.339562 -0.0675992 2.13846e-20)
(1.06601 0.032499 -3.00762e-21)
(0.798864 -0.496205 -1.2582e-20)
(1.1052 0.0271219 3.62171e-21)
(1.1744 -0.0762926 0)
(1.04018 0.0627747 -7.29108e-22)
(1.13976 0.0275058 0)
(0.879292 0.347454 0)
(1.1197 -0.000213457 0)
(-0.352416 -0.0493737 1.26597e-20)
(-0.147012 -0.0917721 8.02158e-20)
(0.944745 0.099599 -2.58455e-21)
(0.23431 -0.0394906 1.73052e-20)
(1.10581 0.00943297 -2.96719e-20)
(1.01638 0.0154602 0)
(1.14783 0.0778312 1.80679e-20)
(1.04052 0.102407 -2.02849e-21)
(1.04133 0.0033399 4.95654e-21)
(0.895051 0.0154251 -4.04884e-21)
(1.11877 -0.0118598 4.98408e-22)
(0.797896 -0.517605 3.36181e-20)
(-0.21448 0.84267 -4.03528e-20)
(0.82523 -0.0761817 0)
(1.10372 0.00950626 1.88793e-22)
(1.05878 -0.00110932 9.86546e-21)
(0.992756 0.00646447 -1.09691e-21)
(1.03698 0.102289 0)
(1.11269 0.475863 -2.65369e-20)
(0.0603107 0.772899 -7.55262e-21)
(-0.182691 -0.0157104 3.48795e-20)
(0.973314 -0.0068767 1.42218e-20)
(-0.0617909 -0.0156958 0)
(0.0529304 0.0131141 9.52612e-20)
(1.13831 -0.00394048 -2.46172e-20)
(1.30924 -0.020515 -2.92258e-20)
(0.970602 0.0606915 2.78265e-21)
(1.06379 0.0304577 2.83353e-21)
(0.972136 0.0622351 -3.15792e-21)
(0.802659 0.0828492 -1.09354e-20)
(1.04457 0.290566 -1.3596e-19)
(1.05896 0.0970508 -3.71764e-21)
(1.15294 0.0838947 6.846e-20)
(1.07543 0.0695164 0)
(1.16347 0.0544062 -2.20188e-20)
(1.02655 0.0983528 0)
(0.942455 0.0266093 5.96036e-21)
(0.704966 -0.0344413 4.09532e-21)
(1.06641 -0.539454 -1.64966e-20)
(0.967822 0.12628 0)
(0.757578 0.331027 3.67882e-20)
(0.812564 0.330512 -3.20889e-20)
(1.19815 0.216852 -3.7446e-21)
(-0.288107 -0.0127116 0)
(-0.223436 0.87003 0)
(1.06878 0.139556 -7.67102e-22)
(1.0754 -0.00211532 -1.23581e-20)
(0.89777 0.0170059 1.50969e-21)
(1.16991 0.147724 -8.68029e-21)
(0.688696 -0.0366689 5.87613e-20)
(1.02124 0.0147294 0)
(1.05957 -0.494692 0)
(1.18246 0.262018 0)
(1.11938 -0.0137471 2.00716e-20)
(-0.225091 -0.0597585 1.28049e-20)
(1.13617 -0.00635426 0)
(1.06981 0.00547893 0)
(0.967953 0.0605374 0)
(1.12318 0.00781502 3.42249e-20)
(1.31519 0.0614318 2.52185e-20)
(1.12229 0.292085 0)
(0.260031 -0.074106 3.19902e-20)
(1.10305 0.0250561 -7.47779e-21)
(1.07635 0.165718 4.24624e-22)
(-0.341155 -0.0433123 -2.74867e-19)
(0.998621 0.00333151 0)
(0.129631 -0.742925 2.31786e-19)
(0.84805 0.0351733 -9.35858e-21)
(0.525434 0.27485 0)
(1.15192 0.245024 6.83415e-21)
(0.936768 -0.00184412 6.11383e-21)
(0.953036 0.0282384 -8.1191e-21)
(1.05961 -0.00012597 0)
(0.826562 0.258506 0)
(0.345716 -0.865657 1.11112e-19)
(1.08966 0.051473 2.3547e-21)
(1.06847 0.00558626 -3.85277e-21)
(0.298948 0.0484517 1.45239e-19)
(1.14074 0.240411 -6.44364e-21)
(1.01128 0.145595 0)
(-0.113337 0.169216 8.05286e-20)
(0.951558 0.0272707 -5.18436e-23)
(-0.0746751 -0.0123447 -5.51639e-20)
(1.19108 0.0170457 5.03041e-20)
(1.13643 -0.00935621 7.21169e-20)
(1.04286 0.0972606 6.75179e-21)
(0.998771 0.00301305 6.48543e-22)
(-0.231616 -0.0398403 -1.99231e-20)
(-0.372598 -0.0596005 -4.73442e-22)
(-0.0467428 0.106625 -1.16788e-19)
(-0.0906529 0.188229 1.24115e-19)
(-0.199652 -0.0274214 1.79273e-20)
(1.06663 0.173482 -1.58266e-22)
(0.936893 0.00140639 8.19763e-21)
(0.885412 -0.173036 4.18352e-22)
(-0.168095 0.141159 -2.32342e-21)
(1.01045 0.0100629 -3.09738e-22)
(0.325362 -0.748194 1.87343e-21)
(0.544758 0.0731593 0)
(0.924235 -0.00433398 3.99086e-21)
(-0.31838 -0.0620769 3.42105e-20)
(-0.000588202 0.811041 0)
(1.04867 0.0429073 0)
(0.913604 -0.254678 0)
(0.907906 -0.253579 0)
(0.116205 -0.0570657 0)
(1.12292 0.0082777 -1.51706e-20)
(1.04037 0.152516 9.39834e-21)
(1.12397 0.00558153 -3.62607e-20)
(-0.0333725 0.100581 9.8278e-20)
(1.13394 -0.00981814 -5.33483e-20)
(1.1514 0.276713 -1.20648e-20)
(0.0572471 0.45333 6.14247e-20)
(1.11498 -0.00983257 2.26856e-20)
(-0.202604 0.0284915 -2.81866e-20)
(-0.182143 0.115696 -1.88509e-19)
(0.845735 0.481972 3.35455e-20)
(1.17861 0.127771 2.43241e-21)
(-0.279423 -0.00632397 0)
(1.1718 0.229731 -6.72655e-20)
(-0.251286 -0.00563633 2.05488e-20)
(0.639997 0.377836 1.32715e-19)
(0.849262 -0.305183 9.50921e-21)
(-0.367988 -0.0584573 1.00475e-19)
(0.8523 -0.304115 -1.2565e-20)
(0.951546 -0.188146 -3.29029e-21)
(1.2328 0.00271428 1.37714e-20)
(-0.211317 -0.0592438 3.82089e-20)
(0.186877 -0.0242657 1.64988e-19)
(1.01901 0.0890761 0)
(0.937067 -0.0014174 -7.93777e-21)
(-0.224787 -0.0695507 1.27274e-19)
(0.851115 0.242034 -5.65977e-21)
(0.592509 0.406876 9.02251e-20)
(0.800831 0.483768 7.42437e-21)
(1.00435 0.00520293 1.24893e-21)
(1.13134 0.222326 0)
(1.1513 0.0210506 -1.00222e-21)
(1.02338 0.0996127 0)
(-0.232881 0.0427643 -6.92336e-20)
(1.24572 0.0666173 0)
(1.15141 0.465902 4.61521e-20)
(-0.332214 -0.0660946 9.01833e-23)
(1.18102 0.22656 6.88734e-20)
(-0.252844 -0.0219641 -1.98854e-20)
(1.01208 0.0841198 1.0028e-22)
(-0.2077 -0.0237915 -8.43386e-21)
(0.818898 0.345613 0)
(0.824067 -0.501946 0)
(1.22591 -0.00295728 -6.85028e-20)
(-0.105746 0.437199 0)
(0.683996 0.2201 0)
(0.523895 0.285473 -9.20199e-20)
(1.01052 0.0840915 -3.33069e-21)
(1.13884 0.0324457 0)
(0.820284 -0.503112 0)
(1.04427 0.104557 -3.77925e-21)
(1.13621 0.0108652 4.6426e-22)
(0.931529 -0.152893 7.22393e-22)
(0.510461 0.179704 -3.02463e-20)
(0.884853 -0.20547 6.51857e-21)
(0.449972 0.122382 -3.3544e-20)
(1.15659 0.0252588 0)
(0.569444 0.0817789 1.32123e-20)
(0.20044 -0.027677 -1.64128e-19)
(0.145107 0.129188 -8.06065e-20)
(1.05827 -0.000643753 -3.07176e-21)
(0.250057 0.038247 5.63313e-21)
(-0.075048 0.448756 7.47546e-20)
(1.01708 0.0900749 -2.0261e-21)
(0.151851 -0.740017 -7.98002e-20)
(1.00553 0.00396584 -5.05167e-22)
(0.605925 -0.550571 0)
(-0.340025 -0.0656641 8.09132e-20)
(1.04931 0.0303792 0)
(0.521406 0.109432 0)
(1.22614 -0.0037005 0)
(0.999602 0.0561148 -5.07023e-21)
(1.12176 0.21691 -4.15115e-21)
(1.06639 0.126114 -4.99122e-22)
(1.03143 0.155482 -1.01325e-20)
(1.07285 -0.00286656 0)
(0.799986 0.439337 0)
(-0.195773 0.0617851 0)
(0.80627 -0.246456 -5.53857e-21)
(1.17013 0.0544102 7.62932e-20)
(1.04974 0.00380305 -4.29239e-21)
(1.16678 0.26211 0)
(1.07181 0.0287008 -5.0175e-22)
(0.984124 0.00301746 -7.16587e-22)
(0.891871 0.0310838 8.37465e-22)
(0.955641 -0.0947928 -1.81401e-21)
(1.19404 0.0349596 -3.24534e-20)
(1.24503 0.146133 -1.71954e-20)
(-0.0160195 0.106541 4.46892e-20)
(1.05753 0.000836281 1.36032e-20)
(0.942713 0.0932491 2.59086e-21)
(1.01465 0.0880088 1.24246e-21)
(-0.0149787 0.842505 0)
(0.572364 -0.409179 -3.67161e-21)
(0.999314 0.0550732 2.6277e-21)
(0.813606 -0.445932 0)
(1.30459 0.146698 -1.1251e-21)
(0.533801 -0.495366 1.1401e-20)
(1.13482 0.0808228 1.71487e-20)
(1.01034 0.0278127 -2.39685e-21)
(0.99409 -0.0208933 6.20116e-20)
(-0.173828 0.137459 9.43248e-21)
(0.960619 0.0366209 0)
(0.990118 0.0715241 -4.4271e-20)
(-0.314243 -0.0676025 8.66749e-20)
(1.05947 0.0120463 -3.07361e-22)
(1.26464 0.160049 -2.33634e-20)
(-0.229627 0.0437624 1.55803e-20)
(0.123422 0.144297 -4.08259e-20)
(0.997861 0.070703 6.81927e-21)
(0.0211594 0.00478856 9.78554e-20)
(0.51155 0.335796 -1.79648e-21)
(0.489885 0.368045 1.58459e-22)
(0.96329 -0.397828 7.57893e-21)
(1.10008 0.0483549 1.41256e-20)
(-0.224162 -0.0416608 -3.93608e-20)
(0.339894 0.0797215 1.56449e-20)
(0.924243 -0.00657889 0)
(1.05872 0.111656 2.7765e-22)
(-0.129876 -0.0966987 -4.03022e-20)
(1.14073 0.0870555 -4.11362e-20)
(0.83407 0.521106 5.90779e-21)
(0.889541 -0.158785 0)
(-0.379307 -0.0622584 0)
(0.959458 0.00350774 2.46914e-21)
(0.959459 0.0361216 0)
(1.05842 0.00122969 1.23514e-20)
(1.03333 -0.0265715 2.57024e-20)
(1.05841 -0.0006804 1.66215e-20)
(1.16888 -0.0642069 0)
(-0.289737 -0.015704 0)
(1.12958 -0.0528231 0)
(-0.26613 -0.00398443 -4.8074e-20)
(0.969294 0.0621309 1.62248e-21)
(1.01389 0.0874423 -3.92117e-22)
(1.08787 -0.00165114 0)
(1.11594 0.0160973 -9.48565e-21)
(1.01453 0.148311 2.13288e-21)
(0.0977412 0.10054 8.81079e-20)
(1.03528 0.00683872 -2.06994e-21)
(0.358654 0.115016 1.96229e-21)
(1.02031 0.0515166 0)
(1.03561 -0.016458 -2.12596e-20)
(1.16437 0.366738 1.07178e-20)
(-0.201869 0.0454324 0)
(0.949924 0.0299439 2.96704e-21)
(1.23233 0.068872 0)
(0.350603 -0.0576052 0)
(1.17813 0.0230711 2.50775e-20)
(1.0863 -0.00339295 0)
(1.05506 0.015833 8.53054e-21)
(1.21408 0.103658 -2.3299e-20)
(1.24741 0.372299 0)
(0.530132 -0.510353 1.75558e-20)
(1.32033 0.0927635 1.83583e-20)
(1.30652 0.0715374 -8.5944e-21)
(1.05415 -0.000675964 0)
(1.0603 0.105485 1.43436e-21)
(1.2359 0.0120598 -1.54284e-20)
(-0.14497 0.658624 9.54451e-20)
(0.56618 -0.548637 0)
(1.00686 0.0236618 0)
(0.993572 -0.515109 3.47438e-21)
(1.03838 0.0697742 6.10135e-22)
(-0.115473 0.194139 0)
(1.04984 -0.421119 0)
(1.31085 0.108772 -1.79068e-20)
(-0.121057 0.471343 2.84305e-20)
(0.783679 -0.241204 7.13241e-21)
(1.15753 0.142188 9.10444e-21)
(1.19198 0.0205761 0)
(0.856481 -0.227314 4.69373e-21)
(-0.15793 0.183631 -3.64496e-20)
(0.178556 0.00959246 -2.44345e-20)
(1.05479 0.0152672 -8.12756e-21)
(1.13607 0.0117955 -9.34068e-22)
(1.08617 0.0581059 -3.69562e-21)
(1.17759 -0.0120617 1.40097e-20)
(-0.188565 0.0342805 0)
(-0.123424 -0.0446918 -4.38181e-20)
(0.627991 0.121184 0)
(1.03826 0.00322714 4.83144e-21)
(1.08227 0.0616859 3.4708e-21)
(1.215 0.150991 0)
(0.314557 0.0598567 -2.98808e-19)
(0.164982 0.0750394 -2.09995e-20)
(1.10762 0.027161 -3.65132e-21)
(0.974989 -0.0793467 -2.00923e-21)
(1.11108 0.0146631 4.85357e-21)
(1.01948 0.0532019 -1.89782e-22)
(0.970541 0.119022 -5.73885e-21)
(1.20606 0.0342679 -5.93323e-20)
(0.887916 0.0289644 -3.92802e-21)
(-0.161634 0.172498 0)
(1.29948 -0.00962819 2.55704e-20)
(1.12244 0.0240759 0)
(1.01421 0.0109035 -1.91429e-23)
(0.31969 -0.703905 4.29568e-20)
(1.05803 0.102706 -7.78747e-22)
(0.825635 -0.554912 1.97458e-20)
(0.989974 0.136044 2.36447e-23)
(-0.209696 0.0378032 3.34775e-20)
(1.05717 0.0842844 -4.87554e-21)
(1.0623 0.000605653 1.27071e-21)
(0.903049 -0.0397256 1.88893e-22)
(1.00457 0.0233248 0)
(1.24134 0.386255 0)
(1.1013 -0.00488678 -3.75081e-20)
(0.85685 0.226765 0)
(0.937729 0.00107166 -1.11294e-20)
(0.91071 -0.0691883 0)
(0.163119 0.014714 2.48553e-20)
(1.19492 0.0648689 -1.17201e-22)
(0.979207 -0.0396434 4.34108e-20)
(0.938536 -0.00229148 9.75437e-21)
(0.941835 0.0259505 -6.05237e-21)
(-0.249122 0.864616 -1.70088e-19)
(1.12677 0.471646 1.43677e-20)
(0.685978 -0.0109596 5.1969e-21)
(0.723408 0.0866019 5.76783e-20)
(1.02305 -0.177755 0)
(1.00392 0.0216215 -9.02091e-22)
(1.01902 0.0205091 -5.13709e-24)
(0.460978 0.179962 -3.03644e-20)
(1.10984 0.0154509 1.78288e-22)
(1.01777 0.0208652 0)
(1.1245 0.0247078 1.54506e-20)
(1.22799 0.166623 5.648e-21)
(1.31922 0.142079 1.1361e-20)
(1.08215 0.0629257 0)
(1.17141 0.0242456 -4.40258e-20)
(1.10449 0.0213509 0)
(0.973224 0.0612006 -4.01409e-21)
(-0.175312 -0.00871499 -6.89103e-20)
(0.373132 -0.0853312 0)
(1.12249 0.00463776 -2.09737e-20)
(0.876821 -0.043062 7.13509e-21)
(0.973623 0.114789 4.42428e-21)
(0.545914 -0.430015 0)
(0.930225 0.0118932 -7.41031e-21)
(0.996194 0.127214 -2.37497e-21)
(-0.0880079 0.632561 2.14607e-21)
(0.997634 0.0477287 3.86356e-21)
(1.12868 -0.0348153 9.39465e-21)
(0.351149 0.0600029 1.4696e-19)
(1.01836 0.0157788 2.25673e-22)
(1.1266 0.0865653 -2.76834e-20)
(-0.230779 -0.0124552 -4.30301e-20)
(-0.140083 -0.069905 -7.42923e-20)
(-0.0647275 0.304196 0)
(-0.181882 -0.03491 7.04117e-20)
(1.07895 0.0663858 1.2347e-21)
(-0.118581 0.332217 1.19407e-19)
(1.17313 -0.00855479 -2.83905e-20)
(1.04789 0.120039 -1.01006e-22)
(-0.187054 0.115964 0)
(1.01134 0.0120777 4.24719e-22)
(0.567162 0.104932 0)
(0.855681 -0.440132 0)
(-0.270356 0.724204 -1.60903e-19)
(1.08048 -0.145333 -3.93128e-21)
(-0.118328 0.624681 0)
(1.15213 0.0278062 -3.14223e-20)
(1.11073 0.0548118 1.61111e-20)
(1.19924 0.0164784 1.96545e-20)
(0.996639 -0.195276 -2.20148e-20)
(0.199395 0.231561 0)
(0.959399 -0.0708299 0)
(0.873911 0.211805 0)
(-0.10117 0.462138 5.97304e-21)
(1.02238 0.00652649 -1.52621e-21)
(0.320765 -0.884272 0)
(1.07216 0.0656331 0)
(-0.365602 -0.0706416 1.29273e-19)
(0.949189 0.0301631 -4.52496e-21)
(1.10539 0.0221047 0)
(1.05649 0.035871 -4.86772e-21)
(-0.183557 0.0669526 5.53406e-20)
(0.797869 0.349451 2.52125e-19)
(1.08355 -0.00343331 0)
(0.233254 0.230798 6.56728e-20)
(1.10163 0.0154871 -1.16964e-20)
(0.946087 -0.227963 3.17742e-20)
(0.168858 0.0525878 1.98063e-20)
(1.0967 0.188555 1.89357e-21)
(1.13524 -0.00274363 0)
(0.732471 0.277086 2.479e-20)
(1.05374 0.0167904 0)
(0.991432 0.343259 4.80695e-21)
(1.0555 0.000235791 0)
(0.969631 0.34513 0)
(0.998525 0.0492718 -6.13636e-21)
(1.11754 -0.137442 2.4552e-20)
(1.10333 0.0209359 0)
(0.992949 -0.458873 0)
(1.30479 -0.292901 9.80136e-21)
(1.13822 -0.00226434 2.56442e-20)
(1.02224 0.0163878 -6.06486e-22)
(1.01748 0.025718 -7.14383e-22)
(1.09273 0.05326 -1.03493e-21)
(1.29086 -0.319414 -2.20849e-20)
(1.14467 -0.0527967 1.23629e-22)
(1.19333 0.0664255 2.941e-22)
(1.10415 0.0182439 -1.32541e-21)
(1.11644 0.0027105 0)
(0.891733 -0.0368332 -1.18788e-20)
(-0.00604372 0.759575 4.10448e-19)
(-0.279135 0.705435 1.42506e-19)
(0.708296 0.119539 -2.65548e-20)
(-0.360183 -0.0705641 0)
(0.872757 -0.130846 4.08235e-20)
(1.02848 0.143682 -1.47633e-22)
(1.12254 0.0215823 0)
(0.987025 0.0534358 2.78653e-21)
(0.844691 -0.179187 -1.84082e-21)
(-0.178327 -0.0382217 -8.40443e-20)
(0.96483 0.00325111 -4.51538e-21)
(-0.0673308 0.00133242 -1.34157e-20)
(1.08892 0.180974 0)
(0.969015 0.12004 -1.2844e-20)
(1.11212 0.0138179 -1.79842e-20)
(0.962961 0.0389085 0)
(1.14595 0.0302058 3.57561e-22)
(1.24027 0.0270794 0)
(1.25039 0.063166 2.35903e-21)
(1.05594 0.00114295 0)
(0.948946 0.0641411 -7.2982e-21)
(0.157191 0.0437314 -2.18704e-20)
(0.794571 -0.3515 0)
(0.568494 -0.549767 0)
(0.54053 0.0942497 0)
(0.833907 -0.552822 -1.67689e-20)
(0.937553 -0.00405303 0)
(0.971813 -0.0159648 -1.66108e-20)
(1.05382 0.0173167 1.76235e-21)
(1.11986 -0.0354446 -9.46752e-21)
(1.35402 -0.0777251 -2.7685e-21)
(0.960707 0.129285 0)
(1.14141 -0.129731 -6.90996e-21)
(1.24178 0.0346383 -5.22805e-20)
(0.303453 0.0188612 -8.67693e-20)
(-0.167029 0.13337 1.21666e-19)
(0.925493 -0.00923221 -1.84672e-21)
(1.16541 0.410161 -8.55824e-21)
(0.966806 0.108933 3.7675e-21)
(-0.108903 0.185167 1.68686e-20)
(1.15708 -0.0512664 1.27856e-20)
(0.690086 0.360049 -2.40448e-19)
(1.04495 0.0181311 2.33835e-21)
(0.992139 0.112705 2.70807e-21)
(1.05902 -0.00130179 3.67827e-21)
(1.11316 0.44397 6.76768e-20)
(1.11145 0.0151011 2.3772e-20)
(-0.264286 0.00393275 -8.11238e-20)
(0.083503 0.677668 9.60743e-21)
(1.04542 0.130126 -5.34064e-21)
(1.01948 0.0147099 -2.37052e-22)
(0.992303 0.0505393 -7.56114e-21)
(0.296741 0.0266969 0)
(1.04721 0.140184 2.74578e-21)
(-0.107479 0.871847 0)
(0.935265 0.0878752 0)
(0.0602563 0.0230408 -1.00174e-19)
(0.728857 0.282705 -7.53475e-21)
(-0.0583451 0.316124 3.64554e-20)
(-0.317336 -0.0669079 -7.25788e-20)
(0.0885585 0.4288 0)
(-0.0696656 0.345413 -3.9046e-20)
(1.12189 0.10355 0)
(1.05832 -0.00137844 -7.08952e-21)
(0.99382 0.0512038 0)
(1.11153 0.126184 0)
(1.06237 0.0335637 2.9228e-21)
(1.01293 -0.0131453 5.02093e-20)
(-0.299077 -0.0696218 7.44933e-20)
(1.08539 -0.00501207 0)
(0.558138 0.131262 1.59717e-19)
(0.613215 0.131895 5.11928e-20)
(0.0112786 0.818403 -1.8275e-19)
(1.0385 0.0197685 0)
(1.0604 0.0347997 -2.98144e-21)
(1.04013 0.0195863 0)
(0.0754123 0.561127 -4.8005e-20)
(1.11979 0.0829023 4.93308e-20)
(1.00761 0.0253941 -8.1585e-22)
(1.09933 -0.00356009 1.24545e-20)
(-0.177142 0.692484 -1.55202e-19)
(0.99114 0.00606244 0)
(-0.205052 0.0514965 3.61605e-21)
(1.1124 0.20507 -3.22482e-21)
(1.12061 0.0580636 3.32361e-21)
(1.08306 -0.0538691 -1.22415e-20)
(1.07155 -0.00204837 0)
(1.0468 0.0176961 0)
(1.06998 0.00674867 0)
(1.12767 -0.0234914 1.89624e-21)
(1.12737 0.0243043 -1.96135e-20)
(0.938879 -0.00219169 -1.78857e-20)
(1.00585 0.149113 3.63636e-21)
(1.00127 0.0194845 -1.11123e-21)
(1.21957 0.115614 -1.75422e-23)
(1.14878 0.021331 0)
(1.0187 0.00498578 0)
(-0.0258272 -0.0531383 0)
(0.151551 0.0641437 1.41601e-21)
(1.01193 0.0282749 8.04773e-22)
(-0.311754 -0.0595691 0)
(1.11638 -0.00749647 -9.84229e-21)
(1.01822 0.00490456 0)
(1.01598 0.0258481 0)
(1.15033 0.108534 -5.54052e-21)
(0.998622 0.0700238 -8.4799e-21)
(1.11108 0.016449 0)
(1.19857 0.0265765 7.8143e-20)
(1.00739 0.0287088 1.96357e-21)
(-0.36543 0.438738 -1.62924e-19)
(1.11501 0.0979618 2.3147e-21)
(-0.0414326 0.354731 5.04893e-20)
(-0.156197 0.105101 8.37715e-20)
(1.19402 0.0144135 -6.09541e-20)
(1.19158 0.0435926 8.39204e-20)
(0.946161 -0.0044107 -1.12462e-20)
(-0.126961 0.627886 0)
(0.0735619 0.562621 1.53893e-19)
(1.10425 0.0606136 0)
(0.974295 -0.0123874 2.49367e-20)
(0.989589 -0.029304 1.93166e-21)
(1.08268 0.356559 1.31627e-20)
(1.10209 -0.0914909 -1.13543e-20)
(1.0706 0.00748445 0)
(0.874965 -0.4891 1.48019e-21)
(0.96223 -0.121012 -1.55667e-21)
(1.10352 0.197912 -1.76365e-21)
(-0.385947 -0.0699405 6.43294e-20)
(1.10078 0.0256269 1.11243e-20)
(1.0241 0.00706722 1.6352e-21)
(1.05253 -0.0356922 0)
(-0.377417 -0.0694255 1.21472e-19)
(1.00829 0.081114 1.9941e-21)
(-0.0659484 0.360887 0)
(1.34519 0.0445661 -1.23017e-21)
(-0.231647 -0.0221558 -1.8224e-20)
(1.03965 0.152672 -7.10521e-21)
(1.35676 -0.135553 0)
(1.13226 -0.0182996 -1.61997e-21)
(1.11521 0.0154454 -8.74034e-21)
(-0.0898793 0.0393913 0)
(-0.0767427 -0.00447645 1.78207e-21)
(0.701591 -0.0337616 2.13336e-22)
(1.07445 0.0113333 4.9465e-21)
(-0.303002 -0.067922 0)
(0.959253 -0.00542261 4.46481e-20)
(1.2752 0.0366562 9.04272e-20)
(0.965397 0.108194 -3.91269e-21)
(1.1509 0.0112512 -7.20236e-20)
(1.10041 -0.00668512 -6.2332e-21)
(1.14321 0.0189901 0)
(0.916633 -0.0337558 9.50871e-23)
(0.445701 0.297962 0)
(0.993247 0.00534958 0)
(-0.161004 0.145407 -6.88521e-20)
(1.10539 0.010923 -1.65615e-20)
(-0.170842 0.690233 0)
(1.07005 -0.00090187 0)
(1.03571 0.0182162 0)
(0.751393 0.382515 0)
(-0.108598 0.424297 0)
(1.19871 0.105316 0)
(1.35563 -0.144722 4.13234e-21)
(0.770263 -0.949625 1.7969e-19)
(1.09067 -0.0511147 9.5003e-21)
(0.841565 0.350012 -2.27742e-19)
(1.00916 0.0827282 0)
(0.722315 0.388171 0)
(-0.161585 0.0942626 -4.40764e-20)
(1.05296 -0.0138953 1.51049e-20)
(-0.230861 -0.00349896 -1.92093e-20)
(-0.124815 -0.0693915 -7.36942e-20)
(0.0311339 0.343071 -3.22931e-21)
(1.06574 -0.338031 1.7172e-20)
(1.08842 0.322285 0)
(1.12158 0.00114974 -1.89646e-21)
(1.01573 0.0139793 0)
(-0.0573535 -0.0274573 0)
(0.0672045 0.414659 -3.68372e-21)
(0.977356 0.320419 1.26163e-19)
(0.909299 0.10937 3.94354e-23)
(0.28353 -0.565977 0)
(1.14252 0.0276119 -2.29126e-20)
(0.989867 0.139828 -2.82553e-21)
(1.00454 0.0765353 -9.05547e-21)
(1.14532 0.0194249 0)
(1.14226 0.0993521 0)
(1.08071 -0.0104856 1.15158e-20)
(-0.0532686 -0.0377305 -1.19724e-19)
(-0.0694291 -0.0239778 0)
(1.11133 0.31706 5.60614e-21)
(0.2438 0.0811721 -1.73277e-20)
(0.931533 0.0120812 7.75071e-21)
(0.147141 0.0225859 1.56284e-20)
(1.00344 0.0751093 0)
(1.15842 0.264174 -1.3406e-19)
(0.637624 -0.321773 1.85768e-20)
(1.11669 0.0576464 1.55876e-21)
(0.918865 -0.0899784 7.50591e-21)
(0.986431 0.0517198 2.88817e-21)
(0.925793 -0.0974852 0)
(-0.0556343 0.614868 7.6368e-20)
(1.0168 0.0522354 -1.29089e-21)
(0.467119 -0.927104 0)
(0.742261 0.124755 -2.97664e-21)
(1.05223 -0.0272797 2.09754e-21)
(1.18229 0.0208948 5.49238e-20)
(1.14744 -0.333399 5.5424e-21)
(0.498568 -0.930606 0)
(1.35781 0.0677492 -3.35364e-21)
(0.706393 0.460765 -9.55807e-20)
(1.07873 0.0681242 -1.36365e-21)
(1.0338 0.00693266 0)
(1.0447 0.0194294 -6.87928e-23)
(-0.365482 -0.0633413 -2.98555e-19)
(1.05531 0.00137072 -1.16515e-21)
(1.31185 -0.0250341 1.06736e-20)
(1.17196 0.0557193 0)
(1.01613 0.0535114 -9.72421e-22)
(0.925539 -0.0109967 2.25503e-21)
(1.06351 -0.00115572 0)
(1.00184 0.0212891 1.01948e-21)
(1.06538 -0.395515 -3.51274e-21)
(1.13452 0.00162914 0)
(0.837364 -0.578911 0)
(0.792297 -0.353139 -1.13113e-20)
(1.03613 0.328025 -1.34996e-19)
(1.05137 0.00353527 0)
(0.965287 0.110177 1.66198e-20)
(-0.0958624 0.111825 0)
(1.27644 0.0503819 -1.47745e-19)
(0.210472 0.0021613 -1.01749e-19)
(0.688066 0.0354445 7.06478e-21)
(1.10709 0.00985248 -6.10832e-21)
(0.675598 0.0265259 -1.05308e-20)
(1.09817 0.0147787 -1.19318e-20)
(-0.23005 -0.0234259 4.83993e-20)
(1.12127 0.0202185 -3.36213e-22)
(0.610887 -0.340133 0)
(1.1243 0.420792 -1.25208e-20)
(0.0732824 -0.0519699 0)
(1.13259 -0.0140833 1.42957e-20)
(1.04041 0.0182512 3.9004e-21)
(-0.152208 0.673658 -8.32985e-20)
(1.09308 0.0139185 1.23196e-20)
(0.203799 -0.0379398 0)
(1.07083 0.0294009 5.03692e-21)
(0.998666 0.0523317 0)
(0.301005 -0.54151 0)
(0.946383 -0.418053 -7.6426e-21)
(1.11816 -0.142223 0)
(1.00602 -0.0445909 2.7555e-20)
(1.12858 0.158015 0)
(-0.357147 -0.0622454 1.59766e-19)
(-0.0944732 0.517492 -8.36737e-20)
(-0.0515223 0.843045 -1.23451e-19)
(0.609257 -0.535802 5.3459e-21)
(1.04037 -0.0127721 -9.5549e-21)
(0.960193 0.00269048 0)
(1.15801 0.0503864 3.60011e-20)
(0.745325 0.487533 7.66172e-20)
(1.31311 0.175697 0)
(1.00022 -0.395266 0)
(1.08013 -0.00436433 1.71621e-20)
(1.28611 0.197176 0)
(-0.0148189 -0.0563408 7.21589e-20)
(1.22209 0.107416 -3.32219e-22)
(1.05672 -0.000948595 -1.87398e-21)
(-0.108765 0.447405 0)
(-0.0709 0.01611 -1.05867e-19)
(1.23085 0.0898339 0)
(1.09641 0.0149457 0)
(1.14123 -0.0532473 -1.26063e-20)
(1.07186 0.028012 7.7007e-22)
(1.08893 0.0299423 -5.69586e-21)
(1.13484 -0.0127248 -1.15607e-20)
(1.12776 -0.0441799 0)
(1.10224 0.00754989 2.82962e-20)
(1.03603 0.0691246 -6.09074e-22)
(0.230052 0.000731602 1.64226e-19)
(1.12111 -0.0203832 -4.44979e-21)
(1.18326 0.173174 -4.97221e-21)
(-0.230847 0.435044 0)
(0.807195 0.0405982 1.33553e-20)
(0.949388 0.0653831 -1.49901e-21)
(1.01383 0.00737436 1.13958e-24)
(1.05844 0.0372789 0)
(0.230352 0.0410984 1.774e-20)
(0.000508952 0.470461 -8.80129e-20)
(0.900652 0.105091 1.98961e-21)
(1.13716 0.360726 -2.03067e-21)
(0.941039 0.0840822 0)
(1.03926 0.114233 -2.17679e-20)
(1.03365 0.000979309 4.2962e-21)
(-0.0486146 -0.0463979 0)
(1.12042 0.0193045 1.28196e-20)
(-0.220631 0.03168 0)
(1.01138 0.00921853 0)
(-0.245436 -0.00782333 -2.02028e-20)
(1.05571 0.0137483 -4.38941e-21)
(1.05877 0.110523 -1.25925e-21)
(1.10737 0.302601 9.90615e-21)
(0.950047 0.0725295 -6.08859e-21)
(1.05739 -0.000677242 0)
(1.01324 0.0269108 5.57454e-23)
(1.1358 0.00566545 -2.46438e-20)
(1.04578 -0.0100598 0)
(-0.284979 -0.0690561 -1.06742e-19)
(-0.212462 0.0358606 0)
(-0.340645 0.0346901 0)
(1.00188 0.0735086 -4.39487e-23)
(0.961608 0.0384189 5.51437e-21)
(-0.280896 -0.00435177 0)
(1.01267 -0.431532 0)
(1.11112 -0.147671 2.67249e-22)
(0.985256 -0.0582423 -3.83845e-21)
(-0.132645 0.630862 -6.2504e-20)
(1.04011 0.0881829 -8.09768e-21)
(0.897349 -0.161241 -3.26138e-21)
(-0.247439 -0.0240801 -2.26641e-20)
(1.11871 0.00349111 0)
(1.15381 0.269193 9.83719e-21)
(0.094533 -0.13556 -1.61671e-19)
(0.930961 0.00489911 0)
(1.12355 0.0254384 0)
(-0.0181911 0.152121 -8.64782e-20)
(1.20756 0.171238 -9.81176e-22)
(0.991008 0.0539116 2.74116e-21)
(-0.445474 0.415961 6.0067e-20)
(-0.158518 -0.00638708 6.78805e-20)
(1.06232 -0.00417948 1.10217e-20)
(-0.109657 0.437747 -5.72993e-20)
(0.93009 0.00379271 0)
(1.15015 0.0529528 7.22435e-22)
(0.969291 0.102426 -6.87998e-21)
(1.11867 -0.509176 0)
(0.874375 0.32484 2.03978e-20)
(1.22149 0.0835944 7.3615e-21)
(1.02888 -0.00937004 1.83978e-20)
(1.11854 0.0282889 -7.75772e-21)
(1.12155 0.0079919 0)
(0.949003 -0.116102 1.80604e-21)
(-0.350938 -0.0563737 -9.06867e-20)
(1.06007 0.00340302 -4.00423e-21)
(0.716642 -0.80729 4.39336e-20)
(0.859559 0.00662372 8.95534e-21)
(1.29296 -0.0226696 0)
(1.13029 -0.0438314 0)
(0.997718 0.0504092 2.48354e-21)
(-0.243357 0.00151203 0)
(1.00094 0.00281077 -1.1167e-21)
(1.17696 0.0295785 0)
(1.33908 -0.203664 1.26586e-20)
(0.918717 0.0487622 0)
(0.99771 0.0445509 -1.03149e-21)
(-0.196536 0.465838 -1.00998e-19)
(-0.143386 0.668277 -1.06588e-20)
(-0.150381 0.206592 3.43881e-20)
(0.863112 -0.161138 1.19615e-23)
(0.996245 0.12547 0)
(1.19167 -0.246945 0)
(1.15635 0.0276991 0)
(1.09928 0.027967 -6.42371e-21)
(1.05486 0.111225 0)
(-0.154746 -0.0595425 -1.43831e-22)
(-0.079342 0.00896724 1.49353e-19)
(1.17081 0.170241 -3.45471e-21)
(1.26711 0.187985 1.58303e-20)
(1.04988 0.0975387 2.18651e-21)
(0.0533718 0.0419595 -1.27979e-19)
(-0.245887 -0.0165484 0)
(1.06335 -0.00335114 2.16006e-20)
(-0.110675 0.217455 5.58321e-20)
(1.11603 0.00561705 -1.55162e-20)
(0.116747 0.087935 6.50534e-20)
(0.983899 -0.0623656 -3.36435e-21)
(1.13016 0.0183537 1.84121e-20)
(0.996504 0.107206 0)
(1.10222 -0.00463457 0)
(0.88919 0.0207041 -6.02485e-20)
(0.737367 -0.39775 0)
(0.894893 -0.494405 -2.74856e-21)
(-0.164331 0.0335768 5.93238e-20)
(0.64907 0.117759 1.36559e-19)
(0.423978 0.332072 -5.93315e-23)
(1.06237 0.0797599 2.2393e-20)
(1.16625 0.0630191 4.54983e-20)
(1.17812 0.0336448 2.76628e-22)
(1.18635 -0.220521 0)
(-0.175426 0.105928 1.87916e-20)
(1.01476 0.0270927 5.7469e-22)
(-0.258364 -0.139032 1.35253e-20)
(1.06508 0.0561676 0)
(1.05892 0.00033098 0)
(1.08273 0.00253608 -8.02815e-21)
(1.16845 0.0240506 7.26535e-20)
(-0.365074 -0.0707175 0)
(1.06371 -0.00126758 0)
(1.0101 0.0100738 4.74338e-21)
(0.946728 0.343621 -1.23713e-20)
(1.05737 0.0946026 -1.66705e-21)
(1.05193 0.131622 -2.23103e-22)
(0.930992 -0.0195073 0)
(0.36737 0.0714618 0)
(1.03178 0.0700516 -1.54221e-21)
(1.03403 0.0706106 -1.44072e-21)
(-0.010798 0.121635 4.41282e-20)
(1.03274 0.0208411 -2.83593e-21)
(1.07031 0.00604766 9.46802e-21)
(1.07305 -0.154029 1.4102e-21)
(1.13572 0.00198109 1.43631e-20)
(1.10752 -0.0209902 0)
(1.33556 -0.219087 0)
(0.187934 -0.0354818 -2.28101e-20)
(-0.349991 -0.0699256 0)
(0.588877 -0.552856 -1.59833e-20)
(1.01682 0.0124788 6.19736e-23)
(1.01202 0.00445211 0)
(1.20113 0.11787 -1.74744e-21)
(1.14961 0.276186 -1.22859e-19)
(-0.152736 -0.0671322 0)
(1.06733 0.00338865 0)
(-0.407503 0.457038 -6.96549e-21)
(1.11299 0.0549951 9.48553e-23)
(1.13711 0.00598278 1.29309e-20)
(0.0219791 0.481267 -2.13219e-20)
(1.0595 0.00378744 1.23058e-20)
(1.12633 -0.266956 -5.61712e-21)
(1.13997 0.0382438 0)
(0.950668 0.00465367 1.70617e-21)
(1.03399 0.0228592 1.16062e-21)
(1.0599 0.0711459 0)
(0.953685 0.340329 -1.16983e-21)
(-0.421972 0.322588 -5.99083e-20)
(0.940415 0.00237482 2.2527e-22)
(0.932908 -0.0261986 -3.62896e-22)
(0.734381 0.134038 0)
(1.21866 -0.0880204 0)
(1.12218 0.0119799 0)
(1.14837 -0.311084 0)
(1.07559 0.0108129 5.66472e-21)
(1.09711 0.0272431 -7.10404e-21)
(1.00944 -0.0119938 0)
(0.864892 -0.161819 9.24184e-21)
(-0.175305 0.0791485 -5.62765e-20)
(-0.100795 0.492863 1.03326e-19)
(0.976574 -0.050184 -1.90533e-21)
(1.06273 0.0541367 5.47946e-22)
(1.15491 0.0162339 9.47283e-20)
(0.860958 0.0267209 -4.12796e-21)
(1.17228 -0.00944735 -2.75673e-20)
(1.12804 0.0198917 1.92349e-20)
(1.10034 0.00791413 1.78347e-20)
(0.884183 0.090862 0)
(0.90008 0.335101 0)
(1.05824 0.0711107 0)
(0.110457 0.759917 0)
(1.36205 -0.093455 -2.21084e-20)
(0.943035 -0.00392362 0)
(1.15518 0.0118569 3.97696e-20)
(1.06753 0.00474974 -8.20068e-21)
(1.28554 -0.0153629 1.07882e-19)
(0.960385 0.0697408 0)
(0.991989 0.115328 -2.76829e-21)
(1.15065 0.02053 -8.2201e-20)
(1.03461 0.296054 3.71804e-21)
(1.00211 0.0742863 0)
(1.11762 -0.00729843 0)
(0.692041 0.236178 -1.5683e-21)
(1.02744 0.0704647 3.36245e-21)