/*--------------------------------*- C++ -*----------------------------------*\
| =========                 |                                                 |
| \\      /  F ield         | OpenFOAM: The Open Source CFD Toolbox           |
|  \\    /   O peration     | Version:  v2012                                 |
|   \\  /    A nd           | Website:  www.openfoam.com                      |
|    \\/     M anipulation  |                                                 |
\*---------------------------------------------------------------------------*/
FoamFile
{
    version     2.0;
    format      ascii;
    class       volScalarField;
    location    "200";
    object      ddt0(k);
}
// * * * * * * * * * * * * * * * * * * * * * * * * * * * * * * * * * * * * * //

dimensions      [0 2 -3 0 0 0 0];


internalField   nonuniform List<scalar> 
14315
(
-0.00236759
0.00017218
-1.0922e-06
-1.56451e-06
8.40745e-06
-3.01587e-07
1.97555e-05
-4.86415e-07
-1.56428e-06
-1.18058e-06
-2.89324e-06
-1.01802e-06
-0.00658933
4.09697e-08
6.22446e-06
-6.59565e-10
-1.87093e-07
-8.30983e-08
8.93462e-07
-9.24624e-08
-8.75821e-08
-0.000306896
7.40193e-06
-9.30002e-07
7.595e-06
0.000148508
-1.42599e-08
1.80924e-05
3.72064e-07
-5.63373e-06
-2.58603e-06
4.5989e-08
-6.27964e-08
0.000414407
1.94495e-05
0.00050639
4.36398e-05
1.10794e-07
6.98972e-06
-5.9215e-06
-1.26899e-06
4.40081e-05
-1.17048e-07
5.21363e-07
-4.67422e-07
-1.35111e-06
-1.07605e-06
1.2208e-05
1.06327e-05
-6.65703e-08
8.46845e-06
-7.63573e-06
4.51846e-06
6.53656e-06
-1.93119e-06
0.0005481
2.94453e-05
2.12731e-06
-1.67372e-07
4.36233e-07
-4.52235e-05
0.000577739
0.000159244
1.68056e-07
-2.32445e-05
1.54655e-05
-0.00369398
3.80337e-09
1.84075e-07
-1.87159e-06
6.16529e-06
4.18444e-06
1.69738e-05
-0.000140593
-1.39517e-07
0.000389208
-1.09432e-06
-0.00161553
2.96371e-06
2.41008e-07
-2.57666e-09
6.69718e-05
1.80815e-06
-0.00170974
-2.19659e-07
1.03355e-06
0.000358621
6.63393e-06
5.83041e-06
-4.61367e-07
2.44113e-06
3.92594e-08
-3.07476e-08
-6.1997e-07
-4.4579e-06
-1.04697e-06
1.22426e-08
-3.81771e-05
-1.56187e-05
1.7283e-06
6.19876e-08
1.4859e-05
0.000203565
4.3986e-09
-1.14723e-06
-2.67896e-05
9.28064e-05
8.88248e-07
1.58248e-06
1.3607e-05
-1.40412e-06
-2.18705e-08
0.000115443
7.06547e-08
5.36031e-07
5.82433e-06
-2.6016e-08
5.40311e-06
-9.00144e-05
3.07076e-06
-0.000286226
-2.76716e-06
4.99716e-08
-3.99816e-06
5.60786e-07
3.07405e-07
-5.66373e-07
7.35541e-09
1.88309e-08
8.66727e-07
7.62759e-06
-0.000231923
4.41775e-05
2.34912e-06
-3.95109e-06
1.85743e-07
-2.04189e-07
-2.47297e-05
-1.98541e-07
-1.4822e-08
-1.58328e-05
-4.07339e-06
2.25845e-08
-4.3598e-05
1.79269e-05
6.52918e-06
-4.78479e-06
-0.000253581
-2.25333e-06
1.1271e-06
3.98148e-06
1.25359e-05
-7.95598e-07
-1.564e-06
9.79924e-06
4.92172e-06
-2.7633e-07
9.61892e-09
2.63412e-08
5.37624e-05
-1.13055e-07
6.7376e-06
-0.00260768
-2.27399e-06
1.78132e-06
4.87941e-07
4.64169e-06
4.68043e-07
-4.2376e-05
-0.000196523
-0.00636171
3.0524e-09
7.28324e-06
-1.15523e-07
-5.13216e-06
1.02832e-05
5.50777e-09
-0.000132604
-0.000122892
7.51002e-06
-4.24658e-05
-7.84303e-07
1.36988e-08
0.00324338
-1.92081e-06
1.45931e-07
-1.09626e-06
-0.000300867
3.53098e-05
0.000596354
8.05446e-06
-2.27228e-07
-4.95251e-07
2.34524e-05
-1.12568e-08
-1.28993e-05
2.93653e-05
1.17713e-06
7.17195e-10
-1.5392e-06
-4.48064e-06
-9.1119e-07
-2.12404e-06
-7.57274e-07
7.27088e-07
9.56585e-05
-2.58212e-06
-5.3526e-06
4.27609e-09
-5.48242e-06
-7.89304e-05
-5.54852e-07
-4.02333e-06
1.38123e-05
1.68354e-05
-0.000120596
-7.65364e-05
-1.76813e-05
1.48934e-05
-1.53183e-05
-1.76933e-06
2.04934e-06
-3.34448e-06
-3.52999e-08
0.000449908
-1.41499e-06
1.42188e-06
0.00267541
3.20901e-05
-0.0065346
6.63203e-07
-8.99909e-07
1.47822e-06
-4.15118e-11
-2.70644e-10
-9.12724e-07
6.11273e-06
-5.69003e-06
-6.41753e-07
-9.18473e-07
-7.42892e-07
2.91872e-06
-0.000134476
-1.21468e-06
-4.7646e-05
3.91397e-07
0.000296568
-6.06609e-11
-3.54702e-06
0.00446633
-1.15334e-08
1.53488e-08
0.000206191
8.37822e-07
8.09217e-08
-1.95369e-05
-1.00308e-06
2.64806e-05
9.05317e-05
1.09828e-05
1.24401e-05
-3.83874e-06
-4.51856e-06
0.00451555
0.000656897
2.98713e-06
3.98828e-06
3.05118e-06
4.33002e-07
1.66582e-05
0.000123492
-9.6951e-07
0.000778058
6.46984e-06
1.98651e-07
-0.00020851
2.58255e-06
5.37355e-06
2.78069e-05
4.97415e-05
-4.88817e-07
1.10481e-07
5.37615e-06
5.48633e-05
-1.27226e-07
-2.07698e-06
-7.53251e-05
0.000126034
3.06746e-06
0.000317468
-4.70443e-06
1.1542e-06
-1.56524e-06
5.80891e-05
-2.1784e-05
-9.90244e-06
3.01593e-07
8.07156e-06
1.84234e-08
-3.15443e-08
-2.3911e-07
2.00008e-06
0.000962326
0.000132191
-2.56643e-07
-4.9362e-08
6.98566e-06
-0.00022723
1.62097e-09
-1.9204e-08
-0.000308116
6.34082e-08
-9.59064e-05
-1.21988e-07
-5.02038e-06
-0.000262084
-6.88753e-08
4.14743e-06
-2.10753e-06
5.9288e-09
-4.37824e-06
3.4573e-05
-6.17107e-06
-2.56145e-06
-0.0148963
-5.11258e-08
-1.10233e-08
1.82303e-05
6.8924e-07
-1.90319e-08
2.59013e-06
8.92032e-06
-2.72548e-08
9.67958e-06
-4.69979e-05
6.68861e-08
-2.43425e-06
0.000167103
0.00044383
-2.15485e-05
1.04337e-06
-0.00317095
-1.1939e-08
-5.0913e-11
-0.00129207
9.66062e-10
1.6276e-08
-0.00873205
-2.10727e-05
-2.54116e-06
9.71272e-09
-3.11792e-07
4.91781e-06
1.4427e-06
-8.01146e-06
2.8839e-09
6.2954e-07
-1.26563e-09
-1.59671e-09
1.88759e-05
-2.90421e-07
0.000153158
-0.00148625
0.000585973
2.96504e-05
0.000102677
3.29219e-08
-1.05655e-06
4.92331e-06
-3.29558e-06
-5.63783e-05
-5.70397e-07
1.37742e-08
-0.000157685
9.12086e-06
4.42087e-06
-2.23645e-06
9.71596e-08
1.82168e-07
-1.13226e-05
-1.01672e-05
3.21189e-06
-8.32899e-10
-0.00483623
8.47437e-07
-3.8816e-05
-7.88263e-06
-2.03469e-05
-3.83208e-05
-0.000761626
6.93379e-07
-2.17162e-06
0.000561691
0.000281926
-8.26954e-07
-2.00755e-05
2.78129e-07
-6.06158e-12
8.70408e-08
6.39001e-06
-4.70584e-07
3.05083e-07
-3.24968e-07
1.54629e-05
-3.34736e-05
2.67231e-06
-3.41973e-06
-0.000623999
0.000111954
-4.64813e-05
4.13041e-08
-1.27943e-05
4.96612e-06
-1.5629e-05
2.87483e-07
-3.18359e-08
-2.91356e-05
-1.82526e-05
-3.49369e-09
0.000216655
-1.41798e-06
-0.0018611
-1.31696e-06
6.79079e-07
-3.03859e-08
-3.00787e-05
-7.68928e-05
1.36374e-05
2.39662e-06
2.36104e-06
-1.0057e-05
4.3881e-05
6.42312e-09
-2.14935e-06
-0.000526047
1.28847e-07
-1.09632e-05
-5.93677e-06
1.09547e-05
1.17049e-07
3.36907e-05
-2.18215e-08
8.58596e-06
1.76965e-08
-6.82901e-08
-3.79044e-05
-1.74381e-07
-3.23853e-05
-1.09429e-08
-5.43344e-07
-0.0361138
-3.5162e-06
-2.23829e-09
-4.44281e-06
-7.87385e-07
-4.3551e-06
-0.00437177
-5.45694e-05
-1.41218e-05
-5.18103e-07
1.68027e-07
-0.000145373
6.21875e-06
-1.20745e-05
-2.79549e-05
-0.00161203
-1.14403e-05
-8.91439e-06
-3.87177e-06
6.98711e-06
3.26493e-06
-1.32287e-05
-2.64929e-06
5.15515e-06
-4.17565e-06
7.02304e-07
4.86784e-08
1.58532e-07
-1.82702e-06
-3.67323e-06
3.10996e-06
-2.4447e-06
-1.38302e-05
4.60084e-06
-1.45597e-05
-0.000114441
-4.73687e-09
-2.12405e-05
1.9008e-07
-5.52642e-06
5.31567e-08
0.000848578
-4.49653e-07
3.22324e-06
0.000632906
6.73475e-06
2.83968e-09
3.91611e-06
-1.88219e-05
-7.31188e-05
-3.96201e-07
-3.04869e-05
-2.43489e-06
1.30775e-06
-3.30159e-09
2.3257e-07
0.000100378
-3.43434e-05
4.69276e-07
-3.49966e-07
-1.45434e-05
-7.55778e-07
-2.83711e-07
-7.50504e-07
0.00017741
-7.6182e-05
-8.93029e-07
-2.08385e-05
-0.00155711
7.39226e-06
-2.51364e-06
4.55934e-07
9.94011e-07
8.95063e-07
0.00183859
-2.03703e-06
2.72682e-07
1.94762e-08
8.40345e-06
-4.79285e-07
-1.86317e-07
1.66384e-05
-7.77876e-08
-1.19439e-08
-0.000482942
5.34507e-06
1.60266e-07
-2.48196e-06
-4.86774e-05
-4.40786e-08
6.03927e-05
4.95089e-08
5.70033e-07
-0.000782378
-4.54982e-07
3.86442e-06
4.84318e-06
-2.60582e-05
-9.84416e-06
1.8809e-06
2.3868e-07
-3.34269e-07
3.59954e-05
-1.38418e-05
-0.000150712
-0.00105301
8.3241e-07
-6.64375e-08
-1.77917e-08
-2.71138e-06
8.60491e-06
9.38404e-05
6.38164e-06
-1.17758e-05
2.29043e-05
-1.65702e-05
-2.73682e-09
-9.28613e-08
-1.19754e-06
-8.83796e-07
0.00234176
1.85851e-08
-2.78571e-06
2.42501e-05
1.8494e-05
4.19016e-06
-2.15838e-06
9.66285e-08
-0.00602681
-6.86453e-09
-0.000258073
-6.06365e-07
-2.90457e-08
0.00506483
-9.29973e-09
4.46441e-06
-1.86063e-07
1.55052e-06
-3.48855e-06
2.421e-07
5.14561e-06
-1.49142e-07
-1.54216e-05
-2.82477e-05
3.28594e-05
-4.09175e-08
2.96302e-05
-4.94922e-07
0.000144984
2.29038e-06
-3.33293e-06
0.000903413
0.000127407
-0.00123149
5.47797e-07
1.21686e-08
-3.71833e-05
-3.83851e-09
9.46e-07
-0.000570835
3.95103e-06
-3.62676e-05
-2.37137e-07
1.49466e-08
7.75771e-07
-9.43392e-08
1.73725e-05
-5.0678e-06
-4.48406e-09
5.52655e-09
-1.47924e-05
5.13187e-05
1.1327e-06
-5.94588e-06
8.63258e-06
1.31718e-07
-5.59149e-07
-1.56924e-05
1.59807e-06
-6.14016e-06
-8.75377e-09
2.09474e-05
-1.3282e-07
-4.71129e-08
6.28668e-06
-3.03214e-09
5.80977e-06
5.33691e-06
0.000275653
3.89519e-07
-1.0512e-07
1.78115e-06
-7.37916e-07
5.30972e-05
-0.000298419
4.20688e-06
2.19952e-06
5.13197e-06
3.35773e-09
-2.06632e-06
2.20706e-05
0.00543733
-2.03545e-05
8.79416e-06
-4.63022e-05
0.00174671
1.03442e-06
-1.80291e-06
-3.35343e-05
4.50195e-05
3.38328e-07
-9.41544e-07
0.0012404
0.00109914
3.04282e-06
-0.00145953
4.0437e-09
3.83807e-07
-5.54098e-06
9.76378e-08
4.38305e-06
-3.04876e-08
-2.08507e-05
5.86712e-08
-4.41257e-06
-1.5592e-07
-8.68451e-05
-7.99653e-06
-1.22419e-08
0.0230475
1.80173e-08
2.38148e-09
0.00188655
-3.99215e-05
2.48438e-06
1.71647e-05
-0.000758453
0.00037723
1.93818e-05
-3.68707e-07
-3.94117e-08
-4.97667e-07
8.47237e-07
-4.38454e-06
-1.95487e-07
0.0175113
4.21167e-05
-5.42317e-06
-7.08407e-07
2.12461e-08
7.22574e-07
4.52975e-06
7.60405e-09
4.73317e-06
1.73099e-05
1.28156e-06
-5.38173e-07
-1.93322e-06
1.41509e-05
-4.18328e-07
2.75168e-07
-1.09057e-06
-4.90353e-07
-6.53947e-08
-1.09533e-07
2.33709e-07
-7.27602e-07
3.73753e-08
-1.3884e-06
1.95301e-06
1.90841e-06
2.27654e-05
1.46302e-08
8.5904e-09
6.29874e-06
-9.72589e-07
-1.93481e-08
-1.77906e-05
-3.07879e-07
0.00127814
-1.00826e-09
5.32685e-09
0.00010556
5.9436e-05
8.09618e-06
1.0122e-05
2.08263e-07
-2.47889e-06
-1.39773e-07
-6.41077e-08
0.00164373
4.76858e-10
4.41913e-08
2.79606e-06
1.08023e-07
5.91311e-06
-1.05806e-06
-0.000159236
-8.30751e-07
-8.8673e-05
-1.62985e-05
-1.1205e-06
2.99236e-07
3.23437e-06
0.00188742
1.54203e-05
8.57523e-08
0.00086111
6.73532e-07
0.000109199
3.76826e-09
9.35479e-06
-1.17846e-05
0.000597289
0.00035274
1.84013e-08
-1.06263e-06
-1.82331e-06
5.04369e-06
7.48996e-05
6.49854e-06
2.86376e-06
-1.42657e-07
1.78059e-05
3.96256e-06
-0.00754699
-2.81556e-08
-0.000152176
-0.000299341
-0.000239833
0.00123314
-1.65622e-06
1.11965e-05
0.0004626
6.30135e-06
6.74577e-07
1.57144e-05
-3.49154e-07
1.68336e-09
6.52539e-07
-9.94031e-08
-7.9257e-07
-8.15515e-06
0.000499703
-3.88323e-09
-9.93972e-08
5.16587e-07
-0.000712004
-1.8818e-06
2.67579e-07
-0.000264084
5.29852e-07
3.60551e-06
-1.7586e-07
-5.67489e-05
3.31788e-09
8.42126e-07
4.82805e-06
1.94822e-06
2.33479e-06
1.57649e-09
2.24111e-06
4.35605e-05
-9.01973e-06
-8.22869e-07
-4.87068e-07
7.64092e-06
5.32594e-07
-3.76523e-05
-1.33917e-08
-6.90751e-07
2.80331e-07
-2.94004e-06
-6.46078e-07
1.90661e-07
-1.28814e-06
3.51193e-07
-0.0015364
5.81927e-07
2.59705e-07
-0.000222428
7.05136e-06
8.63204e-06
-1.26445e-07
-1.74408e-06
5.45301e-06
1.93438e-06
-2.13569e-09
3.6891e-06
6.83304e-08
-9.90717e-08
-2.08379e-05
-5.77415e-06
-0.000164875
-4.36912e-05
-1.1584e-05
-0.00420722
-0.000251854
-8.58494e-07
-2.72092e-08
-8.56866e-08
7.33754e-06
-0.000233277
-6.58677e-07
1.698e-05
1.4584e-06
2.69045e-05
6.03676e-06
-6.85569e-07
-0.0038571
2.47455e-06
6.81303e-06
-4.05727e-07
-4.72652e-07
-5.74147e-07
-9.5213e-12
1.49946e-05
1.59802e-07
-0.000131991
-5.60561e-07
8.19915e-08
-3.63238e-08
8.29999e-05
-2.88356e-08
5.45439e-08
9.43367e-09
1.61198e-05
2.1697e-06
2.73485e-07
8.26445e-07
-1.53663e-05
2.80857e-07
-4.48565e-08
9.30548e-07
-1.59983e-06
1.42264e-06
9.34615e-06
3.61789e-08
0.000121944
-7.29471e-08
-7.4601e-08
5.96803e-06
2.54905e-11
0.010602
8.39952e-05
-0.000387332
5.65219e-06
-7.76472e-06
3.68043e-06
0.000916407
6.67935e-06
3.27077e-08
6.45746e-06
-9.01312e-05
-2.87347e-07
1.58268e-05
2.70753e-07
-1.63027e-05
5.79997e-08
4.62859e-06
-2.01528e-06
-0.000622129
-0.000133055
3.98317e-07
7.67798e-06
-5.00865e-08
6.16586e-08
8.11256e-06
4.92803e-05
1.38758e-08
-6.98571e-06
-0.000708462
-7.43323e-07
-1.10215e-05
2.12376e-08
1.35936e-05
-3.25946e-08
-0.00174845
-0.000738419
0.00413745
-6.72396e-07
8.18239e-12
0.000384417
-4.64599e-06
0.000849098
-3.84151e-07
5.29878e-08
-9.24929e-06
-0.00113558
-3.05913e-05
0.00037755
-7.1714e-08
0.00113524
-4.37591e-07
-7.06251e-08
0.000953631
0.00353577
-5.28494e-06
6.18207e-06
0.000954661
1.76405e-05
0.0826124
0.00100233
-3.81031e-06
4.97514e-05
-8.64644e-05
2.31999e-06
3.21911e-08
-1.33224e-09
8.86716e-06
8.71377e-06
1.77111e-05
-1.10459e-09
3.28111e-05
-0.000925956
-3.78264e-09
3.33239e-05
-1.40795e-06
-2.60388e-05
-9.7971e-08
-4.85998e-07
0.00101511
-0.00405438
-1.77453e-09
-0.000182137
2.37709e-08
6.09719e-07
-7.89324e-06
2.21067e-07
1.54357e-05
1.39223e-06
1.12203e-08
2.10049e-05
2.67694e-08
-5.33357e-06
8.23064e-07
8.2283e-08
4.93356e-05
-3.7077e-08
-1.32397e-06
7.35973e-06
-9.85608e-06
-2.18454e-07
1.60274e-06
-1.71406e-05
-0.000720222
1.33002e-05
-3.74142e-06
-1.52293e-06
-1.36424e-05
-1.96413e-06
0.000828549
-1.361e-05
-4.02242e-08
-0.000276553
-6.79194e-07
8.23166e-06
7.07711e-09
1.60493e-07
6.68935e-06
-4.23022e-06
1.5406e-05
-1.52718e-06
1.54031e-05
3.04217e-06
1.25847e-07
-0.000172348
-5.12413e-07
4.70326e-05
-1.59887e-05
1.19885e-06
1.49506e-07
3.58013e-07
6.55371e-06
-4.53665e-05
1.7192e-07
8.58189e-05
-1.99203e-05
-6.54422e-08
7.84074e-06
-4.59508e-06
-2.53855e-08
1.77613e-06
0.00108376
-6.67915e-08
-3.50709e-07
-0.0009724
-7.92545e-07
-0.00255067
4.07475e-06
5.99825e-09
-0.000248843
0.000161112
1.19083e-08
-3.16921e-08
7.74508e-08
7.4567e-07
-5.09923e-08
5.73171e-06
0.000817515
1.32445e-06
1.83098e-06
4.95598e-06
7.56806e-07
7.23447e-09
-1.76159e-07
-8.0231e-07
-1.06613e-06
-4.4354e-06
-6.99906e-07
-2.3773e-06
-4.04174e-05
-1.96882e-08
-2.64695e-05
6.90287e-06
1.65662e-07
6.69381e-08
6.46925e-06
-9.93165e-05
-1.58287e-07
-3.20703e-06
2.51428e-05
-4.74675e-06
2.11341e-05
0.00317892
4.41338e-05
-0.000139462
-7.00707e-06
-0.00124259
4.64153e-06
-5.78049e-06
3.28991e-05
-2.48233e-07
0.000201896
1.16617e-06
-0.0186581
2.21802e-05
0.000799577
-2.9724e-07
9.13907e-06
-4.80618e-05
5.05168e-07
2.51878e-06
-4.97019e-09
0.000635377
1.98497e-06
-9.76724e-06
1.05335e-05
-0.000217759
-3.02129e-08
6.30299e-06
-8.16507e-07
-1.16074e-07
-6.08834e-05
-5.96004e-06
3.44271e-05
-4.28328e-06
-3.58943e-06
-9.54959e-06
-0.000201736
6.2819e-07
6.74092e-06
2.06334e-07
1.49339e-05
2.81852e-07
-0.00024721
-0.00266081
-2.15367e-07
0.00033091
-2.256e-07
-9.42332e-07
-2.55553e-06
1.16618e-06
3.29809e-05
-1.58936e-05
-9.00574e-07
-2.60203e-07
7.61097e-06
-3.95548e-06
5.85672e-06
-4.96299e-06
6.56109e-06
0.00228148
1.8739e-07
-7.12679e-05
-1.80238e-07
6.24317e-06
-6.82782e-08
-4.00572e-06
-0.00154584
-1.49519e-06
3.49837e-07
1.17135e-05
-0.00379446
-0.00013697
-3.89479e-07
-3.77189e-07
5.05643e-06
-1.66943e-08
0.00205957
3.29304e-06
5.2349e-07
-7.93542e-06
-5.23832e-09
9.73133e-06
1.01815e-06
1.37853e-08
-0.00100335
-1.54969e-05
3.42904e-08
-7.18626e-06
-0.00523171
-4.7093e-07
2.57325e-06
-1.32021e-05
1.13281e-05
-1.59274e-07
1.73269e-05
-1.95761e-05
-5.71456e-08
-1.35448e-07
-4.76715e-07
1.40755e-06
-1.26188e-07
-5.66843e-06
-4.13829e-07
0.000183314
5.00371e-06
8.20898e-05
-0.000102556
-1.10125e-06
-1.75516e-08
1.18722e-06
-5.0734e-07
0.0010818
-5.21865e-07
-3.24413e-06
1.77542e-05
-3.65776e-08
-4.00425e-06
-0.00188783
0.00146089
-4.01427e-06
-2.64618e-10
-0.000389856
-5.40396e-05
0.00029827
6.72199e-06
0.0011772
-1.72012e-07
2.03609e-06
5.37857e-07
-1.59902e-06
-1.07534e-05
8.09456e-08
-3.49517e-07
-2.60575e-06
1.70741e-08
1.15707e-05
-0.00480576
-3.90146e-06
2.88076e-05
-8.90487e-05
-0.000423738
-6.21814e-09
5.74842e-07
-5.59119e-05
-6.4288e-07
-1.00747e-06
-0.00102483
6.16729e-05
1.8109e-06
9.1747e-06
-4.19917e-05
4.17405e-07
1.3209e-05
1.42515e-06
-4.78995e-06
-7.11107e-08
3.73747e-07
3.39238e-05
-0.000125741
-1.11662e-06
1.04444e-07
8.65014e-06
-9.38378e-07
7.5324e-06
-8.6809e-08
4.37236e-05
1.03029e-05
-0.00015654
-1.56677e-05
5.12044e-06
8.95214e-06
2.00621e-06
-5.39039e-06
1.35049e-05
-1.49979e-06
2.39997e-05
-2.00632e-08
1.01565e-05
5.96942e-08
0.00138703
-3.88905e-06
-0.00186854
-2.05481e-09
-0.000207453
-2.35395e-06
-7.29596e-05
7.92186e-08
-5.17789e-07
-6.37911e-07
0.00112144
7.74685e-09
0.000893608
1.48401e-07
1.39295e-05
2.78316e-08
-0.000460862
0.0293444
5.43265e-06
-1.0576e-06
8.49603e-05
1.41613e-06
3.70102e-08
4.68557e-06
-1.01564e-07
6.26872e-06
3.53488e-06
0.000199563
-1.52419e-05
-5.07878e-06
-8.47465e-06
4.52816e-06
1.69711e-06
-2.4559e-08
0.0032066
-1.74265e-07
2.80688e-06
7.66049e-06
7.11988e-09
-3.49568e-07
-4.10506e-08
-2.114e-05
-5.33699e-09
-0.000647224
-0.00611203
6.61056e-06
-2.40719e-07
-2.19612e-08
0.00473874
3.66376e-08
-0.00022749
5.01671e-09
-2.52054e-10
-8.72263e-06
-3.69269e-06
2.91663e-08
4.77199e-05
-4.30466e-06
4.87636e-08
2.11701e-07
-8.01942e-06
2.10077e-08
-0.00114314
3.39572e-05
-9.88274e-07
2.55129e-08
-0.000334266
-2.81862e-05
-4.76777e-05
3.0944e-06
1.77979e-09
3.51499e-08
0.00040223
1.78232e-06
-0.00934327
1.56681e-07
-1.14804e-09
3.4894e-07
0.000222587
4.38837e-07
-1.18495e-06
-2.43552e-09
4.683e-09
-1.75526e-10
-1.73852e-05
-1.42619e-05
0.00303059
-0.000104283
5.25619e-05
1.35502e-05
1.17091e-05
1.74807e-06
-6.35715e-11
-8.91282e-06
-6.36345e-06
-6.22948e-06
4.44389e-08
0.00250749
0.000143554
-1.31926e-06
2.09451e-07
-6.39932e-05
-2.51636e-05
5.91322e-07
-4.70199e-06
6.97315e-06
-4.69748e-06
-9.06807e-08
1.15813e-06
-1.47965e-06
-2.75264e-09
-4.96011e-05
0.00108275
-4.00142e-06
-4.18664e-06
-1.61922e-07
3.02286e-05
1.34968e-05
-5.6856e-07
-1.95897e-05
1.49257e-07
1.71327e-08
-4.28273e-05
-5.8328e-07
1.241e-06
-1.77921e-05
5.2422e-06
-0.0059288
2.39485e-05
-1.95455e-05
-2.12795e-08
3.50159e-11
-0.000288875
1.3408e-06
-2.59188e-08
-0.000305252
0.00107217
3.16645e-10
-1.24727e-07
1.86772e-06
-1.01215e-08
-6.42024e-05
8.59239e-07
3.25035e-07
9.58072e-06
1.20118e-06
-2.49563e-06
-6.30652e-06
-6.66757e-11
0.000117576
0.000262732
8.01079e-08
7.95823e-07
1.44912e-05
-2.25351e-06
7.40306e-05
1.44559e-11
-0.000471461
8.52178e-06
-5.33712e-07
-1.67628e-05
2.49109e-12
-1.18437e-06
4.08786e-08
0.000456167
-2.37356e-07
6.92163e-06
4.49994e-05
0.0010341
-0.000215696
3.83063e-05
3.72075e-06
2.38793e-07
-2.80181e-05
4.0332e-07
1.24225e-06
-0.000328252
3.34716e-08
0.00196873
6.25471e-06
-9.66664e-09
5.74991e-08
-3.10036e-06
1.8188e-08
2.04224e-05
3.58564e-08
-1.77244e-08
-0.000209205
8.37444e-08
3.49862e-07
-2.88512e-06
-0.000124315
3.92998e-06
0.00373296
-7.82287e-06
-2.30529e-08
-0.000774986
4.99152e-07
1.56459e-08
2.61051e-06
1.22648e-06
-2.50662e-07
-2.26818e-05
-2.02446e-05
2.48221e-06
0.000895234
-7.322e-06
-3.51742e-05
-2.75334e-06
6.12485e-06
0.00548145
3.43172e-06
0.00205676
-6.7045e-06
-1.01896e-05
2.60467e-09
-2.61457e-09
-1.58135e-08
4.92134e-06
-3.35699e-07
-1.9786e-05
5.75763e-05
-2.24374e-08
2.70752e-05
0.00211697
0.000175876
-2.96813e-06
7.91742e-06
7.92637e-09
2.23905e-07
-3.87681e-06
-4.93183e-07
-1.31161e-07
-6.47848e-08
0.216894
-2.30587e-08
-9.324e-06
3.14306e-06
-1.28064e-07
4.35798e-11
0.00123397
2.27474e-06
6.47288e-06
9.30471e-08
-8.69071e-05
-4.1034e-05
0.000815936
0.0029405
-1.07135e-07
-6.88095e-06
1.71626e-05
1.64292e-05
1.12464e-08
-2.44181e-06
-2.77242e-08
-1.10907e-09
0.00192022
-9.78591e-09
-0.00174935
7.89315e-08
0.00298421
1.11928e-07
0.000227843
-1.90874e-08
6.71947e-06
1.659e-09
5.71655e-11
-3.59491e-07
7.37802e-07
1.33339e-06
-0.000387843
6.05184e-05
1.70845e-06
-0.000107787
-3.93651e-06
4.98254e-06
-4.52417e-07
-0.000444023
-3.52718e-07
4.8191e-07
-0.00150038
2.72735e-06
-0.00088991
0.00170637
-0.00514664
-1.38516e-06
1.49798e-08
-0.00192334
-7.09441e-06
8.33086e-09
-7.82097e-08
-2.0009e-05
2.1416e-05
1.51467e-05
-1.27456e-06
2.10751e-06
-5.18047e-09
4.42911e-05
0.00226858
1.41891e-06
-0.00157648
0.00012384
-6.44259e-07
-1.21061e-07
-1.29805e-06
3.71822e-06
4.66222e-07
9.47561e-07
3.30093e-06
-4.31816e-06
-8.47231e-06
4.4556e-09
2.4773e-07
-6.70009e-06
0.000317525
1.67539e-07
-4.38508e-05
1.18096e-06
1.19889e-07
3.43293e-06
-3.32234e-08
-1.09036e-06
-7.06546e-05
8.43402e-07
-0.00588022
-0.0012217
-4.50118e-08
-1.52466e-05
0.000867956
4.5483e-07
-1.58284e-09
-0.000160205
4.44568e-07
2.06602e-06
-5.3321e-07
-8.79686e-07
2.09454e-06
2.49533e-06
-2.27126e-06
1.25595e-08
2.00577e-05
0.000357358
-4.35955e-06
-5.52424e-06
1.64553e-06
0.00317559
-5.40192e-05
-8.79342e-06
0.000417416
3.20958e-07
8.36854e-07
-5.90464e-08
-3.85868e-05
8.11633e-07
9.15933e-05
-1.5729e-05
-2.24207e-05
2.1812e-07
0.00165596
7.73096e-05
6.03296e-09
-1.5686e-06
3.29388e-07
7.18514e-06
-2.62751e-08
6.80238e-06
-6.96045e-07
2.90003e-05
2.07949e-08
0.000701619
5.64307e-06
3.02487e-06
7.9053e-08
0.000414282
-7.81114e-08
-2.36414e-07
1.53912e-05
1.3909e-08
-2.74027e-07
7.93478e-07
-2.13495e-09
-3.23799e-05
-1.88357e-08
0.00189127
-8.79552e-07
-3.9333e-05
-0.00383904
2.71425e-06
-5.45913e-06
1.31878e-06
3.96293e-06
-1.88161e-05
-0.00105881
0.000128808
-7.28793e-05
0.000110349
0.00243291
0.0248951
1.26493e-06
2.26311e-08
-7.7193e-07
6.20323e-08
-3.20701e-09
1.6252e-07
0.000724421
0.00165718
-1.78336e-06
4.2701e-08
1.4021e-06
-9.24234e-06
1.95951e-06
7.17032e-07
5.79262e-05
-1.7246e-07
-6.06758e-06
-1.84714e-07
2.65605e-07
-3.50487e-09
3.87194e-06
2.27243e-07
-3.82797e-06
-7.69565e-05
-1.12001e-07
4.55191e-09
7.26782e-07
3.61092e-06
1.10149e-06
-1.98803e-05
0.00543196
-2.54555e-08
-3.20877e-06
0.00208344
-2.1017e-08
2.74812e-07
-0.000195175
3.1388e-05
-0.000206692
-1.4204e-07
-2.79104e-05
9.34303e-07
9.70953e-06
3.50022e-09
0.000119158
-3.22459e-06
9.6239e-06
-8.40407e-09
-0.000489603
0.00038255
9.05781e-06
-1.54657e-10
0.00512201
-0.000949594
0.000611714
1.09557e-07
1.74634e-07
-1.62984e-05
-1.96028e-05
-2.52719e-07
0.00645
1.11349e-07
-3.66368e-06
0.00128504
-4.47066e-06
-4.10792e-07
-3.66699e-07
4.81179e-05
-0.000414427
-0.000991391
4.96508e-07
-6.78059e-09
-1.73756e-06
-1.14998e-07
-4.58053e-07
-1.20415e-05
2.61843e-07
2.07654e-08
-0.00131109
1.05557e-05
-0.00115345
3.41979e-07
3.94405e-07
-0.000386016
0.00224924
-3.46059e-07
4.51659e-05
6.76802e-05
6.77922e-08
-1.32032e-05
3.80204e-05
-4.47111e-05
1.56919e-05
-5.14172e-06
6.88816e-05
6.89796e-06
1.0498e-06
-3.84572e-06
2.64326e-07
0.000516517
-1.59413e-07
-0.00010423
3.97265e-05
-1.06069e-07
-1.9313e-09
-6.38617e-07
1.81275e-08
0.000134794
4.72699e-07
3.40367e-06
8.53161e-07
-3.02005e-07
-3.14443e-06
-1.00825e-07
-1.41085e-05
5.29364e-08
-1.82049e-05
1.12032e-07
3.51694e-07
-7.14719e-07
-1.76684e-07
1.36486e-07
0.000960059
-1.20823e-07
7.59287e-09
-5.88179e-07
-0.000876502
0.000436061
6.11281e-06
-0.000226454
-1.31084e-06
1.66719e-09
-7.39418e-08
-9.75138e-06
-3.10077e-07
5.83164e-06
-0.000411731
7.85909e-09
-2.11475e-06
-4.50477e-07
6.16931e-06
6.41381e-08
5.04957e-08
-0.000114492
-2.53198e-06
-2.51906e-06
-0.00555604
9.58687e-08
1.45913e-06
-0.014116
-2.52826e-07
0.00103321
1.38853e-05
-2.52339e-05
-9.40647e-05
0.000212686
-1.64842e-06
6.52945e-06
5.41317e-08
3.70806e-06
-2.73997e-07
-5.06777e-09
4.58335e-06
0.00278184
9.1085e-07
2.50012e-08
3.748e-05
-0.000258127
0.000922867
-2.06606e-08
2.91362e-07
-1.5326e-06
-6.20344e-08
1.05346e-05
-5.03507e-08
-5.094e-07
5.9771e-05
6.36249e-06
-0.00012764
1.27172e-05
7.08102e-06
-2.4471e-05
2.04831e-07
-1.4522e-05
0.0014512
3.38344e-07
1.56206e-07
0.000224364
-8.15468e-08
5.11514e-08
3.55253e-07
-1.40935e-07
3.20435e-09
8.8102e-07
0.00061857
6.86153e-06
8.26485e-10
1.44848e-06
-5.90202e-06
-5.36711e-07
-5.85704e-07
-1.13997e-06
-7.64532e-07
-1.83531e-06
-0.00133741
-1.17813e-06
-2.567e-07
5.8e-07
-3.0223e-05
9.49591e-07
3.0354e-07
-5.02534e-06
2.71311e-06
1.01792e-06
-1.15773e-06
9.9607e-08
-3.03083e-07
1.63759e-09
4.4992e-08
-5.98985e-07
2.87524e-06
-1.16873e-06
-2.35549e-09
0.00131991
-4.92695e-06
-7.0118e-06
2.2005e-06
2.44216e-06
-1.39242e-06
2.04601e-06
4.65195e-07
4.55781e-05
-0.000152279
1.07291e-08
0.00108782
-1.46969e-07
-0.000330579
6.21103e-07
3.60196e-06
-5.96183e-08
-7.40921e-05
0.000268724
-0.0307431
0.000163113
4.77889e-07
1.48636e-07
6.54901e-06
1.65037e-05
-6.09517e-06
4.44003e-08
-4.15621e-07
-2.50509e-06
1.54896e-06
5.45422e-07
0.000542313
0.000676621
5.69524e-08
-0.00112058
5.47771e-06
-3.75391e-08
1.04183e-09
5.62709e-06
0.000153672
-5.55976e-09
-1.36255e-06
6.6266e-09
-4.76041e-06
0.000854765
8.71166e-07
-0.000171515
-0.000199621
-8.62362e-06
-0.00114475
9.97394e-07
6.50699e-07
-0.000195346
-0.000320556
-1.08367e-05
0.000225079
1.96783e-08
1.9698e-05
1.85884e-06
-8.70478e-06
4.64545e-06
-1.1285e-06
-1.29149e-08
-1.36493e-07
4.30554e-05
3.19595e-07
4.55094e-07
-0.00271167
-6.81417e-07
4.99137e-06
2.90806e-06
-1.48521e-06
3.46197e-05
-8.04903e-07
-3.97466e-05
-2.4148e-08
-0.00260513
3.30512e-07
-3.02167e-05
0.000200971
0.000250792
-2.39032e-06
-4.44396e-08
4.54823e-07
-8.45507e-09
2.18751e-08
6.43354e-05
0.00105647
-0.000901465
-0.000392615
-7.20546e-05
-0.00750266
-1.51178e-06
-4.42348e-08
-2.48629e-07
8.47834e-07
6.73113e-07
-0.000391508
6.66729e-07
-3.8305e-06
1.86338e-07
0.0020674
8.37725e-06
1.7084e-06
-8.34057e-08
2.18491e-05
-0.00149169
4.3265e-07
1.93292e-07
-1.87477e-07
0.00746007
-0.000135695
4.07716e-06
0.00138523
5.7313e-08
3.08956e-05
2.75563e-08
4.34988e-05
-3.9484e-05
2.73102e-07
2.77045e-06
-1.95521e-08
-1.80468e-06
0.00152229
3.59512e-07
0.00053738
1.3951e-05
-3.65904e-06
6.90184e-06
-2.81547e-07
1.36803e-05
5.06094e-05
-0.00702999
2.81e-06
0.000100284
-4.36201e-06
0.000105924
-1.97986e-07
2.59415e-06
-0.00530622
-0.0113034
0.00137763
-6.68504e-07
-0.00113153
-1.25516e-05
7.12305e-07
-2.78104e-07
2.02757e-06
2.47476e-08
7.30942e-07
-2.29463e-09
-1.62853e-07
3.8508e-06
0.000219051
0.000223113
4.11511e-10
-3.27832e-06
6.77358e-05
-4.09391e-06
5.46475e-07
1.79007e-06
-8.76298e-08
-0.00031672
9.25903e-06
5.39839e-06
0.000149154
-2.20384e-05
-0.000245397
2.49167e-05
1.05037e-06
9.54563e-08
-1.42485e-10
-1.67455e-05
2.45295e-06
0.00100517
3.75735e-07
2.8291e-06
-0.000202798
-3.90514e-05
0.000104193
-3.55398e-06
9.5546e-06
-4.96426e-05
4.92303e-05
-1.55496e-05
-8.4649e-05
6.10865e-07
1.64947e-05
1.42927e-05
-3.30621e-06
0.000695864
8.41492e-05
3.39251e-06
1.68599e-06
-1.40162e-06
-9.37082e-05
-4.3097e-08
2.17126e-06
0.000280402
3.54169e-06
8.18663e-07
0.00179776
-0.000539874
0.0102682
-0.00574126
-2.16774e-06
-0.000252553
0.000823534
-1.90011e-08
0.000118009
0.00066278
0.000643694
-7.03518e-05
-1.90908e-05
-8.68398e-05
-0.000449994
0.000115048
-3.95209e-07
-1.71707e-06
4.57959e-07
0.000138026
-5.94539e-05
-0.000294957
1.83516e-05
-0.000460932
2.17966e-06
-5.72586e-05
1.18044e-05
9.58741e-07
1.39803e-06
1.07121e-06
1.41839e-05
8.99974e-08
1.71227e-05
-1.98076e-05
2.17696e-08
1.29998e-06
7.84976e-07
1.14345e-07
-4.56588e-06
1.37606e-06
-2.91624e-05
-4.68344e-07
-8.05288e-07
-4.92724e-07
-1.73601e-07
-0.00103612
1.7789e-06
0.000997988
-6.75781e-05
9.14019e-07
0.000179466
-3.03506e-07
-1.11173e-06
0.0108822
6.08171e-05
-2.7831e-07
5.67405e-05
-6.35378e-07
1.48841e-06
-0.000168838
-0.000739987
1.61429e-05
-1.61472e-06
-7.86801e-05
2.97077e-09
-1.97087e-05
-0.00126791
-1.14947e-07
-0.000505351
4.90058e-07
1.43262e-08
8.01334e-06
-4.13653e-08
-5.86774e-07
4.63651e-05
1.80477e-07
0.000131863
3.35039e-06
4.87998e-06
-0.0701185
-1.0272e-06
1.07229e-06
3.86444e-11
-0.000106078
-5.54203e-06
2.19293e-06
-8.06515e-07
0.00210344
-3.15414e-07
3.23311e-08
-3.1688e-05
4.75044e-07
-4.56894e-07
8.40989e-08
-1.84716e-06
-0.00561763
-7.25048e-07
0.00197374
-9.76358e-06
-8.40151e-06
0.00072071
0.000189437
3.28041e-05
-5.37766e-07
6.70359e-05
6.77198e-06
-0.00281203
2.79094e-07
9.06442e-08
1.71753e-06
-1.76555e-07
-1.32558e-06
-0.000329082
0.000742542
-4.2317e-06
-2.8658e-06
1.95356e-05
1.08406e-05
-1.624e-06
6.65135e-07
-8.27978e-05
2.38143e-06
-2.29292e-06
1.18894e-05
0.00188175
0.000121243
0.135912
-2.51302e-07
3.9182e-06
1.66144e-06
-6.21388e-09
-0.000510929
8.88002e-08
5.68133e-07
-5.96037e-08
4.39545e-07
5.68488e-06
1.09431e-07
-2.25653e-06
5.97893e-08
1.97982e-06
9.97681e-07
-6.64567e-07
-1.3214e-06
-1.58448e-05
7.17796e-06
-1.54275e-05
4.20999e-06
3.84718e-05
-8.46826e-08
-1.80047e-05
1.31664e-06
-2.69877e-06
4.99596e-05
2.00557e-07
-1.80711e-06
4.02751e-05
2.34334e-06
-0.000109086
0.000258355
1.22942e-08
-0.000206376
-1.46332e-05
-0.0393201
-0.000102492
4.15977e-05
-2.37124e-06
-4.34642e-06
-3.9714e-09
2.99157e-07
-1.1834e-05
6.27206e-06
-1.88152e-05
-1.7347e-06
2.61413e-07
1.88557e-05
2.12133e-07
-1.18844e-05
4.16002e-07
-1.43705e-06
9.29591e-07
7.80475e-06
4.62948e-07
5.52629e-06
-1.61293e-05
5.45014e-08
-3.1622e-06
-1.58969e-06
8.53059e-07
0.00013828
6.22745e-05
-5.15154e-06
4.25015e-06
-1.52069e-07
-2.92697e-06
0.000134367
-1.30394e-06
-8.96068e-06
-1.81526e-05
-7.72953e-06
7.65709e-07
0.000476619
-1.86202e-05
9.18184e-08
1.86551e-05
0.000260442
-0.00280678
-9.68632e-05
0.0029134
-0.000581835
7.18147e-06
-4.88064e-07
-4.41922e-09
-1.56249e-06
-5.173e-07
9.70524e-07
7.30899e-06
0.000118812
3.06226e-08
-2.53433e-05
6.73679e-06
-2.78595e-06
-5.89849e-06
0.000886594
-1.4613e-05
1.88781e-08
2.6569e-06
6.50158e-06
-9.86542e-07
1.84705e-06
-2.59152e-06
3.52254e-07
-8.44164e-07
-4.882e-08
-5.16864e-06
-1.71392e-06
1.80104e-07
-3.53952e-07
-5.81551e-07
-3.42512e-09
2.77315e-05
-2.97185e-07
0.000208221
1.0539e-09
-6.75344e-07
7.32182e-06
0.00094688
-0.000210352
-7.69841e-06
-1.68471e-07
1.4231e-05
7.08745e-06
-1.66548e-08
6.52308e-07
2.40274e-06
0.000237529
7.30566e-06
-0.0133898
7.05847e-06
2.96359e-06
-1.8866e-08
-1.60861e-08
0.000271575
7.7977e-07
-1.071e-05
3.56454e-06
-0.000292177
2.74547e-07
-1.28761e-05
7.26239e-07
-0.0255537
0.000289691
1.65203e-07
-7.62965e-06
5.01207e-08
2.6322e-06
-5.18597e-06
1.29596e-06
2.41898e-07
-1.93919e-09
-8.48078e-07
-1.33151e-05
7.63371e-06
3.1771e-05
8.25326e-08
-6.82043e-08
0.000389924
-0.000283559
-6.94059e-08
6.10704e-06
1.06117e-06
-0.00424278
-0.00328756
-5.65369e-10
1.75109e-05
-3.40399e-05
-2.70123e-06