/*--------------------------------*- C++ -*----------------------------------*\
| =========                 |                                                 |
| \\      /  F ield         | OpenFOAM: The Open Source CFD Toolbox           |
|  \\    /   O peration     | Version:  v2012                                 |
|   \\  /    A nd           | Website:  www.openfoam.com                      |
|    \\/     M anipulation  |                                                 |
\*---------------------------------------------------------------------------*/
FoamFile
{
    version     2.0;
    format      ascii;
    class       volScalarField;
    location    "200";
    object      nut;
}
// * * * * * * * * * * * * * * * * * * * * * * * * * * * * * * * * * * * * * //

dimensions      [0 2 -1 0 0 0 0];


internalField   nonuniform List<scalar> 
14315
(
0.00172148
0.0271475
0.00104351
0.000223709
0.000196372
0.00156981
0.0309725
0.000388348
0.000529934
0.00140386
6.41646e-05
0.00254128
0.00237445
0.00678176
0.00355123
0.00672663
0.000557168
0.00673957
0.000301998
0.000304547
0.00674524
0.0153902
0.000606543
0.00298756
0.000133281
0.0310675
0.0058983
0.0310009
0.000116976
0.000432652
0.00120225
0.00633039
0.00679706
0.0172641
0.0211191
0.0171482
4.33498e-05
0.000586696
0.000557388
0.000102864
0.000147664
4.00178e-05
0.00095362
0.0067589
0.000733782
0.000159466
0.000170765
0.0017065
0.00258572
0.00673853
0.00128285
0.000194511
0.00341362
0.00254973
0.0012456
0.0131579
3.5479e-05
0.000475992
0.00458705
0.000633905
0.000375192
0.0204395
0.0141671
0.00524472
0.000360882
3.12993e-05
0.00218559
0.00672687
0.00515618
0.00140474
0.00297648
0.000562738
0.0210195
0.000467179
0.00643617
0.00209169
0.00083634
0.0127393
0.000707673
0.0043046
0.00675642
0.0044393
0.000492665
0.0120348
0.00674414
0.00227089
0.00205369
0.00250183
0.00244351
0.000117375
0.000853915
0.000105522
0.00675968
0.00245007
0.0040787
0.0156062
0.000791859
0.0116363
0.0264846
9.59736e-05
0.0067267
0.00226411
0.0176935
0.00677089
5.24052e-05
0.000609264
0.0088082
0.0159597
0.00112536
0.000816602
0.0145651
0.00302898
0.00906106
0.00535472
0.00244365
0.0025551
0.00653664
0.00234251
0.00699783
0.000188932
0.000742286
0.00128778
0.00665028
0.00199973
0.000140368
0.00677624
3.76187e-05
0.00674651
0.00396502
0.000147924
0.0183867
0.0149992
3.06534e-05
0.0184735
0.000397785
0.00400702
0.00192596
0.0261253
0.00328164
0.0025472
0.029506
0.00233891
0.00150278
0.0125037
0.000743058
0.0207498
0.000939746
0.0110307
0.00148758
0.000210964
0.000941673
9.67608e-05
0.00113115
0.00132003
0.000217203
0.00302592
0.000761222
0.00672786
0.00113595
0.0256158
0.00393404
0.00243127
0.0118818
0.00326514
0.00125799
0.0168911
0.00445053
9.09775e-05
0.000537195
0.0154868
0.00638839
0.00672438
0.00448021
0.00125552
0.0007477
4.50992e-05
0.00672661
0.0148177
0.0209618
0.0171676
0.000176414
0.000774477
0.00676478
0.00294255
0.000630058
0.000672911
9.14648e-05
0.000793411
0.0203724
0.00436469
0.000483783
8.2373e-05
0.0157196
3.55959e-05
0.00683947
0.00450855
0.000454658
0.00457121
0.00556249
7.04019e-05
0.00367998
0.000874781
0.00185499
0.0171432
0.00252468
0.000324501
0.000369995
0.000561722
0.00673002
0.0154903
0.000673327
0.0036787
0.00385723
0.000499531
0.0290979
0.00651301
0.011415
0.0271524
0.0280675
0.000581207
0.000757121
0.000969538
0.000816966
0.000766174
0.0208587
0.0019371
0.00212575
0.00253101
0.0205731
0.000967711
0.00682772
0.00151218
0.000157574
0.00672488
0.00672672
7.12309e-05
0.000704706
0.000464552
0.021488
0.0228914
0.00245911
0.000987711
3.55943e-05
0.00234951
8.19545e-05
8.08312e-05
0.0174038
0.0067238
0.0231319
0.00277829
0.00682197
0.00677038
0.00992192
3.02469e-05
0.000783436
0.0259397
0.000737693
0.00104211
0.0106388
0.0014081
3.81051e-05
0.00127151
0.00365822
0.00205685
0.017082
0.000670311
0.000323539
0.000948311
0.00203919
0.0140211
0.0263895
0.00119753
0.00603287
0.00429126
0.000359619
0.0183756
0.000441825
0.000656501
0.0105252
0.000151329
0.00107153
0.00132593
0.0235627
0.00441474
0.00218506
0.00357083
0.0179155
0.00951309
0.016962
0.0031845
0.000790849
0.00201081
0.0161416
0.0108951
0.000361357
0.000671315
0.015937
0.000592156
0.00426395
0.00676506
0.000981584
0.00116293
0.0123849
0.0302355
0.000557493
0.00674634
0.0177823
0.0181916
0.00673871
0.00559087
0.010857
0.00676734
0.00626924
0.0158921
0.000191116
0.000703814
0.00406137
0.000707403
0.000892436
0.00672438
0.00269765
0.000258443
0.0168626
0.000813897
0.000461118
0.00684552
0.0167505
0.000525928
0.000101677
0.00625557
0.000695714
0.0157968
0.00672749
0.0213009
0.00428971
0.00673618
0.0175544
0.00896088
0.00930477
0.0288044
0.0025195
0.00950053
0.00674096
0.0067239
0.0148718
0.00672515
0.00682295
2.16279e-05
0.00079583
0.0152515
0.00672598
0.000959644
0.0144427
0.00242632
3.73829e-05
0.00300327
0.00185537
0.0067265
0.00673882
0.0148886
0.00013549
0.0187542
0.0110356
0.0183987
0.0165001
0.00914517
0.00674681
0.00370615
0.023151
0.00107834
0.000406984
0.00165777
0.00672609
0.0186749
0.0170414
0.000398889
0.00136632
0.00673423
0.00330633
4.65895e-05
0.00144121
0.000620057
0.00672449
0.00689452
0.000107321
0.0288414
0.000949693
0.0271903
0.0283484
0.00442667
0.000869916
0.00242572
0.00772623
0.018558
0.0147072
0.0285881
0.000233019
0.00672577
0.000836804
0.0277682
0.00105403
0.000485382
0.00412544
0.00139242
0.0291242
0.000465722
0.0180693
0.000283726
0.0179383
3.39723e-05
0.0067481
0.024704
0.00538834
0.000690188
0.00423538
0.00676427
0.00100417
0.0115442
0.00673644
6.24003e-05
0.00145707
0.00550345
0.000574032
0.000427209
0.00672679
0.0118113
0.00666584
0.000408141
0.000744851
0.00116638
0.0060091
0.029791
0.0067258
0.000532017
0.0030682
0.00165731
0.000643729
0.0166217
0.000270346
0.00514491
3.47571e-05
0.00316285
0.017703
0.00674694
0.000539152
0.0011328
0.000119193
0.0125907
0.00673399
0.000703018
2.76679e-05
0.00177505
0.00672746
0.000772564
0.000893439
0.00706273
0.000264845
0.0122604
0.0252235
0.000917386
0.00220066
0.0236966
0.00341783
0.000544794
0.028146
0.0133364
0.00232333
0.000682122
0.00088366
0.0167629
0.00116741
0.000854626
0.0140935
0.00075326
0.00215841
0.000761169
0.0067858
0.00144637
0.0153356
0.00296182
0.000778376
0.00235814
0.000683725
0.00213723
0.0109221
0.000215707
0.00672686
0.0288265
0.00072451
0.000572668
0.00674805
0.000294688
0.00150575
0.000257216
0.0016055
0.0198125
0.00672692
0.000640172
0.00292181
0.025394
8.58451e-05
0.00461721
0.00205761
0.00125329
0.00672664
0.00309132
0.00303261
0.000249655
0.000524273
0.00428786
0.0248359
0.00169613
0.0017162
0.00143523
0.000870151
0.0146873
9.63511e-05
0.028651
0.0154215
0.000280776
0.00346013
0.00147739
0.00152905
0.000175003
0.000156532
0.0142738
0.00116586
0.00672689
0.000713512
0.0034646
0.00271911
0.00078018
0.00673642
0.00670516
0.00343972
0.0019537
0.00136506
0.00226631
0.000510808
0.00672738
0.0103463
0.00166161
0.0193084
0.00249097
0.00167916
0.000946932
0.00104773
0.000417817
0.000417162
0.00411793
0.00178923
0.00116788
0.0319815
5.25833e-05
0.0253864
0.00629529
0.000144249
0.00281161
0.00214698
0.000532234
0.015977
0.0189207
0.0160689
0.000365721
0.000198548
0.00101731
0.00504939
0.00672667
0.00102424
0.00250883
0.0135833
0.00674996
0.00301921
0.00105988
0.0149002
0.00139245
0.00075161
0.0050785
2.64358e-05
0.00678603
0.0184712
0.000327851
0.00673509
0.00294015
0.00673835
0.0015373
0.00658817
0.00133708
0.000459437
0.00122799
0.00368835
0.0059011
0.00044896
0.000680826
0.000532498
0.00590617
0.0169221
0.000460184
0.0302938
0.0143121
0.00105769
0.00471539
0.00994368
0.000462501
0.00156648
0.00672617
0.0037797
0.00118144
0.000681073
1.33184e-05
0.00268578
0.00120186
0.0193782
0.00678215
4.31596e-05
0.000356673
0.000665791
4.57023e-05
0.00672793
0.00674523
0.00112382
0.000782162
0.00169679
0.000817353
0.0169982
0.00635802
0.00397731
0.0278331
6.01664e-05
0.0171385
0.00680111
0.000372308
0.00674056
0.00679828
0.0171673
0.00672583
0.0190998
0.000647566
0.0178537
0.00295413
0.00248364
0.00123782
0.000924358
0.00867553
0.0194739
0.00434881
0.00119409
0.00083954
0.00672611
0.00120891
3.32449e-05
0.00356718
0.0289148
0.000776589
0.000978264
0.00289298
0.00057451
0.00089903
0.000530551
0.0321648
0.00244707
0.00111502
0.00328958
0.0119653
0.0011142
0.00562368
0.00673796
0.000530056
0.0154612
0.00115055
0.00195527
0.00426496
0.00031933
0.00279223
0.00072038
0.00410907
2.70793e-05
0.0229178
0.00672877
4.2848e-05
0.00672928
0.00672665
0.000116589
0.0114458
0.000871795
0.0148707
0.00386596
0.00242582
3.222e-05
0.00310095
0.000993865
0.00667372
0.0024357
0.00124154
0.00294156
0.000817188
0.0177811
0.000660314
0.00101518
0.00199213
0.00330629
0.0146415
0.00675421
0.000210396
0.000470047
0.000553069
0.00395408
7.30606e-05
0.00103695
0.0280852
0.000373772
0.000528169
0.000307527
0.00679143
0.00673999
0.00205177
0.000364267
0.00123343
0.00074739
0.000996396
0.000825477
0.000776684
0.00680554
0.000674346
0.000354599
0.00210241
0.00057903
0.000571403
0.00142672
1.64076e-05
0.00676167
0.00672548
0.0190199
0.0195929
0.0153067
3.05862e-05
0.00369769
0.0167797
0.000241742
0.00399891
0.00154827
0.00672218
0.00674492
0.000961384
0.00673518
0.00448753
0.000975647
2.40911e-05
0.00094776
0.018643
0.000425633
0.000218545
0.00053219
0.00152662
0.0145607
0.0139357
0.00244009
0.0120952
0.000251444
0.00952065
0.00672691
0.0167291
0.00410846
6.64331e-05
0.00980869
0.00672879
0.000310427
0.00116601
0.00104971
3.29493e-05
0.0236729
0.00150935
0.00189985
3.6201e-05
0.00343736
0.000346856
0.00673983
0.000242758
0.0136978
0.0142422
0.0156917
0.000788549
4.32813e-05
0.0202808
0.0238357
0.000881929
0.00391944
0.000231699
0.00673766
0.000456252
0.00673346
0.000398235
0.00100837
0.0181878
0.00673241
0.000770686
0.000878591
0.00987348
0.000115413
0.000618737
0.000662812
0.0183075
0.00200949
0.00167765
0.0240317
0.00672579
0.00136022
0.000874576
6.39619e-05
0.00260291
0.00673175
0.0169375
0.00118093
0.0218333
4.2221e-05
0.000147871
0.0303284
0.000267946
5.83178e-05
0.00672741
0.00222932
0.000236089
0.000662882
0.00186647
0.00187797
0.000565444
0.000765585
0.00474455
0.00326276
0.00243296
0.0202009
0.00854914
0.0012982
0.000107186
0.00137565
0.0163829
0.0023926
0.00674526
0.00250982
0.000479371
0.0165689
0.0290508
0.0159522
0.00310057
0.0298718
0.000867897
0.00154994
0.014655
0.000600773
0.00672634
0.00674122
5.23046e-05
0.0227944
0.00042332
0.00166183
0.000550582
0.00185396
2.92304e-05
0.00118272
0.00236731
0.000193894
0.0113328
0.000379832
0.000692454
0.0010431
0.006725
0.00101249
0.000928231
0.000836715
0.000438258
0.00672654
0.00173022
0.00256622
0.00376099
0.00667396
0.00673146
0.00105035
0.00109737
0.000195093
0.00118959
0.0026542
0.00151072
0.0067508
0.00282653
5.75697e-05
0.0022216
0.000405302
0.0067295
0.0315209
0.00551982
0.0182396
0.00235905
0.00672541
0.000752387
0.0264102
0.0172964
0.0232464
0.000934042
0.000387179
0.0175001
0.00423173
0.00680255
0.000783558
0.000632423
0.00141717
0.00307659
0.00649577
0.00163172
0.0159957
0.00435842
0.000380637
0.0167577
0.0205344
0.0040984
0.000363692
0.00488038
0.0023211
0.018192
5.57673e-05
0.00331305
0.000231718
0.0208944
0.000817402
0.0224394
0.00428496
0.00115743
0.00672618
0.011865
0.0155434
6.39191e-05
0.00352202
0.00672562
0.0205738
0.0010724
0.00323696
0.000310262
0.00448685
6.73914e-05
0.00165056
0.00637536
0.00201696
0.00587466
0.0163007
0.00129869
0.00142379
0.0111086
0.00907307
0.0227432
0.0146364
0.00429034
0.000880538
0.000115248
0.0131385
0.00130449
0.00117092
5.27099e-05
0.000950848
0.00675426
0.00674148
0.000638534
0.000101246
0.00107823
0.00672594
0.0224949
0.00848273
0.00672749
0.0142618
0.000396407
3.25531e-05
0.000108566
0.000867032
0.0150338
0.0105596
0.00672604
0.0187214
0.00672767
0.0013332
0.000812685
0.00313825
4.54725e-05
0.00124351
0.00674315
0.0164688
0.00679901
0.00214831
0.0018742
0.0163342
0.000390597
0.00451672
0.0216206
0.00572925
0.00252297
0.00257515
0.0159036
7.95078e-05
0.0195787
0.0016011
0.000121233
0.000517789
0.00284235
0.000517228
0.00206403
0.000394688
0.00167942
0.0194565
0.000232886
0.0167714
0.00672599
0.000658815
0.00669581
0.00817626
0.0140458
0.000615058
0.0148659
6.68049e-05
0.00011253
4.39576e-05
0.0148835
0.000252536
0.000683159
0.00117926
0.00673542
0.00041877
0.00650638
0.0289339
0.006744
0.0187428
0.0126231
0.00569297
0.000525323
0.00515414
0.00673619
0.00365296
0.0171799
0.00680524
0.00257671
0.00538732
0.000553316
0.000253574
0.027025
0.00673081
0.0153299
0.000807993
0.00673556
0.00672658
0.000738793
0.000264668
0.00673221
0.00226486
0.00975912
0.00108802
6.74473e-05
0.0169951
0.0019811
0.00598858
0.000172069
0.00334445
0.000423727
0.00385802
0.000904909
0.000552267
0.0296531
0.0067361
7.16499e-05
0.0237619
0.000113696
0.00672686
0.000679601
1.96929e-05
0.00678525
0.000889873
0.00309576
0.016031
0.00019021
0.00761755
0.0201895
0.0234899
0.000578299
0.0130252
6.50775e-05
0.0173525
3.37775e-05
0.00164806
0.0193145
0.000705415
0.000455938
0.000868411
2.82698e-05
0.00054422
0.00158427
0.000106151
0.00384121
0.0011096
0.00672628
0.000213102
0.000187579
0.0226931
0.000316102
0.0194284
0.00362809
0.0031389
0.00218281
0.00511425
0.0122196
0.000822828
4.33142e-05
0.00261453
0.00110557
0.0252165
0.0150979
0.00411514
0.003916
0.00394895
0.0141339
0.00204273
0.000316733
0.00401009
0.00125638
0.00113144
0.000727774
0.000177865
4.44466e-05
0.000684315
3.18391e-05
0.00158563
0.000727597
0.000379462
0.00092598
0.000917963
0.00175048
0.00101671
0.0104021
0.00115574
0.000767776
4.12849e-05
0.000882263
0.0164673
0.00337387
0.000830413
0.00781354
4.87282e-05
0.00194173
0.0262436
0.00963314
0.000230059
0.00629938
0.000178949
6.93163e-05
0.00672631
0.000552907
0.0161787
0.00272132
4.09868e-05
0.00672582
0.019086
6.05475e-05
0.00675071
0.0079558
0.000415103
0.00675692
0.000891886
0.00622357
8.84284e-05
0.00152293
0.000951175
0.0263613
0.00137239
0.000140534
0.000402783
0.00676348
0.00673253
0.00340872
0.00316235
0.00198081
0.0162255
0.00302886
0.000197008
0.000672084
0.0193919
0.000507065
0.00082478
0.00673229
0.00115167
0.000137091
0.00234217
0.00375647
0.0154006
0.000446208
0.00607915
0.0106129
0.0127036
0.00370219
0.00202617
0.00672535
0.02167
0.0119107
0.000644988
0.00318665
0.011007
0.00221434
6.28312e-05
0.00265893
0.000102614
0.000181456
0.00678624
0.00016845
0.000752646
0.0067285
0.0290453
0.00940576
0.0308303
0.00110753
5.78947e-05
0.00564129
0.00441058
0.0010107
0.0295304
9.21102e-05
0.00176936
0.000224279
0.0322832
0.00250242
0.0176123
0.0263236
0.0033327
3.14904e-05
0.00238713
0.000382927
0.00676017
0.000869215
3.23328e-05
0.00083712
0.0014509
0.00472862
0.0160614
0.00125956
0.0284716
0.000243923
0.00447494
0.0283712
0.000506318
0.0260263
0.000757953
0.00145866
0.00147453
0.0162893
0.0289211
5.70896e-05
0.0234118
0.00673698
0.00125233
0.00673788
0.000647633
0.000889457
0.0131151
0.00672691
0.0203149
0.000302
3.32231e-05
0.0161499
0.000840778
0.00367099
0.00150083
0.00672547
3.77547e-05
0.00075858
0.00289981
0.00556186
0.0124793
0.000648178
0.000258676
0.000295932
0.000482004
0.025528
0.00674419
0.000910314
0.00167032
0.0233145
0.00124213
0.000525152
0.0074259
0.0152982
0.0248077
0.0163223
5.54892e-05
0.000730619
7.55923e-05
8.60602e-05
0.000956303
0.000164163
0.00672553
0.00108918
0.00675958
0.000446542
0.00672565
0.00393761
0.00806847
0.000504115
0.000625054
0.00675328
0.00186381
0.015722
0.0240342
0.00673
0.00672511
3.17614e-05
0.000389321
0.00675644
2.91531e-05
0.0003164
0.000948057
0.00452762
0.000395559
0.00678249
0.00344096
0.000295555
0.000716246
0.00672945
0.000369303
0.0260525
4.31505e-05
0.000132911
0.00675316
0.00675603
0.000412882
0.000952896
0.00120149
0.000139764
0.00672394
0.000948779
0.00077435
0.00299152
0.000212091
0.00674542
0.0067288
0.00672564
0.00247273
0.0252365
0.00370998
0.00401973
0.0317755
0.00466247
0.000684482
0.000331041
0.0067253
0.000861972
0.00094729
0.00103871
0.000478492
0.00182757
0.000473308
0.00112822
0.000852011
0.0036243
0.00119508
0.000110101
0.00413713
0.00740883
0.0246434
0.00675263
0.00128856
0.00108119
0.00672694
0.0115881
0.00952428
0.0157381
0.000692035
0.000118118
0.0313169
0.0017273
0.00164915
2.94856e-05
0.000372894
0.00674214
0.000457388
0.00125732
0.0008311
0.0306258
0.00295535
0.00458511
0.00388542
0.028063
0.00672761
0.00672409
0.0146741
0.000578724
0.00672575
0.0129638
0.00685447
0.0067248
0.00651609
0.000732453
0.00342783
2.87948e-05
0.000606575
0.00042229
0.00105773
0.000118223
0.00052413
0.000449744
0.00672363
0.00023432
0.000475426
0.00435742
0.00010846
0.00116969
3.83076e-05
0.00908268
0.00672381
0.0214741
0.000289422
0.00184359
4.17444e-05
0.00672522
0.00221633
0.00211239
0.014157
0.0014913
0.00338754
0.0318558
0.0148754
0.00049161
0.000683777
0.00139001
0.00674076
3.7136e-05
0.0020615
0.00156373
0.0214849
0.0040414
0.000189059
0.000206935
0.00672561
0.000950093
0.000536922
0.0164612
0.000955093
0.00680051
0.00673399
0.022989
0.000130965
0.00189576
0.000554165
0.0247388
0.000783572
0.00227277
0.02258
0.00677783
0.0164075
0.00330312
0.00675307
0.000852674
0.00129383
0.00125174
0.0289849
0.0284562
0.0153335
0.00751781
0.000550846
0.0093788
0.00113128
0.02339
0.00463529
0.00132957
0.000619424
0.000733868
0.000303199
0.00384237
0.000535363
0.00674683
0.0234302
0.015073
0.0279105
0.00447493
0.0067622
0.000609244
0.00968309
0.0103841
0.00320892
0.0277409
0.00672894
0.00474478
0.000136908
0.00026568
0.00673267
0.00471705
0.000174311
0.00672706
0.000206991
0.00353038
0.000764593
0.00672505
0.00157824
0.000753723
0.0122811
0.00528084
6.74609e-05
0.00384118
3.32072e-05
0.00144105
0.00651912
0.0251073
0.000980467
0.000965581
0.00687061
0.0140608
0.00651068
0.00672588
0.0147859
0.00672634
0.0151072
0.00588803
0.00241112
0.000122443
0.000557108
0.00672542
5.39366e-05
0.00682154
0.00672525
0.000581012
0.000334406
0.00107719
0.00597177
8.25313e-05
0.0157574
0.00067444
0.000298206
0.000396292
0.00138955
0.0188599
0.000706157
0.000226222
0.00985005
0.000659716
0.0172486
0.0147078
0.00569788
0.0001116
0.00187713
1.45492e-05
0.00586125
0.00681554
0.00675497
0.0281264
3.96459e-05
0.0291851
0.000289714
0.00157163
0.00674932
0.0316999
0.00261894
0.00249751
0.00275065
0.00874076
0.00272127
0.0021711
0.00199822
0.000989002
0.0017665
0.00208656
0.0279286
0.0250488
0.00254449
0.00672699
0.000991916
3.93721e-05
0.0012102
0.0032383
0.0112772
0.00108359
0.00673513
0.000542366
0.0068022
0.00145946
7.15433e-05
0.00533544
0.000292868
0.0173647
0.00680107
0.000919618
0.00132578
0.000243102
0.00163725
0.00393691
0.000663321
0.00101732
0.000219547
0.00236182
0.017684
0.00393379
0.000189305
0.00672685
0.0253039
0.0200673
0.000838553
0.000510987
0.0251357
0.00851725
0.00705804
0.022396
0.0204973
0.00138488
0.00240216
0.00559751
2.57469e-05
0.000595817
3.09648e-05
0.0283334
4.24325e-05
0.00244236
0.0105052
0.0191801
0.00672477
0.000722751
0.00173878
0.00425812
0.00673546
0.00865271
0.00138154
0.0312442
0.00674368
0.0180587
0.00203288
0.000771926
0.00523971
0.0205008
0.00474554
0.000354792
0.0251147
0.00673025
0.00375604
0.00101697
0.00672897
3.16792e-05
0.00680411
0.00277083
0.00306967
0.0117277
0.00974101
0.000449751
4.71752e-05
0.00147163
0.000293578
0.0273448
0.00109174
0.0186024
3.96108e-05
0.0237822
0.000532349
0.000758751
0.0180963
0.00673562
0.000612524
0.00679477
0.00672585
0.000753172
0.017912
0.0139302
0.00631499
0.00673054
0.000373209
0.0221688
0.000686601
0.00666091
0.0318465
0.00128006
0.00113151
0.00317252
0.000146547
0.00672649
0.000557385
0.00573017
5.47373e-05
0.000251897
0.003328
0.00674323
0.00169429
0.000879084
0.0006109
0.0282764
0.00458583
0.00672664
0.0141282
0.00815487
0.0067264
0.00014305
0.0260699
0.000375558
0.0270339
0.00487285
4.13095e-05
0.000231479
0.0181674
0.00674119
0.000547712
0.000504553
0.000683623
0.00672632
0.0170367
0.000363952
0.0155175
0.00672369
0.00347875
0.0152204
0.011096
0.002756
0.000770673
0.00133027
0.011818
0.000437604
0.00150756
0.00152462
0.0118036
0.00632566
0.0149717
0.000892398
0.000518742
0.0322794
0.00858751
0.000592651
0.00139835
0.00672591
0.00149967
0.00673871
0.00664403
0.000880628
0.000780137
0.00675465
0.0158713
0.0077178
0.000357751
0.00229023
0.00246062
0.023763
0.00692211
0.000520372
0.0240571
0.019561
0.00680585
0.0266599
0.00279203
4.90373e-05
0.0308133
0.00102183
0.0317496
0.000271701
0.000113868
0.00024354
0.000718508
2.1721e-05
0.015312
0.00168439
0.000534855
0.00229015
0.0155892
0.00011436
0.00672638
1.66208e-05
0.00190209
0.00128749
0.00111689
0.000373194
0.0144591
0.00324025
0.000571118
0.0018282
0.0285285
0.000378986
0.00138572
0.000464486
0.000533175
0.00552505
0.015359
0.000361626
0.00672856
0.00136958
0.00514324
0.000294696
0.00326919
2.07503e-05
0.00318187
0.00672666
0.00675178
0.000478795
0.000742723
0.0245607
0.0194605
0.00672895
8.16458e-05
0.000231572
0.000518378
0.00520811
0.00673616
0.0276308
0.000756204
0.000974286
0.000878624
0.00672877
0.000897074
0.000207748
0.000524393
0.00791038
2.46863e-05
0.02887
0.00384966
0.000615732
0.00155425
0.00265066
0.00676838
0.00604233
0.000179721
0.00672936
0.000892908
4.35557e-05
0.00155014
0.0068159
0.00340199
0.0278462
0.0129718
0.00134919
0.000319865
0.00201794
0.00674748
0.00028654
0.00207158
0.00123663
0.00928845
0.0168997
0.00439697
0.0241383
0.0113476
0.0011539
0.0036467
0.000383483
0.00797787
0.00402937
0.000244622
0.0202074
0.00150544
0.00040985
0.00375144
0.00673316
0.00672546
0.00255346
0.0122722
0.00392034
0.00672494
0.000194014
0.000633272
0.0185906
0.000652717
0.0067451
0.000965241
0.00247694
0.0114522
0.0025454
0.00508686
0.000593476
0.011115
0.0038585
0.000414816
0.00269496
0.00111763
0.000117028
0.000199495
0.00687474
0.00353076
0.00676685
0.00242565
0.000506656
0.000348901
8.76233e-05
0.00672368
0.0126014
0.00056994
0.0186259
0.000556988
0.000832187
0.00658282
0.000369118
0.000705385
3.68726e-05
0.0187708
0.00212835
0.0165259
0.000684042
0.00410103
0.00195699
0.000491303
0.00674164
0.0134922
0.0201846
0.000472668
0.0225747
0.00129805
0.00230347
0.00262263
9.40328e-05
6.27349e-05
0.000355072
0.00060439
0.000274657
0.00033394
0.00150332
0.000498903
0.0179938
0.00368631
0.017131
0.00393258
0.0154946
0.00672643
0.00302156
0.0243426
0.00673575
0.00208272
0.00672471
0.00107696
0.0181211
0.000786723
0.000317213
0.00540338
0.00661729
0.0168876
0.000300707
0.000402862
0.000503823
0.0143115
0.000666352
0.000253063
0.00680492
0.000475087
0.000983514
0.00111057
2.53764e-05
0.00246551
0.00680929
0.00429655
0.00807872
0.00165774
0.000143078
0.00501546
0.00385411
0.00622636
0.00111653
0.00228787
0.000457937
0.00126868
0.0100847
0.0067269
0.00182578
0.000791772
0.0139563
0.000518601
0.0146306
0.000737836
0.00677243
0.00118675
0.00672624
0.00674772
4.49823e-05
0.000485882
0.00956676
0.0213825
3.02591e-05
0.000257895
0.000503107
0.00675664
0.00434905
0.00243233
0.000603662
0.0225379
0.00031889
0.0147718
0.00200656
0.00224976
0.0122473
0.000873579
0.000406702
0.000596416
0.0132349
0.00042559
0.000908531
0.000437085
0.00298455
0.00690905
0.00608912
0.000334304
0.00686329
5.60203e-05
0.00677175
0.0318988
0.0298655
0.000963977
0.00106308
0.00678437
0.00303043
0.0124923
0.00070368
0.0208368
0.00195021
0.000378269
0.0163546
0.00140506
0.0271914
2.73558e-05
0.00484265
0.000676367
0.00236671
6.37973e-05
0.00989473
0.000276015
0.000935712
0.00103746
0.000329602
0.00627846
0.00111412
0.0178754
7.17469e-05
0.0014594
0.00427717
0.0011973
0.00672764
0.00214172
0.00672392
0.0011981
0.000728798
0.0263673
0.0115503
0.00672787
0.00279873
0.0202258
0.00256231
0.000688068
0.0015602
0.000456185
0.0228054
0.0309251
5.26298e-05
0.0106622
0.000689244
0.000769167
3.36344e-05
0.00054484
0.00176341
0.00672537
0.0263923
0.000370293
0.0135363
6.32567e-05
9.56568e-05
2.82409e-05
0.0302607
0.030178
0.00051509
0.00143881
0.0258812
0.0119333
0.027522
0.00512523
0.00129268
0.0042891
0.0148505
0.0151829
0.000588307
2.87423e-05
0.00134247
0.000842551
3.12683e-05
0.0190067
0.00674935
0.00155053
2.46117e-05
0.00112624
0.00172327
0.0114214
0.00241063
0.000945758
0.00485391
0.02176
0.0178618
0.0184061
0.00672509
0.0111232
0.00844309
0.018522
0.0252102
0.0213384
0.000722624
0.0137376
0.0150217
0.000318861
0.000713732
0.00161473
0.000213794
0.00071688
0.0233342
0.0325479
0.0181588
0.00031806
0.0238672
0.00080039
0.00195108
0.0082596
0.000816533
0.00434085
0.00296697
0.000298327
0.0279217
0.00153864
0.00244809
0.00142779
0.0067344
0.000875461
0.000406532
2.99645e-05
0.000801748
0.000557379
0.0181898
0.000466408
0.00214682
0.00191142
0.0129599
7.37458e-05
0.000207066
0.0179703
0.000528053
0.000135466
0.000993898
0.0238387
0.0073223
2.57917e-05
0.000108553
0.000338833
1.17033e-05
0.00041623
0.00441488
0.00188526
0.0130961
0.00672431
0.0277133
0.0126702
0.00111081
0.000386516
0.00114599
0.00673239
0.00940495
0.00673372
0.0011179
0.0241436
0.00048808
0.0229402
0.000760465
0.0187191
0.000112678
0.000714904
0.0177742
0.00672429
0.000866615
0.000885876
0.00427492
0.00308788
0.0117311
0.000338247
0.00676945
0.001047
0.000251861
0.00323839
0.00513127
8.65086e-05
0.00340782
0.0014982
0.00138969
0.0188054
0.000418727
0.00936861
0.0162262
0.00046496
0.000943525
1.96083e-05
0.0186177
0.00599252
0.00148761
0.00388399
0.00201614
0.00396427
0.000436695
0.0187515
0.00167901
8.44524e-05
0.00182321
0.000962193
0.0140319
0.00107732
5.48416e-05
0.000961997
0.0015429
0.00569735
0.000932933
0.00894388
3.33527e-05
0.00053515
0.00172812
0.0203217
0.000654611
0.0067998
0.0226075
0.00673525
0.00019476
0.00675814
0.0020046
0.01944
0.00673956
0.000430436
0.0055363
0.0206047
0.00254032
0.000431277
0.00172995
0.000131912
2.91853e-05
0.00087592
0.00121234
7.04928e-05
0.000815815
0.000695207
0.000654084
0.000414333
3.6705e-05
0.000895844
9.0559e-05
0.000293083
0.000952729
0.0163498
0.0211523
0.00672494
0.000684113
0.0259819
0.000293446
3.91968e-05
0.0004384
7.16365e-05
0.000717775
0.00672665
0.00107527
0.0221532
0.0240356
0.0279845
0.00101049
0.000186501
0.0163412
0.000128386
0.0252229
0.002699
0.020025
0.000780745
0.017612
0.00087401
4.339e-05
0.0225668
0.00673073
0.000942172
0.00200739
0.00155879
0.000620464
0.0315451
0.0274314
0.00100201
0.00673055
0.0052652
6.76407e-05
0.00241097
0.0232242
0.0269409
9.19837e-05
0.00068087
0.0160217
0.000315204
0.00676796
0.0294563
0.00398585
0.00809533
0.0208293
0.00899532
0.000185923
0.00639618
0.00128355
0.00672776
0.000480077
0.000542512
0.0011726
0.0245171
0.0192851
0.00130976
3.95915e-05
0.00563015
0.0171175
0.0181065
0.0175777
0.0266698
0.000619627
0.00788202
0.0308023
0.0021302
0.000112265
0.00108558
0.0180223
0.00687157
0.00674047
0.000877516
0.00673055
0.00140875
0.00300205
0.00176531
0.00673179
0.0251672
0.0020299
0.0259418
0.0067265
4.53593e-05
0.000472762
0.00046534
0.0150777
0.0263561
0.00674465
0.000774475
0.00693074
0.00609186
0.00756454
0.0301091
3.8269e-05
0.000640749
0.000512902
4.56289e-05
0.000678379
0.00672721
0.006726
0.00100418
4.01922e-05
0.0288628
0.000451324
0.000273203
0.00243117
0.0270158
0.000228067
0.000550438
0.0174139
0.000145014
0.00425771
0.00511237
0.000791127
0.000549575
0.000907171
0.00109672
0.00673409
0.00202599
0.000678876
0.000233695
3.88443e-05
0.000203505
0.00462673
0.00080982
0.000927302
0.00504127
0.000743034
0.0022366
0.00721402
0.00195761
0.0067236
0.000380829
3.40465e-05
0.000674126
0.00675828
0.000548906
5.84716e-05
0.0317009
0.000315674
0.000383117
0.00205156
0.0156168
0.00129743
0.00133288
0.0248431
0.00179237
0.000520044
0.00107874
0.017335
0.00678596
0.00470617
0.0219058
0.0207567
0.0114461
0.00121166
0.0227895
0.00674678
0.00673129
0.0019666
0.00145712
0.0253712
0.0195115
0.00139029
0.00197945
0.00207123
0.00921843
4.65064e-05
0.0120403
0.000783967
0.000165772
0.00167977
0.00286901
0.00673517
0.000269291
0.0207278
3.1806e-05
0.00284994
0.00150994
4.12039e-05
0.0201533
6.31471e-05
0.00674628
0.00234409
0.000326767
3.37246e-05
0.000522713
0.00554495
0.000605306
0.0167302
0.00150463
0.00608902
0.0242703
0.00657402
0.000480369
3.52892e-05
0.00231777
0.00443365
0.0067264
0.000111668
0.00672382
0.00294117
0.021317
8.61029e-05
0.0154235
0.0017666
0.000375174
0.00673651
0.00674247
0.000184519
6.15619e-05
0.0248495
0.00306129
0.00650072
0.00166483
9.85482e-05
0.00672464
0.00139436
0.0154167
0.0201249
0.000331783
0.000233684
0.0209508
0.00201405
0.0009612
0.0017844
0.000108758
0.00103828
0.00672682
0.00418068
3.3856e-05
3.71216e-05
0.000594916
0.000934813
0.00116222
0.00236228
0.000382004
0.000884767
0.000896667
0.00673878
0.00224394
0.00134434
0.0289837
0.0264261
0.000363209
0.00672568
0.000552529
0.0175967
0.000557972
0.000988212
0.000100188
0.0067294
0.010811
0.00530555
0.000130802
0.00321546
0.000794189
0.00125826
0.00119338
0.000400866
0.00124768
0.000639652
0.00613741
0.000207824
0.000793044
0.000544502
4.42399e-05
0.0140635
0.0186911
0.00683036
0.000958092
0.00102293
0.000703453
0.000554449
0.00471097
0.00679663
6.91342e-05
0.0271155
0.00353012
0.000933815
0.00458503
0.000748382
0.000291072
0.00815507
0.00652841
0.000120656
0.0282751
0.0245053
0.000181426
0.000792893
0.0246362
5.55729e-05
0.00179131
4.97752e-05
0.00119025
0.00202347
0.0230176
0.00677588
0.000121699
0.00488298
0.019347
0.000875435
0.00673932
0.00333611
0.018402
3.11882e-05
0.0142191
0.00265892
0.000149886
0.000573183
4.66701e-05
0.0317651
0.00194861
4.28096e-05
0.0046626
0.00313135
0.00675401
4.31553e-05
0.019526
0.00435561
0.000167758
0.000893884
0.0203697
0.000305136
0.00454005
0.00219922
0.0190767
0.00393268
0.000117038
6.6497e-05
0.0204535
0.00672585
3.21812e-05
0.000932794
0.00106085
0.000109547
0.00248849
0.0157685
0.0276084
3.94442e-05
0.00219485
0.00010877
0.0126894
0.000123904
0.0259046
7.09445e-05
0.0158833
0.00208408
0.0160353
0.00175881
0.00170528
0.00165152
0.00682498
0.000155545
0.00675141
0.0027242
6.7985e-05
5.45563e-05
0.00174693
0.00297845
0.000126937
0.00184199
0.00266727
5.60535e-05
0.00118026
0.000151934
0.000477018
0.0067538
0.0186404
0.000644248
0.00253651
4.07983e-05
0.0067294
3.88661e-05
0.00676555
0.000558427
0.000149492
0.0111387
0.000415481
0.020894
6.04179e-05
0.00672632
0.00026884
0.0012111
0.0230468
0.000162746
4.97683e-05
0.000330946
0.00287063
0.000207321
0.000227184
0.0124153
0.00383006
4.33789e-05
0.018586
0.0067335
0.00206237
0.0010947
0.000235956
0.00379762
0.00672628
0.00820564
0.000303576
0.0013129
0.000311222
0.0273578