/*--------------------------------*- C++ -*----------------------------------*\
| =========                 |                                                 |
| \\      /  F ield         | OpenFOAM: The Open Source CFD Toolbox           |
|  \\    /   O peration     | Version:  v2012                                 |
|   \\  /    A nd           | Website:  www.openfoam.com                      |
|    \\/     M anipulation  |                                                 |
\*---------------------------------------------------------------------------*/
FoamFile
{
    version     2.0;
    format      ascii;
    class       volScalarField;
    location    "300";
    object      ddt0(omega);
}
// * * * * * * * * * * * * * * * * * * * * * * * * * * * * * * * * * * * * * //

dimensions      [0 0 -2 0 0 0 0];


internalField   nonuniform List<scalar> 
13917
(
0.000767275
0.000593049
-0.0945251
0.000372073
6.20513e-07
0.0622649
-0.152767
-0.0897469
0.191282
0.00762818
-0.0751304
-0.00533504
0.000469135
-0.490728
0.00011755
0.00121035
0.00050554
-0.00621326
-0.000344384
3.21679e-07
-4.28534e-07
-0.166239
2.26068e-07
-0.0516784
-1.92358e-06
-0.101145
-4.43061e-06
0.0282484
0.798964
0.0450632
0.00469455
-0.00262544
0.00221253
0.000946261
-7.4161e-06
0.280013
-2.36874e-07
-0.0848084
0.000118557
-0.115719
-1.99655e-07
1.68152e-07
2.33443e-07
-0.0196072
-5.96323e-05
0.00109884
-0.0070821
0.00171211
-0.00229569
1.61142e-07
-0.000498942
-5.15542e-05
0.154738
-0.00023797
0.000176311
-0.000228965
-0.0623244
-1.34266e-05
0.000200025
-4.69402e-05
-0.438052
0.000476569
-0.813569
1.17258e-06
-0.613087
7.60719
-1.74143e-07
1.20412e-06
0.0226629
-0.00464213
8.9415e-07
0.16652
-0.062041
-3.16103e-06
-0.0492723
-0.0047046
-0.130878
0.000447573
-0.0231917
-3.06092e-07
-8.28828e-07
-1.19255e-07
-0.656053
-0.127531
-0.0966641
0.000203889
-5.68474e-07
3.68172
-0.000524842
8.92383e-07
-0.0679784
0.0389042
-1.80835e-05
3.88736e-06
-3.35968
-0.104071
-0.0261907
-0.00208526
-0.0157168
0.00242149
2.82215e-07
-0.00363221
-0.0145202
-1.88675e-05
-4.65995e-07
0.178109
0.442312
0.0056996
-9.36559e-05
-0.00877916
0.0413452
-0.036638
-0.00134911
0.195583
0.000391155
-0.0468831
-1.27605e-06
0.215919
0.0422502
-0.000469191
2.33795e-07
0.0309902
0.0145139
0.00111818
9.0954e-08
-3.96842e-05
0.000147678
1.12351e-07
-7.53696e-07
-0.0960661
-0.0680067
0.000569243
-7.30342e-05
6.12065e-08
-0.287755
-0.0333308
-0.00102398
-0.176013
-8.08222e-08
-0.000754361
0.243524
-2.36149e-06
-0.000229936
-0.063213
-4.291e-08
0.0658462
-0.033808
0.00021901
-2.23111e-06
-6.64484e-05
0.00400522
0.561848
-0.000758789
0.0100841
-0.00108401
-0.179774
-0.00168624
-0.0932665
-0.373845
0.375688
-0.00181235
-0.000295456
9.38605e-08
0.0071876
-0.00304562
-0.00361146
-0.000279936
0.00324427
4.44424e-05
-0.0102331
-0.00707395
0.163311
-0.00134872
-8.05187e-05
0.00705242
0.0194887
-0.0955648
-0.148934
0.0164043
-2.46112e-05
-0.0041053
0.00607799
-9.12531e-07
-2.1335e-07
0.000280617
-0.0582802
-0.21773
-0.226468
-0.00076818
0.00800858
-0.0120447
-0.17682
-0.771857
2.20257e-06
-0.160214
-0.00591892
-2.23711e-07
-3.70848e-05
-0.165492
-1.03243
0.000137044
1.21624e-07
-0.00743348
0.00490551
-0.0970158
0.978152
-1.136e-05
-6.06063e-06
-0.00171043
-0.0617112
9.80642e-05
-0.173374
-0.182554
-0.00381905
-9.69829e-07
-0.0405509
-0.00260092
0.0124011
-2.50388e-06
-0.276577
-7.70857e-05
0.0415171
1.17125e-07
-0.108797
0.194305
0.00215827
-3.66826
-0.00284241
-1.22149e-06
-3.26807
0.00139366
0.000518149
-0.0111848
-0.240206
1.07363e-06
-0.00196501
-0.057031
-0.0264217
-4.55561e-07
-1.87382e-07
-0.0787944
-0.0135788
-2.0181e-10
-0.049539
0.0154
0.00457224
0.00250213
-3.28078e-07
0.00334379
-0.208147
2.67777e-05
0.0411541
0.137814
7.9696e-05
1.72908e-05
0.00711215
0.0492754
0.000106159
-0.00423372
-4.95308e-06
-1.94586e-09
0.020876
-0.0347389
-0.0289186
-6.69566e-07
-0.04143
-0.0988005
0.225496
-0.0134261
-0.00459734
-1.49572e-06
6.92831e-07
-0.00177135
-0.0669009
0.0057282
0.000278713
-0.0166138
0.00230286
-3.61846e-07
0.066066
3.67131e-07
0.0274169
0.000316837
2.15125e-10
-0.000452908
-0.00138665
-0.0215827
-0.273871
-0.00258135
-1.49712e-05
0.393518
-0.00918385
-0.000847091
-3.6543e-06
-0.147799
-1.75784e-07
-5.57923e-05
-1.0804e-06
-0.872838
-6.50428e-08
0.0114297
0.00145774
3.21368e-05
-0.00605654
0.00019542
0.0532965
0.00653671
-0.00373734
-3.2656e-06
1.56794e-05
0.0389843
0.0147106
2.88995e-08
-1.78713e-08
0.0651061
3.44219e-05
-0.0401344
1.35937e-06
-0.129586
-0.000194912
-0.634123
2.06944e-05
0.0930859
0.000999173
0.653095
-0.466136
-0.000572789
0.00691683
0.0674671
-2.50899e-05
-0.0722285
0.113747
-0.0689334
0.000670038
-0.054632
0.00232351
-0.0480322
-0.674526
0.0179026
-0.0737686
-0.136457
-4.93305e-07
-0.0243605
0.052986
3.37834e-05
0.00174488
-0.0357531
-0.807703
0.000117993
-0.0601052
0.783253
-2.38864e-07
0.0347611
-0.39676
7.22286e-07
2.59421e-06
-6.04633e-08
-2.17998e-06
-0.195533
0.0214827
0.397576
0.0451933
-4.5862e-06
0.00131633
-0.0252768
0.00120506
-0.186735
-0.0868083
0.217515
1.5255e-07
-0.0290546
1.95681e-06
-0.0543707
-3.52315e-06
0.642821
0.010859
-3.23116e-05
-8.87929e-07
-0.004202
-0.0183515
0.0150948
-6.97422
-0.0146718
0.222317
-0.00591128
-0.0256626
-6.84937e-07
-0.0409804
-0.161258
3.13158e-05
-0.0180042
-1.1779e-06
-0.0424264
-0.0001363
-3.94699e-07
0.000717922
0.138265
0.000476995
0.0794449
0.206881
0.00342222
0.165901
3.45624e-05
1.05355
0.340062
-2.19512e-06
-0.429659
4.73096e-05
-1.11223e-06
0.0503502
-2.68385e-09
-4.26623e-06
1.86594e-06
0.30254
1.95991e-07
0.0347658
0.036079
-0.0346936
-0.661731
0.0825904
-0.0327326
-0.00453085
-3.53665e-06
0.0356388
0.000240279
-0.000273701
1.61763e-06
0.0362268
-0.113009
0.0414331
-0.000576276
0.00964674
1.7714e-05
0.00016563
0.00932378
0.000398588
-0.0205771
9.21597e-05
-5.19415e-08
-0.0053375
-0.0748628
-0.0966741
-0.112844
-0.0529346
-0.116452
0.0970283
-0.0993789
-9.2508e-07
0.00385947
0.000115794
9.43421e-06
-0.436672
-0.00506126
8.8766e-07
-0.00342984
0.00313136
-0.0566025
9.79637e-07
-0.0238842
-0.52557
3.84019
0.0357311
-4.15494e-07
1.11833e-05
7.55616e-07
0.00211046
1.00167e-06
0.0170498
-0.900192
0.000148217
-0.0132454
0.000120802
0.0284456
0.13506
-1.26623
0.000417118
0.243625
-0.0128983
0.0252631
0.0259612
0.000238874
-0.0403918
-0.126743
0.000173172
-0.00605371
2.19869e-07
-0.0654946
9.93474e-05
-7.8171e-07
0.00353734
0.000149261
-0.0427789
0.189802
3.04967e-05
-2.89814e-07
0.0348361
0.0728011
-2.97226e-09
0.0231485
9.4422e-05
-0.539917
5.29185e-05
-0.0914864
-0.513841
-0.00196063
-3.4261e-05
0.0812536
0.71592
-0.0360074
-2.31666e-09
-0.177526
0.0684002
0.0338907
-2.50262e-06
-0.0539917
0.180508
-0.00288042
2.64397e-06
0.000244606
0.000741044
-0.230033
5.59486e-07
9.89134e-07
-4.13741e-08
5.54531e-08
-0.0768191
-0.262899
-0.00444766
0.29665
-4.45701e-07
1.10088e-07
-0.000621583
0.298843
0.000264335
7.63698e-05
-1.85977e-06
9.73867e-07
-0.130701
-0.250733
-1.0306e-06
5.96462e-07
-0.025722
-0.000594697
0.00119606
2.62194e-05
0.000300471
0.000123225
-0.0118169
0.336269
0.130332
0.0403818
0.00858186
0.529198
-0.0137018
-7.0933e-06
-0.140383
-1.37084e-07
0.00111325
-0.000108311
-0.597348
-0.00409475
-3.60293e-07
-0.810548
-0.00322542
0.431298
0.0115766
-0.00601445
0.00238336
-4.86913e-07
0.047861
-0.792558
-0.239552
0.000764472
0.00134999
0.0478599
-0.0941519
0.722417
-0.00220542
-0.151492
0.000244904
7.13416e-05
4.62666e-05
0.0264128
-0.0503904
1.71077e-05
0.00201237
-0.0794934
-0.243803
-0.0227517
-0.000867754
0.027094
-0.21075
-4.79248e-05
-3.20003e-06
0.127764
0.0209039
0.0797057
0.0734433
-8.18448e-07
0.0156389
-0.00183997
6.92714e-07
0.00273494
-0.00359459
-0.000524401
0.0276521
-0.0434214
0.0572535
-0.00112045
0.0680406
0.000430322
-0.252752
-2.28269e-07
-6.66206e-08
-0.0391608
0.0536782
0.382621
0.000284355
-0.000208641
2.27454e-07
0.00324576
0.110823
-0.00769637
8.04049e-05
0.00943534
-0.00269222
0.000150579
-4.59869
0.000686571
-0.0505456
-2.25346e-06
-0.00771666
0.000474195
0.219569
0.0177202
-0.00992045
-0.00238432
-6.20468e-07
-7.82429e-07
0.000103344
-0.126399
0.000215918
0.326221
-2.41775
0.00596014
-1.96648e-07
0.0635305
1.62092
0.216564
4.47093e-05
0.000775958
-8.45177e-07
-0.000294125
0.000339596
0.215494
-8.89467e-07
3.63552
0.00122778
0.00671451
0.0396283
-0.053827
0.00188702
-0.000187289
-0.0609273
0.216635
5.92797e-05
-0.000107448
-1.32741
-0.174365
-0.000513673
-9.8693e-09
9.49403e-05
-0.172997
-0.000232816
0.0140226
0.00730903
-3.2005e-06
-0.000850389
-0.0854481
-3.23581e-05
-0.000142198
9.14338e-08
0.0157764
-7.38838e-08
-0.000843344
0.117469
-0.000108988
0.0124893
0.000359828
-0.00672796
8.1364e-08
0.000587128
7.7383e-08
-0.0143698
-3.41451e-07
0.00163429
3.65917e-05
-0.340965
1.66959
0.303335
-5.65265e-07
-7.93558e-07
-0.0185204
0.00791011
0.0151901
0.282494
-0.0054258
-3.33739e-06
0.243282
0.712879
-0.0673406
0.207651
0.00300085
0.0240648
0.00276191
0.0024909
0.0801496
-0.18419
-0.0020724
-1.17291
0.00191158
0.0001516
-0.00650399
0.000149341
1.9901e-06
-0.000292593
-0.00577
0.00262029
4.84771e-07
4.44564e-08
0.00386013
-0.000367114
0.0108866
1.95874e-06
1.0459e-06
2.41017e-08
-0.000976133
2.24421e-06
0.00173913
1.46776e-07
-0.100517
0.00671713
0.165676
6.18043e-07
-3.66169e-08
0.0147062
0.0190657
1.14041e-05
-0.0665232
0.0123226
1.93109
0.00145431
0.0123906
-0.000259811
-2.29348e-08
-2.06959e-07
0.000732928
0.135678
-3.52493e-07
-1.17739
0.00352476
-0.0136343
-0.011644
0.00681154
0.0117788
-6.77821e-07
7.66697e-11
0.00556298
4.55022e-08
0.000108271
0.540512
-0.000149463
-4.25194e-07
0.00272666
-7.7562e-07
-7.93216e-07
-0.00113027
-0.00315446
0.0136579
0.000424611
-3.95995e-05
1.13098e-07
-0.114527
-0.135811
5.80173e-05
0.000690314
-0.188889
-0.0478629
0.212831
-0.00619656
0.000439611
8.5009e-07
-8.62113e-07
-0.000532298
0.00173618
0.116255
-0.000248033
-0.0431112
0.000523596
-0.000170878
0.287917
-3.60698e-07
-0.00023253
3.00735e-05
-4.16624e-08
-0.00894594
0.0115389
-0.000168074
0.0264754
0.0299841
0.0433303
-3.407e-06
4.78127e-07
0.00986669
-0.541748
-4.32027e-09
1.81975
4.19102e-07
0.000929619
5.20418e-06
3.78316e-06
-0.154792
2.34605e-06
0.395002
-0.000399682
-9.10108e-08
-9.63073e-07
6.62421e-06
-5.15678e-07
-0.00024293
-2.34462
3.39653e-05
-1.77935e-06
0.010746
0.105978
-0.00155552
0.0104614
-0.00254239
0.000116211
-4.20211e-06
0.000843345
-0.114746
-0.00448143
5.26734e-07
-0.000100443
0.273844
0.00423392
0.043269
-5.8026e-08
3.69745e-05
0.025174
0.000814642
-2.27958e-05
0.075252
0.0520197
-3.71407e-06
0.0142659
-2.94306e-07
6.24899e-05
1.34772e-06
-0.0166353
1.95493e-06
-4.21023e-05
-3.23245e-06
0.234504
8.35433e-05
0.107457
-0.00569808
-1.18289e-06
0.00483351
-1.00313e-06
0.0435389
1.774e-06
3.06586e-05
-1.02943e-07
0.0225803
-1.58301e-07
0.031101
-0.096983
0.0225035
0.00202791
-0.0380585
0.0854963
2.26901e-05
-0.0586027
-0.432338
0.0602468
0.0707932
-0.0248184
-2.08417
0.0419608
0.000284262
-0.0362146
0.00315909
-0.180721
-3.69888e-07
-2.97076e-05
0.000128258
-8.38961e-07
0.000209869
-0.000689608
0.00091102
-2.33089e-05
1.11123e-06
-0.014197
-0.379353
4.33781e-06
0.0186832
0.00317107
-8.44497e-05
1.70843
0.00631197
-0.000627967
-2.54248e-05
-0.000585564
0.194087
0.190305
6.08376e-06
0.315799
0.0151688
0.0335149
0.233214
-0.00474908
4.91075e-05
-0.000150948
2.64464e-05
-5.08427e-07
0.000198467
-8.48218e-07
0.00516735
0.00220911
-0.0102572
0.0235278
-5.88714e-05
0.000100031
0.110371
-0.00233972
0.000100031
-0.116318
-5.00683e-06
4.50412e-06
-0.00756868
0.0120187
-1.15235e-07
-5.1518e-06
-0.194354
-0.0424337
-0.723165
0.00448413
0.735823
7.43826e-07
0.0449626
0.000193973
-1.27464e-06
6.0554e-05
-0.0308827
0.0572563
-2.38432e-06
-6.39918e-07
-1.85839e-05
-0.632918
-0.000510377
0.00475862
1.85195e-06
-0.000525735
0.0622622
4.55365e-06
0.0151162
-0.141444
-0.0970661
-4.59182e-06
-0.00205332
-0.00174885
-0.0646291
0.0881031
-3.48162e-06
0.0359431
-0.00801241
0.236173
-1.83065e-07
0.145812
5.22662e-08
-0.000592807
0.00891729
0.010309
-0.0140182
-0.0987992
-0.0262785
0.04681
-5.12387e-07
-0.0290848
1.95321e-06
0.00178241
-0.207935
8.18045e-06
2.75027e-08
0.000584491
8.95869e-05
-0.0349109
-9.87443e-07
2.97047e-06
0.00296561
0.000222691
0.00546286
0.195763
-0.00625446
0.103338
0.000535031
0.00556814
3.23844e-05
-0.0653281
-0.00319157
-0.0736448
-0.104224
-0.000255639
4.6463e-06
0.129431
-0.0937949
1.6497e-06
0.0238883
0.000251907
-5.22486e-05
-0.000167037
9.06813e-05
0.00465692
1.01591e-09
0.00141056
-0.0216365
1.64358e-06
-0.00395141
-3.09197e-06
-0.00572591
-3.40247e-07
-0.00172945
0.00393205
-0.000281774
7.58902e-05
-9.68712e-06
0.812667
-0.0126543
-0.0169668
-6.66217e-06
0.000513008
0.00716502
8.28594e-06
-0.0424554
0.00774014
-5.23502e-05
0.0143088
-2.45578e-06
0.0122225
6.92248e-05
0.00104733
-0.0194427
0.0826691
-4.34971e-06
-0.00115273
-0.0863365
-8.41998e-07
-2.45375e-06
0.0125873
0.0247032
-0.000148913
0.0232478
4.55029e-07
-2.40438e-05
-0.0177856
0.000609385
-5.65177e-07
0.130905
-8.03611e-06
0.0650203
3.6067e-07
-4.77518e-07
8.49197e-05
-0.00457901
0.0243964
5.94499e-05
1.14966e-05
1.40422e-05
-0.000382855
-1.92969e-08
-0.026183
0.0022062
-2.70652e-09
0.036868
-0.00362547
0.113528
-0.142196
-0.738982
1.58049e-06
-6.15641e-05
-2.7742e-05
1.80216
-0.000549009
0.016733
0.0904884
-0.000810682
-0.219794
-0.062069
-0.0033462
0.00803842
-0.00166162
-0.557648
0.00204351
-0.0199446
3.56765
-0.154498
-0.0012931
-0.00044739
-0.0510446
0.0317652
1.01615e-06
0.000488062
0.162995
0.00262486
2.11672e-05
-0.0045972
-0.00881225
-0.000248654
-0.0456833
0.00108778
0.00922882
0.00118419
-0.0411929
0.0338996
-0.403689
0.00376438
-4.59371e-06
-0.000103737
-0.026621
-4.32581e-07
-0.00069975
4.29352e-07
0.000652815
8.26034e-06
-0.0012697
-0.0322003
0.220464
-0.00192799
0.00174358
0.0627322
-0.65817
-2.57417e-07
-0.531754
0.0303021
-2.06043e-06
-1.52455e-07
-0.00179079
0.120673
-3.21807e-08
-0.0148088
-0.796931
-0.00928503
-4.34582e-05
5.08166e-06
1.02595e-05
0.0293161
0.00195226
9.149e-08
-0.0889398
0.00539157
0.00360909
-3.11124
-0.00183246
-10.5636
-0.00145996
8.7399e-06
0.146286
0.0361574
-0.000558518
1.64362
0.000256939
-6.303e-08
7.48854e-05
0.000155457
-1.42007e-05
-0.000127464
0.0169193
-5.87904e-07
-0.03312
-7.92409e-07
0.00397572
2.53366e-06
0.0262991
0.00639668
3.66527
1.7736e-06
-0.548573
7.21543e-05
0.132783
-5.24112e-07
0.000381746
5.26089e-07
0.0169544
-0.0777621
-0.0402572
-4.06543e-06
-0.0121232
4.29096e-05
0.00147824
-0.0153945
5.84243e-05
9.42966e-06
0.00223189
0.00342007
-0.205943
-5.68362e-06
0.000155083
-0.000263812
9.37914e-07
0.0048296
-3.98917e-05
6.79685e-07
4.63902e-05
-0.138726
0.000433435
0.154342
0.0740963
0.00740423
0.02115
0.00126013
7.24803e-07
0.0019466
-0.0398271
9.69039e-05
-0.00375852
0.00273422
-0.0363086
-1.07083e-06
-0.168295
-0.00956315
-0.00479299
-1.70255e-06
-1.1711e-06
0.00188723
-7.44568e-05
1.17928e-08
0.00865746
-2.27872e-06
-0.00306072
0.00287415
0.0099037
-0.143133
-0.122451
0.000215045
-0.020445
0.888481
-0.24204
-0.00362285
-0.145725
0.100191
-0.000600574
0.0342441
0.00193934
-7.06057
-0.0379896
6.71919e-06
-9.30892e-09
1.72536e-06
-1.02634e-05
-0.00506712
1.5524e-06
0.0010122
-0.00827953
0.000229615
-0.00275337
-0.0798375
-0.00177129
-0.000252302
0.20132
-0.000135047
0.0611713
-6.34923e-05
-0.000603217
4.27289e-06
-0.131095
0.0761744
-0.000128836
-9.79997e-06
0.0996076
-0.000239717
-0.0255107
2.07576e-07
-2.41095e-06
-0.235735
0.000102433
0.00930891
-0.465039
4.87626e-07
0.00451408
0.00324925
-1.28121e-06
1.73533e-07
0.0219499
0.0912343
0.00029819
0.000273855
-1.9951e-05
-0.000262222
-0.00585759
-0.130468
0.000260553
-0.253453
-0.0711454
-0.0856021
0.42299
0.000250837
-0.00231835
0.14523
-1.56011e-05
4.81719e-07
0.00494985
-0.0737354
0.000908262
0.00569232
-0.0711535
-3.6083
-0.15993
0.000390523
8.42981e-05
-1.87825e-08
7.89276e-08
0.163601
0.0066326
0.000268517
0.000139123
6.96032e-05
-5.49155e-07
-1.31167e-05
1.04242e-06
-0.0158566
0.00137642
0.0269081
0.00625844
0.156968
0.101066
0.00222069
-0.0014351
5.25416e-07
0.000111058
-0.140188
0.000277792
0.000785193
0.0040071
-0.00245723
-0.0127763
0.0192048
-0.106804
-1.80442e-05
-0.0586473
-1.60492e-08
-0.000130634
-0.00292553
-5.15927e-08
-1.81467e-05
-0.00230449
-0.0581087
-1.07835e-05
0.114001
0.000428622
-1.87741e-06
-0.000457489
0.641262
-0.0014207
4.71908e-05
0.299634
0.000204864
0.0644983
0.0870709
-8.3201e-09
0.01495
1.76505e-07
-0.168867
-0.0141396
-2.61731e-06
-0.0109094
0.00444412
-0.0249908
5.02966e-08
0.123597
-0.000781365
0.154091
-0.000187827
-0.00983934
-0.0781241
-2.71786e-06
2.59035
8.5566e-06
0.00654883
0.0184826
-4.1845e-09
-0.00594555
0.000304035
0.00219956
0.0042105
0.0218128
0.00865596
-0.00807981
0.000216053
-0.0725392
0.00107973
-0.0838401
0.00420471
0.00983844
-0.000106435
0.00139799
-4.61408e-06
-0.000678525
0.00750057
-6.06643e-05
1.07738e-06
0.048793
-5.25533e-05
0.446654
0.000167239
0.0783084
-0.097173
-0.00164119
-4.29762e-06
1.13337e-06
1.29679e-07
-8.52726e-07
-0.013397
-0.00191283
0.00612814
0.00375881
3.80056e-07
0.245602
9.82793e-05
-0.00349777
0.970907
-2.79042e-06
0.123322
0.00391983
-0.0015223
0.125784
-0.0656462
-0.46477
0.0888726
2.42434
3.65011e-06
0.348632
0.0608042
-0.184012
-6.14183e-07
2.35653e-05
-0.0214712
-0.0164026
0.0790623
7.42399
-7.63946e-05
-0.00911287
-0.00117035
0.0658345
-0.0278486
-0.000778644
0.00359363
0.00108953
0.0205413
-0.00783133
-1.06689e-06
-0.0414412
-0.00501217
7.47004e-07
-0.37057
-2.21172e-07
0.000129886
-0.0472043
-0.0825263
-2.05637e-07
-0.000101542
0.000276148
-6.323e-06
-0.0242053
-0.0736541
-0.000253984
1.62024e-07
1.19762e-06
0.00015459
0.00232513
-0.00146469
0.0466978
3.25073e-06
-0.0451445
0.0519437
-0.197473
0.304443
0.00310145
-0.763952
-0.000645744
0.00297365
0.0403275
-1.79046
-0.000546584
-0.0624554
0.0740439
1.16212e-06
1.46312e-06
-0.0220959
0.00577146
0.0116811
6.76715e-06
0.000110167
-0.075865
-48.8545
2.26223
0.000136234
0.00160604
0.0814649
1.73297e-05
-0.148208
-0.19512
0.539698
2.55501
9.41566e-06
-6.0569e-06
-4.61387e-07
0.00215097
-0.0208338
0.001422
0.000158143
2.07564e-05
-0.0529769
0.137885
0.00190805
-0.093018
-0.00685979
0.0594337
0.704124
1.39527e-06
1.89503e-07
0.0956475
-4.09428e-07
5.48447e-07
2.91973e-05
0.0795124
7.10823e-05
-0.313115
0.00378824
7.46082e-08
0.291655
-0.000358832
-8.74457e-06
-0.00631836
-0.208672
-0.000599494
7.75776e-05
-0.0379852
0.0808093
-4.61614e-07
-0.0239889
0.00281563
-0.327566
3.42389
0.0318753
7.11268e-05
-6.19304e-05
-0.0423855
0.00024889
0.0993607
-0.000293982
-8.90592
0.0695244
0.000776807
0.00130011
0.000102193
0.000358026
-0.0540394
-0.0483567
-2.89921e-07
-0.00317298
-0.00219153
0.000121522
-0.000617452
9.45409e-07
0.0229059
0.000233212
-0.239277
-0.00791797
-1.67604e-05
2.56759e-07
0.120268
-0.244439
0.00278881
0.000391092
0.00509656
-1.36452e-05
0.000231248
0.000314795
0.257658
0.0323103
0.0360211
1.70542e-07
-4.87693e-07
0.000143269
0.00318936
1.05752e-06
-7.20534e-05
0.0434014
-0.000870563
0.153231
6.70425e-06
0.116269
0.0357193
8.04317e-11
0.175492
-0.00938538
-0.00260995
-0.428137
0.000557457
-0.0200406
0.0010295
0.000536081
0.00232211
-3.55787e-07
-0.122155
-1.70998e-06
-3.82521e-05
-0.000675302
0.0784377
0.0114614
-4.32527e-07
-4.88833e-08
0.000480335
-6.14531e-05
-0.0254907
0.000116423
-0.0362524
-0.000231072
-0.0739008
7.12847e-06
-0.234888
-3.98584e-07
0.315214
5.36363e-05
-9.6486e-07
-0.276921
0.189965
-0.0402829
0.62433
0.00247521
-0.00227039
-1.45012e-06
0.0103823
5.84271e-07
1.73404e-06
-0.060837
0.00188673
-0.291059
0.0216819
0.0282261
-0.090728
-0.00335476
0.908666
1.1649e-06
-0.000129153
0.000489269
0.0162325
-5.0254e-05
0.0776969
0.0208531
1.7091e-05
-6.3228e-06
-3.99984e-05
3.29387
-1.64332
0.000427584
2.25813e-06
0.00165336
0.000284528
0.0020649
-0.259997
0.354086
4.28815e-07
1.09311
-0.00885344
-0.230411
0.0025715
-0.00094014
-0.000444696
0.272616
-3.77619e-07
-0.0266268
-0.0661742
0.000364499
0.00155214
-0.0505695
-0.0746449
3.78359e-05
0.043808
-2.98599e-05
-0.0734064
0.00258256
-0.00127169
-8.89967e-05
0.0642692
-1.18714e-07
0.078901
0.115842
-0.0650144
0.00343969
-0.00822731
-0.000104993
0.00258956
1.88903e-10
-0.0939604
0.000447694
8.66832e-05
0.00338814
7.609e-07
-5.8434e-09
0.195418
3.69768e-07
-4.40671e-08
-3.55136e-05
-0.0344016
1.70965e-05
-0.00230636
0.00159622
-0.187739
0.0201688
2.21257e-08
-0.105874
0.318396
0.0225223
-0.0253152
0.00215815
-0.00997133
0.0392275
0.46814
2.56027e-09
0.212567
0.0525579
1.97692e-12
-0.000153281
-9.13509e-07
-0.912692
-0.0680178
-3.5475e-05
-0.144475
0.0527212
4.0239e-07
-8.33061e-05
0.0812594
0.00929216
0.004826
-6.65258e-07
-0.11392
0.140216
0.147403
1.37681e-06
0.0177543
-0.00827919
0.0120615
0.0195741
-8.42473e-05
-6.74515e-07
-0.000284726
-0.101535
-0.00329972
0.0157066
0.141748
2.30865e-06
0.0228089
-1.44037
0.0374864
-4.10609e-07
0.0082717
-2.70157e-05
-3.5014e-05
-0.190035
-0.721505
0.0572971
-0.42577
-2.02747e-05
0.00153192
-2.43194e-06
0.0213992
-0.0198085
-1.49853e-06
5.9052e-05
-0.00185653
1.37136e-05
-0.00282872
-0.246566
-0.032204
0.00122864
0.000185168
3.46565e-05
-0.143671
-0.00120629
0.00496745
4.53569e-07
0.00149911
-1.61527
0.61564
0.189799
-1.16332
-2.63697e-07
0.0212448
-6.72858e-07
-0.0043878
-0.195487
0.0887918
2.04181e-06
2.16099e-08
0.000877253
-0.000451625
-3.21432e-05
-0.209423
0.0500061
1.51416e-06
-1.1808e-06
-3.96498e-07
8.02576e-07
-5.02779
-3.39071e-06
0.0402847
0.00918009
-0.00206814
4.95432e-06
-0.0278473
0.146293
0.00366238
-1.18533
-0.0559257
6.59319e-05
-0.175252
-0.00213973
-0.00292344
-0.221777
0.0325532
0.0415731
0.000904986
3.03425e-06
-0.304541
-7.54785e-06
-0.000320243
7.76379e-05
0.0365743
-0.00149211
8.07068
-0.102495
0.00544903
6.58939e-07
0.222209
-0.000567452
-3.06741e-09
0.585856
-7.10636e-07
0.000908823
0.001213
6.99403e-05
0.0199479
0.00250642
-0.788842
-0.000142224
-1.37767e-06
-0.241452
-0.125377
0.00160094
-0.00163005
-0.00297276
-0.0137092
0.00113961
5.42483e-05
7.72834e-05
0.00025588
0.0149097
0.0010854
0.0496551
0.00147084
-0.323154
-0.00397161
0.000231209
-0.205362
-7.55728e-07
-0.084523
0.0011432
0.0499198
-0.0384513
-0.518006
0.628147
-0.0500469
-0.00835012
-0.000100394
-0.247086
-0.0256198
8.56027e-07
0.194086
0.0632368
0.000561678
0.000284076
-0.000270778
-0.00149514
-0.00272826
-0.124518
5.50601e-10
-0.00183136
0.0013178
-0.00109565
-3.79872e-07
-0.00134051
1.05662e-06
0.0664945
0.000371847
-0.0068975
0.00173799
0.000949377
-0.0921338
-1.74322
-0.023584
-9.26955e-07
-0.277039
-0.227085
0.750971
8.65671e-05
0.149664
0.00373835
-1.84718
-5.443e-07
-9.14637e-05
-0.162158
-0.000664309
0.0539486
0.110632
-0.00525539
0.263128
-7.38868e-05
2.33998e-07
0.125481
0.0337144
-0.00139562
0.0758951
-0.00361385
-0.00504984
-0.0032788
-0.00488557
0.000219481
-0.0316567
-0.0114447
-0.0241447
0.0809168
0.000341852
0.0120814
0.059529
0.000416652
3.00416e-05
0.00860583
-6.23288e-07
0.27838
0.0041964
-0.0851029
0.0219376
-0.00490704
0.000147342
-0.020585
-5.60457e-08
0.00880188
-1.78985e-07
0.244903
0.000461149
-0.00257088
-0.0426937
0.039489
8.55467e-08
-0.00110886
0.00189909
2.80676e-05
0.0351107
-4.17849e-06
-0.0490793
0.0837617
-0.00799862
0.0428012
-7.78641e-07
-0.0477331
0.0173836
0.00398417
-4.36238e-06
-3.55565e-05
-7.46711e-08
-0.00447445
9.20804e-07
0.00569308
1.78263e-06
4.50646e-06
-0.0445678
1.08212e-05
-0.00180777
-0.000268375
-8.58576e-08
-0.0972877
-2.52401e-05
0.00246224
-0.130817
-0.00100861
0.0335073
2.41293e-05
0.0528977
-0.000937994
0.0350504
-0.000312155
0.0229116
-0.000105937
0.000516672
-0.00107061
-0.0046583
-0.00989949
0.0137256
-0.0888248
2.7789
-0.000610375
-0.0196812
0.00478913
0.311787
0.000744037
-0.000100102
3.0283e-06
-0.0010254
0.00399231
-0.668276
-0.00498561
0.0254959
-0.263182
0.0312589
-3.63949e-05
-2.12335
0.112721
-6.26691e-05
-0.00151125
-3.32011e-05
0.0298611
1.06283e-06
-0.255412
1.58635e-05
0.000703667
0.0120791
-0.0163121
3.44767e-07
-8.26949e-06
-0.257475
1.43809e-05
0.00067054
0.000293614
-0.000239006
0.000949647
-0.000189166
-0.056974
-0.0942444
0.00595137
-0.262451
-0.00678664
-0.0781813
-0.0931929
2.73605e-07
-4.62052e-06
0.141789
0.000211596
0.000910753
0.123515
-0.0709177
-3.56091e-07
-2.88262e-06
0.102567
0.24863
-9.06816e-07
-2.90923e-06
0.000961662
-0.49116
-0.0333719
0.00235639
-0.00348928
-1.19894e-06
-0.0415002
0.00468738
0.00350716
-0.000110608
0.0108205
0.000127305
0.000794478
0.201804
0.000201156
0.000102254
-0.000479556
-0.112204
0.000552104
0.14262
3.71012e-07
-0.13811
0.000517469
0.00396686
2.98118e-07
-5.13989e-07
-2.61231
0.554279
-0.0313769
0.0265869
-0.0298747
0.000188038
-0.0798133
0.00554615
8.04437e-07
-0.137872
-0.464737
-0.00866886
-2.68901e-08
0.00172892
0.0197367
5.02581e-06
0.000589444
0.00357242
-0.0135373
-4.16543e-05
4.51378e-06
-3.73934e-05
-0.000227578
0.0424742
0.301676
-0.0808039
-0.0404001
-4.23331e-07
7.79438e-05
0.0760113
-1.97046e-05
0.0285049
-0.000759664
-5.82805e-05
0.0014642
7.5035e-07
0.000247362
-0.159019
-1.14036e-06
0.0270054
1.77378e-06
-5.37748
-0.136149
-0.00643836
-5.23474e-05
1.40192e-09
0.0582469
-6.65868e-07
0.00112851
-4.2318e-05
-0.222168
0.817044
0.0022338
-0.134732
-0.00816957
-0.89663
-0.000277148
-0.00469645
-1.08576e-06
3.37379e-08
-0.000543437
-0.107773
-4.4081
-0.00110838
-0.00313529
0.00345623
-0.0450529
-0.0815612
0.345311
-0.00106536
-3.67726e-08
0.00370449
-6.79584e-05
7.21874e-05
0.192484
-0.00678982
-0.000579826
-0.353012
-0.00293229
-0.000282353
0.00194642
0.287756
5.17625e-05
-2.46413e-07
0.0923007
0.00181176
-1.19252e-06
0.0711895
2.70095e-07
2.18841e-06
0.0224033
0.053201
-0.0555305
-2.12661e-06
9.63243e-05
-4.86315e-06
2.08148
1.60208e-05
-1.70737
-0.414298
-0.0958909
0.0906186
0.346765
-0.00171839
-0.028568
-0.370425
-1.0778e-07
-0.000367594
0.00794303
-0.00458075
0.0686622
-0.067065
0.000803923
-0.0335189
0.00641315
2.90559e-05
-0.0214022
1.74438e-07
-0.0134505
-0.000450152
-5.15571e-05
-0.000452043
0.000209506
5.41321e-06
0.0155981
0.0074115
1.41194e-07
1.09457e-05
-5.75503e-07
-0.088046
3.51572e-05
0.234336
0.00533661
-0.762418
1.09554e-06
1.58451e-05
-0.0441621
0.319946
5.92113e-07
0.283962
-7.19364e-07
0.0713169
0.207305
0.00517642
-0.00561046
1.75903
-1.94165e-07
-1.03767e-05
-0.0238179
0.114413
0.000102649
0.0146524
7.17715e-05
-0.172624
-4.44159e-06
4.97558e-07
3.25129e-05
-1.00424e-05
0.0195483
-0.0742908
-0.325011
-0.00145851
0.0788096
0.13636
-3.87643e-07
-0.00460905
-4.03937e-07
0.40262
0.000116119
0.000670496
-1.26386e-05
-1.27443e-06
-7.96644e-06
-5.8958
4.58491e-05
0.492713
-3.24777e-07
-0.000997723
-1.74555e-06
0.03597
-5.76039e-07
-0.00107722
0.0015996
-0.0112665
-0.175326
1.14874e-06
0.00313998
-0.0280427
-0.0108624
1.42456e-06
2.41658e-06
0.0379065
0.229765
0.000137056
3.51342e-05
0.0996822
0.192277
-0.00172576
-0.188186
0.000592061
-0.907783
-0.0038875
-3.66411e-07
0.0192225
0.000242965
-0.0630763
-9.82605e-06
-0.00046184
8.81558e-07
-0.0602874
-0.0780216
-1.11075e-06
-0.0414779
-0.0506108
1.53472e-07
1.66626e-05
2.4252e-07
0.151696
-0.116157
-0.0243812
-0.000181036
0.00083797
7.59594e-07
-2.79122e-05
-0.000133193
-7.80977e-07
-0.0319872
-1.0708e-05
0.00306324
-1.32486
0.00140627
-8.22496e-07
0.108106
0.00268505
9.1098e-07
0.0178525
-0.00159425
-0.593856
-3.1658e-05
-0.401652
0.0114305
-7.36094e-05
0.00822789
0.0429776
0.000353695
0.201919
0.00468941
0.000306715
-0.90642
0.000111601
-0.040025
-0.0124245
-0.0148825
-4.12662e-06
1.20013e-06
-1.05638e-06
0.00230253
-0.001619
-0.0012161
0.0611833
0.0280366
0.0115728
-1.32778e-07
-0.35503
-0.131905
-0.137537
-5.03853e-06
3.27229e-05
0.00730675
-0.122976
0.000935998
-0.00147113
-0.909344
-0.0637959
10.582
-0.012656
-0.0129112
0.0957702
-0.346806
1.34132e-06
2.90671
0.0901006
-8.65771e-05
-0.000268037
0.000296129
-0.0209516
0.0148827
-0.0251354
-0.00052733
1.52887
0.000184105
1.72161
0.00560209
1.24307e-05
-0.00135641
0.0158645
0.0653445
0.00263936
-0.000158864
-7.05538e-06
0.000155497
0.0857112
-0.00304555
-7.43779
-0.126501
-2.195e-06
-0.00975692
0.0775886
-0.00487426
1.64872e-07
5.50534e-08
0.0824102
0.19367
1.10227e-05
-0.00118063
0.00362495
-0.0116494
0.0588491
-0.152167
0.0840083
-0.0604814
-0.00132524
8.33464e-07
0.0507523
0.00744289
0.0500061
-8.38295e-05
-0.961188
0.084889
0.070018
7.83894e-05
-2.1206e-07
-0.860063
0.813181
3.32226
2.20017
0.0305229
4.14317e-06
0.286511
-0.0515799
-8.35604e-06
0.0213834
0.0173326
-9.08729e-07
-0.0194027
-0.144379
0.482434
-3.02154e-07
-0.00926356
0.00941505
-0.0531626
9.73681e-07
9.23541e-05
4.99517e-05
0.00023964
-0.00044207
0.0198503
0.000173688
0.00380673
-0.23395
-0.00309423
-0.0674059
-0.00107616
0.00101041
0.00312055
0.237843
-0.0284164
0.0675801
0.00057773
0.00426951
0.136103
0.00996487
-2.97094e-05
-0.00642292
-1.81642
-0.0221787
0.0352608
-1.36724e-05
-6.06896e-05
-9.44094e-06
-0.295619
-0.000101819
-0.222828
-0.120151
-0.175518
-6.66157e-05
-0.0621258
0.0945377
-0.000496609
-0.0817045
0.00013374
-0.0217136
2.79543e-05
-5.73252e-05
0.00198145
0.123583
1.52881e-07
0.0521217
-1.63953
0.0104553
-0.0446022
2.73377e-05
-2.74906e-07
-0.0053766
0.000197506
0.848921
-0.442671
0.00198674
-0.639985
4.5286e-06
8.78249e-05
-1.00294e-05
2.05434e-08
-0.166617
0.000317034
0.0431153
0.0437189
0.000216749
-0.0460739
-2.91667
0.0233283
0.194493
0.000400376
-2.25573e-06
6.40988e-07
0.000251295
-0.279423
-0.153224
0.301394
1.92282e-07
-7.61692e-05
0.0841173
-1.06796e-09
-0.12698
1.30163e-05
-0.436681
-0.15879
-0.00669632
0.00128307
-2.3365e-06
0.00171306
0.00277887
0.156787
-0.0303071
-0.00195564
-1.64975e-07
-0.326813
-2.01853e-06
17.9916
-0.0583312
0.139673
1.26991e-06
-0.0901062
9.02396e-06
-0.00723109
-0.000197686
9.20112e-05
0.00311503
0.226429
-0.0542579
-0.0850085
-0.00025265
0.726162
-0.0323521
0.0330829
0.103176
-0.000217104
0.0418762
0.0851677
-2.3652e-05
0.00679046
0.060547
0.108759
-1.55425e-07
0.00965571
-3.07046
0.567502
-0.263803
4.27629e-05
-0.0922535
-1.83966e-07
-1.20746e-05
0.00279043
-1.12565
-8.9932e-09
0.0470231
-0.111486
-0.0140963
-0.367469
-0.732039
0.00548374
0.0352584
-1.2253e-06
-9.99123e-05
-2.15398e-07
0.00226963
0.0811373
-0.0313294
0.000749034
-0.00599869
4.17926e-06
0.0680701
0.00488071
-0.00121167
-0.125528
0.136886
-0.0594703
0.14552
-2.23937e-05
0.074298
-8.28373e-08
0.00131322
-0.00283807
-0.151201
-0.0311914