/*--------------------------------*- C++ -*----------------------------------*\
| =========                 |                                                 |
| \\      /  F ield         | OpenFOAM: The Open Source CFD Toolbox           |
|  \\    /   O peration     | Version:  v2012                                 |
|   \\  /    A nd           | Website:  www.openfoam.com                      |
|    \\/     M anipulation  |                                                 |
\*---------------------------------------------------------------------------*/
FoamFile
{
    version     2.0;
    format      ascii;
    class       surfaceScalarField;
    location    "300";
    object      phi;
}
// * * * * * * * * * * * * * * * * * * * * * * * * * * * * * * * * * * * * * //

dimensions      [0 3 -1 0 0 0 0];
oriented        oriented;


internalField   nonuniform List<scalar> 
20673
(
-0.171216
0.161683
0.00953358
0.370255
-0.306393
-0.0638621
0.0236104
-0.0528857
0.0292754
0.151784
-0.276382
0.124598
-0.361385
-0.116524
0.477909
-0.0216322
-0.00183177
0.0234639
0.0374905
-0.0317844
-0.00570606
0.0101897
0.0198965
-0.0300863
0.0167946
-0.0298732
0.0130786
-0.0563703
0.157409
-0.101038
-0.108028
0.106809
0.00121974
0.149466
0.00469234
-0.154159
-0.0974731
-0.000610532
-0.000301389
0.000911921
0.204345
-0.0376705
-0.166675
0.241831
-0.242442
0.000611233
-0.105558
0.300035
-0.194477
0.140139
-0.16241
0.02227
0.150475
-0.00100874
0.336824
0.263492
-0.600315
-0.373448
0.573219
-0.199771
0.0345555
0.00293501
-0.598185
0.334102
0.264083
0.0481671
-0.0379773
-0.307802
-0.0597199
0.367522
-0.00568244
0.035392
-0.0297096
-0.106676
0.0793333
0.0273425
-0.100509
0.0514001
0.0491085
-0.0665312
0.0515828
0.0149484
-0.147347
0.108738
0.0386093
0.156331
-0.169875
0.0135441
0.195248
-0.20519
0.00994182
-0.0976286
0.139008
-0.041379
0.175772
-0.0491036
-0.126668
-0.387452
0.362152
0.0253006
0.0886377
-0.109593
0.0209554
-0.365528
-0.232657
-0.00390519
-0.00315849
0.00706368
-0.186641
-0.0543293
-0.018673
0.00112022
0.0175528
-0.579973
0.589867
-0.00989327
0.685298
-0.386955
-0.298344
0.364988
-0.537599
0.172611
-0.0492334
-0.0196534
0.0688868
-0.171029
-0.155006
0.326034
0.0964013
0.0712316
-0.167633
0.14682
-0.00668032
-0.0174368
-0.111039
0.128476
-0.00263266
0.0101751
-0.00754245
-0.680264
0.436448
0.243816
0.0428878
-0.164793
0.121905
-0.282994
0.0322311
0.250762
-0.00557511
0.00294245
0.0558235
0.119948
0.167842
-0.273399
0.212176
-0.223607
0.0114309
-0.113519
0.00549056
0.271031
-0.352619
0.0815883
0.0842605
0.160895
-0.245156
-0.332235
0.161207
-0.0196426
-0.0228994
0.0425421
0.162832
0.207423
-0.000610532
-0.165511
0.502335
0.0153888
-0.037021
-0.0823675
0.0915
-0.00913251
-0.515796
0.323934
0.263437
-0.361905
-0.104699
0.104112
0.000586615
-0.161859
0.180942
-0.0190826
-0.525298
0.163913
-0.0162569
0.0330515
0.00068719
-0.00178547
0.00109828
0.143082
-0.450884
-0.00701173
-0.00781425
0.014826
-0.0181477
0.143805
-0.125658
0.00256767
-0.000195295
-0.00237237
0.0721885
0.191125
-0.263313
0.0384359
-0.0340732
-0.00436276
-0.611993
0.326931
0.285062
-0.325102
0.600516
-0.275414
-0.257202
0.00851608
0.02546
-0.0339761
0.00709743
-0.0110026
0.00239491
0.0016016
-0.00399651
-0.213011
0.285199
0.368089
0.204627
-0.572716
-0.0915933
0.00922583
0.211694
-0.168807
0.515648
-0.150659
-0.00230757
2.72098e-05
0.00228036
0.121848
-0.00450119
-0.117346
-0.0507521
0.365479
-0.314727
-0.261964
0.0531957
0.208768
-0.0398329
-0.0517604
0.0241033
-0.0341465
0.0100432
0.0873607
-0.125339
0.0379784
0.128545
-0.00166019
-0.126884
-0.0660124
-0.035487
0.101499
0.0539345
-0.0656796
0.0117451
-0.455361
0.559477
-0.104116
0.123244
0.00786621
-0.13111
0.0204484
-0.0696818
-0.271957
0.0731419
0.198815
-0.483673
0.0889931
0.39468
0.0393757
-0.0306151
-0.00876061
-0.00549552
-0.0608722
0.0663677
0.0935808
-0.111018
0.103028
0.197008
0.161089
-0.150622
-0.0104666
0.00189563
0.00631942
-0.00821505
-0.00371326
-0.0149598
-0.111519
0.131626
-0.0201065
0.036666
0.00270963
-0.275383
0.116902
0.158481
0.00604989
-0.00688548
0.000835587
-0.362281
0.500006
-0.137725
0.0114125
-0.0123022
0.000889734
-0.00662331
0.00882379
-0.00220048
-0.0777273
0.166642
-0.0889145
0.497929
0.187369
-0.0969431
-0.00775566
0.00157885
0.00496729
-0.00654614
-0.0558819
-0.0446267
-0.608727
0.123184
0.485543
-0.246067
-0.0158971
0.0990845
0.21945
-0.318534
-0.534625
-0.0741024
-0.492566
0.586904
-0.0943381
0.0222716
0.00800914
-0.0125174
0.00450831
-0.0832318
-0.192151
0.149102
-0.304108
0.208369
-0.581817
-0.127958
0.0624765
0.0654819
0.00911408
0.039053
-0.0159481
-0.155268
0.052805
0.00112944
-0.113959
0.437893
0.101981
-0.179709
-0.0955134
0.114938
-0.019425
0.45141
-0.191
-0.26041
-0.21663
0.277777
-0.0611471
-0.0732297
0.0258506
0.0473791
-0.0685924
0.33203
0.0488337
0.00426756
-0.0531013
0.021095
0.0411783
-0.0622733
0.0184014
-0.301395
0.503976
-0.167444
-0.336531
0.223489
-0.214362
-0.0091268
0.154739
0.00405142
-0.15879
-0.00143363
0.00748353
0.0217984
-0.115939
0.0941405
-0.0811244
-0.0442665
0.125391
0.218743
-0.213352
-0.00539107
0.0049359
-0.00137577
-0.00356013
-0.173345
0.0114858
0.0317552
-0.0916258
0.0598706
-0.000322921
0.00289059
-0.0754042
-0.0525542
-0.149145
0.219879
-0.0707342
-0.0871959
-0.00533773
0.0925337
0.243431
0.356556
-0.599987
0.112991
-0.0256302
-0.134488
0.0229691
0.0277257
-0.0937381
-0.202387
-0.0695703
-0.157197
0.154004
0.00319343
0.133442
0.221308
-0.35475
0.0245831
0.0986611
0.150071
-0.141818
-0.00825291
0.0160343
-0.00675713
-0.00927716
0.10868
0.00621388
-0.114894
-0.0075929
0.236539
-0.228946
0.0635181
-0.0520558
-0.0114623
-0.0441411
-0.0692122
0.113353
0.0144749
-0.00646574
0.000508068
0.0109044
0.0632364
-0.0144027
-0.25893
0.401939
-0.143009
0.006443
0.115405
-0.0122815
0.168612
0.298326
0.153084
-0.0897865
0.457876
0.191121
-0.0919723
-0.0991488
0.0374187
-0.0431012
-0.0330663
0.128353
-0.0952862
0.00354664
0.00138925
0.150939
-0.150673
-0.000266308
-0.107783
0.0977563
0.0100264
-0.0101596
0.0764911
-0.0663316
0.00228885
0.000106058
-0.114188
0.0945339
0.0196541
0.624733
-0.278831
-0.345902
-0.03181
-0.0147228
0.0465329
-0.103067
-0.00360905
0.632597
-0.632597
-0.303857
0.253105
0.00865231
-0.0823583
0.073706
-0.0873652
0.0865754
0.0007898
0.0240334
0.176505
-0.200538
-0.339938
-0.340326
0.163545
-0.00210784
-0.161437
0.153566
0.00117256
-0.00271025
0.00339744
-0.0737103
0.101422
-0.0277115
-0.280202
-0.10725
-0.0909212
0.361952
0.00866802
0.119877
0.0179762
0.0334663
-0.0514425
-0.287746
0.0711159
0.0399943
-0.0299346
-0.0100597
0.00504518
-0.0001397
-0.00490548
-0.00687772
-0.100905
-0.414666
-0.0690067
-0.0609294
0.0415116
0.0194178
0.148491
-0.00553408
-0.142957
0.00920135
0.00330013
-0.0125015
-0.491788
0.29109
0.200697
0.0467094
-0.066352
-0.396418
0.137488
0.000846196
0.114064
-0.11491
-0.128031
-0.451942
-0.00587893
-0.00073867
0.0066176
0.0371246
-0.0284645
-0.00866014
0.0644715
0.17736
-0.118819
0.0198363
0.0989822
0.0382835
0.18046
-0.455648
0.040982
0.00397848
0.0846592
0.123767
-0.0150873
-0.0105623
0.161501
-0.0605738
0.0217303
0.0388435
0.00584169
-0.000796515
-0.591187
0.48946
0.101727
0.193418
0.00183049
-0.00517768
0.0028701
-0.00168482
-0.00230741
0.00399223
-0.303135
0.546566
-0.461444
0.442278
0.0191665
-0.0206081
0.00143364
-0.118793
0.0955804
0.0232125
0.399583
-0.60208
0.202497
-0.0768593
0.0929565
-0.0160972
-0.143787
0.140665
0.00312147
-0.104719
0.0175231
-0.167654
-0.0118924
0.179547
0.582344
-0.225789
0.140997
0.00383646
-0.144833
0.00415907
-0.0046686
0.000509533
-0.287515
0.386344
-0.0988292
0.0549343
-0.133945
0.0790107
-0.03886
-0.0111114
0.0499714
-0.239424
0.338509
-0.281995
-0.0706239
-0.0258868
-0.105802
0.131689
0.000372521
0.0159693
-0.0163418
0.105709
-0.0839104
0.121672
0.0694488
0.0126894
0.191656
0.241511
0.37068
-0.612191
-0.00301401
0.00459286
0.00615634
0.0464105
-0.0525668
0.0535253
-0.0886327
0.0351074
-0.381817
-0.0738318
-0.000789272
-0.00410922
0.00489849
-0.00105706
0.000750914
0.000306151
-0.0460538
0.077809
0.0372671
0.00116881
-0.122676
0.104528
0.257242
0.472815
-0.661427
0.188611
-0.141787
0.00267239
0.139115
-0.00117239
0.0027083
-0.00153591
0.117174
-0.13307
0.0158959
-0.170923
0.255183
-0.105292
0.0315813
-0.144918
-0.0152482
-0.0928068
-0.453463
0.54627
-0.083151
0.0783707
0.00478032
0.254694
0.281419
-0.536113
0.061082
0.00243613
-0.209187
0.233221
-0.0723233
0.471907
0.0827614
0.113265
-0.196026
0.0497872
-0.130912
0.107276
-0.112613
0.0237504
-0.10061
-0.00497477
0.131829
-0.126854
0.376554
-0.0902369
-0.286317
0.0823878
-0.0964285
0.0140407
-0.0289954
-0.0315784
0.0331724
-0.027016
-0.227143
-0.264645
0.0828773
-0.0234596
-0.0594177
-0.48359
0.0151695
0.468421
0.185349
0.191205
-0.474755
0.112474
0.0632411
-0.042146
-0.0586845
0.519935
-0.46125
-0.106262
0.107108
-0.179414
0.0117601
-0.265499
0.398941
0.00324487
0.1603
-0.245284
0.0269206
0.218363
-0.00737236
0.00208396
0.0052884
0.0846336
-0.128775
0.124559
-0.12906
-0.276119
-0.107319
0.383439
0.0682738
-0.350269
0.000246113
-0.00829515
0.00804903
0.00546094
-0.00353982
-0.00192111
0.288089
0.211917
-0.3922
0.62538
-0.23318
-0.071977
-0.011174
-0.289883
-0.0675544
0.357437
-0.00155933
-0.00022614
0.102134
-0.378253
-0.00724004
0.0013611
-0.331661
0.254364
0.077297
0.103773
-0.0124074
-0.0913659
0.216199
-0.143464
-0.0727349
0.0178851
-0.0117256
-0.00615949
0.0619086
-0.211054
-0.0022917
-0.0731125
-0.0535258
0.0115176
0.0420083
0.181644
-0.0988824
-0.0615523
-0.0572405
-0.0100403
0.0724446
-0.0624043
0.0547342
-0.280609
0.225875
-0.00421235
-0.00559672
0.00980907
-0.0529047
0.0210946
-0.000379819
-0.000677246
-0.190056
0.171423
0.0186326
-0.0126303
0.000474915
0.0121554
-0.160136
-0.0567374
0.216874
-0.0012783
0.00265035
-0.00137205
-0.0443352
-0.00919069
0.0707698
-0.0941758
0.023406
0.09448
-0.0237102
0.03816
-0.0145496
-0.563464
0.336468
0.226995
0.143
0.00707076
-0.0050572
0.00695283
-0.179308
0.294115
-0.114807
0.222658
-0.0018325
-0.220826
-0.00187163
0.00157024
-0.0650906
0.0737429
-0.214276
-0.0517425
0.266019
-0.083166
0.0730064
-0.0368906
-0.0296407
-0.601386
0.324813
0.276573
-0.00813189
0.00150857
-0.111954
0.03531
0.0766439
-0.26668
0.521375
0.508426
-0.359384
-0.149042
0.110106
-0.593696
0.236297
0.267678
-0.013553
0.0959408
-0.0443286
0.0620566
-0.017728
-0.0400197
0.022807
0.0172127
0.00708354
-0.00683742
-0.373295
-0.00436761
0.377663
-0.0612314
0.116166
-0.00720282
0.00775818
-0.000555361
0.124897
-0.165537
0.0406405
0.00820986
-0.00545852
0.00428613
0.00650957
0.211196
-0.479717
0.268521
0.0908085
-0.0372832
0.322302
-0.495225
0.172923
-0.0170289
0.0637383
-0.143387
-0.188848
0.0156522
0.00223286
-0.0282306
-0.115556
0.181992
0.0865508
-0.268543
0.460922
-0.572363
0.11144
0.139806
-0.131138
-0.0924512
0.0988942
0.123966
-0.127639
0.00367271
-0.0135605
-0.043671
0.0572315
-0.00604021
0.00476191
0.0124459
-0.00324452
0.00735447
0.133642
0.0614502
-0.117821
0.0175426
-0.478987
-0.00384908
0.00216426
-0.0219819
-0.0108333
0.0328151
-0.030127
0.288904
-0.258777
0.08987
-0.0921617
-0.305626
0.501419
-0.195792
0.0379131
0.0729804
-0.110893
-0.0993311
-0.23233
-0.319348
-0.244116
-0.293652
0.109994
0.183658
-0.0281701
-0.00908659
0.0372567
-0.0765112
-0.217141
-0.0219311
0.0223037
0.000833664
-0.00142973
0.00059607
0.0802775
-0.0849957
0.00471817
0.02798
-0.0462648
0.0182848
-0.214901
0.269635
-0.035213
-0.0257165
0.0394976
0.588934
-0.244151
-0.344783
-0.0705861
-0.296857
0.117549
0.214558
-0.339822
0.125264
-0.0749751
-0.0723719
-0.365209
0.60672
-0.392378
0.461688
-0.0693098
0.389085
-0.0667834
0.0898444
-0.103397
-0.328293
-0.2837
-0.0107037
-0.00192654
-0.00396708
0.0429647
-0.0389977
0.00266829
0.00225816
-0.00492644
-0.0809533
-0.0332347
-0.00737608
-0.0136316
0.0210077
0.00837468
0.00156243
-0.00993711
0.165713
-0.0408159
-0.473199
0.0999036
0.109826
0.013586
-0.123412
-0.266343
0.0797016
0.206265
-0.194815
-0.0114503
0.226759
0.397975
0.0189078
0.0392445
-0.0212683
-0.0574937
0.0535266
-0.18976
0.208259
-0.0184996
0.108644
0.0264122
-0.135056
-0.16656
-0.0234964
-0.259316
0.204986
0.00540314
0.118563
0.194231
-0.242054
0.047823
-0.0815306
0.0849967
-0.0034661
-0.174865
0.277893
-0.438083
0.379399
0.000292609
-0.00185194
0.0112098
0.00326503
0.0158024
-0.00459258
0.0443388
0.0896584
-0.133997
0.00503694
-0.00236865
0.00979833
-0.0140107
-0.00169581
-0.00237388
0.00406969
0.00175928
-0.000629209
-0.00113007
0.147537
0.365785
-0.513322
-0.131271
0.00196141
0.129309
0.225439
-0.0312083
0.346762
-0.263766
-0.0829956
-0.10965
0.0303449
0.0793055
0.00503259
0.484093
-0.537978
0.0538849
0.0119706
-0.137025
0.125055
-0.0048286
-0.149085
0.153914
0.000656026
-0.000444948
-0.000211078
0.344232
0.244703
0.120607
-0.0079538
-0.112653
0.00200083
-0.00489318
0.00289235
0.101577
-0.0169198
-0.084657
0.00129009
-0.0112965
0.0100064
0.244926
-0.251734
0.221607
0.522148
0.110449
-0.149604
-0.0237414
0.508773
-0.297577
-0.0344052
-0.0122238
0.0466289
-0.0335895
-0.00643018
-0.155487
0.150513
0.00207673
-0.00267864
0.000601913
0.02247
0.189706
0.0990461
0.0139448
-0.000403442
-0.00129237
-0.0104167
0.051595
-0.012587
0.0928645
-0.00311126
-0.0924021
0.104974
0.0156331
0.122581
-0.147485
0.0249039
0.0853775
0.0320984
-0.117476
-0.17145
0.177565
-0.00611567
0.0913954
-0.109323
0.0179275
0.0239049
-0.138042
-0.0141295
0.152172
0.105067
0.00335478
-0.108422
-0.530129
0.543775
-0.0136458
0.10386
-0.0274294
-0.0764306
0.215346
-0.0156525
-0.199694
-0.430629
0.30417
0.126459
-0.160224
0.01062
-0.264253
0.183747
0.0805063
-0.000671474
0.0013275
0.0144254
0.0222406
0.090034
-0.379917
-0.516333
0.423526
-0.037298
-0.0113758
0.0486738
0.0105576
-0.00218295
0.593908
-0.223228
-0.00876175
0.0100518
-0.313019
0.232123
0.0808961
0.125714
-0.0960211
-0.0296929
0.00760181
0.324225
-0.331826
0.00527438
-0.00360524
-0.00166914
0.0652511
-0.0957108
0.0304598
0.0430812
0.180408
0.305213
-0.19093
-0.114283
0.0199751
-0.0273512
-0.116661
0.083595
-0.0101711
0.0101948
-2.37001e-05
0.241268
-0.606477
-0.000328297
-0.00453402
0.00486232
-0.0068643
0.0901411
-0.0151945
-0.0749465
-0.353632
-0.0769976
-0.00359209
0.00519369
0.0299569
-0.0155261
-0.0144308
-0.129618
0.166449
-0.036831
0.126057
0.382369
-0.217723
0.265711
-0.0479884
-0.139405
-0.0617284
0.0996415
-0.0436735
0.527767
-0.51826
0.158876
0.650081
-0.438968
-0.211113
0.407924
0.242157
0.00420719
-0.00499646
-0.0464342
-0.0632161
0.036095
-0.102385
0.11717
-0.0147853
0.572505
-0.0996901
-0.0481462
-0.407215
-0.0102124
0.118856
-0.0170866
0.00693039
0.0101562
0.150375
-0.167495
0.0171205
-0.114571
0.335879
0.452098
-0.23754
-0.287082
-0.0907341
0.377817
0.0181641
0.000517645
0.00177121
0.396774
0.165602
-0.562376
-0.265913
-0.142669
0.408582
0.00927794
-0.0229016
-0.148548
0.105497
0.110702
0.0430921
-0.294826
-0.148607
0.261547
-0.11294
0.182632
-0.22054
0.0379081
-0.00406564
0.109133
0.0628553
-0.0728957
0.0259677
0.0990455
0.0107803
-0.148621
0.0598551
0.0887659
0.0184513
0.0829706
0.0069523
0.117606
0.453054
-0.29301
-0.160044
0.00455804
-0.000398973
-0.452939
0.249258
-0.0265992
0.251651
0.006134
-0.257785
0.0753105
0.0285496
0.0817894
0.0212925
-0.103082
-0.0144753
0.399437
-0.384962
-0.00184852
0.103425
0.109516
-0.139332
0.0298156
-0.00449995
-0.00195295
0.0064529
-0.0810843
-0.0675366
0.00308467
0.0942787
-0.0973634
0.141819
-0.146648
0.322826
0.138097
0.050813
-0.0176406
0.101925
-0.0253112
0.0201937
0.0051175
0.170269
-0.345134
-0.156385
0.1862
-0.0298146
0.111169
0.00600063
-0.00241179
-0.00304673
0.0109974
-0.0109974
0.117974
-0.119634
-0.0648899
0.109229
-0.0365529
-0.20589
0.199018
-0.227246
0.0282278
-0.211958
0.25505
-0.0744657
-0.0163074
0.0907731
-0.0527813
0.0269311
0.146708
0.00178236
0.0139451
-0.0175772
-0.00773397
-0.00238915
-0.0077819
0.0213006
-0.218786
0.197486
-0.00937257
0.108419
0.091509
-0.0262579
0.0851158
0.0932186
-0.178334
-0.291568
0.0884133
0.203155
-0.0297949
0.00250382
0.027291
0.061101
-0.0402236
-0.0208774
-0.0523752
0.0418726
0.0105026
-0.0391717
-0.0683853
0.107557
-0.538908
0.046342
-0.0060396
-0.00209229
0.00439986
-0.467097
0.452622
0.185405
-0.183114
-0.00229117
-0.00721791
-0.112663
0.119881
-0.126075
0.0284463
-0.0157849
0.124523
0.0403225
-0.0123601
-0.0279624
0.110453
-0.0250754
-0.0202584
0.191881
-0.171623
0.0247627
0.0260503
0.264824
-0.198241
-0.0665832
0.00168305
7.62212e-05
0.271743
-0.574878
-0.0119096
0.408683
0.0696532
0.0132241
0.0458782
0.0152227
0.0339657
-0.00706352
-0.0269022
0.0966841
0.16814
0.25731
-0.264903
-0.448431
0.182518
0.00479222
-0.14971
0.00316339
0.113984
-0.0862585
0.220524
-0.0215058
0.100465
-0.113052
0.134272
-0.262257
0.269859
-0.0527758
-0.0660427
0.115835
-0.00185061
-0.0809618
0.070864
0.0100978
-0.0474993
0.359722
-0.312223
-0.083309
-0.0249361
0.108245
-0.0731281
-0.00622308
0.00705674
0.033488
0.123921
0.109819
-0.0280297
-0.188747
0.0323623
-0.258917
0.536886
-0.27797
0.291815
0.085672
-0.377487
-0.0909046
0.310354
-0.0874411
-0.0114614
0.0989025
0.155871
-0.0594702
-0.0562622
0.104096
-0.0478339
-0.036375
0.0228145
-0.140292
-0.0169052
-0.222384
-0.379002
0.0277061
-0.0896083
0.0619022
0.0242914
0.00967435
-0.104589
0.0855961
0.0189931
0.0576679
-0.345183
-0.181362
0.14981
0.0315514
-0.120744
-0.397516
-0.160366
-0.0416858
0.202051
-0.0527615
0.213657
0.00718785
0.0227691
-0.287219
0.61415
-0.0675289
0.188844
-0.00296901
-0.185875
0.0840352
0.0227735
0.14868
-0.0614658
-0.0872142
0.00299955
-0.000840041
-0.00215951
-0.0221689
-0.0899241
0.112093
0.0480587
-0.265781
-0.000293501
0.00148393
-0.00119043
0.00938971
0.00160774
0.354316
-0.265669
-0.0886463
0.221605
0.0300459
0.104719
-0.0781822
-0.0265373
0.0845608
-0.123732
0.117575
-0.00040098
-0.347908
-0.242527
0.590435
0.0347368
0.270476
-0.103952
0.0915448
0.243051
-0.0610591
-0.11228
-0.0153581
-0.150564
0.124677
0.3877
-0.0958848
-0.145189
0.150475
-0.00528524
-0.0311555
0.400074
-0.175578
-0.224496
-0.266406
-0.030884
0.29729
0.672638
-0.393076
-0.279562
0.00356334
0.0018976
-0.41366
0.622028
-0.201683
0.0119237
0.00371623
0.0123181
0.00889701
0.201902
-0.210799
0.0546888
-0.00881059
-0.0265874
-0.186765
0.0673762
0.0716315
0.23367
0.122336
-0.00602129
-0.116314
-0.0988839
-0.375871
0.139015
-0.00602443
-0.132991
0.325175
-0.585799
0.260624
0.111799
-0.100878
-0.0109217
-0.218806
-0.0942129
-0.0322309
0.0342317
0.0539557
-0.0456648
-0.00829087
-0.0045715
-0.0125151
-0.560453
-0.0721439
-0.235895
0.128684
-0.121732
-0.147881
0.162696
-0.0148151
0.00096906
-0.00332347
0.00235441
0.022062
-0.0209439
-0.00111816
-0.134595
-0.0278149
-0.332295
-0.0134216
0.345716
0.106296
-0.016452
-0.0266165
0.019553
-0.0832246
0.00226284
0.0564571
-0.112719
0.14205
0.000338012
-0.142388
-0.0310348
-0.00760544
0.0386402
-0.164912
0.150664
0.0142482
0.160382
-0.17563
0.00151639
0.0931073
-0.0946237
-0.0778897
-0.00446859
-0.148508
0.0139135
-0.00326914
0.0203697
-0.0171006
0.147063
-0.152507
0.00544445
-0.280073
0.0800731
0.2
0.0988281
-0.106046
0.0698864
0.111757
-0.404859
0.317766
0.0870924
-0.185305
0.0249397
0.0141464
0.146943
-0.168968
-0.0453943
-0.381893
-0.0411663
0.42306
0.180305
0.148126
-0.0144813
-0.133644
-0.0627373
0.242377
-0.17964
-0.138129
0.0258487
0.00988982
-0.342184
-0.22614
0.462822
-0.236681
0.135285
-0.548945
0.215095
-0.159143
-0.055952
0.22292
0.22372
-0.446639
0.0276947
0.185577
-0.213272
0.625685
-0.283331
-0.342354
0.00403454
0.00123984
-0.146927
0.146095
0.000831887
0.04062
-0.039381
0.237388
-0.516449
0.279061
-0.354491
-0.205153
0.559644
-0.0363394
0.0874373
-0.0510979
0.151584
-0.0290033
0.251062
-0.195031
-0.0560312
0.0473205
0.0193467
-0.0666671
0.136713
-0.0410151
-0.0956975
-0.083167
0.0661381
0.00353839
0.0965926
-0.124019
0.0274262
-0.0885727
0.260441
-0.171868
-0.633947
0.0245223
0.609424
0.598372
-0.190448
-0.256315
0.0110305
0.0141939
-0.0144269
0.000233026
-0.603355
0.248864
-0.0923254
0.0192585
0.0730669
-0.126584
0.154278
-0.000994122
-0.0062087
0.109148
-0.137405
0.0282572
0.111761
0.0249514
-0.0125938
0.096629
-0.440181
0.102375
0.337807
0.280809
0.316206
0.00354843
-0.430118
0.275167
0.15495
-0.30021
0.0814431
0.218767
-0.0546425
-0.0243008
0.0789433
0.251339
-0.0148004
0.0978255
0.448816
-0.546642
-0.00732667
0.177059
-0.169732
-0.0585515
-0.417709
0.476261
0.324236
-0.474079
0.149843
-0.162109
0.0137097
-0.000691169
0.00166023
0.166784
-0.177218
0.0104342
0.250618
0.149456
0.464324
0.125542
0.0058231
-0.00823489
0.00703892
0.332025
-0.101792
-0.230233
-0.109001
0.27927
0.0734206
-0.0261002
-0.0849513
0.099999
-0.0150477
-0.0113152
-0.00161924
0.0129344
-0.113631
0.116716
-0.0495166
-0.230556
-0.234928
-0.356259
0.50526
-0.181024
0.00935752
-0.1474
-0.0126306
0.020857
-0.0915677
0.0707107
0.0509024
0.120521
-0.00959906
0.00400234
-0.286296
0.0871763
0.19912
0.0346423
-0.216722
0.182079
0.0102041
-0.0129059
0.00270181
0.144738
-0.450364
0.00268914
0.212657
0.27413
-0.357581
0.0834509
0.335828
0.259918
-0.595746
0.0040937
-0.154716
0.0882364
0.0190391
0.205291
-0.276514
0.0712224
0.0502842
0.00440465
0.0016747
0.0149215
-0.0165962
0.0313337
0.225912
-0.310676
-0.118686
0.429362
-0.0906306
-0.0125304
0.103161
-0.0738741
-0.325374
0.566643
-0.0817573
0.0993595
-0.0176022
-0.437248
0.126573
-0.155729
-0.279949
0.364572
-0.0846232
0.437879
-0.154095
-0.283784
-0.108163
-0.242335
-0.102085
0.344419
0.0305343
-0.0919712
0.144402
0.0413423
-0.185744
0.393065
-0.58643
0.193364
0.374342
-0.504562
0.13022
-0.0166329
-0.267224
0.283856
0.0300996
-0.320439
0.29034
-0.338962
0.0725557
-0.0357659
0.0446658
-0.00889995
0.289589
0.050821
-0.34041
-0.109536
0.400684
-0.291148
0.0246423
-0.00740405
-0.0172382
-0.0308329
0.0351005
-0.15186
0.131602
-0.160163
0.000308875
-0.120661
0.120352
-0.0509182
-0.166362
0.21728
0.472028
-0.162805
-0.309223
0.126107
-0.0548757
-0.00303855
0.113354
-0.00155503
0.273016
-0.482269
0.209253
-0.302471
0.111541
-0.00350878
0.0255708
-0.0518588
-0.0826854
0.134544
-0.000708262
0.00451064
-0.00380238
0.528351
0.167831
0.000645166
-0.00418499
-0.182771
0.155221
0.0275492
-0.277074
0.0640638
0.0137776
-0.0131044
-0.000673141
-0.0192075
0.0113973
0.00781018
0.353609
-0.32351
0.102214
-0.100698
0.491369
0.107003
-0.338974
0.0966391
0.429057
-0.191669
-0.000930122
-0.0031791
0.471916
-0.248996
-0.32822
0.281028
-0.0526198
-0.273373
0.0743195
0.199054
0.0335091
0.0922049
-0.0937453
0.0469934
0.304706
0.0737569
-0.378462
0.0986462
-0.124456
0.0258097
0.37249
0.166689
-0.539179
0.00637527
0.504807
-0.482368
-0.0224393
0.347257
0.360864
0.219217
-0.580081
0.00712563
0.458689
0.027144
-0.0141956
0.018739
-0.00454342
0.0170851
-0.056303
0.0392178
0.000430685
-0.181792
-0.0433931
-0.0685608
-0.011136
0.0128035
-0.00166745
-0.281004
0.349277
0.000506732
-0.00654633
-0.0323861
0.00948661
-0.0126311
0.00149506
-0.00103419
0.0176108
-0.0165766
0.00581749
0.0188248
-0.0266686
0.0221687
-0.0711939
0.0988999
0.179638
0.0860727
0.00624936
-0.153806
-0.0289646
0.00742812
-0.02941
-0.411967
0.0583355
0.0904575
0.275022
0.277045
0.0549794
0.538092
0.163743
-0.230252
0.0665087
0.121443
-0.147501
0.0260577
-0.00401508
0.00478004
-0.000764958
0.371774
-0.281316
0.425502
-0.186277
-0.239226
-0.00171347
0.00829484
-0.00658137
0.0105936
-0.0781652
0.0675716
-0.269986
0.253354
0.022417
0.0221035
-0.175593
0.15349
-0.0723518
-0.20612
0.278472
0.0285585
0.0253971
0.0899829
-0.0675659
0.162079
-0.212314
0.0502354
-0.165927
-0.107447
0.0151667
-0.013492
0.0114967
-0.0012926
0.00298191
-0.0152841
-0.362999
0.0830499
-0.0867994
-0.0298619
-0.00988669
0.119403
-0.00629549
-0.00392052
0.010216
-0.0319733
-0.120646
0.123199
-0.00255311
0.25667
0.169875
-0.258448
-0.0762369
-0.210059
-0.508265
-0.114219
0.0664877
0.511772
-0.364235
0.169837
0.0127952
-0.0632732
-0.101639
-0.00215138
0.000203195
0.00194819
-0.131916
0.0341863
0.0977301
-0.0946539
-0.233566
0.123005
-0.000921899
0.00316254
-0.00224064
0.165776
0.327786
-0.245535
-0.0822504
-0.00169148
-0.000608147
0.00229963
-0.361018
0.0955193
-0.305391
0.00518168
0.075301
-0.109841
0.0345399
0.00461149
-0.00253477
0.48251
0.299417
-0.346917
-0.0261109
0.0363719
-0.010261
-0.104204
0.0608112
-0.026111
0.0918577
-0.0657468
-0.136888
0.0365234
0.100365
-0.0455206
-0.0640725
-0.487359
0.17391
0.313449
-0.101047
0.0992807
0.00176667
0.173131
0.154655
0.0123064
0.357105
-0.369412
-0.0803595
-0.211209
-0.0509253
0.0165201
0.000982768
-0.012298
-0.369022
0.0894078
0.279615
0.500219
-0.125877
-0.0732289
0.347359
0.0197681
0.0662963
-0.18142
-0.00572145
0.187142
-0.233056
-0.197062
-0.302597
0.0883208
-0.00200182
0.363912
-0.0592066
-0.00846952
-0.0740782
-0.0156554
0.0897336
-0.0119543
-0.00541343
0.0173677
-0.326894
0.0874694
0.117397
-0.0268711
-0.0905257
0.183824
-0.162524
-0.00342065
-0.000184593
-0.00232894
0.00140704
0.00934105
-0.00302163
-0.120634
0.120943
-0.00474501
-0.0144625
0.463986
0.00666334
-0.0348335
-0.466654
0.47969
-0.0733142
-0.150292
0.171648
-0.156921
-0.0147275
-0.0770329
-0.0474555
0.0101575
0.0441536
0.0307783
-0.074932
0.0902321
0.0171748
-0.107407
-0.0166386
0.0520155
-0.0353769
-0.285874
-0.273823
0.559697
-0.0585413
0.100011
-0.0414702
0.105808
0.332071
-0.0862005
0.156087
0.0321564
-0.0236343
-0.00852216
0.230333
0.116429
0.174636
-0.64129
0.218541
-0.267028
0.0484872
0.101781
-0.255427
0.153646
-0.000649224
-0.00150216
0.467675
-0.102599
-0.365076
0.513155
-0.179053
0.00837665
-0.0214109
0.131583
-0.110172
0.147223
-0.14626
-0.000962856
-0.0273092
0.00069267
-0.0993706
-0.00827202
0.107643
0.0134262
0.000291445
-0.0137177
-0.00156582
-0.132011
0.112935
-0.164794
-0.00118887
-0.000922709
-0.174762
0.00572618
0.0619555
-0.0676817
0.00265578
0.0327363
0.204891
-0.0068379
-0.198053
-0.30714
-0.0577229
0.364863
0.00283851
0.0222081
-0.0250466
-0.039071
-0.247458
0.26586
-0.144913
0.0372025
0.10771
0.155475
-0.00509995
-0.344866
0.117974
0.226892
-0.0276872
0.19143
-0.142988
0.244769
0.1557
0.286118
0.310897
0.136718
0.00533209
-0.0256601
0.0515107
-0.369168
0.138674
-0.128958
-0.00971629
0.109564
0.208931
-0.318495
0.105109
-0.0972838
-0.00782505
-0.252358
0.577533
0.157805
0.00177258
-0.133043
-0.231387
0.168649
0.320198
-0.0816465
-0.238552
-0.29672
-0.0723022
0.0376325
-0.0360428
-0.00158974
-0.0905758
-0.0302556
0.120831
-0.0242895
0.0572789
-0.0329894
0.264479
0.197209
-0.324681
0.266772
0.0579095
0.00783332
-0.271396
-0.0861854
0.0192714
0.115549
-0.134821
-0.126251
0.035675
-0.234518
-0.110347
0.027346
0.113319
-0.258436
0.368
-0.0217409
0.0590744
-0.0373335
-0.291343
0.0438844
-0.000274315
0.192155
-0.000974883
-0.000896742
-0.0759855
0.100115
-0.0241291
-0.0934207
0.400734
-0.307313
-0.22415
0.191768
0.032382
0.00255025
-0.0167458
0.354687
-0.34238
0.474375
-0.118427
-0.355948
-0.00994591
0.00365042
-0.00246074
0.00153062
0.0308283
-0.197388
-0.0100786
-0.0851883
0.095267
0.544257
-0.280765
0.229962
-0.0135066
0.238156
-0.211235
-0.35371
-0.0864717
-0.092893
0.0210962
0.0717968
0.306518
-0.286941
-0.0195762
0.0210449
0.068033
-0.0890779
0.198483
0.402033
-0.446326
0.092616
-0.297005
0.195213
0.00666695
-0.106038
0.012291
0.00301805
-0.0153091
-0.221172
-0.0756852
0.000760485
-0.236833
0.236072
-0.348751
-0.138608
0.197977
-0.185288
0.481843
-0.146016
0.0210222
0.136116
-0.124145
-0.584735
0.259361
0.0155112
0.0465453
0.116502
-0.0945529
0.0360116
0.0137579
-0.0039596
-0.0221817
-0.00761317
0.395104
-0.305696
-0.302182
0.056646
-0.258201
0.338362
-0.0801611
-0.0106905
-0.178393
0.140723
0.00168776
0.0122768
-0.0139645
-0.00420594
-0.00896507
0.013171
0.231202
-0.169293
0.00604557
0.00828372
-0.016098
-0.14286
0.145463
-0.00260379
-0.0965236
0.086445
-0.114304
0.0921349
-0.00184916
-0.0139892
0.110149
-0.00504049
0.0341733
0.0554088
-0.0895821
0.0110585
-0.00396112
0.135106
0.003046
-0.138152
0.171706
0.000812452
-0.0259422
0.0773423
-0.398777
-0.0131903
0.214743
-0.141601
0.0450252
-0.039299
-0.127434
0.144
-0.0165662
0.373302
-0.283268
0.122682
-0.000346413
-0.098944
0.118215
-0.00460446
0.00212929
-0.000701719
-0.00142757
0.215131
-0.00244827
-0.212682
-0.0604298
0.0437912
0.0283544
0.130905
-0.159259
-0.0190886
0.0860288
-0.0669402
-0.0511167
-0.0518995
0.103016
0.122279
-0.0887699
-0.159771
0.181874
-0.367972
0.205567
0.0463605
0.3065
-0.431128
0.124628
-0.0455353
0.207614
-0.503437
-0.0266918
0.185036
-0.36971
0.11252
0.25719
0.00485086
0.110589
-0.115439
-0.0167026
0.108098
0.0123059
0.00546831
-0.0177742
0.0788724
0.0298808
-0.108753
-0.0330469
-0.0606983
-0.0453775
-0.0121162
0.0734489
0.26108
-0.363699
0.102619
0.00428817
0.0101084
-0.0471935
0.0370851
0.324248
-0.391907
0.0676595
0.353631
-0.152057
-0.0103298
0.162387
0.00244587
0.011748
0.338227
-0.593845
0.255618
0.129633
-0.00738625
-0.122247
0.0747553
-0.00381422
-0.0709411
0.119659
-0.152198
0.0325389
0.374055
-0.268466
-0.105589
-0.287106
0.229723
0.0573828
-0.180263
0.322808
-0.142545
-0.0805551
-0.0643575
-0.146907
0.10264
0.23261
0.00520197
-0.0374328
0.0381265
-0.0250543
-0.0130721
-0.120037
0.123874
-0.0968803
0.015123
-0.0186396
0.153746
0.0978101
-0.0884887
-0.0093214
-0.213473
0.22237
-0.204228
0.15331
0.0136436
0.0453731
-0.0590167
-0.0673872
0.0952983
-0.027911
0.00312093
-0.00803229
0.0332817
-0.0433084
-0.590638
-0.415559
0.310188
0.105371
-0.146334
0.309166
0.346674
-0.0709905
-0.275684
0.117967
0.159811
-0.0584548
-0.0752906
0.133745
0.371317
-0.0769241
-0.294393
-0.000321912
0.100323
-0.100001
-0.502119
0.443568
-0.167097
-0.299051
0.129003
-0.0172413
-0.0065002
0.106965
-0.0599127
0.094086
-0.355345
0.0743412
0.0354796
-0.174706
-0.240853
0.014127
0.0463421
-0.0604691
0.273899
0.227519
-0.185735
0.136632
0.4582
-0.185185
0.0192223
0.0776536
-0.0968759
-0.000421094
0.0660537
-0.101541
0.277896
-0.0744013
-0.0575151
0.359063
-0.144599
-0.214464
0.149528
0.000484483
-0.00132452
0.234185
0.102083
-0.336267
0.195431
-0.275791
-0.13902
0.117609
0.171295
0.0141102
0.0064373
0.282798
0.117582
-0.178019
0.0604373
0.250305
-0.281189
0.119515
-0.501408
0.138134
-0.0166905
-0.0961953
-0.168707
-0.215381
-0.236799
0.45218
-0.163569
-0.0487448
-0.00206644
-0.00260216
-0.202199
-0.013547
0.215746
-0.0673196
0.0881766
-0.036864
-0.00144517
-0.00375425
0.0160453
-0.221837
0.019638
-0.44809
0.232709
0.0519243
0.126097