/*--------------------------------*- C++ -*----------------------------------*\
| =========                 |                                                 |
| \\      /  F ield         | OpenFOAM: The Open Source CFD Toolbox           |
|  \\    /   O peration     | Version:  v2012                                 |
|   \\  /    A nd           | Website:  www.openfoam.com                      |
|    \\/     M anipulation  |                                                 |
\*---------------------------------------------------------------------------*/
FoamFile
{
    version     2.0;
    format      ascii;
    class       volScalarField;
    location    "700";
    object      ddt0(omega);
}
// * * * * * * * * * * * * * * * * * * * * * * * * * * * * * * * * * * * * * //

dimensions      [0 0 -2 0 0 0 0];


internalField   nonuniform List<scalar> 
13308
(
0.00960081
-0.000293866
0.195721
1.88476e-05
2.75561e-05
0.000272767
0.000149023
0.213042
-2.00077e-05
-1.36731e-06
-0.00273797
0.205641
0.00425718
9.67174e-05
1.49783e-05
2.76536e-05
1.68823e-05
9.14616e-06
-0.00312513
-0.000161215
-1.21432e-05
-2.31215e-07
-1.17091e-07
0.319482
0.152332
-0.000153133
0.618416
-1.544e-06
-0.610376
2.34442e-06
-1.90186
-0.00461468
-0.202167
-0.500156
0.00365806
2.70028e-05
1.24836e-06
1.0911e-05
-1.16771e-06
0.000229718
0.000645942
-0.000120489
0.202298
-0.000175538
0.0425171
-0.954544
-6.86476e-05
8.27199e-07
0.000384137
-2.25379e-07
-4.66613
0.000138516
1.92244e-06
-5.0211
0.000880448
-0.000110164
-0.000247863
-5.22529e-06
-5.96534e-06
-0.0012541
7.36283e-05
-3.18922e-06
-0.000743659
-5.90922e-06
-0.000195005
7.55559e-05
1.68564e-05
5.93944
-1.5559
1.89621e-05
4.70328e-08
-0.000664959
-1.30806e-05
-0.000122806
-9.13456e-05
-1.03811e-05
-3.21423
-0.00884515
-0.144585
-7.45206e-05
4.41411e-07
-0.00421774
1.97435e-05
-5.35895e-08
0.0430783
-0.000147227
-1.19733e-06
-0.00265496
-0.000718247
-5.1041e-06
5.27075e-07
-3.91395
-0.00651693
-0.0229432
-0.00120926
0.00564668
-1.36688e-06
-0.143937
-0.000207869
0.000736543
0.000788254
2.94218e-06
2.49833e-05
6.16533e-05
-1.06318e-05
-4.7111e-08
-0.119946
0.00201057
0.000345074
0.108507
0.00810709
0.06036
-1.38004e-06
0.251232
0.000567194
-0.125361
-0.000719162
-0.00105475
5.52357e-05
0.0222276
-0.0011664
-4.4052e-06
9.03265e-06
8.27938e-05
0.076526
-0.000131854
-0.00591616
5.4415e-06
-3.48214e-07
-0.590732
0.0537234
7.03549e-05
4.52996e-06
-0.000974732
-4.61378e-06
-0.000193772
3.3674e-05
-2.19405e-05
0.126162
5.61907e-05
-0.192038
0.606553
-0.953056
-9.16165e-05
0.263619
-0.181047
0.000643339
-7.61936e-06
4.01129e-06
2.53662
0.268759
3.10256e-05
-0.000291862
1.75574e-05
7.25559e-07
-0.000348657
-3.12834e-07
0.000214492
-0.110094
-0.279411
0.00634755
0.0671246
-0.00102305
-7.63889e-06
5.78237e-06
0.106947
0.000370352
0.0422889
0.216389
-0.0048132
0.0250585
-0.000423959
-0.166031
0.0679447
0.000738388
7.86698e-08
-7.03817e-07
0.240439
5.29346e-06
1.72944e-05
0.0080125
-2.66855e-05
-0.000174411
-0.0919116
1.10432e-05
5.44173e-05
2.01021e-06
0.000173999
9.36178e-06
2.07285e-05
-0.000315108
-0.000638008
0.00886139
0.188713
-0.0990167
0.119474
-0.0114941
3.34487e-05
-6.15832e-05
0.00419533
-0.0902382
-0.00021175
0.00390601
-6.48045e-05
0.00239932
0.00301583
0.000189807
1.77367e-05
3.64419e-06
-0.000208732
0.000503441
-0.0443074
3.13401e-08
-0.221558
0.00151939
0.000353161
-9.35428e-06
-0.00236302
7.46268e-06
4.83308e-05
8.05474e-05
-4.44911e-07
-3.86714e-05
0.00311609
-3.32694e-07
0.0898622
0.000599027
1.5714e-06
1.22965
0.000455134
-0.000411397
-2.08192e-06
-7.09848e-06
-0.000270993
0.000337232
7.4058e-05
-1.75861e-05
1.05147e-06
-0.000893984
4.43364e-07
4.14091e-06
0.000677047
-1.20414e-05
0.331962
0.0042761
0.000276303
-0.186673
-0.000165053
2.13484e-06
8.60021e-05
-0.00614883
7.40159e-07
0.00412021
7.60851e-08
1.05091e-07
0.000207162
1.64252e-06
5.69477e-07
-3.65052e-05
0.00082317
0.00238138
-6.69695e-06
-0.000108393
0.000125148
-0.464531
-1.17703e-05
0.0787188
0.00687105
0.0853394
0.00861556
2.30339e-06
-0.00217592
-0.000291408
-0.000307568
-0.0715567
-0.0106078
5.45041e-07
0.00113438
-0.12289
-0.000298341
0.000100188
3.43329e-05
0.0415794
0.000363675
-0.00572461
-3.08493e-07
-4.78208e-07
-0.0203847
2.64326e-06
0.000660121
0.148434
-10.4763
-0.116122
-4.70581
0.00230945
3.21357e-06
-0.000357419
2.55487e-05
0.165388
1.17802e-05
-3.37961
0.000614455
0.000603102
-2.87695e-06
0.0225954
-1.09769e-06
0.00552518
0.00227734
1.90554e-05
2.18369e-06
0.000497752
0.00259027
0.364358
-9.99374e-06
0.0860563
9.07911
-0.186931
0.00106858
0.0130106
0.000443132
0.000455005
-0.00939787
0.00082267
-6.89264e-05
0.00109185
0.00974463
-8.66273e-05
-1.81997e-06
0.000150463
1.30278e-05
0.00365748
-0.149864
-0.00164602
-0.000103539
-0.000753888
0.328868
0.0741251
-1.17199e-05
-5.02862e-05
0.00178289
-0.0394323
3.77109e-06
6.52654e-05
0.000740402
-0.000388741
-9.88058e-07
0.000139034
-2.90799e-05
-1.52995e-05
-2.58308
3.80915e-05
8.5852e-05
-0.000779598
8.32606e-05
-0.00598438
-3.58991e-05
0.00234966
-0.186312
0.187812
2.24286e-05
0.000152091
0.000670679
0.104157
7.99481e-05
0.0697108
-8.6058e-05
0.000282408
0.309557
-2.40996e-06
-0.000229977
0.0322281
0.802059
0.025663
-0.032432
-0.00134869
0.000163793
0.030587
-4.96645e-05
-0.0283028
3.57499e-05
-3.59818e-06
-0.0180624
5.06714e-05
0.0341703
0.000605221
-3.66277e-06
-0.000122509
-0.000320846
2.19657e-05
0.00303
-11.5157
-0.00083824
-0.000518291
-0.0494778
-0.000842869
-0.00395969
-9.07384e-07
0.000405535
0.00574792
-2.97681
0.00541822
0.000233434
2.12631e-06
0.0141754
-0.000329025
2.33176e-06
8.89306e-05
-4.72858e-07
0.698644
0.00384179
0.00966479
-4.61096
-0.0853793
7.3295e-05
-0.379355
-9.0924e-05
-0.00540663
6.83198e-07
-1.98588e-07
6.0525e-05
1.34548e-05
-8.81011e-06
0.00695695
-0.000499883
-0.437933
0.00632094
0.000950112
0.062024
0.19724
-0.204581
-8.04962e-05
-0.0996334
5.34214
0.00626931
7.60476e-07
0.0168393
-8.71946e-05
-0.000123211
7.16977e-05
0.000693258
-2.92433e-07
-6.02389e-06
7.22754e-06
-0.00160893
1.38882e-05
2.09169
0.0259254
-7.69574e-07
-0.000428606
-0.102715
0.0140234
-3.89536e-05
-8.96516e-06
-5.43884e-05
-0.00502204
0.322588
7.24526e-06
-9.78229e-06
-0.376711
0.00925922
-4.62288e-05
0.00315958
0.000190636
6.02884e-08
-0.00025253
0.000307234
-2.23292e-06
-0.231594
8.25839e-05
-1.97667e-05
-0.00211608
-0.000245886
0.00752767
-0.111677
-4.79071e-07
-3.18662e-06
0.00216124
-2.63726e-06
0.00449549
4.39105e-09
0.00562733
-5.87268e-07
0.00984744
0.00111354
-8.73389e-06
-0.193547
-2.04979e-05
0.0746066
3.01352e-06
-8.80904e-05
-0.000358186
-0.0522889
-5.82575e-05
0.00821698
0.000263809
-0.0211811
-0.0890535
-1.93787e-08
9.1292e-05
-3.58364e-05
0.000155505
0.12457
0.00761909
-0.118077
0.00028164
15.0134
-2.62323e-06
0.0766928
-0.000316297
0.153655
0.000111926
0.25182
-0.214051
0.00137696
-4.66278e-05
-0.502124
-0.337435
1.81238e-06
-0.0240457
-0.000413918
-0.000950884
3.02016
-2.18974e-05
-0.0201324
-0.294843
-1.21483
0.0414744
0.00506832
-0.441964
0.0115424
-1.78128e-06
2.68241e-06
0.112885
0.0030077
-0.000137797
0.000414761
0.000683141
-0.000123145
0.0656775
5.91607e-07
-0.217078
-3.0074
-0.133691
0.000349738
-1.5975e-06
0.00160271
-4.18486e-06
-0.11359
0.133563
0.0323473
-1.53924e-06
-1.11702e-05
0.0322565
-1.62719e-07
0.0133627
1.85802e-06
0.000607854
-4.60909e-05
0.043238
-3.41211e-06
-4.49452e-06
4.22827e-07
-0.0152308
-7.23428e-06
-8.54827e-08
-0.000554794
0.120388
0.000760347
1.52336e-08
-5.61764e-07
0.106837
-5.47513e-07
2.10734e-05
0.0726793
-9.11523e-07
0.293954
-0.000151069
8.06052e-08
0.0050986
-0.000131718
0.000106455
0.000299313
-0.00139408
-8.11874e-06
-0.0202002
-5.19674e-07
-0.00102728
-2.11582e-05
-0.02639
-0.0500039
-0.000140721
-4.5387e-06
4.50982e-05
0.0197213
-0.0001881
-0.00239418
-0.000331967
0.00569064
-0.000292527
7.43653
-0.0237673
-3.91706e-07
-4.56503e-07
9.30436e-07
4.59133e-05
0.0002944
-0.123
0.0112796
-0.0230421
-0.000163511
-1.01206e-06
-3.78765e-06
-0.0198016
3.51991
-0.00044982
-0.116742
-6.66765e-05
3.17071e-06
0.0622417
-0.000214855
-0.448664
0.00128152
-0.0214648
-0.119035
0.586107
-3.04254e-07
-26.5951
-0.119924
0.0738462
0.00101166
2.78289
-7.74072e-05
-3.31124e-07
1.26569e-06
0.021445
-6.30145e-06
-1.01027e-05
5.91937e-05
0.0100709
-0.537047
-0.774834
-0.251222
0.123252
-7.22232e-07
1.77117e-05
9.90299e-06
0.000538773
-1.25267e-06
-6.17429e-07
0.00150962
0.0277059
8.97127e-06
-0.0590267
2.38753e-06
-0.000843958
0.000809538
-0.000121915
9.86498e-05
-2.85088e-06
-0.000965979
-0.00022589
-9.00641e-05
0.000120727
0.00303852
0.00749865
-1.81546e-07
0.0308921
5.00144e-06
-2.28691e-06
2.32393e-05
-0.0188836
0.0236758
0.00080834
0.000828065
1.34784e-05
0.000888902
0.000659106
-1.71764e-06
0.000264655
-0.223511
-0.406013
0.00695599
-0.206288
1.46055e-07
9.24217e-05
-4.0821
-3.19402e-07
-0.0181757
0.000899637
-1.2482e-05
-0.000161952
3.66941e-05
7.75421
9.25006e-08
-3.18532e-06
0.00103532
-0.0057768
3.71685e-06
-1.68444e-06
-0.000476723
6.36349e-06
8.17821e-05
7.19515
0.00393602
1.81252e-06
-0.224026
-0.148365
0.0175111
4.08916e-06
0.0933938
0.000168411
-0.656337
0.000301152
8.91215e-09
1.89891e-06
1.70234e-05
-6.52976e-07
-0.000669638
-0.000143661
0.145692
-9.1341e-06
0.000698238
0.853663
-8.92706e-06
3.20021e-06
0.00153149
0.364053
4.73842e-05
-0.0319486
-1.31419e-06
-5.56915e-06
0.677533
4.88515e-08
-1.55358e-06
1.33166e-05
-3.10356
0.0208337
0.529741
2.63009e-07
5.72005e-05
0.162472
-2.91394e-06
-0.000795451
-0.000448849
-6.36769e-06
-3.2404e-06
-6.72977e-05
0.00107749
-0.0271381
-5.50604e-05
0.210687
4.46595e-05
-0.0532767
-2.92877e-06
0.0252712
-0.549075
-3.69373e-06
0.227673
0.000626499
-2.27108e-07
-0.000788077
-0.00808339
1.70168e-05
1.23441e-05
4.44049e-05
8.7908e-06
0.000146406
-1.75605e-06
0.217719
0.00188394
-0.115244
-2.93246e-08
-0.00321571
-0.00272609
-1.50903
0.00131666
0.222156
-0.300419
3.96401e-10
-0.144141
-0.000112629
-1.25282e-05
-4.06303e-06
-7.30482e-05
-9.96285e-07
1.48575e-05
-0.425236
-0.18712
0.982855
0.00125325
-2.98063e-06
-4.74172e-05
-8.46944e-06
-0.00111989
0.337615
-4.76221e-06
-0.00094947
-4.55971e-05
-0.228993
4.27127e-08
-1.66985e-06
-2.43233e-06
2.42033e-06
6.39445e-05
-1.26822e-05
-0.0867198
-8.1605e-07
-0.000258255
-1.06e-06
0.212909
7.80042e-05
-0.0533117
-0.000239842
-0.115
0.00737411
1.25651e-05
0.00035936
-0.000136946
-1.50367e-06
0.000834922
-9.71792e-05
0.27531
-0.00457809
-4.48359
-0.0189766
-2.74324e-05
8.99855e-06
0.000252564
-4.63636e-06
-0.00493114
-2.9366e-06
-2.00373
-0.000583134
0.00223864
0.00479627
0.000131577
-3.26322e-06
-0.00028385
-8.54423e-06
-0.00241438
-0.000351687
-5.57556e-06
-0.540908
6.3363e-05
-1.36144e-06
0.000894616
-1.32047e-05
-0.000270227
-4.81883e-06
0.00830082
-0.000123588
-0.168566
0.032828
7.70472e-05
-6.71998e-06
-4.15864e-05
-9.08342e-08
9.41626e-07
-0.000423284
-7.2249e-05
-1.19266e-06
-5.2782e-05
-2.19601e-07
0.000508093
-0.0245782
-0.00349931
-0.00292362
0.15402
5.40192e-06
1.26907e-05
-5.15579e-07
-6.15225e-06
-0.61141
3.82046e-05
-4.72241e-07
0.000362681
-0.00779002
0.103437
0.000133068
-4.02542e-05
-0.228955
-0.00394928
-1.84119e-08
-5.01437e-05
7.70772e-05
-3.01451e-06
-0.0346751
-0.000328089
-0.392208
-0.168928
-0.0217787
0.262649
-1.17199e-05
-0.0394203
-9.32662e-06
0.0216535
-0.420961
-4.27356e-09
0.000454323
2.02375e-05
7.38394e-06
0.00468478
0.0276544
9.72789e-07
2.83238e-10
9.38363e-06
0.000371572
0.0259675
0.152386
-1.34812e-05
-0.198626
0.000231366
-0.0007225
5.62075
-9.00462e-05
3.58803e-05
0.0401179
-0.000103671
-5.1259e-05
1.14595e-07
-5.01933
-6.76992e-06
0.198996
-2.03857
0.000970402
0.0313378
-0.340896
0.000169908
-0.000158513
2.99296e-06
-0.000466355
-0.068241
-1.45955e-07
-0.293373
-6.78058e-07
-0.000842127
-1.46109e-06
0.0114631
-0.00276997
-0.0824041
-0.497588
-3.08781e-07
-0.581602
-0.00231476
-0.183701
-1.52561e-06
4.12243
-0.0268647
-3.25114e-06
-0.00105351
-0.314718
0.0011702
6.34174e-06
-5.95072e-07
4.4515e-05
-0.299907
3.36335e-05
0.00077445
0.00204813
-3.78015e-06
7.22454e-06
0.000530479
-6.29846e-06
-0.0249386
0.000105416
1.86389e-06
-2.86471e-08
-8.01853e-07
2.66235e-06
-0.0173481
-4.18257e-06
-0.00707185
-4.14323e-06
-1.53909e-05
-8.70187e-07
-16.1065
9.57394e-07
0.00191626
2.14271e-05
0.300211
8.59002e-05
26.9192
-9.79849e-05
0.00233783
-0.0527207
-8.96548e-05
1.3206
8.83136e-05
-2.25402e-05
-0.0171247
-0.00832967
0.177717
-0.369088
-0.689442
-9.15468e-08
0.000103949
-5.56357e-06
-0.00256506
-0.0147822
3.10614e-06
2.50606e-05
-3.3968e-06
0.000644184
1.73778e-05
6.42333e-05
0.00996321
0.562368
-1.60861
6.4527e-05
4.54637
-6.72877e-06
-0.0121481
-0.028463
-0.00236873
1.64158e-09
-0.147432
1.85629e-08
3.48541e-05
0.187095
-0.00635278
-4.78918e-06
0.188799
5.32969e-06
0.0105125
0.000204468
-1.31569e-05
-0.000682365
-0.118858
-0.125435
-0.0772515
0.316526
0.0768632
-0.127716
-1.49012e-05
0.0829419
-2.03547e-06
0.29478
-2.55349e-06
0.000209798
-0.000370777
0.206069
3.56467e-06
1.63599e-05
0.00394344
0.00734304
-0.00318323
0.00846941
0.0250158
-1.24615e-05
-4.64211e-09
1.5148e-08
5.58614e-05
0.000230666
-0.00124376
-1.8839e-05
5.02234e-05
2.31189e-06
-0.000359686
-2.05385e-06
0.000615465
0.128575
0.000217292
-0.577206
2.5778e-05
1.45214e-06
0.0416943
-6.73921e-06
1.8909
-5.99646e-07
4.65671e-05
8.02311e-06
0.000121942
-0.134788
-3.60018e-06
6.21997e-05
0.0016755
-1.4398e-06
-2.64172e-06
0.00156186
3.25186e-05
-0.0412936
-0.000861703
0.00595853
-3.64906e-05
0.000518207
-2.49715e-05
-2.59509e-07
-0.000127519
0.00047126
-2.98423e-05
0.121677
-0.0097975
0.000396425
-6.46327e-06
-0.0574984
-1.99913e-06
0.000181056
0.0145147
-8.28206e-06
-3.35932e-06
0.00167695
0.000513693
1.0811e-05
0.00696265
3.80479e-05
0.000525785
-2.79031
0.00456118
2.74717e-05
-5.11588e-05
-1.55431e-06
-2.68633e-05
0.238484
-9.59228e-07
3.20424e-05
2.1395e-05
1.94005e-05
0.0174698
7.4054e-06
1.78506e-05
0.139869
-8.29118e-06
-0.250219
0.00769575
-6.9287e-05
6.32447e-05
0.141821
9.6378e-06
-0.0128622
-2.44162e-06
-0.00116093
-0.00291136
0.00230213
-0.0636555
0.00236148
-8.44143e-06
-8.68415e-06
0.000131942
1.05212e-07
-2.3497e-05
-0.000109482
-1.06827
-0.00976733
0.000679944
-3.57635e-05
0.0715527
1.98773e-06
-3.94303e-08
-1.48964e-05
-0.000151194
-1.40645e-05
-7.13818e-06
7.03105e-06
-0.221217
-2.87658e-05
-0.00314322
-1.97638e-06
1.51685e-05
-0.234678
-0.00157496
1.25546
-0.0176735
-0.00245086
-7.0636
2.43158e-08
5.73662e-05
-3.63631e-06
-2.17561e-05
-2.74755e-07
0.00736171
0.0613983
-2.8183e-06
0.00349593
-0.000182293
0.00017921
0.14844
0.0134494
2.81598e-05
-0.00484593
2.02904e-06
0.00058017
-0.183374
-0.000430785
-1.83432e-07
-2.81002e-05
2.19254e-05
-3.13392e-06
1.74979e-06
7.83704e-08
0.0259518
-0.0966922
2.3428e-05
-3.17567e-06
3.47739e-06
-1.94798e-06
-6.59438e-06
-0.00103446
1.64721e-05
1.5689
-1.89013e-05
-0.19323
0.000105239
-3.25307e-06
-0.000364592
1.25181e-05
7.11175e-06
0.34771
0.00319173
-0.00015424
0.00368376
0.00169548
0.261656
2.81475e-06
0.000463022
-2.43803e-06
-0.192557
-0.000743789
0.00171851
0.0242416
3.46683e-05
-0.228429
-7.8988e-05
-0.000457098
-4.33075e-07
-0.264071
0.0558266
8.58918e-05
-0.121917
-7.49398e-05
4.1745e-06
0.0641923
-0.0100536
7.17921e-06
0.00675731
1.28356e-06
-2.98691e-06
-7.21183e-07
0.00138797
0.0468163
0.000860626
0.114738
0.00109133
8.95804e-06
0.455132
-3.08446e-05
-7.80608e-06
-0.0329231
-0.0807903
3.41031e-05
-0.000127456
1.00997
0.000146688
-2.41361e-06
3.83717e-06
-0.0019657
-0.00105244
-0.000270164
-1.19647
1.02431e-07
-3.4675e-06
3.4897e-05
-0.000349459
-1.96022e-06
0.300922
-2.84073e-06
-0.000212979
-2.26931e-06
-0.000151901
-0.0237001
-1.96244e-07
-1.03022
-0.00284762
-7.12282e-07
-0.000726446
0.00351973
1.05098e-07
-0.00188057
-9.58451e-05
4.55091e-08
0.000522767
4.83764e-08
-0.456303
0.0387468
-7.85214e-06
-0.155196
-0.0138516
0.00245031
-0.361203
0.00044794
-1.57534e-06
-1.20334e-06
1.71172
-0.0627362
-3.41472e-05
-2.64842e-06
0.16794
-0.0810117
-3.16622e-06
2.00907
0.42595
-0.469451
-0.000144036
-2.70669e-05
6.66701e-08
0.000121868
-0.000499726
0.0104677
6.84237e-07
0.000133584
2.48792e-06
-0.00199067
0.208485
-0.0348071
0.0753428
0.000400478
-0.000100864
-1.43085e-05
0.00027116
1.02862e-05
9.43622e-05
0.00130175
-6.88322e-05
0.157618
-7.88963e-07
-4.00092e-06
0.00138314
-0.000441483
-0.00502822
-0.089824
5.16956e-08
1.16406e-05
0.00753926
9.12399e-07
1.05411e-06
-0.00446493
-3.51152e-06
-0.827715
1.58118e-05
9.86523e-05
-7.45903e-08
-0.000479633
1.00982e-06
1.37979e-06
1.41007e-05
0.000204116
-1.51238e-06
0.182275
0.00083471
-0.369209
-6.7752
0.288313
0.162102
0.000143079
0.00576071
-0.0301328
0.187953
-0.000330355
5.27069e-09
0.000655674
1.05774e-05
0.000119815
0.418007
0.000271592
-7.65858e-07
-0.00783307
-0.196974
-5.40041e-06
0.00300212
0.0207695
-0.000151936
1.91823e-05
0.00142295
0.000183699
0.000903278
0.0907061
-0.000780658
-0.00436062
1.43262e-07
-8.66656e-07
2.17203e-07
-8.86065e-05
-0.000407295
0.355409
-6.94133e-06
-0.0310879
2.59316e-05
-0.000824255
1.15412
0.211198
-1.38122
1.03177e-06
1.44239e-06
-7.2925e-07
-0.199242
-0.103927
0.0139684
0.00525358
-0.0575622
-8.6198e-07
-1.00501e-06
0.000259137
8.07772e-06
-0.000625483
1.94104e-05
-4.49737e-05
0.109994
0.00207164
9.69141e-06
-8.22307e-06
0.00394782
-0.00325354
-0.00280521
0.0681128
1.76598e-05
0.124282
0.00512807
0.00309872
0.000388127
-0.106086
-0.000320971
-5.58019e-06
0.225911
-0.00056501
8.33214e-05
1.19883e-07
0.00039107
5.59314e-05
1.73768e-06
0.0013186
-0.195717
0.00153893
0.000192366
0.00428901
0.916815
-1.94219
-6.07825e-05
4.06123e-06
-3.24465e-06
-0.0289378
1.39431e-06
4.4054e-06
-0.169359
-2.92913e-07
-0.0127369
-3.14993e-05
-5.27893e-07
-3.50571e-07
0.00923653
-0.118663
-0.144665
-3.73068e-06
6.25495e-05
0.47578
1.03257e-05
0.762347
0.101223
6.70016
-0.000134403
-9.4672e-06
-0.00116329
0.000594938
0.110642
2.01727e-05
-0.0190597
0.000119396
-2.41698e-06
-1.77703e-06
-1.33789e-06
3.99623
-0.000127209
-0.000222595
9.24724e-05
-3.28876e-06
4.10581e-06
0.057657
2.05265e-05
5.69638e-05
-0.000328472
-7.37371e-06
-0.0312431
2.60215e-06
-0.617038
-9.12011e-06
0.00519888
2.56611e-06
0.000673616
-0.0144114
-0.00226135
6.84385e-05
5.90031e-06
-1.33798e-05
2.95427e-07
-0.00523433
0.00195122
9.94766e-05
0.000112086
9.61357e-05
-5.00835e-05
-7.95685e-05
4.24613e-08
0.446969
0.0277942
0.00103014
4.1024e-05
-8.16656e-07
-0.283544
-4.85091e-05
-0.0172145
-0.0375961
-1.29072e-05
-1.26197e-06
8.56306e-05
-0.000441881
-0.563143
-2.86097e-06
-0.477038
-3.28401e-06
-5.86654e-05
0.000549357
0.000115195
0.000577628
-0.0581769
0.00155836
-0.146695
0.0833656
-5.04024e-06
0.298419
-2.61525e-07
3.32156e-09
-2.3229e-05
0.000376214
-0.0136032
0.0515573
8.80766e-06
0.000338443
1.89296e-05
2.99659e-06
0.128623
-2.86171e-06
4.91533e-07
-2.74229e-05
-0.000213694
-0.208681
-0.000426638
0.00156049
-7.6718e-06
0.000304146
-6.33845e-05
2.87179e-05
0.000394349
-9.31816e-05
-0.00166409
2.39101e-07
-7.47051e-06
-0.0690491
9.5467e-07
-6.61545e-06
-0.0921455
-0.0149304
0.000391994
-0.00637624
0.000182933
-1.90406e-05
-0.152676
0.0135781
0.000461765
0.000894894
-0.0661932
0.0101189
8.39456e-06
0.00117296
0.000308421
-0.000111407
-7.92663e-06
-2.64433e-07
-0.0348002
-1.22448e-07
3.5924
-0.000163427
1.87388e-05
-3.95206e-05
3.79246
-1.03161e-05
0.000164835
8.27218e-06
0.0303603
6.94955e-08
-3.11076e-06
1.4302e-05
0.000114425
5.29096e-06
-1.82734e-06
-5.18515e-06
0.00413206
0.104337
-0.00105074
0.000264617
0.00779222
-0.346449
-8.35403e-05
0.000445132
-6.35536e-06
-1.82679e-05
-0.446724
0.0300064
0.00219919
6.27863e-06
-1.06661e-06
2.87264e-05
-0.00821651
1.52291
2.8054
0.00318381
0.0015762
-0.000328472
-0.0116435
-0.000483613
-0.000780948
-0.0490445
2.04581e-05
0.309377
7.09784e-05
0.0602257
-1.27436e-06
0.0111878
1.26595e-05
0.01072
-2.11175e-07
-7.07875e-06
-1.99719e-05
0.078528
-0.000325032
0.000558178
-5.16578e-09
-0.297353
3.44266e-06
-0.843707
-5.97098e-06
-1.30088e-05
-1.14317e-06
-0.000592169
2.91088e-06
-0.000835625
0.0121229
9.835e-07
7.64852e-07
0.00681926
-4.75516e-06
-5.58411e-07
0.000365641
-1.613
7.09576e-06
0.000301613
0.00606615
1.03726e-07
1.89347e-05
-1.88939e-06
9.01021
0.000208371
-0.000144494
0.000110007
-0.0811037
-0.000362145
3.58367e-06
0.0396747
0.289988
4.99896e-05
-2.38395e-06
0.00621005
0.0113972
-1.773e-06
-0.0018172
-0.0011432
0.102296
0.127035
-0.000179825
-1.11826e-05
1.33094e-07
3.10957e-06
0.0833632
9.81913e-06
-18.9248
-0.0146706
-0.000123224
-0.000559961
-0.000293404
-3.48481e-05
0.000194778
3.54151e-05
2.08468e-06
0.174172
1.89709e-05
0.0055414
0.0190741
-0.000745531
-0.000475008
-0.000747198
0.000121232
0.0239612
-1.70025e-05
-8.92336e-06
0.00768629
-0.0062183
2.70957e-07
-1.40186e-06
-0.289379
-1.08877e-06
0.000191234
-0.00386888
1.82247e-06
-0.00112829
-0.170347
0.000838156
9.04925e-06
-0.009518
0.00178368
-0.00100414
0.040655
0.000129458
0.000110881
0.0127064
2.26554e-05
0.695166
0.00229353
-0.000586157
0.000385047
0.0227442
-6.10665e-05
0.00392548
0.141949
-1.1395e-07
-0.098703
-0.00170357
6.91415e-05
-0.328011
-1.58572
0.224031
1.6852e-06
3.91116e-08
2.65717e-05
-0.438232
0.00020917
-5.12199
-0.00099565
0.00349021
0.103973
2.21098e-05
0.0020132
0.000260693
4.88546e-05
0.00106033
-6.83622e-07
0.0050433
0.142958
-0.000390747
3.45332e-06
0.101066
-0.000105526
-0.00478182
-2.44177e-05
0.00183568
-6.07776e-07
-0.0425449
0.0115722
0.130389
-0.00051396
0.0431338
-0.995028
-3.00282e-06
0.119151
-6.70325e-06
-3.622e-05
-0.000180711
0.00084449
-1.14924e-07
0.00114876
7.48635e-08
0.00355556
0.0233698
-9.39763e-06
0.114547
3.40839e-05
-0.000683002
-8.54415e-05
-0.000118963
0.016261
-0.126059
-0.000588256
3.85238e-06
5.70972e-08
-2.55303e-06
-0.000813014
0.000306932
-0.953354
3.99636e-07
0.000211969
-2.46144e-05
-3.41694e-05
-0.0973323
-2.88069
0.00149923
0.224808
0.858
1.52182e-06
-0.22432
0.00419359
-5.06124e-05
-0.250893
-0.000113679
0.285825
-4.95083e-05
-0.0218677
-3.97439e-05
-0.00315877
0.541869
-2.85221
-0.00126194
0.000137214
2.12756e-05
-0.0358703
3.17725e-06
0.0310666
0.000222917
-0.308834
-0.704253
0.0034792
19.6349
5.23489e-06
-0.925785
4.08631e-05
0.000142569
4.89337e-05
1.50604e-05
-0.00550748
0.0756668
2.84446e-06
0.000121835
3.4495e-05
6.31114e-05
-1.40844e-05
-0.00292416
-0.0965844
0.000897509
0.00187903
0.000357683
-0.000408231
0.0375665
-3.53849e-06
-0.440829
-0.0276055
1.92678e-05
-0.000569837
-1.14479e-06
1.88511e-08
0.0750449
1.15412e-05
-0.0029572
-1.18736e-06
-0.000273146
0.000109401
-0.112455
0.000508253
-7.65304e-07
1.16206e-06
-6.39578e-05
-3.49916e-06
-0.00026652
6.5795e-05
-1.01075e-05
0.00109938
-0.0466562
1.51117e-08
0.191688
-1.38356e-05
0.239834
-0.00015854
-0.0515498
9.45857e-06
-0.0010037
0.0171603
0.00249583
-0.170504
-0.375211
5.87222e-06
1.3663e-05
-0.126546
-0.000479296
-0.000579559
-0.000107425
0.0799772
7.69238e-06
-0.000278101
-1.33473e-06
4.84767e-06
-2.68351e-06
0.00032205
0.000148153
4.66553e-06
-0.00354741
1.60715e-07
1.04699
-0.011352
2.79994e-07
1.24081e-07
-0.000131462
-4.29657e-06
-4.8178e-06
0.000515907
-2.38786e-06
0.00365751
-7.70038e-06
3.01458e-05
5.87637e-05
-1.87777e-06
-2.31962e-07
-0.137719
0.000770574
0.0759048
-5.48594e-08
-2.82682e-05
-0.407545
-3.35941e-07
0.0147078
-0.000123224
-0.000165884
-3.04965e-05
0.000175149
0.00349284
0.000107969
-4.25924e-05
0.00123865
-0.129258
-1.65247e-06
0.134639
0.265133
-0.000297699
0.000214043
0.0795503
-0.0160783
-9.73844e-05
3.6001e-05
0.000220892
-0.00104709
-2.72951e-06
-0.000127207
0.0950004
8.78685e-05
0.00167738
-0.000163845
-8.76101e-08
1.49009e-05
-0.0271403
0.000362616
0.00052535
3.33021e-05
0.00499466
-1.20269e-05
-1.10098e-06
-0.0209537
0.00104598
-4.63353e-05
0.0312837
-0.00229133
3.42315e-05
0.000309913
4.61665e-05
-2.52471e-06
0.145156
0.000274198
-0.0485089
9.78778e-08
1.12326e-06
5.34824e-08
0.0156982
0.00154924
-0.0169169
2.84499e-08
1.80342
0.0017327
-0.0970456
-1.64718e-06
0.184645
0.0436767
-0.198589
2.59996e-08
0.00138975
-0.000852999
0.000711252
0.00935228
0.0317214
0.473451
0.00253444
-0.00524778
1.57785e-05
0.259426
0.00119402
0.0242751
-0.00173925
0.00116105
1.03872e-07
0.00127853
0.000378796
-2.49658e-05
-9.6036e-07
8.23937e-06
-2.71674e-05
0.000168279
0.948525
0.10013
-3.56997e-05
-0.000870926
-1.01537e-06
-0.00144032
2.38977e-05
-1.28531e-06
0.000185394
0.000121564
0.0121485
-4.49046e-05
1.04631e-05
-3.15838e-05
0.00256953
0.000182033
2.02129e-06
0.000242087
0.000818477
0.0905089
1.98163e-05
0.000156734
4.94084e-05
-7.22906e-06
0.0710875
-3.34012e-05
7.46638e-07
-0.00440703
-5.75185e-06
0.000208873
0.089904
2.57728e-06
-4.17513e-07
-0.0731421
-0.00663523
0.0157294
-0.000133775
-0.000308539
-1.42246e-05
3.62344e-08
0.00135801
-0.00230901
-0.00101533
0.0032116
-0.00464332
-8.81464e-06
-0.000762638
-0.11356
-2.21263e-05
-1.15532e-06
-2.16233e-05
-1.35983e-06
0.00068343
0.00252789
-3.6736e-05
-4.78309e-05
0.0101692
-0.0265072
-0.21376
3.80438e-05
0.00589227
0.000686926
-0.0646081
-0.00105559
0.000207948
2.45554e-05
-7.84249e-05
-0.00188918
0.000167134
0.438296
0.000205658
-2.19593e-06
6.15399e-06
-6.93147e-05
-0.426627
-0.000186849
4.26138e-06
3.11527e-06
-0.00019569
-0.000275751
-6.05607e-06
0.000151512
-0.00489908
9.99942e-05
7.23136e-05
-7.67187e-05
-6.70983e-05
-5.254e-06
9.7734e-06
0.375063
-0.137099
0.0909004
-8.73462
-4.94293e-06
0.00148674
-6.37643e-06
-0.0197927
0.114415
-0.000106008
0.181242
-0.00365009
0.000108777
-5.81276
-0.933714
-5.2195e-05
0.000124104
2.47387e-06
-1.37767
6.8764e-05
-6.87256e-07
0.0687705
0.131938
-0.12936
-0.134213
-0.000138602
0.00325024
-0.000131477
-1.90676e-06
-0.0232219
2.05517e-05
-8.77375e-06
4.65095e-05
0.0140558
0.000914832
0.153713
0.00030944
-8.39231e-06
-0.523778
-0.223833
-0.00801041
0.00080808
-0.932605
0.0160102
0.144967
0.171214
0.492406
-6.90464e-05
-1.91785e-07
0.000655767
0.0093164
0.000299042
0.00330666
-8.25539e-06
-1.85171
0.000981455
0.0227571
7.1184e-06
2.1952e-05
-0.0182518
0.0395497
0.0562879
-1.8254e-05
-0.000166587
0.526455
1.51612e-05
0.0367315
0.00229521
-1.05599e-06
7.48738e-06
-2.6924e-06
8.17836e-05
5.41961e-06
0.0132392
-0.249752
0.00268048
-0.589479
1.31748
-3.16919e-06
0.00102355
-3.09546e-07
-2.7429e-05
0.385214
-0.0699842
-0.000408738
3.28747e-05
-4.95656e-07
-0.0280541
-5.89461e-05
-1.56272e-06
3.53998e-06
4.37784e-06
0.000100571
1.05551e-07
-0.275727
-1.09962e-06
-7.63953e-06
-0.219459
-0.000759101
-4.09121e-06
0.00180775
-0.0946157
-0.170911
-0.0953961
0.00148667
-2.42773e-06
4.67418e-06
0.0324488
-5.52348e-06
0.0940714
-9.97937e-05
0.000192993
-1.13566e-07
-5.71937e-08
5.38436e-05
-0.00199698
4.94565e-05
-6.44798e-05
-0.261656
8.04908e-06
3.25813e-05
8.13683e-05
1.04045e-07
-9.98854e-06
-2.28357e-06
0.0127856
-1.61927e-07
-0.000274465
0.0241425
-1.95438e-06
6.2597e-07
-0.0638062
0.0298263
-0.000133912
-1.60323
0.054271
0.00588946
-7.21795e-05
0.00016066
0.0349744
-0.000632481
-9.09514e-06
-0.0280425
0.00309425
0.674471
0.00373383
0.00101743
3.9091e-05
0.00530576
-0.000775204
-0.00120068
0.17752
0.000213135
0.129574
0.0756523
0.000121763
-7.85965e-06
-1.29206e-05
-0.233571
-4.59198e-05
5.65822e-07
-6.95905e-06
0.0088158
-2.81744
-0.180925
2.7811e-06
-7.26656e-05
-0.0919847
6.74606e-05
0.0853614
0.530812
0.18481
-2.30524
-5.31068e-06
-0.000145532
0.0302188
2.34135e-05
-3.44388e-06
-0.002836
0.17043
-0.000826068
0.0771996
-1.77631e-07
1.38248e-05
0.0873831
1.77469e-05
0.0051352
-3.69392e-05
-4.22295e-05
9.40178e-09
-0.192619
-0.0950781
-0.00226566
0.00116858
4.36336e-07
3.27778e-05
-0.00428444
-9.36342e-05
0.000230529
0.168758
5.60699e-06
0.0953615
2.44039e-06
8.23713
-1.30253
0.00038713
-8.73818e-06
-0.037161
-8.61619e-07
5.35062e-06
0.000223002
-2.39036e-06
-1.94337
-2.8914e-06
0.0271642
-1.85094
-0.000206127
0.119532
0.0171039
-0.442
2.73618e-05
1.06789e-07
0.00154519
-1.0094e-05
-0.00052344
-9.40586e-08
-1.50839e-05
-0.00152042
0.0223706
-4.53865e-06
0.118495
-3.61405e-06
-0.0304239
-2.11987e-05
2.17491e-06
-0.36116
-1.14082e-05
0.963894
0.00293673
7.56639e-05
-4.23318e-06
-0.000181752
-0.00337706
1.71401e-06
-6.05338e-05
0.100727
-0.0213441
0.00428009
0.00106179
1.1104e-05
0.16078
-0.000363152
-0.415702
-3.72807e-06
0.187381
0.000718276
-0.000320189
0.349761
-9.0639e-05
-0.000104538
-5.2674e-05
-8.34009e-07
0.00757731
4.2887e-05
-0.000203257
1.1474
-6.25225e-06
-0.026232
-0.186905
0.00124777
-0.000146272
-1.08996
-1.42918
6.77093e-05
-0.346847
-0.000640421
9.91224e-06
0.000560105
-0.868124
2.10452e-05
-3.16408e-07
0.0630667
1.4722e-07
0.00153123
1.74548e-06
6.49976e-05
-0.0158864
0.413258
2.61229e-05
0.000335688
-1.04634e-06
1.20808e-06
0.358829
1.03802e-05
1.19958e-06
0.000132089
-0.000234495
-1.76198e-05
0.00121235
-1.89257e-05
-0.000168571
0.00112656
0.00529815
-7.77731e-06
0.000226322
-0.493209
0.0127521
1.1379e-05
0.301404
7.59149e-06
-0.000106751
-0.331194
-6.50041e-07
-1.94597e-06
-0.0282571
-5.28947e-06
5.41071e-05
-0.00022714
-1.05525e-05
-8.85523e-08
6.03434e-05
0.000303603
7.67485e-05
0.352476
-0.00100429
-0.00285975
-2.32774e-05
0.0141311
-0.119174
-0.00153552
0.052399
-0.0539409
0.223412
0.000300157
-0.0596837
0.216552
-0.000579864
0.303826
0.196857
0.00946833
-0.193986
0.000258217
-0.000412349
0.282361
0.00128896
-0.242035
0.116528
-0.00348397
-8.44021e-05
1.5708e-05
-9.06001e-08
0.0367378
0.000205155
-0.00173564
0.069288
-2.25503e-06
-2.33063e-05
0.000608445
-2.36596e-06
-0.0147682
-0.0243916
-1.07915e-05
0.000221382
0.00225429
-0.0409259
-0.00143355
-9.00708e-05
-0.000239575
0.00419382
-0.00174282
-0.000179022
-0.192512
-0.000119242
0.136736
9.18133e-05
0.0103514
8.25748e-08
0.00125331
-1.66882e-05
1.79054e-06
0.00258257
0.000835392
-1.47533e-07
0.0308443
-0.000703637
-0.00120893
3.05086e-06
0.000169686
-0.000401411
0.000502964
0.0120874
-0.145177
2.67845e-05
1.52376e-06
-1.03551e-05
-0.0339312
-0.0133638
1.55405e-06
6.23275e-05
5.972e-05
0.146571
1.37724
0.00100415
4.21955
-0.000233029
0.0258547
-0.000261651
-0.000219568
0.00181203
-0.0461765
-0.000110722
0.00156676
-2.65253e-07
1.19495e-07
-1.18097
0.0683389
0.0971184
-0.000563714
2.4985e-05
0.0578254
-1.56131e-07
-0.000478443
2.30001e-08
0.00318295
8.71903
0.177089
-3.98842e-05
-7.07163e-06
0.0752987
1.13589e-05
-0.000473265
1.41625e-07
0.0328941
0.00513906
0.0137921
-0.00869093
5.39343e-06
-0.389649
2.60862e-06
-0.000132383
0.452225
0.00211893
0.1127