/*--------------------------------*- C++ -*----------------------------------*\
| =========                 |                                                 |
| \\      /  F ield         | OpenFOAM: The Open Source CFD Toolbox           |
|  \\    /   O peration     | Version:  v2012                                 |
|   \\  /    A nd           | Website:  www.openfoam.com                      |
|    \\/     M anipulation  |                                                 |
\*---------------------------------------------------------------------------*/
FoamFile
{
    version     2.0;
    format      ascii;
    class       volVectorField;
    location    "700";
    object      U;
}
// * * * * * * * * * * * * * * * * * * * * * * * * * * * * * * * * * * * * * //

dimensions      [0 1 -1 0 0 0 0];


internalField   nonuniform List<vector> 
13308
(
(1.0946 0.118418 -1.36306e-20)
(1.08184 0.0503782 -1.16191e-20)
(1.04834 0.15527 -5.88563e-21)
(1.01171 0.0332871 -1.27934e-20)
(0.976381 0.0185908 4.28534e-21)
(1.05477 0.0493487 5.22744e-21)
(0.96302 0.0399255 0)
(1.00599 0.149128 -5.42091e-21)
(0.990468 0.0400459 -5.49998e-21)
(0.99883 0.00784377 9.53483e-21)
(1.02346 0.116537 -2.37991e-22)
(0.709593 0.118072 0)
(1.09528 0.152025 0)
(0.965639 0.0402793 -9.58562e-21)
(0.984109 0.0399524 2.73427e-20)
(0.97727 0.0194247 1.01614e-20)
(1.03 0.0252671 4.89236e-21)
(1.01792 0.0189527 0)
(1.09065 0.112794 2.68597e-20)
(1.06753 0.0362592 1.44155e-20)
(0.983872 0.00532964 9.57314e-21)
(1.02081 0.0110395 -1.40592e-21)
(1.021 0.0105121 9.67586e-21)
(1.11245 0.166614 0)
(1.04786 0.155165 2.133e-21)
(1.02403 0.0284677 2.12047e-20)
(0.74465 0.126051 -3.71954e-21)
(1.01996 0.0110664 -1.11515e-20)
(0.663563 0.114913 1.61597e-21)
(1.01883 0.00959524 2.54714e-20)
(0.977386 0.160112 0)
(1.02556 0.164728 -3.39136e-21)
(1.09831 0.159499 0)
(0.89188 0.149675 0)
(1.09276 0.114894 -3.17546e-22)
(1.01103 0.0343929 0)
(1.02192 0.0101846 0)
(1.00324 0.0292264 0)
(1.00901 0.0342212 1.39928e-20)
(1.00286 0.057843 7.09474e-21)
(0.978788 0.0761158 5.14403e-22)
(1.02271 0.0471976 1.32111e-20)
(1.00626 0.151766 6.524e-21)
(0.987469 0.0798518 2.81196e-20)
(1.01585 0.163871 3.38319e-21)
(0.55271 0.0944042 0)
(1.01706 0.0286789 0)
(0.994812 -0.00444581 -2.03004e-20)
(1.02674 0.068306 -6.36591e-21)
(0.999861 -0.000501986 0)
(0.97553 0.160725 0)
(1.08578 0.0396035 0)
(1.01853 0.00871142 0)
(0.608082 0.104343 -5.98142e-22)
(1.05205 0.0542775 -7.51004e-21)
(1.02244 0.0457689 -1.45026e-20)
(1.04029 0.0461797 4.5594e-22)
(0.992802 -0.000362717 0)
(0.998271 0.00788414 -1.33835e-20)
(0.912797 0.0987744 0)
(1.03009 0.0254788 0)
(0.992626 -0.000354325 3.9115e-23)
(1.03599 0.0663216 2.35582e-21)
(1.00137 0.0581473 3.56717e-21)
(1.02402 0.0275283 -1.13025e-20)
(1.03555 0.0282973 0)
(1.07988 0.0491615 -1.6319e-20)
(0.826876 0.140733 0)
(0.762623 0.128193 -2.50424e-22)
(1.0174 0.0189789 0)
(1.00031 0.000296427 -3.25446e-20)
(1.0362 0.0650135 -6.78096e-22)
(1.02552 0.0158019 0)
(1.04447 0.0310116 1.39266e-21)
(1.02332 0.0410404 5.95292e-21)
(0.996776 -0.00364043 1.12513e-21)
(0.85521 0.144997 -9.45351e-21)
(1.0478 0.125951 -1.51166e-20)
(1.09408 0.160281 4.43776e-20)
(1.03778 0.0634117 8.85808e-23)
(1.02296 0.00923599 1.41507e-20)
(0.943961 0.106309 0)
(1.02756 0.02331 7.83075e-21)
(0.987437 -0.0053097 3.26028e-20)
(1.01549 0.163956 -6.54292e-21)
(0.93972 -0.0310647 0)
(1.00314 0.00234641 1.15721e-20)
(0.920562 0.0941395 0)
(0.918973 0.100032 2.88277e-20)
(0.985217 0.00479997 0)
(0.998007 0.00708344 0)
(1.01681 0.167844 0)
(1.04025 0.129198 5.67151e-21)
(0.923072 0.124373 -3.31791e-20)
(0.934527 0.0663464 -5.03277e-20)
(1.04089 0.123329 6.45047e-21)
(1.02298 0.00891157 0)
(1.06076 0.147335 1.19439e-20)
(0.985356 0.0813148 -4.1903e-20)
(1.08019 0.0919662 -1.35329e-20)
(1.09326 0.0883907 0)
(0.994156 -0.00503925 0)
(1.01964 0.0282648 -1.18175e-20)
(0.996896 0.0474976 3.91097e-20)
(1.02543 0.0155958 -1.56801e-21)
(1.00024 0.0020951 0)
(1.14887 0.132652 -2.22776e-20)
(0.910127 0.0995247 2.93971e-20)
(1.06714 0.0393522 0)
(1.08544 0.153424 0)
(0.975687 0.131449 0)
(1.02353 0.163736 0)
(0.998017 0.00697176 0)
(1.07622 0.168126 -3.22672e-20)
(1.09149 0.091615 0)
(1.10143 0.155882 -8.98952e-21)
(0.885594 -0.031592 3.00491e-20)
(0.953966 0.0942642 0)
(1.0236 0.0545239 3.60529e-21)
(0.974208 0.132587 1.06214e-20)
(0.936041 0.061446 0)
(0.992633 -0.0105806 1.30328e-20)
(0.992797 -0.0189522 -2.90224e-22)
(0.942844 -0.0336231 0)
(0.949017 0.137878 0)
(0.942384 0.018551 -5.28468e-23)
(1.02758 0.165854 0)
(0.980435 -0.0268272 2.6644e-21)
(0.999715 -0.00047874 -3.03676e-20)
(0.941601 0.155986 0)
(1.04716 0.152407 4.43621e-21)
(1.05853 0.0593301 3.77677e-21)
(1.01012 0.0334081 -8.66522e-21)
(1.05235 0.104739 -6.01697e-21)
(0.991509 -0.0182381 4.04592e-20)
(1.02194 0.0743774 -2.61613e-21)
(0.99005 0.0410094 1.26417e-20)
(1.0185 0.0280301 1.04689e-20)
(1.0879 0.153938 -2.55095e-20)
(0.995414 0.0471898 -2.741e-20)
(1.16696 0.144615 -1.6034e-20)
(0.872921 0.147959 3.77023e-20)
(0.876468 0.147876 1.59061e-20)
(0.950848 0.0903208 1.66499e-20)
(0.720852 0.119771 1.03388e-20)
(0.850766 0.183494 -8.63086e-21)
(1.02851 0.0690027 1.06124e-20)
(1.0093 0.000967452 1.95452e-20)
(0.988908 -0.00884238 1.29297e-20)
(0.933053 0.158442 -1.15323e-20)
(1.13991 0.170942 -8.6937e-20)
(0.987395 0.0403229 -1.5118e-20)
(1.06819 0.0363831 -1.24408e-20)
(1.00235 0.0288514 0)
(1.01768 0.00822244 0)
(1.02188 0.0713155 2.32783e-21)
(1.00045 0.00166717 0)
(0.979945 0.0736298 0)
(0.946883 0.136723 0)
(0.897241 0.150365 1.99125e-20)
(0.961142 0.12531 6.53862e-21)
(1.03431 0.165585 -2.36332e-21)
(0.951823 0.0958409 0)
(0.98635 0.0414018 1.35617e-20)
(1.01893 0.00139927 -1.94339e-20)
(0.826018 0.172239 0)
(0.991849 0.100666 4.95773e-21)
(1.1653 0.135559 -6.33438e-20)
(1.0492 0.153063 2.67843e-21)
(1.14941 0.0886299 -2.88614e-20)
(0.992345 0.146782 1.1845e-20)
(1.0827 0.039467 -1.02351e-20)
(0.998997 0.162528 0)
(1.09246 0.151077 4.77076e-20)
(1.01858 0.0940602 7.25914e-21)
(1.00011 0.000597421 0)
(1.0456 0.0300693 -1.19138e-21)
(1.0325 0.150367 0)
(1.01009 0.031049 1.36133e-20)
(1.00029 0.0305323 1.89823e-20)
(0.957484 0.120958 0)
(1.02404 0.0537885 3.75405e-21)
(1.02321 0.0286351 6.16009e-21)
(0.959593 0.157247 2.5855e-21)
(0.946688 0.0492472 -5.8168e-22)
(0.990592 0.0432909 0)
(0.992444 -0.0175235 -4.50732e-20)
(1.03639 0.0288362 0)
(1.02187 0.00138933 1.43553e-21)
(0.948877 0.0892374 -3.60387e-20)
(1.05827 0.0590641 9.01327e-22)
(1.05978 0.0562457 -1.04086e-21)
(0.826517 0.174814 4.33995e-20)
(1.14603 0.168563 3.37228e-20)
(1.14681 0.12864 -3.66154e-20)
(1.04909 0.151778 -1.40467e-20)
(1.04678 0.127057 1.1209e-20)
(0.985917 -0.0255698 -3.90697e-20)
(1.0298 0.0243666 0)
(0.993079 0.144225 -9.35799e-21)
(1.13001 0.151479 0)
(1.00024 0.103198 0)
(1.00018 0.115629 0)
(1.01935 0.0450158 -7.7785e-21)
(0.89372 0.0787148 0)
(1.04692 0.15003 -1.20862e-20)
(0.94858 0.0514871 -1.66539e-20)
(1.01492 0.0627935 1.16776e-20)
(0.989578 -0.00901427 0)
(1.04462 0.0576674 -1.82243e-21)
(1.08407 0.0879726 1.91478e-20)
(1.10887 0.16899 -2.91824e-22)
(1.00022 0.000279961 4.43932e-20)
(0.940007 0.149113 0)
(1.00034 0.114432 0)
(0.943908 0.107057 -8.55029e-22)
(1.02599 0.0148982 0)
(0.849322 0.219558 -1.51091e-21)
(1.02056 0.019071 0)
(1.02061 0.0195557 1.97168e-20)
(0.984988 0.0379143 -2.75015e-20)
(0.999629 0.00119193 0)
(0.983052 0.0289474 0)
(1.00316 0.128965 0)
(1.0084 0.0126518 1.63207e-20)
(1.09124 0.14974 -2.93951e-20)
(0.989882 0.101265 8.30045e-21)
(0.999816 -0.00188071 6.31021e-21)
(0.957763 0.157847 9.55854e-21)
(0.95354 0.106193 3.62434e-20)
(1.03755 0.0641271 0)
(0.997946 -0.000922744 -3.9304e-20)
(1.00895 0.00103598 5.82538e-21)
(1.03352 0.0320553 -3.62214e-21)
(0.931062 0.0740126 0)
(0.985376 0.0526776 0)
(1.02515 0.0162672 1.12347e-20)
(1.02235 0.00342356 3.7145e-21)
(1.05955 0.0567459 1.92626e-21)
(0.992318 0.010815 -2.8217e-20)
(0.9958 0.0574091 -7.61708e-21)
(0.889165 0.0769645 0)
(0.993204 -0.00934059 -2.27452e-20)
(1.03233 0.151579 -1.8407e-21)
(0.838246 0.0166582 7.14701e-20)
(0.924839 0.0232408 2.61833e-20)
(1.13332 0.150493 0)
(1.00904 0.0665425 1.96515e-20)
(0.991938 -0.019613 0)
(1.01847 0.0896635 0)
(1.04237 0.1286 0)
(1.00876 0.0124505 -1.21993e-20)
(0.858386 0.180186 7.59133e-21)
(1.00041 0.000195432 -2.07993e-20)
(1.0001 0.000687582 0)
(0.958449 0.110051 4.6113e-20)
(1.01789 0.00894073 1.19076e-20)
(0.992958 0.00986269 2.676e-20)
(0.980776 0.0251376 1.23313e-20)
(0.955782 0.0958118 0)
(1.02596 0.116753 -1.42304e-21)
(1.02601 0.0150823 -5.28596e-21)
(1.02339 0.028652 -4.90257e-21)
(1.03527 0.0278761 -1.41565e-21)
(0.857009 0.144964 -8.65018e-21)
(1.00889 0.031029 0)
(1.08401 0.155741 0)
(0.956158 0.122695 3.1967e-20)
(1.08025 0.168332 -2.4424e-21)
(1.00159 0.130698 0)
(1.01901 0.00559008 3.17665e-25)
(1.01084 0.114688 0)
(0.942499 -0.0119327 -1.2493e-20)
(0.990022 0.0810172 1.31423e-20)
(0.945959 0.135668 0)
(0.936634 0.134701 5.37682e-23)
(1.02209 0.00316156 0)
(0.885367 -0.0335705 -1.11774e-19)
(1.05983 0.149149 -1.54531e-20)
(1.04244 0.0437577 0)
(0.937329 -0.0353286 0)
(0.980852 0.0248229 2.29092e-20)
(1.0601 0.146045 1.13037e-20)
(1.14798 0.0907788 -5.90471e-20)
(1.10877 0.109804 0)
(0.999698 0.00118395 0)
(0.995471 -0.0141569 -2.09438e-20)
(0.897542 0.132627 -3.77344e-20)
(1.02694 0.0240032 0)
(1.06308 0.0444703 4.43549e-21)
(1.04322 0.157306 -1.00582e-20)
(1.00457 0.165979 -4.92908e-20)
(1.09568 0.153929 -4.77533e-20)
(0.850501 0.143276 2.09771e-20)
(0.951096 0.104956 0)
(1.02209 0.0105792 0)
(1.00997 0.0657558 -2.76279e-20)
(0.975579 -0.0278239 5.15955e-20)
(0.644829 0.107783 0)
(0.974433 0.0142039 2.85561e-20)
(0.84085 0.142238 -7.91727e-21)
(1.04983 0.0561861 0)
(1.04019 0.114445 3.16666e-21)
(1.00772 0.00175637 2.16184e-20)
(0.996979 0.133297 -2.02202e-21)
(0.98777 -0.00685288 0)
(1.12135 0.063833 3.44799e-20)
(0.906872 0.102911 3.52749e-22)
(0.944331 -0.0277985 0)
(1.00995 0.0111242 1.86177e-21)
(1.0689 0.0699787 0)
(1.09833 0.0879295 -2.52589e-20)
(0.976402 0.160164 4.78623e-21)
(0.960904 0.0315234 6.22412e-20)
(0.947667 0.137214 5.8944e-21)
(0.855786 0.14559 -2.08434e-20)
(1.02382 0.151517 0)
(1.06607 0.0434107 -2.5599e-21)
(0.94687 0.137594 -5.58743e-21)
(1.03805 0.0999383 5.5131e-22)
(0.94039 -0.00842856 -1.66033e-20)
(0.978026 0.130863 -9.80697e-21)
(1.04996 0.0566928 0)
(1.02655 0.0230761 0)
(1.09632 0.0422822 0)
(0.961209 0.126736 -9.02081e-21)
(1.01884 0.0432481 2.20871e-20)
(0.988547 -0.00431175 1.89766e-20)
(1.08633 0.0417875 6.46001e-21)
(0.95953 0.0220871 -1.06823e-20)
(1.09223 0.14159 2.22991e-20)
(0.937228 0.134434 -1.2301e-23)
(0.910253 0.0832972 -8.65917e-20)
(0.928423 0.0214528 -6.63651e-22)
(0.998738 0.103172 -4.01835e-21)
(0.972264 0.160004 0)
(0.9501 0.136026 0)
(0.958822 0.0637235 -1.85826e-20)
(1.02267 0.029861 6.36677e-21)
(1.06894 0.0466417 0)
(1.12414 0.153232 0)
(0.997915 -0.0026275 3.60866e-20)
(0.930455 0.0740009 0)
(0.922011 -0.043907 -1.8273e-20)
(1.08523 0.0442209 0)
(0.997677 -0.00148366 2.03801e-20)
(0.996169 0.0569205 -8.20973e-21)
(0.992016 0.0396078 0)
(0.981645 0.0283583 2.34918e-20)
(0.934813 0.136041 -3.52948e-20)
(1.03266 0.0576895 -4.13243e-21)
(0.983388 0.0523972 0)
(0.922951 0.0967522 -2.61052e-22)
(1.01453 0.0646157 0)
(0.895799 0.135972 -4.28928e-20)
(0.984961 0.0399927 -1.53495e-20)
(0.995393 0.112859 0)
(1.00518 0.15545 2.116e-21)
(1.02075 0.150693 -1.06337e-21)
(0.986734 -0.0254681 2.59482e-20)
(0.904937 0.0985921 -2.84875e-20)
(1.06708 0.0398905 0)
(0.70867 0.119249 -9.1521e-21)
(0.940818 0.0214122 5.60797e-20)
(1.09171 0.14915 1.43543e-20)
(1.0202 0.0553733 1.52607e-20)
(0.837366 0.0181276 3.59677e-20)
(1.03379 0.150989 0)
(0.999709 -0.0026274 -3.79521e-20)
(1.03931 0.0988547 1.80846e-21)
(1.07706 0.146011 1.73016e-20)
(0.916189 0.156891 3.65521e-21)
(1.10037 0.137802 -2.36858e-20)
(0.839093 0.209666 2.13304e-20)
(0.971738 0.0976057 0)
(0.944103 0.0464075 3.18374e-20)
(0.917091 0.154537 0)
(0.990495 0.0507903 -5.69729e-23)
(0.868854 0.174629 -6.06222e-20)
(1.01351 0.0622535 0)
(0.988021 -0.0237547 -2.64754e-20)
(0.977017 0.132995 -1.19958e-20)
(0.97889 -0.0294259 -2.79414e-21)
(0.778662 0.116684 -1.38409e-19)
(0.922847 0.119942 4.40693e-23)
(0.979991 0.00318773 -1.26022e-20)
(1.03954 0.0436296 1.15585e-21)
(1.03736 0.114704 -2.01075e-21)
(1.02166 0.0306495 5.23322e-21)
(1.14916 0.171405 2.02134e-20)
(0.969653 0.164044 5.26493e-20)
(1.03552 0.0764955 1.93685e-21)
(0.98836 0.0819435 0)
(0.670451 0.112083 1.62679e-20)
(1.03737 0.0766088 -5.1588e-23)
(0.85694 0.129032 1.62161e-20)
(0.989323 -0.00377893 -1.46616e-20)
(0.922936 -0.0466094 7.72923e-20)
(0.933599 0.138003 -2.53163e-20)
(0.83536 0.142073 -5.4463e-21)
(1.11633 0.10583 2.41901e-20)
(0.95516 0.113501 -2.41782e-20)
(0.980788 0.00309535 -5.44337e-21)
(0.996658 0.132836 0)
(1.03488 0.0776759 -2.28318e-21)
(1.01928 0.00916528 -1.22589e-20)
(0.956916 -0.0445709 8.94888e-21)
(1.00033 0.00181862 0)
(0.984748 0.154302 0)
(1.06623 0.109421 -2.74013e-20)
(0.86738 0.178465 0)
(0.826421 0.140291 0)
(1.02268 0.152417 4.16708e-22)
(0.984218 0.0372616 0)
(1.15308 0.167972 -5.63733e-22)
(1.0425 0.0631327 -2.1996e-21)
(1.14069 0.0883965 2.49954e-20)
(0.988369 -0.00491166 -1.57929e-20)
(1.00335 0.00123838 0)
(1.02219 0.0545141 -1.69479e-20)
(1.05618 0.0413461 0)
(0.994087 -0.00895845 2.21053e-20)
(1.12104 0.104199 5.13839e-20)
(1.03791 0.0757547 2.70691e-22)
(0.963661 0.158831 1.20607e-20)
(1.12447 0.058046 0)
(0.920429 -0.023965 3.73832e-20)
(1.1137 0.169301 0)
(1.04324 0.158984 -5.19316e-21)
(1.09657 0.158626 -1.77999e-20)
(0.960699 0.0311228 -3.70923e-20)
(1.11562 0.169886 0)
(0.814978 0.137902 -2.45242e-21)
(0.953459 0.112826 0)
(1.00204 0.0142527 9.77098e-23)
(1.05277 0.126976 0)
(1.02586 0.0235821 0)
(1.02155 0.0411394 -6.09388e-21)
(1.04421 0.0571698 0)
(0.952509 0.0623387 1.76971e-20)
(1.00243 0.00218857 0)
(0.990892 0.00414651 -4.02431e-21)
(0.97149 -0.0150354 0)
(0.916443 0.0961419 -8.38485e-21)
(1.02033 0.027164 2.81478e-20)
(0.898092 0.150937 -1.46659e-20)
(0.994901 0.144041 9.78962e-21)
(0.999769 0.00189494 0)
(0.912429 0.0062085 2.45954e-20)
(0.937229 0.133035 -4.45337e-20)
(1.11678 0.140321 -3.81926e-20)
(0.985112 0.035657 -2.77817e-20)
(0.95388 0.057895 7.05137e-20)
(1.0465 0.0549827 2.99005e-21)
(0.955014 0.115569 1.28655e-20)
(0.676317 0.112478 3.69557e-20)
(1.01011 0.0327473 -8.75595e-21)
(1.01701 0.0422881 2.15069e-20)
(1.02598 0.15154 0)
(1.09824 0.142505 1.39289e-20)
(1.0178 0.0561361 0)
(1.06556 0.110512 1.54114e-20)
(1.05512 0.0399058 1.31628e-21)
(1.00038 0.000128955 2.62307e-20)
(1.02576 0.0528232 9.13727e-21)
(1.06766 0.0684609 0)
(1.00894 0.0301707 0)
(0.944929 0.156776 -1.66129e-20)
(1.04774 0.0592643 -3.83457e-21)
(1.00253 0.0403328 -5.17498e-21)
(0.879148 0.0727848 2.73633e-20)
(0.999456 0.0581173 1.96557e-20)
(1.11769 0.104032 -4.75612e-20)
(0.953824 0.138858 3.11024e-20)
(1.0023 0.00227973 2.37665e-20)
(0.998915 -0.00386253 1.84712e-20)
(0.971476 0.0873652 0)
(0.999015 -0.00311945 0)
(1.02747 0.118582 8.28432e-22)
(1 0.000125741 2.2377e-20)
(0.963088 0.124888 0)
(0.999942 0.00165655 0)
(0.965023 0.113928 0)
(0.86403 0.0993875 -1.62011e-20)
(1.01313 0.0225663 -1.15728e-20)
(1.0193 0.163975 -1.12185e-21)
(0.981017 0.0604544 1.30723e-20)
(1.04015 0.166129 -5.86504e-21)
(1.01923 0.00627527 -2.09491e-20)
(0.957758 0.109216 -4.20922e-20)
(1.08249 0.0374956 -5.79257e-21)
(0.920712 0.151585 1.17742e-21)
(1.01676 0.0283541 1.11834e-20)
(1.11608 0.107891 0)
(1.03364 0.05751 4.07119e-21)
(1.06214 0.124981 0)
(1.14254 0.130782 2.12814e-20)
(0.986821 -0.00467655 -7.97503e-21)
(0.954521 -0.0435216 -3.59198e-20)
(0.992403 0.0380438 0)
(0.95689 0.0607996 3.77434e-20)
(0.730119 0.121708 9.79555e-21)
(1.0387 0.124149 1.34527e-21)
(1.02035 0.163927 -1.684e-21)
(1.04984 0.104818 3.873e-21)
(0.801721 0.137497 0)
(0.98699 -0.00768616 -1.8178e-20)
(1.09094 0.146741 -2.95348e-20)
(1.08628 0.0475507 2.13987e-20)
(1.03554 0.166099 -2.97087e-21)
(0.983183 0.0606654 0)
(0.898822 0.147919 6.46086e-21)
(1.05394 0.166589 3.96895e-20)
(1.11072 0.0592926 -1.19168e-20)
(1.00598 0.0663756 -6.82104e-21)
(0.934073 0.132873 -3.26209e-20)
(1.00522 0.156818 2.74654e-22)
(0.994919 -0.0153154 2.18687e-20)
(1.0441 0.131313 -4.36566e-21)
(0.998606 0.0576744 -3.64406e-20)
(1.11337 0.111379 -2.68864e-20)
(0.874353 0.14827 0)
(1.01742 0.0444864 -7.41766e-21)
(0.935853 0.137367 0)
(0.924945 0.187742 4.61929e-20)
(0.959042 0.158019 0)
(1.12309 0.134798 -6.10014e-20)
(0.958027 0.119692 0)
(0.98117 0.160012 1.01301e-20)
(1.09705 0.115077 0)
(0.997822 0.00199078 0)
(0.997989 -0.00260256 -1.81968e-20)
(1.12491 0.169653 3.33228e-20)
(1.09016 0.103891 0)
(0.998538 0.0913163 1.92789e-21)
(1.01257 0.0745542 3.41215e-21)
(0.994691 0.112951 7.0252e-21)
(0.971401 0.0984085 1.51868e-20)
(0.936933 0.135796 0)
(0.998321 -0.00237921 -3.10405e-20)
(1.045 0.150037 3.91633e-21)
(0.932556 0.157094 -3.43633e-21)
(0.662982 0.11111 1.04014e-20)
(1.01453 0.0741888 6.98867e-21)
(0.997561 0.00200332 4.03018e-20)
(1.04115 0.124514 5.74866e-21)
(0.999176 -0.0014017 1.63526e-20)
(0.679033 0.11337 -8.47412e-21)
(1.08963 0.152791 3.07178e-20)
(1.11786 0.137693 4.68545e-20)
(1.00059 0.00303239 -1.3615e-20)
(0.99665 -0.0038098 0)
(0.917136 0.150749 0)
(0.994165 -0.000448695 -3.43651e-20)
(1.09413 0.122549 4.33466e-22)
(1.02211 0.00232915 0)
(1.14611 0.0822529 -6.9184e-20)
(1.01809 0.02923 6.39777e-21)
(1.08866 0.146472 -1.41436e-20)
(1.02352 0.00881397 -1.19182e-20)
(0.992449 0.0108118 2.65577e-20)
(1.00133 0.000264647 1.21696e-20)
(1.05834 0.126892 0)
(0.946636 0.050263 0)
(0.994302 -0.00793747 0)
(0.878637 0.0169013 3.61707e-20)
(1.03721 0.14827 -3.64771e-21)
(1.09266 0.118673 -1.3036e-20)
(1.00004 0.000348255 0)
(0.99952 0.00144672 0)
(1.05029 0.167896 -1.33866e-20)
(1.00328 0.00193618 -1.73261e-22)
(0.971117 0.010216 5.229e-20)
(0.656268 0.111156 -2.8867e-21)
(1.00062 0.00291357 2.74012e-20)
(0.676381 0.112675 -2.42924e-20)
(1.02407 0.072371 1.14493e-21)
(0.999921 0.000455977 1.84676e-20)
(0.80629 0.0304646 0)
(1.00734 0.0647151 1.48421e-20)
(0.997234 0.0925329 0)
(0.970492 0.0879004 0)
(1.01218 0.114221 0)
(1.01783 0.0418398 -1.36254e-20)
(1.06089 0.126589 0)
(0.993806 -0.000603348 -1.15515e-20)
(1.07918 0.0359375 -2.41526e-20)
(0.990233 -0.0233025 -2.41193e-20)
(0.986502 0.136508 0)
(0.952433 0.139015 -2.39997e-20)
(1.01339 0.0504827 -6.01271e-21)
(1.01863 0.00136264 2.8045e-20)
(0.954294 0.0583662 -1.82955e-20)
(1.10398 0.135588 0)
(1.01739 0.0719072 0)
(0.958683 0.107532 -4.12334e-20)
(1.02032 0.070959 0)
(1.06791 0.123521 0)
(1.04292 0.0632876 1.48405e-21)
(0.857539 0.144867 -1.18337e-20)
(1.1299 0.169725 0)
(1.00038 0.00181332 -1.44015e-20)
(1.00073 0.00350554 -3.79994e-20)
(1.00994 0.0295894 3.38116e-21)
(0.9664 0.043089 1.06838e-20)
(1.01366 0.0671576 -6.95782e-21)
(1.02547 0.164555 1.79111e-21)
(0.856369 0.109139 -2.34516e-20)
(1.14098 0.127322 -1.92551e-20)
(1.02523 0.0536373 -1.71832e-20)
(1.00102 0.00322068 2.42631e-20)
(1.02359 0.00847885 1.12794e-20)
(0.857899 0.121656 0)
(1.08714 0.167702 -4.83691e-20)
(0.962583 0.0621846 1.93227e-20)
(1.12735 0.153137 2.75355e-20)
(1.01021 0.0495579 4.98041e-23)
(1.01022 0.013383 1.87976e-20)
(0.947251 0.15152 1.25622e-20)
(0.935759 0.137125 0)
(0.934012 0.133119 2.95203e-20)
(1.0967 0.0443845 4.25784e-21)
(1.06526 0.12424 1.10467e-20)
(1.08123 0.16909 -4.41328e-20)
(0.984518 0.153419 3.3303e-21)
(0.999563 0.00160254 -1.54585e-20)
(0.786664 0.134752 2.95995e-22)
(1.04471 0.147882 0)
(1.07643 0.144447 0)
(0.902335 0.0717915 2.41419e-20)
(0.878072 0.14745 1.16027e-20)
(1.01395 0.0491614 -1.04683e-20)
(1.00311 0.00211296 9.34918e-23)
(1.00981 0.0103379 2.8427e-23)
(0.968829 0.131831 -1.4286e-20)
(0.97851 -0.0141016 -2.70151e-20)
(0.972318 -0.00827059 -2.4802e-20)
(0.98903 0.0441287 0)
(0.976834 0.120643 4.34847e-21)
(0.991564 0.156324 -1.92757e-22)
(0.756255 0.124938 -2.55695e-20)
(0.979575 0.160444 5.17497e-21)
(0.91526 0.165983 0)
(1.0017 0.00221267 2.60148e-20)
(0.97059 0.00961051 -3.15771e-20)
(0.974631 0.0139505 0)
(0.93806 -0.00974094 1.82545e-20)
(0.997755 0.00153479 -5.25182e-20)
(1.00157 0.00191435 3.50968e-21)
(1.0301 0.118457 -1.73754e-22)
(0.993917 0.145473 1.05077e-20)
(1.02012 0.027688 -1.20002e-20)
(1.05992 0.167545 2.11689e-20)
(1.02133 0.00148287 -3.93763e-21)
(1.02366 0.163459 7.15277e-22)
(0.957054 0.111764 -2.07965e-20)
(1.03302 0.0313395 3.70355e-21)
(1.02965 0.0258648 1.2332e-20)
(1.00707 0.00566629 -3.777e-21)
(1.0528 0.106566 5.90412e-21)
(0.923178 -0.0168722 3.4894e-20)
(1.01927 0.0558126 0)
(1.00902 0.0482328 0)
(0.910476 0.150011 -5.88944e-21)
(1.06718 0.124585 -1.05723e-20)
(1.0003 0.00157815 2.75439e-20)
(1.0236 0.147661 0)
(0.988706 -0.0250582 6.88458e-21)
(0.99231 -0.0160294 3.25779e-20)
(1.00135 0.0301058 0)
(1.10737 0.170794 2.77002e-20)
(0.972775 0.132276 1.25366e-20)
(1.03234 0.11229 4.21143e-23)
(0.922883 0.0202442 -8.65456e-20)
(0.984125 0.0177642 2.53523e-20)
(1.09399 0.0484365 0)
(0.913066 0.0815801 0)
(1.00543 0.00118806 0)
(1.05504 0.0371025 1.14605e-20)
(0.97801 0.160046 8.22021e-21)
(0.822829 0.139705 -1.15787e-20)
(1.03518 0.124474 1.48612e-21)
(0.991607 0.162032 6.22225e-21)
(1.0007 0.000385136 9.18792e-24)
(1.04484 0.0360813 0)
(0.96975 0.161601 0)
(0.999699 0.00117607 1.50446e-20)
(0.970052 0.128462 -1.17518e-20)
(1.05206 0.0533491 1.0634e-21)
(0.995046 0.0206221 0)
(1.03479 0.0279924 7.30953e-21)
(1.01128 0.0668993 0)
(0.936889 0.158804 0)
(0.99997 0.000414403 -1.63533e-20)
(0.982671 0.0720046 5.23705e-20)
(1.02993 0.101036 8.53793e-22)
(1.04984 0.157077 1.361e-21)
(1.02176 0.00194156 4.07151e-21)
(0.994413 -0.00118378 -2.25095e-20)
(0.941238 0.0842007 -5.28506e-20)
(1.00646 0.0151537 2.11735e-20)
(1.02827 0.091842 -3.57063e-21)
(0.957736 0.1608 -2.56316e-20)
(1.09786 0.0883161 -1.30214e-20)
(1.00959 0.0113106 -1.50007e-20)
(0.900995 0.14869 0)
(1.01517 0.15236 9.03544e-22)
(1.05182 0.128568 -6.85761e-21)
(1.00703 0.0153538 1.15142e-22)
(1.08369 0.158694 2.37868e-20)
(1.02952 0.0909008 2.2656e-21)
(0.901878 0.152689 8.13109e-21)
(0.923329 0.0172915 6.9855e-20)
(1.00324 0.00180841 0)
(1.00899 0.0113235 0)
(0.989828 0.0494581 5.14888e-20)
(1.00007 0.00193391 0)
(0.871138 0.102323 -5.70273e-21)
(1.01195 0.0506759 0)
(1.01693 0.151271 8.42211e-21)
(0.996807 -0.00580258 4.60349e-20)
(1.01241 0.103041 5.79442e-21)
(0.919011 0.154347 0)
(0.998692 0.0258658 2.96707e-20)
(1.01057 0.0129927 0)
(1.03468 0.122605 8.34845e-22)
(1.03274 0.165358 1.53446e-20)
(0.795484 0.044559 -1.14609e-20)
(0.981306 0.143387 -9.76201e-21)
(1.00546 0.00241776 2.46456e-20)
(0.997184 -0.00351795 -3.41573e-20)
(0.950412 0.156854 -1.81953e-20)
(1.00007 0.000431777 -1.9689e-20)
(0.999486 -0.00141777 9.7721e-21)
(0.963862 -0.0293531 3.61355e-22)
(0.815234 0.138079 8.18294e-21)
(0.971621 0.13175 0)
(1.12054 0.168558 -2.83824e-20)
(1.00148 0.0153076 2.22467e-23)
(1.12109 0.133157 3.10794e-20)
(1.00747 0.148057 5.13549e-21)
(1.00686 0.00605041 -5.85687e-23)
(0.961272 0.108571 6.19493e-20)
(1.03302 0.110425 -1.23268e-23)
(0.996558 -0.0066693 -1.80858e-20)
(1.00552 0.00151158 0)
(1.00448 0.0658854 8.82469e-21)
(1.02783 0.102171 -2.54629e-21)
(0.921536 0.128858 0)
(1.00312 0.0662344 -2.188e-20)
(1.01814 0.150857 -5.67569e-21)
(0.981128 -0.031157 -3.58652e-20)
(1.12411 0.168404 0)
(0.97967 -0.000328663 4.08679e-20)
(1.091 0.142084 -2.04661e-20)
(0.992105 0.155179 -1.32305e-20)
(0.999269 -0.00146823 -9.07654e-21)
(1.08504 0.157541 -2.5656e-20)
(1.03083 0.0780287 -1.47087e-21)
(0.999728 0.00114504 -1.40287e-20)
(1.00998 0.0812939 -1.03663e-20)
(0.92326 0.133029 5.61713e-21)
(0.994692 0.0208757 -1.83043e-20)
(1.00024 0.0233977 1.45827e-20)
(0.979539 0.0231021 -2.65004e-20)
(0.992394 -0.0143724 -1.09842e-20)
(0.952074 0.0615081 1.79871e-20)
(0.985468 0.0178074 -2.28445e-20)
(0.94836 0.151228 5.02687e-21)
(1.06868 0.0464225 0)
(1.01359 0.150679 5.49298e-21)
(0.998427 -0.00230311 3.30802e-20)
(1.03275 0.122336 -1.41402e-21)
(0.860816 0.10794 1.37139e-20)
(0.992042 0.165428 0)
(1.0126 0.103379 0)
(1.16037 0.166567 0)
(0.986918 0.160652 0)
(1 9.10478e-05 -2.14632e-20)
(0.987666 0.160585 0)
(1.02028 0.0486686 5.33996e-22)
(1.01329 0.0234517 0)
(0.985488 0.00392605 1.83273e-20)
(1.04385 0.0350529 -6.1882e-22)
(1.00294 0.00265154 -1.33629e-20)
(1.02421 0.040584 -1.20678e-20)
(0.863138 0.146424 -2.93571e-20)
(0.901195 0.148778 0)
(0.913593 0.152913 -2.88592e-20)
(1.06508 0.047047 -5.63114e-21)
(0.997464 0.00144245 -1.91271e-20)
(0.961183 0.000897664 2.35617e-20)
(0.981698 0.0091004 2.63037e-20)
(0.912763 0.00560184 -1.62556e-21)
(0.917149 0.176149 0)
(1.00741 0.00150094 1.29524e-20)
(0.942457 0.0829847 4.61944e-20)
(1.09131 0.103352 0)
(0.81053 0.13435 6.28921e-21)
(1.00017 0.00039871 2.31725e-20)
(0.998002 0.00258204 1.76298e-20)
(0.997207 -0.00682943 0)
(1.00867 0.0115839 1.27669e-20)
(0.980398 -0.0323224 3.59029e-20)
(0.991912 -0.0167406 -4.28791e-20)
(0.815735 0.149618 -7.50381e-20)
(1.00269 0.00121288 0)
(0.996808 0.0582221 1.63337e-20)
(1.00176 0.00380605 0)
(1.03035 0.1588 1.70014e-21)
(1.01211 0.0657836 0)
(1.07756 0.167789 1.04874e-20)
(1.02798 0.0518025 1.36577e-21)
(0.925509 0.177622 -2.87598e-20)
(0.953509 0.112271 5.79976e-21)
(0.959093 0.023793 0)
(0.982073 0.0736653 -1.41553e-20)
(1.0188 0.0723845 0)
(1.0015 0.00407083 4.13685e-23)
(1.02767 0.0795761 -8.89431e-21)
(0.970837 0.0428957 -9.53124e-23)
(0.970961 0.143075 -1.94521e-20)
(0.982315 0.142337 9.38686e-22)
(0.933999 0.158075 0)
(1.04246 0.131578 -3.95411e-21)
(0.979652 0.0231344 -2.8263e-20)
(0.97835 0.0212045 0)
(0.917755 -0.0269008 0)
(1.01665 0.00149095 -1.66752e-20)
(1.14161 0.0904439 -1.15936e-20)
(0.992049 -0.0156173 1.27531e-20)
(0.938811 0.145173 0)
(0.955582 0.104834 -9.66009e-21)
(1.0397 0.127234 -9.44024e-21)
(0.964495 0.11384 0)
(0.984694 0.0616503 2.87062e-21)
(1.00616 0.00468949 0)
(1.00862 0.0806626 2.53562e-21)
(0.986552 0.0036955 0)
(0.897946 0.0963577 -1.18571e-19)
(0.916427 0.0101722 5.09734e-20)
(0.915851 0.0107965 -4.62983e-20)
(0.777944 0.128402 2.48443e-20)
(1.09147 0.054323 3.10539e-20)
(1.00517 0.00258455 -2.51534e-20)
(1.02963 0.0791466 7.89859e-21)
(0.983618 0.00579956 -1.34061e-20)
(0.961236 0.0837184 0)
(1.02237 0.00145721 2.24198e-20)
(0.964518 0.126013 0)
(0.960989 0.0597935 0)
(0.831932 0.138192 -9.23878e-21)
(1.14106 0.152876 0)
(0.933918 0.00327986 1.11367e-22)
(0.9805 6.58612e-06 -2.14392e-20)
(0.981598 0.00871776 1.21253e-22)
(0.999748 0.00109392 4.40645e-20)
(1.01723 0.00555035 -1.10231e-20)
(1.08569 0.0493064 -3.66436e-21)
(1.02847 0.0343126 2.43563e-21)
(0.994084 -0.00109959 3.7647e-20)
(0.961028 0.000595904 0)
(0.999734 0.00113145 -1.6295e-20)
(1.05416 0.0619027 -1.20225e-20)
(0.913748 0.15632 0)
(1.03222 0.120308 5.66867e-22)
(0.975977 0.111378 2.74947e-20)
(1.11562 0.169659 -3.81899e-20)
(1.00321 0.0146505 0)
(0.935559 -0.000669787 -6.74946e-20)
(0.999438 0.00103125 -5.24067e-20)
(0.878506 0.0134179 -8.26124e-20)
(0.883262 0.149755 1.97318e-20)
(0.990831 0.0427449 -8.32166e-22)
(0.999888 -0.000519475 0)
(0.959999 0.0844067 -1.30311e-20)
(0.830784 0.0700301 -2.36421e-20)
(1.01069 0.147648 5.67187e-23)
(1.08877 0.0572059 -1.55672e-20)
(0.971838 0.0419271 -2.23104e-20)
(1.12739 0.167222 3.04372e-20)
(0.85739 0.0165762 -1.54452e-20)
(1.00341 0.00149818 0)
(1.00127 0.0405238 -2.01145e-20)
(1.01622 0.0483772 0)
(0.99253 0.0011678 1.4792e-20)
(1.09359 0.156768 1.88811e-22)
(1.02726 0.0528291 0)
(0.901586 0.154044 7.20518e-21)
(1.13984 0.157174 0)
(1.04534 0.126188 2.6319e-21)
(1.03395 0.149436 0)
(0.990961 0.0628126 5.06342e-21)
(0.961456 0.157747 0)
(1.04545 0.0343006 5.06725e-22)
(1.10807 0.155122 -3.53189e-20)
(0.964734 0.156908 -1.98295e-23)
(1.00214 0.000531099 0)
(1.03301 0.0769424 6.59667e-22)
(1.01596 0.0471889 0)
(1.00413 0.0294743 -1.23366e-21)
(1.02573 0.118793 3.75396e-21)
(0.975321 0.159899 -4.84823e-21)
(1.03809 0.0326968 3.0283e-21)
(1 0.000103646 2.16078e-20)
(0.970507 -0.0151542 -3.91274e-20)
(0.995697 0.0932513 0)
(1.07595 0.147823 -2.31957e-20)
(1.1159 0.170386 2.94964e-20)
(0.996525 -0.00954125 -1.96604e-20)
(0.7323 0.120411 -4.75268e-20)
(0.985751 0.0602648 9.04641e-21)
(0.996535 0.102945 3.77651e-21)
(0.819167 0.138576 -1.23367e-20)
(1.02459 0.0254147 -5.04388e-21)
(0.976189 -0.0256947 1.15503e-20)
(0.933346 0.137202 3.97735e-20)
(0.984458 0.0346309 0)
(1.01745 0.0404567 -1.52633e-20)
(1.00123 0.000314696 1.43236e-20)
(0.951743 0.162394 -6.18686e-20)
(0.990047 -0.000870104 0)
(0.888668 0.146918 2.19497e-21)
(0.956762 0.156748 0)
(0.954623 0.0805894 5.25302e-20)
(1.02491 0.146711 8.85436e-23)
(1.02508 0.153081 0)
(0.930277 -0.0269135 -1.52146e-20)
(0.94551 0.108721 1.11751e-20)
(1.00747 0.0114888 -2.37061e-20)
(0.964609 0.0623708 2.44418e-21)
(1.01602 0.149729 0)
(1.00104 0.00172239 4.14982e-20)
(0.937108 0.146181 -2.95784e-20)
(1.00193 0.0020262 -2.09667e-20)
(0.888963 -0.0353978 -1.19006e-19)
(0.997467 0.00108512 0)
(0.743627 0.123185 -9.94554e-21)
(1.10786 0.0686477 4.8154e-20)
(1.01434 0.148088 0)
(0.994009 0.155297 0)
(0.996722 0.0157413 3.03741e-20)
(0.918679 0.157768 2.8043e-20)
(0.89741 0.0998482 3.3993e-20)
(1.00324 0.162669 -3.24304e-21)
(1.00137 0.00345262 -4.29241e-20)
(0.917137 0.153548 9.9583e-21)
(0.986389 0.137382 0)
(1.0059 0.00417382 0)
(0.99541 0.10233 -5.47131e-21)
(1.02207 0.157829 -3.42518e-23)
(0.814474 0.0221305 -2.3995e-20)
(0.981285 -0.029088 2.47503e-21)
(0.999432 0.00110132 3.34699e-20)
(0.982214 0.051588 1.74166e-20)
(1.08962 0.169589 2.00204e-20)
(1.04244 0.0597704 1.69083e-22)
(1.04059 0.0740972 1.07589e-21)
(1.10735 0.0844366 3.17194e-20)
(0.99291 0.00157482 -1.57991e-20)
(1.00192 0.0236881 0)
(1.05731 0.0616319 1.34727e-20)
(0.991638 0.00390712 -3.00034e-20)
(0.988031 0.135644 0)
(0.95363 -0.0298245 2.11067e-20)
(1.01053 0.00336398 -7.45283e-22)
(0.999966 -4.99254e-05 0)
(0.997488 0.0159959 -2.78995e-20)
(0.996494 0.0137021 2.73541e-20)
(0.968746 0.131504 0)
(0.998759 -0.00188435 0)
(1.13512 0.0756583 1.11728e-20)
(0.994557 0.0116035 3.37629e-21)
(1.0158 0.0283314 0)
(0.997522 0.00113741 1.7106e-20)
(0.973279 0.165309 -6.21725e-20)
(1.00655 0.00921676 -2.38736e-20)
(1.0416 0.113603 -3.04009e-21)
(0.999533 0.0226277 -1.48962e-20)
(0.676766 0.117791 -1.09794e-22)