/*--------------------------------*- C++ -*----------------------------------*\
| =========                 |                                                 |
| \\      /  F ield         | OpenFOAM: The Open Source CFD Toolbox           |
|  \\    /   O peration     | Version:  v2012                                 |
|   \\  /    A nd           | Website:  www.openfoam.com                      |
|    \\/     M anipulation  |                                                 |
\*---------------------------------------------------------------------------*/
FoamFile
{
    version     2.0;
    format      ascii;
    class       volScalarField;
    location    "350";
    object      k_0;
}
// * * * * * * * * * * * * * * * * * * * * * * * * * * * * * * * * * * * * * //

dimensions      [0 2 -2 0 0 0 0];


internalField   nonuniform List<scalar> 
14315
(
0.000154718
0.000193591
0.000149738
0.000152931
0.000154834
0.000144374
0.000141831
0.000151984
0.00627417
0.000149041
0.000147405
0.000162436
0.000151109
0.000146541
0.000141916
0.000147861
0.000142643
0.00930803
0.000141286
0.000148073
0.00016345
0.000148307
0.00016084
0.000147509
0.000169927
0.000147155
0.000183523
0.000149167
0.000186065
0.000135954
0.00016226
0.000137033
0.0263192
0.000163458
0.00015181
0.000136939
0.000139005
0.000151562
0.000167579
0.000150224
0.00474047
0.000146961
0.000160616
0.00017432
0.000175821
0.000154825
0.000149198
0.000148525
0.000148811
0.000160103
0.000138815
0.00017456
0.000139534
0.000143832
0.000139657
0.000151351
0.000170813
0.000146888
0.000147031
0.000910033
0.000143435
0.00015486
0.000160047
0.000141723
0.00014194
0.000141237
0.000150236
0.000161845
0.000152056
0.000136713
0.000143396
0.000142159
0.000142324
0.000149671
0.00014192
0.000154922
0.000142172
0.00016245
0.000136636
0.000175825
0.00015518
0.0248081
0.00014878
0.000142606
0.00013997
0.0374656
0.000175948
0.000142808
0.000142761
0.00014396
0.000167781
0.00919632
0.000119018
0.000148709
0.000161255
0.00015307
0.000139921
0.000139883
0.000160431
0.000146795
0.00014494
0.000163071
0.000164136
0.000157591
0.000143299
0.000142908
0.000150061
0.000158495
0.000153233
0.000170885
0.000164073
0.000169737
0.000157301
0.000183152
0.000148723
0.000173788
0.000162289
0.000152083
0.00749385
0.0308741
0.000148597
0.000142747
0.000140966
0.000168149
0.000182313
0.000143302
0.0420533
0.000157857
0.000147745
0.000145068
0.000167401
0.000517113
0.0249635
0.0202452
0.000154906
0.000147694
0.00758815
0.000182241
9.75437e-05
0.0319175
0.000177776
0.000182962
0.000136046
0.00053184
0.0100529
0.00014943
0.000156803
0.000146847
0.000166006
0.000170452
0.000144928
0.000131275
0.000143177
0.000175783
0.000143551
0.000153
0.000152453
0.000168438
0.00014992
0.000175066
0.000154987
0.000147813
0.017868
0.000165925
0.000163197
0.0423307
0.000167858
0.000153364
0.000160599
0.000144335
0.00786386
0.00987642
0.000167356
0.000158355
0.000122052
0.0178184
0.000161423
0.000143244
0.000172191
0.000179241
0.0298329
0.00016816
0.000144818
0.000163664
0.000162909
0.0213228
0.000164675
0.000164393
0.000149224
0.00016623
0.000152613
0.0278809
0.000185636
0.000131241
0.000139476
0.000154099
0.0200463
0.000145211
0.000155163
0.00016675
0.025969
0.000145045
0.000167376
0.000149107
0.000152979
0.000144076
0.000152313
0.000174753
0.00014149
0.00013156
0.000148837
0.000149958
0.00017752
0.000153244
0.025825
0.000156342
0.000181468
0.000145078
0.000144793
0.000167138
0.000183417
0.000151122
0.000187776
0.0226326
0.000162187
0.000153666
0.000162368
0.000165151
0.000140678
0.000154054
0.00015417
0.00769459
0.000148748
0.00014632
0.000153293
0.000157595
0.000173394
0.000158422
0.000158026
0.00863705
0.049561
0.000162229
0.000141383
0.0159383
0.000182884
0.000143075
0.0498869
0.00014281
0.000140406
0.00014164
0.00015238
0.000143375
0.0042425
0.000139185
0.000152364
0.00824083
0.0108557
0.000174225
0.00900997
0.000148885
0.000165415
0.000153923
0.000156136
0.00646643
0.00015646
0.00017853
0.0001675
0.0286784
0.000162469
0.000161385
0.000186195
0.000145889
0.000151465
0.000142784
0.000170243
0.000142334
0.00018117
0.000131165
0.000153072
0.000162014
0.000141733
0.000166211
0.000148985
0.000160574
0.00015449
0.00932501
2.15825e-05
0.000156978
0.000140165
0.000143714
0.000179058
0.000145094
0.000169547
0.000181104
0.000135921
0.000147946
0.000142114
0.0109853
0.000145744
0.0194195
0.000169471
0.000146317
0.000146717
0.000161395
0.00015309
0.00014325
0.000158199
0.000169147
0.000156274
0.000160258
0.000136317
0.000136372
0.000164889
0.000169584
0.000164269
0.00607839
0.0324304
0.000165322
0.000166252
0.010532
0.000148502
0.000146548
4.60859e-05
0.000145588
0.000143956
0.00015772
0.000182561
0.000141837
0.0200818
0.000141999
0.0120615
0.000185251
0.00825925
0.000197525
0.00395422
0.000149202
0.000143318
0.0001544
7.54097e-05
0.000153567
0.000161047
0.00244128
0.00972247
0.000152887
0.000146629
0.0102134
0.0166075
0.00613193
0.000138664
0.000153581
0.000939187
0.000193212
0.000147935
0.000140573
0.000160351
0.000177389
0.000162004
7.75589e-05
0.00757276
0.000142814
0.000161164
0.0168728
0.000137725
0.000143346
0.000137679
0.000156898
0.000169201
0.000157441
0.000159071
0.000141769
0.000185296
0.0140391
0.000161189
0.00798722
0.000174216
0.000147514
0.000176014
0.0128331
0.00016165
0.000145305
0.00016759
0.000149007
0.000182176
0.00015767
0.000140552
0.000171674
0.000149383
0.00015748
0.00343892
0.000174341
0.000209373
0.000165813
0.000142036
0.000169411
0.000155705
0.000178654
0.000148676
0.00015778
0.0001557
0.000167625
0.000142304
0.000142779
0.000188702
0.000154016
0.00395728
0.000187274
0.00928555
0.000169371
0.000170129
0.000161239
0.000136909
0.000147754
0.000139682
0.00874233
0.000164813
0.00016498
0.000167269
0.000173468
0.000157329
0.0186884
0.000149731
0.00378515
0.000176618
0.000146396
0.000132971
0.000164455
0.000169193
0.000150228
0.000124401
0.000206952
0.000188787
0.00015349
0.000143154
0.000182264
0.000159691
0.000136965
0.0051301
0.000178152
0.000168099
0.000144384
0.000182723
0.00013597
0.000145068
0.000187793
0.000117094
0.000178459
0.000136024
0.000135991
0.00014502
0.000144208
0.000157173
0.000143096
0.0285475
0.0199009
0.000136113
0.0243394
0.000131205
0.000168028
0.000158572
0.00016738
0.0158631
0.000172834
0.000174099
0.0100955
0.000182769
0.000131447
0.00836928
0.00114522
0.000168152
0.000146327
0.000178734
0.000165711
0.000149136
0.000153698
0.000141286
0.000158295
0.000174818
0.0190649
0.000149707
0.000146608
0.000152027
0.000153625
0.0304242
0.000162911
0.000153284
0.0172254
0.00018008
0.000149415
0.00018015
0.000157809
0.00139674
0.000171221
0.000144148
0.000164523
0.000124712
0.000170764
0.000180698
0.000151517
0.000157477
0.000161514
0.0235399
0.000143569
0.0579928
0.000144972
0.000184292
0.000142912
0.000132754
0.000159525
0.000157589
0.000141718
0.00018172
0.000151653
0.000154329
0.0342137
0.000147666
0.000169327
0.000165302
0.000193204
0.000149234
0.000164477
0.000155327
0.00679662
0.000171746
0.0080273
0.0102013
0.000163928
0.000160316
0.000172368
0.0122269
0.000173097
0.000161405
8.54087e-05
0.000146822
0.0001386
0.000148562
0.000149399
0.000157538
0.000136538
0.00691883
0.000136601
0.000152851
0.0127417
0.0160135
0.000142679
0.000148244
0.000142281
0.000147989
0.000144298
0.00867551
0.000148604
0.000148025
0.000144418
0.000157929
0.000141683
0.000177119
0.000153355
0.000147188
0.000160835
0.000149825
0.000147888
0.000151671
0.000177377
0.000167758
6.93859e-05
0.000201332
0.000143287
0.000152668
0.000170547
0.0281015
0.000166528
0.0001423
0.000163414
0.000167684
0.000143459
0.000222797
0.000164156
0.000157961
0.000146341
0.000182806
0.0112544
0.000156016
9.60083e-05
0.000182438
0.000148912
0.000148977
0.00882885
0.000137179
5.55622e-05
0.000141406
0.0199342
0.000140924
0.000147142
0.000172136
0.008059
0.0107702
0.0112192
0.000173572
0.000143036
0.0077596
0.000163229
0.00486957
0.000145207
0.000157634
0.000147797
0.000138294
0.000152954
0.000146951
0.00016743
0.000146112
0.00014652
0.000174471
0.000145991
0.00015744
0.000142253
0.000139767
0.000148492
0.000155351
0.058486
0.00016772
0.000147881
0.0102329
0.000148075
0.000186051
0.00829574
0.000157148
0.000145652
0.000148051
0.000207067
0.000160974
0.000155929
0.0160731
0.000181364
0.000151861
0.0525428
0.000142247
0.000166975
0.000154306
0.000205254
0.000157942
0.000136113
0.000172998
0.00014449
0.000160592
0.000161558
0.000173726
0.000182106
0.000152781
0.000148899
0.00015861
0.00015361
4.99284e-05
0.000157566
0.0146068
0.000141262
0.00017264
0.000131943
0.00214716
0.000157078
0.000173217
0.000143292
0.0500111
0.000142691
0.000161702
0.0258205
0.000158386
0.000139365
0.0223873
0.000182686
0.00014247
0.00014638
0.000176807
0.00681514
0.00157173
0.000143267
0.0062547
0.00014962
0.000170774
0.000152941
0.031879
0.000136184
0.000148828
0.000145448
0.000154186
0.000163578
4.40017e-05
0.0256504
0.000152258
0.000149161
0.000149618
0.00014854
0.000132512
0.0108819
0.000152242
0.000163387
0.000151167
0.000139315
0.000150762
0.00984482
0.000179162
8.84681e-05
0.000140189
0.000152061
0.000144535
0.000152979
0.000150835
0.000180218
0.000132364
0.000146016
0.011178
0.000203781
0.000145637
0.00014501
0.00013976
0.0102902
0.00012349
0.000147215
0.0279766
0.000152054
0.000145868
0.000174647
0.000149632
0.000146529
0.0106748
0.000202101
0.000158623
0.000163891
0.000158697
0.000155639
0.00017305
0.0058475
0.000144095
0.000174859
0.000189645
0.000178706
0.000177793
0.00509152
0.0104235
0.000142574
0.000157714
0.000170943
0.000164267
0.00014582
0.000132113
0.000167787
0.0252495
0.00014844
0.000153255
0.000169766
0.0300851
0.000142864
0.000171211
0.000153531
0.00016729
0.000174959
0.000144324
0.00891812
0.000204458
0.000145261
0.000155387
0.000139891
0.0342127
0.00336594
0.0192378
0.000160862
0.000168939
0.0106744
0.00013662
0.000142784
0.000175668
0.00249775
0.000152553
0.000136443
0.000142107
0.00013683
0.000141799
0.000140642
0.00991247
0.000135602
0.000151356
0.00919022
0.000147344
0.000183601
0.000138719
0.000156752
0.000145412
0.000135642
0.000405917
0.00917722
0.000148539
0.000144352
0.000144793
0.000207998
0.000142738
0.000141877
0.000160864
0.00014268
0.00974437
0.000136892
0.000171993
0.000142429
0.000140215
0.000170362
4.69152e-05
0.000752591
0.000179769
0.000139859
0.000143184
0.000140017
6.24155e-05
0.000145597
0.000169758
0.000151157
0.000211785
0.00590931
0.000148158
0.000157707
0.00695541
0.000161292
0.000140201
0.000166464
0.000174284
0.00568934
0.000152679
0.000162404
0.000154188
0.000833269
0.000164321
0.000152879
0.000173592
0.000156768
0.000157857
0.000158315
0.000153115
7.00734e-06
0.000186933
0.00018837
0.000154093
0.000147878
0.0306458
0.000173477
0.00015714
0.00642437
0.000178581
0.000155254
0.000136839
0.000167107
0.000158579
0.000519657
0.000145146
0.000139751
0.000158228
0.000143748
0.000179681
0.000167314
0.000153211
0.000148738
0.00689151
0.000148611
0.0109289
0.000145771
0.000159816
0.000140001
0.000149861
0.000171506
0.000151727
0.000167485
0.000155875
0.000175645
0.0532415
0.000156316
0.000156509
0.000154781
0.000166993
0.0100692
0.000148382
0.000170172
0.00014264
0.000145581
0.000194625
0.0181305
0.000168799
0.00018025
0.000141067
0.014063
0.0438155
0.000119209
0.000177087
0.000142329
0.0155569
3.49795e-05
0.000142478
0.000143819
0.0001545
0.000166984
0.0325851
0.000149213
0.000155774
0.000143966
0.000163713
0.000168694
3.14936e-05
0.000185259
0.000157072
0.0115165
0.000149696
0.0551507
0.000141069
0.000179646
0.00015084
0.000143717
0.000171599
0.000154012
0.000155513
0.000139825
0.000149992
0.000166453
0.000139663
0.00013942
0.000590156
0.00015609
0.000142006
0.000139462
0.000153903
0.000143255
0.000171298
0.000144293
0.000185475
0.000141305
0.000142574
0.000140177
0.000168484
0.000166767
0.000144322
0.000190207
0.000207011
0.000155901
0.0508154
0.000146888
0.000164479
0.000153467
0.000142807
0.000153003
0.000155866
0.000188038
7.66803e-05
0.0343308
0.0234473
0.0478976
0.000157899
0.000169196
0.000149882
0.0454959
0.01942
0.000142089
0.000148355
0.0229931
0.000156821
0.000135127
0.0262782
0.000170576
0.000208663
0.000143234
0.000157767
4.75262e-05
0.000170985
0.000146223
9.8976e-05
0.000139473
0.000144589
0.000159121
0.000153748
0.000166151
0.000136774
0.00014003
0.00875614
0.000157427
0.000131412
0.000149766
0.000156549
0.000156454
0.000137198
0.000154886
0.0200345
0.000185346
0.000180587
0.000143809
0.000149929
0.000144658
0.00119386
0.000144047
0.000144136
0.000160164
0.000151523
0.000163605
0.0172714
0.000147683
0.00014379
0.000156486
0.000131524
0.000206909
0.000152678
0.00016065
0.000156624
0.00034969
0.000152614
0.00016926
0.000109749
0.000140101
0.00015884
0.000170893
0.000182823
0.000172324
0.000140888
0.000192452
0.000158132
0.000155296
0.000154754
0.000149385
0.000164793
0.000189058
0.000174886
0.00864395
0.000160754
0.000139891
0.0107898
0.000144365
0.000149603
0.000141001
0.000176546
0.000154879
0.000141155
0.000153285
0.000141842
0.00938225
4.95696e-05
0.000144898
0.0001224
0.000160317
0.00013831
0.000141136
0.000176744
0.000171442
0.000158642
0.000140832
0.000149348
0.000159016
0.0176244
0.000170381
0.000193904
0.000166759
0.00015991
0.00561909
0.000152231
0.000143979
0.00016388
0.000143104
0.00015524
0.000149414
0.000151802
0.000156276
0.000152809
0.000113623
0.000155605
0.0107645
0.000184811
0.0315388
0.000149254
0.000179395
0.000154461
0.000153275
0.000183421
0.0109966
0.0107852
0.000153425
0.00015254
0.000181035
0.000163102
0.000173048
0.000142907
0.000146859
0.000144932
0.000151426
0.000153823
0.000148347
0.0189745
0.0143042
0.000173445
0.000154492
0.00014887
0.00017236
0.000142426
0.000142948
0.000163694
0.000130586
0.0333959
0.000152656
0.0193472
0.000167347
0.000146557
0.0222677
0.000182717
0.00016693
0.000153313
0.000175461
0.00013895
0.000147662
0.00017719
0.000143694
0.000138913
0.0104398
0.000178982
0.000180918
0.000151386
0.000107383
0.000108891
0.000149497
0.000146972
0.000934134
0.000128578
0.000140808
0.00016319
0.000143161
0.00832253
0.000157205
0.000134952
0.00945955
0.0220961
0.000158725
0.000149568
0.000167022
0.000164642
0.000168345
0.00585467
0.00014501
0.000144104
0.000141506
0.000185284
0.000151007
0.00924533
0.000208719
0.000138382
0.000146419
0.000182167
0.000139934
0.000138476
0.0187297
0.000135381
0.000157358
0.000154453
0.00773372
0.000139026
0.00684268
0.000140738
0.000141104
0.000143148
0.0210222
0.000181057
0.000144728
0.00014102
0.00889291
0.00017488
0.000146534
0.000171341
9.91736e-05
0.000158405
0.00032959
0.000155563
0.000143621
0.000138439
0.0127563
0.000153122
0.000138707
0.000142316
0.000148565
0.000137249
0.000143779
0.000153469
0.000148391
0.000150686
0.000157602
0.000153019
6.11956e-05
0.000146304
0.000158152
0.000163636
0.000165297
0.000157971
0.000148877
0.000148111
0.000157615
0.0177833
0.00014168
0.000171031
0.022099
0.000170541
0.000126276
0.000134357
0.009311
0.000149058
0.000156971
0.000166402
0.000193852
0.000147746
0.00016831
0.00014737
0.000166182
0.000158433
0.000173403
0.000539524
0.0199889
0.000173924
0.000171569
0.000138673
0.000142075
0.000151392
0.000153285
0.000207202
0.000153244
0.0437259
0.000150452
0.0124162
0.000143569
0.00014041
0.000168951
0.000162467
0.000146749
0.000141122
0.000151344
0.000143069
0.000144081
0.000207061
0.000139576
0.000156683
0.000145483
0.000148671
0.019826
0.000126805
0.000166024
0.000141952
0.00442755
0.000151541
0.000144683
0.000151518
0.00014183
0.000147446
0.00018061
0.000141085
0.000148924
0.000149914
0.000142561
0.000184741
0.000138827
0.01106
0.00995521
0.000147604
0.00014339
0.000144493
0.00015525
0.000158813
0.000163404
0.000133781
0.000138212
0.00015664
0.0170646
0.00014953
0.00853905
0.00014852
0.000145725
0.0251568
7.2665e-05
0.000156934
0.00013124
0.00973764
0.00017063
0.000160998
0.0108221
0.000150645
0.000140791
0.00923097
0.000173674
0.000140019
0.00014627
0.0104176
0.00014663
0.000140936
0.000174101
0.00302115
0.000175741
0.000160223
0.000149603
0.000135665
0.000153684
0.000146597
0.000154917
0.000171707
0.00017036
0.000149492
0.000172937
0.00016289
0.000142414
0.000209682
0.000149056
0.00302766
0.000160673
0.0213953
0.000193446
0.00966006
0.000144407
0.000155026
0.000165148
0.00015284
0.000141178
0.000143906
0.0111527
0.000176093
0.000174862
0.000146554
0.000148622
0.000181166
0.00787361
0.000158818
0.000155851
0.00014888
0.000151595
0.00976781
0.000185886
0.000144652
0.00780085
0.0127832
0.000148296
0.000146215
0.000170199
0.000138793
0.000135987
0.000119913
0.000165152
0.0447633
0.000137382
0.00014161
0.000152659
0.000142278
0.00013729
0.000144602
0.000167718
0.000205056
0.000163908
0.000101665
0.000140769
0.00301034
0.000912632
0.00017691
2.87625e-05
7.31272e-05
0.000142155
0.000153947
0.000209042
0.000132104
0.000165419
0.000157796
0.000146407
0.00016365
0.000139357
0.000142017
0.000139998
0.000154124
0.000146683
0.00018839
0.000165204
0.000137812
0.0128633
0.00014466
0.00015485
0.000144452
0.000158638
0.000139681
0.000189116
6.22674e-05
0.000140695
0.00167282
1.59839e-05
8.51799e-05
0.00019186
0.000151668
0.000172244
0.000171802
0.000198865
0.000178793
0.000155702
0.000184933
0.000159512
0.000143766
0.000147466
0.000168691
0.000165852
0.000149544
0.000139756
0.000138439
0.000158121
0.000157422
0.000170524
0.000152377
0.000138409
0.000167224
0.00015563
0.000146139
0.00017712
0.000192358
0.000162097
0.000166632
0.000153567
0.000152074
0.000153902
0.000153478
0.000152162
0.000143813
0.000198826
0.000142438
0.000160484
0.000160126
0.00610225
0.000176342
0.0281771
0.000137637
0.000184309
0.000158939
0.000144955
0.000189883
0.000140847
1.51198e-05
0.000140071
0.000166628
0.000148323
0.00014347
0.000148701
0.000170975
0.000153169
0.0145366
0.000146454
0.000172551
0.000134044
0.000157723
0.0107884
0.00020485
0.0195947
0.000152169
0.00018447
0.000186093
0.000143709
0.000159188
0.000154364
0.000149451
0.000152943
0.0286521
0.000183133
0.0231288
0.000160749
0.00015607
0.000169789
0.000176678
0.00014863
0.000136695
0.00016271
0.000164385
0.000143034
0.000167006
0.000146092
0.000144346
0.000168392
0.000157526
0.0585526
0.000190009
0.00836759
0.000148138
0.000146154
0.000173424
0.000144768
0.000147923
0.000185769
0.000148936
0.000185949
0.000147428
0.000184722
0.000142584
0.000146807
0.000142204
0.000148505
0.000161972
0.000139787
0.00136324
0.000140088
0.000168483
0.000138049
0.000160966
0.00121214
0.000182624
0.000175416
0.000175794
0.000530514
6.53453e-05
6.50075e-05
0.0347826
0.000183893
0.000180684
0.000151471
0.000146315
0.000147907
0.000147877
0.000178645
0.000150177
0.00986983
0.000153473
0.000157819
0.000164598
0.000153588
0.000143368
0.00013781
0.000142446
0.00826762
0.000175018
0.000165302
0.000163485
0.000148815
0.000155599
0.000181914
0.000183609
0.000144717
0.000141507
0.000131111
0.000161671
0.000203315
0.00014354
0.000181572
0.000151921
0.000164931
0.0311418
0.000160649
0.000189068
0.000184036
0.000163965
0.0019542
0.000143501
2.44139e-05
0.00018594
0.0110202
0.000147751
0.000142867
0.000146952
0.00743653
0.000132472
0.00185218
0.000171602
0.000153455
0.000166163
0.000163514
0.0117202
0.00014668
0.000148421
0.000153026
0.000167318
0.000146908
0.000144648
0.0192005
0.000179865
7.55916e-05
0.000165539
0.000147046
0.000154321
0.000498226
0.00396362
0.00014647
0.00014935
0.000207362
0.00752529
0.0001415
0.000146605
0.000148539
0.00014523
0.000143492
0.000154463
0.000153472
0.000196107
0.000148188
0.000147061
0.000178929
0.0588687
0.000146888
0.000144968
0.00774858
0.00919447
0.000149352
0.000141864
7.77752e-05
0.000164732
0.000150771
0.000143427
0.000175291
0.000144704
0.000154739
0.000150498
0.000161129
0.000180202
0.0147824
0.000162196
0.000147069
0.000140173
0.000134647
0.000181909
0.000138497
0.000151677
0.000139953
0.000166349
0.000166315
0.0110204
0.0112898
0.000164996
0.000152624
0.000142215
0.000107416
0.000138451
9.48459e-05
0.000174092
0.000138313
0.000147305
0.000143234
0.000159567
0.000169222
0.000140754
0.000185483
0.000111711
0.000178037
0.000154283
0.000151721
0.000147402
0.000167496
0.00017061
0.000158495
0.000138951
0.000147667
0.000163111
0.000139585
7.78865e-05
0.000140748
0.010645
0.000144294
0.00018611
0.000158206
0.000154291
0.0260164
0.000154392
0.000148267
0.000173557
0.000152613
0.000100746
0.0107811
0.00551863
0.000153331
0.00870955
0.000142115
0.000157986
0.01054
3.82916e-05
0.0208572
0.000142779
0.000168162
0.000149574
0.000141452
0.00014315
0.000151148
0.00016311
0.000158255
0.0592291
0.000169709
0.000203197
0.000182601
0.00017348
0.000143339
0.000157175
0.00017282
0.00264234
0.000153407
0.000135299
0.000156122
0.000137465
0.000164383
0.000138927
0.000138433
0.000149061
0.000194001
0.000143441
0.000158508
0.000146953
0.000134635
0.000150619
0.000180189
0.000160147
0.000153179
0.00752669
0.000174428
0.0001542
0.000151421
0.000167342
0.000609648
0.000137259
0.000151185
0.000159947
1.92138e-05
0.000140827
0.00016416
0.000147447
0.00015829
0.00864227
0.000150461
0.000160866
0.000175922
0.000147257
0.0034026
0.000154676
0.00986895
0.000177761
0.000153678
0.000178869
0.00744717
0.000170493
0.000153236
0.000154031
0.000147635
0.000142781
0.000146157
0.000173074
0.000148734
0.000139468
0.00014133
0.000138325
0.000139929
0.00556222
0.000163987
0.00016084
0.000155096
0.000174549
0.000162657
0.00406688
0.000137767
0.000168815
0.0171127
0.000160152
0.000161096
0.0281605
0.000148953
0.000146455
0.000144813
0.000146393
0.000167823
0.00601258
0.000144722
0.000152121
0.000156452
0.000159341
0.000155723
0.000157852
0.000166133
0.0088824
0.000172149
0.000146016
0.041435
0.000145436
0.000147339
0.000137464
0.000148234
0.000147612
0.000171183
0.000138968
0.000146502
0.000154885
0.000137343
0.000167464
0.000145814
0.00630326
0.00188943
0.0234325
0.000184548
0.000159033
0.000173938
0.0127752
0.000152768
0.000166253
0.000148716
0.000173886
0.0207718
0.000149821
0.000181269
0.0001593
0.000166338
0.000137341
0.000143151
0.000161289
0.000183527
0.000154649
0.000175246
0.00015536
0.00192541
0.000147391
0.00623512
0.000131763
0.00874638
0.000160024
0.00013784
0.000147897
0.000167304
0.033435
0.0107365
0.000154233
0.0187881
0.000152577
0.000176442
0.0244332
0.000156148
0.00015677
0.000137104
0.00016074
0.0462026
0.0218066
0.000142909
0.010221
0.000161742
0.0216388
0.000167979
0.000145069
0.0183375
0.000149241
0.000153494
0.000147975
0.000142662
0.000146162
0.000172155
0.000147192
0.000152558
0.000143842
0.000173488
0.000154004
0.000192311
0.000151101
0.000149627
0.000138292
0.000184329
0.000159661
0.00829538
0.000150285
0.000137608
0.000191527
0.000151266
0.000150769
0.000146326
0.000163243
0.000143804
0.000158769
0.000143386
0.0227767
0.000142977
0.000178891
4.42734e-05
0.00420739
0.000150285
0.000138146
0.000149779
0.0456485
0.0001487
0.000157209
0.0347263
0.000138182
0.00015308
0.000141816
0.0164158
0.000149922
0.0103416
0.000156081
0.000154251
0.000160024
0.000140531
0.0363732
0.000171128
0.0371213
0.00155943
0.0113723
0.0316107
0.000154968
0.000147912
0.000160327
0.00432872
0.000168653
0.0196647
0.000165762
0.0111882
0.000154744
0.000147557
0.0185133
0.000175796
0.0234104
0.00015007
0.000163708
0.0111777
0.000146936
0.000152088
0.000148319
0.000163142
0.000172165
0.000139937
0.000150279
0.000174563
0.0126978
0.000150137
0.000184453
0.014675
0.000170597
0.000146463
0.00018769
0.019182
0.000144763
0.000171327
0.000155963
0.00017965
0.000197473
0.000146483
0.000157558
0.00015558
0.000153934
0.000147404
0.000146524
0.000150762
0.000146476
0.0357011
0.000143154
0.011327
0.000142224
9.53574e-05
0.00015724
0.0112272
0.000153353
0.000145752
0.000169373
0.000123979
0.000181074
0.0211074
0.000185139
0.000198724
0.000160696
0.000173794
0.000138645
0.000150346
0.00815866
0.0103182
0.000140815
0.000157452
0.000135103
0.0234332
0.00017258
0.000137149
0.000143282
0.00016975
0.00014156
0.000148589
0.000137422
0.000140792
0.000164761
0.000147763
0.000165603
0.000176016
0.000152542
0.000166421
0.000161096
0.000145625
0.00482626
0.00708478
0.000148367
0.000137442
0.000150002
0.000136298
0.00015275
0.0391855
0.000146428
0.000223527
0.0144382
0.000140045
0.000135967
0.000147219
0.000151031
0.00935211
0.000319948
0.000139895
0.000132857
0.000154585
0.000151026
0.000170939
0.000147195
0.0056694
0.000143817
0.000147112
0.0117485
0.000157342
0.000147613
0.000132966
0.000158034
0.000133123
0.000952337
0.000186513
0.000147073
0.000146913
0.00763954
0.000375843
0.0233564
0.000151054
0.000146248
0.000165817
0.000178632
0.000144477
0.000208474
0.000133323
0.000150851
0.000155395
0.00014978
5.46978e-05
0.000155303
0.020898
0.000177522
0.000744963
0.000162483
0.000151698
0.0569307
0.000157865
0.000175039
0.000155704
0.000147622
0.000144603
0.000169634
0.0274582
0.000158398
0.000151032
0.000180482
0.000146173
0.000146207
0.00014607
0.000151634
0.0413388
0.00497656
0.000181856
0.000145895
0.000143415
0.0123332
0.000149268
0.000169635
0.000145945
0.000184861
0.000156402
0.0371179
0.000179385
0.00811309
0.000154205
0.000163513
0.00016224
0.000151963
0.000147695
0.0408884
0.00266833
0.000168682
0.00018066
0.000142609
0.000138991
4.56383e-05
0.000140161
0.0307986
5.87857e-05
0.000173537
0.0115549
0.000157814
0.00023145
0.000143616
0.000138147
0.0176238
0.000150283
0.000144915
0.000121906
8.38291e-05
0.000144852
0.000150674
0.000156794
2.60155e-05
0.000151723
0.000160777
0.000166352
0.000146314
0.000184385
0.000157004
0.000162508
0.000158836
0.000145864
0.000161641
4.83503e-05
0.000178459
0.000153592
0.000162988
0.0350391
0.000147862
0.000148755
0.000146912
0.000134391
0.00821577
0.0218492
0.000152464
0.0191302
0.0116394
0.000154488
0.000172083
0.000149237
0.000185113
0.000148509
0.000156939
0.0101045
0.0233253
0.0332103
0.0373107
0.000154495
0.000137208
0.000148913
0.000145931
0.0122509
0.000135692
0.00252932
0.0011265
0.000148195
0.000142839
0.000161671
0.000152955
0.0118699
0.000142904
0.000147129
0.000157695
0.054527
0.000135324
0.00014482
0.000160974
0.000138309
0.00016004
0.000172989
0.000181476
0.000138533
0.000147166
0.000142612
0.0104112
0.000138007
0.000152368
0.000152073
0.000172214
0.044016
0.0001426
0.000136716
0.000155066
0.000167617
0.000206721
0.000166174
0.000153357
0.000142689
0.000146655
0.000137142
0.000151361
0.000182999
0.00740774
0.000137737
0.039621
0.00333289
0.000187206
0.000169132
0.00412179
0.000187537
0.00533205
0.000157219
0.000142599
0.000177714
0.000150739
0.000156723
0.00429764
0.0106486
0.000141338
0.000170674
0.000156796
0.000138375
0.000174541
0.000152835
0.000152486
0.00017819
0.000176351
0.000148894
0.00981122
0.000174898
0.000150997
0.000146781
1.89507e-05
0.000145766
0.00268067
0.00018531
0.000146503
0.00015112
0.000178943
0.000196115
0.000142522
0.000149932
0.00014334
0.000180566
0.000166921
0.000152487
0.0117536
0.000179121
0.000148195
0.000194095
0.011024
0.000160146
0.000153046
0.000145906
0.000161126
0.000107422
0.000155883
0.0148665
0.00520996
0.000168684
0.000161731
0.000185481
0.000177657
8.21936e-05
0.000142322
0.000176028
0.0222919
0.000151449
0.0143311
0.00875102
0.000104016
0.000181526
0.000469405
0.000165355
0.000162246
0.000185496
0.000194886
0.000165004
0.00014588
0.000158001
0.000133526
0.00019122
0.000153842
0.000140004
0.0525847
0.000161226
0.00266469
0.000182112
0.000150855
0.000434568
0.00930736
0.0106726
0.000146354
0.000151949
0.000156178
0.00880076
0.00204237
9.87942e-05
0.000148571
0.000175367
0.000174706
0.00053329
0.000148961
0.0119975
0.000147633
0.00210078
0.000172241
0.0590021
0.00015704
0.000146768
0.000155805
0.00014479
0.000147494
0.000150214
0.00014583
0.000142093
0.000183134
0.000187911
0.000151482
0.000167859
0.000151328
0.00018592
0.000101902
0.000160461
0.000154623
0.0106648
0.000147644
0.000464393
0.000144191
0.000184824
0.000175592
0.0113658
0.00014327
0.00158456
0.0094434
0.000174437
0.00014618
0.000140522
0.000149094
0.000159822
0.000147297
0.000179873
0.000180415
0.00013956
0.00820898
0.000141163
0.0127216
0.00015572
0.000194336
0.0112923
0.000152706
0.000147523
0.00374336
0.000144636
0.000137633
0.000155683
0.000145105
0.000175685
0.00015139
0.000177255
0.000147419
0.000185032
0.0109622
0.000163043
0.000145732
0.000143188
0.000182281
0.000362631
0.000154816
0.000156644
0.00014724
0.000178786
0.000154797
0.0113753
0.0118244
0.000185171
0.000163083
0.00017554
0.000167353
0.000156907
0.0104336
0.000180532
0.000137088
0.0359141
1.93313e-05
0.000164501
0.000144218
0.000176945
0.000156257
0.000168332
0.0208262
0.000187352
0.000151064
0.000144782
0.0113923
0.00869844
0.000159097
0.000174311
0.000158203
0.0111708
0.0174606
0.000143453
0.0113619
0.00016218
0.000157961
0.000154651
0.00119373
0.0127386
0.000145415
0.0514245
0.000148658
6.74808e-05
0.0165699
0.000157789
0.000162586
0.000164856
0.000144012
0.000142298
0.00845359
0.00223623
0.00014887
0.000176003
0.000170083
0.000162177
0.000150058
0.00017741
0.000151529
0.0120287
0.000183149
0.000141926
0.000156982
0.000142824
0.000154983
0.000137473
0.000179606
0.000153875
0.00744243
0.00018298
0.000166345
0.000165842
0.000135997
0.000181187
0.000183597
0.000136348
0.000152074
0.000174702
0.00015741
0.00013833
0.000134409
0.000146922
0.000148192
0.0001702
0.000140837
0.000147659
0.00018527
0.00014342
0.000181929
0.000170922
0.000401193
0.00433355
0.000184662
0.00016707
0.00862875
0.0108446
0.00703021
0.000186547
0.000162189
0.00644308
0.000175805
0.000151509
0.000147392
0.000142456
0.000146854
0.000160057
0.000149838
0.00011162
0.000150754
0.000168463
0.000162125
0.0278603
0.000169569
0.000167375
0.011442
0.000178575
0.000148741
0.000184646
0.00738284
0.000169424
0.000180607
0.000160493
0.000183742
0.000151273
0.0001651
0.000138227
0.000164474
0.000186044
0.000184593
0.000178075
0.000173459
0.000151397
0.000161032
0.000152226
0.000165606
0.000185583
0.000166334
7.91714e-05
0.0107098
0.000143601
0.00017819
0.000166323
0.000170612
0.000131728
0.000146335
0.000173014
0.013207
0.000184428
0.000173052
0.000144943
0.000180528
0.000141596
0.000168348
0.00017895
0.0101077
0.00819083
0.000168531
5.39216e-05
0.0311237
0.000172532
0.000140172
0.000179025
0.000166405
0.000151949
0.00015654
0.00034879
0.0001428
0.000160409
0.0111677
0.00014371
0.000151221
0.000154773
0.0329924
0.000140796
0.000207131
0.000185347
0.000151967
0.000147844