/*--------------------------------*- C++ -*----------------------------------*\
| =========                 |                                                 |
| \\      /  F ield         | OpenFOAM: The Open Source CFD Toolbox           |
|  \\    /   O peration     | Version:  v2012                                 |
|   \\  /    A nd           | Website:  www.openfoam.com                      |
|    \\/     M anipulation  |                                                 |
\*---------------------------------------------------------------------------*/
FoamFile
{
    version     2.0;
    format      ascii;
    class       volScalarField;
    location    "350";
    object      omega;
}
// * * * * * * * * * * * * * * * * * * * * * * * * * * * * * * * * * * * * * //

dimensions      [0 0 -1 0 0 0 0];


internalField   nonuniform List<scalar> 
14315
(
0.0255881
0.105513
0.0220411
0.0229145
0.0234942
0.0214049
0.0208783
0.022449
2.72958
0.0222277
0.0218057
0.0274512
0.0966378
0.0215888
0.0209062
0.0216174
0.0211975
4.47138
0.0208291
0.0216479
0.0288237
0.02169
0.0235054
0.0218387
0.685486
0.0216302
0.0995254
0.0222772
0.10277
0.0202546
0.028606
0.0203537
1.98271
0.0269285
0.0224242
0.0203437
0.0206215
0.0223546
0.0240526
0.0221108
2.494
0.0215668
0.0260164
0.0485827
0.0465226
0.0235411
0.0219089
0.0220994
0.0217654
0.02575
0.0206039
0.0461447
0.0205035
0.0210677
0.020521
0.022317
0.0575799
0.0216785
0.0216187
1.23586
0.0210171
0.0235477
0.0266431
0.0207832
0.0210867
0.0209701
0.0221593
0.0282743
0.0224905
0.0203285
0.0210141
0.020844
0.0208644
0.0219308
0.0210642
0.023314
0.0208473
0.0275066
0.0203199
0.0537878
0.0239956
1.27262
0.0217602
0.0209188
0.0205535
4.4902
0.0465547
0.0209327
0.0209264
0.0211066
0.0336209
5.00243
0.0646385
0.0220416
0.0246159
0.0234457
0.0205446
0.0205707
0.0242123
0.0215564
0.0214662
0.0232753
0.0238239
0.0246128
0.0210135
0.0211766
0.0220777
0.0253765
0.022873
0.0388123
0.0284505
0.0385605
0.0241867
0.0731064
0.0217608
0.0442169
0.0270223
0.0225022
2.60988
1.20923
0.0221232
0.021208
0.020803
0.0331368
0.080395
0.0211718
2.15981
0.0271428
0.0216084
0.0214786
0.0350802
0.971224
1.60319
0.652752
0.0232992
0.0216005
6.91967
0.0695639
0.0932777
2.18387
0.0509316
0.0850044
0.0202636
0.768211
2.04547
0.0218846
0.0239987
0.0216728
0.0323395
0.038002
0.0214618
0.0196135
0.0210208
0.024675
0.0212159
0.0227998
0.0227087
0.023988
0.0499629
0.0519724
0.0236626
0.0216918
1.28577
0.0324218
0.0239127
4.3977
0.0240407
0.0231462
0.0239719
0.0214053
2.62909
5.10013
0.0310755
0.0250852
0.0678186
1.44114
0.02683
0.0211653
0.0394773
0.0585407
1.94379
0.0331308
0.021451
0.0277978
0.0284431
1.26565
0.0288899
0.0287201
0.0218963
0.0325641
0.0226219
1.6739
0.0941486
0.019605
0.020495
0.023145
0.629126
0.0214988
0.0237486
0.0341622
1.70249
0.0214964
0.0215687
0.0218239
0.0229292
0.021229
0.0225413
0.0500176
0.0208174
0.0196412
0.0218163
0.0219857
0.0560567
0.0230976
2.10661
0.0242666
0.0836444
0.021483
0.0214455
0.0247094
0.116685
0.022256
0.145024
1.54603
0.0272958
0.0231775
0.0270393
0.0313549
0.0207856
0.0233806
0.0231608
2.49765
0.0218166
0.0192898
0.0229738
0.0247585
0.046215
0.024974
0.0245813
3.8179
4.56234
0.0283461
0.0209841
1.35774
0.112136
0.0209476
3.97825
0.0210834
0.0207623
0.0211183
0.022692
0.0210115
17.662
0.0206324
0.0225509
2.72757
2.95991
0.0512806
2.4734
0.0217847
0.0285462
0.0231838
0.0241796
10.7531
0.0245163
0.0650345
0.0307839
1.70222
0.0281482
0.0278953
0.0539422
0.0216386
0.0231541
0.0209878
0.0248944
0.0209864
0.0739929
0.0196034
0.0230724
0.0278043
0.0210432
0.0327693
0.0217987
0.0274085
0.0233703
3.03117
0.348619
0.0245939
0.0205707
0.0210601
0.060293
0.0215029
0.0245374
0.0789762
0.0202475
0.021709
0.0209096
3.95955
0.0215084
0.637009
0.034784
0.0215669
0.0216
0.0264635
0.0229673
0.021041
0.0248966
0.0344696
0.0244023
0.0268158
0.0202073
0.0202154
0.0297174
0.0367055
0.0282066
2.82311
1.16365
0.028461
0.0244953
3.50668
0.0218286
0.0215429
0.0265676
0.0214943
0.0211053
0.0249659
0.0886597
0.0210763
0.652605
0.0208869
3.23939
0.121729
7.19284
0.150854
2.1598
0.0224274
0.0163275
0.0234946
0.0403607
0.0229785
0.0276332
1.89139
4.80726
0.0228382
0.022073
3.80696
1.30785
2.69815
0.0205944
0.0229764
1.41874
0.157384
0.0220686
0.0206284
0.027181
0.0501773
0.02816
0.065655
2.45309
0.0210729
0.0274234
1.25185
0.0203519
0.0210223
0.0203456
0.0245495
0.0360434
0.0243146
0.0252914
0.0210741
0.0897566
4.08566
0.027182
3.08008
0.0249774
0.0215759
0.0360591
2.67412
0.028294
0.0213585
0.0309373
0.0218038
0.0787998
0.0248479
0.0206292
0.0389277
0.0138055
0.0245733
1.90411
0.0491125
0.171237
0.0296876
0.0208268
0.0244613
0.0235832
0.025171
0.0225905
0.0248303
0.0235684
0.0298798
0.0208632
0.0211642
0.0638772
0.0233751
2.11906
0.149362
3.43476
0.037864
0.0364614
0.027947
0.0202989
0.0216066
0.0207855
4.21071
0.0309994
0.0291723
0.0310446
0.0418001
0.0245003
0.699368
0.0160236
2.28839
0.056281
0.0215697
0.0197248
0.0293024
0.0352109
0.0220384
0.00988121
0.152661
0.14504
0.0230251
0.0211684
0.062347
0.0256184
0.0203072
2.56307
0.0634377
0.0339632
0.0214135
0.0720325
0.0202432
0.0214954
0.120419
0.0844705
0.0595569
0.0202506
0.020238
0.021912
0.0212616
0.0244018
0.0211612
1.18695
0.653684
0.020248
3.62226
0.0196056
0.0282344
0.0252504
0.0306635
0.686707
0.0245913
0.0509426
2.63031
0.0711046
0.0196339
6.66411
1.51025
0.0302485
0.0215783
0.0574738
0.0297039
0.021838
0.0231022
0.0209532
0.0252853
0.0506735
0.651686
0.0219934
0.021639
0.0226304
0.0234906
1.1638
0.0273027
0.0231518
0.712524
0.0613892
0.021875
0.10649
0.0248255
1.64186
0.0257251
0.0212381
0.0283547
0.102193
0.0374502
0.0736404
0.0223267
0.0246786
0.0251902
3.84425
0.0210453
3.02418
0.0218237
0.074288
0.0209445
0.0197065
0.0236893
0.0248951
0.0207847
0.0605079
0.0224009
0.0233262
1.07404
0.0216252
0.0355266
0.0295064
0.0704746
0.0220178
0.0239469
0.0226814
0.237296
0.0249408
6.97065
3.11145
0.0277846
0.0268132
0.0448507
3.26169
0.0278662
0.026507
0.00806791
0.0215624
0.0205976
0.0217577
0.0218729
0.0251406
0.0202153
15.7402
0.0202238
0.0234392
3.28608
1.28345
0.0209328
0.0216926
0.020872
0.0222383
0.0214092
2.97835
0.0217651
0.0216856
0.0212752
0.0244327
0.0210651
0.0517612
0.0228709
0.0215395
0.0271476
0.0219502
0.0216338
0.0225636
0.0334048
0.0332317
0.439004
0.17423
0.0212869
0.0227196
0.0284996
1.51247
0.0292755
0.021076
0.0256123
0.030086
0.0211892
0.100351
0.0294261
0.0266764
0.0215799
0.0725364
3.38483
0.0237788
0.147252
0.0522798
0.022821
0.0224514
5.58248
0.0202316
0.00616004
0.0210408
0.629892
0.0206865
0.0215121
0.0455425
1.12187
2.9689
2.16441
0.0247538
0.0211236
2.66788
0.0283225
2.63288
0.0214943
0.0243821
0.0219392
0.0203337
0.0227496
0.0215144
0.0295077
0.0215519
0.0218754
0.0479519
0.0217934
0.0251079
0.0208679
0.0210192
0.0218187
0.0237061
2.99108
0.0308945
0.0216894
2.59745
0.0216983
0.112293
20.4707
0.0243661
0.0214283
0.0217117
0.113737
0.0277745
0.0238798
1.26779
0.0783182
0.0226186
4.05022
0.0210692
0.030951
0.0237367
0.0937516
0.0245578
0.0202004
0.0449757
0.0214152
0.0265158
0.0264464
0.0498385
0.0693389
0.0248095
0.0218356
0.0252518
0.0250233
0.00553467
0.0244261
4.27636
0.0210156
0.0453722
0.0196586
1.6934
0.0241452
0.0464869
0.0212333
1.63726
0.0210784
0.0275888
5.34449
0.0251438
0.0207432
4.50496
0.071102
0.0210604
0.0215752
0.05399
0.239901
1.42797
0.0212881
0.261816
0.0219957
0.0360931
0.0229225
1.69559
0.02021
0.0218363
0.0219718
0.02339
0.028632
0.405328
1.15952
0.0226442
0.0218445
0.0219964
0.021825
0.0196938
3.57732
0.0225942
0.0272367
0.0222386
0.0207354
0.0221351
1.88391
0.0588495
0.082396
0.0207545
0.0225815
0.0212211
0.0228169
0.0221865
0.0647636
0.0196804
0.021542
1.98511
0.164577
0.0147618
0.021484
0.0207885
3.82739
0.0620269
0.0215409
1.13973
0.0225804
0.0232173
0.0478704
0.0219597
0.0215929
4.0573
0.165327
0.0251896
0.0278767
0.024732
0.0238845
0.0448145
15.0345
0.0211182
0.0482402
0.131882
0.0572672
0.05648
11.4287
3.1737
0.0211804
0.0247874
0.0408927
0.0277495
0.0214514
0.0196693
0.0357682
6.00995
0.021763
0.0230289
0.0339011
1.50908
0.0210832
0.0345038
0.0167604
0.0327334
0.0250175
0.0226052
4.86537
0.119457
0.0897125
0.023549
0.0205658
3.39641
0.247801
2.00434
0.0266816
0.0350809
3.00267
0.0202578
0.0212178
0.0555823
0.497857
0.0226902
0.0202445
0.0778987
0.0202125
0.021061
0.0208892
3.12316
0.0202243
0.0224799
3.80645
0.021645
0.108611
0.0206045
0.0240763
0.021475
0.0202289
1.03308
2.78804
0.0218315
0.021418
0.0214741
0.110363
0.021215
0.0210651
0.0272253
0.014935
2.81828
0.0202217
0.0303879
0.021169
0.0206462
0.0398724
0.00527732
0.213173
0.0482283
0.0207394
0.0210838
0.0207498
0.00811619
0.0214324
0.0337078
0.0224313
0.145624
2.45681
0.0216606
0.0250465
0.249018
0.0263187
0.0206577
0.0311038
0.0465803
13.607
0.0226811
0.0267207
0.0233734
0.988812
0.0285919
0.0227603
0.040553
0.0244119
0.0249004
0.0252712
0.0229133
0.0282418
0.115408
0.14945
0.0232135
0.0216172
2.282
0.0413768
0.0236155
2.88817
0.0652353
0.0234277
0.0202325
0.0318555
0.0237472
0.139604
0.0214955
0.0207391
0.0247293
0.0212029
0.0539767
0.0295911
0.0231338
0.0222085
0.250255
0.0217364
3.03744
0.0215527
0.0267651
0.0207427
0.0219561
0.0420768
0.0224774
0.0269837
0.0242121
0.0479106
1.75661
0.0194093
0.024627
0.0234006
0.0301706
25.7595
0.0217004
0.0247986
0.0208823
0.0214893
0.142985
0.690274
0.0347635
0.0818129
0.020717
1.84875
1.391
0.0940056
0.0489298
0.021159
7.7293
0.0299394
0.0211704
0.0210677
0.0234927
0.0235841
1.22082
0.021931
0.0235989
0.0216733
0.0277941
0.0344466
0.00685443
0.0848085
0.0237647
3.20041
0.0225437
3.8337
0.0206984
0.0707364
0.0230089
0.0210521
0.0348222
0.0233106
0.065174
0.020549
0.0220897
0.0305518
0.0207397
0.0204611
0.78613
0.0235181
0.0208321
0.0204747
0.023061
0.0209905
0.0366987
0.0214155
0.109931
0.0208354
0.0209604
0.0205689
0.0371328
0.0329962
0.02124
0.0534435
0.163963
0.0237472
1.71945
0.0214768
0.237233
0.023104
0.0212038
0.022867
0.023966
0.13569
0.00733417
1.18399
2.8536
3.53272
0.025117
0.0334796
0.0220645
1.56224
0.734022
0.0208324
0.0218036
8.56755
0.0246875
0.020255
4.49212
0.0357096
0.138253
0.0211857
0.230089
0.0387264
0.0404019
0.0213901
0.0062307
0.0204994
0.0212524
0.0252735
0.0494925
0.0266743
0.0202245
0.0208347
5.10624
0.024376
0.0196228
0.0225062
0.0238808
0.024076
0.020238
0.0235076
0.70991
0.0892328
0.0894806
0.0210755
0.0225991
0.0226543
1.01779
0.0227295
0.0213613
0.0276565
0.0225281
0.0294604
0.681891
0.0216329
0.0212178
0.0238643
0.0196346
0.141498
0.0228443
0.0272974
0.0240357
0.247327
0.0227437
0.0327038
0.0864122
0.0208374
0.0274479
0.0389349
0.0717886
0.0412981
0.0209209
0.0577255
0.0245018
0.0235314
0.0237208
0.0218794
0.0299203
0.0760662
0.0408722
5.72915
0.0270339
0.0207479
2.99419
0.021247
0.0219595
0.0206743
0.0459698
0.0226264
0.0208268
0.0230383
0.0208071
0.824489
0.020239
0.0214846
0.290883
0.0270122
0.0203381
0.0209397
0.0509368
0.0370845
0.0254921
0.0207277
0.0219101
0.0262122
11.4148
0.0380731
0.140952
0.0300553
0.026457
0.264587
0.0225794
0.0213998
0.0285233
0.0211783
0.0238496
0.0219791
0.022473
0.0245219
0.0223318
0.031512
0.0238481
4.05442
0.0822346
2.91933
0.0219359
0.0618135
0.023507
0.022852
0.0583932
2.95259
3.53568
0.0231045
0.0226016
0.0659802
0.0293317
0.0428894
0.0209424
0.0214854
0.0214916
0.0225173
0.0230437
0.0217066
0.572112
1.47895
0.0459168
0.0257759
0.0217898
0.0369948
0.0210962
0.0210935
0.0284166
0.0104816
1.73379
0.022763
3.1708
0.0339506
0.0214314
1.88616
0.0712545
0.0332924
0.023039
0.0475499
0.0206065
0.0216335
0.0470782
0.0213605
0.0205988
3.7115
0.0519721
0.0355617
0.0222486
0.00721113
0.00979121
0.0223554
0.0214918
0.360253
0.00766481
0.0207148
0.0238813
0.0215146
2.98994
0.0241868
0.0199292
2.92535
5.11978
0.025072
0.021916
0.0325655
0.0289752
0.0348699
2.74233
0.0214998
0.0213554
0.0210504
0.108045
0.0221998
5.41103
0.131327
0.0205725
0.0216188
0.0823878
0.0205326
0.0205539
2.84916
0.0199333
0.0242115
0.024831
7.18949
0.0206502
0.258179
0.0208941
0.0209794
0.0209821
6.2313
0.0642769
0.0214712
0.0211956
2.95456
0.0456288
0.0214377
0.035661
0.00862957
0.0253843
0.106029
0.0237005
0.0212581
0.0205481
3.35551
0.0227571
0.0205799
0.0210901
0.0222131
0.0204509
0.021062
0.0246134
0.0217503
0.0221207
0.0249518
0.0227611
0.0736423
0.0215893
0.0254598
0.0285749
0.0304122
0.0244457
0.0217974
0.0216595
0.0243144
2.28477
0.0207812
0.0345717
2.23777
0.0276107
0.0907616
0.0198716
3.05155
0.0218309
0.0240585
0.0327062
0.160105
0.0220278
0.03679
0.0217904
0.0296467
0.0249118
0.0408409
1.19509
0.656288
0.0423804
0.03863
0.0205728
0.0211375
0.0228009
0.0230599
0.151446
0.0229459
2.03326
0.0242206
3.38097
0.021193
0.0207569
0.027003
0.0269943
0.0214875
0.0209717
0.0222842
0.0214394
0.0211396
0.108274
0.0777063
0.0241806
0.0217339
0.0217564
1.9295
0.0116746
0.0319768
0.0214165
2.4917
0.0223816
0.0213928
0.0224141
0.0210735
0.0215705
0.0938861
0.020931
0.0217867
0.0236165
0.0210805
0.114838
0.0206275
3.13992
2.98264
0.0216483
0.0210088
0.0212106
0.0236265
0.0251343
0.0273221
0.0198276
0.0204868
0.0243361
1.32685
0.0219602
6.68053
0.0217212
0.0219194
5.44084
0.00395227
0.0240375
0.0196132
2.44606
0.0336045
0.0271928
2.93402
0.0171121
0.0209153
1.27525
0.0388896
0.0208413
0.0215401
2.85672
0.0214431
0.020917
0.0422382
1.82539
0.0552146
0.0267013
0.0225145
0.0199802
0.0251106
0.0217213
0.0236462
0.040286
0.033433
0.0218891
0.0396616
0.0288295
0.0169784
0.124905
0.0218633
0.239938
0.0269193
3.03564
0.124514
2.71471
0.0214517
0.0235628
0.0287915
0.0228319
0.0209604
0.0213917
3.3357
0.0568417
0.0523879
0.0214297
0.0217504
0.0731557
3.27389
0.0258549
0.0238125
0.0218363
0.0224093
3.13842
0.0506844
0.0223667
3.05714
3.30647
0.0216838
0.0213864
0.0270484
0.0206205
0.0200112
0.0541014
0.0314885
2.35724
0.020473
0.0210626
0.0228381
0.0211578
0.0204625
0.0212577
0.0354021
0.115725
0.0291845
0.00812838
0.0209212
2.07716
0.275818
0.0517097
0.307931
0.0138145
0.0211441
0.0230125
0.157188
0.0196637
0.0317905
0.0244313
0.0214717
0.0290981
0.0204906
0.0210904
0.0208425
0.0236102
0.0214894
0.129954
0.0288775
0.0204564
3.32711
0.0214598
0.0236008
0.465926
0.0257655
0.0205288
0.135827
0.0126867
0.0208981
1.69691
0.505941
0.00536523
0.0597273
0.0228221
0.042891
0.0420643
0.0584381
0.059388
0.0237456
0.131198
0.0265861
0.021115
0.0216774
0.0368011
0.028568
0.0218979
0.020534
0.0205121
0.0245666
0.0242329
0.0394765
0.0227703
0.0205057
0.0336517
0.0236063
0.0214968
0.0542072
0.165141
0.0223594
0.0291202
0.022918
0.0224709
0.0233631
0.0228688
0.0226165
0.0210681
0.116498
0.021053
0.0264185
0.0265759
2.48618
0.057898
6.95227
0.0204455
0.0705719
0.0251647
0.021482
0.132053
0.0209251
0.00995416
0.020849
0.0343186
0.0218024
0.0210898
0.021804
0.0321518
0.0229402
2.4408
0.0215983
0.0447818
0.0198494
0.0245764
3.14603
0.165526
0.651859
0.022697
0.0615159
0.121353
0.0213622
0.0257675
0.0233096
0.0219667
0.0227887
3.58018
0.113817
1.9399
0.0269218
0.0237737
0.0331397
0.0509573
0.0218272
0.0201044
0.0277981
0.0291051
0.0211843
0.0255972
0.0214845
0.0214243
0.0316088
0.0242763
2.48764
0.11405
2.8186
0.0216762
0.0214498
0.0380295
0.0214789
0.0216243
0.0913803
0.0217927
0.0908842
0.0216311
0.142309
0.0211885
0.0214872
0.0208495
0.0218023
0.0267285
0.0207475
0.300268
0.0208444
0.0315909
0.0204511
0.0264353
1.61643
0.0705133
0.0403102
0.040825
1.04579
0.00172825
0.00345211
3.18691
0.0832074
0.0628941
0.0224261
0.0217077
0.0216882
0.0216273
0.0556784
0.0221397
0.338978
0.0228656
0.0234444
0.0263494
0.0231579
0.021311
0.0204313
0.0208814
0.757521
0.0461673
0.0264717
0.0277284
0.0218601
0.0234646
0.0672821
0.0915815
0.0214769
0.0210286
0.0195973
0.027118
0.151155
0.0216141
0.077093
0.0226204
0.0292865
1.06554
0.0260181
0.115822
0.0737931
0.0280935
0.308074
0.021034
0.0140278
0.108315
2.97896
0.0216686
0.0210445
0.0214887
3.0367
0.019858
1.46636
0.0381206
0.023455
0.0301652
0.0297393
3.11196
0.0215631
0.0217992
0.0230287
0.0353527
0.0215573
0.0213819
0.596218
0.060066
0.0113528
0.0313597
0.0215167
0.0237502
0.125407
2.05446
0.0215491
0.0219125
0.144672
2.63417
0.0208285
0.0219816
0.0221622
0.0214556
0.0212746
0.0231629
0.0232295
0.183595
0.0217801
0.0216514
0.0601846
2.66386
0.0214916
0.021477
15.2802
5.94657
0.0219599
0.0208066
0.00890184
0.0252176
0.0221779
0.0212828
0.0464681
0.0213986
0.106586
0.0221181
0.0240091
0.0722795
3.64797
0.13652
0.0215155
0.0207368
0.0198973
0.0902292
0.0205788
0.0233703
0.0208313
0.0333791
0.0334432
3.58389
2.95453
0.0300566
0.0228406
0.0209529
0.00736902
0.0205983
0.0283036
0.0439542
0.0202665
0.0215465
0.0212942
0.0264123
0.0350403
0.0209285
0.072918
0.0223932
0.0536664
0.023369
0.0237735
0.0216528
0.0269496
0.0366904
0.0251612
0.0205466
0.0215886
0.0273991
0.0207966
0.0298965
0.0209363
2.95462
0.0214222
0.0962864
0.0246888
0.0233495
1.12067
0.0232188
0.0236946
0.0471207
0.0227592
0.188112
3.03294
0.497807
0.0228327
5.09605
0.0211369
0.0245209
1.9954
0.0715902
3.3102
0.0212255
0.0319095
0.0219945
0.0210269
0.0215399
0.0222281
0.0275182
0.025367
2.66044
0.0365942
0.115609
0.0735665
0.0490096
0.0211551
0.024818
0.0391412
0.438276
0.0229846
0.0199559
0.0239514
0.0204299
0.0297475
0.0204556
0.0205817
0.0219649
0.143908
0.0230311
0.0251551
0.0220238
0.0199011
0.0221346
0.070721
0.0256918
0.0230078
2.88524
0.0498732
0.0232446
0.0223821
0.0303522
0.150113
0.0204064
0.0478454
0.0267142
0.0465774
0.0209313
0.026185
0.021559
0.0250625
6.46412
0.0221857
0.0269614
0.0458551
0.0215449
0.397535
0.0236423
3.09551
0.0542283
0.0230747
0.0654256
16.9802
0.0392637
0.0230018
0.024845
0.0215867
0.0212326
0.0213788
0.0435724
0.0224554
0.0205161
0.0209617
0.0203915
0.0208109
0.639095
0.0298706
0.0269082
0.0234099
0.0388376
0.0286837
2.52104
0.0202035
0.0343638
5.80778
0.0255977
0.0273178
2.10267
0.0218797
0.0215521
0.0213958
0.0223573
0.0334701
2.69466
0.0214843
0.0225656
0.0240572
0.0259532
0.0240543
0.025915
0.0295414
0.304993
0.0387558
0.0215594
1.55856
0.0222048
0.0216606
0.0203929
0.0216765
0.0216925
0.126127
0.0205516
0.0214236
0.0236759
0.020382
0.0239532
0.0214651
2.80846
0.445077
1.13022
0.092062
0.0253587
0.0505412
3.33893
0.0228097
0.0337036
0.0218312
0.0385882
2.35417
0.021962
0.0649333
0.0272928
0.030782
0.0204675
0.0210678
0.0266608
0.0871446
0.0232586
0.0442252
0.023613
0.33995
0.0216536
2.44173
0.0196423
3.06182
0.0256935
0.0202508
0.0224989
0.0319481
5.59864
3.80944
0.0233167
12.2255
0.0228481
0.0498452
7.39358
0.0240467
0.0243355
0.0201742
0.0257833
4.95996
11.0795
0.0210133
3.79659
0.0226246
11.5819
0.0342196
0.0214462
11.8986
0.0218935
0.0229031
0.0216519
0.0212097
0.0215766
0.0396586
0.0215221
0.0226911
0.0210702
0.0425609
0.0232324
0.16775
0.0222903
0.0219371
0.0203368
0.0596802
0.0248867
4.74429
0.0220398
0.0204984
0.130793
0.022321
0.0221412
0.0215827
0.0282537
0.021373
0.0250168
0.0212831
1.22882
0.0212609
0.0509637
0.134946
2.39059
0.022148
0.0204632
0.0219552
2.55467
0.0217533
0.0244246
1.42416
0.020481
0.0229851
0.0210829
10.7777
0.0220088
3.06782
0.0238967
0.0233022
0.0254286
0.0206505
4.18463
0.0385648
1.20638
0.209975
2.97865
1.02634
0.023583
0.0216229
0.0262032
2.29226
0.0319299
9.43636
0.0302126
2.9326
0.0234295
0.0215692
1.17475
0.0403931
2.01548
0.021998
0.0290788
2.97784
0.0215686
0.0225175
0.0235252
0.028366
0.0391153
0.0207218
0.0220357
0.0514947
3.28637
0.0220445
0.0621903
1.57755
0.0376342
0.0214651
0.123444
11.157
0.0214852
0.0275911
0.02418
0.0801179
0.135691
0.0214843
0.0246973
0.0236123
0.0219135
0.0216328
0.0214605
0.0223415
0.0215183
5.39392
0.0212853
2.97355
0.0210351
0.0806881
0.0248263
3.3081
0.0230698
0.0214584
0.0342124
0.0850972
0.0531071
2.08256
0.0817204
0.153412
0.025984
0.0496683
0.0206064
0.022055
5.45027
2.94672
0.0209386
0.024341
0.0198913
1.34406
0.0360601
0.0201917
0.0212241
0.03305
0.0210153
0.0218048
0.0204214
0.0214759
0.0304471
0.0216389
0.032828
0.0511444
0.0227332
0.0317805
0.0270645
0.0213121
1.88939
13.1185
0.0217054
0.0202045
0.0219857
0.0200475
0.0227058
4.92155
0.0214188
0.076316
9.20886
0.0208464
0.020014
0.021618
0.022484
2.67031
0.116619
0.0205159
0.0197954
0.0233802
0.0222765
0.0401569
0.0215727
1.97954
0.0211056
0.0215178
3.64768
0.0243702
0.0215786
0.0198192
0.0254204
0.0197996
0.165826
0.0722543
0.0215028
0.0214879
11.6493
0.944312
1.23852
0.0222534
0.0213888
0.0305346
0.0650731
0.0230513
0.164409
0.0198116
0.0223517
0.0234771
0.0219425
0.0194513
0.0239696
3.19061
0.0498226
0.564517
0.0287724
0.022373
3.39964
0.0252728
0.0465956
0.0227961
0.0215957
0.0213655
0.0377667
1.30736
0.0242371
0.0223835
0.0694484
0.0215732
0.0214425
0.0214148
0.022445
1.4967
2.59192
0.089431
0.0215677
0.0212705
3.18932
0.0218693
0.0327622
0.0213492
0.102372
0.0245513
6.32758
0.0756517
0.32482
0.0234051
0.0281161
0.0272089
0.0226854
0.0216161
2.55647
2.00918
0.033307
0.0777922
0.0209881
0.020643
0.47354
0.0205841
7.46935
0.0169078
0.0448473
15.3845
0.024659
0.14725
0.0213064
0.0204663
1.78102
0.0221079
0.0212704
0.0192664
0.606759
0.0214652
0.0221232
0.0246256
0.504436
0.0225531
0.348761
0.0333005
0.0213996
0.0859939
0.0244495
0.0278066
0.0260521
0.0215501
0.0274899
0.0128296
0.0632553
0.0230533
0.0277305
2.57721
0.02167
0.0218052
0.021479
0.0100276
3.12298
1.60074
0.0227711
0.705434
3.10205
0.0233357
0.0279268
0.021922
0.0733889
0.0217175
0.0175114
3.01316
1.67497
5.36444
5.59191
0.0234144
0.0202081
0.021867
0.0213503
3.20457
0.0200809
1.80944
1.40048
0.0216656
0.0212389
0.0268262
0.0229144
3.10551
0.0213864
0.0215177
0.0244591
2.02981
0.0199534
0.0219402
0.0271185
0.0203215
0.0255704
0.0440925
0.0587759
0.0206248
0.0216485
0.0212097
3.63327
0.0204741
0.0226982
0.0226702
0.0430809
2.4625
0.0214086
0.0201433
0.0233544
0.0356052
0.192096
0.0293876
0.0234677
0.0425707
0.0214465
0.0204001
0.0223807
0.0920128
3.58951
0.0202923
5.95932
1.70531
0.124908
0.0257552
2.43496
0.106971
2.72281
0.0243961
0.0211662
0.0452976
0.0222108
0.0240015
2.53617
3.1815
0.0210162
0.038038
0.0240102
0.0202918
0.027663
0.0228826
0.0227685
0.0542327
0.0421847
0.0165595
3.52897
0.0393442
0.0222192
0.0214614
0.45155
0.0215251
1.54946
0.0786781
0.0214926
0.0223357
0.0566085
0.139016
0.0210731
0.0220014
0.0212987
0.0731092
0.0285718
0.0226151
13.6343
0.0724039
0.0216813
0.131315
3.0872
0.0264794
0.0224963
0.0214813
0.0260832
0.00634336
0.0240562
1.8808
0.469892
0.0366508
0.0266106
0.118586
0.0555767
0.00387814
0.020954
0.0575508
1.44849
0.0224821
4.70472
2.9117
0.0740623
0.0638073
0.15443
0.0327171
0.0267223
0.0768568
0.103749
0.0287709
0.0216381
0.0252041
0.019812
0.101499
0.0231391
0.0208327
2.71961
0.0265298
1.53568
0.0602833
0.0223688
0.142087
2.73215
3.46309
0.0214785
0.0224399
0.0237887
2.85352
1.38383
0.00491876
0.0217702
0.044866
0.0476755
1.07756
0.021872
3.11736
0.0218898
1.36481
0.0424069
2.50049
0.0248982
0.0215998
0.0236552
0.0214624
0.0218864
0.022121
0.0214557
0.0209955
0.0780634
0.129693
0.0223173
0.0343258
0.0223954
0.0898322
0.0467719
0.0258865
0.0234571
2.94155
0.0173887
0.354522
0.0213982
0.0862076
0.050238
3.12167
0.0212716
1.1942
2.8705
0.0511012
0.0214473
0.0206542
0.0218918
0.0252827
0.0218043
0.0565558
0.0736178
0.0205315
2.5403
0.0209954
3.53258
0.0241622
0.130165
3.07099
0.0229417
0.0216649
0.334836
0.0214751
0.0206278
0.0241725
0.0214032
0.0564337
0.0223874
0.0610175
0.0215551
0.0979136
3.16944
0.0279557
0.0214705
0.0212191
0.0659187
0.595632
0.0232951
0.0241539
0.0215301
0.0669403
0.0234689
3.35656
3.14862
0.0694238
0.0268893
0.0517642
0.0347155
0.0240997
2.57558
0.0623662
0.0204041
6.40909
0.0427697
0.0296388
0.0213859
0.0569718
0.023983
0.0360782
1.91809
0.12733
0.0224083
0.0213807
3.27902
3.05777
0.080335
0.0479899
0.024845
3.03734
4.94514
0.0212671
3.4546
0.0255397
0.0244554
0.0235738
1.03589
3.34404
0.0214842
3.23472
0.0217445
0.0430604
9.87261
0.0250221
0.0258301
0.0294933
0.0213587
0.0211656
5.20234
1.46769
0.0218491
0.0534509
0.0273563
0.0275146
0.0220846
0.0589531
0.0226196
3.60718
0.0806254
0.0211056
0.0246863
0.0212312
0.0233772
0.0202026
0.0547866
0.023291
2.77242
0.077545
0.0294612
0.0293604
0.0200947
0.0680582
0.0892931
0.0200568
0.0225798
0.0491786
0.0245058
0.0203453
0.0108373
0.0218335
0.0217019
0.0363745
0.0209118
0.0216147
0.0834153
0.0211511
0.0634774
0.0399348
0.442789
2.55841
0.0733408
0.0331918
2.967
3.05852
2.2792
0.0969131
0.0269
2.18649
0.0675562
0.022405
0.021551
0.0211867
0.0215308
0.0245972
0.0220422
0.00827075
0.0221886
0.0373242
0.0263743
1.66571
0.0394342
0.0355751
3.2075
0.0550237
0.0218223
0.079008
6.96015
0.0301888
0.0699469
0.025684
0.0815774
0.0224777
0.0279855
0.0205578
0.0292353
0.117341
0.0736416
0.0629089
0.045707
0.0223177
0.0277195
0.0227049
0.0431803
0.0763199
0.0339483
0.29436
3.1039
0.0213452
0.0630456
0.0301432
0.0370769
0.0117077
0.0215251
0.0455012
3.4871
0.0678164
0.0445917
0.0217566
0.0610991
0.0207698
0.0351819
0.0536256
2.0831
6.31955
0.0232819
0.00651165
4.69277
0.0409298
0.0207474
0.0644512
0.0337661
0.0225429
0.024958
0.116602
0.0211016
0.0271345
2.94552
0.0213177
0.0223312
0.0232937
2.6476
0.0208914
0.124551
0.0817539
0.0233102
0.0216909
0.0779506
0.0211571
0.0635644
0.0649455
1.69043
0.0226183
0.0304155
3.3637
0.0451625
0.0478907
0.0220069
0.0204091
0.105296
2.39025
0.109863
0.0204089
0.304947
0.0574357
0.020885
0.0220716
0.0377602
0.0245245
3.71623
0.331643
0.0214612
0.0364618
0.0212772
0.0216695
0.0417221
0.0212734
0.0236444
2.44541
1.58354
0.0700288
0.023874
0.033893
0.00504615
0.0214416
3.19233
0.033352
0.0743445
3.34442
0.0798469
0.0219709
0.0255117
0.0216673
0.0319709
0.0218022
0.126849
2.94258
0.158108
1.77197
0.0223241
2.77021
0.0236595
0.0890189
0.0212583
0.0222658
0.0235939
0.240581
0.0309512
0.0222504
0.0230023
0.020755
0.0229065
0.0689367
0.0745968
0.0337434
3.22844
0.0215497
0.0235258
0.0454281
0.0214708
0.025617
3.94648
0.303069
1.13907
2.95309
0.0204203
0.0310284
0.0209298
3.22553
0.0445031
0.0348648
3.34018
4.43807
0.021614
3.22109
0.0204953
2.62768
2.87259
0.022883
1.31389
0.0204986
0.0212459
0.0224519
0.0502515
0.0217343
0.0206818
0.0435322
0.0199409
0.042676
3.36296
0.0216552
0.0553965
0.0245869
0.021566
0.020145
0.019926
0.0210601
0.0203672
0.0202499
0.321554
0.0423467
0.0215925
0.0210496
0.0414198
1.33548
0.0222301
2.66414
0.0212547
0.0491406
0.0216498
0.0344646
0.0325338
0.0204411
0.025421
0.0430208
0.0205313
0.0518509
3.30959
3.43181
0.046254
2.50419
0.0217992
0.0216728
3.51369
0.164243
0.037504
0.0226023
0.0246554
0.0218222
0.0314298
0.0435927
0.0215412
0.0712271
2.02766
0.0324525
0.00541146
0.0217477
2.88516
0.0870153
0.0222162
0.044945
0.0247561
3.43511
0.0231173
4.73019
0.0281902
0.0342664
0.0214915
0.0244277
3.45348
5.24286
0.0216398
0.0223449
0.0309706
1.19832
2.87185
3.00663
0.0669918
0.0491452
0.0214889
0.0274354
0.0270673
0.0260555
0.25981
0.0241643
0.0286047
3.48742
0.026522
0.0330828
0.0217269
0.0349106
1.20629
0.0653461
0.0490744
0.0214904
0.0257473
0.0246571
0.0215558
0.0595452
0.0397057
0.0415938
0.0474714
0.021489
0.070682
0.0407373
0.0212889
0.0323193
0.0198049
0.0482282
0.0564133
0.123853
0.0214747
0.132865
2.17193
0.0358281
0.0249323
0.034483
1.76956
0.124976
0.0443505
0.0701609
0.0214051
0.0516614
0.0259393
17.9066
0.021571
0.0197967
0.0282742
0.0273399
0.0215137
0.0215027
0.0217743
0.0241238
0.269894
0.152631
0.0433085
0.0216955
0.10086
3.14612
0.0211107
0.0231822
0.0214592
0.0246222
0.0219744
0.0224246
0.0696945
1.47708
0.021128
0.115439
0.030748
0.055549
0.012545
0.0304239
0.0331254
0.0214699
0.0224509
0.0244128
1.35337
0.0327233
0.0313775
0.0731644
0.0227582
0.0243147
0.0362338
0.130968
0.0305138
0.0233755
2.83783
0.0201996
0.0345815
3.72102
1.42477
0.159822
0.0330242
0.0322981
0.021502
0.0212398
0.0259332
0.0214965
0.0214612
0.0868363
2.03145
0.0215428
0.027966
0.021352
0.0226188
0.0248962
0.0216595
0.0213187
0.0243225
0.023202
0.0216052
0.767097
0.0216635
0.0263596
0.0210319
0.0214226
0.186094
0.0211374
0.1655
0.0206882
0.157708
0.0201748
0.0229069
0.0115174
0.116321
0.0215834
0.0241708
0.0214518
0.0232734
0.0223464
0.0825401
0.0219228
0.0205347
0.0489853
0.0223384
0.0324286
2.73697
3.14342
1.81847
0.0267255
0.287118
0.0230409
0.0372691
0.032677
0.0382251
0.0266081
0.0226618
0.0427213
0.0218279
0.0216549
0.0215058
0.0804243
0.0225978
0.022507
0.0225037
0.0214862
0.047779
0.0225931
0.0221407
0.0223592
0.0735125
0.0230906
8.64525
0.125459
0.0212454
0.0218606
0.0247391
0.0218084
0.0244722
0.0239405
0.022682
0.0209888
0.021637
0.0318541
0.0210156
0.0433475
0.0222663
0.0217027
0.0222193
0.162837
0.0217061
2.189
3.33605
0.060887
0.0275305
0.0219098
0.0358906
0.0226833
0.0259695
0.0222398
0.0404524
1.40922
0.108697
0.0198183
2.96229
0.0317994
0.0490488
0.0205163
0.0695294
0.0390388
0.021363
0.0234142
0.0140618
0.0231042
0.0201159
3.81246
0.0223329
1.61184
2.42401
3.26394
0.0216435
0.0223052
0.0223997
0.0208955
0.0217681
2.40856
0.0679376
0.0362998
0.0235293
0.200406
3.61513
0.0220746
0.0209439
0.0220905
0.0198071
0.0363263
0.0220303
0.0208317
0.0247649
8.66101
0.0238331
0.0223514
0.0252402
0.0214602
0.0876821
0.0234894
0.0215873
0.0217772
0.0247055
0.0218558
0.0226651
0.0214929
0.0312235
0.0214664
0.300521
0.0362304
0.0274189
0.0239515
0.153519
0.0221261
0.0219463
0.0416899
0.0214469
0.0661689
0.0213399
0.820466
0.0219617
0.0245882
0.0252874
0.0207284
0.0221462
0.0214497
0.0236579
0.0242073
0.0214847
0.0232796
0.0229699
0.171056
0.0260464
0.0223125
0.0205526
0.0228181
0.0213219
2.43172
0.0274876
0.0214592
0.0220765
0.0198884
0.0275806
0.0216235
0.0218462
0.0215913
2.08227
0.0221718
0.0212039
0.0234712
0.0214311
16.1911
0.0214223
0.024275
0.0219191
0.0213959
0.0226316
0.0230077
0.0244259
0.0208528
0.0235547
1.94535
2.21481
1.51019
0.0615965
0.0212884
3.34618
0.02194
0.0463757
0.031736
0.0226564
2.12551
0.0226074
0.0214549
0.0742302
0.0214485
0.148516
0.0236254
0.025115
0.047928
0.0397921
0.137255
2.30471
0.0274358
0.0306287
0.0214745
0.0214128
0.0320429
0.0250055
0.0255302
0.0234943
0.0381552
0.0220076
0.0216179
0.0211399
0.0532773
3.38238
0.0211831
0.0223835
0.0220125
0.0203094
0.526019
0.0230706
1.4362
0.0229169
0.027142
0.26836
0.0519717
0.0221893
0.0216451
0.0240981
0.0344966
0.0238824
0.0225167
0.0220002
0.115442
0.0234295
0.0239157
1.74765
0.0211562
0.0210065
0.728254
0.0325299
0.0216351
0.0495117
0.0217148
1.7688
0.0201197
0.0217625
2.39068
0.0214838
0.021593
0.019916
0.0907283
1.09672
1.49219
1.31614
0.0311795
0.0239195
0.0209939
3.13413