/*--------------------------------*- C++ -*----------------------------------*\
| =========                 |                                                 |
| \\      /  F ield         | OpenFOAM: The Open Source CFD Toolbox           |
|  \\    /   O peration     | Version:  v2012                                 |
|   \\  /    A nd           | Website:  www.openfoam.com                      |
|    \\/     M anipulation  |                                                 |
\*---------------------------------------------------------------------------*/
FoamFile
{
    version     2.0;
    format      ascii;
    class       surfaceScalarField;
    location    "350";
    object      phi;
}
// * * * * * * * * * * * * * * * * * * * * * * * * * * * * * * * * * * * * * //

dimensions      [0 3 -1 0 0 0 0];
oriented        oriented;


internalField   nonuniform List<scalar> 
21240
(
-0.358743
0.569924
-0.211181
-0.0454974
0.157237
-0.111739
-0.160319
-0.344926
0.505244
0.251832
-0.181733
-0.0700994
-0.0915099
0.250451
-0.158941
-0.258345
-0.214604
0.472949
0.616431
-0.481573
-0.134858
-0.253321
-0.118976
0.372297
0.0455005
-0.0669037
0.0214032
0.570076
-0.477487
-0.0925899
-0.641384
0.374262
0.267122
0.387603
0.0224338
-0.410037
0.192768
-0.0232845
-0.169483
0.141877
0.236451
-0.378328
0.499456
0.116975
0.0168866
-0.347358
0.330472
-0.385668
0.535862
-0.150194
0.0372621
-0.0320317
-0.00523048
0.411126
-0.569566
0.15844
0.281406
-0.26452
0.00693114
0.145373
-0.152304
0.0773183
-0.40764
0.330322
-0.669758
0.476316
0.193443
-0.309743
-0.331641
0.0444266
0.047841
-0.0922676
0.322195
-0.0580923
-0.264103
0.172208
-0.0621663
-0.110042
0.423517
0.146559
0.155537
0.0166713
-0.574406
0.616963
-0.0425572
-0.0532429
0.153109
-0.0998664
0.628679
-0.165345
-0.463333
-0.00242644
0.00531036
-0.00288392
0.624657
-0.45239
-0.172267
-0.034751
0.242129
-0.207378
0.104027
0.524652
0.410548
0.146378
-0.556926
-0.300909
0.266158
-0.74019
0.392034
0.348156
-0.188858
0.282184
-0.0933258
0.0718007
-0.0263002
-0.18469
-0.134252
0.318942
0.0125475
0.172821
-0.185368
-0.109237
-0.0186534
0.127891
0.240152
-0.138458
-0.101694
0.294153
-0.162202
-0.131951
0.352551
-0.512869
0.579635
-0.156118
0.456766
-0.208873
-0.247893
0.234806
-0.222258
-0.160116
0.570663
0.00126116
-0.119815
0.118554
-0.697995
0.376072
0.321924
0.392076
-0.565374
0.173298
-0.440438
-0.257558
0.217748
0.0765701
-0.294318
0.374215
-0.275985
-0.0982296
0.666962
-0.492675
-0.174287
-0.0388366
0.361032
0.110501
-0.0660741
0.625198
-0.233122
0.154712
0.139442
-0.168387
0.191787
-0.0234002
0.210172
-0.621699
0.411526
0.396618
0.0911131
-0.487731
-0.380018
0.551623
-0.171605
-0.491753
0.146828
0.0868452
-0.140088
-0.358721
0.171201
0.18752
0.672899
-0.568872
0.199466
-0.65137
0.451904
-0.612532
0.220014
0.392518
0.174451
-0.566579
0.392128
0.26268
0.0925471
-0.355227
0.626128
-0.437876
-0.188252
0.461694
-0.222214
-0.23948
-0.40236
0.245357
-0.0433932
-0.201963
0.538932
0.133967
-0.0420203
-0.0629181
0.104938
0.557919
0.0144428
-0.572361
0.0783162
-0.318
0.239684
0.273314
0.183452
0.640925
-0.420911
0.781776
-0.405704
0.105568
-0.0513433
-0.0542245
0.0850092
0.155143
-0.621718
0.159856
0.461862
-0.447266
0.665083
-0.465617
0.180406
-0.0451247
-0.135281
0.028956
0.00418314
-0.0331391
0.025582
0.167186
0.0685584
0.488017
0.59754
-0.608005
0.010465
0.553816
0.00410214
0.420751
0.361024
0.463688
-0.673145
0.209457
-0.250405
0.63816
-0.387755
-0.382619
0.19793
-0.401984
0.545965
-0.143981
-0.439906
0.591475
-0.151569
-0.357721
-0.312037
0.0475978
-0.23819
0.190592
0.58249
-0.422634
0.356196
0.0751627
-0.431358
-0.318659
0.129801
-0.228129
0.195937
0.0321912
-0.0253532
0.218326
-0.192973
0.127619
-0.136027
0.00840805
-0.184737
0.252122
-0.0673848
0.115352
-0.00182158
-0.113531
0.364325
-0.37988
0.0155555
0.132382
0.00130599
-0.133688
0.357056
-0.279737
-0.120916
0.122177
0.333729
-0.177706
-0.156024
-0.116592
0.0785772
-0.000863199
-0.077714
0.284699
-0.206383
0.14539
0.434246
-0.583297
0.197629
-0.198317
0.609443
0.256785
-0.136863
-0.119921
-0.0475457
-0.051493
0.0990387
0.558457
-0.265768
-0.292689
0.036385
0.113204
-0.149589
-0.534015
0.175272
0.615285
-0.377231
-0.238053
-0.559423
0.15744
-0.048408
-0.0890377
0.137446
0.149214
-0.0299734
-0.11924
-0.309804
0.207621
0.102183
-0.100152
0.205404
0.25629
0.359988
0.255297
-0.042731
0.000116637
0.0426144
0.155409
-0.0230264
-0.0102307
-0.119131
0.129362
0.188511
-0.152126
-0.19697
0.151456
0.0455133
-0.0831
0.0355543
-0.152713
-0.421693
0.148984
0.000230097
0.00235947
-0.00463991
0.00228044
-0.0949633
0.357644
-0.0673877
0.431712
0.357218
0.152504
-0.138125
-0.0143783
-0.0153993
0.143019
0.400872
0.145093
-0.279071
0.707115
-0.428044
-0.604556
0.28011
0.324446
-0.4781
-0.103454
0.581553
-0.674553
0.510242
0.164311
0.242088
-0.267442
-0.260145
0.167435
0.0927107
-0.62649
0.148391
0.300694
0.0735207
0.0801951
-0.122215
-0.175839
-0.014243
0.190082
-0.218001
0.353082
-0.135081
0.00365436
-0.0241568
0.152416
-0.128259
0.398709
-0.631855
0.233146
0.0233809
0.0821869
-0.3181
-0.42209
0.118991
-0.18472
0.0657283
0.600596
-0.126048
-0.474548
-0.553589
0.295244
0.079797
-0.00121986
0.0433022
-0.0318493
-0.0114529
-0.308048
0.14664
0.161408
-0.0120304
-0.191743
0.203773
-0.0617631
0.0912116
-0.0294485
-0.323779
0.103369
0.22041
-0.116655
0.504258
0.174685
0.383772
0.0177079
-0.159553
0.141845
0.0233137
-0.14222
0.118907
0.00417612
0.00365152
-0.00782763
0.0999627
0.156822
0.504718
-0.103846
0.200064
-0.29396
0.0938954
-0.152735
0.159666
-0.226459
-0.0915414
-0.244718
0.0599813
-0.188732
-0.0559866
0.0644492
0.328557
-0.393006
0.158475
-0.00597069
-0.278984
-0.0864277
0.365412
0.276651
-0.035211
-0.24144
0.108768
-0.00165769
-0.107111
-0.396544
-0.210621
0.607166
0.637373
-0.173686
0.334378
-0.150739
-0.183639
-0.376932
0.262086
0.487482
-0.213813
-0.27367
-0.180552
0.00471225
0.104424
-0.152832
0.00508796
-0.0075144
-0.501969
0.358616
0.143354
-0.645717
0.205811
0.267278
-0.362242
0.148199
0.103633
-0.542044
0.286704
0.25534
-0.303584
0.0245996
-0.126683
0.0174461
-0.11929
0.618746
-0.18138
0.625284
-0.443904
-0.334598
0.399047
-0.241633
0.33418
-0.0688336
-0.0736076
0.142441
-0.0769948
0.195986
0.00380234
0.00150801
-0.146525
-0.052851
0.199376
0.0269014
0.068376
-0.0952775
-0.362677
-0.196747
0.161165
0.343553
0.59338
0.00721546
0.0266295
-0.103682
0.0770523
-0.0823358
0.300084
0.0963447
-0.0697152
-0.215141
-0.0946632
-0.00653822
0.251895
0.0411242
0.186355
-0.227479
0.154101
0.179629
-0.154627
0.13047
0.414892
-0.613209
0.112304
-0.273726
0.161423
0.201127
0.133252
0.012648
-0.111863
0.0992148
0.484411
-0.131861
-0.367891
-0.180193
0.548084
0.0807674
0.19359
-0.274358
0.231897
-0.207152
-0.0247449
0.108319
-0.126972
-0.262014
0.0823096
0.179705
0.229393
-0.355988
0.126595
-0.00610338
-0.0366277
0.0215209
0.0259134
-0.0474343
0.046514
0.0864644
-0.132978
-0.569235
0.189216
-0.116158
-0.0645655
-0.0391163
0.456363
-0.66671
0.210347
-0.013257
0.0347779
-0.749117
0.297882
0.451235
0.539225
-0.124332
0.468244
-0.603319
0.135074
-0.15587
-0.104275
-0.446055
-0.205316
0.011712
-0.0312448
0.0195327
-0.403487
0.549865
0.126446
-0.379767
0.053837
-0.105968
0.0521308
0.0535468
-0.0465609
-0.0069859
-0.138637
0.100431
0.0382063
0.00351324
-0.00115377
-0.0980109
0.365289
0.396636
-0.228838
-0.167798
0.168924
0.0783213
-0.247245
0.0451726
-0.191698
-0.0306091
0.0423211
0.180347
-0.00219792
-0.178149
-0.117218
0.0194626
0.0977557
-0.322213
0.137245
0.184968
0.00936747
-0.00666708
-0.146068
-0.0613759
0.148221
0.371589
-0.284268
-0.0873211
-0.414617
0.483176
0.679324
-0.372449
-0.306875
0.61934
-0.162977
0.656507
-0.587221
-0.0692863
0.128584
-0.610157
-0.0891467
0.115503
-0.0263563
-0.603617
0.324546
-0.153935
-0.0880475
0.241982
-0.161423
0.154756
0.508713
0.117415
0.0142902
-0.482702
0.198567
0.284135
0.13178
0.0166539
-0.148434
-0.24082
0.14931
-0.059569
0.005509
0.05406
-0.139302
0.129071
0.223961
-0.0259772
-0.197984
-0.423283
0.595176
-0.171892
-0.453917
-0.110657
0.564574
-0.0500709
-0.053266
0.103337
-0.199875
-0.302094
0.537547
-0.138838
-0.0333004
-0.0634586
0.096759
0.177844
0.439119
-0.35141
0.133408
0.753374
-0.352301
-0.401073
0.000298401
0.00331516
0.281789
0.142663
-0.424451
-0.416071
0.131425
0.284646
-0.225711
0.17098
0.0547307
0.342474
0.0609181
-0.403392
0.409692
-0.267814
-0.321984
0.144278
-0.243071
0.0613388
-0.255279
-0.349277
-0.214417
-0.125748
-0.0244786
0.204825
-0.15109
-0.0172965
-0.694043
0.286612
0.407431
-0.271047
-0.422996
0.164448
0.0166365
-0.181084
0.130949
-0.146348
0.294463
-0.206454
-0.0880084
-0.0373419
0.0667497
-0.0294079
0.211765
0.0729339
0.238258
0.158378
0.54454
0.111967
-0.0362027
0.00723397
0.0289687
0.353009
-0.125382
-0.227627
0.117118
0.255277
-0.372395
0.653145
-0.499868
-0.153277
0.428134
-0.146345
0.241696
0.423387
0.214002
-0.00867499
-0.205327
0.0920537
-0.0651522
-0.0668615
0.46348
-0.101031
0.320727
0.432647
-0.0452154
0.0130616
0.0321538
-0.0959555
0.03139
0.0340947
-0.00513872
-0.0821236
0.0773255
0.00479813
-0.110605
0.0645865
0.0460189
0.54095
-0.487432
-0.053518
0.583233
-0.414233
-0.169
0.224094
-0.11179
-0.0919783
0.0302152
0.34427
-0.125943
0.103297
-0.164672
0.00579243
0.0617289
-0.0675213
0.0283888
0.0149134
0.00925577
-0.389352
0.380097
0.490324
0.0506262
-0.0380089
0.0018062
-0.00102851
-0.00171769
0.0027462
-0.00492249
-0.0619812
-0.565028
0.404913
0.19353
-0.0929899
0.0987823
-0.0823249
0.000201321
0.453507
-0.649942
0.196435
-0.61022
0.186937
-0.0220699
0.153849
-0.11196
0.126349
-0.0798351
0.0918891
0.000130126
-0.0920192
0.112062
-0.0582249
-0.42839
0.141233
-0.175808
0.0345756
0.00247669
-0.0035052
0.679732
-0.297937
-0.381795
0.421609
0.160881
0.334593
0.345138
0.17111
-0.021513
0.152462
0.349558
-0.120165
0.24955
-0.167241
0.487255
-0.554116
-0.00765271
0.116421
-0.00354145
0.00101812
0.00252333
0.0220399
-0.170173
0.148133
-0.0558191
0.0184772
0.508489
0.0290583
0.0759325
-0.350977
0.275045
-0.49261
0.318632
0.173978
-0.00337123
-0.00017022
0.00167476
-0.120568
0.118893
-0.447682
0.492145
-0.0444626
-0.196542
-0.125671
-0.234452
-0.24825
-0.11001
0.0208629
-0.319581
-0.13825
0.457831
-0.467445
-0.142775
-0.037788
0.165569
-0.127781
0.344546
0.238687
0.254383
-0.175852
-0.078531
-0.0786678
0.142235
-0.0635668
-0.10386
-0.0228236
0.0792725
-0.104639
0.0253669
0.121215
-0.282333
0.161118
0.607773
-0.4459
-0.161873
0.48411
0.0243783
0.435267
-0.229863
0.530358
-0.49062
-0.0397377
0.449759
0.229565
0.186013
0.045884
0.205036
0.230232
0.394454
-0.0761727
-0.318281
-0.149479
-0.4171
-0.09033
0.446526
-0.196726
0.262499
-0.0657729
-0.137104
-0.136623
-0.0488766
0.0729681
0.0233766
0.101136
-0.0884885
-0.0087156
0.124068
-0.0379573
-0.126172
0.164129
-0.139303
0.140978
-0.665452
0.392712
0.272741
-0.271426
0.144929
0.389125
-0.534055
-0.00388272
0.000167674
0.00371505
-0.117043
-0.0375836
-0.245113
0.0563813
-0.186833
-0.127301
0.145008
0.0161929
0.0821879
-0.400496
0.318308
-0.157245
0.501791
-0.0489069
0.0715427
-0.0226358
-0.0974725
0.0345543
-0.0484164
0.39089
0.473105
0.149225
-0.62233
-0.0275021
0.19195
-0.174975
0.137018
-0.332
0.0903669
0.156861
-0.571093
0.0854456
-0.130943
0.0804321
-0.00881594
-0.0716161
-0.339077
0.348333
0.599226
-0.332214
-0.267012
0.21517
-0.185159
-0.0300114
0.331967
-0.448622
-0.278752
-0.3867
0.0228938
-0.105083
-0.0121355
0.0466828
0.133723
-0.176264
-0.377325
-0.0363653
0.146612
-0.110246
-0.663261
0.385634
0.277627
0.304892
0.0537236
-0.0292323
-0.0667232
0.104417
-0.0125275
-0.118905
-0.485417
-0.114459
0.500093
-0.215691
-0.331992
0.547682
0.122141
0.30949
-0.431631
-0.499469
0.333659
0.165809
0.333458
0.322837
-0.111072
0.362666
-0.280478
0.314425
-0.428883
-0.00541615
-0.000624292
0.00604045
0.31057
0.254058
0.370599
0.219769
-0.182397
-0.0373719
0.297608
-0.19869
-0.0989172
-0.321001
0.436587
-0.115586
0.492971
0.0373875
-0.0681727
-0.0704642
0.0875066
-0.0199247
-0.0675819
-0.132185
0.00666309
0.125522
-0.609424
0.0384926
-0.00123046
0.0774592
-0.0243018
-0.0531574
0.314868
0.0795861
-0.535882
-0.017216
0.553098
0.170013
-0.0524213
-0.117592
-0.0759955
-0.206338
-0.392115
0.22461
0.167505
0.249691
0.388969
-0.531729
0.14276
-0.165265
-0.0628633
-0.121895
0.018035
-0.134873
-0.281198
-0.13405
-0.153913
0.287963
-0.147955
-0.387928
0.274828
-0.642719
-0.0945833
0.54809
0.220122
0.102716
-0.104033
0.304098
-0.225633
0.071698
-0.288511
-0.111985
-0.0998536
0.123167
-0.458158
0.170717
0.287441
0.151202
0.00603515
0.210559
-0.222589
0.0626568
0.0148024
0.212727
-0.463132
-0.345451
-0.196594
0.209944
0.0845182
-0.0982987
-0.00871943
0.107018
-0.16396
-0.0992243
0.0659239
0.262301
-0.381277
0.224395
-0.0383813
-0.572064
0.0446772
0.527387
-0.00171883
-0.00369732
0.447024
0.133284
-0.580308
0.0510836
-0.0386557
-0.0124279
-0.117733
0.585978
0.218274
-0.0467313
-0.171542
-0.434859
0.584915
-0.150056
-0.102335
0.57544
0.469502
-0.632849
0.163347
0.188025
-0.457593
-0.164105
0.0156506
0.199519
-0.212987
0.289557
-0.162499
0.0232206
-0.198737
-0.355999
-0.133254
0.489252
-0.172521
0.144442
0.0280791
0.0583199
0.173611
-0.231931
0.0757729
-0.272498
-0.546439
0.507935
0.0385038
0.552475
-0.177872
-0.374603
-0.605341
0.0589015
-0.563504
0.22071
0.342794
0.370542
0.181933
-0.0359994
0.00396779
-0.00298564
-0.000897078
0.34197
-0.319536
0.0355882
0.156199
0.113111
-0.0194246
-0.0936865
-0.0131238
-0.0320916
0.0181512
-0.496633
0.478482
-0.149163
-0.460172
0.63102
-0.170848
-0.265501
0.159767
0.424257
-0.584024
-0.586715
0.252117
-0.259592
-0.200547
0.0397899
0.160758
-0.723004
0.30533
0.417674
0.0527442
-0.0368773
-0.0158668
-0.436392
0.655281
-0.293808
-0.361473
-0.0467669
0.0336431
0.000164282
0.00231241
0.501893
0.139032
0.343348
0.034022
-0.37737
0.680933
-0.17904
0.544771
-0.609792
0.0650207
-0.496606
0.320342
-0.049126
-0.010443
-0.243367
0.485325
-0.360457
-0.124868
0.406329
-0.284188
0.520894
0.0107944
-0.531688
-0.00719158
0.494446
-0.16462
0.134013
0.0306073
0.207752
-0.325451
0.1177
0.300971
0.0873734
-0.388344
-0.0354756
0.176708
0.415626
-0.244909
0.394009
0.00891318
-0.206025
0.197112
-0.245654
-0.246956
-0.17547
0.0318451
0.143625
0.093456
-0.045615
-0.048702
0.0802165
-0.0315145
-0.209997
0.485786
-0.275789
0.0628335
-0.260393
0.197559
0.103809
-0.556198
0.281564
-0.178195
-0.0524999
0.290758
0.560251
-0.205558
-0.354693
-0.572064
0.217143
-0.269643
-0.37667
-0.25919
0.103173
0.156017
-0.500194
0.313388
0.186806
0.0862085
0.456708
-0.542916
0.120809
-0.39032
0.269511
0.134527
0.0208819
0.0404445
-0.0273829
-0.314221
0.107416
0.206806
-0.0523108
-0.0772987
0.12961
0.195073
0.0650771
-0.26015
-0.331959
0.606787
0.364276
-0.0107077
-0.0252917
-0.64152
0.418241
0.223279
-0.648476
0.188304
0.483462
0.0810613
-0.564523
0.275188
0.087478
-0.586735
0.411623
0.0423052
-0.453928
0.0611698
0.0631165
-0.247524
0.344287
-0.0967621
0.0337524
0.0197944
0.00399737
-0.0044831
0.00048573
0.587141
-0.110825
0.638826
0.00932941
0.0600181
-0.0693475
-0.161531
0.195212
-0.0336816
-0.0453237
0.0661235
-0.0207998
0.124806
0.241291
0.108267
0.442752
-0.0684902
-0.641524
0.392918
0.248606
0.360626
-0.152874
-0.112418
0.413388
0.374009
-0.0591406
0.386392
-0.325474
-0.656305
0.189342
0.466963
0.110101
0.00168433
-0.111785
-0.241768
-0.414537
-0.0726412
-0.127906
0.515389
0.165544
-0.521451
0.30576
0.316896
-0.250244
-0.0666523
0.509765
0.0877748
0.0240714
0.0270122
0.211246
0.0863618
-0.219648
0.349727
-0.130079
0.030587
0.0569196
0.129326
0.0992212
-0.0245949
-0.0746263
-0.0304147
-0.00436655
0.0347812
-0.252764
-0.246705
-0.464898
0.122107
-0.341755
0.143595
-0.147842
0.00424714
-0.122649
-0.414953
-0.193052
-0.00292226
0.00308654
0.0220816
-0.0735746
0.16319
-0.154277
0.0649909
-0.04161
0.374343
0.185908
-0.227449
0.176707
0.0507417
0.475173
0.0457206
-0.151583
-0.107607
-0.206659
-0.149329
-0.669874
0.398827
0.123349
-0.0150308
-0.425637
0.211033
0.179312
-0.0340782
-0.145234
-0.288828
0.0892576
0.19957
0.116312
-0.0158811
0.156711
-0.0221844
-0.622334
0.287741
0.334593
0.122265
-0.307717
0.185453
-0.450813
0.131232
-0.259297
-0.363037
-0.638409
0.432222
0.206186
0.0967175
-0.302617
0.2059
-0.00355305
0.104689
-0.0832225
0.566684
0.0278196
0.0852915
0.143486
0.442127
-0.585613
-0.108641
0.357617
-0.116326
-0.0365027
0.115869
-0.0793665
-0.2165
-0.329045
0.545545
-0.141001
0.0984664
0.358148
-0.538348
0.1802
-0.139383
-0.0136029
0.0118841
0.00833645
0.211433
0.563991
-0.336798
-0.227193
0.00869505
-0.00792879
-0.000766258
0.174128
0.0441457
0.530431
-0.172283
-0.166941
0.0351956
-0.108803
-0.287186
-0.276318
-0.050957
0.108591
-0.057634
-0.473074
0.263077
-0.317877
-0.156365
0.474242
0.58249
-0.253933
0.199642
-0.16255
-0.0370919
-0.072756
-0.170315
0.0615104
-0.269282
-0.400593
0.355573
0.128839
-0.604102
0.577712
0.0263899
-0.143972
-0.305535
0.449506
-0.189033
0.0738194
-0.122483
0.0486636
0.326035
-0.105914
0.197721
-0.281195
0.083474
-0.15141
-0.240705
0.201155
0.381335
0.288303
0.0285929
0.476832
-0.579167
0.0363327
-0.0321495
0.078999
-0.263318
0.184319
0.0213059
0.288427
-0.309733
-0.115209
0.37751
0.389064
0.174927
-0.383322
0.268113
-0.0626478
0.221504
-0.158856
0.140891
0.0291229
0.00611784
-0.107018
0.541032
-0.434014
-0.0781615
0.275883
0.445047
-0.613706
0.168659
-0.198351
0.261184
-0.310584
0.228248
0.0719031
-0.125169
-0.0303586
0.507191
-0.0461605
0.432553
0.000704437
0.00329293
-0.0215651
0.100838
0.324022
-0.504215
-0.197989
-0.296844
0.494833
0.519264
-0.374335
0.0436511
-0.0410644
-0.00258677
-0.246859
0.0718576
0.175001
0.357999
-0.491253
0.0876949
0.23834
0.104486
-0.412774
0.308287
-0.608949
0.27699
0.110786
-0.000684813
-0.366959
0.239828
0.127132
-0.257519
0.108958
-0.033318
-0.0756402
-0.0793175
0.0306155
-0.118846
-0.315812
0.115443
0.200369
-0.431984
0.450135
0.131432
0.309401
-0.440834
-0.111702
-0.0144979
0.1262
0.0456694
-0.0177711
-0.0278983
-0.555467
0.10155
0.0839946
0.0267909
0.0857567
-0.00532465
-0.00132962
0.104233
0.0382078
0.0201499
0.0255195
0.0159186
0.0277326
0.417514
-0.566851
0.149336
0.0399423
0.184452
-0.0982637
-0.0222946
0.120558
-0.207532
0.302221
-0.443283
0.141062
0.566655
-0.423169
-0.128167
0.0391288
-0.00490788
-0.495184
0.134727
0.187052
-0.0388528
0.28005
-0.0737002
-0.20635
0.0972621
0.184302
0.650301
-0.406553
-0.243748
0.293523
-0.101734
-0.191789
-0.589618
0.442222
0.147396
-0.147015
-0.0284546
0.126389
-0.647163
0.205647
0.441516
0.0150916
0.023401
-0.0205421
0.164137
-0.0810171
0.138491
-0.0574735
0.124744
-0.311743
0.186999
-0.283038
-0.390107
-0.00356383
0.00582915
-0.00226532
-0.59921
0.253659
0.345552
-0.00269959
0.000692972
0.00200662
0.0350219
0.14429
-0.125838
0.0546544
-0.0063545
-0.0482999
0.0879223
0.349814
-0.437736
0.116858
0.322667
-0.439525
-0.0935355
-0.0157597
0.109295
0.306072
0.152871
-0.458942
-0.181394
0.40291
-0.314988
-0.143686
-0.671289
0.263391
0.407898
0.114014
0.325632
-0.439645
0.16213
-0.540878
0.378747
-0.0147328
-0.0418037
0.0565365
-0.73305
0.51177
0.22128
0.062735
0.168034
-0.230769
0.0430498
0.0659084
-0.265969
0.207876
-0.0640252
0.0906531
-0.0266279
-0.405261
0.108379
-0.30739
0.199011
-0.276388
0.422258
-0.14587
-0.191088
-0.541962
0.0472045
-0.0981615
0.0593502
-0.0500208
0.102765
-0.168696
-0.327909
-0.286901
-0.159977
0.446878
0.014145
-0.0951621
-0.344845
0.461703
0.440074
-0.32606
-0.14022
-0.449424
-0.135683
0.585108
0.000188907
0.0591613
-0.319603
-0.351686
-0.371803
0.458011
0.417362
0.0560288
-0.473391
0.67575
-0.185481
-0.490269
-0.100085
-0.593277
0.45463
0.138647
0.454634
-0.328093
-0.126541
-0.0735373
0.26861
0.111188
-0.499613
0.388426
-0.227232
-0.439478
0.494483
-0.383296
-0.443496
-0.149782
-0.145137
0.447357
0.0593385
0.220711
0.0820751
-0.23524
0.153165
0.474424
-0.295525
-0.178899
0.0827898
-0.0397189
-0.043071
0.3108
0.102572
-0.413372
0.200006
-0.0546158
-0.14539
-0.563406
0.276219
-0.20918
-0.0796479
0.287834
0.387916
-0.0197123
-0.16205
0.181762
-0.0330447
0.117039
0.0223295
-0.164319
0.429528
-0.265209
0.099663
0.207943
-0.307606
0.0189117
-0.198174
0.179262
-0.225477
0.162829
0.176126
-0.134062
0.419768
-0.285706
-0.188257
0.152948
0.0353094
-0.440074
0.301825
-0.198816
0.187262
0.267693
-0.0741023
0.225128
0.428017
0.033668
-0.0976932
0.059649
0.0289462
-0.0885952
-0.201284
0.273807
-0.0725229
0.420547
-0.109747
-0.000637559
0.00428908
-0.158332
0.178459
-0.0201276
-0.666098
0.279144
0.386953
0.021426
-0.0256877
-0.079395
-0.327113
-0.0784065
0.405519
0.648818
-0.343489
-0.156576
-0.366934
-0.299164
0.189541
0.284883
-0.411802
0.111134
-0.517423
0.406289
-0.19967
0.296387
-0.277735
0.564439
0.193659
-0.178009
0.0536602
0.320348
-0.143391
-0.0822415
-0.555738
0.199122
0.356616
-0.299633
-0.263772
0.269403
-0.367414
-0.0139584
0.0584931
-0.0445347
-0.366519
0.594559
-0.228041
-0.158729
0.136659
0.387465
0.277347
0.138279
0.0696453
-0.0919399
0.189671
-0.267832
0.612853
-0.612853
-0.191364
0.166886
0.0378294
-0.148307
0.110478
0.0147341
-0.0450057
-0.362625
-0.226993
0.0323795
0.0965286
-0.723056
0.391064
-0.318534
0.114763
0.203771
0.00871045
-0.013077
-0.10716
0.376563
-0.0875648
0.557067
0.219601
0.399739
0.151745
-0.332672
0.443032
-0.11036
0.113749
-0.43475
-0.0305328
0.0304766
0.0660068
0.712124
-0.296298
-0.415826
0.00283882
-0.00271469
-0.000124132
-0.0549935
0.137919
0.0750851
-0.0616208
-0.0134643
-0.0302454
0.181702
-0.119561
0.536922
0.00966204
-0.00864392
0.453767
-0.628239
0.174472
0.473543
-0.593543
0.400978
0.192565
0.194314
-0.175402
0.208713
0.382762
-0.219783
-0.0628375
0.28262
0.264995
-0.0140413
-0.250954
-0.3945
0.0573391
-0.105868
0.168863
0.189266
-0.632761
0.161359
-0.0642145
-0.0971445
0.503376
0.134785
0.0460774
0.00544178
-0.0515192
-0.195323
-0.360415
0.0149122
0.0500787
0.282689
0.429435
0.114378
-0.0949151
0.181075
0.474207
-0.584042
0.243345
0.340697
0.209394
0.084129
-0.157049
0.614366
-0.170829
-0.443537
-0.435677
-0.142048
0.577725
0.23146
-0.275582
0.0441222
-0.169129
0.145975
0.388924
-0.534898
-0.698927
0.415889
0.121237
0.0654939
-0.18673
-0.382808
-0.340247
0.169621
0.345768
-0.413227
-0.2857
-0.316289
0.121254
0.195035
-0.545516
0.166983
0.0326588
-0.491753
0.323057
0.0699889
-0.376514
-0.193053
-0.640857
0.230197
0.41066
0.418083
0.177093
0.114036
0.0127697
-0.126806
-0.0275089
-0.125507
0.153016
-0.569302
0.232359
0.336943
-0.36111
0.125743
0.235367
-0.0627298
-0.0419097
-0.189477
-0.0831061
-0.0578945
-0.0682265
0.479849
-0.0439404
0.11776
0.247694
-0.421255
-0.0843368
-0.185241
0.269578
0.15007
0.0329277
-0.182998
-0.0307337
0.0903826
-0.139914
0.594544
-0.196562
-0.00123988
0.000615591
0.00478897
-0.0180459
0.0503648
0.149641
0.502026
-0.365751
-0.136275
0.275681
-0.044221
-0.15115
0.0961565
0.375557
-0.270181
-0.105377
0.15018
-0.325812
0.20043
-0.0114042
0.0186165
-0.00721224
-0.142392
0.140194
0.101925
0.493643
-0.595567
0.0355519
-0.0868953
-0.0326776
0.19966
-0.0989522
0.0603777
0.0385745
-0.115773
-0.307106
0.422879
0.0257419
-0.221892
0.19615
-0.0571538
-0.442714
0.0141787
0.112605
-0.126783
0.504613
-0.370805
-0.133809
-0.671588
0.377969
0.293619
0.451892
-0.52226
0.163851
0.358409
0.193471
-0.243709
0.0502383
-0.11232
0.0600089
0.529349
0.0835041
0.407534
0.241284
0.13645
-0.514594
0.378143
-0.0459877
0.0282166
-0.194238
-0.514819
0.304197
0.578697
-0.433308
-0.430519
0.163036
0.267483
-0.226596
-0.0349695
0.261565
-0.378129
0.189204
0.0612473
0.275405
-0.206316
-0.0078895
0.214206
0.0940688
0.118519
0.423691
0.155006
0.703465
-0.288089
-0.415376
0.206098
-0.0848615
0.273206
0.430258
0.480682
-0.197122
-0.28356
0.587217
-0.415489
-0.171727
-0.14329
-0.0412005
-0.115165
0.156365
0.301714
-0.364594
0.227362
0.137232
0.296642
-0.513142
-0.225483
0.110465
-0.101601
0.0928816
-0.237196
0.16444
-0.0485125
0.151809
-0.199975
0.121961
-0.284866
0.105721
0.396305
0.0191982
0.0558869
-0.387568
0.524018
0.439997
0.147219
0.120885
0.012516
-0.133401
0.12822
0.028491
-0.000582629
-0.121684
0.122267
-0.142524
0.537936
-0.395411
0.245423
0.126166
0.27491
-0.399751
0.124842
-0.188126
-0.123617
0.466864
-0.637688
0.170824
-0.0820894
0.306699
-0.0782571
0.169444
-0.0911867
-0.180574
-0.0779175
0.229145
-0.151228
-0.0300692
0.174013
-0.0286481
-0.145365
-0.388479
0.0525259
0.00212841
-0.313962
-0.169916
-0.197044
-0.702367
0.279271
0.423097
0.19461
-0.164523
-0.0300874
0.527244
-0.0193087
-0.419678
0.188268
-0.00121664
-0.417404
0.573551
-0.156147
-0.426688
0.311015
0.115674
0.62466
-0.170893
-0.490781
0.20388
-0.156398
0.109144
-0.157657
-0.23411
-0.407414
0.549292
-0.160322
-0.126791
0.0452987
-0.207848
-0.207065
0.0417998
-0.71023
0.413932
-0.356626
0.18671
0.0232316
0.135731
-0.158963
0.0143185
-0.00465641
-0.0151423
0.0937397
-0.115305
-0.107288
-0.151063
0.177757
-0.0266934
0.299806
-0.617683
-0.432673
0.298611
-0.136412
0.483393
-0.346982
-0.242868
0.0715835
0.171285
-0.414583
0.29881
-0.695273
0.263738
0.431535
-0.497655
0.35921
0.138445
0.207195
0.0756235
-0.282819
0.171212
-0.283983
-0.41129
-0.198895
-0.198355
0.39725
-0.049093
0.199163
0.0402129
-0.0118241
0.162665
-0.00130287
-0.00226096
0.265118
-0.000123164
0.115863
-0.140606
0.0247423
0.140549
0.0835455
-0.131602
-0.19385
-0.203219
0.239995
-0.0367761
0.0406683
-0.00691588
0.0352141
-0.442269
0.298298
-0.226763
-0.0768211
-0.136219
-0.109248
-0.0336823
0.14293
-0.121498
0.379599
0.486133
-0.128134
-0.322955
-0.167826
-0.153334
0.23541
-0.115162
0.0958131
0.252042
-0.347855
0.233327
-0.335804
-0.282735
0.0116475
0.191028
0.378896
-0.137595
0.3051
-0.127343
-0.117523
0.244866
-0.184558
0.472704
-0.288146
0.423069
-0.127524
-0.115344
-0.589338
-0.050989
-0.190451
-0.268685
0.184348
-0.0751857
0.15962
-0.0844346
0.115246
-0.143468
0.0282227
0.509294
-0.185201
-0.324094
0.00338862
-0.00419898
0.000810367
0.0144264
0.152857
-0.0376113
-0.00414591
0.192414
-0.0309117
-0.117396
0.551961
-0.155977
-0.395983
-0.267306
-0.0972881
0.0325484
0.162062
0.276445
0.301152
-0.577597
0.385205
0.166755
-0.0380906
-0.0147403
0.2084
0.11013
-0.309025
0.454095
0.0731487
-0.675174
0.227944
0.447229
-0.266273
-0.408901
-0.13189
-0.345597
0.345588
-0.491238
0.14565
-0.448094
0.120002
-0.637371
0.246376
0.390995
-0.422397
-0.442513
0.603344
-0.480463
-0.122881
-0.0610366
0.0463038
0.125726
0.231891
0.149242
0.440703
-0.589945
0.0559978
-0.0623523
-0.00252879
-0.00540001
0.266551
-0.0730803
0.203997
-0.286086
0.102744
-0.147868
-0.0715023
0.131868
-0.153381
0.04674
0.0180207
-0.0647607
-0.328926
0.00597147
0.155334
0.325348
-0.508762
0.589823
-0.0666099
0.0954583
-0.0288484
0.0734702
0.233421
-0.306891
-0.0245399
-0.0128675
0.0374074
-0.0369544
-0.0619978
0.16915
-0.583212
0.414062
0.163832
-0.530351
0.0355801
0.143618
-0.579295
0.547742
-0.395746
-0.151996
-0.00234452
0.00207783
0.000266691
-0.353506
0.599693
-0.246186
0.396046
-0.121136
0.655316
-0.198608
-0.0330473
0.00135128
0.031696
0.607827
-0.201677
-0.40615
-0.455998
0.539028
-0.376898
0.464738
-0.54796
0.608161
-0.161137
-0.0108442
-0.000560003
0.12983
-0.474903
0.314926
-0.700319
0.41223
-0.00282854
-0.103139
0.151245
-0.0224046
-0.12884
-0.354278
-0.137945
0.492223
-0.201044
-0.347567
-0.1567
-0.421493
-0.167576
0.589069
-0.202671
0.279757
-0.0770858
-0.498619
0.331079
0.16754
0.477261
0.0704809
-0.0326304
0.0388106
-0.00618019
-0.193901
-0.0893571
0.283258
0.561107
-0.175902
-0.452679
0.268122
-0.181538
-0.362769
0.544307
0.169395
-0.579117
0.409722
-0.396656
-0.187386
0.131266
0.355617
-0.486882
-0.139611
-0.108985
-0.274337
0.210012
-0.0603711
0.13576
0.224866
0.440354
0.174012
0.130507
0.26288
-0.393387
0.0499868
-0.190568
0.140581
0.16731
0.0279019
0.0802474
-0.158505
-0.144264
-0.255488
0.075315
0.238158
-0.313473
0.266907
-0.374067
0.293423
-0.403733
0.11031
8.71741e-05
-0.00243169
0.468181
-0.29856
0.187532
-0.300312
0.11278
0.00214873
0.534948
-0.534948
0.083532
-0.0302267
-0.0533053
-0.149048
-0.450333
0.59938
-0.0160816
0.0618755
-0.0457939
-0.209649
0.284964
0.287449
0.111266
0.0472083
-0.0564415
0.0476255
-0.534147
0.352609
0.0154069
0.0986293
0.103737
-0.596411
-0.111785
0.24903
-0.190362
-0.0824814
0.272844
-0.151228
-0.0256333
0.176861
0.0198014
-0.0733752
0.0535738
-0.108999
0.371085
-0.137234
-0.0210982
-0.136717
-0.0228352
0.165361
0.108001
-0.540278
0.432276
-0.579923
0.320626
0.0657453
0.162142
-0.227887
-0.0798569
0.0559006
0.0239563
0.0824519
-0.00111206
-0.697501
0.413518
-0.0405664
0.00793596
-0.570424
0.42723
0.111995
-0.536492
0.51904
0.0174526
-0.216089
0.305347
0.137011
0.344668
-0.481679
0.527627
-0.0628892
0.294932
-0.221462
-0.61241
0.444821
0.167589
0.578331
0.129787
-0.153851
0.024064
0.0990171
0.0394735
-0.210403
-0.344642
-0.267767
-0.380843
0.243248
-0.000387745
-0.00231185
-0.428658
0.129413
-0.156922
-0.421048
0.0659669
-0.0192268
-0.253011
-0.174067
0.427078
-0.433787
0.2911
0.142687
0.278688
-0.0890168
0.147957
-0.585833
-0.263604
0.073621
0.0819162
0.382946
0.166346
0.263905
0.00940929
-0.424295
0.555466
-0.341494
-0.213971
-0.0973436
0.606385
-0.44842
-0.157965
-0.0202146
0.0479472
0.04662
-0.0605784
-0.125278
-0.226718
0.351997
0.250849
0.37435
-0.37201
0.490887
-0.358613
-0.132274
-0.0729933
-0.170716
0.296781
-0.197118
-0.436366
-0.148681
0.585047
-0.427069
0.517348
-0.0902793
-0.308642
0.00193667
0.153424
-0.287475
-0.0349026
0.00305328
-0.306153
0.408725
-0.330648
0.0593371
-0.0628901
0.182403
0.448618
-0.086457
-0.206155
-0.397462
-0.0583443
0.0207317
0.0376126
-0.321239
0.10957
0.211669
0.141984
0.0320296
0.0438106
-0.00314232
-0.693881
0.427608
-0.529235
0.38671
0.249623
-0.195441
-0.525581
0.117986
0.407595
0.12538
0.251545
-0.376925
0.0443493
-0.0441604
-0.132541
0.478129
-0.152823
0.535768
0.0272312
0.108558
0.0290887
-0.137646
0.102304
-0.0844388
-0.017865
-0.186539
-0.353299
-0.444195
-0.146811
0.591006
-0.415162
0.568104
-0.152942
-0.63001
0.202644
0.427366
-0.448576
0.143041
-0.113276
-0.111845
0.40809
-0.130743
-0.145428
-0.0428296
-0.170803
0.129602
-0.430143
0.144242
0.0399422
-0.184184
0.279628
-0.157363
-0.329607
-0.269603
0.172276
-0.0302928
-0.00150705
-0.00219027
0.140086
-0.160628
-0.0495884
0.0801754
0.311078
0.176019
-0.487096
0.0861008
0.404786
-0.193042
0.308485
0.1089
0.174512
-0.283412
0.371193
0.18043
-0.523463
0.387051
0.0259037
-0.0186698