/*--------------------------------*- C++ -*----------------------------------*\
| =========                 |                                                 |
| \\      /  F ield         | OpenFOAM: The Open Source CFD Toolbox           |
|  \\    /   O peration     | Version:  v2012                                 |
|   \\  /    A nd           | Website:  www.openfoam.com                      |
|    \\/     M anipulation  |                                                 |
\*---------------------------------------------------------------------------*/
FoamFile
{
    version     2.0;
    format      ascii;
    class       volScalarField;
    location    "50";
    object      ddt0(epsilon);
}
// * * * * * * * * * * * * * * * * * * * * * * * * * * * * * * * * * * * * * //

dimensions      [0 2 -4 0 0 0 0];


internalField   nonuniform List<scalar> 
14315
(
-0.00119966
-0.000359352
-1.29834e-09
-1.91525e-08
-4.07474e-08
-1.23653e-09
-0.000412165
1.32985e-09
-5.02059e-09
-4.79713e-10
-3.73417e-06
-0.000235907
-0.000984192
-2.04068e-10
-0.000190216
-7.6805e-11
5.45204e-10
-1.72606e-09
-1.00677e-08
-8.15368e-09
2.14214e-09
-0.000413349
-9.44341e-09
-0.000228569
-2.04519e-08
-0.000364035
5.91428e-11
-0.000420545
2.01184e-08
-2.52052e-07
-3.65188e-09
1.42349e-09
1.60626e-10
-0.000341909
-0.000302952
-0.0004072
7.67863e-06
-2.33169e-10
-8.8938e-06
-3.29007e-08
-0.000636502
7.47879e-05
-9.72865e-10
3.74958e-10
-6.92609e-09
-1.80796e-08
4.31046e-08
-0.000124293
-0.000117632
-4.4289e-09
-9.83478e-05
-1.96144e-08
-0.000203704
-0.000177053
-2.52959e-09
-0.000418738
4.46779e-05
-5.42858e-09
-3.95235e-10
-1.3019e-09
-1.95396e-05
-9.85082e-05
-0.000414582
-1.93149e-09
-5.33701e-06
-1.12694e-05
-0.00106978
2.18153e-10
-1.33782e-09
-2.75237e-09
-0.000174044
-5.16368e-09
-0.0003133
2.69811e-05
-4.59679e-10
-5.45848e-05
-1.44738e-09
-0.000405062
-6.14049e-09
-3.70463e-10
1.27683e-10
0.000281999
-4.81472e-09
-0.000427852
5.0169e-09
-7.45176e-10
-0.000208726
-0.00026254
-0.000206196
-3.56531e-06
-5.15495e-09
-8.4281e-09
2.98265e-10
-2.10013e-10
-0.000253337
-0.000239742
-1.51902e-09
-0.000164579
-0.000363578
5.89501e-08
2.60089e-09
-0.000102586
-0.000405323
-4.22572e-10
1.22402e-06
1.49694e-07
-9.25948e-05
-0.000225247
-5.67905e-09
-4.83558e-08
-0.000234269
-3.45237e-09
-9.38178e-05
2.18536e-09
1.18531e-09
-0.000268316
1.35088e-09
-0.000217194
-5.30655e-05
-0.000742727
1.98642e-05
-3.11505e-09
7.40074e-10
-0.000297049
8.38402e-08
-4.75076e-10
3.01782e-06
2.28532e-10
-9.11904e-10
-2.00848e-08
-0.000219215
-0.00025933
-1.59859e-05
-0.000258594
-3.86418e-07
-7.57938e-10
5.0832e-09
-0.00038903
-5.37625e-10
-9.40703e-10
-0.000404894
-0.000304139
3.07179e-09
-0.000170793
-4.99597e-08
-0.000225431
-9.82788e-09
-0.000405132
-1.50771e-09
-3.22567e-08
-1.27605e-09
-0.000209898
-7.5168e-10
-2.46072e-09
-4.14123e-08
-0.00020284
-4.74746e-10
-5.2367e-11
-1.22393e-09
-0.000388482
-7.03759e-12
-9.27964e-05
-0.000446917
-0.000237798
-6.52621e-10
-0.000232384
-0.000208562
-2.53068e-08
-5.32592e-06
-0.000242898
-0.000329051
-2.88483e-10
-0.00023646
-4.84577e-10
-7.81665e-09
-4.80224e-06
-3.46657e-09
-0.000412599
-0.000385571
-0.000214912
-5.30581e-06
-1.43304e-09
3.58604e-10
5.58841e-05
-7.18649e-09
-3.03582e-10
-5.26971e-09
2.95769e-06
-0.00030769
0.000341956
-8.79343e-09
-1.01513e-07
-0.000247522
5.64887e-05
-7.03842e-10
-1.36759e-05
-1.86688e-05
-1.80008e-09
3.02177e-10
2.96589e-06
-0.000262124
-2.45962e-09
-0.000265135
-0.000254811
-8.81911e-10
7.95773e-06
-4.06138e-06
-4.07273e-09
2.95772e-10
-0.000245531
3.85894e-06
-1.22333e-09
-0.000253989
-2.63436e-08
-0.000323068
-3.64394e-05
-0.000422588
-0.000381983
-0.000307653
-4.45034e-08
-2.2713e-09
-4.54291e-09
-1.64083e-08
-3.76226e-10
-0.000148761
-1.05118e-09
-2.82086e-10
6.62404e-05
-0.000298294
-0.00102682
-1.61775e-10
-2.23148e-10
-8.28282e-08
8.09396e-12
4.82731e-10
-1.72478e-05
-5.82705e-09
-4.24209e-09
-0.000314098
-0.000317053
-5.49631e-10
-4.10315e-09
9.11621e-05
-0.000293976
-2.50846e-05
4.93104e-08
-0.000443301
1.65264e-10
-0.00032681
-0.000213192
-1.98433e-10
-8.05875e-11
-0.000155113
1.58675e-05
-1.0856e-09
-0.000474841
-4.16456e-09
1.50336e-05
-0.00013088
1.02302e-07
-1.53224e-05
-2.71111e-09
-0.000253719
-0.00017312
0.000464474
-4.09767e-09
-8.12457e-09
-3.75983e-09
-7.63015e-10
-0.000197787
-0.000375941
-1.52213e-09
0.000344576
-0.000242881
-3.1559e-09
-0.000478958
-0.000514561
-6.32374e-09
-0.000135215
7.71528e-08
-4.79404e-09
-1.66866e-09
-0.000329928
0.000284063
2.44583e-09
-0.000228944
-0.000403342
-0.000105153
-0.000249009
0.000215019
-7.93789e-09
-4.46824e-05
-0.000250462
-0.000136619
1.10973e-06
-1.51165e-08
-0.000227078
-2.84148e-08
-6.45833e-10
6.65568e-10
-5.52948e-09
-5.03126e-05
-0.00043464
-0.000398909
-3.52481e-10
2.51224e-09
-0.000214797
-0.00040445
-7.30495e-10
2.25489e-11
-0.000371523
-4.28394e-10
-4.27488e-05
-0.000238265
-2.52459e-08
1.60024e-05
1.90948e-10
-3.82606e-09
-7.50762e-10
-3.90282e-11
-0.000279503
-8.10969e-05
-0.000253094
-4.61803e-09
-0.000780962
-5.44081e-10
-0.000233377
2.22043e-06
-1.45072e-06
-1.84124e-10
-3.22088e-09
-0.000228073
2.58524e-09
-0.000303396
1.44086e-05
-3.72625e-09
-0.000258512
-0.000170732
-0.000132975
-0.000436991
-1.92866e-09
-0.000364674
-7.33637e-10
-5.88006e-11
-0.000365126
-4.68367e-11
-1.91331e-12
-0.00043274
-2.84834e-08
-0.000240763
2.44962e-09
5.12796e-10
-0.000199695
-0.000294782
3.68645e-05
-1.04245e-09
-3.9492e-10
2.32723e-12
-5.24731e-11
-0.000204072
-4.62299e-08
0.000392004
-0.000405603
0.000383289
-0.000429896
-0.000102435
-1.18748e-10
-0.00026684
-0.000319974
-4.90084e-09
-0.000335184
-1.23635e-09
-5.2041e-10
-0.000463389
-0.000233178
-7.06196e-09
-8.46706e-10
-1.51495e-09
-1.44183e-09
4.1386e-05
-0.000168506
-4.76883e-09
8.00154e-11
-0.00035786
-2.3655e-08
-0.00046186
-1.90787e-08
-0.00046761
-0.00046801
0.00040302
-5.63939e-10
-0.000250064
-0.000145103
-0.000360256
-0.000232779
-0.000439936
-7.67462e-09
-8.06686e-10
-5.79161e-09
-0.000273712
-5.6878e-10
-4.17559e-10
4.03637e-10
-0.00011438
-0.000464062
7.68191e-06
-0.000262018
-7.70043e-05
0.000429612
-7.41279e-06
-1.07306e-10
-0.000331617
-0.000187569
-1.68862e-08
1.41972e-10
-9.14192e-10
3.80895e-08
-0.000150271
3.19244e-10
-4.83438e-06
-1.44355e-09
7.35409e-05
2.17537e-06
-3.52131e-10
1.71125e-09
-0.000168294
-5.50939e-05
-1.93141e-08
-5.51153e-09
-2.83911e-09
-8.13477e-05
-0.000400228
2.78794e-09
-4.70544e-09
0.000359975
-1.26002e-09
-3.7291e-08
-0.000251912
-3.95937e-08
-7.70783e-10
2.35455e-05
-5.13697e-10
-0.000238693
-5.47335e-10
-1.879e-10
2.17118e-07
-2.40349e-08
-0.000173825
8.2945e-09
-4.81515e-10
-0.000286599
-0.000302195
-3.78843e-10
-1.06002e-08
-1.97508e-09
-0.00023178
-0.00269425
-0.000167029
-0.000341507
-2.17328e-08
-8.2625e-10
-0.00027841
-0.000195816
-3.13784e-08
-0.000469885
-6.17893e-05
-0.000151889
-2.84703e-08
-1.07277e-08
-0.000211432
-2.58685e-09
-3.34464e-08
-0.000235227
-9.8023e-09
-0.000295004
-1.23629e-10
1.57357e-10
-8.58017e-10
-0.000239935
-0.000263606
-2.03355e-08
0.000329724
-3.41296e-08
-0.000250674
-0.000144869
-1.04159e-06
-3.90893e-09
-0.000426881
-1.93737e-09
-3.31292e-08
5.97381e-10
-0.000968225
-3.0579e-10
-1.46527e-08
6.02318e-05
-0.000221894
8.02103e-09
-3.88135e-09
0.000392724
-0.000401348
-2.20072e-07
-2.98246e-05
-0.00026353
-2.38818e-10
-4.55504e-10
5.3255e-10
3.23987e-05
-7.84216e-07
-2.15886e-09
-6.4887e-10
-0.000323766
-6.06868e-10
8.92619e-11
2.72655e-10
1.47801e-05
-0.000358981
-1.5313e-08
-0.00042964
-0.000298431
-4.12997e-08
-0.000237144
-1.41028e-09
-1.46176e-09
-1.31219e-07
-0.000174096
-0.000234472
-5.81283e-10
-2.27538e-09
-3.74425e-08
-1.15479e-09
1.23247e-09
-2.2038e-08
-2.12524e-09
1.84484e-09
-5.28552e-05
-0.000216871
-1.37939e-09
-0.000269874
-1.57503e-07
1.49944e-09
-0.000131034
-1.45892e-09
-0.000266696
0.000251732
-4.04504e-10
-1.17842e-08
-1.46904e-09
-1.39083e-07
-1.85134e-08
-0.000260734
-1.11502e-10
-1.45221e-09
-0.000378642
4.85339e-05
-0.000382477
-0.000182311
4.7347e-08
-8.55086e-10
-9.33778e-10
-4.51301e-09
-0.000230168
-0.000281438
-0.000207642
3.07395e-07
-3.4541e-08
-2.74853e-07
-1.69065e-09
-6.89491e-09
-6.83857e-09
-1.52493e-09
-0.000445181
-2.16903e-10
-0.00024824
2.87081e-07
-0.000201918
2.30879e-09
-8.43043e-09
1.27106e-09
1.3362e-05
1.78206e-10
-0.000463367
-2.3647e-08
-1.90695e-09
-0.000221511
-1.53793e-09
-1.48741e-09
5.53128e-10
-2.74209e-09
-7.05368e-07
-8.11555e-10
-0.000227764
3.56068e-09
-1.49251e-07
-2.22167e-08
-8.10465e-08
1.03919e-10
-0.000248066
-2.00353e-09
-0.000383333
-0.000238318
-1.10625e-08
0.000426623
-0.000115024
1.56631e-05
1.17002e-10
5.87757e-09
3.45516e-05
2.00486e-10
-2.18035e-09
-0.000256481
-0.000235512
1.21919e-07
-0.000268302
8.48221e-11
-3.06264e-06
-1.48104e-09
-3.13726e-08
-3.89797e-06
2.24138e-11
1.03807e-09
1.2552e-07
1.35297e-05
-5.94589e-10
-2.20063e-07
-0.000219431
-5.66918e-10
5.47724e-10
-0.000472067
-5.04072e-06
-0.000254554
1.6573e-10
-1.2052e-08
-1.10438e-09
4.72026e-10
-0.000210816
3.34542e-10
-0.000216349
-6.09637e-09
-0.000449865
-2.07935e-09
-1.30644e-09
-1.23404e-08
-4.45321e-09
-0.000118056
-0.000318097
-0.00021479
-1.11829e-09
-1.04266e-08
1.16677e-09
-4.51756e-09
-3.75893e-06
-0.000248346
-0.000421082
-2.20332e-08
7.23197e-08
-0.000895457
-6.50678e-09
-1.76407e-09
-6.91812e-08
-0.000389532
-1.23029e-09
-2.34666e-09
0.000349577
-0.000434727
3.7803e-07
9.08346e-05
1.3967e-10
-1.34398e-09
-0.000245435
-1.07266e-09
-0.000226598
5.04354e-10
9.39206e-08
-4.19531e-10
-8.65735e-09
-1.08277e-09
1.77474e-05
-0.000325041
-2.73194e-10
0.000354106
1.35816e-09
-1.25165e-09
-5.93989e-05
-0.00016304
-5.83277e-09
-0.000206009
0.000365324
5.22074e-06
4.96909e-05
-5.90946e-10
-2.00421e-09
3.65155e-10
-3.9898e-10
-8.79808e-09
-9.64201e-10
0.00430528
-0.000454945
-5.26248e-09
-3.86028e-09
-2.08283e-10
3.8043e-10
-0.000199435
-5.28806e-11
-2.05084e-08
-2.61929e-08
-4.26206e-09
-0.000265353
1.95298e-06
-2.21987e-09
-0.000477734
-2.1102e-09
-0.00039141
-8.28279e-09
4.1793e-10
-1.42972e-09
7.30723e-10
-5.68194e-09
-8.08513e-11
-1.12077e-08
-1.5969e-09
-1.41334e-09
-3.95255e-05
-3.12095e-10
-3.44341e-10
-4.57718e-08
3.61987e-11
-2.19088e-09
-5.70203e-08
-1.67868e-09
-1.18328e-05
6.55977e-10
8.11908e-09
-0.000459124
-0.000308082
-0.000213271
2.65901e-05
-1.59502e-09
-0.000254064
1.60895e-08
-1.12189e-09
-0.000159495
-1.296e-10
1.51964e-09
-1.21285e-08
4.7633e-09
-0.000224624
-1.28145e-09
8.2758e-05
-1.70911e-10
-0.000467031
-0.000322205
-4.23768e-08
-2.31572e-09
-0.000130579
-0.000449473
-0.000196531
-5.4495e-10
0.000557245
-1.22244e-09
-0.000110971
-3.61452e-09
-0.000230294
-0.00014691
-1.8349e-06
-0.000451532
-7.1132e-10
-0.000518925
-2.97078e-09
-1.19523e-08
3.12499e-05
-0.000329711
-9.70717e-10
7.23e-10
1.13822e-05
-0.000254583
0.00109923
-4.55068e-10
-0.00767763
-0.000234627
-0.000229063
0.000480845
-1.60102e-09
1.6906e-05
-0.00023262
-0.000329809
-1.06675e-08
0.000308647
-3.9045e-10
1.63863e-10
-2.22423e-09
-1.45832e-09
-3.41688e-09
2.44617e-07
-0.000397752
1.06856e-09
1.13361e-09
-5.29201e-09
-0.000391336
2.62218e-07
-3.08891e-10
3.6916e-05
-0.000260391
-0.000278686
-8.65325e-10
-0.000481153
4.44341e-10
-2.14999e-09
-7.60946e-09
7.6105e-07
-0.000123259
-9.9005e-11
-0.000230727
8.27309e-09
-0.000317587
-8.32804e-06
-2.4998e-08
-0.000442776
3.51135e-09
4.62655e-05
-1.50479e-09
-1.69703e-09
-1.19525e-08
-3.3299e-08
-1.10957e-09
-5.21741e-11
-2.91451e-09
-1.03633e-08
0.000123874
3.07684e-10
-7.2074e-10
-0.000409085
-0.000221058
-3.58426e-05
2.22975e-09
-1.35838e-09
-0.000206362
-1.32511e-09
3.98844e-10
-0.000239769
2.10755e-09
-0.000233993
-0.000421285
-0.000247757
-0.000153943
-0.000461308
1.16211e-07
-0.00128513
-0.000239168
-2.04503e-09
-1.43658e-09
2.91309e-09
1.97015e-06
-0.000479349
1.29044e-06
-0.000104223
-3.90986e-09
-2.50706e-05
-1.78821e-05
-1.95511e-09
-0.000933551
-8.3304e-09
-0.00022342
9.17183e-09
-5.20574e-10
-3.56264e-09
1.66093e-12
-2.43204e-08
-1.30416e-09
7.23217e-05
-5.15079e-09
1.09408e-09
7.02642e-10
2.59302e-05
-4.75305e-10
5.71937e-10
-1.00995e-09
-2.61637e-08
-3.26656e-09
-3.43944e-09
-7.31647e-09
-0.000143647
-1.43679e-09
5.36569e-10
1.3338e-09
2.02015e-05
-5.75627e-10
-0.00015691
2.92046e-09
-0.000398572
-5.24895e-11
-0.000260912
-0.000272802
-2.13083e-12
-0.00178096
-0.000341957
3.49612e-05
-0.000319691
-4.39779e-09
1.61214e-07
0.000435349
-0.000244447
-5.651e-12
-1.05078e-08
-4.56846e-05
-7.87443e-10
0.000358491
9.46483e-10
-0.000156424
-0.000237423
-0.000213283
-5.28592e-09
-0.000433377
-0.000394682
-7.87373e-10
-0.000155799
-8.606e-10
-6.53738e-10
-0.000243132
6.47748e-05
1.24042e-09
-2.85869e-08
0.00029314
-6.92183e-10
-0.000321957
9.79023e-10
1.47114e-07
-5.81911e-10
-0.000446968
-0.00017966
0.000209056
-1.17565e-09
-1.42381e-12
-0.000269028
-9.06289e-09
0.000305358
2.43435e-08
-4.96365e-10
1.41691e-05
0.00018292
-7.46677e-05
0.000269167
1.07918e-10
0.000461788
-7.43209e-10
5.93407e-10
0.00065044
-0.000285261
-0.000316022
-0.000233964
-9.61091e-05
-1.58436e-07
-0.00115299
-0.000418541
-0.000316584
1.53304e-07
-0.000127876
-1.39321e-09
-1.23344e-09
2.32339e-09
-3.40378e-08
-0.000241926
-3.05385e-05
3.20964e-09
-0.000440542
0.000518425
2.29435e-09
-4.47248e-05
-2.7731e-09
2.75662e-05
2.39234e-06
9.48932e-08
0.000474139
-0.000431138
-3.15268e-10
-0.000391881
-1.49896e-09
-6.02535e-11
-4.72011e-09
-5.3492e-10
3.39674e-05
-4.59231e-09
-3.52189e-10
-0.000468451
1.64782e-10
0.00030317
-1.42258e-10
-0.000236111
-1.80252e-06
-6.10081e-12
-0.000307463
-0.000213383
-0.000160994
-0.000128889
-0.000224255
6.08057e-07
0.000382536
-0.000101424
-1.72794e-08
-1.14818e-09
-0.000147642
-1.18787e-09
-7.41225e-05
-4.05059e-08
-7.032e-10
-0.000406635
-5.26255e-09
-0.000235106
5.69877e-09
-3.99461e-09
-0.000226969
-0.000228601
-0.000200309
-5.89616e-09
-0.000200122
2.24486e-06
-1.59744e-08
0.000110161
-0.000231976
-1.69554e-07
-6.60352e-08
-3.69321e-09
2.44435e-09
-2.33611e-09
-0.000228067
-0.00046403
-2.52325e-10
-0.000272708
-0.000176301
5.03719e-09
-8.35653e-09
-0.000247266
-5.63216e-10
2.48493e-05
0.000416359
2.20686e-10
2.56383e-10
0.000454261
-1.95887e-09
0.00435513
-0.000340257
-1.72236e-10
-0.000457608
-0.0001395
-4.33334e-10
2.97867e-11
-1.4585e-09
7.93163e-10
2.16728e-10
-0.0002762
0.00062888
-1.20197e-09
-3.64486e-07
-0.000229497
3.52604e-10
1.44181e-09
-1.33685e-08
-1.03673e-09
-2.08748e-09
-0.000259647
-1.40205e-09
-2.43058e-08
-0.000459165
1.75652e-09
3.24045e-05
-0.000329694
-2.06228e-08
6.35567e-10
-8.76223e-09
-9.47869e-05
4.14302e-11
-4.51667e-09
2.66037e-05
-0.000249699
-6.34866e-08
-0.00024511
-0.000298937
-0.000244645
-2.82362e-08
-1.81073e-05
-2.76775e-07
-0.000255684
9.28066e-06
-6.34703e-10
-0.000413749
-1.15972e-08
0.00127257
-2.07942e-08
-0.000217513
-2.27636e-10
-9.19993e-05
-4.56844e-07
4.35094e-10
-1.4169e-09
-1.94922e-09
3.12034e-05
2.00606e-09
-0.000323788
-0.00018037
-0.000465197
2.21463e-09
-0.000236604
-0.000302089
-1.02314e-09
-0.000164681
-1.09338e-08
6.39032e-05
-0.00026792
-7.47062e-09
-0.000349651
-0.000229991
-2.02631e-10
-0.00024686
2.08648e-10
-0.000195807
-1.41677e-09
0.000194374
-7.27826e-05
1.55058e-10
-4.30826e-05
-4.56582e-10
-7.24669e-09
-3.84309e-06
-1.15075e-08
2.66401e-05
-0.000174613
-1.88171e-08
-3.90997e-08
-5.33511e-08
-1.11338e-08
-0.000266284
-4.45721e-09
-0.000189082
-4.72221e-05
2.25313e-10
4.25916e-05
1.69862e-08
-0.000241202
8.05975e-10
-1.30025e-09
-0.00040903
-3.51247e-07
-1.51374e-10
-0.00030519
-0.000453731
-3.75744e-07
-0.000239212
2.29393e-07
-0.000202439
1.10343e-09
0.000292983
-0.000224174
-8.29589e-10
-1.03623e-05
-3.91428e-09
-0.00024205
1.76635e-06
-3.0422e-10
-0.000453996
-1.65496e-08
-6.75172e-11
2.11229e-07
-0.00047814
-3.29356e-07
-3.45524e-09
-1.04835e-07
-0.000308307
-3.40825e-09
-1.31336e-07
-1.86178e-08
-7.12617e-11
3.15352e-09
-9.29507e-10
-0.000276787
6.3095e-11
-0.000248983
2.05808e-10
-0.000179536
-3.5616e-09
-0.000282467
0.000365999
-5.92066e-10
-1.05384e-09
-5.1316e-09
-5.92489e-08
0.000289336
9.02793e-10
-0.00024714
2.77559e-07
8.52885e-10
-0.000227874
-0.000456686
0.000318566
-0.000296843
-1.31583e-10
-0.00026041
-0.000157921
2.16459e-06
-0.000236011
0.000593931
-2.90988e-09
-5.4315e-06
2.75282e-10
2.74736e-08
-6.41257e-08
-3.89382e-10
-2.04279e-08
-1.33418e-09
-3.42243e-10
-0.000300616
-0.000434268
-0.000451363
-2.17072e-08
6.18603e-05
-1.05237e-05
-1.48735e-10
-2.17761e-09
-0.000468447
-1.96978e-07
-2.14305e-10
-6.55017e-05
-0.000397701
-0.000289738
-0.000224116
-0.000471317
5.40878e-10
-2.08538e-05
1.3165e-10
-8.46379e-05
3.77307e-10
-5.27617e-08
3.41374e-05
3.44999e-07
-2.119e-09
-1.81437e-09
-0.000217499
-2.78365e-09
-0.000283547
7.70918e-09
0.000515712
-0.000290093
0.000800505
-0.000361443
-2.08702e-08
5.37478e-08
-1.29572e-09
-0.000250638
-0.000353624
1.52345e-05
-0.000429504
6.1957e-10
-4.61783e-09
-8.08712e-10
1.8386e-05
-9.13344e-10
-0.0001619
1.18345e-10
-0.000413214
-0.000101219
-8.34666e-06
-0.000236759
-9.72996e-10
-1.25149e-09
-3.80512e-05
-9.19904e-11
-6.70877e-05
1.96245e-10
-0.00010465
-1.49797e-09
-0.000241642
0.00274864
-4.05683e-08
2.20427e-09
0.000197416
-0.000437498
-5.40314e-10
-1.92438e-08
-1.09106e-09
-0.000319739
-1.39906e-09
-1.06294e-05
-7.66699e-05
-0.00024519
-0.000341003
-0.000204058
-2.99497e-06
-4.25381e-10
-0.000133797
1.39437e-08
-1.12624e-08
6.80328e-07
-3.19121e-09
-6.45528e-09
-1.71647e-10
1.39347e-08
2.49991e-09
-3.46855e-05
-0.000364546
6.3511e-07
2.61159e-11
-2.38985e-12
-0.00122938
-0.000227781
-0.000369323
3.66856e-10
-1.03729e-12
6.10566e-05
3.8623e-07
-3.78693e-11
7.18818e-06
-1.82104e-08
-4.04529e-09
-8.27925e-10
4.98963e-07
2.97234e-10
0.000340566
-6.67693e-07
-4.21348e-09
-8.2863e-10
-4.98248e-05
-0.000362458
5.99044e-05
-0.000676176
1.01279e-09
-5.49988e-10
2.47735e-05
-6.41046e-09
-0.00120137
-2.15136e-07
1.72833e-11
5.65137e-10
-5.45557e-05
-1.60293e-09
-5.7639e-09
-7.11194e-10
3.90339e-09
5.4841e-10
-0.000148418
-0.000343531
-0.000673607
0.00061403
-0.00041645
0.000587694
-4.38882e-08
-1.91283e-08
5.19479e-11
-2.78481e-08
-1.23563e-08
-8.71285e-09
-7.33538e-09
0.000187129
0.000530753
-2.18492e-09
-2.14394e-10
0.000504555
2.10489e-07
-4.32009e-06
-0.000259346
-0.000223359
-0.000341547
3.4064e-09
-9.14931e-10
-3.65476e-09
4.62663e-09
-0.0001614
-0.000406331
-0.000248589
3.44284e-06
-6.17299e-08
-0.000432175
-0.000114848
-6.60747e-10
2.05724e-06
-4.92363e-10
-5.96134e-10
-3.78705e-06
-1.37698e-09
-2.41619e-09
-0.000456381
-0.000249141
-0.000573423
0.000298656
-0.000408087
2.93601e-09
-1.39015e-11
-9.08033e-05
-3.50536e-08
3.02889e-09
-0.000225831
-0.000108585
5.29483e-11
7.22286e-10
-5.08874e-09
-3.088e-10
4.23119e-05
-6.29554e-10
-1.74727e-09
-4.44325e-08
-1.30042e-08
-9.70975e-08
-8.16441e-09
-4.83755e-11
-1.36054e-05
3.48296e-05
7.3049e-10
5.12555e-09
4.82592e-07
3.11449e-05
-0.000116673
-2.04627e-11
0.000102937
-1.15861e-08
-9.4804e-10
5.0109e-05
8.65786e-14
-1.34364e-09
1.71349e-09
0.000609311
-0.000136679
-0.000244979
-0.0003982
-0.000441187
0.000224057
7.73455e-06
-4.46989e-09
1.55856e-09
7.38688e-06
-1.18586e-09
-9.16644e-10
-0.000131895
1.60682e-09
-0.000817585
-1.4385e-08
-4.37368e-10
-1.0563e-09
-2.43286e-08
-0.000235131
-2.8441e-08
8.29322e-11
-5.11943e-09
-0.00047537
-1.01645e-08
-1.96253e-09
-3.65699e-09
-0.000424143
-9.38559e-10
-0.000117553
-0.000315144
7.54073e-10
0.000550333
-9.04635e-10
2.7537e-10
-3.40641e-09
-1.02172e-09
-1.31488e-09
-0.000433233
-0.000433588
-0.000242115
0.000557919
-4.25619e-09
-0.000146801
-6.9893e-09
-0.000320377
-0.000302546
-3.63522e-09
0.00247834
-4.22724e-09
-3.91381e-08
2.99621e-09
-1.18436e-09
-1.19336e-09
-0.000320372
-0.000231311
-0.000411052
0.000410824
1.21238e-09
-3.32801e-07
-0.000468775
-0.000200564
-0.000269475
-0.00027686
2.63482e-09
2.13868e-09
-9.70036e-08
-5.93318e-09
-1.828e-09
1.85323e-10
-0.000656479
-2.02764e-09
-1.83257e-08
-0.000260416
-2.3662e-09
-3.03585e-11
0.00231657
-1.62736e-08
-0.000225781
7.59473e-10
-1.76047e-05
0.000501342
0.000238623
-0.000803525
7.20401e-10
-0.000349879
-1.13979e-08
-2.30129e-08
1.88767e-10
-0.000241492
-1.20582e-09
-3.12928e-10
-0.000466078
-1.31471e-09
-0.000254362
3.70424e-10
6.23516e-05
3.11037e-09
8.505e-05
-3.50486e-09
6.9966e-05
1.62608e-10
-9.87543e-11
-1.91389e-09
-1.00655e-08
-5.81452e-09
5.25421e-06
-7.20826e-09
-0.000245155
9.83919e-06
-5.54921e-08
-5.57171e-09
-2.72531e-09
-0.00021548
-8.53896e-10
3.13377e-08
-0.000432154
-4.08397e-09
-0.000418137
-0.000439735
-0.000485029
-1.77095e-07
-9.50256e-11
0.000271007
-0.0001917
1.55904e-10
-1.61918e-10
-0.000419686
1.59463e-05
-0.000356434
-6.05267e-09
-1.86796e-09
-1.08638e-09
-0.000407515
0.00023895
-2.16507e-10
-8.56449e-05
-0.000432873
1.36968e-09
-3.17115e-09
-9.71718e-10
-5.23155e-09
-1.84872e-09
-9.90406e-11
-0.000356813
-0.00035317
-0.000136626
2.37153e-10
-2.44856e-09
-1.23311e-05
8.2602e-05
-9.39002e-10
-0.000152084
-2.94688e-09
-1.02611e-09
-4.64156e-09
3.78206e-11
-1.13601e-09
2.07607e-06
2.01524e-09
0.00140023
-0.000382931
-1.41938e-10
-6.47211e-08
4.2587e-05
-1.8044e-08
-2.52641e-09
0.000933578
-4.03645e-09
-4.15145e-09
-7.36794e-09
1.6073e-09
-0.000254255
-0.000259688
-2.09309e-08
6.85632e-09
-0.000480299
-0.000275071
-4.44995e-09
-1.40831e-08
-0.000455318
-0.000506473
-6.62164e-05
-0.000314213
-0.000268363
-1.97727e-09
-6.94246e-10
1.13547e-10
4.20915e-06
-6.11739e-10
1.08458e-06
-0.00039778
1.46806e-05
-1.66165e-10
-0.000443322
-0.000273209
6.15031e-10
-1.05151e-08
-1.95061e-10
-0.000237062
5.19552e-10
-0.000222048
-1.41224e-09
-0.000440579
6.68125e-10
-0.000356543
-0.000261737
-0.000459133
2.91214e-09
-0.000233567
2.69826e-09
1.52786e-09
-0.00042681
8.442e-10
2.44197e-09
-1.31337e-09
7.17708e-09
9.36845e-07
-1.08708e-09
0.00031194
-1.60166e-09
-0.000154174
-0.00038407
-8.70134e-09
4.08236e-06
-2.38908e-09
-7.19594e-09
-0.00039214
-0.0011054
-0.000299517
6.17105e-05
-0.0004601
2.43081e-05
-0.00204404
-0.000257921
8.57736e-10
-7.39604e-10
-4.268e-11
-3.51638e-11
-1.12774e-08
-0.000358471
-0.000463565
1.77955e-09
-5.904e-10
-1.29291e-08
-0.000312434
-2.57485e-09
5.66516e-10
-0.000417293
-2.30908e-09
6.93614e-07
1.11077e-09
1.01633e-07
1.97073e-10
-0.000429981
1.85511e-10
1.1479e-05
-9.81643e-07
-6.73082e-10
1.27096e-10
-7.51692e-10
-5.15791e-09
-1.36067e-09
-0.000415132
-0.000305059
1.74523e-09
-0.000236445
-0.000289404
-5.06808e-10
-6.03922e-08
-0.000397097
4.73864e-08
-0.000391919
-2.88487e-10
1.62191e-05
-7.80503e-09
-0.000228122
-3.05226e-11
0.000350788
-1.96012e-08
-1.70212e-08
-1.65438e-09
7.04575e-05
0.00140542
-0.000225993
9.85098e-11
-0.000224258
0.000597898
-0.000418252
-2.45628e-09
-6.67187e-11
-0.000167421
-0.000170854
-1.5888e-09
-0.00113467
-1.05059e-09
-0.000228996
-5.75156e-05
-0.000244325
-1.40028e-09
-1.79228e-09
-0.000390059
-0.00031713
1.14677e-05
-1.34469e-09
2.45288e-10
-1.43034e-09
-4.14598e-09
4.86907e-10
-2.13872e-08
-4.5303e-10
-5.07506e-10
0.000586232
-7.87369e-05
1.80587e-05
-1.02197e-09
-1.35339e-09
-0.000214126
-0.000230089
-4.6774e-09
-0.000438763
-0.000274565
-4.3785e-10
-0.000471713
0.000287157
4.46945e-05
-0.000414594
-1.45823e-08
-0.000425389
-4.131e-08
-3.7048e-08
-2.86545e-08
2.92484e-10
0.000185583
-0.000230886
0.000209654
-1.03415e-06
-3.19267e-10
-0.000228903
-1.30204e-08
-2.42171e-08
3.20422e-05
-1.00978e-09
7.44829e-08
-1.3903e-09
-1.18423e-08
-0.000242898
1.26171e-10
2.08522e-07
4.62937e-09
-0.000408961
-1.64529e-07
-1.4877e-09
-4.47672e-09
-1.57416e-08
4.53052e-10
-0.000419921
-4.86523e-10
5.36676e-11
-8.66517e-10
0.000456263
4.19692e-06
-0.000240232
2.54563e-05
1.23594e-10
-2.43642e-10
-4.00862e-10
-7.2309e-08
-1.45881e-10
-0.000346934
-0.000263447
1.95825e-10
-1.10953e-07
-7.13288e-09
-5.41695e-09
8.1801e-10
1.61627e-10
-0.00043336
-6.51378e-09
-9.77751e-09
-0.00150656
-3.61406e-09
-3.27691e-09
0.00163592
8.20994e-10
-6.73933e-05
-6.42725e-06
-0.000466316
0.000908068
-6.45371e-07
-0.00027501
-0.000262186
-1.91752e-10
-0.000233871
-4.16217e-08
3.25173e-09
-4.11126e-09
0.00022642
-2.86067e-09
2.84063e-10
0.00113795
-0.000349888
-0.000427315
-2.86762e-09
8.0612e-10
2.03012e-10
-3.8752e-11
-4.96686e-06
-7.15465e-10
-1.30735e-09
-0.000122151
-0.000243057
2.46806e-05
-0.000437181
-0.000222902
1.90849e-07
9.0605e-10
-1.99835e-08
-0.000281149
5.52341e-10
-6.89428e-09
-0.000371875
-3.07066e-09
-2.54399e-09
-9.62957e-11
-9.27302e-10
-5.66372e-10
-6.76973e-10
-0.000442785
-0.000247166
1.95821e-09
-7.91181e-08
-2.59959e-07
-0.000263598
-3.78733e-09
-1.96304e-10
-1.38338e-09
4.76328e-10
-0.000112044
-5.13446e-10
-6.68238e-10
-2.91434e-08
-0.000148429
2.32556e-09
-2.69258e-09
-0.000131784
-4.73146e-09
-1.68952e-07
-6.39259e-09
1.1512e-09
1.02781e-09
-1.05769e-10
-6.08467e-10
-3.20255e-11
-5.31703e-09
-1.7426e-06
-7.14825e-10
-0.000448295
-7.43822e-09
-0.000265159
-5.66334e-09
-8.26436e-10
7.22176e-10
-1.0668e-08
-1.30513e-09
-1.47828e-05
-0.000401916
2.61e-10
0.000419869
3.25682e-10
6.35365e-05
-9.90529e-10
-7.30604e-10
2.89639e-09
-0.000177023
-0.000242735
0.00851615
-0.000430164
-1.8296e-09
-3.71982e-10
-0.000262868
-7.58892e-09
-1.60287e-07
-1.53361e-09
-2.27843e-10
-1.40589e-07
-1.60661e-08
-2.98884e-09
3.82677e-05
-0.000389701
-3.22908e-10
-0.000416443
-0.000227783
-0.000230137
-1.12721e-09
-0.00026848
-0.000253208
4.02454e-10
-2.32297e-10
-5.71376e-11
-4.00013e-09
-0.000249281
-7.39933e-10
8.30723e-05
2.6254e-05
-8.24461e-05
0.000543324
-2.07794e-07
-6.30726e-09
-0.00163774
-0.00026687
-6.71172e-08
3.25467e-05
2.46651e-10
-9.43565e-05
-1.61571e-08
-3.81183e-05
5.20861e-05
-4.7243e-10
-5.96734e-10
2.6284e-11
-6.07538e-05
-6.34338e-10
-1.08537e-08
-0.000309928
1.0076e-09
-0.000186575
-3.27549e-09
3.52012e-11
-7.55936e-08
-1.8104e-09
-0.000148288
1.0101e-09
-0.00112587
-5.87286e-10
-0.000185428
-0.000180553
-0.000410854
-4.0002e-09
2.9072e-11
-7.35045e-10
8.24171e-11
2.20664e-11
5.11599e-06
-0.000168
-0.000400787
-9.32693e-05
-2.38334e-05
1.6996e-05
-1.65272e-08
-5.52267e-10
-6.34218e-10
-6.81129e-10
-3.02003e-10
-0.00023325
9.37553e-09
-0.000243817
4.17281e-10
-0.00107661
-0.000196415
-6.77402e-09
-1.72143e-09
-4.5332e-08
-0.000414303
-2.29286e-09
2.83136e-09
-6.07565e-09
-0.000824019
-3.33737e-05
-0.000189576
-5.33897e-05
5.77587e-10
4.98892e-05
2.75733e-10
-0.000392613
-0.000457321
-2.78918e-09
-5.31935e-09
5.8939e-11
-0.000234382
0.000600255
-3.8525e-09
-0.000142476
-0.000115787
-2.64541e-07
-0.000239086
-1.30125e-09
-0.000312447
-5.16384e-05
-0.000562301
-2.57623e-08
0.000257735
-9.14255e-07
-0.000119
9.5664e-09
-4.33654e-09
-0.00109824
-0.0189678
0.000549403
-1.18696e-09
-0.000417209
5.65316e-05
-1.36194e-09
-5.2869e-10
-5.47735e-09
6.64425e-09
1.2023e-10
-1.91508e-10
-1.69778e-09
-1.54396e-09
-0.000275995
0.000652668
-1.59043e-11
-0.000255199
-0.000252123
-0.000277443
-5.67733e-10
-1.34793e-09
5.99879e-10
-0.000175837
-0.000436946
5.39835e-05
-0.000125662
-5.24778e-08
-2.46155e-05
5.54365e-05
-2.77106e-08
-9.30139e-10
-3.75579e-10
-0.000369558
-1.16362e-08
-0.000336994
-2.42647e-06
-0.000521933
1.26097e-05
-0.000460514
-0.000393273
-4.143e-09
2.5356e-08
-0.000475879
-0.000152474
-0.000465565
-1.58313e-05
-3.1429e-10
-0.00011046
-0.000207812
-0.000241539
0.000255266
0.000111525
2.24736e-08
-9.45067e-09
3.0559e-05
-0.000313848
-7.92791e-10
-1.46267e-09
0.000147594
2.27247e-08
-1.83029e-09
-0.000247152
-0.000310699
-0.000306171
-0.000565003
-0.000288804
-0.00042364
-0.000285414
-3.98435e-10
-0.000135304
-0.00011309
-0.000270166
-0.000493611
-0.000330823
4.43245e-06
-0.000287575
-0.000359607
7.13536e-10
-5.42237e-09
-8.74732e-10
-1.16758e-06
7.80416e-05
-0.000278913
-0.000362881
-8.78285e-05
-2.01466e-07
-0.000484787
5.95758e-06
-6.5869e-10
-0.000231947
-7.15568e-10
-9.80755e-05
-1.69003e-10
0.00103389
-0.000421076
-5.27006e-10
-8.11329e-10
-2.11349e-09
-3.30003e-09
-1.08327e-08
2.16455e-08
8.45399e-06
-6.93439e-11
-6.71938e-07
-0.000246314
2.78801e-09
-0.000114523
-7.67775e-10
-0.000454869
-1.04574e-07
-1.84191e-08
-0.000309964
-1.47979e-10
-1.97967e-08
-0.00595607
-0.000194075
-0.000235071
3.78313e-05
-8.35834e-08
-4.96614e-09
-1.96124e-05
0.000163544
-0.00010185
1.42689e-11
-0.00017075
6.57307e-10
-0.00041253
0.000648015
-4.81095e-10
-0.000151062
-1.5399e-09
5.03806e-10
-0.000206254
4.46529e-10
-6.58863e-09
-0.000460105
-7.60721e-10
-0.000450832
-1.0103e-08
-0.000212765
-0.000472358
-9.4003e-09
-0.000250791
2.08154e-11
1.12906e-06
-1.02329e-08
-0.000118944
-1.6103e-09
-0.000285712
2.25463e-09
8.41212e-11
1.32378e-06
-3.09777e-09
1.73599e-09
3.0199e-10
-3.27112e-08
-0.000571972
-3.82105e-10
0.00217875
-0.000338406
8.33986e-06
-0.000377176
-0.000328557
-8.69409e-08
-1.15074e-09
6.50562e-05
-0.000251345
-0.000545902
-1.91846e-09
1.26935e-10
-1.21095e-09
6.10735e-10
-3.10959e-09
-0.000330157
-0.000102997
4.10011e-07
-0.000277398
-9.56922e-09
-0.000204308
-6.7683e-09
-4.09775e-06
1.3826e-06
-1.15364e-09
-0.000215747
-1.74431e-08
0.00061163
5.21418e-05
0.00320645
-5.05089e-10
-0.000269259
-3.79608e-09
-1.06309e-10
-0.000155206
1.73364e-09
-1.38624e-08
-5.45805e-10
4.68771e-11
-0.000259848
1.21127e-09
-2.21216e-08
1.72669e-10
-0.000273722
-1.45282e-09
2.84241e-10
-7.51802e-10
-1.37445e-07
1.39989e-06
-1.87392e-08
-1.30838e-08
-7.104e-06
-4.30433e-09
-2.06436e-08
-9.71812e-10
-2.39702e-08
7.73126e-05
-2.78979e-09
7.5255e-07
-1.37443e-05
-3.15151e-09
-0.000453589
-0.000349605
-5.20575e-10
5.07694e-07
-0.000353146
-0.00135464
5.82715e-05
2.22916e-06
8.91124e-07
-6.78066e-09
3.79391e-09
-2.43848e-09
-0.000319974
-0.000349497
-0.000439606
-3.80149e-09
2.57171e-08
-0.000218179
-8.2527e-08
-0.000347291
-6.07208e-10
-0.000274551
-5.08882e-09
-0.000217886
-1.17028e-09
2.32523e-05
-0.000339344
-2.96439e-09
-4.35267e-09
-2.61754e-10
-1.095e-09
-1.74147e-05
-0.000432418
-0.000362114
-1.18255e-08
-1.15892e-09
-0.000240265
7.6054e-05
9.2689e-11
-0.000343725
-0.000387873
-2.06227e-07
-1.13817e-09
-0.000432181
4.50356e-08
-3.6842e-10
-0.000345561
0.000226575
-0.000435168
-0.000161525
-0.000174516
4.33365e-06
-0.000172171
-6.46204e-09
-4.83423e-09
-2.0465e-09
-4.45625e-09
-2.59596e-09
-0.000349058
-0.00022354
2.99267e-09
-1.14582e-05
-0.000180974
-0.000252233
-0.000262166
-0.00016929
-0.00039234
4.26542e-10
-0.000193054
-0.00045181
-1.61512e-09
2.18004e-06
-5.29851e-09
-0.000248345
-0.000205482
-1.19848e-09
-1.03342e-08
-0.000208859