/*--------------------------------*- C++ -*----------------------------------*\
| =========                 |                                                 |
| \\      /  F ield         | OpenFOAM: The Open Source CFD Toolbox           |
|  \\    /   O peration     | Version:  v2012                                 |
|   \\  /    A nd           | Website:  www.openfoam.com                      |
|    \\/     M anipulation  |                                                 |
\*---------------------------------------------------------------------------*/
FoamFile
{
    version     2.0;
    format      ascii;
    class       volScalarField;
    location    "200";
    object      ddt0(omega);
}
// * * * * * * * * * * * * * * * * * * * * * * * * * * * * * * * * * * * * * //

dimensions      [0 0 -2 0 0 0 0];


internalField   nonuniform List<scalar> 
13749
(
2.03197e-07
0.0075126
-8.73951e-07
0.00047052
-0.000155131
0.000812374
-0.0488977
-1.6102e-05
-2.29328e-06
0.00097919
-0.00980775
5.05137e-07
-0.00320008
0.0757137
0.00631916
6.15592e-05
-5.64398e-06
0.023329
3.09792e-08
1.58397e-07
-0.0252824
0.00504661
-0.200502
-0.000809629
-0.000315826
-0.00349734
0.00107479
0.00112859
-8.34974e-07
0.000272913
-0.379396
0.0136179
0.000670847
-0.000529776
-8.32283e-07
6.57516e-07
-1.62917e-06
3.29168e-05
-0.000371048
-0.00163226
0.000677747
-0.248369
0.000490395
0.000410124
0.0148332
-0.000724288
-1.16373e-07
-0.00810873
-1.96011e-07
-0.0134238
-0.00273595
-0.0261002
-0.00180093
0.0167954
0.000474735
-1.73291e-06
0.00279835
-0.00342053
-7.24223e-07
-0.801396
7.595e-07
0.000119255
0.000592062
-3.54165e-07
2.17213e-06
0.00131713
5.09957e-07
5.27228e-06
4.92163e-06
-9.15814e-05
-0.00115709
1.16503e-08
-0.681219
-1.00176e-05
-0.012783
0.0881136
0.000150238
-1.91716e-06
0.00371558
4.30478e-08
7.01953e-07
7.22171e-05
0.00267601
-9.2735e-07
-0.00496389
-0.052077
0.151533
0.122079
5.09087e-06
-0.00165688
2.31558e-09
0.409249
0.000104708
3.25416
-0.11161
-0.00944494
-0.000117423
-8.39324e-08
2.16607e-08
0.00100661
-9.82152e-05
2.04123e-07
-3.95141e-05
-0.0109412
-3.13841e-09
-0.0130263
0.0170959
2.6504e-06
-0.0043388
-1.43684e-07
6.62982e-07
0.00123444
0.0242905
-0.0950795
-0.012946
2.52758e-05
-6.47323e-08
0.00380091
0.000119148
2.0905e-06
-1.64908e-05
3.61384e-09
1.36981e-07
1.51785e-07
-0.000268458
0.000480845
0.00175357
0.00889894
0.00182797
1.1234
0.000410693
-0.0405645
0.0554155
-0.0395414
-0.000265887
1.81606e-05
-0.0108408
2.70298e-06
7.01684e-06
-0.0879873
0.00179571
-0.000840526
3.93413e-05
-0.0320616
-2.81008e-08
0.0336525
-0.00139521
0.000618233
3.19361e-05
0.0150224
-2.09931e-08
0.0014486
-0.0176048
0.0248451
0.000280878
-0.00724237
0.00283371
-0.00193362
0.0102634
-1.82395e-09
-0.231146
-3.08151e-09
0.0202784
0.0019465
-3.46249e-07
2.97184e-06
0.0971565
1.53519e-06
0.000152434
-0.00312762
-0.000283654
-3.31049e-07
2.43124e-06
0.00117058
-3.30487e-05
-0.0477484
0.0593436
0.000159277
0.00959658
-0.0159343
-1.56917e-08
0.000828283
0.000419562
-0.00700602
-0.282659
0.000169101
-0.0224845
1.03919e-05
2.27751
6.01966e-06
0.000166228
-0.0957897
5.97619e-05
0.0304293
0.0107255
-0.0183425
0.00346531
0.033241
1.94691e-07
0.00122564
-8.12179e-08
-0.00456086
0.000919213
-0.000641471
-0.0276578
-5.4952e-05
-1.65829e-06
0.074816
-0.0835586
0.0357493
1.11973e-05
0.105454
0.0637657
-0.175958
-0.0010367
-0.0334862
-0.0194184
-0.0025149
-0.0277891
-2.92417e-07
-5.18794
0.000471158
-0.0474071
-1.05959
-0.000275467
0.049983
-5.13246e-05
0.0020439
-0.0175957
0.103621
-1.18792e-07
-4.68564e-10
-4.26062e-09
1.0384e-07
0.00865352
-0.000487648
0.0494043
-0.167549
1.72143e-08
9.15964e-07
0.000313911
-0.229517
2.64309
-0.051414
0.00867889
0.00577542
0.000578319
-0.0253306
0.000494073
-3.13283e-07
-0.0206526
0.000178098
-4.09737e-10
8.562e-05
0.00331267
0.000404263
-2.49422e-06
-0.0054122
-0.0591268
-0.0867769
7.27138e-07
-0.000771195
-0.00864862
4.11909e-05
-3.42228e-05
0.0100687
-0.0458436
-0.00226428
0.00605776
0.0021617
-2.11039e-10
-0.0311954
-0.00230226
-0.0356864
4.10059e-05
0.00423801
0.151816
0.00023001
0.00397329
0.000838692
3.70793e-06
-7.08586e-07
0.263045
0.00846075
-0.00228588
1.24795e-05
-0.000765973
1.28436e-06
0.0934282
-0.000313743
0.15041
-4.62565e-06
-0.0192
-0.00670389
0.0028676
-0.0903662
1.82344e-07
1.34856e-07
-7.57656e-05
1.14418e-07
0.000136209
3.3066e-06
0.00145972
-0.0351515
0.00170967
1.20241e-06
8.96795e-07
-3.95023e-07
-2.37877e-06
0.00048389
-0.0637939
0.000366778
-3.4068e-05
-0.0132081
-2.91342e-08
-0.00015765
-0.000192856
0.0171294
4.11906e-06
-0.000203341
0.226884
0.0760495
-0.00116577
-5.4388e-09
0.0862641
7.2601e-09
3.56641e-06
4.40087e-07
-2.68014e-06
3.55756e-05
1.95431e-06
-4.19351e-07
4.57516e-07
0.00191572
-2.77569e-05
1.1523e-06
1.89957e-06
0.00236404
2.1165e-06
-0.000661927
-5.27513e-07
0.233561
4.50425e-05
-0.15631
0.0422677
4.95029e-05
-0.000145963
-6.50436e-06
1.49769e-06
-1.86312e-07
1.30736e-05
1.00778e-05
0.154953
0.514825
5.60485e-05
-7.27937e-07
-0.00238311
0.103199
-0.0112923
-1.93964
-2.21518e-07
-1.19762e-09
-2.63651e-06
0.0541106
-0.00112529
-7.87723e-07
0.000897439
-0.0465768
-0.0173184
-3.22719e-08
0.00169987
-0.000978966
0.00132433
1.06737e-08
-5.38089e-07
5.29212e-05
-0.000247633
0.0466874
0.0243101
0.000437091
-1.84355e-08
-2.16587e-07
-0.00453604
5.07027e-05
-1.43019e-09
1.38119e-07
0.0165293
6.81889e-07
-6.60528e-07
5.82837e-05
-0.0991794
-0.231614
-0.0258173
-4.74808e-05
-5.4764e-05
0.66289
0.315009
-0.775744
-0.0620116
-0.0393028
-1.31943e-08
-0.0054889
4.85136e-09
-0.0104108
1.77523e-05
-0.00324
0.263549
-0.0262474
0.0153409
4.28725e-06
-1.15622e-05
-0.000149549
-0.0410761
-0.00725758
0.00875588
-1.22881e-09
0.0170659
0.0127277
0.000656039
-0.010496
-6.28416e-06
0.000894671
-5.13176
-3.09126e-05
-0.0104284
1.01008e-07
-0.00511636
-2.28965
0.00938159
-0.0034293
-0.0270489
2.01662e-08
-0.0541403
-0.00823903
-0.38795
0.000456854
-9.62349e-05
7.42922e-05
3.0811e-05
-0.00809856
-1.52818e-06
-1.11248e-05
1.98415e-08
0.000572363
0.000456502
1.22982e-07
7.9291e-08
-0.0555631
0.000283208
0.0135841
0.0212723
-0.00120093
27.199
9.192e-07
-0.0523765
0.000343454
0.000361399
-0.00116811
0.034505
-7.00088e-08
1.46484e-09
-2.50078e-11
-2.26805e-05
-0.016334
-0.000349687
0.00121089
0.0201913
0.0380408
0.661335
-0.000298535
-12.4245
2.26106e-07
-0.0512854
0.000159507
2.59404e-06
-7.6319e-06
-0.00347822
-0.00199236
5.53533e-08
4.12989e-05
0.000864944
-1.33907e-05
-1.51573e-06
-0.0265896
-0.000659747
-0.706616
0.0215624
0.00636666
-0.000964856
-7.14164e-05
-0.000116031
-1.89347e-05
2.15106e-10
-0.00196058
-1.08478e-06
-4.52658e-05
-0.0315291
0.000108425
0.499908
-2.63607e-07
-2.32235e-05
-0.0527541
-0.000351416
-0.327818
8.66646e-05
0.00962697
0.00406705
-0.0205639
1.37753e-05
2.10234e-07
-2.37855e-08
-4.52098e-05
-3.6401e-06
0.0416601
7.74811e-06
0.0275026
0.00220571
-0.188365
-0.00236864
7.56208e-08
-0.0930027
1.74257
-4.86707e-05
0.0059398
-2.82353e-05
-6.06864e-07
-1.49582e-06
0.00201479
-2.19145e-05
-0.0428537
6.73318e-06
0.191319
0.000132413
0.00073956
-0.000542457
0.000440636
3.23691e-07
-0.462227
-0.0248702
0.0160625
-0.104986
-1.49826
0.0224639
0.0933465
-0.0287231
-0.0107174
-7.28939e-05
-0.000599779
-0.0140445
-0.0444718
0.00357501
-9.4742e-05
0.0134975
0.00114896
0.0026404
-6.09845e-05
-1.50805e-06
-0.00164112
-0.000112995
-0.000723235
0.104173
1.71866e-07
9.89366e-07
-0.0129463
-6.52842e-05
-0.0158483
1.17249e-07
-9.68161e-07
2.32096e-05
0.0556707
-2.59326e-08
0.354066
-0.0015429
4.54659e-09
4.20994e-05
1.02142e-06
-0.00968114
-1.54246e-05
-0.00194455
-0.00109169
-9.69606e-05
0.0116992
0.037573
-0.00175833
-0.000942082
-5.20165e-09
0.841698
0.108507
2.39325e-07
-0.000922859
0.000857631
-0.000156975
-0.000709099
6.75433e-05
-0.0315155
-0.634008
-3.8608e-06
-0.0526562
-0.0407995
6.65732e-06
-0.000157583
-0.253008
-0.0553783
-0.00398959
0.0064254
-0.000250363
-0.00144501
-0.00283976
-0.0221487
2.06857e-08
-7.21169e-07
-6.3272e-05
-1.94024e-07
0.00727202
-0.00483335
-0.00232932
0.003146
-0.00132098
-2.51581e-06
-0.000639777
-0.127357
-3.01152e-06
-0.136506
-5.95097e-06
-2.89341
-0.0100604
7.48469e-09
0.13445
5.34877e-05
-3.78955e-06
-0.243043
2.88492e-06
0.0011804
2.47404e-06
0.000342838
-3.69496e-08
-0.000460018
6.61787e-06
-0.159949
1.10892e-06
-1.02886e-06
-5.64445e-07
5.10618e-06
-0.0122413
-0.0228986
-0.00050039
-0.0210123
-5.87784e-05
-0.0823932
-0.0122469
6.65036e-08
0.000498537
-0.00595024
1.01285e-06
1.43757e-08
-0.000204023
0.22782
-0.00313943
0.00148341
2.94044e-08
2.93636e-05
-0.0207222
-1.6913e-10
-0.0181513
-1.56595e-09
0.000153635
0.000135896
-5.11049e-07
-2.17399e-08
1.08285e-06
0.00408286
-0.0211417
-0.121678
-1.95487e-08
-6.46443e-05
0.126342
0.00052955
-0.000128241
-0.0211633
-0.0211582
0.00214905
-1.39878e-08
-15.293
-0.00033722
4.62333e-08
9.53202e-07
0.0435409
0.0125266
3.19187e-07
0.00332236
-0.047388
-0.00107406
-6.6572e-05
-3.43338e-06
6.48614e-07
0.0139435
0.00794668
1.68431e-07
-0.000489584
-2.08935e-06
0.000455967
-3.12672e-07
-0.000655601
-0.000265529
2.51878e-08
0.000124602
0.00205834
-0.0280952
-0.00116948
-0.0165473
0.000817821
-0.00025967
-0.00765874
-0.000106436
-0.000398672
0.064528
-0.000378116
-8.19298e-08
-0.137397
0.000687554
0.00108949
-0.00205552
-5.46156e-06
0.255855
1.61653e-08
-0.0159997
-0.138184
-2.1894e-05
-0.000109333
0.014607
-1.62501e-06
-0.482849
-0.0890831
-0.266617
-1.28836
0.016149
4.31027e-07
-0.00105659
7.26331e-05
6.19039e-05
0.0843796
-1.72171e-06
0.00107579
4.80898e-07
-0.364631
5.42992e-08
3.1638e-06
-7.13664e-06
-0.000750219
-0.000190858
0.0117898
-0.0150457
2.44607e-05
2.10061e-07
0.0295626
0.654681
1.37019e-05
-9.70232e-07
-1.95129e-06
-0.000478143
6.19243e-06
-0.178202
1.20818e-07
-0.00117206
-0.577051
0.0205624
-1.05569e-08
3.41719e-06
-8.5107e-09
0.000550474
1.59804
0.00116602
0.00970298
0.0297605
-0.00181552
-0.00204036
6.21316e-06
-0.000777248
0.00129146
0.000433331
1.7097e-05
0.000645499
0.0142642
1.91332e-05
-1.11265
-0.000152006
0.0292543
-1.4636e-06
-0.00799884
-0.00684592
0.0123906
-0.00764749
0.00106722
-0.00235053
0.0116243
-3.18849e-06
0.000153394
-3.07317e-07
0.339442
-2.12749e-07
40.6193
0.0311261
0.00693454
3.85689e-06
-5.48736e-05
-0.000424961
0.000359327
-5.97489e-05
1.18064e-06
0.0529212
-0.269726
0.00952259
0.0329939
-0.0512171
-2.65095e-05
0.0161733
0.000563302
-1.1797
0.000162521
0.0615155
0.00020914
-0.0984741
-4.29103e-08
-0.000307338
-0.00631584
-1.48129e-07
-0.0105761
0.0209482
0.00304483
0.001429
0.00035557
-1.04312
5.14855e-05
-0.724898
-4.98579e-09
-0.52057
0.197317
0.00032117
-0.0602507
0.00420626
-0.32607
-3.85459e-07
0.0213252
0.0626709
-5.7278e-07
0.000180234
-9.00213e-08
-1.21675e-06
4.22675e-08
-0.00591722
3.586e-09
-3.33813e-07
-0.0439613
1.22241e-07
-0.000211968
-2.51311e-06
-0.00460004
-1.91463e-05
-0.0522086
2.67024e-08
0.0430819
0.0339062
-0.00363489
-0.00114117
-0.00173719
0.00913806
0.0383409
-0.00494771
0.00385421
1.175e-07
-0.027002
-0.000781749
-0.00373293
5.04612e-05
0.0224199
1.32776
0.0234059
-1.23695e-09
-0.000150081
-0.00665713
-9.88605e-05
-0.213003
0.00051275
-0.116333
0.00420916
0.0406449
-0.000621911
1.81488e-07
0.0149712
-0.178657
3.82568e-06
4.61757e-06
-0.00111696
-4.21678e-05
-0.0459953
0.0937511
-2.29338e-08
0.00566041
0.000582786
0.000335979
-7.48712e-06
-9.40702e-07
2.01634e-09
0.0429017
0.0268747
1.92239e-06
-4.20747e-07
-0.00124908
0.898989
-0.00383183
1.17766e-07
3.66501e-06
2.42325e-06
-1.54833e-07
-5.83833e-08
0.006242
-5.00602e-05
0.053297
-0.630645
-0.00133712
0.00445283
0.000109772
3.02393e-09
-1.6872e-05
0.413294
-0.00140894
0.00374612
-2.86279
2.29675e-09
0.283228
0.000651247
0.00799168
1.62188e-07
-0.112613
0.000418102
-1.60436e-08
7.48475e-05
7.58794e-08
-0.00406437
0.00197807
0.00154028
4.51327e-08
0.014561
-9.01013e-08
-0.0262455
-0.0196442
-6.60617e-08
0.0142128
-3.42628e-08
-3.59024e-06
1.76492e-05
-2.31006e-08
-6.07839e-06
-5.51038e-07
-7.95601e-06
4.94601e-06
8.83629e-08
6.46514e-05
0.00533022
0.0157868
2.45711e-07
0.0167249
1.58936e-10
2.01988e-05
5.79336e-05
-3.14526e-05
-0.000840879
0.0110664
-0.169245
5.50232e-05
-1.40805e-06
0.100678
0.000124527
-1.2902e-07
0.0121673
-1.73841e-05
8.11678e-05
0.00661742
-0.0109815
7.84287e-07
-0.00383481
-0.030634
2.48159e-06
0.0281285
0.00010787
-0.0226436
-0.00190055
-0.000460906
0.0326328
-1.64309
9.33744e-08
-0.113985
0.000673742
3.1716e-06
-0.0225455
-3.64905e-08
-3.14504e-08
5.13034e-07
-1.46812e-08
-0.00168039
0.00301564
2.62421e-06
0.20614
-0.0270498
-2.17805e-06
-1.05211
0.0104096
0.000345476
-0.000480706
-0.041876
0.0618089
-0.0135311
-0.000488767
5.63894e-05
0.489697
5.56959e-08
0.00624618
-0.00968805
-0.194918
-5.6837e-08
0.00786337
-2.58897e-07
-0.00971474
-0.194632
-0.0199875
2.74467e-07
-0.024933
0.600226
2.91372e-05
-0.0187618
-0.0012408
1.37776
0.00161808
-0.00865316
-2.57551e-08
0.00696341
-1.95948e-08
-0.00193431
-0.000357233
-2.95682e-07
-0.0482428
1.13629e-05
-0.128339
-0.00387816
9.95391e-08
0.0899767
-1.74943e-05
2.10978e-05
-0.0256279
-5.95888e-06
0.000196372
3.02985e-06
0.024822
-2.02595e-05
0.246327
-2.25953e-07
-0.000127343
5.67796e-08
0.00010893
3.78149e-08
-0.00202706
0.00662647
0.0046455
-7.92483e-06
3.30394e-07
7.94964e-10
-2.23463e-05
-1.61177e-07
-0.00267623
0.0177506
2.33512e-07
0.00018526
-0.643479
0.00109108
-0.00199542
1.79832e-06
-0.0181163
0.000322186
0.000119492
-0.00812673
1.3986e-07
3.15198e-07
0.0147236
-0.0156395
-9.15227e-06
-0.0039484
-6.1918e-05
0.00240067
0.000460635
-7.74936e-07
0.0015771
-0.00205888
0.00711991
0.00084857
3.06396e-05
0.012853
4.09794e-05
6.76455e-06
-0.523179
2.10395e-07
0.00547498
0.16257
-0.137935
-0.0134369
1.11551e-05
-0.000768067
-0.000389227
0.00116799
2.47952e-06
3.42955e-05
6.10487e-09
-3.97508e-07
-0.00611405
-1.09822e-08
1.27396e-09
-0.00844889
0.000545948
-0.0010625
-4.06243e-06
-123.995
-0.0175208
0.000108085
-0.156534
0.0407017
5.17783e-08
-0.00118047
0.00149535
-5.55735e-05
-1.40009
0.241043
3.24065e-07
8.08862
-0.00245298
0.00867515
-7.6161e-07
-0.0086709
-1.62375e-08
0.0164573
-2.281e-06
-1.02251e-07
-0.0595417
5.46995e-08
2.55301e-07
-2.78062e-09
-0.1678
-0.00721275
0.0501209
3.34733e-09
0.0117707
4.38214e-06
0.00269276
-1.82845e-08
-1.97449e-07
-0.0058787
7.85583e-06
1.1588e-07
-0.0416447
3.14358e-07
-2.0677e-08
-0.000242439
-0.000148763
2.38769e-06
-0.000167735
1.03406e-06
2.26875e-05
2.71242e-05
0.000613914
-2.36757e-06
0.00240082
-0.0117838
-2.82058e-06
24.5494
-2.07996e-06
0.000292921
6.88484e-07
1.64387e-06
0.000111893
0.0162237
-0.00124304
1.29261e-08
3.77768e-06
0.488568
0.0165061
-2.36455e-07
-0.00345053
4.83258e-06
0.000429157
-0.121002
-0.000278298
-0.146193
2.69938e-06
2.06195e-08
-2.17145e-07
-6.87897e-08
-0.00867312
-0.000134166
1.01829e-07
4.88514e-08
-1.58029e-07
3.89545e-07
-0.0189455
-2.0761e-08
-0.037285
1.19366e-05
-0.000262858
-0.0758143
5.02901e-11
5.57438e-08
-9.87564e-09
-0.00265596
-0.00933751
0.0301346
-3.496e-05
-0.0450608
-0.0126655
5.99247e-05
-0.00360241
1.4055e-08
7.97049e-05
-0.000113625
-0.568609
-3.87064e-05
-5.79844e-06
0.0505135
-0.0315563
3.64809e-07
0.015996
-0.0994564
-0.000365544
2.28064e-06
-0.13565
-0.000188523
-1.4102e-06
0.235606
-1.93933e-09
6.83111e-06
0.000305746
-0.000115323
-8.47418e-07
1.0927e-08
-2.86161e-06
4.55608e-05
6.70016
0.00512247
-0.0223285
0.000466869
2.87293e-05
0.000475124
-0.000522134
-0.0088779
0.0347803
-0.014341
0.00150586
0.0393719
-1.94854e-05
1.71203e-07
-0.00565335
-0.0160384
0.0242414
3.96894e-06
0.220102
0.175568
0.62578
-3.80378e-08
7.12565e-06
7.44511e-05
3.47318e-09
-3.1968e-07
0.0356452
0.00159537
0.0197456
-3.14514e-05
5.67284e-08
-0.00583364
-2.1016e-07
0.000181913
-0.0075468
-4.20607e-07
1.75531e-10
3.41311e-09
0.0245028
3.52666e-05
-2.03369e-07
1.94894
-0.0023682
-1.46862e-07
1.72356e-05
-0.00761665
2.09234e-07
-1.831e-06
-1.68412e-07
0.000716047
1.77269e-07
0.0933631
0.000899978
-0.040017
9.4678e-08
-8.45573e-06
0.00394803
-7.5091e-08
0.00766402
-0.00531319
-0.0114133
0.00044817
0.00260681
-1.07463e-07
3.84207e-07
-0.00144587
1.17926e-07
4.70973e-06
4.47101
8.32541e-06
4.96591e-05
1.03811e-08
-6.40936e-07
1.88175e-09
-0.000374876
-0.0271928
7.48777e-07
-1.56072e-05
-3.83948e-07
-2.87687e-08
3.02515e-08
-0.0172433
-0.0856865
2.24512e-06
-0.000362941
4.16651e-05
2.90533e-07
-0.00116385
-0.0749509
-1.28135e-06
0.0892354
-0.0286645
1.30415e-06
-2.00601e-07
-0.00035813
1.00485e-07
-0.00372093
-0.0173053
-1.49833e-06
-0.0011523
3.37206e-06
-1.33458e-07
1.97667e-08
-0.0391189
-0.0199978
-1.41942e-07
-0.00074182
0.0256209
-0.00033646
4.77752e-08
-1.20021
-0.000981302
-1.92345e-08
0.0143198
0.000289081
-0.0210971
4.32653e-10
-6.17357e-06
-0.00426771
-0.000156642
3.14913e-08
-0.0244229
4.35459
-9.75106e-08
0.000597342
7.1172e-05
0.00265725
-2.77588e-09
-5.00334e-05
0.00503919
0.0238247
-0.0126758
0.00511683
-8.27373e-06
-0.0973407
-7.28972e-06
-0.00192101
-0.0160636
-1.13189
4.19141e-09
9.82258e-08
-0.0674342
-0.0309476
0.00539774
-0.00476488
4.63444e-06
-3.3671e-07
2.60344e-07
-1.02994e-08
-0.0395068
-2.61436e-08
0.00493492
-0.146429
-4.15458e-09
-0.243284
-7.65374e-05
0.0204725
6.65076e-05
-4.92277e-05
4.67056e-05
-0.00277792
-2.06487e-07
2.08363e-07
0.000599924
0.348205
-0.00534876
-0.280379
-3.11997e-08
-0.00182682
-0.000764362
-0.120959
9.04445e-07
0.00212559
0.22263
-8.49254e-05
-0.708861
-1.57905e-07
4.59434e-08
3.23247e-09
1.57739e-08
0.0161314
0.0307453
-1.86668e-06
-4.85472e-05
2.5649e-06
5.21972e-09
-8.48114e-05
0.119938
-0.000885707
5.15853e-05
-0.0308036
-1.05644e-06
-0.0197771
-0.107577
-6.81101e-08
-0.0223308
-4.45839e-08
0.383509
0.00209264
-0.00960353
2.16266e-07
3.00374e-10
-5.21777e-05
3.25305e-08
-0.000395857
0.00294339
-2.10998e-05
-0.00222153
9.26809e-07
0.00189377
7.67687e-06
1.00137e-09
-9.50413e-10
-0.00750101
-0.000207162
0.000880308
3.49733e-06
-0.00964045
-1.52743e-07
-8.09423e-06
2.24201e-06
0.0100704
1.07909e-06
-9.22719e-08
-0.0198954
-6.03378e-07
0.00766681
0.0736867
2.63324e-06
1.07368e-08
-0.00119318
0.711429
0.0181175
-3.9147e-06
0.0612534
1.1305e-07
-0.00234424
-0.0239323
0.00363991
-32.4473
0.0725544
3.01142e-07
1.45606e-06
-0.0581652
-0.00011093
0.0775666
6.51961e-05
-8.26102e-09
3.27663
3.58787e-08
-8.16e-08
-5.94708e-08
0.0549766
-2.88616e-07
-8.29113e-08
0.00110135
0.00423289
-0.000850167
-7.76763e-08
-0.0181575
3.18893e-06
-0.00921588
0.0166322
0.0637245
-1.58204e-07
3.08022e-09
-0.120708
1.28476e-06
-0.00136349
2.15136e-10
-1.72663e-08
0.000672411
4.57776e-05
0.00140517
-0.821098
0.0516689
1.06722e-10
-0.000298992
-3.32601e-07
0.0332087
-0.00250302
0.0846289
0.00168836
7.54058e-09
-0.00573291
-0.0668191
0.0342587
2.18962e-09
1.19367e-05
-5.05515e-09
-0.00384029
-2.63665e-06
-2.64516
-0.000338362
-0.00140626
0.000899911
-0.04081
0.00477433
0.0147428
0.000578499
-3.73724e-06
3.32409e-07
-0.0290056
-1.24148e-05
-2.36996e-11
-0.0705488
-0.000488714
-0.153153
-5.43139e-05
-2.523e-05
-0.00163057
-0.0532995
-11.7692
-0.213461
0.00611657
0.000322499
-0.00825053
-1.69707e-09
-0.00902062
-0.167595
-0.289976
-0.0346697
0.00847917
2.4865e-08
-0.242747
-4.34757e-08
-0.0483628
2.98438e-08
2.42933e-08
0.0056109
0.190403
-7.1636e-09
-0.00112291
-0.00210277
-0.00202305
0.002762
8.15774e-09
4.75921e-08
0.0280586
-0.000433459
-0.0324085
0.063532
0.0219839
3.67468e-11
2.4427e-09
-0.000331548
0.00528898
-7.71251e-07
0.000326736
4.96503e-06
0.0762778
0.00419812
-0.00335751
-6.30401e-07
0.00145745
-0.256919
-0.241528
-0.000245831
0.00101859
-0.00124358
1.07096e-09
6.94173e-05
4.5386e-06
-1.85798e-07
-1.22503e-05
-3.11921e-06
0.003217
0.172552
-1.90294e-07
-1.75236
3.00145e-08
0.255994
-1.4151e-08
-0.000197666
0.144624
-1.40314e-05
-0.000136904
-0.000181738
-0.0390339
0.00252456
0.000119998
4.09642e-06
-0.000165247
5.91434e-05
-7.37794e-07
-1.50119e-08
2.37e-08
-0.000420379
-0.146906
-0.0289256
0.00451626
-4.51141e-08
-0.00644611
-15.9375
1.15828e-09
1.4785e-07
0.00374321
3.98315e-10
0.0332915
4.47917e-09
-0.0109058
2.91151e-05
5.00765e-09
0.0237734
-0.00841337
0.235668
0.00688809
5.06907e-07
0.00170929
1.54001e-07
-0.029184
-6.93272e-06
-7.97791e-07
0.00575795
0.00718862
5.68889e-08
1.21188e-06
-2.02912e-05
0.0103243
-7.37709e-08
2.57762e-07
7.70808e-08
4.02327e-08
-0.557361
-0.000230713
-0.00408513
-5.95593e-06
-0.00197078
-0.0437782
-2.14184e-08
0.000533799
-0.0265933
2.11694e-05
-0.0506341
-0.203746
-2.56431e-07
2.34489e-05
4.51614e-06
-0.20805
-1.98773e-06
-0.00109351
0.00433756
-1.39595e-07
0.0377966
-0.0310694
-0.198389
-0.0217723
0.0180409
0.0829433
4.71146e-06
-0.0148562
-0.000552675
-0.0103589
0.00627729
0.0237625
8.54732e-07
2.76022
-0.0417169
0.000493882
-0.000251911
0.0052581
-0.0412699
1.08068
-0.00371557
0.00383781
9.18987e-06
-0.000768907
-0.00359377
0.00316986
-3.4146e-07
-6.79356e-07
2.91474e-05
-0.000659236
1.40615e-07
-3.92104e-08
-34.0075
-0.0148808
0.00392393
-1.73214e-07
0.000103777
-1.87371e-06
-3.5014e-05
-0.000941995
-0.000571681
-1.73496e-08
4.51127e-08
0.0885383
-0.142953
0.00220781
-1.9841e-07
0.000103001
0.987104
1.37398e-07
0.000227713
-7.95489e-06
-1.52032e-06
0.0137604
6.78589e-05
-0.035147
0.680917
-0.0407185
0.000585312
-2.5722e-05
0.000119227
0.000128838
0.00897694
0.0549599
-0.162484
0.0480549
-0.00246684
-0.0812944
-4.40192e-07
-0.00433855
-5.85902e-05
-0.00274576
-0.0156343
-2.46738e-10
-0.082199
-3.80626e-07
-17.9676
6.20153e-08
-0.0198692
0.000992527
-0.142511
-1.86963e-06
0.106554
0.0291064
-0.00531623
0.0176496
-0.0263241
-6.61744e-05
0.000844734
-1.3851e-05
0.0793327
-0.00032137
-1.3856e-07
0.015149
-0.000129767
1.04727
-0.0976283
0.164531
0.000141866
1.91684e-07
0.0629618
-0.0090447
0.781157
-6.74922e-05
3.21056
-5.10122e-08
-3.50337e-06
-7.69715e-05
0.00488229
-0.000381917
0.109701
0.0252149
0.165126
-1.24937e-06
-0.0538989
-0.0439839
6.64182e-09
-4.52998e-06
-0.0547133
9.44209e-05
1.03361e-06
0.0024373
0.118427
-0.0687159
7.47691e-08
2.26623e-05
-2.76107e-09
-1.83987e-08
-0.00977899
0.251573
0.0192733
0.00804843
0.000886886
-0.0120043
-0.0045835
-1.07766
9.00061e-08
-1.77508e-07
-0.0011097
-0.00398331
-2.05131e-10
-1.65145e-08
2.08754e-07
2.05592e-08
-5.67521e-08
-3.35705e-06
6.15922e-06
0.000860327
-1.26868e-09
-0.00155733
-3.49161
-1.91534
-0.000295907
0.000355166
-3.70313e-07
2.38623e-05
0.0301608
-0.0381155
8.48699e-07
0.0229973
2.64598
-0.0502883
-75.8748
-0.017948
0.0355771
-0.00420312
8.51141e-05
-0.00559273
-0.00404398
-0.190328
1.90314e-05
-2.48651e-06
-1.8643
-6.24717e-07
-0.169035
-0.512657
0.036262
0.00297258
0.488412
0.000367178
0.00462627
-0.000634768
-1.50939e-07
0.0130161
-0.00313113
-9.62515e-06
-0.0469135
0.0041192
3.37969e-05
0.00147934
2.44349e-06
-0.00835095
-0.000838886
-0.0032785
-0.0674072
0.00225985
2.73965e-08
0.000188372
8.79413e-07
5.85147e-05
8.96503e-07
0.0261333
0.00241344
-0.000483295
-1.30883e-05
4.63811
4.83834e-06
1.06817e-07
0.0174004
-0.000334833
0.952446
-0.210353
0.0405707
-0.00634236
0.00245063
-0.645561
-0.00578916
-0.192223
0.00065634
-1.44787e-05
3.95567e-08
-0.010485
7.27645e-07
0.0637037
0.172248
0.00161305
1.46569e-07
0.11209
-0.120766
-0.0309412
2.46761
-0.0074222
-0.00173569
-0.0035914
0.347289
-0.013995
-0.000170611
0.000888072
-0.000582617
-0.000360448
0.000135855
1.55586e-07
0.0135513
7.23289e-07
1.48003e-08
-1.12279
-4.60584e-08
-0.00723058
0.0295113
0.0396482
-7.31952e-06
-0.191711
-0.0128324
6.02327e-09
0.352812
12.2082
-0.0107687
0.212078
0.00249033
-0.0116378
0.00126909
0.0219192
-0.00423868
-3.34255e-08
0.000225342
-0.000303072
-1.63497
0.000396907
-1.33254e-05
-4.11915e-07
0.104865
-0.00375729
-3.75943e-06
0.00126043
0.00157543
-0.0153606
0.00350982
3.83287e-05
-0.00126445
0.000161025
0.000281718
0.0326773
-1.3298e-06
-0.000326152
0.0168625
0.53282
-0.00518608
0.0129013
2.05539e-09
-0.000214309
0.000286039
-0.0022408
0.0141824
-7.63163e-07
0.00633453
0.000128063
0.000261712
-0.00389509
-0.00106782
0.00881396
-0.00230107
-2.15317e-09
0.0171067
-0.0259067
0.0347292
1.73307
-0.00248645
0.00926392
-0.00082476
-0.00527808
7.70348e-09
-0.000777005
-0.000117128
-0.027917
0.0103373
3.33626e-08
-0.405202
0.349261
-0.000276074
0.000571706
-2.19471
6.45578e-07
-0.0292363
2.03305e-08
0.0288708
0.0894647
-0.0288217
-3.18924e-06
-1.02536e-08
-0.0358884
-0.000722817
0.0054032
0.00175009
0.00196322
-0.00995833
0.000122603
-0.00161375
-1.37174e-06
9.51569e-09
-0.0144279
1.11583e-05
-0.287006
0.00824882
-0.00164037
0.000103167
-0.0247043
0.0108581
1.87929e-05
0.0404002
0.000760881
2.61047e-09
0.00032855
0.0158106
0.0109134
0.00068021
3.65913e-05
0.000715855
-2.85806e-09
0.119834
-0.000574727
0.0143394
0.0411138
0.600093
-7.67622e-06
-0.0625573
-0.000736704
0.00243581
0.00179394
-5.7626e-06
0.000665486
4.16149e-08
-0.000903614
-3.58605e-06
0.000227967
-0.0650568
0.000244687
-1.09804e-06
6.55912e-05
-0.0133118
-0.000402833
-1.10663e-06
-0.00746667
-0.0644565
-0.0105234
-3.84873e-07
-1.53532e-05
0.27089
-0.0195881
-0.0606856
0.27635
4.57944e-07
0.0182656
-0.0012629
0.248014
1.31195e-06
0.0198487
-0.00322164
-2.18779e-07
9.35262e-07
0.0054735
-0.0228328
0.0969891
0.0184391
0.00298361
-0.00086015
-1.44699e-05
0.55372
0.0476582
-0.00406073
-0.123937
0.000288178
0.0778323
1.12697e-07
-3.20584e-08
-0.146465
0.00197507
-8.16596
0.272806
-0.00218218
0.00325591
0.00259849
0.0280415
-1.24652e-06
-0.00850724
-0.00233606
5.8566e-08
-6.38734
0.0123736
0.0110939
0.000209067
-0.00103695
2.4858e-05
-0.220146
7.54685e-07
1.30494e-08
0.00761191
-6.18848e-08
0.00165711
-0.00068051
2.01164e-05
-0.000124839
-0.0132465
-0.00789102
-0.0011697
-0.00163918
0.00849306
-0.00590964
-2.70029e-08
0.127226
-0.000106914
0.000760506
8.86123e-07
0.000119537
-0.00961086
-7.68718e-07
9.22763e-07
-0.0332324
3.20421e-06
-6.12499
-0.00788308
0.176953
-0.000869014
-7.87969e-09
0.000128267
-0.0419403
3.83176e-07
0.073678
-0.0113273
0.177208
0.859507
0.00025648
-0.0204962
-0.0200859
2.63774e-06
-0.00164832
-0.0242744
-0.000690933
-0.000926936
-0.000814513
-9.46266e-06
0.000805402
-0.0109268
-7.93673e-06
0.0219907
0.116094
0.00138624
-0.00327558
0.0122462
7.31791e-05
-4.69499e-06
0.0428272
-5.90513e-09
-6.10624e-07
-9.89752e-06
-1.7508e-07
-0.00214484
0.000218474
-0.00111454
6.81085e-07
0.00128764
-0.00518752
-0.000766032
0.439349
0.00141617
0.373188
-6.83777e-06
-7.59999e-06
-3.05277
0.3021
-0.00202854
41.1432
1.9329e-05
-0.00270654
-0.0625746
0.00327573
-1.0569e-06
0.000253691
-1.00246e-09
-0.0038932
8.3265e-08
-2.43426e-05
0.00010684
-0.00380673
0.000972266
0.00201544
5.57967e-07
28.6546
-0.00472915
0.00233405
0.0373475
-0.00211903
1.56327e-06
-0.0155001
-0.000862604
-0.0433053
-0.0305897
4.05313e-09
0.00242796
-2.29606e-07
-1.92379e-06
0.0116558
-0.0841722
0.615391
0.00327029
0.122768
-0.00157525
-0.00163472
0.0185288
0.000131544
0.00010895
-0.000114914
0.0733566
0.211624
-0.0119993
0.000597666
0.0126425
5.4625e-06
0.00955038
-0.0891083
0.0353343
-4.08528e-05
0.276651
0.000276406
-0.000507708
0.000204082
0.000120317
-7.01589e-06
0.0376856
0.00130177
0.000106812
0.000139354
-4.88525e-05
0.0149408
-0.377061
0.00401072
0.00630172
-0.121866
0.00333766
-0.000249979
-6.59529e-05
1.64459e-09
2.52474e-07
-0.190156
-0.0132356
0.000360334
0.00215181
4.66958e-06
-0.000349431
0.028677
-0.00107125
0.297853
0.00351724
-1.8009e-07
0.000914306
0.0281657
-0.00167472
-0.010865
0.00635295
0.00745673
-2.83384e-05
7.46211e-06
0.000181551
0.00480793
0.000180385
0.0120954
3.14985
-0.00862409
0.052092
-0.0526374
0.056042
-0.00823735
0.012003
-0.183132
5.73909e-09
0.00533434
0.139185
-1.40166e-09
0.00116134
-0.0323932
-0.00032337
-0.00558452
-0.00151158
-6.54685e-06
0.002306
0.00662871
-0.0016205
-0.00120627
0.868269
0.0472811
-0.000703201
-0.391661
0.0023539
0.000427587
0.0019158
-0.000259154
0.0111733
0.0423728
0.0235857
-0.00594771
-1.00601e-05
-0.000768371
-0.000667488
7.89961e-05
-4.55359e-05
9.66171e-07
-0.00342103
-4.04967e-05
-0.013132
0.0190563
0.00239318
-0.00298738
7.49092e-07
1.32684e-07
-1.29641e-06
-8.34855
-6.07862e-06
-0.00252574
0.000705997
0.0973742
-4.55807e-09
-0.0437654
-0.000717732
0.411617
4.36324e-05
0.0382748
0.00371799
0.0442033
0.00912379
-0.000106712
-1.69788e-06
-1.09168e-06
0.0176866
0.00128774
0.268599
8.67634e-08
-0.000449077
-0.00182551
-0.00640038
-0.00790749
0.105558
0.0214743
0.0095754
0.141434
-0.0154134
0.000540376
-8.10624e-07
0.0010937
0.000304272
0.012997
-0.00594259
-0.0244787
-4.03501
5.15692e-07
0.00120517
0.0212688
-9.64594e-08
-0.00201676
-9.33378e-05
-2.32781e-06
3.42946e-08
-0.010683
3.75799e-07
0.00140872
0.0800994
-0.18798
-0.648243
0.000216784
0.0228398
-0.00208647
0.0336246
-0.00651945
-4.63864e-08
-0.000739792
0.0088392
0.000654096
-0.00406426
-0.00663473
0.00322487
-0.00921612
2.41663e-06
0.0307828
-32.8196
4.43456e-07
-9.68075e-05
3.08669e-07
-0.00183907
-2.99815e-06
7.88547e-08
5.49868e-05
0.0177623
-0.00627659
-5.20775e-06
2.91273
-3.48013e-08
-0.00937032
0.0150531
0.000264952
5.25281e-09
-2.33048e-06
-0.0953681
-0.00593954
0.401572
0.0423732
7.59763e-05
-3.13726e-06
0.000755051
-0.00207028
4.3054e-06
-30.2522
0.0156834
0.0028718
-3.36874e-08
0.0012066
0.000459117
3.77997
-0.0869446
-1.92691e-07
0.0342276
0.508082
0.000103995
0.00504936
-7.11211e-05
-9.37043e-05
-0.00655936
1.31366e-07
-7.26622e-07
-5.20689e-09
0.00326374
0.00298662
1.0442e-06
-0.00101563
-0.00117223
-1.63457e-05
7.07682e-07
0.00010192
0.32677
0.000211217
-0.0201781
0.0243629
-3.20978e-07
-1.18006
-4.47865e-07
2.70809e-06
-0.00180468
-0.0201407
-1.37459e-06
-1.80966e-07
0.00964062
-0.000261408
-0.000576482
-1.27807e-08
-0.000471988
-2.00762e-06
1.41626e-07
-2.20909e-08
0.000234282
-4.1171e-10
1.63902e-07
-6.57255e-06
0.00117524
-7.90739e-09
-0.00531924
-0.00225724
-6.60988e-06
-2.48164e-06
-0.00760663
-3.6836e-07
2.10099e-06
1.36753e-07
-0.00112968
-2.19217e-05
-2.34397e-07
0.0442109
2.15188e-07
1.30323e-06
0.00665903
-0.00180133
0.00532629
3.38795e-09
-1.73717e-06
0.0289641
0.000793558
-0.282379
-0.025702
-0.000137048
-0.0373922
0.00217397
0.0103196
-0.219477
0.00100809
-0.0566252
-2.71091e-05
-4.59711e-06
1.00417e-06
-2.00143e-08
-0.000379647
-2.13856e-06
13.0469
0.0143738
-1.09499
0.0404336
-34.2933
0.000153863
8.04675e-07
-5.13679e-06
0.00587343
7.46239e-05
-0.0501369
0.972484
1.10974e-07
-7.25229
-0.00475152
-2.40132e-06
0.00839401
0.0869285
0.0184812
-0.0453181
0.00142598
0.00472523
-0.00588531
8.62548