/*--------------------------------*- C++ -*----------------------------------*\
| =========                 |                                                 |
| \\      /  F ield         | OpenFOAM: The Open Source CFD Toolbox           |
|  \\    /   O peration     | Version:  v2012                                 |
|   \\  /    A nd           | Website:  www.openfoam.com                      |
|    \\/     M anipulation  |                                                 |
\*---------------------------------------------------------------------------*/
FoamFile
{
    version     2.0;
    format      ascii;
    class       volVectorField;
    location    "200";
    object      ddtCorrDdt0(U);
}
// * * * * * * * * * * * * * * * * * * * * * * * * * * * * * * * * * * * * * //

dimensions      [0 1 -2 0 0 0 0];


internalField   nonuniform List<vector> 
13749
(
(2.46709e-05 1.84687e-07 5.36323e-20)
(0.00100778 0.00298117 -6.79231e-20)
(-9.29087e-05 2.95278e-05 0)
(0.00173667 0.00390302 -1.04865e-19)
(-0.000943957 0.000756925 0)
(5.43789e-06 -0.000721809 2.90822e-19)
(0.00350038 -0.015383 -8.65062e-20)
(-3.06862e-05 0.000150938 0)
(-7.69955e-05 -0.000246238 -4.22408e-21)
(0.00186376 0.0036989 1.06094e-19)
(0.00016032 0.000240883 0)
(-1.76416e-05 -2.79733e-05 -7.43797e-20)
(-0.000617659 -0.00263892 -2.11433e-20)
(-0.00120786 0.00280452 0)
(-0.00140318 0.00192842 0)
(0.000248627 -0.000382711 -4.12418e-20)
(-0.000257975 0.000440528 4.4739e-20)
(-0.00188997 -0.00119959 0)
(9.62825e-06 4.56805e-06 -6.01387e-20)
(2.16611e-06 1.91655e-05 1.03187e-20)
(-0.00350113 -0.000124118 -9.50403e-20)
(-0.001631 0.0019496 1.4347e-20)
(0.000569114 -0.000234915 -1.34979e-20)
(0.000189685 -0.00050692 0)
(-0.000265486 -0.00117217 0)
(-0.000535592 0.00113509 1.61543e-19)
(-0.000473549 -7.72203e-05 6.09682e-20)
(-0.000558662 0.00497584 1.87571e-20)
(5.86637e-05 2.24021e-05 -7.18303e-20)
(0.000420643 0.00111905 8.9801e-21)
(0.00127932 0.0242646 1.01963e-20)
(0.000761173 0.000899942 0)
(-0.00091358 0.00833519 2.04405e-19)
(0.000136375 0.00025506 5.96587e-20)
(5.30563e-05 6.44607e-05 -6.83778e-21)
(4.47409e-05 6.75661e-05 0)
(-5.11911e-05 -1.98172e-05 -3.83265e-20)
(4.08649e-05 0.000324912 6.61231e-20)
(-0.000608555 -0.000797474 -6.78776e-20)
(-8.35791e-05 -0.000526847 5.90466e-20)
(0.000139472 -0.00027567 -1.29023e-19)
(0.00416169 0.000291315 7.68259e-20)
(0.000226003 -0.00220887 0)
(-0.00134958 -0.00874984 0)
(-0.00243998 -0.00129044 -1.10402e-21)
(-0.000843786 0.000485912 0)
(6.85972e-05 -0.000184125 0)
(-0.000435915 -0.00490828 5.46711e-20)
(4.65859e-05 2.41539e-06 0)
(-0.00409698 9.71827e-05 -1.12537e-19)
(-9.12705e-05 -0.000375033 8.9643e-21)
(-0.00360193 -0.000243737 8.86214e-20)
(0.000106307 -0.000662482 -6.80628e-20)
(0.00249784 0.00590436 5.19921e-20)
(0.00439789 -0.000536287 0)
(5.57145e-05 -5.85739e-05 4.02065e-20)
(0.000448379 0.000892747 -1.98389e-22)
(-0.00115309 -0.00285588 0)
(2.96545e-05 -5.23753e-05 -7.64486e-20)
(0.0053523 0.00471424 -6.56065e-20)
(-3.53269e-07 0.000176904 -3.98752e-20)
(5.20392e-05 -0.000284583 0)
(-0.00325144 0.000698145 0)
(-2.98187e-05 -9.48352e-05 7.56407e-20)
(0.000229 0.000392891 -7.97705e-20)
(-0.00253978 -0.0076744 -2.30555e-20)
(8.60122e-05 -0.000211199 3.39496e-21)
(4.58423e-05 0.000156235 0)
(-0.000184712 -0.000428882 8.7034e-20)
(-0.00132529 -4.04214e-06 0)
(0.00354654 4.65862e-05 -4.96888e-20)
(2.21552e-05 1.45826e-06 -6.14368e-20)
(0.00356192 0.00477857 -1.38447e-19)
(7.75314e-05 -0.000207408 -9.43204e-20)
(-0.000918952 0.00112146 -1.04812e-20)
(0.0287712 0.0403764 -4.46247e-20)
(0.000117628 0.000243088 0)
(3.28649e-05 -3.89614e-05 0)
(0.00123388 0.00108114 9.70931e-20)
(2.56035e-05 6.32926e-05 0)
(2.38334e-05 -1.01588e-06 -3.48973e-20)
(0.000415839 0.00259952 7.2475e-20)
(0.000195346 0.000440047 9.18651e-21)
(4.32049e-05 1.37215e-05 4.70549e-20)
(-0.00444409 -0.00162338 -5.03958e-20)
(-0.0274076 -0.03286 1.06328e-19)
(0.00310928 -0.00291587 4.00804e-20)
(0.00136745 -0.00107135 -5.53351e-21)
(6.80076e-05 0.000146165 6.749e-21)
(-0.000209641 -0.00184207 -1.87511e-21)
(3.0336e-05 2.96705e-05 -2.30725e-20)
(0.0025667 0.0026207 0)
(0.000143939 -0.000203737 0)
(-0.000203609 -0.0156043 0)
(-5.73086e-05 -0.0968301 0)
(0.000683634 -0.0014296 4.91788e-20)
(0.000331734 -0.000212941 0)
(-1.29202e-05 1.45252e-05 3.71964e-20)
(2.20515e-05 1.84747e-06 0)
(0.000133721 -0.00329107 -3.65833e-20)
(0.00421495 0.00127103 1.34503e-19)
(2.63109e-05 2.22947e-05 0)
(-0.000185931 0.000149429 3.49535e-20)
(0.00138628 0.00326972 -7.36089e-21)
(3.78472e-06 3.81932e-06 1.09267e-20)
(0.00117453 0.00361759 7.28003e-21)
(0.00150952 0.00148814 0)
(0.000208273 -0.000137696 -7.20573e-20)
(0.000818509 0.00477009 1.79904e-21)
(-1.95679e-05 1.57905e-05 -5.90684e-20)
(-2.09557e-05 0.000147232 7.21027e-20)
(0.00276974 0.00195765 3.62538e-20)
(0.000593676 0.00112657 -4.19106e-20)
(0.00866436 -0.0139941 8.47505e-20)
(0.00249669 -0.0014891 -1.64437e-20)
(0.000166801 -9.10334e-05 1.31675e-19)
(1.37393e-05 -1.8344e-05 6.50941e-20)
(0.000284461 0.00387484 3.60006e-20)
(-7.48678e-05 -0.000257266 0)
(3.39038e-05 5.93409e-05 6.0705e-20)
(6.2592e-06 8.70766e-05 -9.77946e-21)
(3.38231e-06 5.07253e-06 2.58567e-20)
(1.7905e-05 3.50091e-06 -4.71329e-20)
(4.35049e-05 -3.7946e-06 1.65242e-20)
(0.000540836 0.00272703 1.87464e-20)
(0.00351846 2.69775e-06 5.00378e-20)
(-0.00180396 0.00446497 0)
(-0.00423612 -0.00496662 -5.68659e-20)
(0.000634424 -0.000383551 2.16444e-20)
(0.00272849 0.00491388 2.36317e-19)
(-3.00159e-05 -0.00214371 1.4423e-19)
(-0.000555869 0.000718667 -3.54094e-20)
(0.00065468 -0.00233957 -3.84849e-22)
(0.00208837 0.00423443 2.54215e-20)
(-0.000658969 -0.00724957 -1.71297e-19)
(-0.0010086 0.00185655 -7.83199e-20)
(-0.00132773 0.000584959 0)
(3.32692e-05 1.05615e-05 -8.34193e-20)
(0.000207195 0.000115116 -6.26323e-22)
(-0.00131314 -0.00057315 0)
(0.000724556 -0.0136295 -1.689e-19)
(0.000390546 -0.000478862 8.43006e-22)
(0.00014368 0.000433355 3.79325e-20)
(-0.00191286 0.00455414 1.0036e-19)
(2.40968e-05 -2.23976e-06 -2.60991e-20)
(-0.00218376 -0.000898957 0)
(-0.00219252 0.00634253 1.26137e-20)
(0.00188469 -0.0136669 7.2549e-20)
(-3.34258e-05 0.000242979 -6.53392e-20)
(-7.8474e-05 0.00350555 4.66653e-20)
(2.38825e-05 4.60004e-07 0)
(0.000245684 0.001306 0)
(0.00131649 0.00394938 -3.90418e-20)
(-0.00617123 0.00106108 -8.47031e-20)
(0.00023886 1.89621e-05 0)
(-0.0031681 0.000527288 0)
(0.000144717 -2.70571e-05 -2.99812e-21)
(-0.00205997 0.00375352 0)
(0.00157378 0.000955675 6.08485e-20)
(3.28234e-06 1.15701e-05 -1.35984e-19)
(0.0155846 -0.013392 2.66078e-20)
(1.51253e-05 2.49435e-06 3.15133e-20)
(0.00420901 -0.000121537 1.61315e-19)
(0.00822984 -0.00810303 -2.69851e-19)
(3.16328e-05 -5.09928e-05 -2.09441e-22)
(2.48849e-05 7.55041e-05 1.66562e-19)
(0.00407506 -0.00027945 -6.72625e-22)
(-7.60842e-05 1.44215e-06 0)
(0.000252745 0.00228877 1.35474e-19)
(-0.000641291 -0.00353293 -4.52205e-20)
(0.000352349 0.000452069 0)
(1.8606e-06 3.50118e-06 0)
(2.69209e-05 1.41816e-05 0)
(0.000481986 -0.000631833 0)
(-0.000568256 -0.0030895 -1.99862e-20)
(-0.0564573 -0.0865987 0)
(0.0111039 0.0272112 2.68584e-20)
(8.50687e-05 6.86769e-05 -2.53872e-20)
(-0.00432985 -0.00459572 1.07911e-19)
(-0.00576908 -0.000776941 1.98082e-20)
(8.66456e-06 2.2516e-06 -9.80908e-21)
(0.000105697 0.000176143 -2.66914e-21)
(-2.32864e-05 -0.000353601 -4.93378e-20)
(0.0581128 -0.100757 6.03252e-20)
(0.00241229 -0.002187 -9.32729e-20)
(0.000507596 0.00304394 0)
(-0.00234719 0.00378593 -1.70825e-19)
(0.000948791 0.000569469 8.88415e-20)
(0.0167197 -0.00208082 -1.04877e-18)
(-2.97791e-05 0.000141144 1.48654e-20)
(3.33099e-05 -0.000305346 1.02588e-19)
(-0.00184562 -0.000104671 8.39218e-20)
(5.67697e-05 -0.00018394 3.10427e-20)
(0.0112521 0.0214288 -1.75654e-19)
(-0.00432092 0.000837766 2.82832e-20)
(-0.0100708 -0.059101 -4.79877e-19)
(0.000195351 -0.000117863 1.11495e-19)
(-0.000666777 -0.00455319 0)
(2.58673e-05 -5.14353e-08 0)
(0.000650423 -0.000162081 4.0743e-20)
(3.89066e-05 -1.79713e-05 0)
(-0.000443209 -0.000817179 3.88888e-20)
(0.000559308 0.00346856 1.76177e-22)
(-0.000838779 -0.0012127 -8.60613e-21)
(-0.000984671 -0.00203205 -4.29178e-20)
(8.14504e-05 -6.09427e-05 -4.14524e-20)
(3.72955e-05 -1.24175e-05 4.64553e-20)
(0.00957321 0.0157448 9.11795e-20)
(0.000568712 -0.00607891 0)
(0.00296307 0.000235957 0)
(8.74578e-05 -0.000163305 -1.0203e-19)
(1.29586e-05 0.00398662 7.00604e-21)
(-0.0020816 -0.000535621 -8.69964e-20)
(-0.00624949 -0.0556822 -7.5186e-20)
(-0.0003259 -0.00128671 -6.07699e-20)
(-0.0139666 -0.00778973 -1.59608e-20)
(0.00294331 -0.000410349 0)
(-0.000486197 -0.000892413 0)
(-0.00305937 -0.000733368 -5.85391e-20)
(5.91408e-05 -1.76267e-05 0)
(0.00194754 0.00186497 -1.56189e-19)
(-0.000634901 0.00133218 0)
(0.00370727 0.00555741 -1.3925e-19)
(0.00223077 -0.00719618 0)
(0.00354194 -0.00475786 -2.35816e-20)
(0.00188739 0.00285896 0)
(0.000172218 -8.26687e-05 0)
(-0.00838866 0.0120789 1.91309e-19)
(0.00318005 -0.00026594 0)
(0.000757323 0.00382818 2.60433e-20)
(-1.0349e-05 4.20044e-05 -1.06088e-19)
(1.17453e-06 -1.73863e-06 4.44365e-20)
(3.54215e-06 1.13356e-06 0)
(3.7313e-05 -4.31203e-05 0)
(0.00338012 -0.0012557 4.63209e-20)
(0.000411184 0.000443407 -9.55298e-20)
(0.0245062 -0.0434722 1.12412e-19)
(0.000557123 -0.00354723 8.20204e-20)
(2.40754e-06 7.4075e-06 -9.27185e-21)
(-0.000353946 6.07877e-05 0)
(-0.000449083 -0.00240712 2.13755e-20)
(0.00419132 -0.00742549 0)
(0.0018457 -0.000261788 -2.45712e-20)
(-0.00213982 0.00810453 1.99117e-20)
(0.00373915 0.00148592 -1.52269e-19)
(-0.00487733 0.000586271 -2.15063e-22)
(0.000979292 0.00235699 -1.71772e-19)
(-0.00237522 -0.000797236 2.86756e-21)
(0.000883919 -0.000598326 2.69016e-20)
(-6.02623e-06 1.53737e-05 -2.70329e-21)
(-0.000838321 -0.00124804 -5.44464e-20)
(-0.00236534 -0.000253014 5.2178e-20)
(2.13619e-05 1.32966e-06 5.41668e-20)
(0.000191867 0.000258562 3.6728e-20)
(-0.00452734 -0.000924016 0)
(0.000435744 -0.00064205 4.85148e-20)
(4.70233e-05 -9.12125e-06 7.05969e-20)
(0.00394712 -0.000158793 -1.05712e-19)
(-0.0167202 -0.0211993 -5.79586e-20)
(-0.00556019 -0.000133974 0)
(3.49559e-05 1.84925e-05 -3.99894e-20)
(0.000378536 -0.000259782 -3.35276e-20)
(-0.000189003 -0.00509871 5.66641e-20)
(0.000529631 0.00111144 -5.72047e-20)
(0.000137699 0.000166989 -8.34386e-20)
(-0.00143907 0.000199062 -5.96103e-21)
(0.00219968 0.000851915 -1.4891e-19)
(9.5351e-05 -0.00120613 -8.76412e-20)
(-0.0089731 -0.0213359 -7.18052e-20)
(-0.000293433 -0.000970746 -5.63857e-19)
(3.18139e-05 2.70355e-06 -1.2579e-19)
(-9.94386e-05 -0.00110466 1.027e-20)
(0.000716619 0.000547557 -5.83594e-20)
(-0.000517118 0.00475033 0)
(3.87269e-05 -0.000862001 -8.64007e-22)
(-0.00177372 -0.00103979 2.95712e-20)
(-0.00299476 -7.74053e-05 -5.4465e-21)
(0.000740802 -8.28683e-05 5.68373e-20)
(0.00109488 0.00305442 1.85171e-19)
(0.000488119 0.000165455 -3.74191e-20)
(7.76329e-05 0.000111065 -7.0458e-20)
(4.18564e-05 -5.56917e-05 -5.14059e-21)
(0.0027577 0.0193008 -2.07211e-20)
(0.00061247 0.00142367 -9.48753e-21)
(0.000249219 -0.000109195 -8.88102e-20)
(-0.000577541 -0.000392656 7.25256e-20)
(-0.0013189 -0.000833196 -9.735e-20)
(3.54576e-05 -4.50446e-05 0)
(0.00803991 -0.0451255 -7.20891e-20)
(0.000522296 0.000294599 0)
(0.000169707 0.00969982 -2.21773e-20)
(5.27077e-05 -5.57866e-05 0)
(-0.00292837 -0.000672246 8.23476e-20)
(0.000265466 0.00100063 -2.31007e-20)
(0.00350969 -4.00907e-05 0)
(-0.00049923 -0.00617724 -2.7997e-20)
(-2.1357e-05 1.57058e-05 -9.05924e-20)
(3.71272e-05 4.86459e-06 0)
(5.27905e-05 -0.000318905 -1.24223e-19)
(2.58056e-05 1.01843e-06 -7.15484e-20)
(0.00027906 -1.5742e-05 -3.19286e-20)
(6.34717e-05 8.16486e-05 5.83095e-20)
(0.000603282 -0.000397309 0)
(-0.000519526 -0.00103001 5.1157e-20)
(0.000375486 -0.000440239 0)
(4.02696e-05 1.85856e-05 -1.28906e-20)
(7.6891e-05 -0.000100372 -2.94516e-20)
(-9.20997e-06 7.70108e-06 4.38506e-20)
(0.000181773 -2.79763e-05 0)
(0.000435803 -0.00122808 0)
(0.00032563 -0.000757919 0)
(-0.000880897 0.000915339 -4.732e-20)
(0.000144953 -0.000949581 0)
(-0.00504706 -0.000122584 2.15037e-20)
(2.08795e-05 -7.10709e-06 8.112e-20)
(8.4824e-05 0.000168962 0)
(8.33398e-05 1.05072e-05 6.05747e-20)
(0.00262775 -0.0023235 1.08809e-20)
(4.08567e-05 7.20066e-05 0)
(-0.000431414 0.000470354 5.88183e-20)
(0.00385793 -0.0038423 0)
(-0.00233788 -0.000108924 1.32056e-19)
(-8.52858e-05 -0.000206198 -3.76989e-22)
(-5.44745e-06 2.47048e-05 0)
(-0.002676 0.000231099 1.06514e-19)
(4.95953e-07 -4.92168e-06 4.15999e-20)
(4.62777e-05 0.000106066 -5.46257e-20)
(6.22589e-05 -7.1046e-06 0)
(-1.19863e-05 0.000345838 0)
(-0.00014084 -0.000882404 -7.0521e-20)
(6.70894e-05 -1.96662e-05 0)
(2.68232e-05 -6.6466e-05 -8.14981e-20)
(5.50825e-05 -2.7553e-05 -3.5396e-20)
(-0.000528699 0.00242439 -6.78885e-20)
(0.000196488 -2.7181e-05 4.71832e-20)
(0.000169558 6.69941e-05 0)
(0.000112725 8.99716e-05 8.87969e-20)
(0.000273534 0.000269687 0)
(-7.0263e-05 0.000100685 1.96669e-21)
(-0.00338532 -0.00233182 1.94855e-19)
(-1.88887e-05 5.60251e-05 5.12893e-20)
(0.0097313 0.0653442 -7.27995e-21)
(0.000394153 0.000155742 7.68195e-20)
(-0.00130649 0.000929283 -8.23277e-21)
(0.00216986 -0.00321835 -6.29071e-20)
(0.000220306 -2.81178e-05 -4.02964e-20)
(0.00015762 0.000151439 0)
(0.000303483 -0.000151554 -1.06712e-19)
(6.38032e-05 -9.91936e-06 -8.4735e-20)
(-0.000101656 0.00017905 4.05358e-20)
(0.00010125 6.88302e-05 -7.13776e-20)
(-0.00024833 0.000633511 0)
(-0.00352903 -0.0120116 -2.65203e-21)
(0.0174168 -0.000813794 1.05396e-19)
(-0.000234393 0.000194879 -1.58404e-20)
(-7.98151e-05 -0.000154502 -5.62935e-20)
(0.000183344 0.00929286 1.20663e-19)
(-0.00169472 0.000332093 0)
(-0.00813982 -0.00198769 -1.39107e-19)
(0.051259 0.0206134 3.27759e-19)
(-3.35552e-06 4.24722e-05 0)
(3.1576e-06 -7.53509e-06 -4.0621e-20)
(6.08584e-05 1.1323e-05 0)
(0.000675745 0.00128946 0)
(-0.00703436 -0.0156822 0)
(-3.60075e-06 -4.39088e-05 2.43237e-22)
(0.00105524 -0.00293771 0)
(0.00387116 -0.000298754 -2.21274e-20)
(0.000797222 0.00411036 0)
(-5.5703e-06 2.39396e-05 -9.0011e-20)
(0.00343963 -6.03417e-05 0)
(0.000514759 -0.000524954 5.1001e-20)
(-0.00162134 0.00876258 -2.75953e-19)
(1.47192e-05 -4.78038e-05 4.97887e-20)
(2.58532e-06 3.56201e-05 3.31134e-20)
(0.000341788 0.000785235 0)
(0.00838484 -0.000143876 7.59408e-20)
(0.00219442 -0.00620089 0)
(-0.0166282 -0.00800816 2.59595e-19)
(-4.61481e-06 -0.000728261 0)
(-2.79318e-06 8.48526e-06 -3.03217e-20)
(-2.31589e-05 1.58374e-05 0)
(-0.00053656 0.00335233 -8.62006e-20)
(-0.000775302 0.000239506 9.8222e-20)
(-6.6095e-06 2.24519e-05 -5.13542e-20)
(2.60775e-05 -5.89557e-07 -4.56427e-20)
(0.000662477 0.000619904 -2.29908e-20)
(0.000227871 0.000119238 7.39205e-20)
(2.47735e-05 -2.18312e-05 1.36801e-19)
(8.48037e-06 -9.47227e-05 0)
(-0.00315376 -0.000264952 0)
(0.000752287 -0.00557286 -7.67286e-20)
(-0.00117907 0.00422648 0)
(-9.38124e-05 -0.00126509 7.37659e-20)
(0.000570394 0.00320174 -3.5278e-20)
(-0.00888502 0.0759352 1.05352e-19)
(0.0064666 -0.0268627 1.70838e-19)
(-0.0127708 0.0342455 3.68409e-21)
(0.00123718 0.00531138 3.02457e-20)
(0.00155881 0.00183904 0)
(1.61548e-05 3.71048e-06 7.41542e-20)
(0.00369752 -0.00176321 0)
(1.18295e-05 3.32719e-06 0)
(-0.00134437 -0.00127742 0)
(5.37577e-05 -0.000113893 3.37487e-20)
(0.000265257 -0.000214007 3.03315e-20)
(0.00436701 0.000157617 9.47383e-20)
(-0.00120652 -0.00134155 1.50445e-19)
(-0.000950473 -7.88082e-05 2.53257e-20)
(4.77113e-05 -4.3672e-05 0)
(0.000240486 -0.000227225 -5.13023e-20)
(0.000119247 0.000420773 -4.25794e-20)
(0.00251333 0.00521332 -2.16251e-20)
(-0.00582206 -0.00209119 0)
(0.00144125 -0.00595262 3.41077e-20)
(4.52862e-06 1.75103e-05 7.69241e-20)
(0.0029354 -0.00212688 0)
(0.00320636 -0.00176365 -3.16343e-20)
(0.000294168 0.000307388 0)
(-6.3548e-05 -0.00192573 -5.49652e-20)
(-1.00536e-05 -0.000193357 -4.88271e-20)
(0.00204302 0.00125396 0)
(0.00476934 -0.0431246 0)
(-0.000102905 -0.00034367 -7.06246e-20)
(0.0036292 0.00103101 3.08516e-20)
(5.47623e-06 1.8569e-05 -7.36823e-20)
(0.0105813 -0.00518633 1.19239e-19)
(-0.00111887 -0.00876526 0)
(0.000703008 -0.000470685 -1.04726e-19)
(0.0390419 0.035024 1.42218e-20)
(-5.42952e-05 0.00749473 -4.89795e-20)
(-1.19453e-05 9.55473e-06 5.43392e-20)
(0.000790915 0.0132401 -9.56552e-20)
(0.00729669 -0.00538949 4.93638e-20)
(-0.012992 -0.000658828 0)
(-0.000711384 -0.000687807 2.9582e-20)
(0.000374075 0.000637313 -6.56964e-20)
(0.000250911 0.00105079 9.54545e-20)
(-0.00018029 0.000179749 3.85757e-20)
(0.00577839 0.000598624 -2.3043e-20)
(-0.000192927 -0.000288136 0)
(-0.000453468 -0.000409579 1.66716e-19)
(2.48165e-05 -2.56397e-05 6.04868e-20)
(0.000101106 -8.14987e-05 -2.46217e-22)
(0.000631242 -7.67339e-05 1.19076e-19)
(3.10217e-05 6.82313e-07 0)
(2.18221e-05 2.31637e-05 1.08386e-19)
(-0.00991489 -0.00836464 1.99555e-20)
(-0.00425843 -0.00325248 -6.53623e-20)
(-0.0121945 -0.00143618 -5.72328e-22)
(0.000767484 0.00958185 6.04443e-20)
(0.00396458 0.000279346 -1.02534e-19)
(-0.00537914 0.00824267 0)
(8.17905e-05 8.99267e-05 1.3035e-19)
(0.00136801 0.00549452 6.38852e-20)
(-0.00062895 0.000759808 5.94838e-20)
(0.00112293 0.00190423 -1.11768e-19)
(-0.000998518 -0.00113774 -8.37263e-20)
(-0.00209534 0.00145346 5.47721e-20)
(-8.99445e-06 1.92835e-05 4.97485e-22)
(8.85574e-06 3.55776e-06 -5.03028e-20)
(1.86626e-05 3.11259e-05 5.53073e-20)
(-4.05989e-05 -0.000202151 3.33182e-20)
(0.00374431 -0.00055785 -2.06559e-20)
(-0.000798579 -0.00133323 7.19802e-20)
(0.000453642 -0.000460014 -7.51816e-20)
(0.000622584 -0.0037207 0)
(0.00923804 0.0211868 0)
(-0.00291514 -0.0240715 -2.22249e-19)
(-0.00190172 -0.00746249 -5.28617e-20)
(0.00276669 -0.003125 -3.44891e-21)
(2.04032e-05 1.50144e-05 -3.32876e-20)
(0.00480292 0.0221463 0)
(0.000654579 0.00138051 0)
(-5.28299e-05 0.000148637 1.90231e-21)
(-5.70608e-05 -0.000149376 0)
(0.000305536 -0.00325254 0)
(-0.007811 -0.00158368 -5.92779e-20)
(-2.17498e-06 5.77892e-06 0)
(0.000310283 0.000901913 -1.02156e-19)
(-0.000651027 -0.00524666 -2.72443e-20)
(8.95841e-05 -0.000171437 2.75919e-20)
(4.343e-05 3.10806e-06 6.70713e-20)
(-0.00326215 -0.000681579 -3.42263e-20)
(-0.001414 -0.000691751 -3.29719e-20)
(0.00235208 0.046815 2.26403e-19)
(0.00378967 0.000680975 0)
(-0.00361479 0.000466105 5.98418e-23)
(-0.00119022 -0.000100791 0)
(-0.00018774 0.000843214 0)
(0.000386861 -3.56415e-05 0)
(7.40503e-05 -0.00021634 -1.08171e-19)
(1.16758e-05 3.69503e-06 0)
(-0.000252587 -0.000316394 1.65913e-20)
(4.18157e-05 1.91345e-05 0)
(0.000170165 0.00148479 1.29629e-19)
(0.000204229 0.00440938 0)
(0.000315758 0.000153404 -8.75299e-20)
(-0.00537926 -0.0185265 0)
(3.89213e-05 4.09251e-05 0)
(0.000384715 -0.000627916 -4.64588e-20)
(-0.00281629 0.00118198 5.23711e-20)
(0.000247013 1.21301e-05 2.93464e-20)
(-0.000137614 -0.000244235 6.1256e-20)
(0.000568293 0.000865985 1.48013e-19)
(0.00101193 -0.000544079 1.2384e-19)
(4.23902e-05 -0.00379804 -7.26151e-20)
(-0.00103492 -0.00148393 0)
(0.00013946 1.49853e-05 7.52308e-20)
(2.66871e-05 -1.7687e-06 2.87813e-20)
(-1.77989e-05 9.00805e-06 3.7551e-20)
(8.84386e-05 0.000154942 0)
(2.78055e-05 3.19084e-05 -1.00303e-20)
(-4.74401e-05 -8.04112e-05 -3.89327e-21)
(0.000412603 -0.00045746 1.94603e-20)
(0.00354539 0.000588349 0)
(0.00200372 -0.00467011 1.04733e-19)
(-0.000324692 -7.51322e-05 6.23559e-20)
(-0.000270193 -0.000600135 2.96263e-20)
(3.24964e-05 3.85648e-05 6.18508e-20)
(-0.00038568 -0.00124276 7.15848e-20)
(-0.00175686 0.0179518 3.77675e-20)
(-0.000616931 0.00104818 -9.75472e-20)
(9.14041e-05 -0.00400417 -6.92904e-22)
(0.00104571 -0.000425856 0)
(4.82648e-05 -3.60546e-05 -1.71325e-20)
(8.16056e-05 -0.000432761 -7.55917e-20)
(-0.00024987 0.00116786 -6.26494e-20)
(0.000172191 0.000542854 0)
(-0.00277176 -0.00536165 -6.96803e-20)
(2.5999e-07 -0.00137738 0)
(-0.0141569 0.029061 -4.37897e-19)
(0.00266517 0.00184747 3.43013e-20)
(0.00114082 0.000488912 2.24559e-20)
(-0.000362476 -0.00044585 -5.2018e-20)
(0.000281632 -0.00716773 5.2525e-20)
(-5.22638e-05 1.73075e-05 4.44785e-20)
(0.000337251 -0.000396948 -4.55841e-20)
(-0.00356515 -0.000833564 3.67514e-20)
(0.00297943 -0.00183733 3.34377e-20)
(0.00289915 0.00239618 7.51778e-20)
(-0.00633923 -0.00316432 -1.16613e-19)
(0.00131687 -0.00344186 0)
(0.000208263 0.00916113 6.77468e-21)
(-0.00440389 0.000187906 1.04633e-19)
(0.000149245 -0.000463135 0)
(0.00496755 0.00908971 -6.42081e-20)
(-0.0048944 -0.000551865 -2.30656e-20)
(0.0029189 -0.0013013 5.88142e-20)
(-0.00173548 -0.00178098 4.20011e-20)
(0.000284119 0.00116232 6.33223e-22)
(-3.17786e-05 -0.00023079 0)
(0.00115605 0.000640361 -2.46862e-20)
(0.00100046 -0.000378927 -7.28354e-20)
(0.000572187 -0.000165423 -4.91945e-20)
(0.000317354 -0.000247475 6.47738e-20)
(2.40904e-05 0.000181069 -4.57838e-23)
(-0.00028552 -0.000496606 0)
(-4.21785e-05 2.25542e-05 -3.13294e-20)
(0.00450363 0.000782261 1.07764e-19)
(-0.000812056 0.00288134 -2.79597e-20)
(2.99556e-05 -6.14104e-05 3.36411e-20)
(3.91428e-05 1.41398e-05 0)
(-0.00144618 0.000479006 -1.85091e-20)
(-0.000209819 -0.000282371 5.20094e-20)
(0.00573143 0.000859967 -2.38606e-20)
(-8.00234e-06 1.88579e-05 9.18099e-20)
(-2.18689e-05 5.91119e-05 -3.18842e-21)
(0.000200192 -0.000159254 -8.42118e-20)
(0.0153565 -0.00619068 6.27307e-20)
(-2.62639e-07 9.87809e-06 3.62246e-20)
(-0.0122663 0.00127625 -1.06066e-20)
(-0.00493556 -0.000434512 3.17624e-20)
(1.0401e-05 1.31261e-06 7.20411e-20)
(8.30212e-05 -4.2648e-05 0)
(8.12945e-05 -0.000101393 -4.87991e-20)
(-0.00567074 -0.00144205 -2.11799e-20)
(0.00344266 0.00113142 2.92662e-20)
(-0.00312714 0.00520113 1.16018e-19)
(-0.00187323 0.00426193 3.88404e-20)
(0.000144712 -1.73643e-06 6.69627e-20)
(-0.000418912 0.000702386 -1.5247e-20)
(-0.0013661 0.000965013 1.44429e-19)
(-2.7192e-05 0.0024596 -7.91109e-20)
(0.000158904 -0.000743137 0)
(3.25923e-06 -4.59057e-05 0)
(0.0490101 0.161155 -5.35264e-19)
(0.00253746 -0.00148267 6.04843e-20)
(1.94457e-05 -2.57961e-06 -3.87407e-20)
(-0.00024864 0.00134764 -1.29164e-19)
(0.000520504 0.0012815 -9.11973e-20)
(7.06194e-05 -0.000358085 0)
(0.000275502 0.00103437 0)
(0.00103404 0.00177517 1.09209e-19)
(-0.00114824 0.00185474 7.76328e-20)
(0.0024771 -0.00515163 4.59365e-20)
(2.97612e-05 -2.48024e-05 7.72613e-20)
(-0.00317757 -0.000865015 -1.41802e-19)
(0.00101323 0.00473921 7.01488e-20)
(-0.000200415 2.54144e-05 0)
(-0.000239953 -0.000268341 1.70309e-20)
(-0.000750086 -0.0020841 2.4394e-20)
(-0.00328655 0.00289672 -6.27832e-20)
(-0.00257211 0.000815882 0)
(-0.00142795 0.00131336 0)
(-0.000223659 -0.00104619 0)
(-0.000206678 0.00131783 5.87658e-20)
(-0.00563574 -0.00262325 0)
(-0.00409452 0.000323151 0)
(2.61257e-05 -4.80672e-05 -2.91489e-20)
(0.000139592 0.000158649 5.04042e-20)
(0.000152963 -0.000444192 6.67021e-20)
(2.94985e-05 5.57394e-06 1.0226e-20)
(-0.00477849 -0.000664809 -4.38123e-20)
(-0.000424485 -0.000692253 -5.10816e-20)
(-0.000125688 0.00153531 -9.93818e-20)
(-0.00260979 0.00338505 0)
(-0.00141985 -0.00679222 0)
(-4.90718e-05 -7.75843e-05 -5.57672e-20)
(0.000129105 -0.0010376 0)
(-0.0158687 -0.0210392 7.98022e-20)
(7.86574e-06 -7.07629e-05 1.32844e-19)
(0.00184335 -0.000946095 5.14999e-20)
(5.91483e-05 -5.46675e-05 4.58446e-20)
(-0.0437642 0.0237145 1.55035e-19)
(0.0037075 -0.00196459 -6.21819e-20)
(-1.1231e-05 3.37718e-06 0)
(-0.0153712 0.022556 1.28412e-20)
(0.000176229 -2.22529e-05 9.68054e-21)
(-4.65292e-05 3.35428e-05 0)
(-0.000239206 -0.00671607 1.21993e-20)
(5.59532e-05 7.09003e-05 -4.10887e-20)
(-0.00459105 -0.0130218 1.84827e-19)
(-3.20633e-05 -0.000200923 5.91871e-20)
(4.04123e-06 -0.000451724 5.96939e-20)
(1.18712e-05 2.16386e-06 0)
(-3.88894e-05 -0.000192528 -1.37573e-20)
(-2.62912e-05 -0.000302595 -7.0534e-20)
(0.000147584 -0.00429911 -1.32244e-20)
(8.19438e-05 -5.03575e-05 0)
(8.05502e-05 -1.69279e-05 -3.25781e-20)
(0.000102845 4.60556e-05 0)
(-2.77e-06 -0.000406019 0)
(0.0035039 -0.00204776 -6.79202e-20)
(-0.00992458 -0.00177428 0)
(-0.000434107 -0.000792113 1.07889e-19)
(-0.00888857 -0.00946554 0)
(-0.000654303 -0.00112447 -3.56812e-20)
(-0.00202542 -0.00037885 -1.99038e-20)
(0.000262697 0.00413683 -1.5107e-20)
(2.6652e-05 -3.71841e-07 -6.09865e-20)
(0.000848116 -0.00267673 5.03182e-20)
(-0.000183752 -0.000458766 -8.88455e-21)
(3.50229e-05 -1.84794e-05 4.7362e-20)
(1.12575e-05 5.6917e-06 5.21095e-20)
(-0.000780691 0.000674481 -8.57974e-20)
(-0.0116613 -0.0401853 -2.86288e-19)
(-0.0032351 0.000254685 0)
(-0.000113181 -0.00243281 0)
(1.09665e-05 5.3735e-05 3.08216e-20)
(0.000483709 0.000375707 0)
(-0.000119024 0.0242876 2.29273e-19)
(-2.79658e-06 -4.96779e-06 5.34159e-20)
(-0.000243964 0.00311047 -1.08834e-20)
(1.11118e-05 7.0789e-06 0)
(0.00419202 0.000989971 -1.38448e-19)
(0.00154063 -0.000855821 0)
(7.78378e-05 -6.20969e-05 -6.22018e-20)
(-7.53674e-06 9.60657e-06 0)
(4.37677e-05 -3.08196e-05 0)
(0.00335265 -0.00142854 1.68722e-20)
(0.00266259 0.00285184 0)
(0.00165807 -0.00428196 -5.64986e-20)
(3.30088e-05 -1.66965e-05 0)
(-5.12103e-05 -0.000497636 2.79683e-20)
(0.0116795 -0.0186172 -1.94019e-21)
(0.0004501 -0.00323145 4.45816e-21)
(0.000747873 -0.000552309 -1.1019e-19)
(-0.0048456 -0.000319575 1.30851e-21)
(0.00162052 -0.000628982 -1.76905e-20)
(-0.000582851 0.00219075 -7.85892e-20)
(1.61926e-05 3.48189e-06 -2.81863e-20)
(-0.00193222 0.00771615 2.24979e-19)
(-0.0016459 0.00413049 -4.00397e-20)
(-1.05736e-05 -8.8495e-05 -1.19316e-20)
(6.06289e-05 -7.84336e-06 1.62388e-22)
(-0.00393735 -0.00156964 1.14852e-19)
(0.00162452 0.00150325 -1.51386e-19)
(5.44133e-06 -5.97938e-05 8.22754e-20)
(0.00164752 0.00124352 6.1524e-20)
(-0.00345928 -0.000879588 1.27292e-19)
(-0.000261195 -0.00023094 -1.80651e-20)
(-0.000335635 -0.000664365 1.26286e-19)
(2.93259e-05 -7.81115e-05 5.10268e-20)
(4.91173e-05 -3.46259e-05 6.96414e-20)
(-0.00460508 -0.000634682 3.29246e-20)
(0.00387003 0.0152452 6.801e-20)
(2.66016e-05 -5.98649e-07 0)
(0.00214632 0.000811791 -3.89061e-20)
(9.72588e-05 0.00011438 6.62462e-21)
(0.000456606 0.000432322 0)
(4.87314e-05 -1.06781e-05 4.7113e-20)
(0.000310285 -0.00104732 0)
(8.50089e-06 -0.00214992 1.309e-19)
(-1.81212e-05 9.66501e-06 0)
(0.000228276 -0.000370053 2.41495e-20)
(-0.00151072 -0.000612445 -1.22517e-19)
(-0.00207121 -0.00496976 -1.09223e-19)
(0.000388508 0.000988913 -4.86878e-20)
(0.0091383 -0.00226456 3.07738e-20)
(0.000392445 0.000482608 0)
(0.000813762 0.00465912 5.17662e-20)
(-0.0027348 0.000473706 1.4051e-20)
(-0.0013184 -0.00129714 -2.16842e-20)
(0.000260773 -0.00056296 -3.01772e-20)
(-0.00491537 -0.00179401 1.76222e-19)
(-0.00332225 -0.000334532 0)
(-9.79823e-06 3.19067e-05 8.86623e-20)
(0.00446649 -2.6037e-05 4.79098e-22)
(-0.000331776 -0.000265531 -2.09996e-19)
(-0.00165628 -0.000115567 9.08438e-20)
(-0.00278332 -0.00898803 1.33425e-19)
(0.000136346 -0.000189792 -7.50505e-20)
(-0.0285844 -0.00493248 6.49596e-20)
(2.06764e-05 2.34259e-06 -6.23397e-20)
(0.000110028 -0.000257621 3.25928e-20)
(0.00438359 3.88874e-05 0)
(7.70424e-05 -0.000143431 -7.1676e-20)
(-0.000606715 -0.00250029 1.28881e-19)
(0.000341448 0.00886409 3.43449e-21)
(9.74232e-05 6.1784e-05 0)
(-0.0097723 0.0181673 1.56279e-19)
(0.0271907 -0.0472861 -7.93864e-20)
(-0.00149782 -0.00228156 8.86711e-21)
(0.00464868 0.0320509 -1.5715e-20)
(0.00421278 -0.00151125 0)
(2.07026e-05 -2.6192e-05 0)
(-0.00100963 0.00152378 -8.41637e-20)
(0.000266209 0.000813507 1.48166e-20)
(0.000221983 0.000248976 2.06684e-20)
(-0.000240906 0.00203101 4.32958e-20)
(-2.92664e-05 -2.79573e-05 6.19043e-21)
(0.000596614 -0.000883097 -4.41558e-20)
(-9.04028e-06 7.54308e-05 0)
(0.0156023 0.0733313 0)
(2.79425e-05 -5.94763e-06 0)
(4.37475e-05 -0.000898641 8.01631e-20)
(-0.000181679 -0.000250478 -7.0686e-20)
(-0.000157693 0.00202635 8.95286e-20)
(0.00111724 0.0233724 -4.37681e-20)
(-0.00154718 0.00103485 1.40415e-20)
(0.00018748 -0.00183431 0)
(-0.000625666 -0.000839923 4.3614e-20)
(3.68178e-05 5.67366e-05 -2.46901e-20)
(0.000154905 0.00356445 -9.72784e-20)
(-0.0067796 -0.0154169 0)
(0.000118698 0.000237611 0)
(-3.53034e-06 0.000236984 -1.07476e-19)
(3.88958e-05 9.16978e-05 1.81103e-20)
(0.00365474 0.00186647 9.05827e-20)
(6.01722e-05 4.96407e-05 -8.18162e-20)
(0.000406352 -0.00589641 0)
(3.02877e-05 -1.4992e-05 6.24671e-20)
(0.000358273 -0.00108005 -2.69692e-20)
(-0.00364309 -0.00330514 -3.73666e-21)
(0.00234702 -0.00272661 4.31433e-20)
(2.0991e-06 -1.16275e-05 0)
(-2.18129e-05 8.31523e-05 -6.48475e-20)
(-5.49877e-06 2.78356e-05 -2.80779e-20)
(0.000229496 0.000176384 -2.31147e-20)
(-0.00129922 0.0431754 -1.13553e-19)
(-0.00311689 0.000515864 0)
(-0.00192813 0.00124686 0)
(0.00031426 -0.00479922 0)
(0.00145172 0.00375345 0)
(-0.000996452 0.00297725 4.96928e-20)
(6.89451e-05 0.000185573 0)
(-0.00146616 -0.000391078 8.75667e-20)
(-0.000926507 -0.000964228 1.04883e-20)
(0.000277823 0.000241285 0)
(0.000149885 -0.000247501 -1.08716e-19)
(2.43355e-05 0.000134071 0)
(0.00184224 0.00182448 0)
(1.77485e-05 -0.000116282 7.11071e-20)
(-0.00749941 0.00222788 1.07661e-19)
(6.95515e-05 0.000764955 0)
(0.00268951 -0.0038183 7.10153e-20)
(-3.50733e-05 2.44785e-05 0)
(0.00426307 0.000533205 -6.61398e-20)
(-0.00311382 -0.000212843 0)
(0.00329474 -0.00140185 -4.75314e-20)
(0.0040447 0.000167474 -2.79649e-20)
(0.00121725 -0.00130111 0)
(-0.000254386 0.00022373 -3.26624e-20)
(0.00244683 -0.00334389 -1.07292e-19)
(9.49682e-06 7.06896e-05 -1.72107e-20)
(-0.00397895 -0.000459973 0)
(2.73325e-05 4.32746e-05 1.8675e-20)
(0.00968425 -0.0104523 0)
(2.28847e-05 3.09742e-06 -3.8225e-20)
(0.0496005 0.0781046 -1.77628e-19)
(0.00564715 -0.019735 -5.57307e-20)
(0.00928024 0.0259084 1.20909e-19)
(-0.000120725 0.000120301 5.68166e-20)
(-0.000460667 0.00362073 0)
(-0.000990069 0.00288448 9.26711e-20)
(-0.000650425 9.75312e-05 0)
(0.00471051 0.00554396 3.67032e-20)
(-0.000121707 0.000291547 0)
(-0.000381196 0.00334902 -1.50377e-20)
(-0.00676313 -0.0216106 0)
(0.00106928 -0.00398575 0)
(0.00441289 -0.0101307 4.53082e-19)
(0.00211206 -0.00108995 -2.01157e-22)
(1.81764e-05 0.000255531 4.27812e-20)
(0.0019243 0.00105223 -8.49357e-20)
(0.000463405 0.000915377 -8.74773e-21)
(0.00100205 -0.0242984 0)
(5.07379e-05 0.000360344 0)
(0.00763225 -0.00775988 -1.29863e-19)
(-0.00182418 0.002812 -5.57303e-21)
(-0.00344969 0.0157614 -3.46699e-19)