/*--------------------------------*- C++ -*----------------------------------*\
| =========                 |                                                 |
| \\      /  F ield         | OpenFOAM: The Open Source CFD Toolbox           |
|  \\    /   O peration     | Version:  v2012                                 |
|   \\  /    A nd           | Website:  www.openfoam.com                      |
|    \\/     M anipulation  |                                                 |
\*---------------------------------------------------------------------------*/
FoamFile
{
    version     2.0;
    format      ascii;
    class       volScalarField;
    location    "200";
    object      k;
}
// * * * * * * * * * * * * * * * * * * * * * * * * * * * * * * * * * * * * * //

dimensions      [0 2 -2 0 0 0 0];


internalField   nonuniform List<scalar> 
13749
(
0.000148818
0.000190329
0.000148572
0.000156873
0.000152295
0.00017273
0.000167707
0.000151056
0.000147988
0.000156696
0.000180404
0.00014809
0.000163221
0.0145129
0.0365255
0.000155088
0.000148415
0.000194801
0.00014781
0.000148637
0.0276216
0.0370982
0.00522578
0.000181371
0.000152248
0.000166624
0.000164862
0.000161345
0.000145187
0.00015031
0.000185971
0.0242195
0.000156734
0.000170371
0.000146412
0.000145278
0.000148615
0.000148422
0.000154447
0.000171366
0.000172531
0.00932888
0.000153748
0.000154142
0.000195539
0.000158754
0.000148169
0.000180636
0.000146811
0.0172437
0.000182095
0.0298896
0.000172064
0.000211615
0.000158558
0.000146767
0.000164467
0.000156407
0.000146749
0.00259564
0.000147739
0.000152563
0.0220894
0.000148168
0.000150001
0.000152236
0.000147993
0.000148308
0.000157111
0.000158451
0.0261853
0.000145992
0.000145193
0.000147575
0.000191847
0.000175216
0.000154746
0.000146862
0.000164111
0.000149684
0.000145283
0.000151938
0.000181901
0.000145211
0.000171083
0.00017177
0.0150329
0.000206496
0.000146405
0.000180599
0.000146488
0.000178928
0.000151876
0.000791815
0.000172975
0.000181345
0.000158901
0.000148613
0.000146159
0.000152179
0.0322622
0.000145349
0.000155466
0.0394674
0.000149641
0.0399969
0.00018131
0.00014788
0.000181263
0.000148083
0.000148035
0.000154024
0.00018253
0.0265914
0.0325598
0.000148909
0.00014534
0.000158174
0.000149592
0.000146589
0.000150885
0.000149425
0.000145847
0.000144789
0.000151715
0.0266847
0.000173091
0.048816
0.000159594
0.000635628
0.000158374
0.0198706
0.0224638
0.000249866
0.000165145
0.000150668
0.000192827
0.000146611
0.000150745
0.0107953
0.00015957
0.000165131
0.000156682
0.0612936
0.000146021
0.0082084
0.000163053
0.000162385
0.000149501
0.000186212
0.000146049
0.00016846
0.0406764
0.000159656
0.000157499
0.0303032
0.000163017
0.000165675
0.000191157
0.00014754
0.0305599
0.000147524
0.0272961
0.000157288
0.000148539
0.000147638
0.000202045
0.000148567
0.000150385
0.000163346
0.000156968
0.00014806
0.000146784
0.000164273
0.00015056
0.000168738
0.000176376
0.000157385
0.0494062
0.0520373
0.000149732
0.000169826
0.000159297
0.000178434
9.42111e-05
0.000150793
0.0592594
0.00015145
0.000452437
0.000147761
0.000159688
0.00656033
0.000152428
0.000182383
0.0577039
0.00017263
0.000172656
0.00986378
0.000147143
0.000159615
0.000145488
0.000180587
0.000165578
0.000153278
0.0182757
0.000150833
0.000146602
0.000182295
0.000174086
0.000182071
0.0001491
0.00872916
0.00998888
0.000171064
0.000165587
0.000180397
0.0170452
0.000174297
0.0185424
0.000145235
0.00259085
0.000153015
0.000203617
0.0105899
0.000158599
4.07466e-05
0.000150951
0.000159799
0.0147019
0.00538275
0.000148396
0.000149939
0.000149328
0.000148161
0.027488
0.000151956
0.000166205
0.000165572
0.000148699
0.000148341
0.000152988
0.0189858
0.000212711
0.000187931
0.00017256
0.0612769
0.000151673
0.0159332
0.000158391
0.000148233
0.0228837
0.000150689
0.000146891
0.000152114
0.000161063
0.000164077
0.000147935
0.0221808
0.000171715
0.0454676
0.000145657
0.000158827
0.000181527
0.000151798
0.000149487
0.000192319
0.000246896
0.000166959
0.000164753
0.000160874
0.00014453
0.0292114
0.000184146
0.059138
0.000151258
0.0296738
0.0099853
0.000165809
0.000160475
0.000163415
0.000147613
0.000147196
5.58923e-05
0.0292649
0.000166462
0.00014959
0.000167471
0.000146747
0.000194819
0.000151774
0.000223553
0.000146772
0.0173157
0.000180864
0.0270685
0.000210821
0.000148511
0.00014514
0.000152892
0.000147269
0.000155049
0.000146349
0.000168214
0.0198727
0.000168733
0.000145687
0.000148124
0.000148587
0.000151251
0.000166026
0.0241529
0.000172407
0.000150267
0.0465426
0.000144507
0.000151774
0.000155699
0.0287958
0.000146559
0.000157537
0.000204926
0.00920001
0.000173511
0.000149937
0.00760502
0.000149764
0.000146361
0.000145828
0.000147929
0.000149604
0.000145887
0.000148199
0.000144809
0.000161623
0.000150217
0.000150509
0.000147435
0.000164632
0.000147946
0.000158902
0.000148596
0.000193286
0.000151698
8.00442e-05
0.000181953
0.000150875
0.000157003
0.00015006
0.000147351
0.000147871
0.000148307
0.000148427
0.0147805
0.020218
0.000152734
0.000147287
0.000170979
0.000212487
0.000165991
0.000212579
0.000148369
0.000149883
0.000146717
0.0234123
0.000159717
0.000147442
0.000162872
0.0241814
0.0400026
0.000148519
0.0266566
0.000164985
0.000157917
0.000149758
0.000147467
0.000151836
0.000165417
0.0122825
0.000189103
0.000159074
0.000149448
0.000148604
0.0383948
0.000150022
0.000149716
0.000153356
0.0208683
0.000147892
0.000147538
0.000155356
0.000199185
0.000222632
0.0570001
0.000148265
0.000152218
0.000229362
0.0302624
0.000189277
0.000186808
6.62584e-05
0.000147476
0.000171285
0.000148098
0.000188104
0.000151016
0.000166477
0.018107
0.000186226
0.000185992
0.000147488
0.00015314
0.000158818
0.000187673
0.0515414
0.000165089
0.00014949
0.0287794
0.0281505
0.000168894
0.000181054
0.000147831
0.000171874
4.44354e-05
0.000154798
0.000184705
0.000147517
0.000164086
0.0126985
0.023058
0.000167374
0.000199847
0.000149708
0.000188844
0.000165596
0.000271317
0.000158792
0.000152189
0.000150271
0.000148474
0.0613095
0.000147974
0.000149232
0.000149827
0.000159517
0.000156869
0.000145683
0.00014728
0.000171678
0.000183457
0.000190037
0.000180323
0.000151824
0.000401799
0.000147215
0.0622936
0.00016569
0.000157049
0.000162586
0.029324
0.000148569
0.000148285
0.000149907
0.000154776
0.0286416
0.000154258
0.000165117
0.000190981
0.000193691
0.0227962
0.000153762
0.00041209
0.00014737
0.000191727
0.0310719
0.000147807
0.00014778
0.000185579
0.000172275
0.000148197
0.000149189
0.000161645
0.000151234
0.000145856
0.0161627
0.0240339
0.000245976
0.0273459
0.0208644
0.000153973
0.000159064
0.000152742
0.000151228
0.000148095
0.000171147
0.000145903
0.000150828
0.0558488
0.000150091
0.0180339
0.000147207
0.000149611
0.00819646
0.000156685
0.000224679
0.0001498
0.0245257
0.000183035
0.000188003
0.000148245
0.000153739
0.00014973
0.000150471
0.000146625
0.00864484
0.000157897
0.0217292
0.000157752
0.00194436
0.000174096
0.000147761
0.00211133
0.000634443
0.000149505
0.000182932
0.000150309
0.000147602
0.000148034
0.000163749
0.000150831
0.00018089
0.000148492
0.000175397
0.000161842
0.000164912
0.000163539
0.000172358
0.000148566
0.00130846
0.0183208
0.0287123
0.00108698
0.000183755
0.000193216
0.000231935
0.0210346
0.000180946
0.000154309
0.0243361
0.0315736
0.000199821
0.000180446
0.000150459
0.0231482
0.000177414
0.000172652
0.000153368
0.000148065
0.000171813
0.000154492
0.0309624
0.0123781
0.000145134
0.000145801
0.000127904
0.000150274
0.0587863
0.00014853
0.000148515
0.000148949
0.000199592
0.000149499
0.000201394
0.0239825
0.000148183
0.000151047
0.000148011
0.0511081
0.0304568
0.000163464
0.000159406
0.000152441
0.000186724
0.0146959
0.000155901
0.00015485
0.000149793
0.000300216
0.00302214
0.00014745
0.000156969
0.000159725
0.000153834
0.000153688
0.000152127
0.0155121
0.00199144
0.000146853
0.0168175
0.0579033
0.00015766
0.000157431
0.00336416
0.000198476
0.0297644
0.0201501
0.000154538
0.000164831
0.0509038
0.0190004
0.000149786
0.000147475
0.000154995
0.000146448
0.0271902
0.000180523
0.000163208
0.000158323
0.000157664
0.00014786
0.000158518
0.000174973
0.000147754
0.000235491
0.000149038
0.000178351
0.0605819
0.00014958
0.000283374
0.000152433
0.000147842
0.00417209
0.000146568
0.000160368
0.000147012
0.000157239
0.000147766
0.000156681
0.000150128
0.00539342
0.000147286
0.000145905
0.000147975
0.000147033
0.0558989
0.000189968
0.00016283
0.000189605
0.000149547
0.0152847
0.0388
0.000145036
0.000165829
0.000181672
0.000145807
0.000148225
0.000166101
0.000203493
0.0287285
0.00018637
0.000149736
0.000150131
0.000181845
0.000149644
0.000199222
0.000148153
0.027369
0.000150819
0.000147097
0.00014884
0.000147277
0.026019
0.00018957
0.000242907
0.000145761
0.000154548
0.000205927
0.000152212
0.000154289
0.0175325
0.0166136
0.000194653
0.000147345
0.00196286
0.000158841
0.00014871
0.000145386
0.000174509
0.000182331
0.00014522
0.0299913
0.0203694
0.000165883
0.000150699
0.000147251
0.000145956
0.029898
0.000164741
0.000147586
0.000158233
0.000147275
0.000158666
0.000145448
0.000151647
0.000157173
0.000149721
0.000154599
0.000161982
0.0112224
0.000180121
0.000189317
0.000168416
0.000172288
0.0259822
0.000162466
0.000156977
0.000113407
0.0274159
0.000148596
0.0165068
0.000161812
0.000154193
0.000157347
0.000147943
0.00765433
0.000146963
0.000186222
0.0157567
0.000148224
0.000151455
0.000191361
0.000147009
0.000197072
0.000174893
0.000269116
0.000238742
0.000189055
0.000145578
0.000161818
0.000151627
0.000148996
0.0110891
0.000148813
0.000164613
0.000147516
0.000202715
0.000145407
0.000149499
0.000148249
0.000157509
0.00015923
0.0357214
0.000185845
0.000148317
0.000147323
0.000187239
0.000554959
0.00015076
0.000147084
0.000146581
0.000162549
0.000146855
0.00664281
0.000149505
0.00017157
0.000211254
0.0293431
0.000149794
0.000146978
0.000149052
0.000153175
0.000221742
0.0187807
0.036391
0.000189058
0.000158504
0.0380112
0.000147915
0.000152092
0.000197651
0.000157189
0.000150344
0.000163275
0.00377252
0.000150932
0.0317304
0.000153641
0.0577154
0.000147995
0.0264057
0.023439
0.0281495
0.0180264
0.000193883
0.000170982
0.0524438
0.000146569
0.000155401
0.000148362
0.000191311
0.000147221
0.000306449
0.000167724
0.000160645
0.000147784
0.000149046
0.037639
0.000152906
0.000154315
0.000147483
0.0158774
0.000207374
0.000191913
0.000180921
0.0268744
0.000148935
0.0257399
0.000194707
0.000187184
0.00015932
0.000182274
0.000151302
0.000199687
0.000147887
0.000159178
0.000159921
0.000146861
0.0389755
0.0293521
0.0218259
0.0373437
0.000197252
0.00324779
0.000149891
0.000207567
0.0001473
0.000258611
0.000200663
0.000158386
0.000209021
0.000169221
0.000189603
0.000148315
0.000166076
0.0440614
0.000148022
0.000155022
0.000147385
0.000148248
0.000147722
0.0247453
0.00014958
0.000147133
0.000187061
0.000148712
0.000165034
0.000147183
0.000157464
0.000150665
0.000172022
0.000148799
0.000168182
0.0643198
0.000181077
0.000190635
0.000167068
0.000177834
0.000190564
0.0251445
0.000163511
0.000148627
0.0637731
0.000151727
0.0257954
0.000158094
0.000198841
0.000125017
0.000187926
0.000149885
0.00015522
0.0211128
0.000155086
6.05451e-05
0.000157714
0.000215795
0.000177234
0.000193473
0.0137153
0.000146489
0.0346945
0.000210858
0.000147349
0.000148938
0.0508071
0.000149039
0.000181554
0.0490919
0.000148806
0.000188001
0.000157998
0.000169246
0.00014876
0.000147377
0.000149939
0.000183103
0.0308374
0.00014714
0.000146836
0.000153052
0.000197066
0.000170615
0.000148582
0.000146841
0.000147372
0.00014974
0.000147718
0.000160575
0.000153115
0.000167978
0.00025084
0.000170513
0.000192149
0.000150097
0.000149425
0.000149072
0.000247798
0.000155428
0.000182305
3.15563e-05
0.000149765
0.000189551
0.000163641
0.000181048
0.000148376
0.000207034
0.000151232
0.000149662
0.000149995
0.000144883
0.000179509
0.000166688
0.000162773
0.000147765
0.0328077
0.00014987
0.0152931
0.0603316
0.000148553
0.063185
0.000146151
0.000146981
0.000148908
0.000149879
0.000149031
0.000148457
0.000147388
0.000147842
0.000145349
0.000150258
0.000166553
0.0291996
0.000147349
0.0193117
0.000149942
0.000149628
0.000162996
0.000150278
0.0282365
0.0299367
0.00574889
0.000149971
0.000147437
0.00408747
0.000150006
0.000148441
0.000165155
0.000148293
0.000154414
0.0366806
0.000175531
0.000145359
0.000161508
0.000196313
0.000146917
0.000193878
0.000150804
0.059842
0.000155202
0.000166136
0.000189019
0.000332574
0.000146435
0.000200437
0.0001589
0.000147235
0.000170638
0.000149789
0.000148436
0.000148428
0.000147717
0.000162573
0.0502135
0.000146709
0.0502244
0.0577109
0.000146893
0.000191629
0.047794
0.000158543
0.000157979
0.0482592
0.000193691
0.0202966
0.000191572
0.000149644
0.000194931
0.000148691
0.0379295
0.000181413
0.0356288
0.000148528
0.0455199
0.000147566
0.0356486
0.000209862
0.000204718
0.000148325
0.0142178
0.000310217
0.000150239
0.014761
0.000153623
0.000135572
0.000170043
0.0191538
0.000149766
0.000172151
0.000148651
0.000171272
0.000157273
0.000148635
0.000199419
0.000148815
0.000186495
0.000184485
0.0001485
0.0137448
0.000150275
0.000150279
0.0511731
0.00014728
0.000150171
0.000147801
0.029911
0.000148633
0.022749
0.000148474
0.000152476
0.000144649
0.000152968
0.000149306
0.0240663
0.00017225
0.000181845
0.000149067
0.0001491
0.000149622
0.000149057
0.000148296
0.0001673
0.0150109
0.000144512
0.000156869
0.000210437
0.000159899
0.000171608
0.000147097
0.0480118
0.000151781
0.00015072
0.0178991
0.00014858
0.000147974
0.0177592
0.00016697
0.000150364
0.000178497
0.000150118
0.000170352
0.00015419
0.000147156
0.000154225
0.0243988
0.0292914
0.000167069
0.000151264
0.0220131
0.000151233
0.000147
0.000209502
0.000149052
0.000181167
0.000748598
0.000205327
0.000182025
0.000148339
0.000184779
0.000155083
0.000161249
0.000148754
0.000155109
0.000148819
0.000148403
0.0385233
0.000149088
0.000149725
0.000174082
0.000154
0.000152145
0.000147341
0.00210083
0.000183033
0.000154835
0.0282875
0.000173867
0.000148593
0.000178909
0.000167011
0.000157528
0.0178537
0.00166025
0.000147897
0.00024268
0.000178371
0.0158538
0.000147553
0.0225772
0.000149355
0.0266476
0.000145284
0.000147779
0.0105274
0.000148475
0.000146678
0.000148533
0.000215079
0.0223883
0.000173578
0.000148113
0.000188889
0.000147966
0.0559567
0.000147705
0.000147811
0.000190234
0.000150107
0.000148496
0.000180033
0.000148621
0.000149591
0.000157841
0.000156633
0.000146657
0.000155094
0.000145481
0.000148785
0.000148301
0.000157439
0.00014798
0.000172644
0.0484436
0.000148948
0.000298358
0.000148622
0.000155742
0.000147524
0.000147551
0.000153538
0.030577
0.000164211
0.000149743
0.000147285
0.000239059
0.0306957
0.000147043
0.000162993
0.000147999
0.000157345
0.0482953
0.000152779
0.0136604
0.000147907
0.000144638
0.000147069
0.000147518
0.0390418
0.000150175
0.000145626
0.000147576
0.000145507
0.000147167
0.0168835
0.000146778
0.0218954
0.000148284
0.000153339
0.00579814
0.000149732
0.000147356
0.000146145
0.000162433
0.000169536
3.96714e-05
0.000149876
0.0180149
0.000186764
0.000150427
0.000161079
0.000149946
0.000149551
0.000150133
0.000158091
0.000149268
0.000147841
0.000173689
0.0129546
0.000148073
0.0599473
0.034579
0.000153274
0.000147823
0.000216991
0.000170146
0.000147509
0.00551365
0.000148751
0.000148323
0.000155474
0.000156408
0.000148307
0.000149786
0.000146825
0.000151172
9.10379e-05
0.000159582
7.77937e-05
0.000163301
0.000149494
0.00015789
0.000158167
0.0192333
0.0619526
0.000179368
0.000157833
0.000188526
0.000148927
0.000146505
0.025317
0.000186679
0.00485758
0.000149623
0.000221893
0.000117287
0.000201409
0.000148916
0.000149144
0.00017415
0.000149032
0.000147062
0.00020103
0.000171635
0.000183108
0.000154304
0.000145626
0.00613481
0.000148244
0.000156844
0.000181392
0.000147952
0.00014978
0.000149272
0.0647175
0.000150744
0.000148502
0.00310751
0.000164112
0.000147201
0.000148952
0.000191915
0.000148231
0.00014841
0.000148198
0.000155766
0.000144941
0.00219156
0.000159201
0.05055
0.000144775
0.000149222
0.0240194
0.000144581
0.00019083
0.000181146
0.0303765
0.0186175
0.000163036
0.000148413
0.000147944
0.000164868
0.000146466
0.000150842
0.0123023
0.000149027
0.000152587
0.000147965
0.000144984
0.000148001
0.000159196
0.0151364
0.000148172
0.00015048
0.000148187
0.000149033
0.000147098
0.000182617
0.00236365
0.000147316
0.000154423
0.00014907
0.00014849
0.0139821
0.000205711
0.000147976
0.000219285
0.0464342
0.000149488
0.00014546
0.000155771
0.000145339
0.012817
0.0513075
0.000146566
0.000172035
0.000147423
0.000148708
0.000148659
0.0508236
0.000176824
0.000148401
0.000165663
0.0119621
0.000152629
0.000146538
0.000317881
0.000168021
0.000144913
0.0272845
0.000155135
0.000187852
0.000149478
0.000149951
0.000171699
0.000158214
0.000147162
0.0160586
0.0127097
0.000147464
0.000168675
0.000150338
0.000164845
0.000148608
0.000149986
0.000161548
0.000168472
0.000163367
0.0438906
0.000147824
0.000196423
0.000147409
0.000177464
0.0381401
0.0288718
0.000148552
0.000148531
0.0513604
0.0308316
0.00016223
0.000161618
0.00014813
0.000147313
0.000146815
0.000147964
0.0253237
0.000149591
0.000181705
0.00312443
0.00014805
0.00662176
0.000154568
0.0289337
0.000150771
0.000155726
0.000148379
0.000165924
0.000148277
0.000149451
0.000162854
0.000178536
0.0537505
5.73962e-05
0.000148264
0.000161474
0.00015329
0.000191597
0.000148737
0.0449942
0.000179361
0.000151369
0.000213983
0.000146082
0.000148595
0.000149183
0.000149735
0.000195291
0.000190747
0.000147224
0.000154695
0.000147952
0.000149572
0.000162134
0.0535715
0.000177658
0.00015083
0.0517488
0.000145206
0.0105819
0.00476976
0.00014727
0.000178925
0.000147341
0.000188555
0.000167219
0.0366002
0.000149098
0.000149771
0.000149311
0.000149531
0.000158854
0.045924
0.000154334
0.000159404
0.000147632
0.000164452
0.00014706
0.00014977
0.000149781
0.00019289
0.000152272
0.000166779
0.000147502
0.000200927
0.000148574
0.000151775
0.000147029
0.0477108
0.000144719
0.000148411
0.00750565
0.000147471
0.0461264
0.000199892
0.000150639
0.000148127
0.000170258
0.000183851
0.0215094
0.000147474
0.000180656
0.000149705
0.00016388
0.018485
0.000174736
0.000172891
0.000214083
0.000148423
0.000146027
0.000181679
0.00016246
0.000208777
0.000153499
0.00014989
0.000314606
0.000147407
0.000149645
0.000144297
0.000189723
0.000144964
0.000144773
0.0325011
0.000175336
0.000162434
0.000146651
3.41816e-05
0.000146299
0.0202464
0.0313001
0.000188425
0.000148206
0.00014972
0.000196045
0.00014743
0.000173231
0.000149888
0.000149648
0.00017292
0.000157187
0.000166613
5.74627e-05
0.0588401
0.000149792
0.000153865
0.00014858
0.0198212
0.000171429
0.000202771
0.000162602
0.000148728
0.0288478
0.0219351
0.000207658
0.000148138
0.00015052
0.000147869
0.0257903
0.00014889
0.00143712
0.000156915
0.0439655
0.000170622
0.0152867
0.000174681
0.000195193
0.000152782
0.000147364
0.000147146
0.000176296
0.00015137
0.000149739
0.000186195
0.000166069
0.0173878
0.000150197
0.000152249
0.000174053
0.0187763
0.00353772
0.0023731
0.000160781
0.0306389
0.0189798
0.00014693
0.000195363
0.000211466
0.0373411
0.0262283
0.0442961
0.000147602
0.000204665
0.000148446
0.000176945
0.000146917
0.000148328
0.000190726
0.000212046
0.000147836
0.000155166
0.000174247
0.000170553
0.000161274
0.000147953
0.0001498
0.000177376
0.000165564
0.000167485
0.000181728
0.038867
0.000149882
0.000149881
0.000165067
0.000168102
0.00014835
0.000155216
0.000146752
0.000189504
0.000168439
0.000190135
0.000148579
0.000155614
0.000227787
0.00848455
0.000150155
0.000154392
0.000162022
0.000149728
0.000158531
0.000151249
0.000148721
0.000147729
0.000147866
0.000160998
0.000229484
0.000146127
0.000214448
0.000148734
0.000187268
0.000148725
0.000157415
0.040889
0.000147806
0.000155008
0.000151273
0.0199177
0.0238458
0.000150456
0.000147575
0.000159491
0.000149943
0.000148577
0.000148192
0.00014695
0.000169409
0.000235463
0.0597503
0.0354562
0.000148955
0.000163469
0.000197047
0.000149787
0.000146568
0.000207135
0.000148643
0.000229156
0.000148239
0.0227335
0.000164439
0.00014912
0.000194746
0.000188332
0.0473368
0.0251602
0.000146039
0.000167155
0.000145683
0.000178422
0.00015272
0.000145623
0.0267316
0.0333082
0.000146974
0.00014829
0.000148343
0.0468777
0.000148157
0.000145311
0.000148579
0.000145562
5.4049e-05
0.000153854
0.000162787
0.000146825
0.00015894
0.0294605
0.000149598
0.000157556
0.000200046
0.000147945
0.00020072
0.000205051
0.000145974
0.000152755
0.000146472
0.000218449
0.000145376
0.000165828
0.000165918
0.000148246
0.000192959
0.0586128
0.000139178
0.0510744
0.028171
0.0635415
0.000146443
0.0399546
0.000165021
0.0221372
0.000161466
0.061933
0.000148399
0.000216488
0.0277055
0.000165926
0.000149931
0.000179453
0.0544933
0.00018605
0.000192661
0.000171945
0.000148055
0.00015679
0.00016297
0.0240848
0.000147291
0.000149044
0.000153843
0.000163037
0.000145683
0.000149052
0.000385398
0.000176888
0.000175823
0.00014429
0.0262616
0.000149556
0.000149858
0.0361811
0.000153949
0.000149785
0.000148949
0.000216518
0.000199832
0.000173031
0.000145823
0.000149944
0.0258015
0.000149018
0.000151362
0.000147614
0.000151157
0.0238443
0.000149748
0.000165142
0.000120969
0.0544292
0.000156247
0.000148263
0.000150445
0.000162748
0.0267336
0.0130127
0.00331054
0.000189157
0.0446774
0.0304106
0.000148285
0.0236451
0.000160075
0.000156746
0.021739
0.000149891
0.000184321
0.000144765
0.000171772
0.000148677
0.0165506
0.000160481
0.00584963
0.000147241
0.000189262
0.000178448
0.000162479
0.00019075
0.00960379
0.000152649
0.000162159
0.000147592
0.000200243
0.000156741
0.000147701
0.0371923
0.000155563
0.0200675
0.0493017
0.000252232
0.000155338
0.000144741
0.000187986
0.0215384
0.000188499
0.000150175
0.00648144
0.00014979
0.000147641
0.000154094
0.0264327
0.000157017
0.000197544
0.000197938
0.000259323
0.000147458
0.0612274
0.000191727
0.000149209
0.00014838
0.0654158
0.000150108
0.000148006
0.000168168
0.0112408
0.000196179
0.000145545
0.000148452
0.000145759
0.000149895
0.0228771
0.000197334
0.0302859
0.000166118
0.000153885
0.0212336
0.000179438
0.000232453
0.000145064
0.000148326
0.000170092
0.000185542
0.000149728
0.000147761
0.000148769
0.000149609
0.000148773
0.000147964
0.000147128
0.000160894
0.000148852
0.000187832
5.74074e-05
0.000270216
0.000158054
0.000157326
0.000144856
0.000148857
0.000167161
0.0217662
0.00014477
0.0233859
0.000188302
0.000175482
0.000547526
0.0183891
0.0133281
0.0246288
0.000151982
0.0249669
0.0379534
0.000229635
0.000148274
0.0001465
0.000166816
0.000147423
0.0289202
0.018867
0.00019577
0.000166479
0.000199627
0.000154179
0.000203555
0.000153307
0.000148691
0.000197241
0.000180711
0.000149856
0.000114287
0.000163824
0.000148786
0.000155807
0.000147724
0.000161121
0.000156086
0.000161828
0.000170473
0.000170979
0.000147224
0.000157727
0.000144724
0.000159822
0.000147837
0.000172781
0.0453062
0.0253516
0.000147697
0.000335497
0.000147792
0.000147738
0.000193591
0.000151049
0.000158098
0.000221606
0.0124816
0.000161599
0.000165208
0.000247306
0.000173312
8.49702e-05
0.000154528
0.000153389
0.000147625
0.014845
0.000145359
0.00864829
0.00659699
0.000180108
0.000148986
0.000178732
0.000194663
0.0296477
0.00120966
0.000197864
0.0001659
0.000156815
0.000237412
0.0423015
0.000159471
0.000157315
0.000158117
0.000153134
0.000149466
0.000148678
0.000179884
0.00014437
0.000149732
0.000317047
0.000149429
0.0234924
0.0159576
0.000209347
0.000146929
0.0398115
0.0616067
0.000148555
0.00154258
0.00788975
0.061482
0.00535185
0.00017058
0.00016842
0.00015998
0.000166387
0.00015726
0.000148295
0.000157532
0.000165299
0.000175842
0.000166023
0.000148599
0.000147437
0.000219569
0.000166419
0.000147245
0.000156457
0.000169413
0.0201644
0.03501
0.000152958
0.000162572
0.000151316
0.000160592
0.0634997
0.000146495
0.000150737
0.000180209
0.000315232
0.00016138
0.0276725
0.000149174
0.000150149
0.000178736
0.0497186
0.0356769
0.00014696
0.000196903
0.0438969
0.000151328
0.000177765
0.000156441
0.0471689
0.000159854
0.00014807
0.0353406
0.0538816
0.000186907
0.000306398
0.000168441
0.0375477
0.000153023
0.0332523
0.000148738
0.000156479
0.000150372
0.0170893
0.0281396
0.000147814
0.000173488
0.0213896
0.000153865
0.00015737
0.000279409
0.000155318
0.000200576
0.000148836
0.0553185
0.00021373
0.000190646
0.000148269
0.000148109
0.000190204
0.000164676
0.000178605
0.00017264
0.000167889
0.000164554
0.000165457
0.000162587
0.00014735
0.000147708
0.000163306
0.000147347
0.000198567
0.0381205
0.000161757
0.000155235
0.000179774
0.000229002
0.00014821
0.065668
0.000152465
0.000149322
0.000164206
0.000188985
0.000163995
0.000155352
0.000154921
0.000170948
0.000147618
0.000221816
0.000174517
0.00020077
0.0625662
0.000212586
0.000149049
0.000241626
0.0217368
0.000198867
0.000168784
0.000147899
0.00017313
0.000148474
0.00015644
0.000148263
0.00015431
0.00020806
0.000164059
0.000147157
0.000162619
0.0403063
0.000162826
0.000146718
0.000182765
0.014894
0.0356216
0.000148384
0.000151745
0.000200502
0.000191359
0.000220199
0.0088349
0.000148475
0.0282081
0.000164025
0.000198491
0.000147133
0.0332662
0.000164997
0.000148514
0.000147734
0.0260475
0.00019469
0.000195962
0.0313793
0.000163128
0.000169504
0.000153747
0.00010104
0.0373158
0.0256931
0.00185844
0.000156006
0.000197389
0.000148285
0.000148746
0.000154256
0.000164077
0.00391597
0.000268644
0.000177495
0.000157556
0.0429367
0.0247876
0.000145912
0.0242482
0.000163139
0.000146594
0.000261162
0.000180624
0.0279416
0.000157032
0.00016446
0.000150666
0.000845962
0.000145515
0.000148677
0.0337956
0.000148802
0.000165632
0.000158501
0.00015257
0.000155042
0.0224732
0.000200239
0.000155481
0.000170265
0.0291505
0.000177483
0.000148325
0.000117893
0.000152047
0.000163545
0.000148955
0.000150338
0.0219205
0.000148822
0.000146515
0.000177678
0.000147064
0.000290236
0.0218731
0.000225331
0.000225227
0.000147912
0.000153731
0.000191064
0.000147692
0.0518974
0.0185156
0.000204181
0.000121065
0.000157564
0.000197613
0.0525605
0.000148155
0.00017839
0.0277875
0.0338437
0.000157212
0.000161748
0.000148698
0.000162926
0.0229409
0.000154292
0.0525942
0.000194531
0.000156711
0.000171288
0.000193432
0.000153672
0.000148528
0.000197506
0.000147596
0.000147068
0.000154829
0.000148423
0.000177211
0.000156593
0.000162283
0.000144441
0.000177124
0.0223349
0.000155819
0.00616758
0.000163378
0.000170035
0.000147555
0.000146974
0.00023232
0.00261978
0.000158441
0.000764457
0.000147837
0.0287535
0.000236675
0.0438164
0.000147595
0.000183723
0.000148677
0.0223394
0.000145079
0.000148416
0.000152953
0.0219088
0.0403899
0.000160355
0.000147412
0.000430875
0.0214995
0.000216546
0.0597679
0.000160724
0.00014765
0.0294003
0.000151998
0.000177665
0.000211951
0.000147948
0.000163404
0.000145399
0.000146114
0.0290085
0.00142409
0.0254341
0.000171547
0.000201592
0.000156628
0.000162951
0.0673171
0.000149785
0.000150914
0.00015209
0.000208538
0.000202534
0.0374056
0.000154631
0.0315656
0.000147416
0.0328249
0.000194788
0.0563659
0.00015155
7.80103e-05
0.000176907
0.000151818
0.000164842
0.000152721
0.000150014
0.000169713
0.000166098
0.000156646
0.000172573
0.000151698
0.0304267
0.00873831
0.000230322
0.0252889
4.99265e-05
0.0291908
0.000151543
0.000152379
0.000146473
0.000148292
0.000197675
0.000179432
0.000163816
0.000161831
0.000147441
0.000154893
0.0646563
0.00017139
0.000199217
0.0279193
0.00014777
0.000157686
0.00018798
0.000194822
0.0214265
0.000160972
0.0261665
0.000148562
0.000148834
0.000166083
0.0237198
0.000152398
0.0262167
0.000101959
0.0233124
9.13733e-05
0.000187814
0.000198817
0.0203198
0.0321052
0.000202293
0.000146119
0.000193253
0.0585678
0.000148686
0.000171677
0.000196349
0.000151872
0.0391941
0.000161632
0.00015062
0.000166024
0.0272381
0.0385273
0.000159711
0.000207268
0.000189461
0.000155115
0.00815569
0.000179222
0.000157284
0.000158701
0.000157787
0.000193971
0.000188182
0.000166883
0.0246794
0.000148632
0.00865249
0.000153818
0.000148673
0.000151541
0.000145533
0.0330678
0.000149899
0.000178636
0.0284524
0.00016221
0.000159211
0.000147578
0.000148531
0.00014587
0.000190349
0.00014674
0.000171653
0.000159709
0.050706
0.00014774
0.024777
0.00015252
0.000414946
0.000150617
0.0616403
0.000160942
0.000169184
0.000179048
0.000157494
0.000147345
0.000147688
0.000177983
0.000171729
0.0127039
0.000148272
0.000151397
0.000163331
0.040148
0.000185967
0.00374392
0.000193492
0.033625
0.000227378
0.0420909
0.0001687
0.000145793
0.000161414
0.000156634
0.0249631
0.0395277
0.0317356
0.000182956
0.000147607
0.000171108
0.000179659
0.000147188
0.000171371
0.000152605
0.000148217
0.000146683
0.000177687
0.000151026
0.00016271
0.000174567
0.000239275
0.000307512
0.00015337
0.000186124
0.000170723
0.0260079
0.0338694
0.000147095
0.000153009
0.000177428
0.000164451
0.0232321
0.000180103
0.000170793
0.0200507
0.000145992
0.000166898
0.00074529
0.000147665
0.000152394
0.000149346
0.000176768
0.000146413
0.000147731
0.00014929
0.0205331
0.0250024
0.000162007
0.0237097
0.000148867
0.035502
0.000185525
0.000170192
0.000148838
0.000147677
0.000170402
0.0239922
0.000175763
0.000173223
0.000150652
0.000149765
0.000176111
0.000169847
0.000147869
0.000343328
0.0272783
0.024357
0.000148814
0.0244447
0.000151236
0.00020302
0.000407187
0.000148451
0.0657218
0.000405685
0.000151298
0.000183502
0.000150111
0.000157066
0.000176919
0.000145746
0.000145956
0.000149
0.0475822
0.000176051
0.000145705
0.000182794
0.000161807
0.00014962
0.000145534
0.000150004
0.000922347
0.000153957
0.014365
0.0298694
0.000148543
0.000261974
0.000146355
0.000149145
0.000168842
0.01532
0.000147339
0.000145887
0.029454
0.00015043
0.000153893
0.000148855
0.000153425
0.00014668
0.000145691
0.000146428
0.000155573
0.00014927
0.000146664
0.000149387
0.000163057
0.000148681
0.000169376
0.0316342
0.000148409
0.000149399
0.0224131
0.000148466
0.000146497
0.000145341
0.000164837
0.00014927
0.000148285
0.000185734
0.00014555
0.000146046
0.000163533
0.000174733
0.0314642
0.000148977
0.000146493
0.000166411
0.000174052
0.00273082
0.0261522
0.000154022
0.0001766
0.000179329
0.0613779
0.000253835
0.000164487
0.0691245
0.00014948
0.000148222
0.000145983
0.00014569
0.000156968
0.000147349
0.00419256
0.0252088
0.00213508
0.000201931
0.000264546
0.0264797
0.000149176