/*--------------------------------*- C++ -*----------------------------------*\
| =========                 |                                                 |
| \\      /  F ield         | OpenFOAM: The Open Source CFD Toolbox           |
|  \\    /   O peration     | Version:  v2012                                 |
|   \\  /    A nd           | Website:  www.openfoam.com                      |
|    \\/     M anipulation  |                                                 |
\*---------------------------------------------------------------------------*/
FoamFile
{
    version     2.0;
    format      ascii;
    class       volScalarField;
    location    "200";
    object      k_0;
}
// * * * * * * * * * * * * * * * * * * * * * * * * * * * * * * * * * * * * * //

dimensions      [0 2 -2 0 0 0 0];


internalField   nonuniform List<scalar> 
13749
(
0.000148818
0.000190289
0.000148573
0.000156866
0.000152298
0.00017274
0.00016772
0.000151056
0.000147989
0.000156686
0.000180456
0.00014809
0.000163252
0.0145036
0.036516
0.000155087
0.000148416
0.000194984
0.00014781
0.000148637
0.0276185
0.0370898
0.00520183
0.000181398
0.000152262
0.000166656
0.000164837
0.000161339
0.000145187
0.000150304
0.000185624
0.0242195
0.000156756
0.000170382
0.000146412
0.000145278
0.000148615
0.00014842
0.000154459
0.000171376
0.000172551
0.00933207
0.000153755
0.000154141
0.000195686
0.000158762
0.000148169
0.000180653
0.000146811
0.0172423
0.000182126
0.0298865
0.000172069
0.000212973
0.000158532
0.000146768
0.000164453
0.000156428
0.000146749
0.00261237
0.000147739
0.00015256
0.0220896
0.000148168
0.00015
0.000152217
0.000147993
0.000148308
0.000157108
0.000158449
0.0261894
0.000145992
0.000127646
0.000147576
0.000191847
0.000175178
0.000154743
0.000146862
0.000164084
0.000149684
0.000145283
0.000151932
0.000181917
0.000145211
0.000171094
0.000171842
0.0149958
0.000206599
0.000146404
0.000180645
0.000146488
0.000152758
0.000151873
0.00076278
0.000173152
0.000181365
0.000158901
0.000148613
0.000146159
0.00015217
0.0322681
0.000145349
0.00015547
0.0394588
0.000149641
0.039987
0.000181249
0.000147879
0.000181323
0.000148083
0.000148034
0.000154015
0.000182478
0.0265932
0.0325586
0.000148908
0.00014534
0.000158145
0.000149591
0.000146588
0.000150885
0.000149425
0.000145847
0.000144789
0.000151717
0.0266891
0.000173083
0.0488283
0.000159561
0.000663879
0.000158371
0.0198851
0.0224368
0.000248702
0.000165141
0.000150668
0.000192859
0.000146611
0.000150745
0.0107946
0.000159546
0.000165135
0.000156683
0.0613
0.000146021
0.00820791
0.000163052
0.000162399
0.0001495
0.000186127
0.000146049
0.000168464
0.0406645
0.000170026
0.000157495
0.0303042
0.000163006
0.000165686
0.000191123
0.00014754
0.0305483
0.000147524
0.0272984
0.000157293
0.000148539
0.000147638
0.000202472
0.000148566
0.000150381
0.000163375
0.000156979
0.00014806
0.000146784
0.00016426
0.000150562
0.00016873
0.000176303
0.000157385
0.0494169
0.0520469
0.000149732
0.00016983
0.000159291
0.00017859
9.80889e-05
0.000150791
0.0592668
0.000151449
0.00036303
0.000147761
0.000159687
0.00651552
0.000152427
0.000182333
0.05771
0.00017271
0.00017263
0.00986378
0.000147143
0.000159592
0.000145488
0.000180595
0.00016557
0.000153285
0.0182741
0.000150835
0.000146603
0.000182107
0.000176847
0.000181911
0.000149099
0.0087277
0.00998787
0.000171176
0.00016558
0.000180486
0.017046
0.000174333
0.0185404
0.000145235
0.00268412
0.000153004
0.000202512
0.010582
0.000158596
6.60142e-05
0.000150954
0.000159767
0.0147027
0.00539442
0.000148396
0.000149939
0.000149328
0.000148161
0.0274956
0.000151968
0.000166145
0.000175401
0.000148699
0.000148342
0.000152983
0.0190277
0.000122696
0.000188121
0.000172521
0.0612846
0.000151662
0.0159315
0.000158384
0.000148233
0.0228828
0.000150686
0.000146891
0.000152112
0.000161058
0.00016407
0.000147935
0.0221832
0.000171766
0.045472
0.000145657
0.000158834
0.000181568
0.000151797
0.000149489
0.000192259
0.00024527
0.000166979
0.000164745
0.000160868
0.00014453
0.0292084
0.000184169
0.0591441
0.000151257
0.0296697
0.00998322
0.000165812
0.000160463
0.000163409
0.000147612
0.000147196
6.21035e-05
0.0292671
0.000166472
0.000149589
0.000167464
0.000146747
0.000113786
0.000151778
0.000224084
0.000146773
0.0173139
0.00018092
0.0270739
0.00020536
0.000148511
0.00014514
0.000152893
0.000147269
0.000155045
0.000146348
0.000168209
0.0198722
0.000168728
0.000145687
0.000148124
0.000148587
0.000151252
0.000166023
0.0241507
0.00017237
0.000150269
0.0465498
0.000144507
0.00015178
0.000155705
0.0288026
0.000146558
0.000157539
0.00020472
0.00919905
0.000173491
0.000149937
0.00760471
0.000149764
0.00014636
0.000145827
0.00014793
0.000149602
0.000145887
0.000148199
0.000144809
0.000161601
0.00015022
0.000150509
0.000147435
0.000164609
0.000147945
0.000158881
0.000148596
0.000189435
0.000151697
8.02175e-05
0.000181734
0.000150874
0.000157004
0.00015006
0.00014735
0.000147871
0.000148306
0.000148427
0.0147768
0.0203005
0.000152731
0.000147287
0.000170987
0.000210418
0.000166015
0.000215951
0.000148369
0.000149883
0.000146718
0.0234143
0.000159676
0.000147443
0.000162884
0.0241835
0.0399898
0.000148519
0.0266633
0.00016499
0.000157897
0.000149758
0.000147467
0.000151833
0.00016539
0.0122824
0.000188919
0.000159065
0.000149448
0.000148604
0.0383838
0.000150021
0.000149716
0.000153356
0.0208689
0.000147892
0.000147538
0.000155356
0.000199007
0.000227412
0.0570071
0.000148267
0.000152226
0.000208839
0.0302494
0.000195638
0.000187055
5.79361e-05
0.000147476
0.000171286
0.000148098
0.000188106
0.000151016
0.000166497
0.0180225
0.000186287
0.000185934
0.000147487
0.000153142
0.000158822
0.000187968
0.0515519
0.000165045
0.00014949
0.0287859
0.0281573
0.000168905
0.000181069
0.000147833
0.000171875
2.86007e-05
0.000154799
0.000184962
0.000147517
0.00016409
0.0128148
0.0230548
0.000167366
0.000199883
0.000149708
0.000189156
0.000165604
0.000268755
0.000158781
0.000152191
0.000150267
0.000148473
0.0613002
0.000147975
0.000149232
0.000149827
0.000159507
0.000156861
0.000145683
0.00014728
0.000171766
0.000183404
0.000189967
0.000231101
0.000151844
0.000330374
0.000147215
0.062296
0.000165697
0.000157047
0.000162605
0.0292879
0.000148569
0.000148285
0.000149907
0.000154777
0.0286428
0.000154267
0.000165098
0.000190874
0.000193891
0.0227891
0.000153773
0.000426649
0.00014737
0.000191814
0.0310774
0.000147806
0.000147781
0.000185591
0.000172273
0.000148197
0.000149189
0.000161644
0.000151234
0.000145856
0.0161609
0.02403
0.000246765
0.0273489
0.0208646
0.000153988
0.000159066
0.000152745
0.000151228
0.000148095
0.000171164
0.000145903
0.000150828
0.0558553
0.000150085
0.0180249
0.000147207
0.000149611
0.00823632
0.00015669
0.00022241
0.000149796
0.0245224
0.000182975
0.000188079
0.000148244
0.000153739
0.00014973
0.000150473
0.000146626
0.00864425
0.000157894
0.021732
0.000157732
0.00194575
0.00017414
0.000147761
0.00212769
0.000588057
0.000149505
0.000182866
0.00015031
0.000147602
0.000148035
0.000163732
0.000150831
0.000180996
0.000148491
0.000175545
0.000161845
0.000164905
0.00016355
0.00017232
0.000148566
0.00129094
0.0183189
0.0287182
0.00104365
0.00029918
0.000193181
0.000232082
0.0210333
0.000180979
0.000154299
0.0243351
0.0315731
0.000217218
0.000180465
0.000150462
0.0231481
0.000177395
0.00017262
0.000153369
0.000148065
0.000171829
0.000154495
0.0309677
0.0123723
0.000145134
0.000145801
0.000130326
0.000150274
0.0587784
0.00014853
0.000148515
0.000148946
0.000199555
0.000149499
0.000203191
0.0239816
0.000148183
0.000151046
0.000148011
0.0511179
0.0304627
0.000163475
0.000159392
0.000152443
0.000186707
0.0146964
0.000155921
0.000154861
0.000149793
0.000305728
0.00303569
0.000147449
0.000156979
0.000159712
0.000153838
0.000153697
0.00015212
0.0155296
0.00188813
0.000146854
0.0168158
0.0579087
0.000157664
0.000157437
0.00341839
0.000198566
0.0297666
0.0201504
0.000154543
0.000164855
0.0509146
0.0189991
0.000149786
0.000147475
0.000154998
0.000146448
0.0271894
0.00018052
0.000163221
0.000158315
0.000157692
0.000147862
0.000158526
0.000175127
0.000147755
0.000239922
0.000149036
0.000182327
0.0605825
0.00014958
0.000286892
0.000152431
0.000147843
0.00412978
0.000146567
0.000160356
0.000147012
0.00015723
0.000147766
0.000156689
0.000150128
0.00537081
0.000147285
0.000145905
0.000147975
0.000147031
0.0558986
0.000189816
0.000162835
0.000189676
0.000149547
0.015282
0.0387856
0.000145036
0.000165829
0.000181702
0.000145806
0.000148225
0.000166106
0.000204666
0.0287284
0.000186363
0.000149736
0.000150129
0.00018205
0.000149644
0.000199031
0.000148153
0.0273745
0.000150814
0.000147097
0.00014884
0.000147278
0.0260292
0.000189723
0.000247041
0.000145761
0.000154549
0.000203517
0.000152207
0.000154291
0.0175312
0.0166135
0.000195055
0.000147345
0.00205593
0.000158847
0.000148711
0.000145386
0.000174538
0.000182339
0.00014522
0.0299969
0.0203675
0.000165884
0.000150703
0.000147252
0.000145956
0.0298974
0.000164713
0.000147586
0.000158235
0.000147276
0.000158653
0.000145448
0.000151659
0.000157174
0.000149721
0.000154595
0.000161994
0.0112362
0.000180164
0.000189543
0.00016841
0.000172298
0.0259824
0.000162481
0.000156983
0.000111632
0.0274136
0.000148596
0.0165091
0.000161807
0.000154175
0.000157344
0.000147944
0.00764909
0.000146963
0.000186337
0.0157605
0.000148226
0.000151457
0.000191286
0.000147009
0.000198839
0.000175009
0.000280575
0.000258772
0.00018906
0.000145578
0.000161807
0.000151624
0.000148993
0.0110912
0.000148813
0.000164598
0.000147516
0.000202473
0.000145407
0.0001495
0.00014825
0.00015753
0.000159221
0.0357128
0.00018589
0.000148316
0.000147322
0.000187095
0.000758625
0.00015076
0.000147084
0.000146581
0.000162553
0.000146853
0.00664702
0.000149505
0.000171581
0.000226802
0.0293505
0.000149794
0.000146977
0.000149052
0.000153166
0.000214236
0.0187811
0.0363826
0.000188902
0.000158508
0.0380018
0.000147915
0.000152104
0.000197383
0.000157179
0.000150342
0.000163263
0.00376446
0.000150932
0.0317971
0.000153647
0.0577137
0.000147995
0.0264109
0.0234364
0.028156
0.0180293
0.000193885
0.000171
0.0524421
0.000146569
0.000155399
0.000148362
0.000190422
0.000147221
0.000271434
0.000167582
0.00016061
0.000147783
0.000149048
0.0376279
0.0001529
0.000154312
0.000147482
0.0158809
0.00020909
0.000191854
0.000180689
0.0268737
0.000148935
0.0257449
0.000194785
0.000233365
0.000159315
0.00018204
0.000151297
0.000199748
0.000147887
0.000159182
0.000159908
0.000146861
0.0389613
0.029358
0.0218266
0.0373342
0.00019673
0.00323815
0.00014989
0.000210134
0.0001473
0.000239579
0.000199638
0.000158384
0.00020917
0.00016929
0.000190078
0.000148315
0.000166074
0.0440569
0.000148022
0.000155021
0.000147385
0.000148249
0.000147722
0.0247526
0.00014958
0.000147133
0.000187261
0.000148712
0.000165043
0.000147183
0.000157472
0.000150667
0.000172048
0.000148799
0.000168277
0.0643253
0.000180991
0.000190508
0.000167071
0.000175613
0.000190396
0.0251497
0.000163516
0.000148627
0.0637749
0.000151742
0.0257968
0.000158093
0.000199087
0.000128322
0.000187791
0.000149885
0.000155222
0.0211147
0.000155088
6.29581e-05
0.000157706
0.000214486
0.000177203
0.000193297
0.0137088
0.000146489
0.0346861
0.00021237
0.000147348
0.000148938
0.0508187
0.00014904
0.00018176
0.0490869
0.000148806
0.000187992
0.000157989
0.000169242
0.00014876
0.000147378
0.000149939
0.000182983
0.0308428
0.00014714
0.000146837
0.000153059
0.000212256
0.000170622
0.000148582
0.00014684
0.000147371
0.00014974
0.000147718
0.000160545
0.000153108
0.000167799
0.000242214
0.000170511
0.000192041
0.000150094
0.000149425
0.000149073
0.000229204
0.000155436
0.000182343
2.64908e-05
0.000149765
0.000189024
0.000163633
0.000181007
0.000148376
0.000206554
0.000151226
0.000149662
0.000149993
0.000144879
0.000179523
0.000166674
0.000162786
0.000147765
0.0327957
0.00014987
0.01529
0.060332
0.000148553
0.0631936
0.000146151
0.000146981
0.000148907
0.000149879
0.000149031
0.000148457
0.000147389
0.000147841
0.000145349
0.000150255
0.00016655
0.0292058
0.000147348
0.0193123
0.000149942
0.000149627
0.000163
0.000150279
0.0282337
0.0299391
0.00574302
0.000149971
0.000147438
0.00409624
0.000150003
0.000148441
0.000165108
0.000148295
0.000154413
0.0366746
0.000175568
0.000145359
0.000161529
0.000196602
0.000146917
0.000193608
0.000150801
0.0598314
0.000155209
0.000166144
0.000188872
0.000220225
0.000146435
0.0002006
0.000158876
0.000147234
0.000170596
0.000149789
0.000148436
0.000148428
0.000147717
0.000162586
0.0502242
0.000146709
0.0501845
0.0577036
0.000146894
0.000193371
0.0478084
0.000158531
0.000157992
0.0482553
0.000193531
0.0202954
0.000191838
0.000149641
0.000194436
0.000148691
0.0379233
0.000181425
0.0355902
0.000148528
0.0455189
0.000147566
0.0356336
0.000209401
0.000205959
0.000148325
0.0142174
0.000276435
0.000150238
0.0147615
0.000153633
0.000112536
0.000170031
0.0191569
0.000149766
0.000172115
0.000148651
0.000171293
0.000157281
0.000148635
0.000199829
0.000148814
0.000186694
0.000184506
0.0001485
0.0137428
0.000150277
0.000150279
0.0511828
0.000147281
0.000150165
0.000147801
0.0299172
0.000148635
0.022736
0.000148474
0.00015248
0.000144649
0.000152964
0.000149306
0.024067
0.000172224
0.000181855
0.000149067
0.000149099
0.000149622
0.000149059
0.000148296
0.000167307
0.0150086
0.000144512
0.000156864
0.000209371
0.000159879
0.000171624
0.000147097
0.0480201
0.000151775
0.000150717
0.0179019
0.00014858
0.000147973
0.0177596
0.000166984
0.000150365
0.000178501
0.00015012
0.000170332
0.000154188
0.000147156
0.000154199
0.0244104
0.029296
0.000167058
0.000151263
0.022013
0.000151232
0.000146998
0.000211596
0.000149052
0.000181116
0.000868056
0.000204683
0.000182137
0.000148338
0.000184783
0.000155087
0.000161243
0.000148753
0.000155116
0.000148819
0.000148403
0.0385138
0.000149088
0.000149725
0.00017412
0.000153992
0.000152166
0.000147341
0.00223896
0.000183142
0.000154832
0.0283785
0.000173783
0.000148593
0.000178935
0.000167001
0.000157526
0.0179547
0.0016558
0.000147898
0.000242886
0.00017841
0.0158531
0.000147553
0.0225811
0.000149355
0.0266523
0.000145285
0.000147779
0.0105272
0.000148475
0.000146678
0.000148533
0.00021413
0.0223897
0.000173493
0.000148113
0.000188821
0.000147965
0.055956
0.000147705
0.000147811
0.000190224
0.000150107
0.000148496
0.0001801
0.000148621
0.000149591
0.000157847
0.000156636
0.000146657
0.000155097
0.000145481
0.000148783
0.000148299
0.00015743
0.000147981
0.000172626
0.0484518
0.000148948
0.000250558
0.000148623
0.000155737
0.000147523
0.000147551
0.000153547
0.0305805
0.000164239
0.000149743
0.000147284
0.000245753
0.0306957
0.000147043
0.000162977
0.000147998
0.000157338
0.048313
0.000152783
0.013671
0.000147906
0.000144638
0.000147069
0.000147518
0.0390315
0.000150178
0.000145625
0.000147576
0.000145507
0.000147167
0.016884
0.000146778
0.0218934
0.000148283
0.000153344
0.00579979
0.000149732
0.000147356
0.000146145
0.000162456
0.000169596
2.62325e-05
0.000149877
0.0180331
0.000186848
0.000150425
0.000161077
0.000149946
0.00014955
0.000150137
0.000127427
0.00014927
0.000147842
0.000173654
0.0129538
0.000148073
0.0599542
0.0346394
0.000153278
0.000147823
0.000217577
0.00017012
0.00014751
0.00548239
0.000148751
0.000148322
0.000155471
0.000156409
0.000148306
0.000149786
0.000146826
0.000151171
0.000148446
0.000159521
7.50243e-05
0.000163308
0.000149493
0.000157884
0.000158159
0.0192363
0.0619523
0.00017939
0.000157824
0.000188371
0.000148929
0.000146505
0.025322
0.000186805
0.0048251
0.000149623
0.000221996
0.000101428
0.000198977
0.000148916
0.000149144
0.000174113
0.000149032
0.000147062
0.000201
0.000171627
0.000182991
0.000154305
0.000145626
0.0061298
0.000148244
0.000156839
0.000181449
0.000147952
0.00014978
0.000149272
0.0647272
0.000150742
0.000148502
0.00269783
0.000164142
0.000147201
0.000148951
0.000191766
0.000148231
0.00014841
0.000148198
0.000155756
0.000144941
0.00219371
0.000159188
0.0505573
0.000144775
0.000149223
0.0240195
0.000144581
0.000190753
0.000181164
0.0303789
0.0186184
0.00016304
0.000148413
0.000147944
0.00016488
0.000146466
0.000150843
0.0122484
0.000149027
0.00015259
0.000147965
0.000144985
0.000148001
0.000159204
0.0151355
0.000148171
0.000150482
0.000148187
0.000149033
0.000147098
0.000182638
0.002365
0.000147316
0.000154432
0.000149067
0.00014849
0.0139803
0.000205623
0.000147976
0.000220319
0.0464711
0.000149487
0.00014546
0.000155772
0.000145339
0.0128188
0.0513172
0.000146566
0.000172013
0.000147423
0.000148708
0.000148659
0.0508314
0.000176935
0.000148401
0.000165662
0.0119612
0.000152641
0.000146538
0.000332088
0.000168045
0.000144913
0.0272856
0.000155131
0.000187978
0.000149478
0.000149951
0.000171719
0.000158216
0.000147162
0.0160581
0.0129702
0.000147464
0.00016867
0.000150336
0.000164816
0.000148608
0.000149989
0.000161494
0.000168496
0.00016335
0.0438856
0.000147825
0.000197141
0.00014741
0.000177427
0.0381264
0.028825
0.000148552
0.000148531
0.0513684
0.0308277
0.000162238
0.000161656
0.000148129
0.000147313
0.000146816
0.000147964
0.0253268
0.000149591
0.000181649
0.00311662
0.00014805
0.00663222
0.00015457
0.0289422
0.000150771
0.000155723
0.000148376
0.000165937
0.000148277
0.000149451
0.000162857
0.000178224
0.0537497
5.1287e-05
0.000148264
0.00016148
0.000153293
0.000325915
0.000148737
0.0449902
0.000179497
0.000151372
0.000211614
0.000146083
0.000148595
0.000149183
0.000149735
0.000195113
0.000190603
0.000147224
0.000154687
0.000147952
0.000149572
0.000162136
0.0535659
0.000177617
0.000150828
0.0517579
0.000145206
0.0105798
0.00478524
0.00014727
0.000178985
0.000147341
0.00018804
0.000167151
0.0365844
0.000149098
0.000149771
0.000149313
0.000149531
0.000158862
0.0459233
0.000154336
0.000159414
0.000147632
0.000164438
0.000147057
0.00014977
0.000149781
0.000192753
0.000152277
0.000166776
0.000147501
0.000200617
0.000148574
0.000151775
0.000147029
0.0477188
0.000144718
0.000148411
0.00750592
0.000147471
0.0461425
0.000199208
0.00015064
0.000148127
0.000170256
0.000183184
0.0215027
0.000147475
0.000180436
0.000149705
0.0001639
0.0184983
0.000174708
0.000252569
0.000213675
0.000148423
0.000146027
0.000181908
0.000162455
0.000208284
0.000153499
0.00014989
0.000285882
0.000147407
0.000149645
0.000144297
0.000189535
0.000144964
0.000144773
0.0324993
0.000175323
0.000162448
0.000146651
3.62098e-05
0.000146299
0.0202499
0.0312994
0.000188196
0.000148206
0.00014972
0.000196767
0.000147429
0.00017325
0.000149888
0.000149648
0.000172911
0.000157187
0.000166604
4.82739e-05
0.0588373
0.000149792
0.000153877
0.00014858
0.019811
0.000171436
0.000201895
0.000162571
0.000148728
0.0288462
0.0219158
0.000181326
0.000148138
0.000150519
0.000147869
0.0257971
0.00014889
0.0013721
0.000156923
0.0439594
0.00017062
0.0152842
0.000174642
0.000195514
0.000152767
0.000147364
0.000147146
0.000176411
0.00015137
0.000149739
0.000186285
0.000166062
0.0173486
0.0001502
0.00015225
0.00017408
0.0187769
0.00344439
0.00238208
0.000160777
0.0306026
0.018983
0.00014693
0.000195466
0.000211307
0.037386
0.0262291
0.0442938
0.000147602
0.000204085
0.000148446
0.000177035
0.000146917
0.000148328
0.000190645
0.000209968
0.000147836
0.000155162
0.000174276
0.000170562
0.000161269
0.000147953
0.0001498
0.000177309
0.000165557
0.000167488
0.000181377
0.0388669
0.000149882
0.000149881
0.00016507
0.000168123
0.00014835
0.00015521
0.000146751
0.000189088
0.000168423
0.000190177
0.000148579
0.000155608
0.000232636
0.00848082
0.000150161
0.000154373
0.000162041
0.000149728
0.000158526
0.00015125
0.000148721
0.000147731
0.000147866
0.000160976
0.000229927
0.000146127
0.000231541
0.000148734
0.00018733
0.000148725
0.000157421
0.0408475
0.000147809
0.000155011
0.000151281
0.0199168
0.0238459
0.000150451
0.000147575
0.000159476
0.000149942
0.000148577
0.000148192
0.00014695
0.000169403
0.000234107
0.0597386
0.0354419
0.000148955
0.000163489
0.000229926
0.000149787
0.000146568
0.000207133
0.000148643
0.000229183
0.000148239
0.0227426
0.000164435
0.00014912
0.000194646
0.000188404
0.0473253
0.0251606
0.000146039
0.000167139
0.000145683
0.00017852
0.000152719
0.000145624
0.0267274
0.0332895
0.000146974
0.00014829
0.000148344
0.0468725
0.000148157
0.000145311
0.000148579
0.000145562
5.74406e-05
0.00015386
0.000162791
0.000146826
0.000158957
0.0295108
0.000149598
0.000157544
0.000199904
0.000147943
0.000200607
0.000203879
0.000145974
0.000152753
0.000146471
0.000203718
0.000145377
0.000165829
0.000165956
0.000148246
0.000192714
0.0586027
0.000136695
0.0510809
0.0281723
0.0635385
0.000146442
0.0399421
0.000165044
0.0221411
0.000161457
0.0619407
0.000148399
0.00027686
0.0277016
0.000165935
0.000149937
0.000179451
0.0544965
0.000187764
0.000192356
0.000171942
0.000148054
0.000156805
0.000162986
0.0240853
0.000147291
0.000149044
0.000153842
0.000163039
0.000145683
0.000149052
0.00040987
0.000176917
0.000175824
0.00014429
0.0262616
0.000149556
0.000149859
0.0361645
0.000153958
0.000149785
0.000148949
0.000215622
0.00020061
0.000173012
0.000145823
0.000149941
0.0258315
0.000149018
0.000151358
0.000147616
0.000151157
0.0238446
0.000149746
0.000165258
0.000258034
0.0544332
0.000156247
0.000148264
0.00015044
0.000162741
0.0267326
0.0130232
0.00332669
0.000188925
0.0446727
0.0304154
0.000148285
0.0236564
0.000160077
0.00015675
0.0217497
0.000149891
0.000184561
0.000144765
0.000205205
0.000148677
0.0165508
0.000160463
0.0058484
0.000147241
0.000191921
0.000178348
0.000162485
0.00019063
0.00960375
0.000152644
0.000162127
0.000147594
0.00019988
0.000156738
0.000147701
0.0371921
0.000155569
0.020063
0.0493249
0.000238671
0.000155336
0.000144741
0.000187401
0.0215419
0.000188192
0.000150176
0.00627225
0.00014979
0.000147641
0.000154095
0.0264325
0.000157023
0.00019676
0.000197777
0.000252999
0.000147458
0.0612288
0.000191816
0.000149209
0.00014838
0.0654131
0.000150106
0.000148006
0.000168144
0.0112364
0.000196819
0.000145545
0.000148452
0.000145759
0.000149895
0.0228887
0.000197628
0.0302855
0.000166093
0.000153867
0.0212411
0.000179448
0.000218826
0.000145064
0.000148326
0.000170111
0.000185553
0.000149728
0.000147761
0.000148769
0.000149609
0.000148773
0.000147964
0.000147127
0.000160876
0.000148852
0.000187895
6.32494e-05
0.000308172
0.000158056
0.000157338
0.000144856
0.000148855
0.000167124
0.0217643
0.00014477
0.0233855
0.000177391
0.000175678
0.000630579
0.0183874
0.013329
0.024639
0.000151979
0.0249635
0.0379387
0.000231809
0.000148272
0.000146501
0.000183323
0.000147423
0.0289781
0.0189015
0.000195521
0.000166496
0.00019874
0.000154171
0.000201113
0.00015332
0.000148691
0.000197819
0.000180685
0.000149857
0.000118819
0.000163825
0.000148785
0.000155797
0.000147723
0.000161129
0.000156099
0.000161863
0.00017058
0.000170964
0.000147224
0.000157718
0.000144723
0.000159821
0.000147837
0.000172845
0.0453072
0.0253615
0.0001477
0.000338679
0.000147792
0.000147738
0.000193383
0.000151058
0.000200879
0.000223688
0.0124819
0.000161614
0.000165192
0.000223429
0.000173337
7.56279e-05
0.000154522
0.000153389
0.000147625
0.0148471
0.000145359
0.0086404
0.00660582
0.000180084
0.000148986
0.000178522
0.000195037
0.0296463
0.00121138
0.00019814
0.000165908
0.000156826
0.000215399
0.0422914
0.000159478
0.000157297
0.000158126
0.000153138
0.000149463
0.000148678
0.000179804
0.00014437
0.000149732
0.000339783
0.000149429
0.0234986
0.0159586
0.000208103
0.000146931
0.0398326
0.061597
0.000148555
0.00160049
0.00815444
0.0614775
0.00535094
0.000170556
0.000168439
0.000159976
0.000166395
0.000157288
0.000148295
0.000157527
0.000165296
0.00017971
0.000166023
0.000148601
0.000147437
0.000221658
0.000166441
0.000147245
0.00015643
0.000169399
0.0201635
0.0349938
0.000152957
0.000162582
0.000151311
0.000160592
0.0635011
0.000146495
0.000150743
0.000180134
0.00030165
0.000161383
0.0276712
0.000149174
0.000150153
0.000178748
0.0496714
0.0356696
0.00014696
0.000196811
0.0438911
0.000151324
0.000177775
0.000156447
0.0471727
0.000159873
0.00014807
0.0353392
0.0538694
0.000186786
0.000289143
0.000168481
0.0375452
0.000153035
0.0332532
0.000148738
0.000156476
0.000150375
0.0170877
0.028138
0.000147814
0.000173786
0.0214122
0.000153872
0.000157361
0.000224538
0.000155318
0.000200601
0.000148836
0.055316
0.000212216
0.000190806
0.00014827
0.000148109
0.000190328
0.00016468
0.000178589
0.00017261
0.000167875
0.000164551
0.000165456
0.000162615
0.00014735
0.000147708
0.000163324
0.000147345
0.000198668
0.0381169
0.000161751
0.000155234
0.000179875
0.000229067
0.000148208
0.0656796
0.000152463
0.000149322
0.000164184
0.000188842
0.000164009
0.000155347
0.00015492
0.000170929
0.000147618
0.0002215
0.000174523
0.000199834
0.0625706
0.000213088
0.000149049
0.000241561
0.0217368
0.000198927
0.000168791
0.000147899
0.000173143
0.000148474
0.000156453
0.000148263
0.000154304
0.000208187
0.000164052
0.000147157
0.000162634
0.0402968
0.000162822
0.000146718
0.000182797
0.0148647
0.0356178
0.000148385
0.000151745
0.000201112
0.000191428
0.000125914
0.00883407
0.000148475
0.028209
0.000164035
0.00019797
0.000147132
0.033265
0.000165014
0.000148514
0.000147734
0.0260584
0.000194804
0.000195136
0.0313806
0.000163094
0.000169506
0.000153747
0.000148101
0.037362
0.0256984
0.00185319
0.000155997
0.000197406
0.000148285
0.000148746
0.000164064
0.000164054
0.00401688
0.000284327
0.000177512
0.00015754
0.042957
0.0247745
0.000145913
0.0242451
0.000163168
0.000146594
0.000289511
0.000180572
0.0279407
0.000157033
0.000164478
0.000150664
0.000856115
0.000145515
0.000148677
0.0337911
0.000148802
0.00016562
0.000158511
0.00015257
0.000155042
0.0224841
0.000201258
0.000155488
0.000170283
0.0291489
0.000177496
0.000148325
0.000138143
0.00015205
0.000163535
0.000148955
0.000150336
0.0219243
0.000148822
0.000146515
0.000190172
0.000147064
0.000274376
0.0218715
0.000225307
0.000229463
0.000147912
0.000153727
0.000190924
0.000147692
0.0518964
0.0185173
0.000205192
0.000139888
0.000157558
0.000197839
0.0525674
0.000148155
0.000178414
0.0277909
0.0338422
0.000157235
0.000161757
0.000148699
0.000162916
0.0229452
0.000154298
0.0525898
0.000194538
0.000156683
0.000171306
0.000193285
0.000153671
0.000148529
0.00019748
0.000147596
0.000147068
0.000154828
0.000148423
0.000177249
0.000156591
0.000162303
0.000144441
0.000177127
0.022337
0.000155833
0.00610624
0.000163357
0.00017101
0.000147556
0.000146976
0.000241034
0.0026588
0.000158456
0.000533335
0.000147835
0.0287563
0.000233502
0.0438236
0.000147596
0.000183717
0.000148677
0.0223412
0.000145079
0.000148419
0.000152951
0.0219097
0.0403926
0.00016033
0.000147412
0.00107598
0.0214997
0.00021708
0.0597692
0.000160748
0.00014765
0.0293985
0.000152003
0.000177794
0.000210837
0.000147948
0.00016337
0.000145399
0.000146115
0.0289983
0.00130915
0.0254313
0.000171528
0.000202865
0.000156639
0.000162974
0.0673284
0.00014978
0.000150911
0.000152093
0.000208305
0.000201899
0.0374019
0.000154617
0.0315467
0.000147416
0.0328268
0.000195012
0.0563659
0.000151551
0.000146174
0.000176905
0.000151825
0.000164845
0.000152719
0.000150015
0.000169659
0.000166076
0.000156642
0.000172574
0.0001517
0.0304139
0.00873769
0.000324245
0.0252898
6.46155e-05
0.0291901
0.000151548
0.000152382
0.000146473
0.000148292
0.000197914
0.000179424
0.00016381
0.000161826
0.00014744
0.000154913
0.0646635
0.000171384
0.000197974
0.0279191
0.00014777
0.00015767
0.000187745
0.00019498
0.0214408
0.000160912
0.0261769
0.000148564
0.000148834
0.000166083
0.0237217
0.000152392
0.0262283
0.000106539
0.0233259
9.6085e-05
0.000188027
0.000198184
0.0203209
0.0320865
0.000202145
0.000146119
0.000193406
0.0585647
0.000148686
0.000171692
0.000196598
0.000151868
0.0391983
0.000161639
0.00015062
0.000165992
0.0272457
0.0385263
0.000159725
0.000220775
0.000189353
0.000155129
0.00821693
0.00017919
0.000157277
0.0001587
0.000157792
0.000193728
0.000188004
0.000166793
0.0246854
0.000148632
0.00865169
0.000153834
0.000148669
0.000151542
0.000145533
0.0330707
0.000149903
0.000178729
0.0284618
0.000162181
0.000159217
0.000147578
0.000148531
0.000145871
0.000290927
0.000146741
0.000171694
0.000159706
0.050703
0.00014774
0.0247799
0.000152527
0.000429119
0.000150616
0.0616423
0.000160899
0.000169218
0.000179029
0.000157499
0.000147346
0.000147688
0.000177989
0.000171726
0.0126482
0.000148272
0.000151403
0.000163354
0.0401399
0.000185924
0.00373343
0.000193409
0.0336198
0.00022033
0.0420802
0.00016868
0.000145793
0.000161406
0.00015663
0.0249611
0.0395282
0.0317333
0.000192861
0.000147607
0.000171082
0.000179351
0.000147188
0.000171385
0.000152609
0.000148217
0.000146683
0.000177738
0.000151026
0.000162694
0.000174421
0.000239434
0.000344766
0.000153364
0.00018596
0.000170748
0.0260105
0.0338752
0.000147095
0.000153019
0.00017739
0.000164431
0.023231
0.000180113
0.000170771
0.0200511
0.000145991
0.000166841
0.000875508
0.000147665
0.000152397
0.000149346
0.000176757
0.000146414
0.000147731
0.000149288
0.020534
0.0250067
0.000162009
0.0239008
0.000148867
0.0355083
0.000185458
0.000170184
0.000148838
0.000147677
0.000168647
0.0239977
0.000175506
0.000173136
0.000150649
0.000149767
0.000176117
0.00016986
0.000147868
0.00036098
0.0272789
0.0243582
0.000148814
0.0244466
0.000151228
0.00018806
0.000388406
0.000148451
0.0657369
0.000358758
0.000151296
0.000183476
0.000150114
0.000157065
0.000176945
0.000145746
0.000145956
0.000149
0.0475882
0.000176038
0.000145704
0.000182824
0.000161824
0.000149621
0.000145534
0.000150002
0.000848375
0.000153951
0.0143653
0.029875
0.000148543
0.000253701
0.000146356
0.000149145
0.000168851
0.015321
0.000147339
0.000145887
0.0294496
0.000150437
0.000153908
0.000148855
0.000153439
0.00014668
0.000145691
0.000146428
0.00015557
0.00014927
0.000146664
0.000149387
0.000163037
0.000148681
0.000169422
0.0316329
0.00014841
0.000149399
0.0224116
0.000148466
0.000146496
0.000145341
0.000164839
0.00014927
0.000148285
0.000185579
0.00014555
0.000146045
0.000163515
0.000174745
0.0314617
0.000148977
0.000146494
0.000166441
0.000173995
0.00267118
0.0261507
0.000154024
0.000176761
0.000179372
0.0613782
0.000255451
0.000164472
0.0691209
0.000149481
0.000148223
0.000145982
0.00014569
0.000156962
0.00014735
0.0041543
0.0252066
0.00209568
0.000202157
0.000357764
0.0264871
0.000149176
0.000147723
0.00017868
0.0001497
0.000239047