/*--------------------------------*- C++ -*----------------------------------*\
| =========                 |                                                 |
| \\      /  F ield         | OpenFOAM: The Open Source CFD Toolbox           |
|  \\    /   O peration     | Version:  v2012                                 |
|   \\  /    A nd           | Website:  www.openfoam.com                      |
|    \\/     M anipulation  |                                                 |
\*---------------------------------------------------------------------------*/
FoamFile
{
    version     2.0;
    format      ascii;
    class       volScalarField;
    location    "300";
    object      ddt0(epsilon);
}
// * * * * * * * * * * * * * * * * * * * * * * * * * * * * * * * * * * * * * //

dimensions      [0 2 -4 0 0 0 0];


internalField   nonuniform List<scalar> 
13726
(
9.51859e-11
-3.0864e-06
8.07295e-11
-8.64778e-11
6.68426e-08
3.8862e-11
-1.20859e-11
2.56956e-11
-4.91194e-08
-3.58069e-10
-1.04276e-07
-1.01772e-11
-4.33689e-12
1.81869e-06
-2.8612e-11
1.63617e-11
6.13047e-08
1.11175e-11
3.19823e-05
-2.92649e-06
-0.00017502
-4.51697e-13
-1.29623e-11
-1.15875e-10
2.41783e-12
-1.8205e-11
-1.40059e-10
-1.88496e-11
-1.46616e-12
5.98072e-05
-2.65522e-05
-1.14404e-10
1.63762e-05
-2.92369e-10
1.70363e-06
-1.06912e-05
-4.3419e-10
-2.32986e-06
4.30899e-12
5.33979e-11
-4.7099e-06
1.40139e-06
3.09582e-12
-8.60352e-11
-1.07902e-10
-3.13768e-10
-7.46929e-07
3.38888e-12
-8.74175e-09
-1.42985e-12
-9.71877e-06
2.33384e-12
4.34846e-09
-4.30277e-11
3.66867e-11
2.23791e-11
9.12716e-10
5.57819e-09
-9.04681e-10
-2.44073e-10
-8.13957e-06
-4.12644e-11
-2.10635e-05
-3.04317e-12
1.04451e-05
-6.56717e-11
-0.000213351
1.98327e-05
-3.58814e-12
4.46475e-08
-5.83539e-07
3.09921e-11
1.598e-11
-4.10454e-10
2.92455e-05
6.25458e-06
4.70979e-08
7.68148e-06
2.5939e-05
1.01629e-09
-3.52615e-07
-7.41763e-09
-8.15877e-09
1.11257e-11
2.36392e-11
-8.18873e-06
4.62489e-09
7.22569e-11
1.8615e-12
4.95235e-05
2.41161e-11
-4.43031e-08
-1.63769e-10
-9.95937e-11
-5.64873e-07
1.52244e-05
2.25409e-10
-9.6723e-12
1.99528e-10
5.0704e-07
1.3571e-10
-7.62577e-10
7.34179e-09
1.38629e-11
-4.09396e-09
7.62273e-08
-6.4888e-09
-1.10474e-11
2.92074e-12
3.92681e-10
2.40478e-09
-7.35332e-13
6.44125e-05
6.74001e-06
5.55756e-06
-3.28337e-11
-2.66826e-06
4.44638e-05
6.97556e-09
1.96528e-11
0.00012082
1.5852e-11
1.6893e-10
3.10052e-05
5.37284e-05
5.33325e-06
2.02747e-10
1.02707e-09
-9.44662e-12
-2.2652e-10
-3.8113e-06
-9.01195e-05
-2.08256e-10
-9.15579e-09
4.34501e-07
2.08662e-07
3.5357e-06
1.06339e-06
2.52931e-06
-7.28374e-06
-9.97559e-09
1.07189e-06
3.45848e-11
3.35721e-12
3.03959e-11
-4.05342e-10
4.15905e-05
-2.81831e-10
8.18006e-11
2.8579e-05
9.59594e-11
-4.75133e-12
-9.53488e-09
-1.66776e-10
-6.22968e-12
-1.40655e-11
-2.25137e-10
3.79712e-06
-8.10205e-07
8.46088e-13
-1.41123e-13
-6.91912e-12
-1.6813e-05
5.84451e-06
-3.31221e-11
-2.17682e-08
-2.78382e-06
-1.20767e-11
1.5782e-10
-2.57629e-12
-3.79564e-09
-1.46261e-10
4.59756e-06
-2.65323e-10
2.45409e-06
1.5705e-07
-7.35299e-12
-5.36379e-05
4.60856e-05
4.1239e-12
1.7086e-05
-1.266e-12
4.95319e-06
-2.23656e-06
2.89561e-13
2.35794e-11
-6.73003e-12
2.13901e-10
-4.62867e-11
-6.61758e-11
7.69653e-06
-1.68628e-07
5.34038e-05
4.75366e-05
2.18465e-11
-3.96924e-11
-9.25229e-12
-3.48697e-05
-2.78549e-07
4.71544e-11
-3.38585e-05
1.15763e-06
2.84337e-05
-2.34847e-10
1.1691e-11
6.86405e-11
-2.18635e-10
-4.53921e-06
-5.58481e-11
-1.31493e-08
1.16827e-07
-6.49429e-07
3.75046e-05
-2.63515e-12
3.72596e-06
2.56507e-05
-1.37682e-10
-2.53201e-11
-9.00282e-12
-4.32365e-06
8.19166e-11
8.19316e-10
-1.16297e-07
-1.20048e-05
2.75589e-11
-3.65174e-05
-4.59382e-05
-3.71014e-06
3.10736e-05
-5.53843e-11
-3.69986e-06
-3.43556e-05
1.55471e-05
6.42525e-06
-4.00694e-10
8.28728e-11
-1.63212e-06
3.42388e-05
-1.27208e-06
-3.57553e-05
-7.10862e-12
2.93816e-11
-9.41817e-12
1.99463e-05
-1.11453e-06
-1.12823e-05
-8.11057e-10
9.55867e-11
7.44958e-13
-7.24046e-08
6.29407e-05
-4.85464e-10
4.60329e-06
1.17988e-10
3.32308e-09
1.00521e-06
1.42912e-10
1.0455e-05
5.11716e-06
5.61795e-11
-7.72826e-07
-1.34696e-06
-7.71229e-10
9.85311e-13
-3.44667e-06
4.34393e-05
2.43381e-11
-3.02987e-11
-5.49679e-13
-1.93049e-09
-5.42118e-07
1.57201e-10
5.29793e-05
-1.49833e-10
-4.1877e-06
-3.59424e-06
3.34799e-05
-7.65795e-06
-3.79454e-10
-1.52283e-10
-1.39164e-05
-1.03644e-10
-1.85835e-05
-1.08223e-10
1.69744e-05
1.02051e-11
-8.6032e-06
1.88066e-05
-5.59407e-11
-4.85662e-11
5.1283e-06
3.10835e-11
-8.33406e-12
4.37983e-06
-4.90728e-06
-2.44006e-10
2.89814e-07
-2.05889e-12
-7.80355e-05
2.9999e-12
-1.25551e-05
-1.40485e-05
7.45818e-09
2.01956e-11
-1.39058e-10
-2.20575e-06
2.65958e-05
2.11841e-05
-8.88621e-06
-2.65359e-10
-5.60328e-05
-3.68808e-06
-1.43317e-05
7.90013e-05
9.29556e-11
-1.4763e-06
2.37899e-11
-1.16796e-05
-3.27718e-05
-5.17087e-06
-0.000165779
1.77213e-07
-6.04323e-11
-1.94229e-10
-1.93496e-07
1.58816e-10
7.33734e-11
-1.44322e-05
4.663e-12
-2.03782e-05
5.66657e-09
-1.0134e-05
-1.72945e-11
-7.611e-11
9.67045e-09
4.30115e-11
-1.22147e-11
-8.19133e-10
2.35548e-11
6.78399e-09
1.95925e-05
1.84663e-05
-2.4832e-06
-7.2896e-06
-5.30545e-06
1.83146e-09
9.24341e-11
-2.25157e-10
-1.80491e-06
-1.15145e-10
1.23965e-06
1.83956e-05
2.67039e-05
-3.52699e-10
-2.86767e-10
-7.49633e-11
-5.11714e-11
3.38419e-05
-2.70497e-10
9.80141e-11
-6.12944e-12
7.80895e-10
2.6705e-06
-4.15065e-11
-9.04409e-10
1.84184e-05
5.23888e-05
-2.02896e-10
-7.89736e-12
3.38092e-11
3.68856e-07
-2.99084e-12
-3.25464e-10
5.97294e-12
-6.99421e-06
-1.4827e-12
3.85763e-12
-8.84956e-05
-1.67297e-10
2.5941e-09
1.36366e-11
1.0326e-12
1.39871e-10
2.93914e-06
-5.35873e-05
4.85588e-05
1.02995e-05
8.83569e-10
2.14626e-11
-1.43663e-10
-1.27755e-11
7.28762e-11
1.58683e-10
1.41339e-11
6.48648e-12
-7.39688e-11
-9.70696e-06
3.79812e-06
3.7963e-10
-3.24179e-11
-2.70847e-11
1.81316e-11
-1.32404e-10
4.78304e-09
-3.04598e-10
9.06528e-10
-1.18147e-10
3.19757e-11
9.84014e-06
3.93245e-07
-7.93655e-07
-6.74442e-11
-0.000155342
-9.35115e-05
-5.34516e-06
-1.45417e-10
-3.56414e-05
-1.7796e-06
-2.10547e-06
1.31397e-06
6.6572e-05
-1.15386e-06
-6.18849e-13
1.25415e-09
-9.59916e-06
-4.648e-12
-1.80542e-05
-5.90719e-11
-8.43716e-11
7.87341e-09
4.55449e-05
4.68082e-05
2.38402e-05
4.28836e-05
1.29057e-10
-1.61184e-11
9.264e-11
-1.46607e-11
-4.68154e-10
6.13053e-09
2.63503e-11
-1.98183e-06
-3.26243e-13
-0.000108783
7.38609e-07
5.46644e-12
-6.41486e-06
8.56871e-13
-5.84231e-11
-7.06336e-07
-7.65774e-12
2.71711e-06
5.12366e-06
-4.23041e-12
-1.95408e-06
3.79085e-12
-2.02618e-05
-2.15056e-06
1.21553e-11
-2.46047e-10
-8.2064e-10
-6.35714e-06
-7.87979e-10
-1.03794e-05
2.70394e-07
-2.56218e-11
-1.11641e-05
-7.12478e-06
1.03056e-11
5.72046e-05
-7.44502e-09
1.3956e-11
2.08432e-11
1.36839e-11
3.55404e-05
-2.8979e-12
-1.50724e-07
3.26521e-06
6.44349e-06
7.28569e-10
-3.70506e-06
-2.07526e-13
-3.0438e-11
-4.50744e-06
-6.64936e-12
-1.02671e-11
-7.02035e-12
2.6182e-11
-1.25591e-05
3.81149e-05
-7.16082e-11
3.96882e-09
1.22298e-09
-7.40777e-06
2.49114e-06
-1.56218e-10
-2.38378e-10
7.39788e-06
2.4052e-06
4.94402e-11
-1.65316e-12
1.22352e-06
6.82584e-10
4.59559e-09
-8.14094e-11
5.4664e-12
-3.40841e-06
-1.6831e-06
2.4306e-12
-4.90829e-11
3.09363e-10
-1.62602e-05
-3.2444e-12
-3.81734e-10
-2.82309e-11
-3.5836e-05
-8.3479e-08
5.23687e-11
-1.81102e-10
9.1714e-12
1.03106e-10
-1.55004e-08
-3.69501e-06
-1.69877e-06
-1.07016e-08
5.70747e-09
-1.8723e-05
4.99309e-09
-3.05798e-12
4.26968e-06
1.07293e-09
-2.92865e-10
6.60555e-06
3.94619e-10
-0.000111592
1.10402e-10
-2.02212e-09
5.97508e-06
-1.04729e-09
-1.29849e-10
-2.31839e-06
-1.80921e-12
8.97032e-11
-1.4842e-10
2.14503e-07
-4.57725e-06
-7.31158e-10
1.24378e-11
4.04824e-08
-5.93475e-11
-6.21846e-11
1.2743e-07
3.0155e-12
-4.12946e-06
1.25629e-11
-3.73191e-10
4.05962e-13
-9.0525e-06
-9.28945e-05
-7.70739e-06
-5.65254e-07
1.87876e-11
-1.0547e-05
-2.38672e-10
8.33736e-06
-3.27731e-07
-1.47539e-10
-1.74663e-10
-2.62078e-05
-2.16553e-10
1.00259e-05
-5.93659e-12
2.43434e-12
-3.78775e-05
2.83039e-12
-5.50191e-06
-3.90407e-10
-3.17207e-10
6.65895e-10
1.59867e-07
1.18243e-05
1.35966e-05
2.07926e-12
1.08977e-11
-1.5184e-08
9.66732e-12
3.47447e-05
-2.46509e-06
-9.25672e-12
1.80741e-05
1.6588e-11
1.37087e-09
2.6049e-11
-2.64914e-10
-5.48039e-06
-7.03447e-13
-9.0749e-06
2.33069e-12
-4.5217e-05
4.6337e-06
-6.47391e-11
2.28494e-11
-1.74748e-11
-5.27324e-11
1.21119e-11
-1.98871e-05
5.00873e-05
-2.0091e-06
-2.32463e-10
5.13936e-07
8.61194e-06
3.69316e-05
-6.33043e-10
-2.15511e-05
-2.18351e-06
-2.23176e-10
3.49832e-10
6.6796e-12
-1.26151e-05
-5.55691e-11
1.10747e-11
-2.48121e-09
-2.0775e-05
-2.65534e-05
7.97153e-09
-1.02765e-11
-2.34141e-10
-7.57344e-09
1.02606e-11
9.68283e-11
-7.02446e-06
9.34055e-11
2.15543e-05
8.56152e-11
-1.22926e-06
-4.08734e-10
8.08237e-12
5.99489e-05
-1.4109e-05
2.84831e-10
9.54001e-07
-3.07804e-10
-3.43218e-10
-2.53432e-06
-4.48888e-08
1.0834e-05
-5.37527e-11
6.84134e-07
-5.06016e-06
-3.41027e-10
1.70325e-08
-9.8408e-10
-3.3428e-05
-2.97841e-12
-6.17173e-06
-9.57731e-11
4.25466e-11
-5.09154e-12
1.60505e-05
-6.88258e-13
1.56795e-11
5.88768e-11
-5.76609e-08
-5.61367e-07
1.7605e-08
-7.76911e-12
1.98284e-11
5.15618e-06
5.28504e-06
1.86023e-11
-1.0308e-05
-5.51956e-08
-2.22923e-05
6.32024e-06
5.53315e-08
-4.87589e-09
-2.88514e-06
9.00201e-14
5.64993e-11
4.88284e-06
-2.317e-10
-7.88347e-11
9.19451e-09
-2.07054e-06
-3.56861e-11
-2.60139e-11
-4.14373e-11
2.58994e-11
-8.19334e-05
-2.5312e-10
3.66988e-12
-2.02633e-10
-3.65439e-11
4.1516e-12
9.59926e-11
-8.15788e-11
1.90303e-11
6.36637e-05
-2.77817e-11
-6.64728e-10
-6.63299e-08
7.70073e-11
2.35196e-11
4.91225e-10
6.14848e-12
2.20352e-08
-5.45856e-10
-2.32617e-05
-4.32398e-12
2.18271e-05
-2.83438e-10
2.34777e-05
-2.74668e-06
5.97718e-10
-2.79568e-10
-3.73529e-11
9.14876e-11
-7.22727e-12
1.7975e-07
-3.20013e-09
9.29127e-12
6.27771e-05
3.72552e-05
2.48172e-06
-8.24407e-06
-8.16743e-13
4.13642e-05
-2.25973e-12
-9.70641e-12
3.19897e-12
1.11151e-10
4.09726e-05
-9.23696e-11
-8.51514e-05
-1.10128e-09
-8.91661e-06
1.11881e-05
7.77473e-07
-1.41422e-06
2.48626e-10
-9.92408e-11
1.61514e-10
-2.05218e-10
4.45145e-09
3.57009e-05
-1.98752e-05
-1.03243e-08
5.99266e-11
-8.55805e-12
6.06186e-05
-1.1276e-10
-6.00837e-12
-6.73543e-12
-2.66541e-10
-8.39096e-06
1.56442e-07
2.32837e-09
2.70363e-11
-1.2355e-05
-3.38853e-06
4.36374e-10
-1.55069e-06
1.80958e-06
1.0602e-10
-0.000127579
5.43681e-06
7.9647e-06
3.55702e-12
-1.7456e-08
-9.42947e-06
-7.37807e-13
-4.81204e-07
1.10875e-11
-5.49005e-09
1.95371e-09
-7.74151e-13
1.29735e-08
-1.80069e-05
9.38644e-12
3.4382e-12
2.22516e-10
-8.77378e-09
-1.36112e-12
-3.33845e-05
-3.09801e-06
-3.49209e-12
-4.18286e-12
-1.90846e-11
-0.000106181
-2.4084e-12
5.06661e-06
-6.26237e-05
6.21241e-05
3.21419e-06
-6.0356e-06
-3.49747e-05
3.85524e-05
-4.20793e-12
1.11986e-10
8.21472e-05
2.12424e-12
-1.48194e-05
-1.91176e-05
-3.9121e-05
-3.52459e-12
4.97295e-11
-7.47679e-11
2.21328e-05
-8.945e-11
-1.55789e-05
-1.94265e-05
1.11303e-06
-2.65622e-05
-4.42429e-07
4.17458e-06
-1.65794e-11
4.80469e-05
-3.12656e-10
-6.73154e-06
-4.08267e-11
3.48652e-08
-2.3642e-11
-4.51858e-07
-3.81706e-10
7.13356e-09
-1.19759e-10
1.10447e-10
-4.76493e-11
-8.55722e-05
3.85899e-12
-1.12736e-10
1.67409e-05
6.89853e-11
-1.19789e-11
-6.38584e-12
3.628e-05
4.00412e-12
3.73387e-11
1.89117e-09
-1.78061e-12
-6.67308e-11
-6.13268e-12
-3.27993e-05
-5.74068e-11
-5.43686e-13
1.47014e-07
1.79206e-06
4.21158e-11
2.78634e-11
0.000125104
-4.61676e-05
4.66698e-09
-1.42294e-12
1.4995e-05
1.29429e-05
-1.02787e-06
-7.00725e-08
-3.59178e-06
9.56396e-11
-5.55709e-10
-3.7604e-10
-1.03266e-12
2.49232e-11
-1.81134e-06
4.39215e-10
5.94426e-06
-2.32247e-11
-1.35928e-08
3.42041e-11
9.67879e-11
-2.20575e-06
-5.04213e-07
9.63405e-12
-3.49143e-10
2.29003e-09
9.44824e-11
4.26806e-11
-2.03415e-11
2.52547e-05
-9.9168e-05
-3.06729e-10
3.34232e-11
-7.60668e-11
9.28441e-12
-1.00778e-05
-8.25731e-11
1.8082e-11
-2.95408e-06
1.97579e-11
8.45929e-09
9.34953e-11
-3.04411e-06
8.26928e-07
-3.15327e-10
-1.8495e-10
-4.53225e-06
-1.35709e-06
-1.0048e-11
-2.09738e-06
-7.96801e-06
-0.000226971
-3.73945e-05
-3.0923e-05
-1.7364e-07
7.60648e-08
1.37568e-06
-5.71342e-13
8.40532e-13
2.01043e-05
1.98456e-11
7.89027e-06
1.09713e-11
-6.30866e-06
4.88787e-06
-4.5948e-10
-2.85069e-05
-4.5402e-05
-2.53235e-05
-3.661e-10
1.14791e-11
-7.71202e-12
1.63158e-09
1.46809e-05
6.34014e-12
-0.000191296
-6.97418e-10
-9.55877e-06
1.91866e-08
-1.14299e-08
5.23053e-07
-2.27537e-11
-1.17713e-06
-3.31492e-10
4.82406e-12
1.11963e-11
-2.50789e-05
5.99912e-09
9.17419e-11
-0.000133239
-1.82039e-11
6.27654e-06
-1.30191e-10
3.15188e-06
2.16227e-05
1.42767e-05
3.07843e-11
-3.63504e-12
2.60526e-10
1.01952e-10
2.5632e-05
1.346e-05
-2.77227e-12
8.48259e-09
2.37558e-08
-3.67026e-06
6.9665e-06
7.56962e-11
1.717e-06
-1.3905e-11
-8.15032e-11
-0.000189758
-0.000211665
-1.65334e-05
6.38922e-11
6.63731e-05
4.72008e-10
-1.71199e-05
-4.87992e-07
2.52963e-06
-2.41382e-05
-1.64099e-10
-1.71616e-07
-1.42055e-05
5.0376e-05
5.29927e-06
-6.77788e-12
-3.83371e-05
2.23987e-08
-1.50874e-09
-1.11988e-09
-1.13588e-11
6.63601e-07
1.66374e-11
5.52453e-05
-3.04519e-06
2.48728e-05
1.6979e-05
6.29146e-06
4.20321e-05
-0.000165898
-2.13216e-05
-2.85012e-11
-1.30411e-07
6.24378e-12
1.01075e-05
-7.77822e-07
-1.81862e-12
-2.31276e-06
6.53622e-13
-3.99351e-13
-1.88261e-10
-2.68844e-11
5.75736e-05
-2.03481e-05
-3.48254e-12
-2.95194e-11
1.8232e-07
1.20383e-05
-3.18622e-10
-1.04946e-08
2.12318e-06
3.87417e-11
-3.93059e-10
-3.28615e-11
-2.63478e-06
-6.3827e-10
1.30475e-10
6.61313e-07
-2.49061e-10
0.000100536
-9.63128e-06
6.63478e-12
0.000107434
-1.73583e-10
9.40967e-06
1.0831e-05
-2.21471e-05
8.86616e-11
3.09194e-06
9.51382e-11
9.48679e-06
2.25962e-11
-1.82145e-05
-1.17975e-11
4.48163e-12
8.4407e-06
7.18194e-11
-1.8655e-11
5.57737e-06
-1.13285e-10
6.32563e-11
1.86989e-05
-3.40203e-11
2.90248e-11
8.93505e-07
-1.25763e-05
1.15456e-10
-3.52925e-06
-9.1823e-12
1.72986e-05
-2.259e-11
-3.18875e-11
-1.58693e-10
2.20212e-12
-3.82244e-12
3.10406e-06
5.72892e-06
2.38363e-12
8.94514e-07
-3.596e-10
1.54844e-06
2.53566e-11
-2.76542e-11
-2.08172e-08
-2.51974e-07
1.07596e-11
-2.0545e-11
-1.80211e-06
-2.06555e-11
2.31118e-08
-2.19662e-10
2.10017e-06
-4.25836e-07
-3.84492e-09
1.09868e-08
2.01399e-05
2.68175e-12
5.49604e-11
5.60494e-07
-0.000149551
-2.52226e-08
1.93903e-05
9.64152e-11
-3.73098e-05
-2.71865e-05
2.59553e-12
3.97526e-11
-2.40954e-05
1.17664e-08
8.09959e-11
-4.12473e-07
4.0473e-10
-2.7846e-11
3.83524e-09
1.39142e-10
5.49902e-07
-2.48964e-06
1.50544e-11
5.23972e-05
-2.13916e-06
1.46847e-12
2.16673e-08
-5.37654e-05
-1.77577e-05
6.23799e-07
-2.73294e-11
-2.28436e-10
6.00939e-05
-2.67931e-11
-1.20043e-09
2.93716e-05
-1.20739e-11
-1.7046e-06
-5.42807e-11
-6.85627e-12
-0.000114875
6.0029e-07
-1.14007e-06
2.07782e-10
-1.04111e-10
3.22532e-12
1.79037e-05
-6.90242e-07
1.43447e-11
-1.24388e-07
-1.07195e-05
-6.14163e-12
1.86653e-11
-2.15184e-10
1.18043e-10
2.14933e-05
3.0418e-11
-1.19044e-11
-5.59923e-09
-1.45348e-11
-0.000244769
6.69048e-05
-8.697e-05
1.54241e-08
-8.26983e-13
7.87508e-12
9.48897e-06
-6.38465e-08
-9.79205e-06
1.53831e-09
7.29627e-08
-3.21057e-10
2.16176e-11
-2.35701e-10
-8.45973e-07
2.2546e-05
-1.21849e-10
1.78298e-05
-4.72471e-05
-2.52605e-12
5.38744e-06
5.22189e-06
2.1909e-05
-2.5103e-06
-6.74026e-12
1.36148e-06
6.97777e-07
-2.75469e-06
2.46707e-11
-2.13666e-10
1.85355e-05
-6.31194e-11
-2.95471e-10
6.0957e-05
-3.46868e-09
-4.08184e-06
1.00141e-05
-1.92388e-09
-1.83038e-05
-3.87923e-05
-7.74381e-11
-0.000257889
-9.33685e-07
1.07936e-10
-3.16075e-11
-2.23484e-06
3.23626e-10
2.37451e-11
-9.58638e-11
-2.4505e-12
5.78302e-06
-4.39221e-12
1.88992e-08
-1.23318e-06
2.00628e-06
-7.96328e-11
-4.28347e-10
6.39125e-05
-1.77738e-12
-2.99444e-12
-2.4793e-10
-1.58187e-10
8.57153e-11
8.6095e-06
-9.05482e-11
-2.05305e-11
-3.19781e-06
1.18417e-11
-7.72833e-05
1.9265e-11
2.9651e-05
1.12172e-11
-0.000108995
2.04281e-06
-1.20167e-10
-4.6009e-06
1.59806e-06
-4.46558e-10
4.84869e-11
-1.02987e-11
3.38671e-06
3.13944e-11
-2.7792e-07
-9.90883e-12
4.37544e-11
-4.41971e-06
1.54766e-05
8.01452e-12
-3.96969e-10
-9.28978e-11
3.7374e-10
-5.00921e-11
6.89518e-10
-4.2398e-10
-6.38162e-05
-3.32796e-05
3.73469e-11
-6.20632e-11
4.02718e-05
3.924e-05
5.80928e-11
-2.4018e-12
5.50307e-05
-1.30361e-06
-9.35921e-05
5.58879e-10
-9.77355e-11
1.19373e-06
1.2473e-09
-2.85796e-05
3.59308e-05
7.76764e-12
-6.50594e-11
7.49319e-06
1.18312e-08
-3.80925e-12
-3.84279e-05
-1.53333e-05
6.61303e-05
2.88186e-12
-3.95323e-09
3.0496e-10
1.43594e-11
-2.30012e-10
1.34987e-06
-1.06687e-09
1.52686e-12
-0.000133995
-1.02003e-11
-4.45099e-11
7.50103e-10
-1.90656e-05
-3.62116e-12
1.98221e-05
-1.2448e-10
-2.11008e-10
-8.65009e-11
-2.86054e-10
3.73866e-11
-0.0001756
-0.000194758
3.99659e-11
-7.37243e-06
-5.44041e-12
-7.85608e-13
1.68207e-05
-0.000112446
-1.39533e-12
-0.000158393
-9.43261e-12
7.48216e-12
-6.06783e-11
-1.55913e-05
-9.9874e-07
-6.83387e-13
-2.87213e-05
1.10321e-05
-9.49873e-06
-3.91354e-09
-7.81743e-05
1.24137e-05
-2.147e-11
6.46719e-08
1.93753e-12
-2.04665e-10
4.32846e-11
1.32795e-05
-0.000137124
-0.000125625
3.00236e-07
1.88508e-11
3.35185e-11
-1.07177e-11
8.93106e-10
-3.47076e-10
-6.76192e-12
-3.27899e-11
-3.42818e-11
8.79941e-06
-2.57481e-12
2.31261e-11
1.93805e-13
-1.3975e-05
-3.47088e-11
-1.22445e-12
-9.08476e-11
1.24612e-06
-4.78974e-11
-1.83333e-11
-4.37577e-10
4.08644e-06
-3.77527e-11
2.23074e-08
4.1296e-10
-8.6722e-11
5.80545e-07
-2.09975e-07
-2.97648e-10
2.10353e-06
-0.000109623
9.64111e-11
-2.50083e-11
-1.35582e-11
-9.40595e-12
-1.30297e-08
9.66177e-10
1.62714e-10
1.13313e-05
-4.11413e-12
-1.25376e-10
4.48802e-11
-1.15423e-10
-1.81955e-11
5.34674e-11
9.8764e-11
-6.87161e-11
-2.93243e-08
-1.47318e-05
2.79102e-06
2.68867e-06
-3.7056e-06
6.93708e-09
5.65423e-12
-2.69252e-08
-1.98727e-05
4.43007e-11
-7.43684e-07
-2.16727e-06
-1.63057e-06
-1.2986e-11
7.8938e-06
9.24723e-11
2.52431e-07
1.05815e-10
1.52378e-12
7.94807e-13
-4.303e-11
-2.54822e-06
-6.41679e-08
-0.000206465
6.95803e-06
5.12321e-05
3.98677e-11
-2.33291e-12
-4.40386e-11
-0.000132358
4.1828e-11
-4.03319e-11
0.000230399
1.28481e-12
-2.63569e-05
1.20406e-10
1.64365e-08
5.58414e-14
-6.2457e-11
-3.48861e-06
1.2232e-11
-1.09398e-06
-6.55127e-06
-5.33877e-07
-4.10999e-11
-6.63233e-11
1.40724e-05
-9.7375e-06
-4.00549e-05
2.62316e-11
-5.97965e-09
1.87581e-05
5.71569e-05
5.10094e-05
-8.45567e-11
3.77411e-12
-1.162e-12
-2.44203e-11
1.90131e-08
4.68106e-09
5.15275e-12
-2.79936e-10
3.68935e-05
-3.15716e-05
6.71846e-08
-1.10791e-09
-5.68696e-07
3.58249e-11
1.79619e-11
-9.56033e-07
1.12379e-10
6.60344e-09
-1.32542e-08
-4.60706e-10
-9.72131e-11
4.16949e-05
-3.00936e-05
-4.01875e-06
5.10382e-11
7.28116e-05
1.62063e-12
-8.15963e-10
-3.46294e-05
-4.94187e-12
-5.28094e-11
6.86107e-05
-3.45949e-05
-5.09919e-10
8.30919e-07
-4.12145e-11
1.07866e-05
-5.52479e-11
-1.21263e-07
2.24731e-10
-3.46781e-10
0.00011406
-8.37346e-06
1.35227e-05
-7.06862e-11
-3.61989e-11
4.76245e-09
5.62884e-12
3.08074e-10
4.40464e-08
5.06951e-05
-4.73603e-09
-7.08216e-12
2.18307e-09
-1.54566e-10
-1.0632e-08
-8.61897e-10
5.8461e-12
-3.4047e-11
-3.86836e-06
-3.60928e-06
-1.09754e-11
-9.02326e-09
-6.28033e-11
-3.158e-11
4.94748e-09
9.50115e-08
7.85367e-12
3.3557e-05
-5.62874e-06
-1.73784e-10
9.49661e-11
2.64304e-10
1.00986e-05
2.8519e-09
-4.12919e-11
2.98614e-11
2.07776e-12
8.05454e-11
-7.37533e-05
4.46091e-07
7.40438e-11
2.65565e-05
-1.20964e-10
3.97453e-10
-5.95307e-09
-2.09297e-09
1.44611e-05
-3.59628e-12
-0.000129393
-1.57889e-05
7.91385e-11
4.69549e-11
-3.60172e-10
1.44996e-11
-1.03737e-10
-0.000150536
-1.71337e-08
-1.30107e-06
5.53434e-11
-6.88388e-13
4.17395e-06
-0.00010677
-4.60872e-06
7.54555e-06
-5.40465e-09
-4.4688e-12
-2.9303e-06
7.24148e-06
2.93351e-12
1.03056e-05
1.05518e-05
3.13207e-11
-4.01583e-08
7.84066e-11
-9.52518e-12
4.26195e-11
-4.00799e-10
-3.77729e-07
-2.0505e-06
-7.51074e-11
-5.21505e-12
7.24339e-06
-2.34976e-06
-1.13636e-07
7.16512e-06
-2.92182e-05
-1.30108e-10
-4.48703e-10
3.88394e-12
8.21014e-12
1.95792e-11
-4.83618e-12
-2.65802e-06
-8.24436e-09
-3.33347e-11
0.000210806
3.47364e-12
3.6855e-06
-5.07315e-11
-1.47473e-05
9.2978e-06
-3.06019e-11
3.19396e-11
4.61882e-05
7.31317e-06
-1.36886e-05
1.47384e-05
-1.03513e-05
5.98301e-05
2.60308e-08
-5.97103e-07
7.15856e-06
1.6645e-11
1.58735e-11
-2.93762e-06
8.3092e-12
2.49671e-11
8.61403e-12
4.65971e-11
4.69666e-09
-2.77133e-05
-1.89147e-12
8.15582e-11
-2.35814e-09
-1.88725e-10
-0.000188544
-2.10774e-07
3.03324e-11
0.000151995
7.28385e-09
-3.17295e-07
-8.8622e-10
-1.75565e-05
3.79967e-10
2.72211e-05
2.70831e-05
-3.66471e-10
1.80363e-11
-5.51399e-07
-4.61463e-10
-9.90272e-05
1.7868e-05
2.08697e-05
5.50419e-10
4.18833e-10
8.45278e-12
-1.65149e-05
-4.67551e-07
2.60337e-06
-1.82175e-11
2.42778e-10
-1.60532e-10
0.00017928
-1.98368e-06
-1.4774e-07
-5.60629e-07
-2.32521e-05
-0.000138501
1.34407e-05
-1.81623e-11
1.72152e-07
3.517e-05
1.6345e-05
-2.78692e-09
-3.70819e-10
-1.98194e-05
1.51703e-11
3.63966e-10
-4.56845e-11
-2.72908e-10
-2.96237e-06
-7.29176e-08
-2.79701e-12
-2.54209e-10
5.61383e-12
-9.05204e-08
9.7166e-06
-7.14685e-11
-4.10565e-06
-3.08035e-07
3.13619e-06
-3.05463e-11
2.65788e-11
1.39627e-11
-6.00959e-06
-2.60057e-06
8.34032e-06
3.30243e-12
3.08386e-11
1.09604e-05
-3.43077e-10
-0.000280394
-1.97811e-10
-2.63368e-05
1.06522e-05
3.70338e-11
-2.30346e-11
2.80366e-05
1.58379e-11
1.24498e-10
2.48139e-07
-1.13186e-06
-1.60843e-12
2.37351e-05
-1.63523e-07
-1.142e-05
-1.58047e-05
-3.93024e-06
-3.18705e-09
8.13883e-06
-2.3965e-06
1.22041e-05
-3.04462e-06
2.08555e-05
-5.85288e-11
-2.25547e-09
-1.26074e-11
-2.84061e-11
-2.98079e-05
-8.82997e-09
-9.09955e-07
3.75299e-11
-4.59241e-08
-6.20073e-06
5.43316e-12
4.39952e-12
2.00976e-10
5.61376e-06
-1.85812e-11
-3.70209e-05
-1.44411e-08
-2.81665e-05
1.45657e-05
-2.64656e-12
-2.97662e-06
1.26393e-05
-6.86132e-06
2.39025e-11
-7.47867e-12
-1.71311e-11
1.82575e-05
2.8399e-10
-2.1826e-07
-1.11089e-10
-3.82708e-07
-1.62634e-09
5.56661e-07
-2.12527e-06
-1.17171e-07
4.77793e-05
-2.31758e-06
5.78722e-11
2.72868e-10
2.78032e-07
-3.56785e-10
3.20511e-06
7.90701e-11
-3.50779e-06
1.36725e-10
5.36534e-11
6.96704e-06
-5.67526e-11
-5.68566e-08
1.75567e-06
-0.000127909
5.04597e-12
3.82017e-05
-4.83595e-11
9.72807e-06
-1.20371e-06
2.55886e-11
-7.67705e-11
-2.39197e-11
-0.00013192
-0.000159742
9.21232e-06
-3.00638e-06
1.25822e-11
-1.68455e-09
5.58521e-05
1.35653e-11
-2.76922e-05
-9.08584e-12
-5.70659e-05
4.3703e-11
1.33595e-08
2.91145e-11
-1.71932e-06
-2.69199e-07
-8.15424e-09
-2.49079e-10
-2.07413e-11
-1.3245e-05
1.83061e-10
-8.21833e-11
-7.87861e-09
-2.52895e-06
-1.89654e-06
-6.28189e-11
2.97812e-11
3.0671e-09
2.74317e-05
-3.10796e-09
5.15198e-06
-1.14331e-09
1.07927e-09
3.58826e-06
4.30418e-05
7.6855e-10
-1.50921e-05
-4.28782e-11
1.89935e-05
-8.00441e-06
-1.6189e-05
7.52148e-11
-1.18998e-07
-2.00542e-06
3.41217e-11
8.66781e-06
-2.13487e-10
3.37051e-11
1.34192e-10
-5.31415e-11
2.49523e-07
-2.23398e-06
5.39292e-11
-2.01216e-10
-0.000168532
4.30236e-11
1.37479e-12
-2.2477e-11
2.97324e-05
7.94042e-12
1.95876e-11
-1.99801e-11
4.67661e-11
1.58143e-05
-6.37355e-10
1.70255e-05
-1.39841e-11
2.06396e-05
3.32236e-06
6.68481e-12
-6.85105e-13
-0.000222152
-1.15132e-12
2.11023e-11
-5.52907e-07
-2.07221e-06
-1.30851e-09
-2.81538e-06
-7.73254e-11
-2.76484e-06
6.40699e-12
-3.30245e-10
5.51449e-11
-7.88211e-07
-9.59983e-12
2.0695e-08
-0.000129605
-0.000164041
9.62415e-09
-2.55226e-05
-2.89716e-06
-8.3415e-06
-4.68167e-06
-5.77119e-06
9.44725e-11
-3.65772e-10
1.30714e-05
1.1402e-10
-1.69829e-06
-7.47947e-08
-5.09722e-10
-4.05992e-06
-8.8969e-05
-1.4566e-10
4.21265e-12
-8.82729e-06
-1.35789e-05
-1.17578e-11
5.38831e-05
-1.58236e-10
-1.82889e-11
1.49766e-06
2.65537e-05
-1.96586e-12
1.0355e-09
-3.30318e-10
1.18041e-05
-7.29558e-11
-1.39328e-06
1.17923e-05
-6.15471e-10
2.31642e-12
-3.42513e-10
1.06522e-05
-1.47983e-12
2.00202e-10
6.73526e-06
6.69624e-12
-4.00413e-10
-0.000149648
-4.33914e-12
6.414e-06
-1.19354e-11
-1.0179e-10
7.91808e-06
2.53914e-10
-2.64742e-06
3.05606e-06
-0.000183606
-4.80976e-11
-2.02704e-05
6.92737e-06
5.01472e-11
-6.27141e-12
-1.07492e-06
-5.01639e-09
-7.17644e-11
-3.79758e-08
-8.02882e-06
1.30597e-11
6.5843e-06
-1.19634e-05
-0.000218103
-3.00887e-05
4.0338e-13
5.47936e-11
2.76354e-11
2.51068e-12
1.15998e-05
1.16615e-10
-4.02127e-06
7.94286e-11
2.76917e-06
2.10816e-11
5.79923e-07
-1.39188e-06
4.2179e-10
-3.36351e-05
-1.72323e-09
-4.2921e-09
-1.5274e-05
0.000122473
9.1054e-11
-1.02419e-12
-5.36624e-06
-9.15471e-11
-9.98205e-08
-8.70382e-06
1.46251e-05
-3.88388e-05
-6.8419e-06
-5.63034e-06
-5.99949e-11
4.65463e-05
2.1536e-05
1.6036e-05
4.49321e-11
-1.12161e-06
-1.44244e-10
1.06416e-10
-2.57158e-06
-0.000229385
5.20082e-06
-1.05449e-11
-4.61081e-12
1.86521e-10
-1.35805e-11
-2.18004e-12
7.469e-11
9.50046e-11
2.03558e-12
-2.98636e-11
-0.000198833
-0.000166564
-8.211e-06
-3.98262e-11
5.70921e-06
1.21025e-05
-5.92818e-10
8.14996e-07
-1.96876e-12
1.79617e-12
-6.69868e-11
-3.9774e-08
-7.11445e-06
-2.83414e-10
1.44656e-08
-8.99657e-06
-3.19922e-11
8.02656e-13
2.29933e-06
-2.68677e-10
-2.08016e-06
-6.3613e-11
2.31935e-05
-2.61271e-06
9.19613e-06
1.55626e-11
-4.2297e-11
3.41304e-11
-4.15058e-10
2.4458e-12
-3.82654e-11
-0.000138734
2.82272e-11
-9.42126e-06
-9.28103e-08
-1.32833e-08
1.32607e-08
3.15257e-06
-1.21496e-05
-1.58839e-11
-4.42344e-10
-1.88132e-10
-1.06802e-05
0.000199317
-7.18586e-11
-1.59967e-06
9.18195e-12
-1.53912e-12
-1.11718e-07
7.56778e-06
-2.97984e-12
7.54607e-10
7.37694e-11
-1.69456e-10
1.93927e-12
-9.09884e-12
-2.59887e-06
9.04679e-11
-1.08841e-11
-1.08443e-09
-2.1989e-05
-1.01393e-11
-2.42194e-06
3.83895e-06
-4.34652e-10
-2.95259e-08
-6.54894e-12
2.30903e-10
-2.51316e-11
1.36611e-09
1.36378e-10
1.62405e-05
-2.71879e-06
1.29712e-05
3.4657e-05
-6.92573e-11
1.145e-11
-1.35352e-08
-0.000173971
-1.45955e-05
-1.14267e-05
-6.5688e-13
1.30737e-06
-2.1016e-05
-0.000171804
1.83681e-05
5.54315e-11
-3.64686e-11
-0.000266001
2.35885e-07
-3.99633e-09
5.25766e-11
7.38362e-12
4.71618e-06
-1.97483e-12
1.76656e-10
1.47118e-05
-6.81789e-09
-9.61895e-11
7.08883e-06
-5.65661e-11
-8.13833e-10
-4.18305e-11
-0.000210128
-0.000175229
-0.00016443
9.11899e-06
-8.76995e-06
1.72152e-05
6.62559e-05
-1.716e-13
3.39055e-06
-4.67499e-11
-0.000156996
-3.81718e-05
2.49549e-05
-3.99671e-06
-2.93082e-07
-4.24698e-10
-2.01023e-07
-5.67207e-06
-3.67568e-10
-7.68667e-07
8.80177e-06
-1.94402e-05
1.09541e-07
2.75014e-05
4.92639e-05
-9.0768e-10
-3.63648e-09
-5.26368e-14
4.85578e-13
-4.80859e-09
-4.883e-06
-4.39899e-10
-3.57577e-05
-6.00582e-11
-3.12984e-08
-1.62436e-09
4.86415e-08
-1.83355e-11
-2.78789e-06
6.28069e-05
2.44515e-10
-5.55649e-07
7.94129e-08
1.42489e-05
-2.24169e-06
2.16995e-05
-1.54299e-11
-3.17999e-11
9.3815e-12
6.19588e-05
1.21525e-08
-5.08413e-06
-2.15037e-10
-4.30686e-11
-3.32549e-07
8.58852e-06
3.62216e-10
-1.38123e-12
5.95828e-06
-8.07032e-10
1.01713e-05
-3.50467e-08
-5.08983e-11
7.08045e-07
-0.000177484
1.48779e-11
2.41844e-05
1.19503e-05
-9.80041e-05
-0.000146107
-7.02088e-10
5.58435e-05
-2.55455e-09
-5.5143e-10
2.09744e-09
3.84219e-12
1.8082e-09
9.54474e-06
4.16887e-08
1.159e-07
-0.000202897
2.31335e-08
2.88402e-11
5.86756e-10
-2.22609e-07
-3.2975e-11
-0.000119315
4.04561e-11
4.08071e-08
1.68348e-05
2.3329e-05
1.3771e-05
2.83331e-06
1.32501e-05
3.81177e-11
-7.11987e-08
4.77732e-05
-8.20052e-05
1.42433e-11
3.51025e-11
1.15868e-06
5.3855e-11
3.48167e-11
-4.57691e-08
-3.53834e-09
2.72848e-05
-9.989e-13
-3.81625e-06
8.1376e-08
-6.82424e-06
4.22141e-08
-2.38286e-10
-1.97487e-08
1.85025e-12
-2.10889e-10
2.19041e-05
9.08448e-11
8.53477e-06
-8.18184e-06
-2.90737e-11
7.52993e-12
-9.29577e-06
1.6303e-09
8.59463e-09
1.54562e-07
7.50841e-10
-2.14616e-05
6.12377e-08
8.59193e-06
5.37987e-06
-4.70502e-06
1.50942e-05
-3.56858e-05
0.000154117
9.11921e-06
-9.2144e-06
-6.22181e-11
-1.90667e-10
-7.82189e-08
-1.41873e-05
-4.62535e-08
-9.17311e-05
-0.000227782
-3.35854e-12
-3.95932e-10
4.93082e-06
-1.42011e-06
-8.26252e-06
1.11578e-06
4.3235e-05
-2.87173e-10
-2.17315e-10
-1.09032e-10
2.74366e-07
3.54771e-08
-2.64878e-05
-3.37266e-11
-0.000138315
9.94801e-06
1.60718e-13
5.29764e-11
-4.60624e-07
-3.28098e-08
-0.000202475
-5.60989e-11
-2.36946e-11
8.03045e-11
3.0877e-10
-4.94599e-12
7.06691e-07
-5.41872e-11
-5.92673e-06
-2.54424e-11
1.52819e-05
-8.29476e-11
-6.12145e-08
-2.66281e-10
-3.20214e-08
5.65545e-11
-0.000191401
1.22489e-07
3.41096e-06
2.09678e-07
-1.34043e-05
4.61438e-05
-1.01874e-07
-7.7145e-05
2.03033e-05
3.42132e-05
-2.73204e-06
-1.89143e-07
6.21551e-10
8.13257e-12
-2.22262e-06
7.55686e-09
-9.61067e-11
1.28115e-06
1.13192e-05
1.74152e-08
2.03932e-05
-2.13696e-07
-3.29713e-13
1.47935e-10
-5.45782e-06
-8.49089e-10
2.84051e-05
-5.86453e-06
-6.78398e-11
-0.000199638
-8.97067e-07
-5.39956e-09
-6.38516e-08
-7.99585e-07
-4.904e-06
1.20572e-10
-2.14604e-05
1.44673e-05
-4.61796e-11
1.32167e-05
-2.09279e-06
3.48793e-08
1.18503e-05
-7.0231e-12
-0.000251598
5.68523e-07
1.67685e-08
-4.75791e-06
4.23114e-11
6.7196e-12
2.24286e-08
2.05044e-07
-3.16495e-06
3.62198e-07
8.6561e-06
1.80504e-11
-7.39438e-13
6.64161e-05
-6.86818e-06
4.90979e-05
-3.59528e-09
2.28479e-05
4.20585e-10
3.26507e-12
4.11609e-05
-2.95116e-08
3.77583e-05
9.49137e-09
1.93201e-12
-7.28103e-10
8.83782e-06
-6.6828e-09
0.00035003
1.5331e-05
1.02214e-05
4.55887e-05
4.53253e-05
-1.10093e-06
6.47941e-05
-4.9361e-07
-2.92841e-05
6.76066e-09
9.73289e-07
-1.81633e-11
-1.97704e-08
-2.83938e-07
4.40263e-08
-3.59624e-11
4.70534e-05
-2.07444e-05
2.75373e-05
2.67314e-08
-2.69156e-10
4.95268e-06
-2.97622e-09
1.30588e-06
-2.76397e-10
1.87752e-05
1.5963e-07
-9.61257e-07
6.87889e-08
1.534e-05
-2.01026e-08
1.11923e-12
1.22777e-10
-2.30562e-05
-3.53529e-09
-3.05822e-12
-7.82752e-09
2.2962e-07
-3.54747e-10
-5.90039e-11
1.41801e-05
1.03332e-05
-3.18951e-10
2.79416e-10
3.36903e-08
-1.31819e-11
2.29378e-05
6.99674e-06
-5.84791e-11
3.85921e-05
6.07497e-11
-5.53706e-11
7.86251e-06
-1.32614e-10
-6.82953e-10
-6.89754e-09
-1.49521e-06
-0.000243729
-5.48939e-06
2.47291e-10
6.4033e-05
3.31669e-10
-5.33091e-10
2.31656e-07
3.06903e-05
6.42737e-09
-2.80565e-05
-1.60896e-07
8.41066e-08
1.29754e-08