/*--------------------------------*- C++ -*----------------------------------*\
| =========                 |                                                 |
| \\      /  F ield         | OpenFOAM: The Open Source CFD Toolbox           |
|  \\    /   O peration     | Version:  v2012                                 |
|   \\  /    A nd           | Website:  www.openfoam.com                      |
|    \\/     M anipulation  |                                                 |
\*---------------------------------------------------------------------------*/
FoamFile
{
    version     2.0;
    format      ascii;
    class       volScalarField;
    location    "300";
    object      epsilon;
}
// * * * * * * * * * * * * * * * * * * * * * * * * * * * * * * * * * * * * * //

dimensions      [0 2 -3 0 0 0 0];


internalField   nonuniform List<scalar> 
13726
(
9.04955e-07
0.0078153
1.57004e-06
1.06638e-06
5.5544e-06
8.60066e-07
9.44329e-07
9.74521e-07
5.76691e-06
2.08508e-06
5.7027e-06
5.30369e-07
6.71651e-07
0.0075384
1.05693e-06
8.75721e-07
5.06056e-06
1.31481e-06
0.012351
2.37328e-05
0.0121625
4.50431e-07
1.21758e-06
1.57756e-06
4.93738e-07
4.22191e-07
1.64754e-06
4.20831e-07
4.9731e-07
0.0101456
0.0166455
4.33051e-07
0.0102123
1.53314e-06
5.09609e-05
0.00648178
1.67467e-06
0.00741878
1.10436e-06
1.26915e-06
0.000132359
3.55081e-05
1.66638e-06
1.05094e-06
9.26617e-07
1.37694e-06
8.55185e-05
5.09998e-07
2.5417e-06
5.71504e-07
0.00454609
5.11621e-07
7.60831e-07
1.30904e-06
1.61266e-06
2.02197e-06
6.65968e-07
8.54002e-07
1.84349e-06
1.60299e-06
0.00351503
1.0448e-06
0.00675418
4.47407e-07
0.00978198
4.31589e-07
0.0115064
0.00981591
5.17934e-07
5.67258e-06
7.56678e-05
9.64569e-07
1.00049e-06
1.67159e-06
0.0120182
0.00390522
5.83659e-06
0.00662113
0.0114598
3.12783e-06
5.86396e-06
2.38365e-06
3.2135e-06
8.06861e-07
1.1033e-06
0.00624574
3.73189e-06
1.49644e-06
6.15073e-07
0.0116443
1.42502e-06
5.78093e-06
1.38538e-06
1.60044e-06
0.00341481
0.00967799
1.91182e-06
5.29436e-07
1.16327e-06
0.000896673
1.43533e-06
2.10021e-06
1.11538e-06
6.94014e-07
2.96992e-06
5.03847e-06
3.20116e-06
7.90244e-07
1.27426e-06
1.89552e-06
2.54681e-06
6.7841e-07
0.0168355
0.0059711
0.00518505
1.12998e-06
0.000201436
0.019574
1.12153e-06
1.57242e-06
0.0258233
9.7795e-07
1.54393e-06
0.012145
0.0159689
0.00717905
1.16019e-06
7.41964e-07
6.79777e-07
1.16499e-06
0.00348758
0.00887885
1.16461e-06
2.4856e-06
0.00463185
5.46372e-06
0.00875727
0.00013099
0.000960122
0.00252025
2.78695e-06
0.00475938
8.55112e-07
5.06927e-07
8.62403e-07
1.68585e-06
0.0112867
1.72342e-06
1.50385e-06
0.0117957
1.16592e-06
9.01804e-07
2.48455e-06
1.71738e-06
5.17041e-07
1.50122e-06
1.71963e-06
0.00014546
0.00327441
4.9365e-07
6.05259e-07
7.06523e-07
0.00661191
0.00836353
4.2372e-07
3.57506e-06
0.00246768
9.41515e-07
1.43291e-06
6.00923e-07
1.10031e-06
1.48514e-06
0.000276527
1.58939e-06
0.00716198
4.86297e-05
5.16376e-07
0.0161336
0.0160684
8.14884e-07
0.0137414
1.56019e-06
0.00710465
0.00195715
5.11164e-07
8.52842e-07
8.15319e-07
1.42708e-06
1.20938e-06
1.73068e-06
0.00584009
3.69311e-05
0.00941709
0.00911513
9.60757e-07
4.26912e-07
1.12068e-06
0.00491479
4.62434e-05
2.16802e-06
0.00924694
0.000139863
0.00872781
1.5043e-06
7.83811e-07
9.01694e-07
1.37246e-06
0.00352856
1.63184e-06
2.66185e-06
5.76819e-06
0.00364797
0.00961868
4.15431e-07
0.00727055
0.0115102
1.57573e-06
1.62857e-06
1.35128e-06
0.0114532
1.65808e-06
2.04346e-06
9.67276e-05
0.00660438
7.77179e-07
0.00531928
0.0122125
0.00742258
0.0102315
1.42535e-06
0.00458438
0.00817944
0.013239
0.00698168
1.65312e-06
1.57076e-06
0.00294491
0.0199349
0.000208765
0.0106665
6.88971e-07
1.26529e-06
7.97216e-07
0.0102438
0.000192834
0.00985068
1.85326e-06
1.63748e-06
5.20385e-07
4.28621e-06
0.016651
1.66262e-06
0.0107483
1.64742e-06
2.28308e-06
2.70209e-05
1.53891e-06
0.0139135
0.00805927
1.64115e-06
2.4907e-05
0.00281546
1.93196e-06
5.28431e-07
0.00435881
0.0174696
8.92761e-07
1.55681e-06
5.04651e-07
2.10818e-06
4.74816e-05
1.63524e-06
0.01759
1.48118e-06
0.00499683
0.00377377
0.0125548
0.000420896
1.60359e-06
4.37841e-07
0.00268573
1.59994e-06
0.00747249
1.62171e-06
0.00906631
8.69291e-07
0.0068224
0.000251643
1.65188e-06
4.32085e-07
0.00730358
1.62834e-06
4.15412e-07
0.00791204
0.00366687
1.68114e-06
5.25914e-06
9.11715e-07
0.00986017
6.33982e-07
0.000189403
0.00743668
3.06205e-06
1.33638e-06
6.59724e-07
0.00259443
0.0024025
0.0142175
0.00334807
1.81185e-06
0.0119791
1.47829e-05
0.0169158
0.015484
1.01852e-06
0.000118292
7.81444e-07
0.00639238
0.0107442
0.00391202
0.00879501
1.16713e-05
1.56848e-06
9.65684e-07
1.89726e-06
1.64365e-06
1.32779e-06
0.00266717
1.56056e-06
0.00655015
1.01569e-06
0.00839177
1.14834e-06
1.63302e-06
3.21648e-06
1.49336e-06
1.10514e-06
1.8078e-06
9.09025e-07
2.69113e-06
0.00049264
0.00945356
0.00756927
0.00682417
0.00277585
3.17984e-06
1.66301e-06
2.03599e-06
4.05636e-05
1.14017e-06
0.00466714
0.00943537
0.0113479
4.46134e-07
1.48942e-06
1.4309e-06
9.90018e-07
0.00273043
1.67469e-06
1.65686e-06
1.27002e-06
2.0273e-06
0.000970408
9.96865e-07
1.872e-06
0.0137685
0.0183352
1.20197e-06
9.40191e-07
9.91566e-07
1.29976e-05
6.60336e-07
4.44513e-07
1.34903e-06
0.000111857
9.42597e-07
4.87324e-07
0.0163564
1.91947e-06
3.19519e-06
7.79501e-07
7.35525e-07
1.15776e-06
0.00767584
0.0161908
0.0171134
0.0126599
2.0511e-06
1.08644e-06
1.56537e-06
8.90827e-07
1.51259e-06
1.43178e-06
9.74425e-07
8.37006e-07
1.60931e-06
0.0107964
0.00763019
1.91451e-06
1.66881e-06
8.8791e-07
1.17336e-06
1.47831e-06
2.5996e-06
1.61402e-06
2.05617e-06
1.60248e-06
1.17634e-06
0.0144438
0.000424908
0.00305566
1.51263e-06
0.00963498
0.0117768
3.64646e-05
1.37675e-06
0.00981707
0.00209968
0.00705938
0.00434022
0.0115647
8.01076e-05
4.17289e-07
3.28306e-06
0.00568422
7.1429e-07
0.00664141
1.14396e-06
1.48072e-06
2.76364e-06
0.0165795
0.0154468
0.0107642
0.0149774
1.75804e-06
5.77935e-07
1.01144e-06
7.16171e-07
1.70098e-06
3.40172e-06
1.07834e-06
0.00460213
5.75943e-07
0.009077
2.17557e-05
9.51642e-07
0.00435878
5.09152e-07
4.28545e-07
7.10725e-06
7.01692e-07
0.00465168
0.00434711
5.31337e-07
0.00598504
8.31675e-07
0.0109381
0.00550147
6.81414e-07
1.70607e-06
1.89285e-06
0.0102687
1.85149e-06
0.00473354
7.82945e-06
1.76447e-06
0.0108011
0.00599108
8.17305e-07
0.0165726
2.32721e-06
6.71468e-07
9.0077e-07
8.98683e-07
0.0131754
5.1015e-07
0.000122953
4.36681e-05
0.0036763
1.76195e-06
0.000126849
6.11706e-07
4.22525e-07
0.00370112
4.15732e-07
6.97212e-07
7.65653e-07
9.01408e-07
0.00723752
0.0134775
1.50372e-06
3.74454e-06
7.37293e-07
0.00797596
0.00777624
1.49271e-06
1.66409e-06
0.0104168
0.00738852
1.41171e-06
6.33013e-07
0.000140394
7.05504e-07
2.96838e-06
1.36763e-06
1.11738e-06
0.00372955
0.00252294
6.03926e-07
1.13982e-06
1.61631e-06
0.00646612
6.76426e-07
1.9768e-06
4.21278e-07
0.00446719
4.61547e-06
1.26182e-06
1.48584e-06
1.62146e-06
1.17267e-06
2.75738e-06
0.00519382
0.000164784
2.95467e-06
3.32686e-06
0.00629859
3.17915e-06
4.16572e-07
0.000103643
2.56743e-06
2.09871e-06
0.00533237
1.59959e-06
0.016464
1.14333e-06
4.87587e-07
0.00348594
1.91492e-06
1.6692e-06
0.00291467
6.50916e-07
6.07628e-07
1.59501e-06
6.67943e-06
0.00546273
1.89236e-06
9.58562e-07
3.27867e-05
1.45091e-06
1.27486e-06
0.000143007
9.34587e-07
0.0046351
1.62797e-06
1.22008e-06
7.90715e-07
0.00602389
0.0079589
0.00497793
0.000742497
1.12983e-06
0.00983547
1.38647e-06
0.0154141
1.75171e-05
1.74332e-06
1.19208e-06
0.00934552
2.30119e-06
0.0131273
5.14521e-07
6.01501e-07
0.0103379
1.37983e-06
0.00408
1.22447e-06
1.71518e-06
3.09667e-06
3.42085e-06
0.00919828
0.00738033
9.34432e-07
7.93132e-07
0.000471335
1.35385e-06
0.0127476
0.000126879
5.15128e-07
0.00433137
9.86493e-07
2.43247e-06
9.08687e-07
1.69335e-06
0.00376286
1.26637e-06
0.012936
1.51448e-06
4.00843e-05
0.00494114
1.45857e-06
1.43379e-06
1.11315e-06
9.43167e-07
8.33047e-07
0.00750547
0.0174513
0.000572707
1.44124e-06
0.000474734
0.00512634
0.013136
1.79705e-06
0.0026598
0.00475656
1.49363e-06
1.51053e-06
5.04505e-07
0.0107332
1.55545e-06
1.55167e-06
4.93854e-07
0.0099436
0.00981118
3.2335e-06
1.09762e-06
1.79777e-06
2.68457e-06
5.03733e-07
1.53902e-06
0.00573281
6.21984e-07
0.0111025
1.25283e-06
0.00693254
1.92961e-06
1.12234e-06
0.0104621
0.00816528
1.61053e-06
0.000370152
1.59897e-06
1.56591e-06
0.00284566
3.90988e-06
0.0125326
1.66844e-06
6.46434e-06
0.00363709
1.70321e-06
5.65402e-06
1.83232e-06
0.00944482
4.6114e-07
0.00054116
1.123e-06
1.56431e-06
1.41025e-06
0.00462129
4.60173e-07
1.46837e-06
9.09333e-07
0.000470345
0.000367698
2.09632e-06
6.00024e-07
7.95763e-07
0.00593952
0.00608079
7.60671e-07
0.0061419
5.60099e-06
0.0102956
0.00410358
5.85139e-06
2.49036e-06
0.000113942
6.65516e-07
1.24788e-06
0.0117077
1.47886e-06
1.11849e-06
2.22969e-06
6.84084e-05
1.29244e-06
5.51072e-07
1.40235e-06
1.48937e-06
0.016992
1.8449e-06
8.33701e-07
1.48232e-06
1.83125e-06
8.62665e-07
1.42043e-06
1.51666e-06
1.21038e-06
0.0176108
5.51264e-07
1.81829e-06
1.01862e-06
1.11597e-06
7.24101e-07
1.34205e-06
5.72603e-07
3.56812e-06
1.76987e-06
0.00796628
7.94833e-07
0.0103082
1.61713e-06
0.0116102
0.00612967
2.00566e-06
1.58436e-06
1.7381e-06
1.11246e-06
7.96318e-07
2.28756e-06
1.032e-06
7.97707e-07
0.017113
0.0174143
4.99458e-05
0.00633767
6.63067e-07
0.00899033
6.02937e-07
6.73812e-07
5.09232e-07
1.63455e-06
0.00893183
2.20243e-06
0.0147066
1.84894e-06
5.39445e-05
0.0149697
0.000125143
4.32656e-05
1.8176e-06
1.60614e-06
1.14169e-06
1.36005e-06
9.00214e-07
0.0133966
0.010711
2.5493e-06
1.22192e-06
8.731e-07
0.0164186
1.62026e-06
6.18107e-07
8.42287e-07
1.70484e-06
0.00681833
5.72864e-06
2.19505e-06
1.05105e-06
0.00260248
0.00405734
1.51638e-06
0.00266339
4.79496e-05
1.30169e-06
0.0139365
0.00829328
0.00906674
5.52623e-07
2.06499e-06
0.00593183
1.47107e-06
0.00336392
7.94499e-07
2.5668e-06
8.09183e-07
7.1014e-07
3.53067e-06
0.00637504
1.34648e-06
7.88372e-07
1.42832e-06
1.34443e-06
9.78371e-07
0.00694069
0.000273689
6.96479e-07
4.8377e-07
8.35306e-07
0.011421
6.0975e-07
0.000768315
0.0112659
0.0185695
0.00105638
0.00781491
0.0103308
0.0139763
1.4155e-06
1.1443e-06
0.0111974
6.43466e-07
0.0070532
0.0065752
0.00516862
5.48954e-07
1.33719e-06
1.46565e-06
0.000287133
4.32448e-07
0.00631274
0.00057175
0.000140114
0.00918921
7.15009e-06
0.00783096
8.17596e-07
0.0154634
1.5977e-06
0.00494605
1.46304e-06
4.0905e-06
8.76343e-07
1.89712e-05
1.65995e-06
2.7189e-06
1.49406e-06
1.13973e-06
5.34336e-07
0.0111751
6.77055e-07
1.412e-06
0.00775158
8.53893e-07
1.39654e-06
7.9804e-07
0.00985703
7.98813e-07
8.90155e-07
2.04369e-06
5.49461e-07
1.42651e-06
7.22987e-07
0.00732727
1.47217e-06
4.9145e-07
5.84366e-06
0.000927708
8.95528e-07
8.53221e-07
0.00886821
0.00841565
2.56438e-06
8.64834e-07
0.0107143
0.00970387
0.00294357
5.64993e-06
0.00692286
1.59411e-06
9.17937e-07
1.52171e-06
4.87639e-07
1.10955e-06
0.00262662
1.99619e-06
0.00370224
5.35919e-07
3.04637e-06
7.78362e-07
1.86538e-06
0.00199904
0.0041136
9.68728e-07
1.60566e-06
2.841e-06
6.14736e-07
7.11048e-07
5.3599e-07
0.0116572
0.00723097
1.62414e-06
7.21855e-07
1.49857e-06
8.62563e-07
0.00552482
1.45384e-06
1.13346e-06
0.00696901
1.79919e-06
3.72416e-06
1.34987e-06
0.020415
0.00027678
1.59137e-06
1.55098e-06
0.00254092
0.0001182
1.58486e-06
0.00289847
0.0058066
0.00827206
0.0100141
0.010363
0.00333538
2.64825e-06
8.64697e-05
5.21306e-07
6.97313e-07
0.0109737
7.96833e-07
0.00471462
1.15218e-06
0.00279937
0.00770392
1.67734e-06
0.00860235
0.00943918
0.00233725
1.56615e-06
9.41196e-07
6.61627e-07
3.76133e-06
0.00785972
6.05928e-07
0.011634
1.78723e-06
0.00322201
3.17882e-06
1.25958e-06
0.000252553
8.20111e-07
0.000220284
1.59113e-06
8.42951e-07
8.88482e-07
0.0090126
2.59678e-06
1.58242e-06
0.013625
1.37772e-06
0.000757743
1.46995e-06
0.000789755
0.0115975
0.010127
1.01394e-06
5.2346e-07
2.201e-06
1.14644e-06
0.011881
0.00504588
5.05932e-07
1.4863e-06
3.41147e-06
0.00527467
2.17586e-05
1.18609e-06
0.000783697
9.51671e-07
1.12987e-06
0.0102283
0.00927556
0.00611638
1.34825e-06
0.0181
2.28995e-06
0.00684292
3.58375e-06
0.00110931
0.00755935
1.81101e-06
0.000771528
0.00666392
0.0119498
0.00821962
1.11838e-06
0.0103806
3.34825e-06
2.04845e-06
9.86837e-07
9.49892e-07
0.000426716
9.76556e-07
0.0184104
0.00637323
0.00897566
0.00910786
0.0071736
0.0139004
0.0112122
0.00956232
5.60632e-07
0.000410273
6.95048e-07
0.00736268
0.00399252
4.94158e-07
0.00281259
7.13094e-07
5.83409e-07
1.44593e-06
1.45864e-06
0.0176047
0.00234906
1.12572e-06
1.10109e-06
0.000184458
0.00736046
1.79529e-06
3.26456e-06
0.000659106
1.54391e-06
1.69513e-06
5.59638e-07
0.00331486
9.41902e-07
1.19631e-06
0.000325771
1.69232e-06
0.0164483
0.00751156
1.52856e-06
0.0106236
1.67995e-06
0.0108826
0.00749272
0.00708291
1.56442e-06
0.000191379
1.56147e-06
0.00960364
8.93029e-07
1.03453e-05
8.75458e-07
6.65457e-07
0.00403739
1.36231e-06
1.22662e-06
0.000770603
1.90042e-06
6.06288e-07
0.00960485
9.88576e-07
8.44893e-07
0.000782763
0.0110849
1.23341e-06
0.00241933
1.17064e-06
0.0203598
1.45073e-06
1.45191e-06
1.18628e-06
5.24534e-07
1.28328e-06
0.000134514
0.00363937
6.03384e-07
0.00700848
1.81747e-06
0.00295485
6.78161e-07
5.25906e-07
4.78958e-06
1.89203e-05
9.72623e-07
1.57036e-06
0.00318358
1.16384e-06
3.73906e-06
1.61061e-06
0.00703241
0.000169599
2.14133e-06
3.09514e-06
0.0119136
4.18919e-07
6.02681e-07
3.89658e-05
0.0121808
2.13683e-06
0.00994988
1.54785e-06
0.0100336
0.00841458
7.20077e-07
1.22522e-06
0.00559351
3.30929e-06
1.6333e-06
0.000264278
1.80551e-06
1.6283e-06
2.35056e-06
1.54592e-06
1.91751e-05
2.354e-05
1.13519e-06
0.0190249
0.00327506
6.29173e-07
3.29647e-06
0.00325496
0.0069653
4.34225e-05
7.61806e-07
1.81006e-06
0.0162382
1.31244e-06
1.0543e-06
0.011855
1.17575e-06
0.00268137
9.96905e-07
7.87864e-07
0.00989599
1.20642e-05
0.0002553
2.79333e-06
1.67322e-06
6.8872e-07
0.0106342
0.000682317
1.25549e-06
5.02679e-06
0.00500854
6.46812e-07
1.22551e-06
1.59461e-06
1.72354e-06
0.0105134
8.47656e-07
5.3753e-07
2.25588e-06
7.56474e-07
0.00940832
0.0175454
0.0136801
3.22794e-06
4.49438e-07
1.30269e-06
0.00880031
5.86335e-06
0.00693663
2.16552e-06
1.92774e-06
1.66672e-06
1.64187e-06
1.4804e-06
3.48988e-05
0.0158361
1.48855e-06
0.00750102
0.0149875
4.88939e-07
0.00550239
0.00785487
0.00761766
0.000465613
4.18717e-07
0.000659302
2.00994e-05
0.00295159
8.38603e-07
1.83452e-06
0.0153846
1.44543e-06
1.36599e-06
0.0185339
2.57826e-06
0.00514784
0.00907552
2.71686e-06
0.00710747
0.0101246
9.48005e-07
0.00933659
0.000254892
1.10273e-06
1.10156e-06
0.00665777
1.50003e-06
1.65444e-06
5.56086e-07
1.4285e-06
0.0154196
8.74512e-07
4.31549e-06
0.000155547
5.3327e-05
1.17202e-06
1.63946e-06
0.01158
4.50641e-07
8.83311e-07
1.47552e-06
1.42882e-06
1.23405e-06
0.0065283
1.64879e-06
1.43024e-06
0.00360447
1.2179e-06
0.0145208
1.28325e-06
0.0170184
1.28338e-06
0.0118136
0.000887484
1.1436e-06
0.00359038
4.00192e-05
1.68793e-06
1.09346e-06
8.2358e-07
0.00709295
6.89886e-07
0.000266415
9.59957e-07
1.10695e-06
3.55781e-05
0.00794864
6.9002e-07
1.6649e-06
5.43355e-07
1.37033e-06
1.5365e-06
2.03895e-06
4.50897e-07
0.0146899
0.000795402
8.94208e-07
9.35954e-07
0.0155724
0.00841673
1.5651e-06
4.88121e-07
0.0158517
0.002584
0.0174298
2.00612e-06
1.55112e-06
0.00028119
2.12921e-06
0.00857268
0.0170501
8.9827e-07
1.2846e-06
0.00357566
3.16223e-06
8.74249e-07
0.0166194
0.00283244
0.0180771
5.31718e-07
1.95889e-06
1.72796e-06
1.0762e-06
1.57993e-06
0.000319134
2.01795e-06
6.75294e-07
0.00895236
1.45537e-06
5.30051e-07
2.04874e-06
0.00102546
9.41864e-07
0.0162583
1.40726e-06
1.46423e-06
1.47032e-06
1.57439e-06
7.69321e-07
0.0118943
0.0104836
9.87992e-07
0.00450161
7.58298e-07
1.07691e-06
0.00166852
0.0138622
5.12102e-07
0.0116883
1.20952e-06
6.10134e-07
1.25508e-06
0.00690749
0.00381662
4.85505e-07
0.00867819
0.0115973
0.00517758
2.11082e-06
0.0154677
0.00758237
1.75066e-06
0.000474096
8.50649e-07
1.42459e-06
1.41113e-06
0.0132148
0.00850962
0.00595456
0.000478366
6.969e-07
7.20775e-07
9.65951e-07
2.10631e-06
1.65718e-06
4.27089e-07
1.60865e-06
1.16841e-06
0.00389149
9.86759e-07
1.55531e-06
4.51178e-07
0.00282473
1.22348e-06
4.18537e-07
5.47324e-07
0.00506252
1.06441e-06
1.3162e-06
1.65274e-06
0.000151332
5.30037e-07
3.49173e-06
1.85243e-06
1.43953e-06
1.55728e-05
0.000408468
1.47536e-06
0.000194143
0.00903989
1.27378e-06
1.27068e-06
1.00593e-06
9.46399e-07
1.63649e-06
2.08245e-06
1.59392e-06
0.00745592
4.26191e-07
1.40269e-06
1.06246e-06
1.40714e-06
1.25949e-06
1.5591e-06
1.29975e-06
9.65255e-07
2.62817e-06
2.58017e-05
0.00304085
8.28441e-05
5.39459e-05
3.35474e-06
4.8405e-07
3.36164e-06
0.00624296
1.27749e-06
5.36935e-05
0.00203433
0.00700274
1.49115e-06
0.00399322
1.66093e-06
0.000689366
1.02729e-06
6.67166e-07
1.48134e-06
1.74974e-06
0.00281094
2.08517e-06
0.00771131
0.00685303
0.0179213
1.07008e-06
4.93746e-07
1.41203e-06
0.016538
8.86494e-07
8.83005e-07
0.00666681
1.09569e-06
0.00940148
1.30498e-06
3.20263e-06
6.14272e-07
5.37727e-07
0.00390667
6.69426e-07
0.00277732
0.0201772
3.46115e-05
1.01264e-06
1.73932e-06
0.0129842
0.00524651
0.00213639
1.05523e-06
3.41615e-06
0.000662864
0.0171337
0.0187907
9.81907e-07
1.47234e-06
6.73557e-07
9.47873e-07
1.63184e-06
2.59836e-06
4.83245e-07
1.57473e-06
0.0131474
0.00910945
0.000254589
2.5711e-06
3.16583e-05
7.14028e-07
6.83451e-07
1.65721e-05
1.65482e-06
3.399e-06
2.27634e-06
1.78198e-06
5.52292e-07
0.00211287
0.00942494
0.0052006
8.52869e-07
0.00991819
1.08787e-06
1.78727e-06
0.000569254
4.15497e-07
1.64848e-06
0.00373498
0.00167949
1.79922e-06
2.1956e-05
1.20157e-06
0.00991762
1.06092e-06
0.000412445
1.31446e-06
1.81187e-06
0.00929235
0.00684343
0.00740018
8.44048e-07
8.13322e-07
4.88558e-06
1.7753e-06
1.7484e-06
4.93295e-06
0.0068368
7.9753e-07
9.6125e-07
2.15257e-06
1.42117e-06
1.58182e-06
1.80111e-06
1.44978e-06
8.77987e-07
0.00498504
0.000145877
1.26036e-06
5.67063e-07
1.71504e-06
1.07097e-06
2.56529e-06
4.8378e-06
1.04153e-06
0.00297573
0.00376311
4.37373e-07
1.56751e-06
1.64683e-06
0.0133466
2.29012e-06
8.09803e-07
8.8238e-07
4.39517e-07
1.32367e-06
0.0157731
1.19376e-05
1.73752e-06
0.00881841
1.42873e-06
1.17726e-06
9.93257e-07
2.35475e-06
0.0108855
4.4699e-07
0.0147772
0.00673776
1.67591e-06
1.32952e-06
1.76347e-06
1.58198e-06
1.386e-06
0.014691
4.93902e-06
0.00316608
1.52698e-06
6.68869e-07
0.00708448
0.0108791
0.00493132
0.000729831
2.74924e-06
7.12812e-07
0.00228814
0.00877662
4.9159e-07
0.0120715
0.0117765
8.52149e-07
3.80435e-06
1.41307e-06
6.60216e-07
1.13273e-06
4.54024e-07
1.67626e-05
0.00458417
9.31157e-07
4.51665e-07
0.0137549
4.37014e-05
0.000384552
0.00694027
0.00927157
1.6036e-06
1.7844e-06
1.26883e-06
4.65248e-07
8.5258e-07
4.31273e-07
0.00699966
2.50636e-06
9.99295e-07
0.00571894
4.74387e-07
5.18429e-05
1.06583e-06
0.00537783
0.000251871
1.52858e-06
1.00154e-06
0.0194412
0.00731366
0.00648378
0.00775638
8.33104e-05
0.0180338
2.64423e-06
0.00038011
0.00820019
8.02854e-07
1.06378e-06
0.00362428
6.90275e-07
1.43799e-06
7.96544e-07
9.29228e-07
1.91033e-06
0.0105637
1.226e-06
9.11926e-07
2.27978e-06
1.64545e-06
0.0122885
0.000329438
1.0122e-06
0.00100779
2.99162e-06
0.00042874
1.02062e-06
0.00854553
2.0725e-06
0.0114485
0.014514
1.68168e-06
1.53655e-06
0.000255065
1.77658e-06
0.0120145
0.000431509
0.0117551
2.01411e-06
2.03463e-06
7.91079e-07
0.00571096
0.000356627
0.0111854
5.22308e-07
2.73019e-06
1.7498e-06
0.00827062
0.00238649
0.000443633
0.000395252
0.000132175
0.0137686
0.0104645
8.03343e-07
5.37599e-06
0.0129132
0.0143079
2.48407e-06
1.83851e-06
0.00700155
8.0344e-07
1.49784e-06
9.53206e-07
1.80183e-06
0.00300091
0.00031067
4.93125e-07
1.69512e-06
1.36141e-06
8.22581e-06
0.00975866
1.65158e-06
0.00354111
0.00310197
0.00363204
1.00112e-06
1.48129e-06
9.6811e-07
0.00387305
9.62836e-05
0.00906249
5.80959e-07
1.43275e-06
0.000545523
1.6691e-06
0.00829939
1.41254e-06
0.00806179
0.00730291
1.52017e-06
2.01971e-06
0.00783077
1.10919e-06
1.59417e-06
0.00361948
2.32919e-05
1.10598e-06
0.0098242
5.46159e-06
0.00676789
0.00574021
0.00493828
2.57096e-06
0.00381644
0.000468045
0.00734829
0.00438989
0.0101041
1.69964e-06
2.98759e-06
7.99981e-07
7.48782e-07
0.000935671
1.36831e-06
0.00275454
1.56334e-06
3.77116e-06
0.000213582
1.01632e-06
1.11611e-06
1.58918e-06
0.0142297
9.19312e-07
0.010271
6.34009e-07
0.00976681
0.00800406
7.14315e-07
0.00226765
0.00986789
0.000311926
1.08914e-06
5.95403e-07
1.1978e-06
0.0104846
1.77606e-06
5.50056e-06
1.61909e-06
0.000174926
1.98047e-06
0.00704751
0.00521008
0.000441369
0.00187032
0.00219556
2.02948e-06
1.55473e-06
0.00475769
1.7008e-06
0.000897322
1.89181e-06
0.00251118
1.55704e-06
8.81833e-07
0.00868961
9.4079e-07
4.06388e-06
0.00733633
0.0171755
1.62053e-06
0.0144192
1.65849e-06
0.00944134
4.06399e-05
8.29585e-07
1.58464e-06
8.81795e-07
0.0141823
0.0113679
0.00944657
0.00351522
7.83787e-07
2.01339e-06
0.0166251
7.19845e-07
0.0088995
8.65836e-07
0.0159589
1.94069e-06
3.03932e-06
8.63865e-07
0.00467929
0.000430025
2.03462e-06
1.5524e-06
1.47858e-06
0.00381618
1.4938e-06
1.48213e-06
3.07385e-06
0.00226974
0.00231851
9.76553e-07
7.68092e-07
2.30745e-06
0.015787
2.83958e-06
0.00664595
1.94543e-06
2.15064e-06
0.0150366
0.0142639
1.82907e-06
0.0069522
1.17421e-06
0.0112838
0.00685198
0.00712964
8.8523e-07
5.36223e-06
0.00217852
9.93863e-07
0.00930729
1.55852e-06
7.14696e-07
1.64856e-06
1.57767e-06
8.85994e-06
0.00315986
1.14996e-06
1.42946e-06
0.007029
1.06863e-06
8.6415e-07
9.38234e-07
0.00848798
5.76192e-07
1.63108e-06
1.00835e-06
8.81332e-07
0.0075393
1.89537e-06
0.0099562
5.93828e-07
0.00141545
0.00795034
1.64105e-06
5.17997e-07
0.0112201
1.04663e-06
1.10542e-06
1.32896e-05
0.00222189
2.3169e-06
0.00514136
1.0709e-06
0.00321462
1.22807e-06
1.5953e-06
1.69587e-06
0.00288478
5.16561e-07
0.00199291
0.00786576
0.0137839
1.55416e-05
0.00292417
0.00222581
0.00487586
0.00272151
0.00696365
1.35357e-06
1.56613e-06
0.0106354
1.44332e-06
0.00520466
0.000218846
1.68971e-06
0.0104114
0.0140133
1.66805e-06
5.08675e-07
0.00763509
0.00619492
5.39769e-07
0.0119747
1.55436e-06
6.57411e-07
0.000870032
0.0152354
8.71534e-07
2.05934e-06
1.56541e-06
0.0103682
1.49824e-06
0.0043527
0.000350149
1.79954e-06
5.10086e-07
1.78189e-06
0.0100364
5.8731e-07
9.50252e-07
0.00360234
5.73917e-07
1.7507e-06
0.0148281
9.51328e-07
0.00860048
1.38928e-06
1.47572e-06
0.00322861
1.62704e-06
0.00214399
0.00720869
0.01165
1.43852e-06
0.00658237
0.0106156
1.37599e-06
6.61762e-07
0.000134891
1.77766e-06
1.34649e-06
3.89922e-06
0.00682618
1.35995e-06
0.0141402
0.00663058
0.0096135
0.00907728
1.54799e-06
1.14658e-06
1.13755e-06
5.54529e-07
0.00535656
1.5474e-06
0.00439579
1.09931e-06
0.00706475
8.54127e-07
8.87538e-06
0.000378622
1.64344e-06
0.00170253
2.7123e-06
2.21572e-06
0.00678429
0.00820902
1.50652e-06
1.06906e-06
0.00389553
1.55551e-06
2.54819e-06
0.00804089
0.016232
0.0144196
0.0043452
0.00402152
1.98026e-06
0.0194685
0.0147863
0.0154149
1.35541e-06
0.000242208
1.44793e-06
1.06768e-06
0.00213477
0.00873007
0.00721991
6.22567e-07
6.35425e-07
1.78733e-06
5.89416e-07
9.55875e-07
1.73022e-06
9.22272e-07
4.42005e-07
8.36011e-07
0.0111789
0.0139492
0.00712053
1.47673e-06
0.00666538
0.0102304
1.85063e-06
7.86527e-05
4.54778e-07
1.29819e-06
1.14771e-06
3.76305e-06
0.00450812
2.39732e-06
9.02571e-07
0.00673487
1.36972e-06
4.95391e-07
0.00506901
1.58558e-06
0.00208673
1.21327e-06
0.0106552
0.00327451
0.0072409
1.4759e-06
1.43936e-06
7.9538e-07
1.75712e-06
6.93261e-07
1.38104e-06
0.013854
1.81682e-06
0.00578831
1.18584e-05
4.59898e-06
3.3487e-06
0.00710812
0.00674179
7.51183e-07
1.20792e-06
1.68674e-06
5.87181e-05
0.00667152
1.61271e-06
0.0069243
1.03667e-06
6.8195e-07
1.75388e-05
0.0140379
6.35054e-07
2.18626e-06
1.62224e-06
1.57699e-06
6.11738e-07
7.85402e-07
0.00304934
1.62738e-06
1.47604e-06
1.99957e-06
0.00057634
1.09537e-06
0.00473225
0.0146451
1.67745e-06
3.25734e-06
7.23555e-07
1.77536e-06
2.07081e-06
1.42429e-06
1.37931e-06
0.0111718
0.0089292
0.00777881
0.0198516
1.39598e-06
1.46347e-06
3.3733e-06
0.00803417
0.00549069
0.00679704
5.6017e-07
0.000385425
0.0076139
0.00906906
0.0114568
1.00495e-06
1.41185e-06
0.00842455
0.000475161
1.26001e-06
8.84827e-07
1.51444e-06
0.0146317
5.45992e-07
1.51421e-06
0.0143683
2.3274e-06
1.60195e-06
0.00734435
2.02237e-06
1.82264e-06
2.02567e-06
0.00649479
0.00821103
0.0106188
0.0158226
0.00486579
0.00758889
0.01759
6.48515e-07
0.00483399
9.24698e-07
0.0135102
0.0100765
0.00770194
0.0068795
0.000586536
2.25549e-06
0.00512371
0.00395108
6.02959e-07
1.36983e-05
0.0132752
0.0071513
0.000485228
0.0120169
0.000544285
2.07434e-06
2.15682e-06
6.33495e-07
4.99501e-07
2.20197e-06
0.00647232
1.67063e-06
0.0106039
1.07269e-06
6.63685e-06
1.24121e-06
3.04579e-06
1.38647e-06
0.00391486
0.0186009
1.81039e-06
0.00706684
8.68124e-06
0.0075368
0.00207873
0.0166317
1.39627e-06
1.06003e-06
1.89533e-06
0.0180705
2.93334e-06
0.00689027
1.7195e-06
9.953e-07
9.38638e-06
0.0130598
1.84895e-06
7.7413e-07
0.0150166
1.80184e-06
0.00455381
0.000252248
1.34961e-06
0.000551814
0.012035
7.7668e-07
0.0121002
0.00760823
0.00776822
0.0066064
2.02103e-06
0.0189934
2.23056e-06
1.81493e-06
4.64398e-06
6.25505e-07
9.74453e-06
0.00738155
4.70376e-06
6.49987e-06
0.00667161
3.56735e-06
8.0452e-07
2.10202e-06
5.9695e-06
1.13112e-06
0.00729908
9.84711e-07
4.03188e-06
0.0109984
0.00767075
0.00792092
0.00248607
0.0158421
1.13582e-06
5.13332e-06
0.0115882
0.0134867
7.8386e-07
5.06647e-07
0.0070067
5.02205e-07
8.55265e-07
4.33572e-06
2.35897e-06
0.0201191
8.18652e-07
0.00577914
6.70445e-06
0.00437204
4.40186e-06
1.68423e-06
3.23985e-06
9.27786e-07
1.463e-06
0.00873405
1.44709e-06
0.0134361
0.00673647
9.59352e-07
1.53675e-06
0.0050648
5.19246e-06
2.9355e-06
6.7819e-06
2.14835e-06
0.00762453
4.54857e-06
0.00911296
0.00719366
0.00313126
0.0078768
0.0100833
0.00110752
0.00726561
0.00653339
1.68666e-06
1.59863e-06
4.28117e-06
0.0111778
4.40301e-06
0.0138535
0.00662049
1.61422e-06
1.70801e-06
0.000138935
0.0027451
0.00495299
8.99811e-05
0.0178278
1.74612e-06
1.57436e-06
1.54329e-06
0.000729122
2.67297e-06
0.00853843
1.123e-06
0.0162842
0.00972824
9.36425e-07
1.53613e-06
0.000225115
3.86973e-06
0.00679766
1.50796e-06
1.72691e-06
4.97878e-07
1.77539e-06
7.75219e-07
0.00764758
1.14436e-06
0.00402304
1.70392e-06
0.00814908
5.51133e-07
5.62163e-06
1.71579e-06
3.71375e-06
1.29264e-06
0.0062426
2.66136e-06
6.32302e-05
1.81565e-05
0.000324327
0.0186549
4.59323e-06
0.0146226
0.0096084
0.0130227
0.00247335
1.02883e-05
7.14377e-07
9.633e-07
6.47362e-06
2.71791e-06
1.14597e-06
0.000113646
0.0121311
3.73269e-06
0.0100044
0.000272917
7.13758e-07
1.84062e-06
0.00863579
1.7978e-06
0.0194407
0.00404907
9.9533e-07
0.0079662
0.00635278
2.26e-06
5.47191e-06
1.41771e-05
0.00693709
1.57176e-06
0.00742355
0.00807456
1.11341e-06
0.00773139
0.00305885
4.26209e-06
0.0128998
1.29005e-06
0.00633996
0.000266132
4.65819e-06
0.00502275
1.47779e-06
5.51312e-07
3.31493e-06
9.11785e-06
0.00614295
0.000591712
0.00726847
9.67064e-07
5.71124e-07
0.00883747
0.00511231
0.0160784
2.22775e-06
0.00556002
1.8022e-06
4.73531e-07
0.0137197
7.5125e-06
0.0133546
3.0388e-06
1.82403e-06
1.81926e-06
0.00938885
4.6386e-06
0.00482352
0.00656575
0.00462842
0.0148389
0.0144643
5.53137e-05
0.00656954
8.78976e-05
0.00959134
2.78342e-06
1.41916e-05
7.22499e-07
1.7515e-06
1.30226e-05
4.61077e-06
8.13942e-07
0.0182442
0.0205221
0.0166542
1.79353e-05
1.78698e-06
0.00381421
1.17931e-05
0.00760183
1.75004e-06
0.00754917
4.7447e-05
1.69594e-05
5.64302e-06
0.00771413
3.36307e-06
5.28864e-07
1.66007e-06
0.00794565
2.27408e-06
6.49013e-07
3.01325e-06
2.18765e-05
1.61838e-06
1.56732e-06
0.00765263
0.0100427
1.86673e-06
1.80024e-06
3.36875e-06
1.19642e-06
0.0109518
0.00717942
1.17945e-06
0.0190586
5.02263e-07
1.61143e-06
0.00421536
1.78008e-06
1.81342e-06
2.33592e-06
0.00193202
0.00616195
0.00970712
1.63499e-06
0.0180953
1.59517e-06
1.76956e-06
9.52647e-06
0.00799037
2.3632e-06
0.00882358
0.000382995
0.000434793
2.89127e-06
0.00763489
0.00564189
0.000273329
2.23451e-06
0.0176482
3.2386e-06
1.70244e-06
7.16602e-06
2.54443e-06
4.93132e-07
3.12093e-06
3.20798e-06
1.2003e-06
2.16434e-06
2.72029e-06
1.80986e-06
4.91436e-06
6.9656e-07
7.97107e-07
0.000197815
1.09848e-06
2.93822e-06
0.000614112
1.58564e-06
8.02195e-07
1.84607e-06
0.0108642
0.0137849
0.00211771
2.12753e-06
1.82944e-06
0.00623392
1.44597e-06
0.00451773
3.25852e-06
0.000452164
1.29692e-05
0.0190313
1.77605e-06
0.000677955
8.55121e-07
1.47315e-06
0.008296
0.00810037
0.0185192
1.77553e-06
0.0152932
0.00858126
0.0145894
4.87315e-06
2.57404e-06
1.14863e-06
0.00949108
6.50144e-05
1.86231e-06
6.78663e-07
2.5077e-05
0.0142418
5.87983e-07
0.0046165
2.37762e-06
1.45901e-06
1.64307e-06
1.54645e-06
0.0103967
0.0072746
0.00795561
1.31932e-06
1.14114e-06
2.70087e-06
1.14464e-06
0.0124509
5.68295e-07
0.0196215
2.25342e-06
0.0127817
2.58055e-06
0.00750387
0.00821362
0.00593823
0.00564573
0.0170626
7.93793e-07
0.000546073
1.73741e-06
7.17564e-07
0.00656438
2.02045e-06
7.20256e-07
8.09983e-07
1.63953e-06
0.000689541
0.00253966
1.59851e-06
1.5864e-06
1.74318e-06
2.5572e-06
1.57594e-06
0.00817565
0.00212652
1.52873e-06
1.76419e-06
0.00534226
0.00707279
2.59557e-06
0.00992231
0.00730479
0.00059459
0.00574188
1.76022e-06
1.50843e-06
0.0103489
1.41291e-06
1.48481e-06
0.0107517
6.53653e-07
2.45274e-06
1.94892e-06
1.37192e-06
0.019593
1.7974e-06
2.05006e-06
1.06231e-06
7.13414e-07
1.78927e-06
0.00222897
5.92974e-07
1.91616e-06
1.80791e-06
0.00783761
6.66054e-07
1.72696e-06
2.96444e-06
1.43454e-06
2.28313e-06
0.014718
0.0114673
1.33072e-06
1.66811e-06
1.62051e-06
0.00855843
0.0149798
0.00410165
1.31254e-06
1.59581e-06
8.74084e-07
0.0050683
1.3193e-06
5.40047e-06
2.02674e-06
0.000206349
0.0204669
3.08092e-06
2.00078e-06
4.03971e-06
0.000692826
0.00519642
3.55927e-05
1.48366e-06
1.10866e-06
1.99016e-06
0.00376575
0.000215504
1.5322e-06
0.00551708
0.0021073
1.59848e-06
0.00208893
6.20471e-07
0.0208014
0.00576927
8.749e-07
0.0155813
0.0149331
1.56829e-06
8.84996e-06
1.57395e-06
0.000526355
0.00282105
1.69979e-06
7.14879e-07
0.0106298
6.38342e-07
0.00187656
6.89514e-05
0.014683
0.0108201
0.0026516
1.52685e-06
1.77945e-06
0.00998489
7.14064e-07
9.62522e-06
0.00980242
0.00187097
6.75294e-07
1.41404e-06
1.74766e-06
1.39037e-06
4.62847e-06
0.0117681
1.57823e-06
1.36388e-06
0.00808602