/*--------------------------------*- C++ -*----------------------------------*\
| =========                 |                                                 |
| \\      /  F ield         | OpenFOAM: The Open Source CFD Toolbox           |
|  \\    /   O peration     | Version:  v2012                                 |
|   \\  /    A nd           | Website:  www.openfoam.com                      |
|    \\/     M anipulation  |                                                 |
\*---------------------------------------------------------------------------*/
FoamFile
{
    version     2.0;
    format      ascii;
    class       volScalarField;
    location    "300";
    object      epsilon_0;
}
// * * * * * * * * * * * * * * * * * * * * * * * * * * * * * * * * * * * * * //

dimensions      [0 2 -3 0 0 0 0];


internalField   nonuniform List<scalar> 
13726
(
9.04954e-07
0.00781535
1.57003e-06
1.06638e-06
5.55308e-06
8.60065e-07
9.44329e-07
9.74521e-07
5.7678e-06
2.08509e-06
5.70442e-06
5.30369e-07
6.71652e-07
0.00753837
1.05693e-06
8.75721e-07
5.05958e-06
1.31481e-06
0.0123504
2.37801e-05
0.0121654
4.50431e-07
1.21758e-06
1.57756e-06
4.93738e-07
4.22192e-07
1.64754e-06
4.20831e-07
4.9731e-07
0.0101446
0.0166459
4.33053e-07
0.010212
1.53314e-06
5.0932e-05
0.00648196
1.67468e-06
0.00741882
1.10436e-06
1.26915e-06
0.000132438
3.54842e-05
1.66638e-06
1.05094e-06
9.26619e-07
1.37694e-06
8.55312e-05
5.09998e-07
2.54184e-06
5.71504e-07
0.00454626
5.11621e-07
7.60759e-07
1.30904e-06
1.61266e-06
2.02197e-06
6.65954e-07
8.5391e-07
1.84351e-06
1.603e-06
0.00351516
1.0448e-06
0.00675453
4.47408e-07
0.0097818
4.3159e-07
0.01151
0.00981558
5.17934e-07
5.67184e-06
7.56779e-05
9.64568e-07
1.00049e-06
1.6716e-06
0.0120177
0.00390511
5.83586e-06
0.006621
0.0114593
3.12782e-06
5.87013e-06
2.38378e-06
3.21364e-06
8.06861e-07
1.1033e-06
0.00624587
3.73181e-06
1.49644e-06
6.15073e-07
0.0116435
1.42502e-06
5.78142e-06
1.38538e-06
1.60044e-06
0.00341482
0.00967773
1.91182e-06
5.29436e-07
1.16326e-06
0.000896664
1.43533e-06
2.10023e-06
1.11526e-06
6.94014e-07
2.97e-06
5.03719e-06
3.20127e-06
7.90244e-07
1.27426e-06
1.89551e-06
2.54677e-06
6.7841e-07
0.0168344
0.00597099
0.00518495
1.12998e-06
0.00020148
0.0195732
1.12142e-06
1.57242e-06
0.0258212
9.77949e-07
1.54393e-06
0.0121445
0.015968
0.00717896
1.16018e-06
7.41948e-07
6.79777e-07
1.16499e-06
0.00348764
0.00888044
1.16462e-06
2.48576e-06
0.00463184
5.46017e-06
0.0087572
0.000130972
0.000960079
0.00252037
2.78712e-06
0.00475937
8.55111e-07
5.06927e-07
8.62402e-07
1.68585e-06
0.0112861
1.72342e-06
1.50385e-06
0.0117952
1.16592e-06
9.01804e-07
2.48471e-06
1.71738e-06
5.17041e-07
1.50122e-06
1.71964e-06
0.000145397
0.00327443
4.9365e-07
6.05259e-07
7.06524e-07
0.00661219
0.00836343
4.2372e-07
3.57543e-06
0.00246773
9.41515e-07
1.43291e-06
6.00923e-07
1.10038e-06
1.48514e-06
0.000276451
1.5894e-06
0.00716194
4.86267e-05
5.16376e-07
0.0161345
0.0160676
8.14884e-07
0.0137411
1.56019e-06
0.00710456
0.00195719
5.11164e-07
8.52842e-07
8.15319e-07
1.42707e-06
1.20938e-06
1.73068e-06
0.00583996
3.6934e-05
0.0094162
0.00911433
9.60757e-07
4.26913e-07
1.12068e-06
0.00491538
4.62482e-05
2.16802e-06
0.0092475
0.000139844
0.00872733
1.50431e-06
7.83811e-07
9.01693e-07
1.37246e-06
0.00352863
1.63185e-06
2.66207e-06
5.76604e-06
0.00364798
0.00961805
4.15431e-07
0.00727049
0.0115098
1.57573e-06
1.62857e-06
1.35128e-06
0.0114533
1.65808e-06
2.04344e-06
9.67299e-05
0.00660458
7.77178e-07
0.00531989
0.0122132
0.00742265
0.0102309
1.42535e-06
0.00458444
0.00818001
0.0132388
0.00698157
1.65313e-06
1.57076e-06
0.00294494
0.0199344
0.000208787
0.0106671
6.88971e-07
1.26529e-06
7.97217e-07
0.0102435
0.000192853
0.00985094
1.85328e-06
1.63748e-06
5.20385e-07
4.2874e-06
0.0166499
1.66262e-06
0.0107482
1.64742e-06
2.28303e-06
2.70039e-05
1.53891e-06
0.0139133
0.00805918
1.64115e-06
2.492e-05
0.00281548
1.93198e-06
5.28431e-07
0.00435887
0.0174689
8.9276e-07
1.55681e-06
5.04651e-07
2.10821e-06
4.74907e-05
1.63524e-06
0.0175891
1.48118e-06
0.0049969
0.00377383
0.0125542
0.000421024
1.6036e-06
4.37843e-07
0.00268596
1.59994e-06
0.00747279
1.62172e-06
0.00906602
8.69291e-07
0.00682255
0.000251348
1.65188e-06
4.32086e-07
0.00730349
1.62834e-06
4.15412e-07
0.00791197
0.00366695
1.68115e-06
5.25418e-06
9.11715e-07
0.00986154
6.33982e-07
0.000189594
0.00743691
3.06192e-06
1.33638e-06
6.59727e-07
0.00259447
0.00240206
0.0142171
0.00334822
1.81185e-06
0.0119801
1.4844e-05
0.016916
0.0154827
1.01852e-06
0.000118317
7.81444e-07
0.00639257
0.0107448
0.0039121
0.00879786
1.16682e-05
1.56848e-06
9.65687e-07
1.90052e-06
1.64365e-06
1.32779e-06
0.00266742
1.56056e-06
0.00655049
1.01559e-06
0.00839194
1.14834e-06
1.63302e-06
3.21632e-06
1.49336e-06
1.10514e-06
1.80782e-06
9.09024e-07
2.69102e-06
0.000492333
0.00945324
0.00756932
0.00682429
0.00277594
3.17981e-06
1.663e-06
2.036e-06
4.05682e-05
1.14017e-06
0.00466712
0.00943506
0.0113475
4.4614e-07
1.48942e-06
1.4309e-06
9.90019e-07
0.00272987
1.67469e-06
1.65685e-06
1.27003e-06
2.02729e-06
0.000970363
9.96866e-07
1.87202e-06
0.0137682
0.0183343
1.20197e-06
9.40191e-07
9.91565e-07
1.29914e-05
6.60337e-07
4.44519e-07
1.34903e-06
0.000111959
9.42597e-07
4.87324e-07
0.0163579
1.91948e-06
3.19515e-06
7.79501e-07
7.35525e-07
1.15776e-06
0.00767578
0.0161917
0.0171126
0.0126598
2.05109e-06
1.08644e-06
1.56537e-06
8.90827e-07
1.51259e-06
1.43177e-06
9.74424e-07
8.37006e-07
1.60931e-06
0.0107966
0.00763013
1.91451e-06
1.66881e-06
8.8791e-07
1.17336e-06
1.47831e-06
2.59952e-06
1.61403e-06
2.05615e-06
1.60248e-06
1.17634e-06
0.0144437
0.000424901
0.00305567
1.51263e-06
0.00963765
0.0117784
3.65554e-05
1.37675e-06
0.00981767
0.0020997
0.00705941
0.0043402
0.0115636
8.0127e-05
4.17289e-07
3.28303e-06
0.00568438
7.1429e-07
0.00664171
1.14396e-06
1.48073e-06
2.76351e-06
0.0165787
0.015446
0.0107638
0.0149766
1.75804e-06
5.77935e-07
1.01144e-06
7.16171e-07
1.70099e-06
3.4016e-06
1.07833e-06
0.00460217
5.75943e-07
0.00907886
2.1743e-05
9.51642e-07
0.00435889
5.09151e-07
4.28545e-07
7.122e-06
7.01692e-07
0.00465164
0.00434702
5.31337e-07
0.00598507
8.31675e-07
0.0109384
0.00550151
6.81413e-07
1.70608e-06
1.89286e-06
0.0102688
1.8515e-06
0.00473372
7.82972e-06
1.76447e-06
0.0108013
0.0059912
8.17304e-07
0.0165717
2.32734e-06
6.71468e-07
9.00769e-07
8.98682e-07
0.0131748
5.1015e-07
0.000122956
4.36108e-05
0.00367619
1.76193e-06
0.000126913
6.11706e-07
4.22526e-07
0.00370119
4.15732e-07
6.97213e-07
7.65653e-07
9.01407e-07
0.00723772
0.0134769
1.50372e-06
3.74447e-06
7.37272e-07
0.00797608
0.0077762
1.49271e-06
1.66409e-06
0.0104167
0.00738848
1.41171e-06
6.33013e-07
0.000140374
7.05492e-07
2.9683e-06
1.36763e-06
1.11738e-06
0.0037296
0.00252297
6.03926e-07
1.13982e-06
1.61631e-06
0.00646639
6.76426e-07
1.97681e-06
4.21279e-07
0.0044678
4.61685e-06
1.26181e-06
1.48584e-06
1.62146e-06
1.17267e-06
2.75764e-06
0.00519388
0.000164813
2.95486e-06
3.32675e-06
0.00629891
3.17907e-06
4.16572e-07
0.000103566
2.56741e-06
2.09872e-06
0.00533226
1.59958e-06
0.0164659
1.14333e-06
4.87621e-07
0.00348584
1.91494e-06
1.6692e-06
0.00291471
6.50916e-07
6.07627e-07
1.59501e-06
6.67616e-06
0.00546281
1.89237e-06
9.58562e-07
3.27863e-05
1.45091e-06
1.27487e-06
0.000143005
9.34587e-07
0.00463518
1.62797e-06
1.22009e-06
7.90715e-07
0.00602404
0.00796049
0.00497806
0.000742506
1.12983e-06
0.00983564
1.38647e-06
0.015414
1.75228e-05
1.74333e-06
1.19208e-06
0.00934595
2.30119e-06
0.0131271
5.14521e-07
6.01501e-07
0.0103385
1.37983e-06
0.00408009
1.22448e-06
1.71519e-06
3.09666e-06
3.41816e-06
0.00919808
0.00738009
9.34432e-07
7.93132e-07
0.000471335
1.35385e-06
0.012747
0.000126921
5.15128e-07
0.00433106
9.86493e-07
2.43245e-06
9.08687e-07
1.69336e-06
0.00376295
1.26637e-06
0.0129362
1.51448e-06
4.08692e-05
0.00494106
1.45857e-06
1.43379e-06
1.11315e-06
9.43167e-07
8.33047e-07
0.0075058
0.0174505
0.000572739
1.44124e-06
0.000474725
0.0051262
0.0131354
1.79706e-06
0.00266017
0.00475659
1.49363e-06
1.51052e-06
5.04505e-07
0.0107334
1.55545e-06
1.55167e-06
4.93896e-07
0.00994394
0.00981162
3.23337e-06
1.09762e-06
1.79777e-06
2.6847e-06
5.03733e-07
1.53902e-06
0.00573293
6.21983e-07
0.0111022
1.25283e-06
0.00693256
1.92962e-06
1.12234e-06
0.0104611
0.00816551
1.61052e-06
0.000370136
1.59897e-06
1.56592e-06
0.00284571
3.91063e-06
0.0125325
1.66844e-06
6.45487e-06
0.00363717
1.70321e-06
5.6536e-06
1.83234e-06
0.00944539
4.6114e-07
0.000541262
1.123e-06
1.56431e-06
1.41025e-06
0.00462102
4.60173e-07
1.46837e-06
9.09332e-07
0.000470346
0.000367708
2.09603e-06
6.00024e-07
7.95762e-07
0.00593943
0.0060807
7.6067e-07
0.00614208
5.60184e-06
0.0102959
0.00410347
5.85043e-06
2.49045e-06
0.000113991
6.65516e-07
1.24788e-06
0.0117076
1.47886e-06
1.1185e-06
2.22953e-06
6.84433e-05
1.29244e-06
5.51072e-07
1.40235e-06
1.48937e-06
0.0169934
1.8449e-06
8.33701e-07
1.48232e-06
1.83125e-06
8.62665e-07
1.42043e-06
1.51666e-06
1.21038e-06
0.0176097
5.51264e-07
1.81831e-06
1.01974e-06
1.11597e-06
7.24101e-07
1.34204e-06
5.72603e-07
3.56774e-06
1.76988e-06
0.00796667
7.94833e-07
0.0103078
1.61713e-06
0.0116098
0.00612971
2.00565e-06
1.58436e-06
1.7381e-06
1.11246e-06
7.96318e-07
2.28446e-06
1.03206e-06
7.97707e-07
0.0171119
0.0174136
4.99011e-05
0.00633781
6.63067e-07
0.00898964
6.02937e-07
6.73812e-07
5.09232e-07
1.63455e-06
0.00893114
2.20243e-06
0.0147081
1.84896e-06
5.41022e-05
0.0149695
0.00012513
4.32895e-05
1.8176e-06
1.60615e-06
1.14169e-06
1.36005e-06
9.00139e-07
0.013396
0.0107114
2.54948e-06
1.22191e-06
8.731e-07
0.0164175
1.62027e-06
6.18107e-07
8.42287e-07
1.70485e-06
0.00681847
5.72616e-06
2.19501e-06
1.05105e-06
0.0026027
0.00405739
1.51637e-06
0.00266342
4.79191e-05
1.30169e-06
0.0139386
0.00829318
0.00906661
5.52623e-07
2.06528e-06
0.00593199
1.47107e-06
0.00336393
7.94498e-07
2.5669e-06
8.0915e-07
7.1014e-07
3.53045e-06
0.00637534
1.34648e-06
7.88372e-07
1.42832e-06
1.34457e-06
9.78371e-07
0.00694125
0.00027374
6.96479e-07
4.8377e-07
8.35306e-07
0.0114228
6.0975e-07
0.000768229
0.011267
0.0185685
0.00105633
0.00781501
0.0103314
0.0139757
1.4155e-06
1.1443e-06
0.0111961
6.43466e-07
0.00705344
0.00657552
0.00516929
5.48954e-07
1.33719e-06
1.46566e-06
0.000286757
4.3245e-07
0.00631301
0.000572077
0.000140095
0.00918966
7.15683e-06
0.00783088
8.17597e-07
0.0154626
1.5977e-06
0.00494616
1.46304e-06
4.08993e-06
8.76343e-07
1.89789e-05
1.65996e-06
2.71878e-06
1.49406e-06
1.13973e-06
5.34337e-07
0.0111764
6.77055e-07
1.412e-06
0.00775129
8.53892e-07
1.39654e-06
7.9804e-07
0.00985642
7.98813e-07
8.90155e-07
2.04366e-06
5.49461e-07
1.42651e-06
7.22988e-07
0.00732782
1.47217e-06
4.9145e-07
5.84122e-06
0.000927678
8.95527e-07
8.5322e-07
0.00886606
0.00841641
2.5643e-06
8.64834e-07
0.010714
0.00970366
0.00294359
5.65112e-06
0.00692291
1.59411e-06
9.17947e-07
1.52173e-06
4.87639e-07
1.10955e-06
0.00262665
1.99619e-06
0.00370213
5.35919e-07
3.04659e-06
7.78361e-07
1.86538e-06
0.00199908
0.00411361
9.68728e-07
1.60566e-06
2.84096e-06
6.14735e-07
7.11047e-07
5.3599e-07
0.0116568
0.00723247
1.62414e-06
7.21855e-07
1.49857e-06
8.62563e-07
0.00552499
1.45384e-06
1.13346e-06
0.00696906
1.79919e-06
3.72402e-06
1.34987e-06
0.0204151
0.000276765
1.59138e-06
1.55098e-06
0.002541
0.000118223
1.58486e-06
0.0028985
0.00580674
0.0082758
0.0100147
0.0103635
0.00333538
2.64699e-06
8.64442e-05
5.21306e-07
6.97313e-07
0.0109734
7.96833e-07
0.00471448
1.15218e-06
0.00279947
0.00770384
1.67735e-06
0.00860283
0.00943992
0.00233768
1.56615e-06
9.41195e-07
6.61627e-07
3.7613e-06
0.00785947
6.05928e-07
0.0116372
1.78724e-06
0.00322217
3.17851e-06
1.25978e-06
0.000252545
8.20112e-07
0.000220304
1.59113e-06
8.42951e-07
8.88482e-07
0.00901303
2.59668e-06
1.58242e-06
0.0136272
1.37772e-06
0.000757637
1.46995e-06
0.000789701
0.0115971
0.0101267
1.01394e-06
5.2346e-07
2.201e-06
1.14644e-06
0.0118805
0.00504565
5.05933e-07
1.48616e-06
3.41109e-06
0.00527473
2.16484e-05
1.18609e-06
0.000783668
9.51671e-07
1.12987e-06
0.0102314
0.00927906
0.00611666
1.34825e-06
0.0180988
2.28994e-06
0.00684321
3.59197e-06
0.00110926
0.00755976
1.81101e-06
0.00077153
0.00666416
0.011949
0.00821952
1.11838e-06
0.0103812
3.34789e-06
2.04848e-06
9.86856e-07
9.49892e-07
0.000426705
9.76555e-07
0.0184095
0.00637329
0.00897524
0.00910757
0.00717349
0.0138997
0.011215
0.00956267
5.60633e-07
0.000410276
6.95048e-07
0.00736251
0.00399253
4.94158e-07
0.00281263
7.13094e-07
5.83409e-07
1.44593e-06
1.45864e-06
0.0176038
0.00234941
1.12572e-06
1.10109e-06
0.000184451
0.00736025
1.7953e-06
3.26473e-06
0.00065907
1.5439e-06
1.69514e-06
5.59639e-07
0.0033149
9.41913e-07
1.1963e-06
0.00032576
1.69232e-06
0.0164466
0.00751171
1.52856e-06
0.0106218
1.67995e-06
0.0108825
0.00749253
0.00708329
1.56442e-06
0.000191327
1.56147e-06
0.00960348
8.93028e-07
1.06633e-05
8.75458e-07
6.65457e-07
0.00403725
1.36231e-06
1.22662e-06
0.000770509
1.90043e-06
6.06287e-07
0.00960453
9.88577e-07
8.44892e-07
0.000782748
0.0110851
1.23341e-06
0.00241939
1.17064e-06
0.0203595
1.45073e-06
1.45191e-06
1.18628e-06
5.24534e-07
1.28328e-06
0.000134462
0.00363927
6.03384e-07
0.00700846
1.81748e-06
0.00295482
6.78161e-07
5.25907e-07
4.78991e-06
1.89245e-05
9.72623e-07
1.57036e-06
0.00318361
1.16384e-06
3.73868e-06
1.61062e-06
0.00703237
0.000169598
2.1414e-06
3.09496e-06
0.0119132
4.18919e-07
6.02681e-07
3.89563e-05
0.0121833
2.13727e-06
0.00994955
1.54785e-06
0.0100343
0.00841504
7.20077e-07
1.22522e-06
0.00559392
3.30909e-06
1.63329e-06
0.000264285
1.8055e-06
1.6283e-06
2.35049e-06
1.54592e-06
1.91658e-05
2.35777e-05
1.13519e-06
0.0190241
0.0032751
6.29173e-07
3.29611e-06
0.00325586
0.0069656
4.34117e-05
7.61806e-07
1.81006e-06
0.0162372
1.31244e-06
1.05432e-06
0.0118545
1.17575e-06
0.0026814
9.96905e-07
7.87864e-07
0.00989776
1.20573e-05
0.000255319
2.79332e-06
1.67323e-06
6.8872e-07
0.0106339
0.000682328
1.25549e-06
5.02891e-06
0.00500872
6.46812e-07
1.22551e-06
1.59461e-06
1.72353e-06
0.0105131
8.47655e-07
5.3753e-07
2.25598e-06
7.56475e-07
0.00941239
0.0175443
0.0136816
3.22766e-06
4.49438e-07
1.30269e-06
0.00880015
5.86432e-06
0.00693679
2.1655e-06
1.92644e-06
1.66673e-06
1.64187e-06
1.4804e-06
3.49274e-05
0.0158357
1.48856e-06
0.00750072
0.0149884
4.88939e-07
0.0055023
0.00785478
0.00761729
0.000465655
4.18717e-07
0.000659279
2.00876e-05
0.00295164
8.38603e-07
1.83452e-06
0.0153842
1.44543e-06
1.366e-06
0.0185329
2.57831e-06
0.00514791
0.00907535
2.7169e-06
0.00710778
0.0101253
9.48006e-07
0.00934092
0.000254907
1.10272e-06
1.10157e-06
0.0066578
1.50003e-06
1.65444e-06
5.56087e-07
1.4285e-06
0.0154195
8.74512e-07
4.31514e-06
0.000155568
5.32932e-05
1.17203e-06
1.63946e-06
0.011579
4.50642e-07
8.83311e-07
1.47553e-06
1.42882e-06
1.23405e-06
0.00652815
1.64879e-06
1.43024e-06
0.00360452
1.2179e-06
0.0145221
1.28325e-06
0.0170179
1.28338e-06
0.0118154
0.000887449
1.1436e-06
0.00359046
3.99921e-05
1.68793e-06
1.09346e-06
8.2358e-07
0.00709289
6.89885e-07
0.000266419
9.59957e-07
1.10695e-06
3.5661e-05
0.00794837
6.9002e-07
1.66491e-06
5.43356e-07
1.37032e-06
1.53651e-06
2.03894e-06
4.50904e-07
0.014691
0.000795966
8.94207e-07
9.35955e-07
0.0155717
0.00841607
1.5651e-06
4.88122e-07
0.0158508
0.00258402
0.0174314
2.00611e-06
1.55113e-06
0.000281169
2.12918e-06
0.00857316
0.0170495
8.9827e-07
1.2846e-06
0.00357553
3.16203e-06
8.7425e-07
0.0166201
0.0028327
0.018076
5.31718e-07
1.95896e-06
1.72789e-06
1.0762e-06
1.57993e-06
0.000319111
2.01797e-06
6.75293e-07
0.00895458
1.45537e-06
5.30052e-07
2.04873e-06
0.00102576
9.41865e-07
0.016258
1.40727e-06
1.46423e-06
1.47032e-06
1.57439e-06
7.69321e-07
0.0118973
0.0104869
9.87992e-07
0.00450173
7.58298e-07
1.07691e-06
0.00166824
0.0138641
5.12102e-07
0.0116911
1.20952e-06
6.10134e-07
1.25508e-06
0.00690775
0.00381664
4.85505e-07
0.00867868
0.0115971
0.00517775
2.11088e-06
0.015469
0.00758216
1.75066e-06
0.000474095
8.50649e-07
1.42459e-06
1.41113e-06
0.0132146
0.00851198
0.00595652
0.000478361
6.969e-07
7.20774e-07
9.65951e-07
2.1063e-06
1.65718e-06
4.27089e-07
1.60865e-06
1.16841e-06
0.00389134
9.86759e-07
1.55531e-06
4.51178e-07
0.00282496
1.22348e-06
4.18537e-07
5.47325e-07
0.0050625
1.06441e-06
1.3162e-06
1.65275e-06
0.000151263
5.30038e-07
3.49137e-06
1.85243e-06
1.43953e-06
1.55626e-05
0.000408472
1.47537e-06
0.000194107
0.00904173
1.27378e-06
1.27068e-06
1.00593e-06
9.46399e-07
1.63669e-06
2.08243e-06
1.59391e-06
0.00745573
4.26192e-07
1.40269e-06
1.06246e-06
1.40714e-06
1.25949e-06
1.5591e-06
1.29975e-06
9.65256e-07
2.62865e-06
2.60561e-05
0.0030408
8.27986e-05
5.40296e-05
3.35463e-06
4.8405e-07
3.36209e-06
0.0062433
1.27749e-06
5.37063e-05
0.00203436
0.00700276
1.49115e-06
0.00399309
1.66093e-06
0.000689361
1.02729e-06
6.67166e-07
1.48134e-06
1.74975e-06
0.00281098
2.08627e-06
0.00771476
0.00685292
0.0179204
1.07008e-06
4.93746e-07
1.41203e-06
0.0165403
8.86493e-07
8.83005e-07
0.00666296
1.09569e-06
0.00940193
1.30497e-06
3.20236e-06
6.14272e-07
5.37728e-07
0.00390673
6.69426e-07
0.00277734
0.0201774
3.46207e-05
1.01264e-06
1.73932e-06
0.012984
0.00524668
0.00213706
1.05523e-06
3.41623e-06
0.000662549
0.0171328
0.0187898
9.81909e-07
1.47234e-06
6.73557e-07
9.47873e-07
1.63153e-06
2.59828e-06
4.83245e-07
1.57474e-06
0.0131467
0.00910999
0.000254588
2.57112e-06
3.16679e-05
7.14027e-07
6.8345e-07
1.65876e-05
1.65481e-06
3.39891e-06
2.27658e-06
1.78199e-06
5.52293e-07
0.00211217
0.00942545
0.00520067
8.52868e-07
0.00991693
1.08787e-06
1.78729e-06
0.000569814
4.15497e-07
1.64848e-06
0.00373375
0.00168008
1.79923e-06
2.19419e-05
1.20157e-06
0.00991744
1.06092e-06
0.000412447
1.31445e-06
1.81187e-06
0.00929049
0.00684358
0.00739995
8.44049e-07
8.13322e-07
4.88544e-06
1.7753e-06
1.74839e-06
4.93216e-06
0.00683573
7.9761e-07
9.61251e-07
2.15253e-06
1.42117e-06
1.58202e-06
1.80112e-06
1.44978e-06
8.77987e-07
0.00498511
0.000145938
1.26036e-06
5.67216e-07
1.71504e-06
1.07097e-06
2.5652e-06
4.8362e-06
1.04153e-06
0.00297509
0.0037632
4.37376e-07
1.56751e-06
1.64683e-06
0.0133465
2.29007e-06
8.09803e-07
8.82379e-07
4.39517e-07
1.32367e-06
0.0157744
1.19301e-05
1.73752e-06
0.00881796
1.42874e-06
1.17726e-06
9.9336e-07
2.35478e-06
0.0108852
4.4699e-07
0.0147794
0.00673802
1.67591e-06
1.32952e-06
1.76348e-06
1.58198e-06
1.386e-06
0.0146936
4.9394e-06
0.0031661
1.52698e-06
6.68869e-07
0.00708441
0.0108809
0.0049314
0.000729704
2.74933e-06
7.12812e-07
0.00228819
0.0087765
4.9159e-07
0.0120713
0.0117763
8.52149e-07
3.80501e-06
1.41307e-06
6.60217e-07
1.13273e-06
4.54031e-07
1.67691e-05
0.00458421
9.31159e-07
4.51665e-07
0.0137548
4.37413e-05
0.000384554
0.00694015
0.00927207
1.6036e-06
1.78441e-06
1.26883e-06
4.65248e-07
8.5258e-07
4.31274e-07
0.0069997
2.5065e-06
9.99295e-07
0.00571533
4.74387e-07
5.17818e-05
1.06584e-06
0.00537808
0.000251715
1.52858e-06
1.00154e-06
0.0194404
0.00731353
0.00648401
0.00775613
8.34849e-05
0.0180328
2.64379e-06
0.00038012
0.00820007
8.02854e-07
1.06378e-06
0.00362433
6.90274e-07
1.43799e-06
7.96544e-07
9.29227e-07
1.91025e-06
0.0105642
1.226e-06
9.11925e-07
2.27982e-06
1.64545e-06
0.0122917
0.000329442
1.0122e-06
0.00100529
2.9915e-06
0.000428746
1.02063e-06
0.00854582
2.0725e-06
0.011448
0.0145136
1.68169e-06
1.53655e-06
0.000255074
1.77659e-06
0.0120162
0.00043121
0.0117547
2.0141e-06
2.03462e-06
7.91079e-07
0.00571124
0.000356635
0.0111853
5.22309e-07
2.73019e-06
1.74981e-06
0.00826758
0.00238652
0.000443636
0.000395261
0.000132543
0.0137709
0.0104643
8.03344e-07
5.3722e-06
0.0129126
0.0143076
2.48412e-06
1.83851e-06
0.00700189
8.0344e-07
1.49783e-06
9.53206e-07
1.80183e-06
0.00300096
0.000310671
4.93125e-07
1.69513e-06
1.36141e-06
8.2274e-06
0.0097585
1.65158e-06
0.00354118
0.00310198
0.00363199
1.00112e-06
1.48129e-06
9.6811e-07
0.00387315
9.63272e-05
0.00906235
5.80959e-07
1.43274e-06
0.000545331
1.6691e-06
0.0083041
1.41255e-06
0.00806224
0.00730273
1.52017e-06
2.01971e-06
0.00783029
1.10919e-06
1.59416e-06
0.00361947
2.33108e-05
1.10598e-06
0.00982377
5.46422e-06
0.00676809
0.00574047
0.00493834
2.57102e-06
0.00381631
0.000468086
0.00734809
0.00438994
0.0101037
1.69964e-06
2.98764e-06
7.99981e-07
7.48783e-07
0.000936175
1.36846e-06
0.00275456
1.56334e-06
3.77194e-06
0.000213717
1.01632e-06
1.11611e-06
1.58918e-06
0.0142297
9.19313e-07
0.0102716
6.34254e-07
0.00976728
0.00800381
7.14315e-07
0.0022677
0.00986768
0.000312041
1.08914e-06
5.95403e-07
1.1978e-06
0.0104842
1.77606e-06
5.50429e-06
1.61909e-06
0.000174932
1.9805e-06
0.00704749
0.00521012
0.000441371
0.00186952
0.00219559
2.02948e-06
1.55472e-06
0.00475768
1.70081e-06
0.000897268
1.89181e-06
0.00251124
1.55704e-06
8.81832e-07
0.00868949
9.40791e-07
4.06484e-06
0.00733629
0.0171776
1.62053e-06
0.0144185
1.65849e-06
0.00944117
4.06601e-05
8.29584e-07
1.58464e-06
8.81796e-07
0.0141845
0.0113705
0.00944641
0.00351527
7.83787e-07
2.01342e-06
0.0166241
7.19844e-07
0.00889996
8.65836e-07
0.0159599
1.94069e-06
3.03909e-06
8.63865e-07
0.00467932
0.000430029
2.03476e-06
1.5524e-06
1.47858e-06
0.0038164
1.4938e-06
1.48213e-06
3.07398e-06
0.00226979
0.00231854
9.76554e-07
7.68091e-07
2.3074e-06
0.0157866
2.83963e-06
0.00664586
1.94545e-06
2.15062e-06
0.0150365
0.0142632
1.82906e-06
0.00695245
1.17421e-06
0.0112834
0.00685211
0.00712991
8.85229e-07
5.3643e-06
0.00217856
9.93863e-07
0.00930714
1.55852e-06
7.14696e-07
1.64856e-06
1.57767e-06
8.85574e-06
0.0031599
1.14996e-06
1.42946e-06
0.00703189
1.06863e-06
8.6415e-07
9.38235e-07
0.00848748
5.76192e-07
1.63108e-06
1.00835e-06
8.81331e-07
0.00753903
1.89538e-06
0.00995591
5.93829e-07
0.0014151
0.00795028
1.64105e-06
5.17997e-07
0.0112238
1.04663e-06
1.10542e-06
1.32988e-05
0.00222192
2.31693e-06
0.0051414
1.0709e-06
0.00321467
1.22807e-06
1.59531e-06
1.69587e-06
0.00288479
5.16561e-07
0.00199291
0.0078679
0.0137866
1.55425e-05
0.0029246
0.00222586
0.004876
0.00272159
0.00696374
1.35357e-06
1.56614e-06
0.0106351
1.44332e-06
0.00520468
0.000218848
1.68972e-06
0.0104114
0.0140148
1.66805e-06
5.08675e-07
0.00763523
0.00619514
5.39769e-07
0.0119738
1.55436e-06
6.57412e-07
0.000870006
0.015235
8.71534e-07
2.05932e-06
1.56542e-06
0.010368
1.49824e-06
0.00435272
0.000349902
1.79956e-06
5.10086e-07
1.78189e-06
0.0100362
5.8731e-07
9.50249e-07
0.00360223
5.73917e-07
1.7507e-06
0.0148306
9.51328e-07
0.00860037
1.38928e-06
1.47572e-06
0.00322847
1.62704e-06
0.00214404
0.00720863
0.0116531
1.43852e-06
0.00658272
0.0106154
1.37599e-06
6.61762e-07
0.00013491
1.77775e-06
1.34649e-06
3.89986e-06
0.00682631
1.35995e-06
0.0141401
0.00663078
0.0096172
0.00907779
1.54799e-06
1.14658e-06
1.13755e-06
5.54529e-07
0.00535636
1.54739e-06
0.00439585
1.09931e-06
0.0070647
8.54127e-07
8.86618e-06
0.000378645
1.64343e-06
0.0017031
2.71232e-06
2.2158e-06
0.00678455
0.0082069
1.50652e-06
1.06906e-06
0.00389562
1.55551e-06
2.54995e-06
0.00804103
0.0162317
0.0144203
0.00434531
0.00402162
1.98026e-06
0.0194677
0.014786
0.0154146
1.35541e-06
0.000242227
1.44793e-06
1.06768e-06
0.00213482
0.00873397
0.00721982
6.22567e-07
6.35425e-07
1.78732e-06
5.89416e-07
9.55875e-07
1.73022e-06
9.2227e-07
4.42005e-07
8.36012e-07
0.0111822
0.0139519
0.00712066
1.47673e-06
0.00666528
0.0102302
1.85064e-06
7.86383e-05
4.54778e-07
1.29819e-06
1.14771e-06
3.76371e-06
0.00450824
2.39732e-06
9.02329e-07
0.00673502
1.36972e-06
4.95391e-07
0.00506897
1.58558e-06
0.00208677
1.21327e-06
0.0106548
0.00327455
0.00724075
1.4759e-06
1.43936e-06
7.9538e-07
1.75713e-06
6.93261e-07
1.38104e-06
0.0138564
1.81682e-06
0.00578847
1.18599e-05
4.59923e-06
3.34847e-06
0.00710806
0.00674199
7.51183e-07
1.20793e-06
1.68674e-06
5.88977e-05
0.00666812
1.61272e-06
0.00692433
1.03667e-06
6.8195e-07
1.75406e-05
0.0140377
6.35054e-07
2.18625e-06
1.62224e-06
1.577e-06
6.11738e-07
7.85402e-07
0.00304939
1.62738e-06
1.47604e-06
1.99959e-06
0.000576709
1.09537e-06
0.00473229
0.014645
1.67746e-06
3.25784e-06
7.23555e-07
1.77536e-06
2.07081e-06
1.42426e-06
1.37931e-06
0.0111715
0.00892933
0.00777859
0.0198511
1.39598e-06
1.46347e-06
3.37352e-06
0.00803703
0.00549094
0.00679723
5.6017e-07
0.000385403
0.00761426
0.0090719
0.0114565
1.00495e-06
1.41185e-06
0.00842898
0.000475157
1.26008e-06
8.84826e-07
1.51444e-06
0.0146317
5.45992e-07
1.51421e-06
0.0143681
2.32752e-06
1.60195e-06
0.00734423
2.02237e-06
1.82265e-06
2.02567e-06
0.00649831
0.00821402
0.0106216
0.0158224
0.00486594
0.0075886
0.0175889
6.48515e-07
0.00483394
9.24699e-07
0.0135128
0.0100771
0.00770152
0.00687956
0.000586541
2.2555e-06
0.00512371
0.00395118
6.02966e-07
1.37109e-05
0.0132751
0.00715163
0.000485226
0.0120164
0.000543679
2.07436e-06
2.15689e-06
6.33495e-07
4.99501e-07
2.20205e-06
0.0064724
1.67064e-06
0.0106045
1.07269e-06
6.63713e-06
1.24123e-06
3.04513e-06
1.38647e-06
0.00391491
0.0185998
1.81039e-06
0.00706684
8.68006e-06
0.00753655
0.00207877
0.0166313
1.39627e-06
1.06003e-06
1.89533e-06
0.0180694
2.93314e-06
0.00689035
1.7195e-06
9.953e-07
9.39225e-06
0.0130596
1.84895e-06
7.7413e-07
0.0150165
1.80185e-06
0.00455364
0.000252248
1.34961e-06
0.000551802
0.0120379
7.7668e-07
0.0120998
0.00760802
0.00776986
0.00660892
2.02104e-06
0.0189925
2.2306e-06
1.81494e-06
4.64388e-06
6.25505e-07
9.74452e-06
0.00738138
4.70315e-06
6.49782e-06
0.00667504
3.56697e-06
8.04519e-07
2.10201e-06
5.97341e-06
1.13112e-06
0.00730116
9.84711e-07
4.03119e-06
0.0109981
0.00767035
0.00792069
0.00248602
0.0158419
1.13582e-06
5.13443e-06
0.0115874
0.0134879
7.8386e-07
5.06646e-07
0.00700668
5.02204e-07
8.55264e-07
4.33648e-06
2.35903e-06
0.0201187
8.18652e-07
0.0057792
6.70313e-06
0.00437216
4.40111e-06
1.68423e-06
3.24017e-06
9.27786e-07
1.463e-06
0.00873365
1.44709e-06
0.013436
0.00673661
9.59352e-07
1.53675e-06
0.00506496
5.19234e-06
2.93536e-06
6.77861e-06
2.14834e-06
0.00762489
4.54753e-06
0.00911282
0.00719357
0.00313133
0.00787655
0.0100839
0.0011049
0.00726545
0.00653354
1.68666e-06
1.59863e-06
4.28251e-06
0.011178
4.40373e-06
0.0138551
0.00662433
1.61422e-06
1.70802e-06
0.000138852
0.00274512
0.00495312
8.99628e-05
0.017827
1.74612e-06
1.57437e-06
1.54329e-06
0.000729115
2.67238e-06
0.00853887
1.123e-06
0.0162865
0.00972807
9.36425e-07
1.53613e-06
0.000225123
3.87027e-06
0.00680108
1.50796e-06
1.72691e-06
4.97876e-07
1.77538e-06
7.75219e-07
0.00764757
1.14436e-06
0.00402314
1.70392e-06
0.00814882
5.51135e-07
5.62262e-06
1.7158e-06
3.7143e-06
1.29264e-06
0.00624576
2.65931e-06
6.31749e-05
1.8153e-05
0.000324552
0.0186541
4.59495e-06
0.0146239
0.00960783
0.0130221
0.0024734
1.02915e-05
7.14367e-07
9.633e-07
6.51005e-06
2.71778e-06
1.14597e-06
0.000113625
0.0121309
3.7324e-06
0.0100041
0.000272921
7.13758e-07
1.84062e-06
0.00863587
1.79782e-06
0.0194402
0.00404917
9.95331e-07
0.00796958
0.00635279
2.26009e-06
5.473e-06
1.41909e-05
0.00693718
1.57175e-06
0.00742392
0.00807432
1.11341e-06
0.00773116
0.00305889
4.26153e-06
0.0128996
1.29005e-06
0.00634419
0.000266123
4.65784e-06
0.00502283
1.47779e-06
5.51312e-07
3.31455e-06
9.11319e-06
0.00614301
0.000591706
0.00726832
9.67064e-07
5.71124e-07
0.0088363
0.00511243
0.0160776
2.22781e-06
0.00555939
1.80219e-06
4.73531e-07
0.013719
7.51326e-06
0.013354
3.03864e-06
1.82403e-06
1.81927e-06
0.0093887
4.63881e-06
0.00481751
0.00656546
0.00462825
0.0148382
0.0144635
5.53323e-05
0.00656839
8.79061e-05
0.00959184
2.78331e-06
1.41762e-05
7.225e-07
1.75183e-06
1.30264e-05
4.60992e-06
8.13942e-07
0.0182434
0.0205225
0.0166538
1.79343e-05
1.78698e-06
0.00381408
1.17942e-05
0.00760182
1.75004e-06
0.00754885
4.74442e-05
1.69756e-05
5.64202e-06
0.00771387
3.3634e-06
5.28864e-07
1.66007e-06
0.00794603
2.27414e-06
6.49013e-07
3.01338e-06
2.18955e-05
1.61838e-06
1.56732e-06
0.00765239
0.0100425
1.86674e-06
1.80024e-06
3.3682e-06
1.19642e-06
0.0109514
0.0071793
1.17946e-06
0.0190579
5.02262e-07
1.61143e-06
0.00421523
1.78008e-06
1.81343e-06
2.33604e-06
0.00193204
0.00616601
0.0097072
1.63499e-06
0.0180943
1.59516e-06
1.76957e-06
9.52259e-06
0.00798985
2.36309e-06
0.00882405
0.000382997
0.000434792
2.89105e-06
0.00763489
0.00564203
0.000273324
2.23453e-06
0.0176471
3.23901e-06
1.70244e-06
7.16459e-06
2.54435e-06
4.93132e-07
3.12063e-06
3.20782e-06
1.2003e-06
2.16439e-06
2.72037e-06
1.80986e-06
4.91521e-06
6.9656e-07
7.97107e-07
0.000197773
1.09848e-06
2.93806e-06
0.000613314
1.58565e-06
8.02194e-07
1.84606e-06
0.0108632
0.0137848
0.00211775
2.12759e-06
1.82945e-06
0.00623423
1.44597e-06
0.00451786
3.25901e-06
0.000452162
1.29614e-05
0.0190304
1.77606e-06
0.000678405
8.5512e-07
1.47315e-06
0.00829646
0.00810008
0.0185182
1.77553e-06
0.0152925
0.00858004
0.0145893
4.87147e-06
2.57403e-06
1.14863e-06
0.00949167
6.50146e-05
1.86231e-06
6.78664e-07
2.50195e-05
0.0142417
5.87983e-07
0.00461671
2.37774e-06
1.45901e-06
1.64307e-06
1.54646e-06
0.0103964
0.00727446
0.00795591
1.31931e-06
1.14114e-06
2.70074e-06
1.14464e-06
0.0124507
5.68295e-07
0.019621
2.25342e-06
0.0127811
2.57974e-06
0.00750691
0.00821407
0.00594138
0.00564569
0.0170615
7.93792e-07
0.000544446
1.73742e-06
7.17564e-07
0.00656205
2.02044e-06
7.20256e-07
8.09982e-07
1.63954e-06
0.00068956
0.00254036
1.59851e-06
1.5864e-06
1.74318e-06
2.55703e-06
1.57594e-06
0.00817505
0.00212656
1.52872e-06
1.7642e-06
0.00534215
0.00707286
2.5955e-06
0.00992287
0.0073046
0.0005946
0.00574218
1.76023e-06
1.50843e-06
0.0103487
1.41291e-06
1.48481e-06
0.0107539
6.53653e-07
2.45274e-06
1.94892e-06
1.37192e-06
0.0195923
1.79741e-06
2.05007e-06
1.06231e-06
7.13415e-07
1.78927e-06
0.002229
5.92974e-07
1.91615e-06
1.80791e-06
0.007838
6.66054e-07
1.72696e-06
2.96427e-06
1.43454e-06
2.28315e-06
0.0147194
0.0114695
1.33072e-06
1.66811e-06
1.62052e-06
0.00855885
0.0149798
0.00410175
1.31254e-06
1.59582e-06
8.74084e-07
0.00506815
1.3193e-06
5.38769e-06
2.02675e-06
0.00020632
0.0204668
3.08069e-06
2.00078e-06
4.03925e-06
0.000692829
0.00519272
3.54587e-05
1.48366e-06
1.10866e-06
1.99015e-06
0.00376129
0.000215498
1.5322e-06
0.00551691
0.00210733
1.59848e-06
0.00208897
6.20471e-07
0.0208019
0.0057714
8.74901e-07
0.0155807
0.0149328
1.5683e-06
8.85082e-06
1.57395e-06
0.000526356
0.00282106
1.69979e-06
7.14879e-07
0.0106298
6.38342e-07
0.00187733
6.89474e-05
0.0146823
0.0108188
0.00265164
1.52685e-06
1.77946e-06
0.00998431
7.14064e-07
9.626e-06
0.00980304
0.00187095
6.75294e-07
1.41404e-06
1.74766e-06
1.39037e-06
4.62773e-06
0.0117677
1.57823e-06
1.36388e-06
0.00808545