/*--------------------------------*- C++ -*----------------------------------*\
| =========                 |                                                 |
| \\      /  F ield         | OpenFOAM: The Open Source CFD Toolbox           |
|  \\    /   O peration     | Version:  v2012                                 |
|   \\  /    A nd           | Website:  www.openfoam.com                      |
|    \\/     M anipulation  |                                                 |
\*---------------------------------------------------------------------------*/
FoamFile
{
    version     2.0;
    format      ascii;
    class       volScalarField;
    location    "50";
    object      ddt0(omega);
}
// * * * * * * * * * * * * * * * * * * * * * * * * * * * * * * * * * * * * * //

dimensions      [0 0 -2 0 0 0 0];


internalField   nonuniform List<scalar> 
14315
(
0.087908
-0.00467397
-0.000309023
1.83384e-05
4.99076e-05
-2.25208e-06
0.00024805
3.23305e-05
0.244411
-0.00121403
0.00304109
0.00445095
-0.00589904
3.29217e-06
0.000321587
-2.10098e-07
-3.81972e-06
0.059276
-2.3927e-05
6.58501e-07
0.000157736
2.18981e-05
0.000179729
0.00198324
0.882578
3.65951e-06
0.00974618
-0.000160571
-0.00511895
-0.000158703
-1.07655e-05
-4.35962e-06
0.73516
0.0113967
6.51798e-05
-6.419e-05
-0.000288613
6.18069e-05
0.000240669
6.66432e-06
0.66678
-9.901e-06
-4.46506e-05
0.000201073
-0.00143925
-3.36706e-06
-0.000185561
-0.000768832
1.63212e-07
0.000121357
-0.00028025
0.000255355
0.000122895
-5.12477e-05
0.000196129
1.62905e-05
-0.198369
0.000706099
2.77342e-06
0.500069
-2.50453e-05
4.39159e-05
-3.41962e-05
0.000113651
-4.84857e-06
-8.58756e-06
-0.000462985
5.01724e-05
7.17984e-05
-8.45235e-05
-0.000107164
4.9555e-05
0.000159705
2.26689e-05
-6.85701e-06
0.000208854
0.000141645
-0.000339065
-0.000137844
0.00172971
0.000211047
0.204279
-7.81941e-07
6.63801e-05
2.01912e-05
0.183751
-0.00170652
0.000165106
0.000177666
-8.40386e-05
-0.000189777
0.231035
0.00448558
7.88401e-06
-8.71542e-05
2.25003e-05
-7.34525e-05
0.000402375
-0.000473499
-9.24221e-06
8.10593e-07
0.0821955
0.000230328
0.000147707
0.000108224
-6.87503e-06
1.18811e-05
-2.71279e-05
4.27853e-05
0.000198029
0.000872813
0.00037626
0.000885475
0.00146979
2.2125e-05
2.96604e-05
-0.00128152
8.3654e-05
-0.0118787
0.344524
0.000727449
-3.34287e-06
6.73557e-06
-0.00175124
-0.036993
-5.6516e-06
-1.01449
0.143781
-0.000135557
3.44619e-07
0.000386003
-0.024952
-0.691655
0.204366
7.4299e-05
-0.000163609
-0.157363
0.000607988
-0.00861832
-1.17255
-0.00161463
-0.0348613
-0.000171002
-0.0901796
0.116466
2.37149e-05
0.000561879
0.000278578
0.000750297
0.000132599
1.11257e-06
-3.30453e-05
-9.43363e-06
0.00036296
2.44283e-06
3.35395e-05
1.43216e-05
0.000334129
-0.151927
0.00156045
4.58074e-05
3.75585e-06
0.0750969
0.000342735
0.000183944
0.106845
0.000230805
3.44505e-05
-5.73744e-05
-2.28389e-07
0.398689
-0.50849
-0.00436174
-7.41062e-05
-1.0768
-0.508606
0.0054419
-7.93821e-06
-0.00131455
0.000181725
0.765693
-0.00184734
1.08848e-06
-0.00170458
0.000148075
-0.0199196
-8.01207e-05
-0.00145995
-0.000393066
0.00071681
0.000138262
0.864477
0.0156558
8.48451e-06
0.000118937
5.82859e-05
-0.112053
-1.15534e-07
-4.81895e-06
0.000145008
0.64067
-7.2052e-07
0.114865
1.90138e-05
1.0377e-05
-4.60038e-06
9.47478e-05
0.00069631
0.000262301
7.34648e-06
-0.000293593
3.16631e-05
-8.50694e-05
4.2348e-06
0.717189
0.00013525
-0.0170339
1.3734e-07
7.18903e-07
5.06713e-05
-0.024682
-7.48638e-06
0.00574549
-0.272112
-2.53736e-06
5.03001e-05
-0.000915328
0.000129368
-2.26206e-06
2.92132e-06
0.000117826
-0.218909
-7.91253e-05
-8.33203e-05
4.31358e-05
-0.000198487
0.000141443
-1.77859e-05
0.000450814
6.76335
0.792695
-0.000269097
-7.74888e-06
-0.648523
-0.013997
0.000361288
0.619882
3.502e-05
4.6615e-05
1.94285e-05
6.6189e-06
-0.000109492
-0.894956
-0.000377404
6.57263e-05
-0.0869734
0.364092
-0.000265176
0.201982
1.89909e-05
0.0116327
2.15796e-05
-2.47228e-05
7.34932
-2.59239e-05
0.00206587
-0.00254918
0.650267
0.000258427
0.000126857
-0.225394
1.03058e-06
-4.57004e-05
0.000745487
-1.4738e-05
0.000176705
0.000584658
-4.04059e-05
-1.53498e-05
0.000194806
-6.77289e-06
0.000615134
1.22676e-06
-5.89406e-05
4.05384e-05
-0.148049
-0.00110095
-5.61003e-05
7.0997e-05
-0.000145934
0.00322466
-1.20078e-06
0.000274537
0.00865214
-0.000138654
3.71202e-06
-5.38228e-06
0.291145
1.02602e-06
-0.065701
-0.00119832
2.37813e-06
3.47046e-06
-5.15284e-05
1.7333e-05
-0.000124301
0.00020997
-0.00125102
3.30453e-05
-6.00869e-05
-0.000108011
-0.000134185
-0.00054213
0.000116379
0.00146758
0.25759
0.6467
0.0289107
-0.000118548
-0.024914
-2.69735e-06
-6.09528e-06
0.00076162
6.1888e-07
3.64758e-05
-5.97646e-05
-0.0101286
-4.00154e-06
-0.0327994
3.68091e-05
-0.0890412
0.0109137
-0.663426
-0.0211231
0.337789
-5.9668e-05
-0.108724
0.000105656
-0.719515
4.00005e-06
0.000114573
0.143018
1.10108
-0.00094476
3.74386e-05
0.108907
0.0718022
0.0092653
-0.000202979
2.18327e-05
0.373215
-0.00986512
1.69168e-06
0.000140197
-9.58161e-05
-0.00221012
-0.000412094
0.473195
-0.227611
7.43713e-05
-0.000188928
0.0809292
0.000142738
0.000226841
0.00011359
2.54457e-05
0.000104286
0.000783053
-8.36382e-05
-5.94687e-06
0.00297561
-0.555368
0.000112812
0.407065
0.00032369
2.18027e-06
-0.759797
-0.28565
0.000112117
-5.95468e-05
-0.00014636
7.17033e-07
0.00315452
0.0482057
5.81677e-05
-0.000144696
-0.0658099
-0.00025391
-0.201295
0.00111741
0.199431
-0.00177583
0.000125635
0.000272123
0.000305661
0.000380109
-2.54217e-05
4.79436e-05
0.00068033
0.474769
0.000134509
-5.81718e-06
-0.0146038
1.20985e-05
0.15601
-0.0499244
-1.67279
-0.000201047
7.56141e-05
-1.70744e-05
0.000245241
1.90618e-06
-2.33219e-06
0.411974
6.074e-05
-0.00124559
-0.00272218
-0.0010589
-8.53349e-05
-0.199828
-0.0204619
-1.02915
0.00182468
2.25298e-06
1.00168e-05
-0.000421053
-0.000135859
3.22632e-05
-0.0894223
0.00126396
-0.059756
-0.000568479
-3.61055e-06
-0.0080099
-0.0229959
0.000203016
-0.489595
0.0023006
-0.000304863
1.33135e-06
-0.00158875
-4.52886e-05
1.89216e-07
0.0520282
-0.915394
0.000308669
-9.56794e-05
6.999e-05
-0.000325338
-3.89605e-06
0.00141495
-4.22696e-06
1.05325
-0.137558
5.45743e-05
0.166446
-2.98063e-05
0.0163892
-0.000217102
-0.000615492
0.014497
0.000305817
-0.00209404
0.103973
-0.0024008
-1.88526e-05
-0.239536
-5.79041
0.467729
0.000370176
0.00154056
-0.00257594
1.03458e-05
2.4804e-05
-1.38956e-05
-9.44457e-06
0.0013294
0.0571664
-5.54365e-07
0.000845793
-5.76786e-06
-4.10127e-06
1.12021
-0.00140315
-4.37548e-05
-0.226882
-0.00110199
1.22086e-05
0.00801901
-1.86597e-05
-3.79986
-0.000605661
-2.74868e-06
0.00128275
-0.133128
-0.000188645
-0.00682193
4.77788e-05
0.000175929
2.93134e-05
-0.0286752
0.000194123
-0.417524
-1.01374e-06
-0.0327385
-0.000160434
3.06623e-06
0.000109292
-4.54063e-05
0.000116308
-0.00664677
2.1913e-05
2.59705e-05
-0.0712268
-0.000250814
-0.000243849
-4.9569e-05
-0.012741
0.000139357
-0.159634
0.000153957
0.000863788
-0.185179
0.668818
0.178239
0.111251
-2.62233e-05
0.000240018
0.120202
-0.000172925
-0.00032121
0.0783894
-7.86485e-06
-0.000147123
-0.000310104
4.21976e-06
2.45372e-05
-8.67323e-05
-4.27991
-9.24289e-05
-0.000136476
-0.10329
0.0684328
6.98784e-05
-0.00019138
1.37386e-05
6.34275e-05
2.01352e-06
-0.26051
-0.000269399
-0.000313289
-2.19434e-06
-7.52383e-05
-3.90884e-06
-3.5515e-05
0.000107993
2.26341e-06
-0.000118255
2.48236e-05
-0.000194725
7.13245e-06
-0.371012
6.00477e-05
0.469096
-0.319204
-4.03576e-06
2.24932e-05
0.0176295
-0.608227
0.08426
-1.94521e-05
2.88935e-05
-0.525534
6.35895e-05
-0.00972494
0.43778
-0.0134265
3.04767e-06
0.000431301
0.311025
0.000254471
0.0149477
-0.0403229
-4.35563e-05
2.0263e-05
0.694132
-0.000311652
0.105404
-9.48949e-06
-0.0290234
6.59974e-05
-9.23549e-05
0.00151017
0.435236
-0.493565
0.110316
0.000383285
4.99629e-05
0.846272
-0.000126348
0.0647565
-3.14615e-07
0.000552104
0.000848591
-0.000101248
0.00012375
1.65725e-06
0.0923085
2.0752e-06
2.45139e-05
-2.81448e-05
3.32809e-06
2.98772e-05
1.95515e-05
-0.000226008
2.63727e-06
-3.22055e-05
-0.359772
0.000501388
1.04243e-05
-0.111338
-0.000347095
-0.0289511
2.36854
0.000601098
-0.000230541
1.05389e-05
0.00713206
2.07374e-05
-9.69074e-05
0.0708347
-0.0101781
2.38805e-05
0.0306359
-1.82869e-05
-0.00169307
-5.36732e-05
-0.000938325
-0.000263225
-0.000107399
-0.000401747
-1.90267e-06
-0.000376209
0.00102069
0.00192711
0.000154592
0.158307
2.2916e-06
-0.00837318
0.196202
-0.0753472
0.000234853
-2.78026
-1.03761e-05
0.000362291
3.19985e-05
-0.122261
0.000197249
0.000833758
-2.82944e-06
-0.230974
-1.70506e-05
5.29858e-05
-0.227397
-8.59273e-05
-3.1581e-06
-0.367918
-0.000909451
-8.4138e-06
2.77652e-06
0.000325192
0.00104157
-0.338837
-3.86972e-06
0.00158419
-0.000443557
-0.00361155
1.835e-05
0.390906
-7.99416e-05
-0.000129365
-0.000315271
-0.00659219
-0.0010373
-0.565388
0.980294
2.8535e-05
6.34088e-06
-0.000372904
3.62892e-06
-3.47906e-06
-0.14376
2.51748e-06
-0.00292446
3.04535e-05
5.51191e-07
2.93222e-05
-0.00818627
0.00160767
-0.975701
-3.43698e-06
5.76399e-06
-0.00010295
3.36052e-05
9.10502e-07
0.00295975
-2.20453e-06
2.08978e-06
0.0948894
-0.124473
1.75884e-05
1.4565e-06
7.37029e-08
-1.02023
0.00989744
-4.08211e-05
0.579801
-0.000398721
6.16462e-05
0.000132105
-7.85004e-06
3.40078e-06
-0.475023
0.102075
-0.00980217
0.00030418
-2.37305e-05
0.000221474
-0.000649628
-2.79162
-0.000151538
0.00038205
-0.0385182
0.00103972
0.000677795
3.12396
-0.058997
-6.07246e-06
0.0002583
6.23907e-05
-0.00715845
-4.16337e-07
1.54821e-05
0.00043206
-0.413786
-0.000286082
1.96151e-05
-0.0045101
-0.381842
0.000429564
-0.00147903
0.080814
0.000141329
0.000304488
0.0165868
-0.359272
0.00695273
0.0480447
0.000187805
2.45927e-05
1.52206
0.0014741
0.0734377
-0.000400713
-0.000402995
-0.906457
0.00021829
-2.00995e-06
0.00287625
-0.232969
2.80092e-05
0.00019853
0.00917103
-0.000189048
-1.17736e-05
-5.90951e-06
0.180436
-4.60411e-05
1.95196e-05
-0.238789
3.49736e-06
0.053666
-0.000172314
0.000211605
-1.18867e-06
-4.44697e-05
-0.290779
0.515299
-6.01604e-07
1.96711e-06
-2.74967e-06
0.0637634
-2.89659e-06
-1.01008e-05
-0.000233444
0.00147359
0.308821
-0.000117808
-0.0272943
-5.66294e-06
-0.000288212
0.000559479
0.00381602
-0.185059
-0.0063347
-1.80541e-05
0.00255019
-2.46115e-05
0.00444856
2.2392e-07
0.00199254
-4.86497e-06
-0.822903
0.145977
1.795e-05
4.93231e-05
0.00129678
0.000277361
-0.000829951
-0.00095037
0.000499217
-6.749
-7.99784e-05
-0.00118433
-2.84645e-05
-0.0293624
-0.0012589
-0.000542816
-0.00339055
-0.0258656
-0.000179741
-9.94612e-05
6.39035e-05
0.000612836
0.0438508
-0.126545
3.87974e-05
1.77896e-05
0.908952
-0.00134459
1.30061e-05
0.279679
0.00295577
0.000675245
-2.18284e-05
-0.000789827
-8.02353e-05
-0.599415
1.51301e-06
-9.18745e-06
-0.000284008
-5.89342e-06
-0.00461224
-0.0445094
-5.1473e-05
-0.00382821
0.00149118
1.72736e-05
-0.58082
-0.00175715
-7.17014e-05
-4.98914e-06
3.16697e-05
-3.60143e-05
7.82763e-06
-5.50947e-05
3.02312e-05
-0.000238051
0.67419
0.0555779
-8.7693e-07
-0.000434546
-0.00224216
0.0655314
1.51624e-05
0.000326799
-0.00108544
-2.96001e-07
0.154776
-0.0408875
-0.000107623
0.00580515
-0.000412788
-0.166858
-0.0301175
-0.0831299
-0.00273627
-6.68497e-06
-0.588709
0.0539257
-7.60561e-06
-4.62989e-05
-4.50706e-05
0.0786291
0.0186708
8.64727e-06
0.000756923
6.9445e-05
0.000594399
9.97029e-06
0.00805521
0.0051384
-0.000173181
-0.378221
-0.00255647
-0.0736505
0.000327252
-0.00487329
-8.60278e-05
-0.000100916
-0.00602785
6.54198e-06
0.0293774
0.00126634
1.86315e-05
0.000256071
2.00423e-06
-0.00024878
0.620019
-9.66203e-05
4.35907e-05
-0.000145815
0.000123411
-0.000221416
-0.00290047
3.23986e-07
0.0213586
-3.41925e-05
-0.00600988
0.000117481
0.000601474
-0.000418984
-8.2932e-06
-0.151407
0.253065
0.000155547
-0.398235
-9.58094e-05
-0.171946
1.89466e-05
-0.00535001
-7.13591e-06
-3.98154e-06
-0.0581342
0.00270506
-0.0294567
0.394736
0.616178
3.01769e-05
0.0786482
2.28343e-05
-0.0649885
0.215705
0.000143039
-2.79168e-06
-0.376424
-2.35511e-05
2.79321e-05
0.215018
-0.00210062
0.269694
-6.34696e-06
0.064105
0.00101423
-0.0014261
-7.2689e-05
1.7518e-05
0.000440939
-2.123e-05
0.00014282
-0.0699143
-5.0469e-05
-2.11772e-05
-9.04135e-06
-7.72384
0.0001605
2.22302e-05
-0.000963308
0.000491626
-0.000161807
-0.000277466
-0.000109115
0.201218
-0.0130347
0.0126037
-0.000165853
-0.00633829
0.00600114
1.33781
0.00128521
-3.66636e-06
0.14705
1.35604e-05
-0.000274471
0.0648785
-9.06258e-06
-2.07571e-06
0.000723847
1.10499e-05
-0.158076
1.8352e-05
0.000197693
0.000257873
-0.0397323
-0.000215416
-0.0787465
-0.131711
-9.40083e-06
0.179782
0.000404344
-0.000344292
-0.000126593
-1.14601e-05
-0.153135
9.61902e-05
0.00019331
-0.000284294
1.59374e-05
-0.000506121
-0.000313924
-0.00513278
3.79583
-0.000148502
-1.79801e-05
-0.332229
-5.0395e-06
-2.35795e-06
0.00121851
-0.00361853
0.00020628
0.00320783
5.4158e-05
0.000160483
-0.133548
0.0322239
-2.16465e-06
0.0292731
0.000167621
-0.000189684
-1.31369e-05
0.000320237
-0.0031221
-3.09594e-05
-0.00451853
2.41847e-06
-6.49168e-05
-0.446745
0.000265453
0.0018445
-0.000197075
-6.07832e-05
0.00167436
-0.000295392
2.39428e-07
-0.00113727
-6.95179e-06
0.0609293
-0.000739269
2.66121e-06
1.51156e-07
0.0565861
0.322883
2.45851e-05
0.912581
0.00726498
1.25671
7.93333e-06
-0.000946616
0.000103099
0.000104751
-0.00775997
1.84251
0.154265
0.00451838
0.000108015
6.74142e-05
-0.000135451
-0.000129545
-7.15952e-05
-2.01916e-05
-1.71945e-06
-7.78197e-06
0.000109188
-1.67249e-06
0.00569304
0.799304
-0.000768351
0.0754542
1.05391e-05
0.00267849
-1.39289e-05
0.00166143
-0.000541256
0.00167629
0.564001
4.32971e-05
0.772578
0.000129529
-9.21028e-05
0.397314
-0.00525498
-0.000195647
5.82269e-05
-9.46949e-06
-0.000374905
-9.16732e-06
-0.00472975
3.36431e-07
-0.000330232
0.246289
-0.00507479
0.295124
0.00021563
0.0943324
0.0935559
-0.00083627
-0.000114901
-0.157525
0.0147687
-0.00345947
0.000160872
-6.02031e-05
0.628165
0.000562664
-0.000194058
-1.35022
-0.434521
0.00039251
1.97647e-05
-0.000136828
0.000487927
-0.000193843
0.52402
-1.51975e-06
-4.4032e-06
-8.5716e-06
-0.050843
4.69339e-05
1.50966
0.189553
-0.000127538
-0.00320122
-0.0136206
0.000939583
-5.97106e-06
-0.313653
0.000266985
-1.57528e-05
0.00352147
3.14363
3.14594e-06
0.00164946
-4.12085e-06
-5.60977e-06
0.000203329
-0.495976
-0.000738326
-2.14809e-06
-0.00826489
-0.289515
-0.000578925
1.79471e-05
-0.000385767
5.86688e-05
-1.01218e-05
0.0125199
3.80616e-05
-8.10474e-06
2.82565e-05
-0.105879
0.000115647
-0.000235361
-1.24949e-05
-0.00432565
3.61758e-06
-0.000101697
0.0193565
-0.000138581
3.80747e-05
-1.09422e-05
0.000117172
0.0215437
-1.30436e-06
-2.2813e-05
0.000765621
-0.000661552
0.000993896
-8.36315e-06
1.33375e-05
0.00137938
-0.213987
-0.000102713
-0.00291217
0.331507
-0.000102605
-0.0471178
0.000181423
-0.590191
-6.56751e-06
0.000536958
0.000677736
-0.0883443
0.000724278
0.000664931
0.000495185
-0.000482406
-0.000311806
-0.0017567
-0.81024
-0.176252
-0.00115247
-0.000387203
-0.000143715
-6.05203e-06
0.111784
1.29665e-05
0.218872
3.3017e-05
-0.104199
0.0284795
0.293187
-4.86633e-06
8.80295e-05
-0.000166259
-6.0182e-05
0.000313763
-8.40099e-06
4.76704e-05
-9.77695e-05
-7.85752e-05
-0.0161574
0.0226566
-6.62176e-05
-7.08668e-05
5.02619e-06
0.164191
0.071354
-0.000194171
-0.00295296
0.326504
-9.94626e-05
-7.56235e-06
4.25644e-06
-6.27656e-06
3.474e-06
0.00888529
-9.85381e-06
1.77353e-06
0.0321715
-1.83988e-05
-0.080428
-6.18454e-05
0.731377
-0.88901
3.66337e-06
-2.64413e-05
3.82245e-05
-0.000560639
-0.000244134
-0.00196347
0.00021147
-0.000238542
-0.0218729
0.0677419
9.72315e-07
0.11668
2.47013e-05
1.63664e-05
-4.2166
0.0615263
0.00111769
-2.19352e-05
0.72924
-0.00896557
-7.39766e-05
-0.595865
0.0826593
-1.10696e-05
-0.26603
-0.00332113
-1.00603e-05
1.17702e-06
0.170899
-0.00010312
-6.89927e-06
-0.00158018
-0.17879
-0.00447571
-1.21698e-05
1.36858e-06
0.000140226
-0.0119814
0.000231946
-0.00386525
-2.31101e-05
-0.00853101
3.03381e-05
-0.000486428
-0.000445283
0.0831898
-0.0128682
7.90538e-07
0.00156194
-0.000142536
-0.0211459
0.00173688
0.0402564
-4.20648e-06
0.000123821
0.000578253
2.74214e-05
-1.17853e-05
3.91859e-09
0.057868
0.00105596
-0.00117838
-8.78557e-05
1.38272e-06
-0.000324667
0.29953
-3.43076e-05
-7.93226e-06
6.16122e-06
-3.86125e-06
-0.681165
-0.146304
0.00380094
0.30358
-0.0213252
-4.91093e-06
-7.32468e-05
-7.57896e-05
-9.34353e-05
6.3849e-05
-0.569573
4.2229e-06
0.137804
0.000113129
-9.30148e-06
-0.000976059
-5.53067e-06
8.64675e-05
-1.44352e-05
-0.000137073
-0.00459535
-0.000758881
-0.0819491
-7.65478e-06
0.688408
-0.0493132
7.95315e-05
-0.156248
-0.0370993
-6.17464e-06
0.00015481
0.0527571
1.02412e-05
0.000166554
-6.28033e-05
3.026e-07
-0.000189594
0.000217772
-5.05823e-06
-8.00994e-06
-3.10719e-05
9.60518e-07
-0.0894712
-0.000903532
-0.000302387
-0.181325
2.04512e-06
0.00553151
-0.566448
-4.01389e-05
0.000155482
-0.0611903
0.109168
-7.29585e-06
-0.66698
-0.307196
0.0514947
-0.194722
1.08356e-05
-0.000795535
-0.00111533
-0.0631294
-0.00138904
-7.86822e-06
-0.0265264
-8.11549e-05
1.67863e-05
1.19804e-06
-0.000380355
-0.0139036
3.70337e-05
0.000222728
7.27796e-05
0.000451252
0.00116707
-0.00108971
1.00514e-05
-7.5959e-05
-0.000388889
-8.40051e-05
-0.000325204
0.00137569
-0.0874895
0.0877065
0.151454
9.75458e-05
5.59571e-05
-0.142556
0.000155917
1.64213e-05
-8.62577e-06
-0.0164698
-8.3907e-06
-0.24102
-0.000125359
0.548829
-0.00659489
-0.235023
-0.000235438
-0.00990496
3.46453e-05
1.06376e-06
0.0273385
-1.13835e-05
-0.026593
-1.03112e-05
-0.000386083
-2.70544e-06
1.39934e-05
6.4972e-06
-0.789554
2.98941e-05
-0.329009
-9.24298e-07
0.000531815
8.90306e-05
2.51808e-05
-0.0364131
-0.0476776
0.0835067
2.43898e-05
-0.00500284
0.0544964
-5.76224e-07
-0.248201
4.80509e-05
1.98091e-05
-0.000694145
0.065391
0.0249905
0.542822
6.288e-05
0.000227304
-0.0040627
0.000504613
7.18778e-06
6.97577e-05
-0.609953
0.5182
-5.90997e-06
-0.000436663
-8.42045e-05
-7.94645e-07
-0.001894
0.000815122
-0.219939
-0.00551559
-1.53259
-1.58626e-06
-4.93186e-07
-0.00401794
-9.36304e-07
-6.28453e-06
-0.0197387
1.74045e-05
0.00401127
4.03707e-06
-0.0616477
-4.70378e-06
-9.63923e-06
0.000141511
8.28082e-06
-0.000554055
-4.16008e-06
-0.185621
-1.17581e-05
-0.00317155
-0.000421152
8.56545e-05
1.80756
-0.000415196
0.00111462
-0.0295466
1.09838
0.0720619
-0.0935222
1.41186
-0.000543606
-0.000447234
2.77018e-05
4.42424e-06
8.70018e-06
1.11032e-05
-0.00107559
-0.000386228
-0.00485345
0.000153845
-0.107992
-3.57508e-05
-3.74766e-05
-3.28671e-06
-0.000262605
0.000147196
-0.143732
-0.000406884
-1.6573e-05
-0.000125975
1.07454e-05
-0.075478
-0.00112163
0.0257232
-1.54469e-07
-7.98203e-06
4.20151e-06
-0.608645
0.0203018
-0.000294401
0.00212851
3.27325e-05
-0.00179475
0.453322
0.00010684
-0.0452193
-0.00766697
0.00174549
-0.00232758
0.000115182
0.0222039
0.0208805
0.378899
6.56673e-06
5.68713e-06
-0.000110412
-0.65519
-3.83295e-05
0.00406974
-0.00155188
-0.0204949
-0.00122688
-0.000151623
-0.102275
-1.26394e-06
3.63358e-06
1.35203e-05
-0.000136311
0.00036575
-4.9067e-06
-0.137785
-0.000815322
0.0572063
-0.000150563
-9.07138e-06
-0.0183935
0.945782
-0.302196
-8.9499e-07
3.98127e-06
-0.330962
0.399964
0.000117414
-1.26243e-05
1.21571e-05
-2.33206e-06
-1.44709e-06
0.000264203
-3.37702e-05
-0.0430871
4.09854e-07
-1.0962e-06
0.000896688
0.865871
2.55586e-05
9.10566e-07
3.14061
0.249654
-0.000439473
0.000129637
-0.087743
-0.000293174
-5.14921e-06
-3.43187e-06
-0.000483298
-7.69868e-06
-0.426235
-9.10362e-06
0.000462772
-0.0108342
-0.57542
0.0439332
-9.32732e-06
0.000117861
6.48975e-05
0.0030857
-0.000171281
0.109028
-7.67677e-06
-0.000284622
3.23189e-05
-2.65694
0.155898
6.87584e-05
2.15863e-05
-3.96392e-05
0.0119453
-2.20148e-05
0.0709486
-0.000456005
0.000420421
-6.77903e-06
-3.93773e-06
4.54582e-05
-0.000217506
-5.7718e-06
-0.00834269
1.1772
-0.000775786
-3.61842e-05
0.00168137
0.000575136
-7.36043e-05
-0.000944444
-0.000164438
0.000108011
-8.44059e-06
-0.000821776
6.77905e-05
0.0106374
-7.94665e-06
-2.38599
-1.21817e-06
0.00209199
0.00072764
1.27881e-05
0.225294
0.000113516
-0.000836925
0.00105588
1.37913e-05
-0.116274
-1.04766
-0.0729077
0.000167784
-0.463422
-4.90272e-06
0.00147104
0.107728
0.0675863
-0.180417
-3.79553e-06
0.00152951
2.10842e-05
-1.34332e-05
-0.000283958
3.55688e-05
0.000234647
-0.456904
0.0349242
-0.000138713
-0.00914677
-0.00794002
-0.00113803
-0.000484227
2.75025e-05
-0.00410687
-0.415742
-1.81024e-05
-6.45751e-05
-0.00036744
-0.000258295
-0.000319444
4.19351e-05
-0.000141753
0.000232628
0.0842828
0.00110966
7.51371e-05
-8.48966e-06
-7.00281e-05
1.99909e-05
0.000426021
-0.000157751
2.3803e-05
-0.511969
0.001438
4.34198e-05
8.40587e-06
-0.747827
0.0192054
-0.000264464
-0.167212
0.000172646
0.00965131
-7.22714e-06
-1.32455e-05
-9.42796e-05
-1.19132e-06
0.167892
3.42624e-05
6.55328e-05
-0.00227838
-2.87814e-06
-0.0697437
-0.176978
-0.505537
-4.99617e-05
-1.6539e-05
-0.00435409
-1.1316
-0.000223599
5.11671e-05
0.00593775
-5.1213e-06
-2.73035e-06
-1.35525e-05
0.000393274
-0.000182036
0.000589247
-1.32219e-05
0.000486896
-5.81153e-06
-0.170868
-0.000195234
9.85257e-05
2.50165e-05
0.117161
-0.000353731
0.460302
0.000281875
-0.000811816
-0.622496
-0.000778102
-0.000146693
-0.491685
-0.000584717
9.89745e-07
-5.86383e-06
0.00126076
-7.87449e-05
-1.37808
-1.08252e-06
-8.89818e-06
2.4982e-05
-0.45379
0.000119911
-0.0146774
-0.00117184
0.0781843
-0.00145883
1.4452e-06
0.7196
0.0012054
1.12747e-06
-6.12434e-06
3.04492e-05
1.13149e-06
-0.238055
0.000203485
-7.79907e-05
3.29831e-05
1.85202e-05
0.0532395
-5.58244e-06
-0.552833
0.202869
0.358818
-0.00643873
-0.000412597
0.00182186
-0.29237
4.39598e-05
-0.000254956
1.09449e-05
-0.00520713
0.141884
2.22158e-05
-0.00858843
0.0673141
-0.00197679
4.23265e-05
7.40871e-06
-0.000518397
0.0195499
-3.12014e-05
-0.00277044
-3.55394e-05
-0.0215624
4.39079e-06
0.0465968
3.54571e-05
7.75726
0.000241938
-0.000285973
-5.50129e-05
-0.00035535
0.335457
-1.54154
1.2658e-05
-0.323142
3.72619e-05
-0.000371354
-0.444894
1.35202e-05
0.000148265
-6.28454e-05
-0.000958729
0.694872
-0.266352
2.03322e-05
0.0662938
0.0880024
-0.0885754
-0.000131989
-1.98741e-06
-0.0523448
1.67073e-06
0.000168455
4.54422e-06
-2.06288e-06
-1.76411e-07
-5.6187e-05
6.50591e-06
0.000105062
-7.28775e-05
-0.000554074
2.57373e-05
-0.120075
4.8712e-06
-7.91707e-05
-0.000136885
-0.010503
-0.000180791
3.48035
2.78315e-05
-0.000181779
0.088585
-4.23117e-06
1.99452e-05
2.09599e-06
0.000758749
-9.34982e-07
0.316798
-3.98829e-06
0.316948
-3.74663e-06
-0.0070947
-0.178891
0.153894
2.94137e-05
-0.000486008
2.1575e-05
0.221032
1.37292e-05
0.000131582
-0.361714
-0.000343074
1.95423e-05
-8.34415e-06
0.156336
-6.16592e-06
-0.432991
0.000101744
1.63529e-05
-0.000511062
-4.43232e-05
1.62732
-0.000424862
-0.678518
0.070836
0.278061
0.315743
-1.40137e-05
2.07675e-05
-0.0182453
0.705994
-0.00221947
-0.508671
-0.000602381
0.17586
-7.82795e-05
1.19553e-05
0.102296
-0.0079554
-0.923915
1.61078e-05
0.00033763
0.227748
-9.35463e-06
-6.08546e-05
-0.000711921
0.331312
-0.00110486
9.41932e-05
2.68952e-05
-0.00429366
-0.0706077
-1.04524e-05
0.0075172
-0.0689166
-0.000562225
-2.15488e-06
-0.128794
0.0696999
2.33243e-07
5.57636e-05
4.12329e-06
0.00474183
0.167681
-7.54548e-05
-0.000117133
0.000201993
0.0014121
5.4338e-06
-9.85322e-06
0.00128111
-7.09688e-06
0.186377
-3.26033e-06
0.319331
-1.58575e-05
-0.100236
3.72717e-05
-0.240301
-0.00281409
-5.25994e-06
-0.00295442
-0.0124989
-0.00128198
0.266424
-0.00614081
-0.00730466
-0.000620947
-0.00207261
-0.000126202
3.83008e-05
-1.17275
0.405517
-6.65596e-06
-0.00020182
0.000244634
0.441145
-0.0363063
0.000128
-9.63435e-06
-0.00254432
-2.06222e-05
1.24137e-05
-0.00030243
0.000295002
0.000104741
-8.72282e-06
-0.000105233
0.000608004
5.25204e-05
-4.97286e-05
4.36761e-05
-4.75071e-05
0.959754
0.859914
-8.71675e-06
-0.000167923
1.77973e-05
-0.000102801
-0.000213101
1.45225
-2.95374e-05
0.0337624
0.0732907
-7.79804e-06
-3.8784e-05
4.91471e-06
-2.94001e-05
0.0470042
0.216408
0.00128116
-0.000153255
1.90651e-05
1.08276e-06
-0.000586059
0.000672226
-0.804557
-2.21913e-06
-9.86092e-06
0.0753201
-0.0815744
2.0755e-05
-0.000270891
1.20813e-06
-9.70986e-05
0.0511521
-0.00916569
-6.64967e-05
6.81308e-06
-1.15022
-0.0760386
0.348385
-5.16478e-05
-7.26339e-05
-0.000967382
0.00163954
-0.000392546
0.0645412
-0.000152097
1.74205e-06
0.000475744
1.44161e-05
-0.0447654
4.25597e-05
1.56445
-0.00419317
-0.0445553
-1.99069e-06
5.69448e-05
-0.176057
-1.10164e-05
-6.3878e-05
-0.0756389
1.10012e-05
-1.10479e-06
-0.000159142
-0.0416648
-0.000334276
1.37776e-05
-0.0006869
1.21836e-06
-7.02651e-06
-0.000309337
5.4654e-06
1.40104
0.438126
0.000245986
-0.00154786
-2.10483e-06
0.125514
-9.43423e-05
-0.00104547
-6.88935e-05
-0.0663554
6.85427e-06
-0.960291
-0.00433398
-0.0531958
1.75086e-05
-0.000789173
0.000282303
-0.00230847
2.20316e-06
-0.0386204
-0.432595
-0.00173322
-0.0191134
2.21635e-05
-1.93367e-05
0.672948
-0.00011252
-0.543299
0.865578
0.000307315
-0.230327
-5.23067e-05
0.02685
-4.41122e-06
-0.000490326
-0.346745
-0.000143451
-3.38374e-05
0.538788
2.13242
1.19076e-06
2.16184e-05
4.29044e-05
-1.55362
3.97388e-05
0.0284939
-0.000446208
-7.27017e-05
0.00367841
0.000122538
-0.00057068
-6.90154e-05
7.6449e-07
0.000134597
-0.0405675
-0.00327089
-1.25979e-05
-0.00149174
-0.0124386
-9.56071e-07
2.38333e-06
-0.00010628
0.0603311
0.0796271
0.39372
3.71151e-06
-0.157528
-0.0527848
-5.79548e-05
-0.0824298
1.36561e-05
-0.0105889
-1.893e-06
0.00289847
0.317898
0.549487
-0.0446573
0.500831
-1.85665e-05
0.000200537
1.08556e-05
-7.17208e-05
0.319915
0.000136253
0.0363395
-0.510904
-1.97517e-06
-3.47216e-06
-0.0012099
4.82054e-05
-0.175475
9.16853e-06
-6.83269e-06
0.000141324
-0.0495095
6.07839e-05
-0.00356927
-8.53033e-05
0.000344808
0.000243065
0.000680434
-0.00767573
-1.34551e-05
2.9108e-08
-4.41458e-06
-0.276947
-0.000202558
-0.00145219
-0.000449129
-0.000928111
0.311223
0.000195705
-6.35315e-05
0.000533075
0.000323546
-0.0533029
-0.000460426
-1.25064e-05
-0.0024286
-9.84402e-05
-0.000193178
-0.000237926
0.00161424
0.314817
0.000230471
-0.0945054
-0.0845387
0.000715274
0.0908452
-0.877857
0.0421775
0.0246918
0.000117872
-8.05083e-06
-0.00609819
-0.000217145
0.000442787
-1.1461
-0.11712
-1.31906e-05
-0.000268806
0.000794426
0.000429378
-0.000197444
4.76089e-05
4.56287e-05
-0.00117719
-0.0417876
-0.0599897
-0.870704
-0.0706895
3.74803e-05
-5.50797e-05
-0.0125439
2.50973e-06
0.29308
-0.00207364
-0.000317698
1.11881e-05
-0.000840404
0.0649009
-2.25896e-05
-1.55354e-05
-3.91656e-06
-0.000695018
-0.0664141
9.49401e-05
0.165431
0.00648023
2.07445e-06
0.041726
0.353626
-4.13813e-05
6.32787e-05
-9.36889e-06
-0.00044471
-0.00540732
-0.0198378
0.0748707
-0.0480073
-0.000764391
0.000225842
0.0378458
0.000597182
0.0240043
3.00838e-05
0.00285466
0.432262
3.85353e-05
-1.02162
0.756971
0.783625
-0.00220464
0.358273
-9.53033e-05
0.000966484
-0.00526303
0.0472038
-0.00297202
0.000236994
2.67478e-05
0.000137348
0.234053
7.74087e-06
-6.13341e-06
-0.225254
-0.000712541
-0.255803
-0.0067181
0.00257375
0.0298426
0.218636
-0.0590578
5.21714e-06
6.86127e-05
0.000593086
-0.736788
0.515484
0.00709545
-0.000218638
-0.00199736
0.000592739
-0.76916
1.15402e-05
0.0478177
0.00212526
-0.0429031
0.000819716
0.135666
1.64749e-05
3.13367e-06
-4.78999e-06
1.21408e-06
1.57036e-05
2.85205e-05
-1.38518e-06
-3.36934e-05
0.0128359
0.0741677
4.68739e-05
-0.00033951
2.48116e-05
0.0428255
-0.0947076
-0.000499094
3.38739e-05
0.206781
-0.0914559
-0.848204
1.84812e-06
-0.00928525
0.000385975
-0.106682
-3.45583e-06
0.0702159
0.629765
0.00108277
-1.25726e-06
6.07187e-06
1.21246e-05
0.00848955
0.00229377
-0.00362475
0.00193151
0.000771225
-0.291576
-7.65242e-06
-0.0432532
-2.79788e-05
0.0944099
-0.486288
-6.56606e-07
4.2416e-06
0.0414691
-1.17354e-06
-8.86272e-05
4.81423e-05
-0.000240454
0.00195552
1.8069e-05
-0.00231699
-3.20224e-06
-0.0145807
0.324767
-0.000656175
-9.51918e-06
-9.1139e-06
-0.00239567
-0.0524695
0.00013253
-0.000157789
-0.000144851
-0.00452194
-7.98287e-06
0.0536018
-0.0702214
-0.0117405
0.0105404
-0.00175974
-0.000382679
-0.000133351
0.197376
-0.000678834
-0.000101204
-1.5856
0.0496948
7.63981e-05
-3.68823e-06
-0.00209317
-9.35925e-05
-0.000487025
-0.170809
-0.00487455
-3.70818e-06
-1.66868e-06
-0.625466
-0.323233
0.0150132
-0.00062444
-0.000312621
-0.370673
-0.616579
-2.1975e-06
-1.09447
2.39649e-05
-7.46504e-05
-9.37191e-06
0.102993
0.127144
3.13571e-07
0.200235
8.46171e-07
0.0125117
0.098336
-5.09334e-05
-6.10222e-06
-0.000440698
-3.66727e-06
-3.3839e-06
-14.0582
2.31398
8.80215e-06
-0.00182328
-0.000443191
0.000193494
2.59411e-05
-0.00150479
1.82498e-05
0.0257744
-0.00437673
-5.73972e-06
4.27458e-05
-4.24317e-06
0.000295268
-0.000202371
-0.00173013
5.93859e-05
0.807431
0.00317078
0.0130559
-0.00159881
0.000133953
0.00353447
0.0038818
0.000137026
2.75522e-05
-0.001026
8.78431e-05
-0.000458713
0.048207
0.00376823
-0.00019051
-0.000745585
-8.21775e-06
-2.41408e-06
0.00477505
0.000904004
-0.00473792
0.000145187
-0.0485921
-0.682691
-0.0040194
-0.000517392
0.0384542
0.260295
-0.00543661
-0.0213899
0.000444763
-0.968452
-0.000256207
1.18883e-05
-9.08972e-06
-4.71418e-06
0.00029632
3.03053e-05
2.71177e-05
-0.030772
-7.71994e-06
1.40877e-06
0.012235
0.62276
0.000486343
-0.00046189
-0.00501879
-0.000563237
7.37052e-06
0.00151804
-9.50643
0.00655584
-0.00273223
-0.00017436
-0.000904917
-3.66994e-05
0.00425052
-8.66128e-05
0.000153807
-0.00367423
-0.00391063
0.00360044
-0.000448035
6.49808e-05
-4.03028e-05
8.75298e-06
0.0888341
-0.00233448
-0.000427361
1.3272
0.512362
-8.40801e-07
-0.0021797
-0.00162861
-1.9123e-05
0.0489479
-7.45076e-06
0.00049649
0.00938042
-0.0104239
2.54472e-05
-2.76026e-05
-0.000843787
0.000115672
-0.000285303
-0.00396177
0.0762689
0.704937
0.779975
-0.0142642
0.62804
-0.000746749
3.5171e-05
-0.000830834
3.30519e-05
-0.000276495
0.00604911
0.0695323
-0.00147921
-2.55148e-05
0.0777098
-4.11863e-06
-3.4047e-07
0.000179828
1.07096
-7.48913e-06
0.0001202
0.000865622
-1.05366e-05
4.54352e-06
0.00902566
-4.37417e-06
-0.0017691
-0.00517177
-0.130603
8.75377e-06
-0.00163958
0.162825
-0.00248062
-0.00181614
2.32052e-05
-0.000178582
0.0310744
-0.352464
0.0409108
-3.17818e-05
-0.930853
0.000734299
-5.48429e-06