/*--------------------------------*- C++ -*----------------------------------*\
| =========                 |                                                 |
| \\      /  F ield         | OpenFOAM: The Open Source CFD Toolbox           |
|  \\    /   O peration     | Version:  v2012                                 |
|   \\  /    A nd           | Website:  www.openfoam.com                      |
|    \\/     M anipulation  |                                                 |
\*---------------------------------------------------------------------------*/
FoamFile
{
    version     2.0;
    format      ascii;
    class       volVectorField;
    location    "50";
    object      ddtCorrDdt0(U);
}
// * * * * * * * * * * * * * * * * * * * * * * * * * * * * * * * * * * * * * //

dimensions      [0 1 -2 0 0 0 0];


internalField   nonuniform List<vector> 
14315
(
(0.00290081 0.00506238 -5.03507e-21)
(-0.0425837 -0.0209078 -8.11945e-20)
(-0.00300908 -0.00632204 2.91122e-21)
(0.00120863 -0.000663065 -9.76027e-21)
(0.00290384 -0.001196 -2.88768e-20)
(0.000157893 -0.000416059 7.55834e-21)
(0.000653388 -0.00260115 7.05287e-22)
(-0.00443441 -0.00214688 -1.73587e-20)
(0.00438391 0.00673564 1.44146e-19)
(-0.00776073 0.00347432 0)
(-0.0023925 0.000795841 -3.63353e-21)
(0.0415713 -0.027963 -1.18335e-20)
(-0.07722 0.0414725 -2.70924e-21)
(0.000592497 -0.000624649 2.53139e-20)
(0.00042282 -0.00270973 0)
(-0.00127698 -0.00160393 3.33489e-20)
(-0.000524164 -0.0003971 -2.4239e-20)
(0.00999237 0.00143489 5.00019e-20)
(-0.00147525 0.000817068 -5.01093e-21)
(-0.00140498 -0.00140547 0)
(-0.00165481 -0.0052612 0)
(-0.000823403 6.59405e-05 0)
(0.00151782 0.000137293 -5.28704e-22)
(-0.00261422 0.00204164 1.06168e-20)
(0.0187855 0.0072896 -2.75478e-19)
(0.000642325 -0.00068986 -1.88251e-20)
(-0.0220698 -0.0150946 2.44986e-20)
(-0.0060796 0.00710935 6.58858e-21)
(-0.0269581 -0.0171708 0)
(0.000457047 0.000194334 0)
(0.000653624 -0.00113923 0)
(0.000551869 0.000487693 7.34133e-21)
(-0.0215248 -0.0166668 6.97054e-20)
(0.00226374 0.00176571 -3.42559e-21)
(0.000852336 -0.00390816 -5.6018e-20)
(0.000470022 0.000545495 -6.54143e-21)
(-0.000569296 0.000919978 -4.59219e-21)
(0.000110909 -0.00341105 0)
(0.00191868 -5.20511e-05 6.05838e-22)
(0.00121124 -0.000639358 7.80618e-20)
(0.00503396 0.00522447 -1.00623e-19)
(0.000304546 -0.00132966 -5.7451e-20)
(0.0107728 -0.00553992 5.01991e-20)
(0.00155871 -0.00478974 -6.39592e-20)
(-0.0130508 0.00955404 1.63048e-20)
(0.00245953 0.000869011 0)
(-0.00257741 -0.00554507 0)
(-0.00452288 0.005101 -1.85648e-20)
(-0.00196949 -0.00169172 7.09403e-20)
(0.0106024 -0.00570559 -2.00085e-20)
(-0.000543716 0.000829559 0)
(-0.00618553 -0.00364654 -4.16587e-22)
(0.0011863 0.000469023 -3.26436e-21)
(-0.00165294 0.00185024 1.08465e-20)
(0.00129848 0.000638672 -3.79802e-21)
(0.000979575 -0.00290016 0)
(0.0181989 -0.173119 2.40943e-20)
(-0.00303786 0.00332194 0)
(0.000611855 -0.00064071 0)
(0.0152585 -0.00931848 -4.62499e-19)
(-0.00158278 0.00174969 -9.25e-21)
(0.00237407 -0.000197041 3.6812e-20)
(0.000211387 -0.000464328 0)
(0.000986565 0.00116136 2.16303e-21)
(-0.000927932 -0.00051046 -1.73798e-20)
(-0.0014445 -0.00029099 0)
(-0.00246854 -0.0079329 -5.78397e-21)
(0.000549187 -0.0015698 0)
(-0.000185042 -0.00433114 0)
(0.000448118 0.000522053 -7.89186e-21)
(-0.000377633 0.00194769 3.10907e-21)
(0.00115968 0.001201 0)
(0.00031187 0.00220744 2.88575e-21)
(-0.000617373 -0.00291994 -1.27617e-20)
(-0.000668708 -0.000288396 1.5728e-20)
(-0.00918967 -0.00175061 -4.97333e-21)
(0.00111335 0.00146443 0)
(0.00669759 0.0065461 2.74383e-20)
(0.000490412 0.000288105 6.21216e-21)
(0.00205272 -0.00372665 -6.20515e-20)
(-0.0011507 -6.30699e-05 2.01593e-20)
(-0.0809252 0.301974 0)
(-0.00190897 -0.00162973 -2.11985e-20)
(0.00123422 0.00122082 0)
(0.00118296 0.000190593 -2.42954e-21)
(-0.122284 -0.0598849 2.53771e-20)
(-0.0144375 0.00838122 4.9644e-22)
(0.000781058 0.00236905 0)
(0.000858084 0.00212085 0)
(-0.000120912 0.00262563 -3.03068e-21)
(-0.00448605 -0.000244218 -1.57638e-20)
(0.00609106 -0.000826422 -1.40059e-19)
(-0.067016 0.0286852 0)
(0.00022473 -3.33026e-05 0)
(-0.000631932 -4.68303e-06 -6.65555e-21)
(-0.0011991 -3.91364e-05 -2.3481e-20)
(0.0011706 -0.000152486 -2.20858e-21)
(-0.00275105 0.00209959 1.85646e-22)
(3.08299e-05 1.21646e-05 0)
(0.000291209 -0.00117967 2.54325e-20)
(0.000367208 -0.000332129 0)
(0.00232381 0.000649853 1.03573e-21)
(0.00145885 0.000147281 1.3079e-21)
(0.00680116 -0.0023131 0)
(0.000879954 0.00159746 0)
(-0.000872124 -0.000857483 2.38503e-20)
(0.00119599 -0.000828344 -4.02713e-20)
(-0.00010012 -0.000278792 -2.71891e-20)
(0.0023364 -0.00389688 5.81978e-21)
(-0.00404315 -0.001512 0)
(0.00989597 0.0016103 0)
(0.00145829 -0.00392634 -4.34777e-20)
(-0.0117828 0.0116935 -1.53767e-20)
(-0.0190927 -0.00646619 4.0979e-20)
(-0.000787081 0.000200162 -2.77204e-20)
(-0.00565945 -0.00410175 3.98631e-22)
(0.0139614 -0.0125491 -3.60867e-20)
(0.000368432 -0.00410132 3.66983e-20)
(0.0201339 -0.0077424 0)
(-0.0887457 0.250707 1.25156e-19)
(-0.00290013 0.00229694 5.80372e-21)
(-0.00054102 -0.000397265 2.10539e-20)
(-0.00135828 0.000917395 8.95578e-21)
(3.57878e-05 0.0115427 -5.91996e-20)
(0.00326076 -0.00335217 -8.65141e-20)
(-0.00110027 -0.000805127 9.51578e-21)
(0.0693819 -0.0237659 -3.61018e-21)
(0.00595201 0.00805789 4.32587e-21)
(0.000545639 -0.00234232 0)
(0.000250456 -0.000470445 0)
(0.00133244 -0.00190854 0)
(-0.0301307 -0.0399529 0)
(0.0460452 -0.0723777 -4.42128e-20)
(-0.00820489 0.160787 1.21218e-21)
(-0.00956007 -0.00735832 -2.82725e-20)
(0.000511703 -0.00248429 0)
(0.00465228 0.0104253 -5.67342e-21)
(-0.0215004 -0.00501732 -2.99411e-20)
(-0.0683667 -0.0240214 0)
(0.0793642 -0.0109615 0)
(-0.0158829 0.00515044 3.58009e-20)
(0.00208991 -0.00206901 -1.38002e-20)
(0.000412393 0.000276514 0)
(-0.0234757 -0.0687515 0)
(0.0116733 0.0168459 5.09337e-20)
(-0.000713382 -0.00270007 1.19788e-20)
(-0.0133729 0.0156949 -5.6167e-21)
(-0.00237015 0.00360433 -3.0716e-21)
(-0.000373943 -0.00256218 0)
(-0.0038712 -0.00302409 0)
(0.00030225 -0.000401062 3.81009e-20)
(0.00215475 -0.000157216 -1.13062e-22)
(0.0015091 0.00132911 -2.11414e-21)
(0.00154203 -3.20961e-05 -5.72324e-23)
(0.00151697 -0.00239171 -1.24212e-21)
(0.00218922 -0.00369313 -4.62811e-21)
(0.00185289 -1.82157e-05 -3.29535e-20)
(0.00175435 -2.63686e-05 5.04075e-24)
(-0.00148506 -0.222331 0)
(0.00207893 -0.00288839 1.35652e-20)
(0.00122187 -0.000154644 -4.46245e-20)
(0.000784752 -0.000717528 -2.28562e-21)
(-0.000438417 0.0358356 -2.04618e-20)
(-0.000350999 -0.00152781 -6.21092e-20)
(0.00128272 8.01982e-05 0)
(-0.141622 -0.0467814 3.35267e-20)
(0.00189618 -4.9462e-05 0)
(0.00111344 -0.000936316 -8.10096e-20)
(0.000442123 6.7735e-05 3.19401e-21)
(0.000175734 -0.000330399 0)
(0.020037 -0.0112925 0)
(0.00430566 -0.000137498 4.01734e-20)
(0.025866 0.00743524 1.64925e-20)
(0.00498036 0.00107141 0)
(0.00696555 -0.00614963 0)
(0.0531332 -0.0036161 -2.05599e-20)
(0.0381685 -0.0363717 0)
(-0.00117244 -0.000375349 -4.57679e-20)
(-0.00603391 0.00577249 -1.11274e-20)
(-0.012658 -0.00864527 9.02765e-20)
(-0.0330368 -0.0877976 0)
(0.00334622 0.0130132 1.63331e-20)
(0.000267082 -0.000443755 -3.98647e-20)
(0.0155971 -0.0147571 0)
(-0.000139195 -0.000261953 -4.03852e-20)
(-0.0623309 0.434322 -1.80888e-19)
(0.0135432 -0.00440098 1.05711e-20)
(0.0153577 0.0123237 -1.9989e-20)
(0.000637939 -0.00732737 7.53492e-21)
(-0.000428377 -0.00193067 1.78045e-20)
(-0.00418388 -0.00423764 -1.53604e-20)
(-0.00856619 -0.242563 0)
(-0.00340838 -0.0170811 -2.92465e-20)
(0.00213346 -0.000258479 -5.50793e-24)
(-0.00239397 0.000442252 0)
(0.00304555 -0.00612997 -4.95303e-20)
(-0.0283711 0.0240376 0)
(0.000419769 -0.000344495 1.99155e-20)
(0.0011669 0.00193874 5.47552e-20)
(0.00102912 -0.00201597 6.23288e-20)
(-0.0334972 -0.0178728 -3.7539e-20)
(0.000341224 -0.000506149 -3.41578e-21)
(0.00299134 0.000786112 0)
(-0.000668587 -0.00257691 -3.51292e-20)
(0.00107955 -0.000279789 3.73149e-20)
(-0.00113546 -0.000883477 -3.76713e-20)
(-0.00386964 -0.00507352 2.93245e-20)
(0.00165012 -0.00460162 1.13743e-19)
(-0.000269025 -0.00225253 0)
(0.00216845 -0.000282322 -1.39724e-22)
(-0.000592511 -0.00548365 -7.31063e-21)
(-0.000592196 -0.00302643 2.03392e-20)
(-0.00206319 -0.0059967 0)
(0.00109529 -0.000785695 1.69775e-20)
(-0.0101762 -0.000863349 -6.05364e-20)
(0.00106728 0.000706726 0)
(0.00267882 -0.00306943 0)
(0.000212925 -0.000523631 0)
(0.000273399 -0.000278828 0)
(0.000432574 0.000127474 -3.0979e-21)
(0.00158881 -0.00285219 0)
(0.00114446 -0.00354873 -1.78969e-20)
(0.00318628 -0.00200147 0)
(0.0566997 -0.154715 4.54267e-20)
(0.00814202 0.00251191 -5.43524e-20)
(0.00115581 -0.00102425 0)
(0.0161519 -0.00405872 2.12835e-20)
(-0.000426126 -0.00102345 3.04405e-20)
(-0.00140671 0.000920391 -1.45283e-20)
(0.000836096 0.000868312 0)
(0.00231316 -0.00481683 2.46248e-20)
(-0.0299413 -0.085113 -1.14107e-20)
(-0.00327891 -0.00365831 0)
(0.00234632 -0.00346723 9.4606e-22)
(0.00244394 0.000568614 -4.6672e-20)
(0.00367745 0.00213558 0)
(0.0013563 -0.004192 1.06944e-19)
(0.00783073 -0.00336316 -4.02406e-20)
(-0.00426896 -0.0177371 -2.08535e-20)
(0.00206497 0.00090966 -2.10293e-20)
(0.0073095 -0.154473 1.71702e-20)
(0.000119288 -0.00142035 -2.9547e-20)
(-0.00146583 -0.000276564 0)
(0.0244422 -0.0366574 0)
(0.0021656 -0.00474629 0)
(-0.00264618 -0.00514584 -1.04141e-21)
(-0.0228072 -0.17328 1.23134e-20)
(0.00194677 -0.000768829 0)
(-0.00138228 0.000830555 1.09717e-20)
(-0.001263 0.000100019 1.68411e-20)
(0.00180252 -0.000697881 -3.81365e-20)
(-0.000585624 0.00217997 -3.16781e-21)
(0.00192828 0.00156551 -2.32481e-20)
(-0.00057343 0.000934626 -9.58135e-21)
(-0.00443515 -0.00247778 2.55136e-21)
(-0.019565 -0.0860387 -2.08674e-20)
(0.00135987 8.38258e-05 0)
(0.00193356 -0.00239895 5.77066e-20)
(0.00944915 0.0149914 0)
(-0.000767493 -0.00242389 0)
(-0.0599314 -0.0115202 -2.21062e-21)
(0.00278448 -1.70228e-05 -5.91921e-20)
(0.00101311 0.00158465 0)
(0.000433359 0.00501123 5.02831e-20)
(0.000467697 -0.000564823 9.33568e-20)
(0.00243615 -0.0048688 0)
(0.0192292 -0.0356459 -1.85261e-20)
(-0.0426713 -0.0750975 0)
(0.000483679 0.0027016 -4.84927e-20)
(0.000528847 -0.00151421 0)
(-0.0751308 -0.148747 6.28284e-20)
(0.000184444 -0.00012772 0)
(-0.00115557 9.28989e-05 -1.40161e-20)
(-0.00353627 -0.00730386 0)
(0.000774314 0.000132354 2.26019e-21)
(0.00104253 -0.00233266 -7.26196e-22)
(0.00369806 -0.00814605 7.34344e-20)
(0.00220232 -0.0001304 2.17796e-22)
(0.000983781 -0.000447217 7.8056e-22)
(-0.000331584 0.000965332 2.54636e-20)
(-0.000729597 -0.000277416 1.71349e-20)
(-0.000420393 -0.00117745 6.50825e-20)
(-0.00216355 -0.00124653 -2.60725e-23)
(0.000786282 -0.00166738 0)
(0.00300693 -0.00097501 5.94833e-20)
(0.00456558 0.00284114 -7.36904e-20)
(-0.0712854 -0.0342566 2.61739e-20)
(0.000970325 0.00224728 1.26848e-20)
(-0.000658666 -0.000952165 1.91528e-21)
(-0.000917052 0.00188757 -1.05466e-20)
(-0.00159949 -0.00778433 7.85501e-20)
(0.000348175 -0.000454738 -3.87715e-20)
(0.00123557 8.23943e-05 1.93446e-22)
(0.00237663 -0.00273533 0)
(0.000476144 0.000330068 0)
(0.000816169 -0.000762591 3.8902e-20)
(0.00226338 -0.00239831 -1.17089e-21)
(-0.00254741 0.0340559 0)
(0.000382666 -0.000566432 -2.10236e-20)
(-0.0102087 -0.0826708 0)
(-0.00035194 0.0125433 0)
(0.00055694 -0.000564811 -1.35096e-20)
(0.00060447 -0.000621217 -7.24953e-20)
(0.0118916 -0.00444018 3.50484e-20)
(0.00144468 -0.000537378 0)
(0.00151354 0.00134445 0)
(0.00687022 -0.00293818 2.15941e-20)
(-0.00146331 0.00905103 -4.01407e-20)
(0.000683391 -0.000414697 -6.69965e-20)
(0.000108052 -0.000426863 1.19604e-20)
(0.000182808 0.000304414 -1.67441e-21)
(0.000242057 0.000275805 -2.92842e-21)
(0.00105245 0.00723647 -1.62271e-20)
(-0.00417632 0.000487132 0)
(0.0167814 -0.0175886 1.19688e-20)
(0.00425271 -0.00458742 1.59956e-19)
(-0.107759 0.125781 1.77751e-20)
(-0.0622341 -0.00470735 -2.30594e-20)
(0.000773571 0.000146188 1.1133e-21)
(0.0100151 0.00263339 -8.80642e-20)
(0.000886834 -0.000641011 0)
(0.000355365 -0.000999022 -4.92973e-20)
(0.00186747 -0.00408589 -3.59936e-21)
(0.000320535 -0.000597813 0)
(-2.06228e-05 0.00234291 0)
(0.000813681 0.000940613 0)
(0.000784165 0.00701849 1.51216e-19)
(-0.00094933 -0.000408632 4.71971e-20)
(-0.0230494 0.064476 1.13246e-20)
(0.0016017 -0.00126863 -3.04936e-22)
(0.0107835 0.000194105 4.91283e-20)
(0.00480636 -0.0034542 8.65244e-20)
(0.00623435 -0.0013069 1.4248e-19)
(0.00430634 0.000321731 -1.73614e-20)
(0.0130847 -0.0257649 0)
(0.000354567 9.61927e-05 4.92492e-22)
(0.00115521 0.00284752 0)
(0.00083744 -8.45924e-05 0)
(0.00906795 -0.00882504 -1.12112e-20)
(0.00237028 -0.00479472 2.07302e-20)
(0.000138433 -0.00120972 0)
(0.0233186 -0.0153334 2.33682e-20)
(0.00463635 0.000310947 -1.30758e-19)
(0.00777621 -0.00294917 5.01343e-22)
(0.000360126 8.66181e-05 5.30103e-22)
(0.00990215 0.00222764 6.08822e-20)
(0.00556717 0.0339866 0)
(0.00444413 0.00505907 -4.28043e-20)
(-0.000587982 0.000788397 0)
(0.00255781 -0.00608626 3.53136e-20)
(0.0153997 0.0234608 7.94409e-19)
(0.00185234 -0.000929775 4.07206e-21)
(-0.000477407 -9.43522e-05 -1.67952e-20)
(-0.00059907 -0.00133605 8.14541e-23)
(0.000692633 -0.00103986 -8.71145e-20)
(-0.0148816 0.0178925 6.51573e-22)
(-0.000190804 -0.00126124 3.31969e-20)
(0.00974952 -0.0254843 -1.82246e-21)
(-0.0305782 -0.0959319 0)
(0.00243924 -0.00191424 1.86421e-21)
(-0.000320293 -0.000682374 0)
(0.00707074 0.0340518 0)
(0.000768208 0.000331666 0)
(0.000831586 0.00225113 -7.27078e-21)
(0.000738845 0.000372398 0)
(0.000552772 0.00176539 0)
(-0.00357132 -0.00270138 0)
(-0.00614933 -0.0113478 0)
(0.00999809 -0.00245681 4.53852e-20)
(-0.00106341 -0.000367757 2.33632e-20)
(-0.00398786 -0.0151535 3.9509e-21)
(0.0222872 0.0129435 -8.56796e-21)
(-7.71961e-05 0.000369715 -3.19102e-20)
(0.0050516 -0.00448635 -1.09566e-19)
(0.00134027 9.82787e-05 -1.06462e-22)
(-0.000991564 -0.00172295 1.87026e-20)
(0.0837748 -0.0124736 0)
(0.0226228 0.0136242 0)
(0.00112225 -0.000984372 -3.90448e-21)
(-0.000648034 0.00256714 0)
(0.0209769 -0.0221404 -1.92457e-20)
(-0.00214775 -0.00134878 0)
(0.00395171 -0.00635312 -6.07802e-20)
(0.0197388 -0.052731 -4.91249e-21)
(-0.000301081 -0.00128335 -9.25834e-22)
(-0.00694177 0.00239845 1.56089e-20)
(0.00223077 0.00416301 0)
(0.00764983 -0.00155987 -3.38665e-20)
(0.00188589 -0.0514491 0)
(0.00192113 -0.00386589 -6.65954e-20)
(0.00824833 -0.00855441 1.34005e-20)
(0.0168357 -0.011084 1.87504e-20)
(0.000810675 0.00134483 -2.20104e-21)
(0.00136074 0.000113985 -9.34945e-23)
(-0.0137462 -0.00579606 0)
(0.00179189 -2.54009e-05 -8.45566e-22)
(-0.00109286 0.000138171 1.19451e-20)
(0.00324704 0.00232724 1.87976e-20)
(-0.0125197 -0.00386107 0)
(0.0257737 0.0760806 0)
(0.000494682 0.00187717 -2.95338e-21)
(-0.000883022 -0.000772704 -2.31865e-20)
(0.0478361 -0.0377701 5.91419e-21)
(0.000983783 -0.000859917 -5.66751e-20)
(0.0150905 -0.00813543 -4.23773e-20)
(0.00176035 -0.00441304 0)
(-0.0336239 -0.106656 -1.49046e-20)
(0.000601448 -0.00349873 -3.14118e-20)
(-0.00644697 0.00259134 1.42738e-20)
(0.000687665 -0.00262287 -2.68023e-20)
(0.000645849 0.000475029 -5.37037e-21)
(-0.0011555 -0.00184207 3.75464e-20)
(-0.00136403 0.000179858 8.59286e-21)
(0.001424 0.0272321 7.77119e-21)
(-0.00039013 -0.002571 -3.20359e-20)
(0.012342 0.00576123 2.17657e-20)
(0.0189437 -0.00320715 -1.79594e-20)
(-0.0101806 0.00816971 0)
(0.00792629 -0.000419137 0)
(-0.04873 -0.0836165 -1.96992e-21)
(0.0028724 0.00325003 1.97048e-21)
(0.00613477 0.00578819 -4.06367e-20)
(0.00203548 -0.0027983 6.02527e-20)
(0.000529084 -0.000580738 -6.84365e-21)
(0.00250038 -0.000658676 4.26752e-23)
(0.00032254 0.00919585 4.61688e-20)
(-0.00524659 0.00525251 -1.29305e-20)
(-0.000518787 -0.00314042 0)
(0.00110337 0.00332055 0)
(-0.0302087 -0.0132415 -1.59864e-20)
(0.000851586 -0.00735933 -5.33144e-20)
(0.00794293 -0.00207619 -1.90176e-20)
(-0.00111673 -0.000649017 5.63998e-21)
(-0.0192097 0.0412008 0)
(0.0303983 -0.0119945 3.80612e-20)
(0.000616013 0.000492702 1.879e-21)
(0.00574668 0.00547897 2.30428e-21)
(0.00165049 -0.00335708 4.51449e-20)
(-0.00532819 0.00137146 -7.42627e-21)
(0.000197989 -0.000259498 0)
(-0.0132858 -0.00995307 0)
(0.000423727 0.000328303 4.32446e-21)
(0.00035043 -0.000469991 1.34569e-20)
(0.00476458 -0.00241239 0)
(0.013023 -0.00539832 -7.90247e-20)
(-0.000389054 -0.0067807 -1.09728e-20)
(0.000443661 0.000328353 -6.54839e-21)
(0.000375638 0.000400988 -5.83278e-21)
(0.000128082 0.000105422 5.19983e-21)
(-0.000977746 -0.00102045 -1.25201e-22)
(0.0213531 -0.00758093 -1.33992e-20)
(-0.00111201 -0.000796548 -2.45109e-20)
(-0.0635854 0.0312555 0)
(-0.0460501 -0.110754 0)
(0.00039429 0.000433921 0)
(0.0797775 0.0468325 -1.08942e-19)
(0.00212555 -0.000213449 0)
(0.00201955 0.00179212 6.30262e-21)
(0.00252264 0.00276493 -1.09329e-20)
(0.0112453 -0.0456623 -2.95402e-20)
(-0.057251 -0.158093 7.16881e-21)
(0.00183948 -3.37919e-05 1.10337e-21)
(0.00172515 -0.00177502 -1.02494e-19)
(0.020725 -0.0117665 -1.2118e-20)
(-0.0159509 -0.010339 1.74565e-20)
(0.00219539 -0.000190106 0)
(0.00899319 0.00143796 -5.96959e-20)
(0.00514013 -0.00201202 9.32673e-20)
(0.0202195 0.105423 1.12342e-20)
(-0.000382036 0.00361615 0)
(-0.00805492 -0.00897291 -2.74847e-20)
(0.0167932 0.0127559 8.77052e-21)
(-4.479e-05 -0.00254016 0)
(0.00259696 -0.00217042 3.07424e-20)
(-0.00165578 -0.000231693 1.70369e-20)
(0.00060271 0.00113052 1.13406e-19)
(0.0018476 -0.00424701 9.64282e-20)
(-0.0280912 -0.136908 7.0866e-21)
(0.0011743 -0.000628452 1.08741e-20)
(-0.00119699 0.00332716 -4.01399e-21)
(0.00242715 -0.00275342 -1.50702e-23)
(-0.000480013 -9.21895e-05 0)
(-0.0672748 -0.00614952 -5.07838e-20)
(0.0108869 -0.0216902 0)
(0.00101082 -0.000706212 3.54095e-21)
(-0.0376401 -0.0173349 2.02866e-21)
(-0.0124463 -0.00680129 0)
(-0.00253226 -0.00105367 -1.54963e-20)
(-0.0484899 -0.0306975 7.18561e-20)
(0.00441019 -0.000489722 0)
(0.00754433 -0.00236263 3.1329e-20)
(-5.51995e-05 -6.76729e-05 -3.54051e-21)
(-0.00110691 -0.00080277 0)
(0.0115392 -0.00109108 0)
(0.0064652 -0.0229918 1.8526e-21)
(-0.00641281 0.00376857 1.30798e-20)
(0.00293161 -0.0012282 0)
(-0.00386033 -0.00198193 1.75429e-20)
(0.00362348 0.000763698 -7.68804e-20)
(-2.97791e-05 -2.95113e-05 -3.50089e-20)
(0.0688463 0.044837 3.37491e-20)
(-3.57691e-05 0.00245212 2.86516e-21)
(-0.215966 0.11561 0)
(-0.00121261 0.000113387 -1.3494e-20)
(0.0467771 0.0698553 0)
(-0.000831666 0.0016731 -3.60274e-21)
(0.00243633 -0.00076042 0)
(0.000801293 -2.07311e-05 -9.17694e-22)
(0.00123942 0.000926212 -1.40626e-20)
(0.000834063 0.00131182 9.45419e-21)
(-0.0115109 0.0375745 -1.23813e-21)
(0.00134827 -0.00311604 0)
(0.00291113 -0.000307114 5.23672e-22)
(-0.0280654 0.34616 3.44428e-19)
(-0.00783678 -0.00239487 -1.55771e-20)
(-0.00548791 0.00140928 -3.83601e-20)
(0.011779 0.0092164 -1.38348e-20)
(0.0492274 -0.0140228 -5.23234e-21)
(0.00202315 -0.000124321 1.13538e-21)
(0.00408119 0.00387478 0)
(0.00200996 -8.16986e-05 -7.98122e-22)
(-0.000863626 -0.00485573 1.32447e-22)
(0.00279438 0.00313615 0)
(0.00905708 0.00149166 -3.20322e-20)
(0.00224234 0.0297691 -1.11181e-22)
(0.0375652 -0.0139666 -3.52481e-20)
(8.03529e-05 -0.000531655 0)
(0.00130189 -0.00227213 9.14463e-20)
(0.010051 -0.000485828 -5.43887e-20)
(-0.00124051 3.47534e-06 -1.91052e-20)
(0.0118544 -0.0118782 5.14412e-22)
(0.0253545 -0.0011708 1.52112e-21)
(0.000331288 -0.00115046 0)
(-0.000875303 0.000761978 0)
(0.000509933 -0.00509253 0)
(-0.00258465 -0.00127509 3.26731e-20)
(0.000665733 -0.000995291 -1.12515e-19)
(8.19478e-05 0.000215711 0)
(0.00162463 -0.00324815 6.94884e-20)
(0.000119717 0.000298971 2.12381e-21)
(-0.00122108 -1.71792e-05 1.87192e-20)
(0.00941316 -0.000775379 2.70798e-20)
(0.011717 0.0327115 3.0842e-20)
(0.00130756 0.00164945 0)
(0.00130722 -0.00383435 0)
(0.00123357 0.00119087 0)
(0.000311838 5.69048e-05 -3.88982e-21)
(0.000176632 -0.000298361 3.10837e-20)
(0.00547215 0.00255377 9.51467e-20)
(0.000644413 -0.00287892 0)
(-0.00602656 -0.00604844 -5.17468e-21)
(-0.00102769 -0.00105602 -1.32138e-20)
(-0.00114543 -5.16075e-05 7.48585e-21)
(-0.000967698 -0.000437327 -3.48812e-20)
(-0.0100673 -0.00391466 2.18808e-20)
(0.000321235 -0.00598014 0)
(-0.000789778 -0.00186369 1.49935e-22)
(-0.000117312 -0.000693874 0)
(-0.00268298 -0.000760739 -1.73744e-20)
(6.91212e-05 -0.00337748 0)
(0.00126921 -0.00051672 -8.08829e-20)
(0.087993 0.00108781 1.46481e-20)
(-0.00446483 0.00402986 1.27813e-20)
(0.016179 -0.0188872 5.99506e-20)
(-0.00114563 -0.00938231 0)
(-0.000189975 -0.000497991 0)
(0.00194517 -0.0029555 4.36569e-20)
(0.00229265 0.00195069 0)
(0.0796087 0.0148846 1.5239e-20)
(-0.064299 -0.013666 -1.33189e-20)
(-0.00129528 -0.000653875 1.90144e-20)
(-2.07121e-05 -1.96332e-05 3.75916e-20)
(-0.100266 0.00974576 0)
(0.00193794 -0.00285189 1.86235e-21)
(0.0774358 0.0100356 -3.56696e-21)
(0.0599252 -0.0425959 -9.97756e-23)
(0.00254659 0.00198785 0)
(0.00058841 -0.000635626 -8.6759e-20)
(-0.0224114 -0.00340101 0)
(0.0111848 0.0010564 -5.35297e-20)
(0.00187087 -0.00772237 3.30277e-20)
(-0.00383304 -0.0434164 1.98727e-20)
(0.0406918 -0.0458726 0)
(0.00227139 -0.00401044 4.98087e-23)
(0.000375289 0.000119832 0)
(0.00971467 0.00137931 -2.81613e-20)
(-0.000545397 0.000769782 0)
(0.029756 -0.00178038 -1.71819e-21)
(-0.000940555 -0.000280277 0)
(-0.0458766 -0.12628 -7.22389e-21)
(0.000120047 -0.00207201 0)
(-0.000285975 -0.00166973 -4.1468e-21)
(0.00180941 -0.00251326 0)
(-0.0311739 -0.242825 2.76826e-20)
(0.00085097 0.00190421 -4.08387e-20)
(0.00671123 0.0258023 0)
(0.00159092 9.85534e-05 4.82716e-22)
(0.00144982 -0.00309006 0)
(0.0163877 -0.00158014 2.59945e-20)
(0.00363265 0.00821598 -5.688e-20)
(0.00362302 -0.00203698 -1.12031e-20)
(0.000330852 -0.000703455 -2.5694e-23)
(-0.00741263 -0.0114006 1.3201e-20)
(-0.00226646 0.00470252 -1.75788e-21)
(-0.000861958 0.000765868 0)
(-0.000620836 -0.00559077 1.44245e-20)
(-0.000987052 -0.0013136 0)
(0.0203348 0.0699084 0)
(0.000478507 -0.000556355 4.50393e-20)
(0.00123228 0.000165095 -1.83332e-21)
(-0.00143807 -0.00426773 -5.62149e-22)
(0.00118546 0.000184042 9.11217e-22)
(0.000756886 -0.000813602 0)
(0.00112147 0.000605288 0)
(0.000187636 6.69009e-05 -5.54975e-21)
(0.00090463 -0.00064162 7.33117e-20)
(-0.000605608 6.79368e-05 1.60478e-21)
(-0.226976 0.152657 0)
(0.0124494 -0.019787 -1.4031e-20)
(0.000676764 -0.000766722 4.45857e-21)
(0.0158772 0.00244942 1.02602e-20)
(-0.00710564 -0.00320083 2.06628e-20)
(0.00396899 -0.0025717 1.14349e-20)
(0.000789191 0.00374878 8.2942e-21)
(0.027419 -0.0162315 3.99359e-20)
(-0.000857818 0.00267225 0)
(0.000701965 -0.000650213 4.20604e-20)
(-0.0574255 0.0123255 0)
(0.000707375 -0.000799717 0)
(-0.000603881 3.82733e-05 9.65046e-21)
(0.0141022 0.0316029 -3.39122e-20)
(0.00214648 -0.00285611 1.18613e-19)
(0.00121104 -0.000380253 5.41919e-20)
(-0.146371 -0.0624633 0)
(-0.00130746 -0.00079626 0)
(0.0136909 0.0129875 0)
(-0.00117196 1.14266e-05 1.94921e-21)
(0.0630251 0.0198571 2.72203e-21)
(-0.00404418 -0.0183827 0)
(0.000281379 0.000221095 -2.23673e-21)
(0.000690732 -0.00462441 -8.29555e-20)
(0.000152204 -0.000481807 4.18756e-20)
(0.00193177 0.0038119 -3.40779e-20)
(0.00663967 -0.0115815 1.76666e-20)
(0.00199571 -0.00316204 -3.01291e-20)
(-0.0226275 -0.00257294 0)
(0.00216285 0.00907767 -1.00274e-21)
(0.000959388 -0.000848145 -2.15536e-20)
(0.0236408 -0.0524378 0)
(0.0022725 0.00883721 3.56547e-21)
(0.00250212 -0.00140673 4.47918e-23)
(0.000947741 -0.0117609 -1.48222e-20)
(-0.00630504 -0.0891007 -2.6884e-20)
(-0.00103011 -0.000316761 -7.74658e-21)
(0.00152368 -0.00196298 -1.28872e-19)
(0.00231367 -0.000370551 0)
(-0.0131793 -0.054607 0)
(-0.00822181 -0.00822914 1.28888e-20)
(0.00134705 -0.00361465 3.16362e-20)
(-0.000413099 -0.000177163 -3.77626e-20)
(0.0267715 -0.0830265 -1.22546e-20)
(-0.0016761 -0.000857408 -2.15409e-20)
(-0.00069 0.00146508 -3.19353e-20)
(0.0642615 0.0293213 -7.35785e-20)
(0.00250483 0.00435075 -2.4536e-21)
(-0.00136888 0.000415068 8.35886e-21)
(0.0528771 0.037265 0)
(0.0462633 0.0407589 -4.577e-21)
(-0.00159066 -0.00118535 0)
(0.000564169 -0.000593669 -6.19679e-20)
(-0.00246624 -0.00930509 -8.60425e-21)
(-0.000891325 -0.00447448 -6.76737e-22)
(0.0110931 -0.0247447 0)
(-0.000183948 -0.000459239 1.32601e-20)
(-0.000139973 -0.00405475 9.81512e-23)
(0.000368289 -0.00669138 0)
(0.00520308 0.00891373 6.95781e-20)
(0.00151282 7.3187e-05 0)
(0.0292337 -0.151923 1.21978e-20)
(0.000356013 0.000273287 -4.58358e-21)
(-0.00470402 -0.00563406 0)
(-0.000487376 7.68752e-08 9.13359e-21)
(-0.00061813 -0.0261748 4.87971e-21)
(0.00388403 0.00996087 7.17674e-20)
(0.00851236 -0.0257988 1.1538e-20)
(-0.0249623 -0.0496852 3.70973e-20)
(0.00185881 -0.00106192 0)
(2.28061e-05 -0.00260054 0)
(-0.00158252 -0.00797818 0)
(0.000869235 -0.000668597 -6.98506e-21)
(0.00238944 -0.000498488 0)
(0.00661814 -0.00167161 0)
(0.00206333 -0.00231401 0)
(-0.0393116 -0.0128171 0)
(-0.00357241 -0.00177597 1.88074e-20)
(-0.0013377 0.000395872 -1.36082e-22)
(-0.00321023 -0.00185262 -5.7433e-20)
(0.0522117 -0.0497446 1.57071e-21)
(-0.0102141 -0.00843433 0)
(0.0127852 -0.0132163 8.17664e-20)
(-0.00134853 0.00075445 -1.09444e-20)
(0.0015147 -0.000871482 2.58184e-20)
(0.000286244 0.00278619 5.97326e-21)
(0.00244439 -0.00290946 -2.14291e-20)
(0.00106969 -0.00383714 1.66063e-20)
(-0.000521502 -0.00740096 0)
(0.00234347 -0.000577097 -4.37821e-24)
(0.000439025 -0.000505765 -2.70823e-20)
(0.00946797 0.0241133 1.33425e-20)
(-0.00154516 -0.00699289 0)
(0.00206182 -0.00340026 -1.1641e-21)
(0.00035004 -0.000467267 -2.40279e-20)
(-0.00138049 0.000193976 1.83512e-20)
(0.00786672 0.00136484 -9.74734e-20)
(0.0856653 0.0231406 8.86999e-20)
(-0.00618195 -0.000175879 4.21998e-23)
(-0.028761 -0.058912 -1.20885e-20)
(0.00607612 -0.00251684 -1.92763e-20)
(0.0023971 -0.00275498 8.07803e-22)
(-0.0028237 -0.00290403 0)
(0.00100629 -0.00185072 0)
(0.000568886 -0.000684604 6.12578e-20)
(0.040242 -0.0824032 7.04887e-20)
(0.0052021 -0.00884925 3.19155e-20)
(0.0268482 -0.0251697 -4.24338e-20)
(0.00652519 -0.0265468 0)
(-0.00123768 -1.07142e-05 -2.12484e-20)
(0.0136466 -0.0245257 0)
(0.000604409 -0.00325172 -3.854e-20)
(0.003075 -0.00028047 -2.94691e-20)
(-0.00112579 0.00173718 5.47873e-21)
(-0.0035642 -0.00362547 9.79199e-20)
(-0.00211562 -0.00191595 7.93887e-20)
(-0.0120295 -0.00405737 0)
(-0.00283879 -0.00828235 5.52974e-20)
(0.00349028 -0.000107523 0)
(0.00682222 0.00162597 3.284e-20)
(-0.000583157 -0.0004194 1.24964e-21)
(0.00339256 0.00136424 4.89222e-20)
(0.00201704 -0.00376426 -4.53522e-20)
(-0.0508368 -0.0343129 3.35679e-20)
(-0.000292632 -0.00129951 -3.94208e-20)
(0.00228665 -0.000483786 0)
(0.000944426 -0.0025919 -2.68069e-20)
(0.058923 0.0290095 -1.71179e-20)
(-0.00570181 -0.00639407 0)
(0.00137105 0.000385966 2.42305e-20)
(0.0320922 0.00919486 2.37061e-20)
(0.0544523 0.178281 2.25651e-20)
(-0.00132725 -0.00305062 3.16003e-21)
(0.0119403 -0.025897 0)
(0.00540951 0.00233542 1.57172e-21)
(-0.00405951 0.00389515 0)
(0.00142755 9.38456e-05 0)
(-0.0164104 -0.00426009 0)
(0.00943599 0.00105547 -3.83453e-20)
(-0.0663425 -0.00115803 0)
(-0.0022833 -0.0310549 -6.32656e-21)
(0.00237633 -0.00673522 -4.43363e-20)
(-0.00363433 0.00203644 9.09352e-22)
(0.0395204 -0.0701744 -1.90453e-20)
(0.000711604 -0.00510617 2.53683e-23)
(0.0379734 0.0475907 0)
(0.00128562 0.00327795 -1.69224e-20)
(-0.00445548 0.00265607 2.14358e-20)
(0.00834199 0.000798324 -6.7138e-20)
(0.000547393 0.00022788 1.75228e-21)
(-0.000424331 -0.000433187 2.25303e-20)
(0.00185894 -0.00199739 -1.06588e-19)
(0.0274007 -0.206243 -4.60918e-20)
(0.0021527 -0.00280442 -4.71888e-20)
(0.000519751 0.000301954 5.80473e-21)
(0.0887088 0.0525941 -1.00826e-19)
(-0.000233105 0.000444768 -1.71478e-21)
(-0.00114967 -0.000575187 1.04243e-20)
(-0.00159774 -8.07924e-05 0)
(0.00705134 0.000679406 4.7622e-20)
(0.000346183 0.000131451 0)
(0.00119886 -0.00141082 2.14424e-20)
(0.0288703 -0.0772823 -3.11004e-20)
(0.000657383 -0.000679154 2.09059e-20)
(0.00322931 -0.000662828 -1.68499e-20)
(-0.000624548 0.000810784 0)
(0.00203971 -0.0094242 -1.66994e-20)
(0.00027012 -0.000720011 1.72706e-20)
(0.000341544 4.29038e-05 0)
(0.00838874 -0.0280273 -2.64941e-20)
(0.0145122 -0.00150555 -1.63292e-20)
(0.000900026 -0.000669129 -5.42575e-20)
(0.000177186 -0.000317433 0)
(0.000253969 -0.000426597 -3.85988e-20)
(-0.0115205 -0.039097 -1.28706e-20)
(-0.000441992 -0.000385064 -2.16415e-20)
(-0.00114542 -0.000607934 1.00231e-20)
(3.57176e-05 -0.00117524 0)
(0.00754861 -0.0046557 0)
(0.0139989 -0.00252383 5.36149e-20)
(-0.000184505 0.000625033 9.98923e-22)
(0.00216428 0.00214481 2.72726e-21)
(-0.000563324 -0.00037713 0)
(-0.0026283 0.00307449 0)
(0.00215177 -0.00364479 0)
(0.0097998 -0.0068322 -1.40391e-22)
(-0.00277763 -0.0572935 0)
(0.0353155 -0.039917 0)
(-0.00130155 0.00074473 0)
(-0.00193811 -0.00452429 1.08246e-21)
(-0.00136482 0.000713301 -1.24572e-20)
(0.0107952 -0.00694328 -4.58185e-22)
(-0.0003581 -0.00141768 4.39584e-20)
(0.0193294 0.00532804 -1.2928e-20)
(0.00107658 -0.000586967 4.83062e-20)
(0.0616846 -0.08 0)
(0.0186557 -0.00339816 0)
(-0.00145842 -0.00048592 0)
(0.000608896 0.000556654 0)
(-0.000859477 -0.00443153 1.78742e-23)
(0.00841644 -0.0216805 0)
(-0.00198238 0.0023831 0)
(-0.000655304 0.00605919 -9.22735e-21)
(-0.000545821 -0.0115885 2.65231e-19)
(0.00236122 0.00056377 -3.49826e-20)
(0.00125728 0.00391953 0)
(-0.0229563 -0.0259166 -1.50287e-20)
(0.000752857 -0.000586102 8.1684e-20)
(0.0643096 -0.0450802 -1.30586e-20)
(0.007932 -0.0104854 -9.8421e-21)
(0.00472156 0.00397572 0)
(-0.00376743 0.0191288 -3.04881e-20)
(0.016861 -0.0440838 4.9661e-21)
(0.00228776 0.00190873 2.36689e-20)
(0.000272483 0.00193508 2.86141e-20)
(0.00203559 -0.00218806 7.80092e-20)
(0.00156145 -0.00416351 0)
(0.00266835 -0.0018406 -1.64101e-20)
(0.00458042 -0.00188736 3.87741e-20)
(0.00290991 -0.00115268 0)
(-0.00128171 -0.00068446 1.35221e-20)
(-0.0212834 -0.0858888 -3.68168e-20)
(-0.0096069 0.00939483 0)
(0.000260659 6.05287e-05 -5.49437e-21)
(0.0042217 -0.00464229 -6.23787e-21)
(0.00228635 -0.00359132 -7.56243e-20)
(-0.00713573 0.00906288 -2.79065e-20)
(-0.000107094 0.00034681 0)
(0.000120301 0.00751921 5.24885e-20)
(0.000242237 6.11335e-05 -6.65785e-21)
(0.0503289 -0.133746 0)