/*--------------------------------*- C++ -*----------------------------------*\
| =========                 |                                                 |
| \\      /  F ield         | OpenFOAM: The Open Source CFD Toolbox           |
|  \\    /   O peration     | Version:  v2012                                 |
|   \\  /    A nd           | Website:  www.openfoam.com                      |
|    \\/     M anipulation  |                                                 |
\*---------------------------------------------------------------------------*/
FoamFile
{
    version     2.0;
    format      ascii;
    class       volScalarField;
    location    "50";
    object      k_0;
}
// * * * * * * * * * * * * * * * * * * * * * * * * * * * * * * * * * * * * * //

dimensions      [0 2 -2 0 0 0 0];


internalField   nonuniform List<scalar> 
14315
(
0.000311188
0.000190792
0.000156785
0.00015102
0.000152789
0.000143039
0.000146532
0.000148849
0.000606603
0.000200289
0.000173154
0.000260051
0.000203046
0.000144202
0.000145704
0.000144061
0.000141918
0.00664681
0.000143626
0.000144264
0.000161529
0.000144282
0.000169994
0.000176343
0.000143844
0.000144446
0.000184785
0.000210785
0.000184718
0.000139814
0.000160303
0.000141689
0.0561661
0.000208603
0.000148933
0.000141471
0.000141687
0.000148584
0.000181694
0.000147561
0.000384841
0.000143781
0.000160914
0.000171267
0.000173189
0.000152983
0.000154648
0.00020282
0.000145012
0.000160268
0.000141594
0.000171854
0.0001429
0.000148779
0.000143213
0.000148516
0.0299824
0.000164017
0.000144351
6.75093e-05
0.000148218
0.000153028
0.000158253
0.000146644
0.000141536
0.000141574
0.000157996
0.000159984
0.00014922
0.000140824
0.000152158
0.00014758
0.000148798
0.000146131
0.000141474
0.000153197
0.000147742
0.000161925
0.000140684
0.000172866
0.000151979
0.0156261
0.000144979
0.000149079
0.000143392
0.0824683
0.000173451
0.000150123
0.0001502
0.000154161
0.000165298
0.00634726
0.000210756
0.000146072
0.000166449
0.000150318
0.000143204
0.000147232
0.000164444
0.000143708
0.000143456
0.000354219
0.000174645
0.000156506
0.000151819
0.000141846
0.000147384
0.000156767
0.000151014
0.000168132
0.000164843
0.000166701
0.000157737
0.000179583
0.000144553
0.000171013
0.00016394
0.000149281
0.00106565
0.0126704
0.000204465
0.000141962
0.000143351
0.000166442
0.0001781
0.000141864
0.00789477
0.000405767
0.000145226
0.000143534
0.000164516
0.000116144
0.00611958
0.0039363
0.000153175
0.000145458
0.00610314
0.000178812
0.000209024
0.00690579
0.000175243
0.00017892
0.000139948
0.000137452
0.0204288
0.000145814
0.000156688
0.000162278
0.000163542
0.000167697
0.000143409
0.000142292
0.00014966
0.000185854
0.00014721
0.000150647
0.000150181
0.000177056
0.0277262
0.000172209
0.000153148
0.000144878
0.0372595
0.000163584
0.000173136
0.0877454
0.000181797
0.000151775
0.000166105
0.000143057
0.00131593
0.0065698
0.000170574
0.000156987
0.000195066
0.0116947
8.8606e-05
0.000141844
0.000169728
0.000176073
0.0654929
0.000166774
0.000143339
0.000167425
0.000161066
0.019695
0.000165654
0.000165037
0.000151711
0.000163661
0.000149759
0.0083571
0.000183529
0.000142002
0.000146002
0.000152145
0.00438084
0.000143696
0.000153294
0.000163901
0.0552274
0.000143754
0.000440835
0.000145457
0.000151027
0.000142095
0.000149412
0.000171705
0.000144941
0.000142383
0.000150989
0.000146464
0.000174961
0.000151598
0.0544093
0.000154718
0.000177139
0.000143579
0.000143289
0.00017562
0.00018217
0.00014823
0.000182895
0.00380632
0.000161735
0.000151778
0.000164328
0.000162884
0.000143074
0.000152387
0.000152226
0.00186687
0.000153718
0.0001552
0.000151077
0.000156088
0.000170438
0.00015766
0.000159011
0.00610507
0.0820058
0.000160339
0.00014163
0.0091623
0.000181835
0.000152706
0.0896394
0.000149086
0.000142807
0.000142306
0.000150102
0.000151836
0.00361899
0.000141986
0.000149327
0.00224814
0.00645825
0.000171184
0.0184147
0.000145172
0.000197325
0.000151813
0.000154507
0.00514857
0.000154795
0.000175503
0.000175133
0.0618808
0.000160627
0.000159609
0.0325741
0.000144388
0.00015105
0.000150982
0.00018047
0.000147445
0.000178055
0.000142377
0.000151571
0.000160129
0.000141394
0.000163819
0.000145244
0.000158592
0.000152451
0.00217061
0.000184933
0.000155263
0.000142564
0.000152463
0.000176325
0.000143798
0.000182724
0.000177608
0.00014
0.000145022
0.000147263
0.0247584
0.000143551
0.00433143
0.000168387
0.000144026
0.000144267
0.000162406
0.000151213
0.000149654
0.000157287
0.000167934
0.000154622
0.000158486
0.000139559
0.000139557
0.000163479
0.000166993
0.000169877
0.000647862
0.00880989
0.000221081
0.000174351
0.00702594
0.000146237
0.000143625
0.000163987
0.000143455
0.000154298
0.000155996
0.000178023
0.000141505
0.00353107
0.000146846
0.00710574
0.000182438
0.00590086
0.00018507
3.30428e-05
0.00015249
0.00146367
0.000152715
0.000197984
0.000151429
0.000159246
9.86388e-07
0.00662956
0.000157289
0.000149655
0.00693729
0.0347716
0.000659236
0.00014153
0.00015146
5.7225e-05
0.000183347
0.000145002
0.000143371
0.000158376
0.000174755
0.000160134
0.000204044
0.00176131
0.000149225
0.00015937
0.0351369
0.000141008
0.000151747
0.000140897
0.000155207
0.000166579
0.000157858
0.000158799
0.000141523
0.000182845
0.0259599
0.000159287
0.0010928
0.000189613
0.000143775
0.000534249
0.0244044
0.000159655
0.000158576
0.000174944
0.000145274
0.000178627
0.000171396
0.000143577
0.000169087
0.0016862
0.000156203
0.000156993
0.00017136
0.000188062
0.000167812
0.000147631
0.000182169
0.000154796
0.000195394
0.000148277
0.000156373
0.000154749
3.9139e-05
0.000148778
0.000141803
0.000220999
0.000152337
0.000162444
0.00018263
0.00191355
0.000166377
0.000167689
0.000159257
0.000140996
0.000143975
0.000141218
0.0197609
0.000162557
0.000165541
0.000169852
0.000170969
0.000156114
0.0062733
0.00130244
0.000229767
0.00017352
0.000144021
0.000143628
0.000163181
0.000166877
0.000146798
0.00196055
0.00018441
0.000182125
0.000159489
0.000141845
0.000181337
0.000232343
0.000141161
0.00036652
0.000175101
0.000165648
0.000143128
0.000178823
0.000140672
0.000143733
0.000182331
0.000202251
0.000175786
0.000140604
0.000140894
0.000148249
0.000142233
0.000181605
0.000141823
0.00643637
0.00735494
0.000141176
0.0459908
0.000142084
0.00024969
0.000157111
0.000178085
0.00618593
0.000188147
0.000170967
0.00358922
0.000179129
0.000142424
0.00616444
3.32592e-05
0.000866271
0.000162729
0.00017571
0.00016721
0.000145647
0.000151498
0.000141909
0.000156555
0.000171848
0.0037655
0.000146792
0.000164451
0.000156078
0.000149376
0.00364607
0.000166381
0.000151766
0.00491392
0.00017694
0.000145678
0.000192935
0.000156267
1.73169e-05
0.000177021
0.000142122
0.000170585
0.000202058
0.000168247
0.000176908
0.000148287
0.000156018
0.000155757
0.0438146
0.000153148
0.0752168
0.000144894
0.000194561
0.0001499
0.000143315
0.000165709
0.000155864
0.000146702
0.000181304
0.000148906
0.000152291
0.0138435
0.000155137
0.000166881
0.000165787
0.000225015
0.00015923
0.000120315
0.00016646
0.000159487
0.000159978
0.00600893
0.0227344
0.000326574
0.000158544
0.000169583
0.00698378
0.000168308
0.000162394
0.000565605
0.000143731
0.000141697
0.000148906
0.000145686
0.000155924
0.000139821
0.0060638
0.000139783
0.000150711
0.00663595
0.0332377
0.000149313
0.000147305
0.000148296
0.00015136
0.000143139
0.00176594
0.000148508
0.000154537
0.000142307
0.000156683
0.000141493
0.000174238
0.000150905
0.000143545
0.000159066
0.000146085
0.000146917
0.000149857
0.000346002
0.00016551
0.000176657
0.000191321
0.00014242
0.000150189
0.000279254
0.0121444
0.000147851
0.000141764
0.000157168
0.000140328
0.000148148
0.000208789
0.00190829
1.54378e-05
0.000144183
0.000179167
0.0070911
0.000154835
0.000204062
0.000210393
0.00015371
0.000151903
0.00634746
0.000140916
0.000789511
0.000141383
0.00720549
0.000144507
0.000144219
0.000168979
0.0050961
0.00652815
0.0239519
0.000187901
0.000146224
0.00117882
0.000162168
0.000368034
0.000143648
0.000158179
0.000178534
0.000142167
0.000150338
0.000143373
0.000138007
0.000143926
0.000151871
0.000172023
0.000151474
0.000155787
0.000148245
0.000143243
0.000146102
0.000159987
0.0734974
0.000179616
0.000144763
0.00379207
0.000155985
0.000180802
0.00900868
0.000177069
0.000159608
0.000144939
0.000192204
0.00015896
0.000160546
0.0332126
0.000177482
0.000150066
0.0946422
0.000141781
0.000167662
0.000153376
0.000213061
0.000158589
0.000139506
0.000170086
0.0001431
0.000159032
0.000164339
0.0001708
0.000178445
8.33366e-05
0.00014563
0.000197446
0.000197719
8.08379e-05
0.000157339
0.0068576
0.000141302
0.00016987
0.000142718
3.63375e-05
0.000157126
0.00017038
0.00014214
0.0189008
0.000142446
0.000159787
0.0442861
0.000156971
0.000141121
0.0405158
0.000197547
0.000142332
0.000144104
0.00017436
0.000161265
6.45596e-05
0.000142436
0.000166491
0.000153327
0.000169888
0.000151088
0.0035785
0.000139536
0.000154872
0.000145609
0.000170787
0.000162462
0.000206979
0.00190307
0.000149925
0.000145702
0.000154259
0.000146096
0.000143238
0.00709365
0.000149661
0.000178264
0.000147806
0.000141119
0.00014726
0.000312416
0.000175986
0.000205746
0.000142612
0.000149655
0.000156378
0.000150618
0.000147851
0.000177332
0.000143004
0.00014385
0.0236348
0.00018685
0.000157139
0.000143629
0.000141289
0.0068843
0.000229287
0.000153025
0.000949463
0.000153649
0.000153825
0.000172024
0.000146343
0.000144263
0.00291475
0.000189956
0.000155109
0.000170092
0.000155769
0.000179018
0.000170303
0.00504355
0.000153655
0.000172261
0.000182063
0.000175554
0.000175246
0.00457025
0.00702055
0.000141824
0.000156254
0.00016788
0.000174603
0.000143112
0.000142925
0.000164978
0.0406523
0.000155282
0.000151268
0.000173823
0.0135387
0.000150697
0.000197926
0.000902963
0.000165134
0.000189675
0.000232406
0.00651196
0.000188368
0.000200502
0.000153854
0.000146036
0.0656967
0.000168988
0.0377758
0.000159371
0.000166463
0.00370442
0.000139975
0.00014203
0.000173133
0.0126446
0.000150067
0.000139908
0.000226538
0.000140425
0.000141478
0.000141646
0.00247762
0.000138965
0.000149531
0.00277863
0.000144532
0.000182068
0.000141524
0.000155831
0.000143313
0.000138995
0.000108598
0.00214603
0.000146243
0.000143217
0.000143609
0.00018846
0.000142036
0.000141501
0.000159067
0.000231417
0.00259906
0.000140381
0.000124317
0.000141787
0.00014743
0.000167295
0.000279634
0.0169486
8.2007e-05
0.000142038
0.000156534
0.000142278
0.000290189
0.000142996
0.00017399
0.000149503
0.00256296
0.000595287
0.000144374
0.000156001
0.000163422
0.000163695
0.000145645
0.000164941
0.000171676
0.00440869
0.000149247
0.000172231
0.000152291
0.000314753
0.000165365
0.000151558
0.000172269
0.000237215
0.000156315
0.000156594
0.000150801
0.000161235
0.000182247
0.000183289
0.000151993
0.000144129
0.0670507
0.000171086
0.000161473
0.000650792
0.000175467
0.000153425
0.000140094
0.000165463
0.000164914
0.00595718
0.000143685
0.000141721
0.000158728
0.000141986
0.000179305
8.73591e-05
0.000151647
0.000145649
0.000166092
0.000144904
0.00389353
0.000153199
0.000157899
0.00014236
0.000146033
0.000168468
0.000149293
0.000160634
0.000154187
0.000172753
0.000430109
0.000907926
0.000154985
0.000158713
0.000179362
0.0134705
0.000144644
0.000183179
0.000150662
0.000143396
0.0161793
0.00640719
0.000166469
0.000176412
0.000186071
0.0276198
0.0272947
0.000199345
0.000174688
0.000141747
0.0266621
0.00048931
0.000141787
0.000150289
0.000152605
0.000321177
0.0171432
0.000146633
0.00015461
0.000146576
0.00016923
0.000166371
0.000317842
0.000181707
0.000160024
0.00409283
0.000152134
0.0936613
0.000203219
0.00017667
0.000149091
0.000146604
0.00019576
0.000152112
0.000430023
0.000204505
0.000147543
0.00016695
0.000141539
0.000143538
0.000198518
0.000160661
0.000147768
0.000143452
0.000151764
0.000150668
0.000170736
0.000143224
0.00018121
0.000143527
0.000173474
0.000142688
0.000165786
0.00016411
0.000142188
0.034796
0.000187455
0.000154632
0.0142269
0.000144246
0.000199503
0.000151551
0.000153337
0.000150602
0.00015397
0.000182454
0.000258768
0.0165867
0.0460418
0.0900322
0.000156183
0.000393193
0.000147352
0.0270653
0.00560476
0.000147675
0.000146006
0.033505
0.000155183
0.000143971
0.0680731
0.000170251
0.000192549
0.000141903
0.000155601
0.000167092
0.000168217
0.000143807
0.000155745
0.000148081
0.000142334
0.000159095
0.000198929
0.000159518
0.000140119
0.000141333
0.00653615
0.000156975
0.000142133
0.000181256
0.000156358
0.000154961
0.00014076
0.000152888
0.00449204
0.000214409
0.000177152
0.000153182
0.000202898
7.47566e-05
0.000845745
5.63554e-05
0.000142742
0.00194205
0.000149735
0.000161495
0.00548046
0.000144244
0.000142186
0.000156248
0.000142292
0.000193039
0.000150797
0.000158931
0.000155635
0.0172141
0.000154957
3.74874e-05
0.000199199
0.000141411
0.00167305
0.000168092
0.000178772
0.000169496
0.000141678
0.0325799
0.000160776
0.000153752
0.000157915
0.000145876
0.000162957
0.000228623
0.000180226
0.00635932
0.000159064
0.000141931
0.00367759
0.000142185
0.000146315
0.000217194
0.000176789
0.000165585
0.000196417
0.000151212
0.000147216
0.0171645
0.000397944
0.000143672
0.000118937
0.000158548
0.000141923
0.000141851
0.000173817
0.000170304
0.000156898
0.00015597
0.000146015
0.000157239
0.025994
0.000167671
0.000184755
0.000177445
0.000158178
0.000170085
0.000150267
0.000143214
0.000163949
0.000141863
0.000346026
0.000158937
0.000149153
0.000154727
0.000442922
0.000426393
0.000153711
0.00690634
0.000181251
0.0644692
0.000146673
0.000176642
0.000152752
0.000150819
0.000193765
0.0063506
0.00712611
0.000178855
0.000149685
0.00017771
0.00016096
0.000170353
0.00015005
0.000152401
0.000143729
0.000149732
0.000151685
0.000144824
0.0022499
0.00804091
0.000170576
0.000287771
0.000145327
0.000176907
0.000141665
0.000151769
0.000163535
0.000245978
0.0123329
0.000150234
0.0304479
0.000164541
0.00014465
0.045063
0.000179077
0.000164126
0.000151199
0.000172519
0.000142473
0.000144237
0.000177953
0.000143009
0.000143085
0.00701462
0.000178922
0.000313765
0.000161377
0.000723645
0.00086056
0.000207883
0.000146564
0.0160505
0.00011232
0.000153449
0.000173969
0.000146493
0.00144274
0.000157456
0.000148082
0.00228608
0.0387624
0.000158388
0.00014613
0.000164605
0.000164983
0.000165798
0.000480721
0.000143786
0.000142703
0.000141455
0.000182084
0.000147704
0.006428
0.000193277
0.000141516
0.000152609
0.000178225
0.000216426
0.000143206
0.0359896
0.000146089
0.000159089
4.68125e-05
0.00599742
0.000141445
0.000168229
0.000141748
0.00014115
0.000151708
0.0367744
0.000177725
0.000143598
0.000117349
0.00222053
0.000172154
0.000152424
0.000175747
0.000156906
0.000156642
0.000351785
0.000153934
0.000142088
0.000143376
0.00701986
0.000150375
0.000142928
0.00014164
0.000179277
0.000140533
0.000146423
0.000864323
0.000153952
0.0001472
0.000155877
0.000150354
0.000402261
0.000144311
0.000156525
0.000162598
0.000163248
0.000159815
0.000145405
0.000144384
0.000158892
0.0345015
0.00014685
0.000186033
0.0440911
0.000163664
0.000201272
0.000146837
0.00211605
0.00014564
0.000157207
0.000163707
0.000182702
0.000174058
0.000165583
0.000167374
0.00017319
0.000158134
0.000171212
5.79214e-05
0.00520924
0.000171472
0.000169051
0.000143435
0.000141686
0.000144496
0.000151449
0.000190629
0.000150912
0.067683
0.0001163
0.00718503
0.00014194
0.000142702
0.000162834
0.000166282
0.000152271
0.000141148
0.000148077
0.000147099
0.000154902
0.000191586
0.000203818
0.000155198
0.00015001
0.000145112
0.0391282
0.000163048
0.000163465
0.000115675
0.000267731
0.000147603
0.000142854
0.000149026
0.000141473
0.000143738
0.000184914
0.000141886
0.000145147
0.000213745
0.000142094
0.000182654
0.000141587
0.0069102
0.00275886
0.000144371
0.000148662
0.000156143
0.000166135
0.00015848
0.000177438
0.000145799
0.000142106
0.000207753
0.0357346
0.000146546
0.00609085
0.000144644
0.000149092
0.0116234
0.000475948
0.00015716
0.000142525
0.00633663
0.000188957
0.00015933
0.00634259
0.000547086
0.00014157
0.00449678
0.000178638
0.000141247
0.000143679
0.00349185
0.000146335
0.000141817
0.000171777
5.85545e-05
0.000173021
0.000158472
0.000146347
0.000150076
0.000136731
0.000154953
0.000184083
0.000168897
0.000195225
0.000145634
0.00017145
0.000160872
0.000694465
0.000189714
0.000145826
0.000173731
0.00015904
0.0410392
0.000184391
0.00427173
0.000142836
0.000165222
0.000173086
0.000150615
0.000141597
0.000143202
0.00703493
0.000173446
0.000172364
0.000145109
0.000145108
0.000177193
0.0148414
0.000157138
0.000154273
0.000145638
0.000148841
0.00619718
0.0339771
0.000220371
0.00109944
0.00642216
0.000144572
0.000144158
0.000162886
0.000141655
0.000151337
0.000199285
0.000162743
0.0758101
0.000140207
0.000141489
0.000170232
0.000141754
0.000140309
0.00014228
0.000164797
0.000187538
0.000161936
0.000121341
0.000141455
4.271e-05
0.00491113
0.000174048
0.000191863
0.000177649
0.000141699
0.00015093
0.000186282
0.000142832
0.00016304
0.000156453
0.000143107
0.000161688
0.000142901
0.000141534
0.000141166
0.000149812
0.000143218
0.000184489
0.000171325
0.000141698
0.0057221
0.000143545
0.000180281
0.000181276
0.000156956
0.000143727
0.000185075
0.000956275
0.000141631
4.6979e-05
0.000138615
0.0127474
0.0310925
0.000148052
0.000169582
0.00016905
0.00026142
0.000176108
0.000154141
0.000181579
0.000157664
0.000144755
0.000144939
0.000165739
0.000117948
0.000145582
0.00014368
0.000142492
0.000159158
0.000158429
0.000167903
0.000150409
0.000142261
0.000164451
0.000154287
0.000158609
0.000174638
0.000182945
0.000454136
6.13976e-05
0.000151045
0.000148978
0.000197565
0.000150886
0.000149849
0.000149897
0.000188835
0.000142364
0.000813557
0.000158466
0.000441405
0.000173424
0.0387814
0.00014131
0.00020011
0.000158788
0.000143638
0.000182869
0.000141528
0.00518614
0.000141218
0.000163929
0.000146001
0.000144429
0.000145429
0.00159864
0.000150984
0.0281829
0.000144372
0.000169684
0.000146102
0.000157032
0.00337323
0.000186044
0.00629254
0.000150177
0.000195146
0.000184623
0.000142992
0.000228103
0.000152293
0.000146618
0.00015288
0.0454341
0.000182678
0.0472143
0.000159057
0.000154917
0.000183677
0.000173799
0.000145971
0.00015443
0.0010803
0.00279679
0.000141872
0.000169364
0.000158204
0.000143294
0.000180007
0.000160007
0.0464471
0.000184118
0.00162785
0.000144618
0.000142979
0.000182114
0.000143658
0.000144222
0.000182898
0.000145184
0.000183015
0.000144267
0.00018153
0.000141871
0.000143332
0.000148281
0.000145769
0.000164559
0.000141672
0.0138112
0.000141308
0.000182749
0.000143287
0.000160402
3.20785e-05
0.00017908
0.000217126
0.000222044
8.28407e-05
0.00349961
0.000111481
0.0690348
0.000180682
0.000177505
0.000149048
0.000144495
0.000144715
0.000144153
0.000175786
0.000156477
0.00628632
0.0001509
2.43742e-06
0.000158135
0.000151799
0.000142583
0.000143325
0.000148771
0.0151269
0.000172183
0.000158575
0.000166599
0.000146194
4.63482e-05
0.000178149
0.000180228
0.000143666
0.000141432
0.00014239
0.000864845
0.000186815
0.000143554
0.000178513
0.000149894
0.000165158
0.000602988
0.000161291
0.000185385
0.000197279
0.000167008
0.0134571
0.00015291
0.000373877
0.000182118
0.00425696
0.000144558
0.000143813
0.000145936
0.000923555
0.000142447
8.75822e-05
0.000169377
0.000185963
0.000167054
0.000161228
0.00672898
0.000143781
0.000145813
0.00015139
0.000164611
0.000144817
0.000142798
0.00352683
0.00017685
0.00453313
0.000163149
0.000143441
0.000193766
0.00144403
5.17668e-05
0.000143707
0.000146054
0.000190685
0.000916322
0.000144281
0.000150566
0.000153225
0.000143188
0.000142248
0.00015191
0.000151894
0.000183749
0.000145814
0.000144767
0.000176276
0.0227189
0.000153249
0.000143567
0.00733867
0.00518465
0.000156949
0.000147212
6.33115e-05
0.000169142
0.000147739
0.000142339
0.000172617
0.000142882
0.000199816
0.000147371
0.000166471
0.000176961
0.0278747
0.000255035
0.000143482
0.00014234
0.000147356
0.000179393
0.000141409
0.000161735
0.000141062
0.000163488
0.000163437
0.00344147
0.00571654
0.000163169
0.000150711
0.000147809
0.000310973
0.000140248
0.000560751
0.000171221
0.00015984
0.000143609
0.000142507
0.000157793
0.000166799
0.000141423
0.000185704
0.0106093
0.000175199
0.000148856
0.00010304
0.000145631
0.000160917
0.000168396
0.000157193
0.000142753
0.000144024
0.000167452
0.000147731
0.0130406
0.000141398
0.00667467
0.000143291
0.000184766
0.000158585
0.000152309
0.000382262
0.000152451
0.000179186
0.000170679
0.00015032
0.00020533
0.00676236
0.0120872
0.000150765
0.00640122
0.000141697
0.00015892
0.0217489
0.00624637
0.0396062
0.000142119
0.000172113
0.000146864
0.000141417
0.000143942
0.000147748
0.000165863
0.000251465
0.0391825
0.000166976
0.00019094
0.000206953
0.000170325
0.000153614
0.000155518
0.000171701
0.00892381
0.000151183
0.000149239
0.000157396
0.000141089
0.000162248
0.000167588
0.000141667
0.000158139
0.000184173
0.000216894
0.000157159
0.000144648
0.0001473
0.000147568
0.000176446
0.000161446
0.000151323
0.00110222
0.000171564
0.000152118
0.000148834
0.00197651
0.000400248
0.000141347
0.0283712
0.00015823
0.000331139
0.000141446
0.000157611
0.00014454
0.000156922
0.00393836
0.000148161
0.00015901
0.000173642
0.000143574
0.0125891
0.000525548
0.00245116
0.000174953
0.000151477
0.000175603
0.00716702
0.000168014
0.000151078
0.00019384
0.000143875
0.000142191
0.000150917
0.000170281
0.000152456
0.000180885
0.00014185
0.000161686
0.000140953
0.0180864
0.000161853
0.000158975
0.00015344
0.000134423
0.000160682
0.000112792
0.000150637
0.000166326
0.0304034
0.000162432
0.000159336
0.0150103
0.000158097
0.000143743
0.000142863
0.000174442
0.000165582
0.000586352
0.000143741
0.000149542
0.000155126
0.00109679
0.000153903
0.000129796
0.000174901
0.00395442
0.000170041
0.00014407
0.0109947
0.000174202
0.000144793
0.000142865
0.000144294
0.000145068
0.000197444
0.000143008
0.000143842
0.000153165
0.00014252
0.00763303
0.000143219
0.000662606
0.00611749
0.00041096
0.000189536
0.000157892
0.00017118
0.00542897
0.000150558
0.000163558
0.000145923
0.000183405
0.0409221
0.000146381
0.000199502
0.00254006
0.000165366
0.000140561
0.000144051
0.000160743
0.000179646
0.000152833
0.00017321
0.000153747
0.0131634
0.000144643
0.000364817
0.000142478
0.00619829
0.000160432
0.000154898
0.000147104
0.000166531
0.0439989
0.00701608
0.000152266
0.0252163
0.000150865
0.000173656
0.0387294
0.000154333
0.000155079
0.000149599
0.000166638
0.0716938
0.0307658
0.000144497
0.0187306
0.00431732
0.0253014
0.000165372
0.000143163
0.0210558
0.000146029
0.000151008
0.000144423
0.000142097
0.000144216
0.000169606
0.000143682
0.000158046
0.000148194
0.000170655
0.000151996
0.000182283
0.000148488
0.000145599
0.000155897
0.000196035
0.000156233
0.00614365
0.000146722
0.000140158
0.000183799
0.000148451
0.000147284
0.000144231
0.000162071
0.000143005
0.00721089
0.00014236
0.0449516
0.000142329
0.000179762
0.000131666
0.000154056
0.000147908
0.000142973
0.000146362
0.0807571
0.000144909
0.000156048
0.014175
0.000142132
0.000151217
0.00014155
0.0154607
0.000146747
0.00691319
0.000154676
0.000149765
0.000164938
0.000143835
0.0598959
0.000168219
0.0131343
0.000680964
0.00599405
0.000479044
0.000153054
0.000144093
0.000284162
6.74108e-05
0.000179304
0.0313045
0.000164988
0.00524804
0.000152781
0.000143905
0.0381687
0.000202667
0.0090695
0.000146467
0.000161781
0.00456347
0.000144443
0.000148219
0.000165737
0.00107863
0.000169821
0.000142173
0.000146708
0.000171965
0.00608138
0.000146935
0.000250237
0.0291888
0.000167758
0.000143067
0.000183987
0.0173633
0.000143733
0.000165328
0.000154199
0.000175939
0.000189057
0.000144457
0.000155972
0.000154145
0.000223442
0.000144308
0.000143143
0.000175505
0.000143528
0.041319
0.000142482
0.00541477
0.00014225
0.000201546
0.000155546
0.00713092
0.000173624
0.000143182
0.000169024
0.000210789
0.000206926
0.0419169
0.000189187
0.000185226
0.00016218
0.000171257
0.000141738
0.000146918
0.00526389
0.00313908
0.000141429
0.000157579
0.000146119
0.0470803
0.000222866
0.000156297
0.000141988
0.000181152
0.000141575
0.000145708
0.000141501
0.00022185
0.000162535
0.000144286
0.000162831
0.000173581
0.000150154
0.000164116
0.000159276
0.00014543
0.0115149
0.00528104
0.00014427
0.000151831
0.000146382
0.000153427
0.000149983
0.0519653
0.000143134
0.0132616
0.0106623
0.00014114
0.00015175
0.000144216
0.000156037
0.00481826
0.00225566
0.000194149
0.000143157
0.000152552
0.000148416
0.000168382
0.000155133
0.00186261
0.000145262
0.000143594
0.00721919
7.21823e-05
0.000143836
0.000142238
0.000156367
0.000143917
0.000563224
0.000203105
0.000143747
0.000143475
0.00650292
0.000123842
0.0461323
0.000146865
0.000145399
0.000164183
0.000175539
0.000233337
0.0001848
0.000144208
0.00014921
0.0001536
0.000146141
0.00464125
0.000153672
0.020958
0.000175632
0.000270307
0.000160515
0.000148493
0.0900039
0.000156301
0.000172145
4.13864e-05
0.000143941
0.000142666
0.0001672
0.0198948
0.000161319
0.000149255
0.000176779
0.000144173
0.000142942
0.000145067
0.000149109
0.00562612
0.000283018
0.000179011
0.000153186
0.000142243
0.00614596
0.000145374
0.000185748
0.000145685
0.000183751
0.000154766
0.0284674
0.000175633
0.00149789
0.000152486
0.000163763
0.000162078
0.00016908
0.000144209
0.000399341
1.39739e-05
0.00016855
0.00017665
0.000144178
0.000141531
0.000187623
0.000144703
0.019786
0.00125678
0.000170843
0.0191056
0.000156992
0.0100419
0.000142464
0.000142739
0.018293
0.00014832
0.000142613
0.00272457
0.000148392
0.000143492
0.000147159
0.000155118
0.000179242
0.000149671
0.000110904
0.000163645
0.000146664
0.000181303
0.000155385
0.000161393
0.000157041
0.000144015
0.000159818
0.0039724
0.000175239
0.000151323
0.000163251
0.000325225
0.000144465
0.000145418
0.000144768
0.00413458
0.00121353
0.0439867
0.00015056
0.00445032
0.00491185
0.000152441
0.00030849
0.000146359
0.000184533
0.000144758
0.00117805
0.00303673
0.0478839
0.0319356
0.0438774
0.000152554
0.00015593
0.000146158
0.000145182
0.00553457
0.000142044
6.92352e-05
4.85826e-05
0.000144381
0.000142239
0.000161388
0.000150766
0.0062914
0.000143382
0.000143638
0.000157741
0.0390661
0.000149064
0.000146097
0.000159326
0.000159252
0.000161903
0.00017031
0.000182299
0.000140283
0.000144698
0.000142053
0.00697404
0.000141889
0.000156793
0.000168037
0.000169357
0.0795305
0.000142438
0.000146548
0.000153556
0.000164894
0.000195217
0.000189966
0.000149172
0.000228045
0.000147002
0.000140705
0.000150969
0.000183316
0.0141538
0.000158171
0.0348586
0.000946876
0.000185525
0.00379436
0.000135843
0.000183484
0.000344783
0.000156093
0.000141783
0.000186732
0.000148846
0.000156458
0.000125888
0.0197696
0.000141406
0.000167813
0.000158087
0.000161206
0.000171584
0.000150683
0.000150339
0.000175298
0.000260116
0.00143216
0.00672864
0.000189316
0.000148033
0.000143532
7.91576e-05
0.000143753
0.000925621
0.000180111
0.000144777
0.000148671
0.000175898
0.000184511
0.000142159
0.000146672
0.000142495
0.000176933
0.000103589
0.000149775
0.0119414
0.000175243
0.000144631
0.000185007
0.00386003
0.000158494
0.000161995
0.000143306
0.000165562
0.00292227
0.000227
0.0319161
0.0119421
0.000165903
0.000163809
0.000182138
0.000175082
0.000347232
0.000143747
0.000173501
0.0448664
0.000149515
0.00371011
0.00194604
0.000205923
0.000178292
0.0122888
0.00016244
0.000169288
0.000180493
0.000513694
0.00017002
0.000158661
0.0001563
0.000145226
0.000195371
0.000151621
0.00014104
0.0786085
0.000160791
0.000413642
0.000183897
0.000176084
0.00901099
0.0021658
0.00701345
0.0001432
0.000148892
0.000155468
0.00176691
0.000227308
0.000298018
0.00015166
0.000172937
0.000172226
8.93378e-05
0.000146139
0.00566343
0.000174617
0.000294009
0.000169644
0.0332193
0.000155404
0.000144235
0.000154757
0.000143492
0.000154758
0.000147706
0.00014315
0.000142719
0.000179497
0.000184788
0.000148241
0.000165353
0.000148899
0.000181894
0.00570126
0.000161261
0.000152724
0.00376384
0.000874857
0.00140399
0.000143069
0.000181454
0.00017318
0.00680572
0.000142309
0.000490317
0.00238895
0.000172057
0.000142961
0.00014391
0.000146122
0.000211515
0.000170671
0.000177342
0.000176592
0.000182505
0.00125283
0.000141376
0.00730449
0.000153997
0.000184217
0.00437091
0.000151095
0.000144738
0.0077978
0.000143687
0.000141095
0.000154003
0.000152951
0.000173191
0.000148912
0.000174308
0.000143879
0.000183145
0.00698409
0.000162699
0.00014324
0.000141963
0.000179118
0.000158408
0.000152497
0.000155282
0.000145376
0.000175419
0.000152842
0.00708941
0.00674401
0.000187327
0.000190655
0.00017267
0.00016469
0.000156465
0.00431886
0.00017729
0.000139845
0.0195114
0.00524234
0.000162739
0.000142923
0.000173957
0.000154837
0.000165663
0.0226169
0.000185916
0.000149447
0.00014275
0.00353913
0.00165073
0.000199015
0.000171546
0.000157446
0.00414824
0.0319098
0.000142195
0.00706801
0.000156317
0.000156018
0.000152902
0.000240289
0.00690835
0.000143419
0.0917782
0.00014495
0.000351416
0.0107714
0.000156065
0.000156327
0.000163678
0.000142763
0.000141814
0.00591581
0.00364271
0.000145883
0.00017304
0.000163786
0.000161067
0.000147445
0.000174331
0.000147864
0.00715357
0.000182688
0.000141576
0.000155262
0.00014214
0.00015321
0.000153063
0.000177926
0.000152169
0.00133696
0.00017946
0.000185101
0.000173397
0.000143407
0.000177998
0.000182836
0.000152646
0.000149561
0.000171849
0.00015629
0.000157939
0.00152574
0.000171924
0.000151255
0.000167694
0.00014171
0.000144211
0.00018165
0.000156256
0.000179531
0.00016844
0.000257344
0.000230445
0.000180127
0.000164542
0.0017653
0.00679127
0.0014495
0.000183615
0.000164495
0.0092373
0.000216405
0.000148905
0.00014377
0.000141953
0.000146348
0.000154575
0.000147125
0.00258566
0.000147794
0.000165617
0.000180305
0.0598402
0.000166572
0.000164591
0.00698822
0.000175643
0.000145669
0.000179971
0.00573464
0.00561497
0.000177186
0.000165212
0.000182138
0.0001762
0.000210806
0.000141371
0.000163298
0.000184942
0.000179527
0.000175087
0.00017078
0.000148483
0.000159082
0.00015025
0.029255
0.000181173
0.000163536
0.000200088
0.00687567
0.000142836
0.000175096
0.000169612
0.000168158
0.00472184
0.000143524
0.000170093
0.00710682
0.000185105
0.000170406
0.000144418
0.000177115
0.000146512
0.000165738
0.000176924
0.019577
0.00597348
0.00288942
0.000764341
0.0507424
0.000169632
0.000142578
0.000175701
0.000163629
0.000152537
0.00019636
0.00260314
0.000144123