/*--------------------------------*- C++ -*----------------------------------*\
| =========                 |                                                 |
| \\      /  F ield         | OpenFOAM: The Open Source CFD Toolbox           |
|  \\    /   O peration     | Version:  v2012                                 |
|   \\  /    A nd           | Website:  www.openfoam.com                      |
|    \\/     M anipulation  |                                                 |
\*---------------------------------------------------------------------------*/
FoamFile
{
    version     2.0;
    format      ascii;
    class       surfaceScalarField;
    location    "50";
    object      phi;
}
// * * * * * * * * * * * * * * * * * * * * * * * * * * * * * * * * * * * * * //

dimensions      [0 3 -1 0 0 0 0];
oriented        oriented;


internalField   nonuniform List<scalar> 
21240
(
-0.385296
0.601693
-0.216398
-0.0442607
0.147471
-0.10321
-0.141803
-0.350725
0.492529
0.244053
-0.17465
-0.0694037
-0.0902026
0.241859
-0.151656
-0.254458
-0.211751
0.466208
0.630434
-0.489191
-0.141243
-0.252363
-0.106211
0.358574
0.0472617
-0.0701713
0.0229096
0.581736
-0.502452
-0.0792843
-0.666523
0.380116
0.286407
0.348194
0.0364265
-0.38462
0.183802
-0.0177841
-0.166018
0.139981
0.231427
-0.371408
0.508081
0.122354
0.0103786
-0.33688
0.326501
-0.383796
0.530682
-0.146886
0.0416823
-0.0358255
-0.00585682
0.429259
-0.582978
0.153719
0.27097
-0.260591
0.00378406
0.141935
-0.145719
0.0661504
-0.396914
0.330763
-0.684546
0.485669
0.198877
-0.312348
-0.354175
0.0477038
0.0436044
-0.0913081
0.315167
-0.0561297
-0.259038
0.163877
-0.061272
-0.102605
0.450472
0.131263
0.146389
0.0174879
-0.591133
0.635371
-0.0442375
-0.0532793
0.148949
-0.0956696
0.647473
-0.169903
-0.47757
0.0118107
0.0061828
-0.0179935
0.650944
-0.466705
-0.184239
-0.031111
0.231418
-0.200307
0.106698
0.540775
0.424954
0.145501
-0.570455
-0.289128
0.258017
-0.751248
0.396986
0.354262
-0.18468
0.274213
-0.0895332
0.074429
-0.0271674
-0.18002
-0.13181
0.31183
0.00814202
0.165219
-0.173361
-0.104784
-0.0198581
0.124642
0.232306
-0.132269
-0.100037
0.28396
-0.158034
-0.125926
0.359541
-0.501344
0.597291
-0.146818
0.445341
-0.20821
-0.237131
0.21993
-0.211788
-0.159944
0.584898
-0.00128603
-0.114192
0.115478
-0.717719
0.388928
0.328791
0.413309
-0.581718
0.168409
-0.454689
-0.26303
0.21065
0.0731271
-0.283777
0.249918
-0.216874
-0.0330442
0.690489
-0.520415
-0.170074
-0.03872
0.353887
0.110627
-0.0629228
0.643003
-0.229695
0.147934
0.136026
-0.162039
0.186428
-0.0243886
0.217611
-0.642937
0.425326
0.39755
0.0866014
-0.484151
-0.386377
0.552194
-0.165817
-0.477902
0.127177
0.0828898
-0.136169
-0.344902
0.162074
0.182829
0.692847
-0.586149
0.201807
-0.673671
0.471863
-0.633709
0.228538
0.405171
0.178317
-0.58608
0.407763
0.257358
0.0866825
-0.344041
0.62172
-0.435919
-0.185801
0.443488
-0.221502
-0.221986
-0.416098
0.232461
-0.0371139
-0.195348
0.555267
0.13758
-0.0422925
-0.060016
0.102308
0.559373
0.0151415
-0.574514
0.155027
-0.349808
0.19478
0.262363
0.182978
0.663312
-0.434773
0.803604
-0.414676
0.0948977
-0.0297148
-0.0651829
0.0837872
0.148519
-0.643755
0.164157
0.479598
-0.465438
0.689017
-0.48721
0.175121
-0.0458833
-0.129237
0.0324738
0.00477601
-0.0372498
0.0165756
0.167226
0.0680219
0.483153
0.614112
-0.625182
0.0110698
0.556461
0.00291139
0.429803
0.373801
0.476243
-0.693016
0.216773
-0.257958
0.657426
-0.399468
-0.374261
0.194241
-0.395554
0.537541
-0.141987
-0.451547
0.615145
-0.163597
-0.366288
-0.318258
0.0481486
-0.228268
0.180119
0.603694
-0.439537
0.356031
0.0700764
-0.426107
-0.309967
0.125287
-0.221226
0.188122
0.0331036
-0.0241307
0.209239
-0.185108
0.121636
-0.13215
0.0105133
-0.171412
0.240642
-0.0692301
0.110973
-0.000155899
-0.110817
0.369531
-0.367374
-0.00215669
0.124821
0.00277427
-0.127595
0.34513
-0.27898
-0.117865
0.116579
0.312752
-0.170103
-0.142649
-0.113484
0.0880126
-0.00435428
-0.0836583
0.353404
-0.198376
0.136503
0.460788
-0.577717
0.193921
-0.193903
0.623163
0.248029
-0.134518
-0.11351
-0.0456454
-0.0510816
0.0967271
0.55517
-0.259154
-0.296016
0.00329196
0.153066
-0.156358
-0.567164
0.181868
0.608662
-0.365648
-0.243014
-0.55078
0.155226
-0.0486267
-0.0852734
0.1339
0.135353
-0.0234986
-0.111855
-0.254255
0.311933
-0.057678
-0.106722
0.187057
0.256431
0.34742
0.261242
-0.0484025
0.000300774
0.0481017
0.148861
-0.0240397
-0.0125084
-0.109889
0.122397
0.160415
-0.157123
-0.190872
0.145394
0.0454777
-0.0811256
0.0354801
-0.156713
-0.43442
0.139361
-0.00400721
0.00309245
-0.00588833
0.00279589
-0.0889236
0.346282
-0.0511307
0.420661
0.378142
0.148808
-0.132902
-0.0159056
-0.0172382
0.138875
0.394643
0.142898
-0.285967
0.71134
-0.425373
-0.625038
0.29207
0.332969
-0.480731
-0.104283
0.585014
-0.689243
0.517173
0.172071
0.232659
-0.25679
-0.251741
0.160892
0.090849
-0.631004
0.150273
0.255591
-0.00567358
0.076849
-0.119142
-0.168974
-0.0156711
0.184645
-0.212383
0.345263
-0.13288
0.00359565
-0.0251095
0.148401
-0.123291
0.407233
-0.646838
0.239605
-0.00378429
0.098682
-0.322246
-0.429001
0.114143
-0.179138
0.0649948
0.618454
-0.129487
-0.488967
-0.545909
0.291452
0.0861625
0.00185008
0.0488489
-0.0359865
-0.0128624
-0.292868
0.145868
0.147
-0.0148022
-0.182476
0.197279
-0.0590007
0.0900606
-0.0310599
-0.244937
-0.0729769
0.317914
-0.112072
0.460266
0.177968
0.377202
0.0196671
-0.155015
0.135348
0.0250789
-0.137708
0.112629
0.0258837
-0.0107172
-0.0151665
0.0993015
0.148727
0.496993
-0.10235
0.183139
-0.272806
0.0896666
-0.148934
0.152718
-0.215568
-0.134239
-0.234006
0.0625944
-0.175831
-0.0581752
0.0804039
0.311819
-0.392223
0.153119
-0.00431083
-0.264542
-0.088125
0.352667
0.218114
0.0957905
-0.313905
0.101628
0.00246033
-0.104088
-0.403708
-0.205122
0.60883
0.657149
-0.180906
0.319556
-0.143896
-0.175661
-0.427871
0.260242
0.479965
-0.211001
-0.268963
-0.175289
0.00631481
0.100142
-0.148769
0.0235605
-0.0117498
-0.494708
0.353735
0.140973
-0.673451
0.221903
0.262331
-0.351255
0.144752
0.0993011
-0.537051
0.290173
0.246879
-0.294077
0.029535
-0.123406
0.0186222
-0.124557
0.632637
-0.189265
0.631263
-0.441998
-0.319892
0.400296
-0.236528
0.32321
-0.0644763
-0.0736055
0.138082
-0.0762909
0.190434
0.0151078
-0.00892497
-0.143511
-0.0493458
0.192856
0.0268678
0.0661874
-0.0930552
-0.356754
-0.194026
0.158557
0.338436
0.61124
0.00721414
0.0265985
-0.101487
0.0748884
-0.0785149
0.289165
0.0945862
-0.0679876
-0.311703
0.0574488
-0.0100057
0.242467
0.0416958
0.179204
-0.2209
0.146786
0.165967
-0.150371
0.125261
0.430661
-0.624564
0.110502
-0.265486
0.154985
0.192942
0.126615
0.0153233
-0.110404
0.0950811
0.473643
-0.114103
-0.382583
-0.155056
0.537639
0.0794719
0.185504
-0.264976
0.224222
-0.198045
-0.0261774
0.103967
-0.123825
-0.250593
0.0816838
0.168909
0.223698
-0.334715
0.111017
-0.00714189
-0.0412606
0.0249399
0.023583
-0.0485229
0.0431531
0.0851735
-0.128327
-0.570265
0.183888
0.0669957
-0.0628023
-0.0386847
0.466155
-0.678699
0.212544
-0.0117019
0.0366418
-0.76647
0.308547
0.457923
0.550132
-0.119472
0.476298
-0.611297
0.134999
-0.149778
-0.101963
-0.466716
-0.206955
0.0129871
-0.0362748
0.0232877
-0.418352
0.563853
0.114521
-0.366884
0.046442
-0.103794
0.0573518
0.0612296
-0.0525469
-0.00868274
-0.134944
0.0970501
0.0378939
0.00450781
-0.00141536
-0.0920348
0.354366
0.386181
-0.199103
-0.187078
0.161564
0.0773767
-0.238941
0.0418686
-0.185379
-0.0355648
0.0485519
0.173493
-9.44952e-05
-0.173398
-0.114947
0.0205759
0.0943708
-0.292698
0.122044
0.170654
0.0221175
-0.00931683
-0.139617
-0.0613121
0.144202
0.27382
-0.257512
-0.0163077
-0.410294
0.478316
0.692795
-0.379093
-0.313701
0.631509
-0.165354
0.67553
-0.603879
-0.0716511
0.13515
-0.624341
-0.0852448
0.113107
-0.0278618
-0.608436
0.322469
-0.147897
-0.0872574
0.235154
-0.157189
0.147872
0.506422
0.115297
0.0154985
-0.470558
0.186957
0.283601
0.126809
0.0176631
-0.144472
-0.2327
0.142497
-0.0641942
0.00603248
0.0581618
-0.129471
0.116963
0.215474
-0.0232047
-0.192269
-0.431671
0.609787
-0.178116
-0.475368
-0.107828
0.583196
-0.0510457
-0.0490189
0.100065
-0.1964
-0.298308
0.549616
-0.142383
-0.0337101
-0.0609162
0.0946263
0.183787
0.451583
-0.343542
0.131159
0.771735
-0.364725
-0.40701
0.000957989
0.00226441
0.27669
0.140085
-0.416775
-0.423988
0.100077
0.32391
-0.218922
0.162628
0.0562941
0.336374
0.0593413
-0.395715
0.401914
-0.261933
-0.302957
0.132854
-0.236084
0.0614345
-0.265809
-0.35923
-0.202444
-0.119621
-0.0253946
0.198887
-0.147003
-0.0150359
-0.713379
0.296257
0.417123
-0.280333
-0.433046
0.156527
0.0192238
-0.175751
0.124851
-0.142089
0.269991
-0.188122
-0.081869
-0.0396182
0.0696324
-0.0300142
0.187209
0.166195
0.204566
0.181615
0.559681
0.115849
-0.0405727
0.00804214
0.0325306
0.34547
-0.124037
-0.221433
0.114144
0.250438
-0.364583
0.647659
-0.474646
-0.173013
0.420382
-0.143692
0.246643
0.442374
0.205724
-0.00643409
-0.19929
0.0900613
-0.0631935
-0.0630972
0.460647
-0.134161
0.332026
0.439709
-0.0507783
0.0146163
0.036162
-0.0938752
0.0310729
0.0382704
-0.00579655
-0.0808097
0.0755872
0.00522244
-0.111958
0.0596084
0.0523499
0.557273
-0.501888
-0.0553848
0.6223
-0.439507
-0.182793
0.217302
-0.106801
-0.0905177
0.031517
0.329859
-0.12062
0.0989069
-0.160219
0.000131402
0.0656412
-0.0657726
0.0320746
0.0167743
-4.46289e-05
-0.375753
0.375798
0.504836
0.0524366
-0.0426305
0.00205777
-0.00543748
0.000722172
0.00471531
-0.0051261
-0.0650452
-0.579037
0.419093
0.185963
-0.0940083
0.0941397
-0.0804872
-0.000322437
0.450632
-0.645005
0.194373
-0.624866
0.193195
-0.0228929
0.149702
-0.107084
0.121673
-0.0785196
0.086621
0.00337765
-0.0899986
0.107822
-0.0613798
-0.434444
0.135497
-0.170739
0.0352421
0.0011367
-0.00657418
0.698904
-0.307925
-0.390979
0.437555
0.166139
0.34281
0.356094
0.166128
-0.0230919
0.147942
0.32813
-0.104432
0.238688
-0.157005
0.487684
-0.550782
-0.0105139
0.112142
-0.00494796
0.000450227
0.00449774
0.0235754
-0.165474
0.141898
-0.0591569
0.0195387
0.520427
0.0291898
0.0687738
-0.340928
0.272155
-0.437807
0.243772
0.194035
-0.00394789
-0.00100007
-9.01783e-05
-0.116105
0.116195
-0.470716
0.510104
-0.0393876
-0.183025
-0.109673
-0.224178
-0.24638
-0.107393
0.0221483
-0.300906
-0.116587
0.417493
-0.476325
-0.148541
-0.0392873
0.161005
-0.121718
0.360623
0.261677
0.242047
-0.169131
-0.0729156
-0.0805027
0.13688
-0.0563772
-0.0995938
-0.0238123
0.0753455
-0.102859
0.0275132
0.120871
-0.268711
0.14784
0.628815
-0.462252
-0.166562
0.494551
0.0258759
0.417375
-0.230317
0.53917
-0.498383
-0.0407878
0.459646
0.233148
0.177448
0.0467743
0.185343
0.232032
0.41163
-0.0594433
-0.352187
-0.151714
-0.434367
-0.0854442
0.441475
-0.154261
0.22917
-0.0749096
-0.131736
-0.13375
-0.0463171
0.0712482
0.023338
0.102498
-0.0871752
-0.00998744
0.12096
-0.0393662
-0.119832
0.159198
-0.135828
0.135737
-0.685121
0.403106
0.282015
-0.268106
0.141633
0.397817
-0.53945
-0.00475599
0.000618694
0.0041373
-0.112349
-0.0380221
-0.235036
0.0592047
-0.171997
-0.121876
0.141543
0.013779
0.115747
-0.380212
0.264465
-0.171032
0.531655
-0.0500746
0.0733689
-0.0232943
-0.0947003
0.0346844
-0.0469724
0.383346
0.465915
0.158144
-0.624059
-0.0297216
0.186248
-0.169846
0.13048
-0.32092
0.0843916
0.172883
-0.612389
0.0793454
-0.123606
0.0783993
-0.0083567
-0.0700426
-0.334031
0.333987
0.594653
-0.325873
-0.26878
0.209979
-0.182067
-0.0279115
0.308102
-0.420174
-0.288039
-0.397082
0.0243544
-0.101851
-0.0130962
0.0474326
0.127688
-0.17373
-0.37218
-0.037656
0.141534
-0.103878
-0.682796
0.397624
0.285172
0.300321
0.0534138
-0.0289122
-0.064963
0.102745
-0.0161236
-0.115522
-0.499009
-0.116605
0.51423
-0.222094
-0.342053
0.564147
0.114647
0.309668
-0.424315
-0.479666
0.321318
0.158348
0.3355
0.406771
-0.219562
0.394806
-0.279059
0.324441
-0.441046
-0.00833676
0.00504393
0.00329284
0.307632
0.269861
0.381083
0.210421
-0.176876
-0.033545
0.267417
-0.177832
-0.0895847
-0.288939
0.404452
-0.115513
0.500285
0.0388855
-0.0669782
-0.0679658
0.100631
-0.0265688
-0.0740618
-0.125367
0.00375513
0.121612
-0.614639
0.0430492
-0.00136688
0.0777207
-0.0253326
-0.052388
0.339683
0.0719471
-0.562991
-0.0108919
0.573883
0.164495
-0.0529261
-0.111569
-0.0777233
-0.190988
-0.381323
0.216848
0.164474
0.241036
0.396772
-0.532695
0.135923
-0.158541
-0.0626852
-0.118695
0.0191008
-0.109163
-0.314824
-0.131118
-0.148867
0.279985
-0.162266
-0.400726
0.25385
-0.636433
-0.0935781
0.54421
0.185873
0.220898
-0.0981912
0.281331
-0.219104
0.0712068
-0.230443
-0.149769
-0.0941281
0.119207
-0.445173
0.159095
0.286078
0.14114
0.00633124
0.200313
-0.215115
0.0616349
0.0160858
0.219268
-0.477226
-0.337706
-0.199346
0.191907
0.0780832
-0.0923985
-0.01306
0.105458
-0.159119
-0.0972305
0.0635204
0.260206
-0.366417
0.216779
-0.0393315
-0.566678
0.0441482
0.52253
-0.00768489
-0.000651869
0.46608
0.134764
-0.600844
0.0917474
-0.0307219
-0.0610256
-0.117972
0.59427
0.223761
-0.0574744
-0.166287
-0.454922
0.604041
-0.149119
-0.110416
0.576332
0.481785
-0.650393
0.168607
0.182519
-0.473622
-0.169316
0.0122821
0.197697
-0.205598
0.278725
-0.155323
0.0485687
-0.243744
-0.369454
-0.11457
0.484024
-0.167465
0.138028
0.0294365
0.0609282
0.162123
-0.223051
0.0838175
-0.238078
-0.554865
0.514234
0.0406312
0.589925
-0.188665
-0.40126
-0.613473
0.0586074
-0.647995
0.276845
0.371151
0.393472
0.196452
-0.040296
0.00447047
-0.00284142
-0.00191458
0.319724
-0.283298
0.0364021
0.150026
0.110435
-0.0200964
-0.0903388
-0.0146131
-0.0361652
0.0176461
-0.500999
0.483353
-0.137738
-0.442919
0.660762
-0.217843
-0.260117
0.159001
0.438491
-0.597493
-0.578501
0.258609
-0.258216
-0.194803
0.0399993
0.154804
-0.74277
0.315419
0.427351
0.0615868
-0.0431784
-0.0184084
-0.446513
0.659381
-0.294833
-0.364548
-0.0523674
0.0377543
-0.00344698
0.00458368
0.517958
0.145354
0.329768
0.0475537
-0.377322
0.704325
-0.186367
0.561225
-0.628049
0.0668237
-0.489964
0.316235
-0.0530488
-0.0111455
-0.248733
0.477985
-0.372
-0.105985
0.398879
-0.284232
0.530007
0.0115372
-0.541544
-0.00417105
0.491855
-0.159043
0.127397
0.0316456
0.201269
-0.311111
0.109842
0.297822
0.0807127
-0.378534
-0.0361472
0.171644
0.403604
-0.244508
0.394974
0.010453
-0.200846
0.190393
-0.251842
-0.185965
-0.170344
0.0333483
0.136996
0.0905298
-0.0469254
-0.0484326
0.0788864
-0.0304537
-0.20658
0.480045
-0.273465
0.0608515
-0.250802
0.189951
0.114653
-0.581359
0.238314
-0.311291
-0.104374
0.30894
0.559496
-0.209859
-0.349637
-0.566678
0.173868
-0.278242
-0.380696
-0.254858
0.124158
0.1307
-0.507084
0.296534
0.21055
0.0948979
0.474774
-0.569672
0.119335
-0.383388
0.264053
0.127446
0.0214149
0.0454316
-0.0308154
-0.297682
0.0999771
0.197705
-0.0548441
-0.0695213
0.124365
0.159367
0.0592129
-0.21858
-0.34657
0.60042
0.375349
-0.011975
-0.0283209
-0.659218
0.427496
0.231722
-0.68822
0.2453
0.483783
0.0782061
-0.561989
0.290798
0.104007
-0.600882
0.413677
0.0306781
-0.444355
0.0587795
0.0617915
-0.303851
0.256008
0.0478427
0.038053
0.0231766
0.00441144
-0.00565493
0.00124349
0.599396
-0.113727
0.652323
0.0124316
0.0629127
-0.0753444
-0.153598
0.189188
-0.0355901
-0.0471629
0.0681355
-0.0209725
0.123211
0.235582
0.0925483
0.462329
-0.0822126
-0.659405
0.401877
0.257528
0.344941
-0.143672
-0.105802
0.403624
0.393737
-0.0540541
0.379069
-0.319727
-0.67192
0.19312
0.478801
0.108173
-0.000691944
-0.107481
-0.246595
-0.425325
-0.0716405
-0.123163
0.53166
0.172665
-0.537047
0.314953
0.310367
-0.243807
-0.0665606
0.524566
0.0895454
0.0728625
0.0188849
0.19101
0.0764076
-0.214077
0.341788
-0.127711
0.0406811
0.0599495
0.108531
0.0969646
-0.0243539
-0.0726107
-0.0364863
-0.00449396
0.0409802
-0.242322
-0.237344
-0.481608
0.119916
-0.333993
0.139446
-0.139526
7.94852e-05
-0.118165
-0.426304
-0.198878
-0.00643421
0.00298723
0.0207801
-0.0718617
0.15956
-0.149107
0.0608731
-0.0646574
0.369303
0.190193
-0.219098
0.164539
0.0545585
0.484499
0.0455075
-0.164578
-0.0902798
-0.18935
-0.145365
-0.688496
0.408163
0.12037
-0.0164034
-0.419495
0.207744
0.173944
-0.0352347
-0.138709
-0.268423
0.0824351
0.185988
0.113377
-0.0163268
0.150353
-0.0229069
-0.657774
0.311209
0.346565
0.119536
-0.299862
0.180326
-0.416781
0.115875
-0.263528
-0.394246
-0.663143
0.442367
0.220776
0.0877075
-0.284365
0.196657
-0.0029784
0.105477
-0.0808642
0.564647
0.0283133
0.0821219
0.151943
0.437914
-0.589857
-0.104001
0.336947
-0.101365
-0.0367524
0.113064
-0.0763119
-0.214044
-0.326933
0.540977
-0.254016
0.139254
0.363919
-0.535723
0.171804
-0.133614
-0.0232764
0.0155915
0.00555207
0.204869
0.571505
-0.345114
-0.226391
0.0111774
-0.0134712
0.00229381
0.16925
0.0545111
0.528403
-0.164484
-0.164288
0.031991
-0.105597
-0.34549
-0.302505
-0.0553901
0.107221
-0.0518313
-0.467585
0.261005
-0.365079
-0.148587
0.513666
0.570149
-0.25833
0.194382
-0.154592
-0.0397894
-0.0722432
-0.163841
-0.0935894
-0.275334
-0.413162
0.364492
0.109151
-0.619138
0.591389
0.0277486
-0.11895
-0.303648
0.422598
-0.18332
0.0661238
-0.117452
0.0513283
0.399208
-0.213334
0.190118
-0.272033
0.0819145
-0.148347
-0.232976
0.183464
0.386685
0.281306
0.0290611
0.471664
-0.58208
0.0410504
-0.0362744
0.0765763
-0.25403
0.177454
-0.0107616
0.292526
-0.281764
-0.104084
0.36429
0.398177
0.173327
-0.369728
0.265644
-0.0871838
0.211385
-0.124201
0.133803
0.0306913
0.0103461
-0.101485
0.551168
-0.449683
-0.0767249
0.266843
0.465174
-0.636891
0.171718
-0.190265
0.251117
-0.299938
0.221423
0.070972
-0.119991
-0.0371862
0.50885
-0.0456657
0.424734
0.000104676
0.00430676
-0.0241972
0.0995426
0.332369
-0.487425
-0.194735
-0.292772
0.487506
0.524589
-0.382957
0.0489465
-0.0461348
-0.00281168
-0.244976
0.099871
0.145105
0.370905
-0.485475
0.196837
0.202371
0.0927468
-0.40088
0.308133
-0.60436
0.257791
0.107049
0.00112338
-0.356308
0.23291
0.123398
-0.252073
0.11484
-0.0281659
-0.0866739
-0.0777982
0.0293655
-0.108679
-0.288761
0.103807
0.184954
-0.436228
0.453874
0.115733
0.301777
-0.41751
-0.107154
-0.0159653
0.123119
0.0515342
-0.0200271
-0.0315071
-0.573284
0.0979164
0.0794052
0.0276442
0.0838733
-0.00547396
-0.00390493
0.0987199
0.0393619
0.0226091
0.0289251
0.0179359
0.0310106
0.415965
-0.561709
0.145744
0.0409088
0.175871
-0.0962437
-0.0200172
0.116261
-0.209864
0.298647
-0.434678
0.136031
0.571785
-0.419842
-0.124243
0.0389698
-0.012099
-0.48661
0.11461
0.180625
-0.0358726
0.261342
-0.0620133
-0.199329
-0.0620754
0.300389
0.66311
-0.413174
-0.249936
0.25647
-0.0879847
-0.168485
-0.622939
0.458927
0.164012
-0.140437
-0.0299066
0.128263
-0.658779
0.199402
0.459376
0.0168902
0.026159
-0.0171357
0.156582
-0.0798633
0.130987
-0.0511237
0.117199
-0.296268
0.179069
-0.292352
-0.400664
0.0122977
0.00747237
-0.01977
-0.614705
0.283855
0.33085
-0.00629797
0.00581812
0.00047985
0.0361476
0.137796
-0.120032
0.0610786
-0.00775063
-0.053328
0.0883915
0.361228
-0.449619
0.117792
0.318216
-0.436008
-0.0904316
-0.0163352
0.106767
0.22982
0.157705
-0.387525
-0.174226
0.413679
-0.325287
-0.120817
-0.689334
0.272721
0.416613
0.109189
0.327375
-0.436565
0.156981
-0.543395
0.386414
-0.0157786
-0.0456591
0.0614376
-0.754837
0.526643
0.228194
0.0626465
0.162186
-0.224832
0.0364321
0.0784076
-0.260277
0.204148
-0.0620157
0.0889091
-0.0268934
-0.420036
0.100058
-0.290167
0.19011
-0.271587
0.414748
-0.143161
-0.197011
-0.557826
0.0414266
-0.0968167
0.0664454
-0.0540138
0.101664
-0.166426
-0.323538
-0.282632
-0.15821
0.440841
0.00933606
-0.0891994
-0.340543
0.458335
0.437134
-0.327945
-0.134337
-0.427113
-0.165951
0.593064
0.00297702
0.0634684
-0.326432
-0.362901
-0.388986
0.483884
0.415639
0.0531821
-0.468821
0.69782
-0.193108
-0.504712
-0.0963996
-0.603019
0.428619
0.1744
0.365615
-0.271322
-0.0942933
-0.0633261
0.222693
0.105583
-0.507198
0.401614
-0.231668
-0.447031
0.502204
-0.396621
-0.41836
-0.184659
-0.1399
0.438546
0.0490127
0.212329
0.0814186
-0.229147
0.147729
0.406629
-0.195008
-0.211621
0.0871391
-0.040455
-0.0466842
0.310246
0.0930108
-0.403256
0.194064
-0.0546635
-0.1394
-0.635155
0.289664
-0.193868
-0.0745552
0.299109
0.398712
-0.0151155
-0.1579
0.173016
-0.0343366
0.113742
0.0251005
-0.151506
0.419359
-0.267853
0.0742075
0.207365
-0.281572
0.0201595
-0.192608
0.172449
-0.203614
0.11643
0.162919
-0.123944
0.410387
-0.286443
-0.183536
0.145906
0.0376302
-0.410416
0.293829
-0.192493
0.181688
0.258471
-0.0729663
0.244971
0.402688
0.0337686
-0.0957844
0.0575692
0.0294301
-0.0869993
-0.192488
0.263737
-0.0712492
0.409967
-0.0997212
-0.0198561
0.00913886
-0.151222
0.173182
-0.0219599
-0.686316
0.287701
0.398616
0.0224695
-0.0238893
-0.0779613
-0.331422
-0.063976
0.395398
0.666199
-0.35078
-0.149634
-0.378231
-0.308086
0.210641
0.195988
-0.405736
0.105736
-0.525214
0.419478
-0.188876
0.276583
-0.26811
0.558282
0.187463
-0.175181
0.0562659
0.337472
-0.137564
-0.0815401
-0.580456
0.211092
0.369364
-0.349985
-0.28517
0.26473
-0.356765
-0.0160416
0.0651724
-0.0491308
-0.375406
0.61472
-0.239314
-0.15439
0.131497
0.400719
0.276565
0.127038
0.0688455
-0.0888627
0.182658
-0.259383
0.610157
-0.610157
-0.186097
0.160702
0.0382858
-0.142781
0.104495
0.0027683
-0.146727
-0.379756
-0.243183
0.0298608
0.0945667
-0.745037
0.402984
-0.285335
0.0989536
0.186382
0.0112391
-0.0157331
-0.101131
0.365861
-0.0904011
0.572186
0.220604
0.410905
0.148795
-0.309001
0.345354
-0.036353
0.120542
-0.40948
-0.0318183
0.0301202
0.0639601
0.739831
-0.308744
-0.431087
0.00299567
-0.00314657
0.000150892
-0.0444563
0.245519
0.0738777
-0.0603485
-0.0135291
-0.0312885
0.176683
-0.116607
0.532247
0.0133139
-0.0128637
0.429804
-0.65435
0.224545
0.469147
-0.610174
0.420106
0.190068
0.18867
-0.168511
0.22332
0.391825
-0.249499
-0.0797013
0.3292
0.25892
-0.014689
-0.244231
-0.382553
0.0593368
-0.0968538
0.163829
0.228492
-0.646852
0.152665
-0.0591965
-0.0934683
0.518655
0.138771
0.0506402
0.00600347
-0.0566437
-0.205863
-0.374593
-0.0185354
0.0794086
0.29662
0.44321
0.112084
-0.0915081
0.181024
0.478357
-0.601005
0.258695
0.34231
0.186002
0.0704683
-0.150913
0.62706
-0.214735
-0.412325
-0.429689
-0.16699
0.596679
0.224375
-0.26842
0.0440449
-0.158169
0.14204
0.401054
-0.543094
-0.718538
0.426186
0.135162
0.0676642
-0.202826
-0.394509
-0.350528
0.172856
0.358805
-0.42349
-0.295048
-0.302197
0.114543
0.187654
-0.562751
0.158327
0.0360544
-0.485393
0.318967
0.0680523
-0.379446
-0.203533
-0.652922
0.229141
0.42378
0.426938
0.18285
0.110079
0.0134324
-0.123511
-0.0285784
-0.120064
0.148643
-0.562547
0.223402
0.339145
-0.276412
0.0107532
0.265659
-0.0634391
-0.0394196
-0.180483
-0.134267
-0.119749
-0.0574311
0.471108
-0.047326
0.11345
0.240639
-0.432318
-0.0825257
-0.17765
0.260176
0.143162
0.0336846
-0.176846
-0.0311661
0.0887353
-0.172468
0.601087
-0.20093
0.00731003
-0.00226611
0.00899991
-0.0207018
0.0505568
0.143507
0.443239
-0.344278
-0.0989608
0.268428
-0.0440536
-0.224547
0.180091
0.369216
-0.301596
-0.0676198
0.155193
-0.318913
0.194876
-0.0161084
0.0293636
-0.0132552
-0.137107
0.137012
0.104855
0.495003
-0.599858
0.049189
-0.0789038
-0.0362772
0.194604
-0.0967058
0.0600641
0.0366417
-0.10924
-0.307508
0.416748
0.01958
-0.233635
0.214055
-0.0315868
-0.443059
0.015558
0.108073
-0.123631
0.496393
-0.373475
-0.122918
-0.659231
0.35509
0.304141
0.464041
-0.515479
0.154631
0.360848
0.181263
-0.231107
0.0498439
-0.108182
0.0533375
0.527518
0.082639
0.420016
0.246183
0.132675
-0.517856
0.385181
-0.051665
0.0316379
-0.184307
-0.514786
0.309664
0.598558
-0.462055
-0.413949
0.143429
0.27052
-0.215234
-0.0349756
0.250209
-0.386497
0.181307
0.0605519
0.262493
-0.209335
-0.0168175
0.226152
0.0917948
0.116481
0.451774
0.146785
0.739959
-0.309712
-0.430248
0.231241
-0.0960791
0.298742
0.441217
0.473473
-0.193459
-0.280014
0.632849
-0.430274
-0.202575
-0.1382
-0.041705
-0.110234
0.151939
0.295289
-0.355785
0.222446
0.133339
0.294696
-0.50874
-0.228607
0.116478
-0.100491
0.0874309
-0.23044
0.158197
-0.0486652
0.147572
-0.19019
0.0566136
-0.283006
0.0790414
0.364198
0.0192633
0.0546143
-0.395253
0.527927
0.462652
0.170197
0.115302
0.0143764
-0.129679
0.122064
0.0282882
0.00199208
-0.118543
0.116551
-0.136742
0.539355
-0.402612
0.247886
0.0259341
0.283631
-0.393271
0.10964
-0.179476
-0.116793
0.479836
-0.654524
0.174688
-0.0821685
0.299017
-0.0732692
0.162812
-0.0895429
-0.189755
-0.0857902
0.223142
-0.137352
-0.0337291
0.169069
-0.0295747
-0.139495
-0.401462
0.0581333
0.0029453
-0.315669
-0.165168
-0.19114
-0.732957
0.296491
0.436465
0.191796
-0.157776
-0.0340201
0.53461
-0.0203761
-0.436336
0.183456
-0.00283091
-0.434857
0.592727
-0.157869
-0.367467
0.260292
0.107175
0.643971
-0.214167
-0.484068
0.201436
-0.165971
0.104678
-0.153343
-0.242539
-0.416866
0.551617
-0.154845
-0.120757
0.0476547
-0.202247
-0.200923
0.0423821
-0.734623
0.425879
-0.346588
0.18142
0.0239606
0.130678
-0.154638
0.0207801
-0.00746619
-0.0168475
0.0896878
-0.113885
-0.0943258
-0.145027
0.172692
-0.027665
0.296065
-0.661143
-0.423033
0.299089
-0.134855
0.477872
-0.343018
-0.232874
0.0726896
0.160185
-0.409002
0.299762
-0.741947
0.302176
0.439771
-0.486643
0.370055
0.116588
0.199699
0.073509
-0.273208
0.165083
-0.31598
-0.425967
-0.264249
-0.147482
0.411731
-0.0491468
0.192308
0.0453435
-0.0132689
0.155439
0.0130187
-0.000720994
0.258109
0.000811591
0.109898
-0.136422
0.0265239
0.134867
0.0824358
-0.123924
-0.187188
-0.185827
0.236462
-0.0506348
0.0469827
-0.00892966
0.0395748
-0.419614
0.300664
-0.216114
-0.0779628
-0.131784
-0.104967
-0.0340993
0.139066
-0.115873
0.397086
0.481671
-0.110766
-0.317908
-0.16616
-0.147817
0.229235
-0.109255
0.0916342
0.246776
-0.33841
0.303403
-0.38949
-0.20806
0.0132167
0.198933
0.40276
-0.131917
0.296391
-0.130399
-0.103883
0.234282
-0.177854
0.468105
-0.29025
0.431442
-0.125257
-0.107617
-0.599581
-0.162111
-0.151794
-0.259597
0.177071
-0.0963688
0.201014
-0.104645
0.110203
-0.139117
0.0289142
0.501102
-0.173137
-0.327965
0.00165696
-0.0120183
0.0103613
0.0161662
0.148431
-0.0382284
-0.00270095
0.186157
-0.0278791
-0.114902
0.565964
-0.155812
-0.410151
-0.261192
-0.0945933
0.0370622
0.154733
0.273302
0.297953
-0.571255
0.398569
0.167394
-0.0427904
-0.0183657
0.205829
0.0634686
-0.327718
0.459083
0.075527
-0.721273
0.280042
0.441231
-0.312243
-0.409031
-0.153667
-0.348785
0.350539
-0.482974
0.132435
-0.36924
0.0979181
-0.662785
0.26274
0.400046
-0.435514
-0.453718
0.620306
-0.494665
-0.125641
-0.0650854
0.0493069
0.108316
0.228631
0.163892
0.436136
-0.600028
0.0604702
-0.0682209
-0.00673405
-0.00673713
0.252126
-0.0708635
0.196285
-0.278453
0.0976233
-0.143507
-0.0729133
0.125903
-0.148995
0.0483611
0.0189012
-0.0672623
-0.324296
0.00638825
0.152168
0.321305
-0.508998
0.587204
-0.0643519
0.093686
-0.0293341
0.0666445
0.22892
-0.295565
-0.0276037
-0.0143915
0.0419953
-0.0352448
-0.061461
0.169804
-0.597928
0.428124
0.173611
-0.549018
0.0358109
0.170922
-0.600612
0.562156
-0.40896
-0.153196
-0.00031314
0.000805911
-0.000492771
-0.364145
0.596451
-0.232307
0.390482
-0.10685
0.68526
-0.210486
-0.0370516
0.00155592
0.0354957
0.621319
-0.201739
-0.41958
-0.498572
0.542048
-0.385067
0.46495
-0.545814
0.629848
-0.163768
-0.0173751
0.00126665
0.122962
-0.468691
0.310481
-0.732828
0.423116
0.00370585
-0.1075
0.146276
-0.0237469
-0.122529
-0.368425
-0.121208
0.489634
-0.192413
-0.326862
-0.150366
-0.389282
-0.205931
0.595213
-0.192629
0.267745
-0.0751162
-0.491785
0.3295
0.162284
0.492217
0.0699385
-0.0369193
0.0437346
-0.0068153
-0.193991
-0.0783937
0.272385
0.575559
-0.176989
-0.448771
0.270917
-0.190474
-0.377276
0.567749
0.172136
-0.594228
0.422093
-0.400504
-0.200501
0.112385
0.386613
-0.498997
-0.122118
-0.0992105
-0.270517
0.203798
-0.0602912
0.126475
0.218467
0.409803
0.217257
0.129091
0.257513
-0.386605
0.0499247
-0.185168
0.135243
0.15884
0.0303481
0.0797838
-0.153053
-0.126901
-0.26637
0.0721216
0.232426
-0.304548
0.262689
-0.36382
0.29809
-0.388415
0.0903247
0.00105372
-0.00136686
0.482501
-0.309646
0.16407
-0.267844
0.103774
0.008967
0.534067
-0.534067
0.0821286
-0.0300002
-0.0521284
-0.161515
-0.445354
0.606869
-0.0171964
0.0669444
-0.049748
-0.204417
0.276539
0.29376
0.106079
0.0470403
-0.0550412
0.0466845
-0.556941
0.366467
0.0139213
0.0961578
0.0942197
-0.614635
-0.104824
0.226868
-0.178687
-0.0788576
0.257544
-0.144523
-0.0274354
0.171958
0.0206775
-0.073056
0.0523785
-0.151292
0.411534
-0.132491
-0.0187308
-0.130755
-0.02426
0.166599
0.105437
-0.535831
0.430394
-0.611987
0.348459
0.0653664
0.156006
-0.221373
-0.0781501
0.0545675
0.0235826
0.0808205
0.0241001
-0.738376
0.422396
-0.0457986
0.00887924
-0.564126
0.443063
0.107069
-0.537177
0.520402
0.0167757
-0.199462
0.281897
0.121546
0.361698
-0.483244
0.526001
-0.0610512
0.283132
-0.216488
-0.628443
0.45548
0.172963
0.599938
0.124293
-0.144337
0.0200441
0.0898643
0.0411227
-0.201455
-0.354416
-0.274027
-0.370161
0.238244
-0.00512968
-0.00116829
-0.439466
0.123808
-0.152387
-0.436337
0.0678809
-0.0195198
-0.25548
-0.161861
0.417341
-0.426484
0.287316
0.139168
0.269779
-0.0871209
0.145494
-0.581412
-0.260216
0.0703786
0.0760103
0.391113
0.160504
0.258805
0.0035576
-0.439634
0.552324
-0.345804
-0.206519
-0.095518
0.62016
-0.462572
-0.157588
-0.0228313
0.0538419
0.0504468
-0.0664885
-0.122764
-0.221295
0.344058
0.250439
0.392564
-0.390248
0.475844
-0.345073
-0.130771
-0.0714344
-0.159672
0.270129
-0.195922
-0.432454
-0.160297
0.592751
-0.441322
0.532666
-0.0913434
-0.294683
0.00431782
0.148709
-0.279827
-0.0393694
0.0033829
-0.304942
0.397952
-0.340348
0.0624286
-0.065407
0.232037
0.428726
-0.0692839
-0.212076
-0.39636
-0.0674336
0.0251656
0.042268
-0.279168
0.0860647
0.193103
0.136189
0.0328807
0.0498982
-0.00291551
-0.741456
0.429214
-0.530144
0.393402
0.313457
-0.189673
-0.528578
0.113913
0.414666
0.122885
0.246701
-0.369586
0.0517612
-0.0487842
-0.119768
0.470307
-0.14693
0.538043
0.028659
0.098908
0.0309714
-0.129879
0.0999017
-0.0816233
-0.0182785
-0.181174
-0.350308
-0.437554
-0.161843
0.599397
-0.421896
0.586717
-0.164821
-0.636874
0.206161
0.430712
-0.422329
0.118681
-0.108029
-0.0931659
0.396734
-0.120168
-0.138856
-0.0446805
-0.165744
0.124039
-0.43928
0.145431
0.0394323
-0.184863
0.272325
-0.152789
-0.320461
-0.294244
0.167399
-0.0312105
-0.00228089
0.00162902
0.136326
-0.153461
-0.0523428
0.0930239
0.310496
0.174279
-0.484775
0.0878719
0.387972
-0.175546
0.279353
0.106421
0.167611
-0.274032
0.377198
0.174996
-0.51766