/*--------------------------------*- C++ -*----------------------------------*\
| =========                 |                                                 |
| \\      /  F ield         | OpenFOAM: The Open Source CFD Toolbox           |
|  \\    /   O peration     | Version:  v2012                                 |
|   \\  /    A nd           | Website:  www.openfoam.com                      |
|    \\/     M anipulation  |                                                 |
\*---------------------------------------------------------------------------*/
FoamFile
{
    version     2.0;
    format      ascii;
    class       surfaceScalarField;
    location    "50";
    object      phi_0;
}
// * * * * * * * * * * * * * * * * * * * * * * * * * * * * * * * * * * * * * //

dimensions      [0 3 -1 0 0 0 0];
oriented        oriented;


internalField   nonuniform List<scalar> 
21240
(
-0.38522
0.60167
-0.21645
-0.0442379
0.147534
-0.103296
-0.141769
-0.350782
0.492551
0.244049
-0.174648
-0.0694014
-0.0901947
0.241845
-0.15165
-0.254454
-0.211753
0.466207
0.630423
-0.489202
-0.141222
-0.252394
-0.106205
0.358599
0.0472527
-0.0701651
0.0229124
0.581823
-0.502506
-0.0793173
-0.666549
0.380152
0.286397
0.348101
0.0362456
-0.384346
0.184068
-0.0179035
-0.166164
0.139976
0.231428
-0.371403
0.508099
0.122324
0.0103676
-0.336881
0.326513
-0.383802
0.530686
-0.146884
0.0416749
-0.0358184
-0.00585645
0.429261
-0.582991
0.15373
0.27097
-0.260602
0.00378954
0.141934
-0.145724
0.0661521
-0.39692
0.330768
-0.68453
0.485656
0.198874
-0.312382
-0.354167
0.0476863
0.0436019
-0.0912882
0.315167
-0.056133
-0.259034
0.163915
-0.0612541
-0.102661
0.450472
0.131351
0.146462
0.0174537
-0.591128
0.635367
-0.0442387
-0.0532748
0.148946
-0.0956716
0.647465
-0.169897
-0.477568
0.0117824
0.0061721
-0.0179545
0.650924
-0.466676
-0.184248
-0.0310896
0.231402
-0.200313
0.106692
0.540773
0.424952
0.145511
-0.570463
-0.28912
0.25803
-0.751225
0.396975
0.354251
-0.184672
0.274207
-0.089535
0.074423
-0.0271703
-0.180012
-0.131816
0.311828
0.00816972
0.165171
-0.173341
-0.104789
-0.0198484
0.124637
0.232362
-0.132285
-0.100077
0.283949
-0.15803
-0.12592
0.359589
-0.501358
0.597332
-0.14686
0.445354
-0.208224
-0.23713
0.219918
-0.211749
-0.159953
0.584905
-0.00127704
-0.114207
0.115484
-0.717706
0.388923
0.328782
0.413304
-0.581733
0.168428
-0.454684
-0.263022
0.210658
0.0731107
-0.283768
0.249421
-0.2172
-0.0322213
0.690521
-0.520416
-0.170105
-0.0387157
0.353882
0.110599
-0.0629131
0.64302
-0.229716
0.147929
0.136021
-0.16204
0.186427
-0.0243868
0.21762
-0.642932
0.425312
0.397559
0.0865987
-0.484157
-0.386388
0.552206
-0.165818
-0.477907
0.127125
0.0828925
-0.136167
-0.344901
0.162052
0.18285
0.692839
-0.586147
0.201827
-0.673681
0.471853
-0.633702
0.228546
0.405156
0.178335
-0.586082
0.407747
0.257374
0.0866675
-0.344041
0.621726
-0.435925
-0.185801
0.443555
-0.221552
-0.222003
-0.416082
0.232423
-0.0370841
-0.195339
0.555263
0.137576
-0.0422859
-0.0600188
0.102305
0.559383
0.0151422
-0.574525
0.156796
-0.350947
0.194152
0.262364
0.18299
0.663304
-0.434757
0.803589
-0.414666
0.0951951
-0.0297005
-0.0654946
0.0838346
0.148528
-0.643753
0.164173
0.47958
-0.465418
0.689024
-0.487197
0.175134
-0.0458893
-0.129245
0.0324688
0.00477686
-0.0372457
0.0167257
0.167342
0.0680207
0.483152
0.614118
-0.625187
0.0110696
0.556472
0.00291069
0.429795
0.373794
0.476253
-0.693052
0.216799
-0.257958
0.657426
-0.399468
-0.374257
0.194245
-0.395554
0.537537
-0.141983
-0.451525
0.615124
-0.1636
-0.366281
-0.318249
0.0481324
-0.228239
0.180106
0.603691
-0.439519
0.35604
0.070071
-0.426111
-0.30996
0.125288
-0.221225
0.188119
0.0331057
-0.0241104
0.209218
-0.185108
0.121648
-0.132155
0.0105068
-0.171375
0.240606
-0.069231
0.110976
-0.000164751
-0.110811
0.369548
-0.367458
-0.00208985
0.12487
0.00275996
-0.127629
0.345135
-0.278983
-0.117872
0.116595
0.312667
-0.170038
-0.142629
-0.113499
0.0879784
-0.0043431
-0.0836353
0.354391
-0.197595
0.136557
0.460775
-0.577722
0.193919
-0.193916
0.623177
0.248029
-0.134536
-0.113493
-0.0456469
-0.0510754
0.0967223
0.55518
-0.259154
-0.296026
0.00330536
0.152797
-0.156102
-0.567101
0.18188
0.608662
-0.365638
-0.243024
-0.550776
0.155222
-0.0486203
-0.0852759
0.133896
0.135476
-0.0235836
-0.111892
-0.253739
0.311997
-0.0582577
-0.107958
0.18706
0.256495
0.347402
0.26126
-0.0484022
0.000304307
0.0480979
0.148907
-0.0240372
-0.0126155
-0.109928
0.122543
0.16017
-0.156865
-0.190929
0.145415
0.0455136
-0.0811234
0.0354765
-0.15671
-0.434418
0.139385
-0.00390918
0.0030969
-0.00587591
0.00277901
-0.0889092
0.346283
-0.0512153
0.420763
0.378139
0.148806
-0.132905
-0.0159004
-0.0172351
0.138883
0.394643
0.142895
-0.285956
0.711316
-0.42536
-0.625026
0.292072
0.332954
-0.480719
-0.104281
0.584999
-0.68922
0.51718
0.17204
0.232663
-0.256774
-0.251733
0.160888
0.0908447
-0.630987
0.150269
0.256414
-0.00699335
0.0768514
-0.119137
-0.168968
-0.0156727
0.184641
-0.212384
0.345258
-0.132874
0.003561
-0.0251064
0.148401
-0.123294
0.407224
-0.646825
0.239601
-0.00386689
0.099062
-0.322237
-0.428989
0.114144
-0.179136
0.0649916
0.618449
-0.129486
-0.488964
-0.545907
0.291453
0.0861388
0.00183954
0.0488445
-0.0359841
-0.0128604
-0.292762
0.14584
0.146922
-0.0148051
-0.182457
0.197263
-0.0590034
0.090051
-0.0310476
-0.244676
-0.0730131
0.317689
-0.111844
0.459944
0.177973
0.377206
0.0196902
-0.15504
0.135349
0.0250658
-0.137726
0.11266
0.0257163
-0.010568
-0.0151483
0.0993294
0.1487
0.49699
-0.102348
0.183166
-0.272734
0.0895684
-0.148935
0.152724
-0.214341
-0.136606
-0.233954
0.0625793
-0.175769
-0.0581856
0.080463
0.311775
-0.392238
0.153121
-0.00431475
-0.264543
-0.0881498
0.352693
0.217581
0.0970998
-0.314681
0.101655
0.0024295
-0.104085
-0.403692
-0.205117
0.60881
0.657175
-0.180922
0.319539
-0.143868
-0.175671
-0.428163
0.260402
0.47996
-0.210997
-0.268964
-0.175286
0.00631781
0.100145
-0.148766
0.0235043
-0.0117219
-0.494705
0.35373
0.140975
-0.673418
0.221893
0.262346
-0.351255
0.144749
0.0993001
-0.537061
0.290183
0.246878
-0.294103
0.0295594
-0.123402
0.0186128
-0.124537
0.632636
-0.189256
0.631241
-0.441985
-0.319861
0.400324
-0.236544
0.323212
-0.064488
-0.0735964
0.138084
-0.0762875
0.190431
0.0150981
-0.00892598
-0.143511
-0.0493437
0.192855
0.0268622
0.0661879
-0.0930501
-0.356753
-0.194023
0.158554
0.338437
0.611237
0.00721238
0.0265938
-0.101482
0.0748879
-0.0784947
0.289152
0.0945815
-0.0679877
-0.312012
0.0582728
-0.0100156
0.242438
0.0416924
0.179203
-0.220895
0.146714
0.165953
-0.15037
0.125264
0.430664
-0.62458
0.110501
-0.265482
0.154981
0.192953
0.126586
0.015092
-0.110359
0.0952666
0.473664
-0.114075
-0.382539
-0.155084
0.537624
0.0794651
0.1855
-0.264966
0.224213
-0.198031
-0.0261822
0.103972
-0.12382
-0.250557
0.081654
0.168903
0.223789
-0.334739
0.11095
-0.00714163
-0.0412606
0.0245482
0.0238663
-0.0484145
0.0431567
0.0851705
-0.128327
-0.570278
0.183889
0.0673204
-0.0628025
-0.0386792
0.466225
-0.678714
0.212489
-0.0120671
0.0366154
-0.766442
0.308523
0.457918
0.550146
-0.119482
0.476306
-0.611309
0.135003
-0.149775
-0.101958
-0.466708
-0.206973
0.012983
-0.0362714
0.0232885
-0.418349
0.563861
0.114515
-0.36691
0.0466478
-0.103875
0.0572274
0.0612282
-0.0525448
-0.00868345
-0.13494
0.0970511
0.0378891
0.00450204
-0.00140514
-0.0920222
0.354368
0.386554
-0.199223
-0.187331
0.161559
0.0773719
-0.238931
0.0418645
-0.185375
-0.0355679
0.0485509
0.173492
-9.64086e-05
-0.173396
-0.11494
0.0205683
0.0943714
-0.292632
0.122095
0.170537
0.0220471
-0.00932284
-0.139612
-0.0613075
0.1442
0.274052
-0.258344
-0.0157078
-0.410293
0.478314
0.692807
-0.3791
-0.313707
0.631542
-0.165317
0.675523
-0.603872
-0.0716513
0.135123
-0.624325
-0.0852501
0.113097
-0.0278468
-0.608414
0.322458
-0.147896
-0.0872541
0.235151
-0.157193
0.14787
0.506429
0.115296
0.0154954
-0.470574
0.186957
0.283617
0.126809
0.0176593
-0.144469
-0.232688
0.142493
-0.0641897
0.00603422
0.0581555
-0.129668
0.117052
0.215471
-0.0232018
-0.19227
-0.431683
0.609793
-0.17811
-0.475364
-0.107846
0.583209
-0.0510341
-0.0490327
0.100067
-0.196401
-0.298304
0.549605
-0.142381
-0.0337047
-0.0609177
0.0946224
0.183789
0.451578
-0.343538
0.131154
0.771711
-0.3647
-0.407011
0.000958816
0.00223654
0.276693
0.14008
-0.416773
-0.42393
0.0996191
0.32431
-0.218934
0.162604
0.0563298
0.336368
0.059344
-0.395712
0.401909
-0.261934
-0.302898
0.13286
-0.236078
0.0614304
-0.265811
-0.359215
-0.202425
-0.119604
-0.0253922
0.198885
-0.147002
-0.015038
-0.713377
0.296258
0.417119
-0.280334
-0.433043
0.156507
0.0192488
-0.175756
0.124859
-0.142094
0.269927
-0.188141
-0.0817866
-0.0396206
0.0696279
-0.0300074
0.187313
0.167078
0.20477
0.181784
0.559674
0.115849
-0.040564
0.00803862
0.0325253
0.345464
-0.124032
-0.221432
0.114137
0.250442
-0.364579
0.647632
-0.474655
-0.172977
0.42038
-0.143687
0.246666
0.442358
0.205719
-0.00643055
-0.199288
0.0900557
-0.0631935
-0.0630951
0.460654
-0.134782
0.332004
0.439707
-0.0507685
0.0146129
0.0361556
-0.0938684
0.031066
0.0382654
-0.00579658
-0.0808073
0.0755802
0.00522706
-0.111935
0.059632
0.0523032
0.55727
-0.501885
-0.0553852
0.622285
-0.43948
-0.182805
0.2173
-0.106799
-0.0905088
0.0315054
0.329848
-0.12063
0.0989093
-0.160217
0.000135277
0.0656169
-0.0657521
0.0320719
0.0167725
-6.21374e-05
-0.375703
0.375766
0.504833
0.0524372
-0.0426223
0.00205838
-0.00546481
0.000756401
0.00470841
-0.00512247
-0.0650426
-0.579045
0.419092
0.185981
-0.0939837
0.0941189
-0.0804851
-0.00032222
0.450636
-0.645009
0.194373
-0.624867
0.193184
-0.0228894
0.149699
-0.107094
0.121674
-0.0785173
0.0866253
0.00336137
-0.0899867
0.107921
-0.061273
-0.434438
0.135499
-0.170739
0.0352403
0.00110307
-0.00656788
0.698895
-0.307924
-0.390971
0.437538
0.166153
0.342804
0.356092
0.166128
-0.0230905
0.14795
0.328155
-0.104366
0.238645
-0.156991
0.487695
-0.55079
-0.0104872
0.112142
-0.00491702
0.000441026
0.004476
0.0235788
-0.165477
0.141898
-0.0591539
0.0195333
0.520416
0.0291888
0.0687623
-0.340928
0.272166
-0.437138
0.243517
0.193621
-0.00393074
-0.000986287
-8.51029e-05
-0.116105
0.116191
-0.470705
0.510114
-0.0394094
-0.182923
-0.109709
-0.22418
-0.246394
-0.107388
0.0221377
-0.301102
-0.116181
0.417283
-0.476338
-0.14853
-0.0392991
0.161024
-0.121725
0.360575
0.26171
0.242021
-0.169112
-0.0729089
-0.0804025
0.136859
-0.0564566
-0.0995978
-0.0238037
0.0753533
-0.102844
0.0274906
0.120808
-0.268637
0.147828
0.628812
-0.462238
-0.166574
0.49454
0.0258766
0.417461
-0.230401
0.539155
-0.498369
-0.0407864
0.459653
0.233154
0.177435
0.0467785
0.185385
0.232076
0.411826
-0.0599349
-0.351892
-0.15173
-0.434352
-0.0854394
0.44148
-0.154182
0.228919
-0.0747372
-0.131736
-0.133746
-0.0463184
0.071247
0.0233345
0.102437
-0.0873455
-0.00998072
0.120957
-0.0393816
-0.119839
0.15922
-0.135824
0.135739
-0.685115
0.403099
0.282015
-0.268119
0.141638
0.397825
-0.539462
-0.00473741
0.000621395
0.00411602
-0.112353
-0.0380173
-0.234998
0.0592291
-0.171954
-0.121889
0.14158
0.013782
0.115112
-0.380437
0.265325
-0.171047
0.531622
-0.0500661
0.0733629
-0.0232968
-0.0946983
0.0346794
-0.0469756
0.383344
0.465902
0.158132
-0.624034
-0.0297511
0.186258
-0.169864
0.130483
-0.320919
0.0843748
0.172899
-0.612379
0.0794091
-0.123647
0.0784036
-0.00837026
-0.0700334
-0.333984
0.333922
0.594664
-0.325876
-0.268788
0.20997
-0.182135
-0.0278352
0.308073
-0.419917
-0.288039
-0.397075
0.0243569
-0.101848
-0.0130913
0.0474415
0.127693
-0.173727
-0.37218
-0.0376405
0.141551
-0.10391
-0.682792
0.397624
0.285167
0.30032
0.05341
-0.0289055
-0.0649629
0.102722
-0.0160968
-0.115522
-0.499002
-0.1166
0.514225
-0.222092
-0.342054
0.564146
0.114641
0.309678
-0.424319
-0.479452
0.321251
0.158201
0.335511
0.407248
-0.219936
0.394906
-0.279795
0.324442
-0.441043
-0.00824462
0.00507853
0.00316609
0.307624
0.269861
0.381063
0.210408
-0.176871
-0.0335369
0.267321
-0.177887
-0.0894342
-0.290082
0.404547
-0.114465
0.500271
0.0388842
-0.0669733
-0.0679669
0.100599
-0.0265507
-0.0740478
-0.125405
0.00377997
0.121625
-0.614617
0.0430412
-0.00136629
0.0777115
-0.0253255
-0.052386
0.339301
0.0725255
-0.562981
-0.010916
0.573897
0.164509
-0.0529195
-0.11159
-0.0777168
-0.19092
-0.381327
0.21684
0.164486
0.241025
0.396783
-0.532708
0.135924
-0.158538
-0.062687
-0.118691
0.0190933
-0.108207
-0.315723
-0.131111
-0.148869
0.279979
-0.162237
-0.400745
0.253868
-0.636408
-0.0935782
0.544214
0.186217
0.221032
-0.0980965
0.281262
-0.2191
0.0712038
-0.230686
-0.149751
-0.0941569
0.119223
-0.44519
0.159097
0.286093
0.141243
0.00629085
0.200298
-0.215103
0.0616306
0.016081
0.219268
-0.477226
-0.337708
-0.199354
0.191928
0.0779992
-0.0923957
-0.0130335
0.105429
-0.159138
-0.097224
0.0635193
0.26023
-0.366435
0.216768
-0.0393333
-0.566678
0.0441475
0.52253
-0.00770112
-0.000543499
0.466066
0.134786
-0.600851
0.0924135
-0.0312988
-0.0611147
-0.117975
0.594281
0.22372
-0.0576069
-0.166114
-0.454917
0.604051
-0.149134
-0.110407
0.576309
0.481779
-0.650385
0.168605
0.182517
-0.473607
-0.169325
0.0121852
0.197785
-0.205604
0.278715
-0.155316
0.0465444
-0.243654
-0.369513
-0.114573
0.484086
-0.16748
0.138036
0.0294434
0.060933
0.162086
-0.223019
0.0836878
-0.23787
-0.554847
0.514218
0.0406289
0.589903
-0.18868
-0.401223
-0.613454
0.0586065
-0.648004
0.276814
0.37119
0.393436
0.196467
-0.0402885
0.00447012
-0.00282016
-0.00191726
0.319386
-0.28314
0.0363997
0.150027
0.110432
-0.0200915
-0.0903402
-0.0146092
-0.0361593
0.0176464
-0.501009
0.483363
-0.137727
-0.442727
0.660525
-0.217797
-0.26012
0.159012
0.438493
-0.597504
-0.578503
0.258642
-0.258233
-0.194801
0.0399963
0.154804
-0.742769
0.315421
0.427348
0.0615854
-0.0431772
-0.0184082
-0.44651
0.659394
-0.294839
-0.364555
-0.0523586
0.0377494
-0.00348454
0.00458761
0.517942
0.145362
0.329744
0.0475863
-0.37733
0.704316
-0.186375
0.561223
-0.628046
0.066823
-0.489962
0.316236
-0.0530433
-0.0111464
-0.248759
0.478027
-0.372073
-0.105954
0.398883
-0.284242
0.530016
0.0115374
-0.541554
-0.00416769
0.491862
-0.159064
0.127424
0.0316407
0.201292
-0.311104
0.109812
0.297834
0.0807011
-0.378536
-0.0361456
0.171644
0.40362
-0.244523
0.394989
0.0104505
-0.200841
0.190391
-0.251576
-0.185562
-0.170359
0.0333621
0.136997
0.0905121
-0.0469102
-0.0484204
0.078886
-0.0304656
-0.206577
0.480046
-0.273469
0.0608347
-0.250789
0.189955
0.114662
-0.581338
0.237985
-0.310998
-0.10446
0.30923
0.559508
-0.209868
-0.349641
-0.566678
0.17421
-0.27867
-0.380697
-0.254576
0.124138
0.130438
-0.5066
0.296529
0.210071
0.0949145
0.474739
-0.569653
0.11933
-0.383384
0.264054
0.127497
0.0214101
0.0454221
-0.0308093
-0.297662
0.0999368
0.197725
-0.0547875
-0.0695582
0.124346
0.159394
0.0589739
-0.218368
-0.346527
0.600395
0.375348
-0.0119726
-0.0283159
-0.659224
0.427493
0.23173
-0.687895
0.245168
0.483793
0.0782046
-0.561997
0.291841
0.103066
-0.600875
0.413689
0.0306633
-0.444352
0.0587805
0.0617874
-0.304957
0.255836
0.0491213
0.0380498
0.0231785
0.00438684
-0.00563568
0.00124884
0.599381
-0.113725
0.652303
0.0124272
0.0628992
-0.0753264
-0.153571
0.189186
-0.0356151
-0.0471638
0.0681323
-0.0209685
0.123207
0.235653
0.0925023
0.46234
-0.0821884
-0.659418
0.401876
0.257542
0.344942
-0.14365
-0.105795
0.403629
0.39375
-0.0544495
0.379068
-0.319724
-0.671907
0.193115
0.478792
0.108169
-0.000682941
-0.107486
-0.246589
-0.425318
-0.0716377
-0.123163
0.531648
0.172668
-0.537045
0.314953
0.310361
-0.243804
-0.0665565
0.52457
0.0895474
0.0728772
0.0195363
0.191051
0.0762697
-0.214078
0.341784
-0.127706
0.0406661
0.0599324
0.108514
0.0969604
-0.0243492
-0.0726112
-0.036486
-0.00449182
0.0409778
-0.242173
-0.237279
-0.481621
0.119911
-0.333989
0.139566
-0.139653
8.73716e-05
-0.118165
-0.426308
-0.198879
-0.00644536
0.00296083
0.0207843
-0.0718597
0.159556
-0.149105
0.0611779
-0.0650448
0.369307
0.190202
-0.21906
0.164467
0.054593
0.484508
0.0455084
-0.164555
-0.0900209
-0.189294
-0.145445
-0.688493
0.408159
0.120366
-0.0163946
-0.419494
0.207741
0.173942
-0.0352411
-0.138701
-0.268369
0.082361
0.186008
0.113371
-0.0163202
0.150405
-0.0229084
-0.657747
0.311162
0.346586
0.11953
-0.299857
0.180327
-0.416567
0.115465
-0.263583
-0.394164
-0.663113
0.442361
0.220752
0.0876327
-0.284337
0.196704
-0.00317334
0.105611
-0.0808643
0.564657
0.0283091
0.0821226
0.151933
0.437901
-0.589834
-0.103986
0.336992
-0.101339
-0.0367458
0.11306
-0.0763142
-0.214044
-0.326936
0.54098
-0.253787
0.139462
0.363934
-0.535737
0.171803
-0.133614
-0.0231986
0.0154975
0.00554218
0.204866
0.571518
-0.345119
-0.226399
0.011086
-0.013417
0.00233102
0.169104
0.0546166
0.528416
-0.164482
-0.164284
0.0319992
-0.105596
-0.345464
-0.30254
-0.055338
0.107192
-0.0518536
-0.467585
0.261008
-0.365042
-0.148628
0.513669
0.570155
-0.25838
0.194382
-0.154555
-0.0398269
-0.0722414
-0.163837
-0.0944309
-0.275331
-0.413161
0.364549
0.109115
-0.619142
0.591393
0.0277489
-0.118779
-0.303802
0.42258
-0.183322
0.06616
-0.117444
0.0512844
0.399278
-0.213061
0.190117
-0.272024
0.0819064
-0.148359
-0.232968
0.183414
0.386741
0.281303
0.0290578
0.47165
-0.582057
0.0410465
-0.0362697
0.0765617
-0.254017
0.177456
-0.0109111
0.292799
-0.281888
-0.104078
0.364308
0.398184
0.173334
-0.369743
0.265665
-0.0869594
0.211116
-0.124156
0.133833
0.0306764
0.0103264
-0.101495
0.551182
-0.449687
-0.076718
0.266835
0.465152
-0.636896
0.171744
-0.190268
0.251103
-0.29993
0.221435
0.0709652
-0.119998
-0.0371808
0.508831
-0.0456627
0.42473
8.94882e-05
0.00429735
-0.0241874
0.0995406
0.332338
-0.487422
-0.194736
-0.292768
0.487504
0.524601
-0.382964
0.0489398
-0.0461286
-0.00281124
-0.244696
0.0998366
0.14486
0.370944
-0.485517
0.196579
0.202699
0.0927235
-0.400839
0.308115
-0.604333
0.257806
0.107058
0.00111147
-0.356302
0.232914
0.123388
-0.252073
0.1148
-0.0282403
-0.0865598
-0.0777908
0.0293704
-0.108494
-0.288684
0.103669
0.185015
-0.436236
0.453883
0.115493
0.301881
-0.417374
-0.107157
-0.0159582
0.123116
0.0515306
-0.0200256
-0.031505
-0.573299
0.0979353
0.0794201
0.0276377
0.0838737
-0.00547008
-0.00389315
0.0987371
0.0393473
0.0226078
0.0289228
0.0179343
0.0310055
0.415972
-0.561714
0.145742
0.0409096
0.175859
-0.096237
-0.0200245
0.116261
-0.210134
0.298657
-0.43468
0.136023
0.571762
-0.419829
-0.124242
0.038966
-0.0121126
-0.486644
0.11457
0.18062
-0.0358706
0.261225
-0.0619588
-0.199267
-0.0613235
0.299308
0.663117
-0.413202
-0.249915
0.256392
-0.0878475
-0.168545
-0.622898
0.458881
0.164017
-0.14044
-0.0299191
0.128259
-0.658885
0.199364
0.459521
0.0168866
0.0261546
-0.0171744
0.15674
-0.0798262
0.130979
-0.0511526
0.117162
-0.29625
0.179088
-0.292375
-0.400677
0.0122491
0.00738578
-0.0196349
-0.614695
0.283812
0.330883
-0.00631438
0.00588404
0.000430336
0.0361549
0.137787
-0.120038
0.0610714
-0.00775003
-0.0533214
0.0883881
0.361226
-0.449614
0.117797
0.318216
-0.436013
-0.0904318
-0.0163308
0.106763
0.230755
0.156419
-0.387174
-0.174228
0.413674
-0.325286
-0.120558
-0.689336
0.272727
0.416609
0.109187
0.327384
-0.436571
0.156985
-0.543409
0.386424
-0.0157768
-0.0456541
0.0614308
-0.754833
0.526639
0.228194
0.0626413
0.162186
-0.224827
0.0365455
0.0782546
-0.260275
0.204142
-0.062015
0.0889047
-0.0268897
-0.420033
0.100004
-0.290146
0.190141
-0.271589
0.414746
-0.143157
-0.197012
-0.557822
0.0414551
-0.0967931
0.0664306
-0.0540033
0.10166
-0.166423
-0.323539
-0.282633
-0.158206
0.440839
0.00940273
-0.0892289
-0.340543
0.45834
0.437141
-0.327954
-0.134339
-0.427094
-0.165892
0.592986
0.0029738
0.0634568
-0.326431
-0.362905
-0.388961
0.483875
0.415645
0.0531792
-0.468825
0.697849
-0.193136
-0.504713
-0.0964018
-0.602906
0.4286
0.174306
0.365469
-0.271955
-0.0935143
-0.0631306
0.222524
0.105593
-0.507211
0.401618
-0.231637
-0.447078
0.502217
-0.396624
-0.418329
-0.184576
-0.139891
0.438548
0.0489662
0.212259
0.081415
-0.229143
0.147728
0.406136
-0.194982
-0.211155
0.0871158
-0.0404479
-0.0466679
0.310255
0.0930102
-0.403265
0.194063
-0.0546638
-0.139399
-0.635169
0.289705
-0.193896
-0.0744736
0.299146
0.398702
-0.0150905
-0.157913
0.173003
-0.0343198
0.11374
0.0250994
-0.151532
0.419357
-0.267825
0.0740942
0.207548
-0.281642
0.02016
-0.192606
0.172446
-0.20333
0.11637
0.162889
-0.12396
0.410353
-0.286393
-0.183559
0.145874
0.0376852
-0.410201
0.29402
-0.192489
0.181689
0.258461
-0.0729606
0.24493
0.402703
0.0337651
-0.09578
0.0575677
0.0294256
-0.0869933
-0.192482
0.263724
-0.0712425
0.409974
-0.0997185
-0.0197187
0.00915073
-0.15123
0.173213
-0.0219832
-0.686314
0.2877
0.398614
0.0224641
-0.0238926
-0.0779558
-0.331421
-0.0640271
0.395448
0.6662
-0.350779
-0.149627
-0.37823
-0.308084
0.209623
0.196513
-0.405732
0.105745
-0.525227
0.419482
-0.188903
0.276536
-0.268108
0.558292
0.187426
-0.175241
0.0565785
0.337172
-0.137564
-0.0815363
-0.580442
0.211107
0.369335
-0.349967
-0.285202
0.264743
-0.356765
-0.016039
0.065164
-0.049125
-0.375387
0.614707
-0.239319
-0.154387
0.131497
0.400722
0.276578
0.127041
0.0688379
-0.0888623
0.182658
-0.259376
0.610163
-0.610163
-0.186094
0.160702
0.0382847
-0.1428
0.104515
0.00304239
-0.146642
-0.379715
-0.243183
0.0298629
0.0945641
-0.745036
0.402982
-0.285258
0.0987849
0.186473
0.0112414
-0.0157332
-0.10112
0.365863
-0.0903995
0.572179
0.220571
0.410971
0.148791
-0.310884
0.344996
-0.0341121
0.119563
-0.409645
-0.0318282
0.0301164
0.0639598
0.7399
-0.308816
-0.431084
0.002956
-0.00313743
0.000181427
-0.0428501
0.245307
0.0738927
-0.0603401
-0.0135526
-0.0313254
0.176741
-0.116606
0.532251
0.0132972
-0.0128561
0.429721
-0.654112
0.224391
0.469151
-0.610194
0.420105
0.190089
0.188666
-0.168506
0.223313
0.391811
-0.248696
-0.0820236
0.330719
0.258914
-0.0146858
-0.244229
-0.382636
0.0593375
-0.0967564
0.163845
0.228369
-0.646698
0.152724
-0.0592413
-0.0934831
0.518655
0.138772
0.0506345
0.00600383
-0.0566383
-0.205879
-0.374563
-0.018605
0.0797829
0.296729
0.443171
0.112078
-0.0915094
0.181028
0.478366
-0.601021
0.258694
0.342327
0.186129
0.0702636
-0.150914
0.626888
-0.214595
-0.412292
-0.429635
-0.166977
0.596611
0.224373
-0.268414
0.0440405
-0.158127
0.142048
0.401059
-0.543107
-0.718565
0.42619
0.135676
0.0673047
-0.20298
-0.39451
-0.350526
0.172843
0.358805
-0.423496
-0.295068
-0.302185
0.114514
0.187671
-0.562763
0.158286
0.0360953
-0.485391
0.318968
0.0680549
-0.37946
-0.203532
-0.652968
0.229128
0.42384
0.426957
0.182836
0.110079
0.0134293
-0.123508
-0.0285747
-0.120071
0.148646
-0.562557
0.2234
0.339156
-0.277002
0.0102737
0.266728
-0.0634185
-0.0394253
-0.1805
-0.134259
-0.119528
-0.0574178
0.471107
-0.0472744
0.113434
0.240633
-0.432397
-0.0825151
-0.177649
0.260164
0.143154
0.033686
-0.17684
-0.0311619
0.0887296
-0.172396
0.600996
-0.202151
0.00739018
-0.00231165
0.00857971
-0.0206468
0.0505564
0.143506
0.442687
-0.343896
-0.0987903
0.268424
-0.0440503
-0.224314
0.181464
0.369538
-0.300573
-0.0689646
0.155205
-0.318908
0.194876
-0.0160631
0.0293275
-0.0132644
-0.137107
0.13701
0.104852
0.494987
-0.599839
0.0493399
-0.0790404
-0.0363185
0.194605
-0.096697
0.0600575
0.0366395
-0.109235
-0.307517
0.416751
0.0192556
-0.233458
0.214203
-0.0316276
-0.443028
0.0155505
0.108078
-0.123628
0.496399
-0.37349
-0.122908
-0.659211
0.355101
0.30411
0.464039
-0.515487
0.154627
0.36086
0.181266
-0.231071
0.0498047
-0.108171
0.0533833
0.527524
0.0826391
0.42002
0.24618
0.132678
-0.517868
0.38519
-0.0516592
0.0316337
-0.184333
-0.514769
0.309651
0.598604
-0.462047
-0.41405
0.143481
0.270569
-0.215221
-0.0349625
0.250183
-0.386497
0.181297
0.0605478
0.26158
-0.209115
-0.0169892
0.226104
0.0917895
0.116501
0.451777
0.146827
0.739955
-0.309821
-0.430134
0.231292
-0.0956162
0.298837
0.441118
0.473471
-0.193454
-0.280017
0.632749
-0.430313
-0.202436
-0.1382
-0.0417012
-0.110238
0.151939
0.29634
-0.355781
0.222451
0.133331
0.294699
-0.508743
-0.228665
0.116472
-0.100471
0.0874373
-0.230435
0.158194
-0.0486608
0.14757
-0.190209
0.0545858
-0.28298
0.0790424
0.363644
0.0192752
0.0546175
-0.395262
0.52794
0.462631
0.170117
0.115313
0.0143693
-0.129683
0.12211
0.0282954
0.00198528
-0.118548
0.116563
-0.136745
0.539368
-0.402623
0.248989
0.025062
0.2836
-0.393352
0.109752
-0.179491
-0.116759
0.47984
-0.654529
0.17469
-0.0821858
0.299026
-0.0732579
0.162816
-0.0895583
-0.189859
-0.0857735
0.223042
-0.137269
-0.033725
0.16907
-0.029574
-0.139496
-0.401466
0.058125
0.00294643
-0.315679
-0.165159
-0.191143
-0.733001
0.29663
0.436371
0.191822
-0.157733
-0.034089
0.534593
-0.0203744
-0.436272
0.183451
-0.00283101
-0.434843
0.59273
-0.157887
-0.367158
0.261206
0.105952
0.643772
-0.214051
-0.484065
0.201432
-0.166154
0.10468
-0.153341
-0.242544
-0.416874
0.551631
-0.154848
-0.12078
0.0477103
-0.202265
-0.200922
0.0423838
-0.734671
0.425855
-0.346583
0.181424
0.0239565
0.130678
-0.154635
0.0207706
-0.00747342
-0.0168413
0.089684
-0.113871
-0.0942067
-0.145028
0.172692
-0.0276646
0.296103
-0.661145
-0.423014
0.299054
-0.134852
0.47787
-0.343018
-0.232848
0.072699
0.160149
-0.409006
0.299771
-0.741791
0.302208
0.439583
-0.486679
0.370146
0.116534
0.199702
0.0734951
-0.273197
0.165083
-0.316019
-0.425772
-0.263792
-0.147309
0.411101
-0.049147
0.192301
0.0453385
-0.0132665
0.155484
0.0129179
-0.000668817
0.258105
0.000809435
0.109914
-0.136423
0.0265087
0.134867
0.0824327
-0.123897
-0.187207
-0.185649
0.236322
-0.0506723
0.046982
-0.00893224
0.0395657
-0.419548
0.300769
-0.216115
-0.0779879
-0.131797
-0.104968
-0.0340965
0.139064
-0.115886
0.397078
0.481719
-0.110774
-0.317908
-0.166156
-0.147816
0.229231
-0.109233
0.091622
0.246786
-0.338408
0.30374
-0.389458
-0.207858
0.0132088
0.19896
0.40271
-0.131904
0.29639
-0.130366
-0.103836
0.234202
-0.177853
0.468112
-0.290258
0.43148
-0.125264
-0.107584
-0.59949
-0.163379
-0.151301
-0.259588
0.177073
-0.0958637
0.201236
-0.105372
0.110209
-0.139118
0.0289096
0.501108
-0.173127
-0.327981
0.0016267
-0.012034
0.0104073
0.0161454
0.148435
-0.0382256
-0.00270053
0.186152
-0.0278891
-0.114911
0.565971
-0.155822
-0.41015
-0.261195
-0.0945867
0.0371607
0.154662
0.2733
0.297953
-0.571254
0.398566
0.167405
-0.0427819
-0.0184444
0.205871
0.0634062
-0.327198
0.45907
0.075523
-0.720988
0.28001
0.440977
-0.312241
-0.408747
-0.153677
-0.348829
0.350561
-0.482981
0.13242
-0.368709
0.0967534
-0.662753
0.262725
0.400029
-0.435524
-0.45371
0.620298
-0.494661
-0.125637
-0.0650793
0.0493025
0.108284
0.228708
0.163885
0.43611
-0.599995
0.0604649
-0.068215
-0.00674797
-0.00666907
0.252094
-0.070828
0.196275
-0.278461
0.0976276
-0.143517
-0.072912
0.125912
-0.149002
0.0483592
0.018898
-0.0672572
-0.324294
0.00638575
0.152164
0.321308
-0.509009
0.587213
-0.0643499
0.0936802
-0.0293304
0.0666253
0.228942
-0.295567
-0.0276003
-0.0143882
0.0419885
-0.0352416
-0.0614554
0.169812
-0.597936
0.428124
0.173621
-0.549008
0.0358046
0.170907
-0.600542
0.562163
-0.408959
-0.153204
-0.000233842
0.000769446
-0.000535603
-0.364118
0.596427
-0.232309
0.390542
-0.106942
0.685238
-0.210499
-0.0370475
0.00155618
0.0354913
0.621331
-0.201746
-0.419585
-0.498595
0.542062
-0.385077
0.464956
-0.545821
0.629853
-0.163788
-0.0173483
0.0012852
0.123003
-0.468688
0.310481
-0.732851
0.423031
0.00356607
-0.107441
0.146301
-0.0237499
-0.122551
-0.368459
-0.121217
0.489676
-0.192325
-0.326874
-0.150365
-0.389312
-0.205802
0.595114
-0.192625
0.267725
-0.0750997
-0.491789
0.329508
0.162281
0.492221
0.0699425
-0.0369166
0.0437287
-0.00681205
-0.194028
-0.0783809
0.272409
0.575566
-0.177
-0.448779
0.270925
-0.190492
-0.377248
0.56774
0.172137
-0.594233
0.422096
-0.400519
-0.200502
0.112515
0.386634
-0.499149
-0.122095
-0.0992022
-0.270541
0.203798
-0.0602913
0.126452
0.218489
0.409787
0.217101
0.129087
0.257513
-0.3866
0.0499219
-0.185165
0.135243
0.15883
0.0303558
0.0797978
-0.153056
-0.127001
-0.266351
0.0721082
0.232434
-0.304542
0.262701
-0.36382
0.298126
-0.388536
0.0904099
0.00109356
-0.0013274
0.482493
-0.309649
0.164123
-0.26774
0.103617
0.00901688
0.534074
-0.534074
0.0821111
-0.0299803
-0.0521308
-0.161505
-0.445332
0.606837
-0.0171963
0.0669383
-0.0497421
-0.204426
0.276534
0.293762
0.106083
0.047037
-0.0550461
0.0466758
-0.556933
0.36644
0.0139247
0.096154
0.0942651
-0.614682
-0.104702
0.226797
-0.178687
-0.07881
0.257497
-0.144524
-0.0274669
0.171991
0.020676
-0.0730482
0.0523722
-0.151352
0.411755
-0.132512
-0.0187175
-0.130765
-0.0242751
0.166607
0.105436
-0.535836
0.4304
-0.611986
0.348403
0.0653656
0.156004
-0.22137
-0.0781436
0.0545685
0.023575
0.0808119
0.0245032
-0.738311
0.422292
-0.0457935
0.00887684
-0.564135
0.443065
0.107081
-0.537186
0.520411
0.0167753
-0.199476
0.281837
0.121581
0.361695
-0.483276
0.526008
-0.0610517
0.283135
-0.216509
-0.628434
0.455471
0.172962
0.599938
0.124413
-0.144455
0.0200421
0.0899292
0.0410495
-0.201439
-0.354412
-0.274022
-0.370159
0.238255
-0.00518239
-0.00113199
-0.43944
0.123814
-0.152388
-0.436221
0.0678766
-0.0195174
-0.255456
-0.16188
0.417336
-0.426484
0.287322
0.139161
0.269771
-0.0871134
0.145493
-0.581418
-0.260227
0.0703975
0.0760642
0.391124
0.160507
0.258815
0.00354912
-0.439474
0.552335
-0.345817
-0.206519
-0.0955118
0.620172
-0.462577
-0.157595
-0.0228299
0.0538355
0.0504446
-0.0664835
-0.122758
-0.221296
0.344054
0.250456
0.392564
-0.39023
0.475758
-0.345
-0.130758
-0.0714063
-0.159664
0.270217
-0.196123
-0.432434
-0.160288
0.592722
-0.441318
0.532668
-0.09135
-0.294708
0.00431741
0.148711
-0.279821
-0.0393667
0.00338259
-0.304951
0.397961
-0.340346
0.0621373
-0.0653106
0.231878
0.428646
-0.0693324
-0.212068
-0.396346
-0.0674315
0.0251661
0.0422654
-0.279049
0.0857178
0.193331
0.136191
0.0328786
0.0498946
-0.00291255
-0.74121
0.428969
-0.530157
0.393412
0.314109
-0.189609
-0.52859
0.113915
0.414674
0.12288
0.246702
-0.369582
0.0517515
-0.0487777
-0.119753
0.470314
-0.146933
0.538057
0.0286892
0.099033
0.0308602
-0.129893
0.0998978
-0.0816222
-0.0182756
-0.181173
-0.35031
-0.43753
-0.161831
0.599361
-0.421858
0.586685
-0.164827
-0.636854
0.206154
0.4307
-0.422211
0.118409
-0.108041
-0.0929204
0.396748
-0.12017
-0.138841
-0.0447179
-0.165743
0.124042
-0.439002
0.145348
0.039681
-0.185029
0.272319
-0.152789
-0.320498
-0.294197
0.167401
-0.03121
-0.00222576
0.00168226
0.136397
-0.153571
-0.0523276
0.0929937
0.3105
0.17428
-0.48478
0.0878848
0.387873
-0.175619
0.279288
0.106416
0.167608
-0.274023
0.377209
0.174998
-0.517659
0.382806
0.0289858
-0.0209472
0.00946593