/*--------------------------------*- C++ -*----------------------------------*\
| =========                 |                                                 |
| \\      /  F ield         | OpenFOAM: The Open Source CFD Toolbox           |
|  \\    /   O peration     | Version:  v2012                                 |
|   \\  /    A nd           | Website:  www.openfoam.com                      |
|    \\/     M anipulation  |                                                 |
\*---------------------------------------------------------------------------*/
FoamFile
{
    version     2.0;
    format      ascii;
    class       volScalarField;
    location    "600";
    object      k;
}
// * * * * * * * * * * * * * * * * * * * * * * * * * * * * * * * * * * * * * //

dimensions      [0 2 -2 0 0 0 0];


internalField   nonuniform List<scalar> 
14479
(
0.00017761
0.000166845
0.000160316
0.0108422
0.000188956
0.00157403
0.000149783
0.000148911
0.00015221
0.0468702
0.000180393
0.0102528
0.00535789
0.00418213
0.00944941
0.00999628
0.00254358
0.00492636
0.0525311
0.000229324
0.000149012
0.000154953
0.00690159
0.000237537
0.00015225
0.000169454
0.00017032
0.0472031
0.00157802
0.0100899
0.0168304
0.00813914
0.0505969
0.000149605
0.000155907
0.000150911
0.00014935
0.00602472
0.000159765
0.000185583
0.00895262
0.000159429
0.000159164
0.000160514
0.0115786
0.000194802
0.000585749
0.014873
0.000155637
0.000171916
0.000150419
0.0767937
0.000200592
0.000200116
0.000155597
0.000151509
0.000181433
0.045854
0.000153638
0.000209479
0.000160122
0.000153111
0.000202797
0.000197393
0.00947986
0.0303099
0.000169702
0.000158881
0.0566449
0.0773159
0.0180664
0.000242679
0.0262278
0.0389233
0.00014903
0.000152257
0.0180678
0.0104773
0.058461
0.01741
0.0602193
0.000149057
0.000171891
0.00024176
0.000158759
0.000192431
0.000267179
0.000149871
0.0171542
0.000151567
0.0374955
0.0313435
0.00828855
0.0186458
0.000173962
0.0534679
0.00015681
0.0352978
0.000167787
0.061376
0.0128407
0.0475281
0.000207134
0.000148611
0.000168618
0.000151975
0.0125475
0.0270767
0.000183389
0.00877107
0.000166064
0.000157141
0.000762228
0.000201986
0.000169815
0.00015656
0.000152229
0.000198262
0.000154064
0.000249025
0.000155731
0.0001491
0.00877445
0.000163417
0.0177659
0.000152938
0.000163025
0.00015131
0.000152222
0.0448556
0.000154257
0.042809
0.0460218
0.000153102
0.00020984
0.000184988
0.000205032
0.000152408
0.0780109
0.010412
0.000154287
0.00163795
0.000160687
0.000190839
0.00019723
0.000158539
0.0425971
0.000152907
0.000173843
0.000155718
0.0513852
0.000160405
0.00014914
0.000224102
0.00168916
0.000180616
0.0431105
0.000149825
0.0960507
0.0597122
0.0447114
0.0545752
0.058578
0.000261955
0.0585286
0.020895
0.000153504
0.00215595
0.000150408
0.000156942
0.000154942
0.000192852
0.000151287
0.000247032
0.000151251
0.000196966
0.000149721
0.000158676
0.000177555
0.000154338
0.000212217
0.00014894
0.000154094
0.00989426
0.000149266
0.00017613
0.000159071
0.000157105
0.000197089
0.000197387
0.000149184
0.0705006
0.00016786
0.000149858
0.00203648
0.0575432
0.000196895
0.0870195
0.000166178
0.000151302
0.000156439
0.0239959
0.0822388
0.000224346
0.00216411
0.000155656
0.000152199
0.000247383
0.000158911
0.000176844
0.0263428
0.072817
0.000154726
0.000158782
0.000150454
0.000233958
0.0639655
0.00173324
0.000149404
0.00017384
0.000198505
0.0314257
0.073925
0.000175018
0.000329317
0.00716397
0.000155637
0.000156884
0.00017128
0.00014979
0.000153439
0.000149623
0.000164704
0.00375488
0.000156723
0.000155927
0.000181486
0.000346041
0.000149381
0.000152734
0.00797218
0.000229365
0.000167009
0.000170453
0.0706719
0.0276046
0.000153467
0.000151537
0.0224876
0.0253617
0.000148599
0.000220024
0.00014933
0.000152599
0.0241264
0.000194218
0.000149786
0.000419847
0.000169707
0.000239451
0.0660743
0.0617146
0.00261319
0.000211361
0.000149555
0.000166073
0.00014956
0.0718166
0.0182282
0.0523074
0.0440903
0.000151345
0.0227152
0.000152324
0.000154457
0.0140103
0.0269214
0.000155595
0.0291115
0.034854
0.0209823
0.0303864
0.0478945
0.0643866
0.000149344
0.000149325
0.000395146
0.000152012
0.0208098
0.00163946
6.3693e-05
0.00708674
0.000184096
0.00135103
0.000151303
0.000174288
0.000152292
0.000167922
0.000153918
0.000162411
0.000150471
0.0204073
0.000153295
0.000187518
0.000173989
0.00323553
0.0930646
0.000219014
0.000160259
0.000163073
0.0324646
0.000179454
0.000191915
0.000153228
0.000153261
0.000149796
0.00991998
0.000171193
0.000149681
0.000149272
0.000154656
0.000149174
0.000153449
0.0149565
0.000360344
0.0078141
0.0526915
0.000185903
0.0248492
0.000151789
0.000181375
0.000190842
0.0881967
0.00462851
0.00277884
0.000150108
0.000161261
0.000213013
0.000184647
0.000180286
0.0510016
0.000168906
0.00160885
0.000149584
0.0188541
0.000154225
0.0314394
0.0724571
0.000154229
0.00018175
0.0179144
0.0293811
0.000159977
0.000150439
0.016516
0.000148867
0.000152484
0.0323809
0.00016282
0.000152204
0.000152351
0.0215534
0.0142316
0.00015236
0.0284054
0.000171409
0.000169694
0.00439874
0.0240478
0.0381651
0.00026486
0.0371963
0.000203041
0.000454911
0.0175584
0.0674487
0.000233264
0.00016779
0.0113836
0.000152285
0.0001529
0.000174429
0.000183685
0.000168334
0.035697
0.000196765
0.000148791
0.000245056
0.000149314
0.000240146
0.000183581
0.000176226
0.000125847
0.00253126
0.081246
0.0754989
0.000237005
0.000318257
0.000151858
0.000149143
0.0588526
0.0212736
0.0180954
0.000170125
0.0139941
0.000162832
0.00194897
0.019391
0.000171974
0.000152255
0.0469968
0.0187132
0.00014926
0.000149083
0.00039957
0.000149259
0.000158994
0.000199586
0.000149145
0.000166114
0.000162356
0.000166528
0.0884185
0.000237348
0.0504817
0.000165601
0.0329324
0.000149397
0.000160752
0.000251561
0.0549568
0.000197271
0.00256008
0.000156856
0.000165664
0.0603241
0.000186757
0.0752813
0.00781542
0.00023733
0.0225802
0.0492209
0.00765964
0.000149327
0.000207823
0.000166433
0.000170667
0.0188609
0.000165478
0.000158276
0.000149002
0.000250484
0.000222086
0.000224368
0.000149958
0.000252813
0.000153188
0.000219555
0.0319532
0.017709
0.000169546
0.00015137
0.0935178
0.000192365
0.0888538
0.00312621
0.000161862
0.0261795
0.00442731
0.000152668
0.000151683
0.000148482
0.00582707
0.0399051
0.00167432
0.000296725
0.0167354
0.00347934
0.000167473
0.000231784
0.000154978
0.0218961
0.000201108
0.000184836
0.000161407
0.00017134
0.000152202
0.0514665
0.000196274
0.0723535
0.0271353
0.000149258
0.000149215
0.0605383
0.000765677
0.00015431
0.000178208
0.0090068
0.000288011
0.000164454
0.000157032
0.000251079
0.000164746
0.000151147
0.009481
0.0173706
0.0541114
0.000175977
0.00015586
0.0100686
0.000165031
0.000199841
0.000174231
0.0146881
0.000152286
0.000149143
0.000149267
0.000150194
0.0156327
0.000200054
0.0914582
0.0146139
0.0928674
0.0149864
0.0711468
0.0605316
0.000154325
0.000169285
0.0775614
0.0125601
0.000149313
0.000200227
0.0866705
0.0288776
0.000187267
0.000229064
0.000196389
0.00858812
0.000231808
0.0357147
0.00141707
0.0279416
0.000181845
0.0173817
0.000153214
0.000149337
0.0529433
0.000149029
0.000157573
0.000181551
0.00017518
0.000208716
0.000151003
0.000149323
0.0010526
0.000152261
0.0106957
0.00377356
0.00809842
0.00388693
0.000166728
0.0240099
0.000159456
0.0728763
0.000153309
0.000231328
0.000167869
0.000152114
0.000154426
0.000166727
0.000159248
0.000151217
0.0649322
0.0004037
0.000163808
0.00686734
0.000909174
0.000154841
0.000159905
0.000212224
0.00805144
0.000154859
0.000174355
0.000167476
0.0271986
0.000153193
0.000151167
0.0710311
0.024636
0.017956
0.000168997
0.0001492
0.000150768
0.0662764
0.0038503
0.08332
0.000148815
0.000149334
0.000156628
0.000151263
0.0586858
0.000149441
0.000545969
0.0876596
0.0510897
0.0001529
0.00524109
0.0240228
0.000153614
0.000177565
0.000153137
0.00861166
0.00017031
0.000150269
0.000149611
0.000150499
0.0256794
0.000189521
0.0572329
0.000151206
0.000151379
0.00019015
0.000181837
0.000163988
0.0569832
0.0193101
0.000152359
0.00014922
0.000173224
0.0719629
0.000187597
0.00017308
0.000149232
0.000213357
0.000169237
0.000149289
0.000149933
0.00121442
0.0291661
0.000149664
0.0658158
0.000193336
0.000149252
0.075662
0.0103863
0.00015492
0.000156857
0.000153022
0.000174441
0.025744
0.0332535
0.000266478
0.000149303
0.00772845
0.0175177
0.0632189
0.0380436
0.000170329
0.000150212
0.000162932
0.00688194
0.000148387
0.000154404
0.0622953
0.0196584
0.000160824
0.000152973
0.000201568
0.0448721
0.000148855
0.000148719
0.000161035
0.0142588
0.00911303
0.000635839
0.000185572
0.0347347
0.000162596
0.00808193
0.000200733
0.000151693
0.000168228
0.0266107
0.000150283
0.0254345
0.000163386
0.0357887
0.00985395
0.000167568
0.0793055
0.000152916
0.000169762
0.0680252
0.00047519
0.00207093
0.0457113
0.0355208
0.0405683
0.000160859
0.000239672
0.0395669
0.024336
0.0960481
0.000151334
0.0080791
0.0506718
0.000235302
0.0469578
0.00016229
0.0493461
0.00014941
0.000156885
0.0214365
0.0239966
0.0184538
0.000154646
0.000152239
0.0237102
0.0262899
0.000261012
0.000207242
0.00108761
0.000156462
0.0605079
0.0785779
0.000153981
0.000492898
0.0499586
0.0374473
0.000149722
0.000153011
0.00591986
0.000149809
0.000151102
0.00014969
0.000154528
0.000168078
0.000168875
0.000157175
0.000149233
0.000151482
0.00015194
0.000149924
0.000149858
0.000153685
0.0153404
0.00587467
0.00940099
0.016671
0.00779304
0.000194856
0.00016409
0.000152412
0.000156615
0.000168966
0.00937838
0.000164527
0.0241597
0.000162743
0.000168659
0.000220925
0.000162223
0.0116666
0.0404991
0.000151438
0.0485646
0.000149311
0.0236551
0.0176365
0.000231591
0.000172694
0.0310533
0.0305629
0.000176499
0.000151551
0.0127806
0.0147821
0.00691622
0.000154
0.0227211
0.0490218
0.000151115
0.00651486
0.00233201
0.000148937
0.000168878
0.0114945
0.00030271
0.000159824
0.0459374
0.000148781
0.0063171
0.0148292
0.0633501
0.0574029
0.000909555
0.0074156
0.000837712
0.000195303
0.000206527
0.0519956
0.000168125
0.000198373
0.000200121
0.000153243
0.0376408
0.0888062
0.000148967
0.0279284
0.0069387
0.0072405
0.0470651
0.000153468
0.000164965
0.00138668
0.0635177
0.000172967
0.00313081
0.000180346
0.0254957
0.000156378
0.00142306
0.000156528
0.0434062
0.000162722
0.00665485
0.000241102
0.000153886
0.000176341
0.000151485
0.000196787
0.0446995
0.0440899
0.0481129
0.0167865
0.000223712
0.016108
0.000156288
0.0675906
0.000210965
0.0125069
0.000155783
0.00016221
0.000200503
0.0156127
0.00015462
0.044322
0.000188637
0.00014884
0.000185495
0.0796926
0.000242833
0.000199417
0.00246837
0.0118422
0.000152106
0.0639314
0.00016487
0.000149808
0.000179081
0.000155036
0.00016012
0.000156218
0.0193472
0.000168223
0.0652152
0.00015488
0.000148797
0.000150979
0.00015154
0.00208909
0.0388897
0.094074
0.0619613
0.0398288
0.0759672
0.000177929
0.0550675
0.0294295
0.0877426
0.0179097
0.000241592
0.0382071
0.000164462
0.000151243
0.000152281
0.000151518
0.000177248
0.0002211
0.000154188
0.000202204
0.000180636
0.00017189
0.0223707
0.000154948
0.000149641
0.000199636
0.00765368
0.0308778
0.000171442
0.00751532
0.000149197
0.000219095
0.000152786
0.000156592
0.00014959
0.000157888
0.000177088
0.0822968
0.0701091
0.0286086
0.0895203
0.000149303
0.000176799
0.00807738
0.000153875
0.000149094
0.0644127
0.0378096
0.00914699
0.000156969
0.000189488
0.0480563
0.000192763
0.000148279
0.000149219
0.0263929
2.73625e-05
0.0110883
0.000160687
0.0741015
0.000605552
0.000203554
0.000151717
0.000256725
0.0469101
0.086727
0.0757729
0.0318419
0.000193977
0.000155616
0.0116931
0.000149722
0.000160418
0.000148732
0.000165051
0.0574572
0.061939
0.000213081
0.00014919
0.0772115
0.000169093
0.0600821
0.056075
0.000179065
0.000154789
0.000175094
0.0667384
0.000148691
0.000153752
0.000154775
0.0934986
0.000150901
0.000149808
0.0160186
0.0134169
0.000192247
0.000186216
0.0001513
0.000152109
0.000706229
0.0110195
0.0959278
0.000149603
0.000242711
0.0457039
0.000171434
0.000148778
0.000161546
0.0401255
0.000195134
0.013417
0.000157192
0.0101396
0.000248726
0.000175366
0.000193895
0.000221917
0.000149357
0.000191665
0.000151072
0.000161421
0.029226
0.0279329
0.000150405
0.000234324
0.000152332
0.000171461
0.000151353
0.000157078
0.028079
0.000151394
0.0354142
0.000175244
0.021263
0.000148965
0.000197088
0.0274824
0.000148884
0.000161199
0.0733825
0.0768706
0.000168521
0.0265881
0.000167677
0.0241741
0.000153437
0.00016962
0.0368167
0.000170143
0.000149284
0.000152132
0.0498195
0.00014929
0.0335574
0.00350565
0.000192989
0.000177293
0.000775952
0.00608409
0.0562589
0.000151351
0.000166839
0.000179591
0.000173924
0.00015179
0.000205938
0.0804101
0.000192219
0.00233644
0.000159098
0.00983597
0.00375521
0.000187388
0.000297727
0.00565409
0.000150798
0.000201983
0.000179818
0.0940308
0.0280215
0.000166533
0.00734686
0.0468032
0.000168099
0.000918476
0.0016926
0.000718809
0.000205489
0.000151397
0.000211416
0.00015035
0.000150126
0.000156941
0.000150507
0.0535025
0.0942002
0.00784993
0.0234817
0.0792131
0.000348221
0.0265351
0.0171718
0.000176207
0.000167189
0.0494923
0.0954853
0.0582935
0.00015089
0.000149844
0.0618176
0.00016036
0.000163205
0.000149579
0.000219116
0.000152661
0.0173072
0.000164032
0.000337492
0.000162354
0.0636311
0.000216189
0.0231807
0.000149669
0.000158729
0.000204227
0.000213238
0.000152629
0.000162263
0.000167815
0.000194863
0.067673
0.000161932
0.000149519
0.000184675
0.00312326
0.000150157
0.000169913
0.0273619
0.0829623
0.0107447
0.000166296
0.06537
0.000151368
0.000149574
0.00196949
0.000191046
0.000195046
0.000149409
0.000174344
0.049417
0.0255921
0.0486435
0.000152335
0.000153582
0.000413443
0.0367444
0.000231637
0.0251283
0.000190792
0.000149641
0.000156581
0.00648584
0.000155805
0.0637897
0.000267852
0.000155736
0.0236085
0.000198327
0.0253271
0.000149716
0.000170923
0.000241949
0.000159995
0.063652
0.023787
0.00284637
0.000166425
0.000167958
0.000158271
0.00197118
0.000150269
0.000175285
0.00017427
0.000148829
0.000184319
0.00015545
0.000153064
0.000242218
0.0361539
0.0944601
0.000568507
0.000239651
0.000167938
0.000182114
0.000149316
0.000160381
0.000149409
0.0804573
0.000189078
0.000170752
0.000166329
0.000184231
0.0116871
0.000216262
0.000151178
0.0113518
0.00624558
0.0474703
0.000150496
0.000151542
0.000159178
0.0696508
0.0208185
0.0443027
0.000189961
0.00688517
0.000239573
0.000154017
0.000171964
0.000160974
0.0371232
0.000494657
0.0112239
0.000155365
0.000161972
0.000153611
0.000149499
0.000153287
0.000150734
0.00014953
0.000284342
0.000807943
0.000167263
0.0252386
0.0186173
0.000162823
0.000169722
0.00742538
0.000153356
0.000157294
0.000305384
0.000149567
0.000149877
0.000169068
0.0142796
0.000148962
0.00620045
0.000187314
0.000149288
0.000148829
0.0328783
0.0324176
0.000331104
0.000163621
0.000149106
0.000240314
0.000163235
0.000149767
0.0472809
0.000151944
0.0166477
0.000183686
0.0195375
0.000183461
0.0791554
0.000170121
0.000149576
0.00262566
0.0265281
0.000153606
0.000413195
0.000203317
0.000170242
0.0529236
0.000157359
0.00014933
0.011806
0.0211484
0.0241077
0.0437451
0.000149761
0.00018093
0.00019459
0.000133604
0.00149877
0.000163847
0.000160135
0.000179766
0.000174214
0.000170049
0.000163022
0.000153337
0.00192622
0.000162523
0.000149289
0.00546813
0.000217992
0.000195763
0.0185356
0.000163099
0.000149771
0.0403396
0.000168915
0.0966376
0.000210749
0.0157192
0.000200043
0.000152463
0.00017182
0.0426267
0.0140799
0.000162531
0.0307208
0.0470097
0.000379789
0.000149325
0.000151772
0.000217826
0.0586103
0.00630221
0.0157518
0.0104354
0.000149799
0.000149026
0.065603
0.000256122
0.00121478
0.000212653
0.000155334
0.0836449
0.000169255
0.000193234
0.0300789
0.000151036
0.00024728
0.000168542
0.000186577
0.00017843
0.000235752
0.000151688
0.0391573
0.0710647
0.0715825
0.000174405
0.000151981
0.000164679
0.000171302
0.0192344
0.000153543
0.000149475
0.000167521
0.00531036
0.000149251
0.000195704
0.000174752
0.00200358
0.0468432
0.0195958
0.000227956
0.000327813
0.000272002
0.000153448
0.000148625
0.000242392
0.000152351
0.0453528
0.020351
0.000148539
0.000171175
0.000152286
0.000149594
0.0289639
0.0001727
0.0225255
0.000155988
0.000205951
0.000149305
0.00792216
0.000154458
0.000169057
0.0539758
0.000157913
0.0249403
0.000225478
0.000183438
0.00822457
0.0587228
0.000161285
0.000150336
0.0623529
0.000172883
0.032108
0.000156711
0.017476
0.000149326
0.0360333
0.0301629
0.000194828
0.0204106
0.0186624
0.000266612
0.00015775
0.054989
0.000319245
0.0156453
0.000148998
0.000153792
0.000176854
0.000250552
0.00799959
0.000180309
0.000155681
0.000173652
0.000160075
0.000163167
0.0359291
0.000167994
0.000152077
0.00723808
0.000244689
0.00589772
0.000177306
0.00029546
0.000179488
0.0249634
0.000168134
0.000173322
0.000158397
0.000135245
0.000177017
0.00392723
0.0183555
0.000187645
0.000150334
0.00988356
0.0145683
0.000193194
0.000149268
0.00942877
0.000231235
0.000164547
0.000150901
0.0739533
0.0358214
0.000205256
0.000220284
0.00017344
0.000161258
0.0222472
0.000263642
0.0741679
0.0148998
0.0488338
0.0570808
0.0590362
0.00016198
0.0223121
0.00665741
0.00019488
0.0781127
0.000149708
0.0538159
0.00459788
0.0194489
0.000150021
0.000160313
0.000175606
0.000154445
0.0269509
0.000186287
0.000212915
0.000169584
0.000182102
0.0186695
0.000154649
0.000154004
0.000149407
0.000156636
0.000168306
0.0150116
0.000452423
0.000162906
0.000169523
0.00016432
0.0775087
0.0153076
0.00010101
0.00017997
0.000149355
0.00016272
0.0956628
0.000187353
0.0861678
0.0303463
0.000152159
0.000185626
0.08527
0.0614345
0.000149776
0.000149773
0.000154416
0.000194281
0.0453065
0.000153079
0.000200758
0.000154986
0.000151544
0.000153685
0.0502742
0.000150178
0.0286726
0.000153282
0.000157319
0.0215236
0.000148865
0.00761828
0.0228047
0.000219462
0.00364493
0.000163559
0.030408
0.000254508
0.0458064
0.05416
0.0214068
0.0271598
0.0022923
0.00775051
0.000204724
0.0185524
0.00022305
0.08771
0.000283037
0.000233399
0.0063286
0.00804179
0.0248885
0.000195397
0.0513806
0.000524528
0.0129336
0.0045666
0.0107227
0.00527857
0.000149268
0.000203555
0.000152341
0.0171094
0.0358479
0.000156364
0.0760055
0.000266442
0.000156818
0.0805268
0.000149141
0.000172345
0.0170871
0.000152665
0.001051
0.028308
0.000182797
0.0895554
0.000153168
0.000169459
0.00224246
0.000149649
0.000456348
0.000239478
0.000153391
0.000421637
0.000183571
0.0152428
0.00839563
0.000190086
0.018413
0.00240773
0.000217858
0.0691509
0.0805347
0.00016865
0.000149242
0.000154202
0.0376349
0.0244788
0.00015685
0.0369708
0.000150735
0.00398453
0.0179975
0.0629223
0.0649436
0.000162088
0.00558797
0.000183748
0.00691977
0.000116592
0.0445201
0.000165338
0.0628675
0.000167779
0.000168761
0.0845024
0.000176739
0.070594
0.000183358
0.000160049
0.0236346
0.0868253
0.0494947
0.000172805
0.000164652
0.000284279
0.00014983
0.000151383
0.000167132
0.00015203
0.0113792
0.0329632
0.000154595
0.0200274
0.0315013
0.000177966
0.000158168
0.000154891
0.000147282
0.000155759
0.000150241
0.000150626
0.0137906
0.042106
0.040227
0.000170226
0.0241699
0.0171549
0.0292747
0.000148829
0.000148912
0.000151359
0.000171464
0.000167289
0.000350952
0.000168596
0.000162907
0.000190361
0.000153062
0.000149092
0.000160816
0.000191361
0.000175523
0.0348065
0.000238989
0.000149034
0.0140248
0.00017749
0.000211375
0.000177904
0.000180982
0.000157853
0.0275169
0.00015239
0.000149664
0.00887638
0.0627844
0.000189022
0.00693152
0.00017191
0.00587926
0.000219417
0.0399057
0.0416334
0.00014904
0.0404995
0.00014956
0.000150679
0.00307407
0.0877782
0.000150267
0.0541523
0.0813681
0.000188879
0.000150929
0.000439984
0.000329496
0.000178178
0.009192
0.0339277
0.000149131
0.0195678
0.000168225
0.0381154
0.00961566
0.000150214
0.00073386
0.000165054
0.00015122
0.000156554
0.00014925
0.000186828
6.67734e-05
0.00015206
0.000205674
0.000189812
0.000165325
0.000155551
0.031158
0.000148879
0.00653891
0.00799236
0.000169582
0.000187747
0.000148982
0.0579782
0.000149282
0.000195603
0.000154573
0.0856961
0.000230895
0.0485042
0.000181966
0.0068585
0.00697379
0.0196565
0.000148907
0.0766122
0.000200329
0.0186267
0.000154304
0.000195933
0.0106465
0.0199576
0.00018493
0.000149077
0.000149528
0.000224394
0.00028323
0.000149695
0.00644243
0.000152142
0.0175146
0.000157188
0.0445253
0.000170647
0.000152626
0.000153415
0.0197725
0.0770506
0.0469253
0.00853519
0.029717
0.0242201
0.000124735
0.000166622
0.000151192
0.000162032
0.000156145
0.031424
0.000123006
0.000195798
0.000159595
0.00110527
0.0425565
0.000272194
0.00354056
0.0349886
0.000150047
0.000155636
0.000180625
0.000178948
0.0474763
0.000151967
0.02196
0.000149303
0.00677458
0.00234632
0.000161837
0.0459038
0.0862546
0.0127294
0.00945441
0.000162782
0.00018827
0.00015637
0.000180458
0.000187078
0.0261084
0.000237859
0.0002091
0.000150578
0.000148124
0.000164554
0.00722201
0.0199093
0.000184979
0.000148653
0.000155676
0.000151528
0.0646688
0.000214234
0.000155207
0.000197976
0.016567
0.0776405
0.000163235
0.0174071
0.0121784
0.000150506
0.0349903
0.000177541
0.000149441
0.000152051
0.000167116
0.00015429
0.0893016
0.000153375
0.000161304
0.000151191
0.000161501
0.000151117
0.000153367
0.00807101
0.000154426
0.0490515
0.0369645
0.0001552
0.000136992
0.0287357
0.0122854
0.000166616
0.0366594
0.00415434
0.0784638
0.0241319
0.00014971
0.000256389
0.00272889
0.000149354
0.000227992
0.000156483
0.000265737
0.000181274
0.000174439
0.000169098
0.00583383
0.000171632
0.000226326
0.000163857
0.00494893
0.000164303
0.0443171
0.00917274
0.0258313
0.0160688
0.000149816
0.000162395
0.000150547
0.0176117
0.000152226
0.000195981
0.000184145
0.00699659
0.0500068
0.0314719
0.000158782
0.0484119
0.0155636
0.000153529
0.00356464
0.000320921
0.000328542
0.0144664
0.000156027
0.000153782
0.0671493
0.0129627
0.00464746
0.00720974
0.0322755
0.000149265
0.0616266
0.0936016
0.0292417
0.0462411
0.000162302
0.000163568
0.000167591
0.000154034
0.00022902
0.00255866
0.000220213
0.000160128
0.000149365
0.070189
0.000695586
0.000230332
0.0213833
0.000167785
0.000335661
0.00559617
0.0001517
0.00822212
0.0338731
0.015793
0.000179272
0.0070193
0.000150578
0.000185287
0.0250066
0.0308308
0.000209548
0.000187997
0.0189647
0.0699125
0.0272395
0.000152517
0.0405435
0.00344836
0.00019684
0.00809907
0.000159038
0.000296767
0.00015203
0.000159025
0.000152199
0.000168526
0.000153787
0.000166419
0.00021248
0.000184419
0.000154075
0.0372002
0.000160231
0.000151482
0.00015928
0.000185507
0.0545082
0.000151152
0.0121142
0.0192624
0.000191709
0.000159623
0.0135242
0.0218231
0.00015275
0.000173129
0.000151842
0.000161291
0.000235733
0.000271004
0.0334901
0.0450328
0.0363226
0.000150406
0.00727594
0.00015326
0.000163787
0.0237792
0.0123057
0.000155839
0.000180306
0.000185261
0.000152916
0.00032384
0.000153008
0.0779126
0.000157025
0.00068973
0.0766399
0.000158136
0.0346973
0.000150883
0.000149054
0.000337906
0.000179359
0.00777515
0.0116256
0.0474437
0.000148833
0.00016758
0.000167501
0.000168915
0.000160558
0.0108866
0.000167699
0.000150948
0.000167317
0.000184051
0.0118497
0.0798182
0.000151099
0.000168548
0.0180642
0.0930639
0.00017342
0.0446436
0.000156121
0.000159555
0.000169847
0.000149288
0.000170188
0.000151463
0.0679315
0.000170988
0.0450949
0.0023727
0.0415731
0.0316093
0.000148916
0.000156611
0.000178233
0.00014933
0.000194065
0.0432866
0.0259425
0.000156438
0.000248078
0.000151224
0.000316895
0.0108177
0.0104238
0.042964
0.00219241
0.0213126
0.0155205
0.000156397
0.000149403
0.0129794
0.000166245
0.000149587
0.000150163
0.000381018
0.0002428
0.000220585
0.0326717
0.000149119
0.0443575
0.000167474
0.0306687
0.00312167
0.0802667
0.00015818
0.000176476
0.0511854
0.000172692
0.000323179
0.00019672
0.000165749
0.000180648
0.000159391
0.00598787
0.0890893
0.0466522
0.000185735
0.00015353
0.0142496
0.0153456
0.00828334
0.000151542
0.0235529
0.0469867
0.0276778
0.091601
0.030654
0.000165906
0.00630866
0.0202826
0.0793371
0.000152396
0.0794528
0.000154263
0.000217055
0.0151992
0.0711314
0.0242272
0.000151853
0.000161636
0.000177748
0.0277649
0.000170871
0.0181583
0.000159371
0.000237095
0.00923212
0.000151695
0.000149389
0.000186003
0.000156134
0.000155976
0.0513675
0.00506622
0.000171062
0.000151989
0.0366993
0.000154313
0.000149284
0.000153487
0.010708
0.0354994
0.00845285
0.000153176
0.0729312
0.000149753
0.0913856
0.000409342
0.00015067
0.00016476
0.00015888
0.00337401
0.000166918
0.000179387
0.00382763
0.000153132
0.00126965
0.000149607
0.000152981
0.000149451
0.000149219
0.000153189
0.000157807
0.000223792
0.0283096
0.000187605
0.000168264
0.000253959
0.0069699
0.000141605
0.0070885
0.00648789
0.00015119
0.0417845
0.000229333
0.0770967
0.00016194
0.0801433
0.000154541
0.000175934
0.000161553
0.00925625
0.000148722
0.0107263
0.0491218
0.000154125
0.000171416
0.00599895
0.000177115
0.00016006
0.000150714
0.0664719
0.000155941
0.00020202
0.000152094
0.000153198
0.00726001
0.0791693
0.0196814
0.000151015
0.000156422
0.0492391
0.000149211
0.000149235
0.0112126
0.0592615
0.0234576
0.000151399
0.000164582
0.000149113
0.0621215
0.000167787
0.000153485
0.090723
0.000503184
0.000170953
0.0499501
0.000174328
0.00015129
0.000159812
0.000149305
0.0215979
0.000148601
0.000154133
0.000149222
0.000207588
0.00014914
0.00014933
0.000153651
0.0036549
0.000168163
0.00016145
0.000176542
0.000186447
0.000168054
0.00797313
0.0753715
0.000166206
0.000149376
0.000167659
0.000304389
0.000192351
0.000473431
0.00603793
0.000153581
0.00335831
0.000149551
0.0409159
0.00654319
0.042472
0.000153658
0.00024934
0.000149671
0.00016033
0.000167653
0.000176679
0.000176881
0.0287996
0.000154759
0.000156552
0.000220416
0.0910679
0.000176138
0.000189333
0.00611057
0.000159773
0.000213677
0.000161203
0.000264035
0.000159654
0.000211152
0.000195332
0.0003023
0.000159936
0.000153954
0.0144366
0.000339137
0.0954322
0.000153921
0.000188753
0.0247822
0.000171351
0.000150834
0.000166837
0.000154026
0.000153679
0.000189021
0.000191729
0.00872553
0.0750405
0.00819627
0.000161507
0.00304846
0.0197994
0.0930305
0.00221917
0.000154157
0.000149328
0.000153143
0.00801182
0.000207384
0.000162483
0.0484735
0.0492609
0.000154172
0.000171829
0.00945251
0.0313608
0.000152128
0.0489615
0.000148493
0.0113918
0.000397633
0.020067
0.000174638
0.000173859
0.0294844
0.000190462
0.0263153
0.096592
0.0127944
0.000154456
0.000161818
0.000176254
0.000152423
0.000164114
0.0208642
0.000230405
0.000149746
0.000153091
0.000200377
0.00905123
0.000211876
0.000172687
0.0206756
0.000155521
0.0925545
0.000186954
0.0251334
0.000153297
0.000154899
0.00231223
0.00909456
0.0920156
0.000321797
0.000232409
0.0307877
0.080173
0.000152992
0.011901
0.000178154
0.000148673
0.000148871
0.000255235
0.00019027
0.000151437
0.000150232
0.0543905
0.000153333
0.000183459
0.000153302
0.000151
0.000190671
0.0057217
0.000152197
0.00752823
0.000230649
0.000149071
0.000166153
0.000225278
0.000202482
0.000235549
0.000383402
0.000155548
0.000237498
0.0248592
0.000187953
0.000154467
0.0340058
0.000152691
0.000182739
0.000155818
0.000217608
0.0443179
0.000151169
0.000197726
0.0607788
0.000161401
0.00014901
0.00016099
0.000799273
0.0579143
0.0331745
0.000217
0.000205597
0.0691284
0.024986
0.000153236
0.0135635
0.000222913
0.000192965
0.0430695
0.000192559
0.000127446
0.0331015
0.0623146
0.000169917
0.0255656
0.05306
0.0523631
0.00027789
0.00036879
0.000154484
0.000180745
0.0339639
0.0908561
0.000150265
0.000150951
0.0715083
0.00014978
0.0113909
0.0715683
0.089787
0.000867354
0.000160917
0.000203086
0.0575339
0.00014972
0.000149729
0.000185226
0.000237102
0.0150304
0.0455516
0.000254878
0.0449564
0.000172542
0.0296186
0.0170906
0.022986
0.000168369
0.000166254
0.0331041
0.000270691
0.000152227
0.0210047
0.000238049
0.000166964
0.000151212
0.0571037
0.0677848
0.000150163
0.000151489
0.000155486
0.00015079
0.0002495
0.0451327
0.000161187
0.086929
0.000262364
0.000150323
0.000281986
0.000164952
0.000155551
0.00147603
0.000149309
0.000156084
0.0132852
0.00019317
0.000235159
0.000153306
0.000152157
0.0472316
0.000175553
0.0584619
0.0184369
0.089467
0.0482024
0.000149273
0.0932309
0.000154003
0.0424698
0.000149377
0.0144111
0.0277473
0.000155986
0.0661408
0.035451
0.000155482
0.000184489
0.000149625
0.0152892
0.000199201
0.000159733
0.000149463
0.000170258
0.000149811
0.00438928
0.00017127
0.000149456
0.000152338
0.0899964
0.000189315
0.000179463
0.000151059
0.00408558
0.000162998
0.000274622
0.000154729
0.000156607
0.000156017
0.000167087
0.000150897
0.000190628
0.000156797
0.0389853
0.000156481
0.00015568
0.000236567
0.0182557
0.000153543
0.0892277
0.000161633
0.000170097
0.000149366
0.00983412
0.000208039
0.000204942
0.0601736
0.000148489
0.000289685
0.000956278
0.0371449
0.000176761
0.000150398
0.000320435
0.000278062
0.000168423
0.0237599
0.000159115
0.000167199
0.0595185
0.000149354
0.000156119
0.000250358
0.0133436
0.000152085
0.000168581
0.000266756
0.000153767
0.00771171
0.0253993
0.022343
0.0002289
0.000154983
0.00296541
0.000157863
0.000153731
0.000245103
0.000221876
0.000168336
0.000154067
0.000174313
0.000186602
0.000150946
0.000151261
0.000159267
0.000166914
0.000150482
0.000159967
0.000151163
0.000202871
0.0329202
0.000191104
0.000152043
0.000211225
0.000294538
0.000177117
0.000155047
0.000151784
0.000228377
0.000149042
0.000405128
0.000155397
0.000166877
0.000149599
0.000213204
0.00017205
0.000172078
0.000179566
0.000164313
0.0417263
0.00333039
0.00014904
0.000149152
0.000154616
0.0231161
0.00364479
0.000282354
0.000202655
0.000183621
0.00014937
0.00015322
0.000194623
0.00163824
0.0164654
0.000166981
9.39368e-05
0.000151161
0.000193005
0.000150085
0.000192639
0.000167826
0.0777283
0.000153997
0.0001674
0.00014868
0.000188981
0.0786349
0.000172048
0.0204199
0.0932637
0.0211797
0.000189423
0.000160416
0.000161463
0.000149068
0.0177219
0.000163773
0.000224787
0.000224793
0.000162318
0.000152512
0.000155697
0.000153024
0.00367361
0.000156622
0.000153042
0.00209586
0.000149381
0.000176649
0.000209964
0.000159485
0.000309567
0.00015101
0.000166336
0.00016223
0.000174033
0.000150747
0.000151229
0.000185708
0.000186902
0.0419803
0.000155319
0.000235724
0.065873
0.00014935
0.00453612
0.000284757
0.0110107
0.000194075
0.000155459
0.000168447
0.000163719
0.000153517
0.000154454
0.00868946
0.000217228
0.000164205
0.0187262