/*--------------------------------*- C++ -*----------------------------------*\
| =========                 |                                                 |
| \\      /  F ield         | OpenFOAM: The Open Source CFD Toolbox           |
|  \\    /   O peration     | Version:  v2012                                 |
|   \\  /    A nd           | Website:  www.openfoam.com                      |
|    \\/     M anipulation  |                                                 |
\*---------------------------------------------------------------------------*/
FoamFile
{
    version     2.0;
    format      ascii;
    class       volScalarField;
    location    "600";
    object      nut;
}
// * * * * * * * * * * * * * * * * * * * * * * * * * * * * * * * * * * * * * //

dimensions      [0 2 -1 0 0 0 0];


internalField   nonuniform List<scalar> 
14479
(
0.000426537
0.000252305
0.000715989
0.00803992
7.89417e-05
0.000493602
0.00672794
0.00680247
0.0039777
0.023147
0.000127443
0.00754316
0.00204733
0.00101779
0.00727205
0.00139988
0.000941767
7.21908e-05
0.0198955
0.000811148
0.00675363
0.00147674
0.00131562
0.000910002
0.00190886
9.9755e-05
0.000114339
0.0232372
0.000804546
0.00794942
0.000688048
0.00372015
0.0218331
0.00680694
0.0016768
0.00675785
0.00674537
0.0016789
0.000764317
0.000103485
0.00709823
0.000781524
0.000392627
0.000930927
0.000984819
0.000493866
3.53936e-05
0.00180677
0.00132485
8.45253e-05
0.00639773
0.0251972
0.00015231
0.000580273
0.00174492
0.00187864
0.000310212
0.0279978
0.00656104
0.000524097
0.000816184
0.00336403
4.12381e-05
0.00039217
0.00363849
0.0158811
0.000673193
0.000419702
0.00997517
0.0206027
0.00618476
0.000726701
0.0194919
0.00511624
0.00675225
0.00132957
0.0064819
0.00726129
0.0262098
0.00593279
0.00561257
0.00672427
0.000753166
0.000949691
0.00218292
0.000452369
0.000923845
0.00509972
0.0059072
0.00342332
0.0196544
0.0170242
0.00151144
0.0153582
0.00103446
0.0224078
0.00239547
0.0183413
0.000819704
0.0327789
0.000804351
0.029074
0.000698825
0.00676449
0.000781474
0.0065493
0.00436514
0.0192958
0.000204735
0.00680366
0.000787699
0.00109014
0.000167628
0.000544261
0.00014442
0.000629117
0.00419537
4.89614e-05
0.00100245
0.000709883
0.0016148
0.0067384
0.00428788
0.00058553
0.0122881
0.00691012
0.00111954
0.00212808
0.00690816
0.0275767
0.00434282
0.00822772
0.00529713
0.00524431
0.000630424
0.000150705
2.10988e-05
0.00148599
0.0254791
0.00740821
0.00229815
0.000523939
0.000869087
1.55521e-05
0.000357661
0.00234098
0.023984
0.00218702
0.000488741
0.00130138
0.0232357
0.000984112
0.00675812
0.000781367
0.00114476
0.000836981
0.0207377
0.00672748
0.0326748
0.0248655
0.0216888
0.0154763
0.0243325
0.000786579
0.0341101
0.00361342
0.00694268
0.00029829
0.00477765
0.00176162
0.00390124
0.000484907
0.00303329
0.000831011
0.0042124
0.00011288
0.0065474
0.001782
0.000104061
0.000918184
5.28914e-05
0.00674883
0.000967455
0.00256508
0.00674868
0.000204798
0.000369644
0.000545872
2.72402e-05
2.98364e-05
0.00674269
0.0353492
0.0007438
0.00672813
0.000726066
0.0269975
4.57964e-05
0.0352973
0.000523932
0.00350485
0.000781862
0.00548868
0.0206156
0.000540082
0.00106384
0.00100313
0.00148802
0.000656162
0.00179934
0.000164574
0.0173409
0.0346386
0.00107293
0.000511275
0.00534325
0.000895379
0.0325018
0.000780008
0.00658351
0.000444133
4.88242e-05
0.0215316
0.0354419
0.000711635
4.1171e-05
0.00396188
0.00132407
0.00102658
0.00011146
0.00676818
0.00108929
0.00672758
0.000413625
0.000952024
0.000442248
0.00076226
0.000251564
3.40956e-05
0.00566138
0.00217103
0.00454744
0.000571466
0.000790736
8.42439e-05
0.0341608
0.0184511
0.00275327
0.00389241
0.00110646
0.011616
0.00680994
0.000590647
0.00675862
0.00690878
0.0106154
0.000656927
0.00520466
0.000495574
0.000112733
0.000867884
0.00592268
0.0138628
0.00126682
0.0005685
0.00606583
0.000314765
0.00595386
0.0353888
0.0146955
0.00961804
0.0254966
0.00209002
0.00787271
0.00087114
0.00112826
0.00210909
0.018868
0.00212494
0.0164103
0.0248531
0.00629517
0.0171603
0.0235204
0.00545911
0.0067301
0.00674244
4.10611e-05
0.0020895
0.015222
0.000635654
5.7482e-05
0.000869359
0.00017724
0.000347042
0.00217992
0.000475211
0.00285217
0.000118662
0.00694557
0.000381032
0.00344976
0.0117904
0.00320622
0.000673068
0.000524055
0.000977602
0.0288399
0.000495396
0.00142838
0.00129396
0.0225051
8.55737e-05
0.000125965
0.00249841
0.00116117
0.00672846
0.00711795
0.000162496
0.00634114
0.00676658
0.00107893
0.00673987
0.00104603
0.00298872
0.000474464
0.000746915
0.0175563
8.08279e-05
0.0138347
0.00305854
0.000745587
0.000680318
0.0300967
0.00159244
0.0017136
0.00678062
0.000380149
0.000525162
9.038e-05
0.000465742
0.0186459
0.000589363
0.000607588
0.00680467
0.0150523
0.00529383
0.0173108
0.035523
0.005933
0.000359649
0.0148426
0.0160538
0.000834606
0.00412865
0.00373665
0.00673942
0.00274872
0.0221424
0.00114751
0.00194159
0.00246416
0.0153707
0.00701233
0.00226293
0.0154303
0.000772625
0.000128688
0.00148399
0.0127668
0.0104689
0.000864352
0.0175175
0.00051511
5.74589e-05
0.00410414
0.0135311
0.000838074
0.000176182
0.0020936
0.00139634
0.00220639
0.0006205
8.00196e-05
0.000112074
0.0198356
0.00040581
0.00673543
0.000790967
0.00635027
0.00108491
0.000410839
0.00071501
5.89229e-05
0.000703825
0.0220732
0.0353127
5.16734e-05
9.44208e-06
0.00313769
0.00672614
0.0148817
0.00642623
0.0149182
0.00062519
0.00904012
0.00136984
0.000895023
0.0108145
6.00673e-05
0.0040069
0.0235548
0.00627116
0.00674977
0.0067262
6.73012e-05
0.00679148
9.0675e-05
0.000146674
0.00672452
0.000516119
0.000559432
0.000405349
0.0256771
0.000764803
0.0216553
0.000312379
0.0227604
0.00676292
0.000449033
7.0469e-05
0.00355975
0.000413401
0.00163464
0.00107794
0.000356376
0.0345313
0.000620855
0.0352996
0.000835494
0.000796887
0.00789887
0.0249112
0.00408137
0.00676136
0.000551621
0.000707613
0.000128302
0.0154676
0.000893159
0.000978023
0.00673148
3.53751e-05
0.000557037
0.000876241
0.00672747
0.000849278
0.00359808
0.000722837
0.00920872
0.0121459
0.00126178
0.00181712
0.0314986
0.000118182
0.0266056
0.00108384
0.000691263
0.019346
0.0013091
0.00691573
0.00676255
0.00674374
0.0025863
0.0206826
0.00055688
4.86619e-05
0.0111305
0.00131164
0.000122806
0.000749454
0.00106287
0.0154594
0.000699999
4.00572e-05
0.000985691
9.60486e-05
0.0032875
0.0101039
2.84218e-05
0.0346099
0.00765398
0.00673241
0.00678828
0.0321519
0.000163338
0.00226471
0.000529068
0.0056451
0.00109891
0.000855872
0.000366476
0.000853019
0.000733542
0.00297531
0.00608983
0.00462305
0.0221911
0.000905723
0.00196963
0.00671674
0.000391167
0.000521157
0.000973982
0.00396163
0.0042129
0.00674097
0.0067298
0.00464117
0.00151058
0.000351101
0.0247364
0.00971734
0.0306729
0.00887035
0.0341854
0.03455
0.00389336
0.00107733
0.0193447
0.00958481
0.00673949
0.000414251
0.0242419
0.00936425
0.0007427
0.000662437
9.11926e-05
0.00116645
5.89218e-05
0.0161769
0.000411214
0.0148864
0.00135159
0.00295044
0.00216078
0.00591116
0.0169741
0.00673371
0.000805395
0.00101018
0.000760297
0.000105014
0.00684695
0.00509419
0.000519584
0.00277336
0.00201332
0.00134274
0.00476583
0.00157058
0.000363768
0.0164622
0.000370423
0.0347811
0.0037003
0.000824422
0.000162534
0.00455852
0.00274019
0.000737719
0.000320149
0.00537221
0.0324348
4.55751e-05
0.000668883
0.00434848
0.00128937
0.00447976
0.000375117
0.000727278
0.00447284
0.00449713
0.000289972
0.00107845
0.0139275
0.00287795
0.00602225
0.035438
0.0132866
0.00342765
0.000112373
0.00672634
0.00343854
0.00951827
0.000807818
0.021072
0.00676761
0.00674148
0.000914859
0.00210204
0.0289067
0.00675226
2.10493e-05
0.0285805
0.00393892
0.00625954
0.001987
0.0165699
0.00122179
0.00022576
0.00116379
0.00500761
0.000239844
0.00580192
0.006216
0.00485074
0.0143734
4.28213e-05
0.023697
0.00269218
0.00614046
0.00075012
0.00101875
0.000725086
0.0297544
0.00247723
0.0035007
0.00675387
0.00100778
0.0354093
0.00047133
0.000692382
0.00672678
0.000454428
0.000374709
0.0067545
0.00683407
0.00113449
0.00251727
0.00609751
0.00506469
0.000721198
0.00675258
0.0193941
0.00206758
0.00514062
0.00072329
0.00154802
0.000761098
0.0141051
0.00853777
0.000743446
0.00648494
0.00433543
0.00575587
0.0063951
0.0200282
0.000284608
0.0042835
0.00140053
0.000668034
0.00676859
0.00299996
0.0347328
0.0153694
0.000877841
0.00174674
3.57052e-05
0.0205512
0.00674352
0.0067641
0.000516466
0.00722331
0.00699475
9.76985e-05
4.35079e-05
0.0205546
0.000227296
0.00146243
0.000743545
0.00412193
0.00105804
0.0124865
0.00499228
0.0115198
0.000763022
0.0254812
0.00197831
0.000207165
0.019579
0.00116556
0.000333533
0.0325561
0.000883296
0.000810975
0.0143936
0.0208932
0.0127125
0.000455773
0.000568911
0.0280078
0.0175617
0.0331381
0.00437177
0.00168243
0.0199491
0.000728639
0.0169689
0.00146085
0.00396739
0.0067657
0.000572701
0.00704655
0.0106349
0.00688188
0.00238581
0.00157042
0.0103868
0.0147256
0.000996488
2.38937e-05
0.00016997
0.000800065
0.0295402
0.0168623
0.000890442
9.40023e-05
0.0257383
0.0139962
0.00679306
0.00182572
0.00232951
0.00672731
0.00446476
0.00682705
0.00394872
0.000113631
7.65079e-05
0.000732552
0.00674563
0.00369967
0.00488813
0.00672844
0.0067274
0.00144345
0.0095431
0.00246558
0.007409
0.0112188
0.00464943
0.000229639
0.0004313
0.00205283
0.00101986
0.000114109
0.00235882
0.00129816
0.0133656
0.000193363
0.00102172
0.000485114
0.000293297
0.00229017
0.0285538
0.00381738
0.0107648
0.00675167
0.0126289
0.006343
0.000708187
5.54933e-05
0.0173527
0.0162893
0.000452916
0.00270697
0.00183083
0.0102862
0.00388877
0.00109189
0.00976973
0.0141155
0.00312218
0.000263084
0.00135813
0.00677577
0.000375303
0.00847104
0.00112853
0.000695424
0.0237485
0.00673645
0.000549539
0.00311364
0.0317256
0.0144129
0.000114649
0.00581952
0.00091538
6.35362e-05
0.000511042
0.0247161
0.000128296
0.000553048
0.000532812
0.00330761
0.0248684
0.0259508
0.00677796
0.0132357
0.00222275
0.00572363
0.0185444
0.00105386
0.000482323
0.00025801
0.032073
0.000101417
0.00121651
0.000588157
0.000837725
0.000651216
0.000367694
0.000501057
0.0205289
0.00024339
0.000414697
0.0007881
0.00106104
0.000305108
0.00376695
0.00056455
0.0135928
0.00185166
0.0151805
0.0115263
0.000663525
0.0108642
0.000709105
0.0346379
7.6419e-05
0.00306738
0.00462443
0.000328092
0.000604615
0.00330783
0.000960722
0.0121177
3.71063e-05
0.00677181
0.000414361
0.0181891
0.000763053
4.4829e-05
0.000691003
0.00875014
0.00161886
0.0314968
0.000843893
0.00679853
0.000408864
0.00388508
0.000523525
0.00111591
0.00750542
0.000967707
0.0339172
0.00241227
0.00676998
0.00436697
0.00367566
0.00110137
0.0253409
0.0311497
0.031819
0.0259479
0.0203909
0.00038268
0.0225654
0.00891346
0.0353337
0.00391271
0.000396813
0.0255174
0.000276187
0.00248368
0.00238146
0.00226645
9.20442e-05
0.000671603
0.00425986
0.000705482
0.000511379
8.5185e-05
0.0160875
0.00445289
0.00672627
0.000453211
0.00119955
0.0219198
0.000781563
0.00604472
0.00677047
0.000602944
0.00168329
0.000809385
0.00621223
0.00113191
0.000370243
0.0202728
0.0329601
0.0161505
0.0267956
0.00675845
6.56764e-05
0.00656199
0.00630667
0.00673034
0.00576068
0.0172874
0.00125255
0.000763848
1.8106e-05
0.0244972
0.000243404
0.00675312
0.00674169
0.0116515
0.000102322
0.00802362
0.000322113
0.035234
0.000845332
0.000992203
0.00689633
0.000314408
0.0312461
0.0249328
0.0236349
0.0221662
3.84227e-05
0.000855918
0.000547083
0.00672562
0.000200338
0.00677553
0.00126101
0.00949581
0.0308324
0.000500465
0.00674176
0.0228953
0.000904561
0.0343674
0.0230698
0.000355275
0.00169666
0.000216318
0.0326503
0.00672587
0.00101248
0.00408071
0.0299434
0.00685287
0.00672587
0.0039778
0.00181251
6.58542e-05
0.000539342
0.0067885
0.00322528
7.67497e-05
0.00193998
0.0318865
0.00672577
0.000823179
0.0307048
0.00106737
0.00680363
0.000334574
0.00158058
0.000621989
0.00727563
0.000625056
0.00785149
0.000853022
0.0007121
6.92392e-05
0.000650967
0.00673564
4.381e-05
0.00281455
0.000506419
0.0146575
0.0136
0.00509082
0.000252992
0.0036586
0.00120153
0.00368582
0.00085875
0.015856
0.00233062
0.0224161
0.000852251
0.00674478
0.00676043
0.000582833
0.0131427
0.00674172
0.000524577
0.0355361
0.0355589
0.000167009
0.0149371
0.000166535
0.00115439
0.00267429
0.000530425
0.0200215
9.27374e-05
0.00673573
0.00230223
0.0246424
0.00675845
0.00762484
0.000374213
0.000543006
0.000628604
0.000197701
0.000713438
0.0269437
0.00291536
0.00018734
0.000277804
0.000738812
0.00479369
0.000585082
0.0189381
0.000467296
0.00120264
0.00193652
0.00655287
0.000428823
7.78874e-05
0.000708543
0.00186262
0.00322756
0.000452871
0.000427343
0.0299412
0.0153019
0.00146746
0.00413071
0.0308895
0.000101412
0.000888305
0.000618596
6.39288e-05
3.42529e-05
0.00230411
0.000163584
0.00370226
0.00496801
0.000229392
0.00500396
0.0161939
0.0311628
0.00186796
0.0129271
0.0244632
5.00412e-05
0.018411
0.00422479
0.000172609
0.000223383
0.00353708
0.0317096
0.00479946
0.00602206
0.00672687
0.0344694
0.0010424
0.000251259
0.00675608
0.000667618
0.00165289
0.0100703
0.000542577
0.00125545
0.000313475
0.0314941
0.000247126
0.0149622
0.00672684
0.00137339
0.000609388
6.29044e-05
0.00228723
0.000308346
0.000605607
0.00010674
0.033607
0.0011219
0.00678529
0.000546278
0.000932683
0.00586625
0.000190494
0.00563117
0.0215106
0.00848956
0.000633715
0.00753886
0.00688486
0.00672551
0.000683717
0.000190892
0.000543153
0.00573025
5.47893e-05
0.0291473
0.0176025
0.00927421
0.00194924
0.005461
9.02292e-05
0.0260272
0.000735072
0.0173662
0.000476398
0.00672941
0.000479415
0.00268504
0.00286533
0.0348688
0.000900233
0.00113002
0.0184973
4.6641e-05
0.0181475
0.00672652
0.000574995
9.2492e-05
0.000217859
0.0336513
0.0165812
0.000796099
0.000354208
0.000151167
0.00094462
0.00124404
0.00446771
0.000692793
8.77689e-05
0.00673715
5.85709e-05
0.00160809
0.00472057
0.000113135
0.0165516
0.0315797
3.18493e-05
4.96444e-05
0.00100491
0.000397536
0.00673626
0.000447298
0.00681538
0.0234585
6.33644e-05
0.000502707
0.000439807
0.000579993
0.00162898
0.000717654
0.00685849
0.00897977
0.00304069
0.031329
0.00507298
0.00399604
0.00229139
0.00919192
0.00558694
0.0233432
5.07733e-05
0.000729368
0.000741134
0.00256389
0.000737699
0.000659439
0.0152837
0.000136667
0.00823439
0.000979155
0.000255794
0.00104477
0.0068
0.00615591
0.00683979
0.00678623
4.76907e-05
0.000633857
0.00011147
0.0135763
0.0143523
0.00121311
0.00102881
0.000705002
0.00454817
0.000603708
4.11023e-05
0.00675298
0.00638723
0.000758364
0.0081289
0.00674747
0.00101955
2.68996e-05
0.00673676
0.006741
0.0112471
0.00181874
4.40674e-05
0.000561825
0.0067365
0.000414382
0.00062319
0.00676326
0.0293758
0.00207543
0.0042738
7.60877e-05
0.0134559
0.000544911
0.0272396
0.00057344
0.00685542
0.00145954
0.0195833
0.00105764
7.25714e-05
0.000525699
0.000795434
0.0248839
0.00279451
0.00674595
0.00891025
0.00398959
0.0184118
0.0205469
0.00682588
0.000298439
4.08683e-05
0.000150195
0.000531297
0.000538389
0.000704261
0.000173854
0.00126107
0.00050002
0.000753931
0.00466231
0.000635193
0.000524872
0.00634259
0.00209327
4.18572e-05
3.31029e-05
0.0156103
0.000777615
0.00672792
0.0106383
0.000154167
0.0309213
0.000697073
0.0107382
4.59294e-05
0.00191282
0.000471475
0.0100682
0.00187822
0.000453075
0.0172497
0.0234269
5.49914e-05
0.00679479
0.00689509
0.000502525
0.0342175
0.00363747
0.00451545
0.000782098
0.00682593
0.0067249
0.0307177
0.000736745
0.000770539
0.000453686
0.00115423
0.0318814
0.000110492
0.000505867
0.0163705
0.00405882
0.000895219
0.000461592
0.000496799
0.000394266
0.000855886
0.00498869
0.025823
0.0128754
0.0353013
0.000214868
0.00253803
0.000323531
0.000422103
0.0110841
0.00101651
0.00674736
0.00033423
0.000629038
0.00674652
4.52789e-05
0.00039328
0.00103439
0.0301893
0.0157013
3.31386e-05
0.000501802
3.1045e-05
0.00229083
0.00672612
0.000498321
0.00227983
0.0212336
0.00819197
0.00672738
0.000705598
0.00333955
0.00675013
0.0144405
8.77264e-05
0.00956813
0.00250501
0.000479049
0.00673619
0.00525545
0.0039525
0.000615209
0.0255424
0.00297419
0.0170966
0.000791695
7.70966e-05
0.00188153
0.0314649
0.000518888
0.00680575
0.0164809
0.000302721
0.00243137
0.000511571
0.00492403
0.00673257
0.0201507
0.00974199
0.000383211
0.0115218
0.0127751
0.000281841
0.00658265
0.0264054
0.000486415
0.0105324
0.00673747
0.00109103
0.000390833
0.000584902
0.00287026
9.08236e-05
0.000709047
7.32189e-05
0.0010366
0.000342434
0.0256187
0.000191181
0.00245064
0.00547107
0.000828082
0.000782647
0.000328198
3.73752e-05
0.000443842
0.0146305
0.000196282
0.000941224
0.000413564
0.000117508
0.000284029
0.000195674
0.00686463
0.000340562
0.00445207
0.000762162
0.00975654
0.000471478
0.00676075
0.00644432
0.000338456
0.00083426
0.00634826
0.0355936
0.0255322
0.000644253
3.60208e-05
7.2153e-05
0.00132801
0.0130906
0.000441761
0.035348
0.00141922
0.0295035
0.0146981
0.00477151
0.000605559
0.00518355
0.00214876
0.000638267
0.027779
0.00672624
0.0164744
0.00223033
0.00617998
0.00477446
0.00153393
0.000259578
0.00127416
0.0151941
0.000493702
5.92332e-05
0.000857707
0.000111108
0.0156165
0.000836255
0.00405344
0.00679882
0.00664041
0.000255874
0.00291009
4.56673e-05
0.000407079
0.000543385
0.0010161
0.0162754
0.00220574
3.48922e-05
0.000106703
0.00675459
0.000832614
0.0312963
5.54568e-05
0.0351623
0.0209059
0.00191199
4.50375e-05
0.0270663
0.0343593
0.00672571
0.00676792
0.00109367
0.00040766
0.0283955
0.00693538
0.000733365
0.000643091
0.0048829
0.00263815
0.025037
0.00433543
0.0145487
0.00254128
0.0011025
0.00897365
0.00674744
0.00134951
0.0156989
0.000898064
0.000627501
0.000562325
0.0164924
2.50319e-05
0.029786
0.0327883
0.0124948
0.0189941
0.000991139
0.00600944
0.000486939
0.000567968
0.000731698
0.0278111
0.0010173
0.000718396
0.00131507
0.000801151
0.0116273
0.000672493
0.0302714
0.000194534
0.000769242
0.00234561
0.000722038
0.000813833
0.00673931
3.4577e-05
0.00193338
0.00501615
0.0252046
0.000998253
0.0355571
0.000404614
0.00103913
0.0259595
0.00676065
9.27613e-05
0.0137838
0.00672194
4.07543e-05
0.000859004
0.000130599
0.0307175
0.00148067
0.000114554
0.00107208
0.00672696
0.000455058
0.000854509
0.00137439
6.44545e-05
3.90277e-05
0.00557971
0.00130999
0.000131475
0.00513364
0.00130395
0.000824107
0.00832828
0.0246805
0.000140939
0.00673187
0.0012069
0.0254019
0.00816211
0.000322495
0.0251384
0.00309122
0.00114978
0.0149729
0.0295722
0.0341285
0.00115855
0.00215603
0.000567067
0.000547673
8.6899e-05
0.0232298
0.00029984
0.0288881
0.000735873
0.000107797
0.0320677
7.29277e-05
0.0327173
0.000260424
0.000431861
0.00754675
0.0322966
0.00397204
0.000296338
0.000180533
4.22498e-05
0.00672778
0.00245383
0.000968281
0.00219137
0.000903684
0.00255726
0.0059639
0.0155951
0.0145422
0.000341666
0.000381898
0.00104217
0.000671766
0.00069868
0.00302463
0.00579275
0.0049666
0.0232153
0.0257895
0.00112045
0.0172281
0.00392053
0.00746717
0.00674537
0.00681763
0.0062008
7.53565e-05
0.00012338
5.34764e-05
9.30387e-05
0.000833426
6.08228e-05
0.0015554
0.00673034
0.00146259
0.000282403
0.00031155
0.0240145
4.24587e-05
0.00672615
0.0026876
0.000652424
0.000572964
0.000114513
0.000887487
0.00107963
0.0150132
0.00288899
0.00672617
0.00219648
0.00443631
0.000513047
0.00522544
0.00042426
0.00406701
0.000837885
0.0218794
0.0268872
0.00673753
0.015212
0.00680648
0.0045979
0.000222006
0.0281847
0.0038222
0.0305587
0.0252776
0.000282344
0.00482759
0.000472187
4.7354e-05
0.00015062
0.00747769
0.0234468
0.00620678
0.0137787
0.000508066
0.0250763
0.000519682
0.00367048
0.00014614
0.000593394
0.00292089
0.000962956
0.00674888
6.24875e-05
4.12751e-05
0.00364238
0.000691195
7.67405e-05
0.000304887
0.000796785
0.0214881
0.00682365
0.0047969
0.000685802
0.000480791
0.000558267
0.00675827
0.00331824
0.00673485
0.000637583
0.000801607
0.023219
3.57711e-05
0.0290107
0.000501327
0.000867901
0.000436421
0.0164571
0.00681946
0.0173205
0.000295247
0.00542329
0.00112037
4.70447e-05
0.00338912
0.0135176
0.000304293
0.00674098
0.00672569
0.000671763
3.90992e-05
0.00672593
0.00503028
0.00179912
0.00779846
0.000615498
0.0305262
9.25088e-05
0.00692302
0.00671002
0.00651926
0.0218585
0.02939
0.00238722
0.0162102
0.0116203
0.000111339
0.000148253
0.00469791
0.00128638
0.000545853
0.0027261
0.000103087
0.000579419
0.000597875
0.000231207
0.0296593
4.05847e-05
0.00137778
0.0190318
0.0068429
0.000997635
0.000818442
0.000270712
0.0300299
0.00224979
0.00772836
0.00594992
0.00324752
0.00115972
0.0016678
0.0281791
0.0241982
0.0100002
0.00563396
0.000351527
0.00020589
0.000627881
0.000520253
0.000356294
0.0177181
0.000807717
0.000297134
0.00418038
0.00672575
0.000389861
0.00061047
0.0042864
0.000157766
0.0067374
0.00444351
0.00250184
0.0108413
7.82069e-05
0.000630864
0.000536383
0.00349923
0.0176983
0.000216899
0.00101049
0.00317942
0.00278723
0.0213267
9.30062e-05
0.00675204
0.00245828
0.00138406
0.00694653
0.032845
0.00110781
0.00181411
0.00287655
0.000271135
0.00332895
0.00143331
0.00484942
0.000847415
0.0309213
0.0207607
0.000758631
5.92709e-05
0.0200623
0.00158082
0.000919815
0.024695
0.000174265
0.0359017
0.00087558
0.00672557
0.000886141
0.00181848
0.00673855
0.000691666
0.000661837
0.000646584
0.000286723
0.00105365
0.000143178
0.00071933
7.1174e-05
0.000783045
0.00129319
0.00217681
0.000258292
0.0252653
0.00546785
0.0139834
0.000874388
0.00672702
0.00076617
0.00274985
0.00398588
0.00321351
0.000518604
0.00048752
0.000338662
0.0134388
0.0220007
0.00198422
0.0239126
0.000623881
0.00217934
0.0019936
0.00118743
3.83593e-05
0.00213262
0.000970753
0.00139711
0.0142656
0.0100937
0.00203925
0.00446679
0.018994
0.00673035
0.0297476
0.0303964
0.00642699
0.0244642
0.00150461
0.000567753
0.000299612
0.00180688
0.000631732
0.000183681
0.000763048
0.000381245
0.00673836
0.0104986
0.000294291
0.000883317
0.00883743
0.000415831
0.000338627
0.00123203
0.00390494
0.00125331
0.0232181
0.00620497
0.000384734
0.000374337
0.00401928
0.000697954
0.0176082
0.0210541
0.000211083
0.000272684
0.0114759
0.0088973
0.013184
0.0018535
0.00214424
0.000549303
4.68027e-05
0.000428668
0.000490044
0.00026458
0.00258905
0.00052125
0.00266692
0.000120908
0.00183157
0.000177765
0.000574416
0.000108058
0.00095442
0.0225254
0.000398514
0.00413461
0.00197469
0.00137961
0.0105344
0.0045832
0.0098215
0.00747143
0.000300982
0.000569068
0.0107131
0.0155001
0.00475795
0.000356307
0.00433248
0.00153275
7.05814e-05
0.000227072
0.0163524
0.0218809
0.0203609
0.00296617
0.000702731
0.0036094
0.000313825
0.00789656
0.00924825
0.00259339
0.00052138
0.000362927
0.00155399
0.00120214
0.00324597
0.0245538
0.00321989
8.19387e-05
0.0355133
0.000480543
0.0126803
0.00284078
0.00673016
0.000125016
0.000550019
0.00550542
0.00697284
0.0235451
0.00675507
9.90836e-05
0.000117142
0.000460133
0.000357759
0.000789232
0.000345097
0.00417962
0.000417374
0.000356618
0.00882185
0.0219544
0.00272347
0.000288336
0.0140211
0.0292744
0.000426554
0.029623
0.00205343
0.000494295
0.000169298
0.00673778
0.00104713
0.0026645
0.0331752
9.21565e-05
0.0182574
0.000757026
0.0223443
0.0169805
0.00675867
0.000450863
0.000571359
0.00673818
4.52541e-05
0.0211475
0.0189458
0.000738308
3.90288e-05
0.00457709
0.00118205
0.0087565
0.0063151
0.027135
0.00130038
0.00648846
0.000762578
0.000772837
0.00674432
0.0100344
0.00138906
0.006725
0.00503116
2.68371e-05
6.21091e-05
0.000656233
0.0160198
0.00672917
0.0303561
0.000151716
0.0165849
0.00138379
0.0183503
0.000564353
0.000323475
0.0178315
0.000348185
0.00100255
0.00058134
0.000454362
0.000114992
0.00056525
0.000598843
0.0261425
0.0252785
0.00083509
0.00694731
0.000988015
0.00644581
0.0061762
0.00374635
0.0167755
0.0232428
0.0192661
0.0295655
0.0161842
0.000939417
0.00415626
0.00813222
0.0359076
0.00250427
0.0209087
0.0014871
0.000227192
0.0077981
0.00908051
0.0108269
0.00332431
0.000263146
0.000228832
0.0165134
0.000815317
0.0110225
0.00198345
0.000682131
0.001712
0.00181213
0.00672937
0.000188555
0.000995152
0.00256146
0.0134807
0.00169863
0.000448599
0.00667743
0.0254931
0.00214318
0.0067388
0.00117439
0.00610183
0.0243888
0.00483687
0.00165406
0.0120363
0.00672851
0.0294889
4.32533e-05
0.00305528
0.000180466
0.00103099
0.000519083
0.000172889
0.000237698
0.000462611
0.00185821
0.000241566
0.0068044
0.00191037
0.00676905
0.00673624
0.00342789
0.00293435
3.36359e-05
0.0143251
5.66303e-05
0.000558771
0.00089398
0.000629509
9.4296e-05
0.00158183
0.000653642
0.00308466
0.0145752
0.000701191
0.0172882
0.000783871
0.0180527
0.00134695
0.00011801
0.000871821
0.00161014
0.00672798
0.00831894
0.00271344
0.000763429
0.000123511
0.00131327
0.000429045
0.000258405
0.00232386
0.0147908
0.00129836
4.98623e-05
0.00347902
0.00175821
0.00565558
0.035834
0.00735276
0.00284375
0.000682394
0.0160788
0.00673461
0.0067647
0.000763236
0.0166577
0.0144643
0.00285122
0.000459683
0.00673172
0.0319881
0.000368585
0.00143792
0.0352863
0.000630136
0.000383072
0.0250899
0.000115971
0.00441222
0.000616654
0.00672465
0.0131165
0.00672703
0.00131495
0.00672445
0.000688429
0.00672615
0.00674447
0.000895739
0.000563633
0.000534006
0.00162282
0.000417609
0.000192674
0.000321163
0.00586551
0.0356019
0.00104122
0.00673297
0.000101101
0.00109477
0.000327614
5.13199e-05
0.00464002
0.00141311
0.00237663
0.00677092
0.0190126
0.00356447
0.0225846
0.00165052
3.69022e-05
0.00675426
0.000442559
0.00017272
0.000459018
0.00085177
0.0103499
0.000932197
0.0010029
0.000729542
0.0349651
0.000652354
0.000511272
0.00069283
0.0010873
4.38656e-05
0.000394414
4.5031e-05
0.000488113
0.000109938
5.01394e-05
0.00123437
0.000400738
0.00105772
0.0078723
4.7851e-05
0.0319856
0.00120447
0.000487351
0.00119876
0.000458568
0.00686599
0.000103641
0.000750882
0.00106895
0.0002947
0.000504252
0.00558507
0.0350679
0.000561186
0.00168585
0.000816016
0.007154
0.0302588
0.00101757
0.00114298
0.00673859
0.00335528
0.000556649
3.77301e-05
0.000321854
0.0110212
0.0267485
0.00134165
0.000503622
0.00205363
0.0186514
0.00192867
0.00320533
0.00673242
0.00236572
0.000869032
0.00122946
0.000889962
0.000283596
0.00963444
4.11587e-05
0.0121345
0.0332756
0.0100146
0.00188114
0.00134452
0.000356791
0.00400332
0.000277686
0.00633136
0.000103354
0.00672709
0.00693189
0.000246666
0.00595447
6.84427e-05
0.00112411
0.00829848
0.00139651
0.0333964
4.062e-05
0.0178557
0.00338473
0.000759202
0.000843229
0.000541826
0.0301854
2.95871e-05
0.000896341
0.0183405
0.0229683
0.00693798
0.00870306
0.00101279
0.00673553
0.00675681
7.36923e-05
8.78923e-05
0.00688428
0.00482256
0.0159196
0.00155525
5.87741e-05
0.00262766
0.00320237
4.51867e-05
0.00275378
0.00258883
0.00378042
0.000146652
0.00676193
0.000390709
0.00073096
0.000661711
0.000751189
0.000152936
0.00134399
4.11176e-05
0.0180234
4.24743e-05
0.000984787
0.022842
0.00178174
0.000234003
0.00146089
4.98189e-05
0.00957128
0.00142453
6.27912e-05
0.0241773
0.000629855
0.00673587
0.000243966
5.29981e-05
0.0223792
0.0184206
0.000729153
9.17916e-05
0.00969853
0.00496309
0.00280556
0.00696506
6.97407e-05
0.000488011
0.0235071
3.84393e-05
0.000158593
0.0190316
0.0132644
0.000663569
0.0183457
0.00353473
0.00340373
3.39364e-05
3.9563e-05
0.000655008
0.000923561
0.0197518
0.0322811
0.00418331
0.00275215
0.0141384
0.0067284
0.00716274
0.0345398
0.0285365
0.000234364
0.000587951
2.77065e-05
0.0207413
0.0068189
0.00672722
0.000529239
0.000734944
0.00907127
0.027388
4.4196e-05
0.0217379
0.000851695
0.0176834
0.0103448
0.0121966
0.000151879
0.000115892
0.0187857
4.61769e-05
0.00337671
0.013675
0.000791396
0.000175123
0.00337233
0.0190888
0.0333962
0.00512864
0.00375535
0.00286711
0.00321382
3.99141e-05
0.0241228
0.000295507
0.031374
0.000627444
0.00364809
4.69726e-05
0.0016534
0.000806741
9.30598e-05
0.00673315
0.00056847
0.0103888
0.000670039
0.000778349
0.00243418
0.00246564
0.0244059
0.000347331
0.017418
0.0146677
0.0353101
0.0287751
0.00684416
0.0293293
0.000992341
0.0239971
0.00674722
0.000853956
0.0192177
0.000927882
0.0350448
0.0164099
0.00134509
4.9903e-05
0.00681512
0.00224572
3.3029e-05
0.000290125
0.0067542
0.000313588
0.00672689
0.00152982
0.000300673
0.00676634
0.00424334
0.0269804
3.84047e-05
0.000901524
0.00687432
0.00031309
0.00605278
3.40723e-05
0.00117983
0.000626427
0.000591078
0.000177313
0.00284129
4.93488e-05
0.000939221
0.0182695
0.00105878
0.0011987
5.13873e-05
0.00588038
0.00137974
0.0263304
0.00138464
0.000623382
0.00610127
0.00323645
6.23176e-05
0.000452668
0.0319181
0.00672695
0.000774378
0.000724668
0.00808977
0.000134877
0.0040117
2.76903e-05
4.93611e-05
0.000130515
0.00891565
0.000315209
0.000111105
0.00606019
0.00683904
0.00096021
4.03153e-05
0.00455285
0.00166493
0.000118144
4.88948e-05
0.000970643
0.00439303
0.0128414
0.00779334
0.000189959
0.000789106
0.00201209
0.00109194
0.00118355
0.000447687
0.000771625
0.00016809
0.0015685
0.000613616
0.00103702
0.00273355
0.00241672
0.000740896
0.000612971
0.00395442
0.00153436
0.00230021
3.9551e-05
0.0225479
0.000788589
0.0069105
0.000604938
4.5407e-05
0.000930198
0.00304275
0.00385241
8.99065e-05
0.00683539
3.27905e-05
0.00284197
0.000165782
0.00679029
0.000689962
8.68856e-05
0.000887616
0.000235856
0.00102251
0.0216276
0.000523654
0.00673275
0.00673183
0.00313749
0.0162781
0.0024322
4.48821e-05
0.000292545
5.85959e-05
0.00679554
0.0012647
3.5287e-05
0.000652577
0.00614996
0.000170215
5.48123e-05
0.00574892
3.13081e-05
0.0068106
4.76378e-05
0.000145165
0.0355156
0.00106371
0.000208358
0.00673777
5.39864e-05
0.0182576
0.000918833
0.0144435
0.0331888
0.0120467
5.75236e-05
0.000599156
0.000987078
0.00672648
0.00384203
0.00104321
0.000683695
4.23308e-05
0.000306709
0.00478007
0.000560338
0.00371544
0.000928161
0.00055443
0.00149394
0.00119409
0.00675682
0.000824795
0.000627228
0.00127716
0.00113809
0.00165451
0.000160769
0.000693607
5.09868e-05
0.00241997
0.00385811
4.16676e-05
4.69179e-05
0.0183418
0.00019329
4.10888e-05
0.0329004
0.00673154
0.00267727
0.00107479
0.00431658
3.24651e-05
0.00138615
0.000107424
0.00120993
0.00111154
0.00335495
0.00440869
0.000640931
0.000212132
0.00888015
0.00154015
0.00816731
0.00058293
0.000174896
0.00111151
0.000494676
5.68371e-05
0.0078197
0.000486288
0.00558337
0.000647562
0.00210003
0.00682151
5.41723e-05
0.000537511
0.00396358
0.000117834
0.000504314
0.00317279
0.0130583
0.00808765
0.000568618
0.00759741
0.000150552
0.018096
0.000669709
0.000130684
0.0172903
0.00028481
0.000541032
8.35045e-05
0.00075289