/*--------------------------------*- C++ -*----------------------------------*\
| =========                 |                                                 |
| \\      /  F ield         | OpenFOAM: The Open Source CFD Toolbox           |
|  \\    /   O peration     | Version:  v2012                                 |
|   \\  /    A nd           | Website:  www.openfoam.com                      |
|    \\/     M anipulation  |                                                 |
\*---------------------------------------------------------------------------*/
FoamFile
{
    version     2.0;
    format      ascii;
    class       volVectorField;
    location    "600";
    object      U;
}
// * * * * * * * * * * * * * * * * * * * * * * * * * * * * * * * * * * * * * //

dimensions      [0 1 -1 0 0 0 0];


internalField   nonuniform List<vector> 
14479
(
(1.21542 -0.182186 0)
(1.05757 -0.249379 -1.77576e-20)
(1.10177 -0.135825 -2.82196e-20)
(-0.18803 -0.0455782 9.50569e-21)
(0.957519 -0.504322 0)
(-0.228221 -0.0412369 1.31617e-20)
(0.999971 -0.00426687 -5.13902e-21)
(1.03423 -0.00597125 -1.71187e-20)
(1.03445 -0.0678101 0)
(-0.395018 -0.0982915 0)
(0.964275 -0.447674 5.59747e-21)
(-0.19011 -0.0442726 4.60711e-20)
(-0.188464 -0.0364981 -1.54769e-19)
(-0.18797 -0.0359653 1.57823e-19)
(-0.139312 -0.0336256 0)
(-0.109703 -0.0123898 -6.99473e-20)
(1.33797 -0.263106 9.08104e-20)
(0.543285 0.0919746 5.8312e-21)
(0.168602 -0.113641 -2.70966e-19)
(1.34126 0.064861 1.23049e-19)
(1.01347 -0.0220686 0)
(1.03926 -0.11576 5.16838e-21)
(-0.130147 -0.0182527 4.06608e-20)
(1.30725 -0.276326 1.2204e-19)
(1.03421 -0.0677262 3.12528e-21)
(0.732982 0.0816674 5.83575e-20)
(0.930822 -0.328829 -3.39231e-20)
(-0.392418 -0.101136 7.53499e-20)
(1.28764 -0.368212 2.77655e-20)
(-0.135642 -0.0335253 1.68731e-20)
(0.526548 0.0218683 4.92278e-21)
(-0.272281 -0.0796961 0)
(0.146339 -0.113022 3.23602e-19)
(1.03736 -0.0120854 2.39268e-20)
(1.09764 -0.0439783 0)
(1.05093 -8.24593e-05 4.70538e-21)
(0.993436 -0.0209553 7.03738e-21)
(-0.133213 -0.0182152 1.24251e-21)
(1.08586 -0.144026 8.25983e-22)
(0.854975 0.268821 0)
(-0.133333 -0.0327977 1.44047e-19)
(1.08205 -0.143954 0)
(0.867554 -0.107744 3.57876e-20)
(1.13057 -0.0857975 0)
(-0.0808605 -0.0244711 4.43269e-20)
(1.31917 -0.132272 0)
(-0.138031 -0.0250238 0)
(-0.507878 -0.127823 -1.50943e-19)
(1.09198 -0.0660589 2.33956e-20)
(0.712917 0.0968743 -1.44288e-19)
(1.01702 -0.0390998 0)
(0.453287 -0.122792 -1.28095e-19)
(1.13258 -0.489489 0)
(1.30666 -0.227267 -9.00882e-20)
(1.09185 -0.0636625 -2.59036e-20)
(0.984091 -0.0518623 2.38057e-22)
(1.16978 -0.305477 -9.59434e-20)
(-0.374883 -0.0708351 0)
(1.05078 -0.000227621 0)
(1.3414 -0.188578 0)
(1.09255 -0.144474 -5.47236e-21)
(1.06857 -0.0334392 0)
(0.406536 -0.170956 1.25897e-19)
(1.25176 -0.303395 4.47173e-20)
(1.45724 0.152138 -2.16474e-19)
(-0.427803 -0.0625048 0)
(1.19266 -0.0970978 0)
(0.886716 -0.103409 -4.29351e-20)
(0.287695 -0.0630576 7.46633e-20)
(0.549389 -0.12355 0)
(-0.452871 -0.114184 -2.97311e-19)
(1.3669 0.0569977 0)
(-0.0603622 -0.0579067 2.08454e-19)
(0.149897 -0.0651107 -8.55147e-20)
(1.01232 -0.0222838 0)
(1.03061 -0.0679888 -3.88883e-21)
(-0.444587 -0.0980729 2.0573e-19)
(-0.16131 -0.0380732 -4.45483e-20)
(0.0807834 -0.128761 2.56416e-19)
(-0.445281 -0.106352 2.43951e-19)
(0.392918 -0.129928 0)
(1.00233 -0.00292394 7.09382e-23)
(1.19704 -0.0379451 -2.9971e-20)
(1.36126 0.0672853 0)
(1.10116 0.000493749 2.99905e-20)
(1.31177 -0.119362 0)
(1.37556 0.126121 -1.3438e-19)
(1.00839 -0.0343448 -3.96786e-21)
(-0.440106 -0.0979062 -2.37939e-19)
(1.01804 -0.0549644 1.10131e-21)
(-0.432004 -0.0689957 7.37419e-20)
(-0.426263 -0.0635741 4.41648e-20)
(-0.366357 -0.0726621 0)
(-0.101318 -0.0412917 6.26407e-20)
(1.19599 0.000169203 5.87263e-20)
(0.15337 -0.126599 9.05071e-20)
(1.10033 -0.0161984 1.42896e-20)
(-0.436104 -0.0668957 -1.2219e-19)
(1.17796 -0.0360632 0)
(-0.300751 -0.0693962 -5.8911e-20)
(0.616626 0.0331416 0)
(-0.362136 -0.0723027 0)
(1.34162 -0.186483 0)
(1.02126 -0.00480628 0)
(1.18267 -0.0432347 6.17372e-20)
(1.05004 -0.000913978 1.48274e-20)
(1.45642 0.160149 1.76421e-19)
(-0.0508431 -0.0568888 -1.69198e-19)
(1.17154 -0.322714 -3.65679e-21)
(-0.137083 -0.0329864 -2.31766e-19)
(1.1713 -0.0630555 2.06078e-20)
(1.10277 -0.0686924 0)
(0.925003 0.0830572 1.76148e-20)
(1.31174 -0.232091 1.18133e-19)
(0.942434 -0.321189 0)
(0.95034 -0.125562 -6.05671e-20)
(1.02882 -0.0697195 0)
(0.410756 -0.17504 1.69232e-19)
(0.937323 -0.0696552 1.23907e-21)
(1.36469 0.103908 -1.23224e-19)
(1.0951 -0.0401541 1.33427e-20)
(1.00492 -0.0184803 0)
(-0.267214 -0.081335 0)
(1.1294 -0.145657 -2.25213e-20)
(-0.184658 -0.0941692 6.84109e-20)
(1.06659 -0.008139 2.21379e-20)
(1.14801 -0.0306652 3.33318e-20)
(0.975803 -0.0432977 3.6487e-20)
(1.06354 -0.00439353 0)
(-0.377311 -0.0706159 0)
(1.07561 -0.0107609 1.7019e-20)
(1.19129 -0.193717 -1.86539e-19)
(0.194411 -0.0736906 0)
(1.06775 -0.0100647 -2.84497e-20)
(1.34726 -0.0858968 -1.1392e-19)
(1.13027 -0.36972 -4.52649e-21)
(0.706341 -0.580784 1.66019e-20)
(0.964788 -0.0570465 6.08566e-21)
(0.468112 -0.123621 -1.64714e-21)
(-0.192428 -0.0471391 -1.67578e-19)
(1.08093 -0.0370293 3.31428e-20)
(-0.20905 -0.0286977 -1.13818e-19)
(1.1349 -0.0859198 0)
(0.63576 0.298105 4.10064e-20)
(1.24775 -0.292754 8.23833e-20)
(1.09766 0.00308009 -4.94288e-20)
(-0.10185 -0.124519 0)
(1.05977 -0.0559294 1.6796e-20)
(1.19332 -0.179529 0)
(1.0547 -0.11057 -2.08373e-21)
(0.13844 -0.125826 -1.73747e-19)
(1.10428 -0.138446 3.14493e-20)
(1.01398 -0.0242006 4.41723e-22)
(1.33392 -0.261145 -6.45757e-20)
(1.34958 -0.262967 0)
(1.19841 0.0424589 1.47791e-20)
(-0.398144 -0.119071 9.09702e-20)
(0.999804 -0.00331056 -3.07999e-20)
(0.497504 0.00252304 -1.15463e-19)
(0.106246 -0.130169 -1.52548e-19)
(-0.389132 -0.116873 -2.63939e-19)
(0.250194 -0.0665063 -1.22225e-19)
(0.116739 -0.130709 -1.1663e-19)
(1.37802 0.120835 1.62051e-19)
(-0.247927 -0.0803699 1.42507e-19)
(-0.510112 -0.133212 1.33741e-19)
(1.06673 0.000767686 1.38717e-20)
(0.881993 0.0768815 0)
(1.01633 -0.036851 0)
(1.10247 -0.0192691 1.36761e-20)
(1.08169 -0.00919232 -3.98001e-20)
(1.31173 -0.117563 0)
(0.983882 -0.0521024 2.23077e-20)
(1.36496 0.100956 1.59577e-19)
(0.996784 -0.0524689 1.52402e-20)
(1.07626 -0.500543 -3.26451e-20)
(1.00633 -0.031646 9.92019e-22)
(1.11236 -0.016576 -1.2125e-20)
(0.913541 -0.433228 0)
(0.991955 -0.105034 1.6136e-20)
(0.670677 -0.680563 6.93853e-21)
(1.0118 -0.0201362 0)
(0.941101 -0.0721132 0)
(-0.363648 -0.073301 -5.70834e-20)
(1.00707 -0.022931 0)
(1.05994 -0.35798 -2.73766e-20)
(0.874976 -0.101157 -3.02084e-20)
(0.890889 -0.0728644 2.91152e-20)
(0.766684 -0.559373 5.17255e-20)
(0.68902 0.337591 -7.06196e-20)
(1.00504 -0.0212541 -2.84203e-21)
(-0.196916 -0.0610235 4.67338e-20)
(1.18355 -0.0533935 0)
(1 -0.00408386 1.02248e-20)
(-0.21167 -0.0287904 -2.9038e-19)
(0.092951 -0.130505 1.66422e-19)
(0.742657 -0.534425 -5.46535e-20)
(0.0510564 -0.0146436 1.72744e-19)
(1.15295 -0.134874 -7.08235e-21)
(0.996926 -0.0525313 -1.40539e-20)
(0.947615 -0.120309 4.83318e-20)
(1.29634 -0.211748 -1.61342e-19)
(0.711146 -0.12934 -7.24242e-20)
(1.23408 -0.389525 4.17722e-20)
(-0.215123 -0.0295617 2.26625e-19)
(0.948049 -0.112843 1.80425e-20)
(0.968445 -0.0584365 0)
(1.38613 0.0530911 -1.6908e-19)
(1.1119 -0.015656 0)
(1.06772 -0.36374 3.14243e-20)
(-0.124772 -0.106649 9.99519e-20)
(-0.209027 -0.0442865 0)
(0.9724 -0.107368 0)
(0.887712 -0.101395 5.86909e-20)
(1.02031 -0.0389923 -1.9179e-21)
(1.36586 -0.181989 1.0398e-19)
(-0.297897 -0.0704329 -2.62525e-20)
(-0.149787 -0.0282716 0)
(0.993429 -0.0202203 0)
(1.18546 -0.189148 7.15324e-20)
(0.864087 -0.572084 0)
(-0.31812 -0.0988534 -1.72399e-20)
(-0.120257 -0.0607825 0)
(1.21266 -0.0304618 -7.66355e-20)
(0.259753 -0.512998 9.02751e-20)
(-0.227561 -0.0719923 0)
(1.04927 -0.114406 -1.36251e-21)
(1.0981 -0.0703046 0)
(0.774343 0.147589 0)
(1.00803 -0.0331164 3.83423e-21)
(0.960613 -0.0826866 -2.69208e-20)
(1.00054 -0.00485266 -1.90134e-21)
(1.05295 -0.220038 0)
(-0.18332 -0.0348111 -2.84867e-20)
(0.901549 -0.0571313 -5.35983e-20)
(0.948398 -0.109714 2.54901e-20)
(1.1706 -0.31134 -2.3399e-21)
(0.247365 -0.435976 -9.3709e-22)
(0.993048 -0.0183985 -1.53265e-20)
(1.03546 -0.0898436 -3.96811e-21)
(-0.223862 -0.0740412 -8.50283e-20)
(1.36413 -0.162652 5.65632e-20)
(1.1779 -0.0586365 -2.80653e-20)
(0.731216 0.0889686 -1.30336e-19)
(-0.237245 -0.0564082 4.53483e-20)
(-0.108686 -0.108142 -8.99614e-20)
(1.07393 -0.0333135 0)
(1.01834 -0.0557393 0)
(0.149804 -0.0150079 6.66668e-21)
(-0.427388 -0.0556885 -2.48961e-19)
(1.03297 -0.00456231 1.7015e-20)
(1.37691 -0.122245 4.27938e-20)
(1.01276 -0.00241217 -2.29264e-22)
(1.06491 -0.00645874 -1.21737e-20)
(-0.423557 -0.055403 2.09932e-19)
(1.34594 -0.256445 -3.37531e-20)
(0.994512 -0.0255101 1.40928e-20)
(1.29167 -0.376491 9.51235e-20)
(0.72083 0.0555823 0)
(1.3154 -0.270177 -1.31657e-19)
(0.463487 -0.139697 -4.5981e-20)
(0.339951 -0.0714545 2.93163e-20)
(-0.214335 -0.0305562 2.87392e-19)
(1.34633 -0.0908115 1.4036e-19)
(1.00276 -0.0292322 0)
(1.07161 -0.22555 2.66398e-20)
(1.00193 -0.0272812 0)
(-0.137999 -0.0650182 8.80832e-20)
(-0.135402 -0.0540438 -1.83067e-19)
(0.245966 -0.0581195 7.58649e-20)
(-0.0798655 -0.12593 0)
(0.973402 -0.0418878 -4.73773e-20)
(-0.42664 -0.0654124 0)
(0.952662 -0.0414781 0)
(0.995625 -0.108427 5.80317e-21)
(-0.432476 -0.0760265 4.1682e-20)
(-0.0467441 -0.0530646 2.34065e-20)
(1.09396 -0.0357441 -1.52992e-20)
(-0.40941 -0.0790802 2.11217e-19)
(-0.234498 -0.110675 3.04913e-22)
(-0.421394 -0.0640808 -4.12146e-20)
(-0.415827 -0.0750113 0)
(-0.37312 -0.11001 0)
(0.460923 -0.143257 0)
(1.00206 -0.0100499 -8.22658e-22)
(0.994039 -0.0168329 -1.50289e-20)
(0.12228 -0.0641417 -1.34707e-19)
(0.951808 -0.0448235 3.1984e-20)
(-0.0711567 -0.0384205 -8.15805e-20)
(-0.216952 -0.0299037 -2.12612e-19)
(0.94844 0.116907 -3.74254e-20)
(0.716961 0.11777 2.8821e-20)
(1.12198 -0.366026 -5.80749e-23)
(-0.215625 -0.0363257 -5.67763e-20)
(0.985934 -0.0486761 0)
(1.19348 -0.180497 3.08462e-20)
(1.0058 -0.0700046 0)
(0.709403 -0.0650463 -3.11944e-20)
(1.06831 0.00027584 9.41436e-23)
(0.993469 -0.214509 1.02412e-20)
(1.01821 -0.0363904 1.66661e-21)
(-0.315785 -0.0886794 -2.62971e-19)
(1.0736 -0.0310212 -1.10191e-23)
(1.25447 -0.0108136 -1.23412e-19)
(1.18554 -0.187135 -1.0159e-19)
(-0.170306 -0.0324565 -5.69401e-20)
(0.433097 -0.0426194 -1.24331e-19)
(1.23311 -0.385276 0)
(1.12912 -0.0328824 -2.47895e-20)
(1.14482 -0.0244871 1.65508e-20)
(-0.314176 -0.0997089 0)
(0.947903 -0.442636 0)
(1.10418 -0.45002 4.11641e-21)
(1.06209 -0.0603519 -1.58262e-20)
(1.03898 -0.0890314 6.46751e-22)
(0.999728 -0.00428499 8.64312e-21)
(-0.194377 -0.0451501 9.82726e-20)
(1.04206 -0.302315 0)
(1.00624 -0.0306342 1.91685e-21)
(1.01888 -0.0031675 -1.05971e-20)
(0.972547 -0.106514 0)
(0.993031 -0.0150089 1.97952e-20)
(0.962519 -0.0864578 3.06135e-20)
(-0.369192 -0.0556428 0)
(1.37342 -0.243555 0)
(0.672491 0.103389 1.53165e-21)
(0.17951 -0.109957 0)
(0.949979 -0.490823 0)
(-0.377696 -0.086984 0)
(1.04296 -0.0515078 4.12256e-21)
(1.2048 0.0404524 0)
(1.25957 0.0167588 0)
(0.0811037 -0.0147183 -7.81339e-20)
(-0.18188 -0.0348155 9.95084e-20)
(1.36951 -0.239387 3.98879e-20)
(1.02295 -0.00296093 0)
(1.00152 -0.189875 0)
(1.32308 -0.225306 7.12111e-21)
(0.859955 0.271143 4.682e-20)
(1.21819 -0.220951 -2.12572e-20)
(0.171433 -0.101849 0)
(1.18742 -0.104151 0)
(-0.223336 -0.0350929 1.5091e-19)
(1.03597 -0.0126669 0)
(-0.131237 -0.0555462 1.1162e-19)
(1.0706 -0.000937641 -9.05414e-21)
(-0.424517 -0.0657763 0)
(-0.180483 -0.0572411 1.71348e-19)
(1.07172 -0.0020452 1.97263e-20)
(1.22852 -0.211513 -4.53974e-20)
(-0.106301 -0.0407483 -6.93429e-20)
(-0.417306 -0.075526 0)
(1.09338 -0.139508 -6.94933e-21)
(1.01606 -0.0398743 0)
(-0.433228 -0.0759876 0)
(1.00803 -0.0180922 1.00163e-21)
(1.05795 -0.0359151 1.44817e-20)
(-0.328376 -0.0961471 -1.38893e-19)
(1.14819 -0.0305632 0)
(1.02258 -0.0672457 4.22032e-22)
(1.0257 -0.0697624 -2.22713e-22)
(-0.110941 -0.0857945 0)
(-0.305949 -0.0799855 -1.75516e-19)
(1.0281 -0.0677338 0)
(-0.413373 -0.0776927 -1.39039e-19)
(1.20192 -0.0459356 0)
(0.689628 -0.0940844 -3.9245e-20)
(-0.179932 -0.0343591 5.76049e-20)
(-0.38385 -0.0855119 -4.55215e-20)
(0.107231 -0.0387307 1.28036e-19)
(1.42715 -0.093758 0)
(0.0426879 -0.0714735 1.02721e-20)
(1.33298 -0.0772639 1.22654e-19)
(0.729691 -0.934096 0)
(-0.0127486 -0.0394441 2.17801e-19)
(0.430644 -0.0839456 2.86322e-20)
(1.34993 0.0588492 -1.27179e-19)
(0.828249 -0.273315 -2.90175e-20)
(1.24595 -0.348111 5.58857e-20)
(1.00483 -0.0727285 1.19912e-20)
(1.05984 -0.0554268 0)
(1.19943 -0.00269639 -2.27521e-20)
(0.972254 -0.466721 -5.60616e-21)
(0.695884 -0.031907 0)
(0.0295444 -0.0702986 0)
(1.24947 -0.276407 -5.8766e-20)
(1.00725 -0.0148621 -7.20782e-23)
(1.29498 -0.301488 -8.56945e-20)
(0.990211 -0.0180556 -1.85924e-20)
(1.38385 -0.161551 1.28281e-20)
(1.23893 -0.205442 1.45144e-20)
(1.2241 -0.0493314 4.16936e-20)
(1.03768 0.171135 -5.45097e-21)
(-0.165925 -0.0312048 -8.87061e-20)
(0.614171 -0.125177 -2.34503e-19)
(-0.181325 -0.0346518 1.76053e-19)
(0.688762 -0.726881 -9.57963e-21)
(0.469871 -1.19761 0)
(1.04099 -0.0485753 -3.54496e-21)
(1.00195 -0.0063915 -2.04119e-21)
(0.3004 -0.0710996 1.18549e-19)
(-0.424301 -0.0652807 -2.14227e-20)
(-0.133204 -0.0513324 1.03371e-19)
(1.1846 -0.128107 3.14535e-20)
(-0.0867938 -0.0311621 -2.49023e-19)
(1.14147 -0.0195757 -3.00378e-20)
(-0.14984 -0.0287748 -1.24352e-19)
(-0.318529 -0.0873372 2.134e-19)
(0.726102 0.121663 0)
(1.05724 -0.0344381 0)
(-0.398713 -0.0896108 0)
(-0.461137 -0.127023 1.17069e-19)
(1.00722 -0.0248458 1.05025e-21)
(1.00231 -0.00755632 1.3233e-21)
(0.0700066 0.203467 1.92879e-19)
(1.03165 -0.010854 -9.64594e-21)
(1.04143 0.181469 1.12957e-20)
(1.13262 -0.478418 0)
(1.00177 -0.00284741 -6.99828e-23)
(1.10086 -0.201863 5.46408e-21)
(1.12198 -0.141711 -3.55313e-20)
(1.05022 -0.245665 1.85483e-20)
(0.771903 -0.0670825 1.38309e-19)
(1.39874 -0.10527 -1.00565e-19)
(0.152319 -0.111756 0)
(1.04983 -0.233455 5.73063e-21)
(-0.319359 -0.0984841 1.30841e-19)
(1.01267 -0.0264843 -2.55525e-23)
(1.00516 -0.186253 -6.87944e-21)
(0.992123 0.317041 -7.72046e-21)
(0.528719 -0.227394 0)
(1.24965 -0.288954 -1.08537e-19)
(-0.156224 -0.0234709 7.31999e-21)
(1.09196 -0.0894966 3.74827e-20)
(1.05685 -0.23464 -3.24098e-21)
(-0.199878 -0.0853075 0)
(1.25174 -0.00365303 1.4411e-19)
(-0.148794 -0.00160776 0)
(0.679894 0.101291 -1.81532e-21)
(1.30412 -0.292718 -1.16919e-19)
(-0.424365 -0.0639753 -9.03384e-20)
(-0.390262 -0.0868796 0)
(-0.192842 -0.0396523 0)
(1.01297 -0.0266279 2.3059e-23)
(1.31668 -0.225479 0)
(1.15592 -0.141881 0)
(0.751422 0.11112 -5.32729e-20)
(-0.128416 -0.0522191 -8.97065e-20)
(1.1681 -0.0588693 -2.72794e-20)
(1.10608 -0.109216 -1.48442e-20)
(0.994553 -0.0123651 0)
(0.711168 -0.682103 1.18549e-20)
(1.37796 -0.140405 1.25333e-19)
(1.36328 -0.151798 -2.43597e-20)
(1.00014 -0.00155346 -6.15768e-21)
(1.32637 -0.262048 3.7879e-20)
(1.06909 -0.0359013 0)
(1.37888 -0.129588 0)
(0.0577694 -0.0374901 1.7156e-19)
(-0.195078 -0.0938916 0)
(1.16882 0.00823725 -2.33701e-20)
(0.977591 -0.0491454 8.57064e-21)
(0.537822 -0.0390147 -1.22892e-19)
(1.12532 -0.430815 -2.38837e-20)
(0.716121 -0.0766833 -5.13871e-20)
(-0.164682 -0.0314293 9.99762e-20)
(1.1158 -0.141166 0)
(-0.0574178 -0.0546862 0)
(-0.184207 -0.0351933 -2.78982e-20)
(1.06496 -0.00615246 -1.30173e-22)
(1.04992 -0.000822192 -2.41343e-20)
(1.01183 -0.00224474 -1.78365e-21)
(-0.176257 -0.0350816 0)
(0.0022662 -0.122345 1.20285e-19)
(-0.20966 -0.031705 1.76356e-19)
(0.318037 -0.478403 -2.26145e-19)
(-0.21889 -0.0912743 3.76264e-20)
(-0.167273 -0.0319437 0)
(0.839939 -0.256795 3.06888e-20)
(1.313 -0.290189 1.47851e-19)
(1.05128 -0.108616 0)
(-0.0641164 -0.039 9.73202e-20)
(1.27575 0.0480061 4.6441e-20)
(0.616495 -0.407727 -1.58589e-19)
(1.13952 -0.0483048 -4.68719e-20)
(0.741648 0.114704 0)
(1.05383 -0.0383074 5.18743e-21)
(0.236001 -0.0541176 -7.99552e-20)
(0.729232 0.33442 3.96655e-20)
(-0.219642 -0.0503044 0)
(0.0291449 -0.0346813 1.02634e-19)
(1.00212 -0.0140674 -7.52249e-21)
(1.03053 -0.0111341 0)
(-0.312458 -0.0703037 -6.26863e-20)
(-0.143216 -0.0249321 -5.61185e-20)
(1.08119 -0.0338157 1.12998e-20)
(1.21649 -0.185405 -2.17454e-20)
(-0.204206 -0.0531392 8.78462e-20)
(1.46132 -0.0976618 8.01694e-20)
(1.15957 -0.0895809 -5.69495e-20)
(0.896556 -0.0705866 1.80905e-21)
(1.46443 -0.100792 -5.38364e-21)
(1.14328 -0.133931 -2.27846e-20)
(0.986089 -0.0484502 -2.16614e-20)
(-0.185907 -0.0410664 -8.24959e-20)
(-0.381678 -0.0552345 0)
(0.145898 -0.128445 -1.74705e-19)
(1.22303 -0.0475005 0)
(1.09599 -0.0382078 3.18906e-20)
(-0.16558 -0.0382855 7.03264e-20)
(1.06004 -0.220806 -1.19269e-20)
(1.32333 -0.0682508 0)
(1.19471 -0.000649334 0)
(-0.409213 -0.0790545 1.65734e-19)
(1.05885 -0.0260746 9.55577e-21)
(1.0051 -0.0195522 -1.15427e-21)
(1.00205 -0.0106253 -1.30243e-22)
(1.00252 -0.0345574 -1.92963e-21)
(-0.51852 -0.118109 -4.45195e-20)
(1.2411 -0.318392 0)
(0.368529 -0.0468798 -1.69702e-19)
(-0.207106 -0.0897911 0)
(0.467265 -0.045417 2.655e-19)
(-0.0797759 -0.0304283 2.57404e-19)
(-0.228086 -0.0518833 0)
(-0.206717 -0.084071 0)
(1.07739 -0.0134919 8.71505e-21)
(1.16513 0.00698793 0)
(0.575276 -0.121605 6.01053e-20)
(-0.154704 -0.0402924 -1.49321e-19)
(0.995032 -0.0157675 0)
(1.25055 -0.31356 0)
(0.762917 -0.0915819 7.48406e-20)
(0.0367184 -0.0361653 -1.94163e-19)
(1.25529 -0.0112491 -5.64728e-20)
(1.34257 0.0728333 0)
(1.09857 -0.472475 -4.02787e-20)
(-0.390787 -0.0757995 3.52202e-19)
(0.977361 0.298066 0)
(0.054718 -0.0518768 1.57092e-19)
(-0.211557 -0.0317773 -1.38144e-19)
(-0.0107222 -0.0416879 -1.87361e-19)
(1.21657 0.0287627 -2.55979e-20)
(-0.497414 -0.137451 -3.87733e-20)
(1.06224 -0.0598257 1.92782e-22)
(0.989788 -0.0181082 -2.14725e-20)
(0.189566 -0.105093 0)
(0.994041 -0.0130233 -3.68894e-20)
(1.09591 -0.0893442 0)
(1.2168 0.0214129 5.0643e-20)
(1.22333 -0.0629225 -9.90257e-20)
(1.09406 -0.509153 2.92082e-20)
(1.04747 -0.0196654 1.5384e-20)
(0.989635 -0.0196638 4.12069e-20)
(1.29239 -0.371102 -3.24048e-20)
(1.00593 -0.0705368 1.01746e-20)
(-0.343815 -0.060374 -8.8524e-20)
(-0.170905 -0.0327817 1.42965e-19)
(-0.211717 -0.0576668 2.02764e-19)
(-0.168876 -0.0324433 -9.55496e-20)
(1.06658 -0.241486 -2.6625e-20)
(-0.235492 -0.0988004 1.55381e-19)
(0.855431 -0.0392564 2.44621e-20)
(-0.171333 -0.0110821 0)
(1.07292 -0.0317358 2.29467e-20)
(1.33784 -0.260087 6.26247e-20)
(0.86272 -0.266414 -1.28488e-20)
(1.05702 -0.0259451 -1.41967e-20)
(1.08211 -0.0361572 -1.32023e-20)
(1.17671 -0.0609922 -3.03412e-20)
(0.855233 -0.0407502 0)
(1.04882 -0.019893 -2.59932e-20)
(-0.233038 -0.0406761 -9.10162e-20)
(0.104145 0.192195 1.14182e-21)
(1.13729 -0.130996 7.55191e-20)
(-0.212615 -0.04363 9.16746e-20)
(1.46346 0.199958 6.55633e-20)
(1.07756 -0.00457951 0)
(0.934061 -0.165208 7.60814e-20)
(1.30539 -0.255316 1.16378e-21)
(-0.192567 -0.0401565 0)
(1.07951 -0.00664166 -3.78874e-20)
(1.13701 -0.266382 0)
(1.16234 -0.0068921 -1.94437e-20)
(-0.0114791 -0.0387443 -9.92479e-20)
(1.07024 -0.0335352 -1.41158e-20)
(1.0505 -0.0176784 -1.68838e-20)
(-0.17811 -0.0621557 0)
(-0.38607 -0.0862768 0)
(-0.496334 -0.14021 -4.20315e-20)
(0.718004 0.0600413 -1.93439e-20)
(1.00188 -0.00713866 0)
(1.00008 -0.0411384 0)
(0.431975 -0.0924805 -7.06287e-20)
(-0.199364 -0.0370848 0)
(0.762649 -0.12275 0)
(1.02349 -0.0105436 -3.56384e-21)
(0.994329 -0.0176372 0)
(0.976352 -0.132299 3.02303e-20)
(0.978566 -0.0445674 -2.4343e-20)
(0.037331 -0.126613 0)
(1.00328 -0.0293296 -1.06193e-20)
(0.572046 -0.956116 4.05165e-21)
(0.27874 -0.0604614 7.02225e-20)
(0.269763 -0.126077 -6.02366e-20)
(1.0662 -0.00832271 1.28894e-20)
(-0.199995 -0.0378426 6.26271e-20)
(-0.226248 -0.0994446 -1.18796e-19)
(0.956556 -0.0769432 3.26302e-20)
(1.12673 -0.319956 1.12786e-20)
(0.983093 -0.079024 0)
(-0.226719 -0.0798074 1.72279e-19)
(1.09435 -0.262798 0)
(1.01372 -0.0375512 -3.11734e-21)
(1.00527 -0.0281638 -8.46321e-21)
(1.00013 -0.0414527 -5.46154e-21)
(-0.384306 -0.0869261 0)
(0.554625 -0.402261 -9.69015e-20)
(0.124096 -0.130382 1.40633e-19)
(0.987776 -0.0456073 -4.67671e-21)
(1.05123 -0.0196819 1.01331e-20)
(1.26347 0.0116894 3.72437e-20)
(1.20788 0.0428574 -5.97199e-20)
(1.15426 -0.0920354 5.79578e-20)
(0.0227303 -0.126767 -8.4168e-20)
(-0.526126 -0.12072 3.35466e-20)
(1.05582 -0.0380168 0)
(1.00998 -0.026194 -8.85263e-22)
(1.18916 0.00335073 8.84207e-20)
(-0.196163 -0.0570095 -1.644e-19)
(1.27417 -0.126206 1.0026e-19)
(1.20195 -0.0298617 0)
(1.00184 -0.00696137 3.71799e-21)
(1.28993 -0.363877 7.17158e-20)
(1.07847 -0.264738 -1.16961e-21)
(1.00934 -0.0257992 2.29888e-22)
(1.04934 -0.00999453 0)
(1.47356 0.186483 -1.09995e-19)
(1.06908 -0.378199 -4.97708e-21)
(0.9944 -0.0250004 8.93609e-21)
(0.598994 -0.201525 0)
(1.33765 -0.268436 0)
(1.00845 -0.025865 -3.22795e-21)
(0.537815 -0.119041 0)
(-0.393115 -0.0760316 -3.18713e-19)
(1.07763 -0.00433529 1.0908e-20)
(0.985753 -0.139061 -1.03511e-20)
(1.01028 -0.084098 0)
(1.20763 -0.0227693 3.59564e-20)
(-0.0235343 -0.038766 1.385e-20)
(0.0729791 -0.0393582 1.74742e-19)
(1.36981 0.130784 -1.04682e-19)
(1.01078 -0.0259696 -1.04733e-21)
(-0.230923 -0.0773521 -9.63679e-20)
(-0.452339 -0.117338 1.42983e-19)
(0.384272 -0.113048 8.32035e-20)
(-0.0242805 -0.121747 -2.48044e-20)
(1.03569 -0.29904 0)
(0.982247 -0.0267369 2.11299e-20)
(1.14185 -0.0190879 0)
(0.687813 0.113554 -2.73147e-20)
(1.02288 -0.00412902 6.58268e-21)
(1.08222 -0.0321987 1.36679e-20)
(-0.208812 -0.0794846 4.85151e-20)
(-0.0853069 -0.0393059 -5.66061e-20)
(1.13217 -0.0380224 3.08349e-20)
(1.00818 -0.0873887 0)
(0.622347 -0.621538 -3.26512e-21)
(0.114756 -0.0936318 0)
(1.01025 -0.0181263 3.74313e-22)
(1.02292 -0.00996536 0)
(1.0599 -0.172071 0)
(-0.301123 -0.0800621 1.50091e-19)
(-0.13894 -0.033256 0)
(0.869537 -0.894602 4.75078e-20)
(0.657447 0.216357 1.17656e-19)
(-0.0162605 -0.111796 -2.43043e-20)
(0.869521 -0.167404 0)
(-0.360953 -0.0721844 3.25312e-20)
(1.27493 0.0456571 4.89208e-20)
(1.03849 -0.0495151 3.64219e-21)
(1.16469 -0.00163697 -5.87082e-21)
(-0.427264 -0.0551212 0)
(1.01345 -0.0372423 1.5001e-21)
(-0.424401 -0.0548761 0)
(1.1318 -0.148979 0)
(-0.2215 -0.112401 -6.07129e-20)
(-0.391913 -0.0876563 0)
(0.855154 -0.275023 3.75309e-20)
(0.629729 -0.127072 -1.15067e-19)
(0.985997 -0.0783882 0)
(1.08793 -0.26199 0)
(0.00830197 -0.10016 -8.12552e-20)
(1.44932 0.213915 0)
(-0.156769 -0.0242564 -7.4771e-21)
(0.147897 -0.0627803 0)
(-0.00234048 -0.110673 -2.10845e-20)
(0.110691 -0.0518644 -2.00615e-20)
(1.01362 -0.185477 -2.09332e-21)
(1.28028 -0.351215 8.31632e-20)
(-0.245244 -0.109575 -7.24572e-20)
(-0.0858142 -0.0829448 -2.0334e-19)
(0.463901 0.00632166 -6.87658e-20)
(1.04006 -0.0347678 1.44489e-20)
(1.25708 -0.352109 0)
(0.161091 -0.107388 0)
(1.30384 -0.295646 1.57566e-19)
(0.132171 -0.0957957 1.41989e-19)
(1.13812 -0.015 -1.44094e-20)
(0.863802 -0.290887 0)
(1.01446 -0.0265581 -1.1706e-21)
(0.910696 -0.0875386 -5.21739e-22)
(-0.47334 -0.146758 -1.96707e-19)
(-0.427387 -0.0577661 -1.62095e-19)
(-0.439025 -0.0868649 5.36942e-20)
(1.08262 -0.0260479 0)
(0.969077 -0.0586252 -1.99707e-20)
(-0.423585 -0.0563096 2.77837e-19)
(-0.388837 -0.0861003 8.73577e-20)
(1.41809 -0.10603 0)
(0.758649 -0.622611 0)
(-0.229276 -0.0645468 4.0543e-20)
(0.975136 -0.133726 -1.3663e-20)
(0.0295504 -0.123416 0)
(0.777848 -0.142062 2.89749e-20)
(0.937961 -0.06023 -4.91785e-20)
(0.973093 0.0924344 -6.01256e-21)
(-0.387745 -0.0814869 6.72842e-20)
(0.0676716 -0.0535658 -2.18413e-22)
(1.0283 -0.023319 5.30763e-21)
(1.04159 -0.0875007 0)
(-0.132385 -0.0147177 0)
(1.00032 -0.00342422 3.56429e-22)
(1.03681 -0.0336492 -7.51339e-21)
(1.04826 -0.00914535 0)
(1.07757 -0.00887803 -1.81933e-20)
(0.767798 -0.251693 0)
(0.694966 -0.0799262 -1.05259e-19)
(0.982024 -0.145183 -1.19018e-20)
(1.00589 -0.0220236 -2.83446e-21)
(1.01462 -0.0559656 0)
(1.05611 -0.0240591 3.06641e-20)
(1.00016 -0.00314808 -2.01792e-20)
(1.00011 -0.00236158 2.43253e-21)
(0.937062 -0.0683189 -3.11727e-20)
(-0.0806075 -0.0308106 -1.389e-20)
(1.50138 0.0092637 2.99298e-21)
(-0.13454 -0.0331363 1.05929e-19)
(-0.209332 -0.091832 -1.52716e-19)
(-0.212075 -0.05414 -4.80948e-20)
(1.10634 -0.455498 4.07693e-20)
(1.0555 -0.212602 -1.91641e-21)
(1.02488 -0.0688701 9.36087e-22)
(1.06088 -0.121957 0)
(0.750808 -0.242985 -8.7043e-20)
(-0.357798 -0.0722433 0)
(1.15263 -0.0137939 7.32174e-20)
(-0.371526 -0.0877592 -1.70785e-19)
(0.80887 -0.0127569 -7.70369e-20)
(1.16464 -0.00013356 4.36256e-20)
(1.27506 -0.376847 1.90271e-19)
(0.822829 -0.00190462 1.03507e-19)
(-0.412232 -0.0776101 -3.54036e-20)
(-0.241872 -0.109943 0)
(1.03609 -0.0469525 0)
(0.202385 -0.0473264 0)
(1.00701 -0.0262523 -4.21692e-21)
(-0.377697 -0.0865249 1.94242e-19)
(-0.434834 -0.0880676 3.06283e-20)
(1.38268 -0.164035 2.52255e-20)
(0.69287 0.139313 2.40376e-19)
(-0.420804 -0.0702229 0)
(-0.426663 -0.0646625 0)
(1.20601 -0.187062 0)
(1.01598 -0.0547072 2.99983e-21)
(-0.430322 -0.0770507 3.87948e-20)
(-0.0879458 -0.0308083 2.98336e-20)
(-0.219549 -0.057816 -2.328e-19)
(0.941178 -0.0757287 -4.17536e-20)
(-0.42857 -0.0605267 -2.05784e-19)
(0.185632 -0.0626741 0)
(0.987744 -0.0453442 1.53199e-20)
(0.230291 0.108868 0)
(1.50504 0.0196917 4.37069e-20)
(1.02703 -0.0118216 2.70962e-21)
(1.07606 -0.261273 1.57515e-20)
(-0.154621 -0.038443 4.1566e-20)
(1.46833 -0.0795755 7.62762e-21)
(1.09528 -0.137004 -1.45678e-20)
(-0.0344684 -0.127718 4.9648e-20)
(1.0078 -0.0163197 0)
(0.81749 0.0625449 -2.27688e-20)
(-0.429747 -0.0775406 0)
(-0.248819 -0.0517637 0)
(0.287453 -0.0677467 0)
(0.944727 -0.889947 -6.33886e-20)
(-0.134235 -0.0325767 -4.28359e-20)
(1.34468 -0.266243 -6.68059e-20)
(0.896077 -0.574997 -3.6919e-21)
(1.26236 -0.304851 -5.77232e-20)
(0.128351 -0.128085 1.32712e-19)
(0.750518 -0.223794 -4.9214e-20)
(1.32199 -0.0654891 0)
(1.32827 -0.182819 -4.39625e-20)
(1.07205 -0.0280954 -1.80032e-20)
(-0.374045 -0.0810475 3.76072e-20)
(0.785819 -0.0527029 0)
(1.02814 -0.0124064 -1.65523e-22)
(-0.428227 -0.0615501 0)
(-0.125488 -0.0130226 0)
(-0.133873 -0.0320698 -5.20868e-20)
(0.127691 -0.101872 -1.50587e-19)
(1.04373 -0.0882134 0)
(1.06576 -0.223591 1.27547e-20)
(-0.234086 -0.0571689 -3.95729e-20)
(-0.301981 -0.0720908 1.01283e-19)
(0.756258 -0.343529 1.3748e-20)
(-0.163452 -0.0313954 1.45389e-20)
(1.24297 -0.157708 -9.57454e-20)
(0.171839 -0.0143287 -9.6579e-21)
(0.913713 -0.0881173 -5.61136e-20)
(-0.229171 -0.0426443 0)
(0.900457 -0.0561998 -8.86145e-20)
(-0.399809 -0.120591 1.71293e-19)
(0.812029 -0.00109181 8.67706e-22)
(-0.316007 -0.0520104 -1.72145e-19)
(1.40728 -0.0935349 0)
(0.944537 -0.0740715 3.93281e-20)
(1.15295 -0.263058 -4.07681e-21)
(1.03798 -0.0469514 -6.4318e-21)
(1.32836 -0.118382 -4.0589e-21)
(0.12689 -0.0731159 0)
(0.308278 -0.203906 -2.79743e-19)
(0.163823 -0.0734391 7.22268e-20)
(-0.188488 -0.092812 -7.12906e-20)
(1.35737 -0.19003 -5.88617e-20)
(-0.0820472 -0.0318966 -6.72839e-21)
(0.922279 -0.0992869 0)
(-0.24412 -0.0640498 0)
(1.01019 -0.607551 -8.93392e-20)
(-0.364324 -0.065204 8.95788e-20)
(1.08033 0.000449678 2.14827e-20)
(0.877105 -0.164086 6.68445e-20)
(1.32235 -0.190694 8.50822e-20)
(-0.432789 -0.0765903 0)
(1.05436 -0.107365 2.14241e-21)
(0.145394 -0.0510136 3.86508e-20)
(0.46233 0.0615426 0)
(1.02563 -0.0113139 -1.37102e-20)
(1.24102 -0.219929 -7.97015e-20)
(0.691591 -0.131635 2.09109e-19)
(1.39949 -0.10936 -2.53258e-20)
(0.418722 -0.125417 -6.4569e-20)
(-0.162838 -0.0310776 0)
(-0.158021 -0.0399522 1.86278e-19)
(0.971208 -0.0603187 4.83706e-20)
(-0.288853 -0.0730383 1.1291e-19)
(1.16333 -0.0601198 -2.41629e-20)
(1.03006 -0.0214378 5.2936e-21)
(1.20888 -0.213357 -3.95981e-20)
(1.08167 -0.0091104 3.25117e-20)
(0.98501 -0.174674 -1.33871e-20)
(1.0877 -0.0953166 1.72534e-20)
(-0.435585 -0.077945 0)
(1.18396 -0.0452729 -7.46055e-20)
(-0.269883 -0.0667088 -4.74261e-20)
(1.0845 -0.0297265 0)
(1.02492 -0.0113126 8.14132e-21)
(1.03544 -0.0342149 3.58078e-21)
(1.04672 -0.036431 9.35705e-21)
(-0.149678 -0.023983 -1.16249e-19)
(-0.380232 -0.0777368 -1.4244e-19)
(0.581093 -0.0275381 2.52366e-19)
(-0.311857 -0.0719392 9.41218e-20)
(-0.377888 -0.0772081 7.12427e-20)
(0.526476 -0.12071 -6.41109e-20)
(1.17989 -0.2474 0)
(0.139847 -0.129486 0)
(0.0416456 -0.0338486 -2.15519e-19)
(0.0558746 -0.00894253 -3.65755e-20)
(-0.426409 -0.069842 -7.72861e-20)
(1.28595 -0.370293 -8.47415e-20)
(-0.366248 -0.0833632 0)
(0.911434 -0.227723 -2.83983e-20)
(0.980676 -0.0452294 0)
(1.0428 -0.0647693 7.32516e-21)
(1.01269 -0.0548719 0)
(0.920591 -0.435557 0)
(1.36132 -0.0245335 -1.2913e-19)
(1.07552 -0.010864 0)
(1.25486 0.0754365 0)
(1.24029 -0.161148 1.00275e-21)
(0.768889 -0.326203 0)
(-0.104149 -0.0831001 6.24139e-21)
(1.07953 -0.00684733 0)
(1.00033 -0.00328221 3.49757e-21)
(1.32943 -0.127616 -1.27055e-19)
(-0.366582 -0.0764677 0)
(-0.156211 -0.113043 -1.30853e-19)
(1.19674 -0.0379429 -3.27433e-20)
(-0.129046 -0.0319156 0)
(1.01817 -0.0019264 1.09233e-20)
(1.36705 -0.152065 -1.52606e-19)
(1.00672 -0.081697 0)
(1.05797 -0.115749 0)
(1.00367 -0.0282895 2.81298e-21)
(1.10245 -0.102589 -2.269e-20)
(1.21361 -0.174134 1.83887e-20)
(0.754577 -0.128394 2.78546e-21)
(0.0432897 -0.0987083 0)
(-0.405444 -0.0807828 -1.90207e-19)
(0.734054 -0.0622958 -1.23535e-19)
(1.01178 -0.0265866 0)
(0.88782 -0.425318 0)
(-0.123898 -0.0316578 0)
(1.06888 -0.000467128 -7.35906e-21)
(0.995879 -0.010901 -1.54983e-20)
(0.603994 -0.181302 0)
(0.0445946 -0.0777387 0)
(-0.408387 -0.0753816 -2.36912e-19)
(0.993848 -0.141476 -7.34122e-21)
(0.719757 0.42367 3.69509e-20)
(-0.396552 -0.0842794 0)
(1.16314 -0.551305 -1.45113e-20)
(1.02069 -0.00513164 0)
(0.992378 -0.0151323 -3.72301e-23)
(-0.00397567 -0.0349464 0)
(1.34537 -0.265636 -3.57669e-20)
(-0.178436 -0.0425336 1.07942e-22)
(0.924813 -0.176846 -4.3789e-20)
(-0.199677 -0.0476866 0)
(1.46025 0.210451 7.02089e-20)
(1.33473 -0.100673 1.85399e-19)
(1.06206 -0.00576747 -1.78119e-20)
(1.19219 -0.473668 4.43107e-20)
(-0.291974 -0.0922272 1.22821e-19)
(0.71433 -0.0983694 -3.0874e-19)
(0.466621 -0.123515 7.03837e-20)
(-0.152799 -0.114273 5.74024e-20)
(0.54934 -0.428927 -3.17806e-22)
(0.973625 -0.11782 1.2613e-20)
(0.0830362 0.0350101 0)
(1.00022 -0.00061532 0)