/*--------------------------------*- C++ -*----------------------------------*\
| =========                 |                                                 |
| \\      /  F ield         | OpenFOAM: The Open Source CFD Toolbox           |
|  \\    /   O peration     | Version:  v2012                                 |
|   \\  /    A nd           | Website:  www.openfoam.com                      |
|    \\/     M anipulation  |                                                 |
\*---------------------------------------------------------------------------*/
FoamFile
{
    version     2.0;
    format      ascii;
    class       volVectorField;
    location    "600";
    object      U_0;
}
// * * * * * * * * * * * * * * * * * * * * * * * * * * * * * * * * * * * * * //

dimensions      [0 1 -1 0 0 0 0];


internalField   nonuniform List<vector> 
14479
(
(1.21557 -0.182507 0)
(1.05764 -0.249709 -1.76768e-20)
(1.10179 -0.135834 -2.81685e-20)
(-0.188245 -0.0457293 9.49253e-21)
(0.957555 -0.504783 0)
(-0.228363 -0.0410349 1.31519e-20)
(0.999972 -0.00425506 -5.12431e-21)
(1.03423 -0.00597155 -1.70836e-20)
(1.03444 -0.0678017 0)
(-0.395303 -0.0973488 0)
(0.963665 -0.44916 5.54328e-21)
(-0.190326 -0.0444275 4.60048e-20)
(-0.188608 -0.0365427 -1.54575e-19)
(-0.188108 -0.036006 1.57625e-19)
(-0.139338 -0.0336899 0)
(-0.109733 -0.0123486 -6.97441e-20)
(1.33808 -0.26337 9.07889e-20)
(0.543281 0.0919812 5.81082e-21)
(0.168234 -0.113956 -2.70989e-19)
(1.34095 0.0647088 1.22884e-19)
(1.01347 -0.0220718 0)
(1.03926 -0.115786 5.12159e-21)
(-0.130203 -0.0183909 4.05526e-20)
(1.30739 -0.276513 1.21937e-19)
(1.03422 -0.0677102 3.10227e-21)
(0.733168 0.0814374 5.82766e-20)
(0.930859 -0.328781 -3.39878e-20)
(-0.392717 -0.100209 7.52273e-20)
(1.2877 -0.36809 2.77103e-20)
(-0.135671 -0.0335948 1.68471e-20)
(0.527761 0.0218916 4.99172e-21)
(-0.272782 -0.07997 0)
(0.145941 -0.11332 3.236e-19)
(1.03736 -0.0120874 2.38784e-20)
(1.09765 -0.0439572 0)
(1.05093 -8.3845e-05 4.69767e-21)
(0.993435 -0.0209554 7.02994e-21)
(-0.133252 -0.0182197 1.23885e-21)
(1.08588 -0.14404 8.24382e-22)
(0.85496 0.266734 0)
(-0.133332 -0.0328598 1.43797e-19)
(1.08209 -0.143941 0)
(0.867696 -0.107758 3.57689e-20)
(1.13056 -0.0858262 0)
(-0.080707 -0.0250509 4.41618e-20)
(1.31925 -0.132577 0)
(-0.137923 -0.0249911 0)
(-0.505461 -0.12806 -1.50744e-19)
(1.09202 -0.066086 2.33545e-20)
(0.712821 0.0969157 -1.44091e-19)
(1.01702 -0.0391157 0)
(0.453266 -0.122813 -1.28136e-19)
(1.13259 -0.489607 0)
(1.30648 -0.228074 -8.99745e-20)
(1.09188 -0.0637188 -2.58583e-20)
(0.984082 -0.0518872 2.3915e-22)
(1.16959 -0.30515 -9.53716e-20)
(-0.375151 -0.0705368 0)
(1.05078 -0.000228423 0)
(1.34172 -0.188597 0)
(1.09256 -0.144499 -5.46143e-21)
(1.06857 -0.0334366 0)
(0.406422 -0.170974 1.25811e-19)
(1.25169 -0.30334 4.46273e-20)
(1.45772 0.15271 -2.1618e-19)
(-0.428256 -0.0625002 0)
(1.19272 -0.0971197 0)
(0.886698 -0.10336 -4.29027e-20)
(0.287228 -0.0630837 7.45644e-20)
(0.549355 -0.123819 0)
(-0.451993 -0.112857 -2.96978e-19)
(1.3668 0.0576567 0)
(-0.0605885 -0.0581719 2.08263e-19)
(0.149548 -0.0651457 -8.5349e-20)
(1.01232 -0.0222873 0)
(1.03064 -0.0679561 -3.85634e-21)
(-0.443845 -0.0968597 2.05353e-19)
(-0.161424 -0.0381462 -4.44911e-20)
(0.0803842 -0.128724 2.56428e-19)
(-0.444336 -0.105081 2.43598e-19)
(0.392301 -0.129943 0)
(1.00233 -0.00292268 6.52001e-23)
(1.19704 -0.037907 -2.99406e-20)
(1.36109 0.0673706 0)
(1.10116 0.00049591 2.99067e-20)
(1.31181 -0.119632 0)
(1.37511 0.126147 -1.34176e-19)
(1.00839 -0.0343363 -3.96804e-21)
(-0.439237 -0.0967104 -2.3749e-19)
(1.01804 -0.0549791 1.10634e-21)
(-0.432069 -0.0682314 7.36094e-20)
(-0.42671 -0.0635636 4.41187e-20)
(-0.366983 -0.072786 0)
(-0.101421 -0.0414466 6.25634e-20)
(1.196 0.000123364 5.86758e-20)
(0.152968 -0.12682 9.05238e-20)
(1.10033 -0.0162054 1.42705e-20)
(-0.436134 -0.0662423 -1.21951e-19)
(1.17796 -0.0360472 0)
(-0.301032 -0.0686834 -5.8849e-20)
(0.617277 0.0330491 0)
(-0.36241 -0.0719923 0)
(1.34189 -0.186602 0)
(1.02127 -0.00480742 0)
(1.18268 -0.0431849 6.16781e-20)
(1.05004 -0.000916804 1.48028e-20)
(1.45691 0.161043 1.76203e-19)
(-0.0510525 -0.0571652 -1.69057e-19)
(1.17139 -0.323021 -3.65026e-21)
(-0.137089 -0.0330451 -2.31385e-19)
(1.17131 -0.0630183 2.05853e-20)
(1.10276 -0.0684953 0)
(0.925022 0.0831254 1.76196e-20)
(1.31182 -0.232831 1.17983e-19)
(0.942348 -0.321389 0)
(0.950356 -0.125415 -6.05342e-20)
(1.02883 -0.0697341 0)
(0.410901 -0.17503 1.6915e-19)
(0.937257 -0.069541 1.23833e-21)
(1.36432 0.104246 -1.23073e-19)
(1.09511 -0.0401494 1.33205e-20)
(1.00492 -0.0184763 0)
(-0.267727 -0.0816101 0)
(1.12942 -0.145609 -2.24854e-20)
(-0.185107 -0.094432 6.8401e-20)
(1.0666 -0.00814272 2.21022e-20)
(1.14802 -0.0306366 3.31833e-20)
(0.975805 -0.043307 3.64517e-20)
(1.06355 -0.00439798 0)
(-0.377592 -0.0703502 0)
(1.07562 -0.010763 1.69919e-20)
(1.19145 -0.193706 -1.86578e-19)
(0.194009 -0.0737304 0)
(1.06775 -0.0100635 -2.84036e-20)
(1.34728 -0.085592 -1.13842e-19)
(1.13011 -0.368797 -4.51088e-21)
(0.707671 -0.580874 1.69857e-20)
(0.964767 -0.0570601 6.07946e-21)
(0.468122 -0.123622 -1.64561e-21)
(-0.19264 -0.0472702 -1.67327e-19)
(1.08094 -0.0370325 3.30857e-20)
(-0.209578 -0.028831 -1.13714e-19)
(1.13486 -0.0859139 0)
(0.633746 0.307345 4.15873e-20)
(1.24781 -0.292707 8.21738e-20)
(1.09766 0.00308271 -4.93204e-20)
(-0.102349 -0.124615 0)
(1.05977 -0.05594 1.67602e-20)
(1.19329 -0.179657 0)
(1.05475 -0.110589 -2.07635e-21)
(0.138022 -0.126081 -1.73777e-19)
(1.10428 -0.138423 3.13971e-20)
(1.01398 -0.0242059 4.38656e-22)
(1.33415 -0.26148 -6.45119e-20)
(1.3498 -0.263198 0)
(1.19837 0.0423752 1.47637e-20)
(-0.398458 -0.118354 9.08443e-20)
(0.999804 -0.00330254 -3.07726e-20)
(0.497767 0.00318003 -1.1539e-19)
(0.105861 -0.130138 -1.52553e-19)
(-0.389457 -0.116217 -2.63566e-19)
(0.249984 -0.0669206 -1.22138e-19)
(0.116343 -0.130722 -1.16642e-19)
(1.37754 0.120753 1.61806e-19)
(-0.248234 -0.0799679 1.42437e-19)
(-0.508116 -0.133549 1.33616e-19)
(1.06673 0.000762274 1.38505e-20)
(0.882149 0.0769841 0)
(1.01633 -0.0368591 0)
(1.10247 -0.0192748 1.36542e-20)
(1.08169 -0.00919444 -3.9736e-20)
(1.31186 -0.117521 0)
(0.983876 -0.0521161 2.22869e-20)
(1.3646 0.100745 1.59386e-19)
(0.996785 -0.0524563 1.52377e-20)
(1.07571 -0.500332 -3.25363e-20)
(1.00632 -0.0316391 9.91475e-22)
(1.11236 -0.0165396 -1.21078e-20)
(0.914079 -0.432501 0)
(0.991943 -0.105099 1.61221e-20)
(0.668613 -0.680673 6.53618e-21)
(1.01179 -0.020141 0)
(0.941119 -0.0720561 0)
(-0.364268 -0.0734261 -5.70644e-20)
(1.00707 -0.0229305 0)
(1.05991 -0.357992 -2.7275e-20)
(0.874942 -0.101253 -3.0186e-20)
(0.890812 -0.072887 2.90971e-20)
(0.764354 -0.564046 5.23037e-20)
(0.689566 0.336505 -7.05793e-20)
(1.00503 -0.0212567 -2.84234e-21)
(-0.19723 -0.0603189 4.66938e-20)
(1.18355 -0.053413 0)
(1 -0.00407395 1.02167e-20)
(-0.212154 -0.0289646 -2.90095e-19)
(0.0925324 -0.130512 1.66435e-19)
(0.743566 -0.532552 -5.64866e-20)
(0.0508903 -0.0139156 1.72592e-19)
(1.15302 -0.134871 -7.06366e-21)
(0.996925 -0.0525586 -1.40468e-20)
(0.947648 -0.120242 4.83022e-20)
(1.29661 -0.211729 -1.61374e-19)
(0.711346 -0.129405 -7.24515e-20)
(1.23377 -0.390374 4.1702e-20)
(-0.215596 -0.0297196 2.26393e-19)
(0.948071 -0.112773 1.80291e-20)
(0.96841 -0.0584279 0)
(1.38581 0.0533173 -1.68836e-19)
(1.1119 -0.01563 0)
(1.06754 -0.363174 3.1263e-20)
(-0.12523 -0.106919 9.99386e-20)
(-0.209396 -0.0436166 0)
(0.972384 -0.107376 0)
(0.887706 -0.101377 5.86441e-20)
(1.02031 -0.0390034 -1.89927e-21)
(1.36623 -0.181805 1.03934e-19)
(-0.298231 -0.0696036 -2.62186e-20)
(-0.149717 -0.0282511 0)
(0.993431 -0.0202137 0)
(1.18541 -0.188923 7.14051e-20)
(0.864353 -0.5724 0)
(-0.318693 -0.0989606 -1.72375e-20)
(-0.120547 -0.0601333 0)
(1.21266 -0.0304078 -7.65595e-20)
(0.257042 -0.515116 9.00679e-20)
(-0.227936 -0.0720085 0)
(1.0493 -0.114398 -1.35626e-21)
(1.09811 -0.0703253 0)
(0.774432 0.147651 0)
(1.00803 -0.0331295 3.8339e-21)
(0.960625 -0.0826619 -2.68975e-20)
(1.00054 -0.00485415 -1.90101e-21)
(1.05302 -0.219798 0)
(-0.183431 -0.0348447 -2.84467e-20)
(0.901482 -0.0571342 -5.35559e-20)
(0.948385 -0.109921 2.54593e-20)
(1.17074 -0.311817 -2.3326e-21)
(0.247412 -0.437106 -9.12301e-22)
(0.993043 -0.0183996 -1.53075e-20)
(1.03544 -0.0898143 -3.94606e-21)
(-0.224252 -0.0740777 -8.49854e-20)
(1.36434 -0.162604 5.65443e-20)
(1.1779 -0.0586345 -2.80384e-20)
(0.73103 0.0894835 -1.30186e-19)
(-0.23763 -0.0556417 4.52795e-20)
(-0.109147 -0.108414 -8.99474e-20)
(1.07393 -0.0333012 0)
(1.01834 -0.0557545 0)
(0.150694 -0.0151855 6.75527e-21)
(-0.42748 -0.0553449 -2.48421e-19)
(1.03297 -0.00456261 1.69801e-20)
(1.37705 -0.121828 4.27702e-20)
(1.01276 -0.0024126 -2.28542e-22)
(1.06491 -0.00646406 -1.21545e-20)
(-0.423643 -0.0550837 2.09473e-19)
(1.34622 -0.256798 -3.37355e-20)
(0.994505 -0.0255109 1.40801e-20)
(1.2918 -0.376445 9.49357e-20)
(0.720993 0.0550871 0)
(1.31564 -0.27031 -1.31544e-19)
(0.462781 -0.139696 -4.58964e-20)
(0.339661 -0.0718033 2.92868e-20)
(-0.214772 -0.03074 2.87087e-19)
(1.34647 -0.0902577 1.4026e-19)
(1.00276 -0.0292239 0)
(1.07165 -0.225601 2.65608e-20)
(1.00193 -0.0272704 0)
(-0.138293 -0.0643903 8.8031e-20)
(-0.135631 -0.0542242 -1.82833e-19)
(0.245514 -0.0581521 7.5764e-20)
(-0.0803639 -0.126025 0)
(0.973388 -0.0418888 -4.73318e-20)
(-0.427263 -0.0654971 0)
(0.952666 -0.0414907 0)
(0.99561 -0.108383 5.80145e-21)
(-0.433219 -0.0761685 4.16615e-20)
(-0.0469166 -0.0533409 2.33852e-20)
(1.09396 -0.035742 -1.5274e-20)
(-0.409982 -0.0791841 2.11123e-19)
(-0.235054 -0.110784 3.05568e-22)
(-0.422035 -0.0641806 -4.11686e-20)
(-0.416378 -0.07509 0)
(-0.37347 -0.109356 0)
(0.460244 -0.143247 0)
(1.00206 -0.0100466 -8.23019e-22)
(0.994036 -0.0168239 -1.50102e-20)
(0.122081 -0.0642333 -1.3466e-19)
(0.95181 -0.0448296 3.19471e-20)
(-0.0712302 -0.0385834 -8.14725e-20)
(-0.217384 -0.0299457 -2.12415e-19)
(0.948406 0.116663 -3.73896e-20)
(0.717041 0.11776 2.8736e-20)
(1.12195 -0.366456 -5.7805e-23)
(-0.215943 -0.0361791 -5.67327e-20)
(0.985939 -0.0486857 0)
(1.19349 -0.180406 3.07902e-20)
(1.00579 -0.0700064 0)
(0.709486 -0.0651411 -3.1179e-20)
(1.06831 0.000271592 9.39166e-23)
(0.993295 -0.214664 1.0281e-20)
(1.01822 -0.0363996 1.65072e-21)
(-0.316376 -0.0888281 -2.62955e-19)
(1.0736 -0.0310087 -1.0913e-23)
(1.25441 -0.0107075 -1.23292e-19)
(1.18553 -0.187208 -1.01407e-19)
(-0.170339 -0.0324779 -5.68487e-20)
(0.433321 -0.0420545 -1.24271e-19)
(1.23295 -0.385798 0)
(1.12912 -0.0329161 -2.47535e-20)
(1.14483 -0.0244815 1.65245e-20)
(-0.314744 -0.0998108 0)
(0.94829 -0.441655 0)
(1.10443 -0.44866 4.16284e-21)
(1.06209 -0.0603701 -1.57927e-20)
(1.03903 -0.0890223 6.43639e-22)
(0.999726 -0.00428619 8.63509e-21)
(-0.194589 -0.0452946 9.81303e-20)
(1.04202 -0.303254 0)
(1.00624 -0.0306476 1.91647e-21)
(1.01888 -0.00316865 -1.05693e-20)
(0.972525 -0.106507 0)
(0.993029 -0.0150041 1.97699e-20)
(0.962513 -0.0864673 3.0587e-20)
(-0.36953 -0.0555972 0)
(1.37388 -0.243591 0)
(0.672716 0.103442 1.52819e-21)
(0.179172 -0.110296 0)
(0.950299 -0.491169 0)
(-0.378312 -0.0871121 0)
(1.04296 -0.0515314 4.11282e-21)
(1.20479 0.0403607 0)
(1.25948 0.0168194 0)
(0.0809578 -0.0139775 -7.80548e-20)
(-0.181987 -0.0348502 9.93732e-20)
(1.36997 -0.239415 3.9879e-20)
(1.02295 -0.00295999 0)
(1.00147 -0.18997 0)
(1.32342 -0.2247 7.11505e-21)
(0.860002 0.268364 4.60247e-20)
(1.21826 -0.2212 -2.12251e-20)
(0.171114 -0.102229 0)
(1.18744 -0.104179 0)
(-0.223643 -0.0349706 1.50782e-19)
(1.03597 -0.0126681 0)
(-0.131476 -0.0557283 1.11482e-19)
(1.0706 -0.000943217 -9.04036e-21)
(-0.424989 -0.0657874 0)
(-0.180804 -0.0565149 1.71188e-19)
(1.07172 -0.00204788 1.96964e-20)
(1.22867 -0.211739 -4.53282e-20)
(-0.106403 -0.0408933 -6.9255e-20)
(-0.417873 -0.0756196 0)
(1.09337 -0.13949 -6.93555e-21)
(1.01605 -0.039891 0)
(-0.43396 -0.0761294 0)
(1.00803 -0.0180933 1.01044e-21)
(1.05795 -0.0359263 1.44531e-20)
(-0.328942 -0.0962465 -1.38868e-19)
(1.14818 -0.0305409 0)
(1.02258 -0.0672903 4.22864e-22)
(1.0257 -0.06975 -2.28839e-22)
(-0.111345 -0.0860149 0)
(-0.306501 -0.0801501 -1.7548e-19)
(1.02812 -0.0677649 0)
(-0.413954 -0.0777992 -1.38971e-19)
(1.20192 -0.0459218 0)
(0.689466 -0.093865 -3.92385e-20)
(-0.180026 -0.0343913 5.75231e-20)
(-0.384471 -0.0856412 -4.55062e-20)
(0.107004 -0.0388674 1.27867e-19)
(1.42727 -0.0935507 0)
(0.0424372 -0.0718465 1.02653e-20)
(1.33288 -0.0770802 1.2258e-19)
(0.725253 -0.934003 0)
(-0.0128333 -0.0394825 2.17356e-19)
(0.430262 -0.0842705 2.86054e-20)
(1.34955 0.0586249 -1.27065e-19)
(0.828354 -0.273323 -2.89746e-20)
(1.24569 -0.348101 5.57978e-20)
(1.00482 -0.0727505 1.19915e-20)
(1.05985 -0.0554351 0)
(1.19941 -0.00263105 -2.2747e-20)
(0.971533 -0.4677 -5.55183e-21)
(0.69573 -0.0322267 0)
(0.0293103 -0.0706563 0)
(1.24954 -0.276084 -5.54657e-20)
(1.00725 -0.0148614 -7.40167e-23)
(1.29506 -0.301395 -8.55652e-20)
(0.990212 -0.0180528 -1.8569e-20)
(1.38414 -0.161373 1.28925e-20)
(1.23904 -0.205543 1.44929e-20)
(1.22407 -0.0493094 4.16606e-20)
(1.03799 0.170472 -5.4104e-21)
(-0.165931 -0.0312174 -8.85525e-20)
(0.614282 -0.125266 -2.34588e-19)
(-0.181676 -0.0339754 1.75777e-19)
(0.686137 -0.728336 -9.34489e-21)
(0.468804 -1.19666 0)
(1.04099 -0.0485754 -3.53579e-21)
(1.00195 -0.00638882 -2.048e-21)
(0.300168 -0.0714923 1.18464e-19)
(-0.424941 -0.0653787 -2.14017e-20)
(-0.133415 -0.0515167 1.03242e-19)
(1.18457 -0.128043 3.14103e-20)
(-0.0868086 -0.0312662 -2.4861e-19)
(1.14148 -0.0195773 -3.0017e-20)
(-0.14977 -0.0287601 -1.24073e-19)
(-0.319119 -0.0874855 2.13393e-19)
(0.726269 0.123019 0)
(1.05724 -0.0344302 0)
(-0.398947 -0.0886628 0)
(-0.460219 -0.125824 1.16927e-19)
(1.00721 -0.024848 1.05098e-21)
(1.00231 -0.00755349 1.32785e-21)
(0.0732822 0.201399 1.92028e-19)
(1.03166 -0.0108572 -9.62532e-21)
(1.04165 0.180881 1.1225e-20)
(1.13264 -0.478038 0)
(1.00177 -0.00284652 -6.43219e-23)
(1.10086 -0.201711 5.45097e-21)
(1.12199 -0.141701 -3.54689e-20)
(1.05012 -0.245636 1.84598e-20)
(0.772573 -0.0665928 1.38298e-19)
(1.39885 -0.10504 -1.00534e-19)
(0.151948 -0.112085 0)
(1.04984 -0.233191 5.71948e-21)
(-0.319924 -0.0985819 1.30834e-19)
(1.01267 -0.0264892 -2.84862e-23)
(1.00525 -0.186297 -6.89793e-21)
(0.9935 0.316902 -7.73414e-21)
(0.528007 -0.227285 0)
(1.24974 -0.288438 -1.0827e-19)
(-0.156164 -0.0234586 7.29642e-21)
(1.09198 -0.0896213 3.74158e-20)
(1.05688 -0.234466 -3.23479e-21)
(-0.200192 -0.0849369 0)
(1.25171 -0.00344063 1.4397e-19)
(-0.148992 -0.0012349 0)
(0.68013 0.101343 -1.81123e-21)
(1.30418 -0.292968 -1.1677e-19)
(-0.424981 -0.064061 -9.02402e-20)
(-0.390503 -0.0859491 0)
(-0.193038 -0.0397392 0)
(1.01297 -0.0266322 2.57064e-23)
(1.31685 -0.225672 0)
(1.15599 -0.141933 0)
(0.751361 0.111084 -5.32111e-20)
(-0.128634 -0.0524088 -8.95965e-20)
(1.1681 -0.0588538 -2.72488e-20)
(1.10608 -0.109181 -1.48166e-20)
(0.994554 -0.0123552 0)
(0.711805 -0.682386 1.16125e-20)
(1.37819 -0.14009 1.2529e-19)
(1.3635 -0.151771 -2.43295e-20)
(1.00014 -0.00155969 -6.15375e-21)
(1.32664 -0.262166 3.78482e-20)
(1.06909 -0.0358991 0)
(1.37911 -0.12925 0)
(0.0575534 -0.037603 1.71321e-19)
(-0.195537 -0.0941498 0)
(1.16875 0.00808192 -2.33486e-20)
(0.977595 -0.0491326 8.561e-21)
(0.53816 -0.0384642 -1.22841e-19)
(1.12566 -0.428858 -2.38251e-20)
(0.716678 -0.0762283 -5.13878e-20)
(-0.164686 -0.0314418 9.98056e-20)
(1.1158 -0.141234 0)
(-0.057613 -0.0549544 0)
(-0.184325 -0.0352307 -2.78609e-20)
(1.06496 -0.00615386 -1.30075e-22)
(1.04992 -0.000822984 -2.40941e-20)
(1.01183 -0.00224551 -1.77765e-21)
(-0.176351 -0.0351213 0)
(0.00180025 -0.122582 1.20263e-19)
(-0.210154 -0.0318 1.76198e-19)
(0.319202 -0.478418 -2.25541e-19)
(-0.219369 -0.09152 3.76238e-20)
(-0.167291 -0.0319654 0)
(0.840149 -0.256742 3.06239e-20)
(1.31304 -0.290372 1.47733e-19)
(1.05128 -0.108595 0)
(-0.064194 -0.0391761 9.71888e-20)
(1.27562 0.0479452 4.63912e-20)
(0.616735 -0.408045 -1.58657e-19)
(1.13953 -0.0483281 -4.68067e-20)
(0.741748 0.114176 0)
(1.05383 -0.0382868 5.17729e-21)
(0.235612 -0.0541844 -7.98514e-20)
(0.728133 0.333182 3.95599e-20)
(-0.220024 -0.049563 0)
(0.0289407 -0.0347808 1.02481e-19)
(1.00212 -0.0140627 -7.52106e-21)
(1.03054 -0.0111336 0)
(-0.312739 -0.0695609 -6.2613e-20)
(-0.143125 -0.0248995 -5.59822e-20)
(1.0812 -0.0338213 1.12807e-20)
(1.21662 -0.185385 -2.17102e-20)
(-0.204433 -0.0531962 8.77186e-20)
(1.46128 -0.0970574 8.01235e-20)
(1.15956 -0.089533 -5.68573e-20)
(0.89644 -0.0705399 1.8079e-21)
(1.46462 -0.100334 -5.3827e-21)
(1.14328 -0.133885 -2.27654e-20)
(0.986101 -0.048457 -2.16399e-20)
(-0.186101 -0.0411706 -8.24052e-20)
(-0.381956 -0.0551388 0)
(0.145494 -0.128619 -1.7473e-19)
(1.22303 -0.0474793 0)
(1.096 -0.0382035 3.18383e-20)
(-0.165701 -0.0383568 7.02381e-20)
(1.06002 -0.220864 -1.18957e-20)
(1.3234 -0.0682059 0)
(1.19466 -0.000680772 0)
(-0.409888 -0.0791874 1.65696e-19)
(1.05885 -0.0260709 9.53808e-21)
(1.00509 -0.0195504 -1.15475e-21)
(1.00205 -0.0106201 -1.30256e-22)
(1.00252 -0.0345624 -1.92864e-21)
(-0.515863 -0.118196 -4.449e-20)
(1.24115 -0.318522 0)
(0.368719 -0.0463162 -1.69631e-19)
(-0.207563 -0.0900405 0)
(0.467511 -0.0448792 2.6538e-19)
(-0.0797993 -0.0305362 2.56978e-19)
(-0.228467 -0.0511787 0)
(-0.207031 -0.083678 0)
(1.07739 -0.0134942 8.70067e-21)
(1.16509 0.00689906 0)
(0.575208 -0.121907 6.01147e-20)
(-0.154838 -0.0403898 -1.49137e-19)
(0.995028 -0.0157628 0)
(1.25031 -0.314129 0)
(0.763482 -0.0912003 7.48612e-20)
(0.0365323 -0.0362798 -1.93884e-19)
(1.25519 -0.011146 -5.641e-20)
(1.34236 0.0733642 0)
(1.09787 -0.472862 -4.01393e-20)
(-0.391452 -0.0759237 3.52144e-19)
(0.977599 0.296825 0)
(0.0545768 -0.0522098 1.56941e-19)
(-0.211984 -0.031732 -1.38028e-19)
(-0.0108146 -0.0419366 -1.87124e-19)
(1.21659 0.0285522 -2.55816e-20)
(-0.495361 -0.137078 -3.74365e-20)
(1.06224 -0.0598385 1.92603e-22)
(0.989781 -0.01811 -2.1446e-20)
(0.189251 -0.105465 0)
(0.994041 -0.0130166 -3.68419e-20)
(1.09596 -0.0895373 0)
(1.21685 0.02123 5.06267e-20)
(1.22333 -0.062928 -9.89292e-20)
(1.09399 -0.508629 2.91039e-20)
(1.04748 -0.0196637 1.53548e-20)
(0.989634 -0.0196656 4.11554e-20)
(1.29243 -0.371038 -3.2369e-20)
(1.00592 -0.0705504 1.01761e-20)
(-0.343119 -0.0599632 -8.83581e-20)
(-0.170945 -0.0328059 1.42737e-19)
(-0.211972 -0.0576839 2.02522e-19)
(-0.168906 -0.0324654 -9.53921e-20)
(1.0665 -0.241731 -2.65594e-20)
(-0.236037 -0.0989891 1.55397e-19)
(0.855414 -0.03916 2.44391e-20)
(-0.171533 -0.0107379 0)
(1.07291 -0.0317248 2.29069e-20)
(1.33819 -0.260448 6.25848e-20)
(0.862666 -0.26625 -1.2862e-20)
(1.05702 -0.0259429 -1.41705e-20)
(1.08212 -0.036161 -1.318e-20)
(1.17673 -0.0609784 -3.03146e-20)
(0.855267 -0.0406213 0)
(1.04882 -0.0198904 -2.59437e-20)
(-0.233245 -0.0404434 -9.08352e-20)
(0.104534 0.193391 1.31846e-21)
(1.13733 -0.131127 7.54462e-20)
(-0.21281 -0.0437293 9.15327e-20)
(1.46277 0.200321 6.54728e-20)
(1.07756 -0.00458271 0)
(0.934096 -0.165184 7.60586e-20)
(1.30539 -0.255053 1.31376e-21)
(-0.192768 -0.0402513 0)
(1.07951 -0.00664694 -3.78413e-20)
(1.137 -0.266488 0)
(1.16231 -0.0068983 -1.94243e-20)
(-0.011568 -0.0389517 -9.91155e-20)
(1.07025 -0.0335254 -1.40913e-20)
(1.0505 -0.0176757 -1.68525e-20)
(-0.178416 -0.061478 0)
(-0.386687 -0.0864022 0)
(-0.494406 -0.139884 -4.04948e-20)
(0.717925 0.0602496 -1.93727e-20)
(1.00188 -0.00713526 0)
(1.00008 -0.0411493 0)
(0.431335 -0.0924386 -7.05369e-20)
(-0.199574 -0.0371483 0)
(0.76299 -0.122675 0)
(1.02349 -0.0105461 -3.555e-21)
(0.994326 -0.0176336 0)
(0.976333 -0.132266 3.0226e-20)
(0.978564 -0.0445938 -2.43182e-20)
(0.0369451 -0.126523 0)
(1.00328 -0.0293241 -1.06055e-20)
(0.570263 -0.9558 4.09825e-21)
(0.278803 -0.0599003 7.01938e-20)
(0.269238 -0.125964 -6.01217e-20)
(1.0662 -0.00832194 1.28682e-20)
(-0.200206 -0.0379159 6.25599e-20)
(-0.226784 -0.0996417 -1.18807e-19)
(0.956545 -0.0769235 3.26002e-20)
(1.12677 -0.320058 1.12537e-20)
(0.98309 -0.0790296 0)
(-0.227164 -0.0798939 1.72224e-19)
(1.0944 -0.262772 0)
(1.01372 -0.0375485 -3.12386e-21)
(1.00527 -0.0281794 -8.45818e-21)
(1.00013 -0.0414717 -5.39968e-21)
(-0.384917 -0.08705 0)
(0.55599 -0.400124 -9.67207e-20)
(0.123689 -0.130439 1.40653e-19)
(0.98778 -0.0456119 -4.6719e-21)
(1.05123 -0.0196812 1.01143e-20)
(1.26343 0.0115669 3.72083e-20)
(1.20785 0.0428588 -5.96623e-20)
(1.15431 -0.0920384 5.78647e-20)
(0.0223065 -0.126704 -8.41804e-20)
(-0.523913 -0.120863 3.33909e-20)
(1.05581 -0.0380289 0)
(1.00998 -0.0261964 -8.88543e-22)
(1.18913 0.003349 8.83314e-20)
(-0.196493 -0.0562595 -1.64242e-19)
(1.27424 -0.126206 1.00838e-19)
(1.20195 -0.0298475 0)
(1.00184 -0.00695743 3.72415e-21)
(1.29016 -0.363835 7.18152e-20)
(1.07849 -0.264483 -1.1631e-21)
(1.00934 -0.0257964 2.29536e-22)
(1.04934 -0.00999275 0)
(1.47311 0.186696 -1.10512e-19)
(1.06824 -0.37839 -4.96673e-21)
(0.994393 -0.024995 8.92731e-21)
(0.598299 -0.201587 0)
(1.33786 -0.268723 0)
(1.00844 -0.0258663 -3.23286e-21)
(0.537716 -0.119365 0)
(-0.393777 -0.0761569 -3.18643e-19)
(1.07764 -0.0043349 1.08915e-20)
(0.985751 -0.139015 -1.03495e-20)
(1.01029 -0.084109 0)
(1.20762 -0.0227649 3.59277e-20)
(-0.0236201 -0.0389661 1.38309e-20)
(0.0727063 -0.0394589 1.745e-19)
(1.3694 0.130812 -1.04666e-19)
(1.01077 -0.0259756 -1.05118e-21)
(-0.231347 -0.0773852 -9.6337e-20)
(-0.451316 -0.116272 1.42829e-19)
(0.383639 -0.113058 8.30451e-20)
(-0.0247959 -0.121984 -2.48039e-20)
(1.03593 -0.298472 0)
(0.982245 -0.026748 2.11085e-20)
(1.14185 -0.0190854 0)
(0.687888 0.113546 -2.72339e-20)
(1.02288 -0.00413072 6.567e-21)
(1.08223 -0.0322045 1.36469e-20)
(-0.209115 -0.0790372 4.84924e-20)
(-0.085389 -0.0394626 -5.65332e-20)
(1.13218 -0.0380375 3.07917e-20)
(1.00818 -0.0873973 0)
(0.620383 -0.621919 -3.31691e-21)
(0.114446 -0.094013 0)
(1.01024 -0.0181315 3.67272e-22)
(1.02292 -0.00996512 0)
(1.05991 -0.172033 0)
(-0.301669 -0.0802318 1.50069e-19)
(-0.138959 -0.0333167 0)
(0.872707 -0.896146 4.76332e-20)
(0.659376 0.212969 1.19249e-19)
(-0.0167791 -0.112088 -2.42991e-20)
(0.869348 -0.16743 0)
(-0.361569 -0.0723092 3.25195e-20)
(1.27476 0.045671 4.88569e-20)
(1.0385 -0.0495118 3.63312e-21)
(1.1647 -0.00162195 -5.86619e-21)
(-0.42744 -0.0548464 0)
(1.01346 -0.0372617 1.50357e-21)
(-0.424565 -0.0546052 0)
(1.13183 -0.148981 0)
(-0.222051 -0.112508 -6.07227e-20)
(-0.389943 -0.0868417 0)
(0.855223 -0.274581 3.75278e-20)
(0.629732 -0.127318 -1.15093e-19)
(0.985996 -0.0784178 0)
(1.088 -0.261942 0)
(0.0080408 -0.0998467 -8.12355e-20)
(1.44845 0.213257 0)
(-0.156709 -0.0242425 -7.45191e-21)
(0.147696 -0.0631878 0)
(-0.00282964 -0.111004 -2.10744e-20)
(0.110544 -0.0521859 -2.00426e-20)
(1.01374 -0.185653 -2.11498e-21)
(1.28054 -0.351383 8.25146e-20)
(-0.245774 -0.109626 -7.24634e-20)
(-0.0861951 -0.0831803 -2.03177e-19)
(0.464117 0.00698089 -6.87146e-20)
(1.04007 -0.0347685 1.44158e-20)
(1.25687 -0.351894 0)
(0.160746 -0.107743 0)
(1.30395 -0.295832 1.57345e-19)
(0.131851 -0.0961805 1.41952e-19)
(1.13814 -0.0150539 -1.43922e-20)
(0.862963 -0.290993 0)
(1.01446 -0.026565 -1.15824e-21)
(0.910666 -0.0874884 -5.18394e-22)
(-0.472476 -0.145932 -1.98312e-19)
(-0.427363 -0.0573052 -1.61715e-19)
(-0.438414 -0.0857799 5.35857e-20)
(1.08262 -0.0260413 0)
(0.969072 -0.0586615 -1.99504e-20)
(-0.423619 -0.0558993 2.77201e-19)
(-0.389445 -0.0862225 8.73381e-20)
(1.4182 -0.10593 0)
(0.758935 -0.625149 0)
(-0.229434 -0.064018 4.05267e-20)
(0.975114 -0.13373 -1.36605e-20)
(0.0291874 -0.123267 0)
(0.77786 -0.142266 2.89808e-20)
(0.937932 -0.0602779 -4.91348e-20)
(0.972636 0.0921453 -6.03318e-21)
(-0.387964 -0.0805957 6.71834e-20)
(0.0675068 -0.0539113 -2.17074e-22)
(1.0283 -0.0233252 5.29431e-21)
(1.04155 -0.0875091 0)
(-0.132318 -0.0146937 0)
(1.00031 -0.00341691 3.56356e-22)
(1.03681 -0.0336546 -7.49542e-21)
(1.04826 -0.00914411 0)
(1.07757 -0.00887881 -1.81641e-20)
(0.767571 -0.25131 0)
(0.695091 -0.079738 -1.05227e-19)
(0.982005 -0.145239 -1.1904e-20)
(1.00589 -0.0220341 -2.83486e-21)
(1.01464 -0.0559789 0)
(1.05611 -0.0240574 3.06074e-20)
(1.00016 -0.00314221 -2.0167e-20)
(1.0001 -0.00236218 2.43086e-21)
(0.937055 -0.0682508 -3.11555e-20)
(-0.0806345 -0.0309163 -1.38674e-20)
(1.50143 0.0090044 2.99182e-21)
(-0.134552 -0.0332003 1.05758e-19)
(-0.2098 -0.0920839 -1.52712e-19)
(-0.212308 -0.0541638 -4.80294e-20)
(1.10591 -0.454826 4.0652e-20)
(1.05537 -0.212475 -1.90276e-21)
(1.0249 -0.0689573 9.50696e-22)
(1.06087 -0.121948 0)
(0.750887 -0.242486 -8.70642e-20)
(-0.358411 -0.0723692 0)
(1.15263 -0.0138268 7.31357e-20)
(-0.372142 -0.0878906 -1.70758e-19)
(0.808881 -0.0128063 -7.6973e-20)
(1.16468 -0.000223288 4.35868e-20)
(1.27528 -0.377074 1.89906e-19)
(0.822737 -0.00226891 1.03466e-19)
(-0.412922 -0.077741 -3.5385e-20)
(-0.242394 -0.109983 0)
(1.0361 -0.0469627 0)
(0.202081 -0.0474528 0)
(1.007 -0.0262578 -4.21797e-21)
(-0.378315 -0.0866542 1.94197e-19)
(-0.43413 -0.086979 3.05658e-20)
(1.38287 -0.164008 2.53545e-20)
(0.692273 0.142391 2.39658e-19)
(-0.421321 -0.0702739 0)
(-0.427142 -0.0646759 0)
(1.20614 -0.187401 0)
(1.01599 -0.0547253 3.00848e-21)
(-0.431048 -0.0771875 3.87761e-20)
(-0.0879709 -0.0309188 2.97865e-20)
(-0.219817 -0.0578046 -2.32524e-19)
(0.941195 -0.0758012 -4.17246e-20)
(-0.428447 -0.0599619 -2.05309e-19)
(0.185432 -0.0630772 0)
(0.987741 -0.0453686 1.53013e-20)
(0.230884 0.109221 0)
(1.50546 0.021332 4.39282e-20)
(1.02704 -0.0118252 2.70332e-21)
(1.07592 -0.261081 1.57021e-20)
(-0.154732 -0.0385241 4.15126e-20)
(1.46835 -0.0790433 7.62488e-21)
(1.09529 -0.137029 -1.4539e-20)
(-0.0350397 -0.127815 4.96326e-20)
(1.0078 -0.0163204 0)
(0.817679 0.0623023 -2.28004e-20)
(-0.430466 -0.0776772 0)
(-0.249052 -0.0514955 0)
(0.287213 -0.068124 0)
(0.949426 -0.887745 -6.36976e-20)
(-0.134205 -0.0326286 -4.27619e-20)
(1.34488 -0.266554 -6.67779e-20)
(0.895921 -0.574649 -3.79698e-21)
(1.26253 -0.304869 -5.76264e-20)
(0.127924 -0.128284 1.32727e-19)
(0.75038 -0.223684 -4.92102e-20)
(1.32201 -0.0654196 0)
(1.32828 -0.182833 -4.41134e-20)
(1.07205 -0.0280884 -1.79723e-20)
(-0.3745 -0.081058 3.75872e-20)
(0.786536 -0.0521749 0)
(1.02814 -0.0124092 -1.65148e-22)
(-0.428705 -0.0615543 0)
(-0.125418 -0.0129975 0)
(-0.133839 -0.0321179 -5.19935e-20)
(0.127337 -0.102241 -1.50558e-19)
(1.04373 -0.0882286 0)
(1.06572 -0.223725 1.27242e-20)
(-0.234211 -0.0567734 -3.95582e-20)
(-0.302325 -0.0712503 1.01143e-19)
(0.756305 -0.343919 1.3765e-20)
(-0.163445 -0.031414 1.45137e-20)
(1.24303 -0.1578 -9.53343e-20)
(0.172661 -0.0144579 -9.78797e-21)
(0.913638 -0.0880833 -5.60891e-20)
(-0.229284 -0.0424057 0)
(0.900514 -0.0561125 -8.85463e-20)
(-0.399862 -0.120642 1.71112e-19)
(0.811914 -0.00110888 8.50657e-22)
(-0.316221 -0.0519901 -1.7191e-19)
(1.40736 -0.0933145 0)
(0.944528 -0.0740406 3.93008e-20)
(1.153 -0.263028 -4.07036e-21)
(1.03799 -0.0469587 -6.41403e-21)
(1.32847 -0.118487 -4.04544e-21)
(0.12666 -0.0735242 0)
(0.307697 -0.204795 -2.78876e-19)
(0.163605 -0.0738682 7.21892e-20)
(-0.188935 -0.0930716 -7.12803e-20)
(1.35775 -0.190012 -5.89896e-20)
(-0.0820842 -0.0320084 -6.71797e-21)
(0.922302 -0.0993641 0)
(-0.244435 -0.0633103 0)
(1.00945 -0.607717 -8.91217e-20)
(-0.363525 -0.0646344 8.93936e-20)
(1.08033 0.000445688 2.14501e-20)
(0.877194 -0.163844 6.67838e-20)
(1.32232 -0.190695 8.50224e-20)
(-0.433518 -0.0767295 0)
(1.05434 -0.107321 2.13483e-21)
(0.145243 -0.051341 3.8616e-20)
(0.462441 0.0614925 0)
(1.02563 -0.0113154 -1.3678e-20)
(1.24119 -0.219942 -7.95785e-20)
(0.691586 -0.131882 2.09155e-19)
(1.39959 -0.109109 -2.53124e-20)
(0.418404 -0.124522 -6.45418e-20)
(-0.162825 -0.0310957 0)
(-0.158151 -0.0400426 1.86047e-19)
(0.971196 -0.0603093 4.83238e-20)
(-0.289242 -0.0723028 1.12722e-19)
(1.16335 -0.0600939 -2.41335e-20)
(1.03006 -0.0214426 5.281e-21)
(1.2089 -0.213432 -3.95318e-20)
(1.08167 -0.00911002 3.24595e-20)
(0.984957 -0.17472 -1.34012e-20)
(1.08773 -0.0953189 1.72195e-20)
(-0.435108 -0.0769907 0)
(1.18396 -0.0452832 -7.45341e-20)
(-0.270186 -0.0659674 -4.73789e-20)
(1.0845 -0.0297209 0)
(1.02492 -0.0113146 8.12212e-21)
(1.03544 -0.0342223 3.57182e-21)
(1.04672 -0.0364265 9.33687e-21)
(-0.149606 -0.0239559 -1.15932e-19)
(-0.380653 -0.0777058 -1.4235e-19)
(0.581501 -0.0269644 2.52264e-19)
(-0.312171 -0.0711107 9.40043e-20)
(-0.378291 -0.0771559 7.11988e-20)
(0.52641 -0.121004 -6.41213e-20)
(1.18006 -0.247338 0)
(0.13944 -0.129616 0)
(0.0414317 -0.033963 -2.15206e-19)
(0.0556569 -0.00821816 -3.6539e-20)
(-0.427133 -0.0699685 -7.7226e-20)
(1.28614 -0.37041 -8.48544e-20)
(-0.366705 -0.0833719 0)
(0.911257 -0.227473 -2.84282e-20)
(0.980661 -0.0452137 0)
(1.04281 -0.0647522 7.30397e-21)
(1.01269 -0.0549177 0)
(0.920468 -0.436187 0)
(1.36128 -0.024211 -1.29042e-19)
(1.07552 -0.010864 0)
(1.25471 0.0751847 0)
(1.24032 -0.161373 9.90842e-22)
(0.769184 -0.325313 0)
(-0.104543 -0.083317 6.23638e-21)
(1.07953 -0.00685332 0)
(1.00033 -0.00327985 3.503e-21)
(1.32959 -0.127307 -1.2664e-19)
(-0.364717 -0.0758517 0)
(-0.156717 -0.113246 -1.30869e-19)
(1.19675 -0.0379158 -3.27103e-20)
(-0.129011 -0.0319653 0)
(1.01817 -0.00192698 1.08946e-20)
(1.36727 -0.151954 -1.52407e-19)
(1.0067 -0.0816947 0)
(1.05799 -0.115776 0)
(1.00366 -0.0282881 2.80974e-21)
(1.1024 -0.10254 -2.26546e-20)
(1.21357 -0.174265 1.83588e-20)
(0.754851 -0.128409 2.78657e-21)
(0.0430255 -0.0983845 0)
(-0.406029 -0.08089 -1.90132e-19)
(0.734674 -0.0617971 -1.23526e-19)
(1.01178 -0.02659 0)
(0.887577 -0.425092 0)
(-0.12386 -0.031712 0)
(1.06888 -0.000469985 -7.34787e-21)
(0.995878 -0.0108926 -1.54781e-20)
(0.603145 -0.181183 0)
(0.0443089 -0.0781076 0)
(-0.409075 -0.0755145 -2.36824e-19)
(0.993848 -0.14156 -7.32886e-21)
(0.721708 0.421365 3.69267e-20)
(-0.396765 -0.0833688 0)
(1.16272 -0.550532 -1.44572e-20)
(1.02069 -0.00513269 0)
(0.992377 -0.0151274 -3.71833e-23)
(-0.00407588 -0.0351113 0)
(1.34561 -0.26594 -3.576e-20)
(-0.178631 -0.0426557 1.0871e-22)
(0.924753 -0.176969 -4.37767e-20)
(-0.200056 -0.0469039 0)
(1.45974 0.21051 7.04303e-20)
(1.33488 -0.100887 1.85259e-19)
(1.06206 -0.00576825 -1.77831e-20)
(1.192 -0.473763 4.4202e-20)
(-0.292377 -0.092121 1.22784e-19)
(0.71479 -0.0980319 -3.08802e-19)
(0.466577 -0.123658 7.04043e-20)
(-0.153309 -0.114465 5.74052e-20)
(0.544684 -0.43157 -3.15272e-22)
(0.973609 -0.117799 1.2312e-20)
(0.0823153 0.0352343 0)
(1.00022 -0.000614892 0)
(0.841088 -0.0969531 8.85404e-20)