/*--------------------------------*- C++ -*----------------------------------*\
| =========                 |                                                 |
| \\      /  F ield         | OpenFOAM: The Open Source CFD Toolbox           |
|  \\    /   O peration     | Version:  v2012                                 |
|   \\  /    A nd           | Website:  www.openfoam.com                      |
|    \\/     M anipulation  |                                                 |
\*---------------------------------------------------------------------------*/
FoamFile
{
    version     2.0;
    format      ascii;
    class       surfaceScalarField;
    location    "150";
    object      ddtCorrDdt0(phi);
}
// * * * * * * * * * * * * * * * * * * * * * * * * * * * * * * * * * * * * * //

dimensions      [0 3 -2 0 0 0 0];
oriented        oriented;


internalField   nonuniform List<scalar> 
20537
(
-0.000221894
0.00031649
-9.45926e-05
-0.00868736
-0.00964016
0.0183275
-0.000779719
-0.00111765
0.00189738
-0.000173918
-8.96065e-05
0.000263527
-0.000810573
0.00075793
5.26426e-05
0.00365099
0.0109353
-0.0145863
1.29501e-05
-4.20871e-06
-8.74322e-06
0.000162237
-0.000505181
0.000342941
-2.17929e-05
1.92558e-05
2.53821e-06
0.00318027
-0.00518877
0.00200856
-0.0177453
0.0143804
0.00336502
-0.0255147
0.00139108
0.024123
-0.00168329
0.00155693
0.000126336
-0.0141913
-0.00760931
0.0217983
1.20682e-05
-5.41176e-06
-6.65708e-06
4.54828e-05
0.0004028
-0.000448277
-3.80696e-05
8.37152e-06
2.97e-05
-0.000889747
2.6778e-05
0.000862967
-0.0017555
-7.49994e-05
0.00183045
-1.79491e-05
-3.84335e-06
2.69344e-05
-0.000200851
-0.00178556
0.00100586
-2.71382e-06
3.04558e-06
-3.30576e-07
-8.08394e-06
6.74433e-07
7.40915e-06
-3.37789e-06
6.64395e-07
-0.000539705
0.000701937
-2.35581e-05
-3.69397e-06
2.72542e-05
-0.00087251
-2.08987e-05
-1.34175e-06
-0.000220552
-0.000114505
-6.80144e-05
0.000182515
-0.016672
0.020323
-3.42767e-05
-3.79198e-06
-0.00195352
0.000835871
-0.00649077
0.00701489
-0.000524431
-9.19851e-06
1.11405e-06
-4.7938e-05
0.000185739
-0.000137804
-9.10388e-05
-9.55155e-05
0.000186546
0.00502569
-0.00299912
-0.00202659
-0.00164619
0.00482648
0.0128208
-0.0193117
-1.05622e-05
2.46042e-05
-1.40408e-05
1.0496e-05
-9.74185e-08
-1.03996e-05
0.00288296
-0.00217508
-0.000707861
0.0146718
0.0222644
-0.0369364
-0.0126785
0.0273502
0.000760155
0.00518608
-0.0059468
0.014806
-0.048241
0.0334351
-0.0244037
-0.0117437
0.0361474
8.07228e-06
-3.163e-05
-0.00579005
0.0108428
-0.00505278
0.000392325
-0.000354145
-3.81828e-05
-0.000136602
0.00057733
-0.000440724
0.00207663
-0.0045954
0.00251866
-1.33826e-05
8.73348e-06
4.65067e-06
2.12111e-05
-1.79736e-05
-3.2377e-06
-2.12716e-06
1.26238e-05
4.30621e-06
-1.75146e-06
-2.55416e-06
-0.00445214
-0.00154948
0.00600167
-0.000135387
2.08884e-05
-9.52384e-06
2.29813e-05
-1.34574e-05
0.00185354
0.00317214
0.0134314
-0.00360054
-0.00983065
0.00865352
-0.00906637
0.000412842
-0.00050551
0.000843934
-0.000338422
-0.00161501
0.0142831
-0.012668
-0.000619025
-6.86433e-05
0.000687673
-0.000165995
7.4955e-05
0.00756841
-0.0595659
-0.000131933
0.000122015
9.91297e-06
-0.000619582
-0.000270167
-0.000125502
0.000157479
-3.19765e-05
-0.000161991
0.00010924
5.27484e-05
0.00813599
-0.0168234
-8.19217e-06
-5.19011e-06
5.0315e-06
-1.72996e-05
1.22679e-05
3.17823e-06
2.21045e-05
-2.52794e-05
-0.00080416
-0.000981399
0.000316508
3.51332e-06
-0.000320005
-0.000106009
-0.000240453
0.000346461
-0.000154374
1.63817e-05
-3.83244e-05
2.85823e-05
9.74195e-06
0.0344618
-0.0455196
0.0110577
-1.22781e-05
-7.04961e-06
1.93271e-05
-0.00366501
-0.00147661
0.00514137
0.00652494
0.00212857
-0.00405159
-0.0214628
-0.00996465
0.0090528
0.000911867
-0.0363382
0.0130586
0.0232796
-1.16215e-05
1.68056e-05
-5.18182e-06
0.000129988
-6.84148e-05
-6.15706e-05
0.000133
-0.00018094
-0.00203482
-0.00287168
0.00490653
-0.0411634
-3.35751e-05
4.75565e-05
-1.39804e-05
1.08562e-05
-2.24764e-05
3.83469e-06
-5.3316e-06
1.49736e-06
-0.000113183
-0.000697388
0.00160257
-0.00276418
0.00116163
-0.0167582
0.0109682
-7.78045e-07
4.61274e-06
0.0024492
-0.00910261
0.00665485
0.000229193
-0.000297672
6.84717e-05
5.38258e-05
-2.79353e-05
-2.58912e-05
3.38026e-05
-2.2846e-05
1.6968e-06
7.58217e-07
-2.45528e-06
0.0124963
-0.01175
-0.000746237
-0.000172649
0.000335396
-0.000162751
2.24247e-06
4.21531e-06
-6.45878e-06
-0.000116495
-3.13772e-05
0.0178124
-0.00687707
-7.69512e-06
-2.36215e-08
7.71868e-06
9.34452e-05
3.6544e-05
0.00108366
-0.00311847
-8.95494e-06
8.95506e-06
-1.68348e-06
-6.01155e-06
0.0131446
-0.0262175
0.00232875
-0.000726177
-6.88329e-06
3.0555e-06
3.82703e-06
-1.32235e-05
1.39458e-05
-7.22064e-07
-3.96834e-06
1.57809e-05
-1.18135e-05
0.00232334
0.000559617
8.11979e-06
2.56818e-05
0.000261554
-0.00194484
-0.0729644
0.0183127
-0.0427164
0.000693753
-0.000187087
-0.00050667
-0.0309979
0.0493106
0.000244942
-0.00029701
5.20679e-05
-0.000164809
0.000191744
0.00161517
-0.000298748
-0.00131642
1.2684e-05
-2.32457e-05
1.00931e-05
-2.61597e-06
-7.47543e-06
-0.000161533
3.60301e-05
-2.2682e-05
1.04032e-05
-0.0309736
-9.06888e-06
1.09628e-05
-1.894e-06
-2.15438e-06
-4.7292e-06
9.71483e-05
-0.000182208
8.50575e-05
0.00971313
-0.00728675
-0.00242591
0.0060359
0.00531007
-0.0113456
-0.00328489
0.0057347
1.30958e-05
8.11488e-06
-0.000140295
-0.000393633
0.000533933
2.27333e-05
-1.45717e-06
-2.12761e-05
6.33005e-05
-4.79192e-05
-1.5385e-05
0.0531966
-0.0309322
0.000950213
0.000901751
-0.00185199
-0.000167396
0.00178255
1.88544e-06
1.10635e-05
-0.00151383
-0.0111648
0.000154535
-8.76658e-05
-1.22899e-05
1.563e-05
-3.34074e-06
0.0051383
-0.0193312
2.45293e-06
1.85364e-06
2.05623e-05
-3.35614e-05
1.30005e-05
1.74438e-05
4.58549e-05
-1.45933e-05
-4.66985e-06
1.92623e-05
9.16643e-05
-3.67291e-05
-5.49394e-05
-0.000622678
0.000486077
0.000281401
0.000110925
-9.65742e-07
7.79556e-06
-6.82874e-06
-9.0403e-06
5.09758e-05
-4.19362e-05
0.00104954
-0.00550175
5.25354e-06
4.83894e-06
0.000477301
-0.00049267
1.53739e-05
6.41317e-06
-8.96523e-06
2.55183e-06
-0.002939
0.00388921
-2.38215e-05
-0.000108111
-0.000155929
-8.87974e-06
-0.00272343
-0.00163243
0.00435577
-7.35508e-06
0.00032387
2.03593e-06
-8.28012e-06
6.24447e-06
-1.83238e-06
-1.27604e-05
0.00226352
0.00377315
1.10357e-05
-5.78127e-06
-0.015567
0.00382321
0.000315965
-7.10228e-05
0.000444351
-0.000166016
-0.00027833
-0.00242251
0.000666971
-1.5384e-06
-4.74826e-06
6.28685e-06
1.6054e-05
3.16546e-05
-4.77084e-05
-6.48433e-05
-1.55595e-05
-4.19886e-06
1.97577e-05
0.00162058
-0.000614717
-3.63204e-06
3.65712e-06
-2.50872e-08
-3.09067e-06
2.23864e-06
8.52352e-07
-0.000209314
-0.000409709
1.27158e-05
-1.66844e-05
-0.000980023
0.00107125
-9.1223e-05
0.0039878
-0.00823493
0.00424705
-0.04476
0.00481213
-0.00273551
-0.000193239
5.96814e-05
0.000133558
0.000134237
-0.000115764
-1.84755e-05
0.00528756
0.00814397
2.26202e-05
-3.6599e-05
1.39811e-05
0.000166325
-0.000306615
-0.0790389
0.025135
0.0539039
0.000257443
0.000186912
-2.487e-05
2.80497e-05
0.000442211
0.000251539
-0.00386009
-0.00660562
0.0104652
-1.58842e-05
2.76002e-06
1.3124e-05
-1.87844e-05
7.32349e-06
1.14605e-05
-0.00278442
-0.000938877
0.00372327
-1.99318e-05
4.37167e-06
-0.0097236
-0.00598401
0.0157074
-2.36115e-05
2.42361e-05
-6.24442e-07
-0.000203753
-1.50079e-05
0.000218764
6.93908e-06
-9.86753e-06
2.92788e-06
0.000187924
9.07371e-05
-0.000278662
2.07317e-05
3.30957e-05
-0.0308947
0.0917989
-0.0609043
-6.54561e-06
3.64941e-06
2.89576e-06
-1.4858e-05
7.47001e-06
7.38849e-06
-0.0051737
-0.0123464
0.0175202
0.00629464
-0.00821537
0.00192073
0.00549632
-0.00473646
-1.26811e-05
-2.13358e-06
1.48154e-05
-0.000258581
5.48301e-05
-1.42455e-05
-9.36446e-06
-1.81381e-05
-2.01875e-05
0.000569115
-0.000878925
0.000309813
0.000457994
0.000430765
-0.000888766
4.19586e-05
-0.000189805
0.000147847
-1.84918e-06
1.66775e-06
1.81528e-07
-5.76089e-05
-1.12843e-05
6.88923e-05
2.32044e-06
-6.23709e-07
0.00292187
-0.0046629
0.00174107
-3.93965e-06
-2.60584e-06
2.97993e-05
-0.000569501
-0.00320754
-0.013808
0.0170156
-5.37055e-06
7.40681e-06
-9.97929e-05
-0.00022254
-9.03611e-07
0.000223438
0.00335097
-0.00280757
-0.000543357
0.00298561
-0.0127094
0.0135332
-0.0151482
1.2355e-05
1.03783e-05
-1.58075e-05
-2.97713e-06
-0.0131505
-0.00352143
0.0458825
-0.0248173
-0.0210652
8.31446e-05
-4.44235e-05
-3.87209e-05
0.00205089
-0.00483532
-1.50278e-06
2.26126e-06
-0.000130492
-5.72672e-05
0.000187758
0.000347003
-0.000117811
0.018959
0.0181821
-0.0371413
-6.65895e-05
2.56562e-05
4.09307e-05
-0.000115142
7.74586e-05
3.76854e-05
-0.00335326
0.00259655
0.000756715
0.0225016
0.0233809
-3.98889e-06
-2.31728e-05
2.71639e-05
-4.91471e-05
0.000162809
-0.000208016
4.52032e-05
0.0106511
-0.0406773
0.0300263
-0.00284851
0.00683632
-6.85108e-05
-0.000113697
-0.000449491
0.000114439
0.000335025
-1.24069e-05
1.57143e-06
1.0835e-05
-2.50303e-06
0.00079955
-0.000607579
-0.000191974
0.040057
-0.0450985
0.00504153
7.16257e-05
-3.08634e-05
-4.07627e-05
-2.28522e-05
0.00257599
-0.00255317
-1.28847e-05
3.55055e-05
-2.57687e-05
2.17801e-05
-3.1175e-05
-2.3995e-06
-0.00025359
0.000822681
-0.00388504
-0.00107061
0.00495568
-0.0020334
-0.00131983
-1.60364e-05
0.0173199
-0.0230089
0.00568906
0.000175169
-0.000281178
-0.00038826
0.000433746
-8.34203e-06
5.72631e-06
-0.00696111
0.0414229
0.00332417
-0.00887374
0.00554956
5.56492e-06
-0.000141047
0.000135482
0.00297667
-0.0207219
8.53888e-05
-2.24312e-06
1.0541e-05
6.65285e-07
-1.1206e-05
2.03057e-06
-2.00954e-06
-2.07465e-08
-3.10916e-05
0.0001939
0.0566481
-0.0165911
0.00487808
0.0595427
-0.0644209
-2.27075e-05
2.20153e-05
6.93505e-07
-2.58257e-06
5.93015e-06
-3.34653e-06
0.0305533
-0.0132334
-0.00600292
0.0426282
-0.0366253
0.00160453
-0.00177193
-7.52602e-05
-6.01321e-05
-2.00025e-05
1.0479e-05
-0.000154279
0.000152783
1.49316e-06
0.0262524
-0.0322553
0.00212527
-0.00214817
2.42192e-05
0.000194881
-0.000219094
0.0172504
-0.0213016
8.69343e-06
-8.14142e-06
-5.51276e-07
-0.000210848
8.03539e-05
3.20667e-05
-4.1107e-05
4.70612e-05
-3.86912e-05
5.83611e-05
0.00010573
-0.000164091
3.66755e-06
8.21762e-06
-1.18841e-05
0.00604555
0.00645074
0.00029609
-0.000492329
0.000196218
-1.57509e-06
-2.11318e-05
8.93806e-05
-0.000181586
9.21988e-05
6.28217e-06
4.12742e-05
-0.000100022
2.47611e-05
0.00751213
0.00220121
0.00024347
-0.000219246
3.05503e-05
-2.44722e-05
-6.0785e-06
-0.000184013
0.0010276
-0.000843583
8.45454e-07
4.32242e-06
-5.16803e-06
-0.000122212
7.07081e-06
-0.000963582
0.000960731
2.84608e-06
0.000153059
-0.000147492
-5.96748e-06
-0.000156774
0.000162737
-1.5025e-05
2.34421e-06
-0.000175641
-8.01756e-05
0.000255813
5.18083e-06
4.69239e-06
-9.8729e-06
-0.000472687
2.31748e-05
-0.00151255
-0.00256079
0.00407332
-2.8181e-06
4.84317e-06
-2.02411e-06
3.01862e-05
-3.57507e-06
-2.66102e-05
-0.000198929
0.00019296
1.18596e-05
-6.94689e-05
-5.27015e-06
-2.09361e-05
2.62079e-05
2.16843e-06
-1.14712e-05
1.51381e-05
2.48976e-05
5.65339e-06
-0.00888848
0.0232688
0.0178661
-0.00675858
0.00245032
0.00536699
-0.00781755
0.000365965
0.00156344
-0.0019294
-0.000125157
0.000183518
0.00191415
-0.0066897
0.00477561
3.87626e-06
3.32032e-05
0.000101035
0.00205369
-0.000449161
0.00678927
-0.00564379
-0.00114545
0.00720252
-0.00292817
-0.00427431
-0.000522817
0.000316663
0.000206151
0.00205026
0.000861206
0.000170897
-0.00103209
0.0386972
-0.0682043
0.0295072
0.000159936
0.000158925
-0.000318869
3.12378e-06
-8.53638e-06
0.00862227
-0.00608136
-0.00254089
0.0116123
-0.00299001
0.00955796
-0.00719425
-0.00236378
1.97082e-05
-2.49777e-05
0.00365234
0.00355022
0.00466035
-0.00173845
-1.62858e-05
1.44526e-05
0.0685636
-0.0298665
-1.15363e-06
3.13402e-05
-4.95297e-06
1.01339e-05
6.73439e-07
-2.17613e-06
6.30478e-06
-4.06249e-06
2.15727e-06
1.31806e-05
-1.5337e-05
-0.000152151
0.000312084
0.0198664
-0.0407399
0.0208735
1.64195e-05
-1.66836e-05
2.6418e-07
0.000174565
-8.51849e-05
-3.37769e-06
9.66048e-06
-6.28213e-06
-0.00276292
0.0200134
2.40111e-05
-0.00101315
0.000989142
0.0559741
0.00779651
-0.00630168
0.00357815
1.34076e-08
1.64066e-05
0.00595776
0.000336898
4.4571e-05
-3.41017e-05
-1.04707e-05
0.05911
-0.00313593
-1.74251e-05
-1.05553e-05
2.79795e-05
5.47856e-06
-2.4232e-06
0.0033857
-0.0023809
-0.00100481
-0.0107351
-0.00181297
0.0125485
1.77472e-05
0.00326512
0.00424706
0.0039176
-0.000240068
-0.000282742
0.00584004
-0.00747256
-0.014187
0.0238857
-0.0096987
-0.0191172
0.00493024
0.00172184
-0.000575429
-0.00114638
9.87626e-06
6.046e-06
-1.59215e-05
5.46243e-06
-6.27532e-06
8.12373e-07
-0.00087923
0.0012452
1.70908e-05
-0.000192738
0.0112225
-0.0188315
-0.000119194
0.000137386
-1.81917e-05
0.000201784
-0.000159822
-0.000449831
0.000252084
0.00019773
-3.67732e-07
-3.00961e-06
-5.3559e-06
-7.05144e-06
-0.00385143
-3.73197e-05
0.000156449
-0.000119123
-0.0165407
0.0133331
0.000592433
0.00173631
0.000219249
0.00316645
7.64826e-06
3.69232e-05
4.41337e-06
-4.89719e-06
4.84089e-07
-0.00431057
0.00622474
7.26622e-09
8.08011e-06
-8.08695e-06
0.000367266
3.5535e-05
0.000463083
0.00125878
-1.4263e-05
-4.0942e-06
1.83578e-05
-4.24714e-07
-2.14859e-05
1.99116e-05
4.50989e-06
1.90353e-06
-0.000731563
0.000226054
0.00515072
-0.00321603
-0.00193468
0.000866891
-0.00018721
-0.00067982
-0.000993055
-8.47051e-05
0.00107776
-0.000252827
-0.00332691
0.00371588
-0.000388998
0.0418675
-0.0193659
-5.77284e-05
0.00015613
-9.83968e-05
0.00204742
0.0075105
1.85361e-05
2.85264e-05
0.0177858
-0.0229595
-7.54273e-06
5.3881e-06
-1.2378e-06
-2.02477e-05
-7.08806e-08
-3.0194e-06
0.00366597
-0.00495875
0.00129277
-0.0346389
0.00781699
0.0268219
0.000411665
-0.00115215
0.000740464
-0.00245015
-0.00087676
0.000394171
0.0185962
-0.0115814
-0.00391909
3.49061e-06
-0.000266165
4.3624e-05
8.33784e-06
-2.57616e-05
0.00942245
0.032445
-7.15419e-07
-1.01987e-06
1.73568e-06
-0.00200062
-0.0107835
0.0127843
0.0643491
-0.00893869
-0.0554104
0.00202029
-0.00148653
-0.000533765
0.000173347
6.84628e-05
-0.000241806
0.000505078
-0.000247632
-0.00849683
0.00710596
0.00139089
0.00231844
0.0620308
0.0179081
-0.0126277
-4.90591e-06
1.27418e-06
-6.0055e-05
-2.10622e-05
8.11164e-05
7.55131e-05
-0.0055489
0.00166385
-1.37956e-06
8.35363e-06
-6.9742e-06
-2.97787e-05
2.75847e-06
2.70196e-05
7.66922e-05
0.000758126
-0.00018079
-0.000867061
0.00215308
-0.00128601
0.0100382
-0.0149046
0.00486643
-1.67111e-06
-1.77614e-07
-3.60356e-05
3.2457e-05
0.000163014
-0.00362015
0.00345712
-6.85532e-06
0.000484153
8.99485e-06
1.54637e-06
-0.0303115
-0.00602673
1.40916e-05
-4.21482e-06
0.000226886
4.8913e-06
-8.99618e-06
4.10529e-06
0.000777739
0.0013426
-0.00212034
4.18686e-05
-6.07011e-05
1.88299e-05
7.60462e-06
0.000432417
7.26629e-05
0.0012529
-0.00143693
1.30395e-05
-2.00894e-05
0.000151948
-0.000101308
-5.06431e-05
1.25472e-06
-1.03236e-05
-0.00282829
0.00170666
0.00112161
-0.00349714
0.016299
-0.0128018
9.44404e-06
-9.44391e-06
8.47983e-06
1.7554e-05
-2.60321e-05
-8.28053e-06
2.19126e-06
6.76422e-06
-0.0709963
0.0188234
0.0521728
-8.90904e-07
2.81213e-05
-2.72301e-05
-0.00325758
0.0123104
1.5305e-05
-1.95036e-05
-2.5581e-06
6.97189e-06
0.0147565
-0.0107573
-0.00400053
-4.15382e-05
0.000214888
1.95811e-05
3.19123e-07
-1.99004e-05
-0.00104611
-0.00178217
9.60346e-05
-0.000153763
-0.0226033
-0.00221396
-0.00589396
0.0022287
-2.28854e-05
-1.31515e-05
0.00545816
0.0144083
1.37759e-05
-2.43305e-05
-0.000814264
-0.000189
0.00100327
4.84196e-06
-2.22286e-05
1.73862e-05
-0.000867697
-0.00268342
0.00355116
7.10618e-06
-3.23044e-06
-3.87564e-06
-0.00453075
-6.47457e-05
-0.00524834
-0.000971532
0.00621988
7.68572e-06
-7.78314e-06
-0.0033903
0.0023442
-0.00316532
0.00205697
0.00110834
-0.000618689
0.000648486
0.0386339
0.0101581
-0.0487921
-1.38507e-05
6.27213e-07
0.0493613
0.0288056
-0.0781668
-1.88619e-05
8.89039e-07
-7.03118e-06
1.28706e-05
-5.83976e-06
-9.66781e-06
4.88553e-06
4.78268e-06
-9.50653e-06
-8.93375e-07
1.03979e-05
-0.000168826
0.000131508
-0.000360332
0.000137855
0.000222475
0.00016561
-0.000409595
0.00024398
0.00040262
0.00068238
-0.00108501
-0.00169044
-2.4583e-06
1.49341e-06
-0.00317518
0.00329796
-0.000122757
-0.00702807
-0.0276107
-1.11913e-05
2.72467e-05
-2.99023e-06
5.39656e-05
-0.0248085
0.00220521
-0.0501135
-0.0228509
0.000314923
-0.000127
-1.3161e-05
1.14645e-06
1.20161e-05
-0.00454562
0.00367817
-0.000707973
-0.0093973
0.00553701
-0.000249198
-0.00242074
-0.000969561
4.20888e-06
-0.0129549
0.00303551
-0.0115323
-0.0203151
0.0309661
-0.062759
-0.0162799
-0.00549346
-0.009615
0.0151086
4.02126e-05
5.14492e-05
-0.013791
0.00829758
-0.000338171
0.000220013
0.000118149
2.715e-06
4.39149e-06
0.00635967
-7.89308e-05
-4.43038e-05
0.000210089
-0.00016578
7.28536e-05
-4.72001e-05
1.31212e-05
2.34624e-06
-1.54669e-05
-1.71001e-05
1.243e-05
6.47612e-06
1.3672e-05
-2.01483e-05
3.83802e-05
-0.0010184
0.00272502
-0.00159184
-0.00113318
0.0273922
-0.0143336
0.0128808
-0.00284256
-9.97433e-06
1.25298e-05
-2.5556e-06
-0.00307598
0.00323898
-5.33412e-05
0.000321592
-0.000268229
-0.0173126
0.0193454
-0.00203277
-0.0554573
0.0484294
0.000128126
-8.35071e-06
5.0056e-07
7.85001e-06
1.80184e-05
0.0127209
-0.00568591
-0.00703499
0.000653034
-0.00382825
-7.78379e-06
-2.57769e-05
0.000104225
9.07834e-05
-0.000195014
0.000284193
-0.000146503
-0.000137698
-1.30137e-05
1.08867e-05
-0.0045899
-0.000669915
0.0052598
0.048554
-0.001111
-0.047443
-0.00646735
-0.000726922
-0.000544749
-1.33132e-05
0.000558072
-1.68198e-05
-0.000152007
0.000157721
-0.000260824
0.000103093
2.64596e-05
-1.64275e-05
2.1639e-06
0.0405364
0.00625171
-0.0467878
-0.000153748
-4.0749e-05
0.000248788
-0.000208039
-2.05101e-05
-9.86861e-05
-0.00703191
-0.00203447
4.76651e-06
1.12949e-05
8.54216e-06
-1.98369e-05
-0.0116156
-2.94649e-06
-1.00672e-05
3.90424e-05
3.381e-05
-1.64847e-06
-3.09951e-06
1.09764e-06
-1.42803e-05
1.31825e-05
-0.0002092
-0.000128976
0.000730754
-0.00218436
-0.000265805
-1.14315e-05
8.48545e-06
0.00836149
-0.00509618
-0.0525183
0.0776533
8.5701e-06
5.31506e-06
-1.38851e-05
-3.31589e-06
6.49491e-06
-3.17842e-06
4.80376e-05
2.35884e-05
8.58619e-06
-0.00929277
-0.00144208
-0.0353942
0.0543532
-0.0662889
-0.00225996
-0.00713743
-0.038604
0.0879652
-6.59218e-05
-4.50097e-05
0.000110927
0.000168321
-0.000212623
0.000155671
-0.000170676
0.00138328
-0.000522068
8.61104e-06
0.000113401
-7.67643e-06
-6.73916e-07
-0.000521372
0.000323106
0.000145496
-0.000468593
-0.00157655
0.00153369
4.28577e-05
-0.0423011
-0.0259032
0.000206745
-0.000102522
2.85869e-05
3.89638e-05
-6.75502e-05
-1.53233e-05
3.07823e-07
1.50166e-05
-0.000149293
-0.00037953
0.000528832
-0.000411533
0.00026609
0.000145452
0.0548961
-0.0162623
0.000436798
-0.0001498
-0.000286998
-3.26807e-06
1.85727e-05
0.0014039
0.000159538
5.77331e-06
-7.15297e-06
3.44249e-05
-4.00005e-05
5.5793e-06
0.00114486
-0.000733208
1.79565e-05
5.02435e-06
-1.66346e-05
2.49722e-05
-0.00089125
0.000915262
2.89221e-05
-2.31606e-05
-5.76197e-06
0.000796313
0.00558656
-0.00192059
0.000796054
-0.000338067
-0.00035473
0.000664348
-0.00030961
-0.000225613
0.000184861
1.44828e-07
-1.54673e-05
-0.017374
0.0101356
0.00723843
0.00108399
-0.00764976
0.0053897
4.03442e-05
-1.9614e-05
-7.96476e-06
2.70743e-06
5.25729e-06
2.6308e-05
-0.000142803
-8.60322e-06
-0.000112237
0.000120838
0.00202818
0.00381186
-0.000145902
0.000243801
-9.79046e-05
-0.00240156
-0.00261365
0.00501534
-0.0370281
0.0067166
6.44779e-06
-6.44069e-06
0.000135547
3.52366e-05
5.01535e-05
1.65038e-05
-1.4226e-05
-2.27797e-06
-5.32961e-06
2.10038e-06
1.53196e-05
-1.4222e-05
-0.000287222
-0.00056228
0.0008495
7.27731e-05
-0.00106583
-0.00110603
0.00188376
-3.65376e-06
-7.77819e-06
-0.00769281
-0.00207264
0.00976545
-0.00809688
0.00109751
-0.00879035
-1.4685e-05
-7.73921e-06
2.24232e-05
-2.12048e-06
3.34953e-06
-1.22727e-06
3.64998e-06
-2.03489e-06
-1.61402e-06
0.000352718
0.00170097
0.00479951
-0.0125899
0.00779046
0.00020129
-7.14554e-05
-0.000129836
3.25049e-06
0.000134324
-9.90859e-05
-3.38907e-06
-1.50784e-06
-2.56577e-06
-9.69872e-06
1.22648e-05
-2.23681e-05
1.75597e-05
4.80817e-06
0.000248322
0.000288065
-0.000536408
0.00359388
0.0289277
-0.0325212
7.11567e-06
2.18072e-05
-9.66247e-06
6.00844e-06
-9.21565e-06
-2.91161e-07
-1.46397e-05
-7.72914e-06
0.0089691
0.00157919
-0.0105483
-0.00277382
0.00464159
-0.0018679
-0.000537554
5.60033e-05
0.00305899
-0.00311502
-0.0540816
0.0828872
8.90864e-06
-2.55433e-05
-0.000258715
0.00042433
0.0160953
-0.000145668
0.0243831
-0.0229923
3.50648e-05
-6.48331e-06
0.000179971
7.58992e-05
0.000125391
-0.000692286
0.0290398
-3.50791e-07
-0.0356815
7.12738e-07
-1.4279e-06
7.88893e-05
-3.94113e-05
-0.000184163
0.000252625
-2.05573e-05
2.3668e-05
-3.10917e-06
-5.31496e-05
2.98131e-06
5.01702e-05
-0.0113027
0.00427081
-1.28053e-05
5.77339e-06
-2.62138e-06
0.0308985
-0.000345208
-0.00433681
0.0143565
-0.0100188
0.00024487
0.000191924
0.000480755
0.0020952
0.0272484
-0.0033626
2.00057e-06
6.99537e-06
-2.16801e-05
0.00632718
0.0084275
0.000137033
0.000147158
-0.000524428
0.00387542
0.000131202
-0.000277108
9.19746e-06
-1.25988e-05
3.40213e-06
-9.26998e-07
-5.96733e-06
6.89486e-06
-4.82765e-06
0.0253649
-0.0639689
-5.47385e-05
-0.000167538
0.000222269
0.000221901
-8.51402e-05
-0.000136755
-3.99029e-05
-1.91506e-05
5.90568e-05
-0.0174809
0.0139837
2.39165e-05
5.89358e-06
-2.98084e-05
6.42117e-07
3.0085e-06
-0.00127477
-0.00210603
0.00338078
-0.0584191
0.017742
-0.000502954
0.000419526
8.34254e-05
8.53137e-06
3.03754e-05
-2.32605e-05
3.03183e-05
-0.000247319
0.000217005
-0.00296297
-0.000571437
0.00353452
0.000231377
-9.83801e-05
-0.000136202
-0.000275324
-0.000112391
0.000217262
-0.000104874
-1.8311e-05
-0.000799368
0.0185852
0.00379314
-0.000435284
-0.00335781
0.000501673
0.00151862
-9.77862e-05
5.41715e-05
4.36108e-05
0.00309463
-0.00189019
0.00140881
0.000481414
0.000815665
-0.000762581
-5.30698e-05
0.000134306
-0.000229826
-7.65753e-07
-7.19883e-06
-1.5884e-05
-3.51082e-05
7.69736e-05
-1.02691e-05
1.04144e-05
0.0030632
-0.00433799
0.000201923
-3.43677e-06
-0.000198485
0.000213377
-0.000533173
-0.00165119
-0.00875519
-0.000118531
-1.76409e-05
-0.0142
1.08579e-05
-1.65927e-06
-9.19815e-06
-0.00246561
-2.27913e-06
-3.04929e-06
1.36755e-05
-2.35994e-05
9.92446e-06
-1.58436e-05
6.84534e-06
8.99871e-06
-9.71243e-05
-0.000395227
-1.49434e-05
-2.25391e-06
-1.11541e-06
3.36974e-06
0.0253472
0.0138851
-0.0392324
-1.32305e-05
-3.19707e-06
-0.000213947
0.00024427
-2.10881e-06
-2.09533e-08
2.12991e-06
-2.8889e-05
-0.000363864
0.00039276
0.000236655
-0.000160262
-7.63969e-05
0.0134309
-0.00446186
-0.0631283
0.0203128
0.0428156
3.77864e-08
8.77711e-06
-8.81463e-06
-0.025393
0.00238411
0.00362744
-0.00357145
-2.66581e-05
0.000472641
-0.000280164
-0.000192482
4.30576e-05
3.58305e-05
-2.41207e-06
7.30354e-06
-0.00482853
0.00165514
0.0031734
-0.00187029
-0.000304792
-0.0116968
-0.0136962
0.000135048
-8.48382e-05
-5.02052e-05
-1.25402e-05
-5.44762e-06
-0.0531389
0.00180874
-0.00250911
0.000700365
-0.00422759
0.00381347
0.00041413
-0.000148695
0.000343578
0.000522225
-0.00535076
-9.96126e-06
-3.19846e-06
0.000311507
-0.00034039
-0.000170223
0.000139059
-0.016856
0.000525663
0.0163304
-1.8589e-06
0.00107311
0.0143471
7.21096e-06
2.31652e-05
-0.00081612
-0.000163947
-0.000102264
0.000266208
2.557e-05
1.12402e-05
0.000210662
-0.0190993
0.0124367
0.00666258
0.00116482
-0.000762208
1.65659e-06
-1.48884e-05
0.00435097
0.00123498
-0.00558605
-0.01104
-0.00633393
-0.00576956
-0.00111217
0.00688185
-0.0162736
0.0119373
0.000853468
0.000237337
-0.00109078
0.00636603
0.0264328
-0.0327987
0.000664456
0.000172532
-0.000836986
-1.26809e-05
-0.0014875
0.000608275
-0.00658264
0.00503325
0.00287436
9.0043e-07
-3.12003e-05
3.03015e-05
6.28426e-06
-6.10555e-06
-1.78987e-07
-0.000294434
0.000293533
0.0304729
-0.00224164
-0.0282312
-6.96958e-07
3.33014e-06
-2.63331e-06
-0.00203831
-0.00255294
0.00459111
-8.94074e-07
1.0092e-05
2.1623e-05
-1.82094e-05
-3.41439e-06
-0.000556976
-0.000271851
3.70982e-05
0.000234761
0.0314724
-0.00422401
1.32706e-05
3.23305e-06
-9.82732e-06
4.87352e-06
0.000255601
-0.00321866
-0.000188803
0.000437123
7.05703e-05
0.000178215
0.000138637
-0.000496161
0.000357528
0.0048126
0.00055446
-0.00617982
-0.000287524
-0.00536179
0.0101613
0.000134673
0.000200721
0.000103644
7.09162e-05
-4.88131e-06
1.9999e-05
-1.51572e-05
0.0016936
0.00644256
-0.000126183
9.39265e-05
3.22542e-05
8.71826e-05
6.92687e-05
-0.00370104
0.00392029
2.9273e-05
-0.00153393
-0.00280422
-0.0083267
0.00255726
-0.000277318
0.000223986
-4.98344e-06
2.28446e-05
-1.78619e-05
8.78544e-05
-4.84688e-05
-3.93872e-05
1.19656e-05
-3.39523e-06
-0.00073426
-7.65508e-05
2.34027e-05
-0.00504938
-0.0173615
0.0224109
1.22535e-05
-1.2253e-05
0.00012245
4.60917e-05
-0.000168543
-3.48903e-06
2.79209e-06
6.56111e-05
0.000171042
-2.03605e-05
2.00754e-05
2.85159e-07
-0.0046143
0.00424697
0.000367371
-8.64314e-05
5.64961e-05
3.13599e-05
0.000294799
0.000136927
-0.000139401
2.47055e-06
-0.00152451
0.00286713
-4.83738e-06
7.02818e-06
-0.000200556
-0.0106889
-0.0126686
0.00605919
0.0066094
-8.21025e-05
2.91758e-05
5.2923e-05
-3.14858e-07
-0.000271533
6.49719e-06
-3.73615e-05
0.0178697
-0.0124115
-2.38277e-05
-4.28822e-07
2.4257e-05
0.000213
-0.000122264
0.00344615
5.65337e-05
-0.000270478
0.0331284
-0.0267623
-0.00319605
-0.000505003
2.77397e-05
2.534e-06
-3.02707e-05
4.06917e-06
-0.000507023
1.22778e-06
1.10269e-05
-0.0148166
-0.0114008
-2.95866e-05
0.000194591
-0.000165
2.22161e-05
-1.04782e-05
-1.17376e-05
2.3125e-05
-1.29049e-06
-2.18341e-05
-0.00310522
0.0340128
-0.0865312
-0.0186049
0.0156098
0.00299499
-5.12884e-06
2.33929e-05
-1.82634e-05
1.36421e-06
-3.11529e-06
0.0340509
-0.0186203
-0.0154305
-7.97571e-05
-0.000178824
0.000649138
-0.000662449
0.000107926
2.71271e-05
0.000244653
6.94272e-05
-0.000314069
-0.0172217
0.0350915
0.0044166
-0.000589234
-0.00382738
-0.000367096
0.000203148
-2.35986e-06
1.05827e-07
-0.00012067
0.000785126
-1.21527e-05
4.30838e-06
7.84346e-06
1.15153e-05
-8.75529e-06
0.0121323
-0.000519994
3.22505e-07
-3.71093e-06
0.00301591
-0.0115299
0.00851399
0.0386117
-0.0291892
1.79668e-05
3.65611e-06
3.87847e-05
2.65868e-05
-7.18378e-05
0.000149392
-0.000126993
-2.23968e-05
-0.00123171
-0.00193371
-6.07819e-05
7.25343e-07
-0.0119126
-0.00718667
-1.40632e-06
-1.89542e-05
4.07469e-05
-6.1807e-05
-2.8204e-05
3.07399e-05
-4.51904e-06
-7.63352e-06
-1.01909e-06
1.62253e-05
-1.5207e-05
2.06596e-05
-2.69315e-06
-0.000165402
2.86632e-05
0.000136741
-1.85564e-05
1.88744e-05
-9.64639e-05
0.000172364
1.8712e-05
-2.36962e-05
7.12942e-05
-0.0069849
0.00110425
0.00125641
-0.00236065
6.09732e-06
7.84873e-06
0.0474217
-0.00688526
-0.00015935
-0.00406822
-0.000756278
0.000354632
0.000401634
0.000216591
-1.46665e-05
-0.000158156
0.000164196
-6.04396e-06
3.83559e-05
-3.38196e-05
-6.17824e-06
-0.00052216
-0.0022854
0.0193334
0.0120055
0.028272
-0.0402776
-0.00263027
-0.00229642
0.00492665
0.000273168
5.97534e-05
-0.000332916
-0.0104024
2.58261e-05
1.45206e-05
0.000171684
-3.47594e-05
-0.000163001
-0.0061683
-7.35941e-06
7.39709e-06
0.00610357
-0.00457195
-0.0015309
2.02214e-05
-1.3226e-05
1.44763e-05
0.0219395
-0.0107162
0.000471431
-0.000448939
-2.24946e-05
-0.000563049
-0.0018595
-2.03272e-05
-9.7447e-07
-0.000874015
3.82404e-06
-4.53371e-06
-5.29383e-06
0.000169635
-5.06876e-06
-0.000164564
2.57912e-05
9.27341e-06
-7.07916e-05
0.000205092
-1.98849e-05
9.40625e-06
-0.000639803
0.000450998
2.94207e-05
0.0043872
0.000171183
-0.00313172
0.0029605
0.00537653
0.00898059
1.59047e-05
-2.80283e-07
1.11385e-05
0.000357475
0.00060325
2.04734e-05
-1.39972e-05
-8.89299e-06
-0.000113974
-0.000160463
0.000274431
-1.35343e-05
1.04359e-06
1.2492e-05
1.42176e-05
-1.39315e-05
-2.83959e-07
5.12365e-06
-4.50254e-05
7.71256e-07
-3.58897e-06
-0.000273804
-0.0238596
0.0274538
-0.0105401
0.00184042
-0.00124798
0.000370949
4.84253e-05
-0.000419387
1.64195e-05
-5.12438e-06
0.0519244
-0.0599399
0.00801544
-1.84421e-05
4.70284e-05
-6.70446e-06
0.0507119
-0.0130554
-0.0376566
-0.016445
0.00680822
0.00963685
-0.0271323
-0.0256377
0.0527703
-1.56168e-05
-1.68303e-06
-0.0326632
-0.0155779
-0.0302578
0.0642706
-0.00315004
0.00530824
-0.00215836
2.39437e-06
5.27907e-06
-7.67279e-06
0.00189759
-0.00163607
0.000180952
-0.000184391
-1.38647e-06
2.53021e-05
-0.000225538
0.000395171
-2.77958e-07
-1.22841e-05
1.25628e-05
-0.0156998
0.0176026
-0.00190272
0.00196392
-0.013004
-0.0114536
-1.36625e-05
-6.89299e-06
1.5029e-05
2.6886e-06
-1.77179e-05
-0.0477875
0.0167896
-2.08735e-05
-2.95305e-06
-0.00920431
0.0146488
-0.0318705
-0.0126001
-0.00387439
0.0164745
-0.00179706
0.000992444
0.000804593
0.00309182
0.0119798
-0.0150717
3.96514e-06
2.31897e-06
-1.01804e-05
1.83649e-05
-8.18552e-06
-0.00455912
-0.00189238
0.00645158
0.00171203
-5.39403e-06
-3.39466e-05
2.4605e-05
9.33803e-06
-0.000821145
-6.06915e-05
0.000333859
-1.25994e-05
-9.35812e-07
0.000420961
-0.000176311
0.0201038
-0.0180949
-0.00200846
2.94482e-06
1.12733e-05
0.000471041
-0.000658306
0.00068869
9.66802e-05
-0.000785382
-0.0322722
0.0174556
0.000829329
0.000193665
-0.00102299
3.607e-06
-4.53364e-06
-1.36541e-05
1.5128e-05
-1.47489e-06
-2.92234e-05
5.62914e-05
-2.70665e-05
-0.0175239
0.0405954
-0.0230716
0.051321
-0.0424624
-0.00885855
8.08739e-06
-5.69288e-06
-9.4889e-06
9.48928e-06
-7.89648e-06
-5.76408e-06
-6.65016e-05
-0.000287648
3.99682e-06
-9.06073e-06
5.06407e-06
-4.64863e-06
-3.24658e-06
1.37515e-05
-3.18907e-05
7.3446e-05
-0.000121011
4.75651e-05
0.000205303
-0.000260046
0.00220286
-0.00147668
0.000609619
-4.09543e-06
-1.1748e-05
-4.26032e-05
-8.35803e-05
0.000707077
0.00249016
-0.00319723
-1.74319e-05
1.43958e-05
0.00326317
0.00541241
-0.00658848
0.00117609
-8.73158e-05
0.000220854
-0.000133543
4.03561e-06
-4.58244e-06
5.45853e-07
-0.000102269
-7.932e-05
1.51264e-05
-2.00502e-06
2.5582e-06
2.28581e-06
-4.69124e-05
1.76924e-05
-0.000300821
0.000300512
3.28148e-07
-0.000245124
4.61948e-05
0.0100473
-0.00223032
-2.58283e-05
-0.0182802
-1.50432e-05
-1.00652e-06
1.60478e-05
9.60698e-07
1.35986e-06
-2.23414e-05
2.35779e-05
-1.23535e-06
0.050886
0.00103838
-0.0183636
-0.0201273
0.038491
6.17673e-06
1.61897e-06
0.000116095
-4.26501e-05
-0.000160127
0.00531086
0.000147842
-0.000129467
-1.83753e-05
1.16324e-06
8.28053e-06
0.020937