/*--------------------------------*- C++ -*----------------------------------*\
| =========                 |                                                 |
| \\      /  F ield         | OpenFOAM: The Open Source CFD Toolbox           |
|  \\    /   O peration     | Version:  v2012                                 |
|   \\  /    A nd           | Website:  www.openfoam.com                      |
|    \\/     M anipulation  |                                                 |
\*---------------------------------------------------------------------------*/
FoamFile
{
    version     2.0;
    format      ascii;
    class       volScalarField;
    location    "150";
    object      nut;
}
// * * * * * * * * * * * * * * * * * * * * * * * * * * * * * * * * * * * * * //

dimensions      [0 2 -1 0 0 0 0];


internalField   nonuniform List<scalar> 
13851
(
0.000447364
0.0159656
0.000545827
0.000447106
0.000545177
0.000300706
0.000451007
0.000480044
0.000437283
0.000587134
0.011354
0.0196075
0.00905299
0.0163102
0.000449678
0.000462295
0.000453485
0.00045455
0.00504184
0.000437277
0.000446801
0.000539147
0.000431577
0.000441506
0.000431826
0.000481125
0.000453479
0.000570783
0.000447263
0.000450611
0.000713111
0.000453931
0.000536355
0.0108768
0.000441232
0.000859112
0.00422381
0.00131123
0.000622562
0.0115571
0.000444346
0.000427374
0.00259721
0.0103695
0.0095148
0.00867467
0.00875426
0.00111595
0.000453774
0.000613229
0.000527341
0.00070848
0.00538867
0.000449252
0.000446587
0.000427387
0.00043514
0.00838548
0.000450573
0.000450411
0.00168875
0.0082758
0.00053377
0.000578701
0.0010706
0.000449516
0.00547865
0.00886775
0.000464625
0.000454557
0.00221896
0.00770423
0.0172968
0.000449468
0.000443421
0.000437567
0.000531295
0.00340748
0.00048086
0.00284318
0.000450294
0.0121827
0.000447987
0.00764687
0.000478362
0.0197336
0.000395194
0.0109359
0.000454443
0.000433566
0.00086251
0.000454397
0.00912662
0.000457183
0.000454083
0.000439387
0.000549644
0.0112301
0.000824185
0.000438628
0.0112754
0.000485267
0.000446707
0.000453979
0.000424765
0.000159214
0.000494398
0.000426827
0.0101242
0.000186164
0.000440948
0.000433386
0.000454102
0.000459103
0.000440915
0.0158011
0.0116661
0.000427314
0.000445986
0.000448622
0.002376
0.00045387
0.00965941
0.0117892
0.000713197
0.000433684
0.000310636
0.000483477
0.000446273
0.000708944
0.000444522
0.000439295
0.00325149
0.000448127
0.0159205
0.000439514
0.000427432
0.00742705
0.0120703
0.0160035
0.0115696
0.00044563
0.000440822
0.000428736
0.000450946
0.0110128
0.000403508
0.000713115
0.000450965
0.00951834
0.000531938
0.000446637
0.0156453
0.000434991
0.000451384
0.000450594
0.000441124
0.000449402
0.000706441
0.00052538
0.000426391
0.00045748
0.00852075
0.000438899
0.000455464
0.000428336
0.000412247
0.000464733
0.000446174
0.00428829
0.00247031
0.000434901
0.00044129
0.0165908
0.000439063
0.00236495
0.000480999
0.000441197
0.00595637
0.000426704
0.00045441
0.00833584
0.000448335
0.000553709
0.000426108
0.000435099
0.000449329
0.000444065
0.000573156
0.000573183
0.00889668
0.00703225
0.000433898
0.000464445
0.0091986
0.000451016
0.000440506
0.0114668
0.000440981
0.000438008
0.000433934
0.00625253
0.000460747
0.000446145
0.000526906
0.000448357
0.0165082
0.000453712
0.00920374
0.000426388
0.012671
0.000446825
0.00782699
0.000426434
0.000428392
0.0118053
0.000523434
0.00983895
0.000449081
0.00980019
0.000454114
0.000450426
0.0123225
0.000693899
0.0129408
0.00043377
0.000459209
0.000424243
0.0099376
0.000426416
0.000479067
0.000125432
0.000435061
0.000433923
0.000510222
0.000477919
0.0155572
0.00624863
0.00042866
0.000446386
0.000530549
0.000734823
0.000427234
0.000543161
0.000428744
0.0125217
0.000487637
0.0112279
0.000450563
0.000453726
0.000450992
0.000457099
0.000449093
0.000450914
0.000487633
0.00396398
0.000557774
0.00801184
0.000283881
0.000450127
0.000428471
0.0004531
0.0172877
0.000430421
0.00792375
0.000450994
0.000449146
0.000456264
0.0121375
0.000306059
0.000450662
0.000451315
0.00446975
0.00047754
0.000460858
0.000439161
0.0119301
0.00191714
0.0131114
0.0116066
0.000427065
0.000426226
0.000425582
0.000484091
0.0174115
0.00431877
0.000437423
0.000450805
0.00702233
0.0126667
0.000896124
0.000449944
0.00044981
0.000467149
0.012442
0.00737023
0.000454845
0.0198243
0.000439363
0.0126613
0.000456695
0.000452835
0.0130189
0.000446442
0.000195303
0.0124674
0.000437709
0.000475974
0.000456954
0.000449911
0.0104336
0.000455357
0.00044884
0.0122168
0.000427851
0.000454322
0.000435322
0.0129345
0.000660756
0.00044904
0.000488101
0.000449556
0.00142427
0.000480376
0.000433273
0.0004414
0.000652123
0.00045799
0.00045153
0.000450809
0.000446546
0.000448546
0.0106594
0.0100756
0.00546253
0.000457803
0.0128543
0.0105277
0.000449386
0.000464763
0.000923353
0.000450109
0.00050427
0.000653948
0.00574523
0.000446038
0.0113286
0.0125428
0.000449699
0.000350405
0.000372912
0.00436704
0.000451505
0.000473307
0.0102914
0.000441378
0.00866527
0.000441381
0.000449932
0.000427857
0.00042676
0.000441089
0.0126604
0.0060613
0.000446809
0.000473202
0.000427826
0.0193411
0.000469405
0.00444602
0.00538172
0.000446844
0.000570586
0.000457037
0.00375405
0.000444016
0.000427486
0.00044855
0.00826923
0.000444015
0.0115894
0.000455117
0.000672574
0.00289979
0.00197791
0.00103731
0.000447156
0.000440067
0.000450621
0.000455775
0.000486982
0.0164105
0.000464731
0.0129215
0.0125174
0.000427882
0.000450137
0.00450231
0.00411011
1.6607e-06
0.0119524
0.000455857
0.00045813
0.000438282
0.00984087
0.000436014
0.000461629
0.000444961
0.000450179
0.000425305
0.000437448
0.000428159
0.000571357
0.000483332
0.00301852
0.000454911
0.000492985
0.000461471
0.000895273
0.00045479
0.00550515
0.000452886
0.0120248
0.000427297
0.000437489
0.000436596
0.0032355
0.00938815
0.00067853
0.000458275
0.00178572
0.0108239
0.000584341
0.000447976
0.000513389
0.00044412
0.00417103
0.000427919
0.0101099
0.011707
0.000525949
0.00805783
0.000441091
0.00148768
0.0113545
0.00508206
0.000426248
0.000459298
0.000482916
0.000452499
0.000435852
0.000448284
0.000521611
0.000672576
0.000460298
0.0179961
0.000433998
0.000441431
0.00693332
0.000456676
0.000426069
0.011386
0.000439934
0.000447396
0.000436694
0.000471307
0.000448985
0.000426445
0.000440896
0.0121639
0.000447891
0.000467353
0.000439616
0.000452053
0.00779041
0.000463986
0.000443605
0.000451622
0.000451299
0.00643572
0.00044925
0.000362773
0.000448367
0.00043672
0.0143685
0.00725646
0.000448669
0.000454124
0.000455343
0.00124782
0.00866247
0.00044183
0.0053075
0.000444345
0.00054574
0.000450186
0.0111666
0.000427293
0.00466051
0.000550882
0.000427544
0.000453325
0.00833437
0.000480855
0.00771784
0.000445001
0.0093718
0.000447817
0.00043838
0.000439045
0.000450688
0.00613568
0.0005114
0.000694103
0.00520967
0.000559121
0.0004266
0.0108526
0.00922806
0.000454871
0.000457352
0.00148844
0.0118691
0.0123789
0.000450929
0.0113813
0.00776907
0.00772377
0.000455969
0.000454317
0.0110108
0.00191569
0.00265986
0.00998052
0.013275
0.000449835
0.0130238
0.00883517
0.000427225
0.00149821
0.000515337
0.00495187
0.000450888
0.000446614
0.000441029
0.000445278
0.000567869
0.000470508
0.0094372
0.0183786
0.000437971
0.0055594
0.00787427
0.00188396
0.010349
0.000466573
0.000426127
0.000437276
0.00114479
0.0112802
0.000451484
0.000566454
0.000876724
0.000427259
0.000469176
0.0125282
0.00219769
0.000653396
0.00678439
0.00884139
0.000444266
0.000450449
0.0146293
0.0124148
0.00068445
0.000464703
0.000392303
0.000426789
0.00044445
0.0102288
0.0004272
0.000450562
0.000426605
0.0004406
0.00920336
0.000568081
0.000455532
0.000427121
0.0106673
0.0112675
0.000439804
0.000433622
0.000430848
0.000450362
0.00764883
0.010253
0.0094309
0.00826393
0.00707569
0.000462877
0.00307236
0.00793404
0.000446805
0.000464704
0.000426086
0.000435086
0.000464416
0.0119216
0.0145804
0.000564185
0.000458061
0.000436999
0.000461447
0.000440262
0.00781338
0.000527367
0.000448432
0.000459332
0.000435602
0.000456208
0.000693906
0.000450245
0.000443865
0.000469722
0.000449151
0.000547882
0.00227843
0.000677679
0.000462147
0.000696106
0.000437169
3.86342e-05
0.00045865
0.00907591
0.000446668
0.000438853
0.00961339
0.000449392
0.00308117
0.0124402
0.0108478
0.0113674
0.000435877
0.00841748
0.000427217
0.000440363
0.000427163
0.000440572
0.000424878
0.000455184
0.000469313
0.000427068
0.0110336
0.000565664
0.011363
0.000440496
0.000426959
0.000431053
0.000762281
0.0100495
0.000489306
0.000456537
0.000427341
0.000437587
0.000439138
0.000440872
0.00275666
0.0157524
0.000449249
0.00042698
0.000450975
0.000441181
0.0063331
0.00799002
0.000462468
0.0103847
0.01101
0.000443919
0.000690622
0.00657764
0.000466416
0.0196531
0.000450168
0.000452995
0.000488001
0.000453007
0.00834253
0.000448592
0.0119447
0.00042943
0.00046095
0.00942644
0.000437276
0.000448359
0.000474533
0.000438191
0.000453864
0.0147472
0.0171588
0.000523587
0.00689439
0.00571055
0.000426598
0.000440396
0.014105
0.000796149
0.000481151
0.0125592
0.000435541
0.000463026
0.000427351
0.00676727
0.00591198
0.000452849
0.000445215
0.0087029
0.000453323
0.000430821
0.00528614
0.00766615
0.0102033
0.000427612
0.000449224
0.00334856
0.00358591
0.000764852
0.000439857
0.0108494
0.000448286
0.0113673
0.000768129
0.000536157
0.000453049
0.0103041
0.000448909
0.000439527
0.00343169
0.000438825
0.000471796
0.000449026
0.000436852
0.0064716
0.000461331
0.000654686
0.000454524
0.00367879
0.000437246
0.0152813
0.000443409
0.000449055
0.000427348
0.000443711
0.000442605
0.0123292
0.000441118
0.000427753
0.00043695
0.000450415
0.00532698
0.000428292
0.000440462
0.000521119
0.00865835
0.01086
0.000437584
0.000463393
0.0109247
0.00044924
0.0124464
0.000460349
0.000436569
0.000341288
0.00351646
0.00105993
0.000453826
0.000438185
0.000426976
0.0105586
0.000561428
0.000499188
0.000453898
0.000353739
0.000450197
0.000440165
0.000563279
0.00488381
0.000567068
0.0168494
0.00044927
0.00054865
0.000554555
0.0127997
0.000452758
0.0183326
0.00456529
0.000450699
0.00454525
0.000160135
0.01069
0.0173164
0.0120308
0.00291428
0.00047211
0.000436899
0.000454917
0.00874483
0.00600839
0.000440411
0.00043605
0.000515332
0.00904331
0.00042784
0.00545335
0.000435611
0.000447233
0.00737499
0.00334519
0.0055514
0.000440025
0.000450085
0.00469233
0.00233568
0.000659453
0.000444746
0.00816472
0.00205186
0.0108468
0.000492941
0.000472438
0.000448626
0.000450136
0.0178887
0.000483835
0.0034965
0.000466179
0.000464695
0.00626855
0.010302
0.00645423
0.000449123
0.000460862
0.000439587
0.000463158
0.00044799
0.0192267
0.000470501
0.0109749
0.000427863
0.000517811
0.000444288
0.00185009
0.00046353
0.000460736
0.0105864
0.000475749
0.000475522
0.000441262
0.000517557
0.00230135
0.000279905
0.000450541
0.00253115
0.000430433
0.016917
0.00410222
0.000447953
0.0127755
0.00975195
0.0061611
0.00541474
0.00046283
0.000441172
0.00961548
0.000462563
0.0150111
0.00930419
0.000440707
0.000452103
0.00257757
0.00896843
0.0182417
0.000448562
0.000434215
0.0166764
0.00928492
0.000655503
0.000453211
0.000444215
0.00430035
0.0100161
0.000562124
0.000427779
0.000472418
0.000438448
0.000448825
0.000524084
0.000438283
0.00915033
0.00809045
0.000447259
0.000441002
0.000441089
0.000449401
0.00291283
0.00773809
0.000459084
0.0180383
0.000444353
0.000459173
0.000440767
0.000438862
0.000446873
0.000447009
0.00567493
0.000448583
0.000487899
0.00044914
0.000453789
0.000430837
0.00340787
0.000445015
0.0145013
0.000504888
0.00540218
0.000461874
0.000462583
0.00232486
0.000456009
0.000472515
0.0194534
0.0109804
0.00555804
0.000471878
0.00993009
0.000446631
0.000473077
0.000487557
0.0182151
0.0004383
0.0168693
0.000440233
0.000440654
0.0168754
0.000432644
0.00756126
0.000453382
0.000439346
0.000462653
0.000439627
0.000450266
0.00042812
0.000450225
0.00229493
0.000440861
0.00239924
0.00980277
0.00050834
0.0169417
0.000450204
0.000444646
0.000434555
0.000445305
0.000439453
0.000544758
0.000451454
0.00043821
0.000445701
0.00043473
0.00546366
0.0150326
0.000366795
0.0118401
0.00311107
0.000444241
0.0159013
0.000457949
0.000440896
0.0105256
0.000437147
0.0126891
0.000443722
0.00918947
0.00697703
0.0110803
0.000435475
0.00923117
0.000459952
0.000453096
0.000428163
0.000435722
0.017527
0.000623653
0.00664752
0.000437574
0.00044752
0.000268178
0.000448146
0.0072127
0.00291293
0.00610734
0.00588324
0.00989133
0.000436578
0.000446133
0.000544908
0.000452394
0.000453783
0.000922372
0.000474207
0.000451461
0.00044376
0.0130558
0.000438182
0.00543467
0.00728825
0.0152751
0.00141179
0.000452143
0.000429899
0.000444779
0.00821662
0.00746092
0.000435548
0.000467431
0.000436974
0.000540083
0.000428418
0.000437225
0.000450357
0.000462821
0.0050929
0.000475722
0.000459453
0.000443075
0.000488107
0.00876887
0.000452202
0.00371984
0.00828167
0.000547204
0.00042893
0.000477215
0.00044639
0.000433611
0.00044497
0.00347592
0.000662162
0.00817555
0.000453892
0.0114411
0.000447286
0.000423635
0.000445908
0.0159406
0.000533482
0.000426277
0.000462505
0.00050356
0.00722889
0.000451908
0.00927373
0.000425239
0.0156536
0.000547172
0.0120242
0.000567346
0.000544765
0.00305952
0.00851105
0.0102665
0.0059612
0.000433986
0.000983453
0.000428257
0.000450892
0.000455879
0.000448668
0.00839291
0.000458476
0.000457079
0.00487684
0.00113595
0.00412514
0.000449289
0.000452913
0.00045349
0.000430134
0.000456589
0.0153869
0.00529144
0.0183743
0.00044279
0.000456387
0.000445376
0.0125324
0.0120563
0.000555053
0.000429731
0.000451492
0.0114716
0.000478847
0.0151237
0.0112283
0.000299853
0.000428783
0.00805665
0.000455281
0.000476861
0.000458025
0.0125671
0.00734129
0.000673775
0.000549034
0.000446915
0.000450339
0.000447515
0.00500599
0.000482344
0.00775715
0.00766953
0.000455883
0.000754393
0.000450548
0.0125202
0.00262355
0.000429585
0.0063642
0.0100179
0.00786043
0.00984269
0.000446308
0.000446057
0.00316563
0.00916952
0.0107476
0.000450848
0.000450708
0.00044704
0.00564995
0.000720603
0.000450016
0.000819046
0.00057521
0.0156901
0.0078557
0.00478951
0.000449536
0.0103583
0.000453592
0.000443382
0.00071923
0.00928571
0.000450788
0.000440021
0.00251484
0.0123721
0.000433078
0.000442565
0.016498
0.000429543
0.00135794
0.000443072
0.0131502
0.000445824
0.000489792
0.0170515
0.0120829
0.000450963
0.00311533
0.0103154
0.0113216
0.00721732
0.0163637
0.000273855
0.000445229
0.00751804
0.000454377
0.000449603
0.000429934
0.0121486
0.000443662
0.00330505
0.000440163
0.000439991
0.00322941
0.000518615
0.00840004
0.000450634
0.000432263
0.000439112
0.000463019
0.00775492
0.0137464
0.000439418
0.000515629
0.00967072
0.000445881
0.000435824
0.00968138
0.000464634
0.000464203
0.000692099
0.0151534
0.000777433
0.00712448
0.00933058
0.000223428
0.0120326
0.00896775
0.00536008
0.000515701
0.000427192
0.000683196
0.000444967
0.000443796
0.0131909
0.00959522
0.000448773
0.0144901
5.41058e-05
0.00498567
0.00129866
0.000228114
0.000444827
0.000208183
0.000366631
0.00043289
0.000451082
0.0125273
0.0110246
0.00947048
0.0121965
0.00046827
0.0117981
0.0126488
0.000462404
0.000446937
0.000442015
0.0122748
0.000442622
0.00251253
0.000447831
0.000450563
0.000448746
0.009238
0.0126413
0.0119629
0.000444931
0.00828295
0.000452228
0.000457028
0.00044309
0.000429852
0.00748729
0.000455405
0.00801307
0.0182913
0.000572656
0.000648241
0.000450924
0.000470625
0.000446913
0.000721532
0.000441175
0.00045069
0.000445054
0.000445838
0.00075945
0.00045091
0.000464852
0.000433151
0.000465262
0.00324273
0.00310488
0.00044165
0.000482789
0.000422369
0.000324406
0.000431847
0.0109661
0.00181752
0.000461992
0.000453196
0.000451406
0.0017513
0.0004446
0.0046917
0.000450577
0.000437443
0.000440174
0.0122346
0.000455947
0.000448524
0.000452669
0.000430026
0.00050927
0.0120155
0.00744438
0.000466292
0.000447797
0.00037146
0.000427083
0.00043905
0.00121524
0.0110856
0.000428473
0.00045811
0.000608913
0.00856637
0.000450299
0.000450457
0.0103584
0.000450597
0.00039536
0.00337676
0.0124171
0.000445868
0.000430674
0.000446372
0.0128761
0.00068821
0.000473884
0.000657645
0.0123292
0.000451524
0.0121196
0.0166695
0.000444651
0.00963328
0.000547291
0.000449869
0.00687509
0.000449296
0.000441056
0.000435514
0.0010625
0.00066681
0.000796967
0.000450125
0.00045228
0.000460502
0.0102559
0.00379827
0.0125586
0.010239
0.000451096
0.000690053
0.000714433
0.00771853
0.000537384
0.00970659
0.000443056
0.000451948
0.000436052
0.00243176
0.000466262
0.000446373
0.0128905
0.00129981
0.000462261
0.000449955
0.000426377
0.000429779
0.000490792
0.000463835
0.00043791
0.000516186
0.000518434
0.000502787
0.000667284
0.0191378
0.000310794
0.0126321
0.000441534
0.00043866
0.00179086
0.0124651
0.00633538
0.000402151
0.000442001
0.00325799
0.0105797
0.000437856
0.00045605
0.000441173
0.000473193
0.000522715
0.000446834
0.0070815
0.0031384
0.000451299
0.0105361
0.00236216
0.000449816
0.000562993
0.0121322
0.00702859
0.00045283
0.000532315
0.000426315
0.000451033
0.000433397
0.000453066
0.0128932
0.00877658
0.00472737
0.00337797
0.00045212
0.000462841
0.000491305
0.000429928
0.000444755
0.00043591
0.0118074
0.00044235
0.0122261
0.00046649
0.000506385
0.000972584
0.00179579
0.0040282
0.00899249
0.000472489
0.000427942
0.000432007
0.00854705
0.00678554
0.000453701
0.000440626
0.000434875
0.000511012
0.000459124
0.000738878
0.0166571
0.000452446
0.000435414
0.00066062
0.000390056
0.00274117
0.0176068
0.000442598
0.00052749
0.000444708
0.0131196
0.00042863
0.0121469
0.000430559
0.000452471
0.00045734
0.000450733
0.000369332
0.000459523
0.000480748
0.00978465
0.011367
0.000454287
0.000459157
0.000444827
0.00878397
0.011337
0.000439765
0.000429396
0.0100119
0.000427109
0.00654582
0.000428718
0.000461282
0.000525793
0.00990219
0.000468515
0.000445407
0.00045117
0.000521567
0.0125484
0.000445176
0.00145885
0.0121938
0.0166263
0.00652528
0.000461792
0.00575128
0.00045583
0.00210621
0.000447384
0.0108076
0.0112129
0.00748631
0.010587
0.0187766
0.000433356
0.000335083
0.000439799
0.00174207
0.0098269
0.0124042
0.00949779
0.000455002
0.0182115
0.00497637
0.000463718
0.000448256
0.000450194
0.00788582
0.000453754
0.000520784
0.000461574
0.000445658
0.000438667
0.000447524
0.0115679
0.00208903
0.000459812
0.0116398
0.00794087
0.000432638
0.000447511
0.000435345
0.000450607
0.0118135
0.00236274
0.000453201
0.00046808
0.00052653
0.000545131
0.000477295
0.00376937
0.000459238
0.0127832
0.000460738
0.00045549
0.000447283
0.000461094
0.000524063
0.00564242
0.0112537
0.00918597
0.000526161
0.00496539
0.000443939
0.000453152
0.00043039
0.00489195
0.0122158
0.00987363
0.000590364
0.000452473
0.000447795
0.00044128
0.000450434
0.000436198
0.00440449
0.000458002
0.00567839
0.000460723
0.0110971
0.0120789
0.0126387
0.000473613
0.000455501
0.0108937
0.000469409
0.00316918
0.0086417
0.000438013
0.00050938
0.000456152
0.00433077
0.00425177
0.000464002
0.000871068
0.0110982
0.000446854
0.000489425
0.000460909
0.0104212
0.00690327
0.00045284
0.000450993
0.0118016
0.00797928
0.000696301
0.0121626
0.000685282
0.000451094
0.000438482
0.0184241
0.010586
0.000549794
0.000460991
0.011785
0.0164473
0.000439948
0.000449078
0.000452913
0.0124796
0.0122861
0.000448441
0.00494364
0.000451109
0.000442015
0.000446766
0.00386713
0.00295785
0.000376993
0.00581846
0.000448307
0.000450201
0.000442122
0.00447273
0.000447156
0.0045412
0.000447811
0.0139015
0.000451245
0.000444879
0.000672017
0.00397823
0.0107319
0.000465353
0.0101399
0.000426736
0.000448567
0.000449099
0.000477391
0.00051185
0.000511522
0.000465673
0.0117326
0.00045327
0.000636634
0.000260696
0.0190372
0.000440687
0.00735251
0.00989628
0.0004554
0.00451019
0.000512495
0.0115918
0.000448849
0.000520528
0.000438482
0.00225398
0.00220483
0.000550136
0.0126958
0.000448859
0.000483272
0.000447937
0.0055585
0.000428348
0.000440909
0.0110049
0.000579338
0.0128765
0.00773858
0.000509489
0.000457425
0.000435274
0.0183119
0.000455967
0.000433433
0.000734369
0.000427759
0.000476362
0.000447501
0.0163532
0.000447333
0.0100022
0.0126677
0.000456728
0.00106726
0.000492358
0.013147
0.000443628
0.0146869
0.0178603
0.00043787
0.00044801
0.000450076
0.000451285
0.000470473
0.000441475
0.000797421
0.000535536
0.0105274
0.000294318
0.000444592
0.000449793
0.000434658
0.00936169
0.000448595
0.000444624
0.00318209
0.000453743
0.0129637
0.0126011
0.000563258
0.000448442
0.000462782
0.000450271
0.000450962
0.000428731
0.000429608
0.000453712
0.0060369
0.0125991
0.00511789
0.000449768
0.00841833
0.000843286
0.000451345
0.00725941
0.0119557
0.000448699
0.000452925
0.000448554
0.00954131
0.0117525
0.0153469
0.000429447
0.000452459
0.000444286
0.000450757
0.00070022
0.000445714
0.000342179
0.00388861
0.0124948
0.000437513
0.000453262
0.000453699
0.0102537
0.00042621
0.0117678
0.00574916
0.00240293
0.0122464
0.00493119
0.015074
0.000444199
0.0143198
0.000763044
0.000452038
0.000435366
0.000441047
0.0126331
0.00670357
0.00942104
0.000431625
0.012823
0.000448572
0.000894819
0.000432869
0.000450484
0.000451372
0.000437699
0.011573
0.000452479
0.0174358
0.0167192
0.0116666
0.000480801
0.000488244
0.0116775
0.0124983
0.000441663
0.00305924
0.000434823
0.000427453
0.000447525
0.00043154
0.000433492
0.0103856
0.000454842
0.00417257
0.000466521
0.00639738
0.0115214
0.000601946
0.00043747
0.000491921
0.00053893
0.0114784
0.00044059
0.000426118
0.000448885
0.0117338
0.000442984
0.0126895
0.0101945
0.000473154
0.00050497
0.00044131
0.0137414
0.000450155
0.0120979
0.00043369
0.00486819
0.000461747
0.00044933
0.0105155
0.0112802
0.00043263
0.000512407
0.000452513
0.00855839
0.000360375
0.000933625
0.00339409
0.000449825
0.000491627
0.0103596
0.000433694
0.000399238
0.00044386
0.000536876
0.000462942
0.00585199
0.00767431
0.000449035
0.0073137
0.000450932
0.000477187
0.0119779
0.0100732
0.0004646
0.00857675
0.00171649
0.000451188
0.0129083
0.000684922
0.000460948
0.000452242
0.0112746
0.000432776
0.00278667
0.00110682
0.000641208
0.000449226
0.000457487
0.00765524
0.000477646
0.0108157
0.00045087
0.000452444
0.00155976
0.0114071
0.000456452
0.0126047
0.00636617
0.0106695
0.000446173
0.0111935
0.007582
0.011209
0.000449602
0.000432902
0.000442557
0.0126918
0.000458422
0.0134781
0.0128757
0.000449352
0.000431178
0.000448995
0.0110287
0.0077032
0.0122467
0.0116772
0.000442168
0.00883395
0.0122067
0.000693718
0.00749738
0.00846009
0.000464923
0.00241904
0.000452957
0.000456108
0.0090782
0.0100332
0.000434817
0.0133503
0.000445313
0.000448688
0.0167777
0.0075855
0.0118926
0.00177381
0.000459811
0.00044991
0.00044943
0.0119201
0.0109326
0.000445421
0.000480212
0.00395522
0.000449338
0.00044796
0.011439
0.00833511
0.000450091
0.000450177
0.000451958
0.000448037
0.00226928
0.000451176
0.000438994
0.000453245
0.00170271
0.00539867
0.00270501
0.0102233
0.000449006
0.000451833
0.0102595
0.0123721
0.00045581
0.000122193
0.000448886
0.000466288
0.000445328
0.000435071
0.000518706
0.000438692
0.0175084
0.000461196
0.000437977
0.000451488
0.00834841
0.0187602
0.00618165
0.000449368
0.00046406
0.0124402
0.00616171
0.000453267
0.000440831
0.000450909
0.0121357
0.000447957
0.000439933
0.000456109
0.000447704
0.0102064
0.000559291
0.000449336
0.000452345
0.000429224
0.000446038
0.0190445
0.0027644
0.000523962
0.0085734
0.000403876
0.000450029
0.000448508
0.00044906
0.000442596
0.000449894
0.000453011
0.000529991
0.0119344
0.000443606
0.000634789
0.00633837
0.0015216
0.000444369
0.000441197
0.00045317
0.014476
0.000442501
0.00500102
0.00392094
0.000497541
0.000437198
0.00247981
0.000428552
0.000501082
0.000433009
0.000428763
0.00044352
0.000436311
0.000456564
0.00974371
0.000616927
0.000469576
0.0164805
0.000816599
0.00130242
0.000462285
0.00761518
0.00830212
0.000630914
0.0121996
0.0115492
0.000647903
0.0139042
0.000450971
0.000433259
0.018271
0.00044227
0.000452196
0.0173707
0.000394554
0.0190553
0.00219124
0.00043857
0.000431398
0.000447849
0.000352015
0.000432682
0.000260382
0.0135706
0.0117823
0.0134681
0.000447523
0.0004327
0.000526748
0.0155086
0.0101359
0.000667142
0.00517032
0.000441165
0.00607107
0.00754986
1.45618e-06
0.000449752
0.000447552
0.000426737
0.000448853
0.000444555
0.000443564
0.00045239
0.00972358
0.000538435
0.00790949
0.000354085
0.00590116
0.000865066
0.000447364
0.000433563
0.000438918
0.000433197
0.000451006
0.0041587
0.0103187
0.0142448
0.0128576
0.000453255
0.0117382
0.000700228
0.0126093
0.00911676
0.000445955
0.000436734
0.000601256
0.000447024
0.000432475
0.00835167
0.0101698
0.00707854
0.000448057
0.000448355
0.000443583
0.000468307
0.00828038
0.000435144
0.000448915
0.00434437
0.000427914
0.00937014
0.000467799
0.0183252
0.000449971
0.0030788
0.0163365
0.000465076
0.0118286
0.00064818
0.00797176
0.000428773
0.000452705
0.000439755
0.000458894
0.0043166
0.000432315
0.00735785
0.000438663
0.000439738
0.000450526
0.0128409
0.000477086
0.000642207
0.0124505
0.000435092
0.000475697
0.00708016
0.000492162
0.000433568
0.000444393
0.000446607
0.000479969
0.000440335
0.000437829
0.0130113
0.0124127
0.0127056
0.00595835
0.00471434
0.0112893
0.000521571
0.0129343
0.000637687
0.00042855
0.000429813
0.000427222
0.000446507
0.0120129
0.0121075
0.000430797
0.00605348
0.0127625
0.000459817
0.000442807
0.000465713
0.0111088
0.0113286
0.00964353
0.0112552
0.0100785
0.000427138
0.00328832
0.000611335
0.0122877
0.00928862
0.000448076
0.000687057
0.00937767
0.000461202
0.0170219
0.000446449
0.000366367
0.010462
0.0111571
0.000531769
0.000460316
0.00332949
0.000688224
0.011071
0.012513
0.0102455
0.00064884
0.0103989
0.000448286
0.000446824
0.000480734
0.00536393
0.0123024
0.00767901
0.000439838
0.000666792
0.000524773
0.000441558
0.0116465
0.000448683
0.000693226
0.00536865
0.000449065
0.0191639
0.0132363
0.0121464
0.0110439
0.00494658
0.00120608
0.000440943
0.0120948
0.00043808
0.000434464
0.000473274
0.000452444
0.00974349
0.000453014
0.000466666
0.000452266
0.000436513
0.00960808
0.000450137
0.00065709
0.0130072
0.000437773
0.0071686
0.00061122
0.000442938
0.00494353
0.00321652
0.000449167
0.000780126
0.000450015
0.0127529
0.000181442
0.000431074
0.000646121
0.000450528
0.0122574
0.00995475
0.000527789
0.00961215
0.000450371
0.000450902
0.0176087
0.000453845
0.000442366
0.00700551
0.000472818
0.000441469
0.000437855
0.000713914
0.000449634
0.00545896
0.00338972
0.000423237
0.0113748
0.000489473
0.000510647
0.000441018
0.0123278
0.00287111
0.0126844
0.000449508
0.00043095
0.000528531
0.000459231
0.00549828
0.000442466
0.0053991
0.000440619
0.0013095
0.000439389
0.000500711
0.00156894
0.000648094
0.00747476
0.018427
0.0119341
0.00951243
0.000427505
0.00496868
0.00580941
0.00461473
0.000435565
0.00166014
0.00298272
0.0106181
0.000649836
0.005252
0.0181559
0.0124801
0.00047905
0.00308742
0.000437311
0.000481772
0.000475673
0.000448186
0.000521384
0.0125356
0.000687357
0.0112935
0.00552752
0.00044549
0.000439546
0.000455205
0.000448146
0.0150705
0.000435303
0.000438653
0.0127649
0.001667
0.000461282
0.000613241
0.000442224
0.00056873
0.00803486
0.0098531
0.00915095
0.000455926
0.00991708
0.000445422
0.000433887
0.000453233
0.00781649
0.00191346
0.00304134
0.0019928
0.000451114
0.000438556
0.000448096
0.000451293
0.000456232
0.0132264
0.00599917
0.000457621
0.0117274
0.00533352
0.000491466
0.00543476
0.000448909
0.000459327
0.000333251
0.000449164
0.000405045
0.00045603
0.000452859
0.00817739
0.00980762
0.000435079
0.000471782
0.000458746
0.000524655
0.0103325
0.0196055
0.0125588
0.000442711
0.000548446
0.0128057
0.000547069
0.000646568
1.45669e-05
0.011163
0.0121002
0.0130105
0.000435182
0.0101455
0.000431137
0.00044705
0.000447514
0.000505431
0.012221
0.00240922
0.00719734
0.00935909
0.000498122
0.000432244
0.000440886
0.000448153
0.000448773
0.000477306
0.0126946
0.0129875
0.000536458
0.00688366
0.000446348
0.000497524
0.000438611
0.0118553
0.000532522
0.000442897
0.000865009
0.000614267
0.0181082
0.00686315
0.000714461
0.00325043
0.000452791
0.0121407
0.00220573
0.00936145
0.0097887
0.000445395
0.000496753
0.00044836
0.0116528
0.00710157
0.00047204
0.00750458
0.00223663
0.0136035
0.000518941
0.00121933
0.000474785
0.000442133
0.00066053
0.000501252
0.000453114
0.00049611
0.000460337
0.000462142
0.00626931
0.00076374
0.000449439
0.00045914
0.000467403
0.000460746
0.000443467
0.0198589
0.000637149
0.00910507
0.00412919
0.000448006
0.00910425
0.000450759
0.000449079
0.000450432
0.00926183
0.000467956
0.0111082
0.00579441
0.000504414
0.000474679
0.000658628
0.0155686
0.00070013
0.0097426
0.000462421
0.000479181
0.000435208
0.00970652
0.0129665
0.00046396
0.000435396
0.000466674
0.000455551
0.000452069
0.000483703
0.000471769
0.000448854
0.000462511
0.00444793
0.0109236
0.000550389
0.000473202
0.000427785
0.0151607
0.000462795
0.000509917
0.000263222
0.000475849
0.0188633
0.000432682
0.000467844
0.00044894
0.000461812
0.00044518
0.00890769
0.0119626
0.0084113
0.000467884
0.0118302
0.00174215
0.00045545
0.0159222
0.000512907
0.00161255
0.00714102
0.000476477
0.00045292
0.000472822
0.00052023
0.000446681
0.00435656
0.0066966
0.00841608
0.000442093
0.00183778
0.0038261
0.0125822
0.000447116
0.000477475
0.000438358
0.000459609
0.00957187
0.000458463
0.000458212
0.00044131
0.000441255
0.0138054
0.00791626
0.000443686
0.0172035
0.00163933
0.00043209
0.000440799
0.00959665
0.000665944
0.00061533
0.000448409
0.000456257
0.000642448
0.000436507
0.000441874
0.0151169
0.000458819
0.00900918
0.000550859
0.000455548
0.0120023
0.000674439
0.000982788
0.000442177
0.0125661
0.000460645
0.000455938
0.0188022
0.000472625
0.000446085
0.000565442
0.000453377
0.000446967
0.000430777
0.00373267
0.000447498
0.000516343
0.00770403
0.000610255
0.000436966
0.00445122
0.000460842
0.00886404
0.00117781
0.00720182
0.000641698
0.0107593
0.00043894
0.000537256
0.000455303
0.000445043
0.00838682
0.0138412
0.000455027
0.000700188
0.00044413
0.000527962
0.00711909
0.000455478
0.000456627
0.00123135
0.00487634
0.0141677
0.0022302
0.000388139
0.000438436
0.000520938
0.000464876
0.0149749
0.0177962
0.0118687
0.019753
0.0128148
0.000441017
0.00124015
0.000449636
0.00045202
0.000448437
0.0137627
0.00147866
0.000555309
0.000442304
0.00186398
0.000456249
0.00609686
0.000434399
0.000507641
0.000460707
0.000520247
0.000474263
0.000616871
0.000451546
0.00126712