/*--------------------------------*- C++ -*----------------------------------*\
| =========                 |                                                 |
| \\      /  F ield         | OpenFOAM: The Open Source CFD Toolbox           |
|  \\    /   O peration     | Version:  v2012                                 |
|   \\  /    A nd           | Website:  www.openfoam.com                      |
|    \\/     M anipulation  |                                                 |
\*---------------------------------------------------------------------------*/
FoamFile
{
    version     2.0;
    format      ascii;
    class       volScalarField;
    location    "150";
    object      ddt0(omega);
}
// * * * * * * * * * * * * * * * * * * * * * * * * * * * * * * * * * * * * * //

dimensions      [0 0 -2 0 0 0 0];


internalField   nonuniform List<scalar> 
13917
(
2.18131e-06
0.000211512
-0.00264673
5.57464e-05
4.82946e-07
-0.354862
0.0745171
-0.000237391
-0.169428
-0.0201783
0.0586426
-0.00573783
-0.000198021
-0.0159664
0.000527794
-0.000427114
-0.000312328
-0.000590218
-0.000790973
3.79198e-07
-6.82957e-08
0.0990941
6.84641e-07
0.0324476
-3.08384e-06
0.205232
-0.00145017
0.0177061
-1.28857
0.000235616
0.003023
0.00323171
0.000769934
0.00234472
-6.03963e-06
0.116091
1.74102e-06
0.0190905
0.000183573
-0.0985995
8.18422e-07
-1.60341e-07
1.126e-06
-0.0427942
-7.24619e-05
-0.00070835
0.000421607
0.00443036
-0.0650954
-4.64192e-08
-0.000350571
0.000122517
0.00225299
0.00269984
-0.000455465
-0.000567134
0.0861271
1.30572e-05
1.70794e-05
-5.92247e-05
-0.197924
-0.000253045
-0.402106
2.32991e-08
-0.0676425
2.51417
-3.43045e-07
-2.12709e-07
-0.0102401
-0.000285658
3.86738e-07
-0.128726
-0.0300575
-2.73986e-06
0.219637
0.000792195
0.0745591
0.000459655
0.254436
4.87663e-07
1.2788e-07
-2.32458e-07
-0.0515878
-0.00277294
-0.0539133
0.00030176
1.32674e-06
-2.68085
-0.000142289
9.53528e-07
-0.0429045
-0.00596383
-2.4094e-05
-5.73157e-05
0.827799
0.21608
0.00885268
0.0210142
0.0485344
0.0740411
5.9329e-07
0.00750578
-0.0130189
0.000483626
-8.60111e-07
-0.0589048
-0.00831426
0.0131735
-0.000618903
-0.00410302
-0.022585
-0.126833
-0.0143947
-0.100481
0.000181658
-0.119628
-2.6688e-06
0.0641492
0.00629767
0.0020706
-3.30982e-07
-0.0168009
0.0265394
-0.0345522
3.40093e-07
1.59656e-05
0.000127444
5.16127e-07
9.29563e-07
0.263232
0.142515
0.00017771
-8.75649e-05
-3.2088e-07
-0.348405
0.037152
0.00242173
0.0416384
8.36455e-08
0.00310686
-0.0345306
-3.53586e-06
-0.000223565
-0.10131
1.38848e-08
0.00597496
-4.74019
9.49685e-05
-2.49352e-06
-0.00408682
-0.00199273
-0.774199
0.00516647
-0.0073477
0.000882564
0.0181442
0.00163149
0.778461
0.0217474
0.12899
0.00102945
0.00679661
8.89184e-08
0.00646719
-0.00804948
0.0426632
7.79964e-05
0.0114134
6.18962e-05
0.00536455
0.011777
-0.0876358
0.00113049
8.35605e-05
0.0782715
-0.00911215
0.16768
0.0138957
0.0242439
-8.61424e-07
0.00481918
0.00522971
6.09076e-07
2.12501e-06
-0.00202077
0.127533
-0.0450688
0.0647905
8.10831e-05
-0.0114596
-0.0515581
-0.13844
0.0868128
8.55407e-07
0.0483681
-0.0104686
3.41187e-06
-5.59978e-05
0.260548
1.43528
0.000151901
1.68715e-07
0.00163364
-0.00213562
-0.0116372
-0.0461921
-8.00488e-06
-1.90631e-05
0.0224078
-0.00332884
0.000100462
0.0593844
-0.0465253
-0.00314244
3.09349e-07
0.150845
-0.00842198
-0.126819
2.56236e-06
-0.273728
-8.15764e-05
-0.00996099
1.25114e-07
-0.0230149
-0.0553949
-0.000376919
0.131117
0.00376801
8.78311e-07
-0.0568076
0.00850733
0.00201684
0.0343451
-0.149367
-2.68591e-08
0.00678809
-0.0911926
-0.0250019
-2.34499e-07
3.06055e-07
-0.124756
0.00114426
-2.87431e-09
0.245671
-0.0121225
0.00984516
0.00597667
-9.50207e-08
0.00901047
-0.0337301
-6.50037e-06
-0.0319056
-0.157758
9.35026e-05
1.77819e-06
0.0103177
-0.0757021
0.00743299
0.00134409
0.000580589
-6.40216e-09
-0.0470621
0.0819796
0.0196451
9.16807e-07
-0.0474083
0.306059
0.65975
0.261309
0.00156899
2.39287e-07
-1.93745e-07
-0.0025191
0.00974763
-0.041479
0.000137141
-0.526672
-0.000887486
6.97844e-07
-0.335397
2.09552e-07
0.0701262
0.000184532
-4.94346e-09
0.00115053
-0.000138233
-0.0150199
0.201936
0.00320268
-1.50091e-05
-0.295786
0.0410876
0.112774
8.50257e-07
0.546084
-3.30629e-08
-4.23793e-05
-2.0937e-06
-3.16133
9.35248e-08
-0.00393395
0.00345471
4.39439e-05
0.00393306
-0.000488839
0.0352531
-0.000599133
-0.00410387
-4.00975e-06
-6.48956e-07
-0.031554
0.001321
-2.55907e-06
8.89524e-08
-0.439967
1.86032e-05
-0.0443808
5.90186e-07
-0.0530078
-0.000167324
0.513663
-0.000472136
-0.307205
0.000150828
0.592792
0.964536
0.00145776
-0.0024085
-1.10098
0.000104939
0.0981933
0.0839328
0.213124
0.00132728
-0.109028
-1.74043e-06
0.150291
0.173549
0.082004
0.0305159
-0.00243674
-2.49301e-07
0.0213467
0.0100424
4.90457e-05
-0.00224008
0.00947957
0.32952
0.000360196
-0.200086
2.12624
4.14424e-07
-0.0154751
-0.0734586
3.12781e-08
1.81039e-06
3.9625e-08
-1.15789e-06
-0.372115
0.0426231
-0.279375
0.00298371
-6.13626e-06
-0.00113747
0.0315386
0.000916931
0.0841895
-0.0309881
-0.0911323
-2.10355e-07
0.036267
8.83489e-07
-0.16147
-1.48861e-05
0.330679
0.00304194
-0.000572476
8.05122e-07
0.00783344
-0.0361101
0.00187511
-1.75069
0.0980572
-0.197392
0.00488148
0.00555417
3.21683e-07
-0.0635027
0.1671
1.93723e-05
0.249733
-2.93835e-06
0.113789
-0.000174234
-5.69665e-07
0.00033882
0.159047
0.000425925
-0.0468118
-0.349862
-0.0257444
-0.410083
3.71063e-05
-0.822769
-0.134201
4.37084e-07
0.174039
9.26937e-07
-4.14757e-06
-0.0235164
-1.31894e-08
-2.73276e-06
9.82834e-07
0.121206
-2.24556e-07
-0.0768577
0.142833
0.0421638
-0.555852
0.0617698
-0.109579
-0.00103767
-8.01642e-06
0.029401
0.000364336
0.00600929
3.00037e-07
0.0170167
0.0625063
0.0587031
-0.000123933
-0.00629848
0.00117476
0.000274845
0.0049607
-0.000539356
-0.120246
-0.000729061
9.68164e-08
-0.075298
0.160098
0.181512
-0.0758914
0.0404406
0.100342
-0.0314973
0.119999
1.21602e-07
0.00121679
-0.000437908
-9.82326e-06
0.368263
0.000643276
-8.79684e-07
0.00968398
0.000510826
0.0932015
-3.71686e-07
-0.0485802
0.345706
-3.04223
-0.0150282
-5.01957e-07
1.5797e-05
3.40075e-06
0.00119926
-1.5829e-07
0.0421634
0.840739
-0.00133026
-0.0860872
-0.000352368
0.00868637
-0.0100284
-7.43565
-0.0443975
-0.152024
-0.0126191
-0.0191769
0.0223998
0.0029776
0.0424798
0.0606377
0.000590165
-0.0196121
-8.17026e-07
-0.363607
-0.000941456
3.09423e-06
0.000191171
2.91468e-05
0.0882872
-0.0871574
2.10957e-05
5.74356e-07
-0.0364824
-0.19709
-6.25507e-09
-0.0705429
0.000124206
-0.0629854
4.9934e-05
-0.0118454
0.59068
0.000739243
5.9843e-05
0.10685
-0.0554443
0.0537279
-1.07605e-08
-0.0145102
0.0328187
-0.627145
5.26696e-06
-0.0188568
0.146625
-0.000983601
1.22023e-06
0.000134962
0.00449148
0.0630558
-1.43444e-06
2.82255e-06
-1.59374e-07
-2.40417e-07
-0.0494301
-0.0867031
-0.00105853
0.938104
4.47859e-07
4.73637e-07
-0.00216865
-0.0936437
0.00147455
6.87084e-05
-3.02559e-06
1.98076e-07
-0.41924
-0.199939
9.2793e-07
-1.25982e-06
-0.0496421
0.00326233
-0.00127426
1.74976e-05
0.000455327
0.00684804
-0.0266252
0.128799
-0.0379472
0.0819393
-0.00668733
0.169659
-0.00633634
-1.16056e-06
0.0267825
3.69402e-07
-9.45113e-05
-2.71507e-05
0.225347
0.0378822
4.14664e-07
-2.96267
-0.00605826
-0.325921
-0.00282138
-0.000496037
0.0017691
5.15104e-07
0.127975
1.03148
-0.0101343
0.000185672
0.00321798
0.592296
-0.0536958
-0.530742
0.00745304
0.0199706
0.000123924
0.00011431
3.53583e-05
0.0251375
0.000613656
0.000102313
-0.0114878
-0.110135
-0.0343266
0.0589071
-0.000199212
0.0192219
1.66958
0.000907881
8.79644e-05
-0.109201
0.0456469
-0.0365672
-0.205872
8.27204e-07
-0.0178068
0.00203494
-1.64355e-07
-0.00170375
-0.0212142
-0.000769714
0.0247112
0.252139
0.00978282
0.00614127
0.119077
0.00038034
0.154579
6.8341e-08
1.3998e-06
0.468302
0.0432463
-0.588583
-0.00010261
0.000205945
-1.30815e-06
1.81224e-05
0.0406705
0.043599
0.000461688
-0.039949
-0.00894946
0.000113793
-1.68048
0.0317283
0.0306258
1.47151e-06
-0.0731286
0.000272414
-0.38144
-0.0269232
0.0237522
0.00606449
2.33881e-07
-1.8471e-06
0.000110184
-0.0185909
-0.00414559
-0.0303132
-3.29085
0.00412084
4.71464e-07
0.0344967
0.519599
-0.341655
2.48248e-05
0.000900797
3.53587e-06
-0.000977745
0.000501197
0.129985
-4.56234e-07
-4.35024
7.84015e-05
0.031782
-0.000366429
-0.0339863
-0.0105186
0.000124136
0.0297246
-0.867383
1.48638e-05
0.000477379
-0.418895
0.171403
-0.048513
-1.30401e-08
2.01598e-06
0.353937
-0.000558295
-0.00476672
0.00634042
3.31772e-06
0.00112105
0.00144817
-2.70864e-05
0.000101846
-1.45456e-07
-0.00295418
-8.81422e-08
1.11644e-05
-0.0964665
0.000156477
0.0423953
-0.0017424
-0.00195181
-2.18956e-07
0.0184144
-2.57388e-06
0.0120571
-1.66295e-07
0.0448266
0.000104952
-1.02278
-3.04017
-0.0769973
3.94682e-06
5.08985e-07
-0.00159132
0.00276124
0.0219753
-0.156972
-0.000761472
-6.65269e-06
-0.167538
0.353142
0.0279204
-0.0933918
-0.00202898
0.236374
0.000521055
-0.00214908
0.0478091
0.181968
-0.00106456
-0.565989
0.00173358
-0.000325434
-0.0228794
0.00198306
1.18808e-06
-0.000607498
-0.00657666
-0.00777243
-1.91392e-06
-5.07674e-08
-0.0150876
-8.88013e-05
-0.0147086
-5.04125e-06
-1.02514e-06
-3.41981e-07
0.000237752
-2.01501e-08
0.00184391
-6.9564e-08
-0.0313474
0.00526749
0.596248
6.28029e-08
-5.90192e-07
0.00112443
-0.0237566
2.71574e-06
0.132529
-0.00149881
-0.545609
-0.000627046
0.0122322
-0.000261069
-4.70689e-07
-1.03925e-07
-0.000301663
0.0524421
-1.01022e-07
-0.716451
-0.00128236
0.0258433
0.0102272
0.00902029
0.0428169
-4.5065e-07
-9.93653e-10
0.00240274
-3.87369e-06
-8.23234e-05
-0.504998
0.000104502
3.50372e-07
-0.00326352
1.76288e-07
2.39265e-07
-0.000202418
0.00431419
-0.0805016
-0.00124443
-3.13857e-05
-1.04278e-07
-0.0981444
0.00476494
7.28505e-05
3.58749e-05
-0.282826
0.0585778
-0.122213
-0.00263268
-0.000270786
9.23057e-08
3.94423e-07
-0.000800594
0.00121342
-0.00887133
0.000942902
0.0854351
0.000321629
-0.000361726
-0.145028
-3.37979e-06
-0.00067633
1.30367e-05
1.55663e-07
-0.000311364
-0.0415887
-0.000262743
0.0391017
-0.0898864
-0.00272778
1.28338e-06
6.51545e-07
-0.0312058
-0.497108
-2.12176e-08
-0.240038
6.99071e-07
-0.00203638
-7.76055e-07
1.14591e-06
-0.114625
-2.94241e-05
-0.932106
0.000260267
-1.39145e-07
9.37914e-07
-2.40562e-07
8.67677e-06
-8.09292e-05
-0.389959
2.51261e-05
-2.03973e-06
-0.227172
-0.0207983
0.00481424
0.00286881
-0.0158307
-0.00015272
-4.87854e-06
-0.00267206
-0.0028068
0.127375
8.82748e-07
7.26007e-05
-0.148108
-0.00392474
0.0615197
4.97227e-08
-0.00012589
-0.0923027
-3.62749e-05
2.52481e-05
0.14413
1.51307
8.68647e-06
-0.029757
-2.31335e-07
2.23232e-05
6.97078e-08
-0.0473895
-6.47296e-07
-2.24414e-05
-4.2254e-06
-0.548964
0.000499004
-0.0182236
0.0507299
3.40017e-06
0.000156546
5.11347e-07
0.0179912
-2.4123e-06
8.83683e-06
2.26051e-07
-0.0225347
2.55564e-07
-0.0454247
-0.1085
0.0516711
0.00205299
0.0247995
-0.058752
-4.79478e-06
-0.131013
-0.156643
-0.0458138
0.0730744
-0.244222
1.19362
0.0378179
-1.83334e-05
0.260793
-0.00145644
0.188952
3.73316e-06
-2.97898e-05
6.92829e-05
1.30717e-06
-0.000173301
-0.000668544
0.0462829
-1.99398e-05
-1.27959e-06
0.03209
-0.273519
-3.24498e-06
-0.00321784
-0.00623522
-0.000171163
-2.75109
-0.000738622
-0.00117222
0.000412342
-0.132696
-0.145244
-0.100726
1.05446e-06
0.0960598
0.00656026
0.0138396
-0.0840111
0.0162574
4.27337e-05
-0.000251263
0.000286188
-2.33449e-06
0.000411297
5.22901e-07
-0.0010041
-0.000852126
-0.1194
-0.0411487
-5.25314e-05
-0.0049708
-0.0352942
-0.000630208
-0.000194494
0.100007
4.08272e-06
5.29589e-06
-0.00135694
-0.0979727
1.31554e-07
6.13929e-06
0.0377947
0.0851029
-0.919878
-0.0173015
-0.0271208
-3.85336e-07
-0.176124
9.39412e-05
-4.35787e-06
-9.54805e-05
0.110808
-0.122621
8.32936e-07
1.13016e-06
8.73034e-06
1.12631
-0.000121735
-0.0038546
4.84606e-06
0.00024279
-0.0141995
6.6373e-06
-0.0113954
0.328409
0.194312
2.33964e-05
-0.0653022
-0.000519376
-0.0245883
-0.0464122
-2.31404e-06
-0.0443425
-0.0157867
0.260812
2.56967e-07
0.15463
-1.06598e-07
-0.000278782
-0.00125466
-0.00861103
-0.0072398
0.00241176
0.0197961
0.0475643
4.31718e-07
-0.0561272
-1.52289e-06
0.0010404
0.0269509
-1.5539e-05
-6.23213e-08
-0.000150664
0.000129065
-0.102106
-1.26134e-07
-1.87009e-06
-0.000302022
-0.00349435
-0.00285779
-0.149097
-0.0315203
0.0926558
0.00614311
-0.00455776
-0.00319304
0.0614505
0.00367892
-0.892492
0.228634
-0.000355901
-2.64167e-08
0.00986754
0.0265384
3.8845e-05
0.00478034
-0.00313605
-1.48e-05
-0.000256506
4.48895e-05
0.00576726
-6.31319e-09
0.000127183
-0.115777
1.64027e-06
0.00596696
2.60038e-06
-0.00989083
-1.30979e-07
0.00100311
-0.00875643
-0.000200516
6.26876e-06
5.40972e-06
0.809862
0.000881775
0.0359465
-1.69146e-06
9.30887e-06
-0.00566737
1.66751e-05
0.00999721
-0.0248839
-0.000115658
-0.0205389
8.38204e-07
0.235216
-7.02061e-06
0.00498184
0.0816121
0.0816086
3.81845e-06
0.00175619
-0.132195
-3.32787e-06
3.82657e-06
0.0166025
-0.0586172
-0.0018317
-0.0632823
2.99597e-07
-4.66342e-05
0.0671671
-0.000293629
-6.02927e-07
0.0137904
-2.39154e-06
0.410452
-3.74497e-07
-3.43305e-07
5.10598e-05
-0.0246338
0.0641555
3.95828e-05
-5.90599e-05
4.57309e-06
0.000264884
1.36379e-07
0.532758
0.00395816
-1.91782e-08
0.03287
-0.00354305
-0.115736
0.107815
-0.168064
1.7192e-06
-8.21862e-06
3.80076e-05
-1.88617
0.00128311
0.0663497
-0.0786464
-2.16832e-05
0.0569543
0.300539
0.00255471
-0.0531959
0.0102716
-0.0739499
-0.0352128
-0.0255469
-0.803497
-0.0173813
0.00420201
0.000121777
0.0448808
0.00737026
1.13989e-07
0.000729816
-0.36529
-0.00444982
4.29427e-06
-0.00268259
-0.00994021
0.00237184
0.0670877
-0.000224368
0.0354873
0.00372781
-0.000121912
0.0450783
-0.513982
-0.00712132
7.00425e-07
0.000209699
0.0217094
-5.69927e-06
-0.00099269
-9.38946e-07
0.000419317
1.9023e-05
0.00341086
0.0398712
-1.27109
0.00195649
0.0325766
0.0184154
-0.809676
-1.46767e-05
-1.35431
0.087693
-3.17154e-06
3.51654e-06
0.00122099
-0.00896162
-1.20001e-07
0.0153662
3.10559
0.01271
2.023e-05
9.51831e-05
1.04448e-05
0.00328627
-0.00325431
-1.12955e-07
-2.63172
0.242559
0.0107392
-0.0481866
0.00363603
12.1093
0.00119375
0.000204421
-0.124035
-1.12152
0.0150839
-1.21781
0.00632924
-3.66934e-07
6.85882e-05
-0.000276
-2.33697e-06
0.0002491
-0.0276418
-4.11985e-06
-0.0113853
5.36578e-07
-0.00559453
-9.41129e-07
0.0207381
-0.0362982
-0.710309
1.25558e-05
-0.119093
5.08844e-05
-0.0749193
-3.13054e-06
0.000815229
8.70981e-07
-0.0474299
-0.0264232
0.059893
4.51894e-07
-0.019318
-0.000176223
0.00133507
-0.0559495
0.000109346
-3.78659e-05
-0.00239644
-0.00589505
0.0628511
-1.13869e-06
0.00163064
0.000208998
-2.05069e-06
-0.00215742
-8.24901e-05
-4.72105e-07
-0.000351114
0.0290734
-0.000303438
-0.0606386
-0.0204489
-0.000646185
0.0921023
-0.000136288
-3.96463e-07
-2.44521e-06
-0.255558
-0.000214277
0.00182806
0.000973516
0.837646
3.51611e-06
0.0929751
0.0140392
-0.00589744
-2.79335e-06
7.40803e-07
-0.0148887
0.000385493
-2.36239e-07
-0.00226988
5.28669e-06
-0.000564888
-0.0053953
0.0118247
0.0500297
0.105319
0.000521808
-0.00910745
-0.863701
-0.109579
0.00114246
-0.306205
0.032637
-0.000925259
0.587336
0.000839228
0.138244
0.0346702
-2.78032e-06
-3.10375e-08
-3.03541e-06
-0.000143331
-0.00132815
3.94404e-06
0.000583185
0.00756822
0.000508321
0.00315894
-0.0126827
0.00240613
0.000177733
-0.153165
-0.00016761
-0.0480953
0.000691012
0.0175566
2.5539e-06
-0.0852455
-0.112133
1.67288e-05
-3.90676e-05
0.16898
0.00136801
0.0787504
-5.58772e-08
-3.44413e-07
-0.0109938
-3.34446e-05
0.00247251
0.413584
-7.78853e-07
-0.00575064
-0.00367588
7.8876e-07
-4.06206e-07
0.245193
-0.0581069
3.45278e-05
0.000220466
1.39291e-05
0.00138841
-0.00620738
0.123098
-5.98331e-05
-0.0686141
0.552671
0.00205864
-0.62247
4.88223e-05
-0.0167944
0.0792892
-0.000120187
-1.49506e-06
0.00434772
-0.022166
0.000837432
-0.00855286
0.0178035
-1.60218
-0.077733
0.000960635
-8.86352e-05
-1.28297e-07
-3.10773e-07
-0.0945955
-0.00980557
0.000717518
6.94206e-05
-0.000125976
7.65084e-08
-6.50281e-06
-2.29366e-06
-0.00291957
0.0049243
0.0350502
-0.00690251
-0.253478
-0.02446
-0.000543402
0.00357388
6.10666e-07
0.000495796
-0.183537
0.00064382
0.000246942
-0.00111782
-0.0254781
-0.000643273
0.123706
0.101334
-2.06708e-05
0.0330255
1.33752e-06
-0.000292238
-0.00712892
-3.35033e-07
-3.80316e-05
0.0199609
0.0488055
-5.57789e-06
-0.0816789
0.000334628
3.40573e-06
0.000146434
-0.0519242
0.0082269
0.000728181
0.0456357
-0.000458114
-0.00943338
0.129349
-1.26758e-08
0.00115371
-1.1118e-07
-0.103395
-0.00117078
-6.10375e-06
0.180469
0.00454983
-0.0284733
-7.01853e-07
-0.117024
0.00130969
0.765453
-0.000162474
-0.056521
-0.157622
1.40479e-06
0.358462
4.17895e-05
-0.0110216
-0.00188379
-8.25223e-09
0.00848559
0.000226587
0.021895
-0.0037882
-0.088525
-0.00255147
-0.00283477
-4.87367e-05
0.0177769
0.000306805
-0.1126
-0.000834248
0.00467831
-7.51224e-05
0.00151202
-2.30601e-06
0.00727356
-0.0120589
8.57358e-05
-2.19223e-06
-0.0839939
-0.000173883
-0.87148
4.78794e-05
-0.0588883
0.0133583
-0.00215618
-1.37439e-06
6.05622e-06
1.97996e-07
3.89037e-07
0.00889147
-0.00726288
0.00100741
-0.00135358
1.80685e-07
-0.619761
-3.81394e-05
-0.00436222
-1.02781
1.60005e-05
-0.0845037
-0.00436611
0.00122164
0.0947793
0.0115016
-0.190225
-0.0677926
0.935471
6.83823e-07
0.324768
0.00452958
0.326901
6.14025e-08
1.52015e-06
-0.0157437
0.2264
-0.0538527
-0.873831
3.17115e-06
-0.00706379
0.000485491
0.118993
0.0244295
0.00172236
-0.0125664
-0.000110059
-0.0303725
0.0128207
6.73633e-07
-0.00971364
-0.292528
4.67984e-07
0.570352
-8.19958e-08
0.000126103
0.0993883
-0.0713134
5.6424e-07
-6.62341e-06
-0.000333957
-1.62667e-06
-0.00601968
0.0119567
7.53382e-05
-2.80881e-06
4.77211e-08
0.00326443
-0.00417539
0.00492207
-0.299952
-2.71466e-06
-0.104728
0.137313
-0.170956
-0.0957288
-0.00454322
0.612472
-0.000682932
0.254853
-0.0122004
3.6536
-0.000109467
0.299629
0.032267
-7.68836e-08
-2.6641e-06
0.000154881
0.0978184
0.211959
4.30062e-06
-9.56466e-05
0.173271
49.7987
-1.0475
0.000452062
0.000602582
-0.132058
6.19383e-05
0.124968
-0.011747
0.0988346
-0.564854
-4.73028e-06
9.5513e-06
7.47999e-08
0.00304261
0.0707479
0.00233331
-0.000151726
0.000241976
-0.0318466
-0.0745885
0.00231856
0.0418904
0.0308327
0.0734047
-0.428114
-2.1028e-06
1.43928e-07
-0.088356
-5.40922e-09
-7.1993e-07
0.000275199
-0.0279596
-0.00210533
0.0188831
0.037618
-3.74601e-06
-0.149815
0.00142461
8.60441e-06
0.0712919
0.00302005
-0.00105202
7.61321e-05
0.0144429
0.0474467
4.88802e-07
0.0481412
0.583148
-0.222604
-0.79277
0.00604939
5.88222e-05
-0.000244783
-1.76551
0.00020705
-0.0710312
-0.000338816
2.11268
-0.0864544
0.000890562
-0.000201056
0.000111682
-0.000156296
0.120686
-0.1472
1.81648e-07
0.0417958
4.29785e-05
-0.000103593
0.000843606
5.02474e-06
0.0643201
-0.000209654
-0.147319
-0.00465786
-3.29032e-05
-7.53567e-07
0.0355175
0.118296
-0.00157085
-0.000126718
0.00566693
5.07834e-06
0.000601617
0.000457749
-0.0787135
0.0165804
0.0809669
-2.37388e-07
3.21448e-07
-0.000146458
0.0079691
1.5633e-07
-0.000160345
0.088366
0.0139755
-0.0740705
-1.54944e-06
0.00521427
0.0128497
-1.34829e-09
0.0503286
-0.0120458
-0.00130411
0.494623
9.55131e-05
-0.0769354
0.000395052
-0.000174176
-0.00152067
1.8902e-07
-0.0199134
3.89504e-06
-0.000135861
-0.004892
-0.0348178
0.0921975
-1.36583e-08
4.23794e-07
-0.000258869
-2.68532e-05
0.0601686
0.000163516
0.00392593
-0.000365789
-0.00372718
-9.9605e-05
0.0131671
-1.29037e-06
-0.0169154
0.00022111
6.29233e-07
-0.242329
-0.592426
0.0658559
-0.253775
-0.0014048
-0.000819438
-5.70485e-06
-0.092011
-1.96842e-07
6.86507e-07
-0.0828767
0.00377352
-0.0448699
0.0154576
0.0282732
0.0670696
0.0137963
0.241856
-6.63396e-07
-6.43905e-05
0.000652707
-0.0982474
-0.00048436
-0.0568701
0.0587185
1.24963e-05
5.94106e-06
-1.01255e-06
3.10382
1.81557
0.000417117
5.07076e-07
-0.000751746
0.00163579
-0.0010324
-0.87715
0.304431
4.69932e-08
-1.92138
-4.42507e-05
-0.161713
-0.018573
0.000187456
0.000370382
-0.172512
8.77403e-08
-0.00759249
-0.0175677
-0.000259003
-0.000738946
-0.00333331
0.0816432
-0.000111109
-0.175757
-0.000146382
0.062609
0.00206106
0.000497877
-0.000122878
0.0389574
9.94326e-07
-0.00753895
0.0849966
0.16279
-0.00509307
-0.00270345
-0.000348522
-0.000262333
-1.27785e-07
0.168242
0.000462566
4.78431e-05
-0.00159275
6.85101e-08
-2.21889e-08
0.0625137
-1.95901e-06
-4.5306e-09
1.63197e-05
0.0198263
-3.38549e-05
-0.000964735
0.0212675
-0.22779
-0.0227485
-7.45083e-08
0.14262
0.0300315
-0.0209209
0.00901717
0.00207329
0.0735426
0.0609496
-1.56076
-1.15808e-08
-0.139454
0.0339845
-9.05025e-09
0.000116098
2.06632e-07
-0.873891
0.0262489
1.59764e-05
0.334393
-0.0664294
4.49219e-09
-6.07574e-06
0.15881
0.0760662
0.00570296
2.30909e-08
0.383388
0.0160175
0.173135
-2.49924e-06
-0.114416
0.00575193
-0.0202277
0.0539583
-0.000331783
6.21125e-08
-0.000643165
0.0615701
0.000974121
0.191697
0.0061338
2.02998e-06
0.0256306
-0.367802
0.00466439
-1.10115e-06
-0.00717614
6.86137e-05
-5.69464e-05
-0.148892
0.124019
0.0516138
0.662649
0.00271356
0.000873118
4.2689e-06
0.135228
-0.116803
-5.24742e-07
5.85773e-05
0.0039258
2.12275e-06
-0.000344036
-0.0891505
0.0668192
0.00329267
0.000181736
-1.04117e-05
-0.166659
0.000857012
-0.00447665
5.69582e-07
-0.00157142
2.13805
-0.00873645
0.499473
1.95253
3.65327e-07
0.158595
4.50586e-06
0.00385883
0.0930212
0.0912487
-6.18223e-07
-8.02424e-08
0.00418369
0.0011605
3.91852e-05
-0.187688
-0.0824278
2.53229e-06
-2.11443e-06
3.93538e-07
-1.26059e-06
0.111615
3.74437e-06
0.165148
0.00886636
-0.00111301
8.42399e-06
0.0375503
0.0412687
-0.00216978
-0.699803
-0.154769
-0.000224433
-0.0677231
0.00421025
0.00238703
-0.0909864
-0.177957
0.00311642
-0.000271482
3.5696e-06
-0.0340641
3.8828e-06
-0.00202276
4.38411e-05
0.125015
-0.000991971
0.256683
-0.0898129
0.000659423
4.54196e-07
0.352125
-0.000162484
-2.81311e-08
0.216214
9.4726e-07
-0.00447051
-0.00666897
-7.77045e-05
0.116245
-0.00167002
0.846623
0.000103606
4.17362e-06
-0.163901
0.117939
0.000560767
0.00501952
0.00157763
-0.00576609
-0.000465059
0.000274009
-4.49589e-05
-0.000227344
-0.0693816
0.000881545
0.0514207
-0.0103688
-0.269885
-0.0139884
0.000112482
-0.198726
8.19456e-07
0.00725767
0.000495292
0.0268103
-2.44363
-0.150269
-0.981627
0.0133576
0.00887759
-2.30914e-05
-0.0724482
-0.0598491
1.69954e-06
-0.132726
-0.00340148
0.0010487
0.00034529
-0.00576249
-0.00302565
0.0016008
-0.0175952
-1.61517e-09
0.000146266
-0.00408227
-0.000170748
2.57652e-07
0.000974858
1.39234e-06
0.0248239
-0.000193391
-0.0539277
-0.0077786
-0.00264481
-0.0593207
0.334912
0.0108114
-1.03111e-05
0.139262
0.0378898
-0.178572
4.3806e-05
-0.139715
-0.00246259
1.73094
4.65671e-07
0.00033303
-0.00795076
0.00230489
0.0388801
-0.176389
0.000802184
-0.127825
-5.49335e-05
1.00807e-06
-0.240018
-0.0472046
0.00010468
-0.213936
0.00433582
-0.000974141
-0.0019462
-0.0120143
9.92139e-05
0.0397054
0.0485387
0.0296586
0.12975
0.000483924
-0.0352264
0.0104772
7.33996e-05
-3.24459e-06
-0.008339
1.14234e-08
-0.598295
-0.131956
-0.206917
0.0225165
0.0010252
3.94625e-05
-0.152035
1.11222e-06
0.0162704
-1.69312e-07
-0.233149
0.00047372
0.0114982
0.110662
-0.00828027
-1.59195e-07
0.00241296
-0.0616389
4.66284e-06
-0.0216142
-4.23072e-06
0.11778
-0.0419787
0.0076334
0.00681999
-2.37984e-07
0.0371405
-3.15143e-05
-0.000909902
-4.55005e-06
-9.74149e-05
4.0316e-08
0.00186851
4.4163e-07
0.0144867
-1.53848e-05
5.81297e-06
0.30424
-3.92964e-06
0.00380632
-0.00026292
-5.07543e-07
0.139306
-1.31554e-05
-0.00128346
-0.125638
0.00235148
0.0350014
1.0339e-05
0.0747552
0.00241107
-0.250676
0.000390329
-0.0502001
-5.98786e-05
0.000460232
0.0460136
-0.0231942
-0.0128656
-0.0834424
-0.0342984
0.206977
0.000791589
-0.00529264
-0.00151296
0.128839
0.000354004
-2.17355e-05
3.11772e-06
-0.000263425
-0.0140309
0.0200672
0.000433916
0.00118758
-0.054029
-0.0611575
4.10814e-05
-0.130092
0.00884035
0.000266694
-0.000699549
-1.04823e-06
0.159747
4.00425e-06
-0.408699
7.00709e-06
0.00019601
-0.081993
-0.00889925
-1.2385e-06
-4.42839e-06
-0.0900981
5.57905e-06
-0.000287864
-0.000288162
-0.000931619
-0.00383971
-0.000509213
0.0406421
-0.0511312
-0.00173324
-0.141938
0.0361561
0.135529
-0.0554927
-1.0903e-06
5.85273e-06
0.0612112
4.70452e-05
0.00777475
-0.116559
0.072188
2.54442e-07
-3.63199e-06
0.123433
0.480029
-3.2972e-08
-5.38397e-06
0.00193249
0.14091
0.212659
-0.00327813
-0.00418101
7.10968e-07
0.0462176
0.0183406
-0.137371
0.00115117
-0.00221274
0.000121648
-0.000222744
-0.150369
-0.000622239
0.000202936
0.00262336
-0.0030969
-5.46313e-05
-0.0238489
1.42474e-06
0.00113547
0.000816992
0.000433082
-1.93459e-07
2.29421e-06
3.94473
-0.0982292
-0.05376
-0.0977726
-0.166663
-0.000110495
-0.0898128
-0.0389908
-5.3844e-07
0.43236
0.0867591
-0.00847745
-1.57787e-07
0.1443
0.0142255
4.01197e-06
-0.0142
0.0127604
0.0173623
4.63626e-06
7.93288e-06
0.000147776
2.05304e-05
-0.00243649
-0.0367085
-0.00450685
0.0168166
-2.97548e-07
-0.000121914
0.0307216
-8.2864e-06
-0.0257649
-0.00254065
1.33189e-05
-0.00301994
-1.64711e-06
-0.000369953
-0.411346
2.08055e-06
-0.0584227
-6.76413e-07
-0.854743
0.217401
0.0198463
-1.14327e-05
-8.61729e-09
-0.112985
5.1738e-07
1.19532e-05
-3.31268e-05
0.525018
-0.113878
-0.00463356
0.151765
-0.00148197
-0.636236
0.000165603
-0.0206449
3.82063e-06
5.07957e-07
0.0469108
0.0688191
0.733097
0.000252431
-0.0247569
0.0227069
-0.0646779
-0.136788
-0.0325481
-0.000256996
1.15304e-06
-0.0621956
-4.08843e-05
5.17447e-05
-0.206409
0.024336
8.75604e-05
-0.0186705
-0.00632587
-0.00122618
-0.00731135
-0.12682
-0.000122019
-3.20598e-06
0.0758525
-0.00372392
-1.84933e-06
0.0536563
-3.13908e-07
8.67344e-07
0.0897427
0.0322889
-0.0317988
-1.0858e-06
0.000555802
1.08861e-05
-0.574634
1.8877e-05
0.300188
0.426216
0.207594
-0.0142109
-0.785142
-0.000261358
-0.0470022
0.350847
5.16038e-07
0.000624125
-0.00715067
0.00153837
0.144726
-0.0141633
0.080326
0.228116
0.145511
0.000102373
0.00777039
3.10211e-08
0.0289748
0.00266969
-0.000220145
0.000219571
0.000426531
-9.58763e-06
0.00805671
0.0835627
-7.456e-07
-0.000221715
3.01832e-07
-0.000312016
-0.000105718
0.125328
0.0989594
-4.74182
-9.55713e-08
3.72563e-06
0.0804697
0.459298
7.59915e-07
-0.369636
-7.62949e-07
0.0734061
-0.212785
-0.0136744
-6.76105e-05
-1.03728
-1.15349e-06
-1.10199e-06
0.0893157
0.0252229
-0.00735577
-0.0174623
6.59654e-05
-0.102721
-1.71338e-06
2.0544e-07
0.00027392
2.3232e-05
-0.0623195
0.00632038
0.0533937
0.000106434
-0.100139
0.367731
-1.24485e-07
0.00164546
-2.83217e-07
-0.460065
8.55811e-05
-0.00117496
4.49632e-06
3.3923e-06
-5.01378e-08
1.75031
0.000128433
-0.443017
-3.57763e-06
-0.000900008
5.28294e-07
-0.16887
-2.6551e-06
0.00184353
-0.00490684
0.00105969
0.288729
7.5346e-07
0.0565702
0.00900535
0.00137463
-1.4252e-07
5.57171e-06
0.0910662
0.310672
9.86882e-05
3.89597e-05
-0.0520248
0.0319907
-0.00546198
-0.0505402
-0.000170882
0.0584985
0.00345142
-3.24094e-07
0.0760803
0.0001626
0.258765
-2.12199e-06
0.000341738
7.98341e-07
0.0349815
0.187388
-3.7965e-07
0.278092
0.0154004
1.03509e-07
1.85217e-05
6.26882e-07
0.0946121
-0.119112
0.0173786
-0.000576805
-0.000659817
-3.08109e-06
3.22093e-05
0.000454208
4.05793e-07
-0.00503362
4.13921e-05
0.00500235
-0.043769
-0.00263969
7.16847e-07
-0.123974
0.0111725
-2.23953e-06
0.00459493
0.00180514
0.0718737
-0.00148889
-0.262818
-0.0135004
-1.6436e-05
-0.0143911
0.0121601
0.000313553
0.168113
0.00736672
0.00136755
0.158825
6.9781e-05
-0.0744493
0.0567132
0.0247659
2.2158e-06
1.80644e-06
3.81198e-07
-0.00398563
-0.00347473
0.00369891
-0.0016382
0.0291014
0.108674
-1.74526e-07
0.186699
0.253737
-0.186126
8.07256e-06
-0.000169487
-0.00263814
0.193207
-0.000286046
-0.00157682
6.58364
0.0673009
-8.84073
0.0592318
0.0339027
0.104662
-0.122508
1.53271e-06
-0.356277
-0.0941163
-9.09946e-05
-0.000112916
-0.000250763
0.152716
0.00987024
0.0257317
0.000692474
-1.51398
9.17489e-05
-1.60171
0.068459
-8.11174e-05
0.00130812
-0.0541649
0.0940206
-0.000610505
-0.000640185
0.000209849
6.49889e-05
-0.101189
0.0285219
-4.51411
-0.163948
-2.12304e-06
0.0466569
-0.232968
-0.239253
-2.26446e-08
1.81663e-07
-0.924054
-0.0421914
7.56423e-06
0.00120639
0.0678839
-0.00908766
0.0193617
0.00217111
0.0961837
-0.140871
0.000771459
3.19144e-08
0.0433994
-0.0194685
0.694178
-9.03655e-05
-1.97154
0.0595935
1.74026
0.000170972
-2.73217e-07
0.552719
-0.504793
-0.784441
-0.279728
-0.0923942
3.32117e-06
-0.511084
-0.127088
-1.0797e-06
-0.0246345
-0.00399252
-1.2078e-07
-0.0610676
-0.183484
0.216949
-5.80966e-07
-0.139942
-0.0426655
-0.192154
-5.50693e-07
-0.000541172
0.000463448
0.000209562
0.000324853
-0.0273546
-0.00847358
-0.00317042
0.130497
0.00175896
0.00378887
0.000384865
0.000770287
-0.00628432
-0.219763
-0.0390493
-0.0127711
0.00153013
-0.000513062
0.405012
-0.0354498
3.93299e-05
0.00182011
-0.196316
-0.0159689
-0.0431478
-7.07776e-06
-6.55692e-05
3.90276e-09
-0.229213
0.000460522
-0.939445
0.187458
-0.0047872
-0.00075178
-0.563121
-0.0636932
-5.08674e-05
0.0227516
-0.00010335
-0.0168948
-4.21202e-05
-3.32068e-05
-0.00515458
-0.0491009
1.81021e-07
0.0274613
0.213046
-0.0826435
0.265987
1.90517e-05
8.50193e-07
0.00157125
0.00015717
-0.167077
-0.227617
0.0232814
2.77215
-3.88577e-05
4.65704e-05
0.000105408
-6.18941e-08
0.215155
5.09461e-05
-0.0290725
0.0512641
0.000226507
-0.179378
3.02362
0.138551
-0.0116502
0.000347222
6.19861e-07
7.43539e-07
0.000286307
0.1417
-0.233086
0.01491
1.06889e-06
4.13999e-05
-0.0643009
-6.12165e-09
0.0470317
-0.00160736
-0.0499945
-0.0635941
-0.00284189
0.000591763
-2.63839e-06
-0.00467061
-0.0069377
0.261617
-0.00766912
-0.00631663
9.17239e-07
0.175232
-1.68592e-05
-16.5155
0.25776
-0.107945
1.89089e-05
0.0540147
1.59262e-05
1.13095e-06
-6.58497e-05
0.000188763
-0.000525309
-0.061624
0.225016
0.0295435
0.0176012
-0.134682
0.0403791
0.150812
-0.0768463
0.0012149
-0.0603428
-0.378295
-6.89847e-06
-0.0277328
-0.149235
-0.00887602
-6.03997e-08
-0.00949325
6.33167
-0.152427
0.139827
-1.22257e-05
0.224593
9.26426e-08
8.80147e-06
-0.00226301
0.0599163
-4.52464e-08
-0.0180622
0.159535
-0.252172
-0.380276
-0.123526
0.158478
0.178744
-5.79977e-07
0.000535952
1.9622e-06
0.00606522
-0.00519068
0.00381389
-0.000249989
0.00522612
3.90198e-07
0.0218134
0.000237284
0.0013421
0.223858
0.00310252
-0.0670768
0.0630108
-8.25617e-06
0.105351
-1.8424e-08
0.00142577
0.00163275
0.251075