/*--------------------------------*- C++ -*----------------------------------*\
| =========                 |                                                 |
| \\      /  F ield         | OpenFOAM: The Open Source CFD Toolbox           |
|  \\    /   O peration     | Version:  v2012                                 |
|   \\  /    A nd           | Website:  www.openfoam.com                      |
|    \\/     M anipulation  |                                                 |
\*---------------------------------------------------------------------------*/
FoamFile
{
    version     2.0;
    format      ascii;
    class       volScalarField;
    location    "150";
    object      p;
}
// * * * * * * * * * * * * * * * * * * * * * * * * * * * * * * * * * * * * * //

dimensions      [0 2 -2 0 0 0 0];


internalField   nonuniform List<scalar> 
13917
(
-0.0805485
0.000157175
-0.0788444
-0.0308625
0.0276662
0.451051
-0.0600678
-0.0961665
-0.202076
-0.129551
-0.0863086
-0.0653089
-0.03115
-0.112831
0.0450155
0.0223948
0.00569486
-0.118407
-0.0642926
0.0116642
0.0208315
-0.0548012
0.0161828
-0.0976883
0.0270452
-0.0442412
0.213475
0.222392
0.0805328
-0.181972
-0.0923773
-0.0395739
0.165842
0.105511
0.0313903
-0.0729902
0.0162616
-0.117298
-0.0361668
-0.0364493
0.00239362
0.0195294
-0.0071129
0.247693
-0.0184051
0.126127
-0.115398
-0.118356
0.503262
0.00704858
-0.0610531
0.0575204
0.505772
0.109172
0.00700485
-0.0619397
-0.0892582
0.0259091
-0.0479363
-0.0172377
-0.376399
-0.00177072
-0.110176
0.0118041
0.440116
-0.368549
0.0285651
0.0356353
-0.137984
-0.0504192
0.0271887
-0.202908
-0.218302
0.0262428
0.489557
-0.0572214
-0.190044
-0.0314821
-0.0389066
0.0206584
0.0177513
0.0279794
0.425007
-0.119229
-0.395521
-0.0307131
0.0158352
-0.345011
-0.0590618
-0.00743322
-0.193098
-0.167798
-0.00500962
0.0460817
-0.34291
0.447701
-0.107338
-0.119239
-0.0584145
0.317193
0.0010284
0.162893
0.256686
-0.038311
-0.00177133
-0.208772
0.0411891
-0.12157
0.00358806
-0.0962435
-0.298889
-0.0370279
-0.0641562
-0.205925
0.0739468
0.506683
0.0183639
0.493316
-0.0513748
0.107146
0.0196046
-0.139471
-0.0668181
0.21926
0.00536934
0.0448873
-0.0141762
0.00571821
-0.00546362
0.455393
-0.0624142
0.0706728
-0.0186716
0.0210929
-0.240326
-0.0949762
-0.0787582
0.336674
0.0289124
0.107394
-0.0787659
-0.00813406
0.0592325
0.279365
0.0363056
-0.196855
0.0165484
0.0553316
-0.00752982
-0.0359911
-0.0942101
0.502901
-0.0842235
-0.0223844
-0.0547213
-0.399878
-0.0426376
-0.12847
-0.190531
-0.245328
0.0795631
0.210688
0.0183211
-0.104236
-0.0651244
-0.0594568
-0.0373321
-0.104497
-0.0131311
0.169768
-0.0362758
-0.330002
-0.0620472
0.00864434
-0.176333
-0.0159426
-0.0600984
0.500617
-0.19357
0.00637726
-0.171968
-0.0986515
-0.00860507
0.0161344
0.0760912
-0.0453881
-0.259809
-0.396322
-0.0926831
-0.0658863
-0.102419
-0.395768
-0.261595
0.0197959
0.357318
0.205267
-0.00081145
-0.00492289
0.0322662
-0.324567
-0.0508884
0.00731022
-0.0982023
-0.0927857
-0.217039
-0.209377
0.0311185
0.0267576
-0.116345
-0.0555387
0.0567417
-0.0638964
-0.217992
-0.0673393
-0.0012624
0.293532
-0.108114
-0.282236
0.0158991
-0.370773
0.00659527
-0.169818
0.00283155
-0.135875
-0.212943
0.0210503
-0.278921
-0.0579301
-0.000743216
-0.0718038
-0.0613098
-0.0910643
-0.0827919
-0.219642
-0.000523476
-0.0432887
-0.194247
-0.400088
0.0187778
0.00720579
-0.0401574
-0.115723
0.0100013
-0.0677364
-0.154068
0.199365
-0.0769339
0.0180694
0.0241139
-0.208066
-0.020698
-0.1921
0.343632
-0.0140199
0.0265205
-0.0797021
-0.039077
-0.0832964
0.0740906
0.0406821
0.0102662
-0.0650253
-0.252455
-0.0564126
-0.000205692
-0.239215
-0.123732
-0.129006
-0.0356967
-0.0573911
0.0181036
0.0045367
-0.112936
-0.156973
-0.145133
-0.0465031
-0.212618
-0.0512433
-0.00539146
-0.295463
0.0107029
-0.173188
-0.0491181
0.00995418
0.0162555
-0.0166879
0.211912
-0.0682292
0.0130472
-0.0229501
-0.236557
-0.0868546
-0.249542
0.0162334
-0.145446
0.0259323
-0.0228615
0.017957
-0.016914
0.00862182
-0.175041
-0.0714492
-0.0128222
-0.0974437
-0.0166811
0.508339
-0.0153593
-0.160186
-0.0125155
0.0257707
-0.305478
-0.0771003
0.0179566
0.00381263
-0.297803
0.0026178
-0.216634
-0.0117143
-0.138622
-0.0242573
-0.247143
-0.0758238
0.471097
0.0757624
-0.244555
0.336542
0.0132454
-0.118371
-0.0611208
0.0253713
-0.0819732
0.356566
-0.125819
0.0964959
-0.0364679
-0.0499827
-0.353811
0.337732
0.0283275
0.0151582
-0.0766229
0.0217526
-0.0439304
-0.300237
0.0397244
0.0184235
-0.114281
0.0250892
0.00290818
-0.10252
0.116021
0.00247489
-0.0509409
-0.0846709
0.0108087
0.00540681
0.0257274
-0.0079182
-0.232001
-0.187173
0.400121
-0.307383
0.0228851
-0.201186
-0.395857
-0.0877235
-0.0609011
-0.159079
-0.210935
-0.00110808
-0.0565186
0.00383102
-0.364764
-0.0164457
0.461588
-0.15832
-0.0395989
0.0220846
-0.113548
-0.178302
-0.134157
-0.102684
-0.351649
-0.283929
0.0141654
-0.121749
0.00744779
-0.400698
-0.0516146
0.0215746
-0.240798
0.0264134
-0.202305
-0.0244789
0.0217047
-0.0121667
-0.0410338
-0.00999592
-0.0400746
-0.387484
-0.0772981
0.369569
0.023767
0.314519
0.347337
0.0145113
0.0459115
0.0380329
0.0278065
-0.180327
0.0103448
0.0282639
0.00343896
-0.227716
0.0206614
-0.037585
-0.0392176
-0.389665
-0.2574
-0.0374276
-0.265389
-0.0847475
0.022292
-0.190713
-0.0358163
-0.0488677
0.0198286
-0.189831
-0.0549492
-0.0401434
0.035057
-0.158777
0.0928776
-0.0373956
-0.13213
0.000806697
-0.0538202
0.0022679
0.00867888
-0.217469
-0.0589743
-0.0578262
-0.18521
-0.390003
-0.0829919
-0.265282
-0.168269
-0.00471656
-0.115956
-0.00169664
0.0290895
-0.211049
-0.115037
-0.00641764
-0.13681
-0.0861983
-0.159221
0.0143904
-0.125618
-0.388427
-0.277361
-0.0404793
0.0209395
0.02284
-0.0011803
-0.0381407
-0.0011265
-0.04209
0.408417
0.0102999
-0.399656
-0.0612252
-0.103118
-0.265983
-0.00168535
-0.0773339
-0.0803276
-0.124432
-0.136882
-0.17979
-0.0677543
-0.069034
0.438895
-0.062894
-0.120105
-0.00313064
-0.229844
-0.0639926
-0.0129461
-0.0339001
-0.0340197
-0.162963
-0.208935
0.00309595
-0.00527247
-0.0513363
-0.266898
0.0101707
-0.0394303
-0.033546
-0.238143
0.0039756
-0.228878
-0.171681
-0.0389153
-0.0163097
-0.0373709
-0.249781
-0.401453
0.0104647
-0.213852
0.505441
-0.306436
-0.0130624
-0.397994
-0.251585
-0.0839327
0.0048202
0.0120801
-0.0554297
-0.204885
-0.00647001
0.00565867
0.00578339
0.00548306
-0.238013
-0.212637
-0.0832934
-0.256244
0.00432785
0.00140565
-0.155443
-0.231517
-0.0840186
-0.0142909
0.027309
0.0314438
-0.303247
-0.394026
0.0144184
0.031274
-0.0552211
-0.0684955
-0.0745049
0.0238959
-0.00679152
-0.0243313
-0.117267
-0.0465869
-0.262739
-0.191283
-0.142622
-0.208328
-0.158561
0.0173742
-0.209922
0.0310688
0.0173356
-0.0421977
-0.226095
-0.0127088
0.00117132
-0.275406
-0.190142
-0.386319
-0.144643
0.116693
-0.0888554
0.0223807
-0.250789
-0.25998
-0.0897296
0.00292322
-0.0733379
-0.259401
-0.161615
-0.239596
-0.122102
-0.1961
0.0270832
-0.0343153
0.0250675
0.0938326
0.270805
0.0488878
-0.105465
0.346704
-0.0918432
-0.401555
-0.0122773
-0.101391
-0.16791
0.0107312
0.0537407
0.355507
-0.221541
-0.182482
-0.24599
-0.005321
-0.0532631
-0.0562028
0.00121177
-0.0724017
-0.101137
0.157722
-0.177566
-0.0386856
-0.17579
-0.0638343
-0.24893
-0.0360088
-0.16989
0.0191475
0.0145468
-0.142312
-0.218809
0.410536
-0.0365759
0.00745259
0.0307927
-0.0524747
0.49866
-0.0596894
-0.0365697
-0.077653
-0.110669
0.00432428
-0.264763
-0.0589822
-0.0498617
0.0141081
-0.17172
-0.0331363
-0.388488
-0.1357
-0.0207103
-0.0750171
0.00335592
-0.0115448
-0.0152573
-0.0109324
0.125424
-0.235587
0.0794644
-0.104757
0.00295932
-0.180459
0.40281
-0.0809622
-0.0201643
0.114874
0.00621846
-0.0497192
-0.0510894
-0.252382
0.0210044
-0.308315
-0.0513044
-0.0828699
-0.163815
-0.223629
-0.039611
0.0124232
-0.167356
-0.240568
0.0142512
-0.0409639
-0.182627
-0.239356
-0.141677
0.0100318
-0.0175826
-0.229876
-0.0401343
-0.134279
-0.0789793
-0.0120521
-0.0869857
-0.0834324
-0.0196394
-0.028945
0.00634351
-0.0737972
0.0214427
0.0350286
-0.333157
0.0270254
-0.218333
-0.0538466
0.170064
0.00603048
-0.0210744
0.018305
-0.135127
0.00354951
-0.096087
-0.0333165
-0.37825
0.166437
-0.232793
-0.000427455
0.0220632
-0.151903
-0.110916
-0.105115
-0.21974
-0.119572
0.0300554
-0.223201
0.433021
-0.0505799
-0.231675
-0.109238
-0.0390774
-0.0710935
-0.0506748
-0.187887
0.0586113
-0.117725
0.429018
-0.118381
-0.0342816
-0.102743
0.00955903
-0.0153615
-0.0496115
-0.0969951
-0.0313748
0.0203306
0.00399048
-0.107981
-0.0393962
-0.137911
0.0292236
0.0274665
0.021696
-0.00411541
-0.00868024
-0.0312141
0.00688973
-0.229057
-0.0614501
0.357572
-0.00014114
0.0158976
0.186916
-0.140474
0.0675445
-0.294063
-0.133405
-0.357703
-0.0512551
-0.166287
-0.0294431
0.0190903
0.00518093
-0.0149157
-0.368785
0.0156186
-0.209604
-0.0325627
-0.396669
0.0281505
-0.140043
-0.0813591
-0.00669263
0.0100802
-0.0627249
0.0355676
0.0353284
-0.281106
0.0072983
0.0256308
-0.0631245
0.0064603
-0.0043181
-0.03752
0.128611
-0.103535
-0.0635505
-0.0194786
0.00190949
-0.162964
-0.0017858
0.0189211
0.00179826
-0.288747
-0.176496
-0.301805
0.108676
-0.0353586
-0.000148081
-0.00453047
-0.0642579
-0.0687921
-0.111031
0.100359
-0.0846078
-0.00705554
0.0537849
-0.308643
0.0268658
-0.0647654
0.0151908
0.00831421
-0.0902764
0.221194
-0.027451
-0.211373
-0.036874
-0.170202
0.0170062
-0.00988448
-0.0640748
-0.210982
0.010561
-0.199918
-0.00957042
-0.0916486
-0.0152298
-0.0161874
-0.209577
-0.02016
-0.0452629
-0.0958567
0.0222642
-0.00673137
0.0417471
0.00817605
-0.02872
0.202165
-0.0188403
-0.0133287
-0.176308
-0.194267
-0.0653775
-0.103723
-0.127516
-0.0527059
-0.00789744
0.125885
-0.214868
-0.108592
0.0241234
-0.0149518
-0.216447
-0.0902167
-0.310799
0.0220642
0.0701591
-0.0777833
-0.0815295
-0.029335
-0.389479
0.465949
0.00763371
-0.183265
0.00485068
-0.0190986
-0.000305739
-0.237662
-0.00843137
-0.0181318
-0.00838874
-0.0444245
-0.0360576
-0.241982
0.267193
-0.0165009
0.16269
0.0138784
-0.310088
0.0091068
-0.0193588
0.0254051
-0.0646485
0.0256238
-0.174563
-0.0387127
-0.0781469
0.109234
-0.087188
-0.339492
0.024389
-0.0536048
-0.383898
-0.337327
-0.0373117
-0.174185
-0.398622
-0.176608
0.00995302
-0.0382568
-0.0809433
-0.0536804
-0.0126772
-0.00575848
0.0172311
0.0140979
-0.0572264
0.118314
-0.0833865
-0.00573545
0.0298298
-0.399899
-0.0497915
0.0417752
0.186248
-0.0710667
-0.0238647
0.0842698
0.188712
0.0674613
-0.0366154
-0.0362549
-0.31032
0.492601
-0.0150102
-0.247058
-0.185283
-0.385401
-0.215194
-0.0595516
0.00293402
-0.0302954
-0.00608557
-0.00657116
-0.00569028
-0.00469928
-0.0271717
-0.0653808
-0.3994
-0.13096
-0.0185861
-0.162319
-0.259904
-0.0858963
0.0495712
-0.178586
-0.0118691
0.03456
0.18082
-0.399964
0.0257293
0.0147602
-0.067814
-0.088071
-0.162282
-0.14371
-0.0753535
0.00973338
-0.188739
0.0505318
0.0121713
0.0526056
-0.0424483
-0.300329
-0.0143875
-0.00704792
0.015464
-0.181027
-0.00335564
-0.0735765
0.0344546
0.00393391
-0.187501
-0.0169473
-0.138434
-0.164973
-0.0540987
-0.0129592
-0.0775801
-0.0123904
-0.227141
-0.257233
0.02752
-0.302172
-0.130317
0.47175
0.0258817
-0.0406926
0.0245607
-0.0600449
-0.0804019
-0.145031
-0.052216
-0.0502687
-0.0550798
-0.225869
0.00270322
-0.183311
-0.0160864
0.00772474
-0.0735134
0.0285122
0.0244913
-0.0161994
-0.0225166
-0.397903
-0.00587058
0.016564
-0.0899462
-0.110755
-0.100323
0.436373
-0.0562374
-0.380376
-0.0549597
-0.0874343
-0.0493752
-0.169823
-0.0671726
-0.376191
-0.0406016
-0.0498147
-0.0171212
-0.0399082
-0.0511314
0.0546067
-0.164219
-0.0864867
-0.0262855
-0.0588819
-0.023665
-0.0823893
0.0108527
-0.106997
0.298218
0.00448121
-0.136688
-0.0149331
0.0235231
0.00338064
0.110044
-0.118151
-0.0406561
-0.0240738
-0.0142719
0.308694
-0.150566
-0.212773
0.0282853
-0.00549887
-0.107605
0.0162718
-0.16763
-0.153592
-0.0263103
-0.154815
-0.0145676
-0.348637
0.05255
-0.0618847
-0.117101
-0.17824
0.0113137
0.0117514
-0.0375604
0.0118095
0.00713267
-0.384035
-0.238576
0.0890486
-0.0545567
0.0113413
-0.0239285
-0.0444226
-0.0165478
-0.00646634
-0.154944
-0.0158152
-0.145691
0.0177469
-0.00599056
0.0206698
-0.0564035
-0.0408621
0.0377534
0.0283662
0.0101611
0.0376848
0.00815143
0.411274
-0.132601
0.0106931
-0.184208
0.0157991
-0.186828
-0.0813943
0.390475
-0.0137638
0.0473271
0.0168524
0.059318
0.0504403
-0.0424177
-0.324943
0.0727266
-0.0708573
0.483808
-0.104822
-0.0551435
-0.0339631
0.423345
-0.0543343
0.012594
-0.317298
-0.117476
-0.0695565
0.0316011
-0.164338
0.21656
-0.0128715
-0.0396227
-0.385402
-0.0258313
0.00260949
-0.030649
-0.172869
-0.0734839
-0.141989
0.000180093
-0.224928
-0.053968
-0.0498978
-0.171739
-0.252154
-0.0680961
-0.0138254
0.00447599
-0.0766336
0.016026
0.0703485
-0.002853
-0.00959071
-0.00808562
0.0792727
-0.0680721
0.440113
0.124932
0.257809
-0.0396098
-0.0638138
-0.0103049
-0.176043
-0.0395719
-0.00731923
0.00656901
-0.076295
-0.370642
0.0243847
-0.140333
-0.147102
-0.0704119
0.0384222
-0.0339348
-0.017067
-0.165955
-0.0213714
0.0065937
-0.37142
-0.0388999
0.0167099
-0.203607
-0.0680283
-0.334216
0.0241111
-0.0545711
-0.0453781
-0.196727
-0.0602557
0.248904
-0.0457114
0.0188107
-0.0204295
-0.0031996
0.0333201
0.0611835
-0.0451916
0.0127206
-0.0922152
0.00676987
-0.0652267
-0.0154412
-0.140684
-0.076117
-0.304415
0.0237724
-0.254884
-0.0202918
-0.0559064
0.0268655
0.104628
0.023909
-0.113238
-0.224965
-0.0582076
0.012001
-0.133675
0.00945982
-0.0513802
-0.224416
-0.0176873
0.0534248
-0.10697
-0.0726313
-0.0658963
0.0134136
0.0322677
-0.0300847
0.0198747
0.122387
0.00906233
-0.00147141
0.0671413
-0.207092
-0.0323984
-0.111648
-0.184868
-0.120218
-0.0406139
-0.030001
-0.00134281
0.0382845
-0.245568
-0.0330546
-0.0196341
-0.078148
-0.318947
0.00631478
-0.385883
-0.138967
-0.138419
-0.00742261
-0.0062467
-0.0550954
0.0527143
0.0227137
0.168949
-0.0121361
0.0812077
-0.0550006
-0.0816511
0.431783
-0.0529128
-0.0366223
-0.090799
-0.045428
-0.0392125
-0.0665415
0.168841
-0.38195
-0.0964081
-0.383361
0.0871305
-0.349938
-0.388785
-0.0132361
0.0111119
0.00854542
-0.0302546
-0.105397
-0.0158611
0.0876571
-0.0580079
-0.0363601
0.0738876
-0.195931
0.126072
-0.0461133
-0.19653
-0.0287903
-0.0407327
-0.0414003
0.104692
0.00506182
-0.23298
-0.318488
0.00840452
-0.0318275
-0.0409911
0.123071
-0.400829
0.00767304
-0.0163051
-0.0872575
-0.0328489
0.151062
-0.387102
0.0303445
-0.126657
-0.0524755
-0.00657989
0.00341878
-0.0387525
-0.344729
-0.0122213
-0.0414703
0.0281461
-0.0309426
0.177748
-0.172951
0.0471985
0.401117
-0.138137
-0.0499462
-0.199737
-0.0323823
-0.0567458
0.0785366
0.116123
0.0267903
-0.0794785
-0.17679
0.0642515
0.174875
-0.105505
0.43149
0.412369
0.103265
0.0266443
0.0244938
0.0312267
-0.323995
-0.1054
-0.0427963
-0.032928
-0.0441274
0.0179308
0.016114
0.0348645
-0.0912351
-0.0530929
-0.179651
0.128292
-0.389801
-0.0395998
0.0323079
-0.107545
0.000514521
0.00784378
-0.231348
0.00150901
-0.00404042
-0.100403
-0.140866
0.253
-0.0420091
-0.0903501
-0.0111604
-0.120176
-0.00698897
-0.0247327
0.0675024
0.0227899
-0.0204018
-0.144789
-0.241551
-0.0159953
-0.0406515
-0.00407231
-0.0138241
-0.00439036
0.428352
-0.0450344
-0.0405345
-0.386071
-0.0181446
-0.113827
-0.0379281
0.0101327
0.123313
0.00740396
-0.0405017
-0.141518
0.0364332
-0.0391547
-0.113018
0.23351
0.0181586
-0.31492
0.0907356
0.397567
-0.0296422
0.146675
-0.247275
-0.0135413
0.332917
0.0365167
-0.139696
0.204721
0.00999858
-0.399461
0.0269678
-0.137664
-0.13059
0.338062
0.0226085
0.0696342
0.0461293
-0.102712
0.0616513
-0.0376561
0.082515
-0.0803941
-0.0109973
-0.0998596
0.036389
-0.0551563
-0.0637112
0.00448333
-0.00269457
0.483885
-0.033482
-0.0454237
-0.0253163
-0.0429405
-0.0492391
-0.0607951
0.0153359
0.00983475
0.0276996
-0.00501286
-0.165573
0.0457219
0.190498
-0.0309844
0.0103745
-0.214501
-0.0421918
-0.0559756
-0.0462016
0.034848
-0.388143
-0.102803
-0.0473808
0.493935
-0.182759
-0.242139
-0.0525553
-0.326949
0.00549407
-0.165236
-0.37815
0.434435
0.013297
0.0511248
-0.0919837
-0.039987
-0.0383133
-0.289665
-0.0226364
0.111823
-0.0982675
-0.0383293
-0.387563
-0.080482
-0.119194
-0.00168412
-0.14874
-0.0586381
0.013503
-0.17756
-0.285309
0.0263337
-0.147401
0.0143511
-0.018676
-0.138388
-0.178135
0.00229132
-0.0235081
-0.0197429
-0.0156114
-0.0404228
-0.150141
-0.0340485
0.0105298
0.0121378
-0.0650928
-0.0519099
-0.0465892
-0.237305
0.032354
-0.197667
-0.395845
-0.142445
0.0988614
-0.124436
-0.155691
-0.0827097
-0.0405449
-0.118127
-0.344326
0.00649084
-0.296915
-0.0383097
-0.000928516
0.0192542
-0.18194
-0.33519
-0.340713
-0.0167213
0.0118149
-0.0554134
-0.328009
-0.337155
-0.0257607
0.0848887
0.493431
0.0295153
-0.0767
-0.398738
-0.0835855
-0.325523
0.0390548
0.0105474
0.00355999
0.104525
-0.0856404
-0.0768499
-0.0488554
0.0652499
-0.0894902
-0.343792
-0.0640717
-0.211231
-0.3996
-0.0491365
0.443103
0.0279016
0.0127456
-0.0443361
-0.00559739
-0.0126448
0.0248072
0.510379
-0.0921519
-0.397003
-0.189739
0.0223979
-0.219123
-0.0944446
-0.00731313
-0.401183
0.212859
0.10058
-0.0240919
-0.388523
-0.291901
0.0251855
-0.266125
-0.135798
-0.392202
-0.325555
-0.14933
0.0093228
-0.0267615
-0.266204
-0.0523223
-0.0547539
-0.0997102
-0.331484
-0.156908
0.0636671
0.0718513
0.00527562
0.0513775
-0.362929
-0.0408953
0.0311927
-0.400996
-0.0826923
0.0128843
0.0699831
0.00969932
-0.168429
-0.0181988
0.500046
0.0872253
0.00755395
0.00294836
0.324197
-0.176266
-0.0966459
-0.00493686
-0.10246
0.0360635
-0.0347466
-0.0608039
-0.328846
-0.0415398
-0.314082
-0.00322633
0.00292217
0.00996397
-0.0579208
0.00397324
0.0086973
-0.143204
-0.101969
-0.118004
-0.0127432
-0.27334
-0.0401609
0.0101345
-0.354897
-0.121179
-0.0675049
0.470848
0.00862599
-0.400287
0.0841389
0.0488828
0.0793833
-0.00546644
-0.0645585
-6.16801e-05
-0.0292175
0.150137
-0.0381138
-0.0419705
0.0146262
0.00678995
-0.0298722
-0.012002
-0.175612
0.0555058
-0.160045
-0.041796
-0.173962
-0.0313567
-0.084769
-0.00364765
-0.237095
-0.0229936
-0.00605059
-0.395951
0.31512
0.347589
-0.0791389
0.158648
-0.0947404
0.0339703
-0.283253
0.031705
0.0045954
0.322579
-0.0592651
-0.397365
-0.373135
-0.167169
-0.248266
-0.188857
-0.268794
-0.00640179
-0.0513956
-0.0626969
-0.215599
0.0994531
-0.25165
-0.0602384
-0.0253884
0.0419665
0.0167342
-0.27596
0.45039
-0.0399542
0.0193797
0.024017
-0.0505308
-0.094646
-0.251493
-0.134358
0.00983639
0.379861
-0.167388
-0.220282
-0.139846
-0.00278914
-0.0376824
-0.218264
0.0035983
-0.164619
-0.0625645
0.0319047
-0.0295474
-0.148496
0.333976
0.0513848
-0.0863926
-0.043076
-0.181948
-0.0536397
0.0543181
-0.0340104
-0.297965
0.00282428
0.0666168
0.497785
-0.356761
-0.118488
-0.144936
-0.0501401
0.104356
0.0241177
-0.363636
-0.0576499
-0.0209922
-0.0747082
0.0111419
0.010972
0.509701
0.026443
0.00946978
0.0191596
-0.112183
0.0531692
-0.0486417
-0.0926512
-0.244069
-0.18352
0.0244798
-0.0240861
0.209109
-0.235154
-0.166228
0.122472
-0.163279
-0.0817904
-0.280953
0.0109954
-0.275392
-0.0401268
0.0107123
-0.0408877
-0.00524011
0.42505
-0.187157
-0.0231573
0.487547
-0.236421
0.000622053
0.0514174
-0.0415993
-0.0593934
-0.0602584
-0.00610321
-0.357542
-0.0402085
0.442578
0.0190259
-0.212101
-0.0581532
0.134366
-0.343935
-0.0587633
-0.00500365
-0.0738114
-0.227959
-0.0799925
-0.0388089
-0.268395
-0.00335847
-0.227079
-0.0113109
-0.377091
-0.00399735
0.241905
0.0561147
0.00833228
-0.139177
-0.188176
-0.173011
-0.144168
0.037775
-0.118446
0.00161785
-0.314861
-0.0422427
0.0340853
-0.0135022
0.156658
-0.017812
-0.105231
-0.105086
-0.269984
-0.120504
-0.0244509
-0.0245142
-0.162047
0.069761
-0.112267
-0.00420039
0.023262
-0.287156
-0.193224
-0.156638
0.312727
0.0122102
-0.198382
0.000276715
0.0923474
-0.356877
-0.390584
0.0258204
0.0198071
-0.0609307
0.0976898
0.0493989
-0.140819
-0.227699
-0.0114374
-0.00652443
0.0249559
0.00927137
0.254148
-0.0144078
-0.0378313
-0.163698
-0.0573967
-0.00804333
-0.0743048
-0.273661
-0.0829865
-0.0189089
-0.398885
0.0300178
-0.221504
0.156617
0.176337
-0.00618291
-0.269802
-0.375007
-0.0637759
0.00676641
-0.146977
-0.0143962
0.102441
0.0467854
-0.0410077
0.0654521
-0.325325
-0.0588033
-0.114149
0.0267338
-0.254831
-0.0619332
0.0112952
0.421702
-0.00570032
-0.0486544
-0.0885968
0.045138
-0.345602
0.0132127
0.431417
0.0467423
0.00936838
-0.394308
-0.0785326
0.0811516
0.163825
-0.0677836
-0.118559
-0.0775454
-0.0512546
0.0344688
-0.0537721
-0.0833245
0.0821227
-0.0394228
0.0358292
-0.076223
-0.0564704
-0.032913
-0.143106
-0.0052625
-0.0608781
0.0881863
-0.303982
-0.322266
-0.331009
-0.278282
-0.203963
0.0852219
-0.0223871
-0.103567
0.0936647
0.0358009
-0.313524
-0.180766
0.0638801
-0.0418083
-0.0612259
-0.0648182
-0.0749712
-0.21903
0.0100235
-0.0488423
-0.0678612
0.0446876
0.0129514
-0.0772742
-0.00883006
-0.039264
0.0567491
-0.193001
-0.0757389
-0.0982448
-0.180953
-0.185996
-0.170788
-0.00134408
-0.122295
-0.0756529
-0.392855
-0.0290733
-0.0406855
-0.0708435
0.48248
0.0317113
0.0382069
-0.112417
-0.0618439
-0.392602
-0.287613
0.153555
-0.230518
0.00494814
-0.0092374
-0.267927
0.2747
0.0315488
-0.182038
-0.0444155
0.0849991
0.0526196
-0.150817
-0.0122558
-0.191887
-0.134218
-0.399176
-0.176612
-0.0526227
-0.121128
-0.384558
0.0319051
0.0358701
-0.152632
-0.0040116
0.206524
-0.397715
-0.0438375
-0.0890618
-0.0855881
-0.030092
-0.198715
-0.00668935
-0.0945542
0.0199279
-0.385844
-0.00940661
0.0382201
-0.0658469
-0.16969
0.00904368
0.0378911
-0.388954
0.0430272
-0.132121
-0.00807262
-0.328863
-0.263028
-0.116663
0.307439
0.00659724
-0.0507919
-0.0810429
-0.0984928
-0.00754722
-0.0295376
0.00920234
-0.0834186
0.0263085
-0.0786318
0.0464125
-0.0112137
-0.295593
-0.00958939
-0.0464
-0.0483338
0.0175316
-0.0686541
-0.00651772
-0.0291234
-0.160803
-0.0598278
-0.0404604
0.0401784
-0.304819
-0.0604111
-0.181518
-0.00105796
-0.0987252
-0.0242178
-0.0968205
-0.0837123
-0.0763561
-0.226881
-0.219402
-0.222415
-0.285473
0.11469
-0.0897879
0.0395791
-0.26755
0.0792353
-0.0234533
0.0345791
-0.0857958
-0.00950148
-0.195128
-0.108167
-0.0666446
-0.2404
0.330931
0.0143149
-0.196214
0.181391
0.0560142
0.0733332
0.0355758
-0.113272
0.0355087
-0.0441861
-0.00877992
-0.0594274
-0.286127
-0.0325771
0.0277263
0.0335299
-0.211623
-0.00411329
0.0347748
-0.0547156
-0.0242632
-0.0561561
0.01155
-0.0571147
0.32208
0.114028
-0.245124
-0.374487
-0.0663697
-0.240085
-0.00288599
0.023715
0.050496
-0.0303098
0.142704
-0.0397488
-0.0927481
-0.00596122
0.033364
-0.0380872
-0.160697
-0.0060373
-0.00181978
0.109017
-0.395349
-0.0392039
-0.0505443
-0.0532467
0.0215317
-0.24589
-0.081542
0.32699
0.157097
0.0367818
0.0580995
-0.0925711
-0.209779
0.0626871
-0.0213989
-0.0448549
-0.0645404
0.0620146
-0.356808
0.0167439
-0.114458
-0.0123225
0.126801
-0.000757421
0.00835363
-0.253724
-0.278845
0.264152
-0.0393443
-0.397669
0.04228
-0.180926
-0.0559119
-0.00249679
-0.152759
-0.093808
-0.120085
0.0241945
-0.0411707
-0.382194
-0.0212832
0.0183819
-0.0444565
-0.0726468
0.0205108
-0.0104601
-0.0220862
-0.0444007
-0.162203
-0.190274
0.311379
-0.160045
-0.00379038
0.0261557
-0.0677133
-0.00576805
-0.0929319
0.114691
-0.0210917
-0.120629
0.0210019
0.0345514
-0.218088
0.0107106
-0.287084
0.0238677
-0.324552
-0.0552271
-0.160918
0.0171777
0.0115015
-0.220298
-0.00570127
-0.0282893
0.0550773
-0.218202
-0.275444
-0.0866657
-0.0699162
0.0632808
-0.159368
0.0632376
-0.100811
-0.0169033
0.0225461
-0.401034
-0.0942201
-0.312184
-0.0215619
-0.114231
-0.10786
-0.399745
-0.181985
-0.206162
-0.0927567
-0.00653567
-0.22693
-0.0162103
-0.0159554
-0.186809
-0.0837367
0.086302
0.276233
0.0762716
0.00406801
-0.0547447
-0.227239
-0.0460439
0.0111058
-0.388426
0.0579895
-0.00715532
-0.0360542
0.00900346
0.0202118
-0.16716
-0.191432
-0.396061
-0.00630838
0.0735476
0.00946868
0.388292
-0.00227667
0.447807
-0.151423
-0.051652
-0.0381276
-0.360665
0.144462
-0.242356
0.472605
0.0215084
0.060659
0.104959
0.123962
0.489538
-0.181216
-0.349097
-0.0407005
0.501651
0.0301076
-0.1142
0.00820736
-0.400617
-0.0701343
-0.0359095
-0.039795
-0.0262732
0.00124044
-0.13212
-0.341155
-0.00282755
-0.0345721
0.00293298
-0.206585
-0.0336803
-0.263117
-0.0425249
-0.317985
0.0274137
0.00163746
-0.13613
0.422773
0.024521
-0.0958829
0.0195422
-0.204581
0.161721
-0.152059
-0.094363
-0.350755
-0.00475022
-0.0174276
-0.0659139
-0.038471
-0.055845
-0.0631671
0.0110248
-0.0384974
0.0253218
0.00493258
-0.0263682
0.0243428
-0.388019
-0.150526
-0.141463
-0.057164
-0.225695
-0.227598
-0.00510871
-0.0736456
-0.00570479
0.479251
-0.0220817
0.0507834
0.0261571
0.00752566
-0.0147968
-0.163053
-0.0310198
0.425037
-0.01204
0.157678
-0.00412022
0.484455
0.0179682
-0.0785523
-0.0668469
-0.107931
-0.350511
0.00776465
-0.0657547
-0.145848
0.000156054
-0.00633748
0.0140312
-0.0387752
-0.351816
-0.0225968
-0.013592
-0.15502
-0.0985865
0.197943
-0.118955
0.0336116
-0.0986101
-0.0726203
-0.00435784
-0.172193
-0.0282068
-0.0399876
0.0340163
-0.0236251
0.0201317
-0.154125
-0.0523622
-0.00550333
0.378441
-0.0841392
0.00874456
-0.0132252
0.00156442
0.398246
-0.166255
-0.140243
-0.0380774
-0.0962439
0.0179566
0.0318888
-0.0366427
0.0105846
-0.15545
0.0365337
-0.0720041
-0.301295
-0.0798156
-0.00493513
-0.0402057
-0.112142
0.0182639
-0.155439
-0.0758529
-0.134679
0.0962025
-0.383043
-0.131653
0.0107833
-0.170005
-0.167644
-0.0475726
-0.263193
-0.0710879
-0.0458531
-0.138338
0.00576205
-0.181969
0.276373
-0.170964
0.00949263
0.0170179
-0.00557364
0.164441
-0.0767474
-0.080586
-0.225462
-0.393152
-0.0416952
0.0193347
0.488988
-0.0481496
-0.16522
0.0268653
0.0106222
-0.102724
-0.0462837
0.0378991
-0.0762342
-0.371178
-0.179958
-0.324859
0.331881
-0.172158
-0.0378969
-0.269379
-0.00918212
-0.300545
-0.176136
-0.0207512
-0.0286288
0.00331644
-0.336442
-0.175332
-0.141499
-0.0239725
-0.339481
-0.0134924
-0.198859
-0.0455439
0.0306002
-0.0797206
-0.242733
-0.076023
-0.130329
-0.0296541
0.0373524
0.0562243
-0.100238
-0.0700782
-0.333535
-0.167459
-0.00772529
-0.400919
-0.214391
-0.0476144
0.00794652
0.0124
-0.0469334
0.412777
0.0148123
-0.121258
0.298999
0.189921
-0.0391166
-0.0747587
-0.292901
-0.189055
0.04511
-0.0107531
0.288196
-0.0434148
-0.344746
-0.0196578
0.18407
0.313139
0.361774
-0.0244994
0.0188498
0.359287
-0.192191
-0.30395
0.404022
-0.0385191
0.0122726
0.409619
-0.193132
0.0459932
0.276746
-0.159126
-0.00579813
-0.153138
-0.151036
0.42137
0.0202041
-0.0385879
-0.146224
-0.379714
-0.00780506
-0.0402455
0.0020755
-0.0291893
0.00309444
-0.116143
0.0324419
0.0952162
0.369972
-0.078973
-0.178846
0.0770207
-0.0449836
-0.0283135
-0.285646
0.26614
-0.366243
-0.0148386
0.108485
-0.349682
0.323436
0.0409121
0.0788895
-0.198709
-0.146466
-0.208938
0.0108972
0.00568093
0.00130333
-0.178946
0.0172113
0.462634
0.484412
0.395093
-0.0471395
-0.238116
-0.352343
0.00517266
-0.260906
0.0293154
0.224073
-0.00246954
-0.0192612
-0.124695
-0.253534
0.00925116
-0.38783
-0.214025
0.320508
-0.225807
-0.00302686
0.0126555
-0.0744708
-0.0315785
-0.385269
-0.380837
0.0378581
-0.239458
0.00770182
-0.0122789
-0.0159262
0.0245584
-0.350518
-0.0389612
-0.323926
0.290201
-0.0248549
0.436024
-0.332326
-0.0392633
-0.340914
-0.0423087
-0.0166784
0.0247846
-0.0314952
0.460392
0.34936
-0.238074
0.023857
-0.0292418
0.123725
0.0100367
-0.0625164
0.0761984
0.172055
0.238208
0.047622
0.0107914
-0.00690987
-0.114608
0.00935007
0.0076411
0.315593
0.0528426
0.00325062
-0.126578
0.00304254
-0.315885
-0.040889
0.482306
0.0329561
0.310413
0.0212049
-0.111898
-0.032349
-0.0299515
0.113913
-0.320494
-0.0402737
0.310472
-0.0220075
-0.0873223
-0.115776
-0.0391729
-0.237259
0.0266522
-0.240943
-0.196685
-0.00652234
0.261925
-0.213322
0.326254
0.0213274
-0.128872
0.411896
-0.196462
-0.174741
-0.0225914
-0.146517
0.0287361
0.0110696
-0.0620486
-0.0955703
0.0118483
-0.0385102
-0.366679
-0.0651825
-0.379487
0.406737
-0.317462
-0.244599
-0.00614561
-0.0400703
-0.011741
0.130817
-0.195573
-0.212563
0.050258
0.0035728
-0.0123894
-0.294695
-0.0859268
-0.116756
-0.0451164
0.350313
-0.398779
-0.276235
0.0150091
-0.395164
0.027696
0.106043
0.137476
-0.0484932
-0.0924291
0.104927
-0.0300581
0.266169
-0.0687083
-0.0471292
-0.387749
0.156628
-0.0405694
-0.0622604
0.0243587
0.472565
-0.139915
0.0606037
-0.353283
-0.393669
-0.0751448
0.102081
-0.0610573
-0.394648
0.0162916
-0.016278
-0.00536661
-0.00398877
0.0578913
-0.400079
0.0498676
-0.15244
0.00644792
-0.0198436
0.43944
-0.0250686
-0.00639361
0.0182762
0.0286624
-0.165497
-0.0114596
-0.400702
-0.0222115
-0.0375987
-0.0296281
0.0497995
0.359465
-0.0118604
0.0132586
-0.00925131
-0.0605632
0.293684
-0.0465172
-0.0451749
0.00522223
0.0858131
-0.073941
-0.241611
0.0673285
0.0172948
-0.0150953
-0.0093411
-0.25753
0.00601683
-0.0146835
-0.0494819
-0.3162
0.00567533
0.171221
0.0459962
0.020004
-0.0931837
-0.397504
-0.0831755
-0.100878
-0.0480207
-0.070445
0.0444931
0.343883
-0.222828
-0.0282737
-0.14867
-0.0547131
-0.0770691
0.0487563
0.0276841
0.476042
-0.0491065
-0.248942
-0.152584
-0.0115926
0.0226543
-0.399418
-0.0411269
-0.0764855
0.0595743
0.0152635
-0.396589
-0.194037
-0.00800849
0.0116173
-0.0219898
0.0178089
0.0198455
0.0342685
0.173649
-0.1903
0.0138595
0.0444162
0.445832
0.0138076
-0.245156
0.0512861
-0.0214141
-0.0633228
0.00901378
-0.178129
0.0599003
0.236694
0.0172249
-0.018714
-0.302909
-0.353134
0.00937972
-0.0795605
0.197783
0.0211795
0.0811957
0.0116637
-0.0298625
-0.280901
-0.216313
-0.0527883
-0.117091
-0.0299294
-0.385883
-0.135981
-0.0223075
-0.23808
0.0612439
-0.0982796
-0.147751
-0.0377907
-0.314986
-0.213652
-0.046455
-0.0134771
-0.0499649
0.0961784
-0.0113456
-0.0149684
-0.0718782
0.293407
-0.0134908
0.106987
-0.0964366
0.0696965
0.408997
-0.061916
-0.0616552
-0.291381
-0.325137
0.166972
0.0975777
-0.0607011
-0.39863
-0.12383
0.0732812
-0.0119602
7.16011e-06
-0.0090829
-0.0759396
-0.0860393
-0.197377
-0.0162151
-0.281359
0.0101204
-0.0543292
-0.0388635
0.306468
-0.204521
0.307874
0.370059
0.0580281
0.162325
0.00311318
0.114067
0.0167217
-0.0245657
-0.0821573
-0.0710451
0.0177379
0.0931791
-0.205913
0.000965618
-0.0159044
0.111347
-0.39961
-0.183016
-0.133641
0.195803
0.0113095
-0.0404184
0.189332
-0.0318073
0.0315757
0.00726912
-0.0209885
0.0344494
-0.0459762
-0.172671
0.00834744
-0.0104008
0.222271
0.00493663
0.105145
0.132393
0.0255072
0.0147777
-0.40066
-0.00656502
0.0243801
-0.00711883
0.0682356
-0.00783129
-0.322687
-0.0416482
-0.235379