/*--------------------------------*- C++ -*----------------------------------*\
| =========                 |                                                 |
| \\      /  F ield         | OpenFOAM: The Open Source CFD Toolbox           |
|  \\    /   O peration     | Version:  v2012                                 |
|   \\  /    A nd           | Website:  www.openfoam.com                      |
|    \\/     M anipulation  |                                                 |
\*---------------------------------------------------------------------------*/
FoamFile
{
    version     2.0;
    format      ascii;
    class       volScalarField;
    location    "150";
    object      ReThetat_0;
}
// * * * * * * * * * * * * * * * * * * * * * * * * * * * * * * * * * * * * * //

dimensions      [0 0 0 0 0 0 0];


internalField   nonuniform List<scalar> 
13917
(
634.128
611.913
42.8496
564.303
565.703
238.121
39.2089
42.1449
32.77
646.706
420.72
514.503
564.099
32.7149
577.769
595.714
609.981
557.737
512.441
589.511
582.949
37.9837
588.857
45.3127
566.337
39.196
335.932
324.405
372.188
639.243
639.286
626.664
363.136
405.895
552.985
488.005
589.192
33.0211
539.867
31.9986
596.597
583.957
606.584
309.151
619.145
390.8
553.705
488.407
228.023
592.571
602.273
477.374
223.88
402.344
608.893
633.98
420.119
587.886
633.53
618.59
42.2443
614.99
32.63
589.532
241.954
145.114
558.013
534.214
440.309
620.396
564.46
33.8328
31.9993
571.245
229.305
507.936
32.3731
622.993
38.9434
583.171
585.826
560.288
245.444
33.0772
36.3104
622.31
586.617
214.588
598.87
606.905
32.2245
655.513
611.623
560.986
189.545
241.7
437.509
504.021
481.735
286.933
601.302
367.086
304.372
621.382
606.236
33.8749
435.301
490.968
612.027
638.406
32.1763
32.0498
475.371
33.1146
438.639
227.992
590.493
230.736
30.7732
408.569
584.488
442.592
31.9193
328.12
594.705
568.569
617.429
593.923
605.658
236.78
31.6653
444.739
619.576
582.458
342.084
46.7916
632.367
281.88
559.598
406.376
406.94
609.674
475.865
294.478
534.291
40.3036
395.215
474.068
609.15
622.859
549.615
228.189
443.891
599.986
635.153
47.2197
619.066
217.409
32.3811
324.494
441.898
338.475
585.347
438.307
474.186
475.589
620.505
488.859
615.11
363.704
609.891
32.3852
480.621
608.311
49.9293
593.013
31.774
230.428
43.2526
606.347
638.712
640.813
610.217
586.584
544.977
42.323
612.294
50.0353
628.264
446.2
470.832
36.8685
645.396
586.931
276.029
341.801
585.808
611.924
485.349
367.456
564.237
591.788
492.986
536.259
32.0506
459.015
559.218
586.907
503.871
44.3629
492.421
38.5079
32.1111
447.659
605.645
281.992
511.679
31.9699
594.121
48.5412
604.611
632.511
597.204
32.8827
33.4782
595.818
522.204
635.919
605.049
463.312
487.96
624.094
48.0688
32.1312
601.96
628.344
32.1612
37.4836
584.996
596.126
33.2316
438.099
584.896
375.876
516.294
343.526
635.395
585.685
570.12
32.2137
607.699
657.188
276.772
617.179
587.028
467.433
33.135
452.791
547.584
581.467
584.836
31.8354
40.4651
414.108
604.843
31.8854
32.7936
143.421
37.8664
516.41
584.774
595.84
551.187
32.6819
473.917
632.154
305.65
506.815
605.75
66.9901
589.99
47.2085
559.015
585.099
594.414
596.46
338.779
381.957
588.553
612.283
485.599
48.8108
36.9992
593.792
103.681
572.664
611.324
590.168
392.654
589.457
585.443
633.295
614.458
482.109
622.984
226.568
593.307
654.157
612.81
587.284
32.2395
32.3313
591.673
596.263
80.2215
606.032
31.9814
612.176
32.8772
571.858
642.514
544.755
214.216
453.612
476.537
278.766
597.276
444.288
521.555
592.536
32.7032
278.126
32.817
412.838
30.2665
631.859
33.5095
282.755
526.573
537.691
39.8829
582.123
613.076
32.2328
541.322
600.884
32.7963
476.451
612.028
402.857
364.405
599.561
30.875
446.641
590.208
600.248
570.711
609.064
471.102
45.5814
246.98
32.292
581.637
653.649
39.2684
514.95
37.5196
32.6704
32.8696
602.575
409.074
602.127
57.8456
618.145
215.868
524.923
550.166
579.953
507.903
654.83
509.093
206.835
33.3465
31.9741
572.473
644.584
596.423
37.7474
37.3979
593.316
540.79
570.862
451.214
571.141
581.667
620.764
39.3564
619.088
33.4562
60.7121
431.985
255.054
594.606
280.074
266.144
591.721
448.771
549.808
571.347
629.282
585.046
567.335
601.242
473.946
583.843
30.271
45.1545
45.4699
649.847
32.477
31.9195
503.479
583.479
488.57
539.036
629.701
587.324
41.8053
40.6421
49.1498
586.56
511.531
414.657
530.689
517.752
613.828
448.274
612.47
589.412
31.9209
31.5394
31.682
653.568
43.2172
32.8505
31.8742
32.5839
604.953
538.113
615.369
585.125
517.081
544.708
595.574
608.609
528.312
32.6516
591.709
459.396
83.2143
605.574
30.1983
583.624
591.534
586.755
616.387
602.089
46.3492
247.384
590.865
39.9781
632.052
443.006
31.8708
430.711
443.46
431.27
457.315
641.235
496.084
497.113
427.804
239.481
495.834
482.883
597.5
438.402
616.889
607.751
615.328
624.365
32.6284
33.5468
606.26
605.063
49.4088
31.9326
585.051
30.1318
599.675
647.225
606.592
31.9813
233.187
624.291
621.439
33.0734
616.362
36.9429
584.878
32.1388
227.735
74.9079
607.983
36.1177
32.346
522.216
600.742
604.657
520.257
497.896
599.66
599.574
594.667
595.146
31.9216
566.118
513.892
627.181
594.295
599.964
508.103
31.5403
638.385
616.549
572.81
549.932
62.5697
37.0172
587.308
550.149
412.992
501.421
533.218
589.992
616.117
620.419
474.423
522.412
643.022
501.532
490.726
427.57
654.245
592.488
32.1699
550.403
601.376
567.886
499.162
573.109
598.601
619.626
584.964
132.471
492.313
466.803
526.736
577.337
35.0357
626.404
34.3691
611.329
627.584
595.604
32.6245
32.052
505.407
652.257
592.53
629.983
590.291
509.831
300.807
496.069
510.549
278.017
34.6642
37.0449
619.435
446.402
385.152
596.452
492.071
207.668
39.3792
38.5766
543.143
605.659
30.9988
509.274
598.253
638.863
464.419
368.11
627.984
38.554
499.645
501.874
34.9324
626.908
32.5723
585.215
587.142
90.184
38.1063
239.726
627.338
609.401
551.933
504.159
227.284
481.555
630.41
430.875
506.15
605.418
530.148
486.68
512.424
595.561
499.278
624.914
73.5155
648.214
580.249
631.62
597.68
609.322
617.95
555.712
396.299
490.648
215.958
491.704
598.93
503.197
239.504
489.881
608.848
393.658
598.995
532.265
635.227
32.0582
582.478
463.249
538.981
419.956
654.688
31.9551
591.838
605.692
32.5781
32.0197
601.076
567.866
275.734
576.372
467.675
585.613
622.693
646.019
553.526
508.685
467.521
609.401
493.088
43.2579
599.514
562.119
593.968
32.2247
583.063
586.891
32.4399
593.913
40.5573
634.569
359.939
594.504
595.718
589.53
645.393
596.912
621.221
593.184
124.175
246.852
31.5475
589.197
583.021
652.937
643.907
32.8136
31.7023
576.47
555.594
481.376
233.824
478.767
502.568
556.465
40.1245
627.887
508.877
516.58
472.874
576.315
232.557
606.301
556.973
459.86
599.623
608.987
527.85
639.073
622.3
586.99
595.081
500.188
612.597
513.235
557.124
563.242
583.802
614.527
606.525
625.483
593.256
31.9768
496.89
264.714
601.3
585.367
346.46
647.616
455.973
51.3256
644.171
81.3479
532.948
498.061
618.112
582.632
595.374
622.302
33.1171
585.058
169.927
626.031
39.5846
561.79
646.468
421.405
607.151
584.386
501.152
530.261
572.444
68.1229
609.918
571.573
637.463
595.974
603.72
625.662
385.418
32.7422
630.269
595.728
598.676
32.5949
547.426
598.844
610.764
60.7298
286.665
32.0757
499.712
571.836
601.036
604.679
492.655
632.155
384.468
411.729
32.6683
613.974
541.009
32.1228
569.845
601.701
599.286
590.331
636.241
333.55
624.484
38.8624
32.0115
655.946
593.3
607.647
463.743
226.771
585.095
478.442
607.64
638.406
591.462
609.026
539.59
617.316
129.097
642.105
583.051
606.46
521.724
600.761
562.575
211.829
608.863
611.202
32.81
37.0372
504.055
641.708
539.027
622.551
610.277
388.996
32.0885
626.161
576.055
620.588
31.8786
627.013
32.4317
583.03
449.692
32.3303
581.848
623.206
33.9511
219.889
600.655
557.331
596.177
615.92
601.735
31.8632
605.628
581.24
610.323
90.5849
542.731
648.414
308.528
608.758
366.333
587.044
32.3606
595.454
609.412
573.402
452.722
571.773
497.894
32.6427
51.4638
399.828
438.983
32.5934
589.066
31.0942
39.1435
32.6114
32.1224
32.7086
179.512
488.365
606.012
37.7068
586.337
36.0416
608.033
611.033
600.904
587.419
621.638
405.201
32.5847
611.202
555.67
38.2451
542.567
523.993
349.694
638.445
619.704
260.296
347.837
479.531
548.831
31.7828
32.1575
230.897
594.331
628.602
557.12
34.2004
32.6383
502.761
605.722
618.474
612.459
605.485
615.363
605.022
622.705
625.45
39.4847
455.616
582.981
499.309
31.8359
635.852
500.668
32.4901
614.129
585.114
353.623
41.3105
572.246
595.491
37.6931
402.625
386.547
482.045
480.3
600.31
537.307
502.44
593.42
498.298
43.4605
32.078
610.673
606.579
599.503
223.024
615.019
628.537
537.978
612.461
511.483
608.262
645.122
613.616
31.6414
616.863
610.399
619.44
31.9529
31.8311
566.894
32.164
548.694
227.115
571.881
38.3711
579.255
633.746
632.271
490.625
46.1415
514.53
531.946
38.0966
598.493
446.26
609.036
600.853
36.9108
586.565
579.67
622.66
618.92
38.7624
605.984
588.82
507.08
641.66
515.144
238.064
541.874
33.4953
511.007
617.769
508.389
32.5641
501.126
71.9354
38.0647
576.027
607.289
34.0229
489.051
481.773
519.048
641.066
587.388
622.359
620.671
633.213
584.395
537.453
286.54
601.035
613.221
612.163
558.166
597.373
404.593
534.195
608.628
614.627
611.365
241.993
651.065
42.4256
569.788
616.178
492.183
598.452
590.821
651.821
588.44
541.549
611.834
53.5096
489.913
504.434
32.8272
438.741
598.72
606.157
32.3293
592.89
598.416
34.2794
31.8219
422.424
549.096
589.553
613.211
44.9061
623.038
607.242
460.111
610.363
323.803
585.32
607.088
596.691
534.924
30.5753
546.538
590.997
599.206
584.022
590.162
233.048
628.655
584.877
44.0568
568.65
463.616
32.895
208.272
610.45
511.557
598.86
376.822
573.118
30.4625
32.3608
466.674
36.1782
228.76
522.388
545.664
592.43
244.848
47.9422
561.121
680.107
33.1441
474.561
589.03
32.6123
327.967
608.703
618.772
53.6093
604.729
606.441
598.19
567.035
630.278
32.806
612.373
42.1128
508.672
530.334
514.956
598.715
637.265
611.785
611.547
46.5398
593.007
473.888
600.633
618.667
612.5
539.935
432.265
222.369
484.416
312.536
51.9129
537.109
613.467
230.329
46.0545
608.599
598.92
636.784
33.2197
580.939
575.013
569.263
625.031
532.005
574.796
611.349
539.561
599.708
593.713
153.697
39.5828
575.635
408.047
465.467
453.172
595.93
617.94
61.0586
316.203
494.595
262.21
630.04
580.916
612.304
616.379
552.991
468.407
606.541
596.963
431.226
596.476
637.623
609.074
647.192
434.404
634.734
589.276
601.912
613.059
65.937
563.477
406.219
576.529
396.721
31.9776
479.23
598.04
462.971
606.464
631.638
31.9018
615.535
491.618
642.672
639.705
36.8022
596.518
580.682
553.794
587.912
400.162
607.522
601.963
478.979
32.2162
628.896
434.822
39.7288
593.205
30.8469
628.071
601.7
574.714
31.9567
563.218
602.582
508.241
343.589
602.145
52.4235
616.823
542
608.178
606.298
541.885
500.787
583.397
362.29
608.839
445.397
634.91
461.901
247.672
39.815
533.544
469.363
276.752
32.6544
508.089
369.115
33.6339
619.053
58.4623
424.986
216.885
46.2487
607.725
585.04
596.551
598.047
642.856
608.728
428.453
515.966
627.029
546.664
32.2452
392.816
619.614
32.6475
624.212
30.1359
566.004
499.976
603.177
31.9963
32.2546
607.357
603.005
41.1572
388.974
36.137
592.43
611.599
35.0074
614.459
429.622
72.7501
554.69
629.331
633.079
606.456
597.475
38.8184
32.661
619.119
620.193
585.744
625.143
355.259
32.5408
541.16
216.614
114.606
502.501
214.683
613.983
531.747
452.789
398.644
566.897
474.269
32.4513
483.575
359.512
43.3266
223.543
251.544
407.638
591.179
580.167
547.049
32.2931
503.341
603.015
599.388
631.871
583.938
597.734
535.926
467.768
506.462
45.9521
482.118
52.7877
33.5383
579.264
526.43
601.972
599.255
32.0301
609.964
615.064
509.078
463.606
316.039
45.1796
405.135
613.96
32.9732
606.522
620.229
538.731
582.611
600.131
453.569
45.426
611.316
53.4806
615.369
610.219
615.431
213.076
627.821
559.338
48.3126
623.739
388.413
33.6795
585.392
485.893
592.851
33.028
561.766
530.2
42.668
533.659
326.47
584.718
32.218
491.725
251.374
568.433
451.768
31.9307
611.329
253.203
555.593
611.651
337.836
585.392
36.9988
594.247
465.921
618.504
285.385
573.737
539.19
545.806
43.645
558.409
30.1914
536.145
467.65
616.085
641.746
539.582
513.648
49.0231
611.992
608.138
223.265
621.909
150.683
623.608
51.5057
540.524
629.172
593.827
597.812
567.044
605.486
546.082
545.364
347.539
624.73
590.291
363.838
620.086
627.867
641.13
545.224
81.6328
516.145
519.047
225.957
32.3995
511.849
55.3608
143.154
603.06
603.931
33.7243
246.569
587.118
494.539
436.57
41.4123
30.1827
591.034
576.638
495.494
620.072
32.7358
46.8811
511.783
455.359
613.182
650.871
509.479
587.369
588.042
55.5643
568.935
191.316
585.299
615.641
32.8094
32.4066
599.405
573.738
624.494
612.421
605.247
464.266
581.442
594.78
589.783
497.736
634.623
631.603
482.675
549.297
32.1084
34.4828
32.9089
445.684
641.433
403.021
623.769
38.0168
412.888
185.713
610.845
33.0076
32.056
602.27
588.669
614.061
32.9066
61.1025
608.195
604.27
31.429
476.712
263.964
625.855
432.268
227.977
586.242
32.7912
46.9385
487.766
550.282
532.854
599.3
597.475
407.52
32.675
518.084
564.375
464.752
616.081
32.5729
496.426
47.7069
39.0121
30.6527
218.607
563.721
587.197
53.9236
605.765
609.715
596.724
226.921
619.16
48.7612
544.486
585.836
31.5833
641.444
612.095
36.4461
357.938
410.775
609.073
51.8334
32.1785
574.571
47.1969
98.0003
36.773
499.492
649.404
601.523
624.488
499.331
635.591
57.9276
643.422
374.824
454.723
473.265
549.387
607.546
523.156
33.7825
30.1737
546.993
37.4938
516.186
602.999
506.704
597.388
482.724
622.605
230.666
516.374
602.712
597.701
287.823
32.5176
626.872
615.398
643.502
542.44
626.595
583.768
32.3263
30.2459
32.5052
604.638
598.204
606.78
501.135
601.913
607.758
446.362
487.536
511.523
607.604
31.9476
30.3225
584.533
32.8013
452.365
515.762
222.796
605.742
39.2361
528.957
561.561
441.853
605.66
377.068
584.872
577.084
373.619
32.8996
30.6778
585.246
592.446
629.1
616.663
494.961
490.239
593.663
620.512
32.4971
599.891
34.6321
604.977
31.5966
622.168
606.152
37.6165
290.235
279.398
496.864
407.606
552.35
541.774
31.9853
548.985
601.232
290.153
497.446
47.4811
33.7181
500.837
43.3433
539.707
513.541
598.721
629.866
587.673
31.8948
408.506
31.8017
31.493
601.464
517.715
598.313
592.985
226.619
618.429
586.385
593.288
633.402
608.699
486.719
592.917
590.967
252.344
652.511
32.116
534.407
615.036
629.643
31.5715
597.017
582.461
44.4689
588.86
626.096
459.459
279.833
527.945
32.527
631.425
442.664
505.833
565.61
616.256
32.2356
599.981
507.958
227.014
33.6655
635.366
651.627
566.966
506.87
582.044
33.9945
591.354
613.919
627.024
589.873
584.856
226.024
568.266
587.271
596.393
435.206
484.847
624.778
462.143
654.371
533.298
580.686
533.919
331.848
571.066
649.598
389.389
469.28
52.898
603.516
584.543
73.5899
47.9351
584.556
631.035
605.548
241.095
641.335
610.764
232.243
31.7955
600.239
493.017
42.5321
31.4212
495.119
606.187
106.458
34.4711
212.677
588.711
31.9084
511.922
463.786
32.9531
632.928
605.292
636.629
581.705
626.567
42.6927
31.8963
608.55
43.7824
470.08
33.8026
605.277
320.583
475.077
602.508
32.908
238.729
444.928
154.863
578.13
620.019
588.942
32.592
30.1902
542.503
620.602
369.319
607.277
516.896
34.7832
43.1362
613.58
622.953
592.053
32.5825
506.328
544.746
608.555
597.291
609.792
213.749
522.193
215.349
587.392
455.027
588.015
515.742
45.4226
34.1207
570.441
584.209
516.187
413.584
498.561
33.0255
31.8126
611.775
604.585
575.469
594.481
224.604
610.024
43.4853
543.533
501.228
612.191
627.419
31.9624
594.608
493.773
38.5673
588.72
32.0783
369.111
356.411
494.761
31.9333
33.6624
505.184
601.915
610.768
610.155
404
514.422
45.71
554.702
402.163
405.438
607.728
567.003
660.425
620.748
584.834
250.408
605.58
507.14
640.266
518.522
51.5366
605.222
243.063
555.063
597.39
36.6207
32.7427
436.776
366.195
500.625
644.064
477.171
561.935
585.898
623.744
386.337
463.251
48.9681
549.265
410.622
542.78
616.178
33.1545
605.961
42.7617
426.883
32.2941
370.017
192.753
96.0151
458.395
500.458
611.297
34.0953
489.716
525.82
32.1763
41.1106
480.328
594.148
633.934
634.977
554.144
32.0626
584.552
519.087
509.351
569.54
587.37
459.281
607.562
49.7454
546.685
561.837
638.906
622.697
653.998
176.53
647.998
607.581
595.437
35.5538
78.151
612.008
57.5512
631.28
239.642
549.18
584.587
33.2013
491.324
34.5596
31.9992
371.162
31.5688
607.596
607.658
31.9372
308.407
590.25
33.0521
630.372
524.82
568.328
653.093
618.493
48.9389
44.8243
38.0719
440.256
633.66
644.944
33.9755
590.385
578.623
650.911
603.519
343.856
41.7689
30.3074
32.6185
482.461
610.573
32.0294
606.311
459.978
584.788
96.2988
618.292
558.342
31.9021
530.787
592.397
573.787
69.8269
514.713
445.378
610.593
67.3358
31.8604
464.085
293.294
596.166
490.733
422.155
626.815
610.71
598.724
588.198
482.294
568.411
456.403
504.094
612.068
32.7729
613.042
631.799
575.722
584.375
32.2433
611.574
612.372
32.6173
497.863
49.8297
527.24
32.3639
492.095
32.4803
613.26
436.212
590.946
560.648
428.328
438.015
506.8
31.8831
503.736
534.8
400.679
435.775
563.359
493.148
466.92
595.302
547.404
493.752
587.994
309.427
519.581
50.8091
52.3076
285.737
600.542
133.31
371.649
491.13
464.171
548.918
56.8536
538.126
30.404
612.562
582.053
32.0074
586.049
563.82
550.531
32.1803
611.693
587.82
631.655
611.193
634.349
606.162
501.419
290.975
500.135
519.557
33.9326
32.0379
31.9471
604.255
588.616
513.253
612.431
456.694
55.654
32.9076
606.013
545.724
34.0529
527.449
606.427
607.987
404.821
50.419
40.9209
634.652
626.594
582.324
489.246
427.576
282.439
369.921
563.201
478.784
640.567
471.074
473.141
619.237
632.183
41.7688
543.095
32.879
588.548
33.135
598.712
386.703
602.69
598.064
577.71
60.6608
312.806
33.0509
43.4306
564.677
32.3534
539.649
596.692
89.6498
430.004
455.315
581.107
31.3101
34.1075
612.913
577.283
30.2729
627.502
594.927
611.738
622.011
618.817
606.127
457.982
294.644
647.64
601.946
592.21
57.027
610.96
635.217
398.503
576.367
630.198
587.872
587.645
483.68
593.523
32.0297
578.391
241.436
32.2307
537.054
600.761
584.378
31.8173
605.925
627.165
486.588
643.17
536.051
639.758
32.4659
546.487
357.286
467.029
468.461
610.315
580.021
37.0804
33.0169
543.282
623.851
478.914
476.439
37.523
32.2947
482.247
641.032
606.091
31.8707
614.909
617.378
456.845
432.82
498.665
315.951
531.343
596.096
634.763
31.5483
632.314
593.594
33.9299
543.335
608.492
31.9367
592.08
586.704
474.542
650.296
57.3181
607.971
483.937
598.884
217.868
609.36
240.152
124.736
31.6878
32.9468
179.489
376.373
31.869
239.914
581.424
560.332
509.135
404.394
232.818
32.4005
33.2198
33.07
227.538
585.165
457.486
591.865
38.3368
634.872
582.743
630.544
624.187
607.188
467.174
32.9868
604.341
629.319
598.091
32.1391
628.44
31.8818
47.1671
503.468
565.938
607.097
32.8361
248.136
574.848
573.156
585.231
656.995
387.2
533.254
487.746
124.629
608.942
605.469
383.435
33.4114
632.807
622.267
600.671
32.4926
580.138
594.862
626.367
588.672
54.9322
32.7469
442.672
501.476
31.7821
539.182
605.446
569.93
606.928
240.93
615.763
570.119
579.119
598.35
611.596
413.44
570.606
227.6
599.755
369.504
582.674
227.041
589.054
613.146
511.387
633.835
34.2068
598.735
31.8627
651.674
583.524
594.15
595.399
31.3178
32.7613
614.855
615.593
418.738
375.327
346.35
33.2147
587.517
471.203
554.249
605.359
49.0577
560.374
37.8571
549.334
624.989
586.251
32.7056
31.3906
605.891
260.916
388.417
591.128
614.359
596.051
256.535
32.5401
650.417
550.972
639.905
589.502
567.34
628.432
593.465
467.388
547.398
481.384
661.267
637.687
605.738
58.3171
479.233
589.401
653.289
615.627
499.471
413.795
40.8914
637.232
604.108
640.012
625.83
633.232
31.9955
479.595
524.145
425.466
605.207
647.051
300.215
647.05
596.834
596.682
605.73
364.833
481.38
483.203
49.6193
34.8461
46.5409
583.69
228.477
33.2394
32.5191
577.601
605.072
499.957
38.8026
584.994
527.828
167.391
32.4698
266.904
282.147
484.665
33.4807
471.569
607.662
277.287
462.426
621.869
616.977
612.408
33.0416
594.792
43.4682
624.827
212.172
619.055
442.336
30.4035
586.222
569.417
31.8305
56.4733
643.028
627.389
584.912
488.18
588.491
444.335
435.008
32.4965
609.473
37.5648
653.81
698.501
592.13
587.489
459.3
253.644
598.245
642.031
298.708
349.306
50.5774
39.3512
32.2311
32.1844
578.754
608.968
302.983
30.1983
65.5941
614.346
359.879
289.45
257.427
574.06
584.478
241.341
152.989
230.836
227.377
32.5856
596.161
255.333
32.1418
522.566
307.426
518.706
606.496
463.529
33.6648
252.828
583.405
32.754
475.687
113.687
606.539
592.161
611.741
557.755
613.492
644.951
568.146
520.019
261.177
565.316
32.4452
471.036
529.462
621.101
31.9838
312.044
33.2829
611.599
408.744
32.6166
286.46
525.241
533.56
172.239
40.0337
467.377
602.125
605.862
609.505
466.58
601.529
215.705
228.266
255.86
624.684
548.632
32.7971
611.144
48.8131
577.707
326.903
611.48
613.713
616.467
31.7775
590.409
34.2716
621.187
290.357
617.309
610.457
592.05
624.62
577.486
99.4785
108.191
528.813
584.161
605.343
618.189
620.073
579.787
34.7664
618.954
32.4551
298.073
572.754
242.823
462.26
31.8492
32.5004
622.144
608.637
574.37
565.282
243.807
275.448
31.7317
576.138
606.549
423.452
585.063
379.538
447.878
387.453
344.023
557.68
581.938
608.813
630.29
584.927
506.087
291.649
552.308
599.596
602.331
605.968
501.392
34.1415
232.837
570.882
290.703
593.621
565.167
627.76
577.196
400.084
32.2473
40.1089
294.921
597.114
578.432
636.716
44.9383
31.7479
582.266
31.8054
631.174
611.312
313.095
31.8335
287.577
582.05
641.956
228.967
538.066
32.5387
619.074
477.2
559.877
601.199
504.769
463.694
584.991
30.4228
34.1798
378.942
46.2383
249.806
32.678
514.863
607.668
631.562
608.646
470.814
470.485
537.436
569.093
584.352
607.748
32.1806
536.634
641.999
37.8094
280.919
43.1443
32.0035
598.965
34.4638
562.679
414.494
467.849
34.4676
418.486
416.891
554.571
293.568
633.062
41.6886
56.0239
369.579
34.3275
500.839
582.583
239.508
651.07
485.216
32.7841
56.7706
625.915
408.803
465.655
40.4158
596.446
621.837
605.693
606.773
476.542
40.6626
566.602
32.737
595.209
614.038
237.623
618.453
576.841
588.714
568.472
358.677
611.317
38.8771
610.823
618.048
605.94
496.563
273.162
612.041
584.906
611.09
634.575
296.595
583.652
33.0989
605.262
526.253
624.762
31.7642
455.61
584.391
597.228
609.017
479.703
604.012
615.518
626.931
530.994
596.425
358.234
568.695
595
51.9067
38.832
416.321
51.9221
584.208
450.654
518.5
282.641
476.617
612.102
309.336
555.554
64.1518
568.203
563.578
243.01
615.351
611.129
34.6255
599.695
589.826
35.0896
34.7849
476.503
536.582
603.438
46.2204
51.3908
606.514
595.111
618.341
586.259
584.046
540.285
359.44
32.1109
589.328
527.285
243.283
592.651
560.636
549.356
579.909
637.278
599.305
618.221
547.192
321.135
595.616
620.831
32.1886
32.9092
587.4
485.104
339.724
585.817
443.941
584.818
578.653
530.658
606.715
503.648
58.7041
601.103
90.4236
468.295
620.794
32.0356
483.403
34.3287
43.7453
31.8762
449.112
31.936
33.5266
601.898
633.575
417.212
608.316
609.75
626.023
297.076
611.786
424.495
435.227
511.097
254.088
382.425
630.444
603.207
89.6094
364.472
414.018
474.38
45.5768
33.074
514.349
607.477
607.744
610.78
640.005
32.7351
627.882
603.585
31.9798
595.172
553.402
46.9086
295.175
650.234
291.646
260.677
494.186
368.051
603.905
410.779
596.433
625.196
607.193
431.066
585.987
419.594
32.1725
599.32
618.049
413.314
42.3263
552.165
497.967
346.863
588.146
33.808
350.84
629.054
559.08
595.28
618.419
541.938
525.841
32.5264
606.903
608.71
328.873
602.727
474.483
385.024
571.772
593.045
40.1016
608.35
577.128
607.111
533.142
605.034
32.377
631.218
668.262
594.898
614.732
599.043
32.0241
498.411
532.348
604.037
42.1367
407.921
494.088
601.457
497.653
602.338
606.464
415.085
604.004
523.112
581.285
612.602
437.281
565.185
591.809
236.161
228.215
38.8092
567.583
37.6071
609.372
32.3655
595.064
43.1606
37.8095
600.797
40.4893
594.591
32.3047
50.6831
250.764
31.909
32.8567
578.105
532.095
39.0892
42.8723
621.568
498.24
32.4802
456.412
607.414
499.838
629.524
427.173
90.7335
599.896
723.641
32.2555
36.842
478.231
441.636
585.206
524.089
322.325
622.122
41.5518
624.473
280.526
607.692
590.825
46.4311
608.671
664.912
613.878
37.9703
33.9989
362.366
594.109
595.053
44.3183
51.3019
575.175
623.441
583.386
583.364
478.848
478.507
372.951
587.044
575.663
543.466
555.667
492.892
53.2872
609.071
65.8553
616.483
180.342
315.918
576.731
172.479
426.352
606.027
317.817
544.14
495.016
555.512
584.285
44.5396
576.237
492.184
626.858
421.906
613.061
546.796
600.78
425.82
503.247
558.64
524.316
403.507
536.496
440.052
574.914
521.024
438.598
602.079
229.353
235.306
500.905
522.595
515.004
592.346
607.437
624.811
606.675
584.519
378.086
465.653
584.526
600.684
33.3933
44.997
606.028
605.521
311.939
566.442
376.184
33.1187
32.6354
649.882
625.85
421.763
596.949
376.468
38.4794
32.5217
421.592
433.645
62.812
589.103
632.001
487.031
577.91
437.095
608.692
606.462
653.222
507.897
53.0629
33.2487
599.81
607.731
35.1127
32.1213
579.519
557.118
442.888
518.174
592.99
609.757
848.902
606.394
32.1184
509.001
620.963
531.509
503.53
503.965
657.498
32.516
432.177
620.735
390.703
489.61
38.8187
577.278
66.8444
31.8137
581.729
41.1429
633.644
601.221
580.677
607.245
32.0434
568.827
574.734
459.999
576.994
608.977
47.7476
624.424
47.1778
73.4126
567.16
31.9646
602.524
597.27
432.371
44.8916
459.674
597.617
59.8701
590.867
581.896
37.2328
610.556
32.6391
584.552
32.8086
293.589
299.343
444.968
497.595
31.593
603.696
34.3645
34.4463
34.1892
35.6979
595.685
614.485
651.741
34.5381
32.0217
32.599
30.8934
608.679
34.3121
31.7572
549.642
372.025
371.363
623.285
65.1671
567.061
43.0728
595.458
576.104
620.707
607.977
38.2969
584.233
30.9747
50.8339
587.123
477.516
579.025
629.383
31.7329
591.518
606.414
557.416
32.9322
34.9767
635.46
32.8531
38.1064
597.288
36.8858
31.8769
433.894
32.2994
649.798
558.183
577.217
649.076
628.5
647.027
40.7895
34.3769
566.823
463.915
411.376
508.443
604.584
501.522
429.16
649.299
52.9909
230.105
221.141
607.701
515.796
478.368
31.8182
439.889
34.2431
48.7618
31.7848
576.238
296.71
30.3894
52.2697
37.3353
590.786
46.0233
327.056
469.415
465.805
631.574
572.625
33.1576
350.631
586.062
33.5286
618.581
617.768
441.641
430.011
611
537.429
579.331
30.5282
99.1621
609.381
53.7461
602.907
597.238
474.873
62.6079
32.7561
31.4914
142.495
32.0067
628.666
614.052
153.699
253.912
581.603
556.246
605.579
608.275
616.983
663.074
31.8709
639.658
52.0715
33.443
31.9421
481.547
33.2627
34.9514
32.7118
32.4351
508.938
100.185
634.466
330.121
338.169
550.14
460.657
584.314
32.9417
604.459
732.595
40.5841
35.4179
587.579
32.2924
38.5693
537.249
602.602
32.2937
466.929
486.509
609.959
547.871
612.543
611.649
32.3429
32.6176
586.809
32.9491
35.0243
631.614
495.31
32.5682
317.393
294.574
32.3036
316.875
599.582
40.5492
456.548
617.02
32.3578
32.6957
482.493
492.793
543.688
652.188
619.954
32.1285
622.633
193.116
33.6347
622.624
649.111
469.84
32.0401
620.282
32.0638
596.382
575.06
32.4106
532.446
623.56
588.374
33.0603
32.4707
506.699
620.894
387.886
575.557
32.9357
346.288
461.403
31.8028
464.336
618.254
626.001
560.826
498.31
161.068
32.2066
454.211
232.138
633.535
496.403
451.869
584.663
452.782
606.568
33.58
480.283
662.952
602.141
510.822
594.736
617.036
634.976
576.356
32.615
60.8635
396.959
600.119
617.255
489.444
31.0238
514.372
590.734
495.271
612.949
632.086
32.0603
639.691
32.7395
294.989
492.865
482.201
508.462
619.002
31.9877
32.6132
45.6933
157.533
118.64
58.7791
614.44
630.655
32.8334
43.0033
461.194
631.748
597.781
483.768
511.113
504.344
583.538
584.314
575.865
585.228
32.4995
615.078
610.042
371.41
500.146
571.57
630.38
338.031
285.013
642.872
56.4792
52.3823
41.587
513.188
32.297
633.435
629.688
629.828
594.082
441.784
420.512
31.7882
354.602
647.258
31.8753
521.13
585.321
460.178
578.45
33.8552
601.593
382.672
547.315
629.156
561.173
600.554
33.3354
603.241
585.029
628.261
62.198
280.856
501.835
433.075
560.948
419.929
31.225
469.362
295.964
32.0508
30.4587
578.691
615.617
464.83
656.831
492.097
631.812
622.967
505.796
516.362
31.7535
602.022
381.609
595.87
32.891
32.5406
581.997
606.684
50.6984
619.001
527.047
640.368
34.1675
31.8955
607.16
622.953
624.642
606.106
32.6584
626.033
457.519
65.839
643.642
435.11
619.488
572.863
31.9607
320.157
32.3361
619.158
646.48
32.0753
626.997
496.604
605.103
501.265
380.36
636.698
59.4492
585.157
623.225
32.4475
608.399
36.0026
503.203
477.223
593.729
636.051
41.8613
46.2687
32.8053
30.6404
646.793
33.2858
32.2193
31.7844
31.7329
34.4129
31.9524
466.48
621.404
514.438
393.115
507.89
396.256
611.996
551.428
485.613
40.1471
32.1439
31.9615
45.5782
625.278
620.499
618.285
592.698
32.7653
32.7011
33.8638
32.0623
529.37
635.125
49.9198
38.1053
31.7816
620.032
566.019
62.9126
581.3
636.169
464.56
501.807
33.2305
31.996
503.695
56.6781
53.4408
31.7908
468.391
530.875
651.396
49.9665
629.583
471.906
32.6784
31.9459
32.6676
386.107
631.337
32.1711
44.586
52.2326
478.735
574.605
630.085
480.439
33.207
87.0947
439
455.334
635.894
529.921
608.793
32.0078
32.1221
44.9426
48.0128
636.009
32.3588
33.0907
33.2774
32.3026
32.5058
32.2345
32.1014
610.397
33.4945
450.283
608.532
397.178
648.706
48.9504
635.609
596.273
438.963
483.408
44.4401
351.235
33.012
620.942
32.9816
35.0507
480.286
483.67
614.176
620.794
636.559
411.45
415.359
56.5786
35.4799
620.348
31.8415
644.603
35.479
616.833
615.67
471.416
39.3928
535.266
31.9187
266.098
32.7759
37.3274
32.1623
503.023
32.8352
465.417
261.185
604.8
434.015
629.931
481.841
518.682
31.8031
615.36
524.969
47.3998
616.878
627.851
32.1582
591.555
618.652
418.079
440.534
640.128
44.358
598.619
44.0768
596.999
461.968
591.014
499.073
440.955
574.398
33.0864
474.55
598.337
335.547
53.7549
381.858
479.206
493.119
513.714
621.326
626.666
36.0007
604.704
528.453
603.954
40.7656
393.425
597.372
34.1495
461.788
31.9843
364.474
616.506
52.5588
45.34
478.815
617.43
616.703
114.736
585.502
131.276
634.519
482.528
422.609
596.184
563.442
36.6897
30.4872
382.987
624.015
517.727
506.16
619.796
433.062
34.0487
451.876
37.9424
550.477
632.109
507.469
31.7826
518.73
470.648
607.3
52.8395
371.265
627.555
470.99
57.1049
591.778
445.631
462.525
426.05
606.772
604.936
600.616
525.335
465.383
635.772
510.92
559.889
637.478
639.53
630.275
552.492
546.413
532.377
614.323
37.7825
622.983
650.905
660.822
479.632
508.31
32.898
540.753
626.668
32.7883
33.7241
496.816
528.714
470.487
629.328
31.8937