/*--------------------------------*- C++ -*----------------------------------*\
| =========                 |                                                 |
| \\      /  F ield         | OpenFOAM: The Open Source CFD Toolbox           |
|  \\    /   O peration     | Version:  v2012                                 |
|   \\  /    A nd           | Website:  www.openfoam.com                      |
|    \\/     M anipulation  |                                                 |
\*---------------------------------------------------------------------------*/
FoamFile
{
    version     2.0;
    format      ascii;
    class       volVectorField;
    location    "150";
    object      U;
}
// * * * * * * * * * * * * * * * * * * * * * * * * * * * * * * * * * * * * * //

dimensions      [0 1 -1 0 0 0 0];


internalField   nonuniform List<vector> 
13917
(
(1.09487 0.120814 -2.95241e-20)
(1.02062 0.0390319 6.02667e-22)
(0.693648 -0.100348 -4.77994e-20)
(1.05259 -0.013349 -1.68248e-21)
(0.99642 0.00336372 -1.37673e-20)
(0.372771 0.0607189 0)
(0.612731 -0.0844839 0)
(0.696537 -0.101501 0)
(0.467476 -0.0502497 -1.9074e-20)
(1.13742 0.143526 4.36052e-20)
(1.10831 -0.0720698 -2.34152e-21)
(1.09121 -0.0474034 0)
(1.05282 -0.0146258 0)
(0.00522401 -0.00674378 -1.87544e-20)
(0.975394 0.0880578 -1.04103e-20)
(0.998297 0.0901695 5.47084e-21)
(1.01541 0.0443587 2.21308e-21)
(1.13848 0.0177253 0)
(1.09036 -0.0478739 1.40356e-21)
(1.00157 0.00472649 4.97366e-21)
(0.999946 0.000994007 0)
(0.594454 -0.0820983 0)
(1.0011 0.00750721 7.49668e-21)
(0.754664 -0.105229 -1.93314e-20)
(0.995145 0.0149138 1.42755e-21)
(0.620357 -0.0696763 1.53436e-20)
(0.788333 0.0379311 0)
(0.769801 0.123484 -4.23363e-20)
(0.804129 0.507333 0)
(1.18751 0.0878234 0)
(1.10752 0.107874 3.10739e-20)
(1.05992 0.0865033 8.70202e-21)
(0.843223 0.072818 0)
(0.915292 -0.00259936 2.29789e-20)
(0.991992 0.0113483 -1.6448e-21)
(1.09477 -0.0920712 1.63093e-20)
(1.00102 0.00728823 4.97913e-22)
(0.135567 -0.0392324 0)
(1.05919 -0.0193205 -4.93134e-21)
(0.381742 -0.00863513 8.36995e-22)
(1.00782 0.000949898 0)
(0.999965 0.000589301 -8.38831e-22)
(1.01899 0.00206466 -2.39933e-21)
(0.71385 0.212203 0)
(1.03765 0.0224088 -6.15991e-21)
(0.893016 0.0142924 0)
(1.13592 0.0138329 0)
(1.14194 -0.0154151 0)
(0.116583 0.135033 1.78234e-19)
(1.00326 0.000630499 -2.46115e-21)
(1.0843 0.0114633 0)
(0.966106 0.00813667 -5.61498e-21)
(0.0644484 0.106311 -3.17757e-19)
(0.91126 0.00540597 2.60746e-20)
(1.01393 0.0437386 0)
(1.0837 0.0345568 -1.16451e-20)
(1.11085 -0.0766354 -2.25737e-20)
(0.996106 0.0283106 1.19924e-20)
(1.06963 0.041349 6.58813e-21)
(1.0362 0.0220159 2.52765e-22)
(0.683735 0.0589408 0)
(1.02243 0.0372214 5.41623e-22)
(-0.00903562 -0.00152009 2.01256e-20)
(1.00166 0.0049761 0)
(0.396423 0.0792619 0)
(1.18355 0.396857 -3.31008e-20)
(0.995631 -6.28532e-05 -1.52468e-20)
(0.988461 -0.000775337 -2.19942e-20)
(1.16329 -0.0541037 -5.57312e-20)
(1.06553 0.125683 -8.53166e-21)
(0.996816 0.00375905 1.26451e-20)
(0.530085 -0.0560681 1.01543e-20)
(-0.0659036 -0.0122521 -5.5289e-20)
(0.99591 0.0136055 -4.06361e-21)
(0.116077 0.224469 -1.53207e-19)
(1.08574 -0.0511011 -1.74607e-20)
(-0.0894703 -0.0100821 1.4652e-20)
(1.05247 0.0245219 0)
(0.625814 -0.0524737 0)
(0.999891 0.0020707 -7.79924e-21)
(1.00015 0.00340202 -6.93974e-21)
(0.996196 9.89164e-05 0)
(0.41948 0.153284 0)
(0.165196 -0.0449461 0)
(-0.0597133 0.0172388 -8.04229e-20)
(1.05152 0.0223695 -6.09646e-21)
(1.00046 0.00405589 6.83213e-21)
(1.21537 0.413467 0)
(1.0821 0.0104504 2.09359e-20)
(1.01945 0.00181733 0)
(-0.0029352 -0.0208217 0)
(1.1737 0.125118 -7.93401e-20)
(1.02269 0.0218685 0)
(0.976726 0.0509038 -6.01314e-22)
(1.18988 0.42592 9.32098e-20)
(0.380254 -0.000559618 -7.05887e-20)
(1.13162 -0.0557448 -2.00434e-20)
(1.14159 -0.00567549 -2.97424e-20)
(1.08426 -0.0554217 -2.22605e-20)
(0.624378 0.141112 1.26222e-19)
(1.01057 0.00528486 -7.74264e-22)
(0.848821 0.00972944 -5.05875e-20)
(0.709979 0.181794 5.71655e-20)
(1.05952 0.0167987 0)
(1.0158 0.0114903 2.86747e-22)
(0.544819 -0.0482729 9.14593e-22)
(0.845988 0.510863 -2.38254e-20)
(1.14477 -0.0175809 6.91107e-20)
(1.01747 0.0437327 0)
(1.10984 0.117629 2.36795e-21)
(-0.116024 -0.0135569 6.52033e-20)
(0.387321 -0.00724894 2.42199e-21)
(1.0902 -0.0518931 0)
(0.507544 -0.0478066 7.77947e-20)
(0.949184 0.0103946 1.10341e-20)
(0.0757235 -0.0900038 -8.93715e-20)
(1.00093 0.0132169 -1.33053e-20)
(0.214586 0.0849598 -3.15474e-20)
(0.241927 -0.0180428 -3.41895e-21)
(0.913181 0.0127716 -6.29823e-20)
(0.99997 0.000698964 -6.15298e-21)
(1.16422 -0.0542362 8.89615e-20)
(0.187559 -0.0217901 0)
(0.769579 0.128314 3.09253e-20)
(1.00477 0.000644392 1.1549e-21)
(0.977834 0.049318 0)
(1.03346 0.0260611 -7.62777e-21)
(1.00448 0.000586564 -1.969e-21)
(1.01664 0.00164806 -9.83992e-22)
(0.356238 -0.011316 0)
(0.296995 -0.0435938 -7.70314e-21)
(0.952483 0.0104495 8.30334e-21)
(1.03802 0.0232064 -5.86828e-21)
(0.99996 0.000809938 0)
(1.24827 0.00917539 -4.71717e-20)
(0.769395 -0.107829 0)
(1.09357 0.115963 2.56341e-20)
(0.599332 0.140107 4.57582e-20)
(0.995287 0.000133669 1.712e-20)
(0.912836 0.0113298 3.48939e-20)
(1.09802 -0.0935291 -3.62909e-20)
(1.02346 0.0119972 0)
(0.964659 0.0209423 0)
(0.676016 0.182389 0)
(0.987861 -0.00151465 1.01305e-20)
(0.751042 -0.0621988 -4.72429e-22)
(0.844201 0.560353 -5.32254e-22)
(0.968412 0.011727 0)
(1.02213 0.0100746 -2.48819e-21)
(1.05607 0.0914868 -1.32485e-20)
(1.11804 -0.0278878 0)
(0.0922575 -0.132688 2.99879e-19)
(1.10887 -0.0547484 2.20652e-20)
(1.03006 0.179113 -8.07654e-23)
(1.07587 0.0621337 0)
(-4.29557e-06 0.0541984 1.82342e-19)
(1.0586 0.127843 0)
(1.15227 -0.107984 6.95147e-20)
(-0.110204 -0.00778468 3.15826e-20)
(1.24756 0.0107812 -7.04144e-21)
(0.942031 0.0441394 -1.22213e-20)
(0.79187 -0.00370121 -4.96231e-20)
(1.00009 0.0022902 6.75153e-21)
(1.1291 -0.0572559 -1.75771e-20)
(1.09078 -0.0524711 7.58269e-21)
(1.08543 -0.0561016 2.35371e-20)
(1.05894 0.0190999 0)
(1.12812 -0.0188897 4.05214e-20)
(1.03108 0.0189293 0)
(0.842885 -0.012977 3.43741e-20)
(1.04762 0.171107 0)
(-0.240993 -0.00443115 5.06088e-20)
(1.08872 -0.0529274 0)
(1.01324 0.0535571 2.55986e-21)
(0.901699 -0.0825529 1.34097e-20)
(1.02222 0.192385 -5.60773e-21)
(0.321425 -0.048877 6.63663e-21)
(0.162463 0.115473 -1.06095e-19)
(0.807427 -0.066293 0)
(1.01251 0.0257569 0)
(1.17726 0.11453 0)
(1.11386 0.100108 0)
(1.02394 0.0116619 1.84866e-21)
(1.0004 0.00466923 -5.63469e-21)
(0.940573 0.114467 2.00613e-20)
(0.679636 -0.072748 -3.77806e-24)
(1.24734 0.122008 -1.73275e-19)
(0.0626067 0.0572794 -1.27523e-19)
(1.1136 0.0386164 -1.47989e-20)
(1.09004 -0.0580527 3.79336e-20)
(1.12544 -0.103089 -3.07164e-20)
(-0.00358944 0.0219912 -8.07173e-20)
(1.2445 0.160214 -1.06473e-19)
(0.999843 0.00778928 -8.46566e-21)
(0.574046 0.0430237 0)
(0.799403 0.0248093 1.10062e-19)
(1.00941 0.000557507 0)
(1.02259 0.0221432 0)
(0.912613 0.39836 4.89861e-21)
(1.21912 0.453161 0)
(1.07436 -0.0059091 -4.38391e-21)
(1.00289 0.000713069 -3.4221e-21)
(1.12159 -0.0215468 6.08417e-20)
(1.11625 -0.029555 0)
(-0.0950813 -0.00983001 -9.03946e-20)
(1.22905 -0.0235659 -5.21701e-20)
(0.992332 0.0107611 0)
(0.995376 0.030904 -1.36435e-20)
(1.13893 -0.00923516 6.48454e-21)
(0.710858 -0.0886819 -8.55465e-21)
(0.966752 0.0220766 9.59193e-21)
(0.596319 -0.0872553 0)
(-0.141477 -0.00676958 3.19763e-20)
(1.09115 -0.0594498 -2.30775e-20)
(1.01531 0.0114673 1.02313e-22)
(0.53995 0.415077 2.67104e-19)
(1.13093 -0.00629638 4.28004e-20)
(-0.203333 -0.00700518 -1.58775e-19)
(1.0031 0.0174003 0)
(0.846502 0.0791303 0)
(1.0119 0.024104 -1.18183e-21)
(1.1803 0.063697 5.67379e-20)
(1.00749 0.00108913 0)
(0.108237 -0.0385879 0)
(0.522377 -0.0466813 3.95283e-20)
(0.999438 0.085239 -7.06107e-21)
(1.18759 0.457986 1.06803e-19)
(1.07907 0.0568717 0)
(1.01465 0.0112556 -2.58393e-22)
(1.09243 -0.0912148 0)
(1.0881 -0.0527079 0)
(1.11254 0.0363726 -7.76539e-21)
(0.785358 -0.107284 -1.37017e-20)
(-0.158754 -0.00498231 1.64094e-20)
(1.01148 0.00291593 1.27704e-22)
(1.06363 0.0899572 0)
(0.0302933 -0.0233657 0)
(-0.102281 0.0222479 0)
(1.00004 0.0024521 0)
(1.00617 0.00869331 1.82961e-21)
(0.417631 -0.00555646 3.17915e-21)
(1.14056 -0.0595021 -1.24926e-20)
(1.00003 0.000122782 0)
(1.08506 -0.081126 -4.80518e-20)
(1.17149 0.00838516 0)
(0.804385 -0.0322784 0)
(1.09501 0.0978768 -4.64737e-20)
(1.00014 0.00243512 -6.59382e-21)
(0.986544 0.19538 0)
(-0.136767 -0.00614796 -6.74222e-20)
(1.03868 0.00108192 2.74425e-21)
(1.19119 0.133873 5.75359e-20)
(0.584247 0.175124 7.88646e-20)
(1.03304 0.0250824 -5.56476e-21)
(0.995588 0.0276595 -1.33595e-20)
(1.10492 -0.0450412 3.72967e-20)
(0.439693 -0.0110738 0)
(1.10809 -0.0504455 0)
(0.942266 0.114429 0)
(0.979099 0.0970992 1.63571e-20)
(1.00003 0.000237575 2.17803e-22)
(0.167793 -0.015368 0)
(0.748525 -0.0293274 0)
(1.07476 -0.0680658 -6.7309e-21)
(1.01423 0.0112789 3.04127e-22)
(-0.106736 -0.00950678 -1.15701e-19)
(0.00703071 -0.0115576 0)
(1.12552 -0.110807 -8.15542e-20)
(0.610295 -0.0501535 1.72037e-21)
(1.08594 -0.0519149 -7.08279e-21)
(1.00013 0.00308577 6.64969e-21)
(1.00582 0.000703838 -2.86211e-21)
(1.13463 0.00955655 4.79797e-20)
(0.0237189 -0.0253084 3.97137e-20)
(1.16703 -0.0260941 1.16501e-20)
(1.06836 0.0380165 2.57712e-20)
(1.23071 -0.0210967 0)
(1.07758 -0.040769 0)
(1.01636 0.00106709 1.56872e-21)
(1.09112 0.0267783 -4.96171e-20)
(1.00187 0.0044594 9.5843e-23)
(0.870123 -0.0827423 1.84646e-21)
(1.07234 -0.0052463 3.76589e-21)
(1.00006 0.000146607 -5.59875e-22)
(1.00326 0.105114 0)
(1.03018 0.163409 -1.37117e-21)
(0.792092 -0.032408 0)
(1.08503 -0.0825709 3.51976e-20)
(1.00339 0.138089 -5.20699e-21)
(1.04168 0.00745119 5.29698e-21)
(1.23336 0.0236507 0)
(0.793742 -0.107244 1.55387e-20)
(0.653483 -0.0333079 0)
(1.0029 0.0170485 -6.18605e-21)
(1.11356 -0.104788 0)
(0.998432 0.000632553 0)
(1.04161 0.00726665 1.83542e-20)
(1.00105 0.012687 1.49602e-20)
(0.834392 0.645019 6.22867e-22)
(1.00161 0.000924448 0)
(1.18475 0.0642265 6.48092e-20)
(1.08904 0.100409 3.83198e-20)
(1.03058 0.0181965 5.4871e-21)
(1.1211 -0.0243054 -7.95047e-20)
(1.03794 0.0536921 7.92316e-21)
(0.0996694 0.0609268 -2.79017e-20)
(1.02453 0.177599 4.68241e-21)
(1.16666 0.11595 -3.60391e-20)
(1.02908 0.0129458 -8.50885e-21)
(0.996165 0.0259299 1.94296e-20)
(-0.138292 -0.0120744 3.60545e-20)
(0.146489 -0.0196695 -2.2697e-20)
(1.00126 0.0138595 -2.9204e-21)
(1.00642 0.00105503 7.63298e-22)
(1.11322 0.0314071 0)
(1.01562 0.0237729 7.34575e-22)
(-0.0429687 -0.0140233 1.02161e-19)
(1.02802 0.0124117 3.04681e-21)
(0.126254 -0.0400704 9.05471e-21)
(1.0441 -0.00665519 -1.36216e-20)
(1.20597 0.308246 6.10482e-20)
(1.09917 -0.00153336 -6.25262e-20)
(0.121002 0.302243 3.11761e-19)
(0.947015 0.040878 2.29761e-20)
(1.25588 0.0140996 -1.91648e-21)
(0.52744 0.323046 0)
(1.00582 0.108071 0)
(1.14334 -0.0576862 -5.51198e-20)
(0.968354 0.510229 0)
(0.996862 0.0422402 0)
(0.219285 -0.0429715 0)
(0.577082 0.0511253 0)
(0.0127941 -0.0150265 -2.89555e-21)
(0.923789 0.0164928 -4.01936e-20)
(0.31174 -0.0111864 0)
(1.06949 0.0858054 2.19527e-20)
(-0.0341438 -0.0103468 -7.06829e-20)
(0.547593 0.295043 0)
(0.951463 0.324143 1.69211e-20)
(0.947962 0.354898 -6.49116e-21)
(0.637442 -0.0958681 2.84127e-20)
(0.999697 0.00266334 5.21008e-21)
(1.05581 0.162926 -1.65533e-20)
(-0.0822898 -0.0153283 -5.88477e-20)
(0.983473 0.0291589 0)
(1.00279 0.0678192 -8.47234e-21)
(0.0347132 -0.0134871 3.29647e-20)
(0.871386 0.493325 0)
(1.01851 0.051403 -6.05776e-22)
(1.12424 -0.0968749 0)
(0.717647 0.555231 0)
(1.00889 0.00469509 0)
(0.222762 -0.0136881 3.58358e-21)
(1.10505 -0.0974963 5.36859e-20)
(1.00201 0.00480249 -4.88942e-21)
(1.00926 0.0124707 0)
(0.998605 0.000787174 3.46949e-22)
(1.02242 0.00974662 3.16922e-21)
(1.23138 0.0183975 -3.21506e-20)
(0.847843 -0.0724611 3.12558e-20)
(0.428377 -0.265316 0)
(-0.10443 -0.0142544 -3.06846e-20)
(0.998205 0.0140105 6.16315e-23)
(1.19953 0.127102 -1.02999e-19)
(-0.155654 0.0184564 -1.82214e-21)
(1.11182 -0.0103717 -7.24566e-21)
(0.574958 -0.084968 0)
(0.0554301 -0.0305006 3.45521e-20)
(0.483873 -0.0463111 -1.21991e-19)
(1.01267 0.0050916 -3.09927e-22)
(1.07505 -0.0669122 -1.30803e-20)
(1.01045 0.0114837 0)
(0.992725 0.0945885 6.42192e-20)
(1.03536 0.0223808 6.06873e-21)
(0.104717 0.325028 -1.63112e-19)
(1.1742 0.0138803 2.30508e-20)
(1.06225 -0.0112569 1.78999e-20)
(0.999625 0.00319882 -2.98588e-21)
(1.13624 -0.00563148 -1.02257e-19)
(1.18193 0.116 0)
(1.1541 0.00565189 0)
(0.190168 1.22216 1.11359e-20)
(-0.0795798 -0.0102944 -7.66067e-20)
(-0.224292 -0.00513241 1.97829e-19)
(0.989367 0.212085 0)
(1.13022 0.137651 -1.07718e-19)
(1.00584 0.00824938 0)
(-0.0753916 0.0237881 0)
(0.57696 -0.0764284 2.06381e-20)
(1.00009 0.0314334 -6.06126e-21)
(1.24715 0.0180833 6.04216e-20)
(0.996102 0.0104461 0)
(1.21427 -0.00763835 9.49458e-20)
(1.04433 -0.00663208 9.86889e-21)
(0.999761 0.00222971 0)
(1.03356 0.057787 0)
(0.646414 -0.0335464 1.10125e-20)
(1.0315 0.0571174 0)
(0.459848 -0.0138331 9.07428e-21)
(0.00729743 0.040977 -2.95795e-20)
(1.10031 -0.0667492 -5.46237e-20)
(0.486138 0.265765 0)
(0.998443 0.0407905 4.44331e-21)
(0.535789 0.372519 -2.17639e-19)
(0.487991 0.341309 1.27206e-19)
(1.00232 0.00959922 3.55544e-21)
(0.869887 0.455839 2.17878e-20)
(0.985121 0.0290622 1.90084e-22)
(0.994832 0.0123073 1.5829e-21)
(1.1861 0.0876504 0)
(1.00006 0.000291447 0)
(0.994271 0.0145578 4.25937e-21)
(1.01076 0.0121095 0)
(1.22921 0.0248824 2.97326e-20)
(0.999913 0.00174533 -5.43072e-22)
(0.318746 -0.012857 0)
(0.741595 -0.0446077 0)
(-0.0994365 0.0139701 0)
(1.24107 0.165868 3.70788e-20)
(0.448655 -0.0256372 4.27085e-21)
(-0.187877 -0.0076654 0)
(1.10863 -0.0121905 1.27876e-20)
(0.99862 0.0130634 0)
(1.20174 0.0133314 -1.69231e-20)
(1.05877 -0.0183959 4.14601e-21)
(1.06873 0.0870606 2.15215e-20)
(0.999871 0.00776049 -9.49356e-21)
(0.780944 -0.0690741 -3.00325e-20)
(0.647482 -0.0841956 9.33703e-21)
(0.793822 -0.0453629 1.89939e-22)
(0.985961 0.0816516 -5.9992e-22)
(1.17703 0.00396735 -2.63506e-20)
(0.928881 0.0188976 5.99733e-20)
(1.06069 -0.021202 -9.84301e-21)
(1.1523 0.00186706 0)
(1.02087 0.0570442 -5.89024e-23)
(1.07405 -0.06282 0)
(1.01825 0.0446191 0)
(1.00158 0.000874148 -3.40699e-21)
(-0.00906823 -0.0166365 0)
(0.319138 -0.0459685 0)
(0.341106 -0.0498119 -3.2209e-21)
(1.17584 0.198632 -7.20602e-20)
(-0.113781 0.0128749 0)
(0.24923 -0.0500324 0)
(-0.0341296 -0.0187779 0)
(-0.0570332 -0.0132952 0)
(1.0158 0.00170673 1.57879e-21)
(1.13806 0.000849095 -8.5051e-22)
(1.02268 0.0603902 4.64269e-22)
(0.993428 0.0300008 0)
(1.22873 -0.014753 -1.47492e-19)
(1.13624 0.0111671 -5.66312e-20)
(1.01659 -3.20497e-05 0)
(1.15322 0.0447061 0)
(1.10981 -0.00556519 -2.75325e-20)
(-0.0485167 -0.0122291 -4.67502e-20)
(1.00243 0.00985541 4.29886e-21)
(1.14947 -0.0457519 -8.23932e-20)
(0.0917468 0.0523234 5.23318e-20)
(1.22963 0.313016 3.62814e-20)
(0.317356 -0.0186013 -1.22353e-20)
(0.999904 0.00148248 -4.66392e-21)
(0.998968 0.0331011 8.3709e-22)
(1.01031 0.000308103 -1.16328e-22)
(1.05384 0.128601 7.98305e-22)
(1.01266 0.00470635 7.05483e-22)
(0.742938 -0.0702793 -7.77503e-21)
(0.405103 -0.268459 -7.35774e-20)
(1.00528 0.137 4.67846e-21)
(-0.0260056 0.0313739 0)
(1.08344 0.0336145 2.28324e-20)
(1.12739 -0.0587657 0)
(0.00609759 -0.0209449 -5.70065e-20)
(0.841672 0.575653 -4.85767e-21)
(1.10036 -0.0657213 4.43999e-20)
(1.09963 -0.0933276 4.96744e-20)
(1.14879 -0.0439871 7.28397e-20)
(1.15172 0.0627589 6.99948e-20)
(1.1948 -0.000619739 0)
(1.09298 -0.0313357 2.1927e-20)
(1.09132 -0.0666703 -2.81867e-20)
(0.389901 0.102078 0)
(1.08907 -0.0388459 -2.491e-20)
(1.14418 -0.025184 2.09579e-20)
(1.01342 0.000977436 1.17325e-21)
(1.2409 0.00146127 0)
(1.08727 0.0152197 2.2608e-20)
(1.02798 0.00237303 -6.04155e-23)
(1.05059 0.129146 0)
(1.05503 0.0218526 -6.95035e-21)
(-0.0453369 -0.0147922 0)
(0.529492 -0.0517822 0)
(1.01504 0.0227899 -7.75409e-22)
(1.01611 0.000771703 5.26576e-22)
(0.779416 -0.0857636 -9.35838e-21)
(-0.205624 -0.00537795 0)
(1.00006 0.000225596 -2.96168e-21)
(0.296171 -0.0130315 1.19868e-20)
(1.05448 0.00221785 -1.69417e-20)
(1.22674 0.145982 2.71156e-20)
(1.01472 0.025296 4.93844e-22)
(-0.117889 -0.00764197 -3.83516e-20)
(1.20098 -0.0729829 0)
(1.0583 0.0916364 1.66242e-20)
(1.03651 0.035325 -7.66207e-21)
(0.473333 -0.0301132 -1.13304e-20)
(1.23974 0.122942 1.17331e-19)
(-0.210639 0.0101086 0)
(1.00004 0.000307778 0)
(-0.132844 -0.00641771 -6.38677e-20)
(0.126839 0.0373002 1.43172e-19)
(1.09883 0.0334939 1.66645e-21)
(1.02819 0.00262973 -1.00915e-20)
(-0.094249 0.0179281 -2.25174e-20)
(0.387479 -0.035387 0)
(1.10794 -0.0161908 5.21251e-20)
(1.00978 0.0121972 -2.13282e-21)
(1.00977 0.0442219 0)
(1.08471 -0.0514668 -2.22181e-20)
(1.21689 -0.0143432 7.28904e-20)
(1.01668 -0.000116091 -7.06831e-22)
(1.00875 0.0115428 -1.62174e-21)
(1.00484 0.00238458 -2.58761e-21)
(1.00513 0.00224534 0)
(-0.131778 -0.00849976 7.0836e-20)
(1.22832 -0.0126956 -1.18012e-19)
(1.10748 -0.0153555 -5.18445e-20)
(1.2463 0.112453 -1.96264e-21)
(1.00575 0.000810098 2.79068e-21)
(1.01014 0.00516795 7.5983e-22)
(1.17449 -0.00111818 1.26518e-20)
(0.227637 -0.0288939 9.38561e-21)
(1.10434 0.0492641 0)
(1.03239 0.0197661 0)
(0.995105 0.013277 0)
(0.99277 -0.00015456 -2.02154e-20)
(1.06674 0.0290902 1.04475e-19)
(0.0466366 0.0250725 1.70626e-19)
(1.00065 0.00405245 0)
(0.992971 0.00284803 -1.27517e-20)
(1.07405 -0.0659335 -7.2708e-21)
(1.09355 -0.0298818 -2.15503e-20)
(1.09852 -0.00168278 -1.11511e-20)
(0.997979 0.0306148 -1.24341e-20)
(1.02844 0.0614261 1.90314e-21)
(1.04504 0.0872528 2.25835e-21)
(1.14159 -0.0280751 1.08017e-21)
(0.967282 0.461095 0)
(1.24922 0.118061 1.38975e-19)
(1.20209 0.0109124 8.20942e-20)
(1.16338 -0.0138757 0)
(1.22875 -0.0253725 1.33143e-20)
(1.16583 0.114867 -4.94606e-20)
(1.00201 0.0164338 6.79868e-21)
(-0.123226 -0.00697233 5.76981e-20)
(0.993121 -0.000337228 1.2604e-20)
(1.00401 0.0713999 1.01753e-20)
(1.06464 -0.00357708 7.17959e-22)
(1.24041 -0.00159479 -3.57983e-20)
(1.00427 0.271086 0)
(1.00936 0.000995134 0)
(1.23027 0.313931 0)
(1.19453 0.080599 0)
(0.09076 0.172857 -6.19268e-20)
(1.16517 -0.0145161 5.51169e-20)
(0.894106 0.133815 -6.21148e-22)
(1.11273 -0.00724552 -2.6813e-20)
(0.999466 0.00361086 6.41475e-21)
(0.574388 -0.0353164 0)
(1.2195 0.290203 -7.0961e-20)
(0.435752 -0.0804228 0)
(1.01807 0.0395486 0)
(1.09513 0.037761 4.61553e-20)
(1.24847 0.105102 0)
(0.065548 -0.0320171 -7.50441e-20)
(-0.218743 0.0017275 -1.56604e-19)
(1.14465 -0.00832205 9.8325e-22)
(1.18732 0.198359 -1.07082e-20)
(0.993535 0.081885 -2.1068e-21)
(1.05581 0.0525874 1.48235e-21)
(0.996866 0.0331196 -7.62675e-21)
(0.902882 0.231415 0)
(0.689496 0.184147 0)
(0.974761 -0.00148326 0)
(1.12849 -0.00984436 0)
(0.574103 0.172041 -1.98219e-19)
(0.452923 -0.0825016 -9.82268e-21)
(-0.203502 0.0116063 0)
(1.03348 0.0674629 -1.36748e-21)
(1.12586 -0.058702 -2.31377e-21)
(1.19942 -0.072269 0)
(1.00791 0.113469 -2.14372e-21)
(0.969999 0.0223692 -1.92148e-20)
(0.120337 0.587021 0)
(0.73422 -0.0440954 6.86193e-20)
(0.69816 -0.0717129 3.19256e-20)
(1.24003 0.091642 -1.38391e-19)
(1.01648 0.00160908 0)
(0.224756 -0.0169498 -4.35308e-21)
(1.0848 -0.0516712 2.14686e-20)
(1.0091 0.00100021 0)
(1.09173 0.0682818 -9.40562e-21)
(1.1255 -0.0375675 0)
(0.854664 0.0677231 3.85586e-20)
(1.18545 0.0793143 2.61026e-20)
(0.617087 -0.0566561 0)
(1.19143 -0.00405014 2.23716e-20)
(1.08916 -0.0274279 2.26226e-20)
(0.573484 -0.0349402 0)
(1.05735 0.027493 5.16587e-21)
(-0.0767169 -0.0107841 -6.38726e-21)
(1.00001 0.00202953 0)
(1.00064 0.00428963 -2.51214e-22)
(1.10335 -0.10485 -3.87252e-20)
(0.706107 -0.0451136 -3.92411e-20)
(0.405834 0.253634 -1.64408e-19)
(1.05775 0.0277872 -5.53456e-21)
(1.01421 0.0515738 -2.66824e-21)
(0.993437 0.00335051 1.79228e-20)
(1.0789 -0.0406375 9.52567e-21)
(0.0908448 0.164097 1.73221e-19)
(1.08611 -0.0552895 -2.13729e-20)
(1.05812 0.0533672 1.68699e-21)
(1.10075 -0.0645959 -2.60248e-20)
(1.13366 -0.00938987 4.61975e-20)
(1.01463 0.025022 2.72651e-21)
(1.17818 0.474248 4.94364e-20)
(1.08571 -0.0548459 1.54647e-20)
(1.07557 -0.0504097 2.35638e-20)
(1.00459 0.0187898 0)
(1.18875 -0.00778519 -1.79797e-20)
(1.05419 0.0248282 -9.72458e-22)
(0.0853646 0.0684627 -9.85849e-20)
(1.14335 0.136014 -4.45134e-20)
(1.00738 0.280397 0)
(1.09689 0.0393601 -4.37319e-20)
(1.00742 0.00278519 1.53631e-21)
(1.0263 0.00518698 2.19579e-21)
(1.03457 0.0264562 5.33439e-21)
(0.968193 0.3688 2.59673e-21)
(0.894581 0.0115252 0)
(1.2341 0.0422645 -8.58849e-20)
(0.62059 0.761932 2.07177e-20)
(1.12827 -0.01758 -4.2526e-20)
(1.00835 0.0048109 0)
(1.19399 0.0033571 0)
(0.403771 0.275275 0)
(1.10523 -0.0996683 -3.95292e-20)
(1.03803 0.00211357 0)
(0.903423 0.0326242 1.23425e-20)
(1.00825 0.0118315 -1.06489e-22)
(1.07387 -0.0213763 0)
(1.07332 0.0406357 0)
(0.362064 -0.0356394 -2.46029e-20)
(0.999822 0.00230635 0)
(1.21844 0.462196 -5.44076e-20)
(1.07546 -0.0189044 0)
(1.10498 -0.0735704 9.63261e-21)
(1.16865 0.136127 -2.18576e-20)
(-0.0748794 -0.0112186 8.99235e-20)
(1.02744 0.278569 1.22339e-20)
(1.00945 0.0442043 -1.45325e-21)
(-0.0108891 -0.0212074 -4.41026e-20)
(-0.216102 -0.00212527 7.73834e-20)
(1.00655 0.0329451 0)
(1.0635 -0.00547146 2.67753e-21)
(1.2032 -0.0626075 1.29664e-19)
(1.23306 0.0997759 0)
(1.16399 -0.0299975 -2.41585e-20)
(1.00015 0.000337408 -3.61491e-21)
(1.03786 0.0347789 0)
(1.19904 0.292762 0)
(1.06267 -0.0125817 -2.44171e-20)
(1.15403 0.00645244 0)
(1.10409 -0.0428091 0)
(1.02689 0.00480258 3.26457e-21)
(1.11172 -0.031736 0)
(0.702069 -0.10146 2.71747e-20)
(1.0374 0.000127357 5.52091e-21)
(1.05002 -0.00970322 0)
(1.00432 0.00255826 2.49709e-21)
(0.146615 -0.0171117 -1.06191e-20)
(0.999966 0.00100489 1.04237e-21)
(0.986212 0.0821449 -5.40815e-22)
(-0.2361 -0.00562834 4.98535e-20)
(0.994898 0.0648943 8.08579e-21)
(0.760612 -0.0452306 3.58316e-20)
(1.07473 0.060199 -2.49314e-21)
(0.839915 0.0732085 -7.77021e-20)
(1.00464 0.00240747 3.93528e-21)
(1.0288 0.209764 1.19871e-20)
(1.0008 0.0117938 -8.09032e-21)
(1.14989 0.0695097 -1.39184e-20)
(1.00702 0.00149322 0)
(1.09219 0.248558 -3.10177e-20)
(1.05441 0.00195428 0)
(0.494842 0.276668 -1.01351e-19)
(0.517709 0.664901 5.31825e-20)
(0.225654 -0.0300732 -1.16622e-20)
(1.00974 0.000304591 -3.22246e-23)
(0.99969 0.00306729 -4.87464e-21)
(1.15999 0.10794 4.48842e-20)
(1.12531 0.103771 -8.94362e-23)
(0.078391 -0.0198998 -3.35238e-20)
(0.340094 -0.0370058 4.78717e-20)
(1.13908 0.0184689 4.83035e-20)
(0.99311 0.0111738 0)
(1.22624 0.0188208 2.50101e-20)
(0.36817 0.212089 3.39349e-19)
(1.07547 -0.0523059 -2.10952e-20)
(1.23112 0.0512017 9.55975e-20)
(1.13131 0.00830333 4.61915e-20)
(0.653947 -0.0479785 1.43049e-20)
(1.08643 0.121023 -1.2901e-20)
(1.07682 -0.0397843 1.4908e-20)
(1.19922 0.0271055 4.42923e-20)
(0.865515 0.432965 1.48545e-20)
(1.13805 0.0226703 -3.5559e-20)
(0.312625 0.317973 -2.18837e-19)
(1.13855 0.0293144 2.16187e-20)
(1.05624 -0.00858764 -8.60289e-21)
(1.12723 -0.040609 -3.05485e-20)
(1.00997 0.106085 -2.24055e-21)
(1.03155 0.00355571 1.53478e-20)
(1.07382 -0.0204059 5.19112e-21)
(1.11017 0.118536 3.8724e-20)
(1.05019 0.0917967 1.63391e-21)
(0.999744 0.0118735 0)
(1.00627 0.000584604 0)
(1.13125 -0.0143758 4.19578e-20)
(1.06115 0.00761262 -1.70596e-20)
(1.15713 0.0112054 4.78639e-21)
(0.993877 0.010361 0)
(0.99554 0.00818371 0)
(0.999971 0.000805714 7.22134e-23)
(1.02523 0.0611675 8.9177e-23)
(1.02125 0.000577822 -3.88353e-21)
(1.05168 0.0774063 1.10521e-20)
(1.00384 0.00262815 -7.18282e-22)
(-0.124557 -0.00777253 0)
(1.08797 -0.0484568 0)
(0.479441 -0.303969 -1.52859e-20)
(1.01163 0.00474324 -8.50514e-24)
(1.00006 0.00156727 6.8213e-21)
(0.810932 0.146345 -5.32974e-20)
(1.15489 0.0566282 -7.80081e-20)
(0.956036 0.00462469 0)
(0.940108 0.00597452 9.38027e-20)
(1.13338 0.192424 7.66681e-20)
(1.18444 0.124156 -1.23103e-19)
(1.07543 -0.0190328 -6.49186e-21)
(1.18327 0.00403459 3.21905e-20)
(1.04965 0.0125269 7.23584e-21)
(0.999876 0.00120202 7.09167e-21)
(1.00544 0.00219522 0)
(1.03631 0.053851 -1.22048e-20)
(-0.274621 -0.00119632 -1.26524e-19)
(1.00004 0.00133639 -9.49298e-21)
(1.21 -0.0304762 3.13939e-20)
(1.05288 0.0795036 0)
(-0.152032 0.0213081 -8.1894e-20)
(0.977131 0.208055 -1.04455e-20)
(1.14199 0.179663 -4.34698e-20)
(1.1042 -0.0715795 4.44564e-21)
(1.01956 0.00575552 0)
(1 5.83773e-05 0)
(1.08926 -0.0480863 0)
(0.988693 0.00349764 0)
(0.98769 0.0407525 6.74611e-21)
(1.07323 0.0114753 0)
(1.01433 0.0547174 1.43394e-21)
(0.998674 0.00127453 2.9521e-21)
(1.08422 0.0494343 -3.16597e-20)
(1.00617 0.00761996 -1.47537e-21)
(1.01503 0.000706273 -1.06071e-21)
(1.0577 0.0904258 -8.2045e-21)
(0.888281 -0.0209832 0)
(0.057831 -0.0141814 -1.91427e-20)
(1.08067 0.105733 2.18973e-21)
(1.03726 0.000183784 6.49474e-21)
(1.00842 0.00105222 0)
(0.101873 -0.0367408 3.614e-20)
(0.97149 0.345319 0)
(1.00272 0.0404015 -5.68724e-21)
(1.01903 0.0421447 3.87079e-22)
(1.03611 0.0139998 -1.4956e-19)
(1.20424 -0.0653333 6.25467e-20)
(-0.238483 -0.00431586 1.2234e-19)
(0.903131 0.131891 0)
(1.05723 -0.00764198 4.2617e-21)
(1.01111 0.00297308 -7.56492e-23)
(1.01526 0.000931674 2.13903e-21)
(1.09055 -0.0387601 -4.20752e-22)
(1.08706 0.103293 -1.29946e-21)
(1.13397 -0.0920248 -3.17577e-20)
(0.921434 0.0213556 0)
(0.191531 -0.0366211 -2.40207e-20)
(1.02784 0.0404494 4.92288e-21)
(0.96839 0.0569083 1.58001e-20)
(-0.253556 -0.00383561 -1.42199e-19)
(0.995888 0.0100445 0)
(1.08742 0.0119899 -2.69204e-20)
(1.00547 0.0305276 6.0402e-21)
(1.00201 0.00119743 3.90592e-21)
(1.10307 0.123443 4.14588e-21)
(0.781347 0.0049 -5.72462e-20)
(1.04785 0.02545 0)
(0.735257 -0.0461534 0)
(0.401277 -0.0110137 -1.18493e-20)
(1.17365 0.125544 1.90347e-20)
(1.00233 0.0172175 1.20046e-20)
(1.02329 0.0017034 -3.16196e-23)
(1.08878 -0.0576683 -4.29679e-20)
(1.20968 -0.0302785 -4.62226e-20)
(1.00007 0.000377502 4.03922e-21)
(1.22411 -0.0324766 6.48567e-20)
(1.02283 0.00213277 0)
(1.10687 0.106315 -3.35881e-20)
(1.03171 -0.00276428 0)
(1.03275 0.00474066 -1.39298e-20)
(1.22012 -0.00990471 5.48551e-20)
(1.03878 0.0138576 -1.33265e-20)
(1.05056 -0.0372539 0)
(1.11294 0.0817517 -3.91525e-21)
(0.999954 0.000807873 8.71466e-21)
(1.01872 0.00301024 0)
(0.982391 0.00159225 1.25035e-20)
(1.00937 0.0193217 0)
(1.04976 -0.00844474 -4.7765e-21)
(0.522019 0.644204 -8.19896e-20)
(1.03638 0.00243129 1.27613e-20)
(1.0294 0.00903005 -5.53782e-21)
(0.417778 -0.060865 0)
(0.665551 -0.0611421 5.87524e-22)
(1.0902 -0.0295454 1.01365e-20)
(1.11754 0.11242 0)
(1.14883 0.000497261 -7.23759e-20)
(1.07509 0.0200531 3.74253e-20)
(1.02347 0.0131227 0)
(0.892956 0.0184464 -2.17434e-20)
(-0.103526 -0.00892779 9.07328e-20)
(1.10389 0.254199 0)
(0.998446 0.00568555 7.38515e-21)
(1.03538 0.0345959 8.41573e-21)
(0.373112 -0.0397688 0)
(1.11284 0.0154089 3.43737e-20)
(-0.0569068 -0.0171585 3.39376e-20)
(0.999957 0.00097037 -9.66589e-21)
(0.953217 0.00479778 1.88611e-20)
(0.125703 -0.0147463 1.78921e-20)
(1.10439 0.0108108 4.64763e-20)
(1.05001 0.0245775 0)
(-0.272041 0.00232301 2.61787e-19)
(0.208584 0.25537 1.61807e-19)
(1.00966 0.0190378 0)
(1.19407 0.0257027 0)
(1.00573 0.00207713 0)
(1.03728 0.0138947 1.34839e-20)
(1.01185 0.00492851 0)
(-0.0807556 -0.0121596 3.08632e-20)
(1.02086 0.000297661 6.91706e-23)
(1.03604 -0.00502421 5.76713e-21)
(1.02397 0.0128039 0)
(1.00807 -0.0368568 0)
(1.05873 -0.0159399 1.23615e-20)
(1.22821 0.144328 -2.6722e-20)
(0.71085 -0.093471 8.543e-20)
(1.0331 0.00311569 -1.95988e-21)
(0.851356 0.0284298 -1.4698e-20)
(1.0006 0.00372525 3.05644e-21)
(-0.0945822 -0.0147427 3.69594e-20)
(1.00523 0.00968823 -2.99077e-21)
(1.03699 0.0017823 -1.03846e-20)
(0.998782 0.00172285 0)
(1.08886 -0.0578375 6.08587e-20)
(0.99859 0.00181375 4.41045e-22)
(1.19149 -0.00605861 2.78655e-20)
(0.400561 -0.00582069 6.25324e-21)
(0.820579 -0.106612 1.3728e-20)
(0.910217 0.0303703 -4.60545e-20)
(1.10856 -0.0977027 1.29541e-20)
(-0.216082 -0.00569337 -7.34618e-20)
(0.997421 0.026049 0)
(0.205667 -0.0132746 1.03718e-20)
(0.536315 0.0476163 -1.70903e-19)
(-0.195456 -0.00706949 -4.88761e-20)
(0.435835 -0.026591 1.49773e-22)
(0.395132 -0.0607222 1.95355e-20)
(0.359731 0.259698 -1.16081e-19)
(1.19124 0.00474475 0)
(1.01131 0.0462788 2.01655e-21)
(0.601193 -0.0545712 0)
(1.10407 0.0120445 -3.21491e-20)
(0.540856 -0.0743559 -1.04984e-20)
(1.02762 0.00314961 3.59104e-21)
(1.02336 0.0211213 0)
(1.00448 0.0415658 1.11056e-20)
(1.00063 0.00397252 0)
(1.0799 0.0180366 2.31614e-20)
(0.897748 0.0873275 -7.99441e-21)
(0.142034 -0.0250262 2.84318e-20)
(1.02313 0.0204093 0)
(0.994291 0.00389015 -1.23606e-20)
(-0.182227 0.0162693 -1.59851e-19)
(0.991298 0.40705 1.48939e-22)
(0.982372 0.00134859 0)
(0.81913 -0.0447897 4.8741e-20)
(1.09161 0.0534809 0)
(1.04349 0.0186841 4.38704e-21)
(0.556484 0.74297 0)
(0.81557 -0.0623698 0)
(0.954896 0.0475721 2.15335e-20)
(1.05919 -0.0163314 -1.27495e-20)
(0.379725 -0.00754602 1.23082e-20)
(-0.237818 -0.00487106 1.40507e-19)
(0.220732 0.0814976 -2.58615e-19)
(1.03135 -0.00213532 0)
(1.23707 0.130683 5.98058e-20)
(1.19123 0.07595 -1.75548e-20)
(-0.192426 0.00304698 -8.11483e-20)
(0.465402 -0.0446533 -4.56515e-20)
(1.08706 -0.0525257 0)
(1.01558 0.0244951 -5.35093e-22)
(1.05069 0.0139509 -7.28555e-21)
(1.02681 0.0422904 -4.33592e-21)
(1.01735 -0.000178792 2.47804e-21)
(1.02722 0.0615697 -2.04014e-21)
(1.01569 0.00134414 1.1527e-21)
(1.04646 0.0902878 3.33111e-21)
(1.08025 0.125134 2.79543e-20)
(-0.00615241 0.0336976 0)
(1.1549 -0.0487193 0)
(1.03654 -0.00471291 -9.45262e-21)
(1.18017 -0.00144341 -2.75863e-20)
(-0.0180385 -0.0194037 5.66625e-20)
(1.10098 0.111734 5.53835e-20)
(0.974011 0.0239945 1.548e-20)
(-0.0849002 -0.00961351 7.32526e-21)
(1.02941 0.0182185 -3.22796e-21)
(0.98816 0.040524 1.26839e-20)
(0.827055 0.0595002 -3.31175e-21)
(0.0388273 0.039716 0)
(0.998484 0.000286221 -1.28917e-20)
(1.00422 0.0193974 -3.06819e-21)
(0.575523 -0.0879169 -3.13879e-20)
(1.10675 -0.0946422 0)
(1.19611 -0.0775728 -1.56925e-19)
(1.16539 -0.0184114 -5.42588e-20)
(1.09682 -0.0938245 -2.30556e-20)
(1.00781 0.017728 0)
(1.20076 0.0040866 -1.02348e-19)
(0.973004 0.0254768 0)
(1.00363 0.010034 3.67086e-21)
(0.971234 0.022629 0)
(0.700307 -0.0710896 2.04203e-20)
(-0.219547 -0.00563429 -7.09403e-20)
(1.03048 0.00779258 0)