/*--------------------------------*- C++ -*----------------------------------*\
| =========                 |                                                 |
| \\      /  F ield         | OpenFOAM: The Open Source CFD Toolbox           |
|  \\    /   O peration     | Version:  v2012                                 |
|   \\  /    A nd           | Website:  www.openfoam.com                      |
|    \\/     M anipulation  |                                                 |
\*---------------------------------------------------------------------------*/
FoamFile
{
    version     2.0;
    format      ascii;
    class       surfaceScalarField;
    location    "100";
    object      phi_0;
}
// * * * * * * * * * * * * * * * * * * * * * * * * * * * * * * * * * * * * * //

dimensions      [0 3 -1 0 0 0 0];
oriented        oriented;


internalField   nonuniform List<scalar> 
20673
(
-0.171232
0.161603
0.00962901
0.370012
-0.306347
-0.0636651
0.0220549
-0.0527744
0.0307195
0.151554
-0.276343
0.124789
-0.36167
-0.116224
0.477894
-0.0214916
-0.00180154
0.0232931
0.036001
-0.0328127
-0.00318825
0.0114181
0.0197288
-0.0311468
0.0157529
-0.0313604
0.0156075
-0.0559556
0.157084
-0.101129
-0.105437
0.105859
-0.000422261
0.150162
0.00441851
-0.154581
-0.0975995
0.00279062
-0.000675856
-0.00211477
0.204306
-0.0376521
-0.166654
0.241701
-0.242384
0.000683028
-0.10509
0.299855
-0.194766
0.139847
-0.162538
0.0226911
0.150991
-0.000829023
0.336947
0.263375
-0.600322
-0.373607
0.573244
-0.199637
0.0349699
0.0010311
-0.598203
0.334241
0.263962
0.0496039
-0.0381858
-0.307673
-0.0598506
0.367524
-0.00263011
0.0329602
-0.0303301
-0.107001
0.0792067
0.0277942
-0.100564
0.0512048
0.0493596
-0.066363
0.0515246
0.0148384
-0.147476
0.109096
0.0383794
0.156228
-0.169909
0.0136803
0.195275
-0.205283
0.0100074
-0.09772
0.139042
-0.0413218
0.175817
-0.0488916
-0.126926
-0.3875
0.362079
0.0254209
0.0900935
-0.107736
0.0176429
-0.365414
-0.232789
-0.00532556
-0.00502985
0.0103554
-0.186372
-0.0544282
-0.015432
0.000908639
0.0145233
-0.579953
0.589854
-0.00990103
0.685291
-0.386987
-0.298304
0.364969
-0.537537
0.172568
-0.0491714
-0.0198055
0.0689769
-0.170954
-0.155025
0.32598
0.0962826
0.0712084
-0.167491
0.146918
-0.0070711
-0.016645
-0.111161
0.127806
-0.00278726
0.0101032
-0.00731594
-0.680241
0.436432
0.243808
0.0426763
-0.164664
0.121988
-0.283085
0.0323357
0.250749
-0.00558491
0.00279765
0.0561012
0.119716
0.168042
-0.273132
0.21214
-0.223732
0.0115923
-0.112707
0.00727034
0.271083
-0.352605
0.0815223
0.0840975
0.161046
-0.245143
-0.332279
0.161324
-0.0194273
-0.0225792
0.0420065
0.1627
0.207312
0.00279062
-0.165377
0.502324
0.0154585
-0.0369501
-0.083076
0.0919932
-0.00891712
-0.515768
0.323672
0.263575
-0.361903
-0.104054
0.102423
0.0016312
-0.161783
0.180822
-0.0190388
-0.525321
0.163651
-0.0193522
0.0351051
0.00091849
-0.00359789
0.0026794
0.143221
-0.450894
-0.00700693
-0.00780245
0.0148094
-0.0177072
0.144437
-0.12673
0.00279233
-0.000707799
-0.00208453
0.0719126
0.191257
-0.263169
0.0348274
-0.0331135
-0.00171394
-0.612021
0.326787
0.285234
-0.325238
0.600549
-0.275311
-0.257426
0.00847491
0.0256564
-0.0341313
0.00937475
-0.0147003
0.00163716
0.00151655
-0.00315371
-0.213122
0.285035
0.368129
0.204651
-0.57278
-0.0920577
0.0089817
0.211566
-0.16889
0.515598
-0.150629
-0.00334011
0.00106497
0.00227515
0.121757
-0.00427092
-0.117486
-0.0508547
0.365486
-0.314631
-0.261943
0.0532028
0.20874
-0.0401984
-0.0518593
0.0240164
-0.0341416
0.0101252
0.0864138
-0.123851
0.0374371
0.128067
-0.000985471
-0.127082
-0.0664778
-0.0369734
0.103451
0.0536418
-0.0659128
0.0122709
-0.455363
0.559426
-0.104063
0.123179
0.00784829
-0.131028
0.02031
-0.0694814
-0.272
0.0733405
0.198659
-0.483635
0.089008
0.394627
0.042591
-0.0312219
-0.0113691
-0.00569363
-0.060766
0.0664596
0.0939489
-0.110594
0.10308
0.196775
0.161194
-0.1506
-0.0105937
0.00289595
0.00588239
-0.00877835
-0.00297582
-0.0124561
-0.111769
0.132456
-0.0206871
0.0381061
0.00448497
-0.275486
0.1166
0.158886
0.00589385
-0.00683241
0.000938569
-0.362227
0.500051
-0.137825
0.0111473
-0.0121521
0.00100476
-0.00870728
0.0106378
-0.00193055
-0.0777796
0.166718
-0.0889387
0.498053
0.187238
-0.0952301
-0.00882372
0.0017337
0.00757166
-0.00930536
-0.0561536
-0.0444108
-0.608738
0.123192
0.485546
-0.245981
-0.015962
0.0989142
0.219512
-0.318426
-0.534634
-0.0741045
-0.492511
0.586871
-0.0943602
0.0222149
0.0107696
-0.0153383
0.00456872
-0.0831847
-0.192301
0.149103
-0.304128
0.208215
-0.581822
-0.130536
0.0640727
0.0664635
0.0106412
0.0389627
-0.0159331
-0.155299
0.0527999
0.000841968
-0.114225
0.437897
0.101812
-0.179592
-0.0967008
0.112867
-0.0161666
0.451388
-0.190999
-0.260389
-0.216779
0.277779
-0.0610007
-0.0733513
0.025647
0.0477043
-0.068469
0.332044
0.0496452
0.0075524
-0.0571976
0.0202996
0.0420723
-0.0623719
0.0183082
-0.301393
0.503946
-0.167435
-0.336511
0.223454
-0.21432
-0.0091342
0.154301
0.00407443
-0.158375
-0.00160497
0.00749882
0.022594
-0.115888
0.093294
-0.0807241
-0.0445011
0.125225
0.218704
-0.213288
-0.00541631
0.00500173
-0.00165944
-0.00334229
-0.173364
0.011581
0.0309856
-0.088933
0.0579474
-8.78016e-06
0.00280111
-0.076727
-0.0538092
-0.149087
0.219894
-0.0708079
-0.0868548
-0.00582439
0.0926792
0.243301
0.356741
-0.600042
0.111715
-0.0253013
-0.13538
0.0236115
0.0288537
-0.0953315
-0.202269
-0.069731
-0.156985
0.153513
0.00347143
0.133415
0.221279
-0.354694
0.0245459
0.0986336
0.150115
-0.142102
-0.00801244
0.0154361
-0.00671265
-0.00872342
0.109913
0.00585973
-0.115773
-0.00734116
0.236426
-0.229085
0.068341
-0.0532907
-0.0150503
-0.044476
-0.0687447
0.113221
0.0168135
-0.00604391
0.000372548
0.0107748
0.067912
-0.0182668
-0.258904
0.401847
-0.142943
0.00607021
0.115687
-0.012436
0.168664
0.298317
0.153071
-0.0897495
0.457878
0.190835
-0.0916916
-0.0991434
0.0376256
-0.0402557
-0.0321534
0.127352
-0.0951988
0.0040558
0.000945934
0.150922
-0.150801
-0.000121451
-0.107629
0.0986839
0.00894548
-0.00768179
0.0727342
-0.0650524
0.00228658
-0.000649419
-0.113523
0.0946105
0.0189121
0.62479
-0.279055
-0.345736
-0.0319799
-0.0145467
0.0465266
-0.10333
-0.00367074
0.632564
-0.632564
-0.303903
0.253048
0.00860858
-0.0829199
0.0743113
-0.0877316
0.0862957
0.0014359
0.0239931
0.17639
-0.200383
-0.339924
-0.340317
0.163272
-0.00227942
-0.160993
0.153164
0.00113679
-0.0040837
0.00500219
-0.0736553
0.103979
-0.0303238
-0.280126
-0.107374
-0.0907803
0.361863
0.00807615
0.119991
0.014743
0.0343334
-0.0490763
-0.287661
0.0708823
0.0394678
-0.0314827
-0.0079851
0.00646934
-0.000269541
-0.0061998
-0.0054322
-0.102197
-0.414637
-0.0689981
-0.0614389
0.0429809
0.018458
0.148081
-0.0051051
-0.142976
0.00984362
0.00407866
-0.0139223
-0.491762
0.29108
0.200682
0.0463715
-0.0657988
-0.396484
0.13758
0.000457352
0.114714
-0.115171
-0.128013
-0.45194
-0.00823849
-0.00103373
0.00927222
0.0395935
-0.0288046
-0.0107889
0.0645224
0.177179
-0.118652
0.0204308
0.0982207
0.0383244
0.18038
-0.455611
0.0409737
0.00680527
0.0832882
0.124915
-0.0150017
-0.0107088
0.161631
-0.0604704
0.0202421
0.0402283
0.00734615
-0.000876808
-0.591147
0.489422
0.101725
0.193526
0.00174932
-0.00496174
0.00162163
-0.00162225
-0.00198022
0.00360246
-0.303308
0.546609
-0.461416
0.442289
0.0191267
-0.01709
0.00113872
-0.117215
0.0941828
0.0230323
0.399599
-0.602084
0.202485
-0.0801348
0.0927387
-0.0126039
-0.144043
0.141553
0.00249036
-0.104678
0.0178232
-0.167564
-0.0121153
0.179679
0.582369
-0.225628
0.140694
0.00430089
-0.144994
0.00505311
-0.00579305
0.000739938
-0.287414
0.386294
-0.0988805
0.0539398
-0.133594
0.0796537
-0.0386527
-0.0114763
0.0501291
-0.239513
0.338427
-0.282126
-0.0704794
-0.0253103
-0.105979
0.131289
0.000402141
0.0135297
-0.0139319
0.105738
-0.0831436
0.121551
0.0692838
0.0127283
0.191578
0.241488
0.370706
-0.612194
-0.005228
0.0069617
0.00564257
0.0454411
-0.0510837
0.0585465
-0.0915882
0.0330417
-0.381798
-0.0738129
-0.00146805
-0.00583372
0.00730177
-0.00407183
0.00368138
0.000390454
-0.0460323
0.0770179
0.0354314
-0.000604031
-0.123559
0.105852
0.257131
0.472819
-0.661426
0.188608
-0.141472
0.00223011
0.139242
-0.00211391
0.0048855
-0.00277159
0.115972
-0.133048
0.0170768
-0.171007
0.255104
-0.108049
0.0343933
-0.144735
-0.0154469
-0.0928199
-0.453424
0.546244
-0.0786785
0.0754606
0.00321796
0.254788
0.281324
-0.536112
0.0633981
0.00494286
-0.209074
0.233067
-0.0723156
0.471914
0.0827707
0.113273
-0.196043
0.0501952
-0.130919
0.107071
-0.112895
0.0207711
-0.100906
-0.0050318
0.131886
-0.126854
0.376501
-0.0901846
-0.286317
0.0841568
-0.0978632
0.0137064
-0.0276421
-0.0328283
0.0320428
-0.0264003
-0.227193
-0.264569
0.08379
-0.0245395
-0.0592505
-0.483595
0.015142
0.468453
0.185221
0.19128
-0.474757
0.11253
0.063298
-0.0429984
-0.0586554
0.519926
-0.461271
-0.106783
0.107241
-0.179409
0.0118449
-0.265493
0.398907
0.00339493
0.159877
-0.245258
0.0269261
0.218331
-0.00716502
0.00197897
0.00518605
0.0841189
-0.128595
0.124687
-0.128958
-0.276165
-0.107258
0.383423
0.0681316
-0.350257
0.00112665
-0.00885776
0.00773112
0.00911368
-0.0066857
-0.00242798
0.288014
0.212037
-0.392206
0.62538
-0.233174
-0.069636
-0.00904252
-0.289927
-0.0674847
0.357411
-0.00191854
-0.00167935
0.102057
-0.378222
-0.00958158
0.00134309
-0.331547
0.254303
0.0772441
0.1035
-0.012692
-0.0908078
0.215992
-0.143548
-0.0724432
0.0178161
-0.0117708
-0.00604531
0.061942
-0.211029
-0.00171155
-0.0750155
-0.0532044
0.0119542
0.0412502
0.181601
-0.0988307
-0.0609683
-0.0562469
-0.0098894
0.0727571
-0.0628677
0.0545673
-0.280498
0.22593
-0.00453734
-0.00848695
0.0130243
-0.0530087
0.0210288
-0.000455755
-0.00361608
-0.189725
0.17139
0.0183349
-0.0117648
0.000251388
0.0115134
-0.16006
-0.0568141
0.216875
-0.0014323
0.00170657
-0.00027427
-0.044634
-0.00857043
0.0711482
-0.0939337
0.0227855
0.0949229
-0.0237747
0.0382887
-0.0162338
-0.563479
0.336377
0.227102
0.143165
0.00694961
-0.00452063
0.00741658
-0.179416
0.294152
-0.114736
0.222842
-0.00206503
-0.220777
-0.00545038
0.00477452
-0.0649057
0.0735143
-0.214085
-0.0517737
0.265859
-0.0801685
0.0724867
-0.0360951
-0.0302679
-0.601379
0.324864
0.276515
-0.0102654
0.00155814
-0.109149
0.0317502
0.0773992
-0.266577
0.521366
0.508391
-0.359439
-0.148953
0.110121
-0.593715
0.236301
0.267646
-0.0135087
0.0976654
-0.0449353
0.066533
-0.0215977
-0.0399553
0.0225527
0.0174026
0.00732482
-0.00619818
-0.37321
-0.00449463
0.377704
-0.0619623
0.115902
-0.00711659
0.00763788
-0.000521284
0.124586
-0.165322
0.0407361
0.00665503
-0.00759573
0.00548183
0.00837157
0.211206
-0.479692
0.268486
0.0937179
-0.0351715
0.322201
-0.495202
0.173
-0.0163061
0.0626776
-0.143505
-0.188774
0.0155351
0.00228105
-0.0276523
-0.116391
0.181832
0.0865609
-0.268393
0.46087
-0.572392
0.111522
0.139425
-0.131349
-0.0928207
0.0988909
0.123708
-0.128006
0.00429727
-0.0138275
-0.0439245
0.0577519
-0.00512029
0.00368799
0.013557
-0.00371341
0.00690504
0.133788
0.0618239
-0.11778
0.0175858
-0.479001
-0.0033967
0.00177445
-0.0238363
-0.00838317
0.0322194
-0.0299357
0.288856
-0.25892
0.0922594
-0.093971
-0.305657
0.501419
-0.195762
0.0401873
0.0728796
-0.113067
-0.0992754
-0.232271
-0.319188
-0.244291
-0.293608
0.109912
0.183696
-0.0265724
-0.00809964
0.034672
-0.0764982
-0.21711
-0.0190485
0.0194506
0.000673146
-0.00148685
0.000813706
0.0812286
-0.0847097
0.00348112
0.0280946
-0.0463026
0.018208
-0.215163
0.269731
-0.0352758
-0.0261631
0.0400488
0.588924
-0.244146
-0.344778
-0.0705994
-0.296873
0.117457
0.214665
-0.339813
0.125148
-0.075171
-0.0723049
-0.365243
0.606731
-0.392258
0.461719
-0.0694616
0.38908
-0.0668791
0.0914834
-0.104992
-0.328456
-0.283565
-0.0104844
-0.00128045
-0.00250223
0.0394587
-0.0369565
0.00267052
0.00224603
-0.00491656
-0.0808208
-0.0327018
-0.00584652
-0.0131877
0.0190342
0.00952093
0.00222834
-0.0117493
0.165451
-0.0408651
-0.473228
0.100018
0.111521
0.0130231
-0.124544
-0.266164
0.0797919
0.20633
-0.194838
-0.0114917
0.226948
0.397842
0.0229766
0.0380379
-0.023295
-0.0530955
0.0505933
-0.189735
0.20827
-0.0185348
0.108571
0.0273659
-0.135937
-0.166461
-0.0232644
-0.259192
0.204763
0.00472552
0.118983
0.194256
-0.242081
0.047825
-0.081504
0.0878228
-0.00631884
-0.174961
0.278041
-0.438077
0.379421
-0.0016975
-0.000221046
0.0141283
0.00268518
0.0179005
-0.00377211
0.043989
0.089732
-0.133721
0.0050298
-0.00235928
0.0129122
-0.0174495
-0.000642143
-0.00433535
0.0049775
0.000639504
-0.00123657
0.000597064
0.147508
0.365792
-0.5133
-0.130957
0.00145284
0.129505
0.225407
-0.0311508
0.346727
-0.263957
-0.0827702
-0.112339
0.032831
0.0795077
0.00544585
0.484064
-0.537949
0.0538854
0.0119263
-0.137367
0.125441
-0.00460581
-0.149043
0.153649
-0.001543
0.000750338
0.000792658
0.344239
0.244685
0.120087
-0.00856935
-0.111517
0.00189028
-0.00528106
0.00339079
0.101375
-0.0168326
-0.0845421
0.000743352
-0.0113466
0.0106033
0.244787
-0.251602
0.221666
0.522123
0.110441
-0.149633
-0.0237314
0.508748
-0.297542
-0.0345576
-0.00852468
0.0430823
-0.034173
-0.00578232
-0.155468
0.150436
0.00168636
-0.00217464
0.000488284
0.0222782
0.189861
0.0982743
0.0134408
0.00130425
-0.00194639
-0.00987872
0.051951
-0.0108038
0.0920324
-0.00629858
-0.0904022
0.10394
0.0161468
0.122855
-0.147707
0.0248521
0.0849748
0.0333979
-0.118373
-0.171322
0.177491
-0.00616867
0.0935367
-0.109531
0.0159942
0.0239334
-0.138179
-0.0140652
0.152244
0.104239
0.00390353
-0.108142
-0.530112
0.543756
-0.0136435
0.106309
-0.0276975
-0.0786115
0.2154
-0.0158611
-0.199539
-0.430576
0.304108
0.126468
-0.160149
0.0105167
-0.264174
0.183622
0.0805525
-0.00146921
-7.37829e-05
0.0134955
0.0246106
0.0899061
-0.379833
-0.516313
0.423493
-0.0379143
-0.00773417
0.0456485
0.0121748
-0.00265392
0.593914
-0.223208
-0.00917732
0.00992067
-0.312934
0.232056
0.0808783
0.125213
-0.09607
-0.0291429
0.00798905
0.32405
-0.332039
0.00747744
-0.00516576
-0.00231167
0.0607856
-0.093619
0.0328334
0.0430348
0.18042
0.305168
-0.190875
-0.114294
0.0193054
-0.0251519
-0.116063
0.0839101
-0.00988774
0.00987941
8.32951e-06
0.241238
-0.606481
-0.000583462
-0.00565803
0.00624149
-0.00679247
0.0854457
-0.0129233
-0.0725225
-0.353584
-0.0769918
-0.00296861
0.00448516
0.0285995
-0.0144324
-0.0141671
-0.129582
0.16626
-0.0366779
0.125968
0.382423
-0.217672
0.265502
-0.0478304
-0.140667
-0.0613803
0.101568
-0.0436816
0.527746
-0.518217
0.158778
0.650077
-0.438982
-0.211095
0.407937
0.24214
0.00538074
-0.00684879
-0.0488611
-0.0634776
0.0358687
-0.10224
0.116224
-0.0139842
0.572508
-0.09969
-0.0481801
-0.407183
-0.0110742
0.119645
-0.0159406
0.00594941
0.0099912
0.150435
-0.167448
0.0170128
-0.114575
0.335854
0.452108
-0.237443
-0.287041
-0.0907826
0.377824
0.0158098
-0.000226972
0.00251355
0.396821
0.1656
-0.562421
-0.265971
-0.14262
0.408591
0.012214
-0.0228028
-0.148519
0.105224
0.110768
0.0433764
-0.294978
-0.148668
0.261489
-0.112821
0.182739
-0.220648
0.0379092
-0.00453879
0.108777
0.0628223
-0.0727117
0.0251127
0.0998141
0.0117067
-0.148632
0.0606448
0.0879875
0.0211848
0.0827943
0.00716911
0.117518
0.453098
-0.292971
-0.160128
0.0058165
-0.000763388
-0.452941
0.249244
-0.0264023
0.25155
0.0061271
-0.257677
0.0776627
0.0286463
0.0819211
0.0215389
-0.10346
-0.0144832
0.399426
-0.384943
-0.00193543
0.10331
0.110314
-0.139789
0.0294749
-0.00458292
-0.00200064
0.00658356
-0.0818012
-0.0668311
0.00323248
0.0942406
-0.0974731
0.141745
-0.146351
0.322831
0.138039
0.049439
-0.0173962
0.101564
-0.0271252
0.0222488
0.00487647
0.169832
-0.344793
-0.156254
0.186279
-0.0300252
0.11134
0.00488356
-0.00384788
-0.00374786
0.0132181
-0.0132181
0.118198
-0.119183
-0.0647041
0.108693
-0.036573
-0.205811
0.199022
-0.227214
0.0281921
-0.211704
0.25508
-0.0744147
-0.0164869
0.0909016
-0.0530413
0.0269073
0.146649
0.00143156
0.0141472
-0.0196096
-0.0075156
-0.00236995
-0.00751779
0.0212574
-0.218821
0.197564
-0.00888949
0.107164
0.089799
-0.0290134
0.0852521
0.0931072
-0.178359
-0.291614
0.0883278
0.203287
-0.0296465
0.00209414
0.0275523
0.0636657
-0.0403112
-0.0233545
-0.0570363
0.0433199
0.0137163
-0.0381906
-0.0694331
0.107624
-0.538887
0.0463758
-0.00822207
-0.00204335
0.00377048
-0.467089
0.452606
0.185329
-0.183102
-0.00222651
-0.00709884
-0.112109
0.119208
-0.125974
0.0282536
-0.0157385
0.124835
0.0372499
-0.00932269
-0.0279272
0.111336
-0.0263612
-0.0202603
0.191737
-0.171477
0.0242533
0.0251858
0.264761
-0.198313
-0.066448
0.000228829
0.000410674
0.271616
-0.574925
-0.0118813
0.408702
0.0696118
0.0141782
0.0465157
0.01715
0.0339053
-0.00704971
-0.0268556
0.0966128
0.168148
0.257415
-0.264756
-0.448441
0.18247
0.00498792
-0.149723
0.00309627
0.11611
-0.0872565
0.220538
-0.0215157
0.101305
-0.112109
0.13432
-0.26184
0.269829
-0.0528267
-0.0658248
0.117602
-0.00149158
-0.083661
0.0745412
0.00911976
-0.0474657
0.35971
-0.312244
-0.0828796
-0.0260957
0.108975
-0.0729176
-0.00683326
0.00750641
0.0333177
0.123767
0.109659
-0.0277378
-0.188793
0.0325384
-0.258902
0.536898
-0.277996
0.291839
0.0855933
-0.377432
-0.0908337
0.310346
-0.0871178
-0.0117318
0.0988496
0.156003
-0.0597208
-0.0558661
0.105136
-0.04927
-0.0365432
0.0227158
-0.139816
-0.0171683
-0.222422
-0.378958
0.027034
-0.0900866
0.0630526
0.0242587
0.00964656
-0.10167
0.0863681
0.0153014
0.057707
-0.345121
-0.18105
0.14933
0.0317197
-0.120663
-0.397554
-0.160222
-0.0417124
0.201935
-0.0526127
0.213658
0.00643016
0.0221693
-0.287405
0.614192
-0.0673008
0.188724
-0.00298474
-0.185739
0.0850916
0.0207677
0.14836
-0.0608902
-0.0874693
0.00472715
-0.000765711
-0.00396144
-0.0226942
-0.0895376
0.112232
0.0482887
-0.26596
-0.00106178
0.00323701
-0.00217523
0.0111522
0.00206588
0.354157
-0.2657
-0.0884571
0.221571
0.0299797
0.105867
-0.0760179
-0.029849
0.0852044
-0.123395
0.117463
-0.00149121
-0.347939
-0.242509
0.590448
0.0346586
0.27051
-0.103699
0.0910071
0.242867
-0.0610348
-0.111999
-0.0160061
-0.150118
0.124808
0.38765
-0.0958112
-0.144831
0.150102
-0.00527066
-0.0325323
0.4
-0.175593
-0.224407
-0.266251
-0.030958
0.297209
0.672629
-0.393092
-0.279537
0.00617999
0.00293369
-0.413821
0.622036
-0.201729
0.0119937
0.00377707
0.011659
0.00913529
0.201847
-0.210982
0.0579696
-0.0114539
-0.0265181
-0.18677
0.0670473
0.0719945
0.233647
0.12214
-0.00613129
-0.116009
-0.09893
-0.375827
0.139178
-0.00591981
-0.133258
0.325196
-0.585801
0.260605
0.111812
-0.100614
-0.0111977
-0.218733
-0.0942015
-0.0333374
0.0352277
0.0543476
-0.0460969
-0.00825074
-0.00368582
-0.0122548
-0.560424
-0.07214
-0.236015
0.128849
-0.12168
-0.147742
0.162657
-0.0149152
0.00165734
-0.00670867
0.00505132
0.021864
-0.0219437
7.96887e-05
-0.135037
-0.0275007
-0.33221
-0.0135728
0.345783
0.108179
-0.0166953
-0.0268141
0.0197644
-0.0870469
0.0033859
0.0577683
-0.113634
0.141797
0.000771809
-0.142569
-0.0305278
-0.00532303
0.0358508
-0.16486
0.150687
0.0141729
0.160156
-0.175603
0.00120359
0.0941823
-0.0953859
-0.0775905
-0.00532941
-0.148651
0.0136131
-0.00262874
0.0201416
-0.0175128
0.147521
-0.152595
0.00507356
-0.279988
0.08009
0.199898
0.09828
-0.105379
0.0699898
0.111612
-0.404802
0.31772
0.0870819
-0.18516
0.0249373
0.0141763
0.147018
-0.168865
-0.0454555
-0.381862
-0.0411977
0.42306
0.180303
0.147998
-0.0148559
-0.133142
-0.0626068
0.242296
-0.179689
-0.138415
0.0264155
0.00998443
-0.342194
-0.226197
0.462824
-0.236627
0.135125
-0.548946
0.215114
-0.158972
-0.0561415
0.222967
0.223646
-0.446613
0.0279632
0.185311
-0.213274
0.625677
-0.283316
-0.342361
0.0058821
0.00159533
-0.147524
0.146713
0.000810769
0.0406795
-0.0392439
0.237394
-0.516424
0.27903
-0.354407
-0.205275
0.559683
-0.036736
0.0875022
-0.0507662
0.151935
-0.0290805
0.251053
-0.195129
-0.0559242
0.0465557
0.0168427
-0.0633984
0.136337
-0.0405583
-0.0957789
-0.0823509
0.0660447
0.00356427
0.0964612
-0.124915
0.028454
-0.0884943
0.260378
-0.171884
-0.633862
0.0243949
0.609467
0.598373
-0.190436
-0.256272
0.0110148
0.0130416
-0.0132293
0.000187696
-0.603347
0.248939
-0.0946097
0.0222278
0.0723819
-0.126497
0.15446
-0.00102618
-0.00609042
0.109094
-0.137282
0.0281883
0.111411
0.0249263
-0.010946
0.0960377
-0.440142
0.102317
0.337825
0.280801
0.316214
0.00346735
-0.430134
0.275041
0.155093
-0.300282
0.0816253
0.218657
-0.0536379
-0.0219678
0.0756058
0.251304
-0.0148785
0.0978285
0.44882
-0.546649
-0.00712979
0.176995
-0.169865
-0.0585854
-0.417685
0.47627
0.324238
-0.474063
0.149825
-0.162248
0.0136388
-0.00305499
0.00471233
0.166596
-0.177111
0.010515
0.250605
0.149395
0.464303
0.125551
0.00636658
-0.0102145
0.00780515
0.331837
-0.101596
-0.230241
-0.109136
0.278968
0.0701014
-0.0235457
-0.0828944
0.100959
-0.0180648
-0.0115245
-0.0018538
0.0133783
-0.113721
0.116954
-0.0496215
-0.230366
-0.234907
-0.35624
0.505244
-0.181006
0.00925165
-0.147431
-0.0128134
0.0193134
-0.0887525
0.0694391
0.0508467
0.120543
-0.013693
0.00520602
-0.28624
0.0871622
0.199077
0.0346721
-0.216701
0.182029
0.0105181
-0.0131591
0.00264107
0.144681
-0.450338
0.00286723
0.212532
0.274255
-0.35747
0.0832154
0.335798
0.259945
-0.595743
0.00420548
-0.154806
0.0884331
0.0186375
0.205279
-0.276542
0.0712626
0.0517285
0.00624112
0.00125066
0.0129382
-0.0141889
0.0308736
0.225906
-0.310622
-0.118693
0.429315
-0.0925745
-0.0114252
0.104
-0.0734248
-0.325412
0.566649
-0.0813036
0.10135
-0.0200464
-0.437202
0.12658
-0.155732
-0.27986
0.364537
-0.0846773
0.437808
-0.154047
-0.283762
-0.110241
-0.242362
-0.102071
0.344433
0.0310492
-0.0925341
0.14442
0.041375
-0.185795
0.39323
-0.586435
0.193205
0.374354
-0.504515
0.13016
-0.0167114
-0.267176
0.283887
0.0299619
-0.320361
0.290399
-0.338807
0.0725561
-0.0357818
0.044794
-0.00901216
0.289492
0.0508502
-0.340343
-0.109415
0.400603
-0.291188
0.0273287
-0.010047
-0.0172816
-0.0315699
0.0391223
-0.151781
0.131521
-0.160178
0.000984993
-0.120984
0.119999
-0.0507968
-0.166415
0.217212
0.47201
-0.162824
-0.309186
0.126303
-0.0550944
-0.00466716
0.113239
-0.00142685
0.272831
-0.482282
0.209451
-0.302461
0.111587
-0.00501228
0.0268763
-0.0522295
-0.0824663
0.134696
-0.0015757
0.00459492
-0.00301922
0.528355
0.167869
0.000860617
-0.00754632
-0.182783
0.155112
0.0276712
-0.277093
0.0639706
0.0126917
-0.0120936
-0.000598106
-0.0193203
0.0115052
0.00781503
0.353554
-0.323593
0.102799
-0.101596
0.491378
0.106995
-0.338927
0.0965656
0.429019
-0.191625
-0.000527016
-0.0053067
0.471906
-0.248939
-0.328179
0.28101
-0.0511543
-0.273188
0.0741772
0.199011
0.0327881
0.0924248
-0.0932858
0.047184
0.304651
0.0737483
-0.3784
0.0989047
-0.124768
0.0258637
0.37252
0.166685
-0.539205
0.00574913
0.504831
-0.482328
-0.0225029
0.347199
0.360873
0.219205
-0.580078
0.00610944
0.458701
0.0284564
-0.0117504
0.0155251
-0.00377465
0.0147074
-0.0551349
0.0404276
0.000518484
-0.181568
-0.0404067
-0.0687427
-0.0102
0.0119936
-0.00179352
-0.281105
0.349236
0.000341573
-0.00856364
-0.0321873
0.0096081
-0.0119084
0.00170833
0.000180685
0.015767
-0.0159477
0.00811088
0.0192178
-0.0268086
0.0222256
-0.0721312
0.0991652
0.179599
0.0859029
0.00413646
-0.15367
-0.029113
0.00549424
-0.0293305
-0.411907
0.0583229
0.0905064
0.274979
0.277053
0.0547835
0.53812
0.163831
-0.230205
0.0663743
0.121502
-0.147535
0.0260336
-0.00587936
0.00787007
-0.00199071
0.371765
-0.281259
0.425502
-0.186183
-0.239319
-0.00172313
0.00814208
-0.00641895
0.0111116
-0.0782874
0.0671758
-0.270019
0.253308
0.0232147
0.0220436
-0.175603
0.153559
-0.0723644
-0.206109
0.278473
0.0291685
0.0251791
0.0897071
-0.0664924
0.162038
-0.212333
0.0502943
-0.16584
-0.107347
0.0125849
-0.0113343
0.0115378
-0.00101976
0.00286581
-0.0150179
-0.362972
0.0831129
-0.0871496
-0.0289139
-0.00957351
0.119888
-0.00559996
-0.00344214
0.00904209
-0.0338169
-0.121916
0.124539
-0.00262338
0.256565
0.169915
-0.25841
-0.0762106
-0.210029
-0.508224
-0.114231
0.066446
0.51174
-0.364232
0.169791
0.0129471
-0.0631717
-0.101688
-0.00156649
1.39871e-05
0.0015525
-0.130979
0.0348011
0.0961775
-0.0946776
-0.233501
0.123827
-0.00297384
0.00436186
-0.00138802
0.165808
0.327669
-0.245584
-0.0820846
-0.00067989
-0.00103747
0.00171736
-0.360999
0.0955064
-0.305312
0.0050296
0.0750424
-0.110016
0.0349731
0.00485053
-0.00316417
0.482507
0.299456
-0.346922
-0.0279767
0.0365704
-0.0085937
-0.102231
0.0618241
-0.0279881
0.0900868
-0.0620986
-0.136971
0.0374436
0.0995271
-0.0426463
-0.0650901
-0.487375
0.173961
0.313414
-0.102617
0.10018
0.00243697
0.173337
0.154332
0.0124015
0.357054
-0.369456
-0.0802013
-0.211413
-0.04746
0.0129024
0.00135171
-0.0128762
-0.368935
0.089306
0.279629
0.500165
-0.125811
-0.0731224
0.347377
0.0229724
0.0664346
-0.181233
-0.0060138
0.187246
-0.233162
-0.196972
-0.302859
0.0887738
-0.00280295
0.363868
-0.0592161
-0.0085288
-0.0737943
-0.0158591
0.0896534
-0.0147029
-0.00427699
0.0189799
-0.326883
0.0873698
0.116919
-0.0265386
-0.0903805
0.183891
-0.162634
-0.00542431
0.000258543
-0.00400574
0.0010319
0.00948203
-0.00359964
-0.12026
0.121245
-0.00487155
-0.0144487
0.463962
0.00574924
-0.0323216
-0.466452
0.479695
-0.0734177
-0.150314
0.171545
-0.156782
-0.0147629
-0.0763259
-0.0449654
0.00705109
0.0479786
0.0305167
-0.0784952
0.0930869
0.0170833
-0.11017
-0.0184269
0.0535715
-0.0351446
-0.285859
-0.273846
0.559705
-0.056706
0.100512
-0.0438058
0.105785
0.332023
-0.0860687
0.156059
0.0328864
-0.0256437
-0.00724264
0.230444
0.116284
0.174849
-0.6413
0.218588
-0.266934
0.0483463
0.101885
-0.255409
0.153524
-0.000323394
-0.00124309
0.467639
-0.102551
-0.365088
0.513131
-0.17889
0.00833317
-0.0214031
0.131639
-0.110236
0.147155
-0.145896
-0.00125865
-0.0274092
0.00059506
-0.101485
-0.00859284
0.110078
0.0122928
0.000274543
-0.0125674
-0.000867474
-0.132822
0.112738
-0.164968
-0.00139669
-0.00229835
-0.174584
0.00608724
0.0625611
-0.0686484
0.000744388
0.0322158
0.204816
-0.00686393
-0.197953
-0.307063
-0.0577653
0.364828
0.0022827
0.0199628
-0.0222455
-0.0390683
-0.247524
0.265832
-0.145786
0.0381387
0.107647
0.155439
-0.00500424
-0.344749
0.117889
0.226861
-0.0275082
0.191339
-0.14289
0.244775
0.155612
0.286099
0.310916
0.136931
0.00486575
-0.0256708
0.0513178
-0.369234
0.139083
-0.129199
-0.00988341
0.109454
0.20899
-0.318444
0.105416
-0.0974939
-0.00792198
-0.252339
0.577534
0.157913
0.00227609
-0.133234
-0.231281
0.168674
0.320151
-0.0816591
-0.238492
-0.296746
-0.0721892
0.0375736
-0.0359677
-0.00160589
-0.0904628
-0.0301592
0.120622
-0.0279792
0.0601178
-0.0321386
0.264409
0.197311
-0.3246
0.266701
0.0578996
0.00818131
-0.271443
-0.0860271
0.0194444
0.115906
-0.13535
-0.125972
0.035509
-0.234443
-0.110306
0.0282895
0.113263
-0.258507
0.367961
-0.021801
0.0570766
-0.0352757
-0.291255
0.0437309
-0.000223536
0.191961
-0.00383952
-0.00161085
-0.0740962
0.100497
-0.0264006
-0.0933345
0.400727
-0.307393
-0.224107
0.191907
0.0322008
0.00203461
-0.0137851
0.354719
-0.342317
0.474346
-0.118374
-0.355972
-0.00866472
0.00306477
-0.00427103
0.00374401
0.0308696
-0.19733
-0.0104163
-0.0875773
0.0979936
0.544255
-0.280879
0.229967
-0.00983442
0.238172
-0.211246
-0.353717
-0.0864253
-0.0918636
0.0228473
0.0690163
0.306499
-0.286757
-0.0197413
0.0220467
0.0647715
-0.0868182
0.198536
0.402013
-0.4463
0.0925832
-0.296866
0.195271
0.00670538
-0.10819
0.0131553
0.00216846
-0.0153237
-0.221393
-0.0754799
0.000602388
-0.236723
0.236121
-0.348668
-0.138707
0.197994
-0.185266
0.481833
-0.146035
0.02163
0.136325
-0.124398
-0.584739
0.259327
0.0191542
0.0473788
0.115999
-0.0947976
0.0380916
0.0166921
-0.00377994
-0.0222951
-0.00735141
0.395034
-0.305728
-0.302132
0.0565482
-0.258255
0.338293
-0.0800385
-0.0108473
-0.178467
0.140815
0.000786977
0.0134545
-0.0142414
-0.00438401
-0.00839715
0.0127812
0.231256
-0.169314
0.0049097
0.00819217
-0.0159946
-0.142555
0.145542
-0.00298758
-0.0988725
0.0884562
-0.114032
0.091338
-0.00175274
-0.0106321
0.109788
-0.00437211
0.0339141
0.0550184
-0.0889325
0.01434
-0.00496523
0.134956
0.00348916
-0.138445
0.171697
0.0017678
-0.0263003
0.0775051
-0.398729
-0.0131786
0.214727
-0.141386
0.0460013
-0.039914
-0.127778
0.143839
-0.0160614
0.373252
-0.283345
0.122914
-0.000774005
-0.0995288
0.118973
-0.00461172
0.00474715
-0.00108439
-0.00366276
0.215069
-0.00236619
-0.212703
-0.0617939
0.043367
0.0282461
0.130932
-0.159178
-0.0198706
0.0902847
-0.0704141
-0.0508235
-0.0529337
0.103757
0.121746
-0.0889575
-0.159899
0.181942
-0.367921
0.205642
0.0454269
0.306641
-0.43114
0.124499
-0.0455542
0.207592
-0.503416
-0.026696
0.18499
-0.369684
0.112538
0.257146
0.00484254
0.110664
-0.115507
-0.0148656
0.108402
0.0122168
0.0056031
-0.0178199
0.0792136
0.0297017
-0.108915
-0.0327404
-0.0605454
-0.0430358
-0.0100598
0.0739339
0.261046
-0.363694
0.102647
0.00734025
0.00689485
-0.0429668
0.0360719
0.324221
-0.391895
0.0676741
0.353683
-0.152139
-0.0102933
0.162432
0.00227448
0.0107671
0.338021
-0.593829
0.255808
0.130265
-0.00775607
-0.122509
0.0749735
-0.004989
-0.0699845
0.120209
-0.152227
0.0320187
0.374059
-0.268389
-0.10567
-0.286899
0.22974
0.0571586
-0.180304
0.322755
-0.142451
-0.0815196
-0.0642665
-0.146779
0.102278
0.232585
0.00488741
-0.0382249
0.0356871
-0.0253672
-0.0103198
-0.119902
0.124203
-0.0991311
0.0178275
-0.0190083
0.153964
0.0973249
-0.088519
-0.00880588
-0.213541
0.222676
-0.204132
0.153336
0.0097013
0.044845
-0.0545463
-0.0659416
0.0968791
-0.0309375
0.00299866
-0.00852327
0.0334654
-0.0432189
-0.590643
-0.415461
0.310155
0.105306
-0.146493
0.309193
0.3467
-0.0711108
-0.275589
0.118059
0.15972
-0.0576824
-0.075861
0.133543
0.371276
-0.0768695
-0.294406
0.000735617
0.0989655
-0.0997012
-0.502134
0.443548
-0.167028
-0.299017
0.128436
-0.0170253
-0.0050109
0.106316
-0.0594206
0.0933347
-0.355328
0.0742234
0.034596
-0.174596
-0.240865
0.0103553
0.04665
-0.0570053
0.273842
0.227577
-0.185764
0.136873
0.458206
-0.185375
0.0181199
0.0761157
-0.0942356
-0.000697153
0.0670209
-0.103994
0.277941
-0.0729051
-0.0580734
0.359192
-0.144596
-0.214596
0.149516
0.00253771
-0.00330342
0.234212
0.101958
-0.33617
0.19552
-0.275722
-0.139053
0.11765
0.171323
0.0140058
0.0050877
0.28284
0.117628
-0.178122
0.0604936
0.250134
-0.281092
0.119509
-0.501371
0.13816
-0.016658
-0.0960529
-0.168704
-0.215349
-0.236802
0.452151
-0.163577
-0.0487555
-0.00284146
-0.00295159
-0.20222
-0.0134598
0.21568
-0.0657339
0.0850473
-0.037882
-0.00112947
-0.00258651
0.0157418
-0.22175
0.0195302
-0.448057
0.232708
0.0517912
0.126178
-0.177969