/*--------------------------------*- C++ -*----------------------------------*\
| =========                 |                                                 |
| \\      /  F ield         | OpenFOAM: The Open Source CFD Toolbox           |
|  \\    /   O peration     | Version:  v2012                                 |
|   \\  /    A nd           | Website:  www.openfoam.com                      |
|    \\/     M anipulation  |                                                 |
\*---------------------------------------------------------------------------*/
FoamFile
{
    version     2.0;
    format      ascii;
    class       volVectorField;
    location    "100";
    object      U_0;
}
// * * * * * * * * * * * * * * * * * * * * * * * * * * * * * * * * * * * * * //

dimensions      [0 1 -1 0 0 0 0];


internalField   nonuniform List<vector> 
13917
(
(1.09285 0.120725 -3.1259e-20)
(1.0191 0.0382957 2.68755e-22)
(0.638954 -0.0438752 -6.08874e-20)
(1.05288 -0.0109489 -2.21547e-21)
(0.99633 0.00238593 -1.36438e-20)
(0.371482 0.0527936 0)
(0.561697 -0.0343592 0)
(0.653761 -0.0484879 0)
(0.506913 -0.0873904 -1.73386e-20)
(1.1349 0.149155 4.49042e-20)
(1.11408 -0.0439678 -2.95292e-21)
(1.09496 -0.0432643 0)
(1.0532 -0.0123592 0)
(0.0639856 -0.00409525 -1.81873e-20)
(0.97353 0.0881015 -9.92875e-21)
(0.996701 0.0895753 4.76583e-21)
(1.01444 0.0445741 7.22676e-22)
(1.13457 0.017257 0)
(1.0937 -0.0443845 1.80121e-21)
(1.00142 0.00431157 3.65968e-21)
(0.99998 0.00111632 0)
(0.543095 -0.0337001 0)
(1.00088 0.00711807 6.39549e-21)
(0.708468 -0.0486193 -2.03285e-20)
(0.994914 0.0147387 1.34349e-21)
(0.55989 -0.0341834 3.74757e-20)
(0.787505 0.0274139 0)
(0.768547 0.116693 -4.17753e-20)
(0.795004 0.532124 0)
(1.18899 0.0893757 0)
(1.10517 0.109254 3.30014e-20)
(1.05786 0.0846142 9.8634e-21)
(0.841591 0.067994 0)
(0.916 -0.005886 2.28266e-20)
(0.991721 0.0110976 -1.59091e-21)
(1.12178 -0.0432226 2.39851e-20)
(1.00086 0.00671847 4.23437e-22)
(0.194711 -0.0260775 0)
(1.0592 -0.0169605 -6.49177e-21)
(0.278514 -0.0111412 2.36686e-21)
(1.00761 0.000933152 0)
(0.999973 0.000657897 -7.70409e-22)
(1.01885 0.00225579 -4.31913e-21)
(0.715353 0.202178 0)
(1.03679 0.0225 -8.3038e-21)
(0.892462 0.0128621 0)
(1.13166 0.0122058 0)
(1.13328 -0.0150981 0)
(0.118523 0.133985 1.77136e-19)
(1.00312 0.000651413 -1.14032e-21)
(1.08218 0.0125496 0)
(0.966082 0.00614989 -5.57869e-21)
(0.0693872 0.094322 -3.19103e-19)
(0.911366 0.00314278 2.59095e-20)
(1.0131 0.0434166 0)
(1.08212 0.0348512 -1.3219e-20)
(1.11416 -0.0444725 -2.74586e-20)
(0.995469 0.0271647 1.09648e-20)
(1.06787 0.0412393 7.59075e-21)
(1.0355 0.0225447 2.62607e-22)
(0.640429 0.0658742 0)
(1.0214 0.037699 5.92206e-22)
(0.0447935 -0.00357024 2.00707e-20)
(1.00149 0.00464668 0)
(0.397304 0.0701862 0)
(1.18125 0.396296 -3.16871e-20)
(0.995647 -0.00104125 -1.55207e-20)
(0.988497 -0.000965406 -2.23347e-20)
(1.13506 -0.0457172 -5.64132e-20)
(1.06294 0.123669 -9.00151e-21)
(0.996751 0.00270434 1.25277e-20)
(0.573921 -0.0921785 9.31493e-21)
(-0.0675207 -0.0294741 -5.45775e-20)
(0.995718 0.0134661 -3.80025e-21)
(0.117876 0.220961 -1.52463e-19)
(1.08872 -0.0550605 -2.53898e-20)
(-0.0416604 -0.018224 1.26769e-20)
(1.05102 0.0244914 0)
(0.561279 -0.0381902 0)
(0.999887 0.0020006 -7.23927e-21)
(1.0001 0.00296434 -6.14428e-21)
(0.996188 -0.000909754 0)
(0.421234 0.145705 0)
(0.222063 -0.0304439 0)
(-0.0459117 0.015524 -7.74047e-20)
(1.05018 0.022365 -7.53228e-21)
(1.00035 0.0034358 5.72098e-21)
(1.21114 0.408755 0)
(1.08013 0.0116345 2.44094e-20)
(1.01934 0.00205574 0)
(0.0335978 -0.0386455 0)
(1.17199 0.128847 -8.74737e-20)
(1.02202 0.0221841 0)
(0.975726 0.0501475 -6.61261e-22)
(1.1896 0.417088 8.9979e-20)
(0.379652 -0.00753078 -7.01204e-20)
(1.12042 -0.0409173 -2.12291e-20)
(1.1337 -0.00542143 -3.23079e-20)
(1.10488 -0.061483 -3.71167e-20)
(0.624336 0.132562 1.25083e-19)
(1.01028 0.00519507 2.43263e-21)
(0.849824 0.00879435 -5.01802e-20)
(0.70354 0.180113 5.67712e-20)
(1.05832 0.0173378 0)
(1.01538 0.0117564 1.08634e-21)
(0.592502 -0.0911875 1.79137e-21)
(0.843687 0.50526 -2.27491e-20)
(1.13499 -0.0175127 6.99447e-20)
(1.01659 0.0442337 0)
(1.10759 0.118023 2.47582e-21)
(-0.157415 -0.00459952 7.37333e-20)
(0.284718 -0.0103909 7.23855e-21)
(1.09873 -0.0495797 0)
(0.552911 -0.0893041 7.69106e-20)
(0.94974 0.00581715 1.09458e-20)
(0.0772367 -0.095262 -8.89184e-20)
(1.00067 0.0132393 -1.15383e-20)
(0.211659 0.0781807 -3.13136e-20)
(0.200703 -0.00650354 -7.48884e-21)
(0.913375 0.01062 -6.24782e-20)
(0.999982 0.000820006 -5.60188e-21)
(1.13613 -0.0484244 8.93178e-20)
(0.184565 -0.00813609 0)
(0.768957 0.126368 3.05173e-20)
(1.00465 0.000653071 3.78143e-22)
(0.976836 0.0481295 0)
(1.03241 0.0257157 -1.06795e-20)
(1.00434 0.000623679 -5.90939e-22)
(1.01649 0.00169975 -1.92973e-21)
(0.354094 -0.0167437 0)
(0.28281 -0.0159721 -1.32052e-20)
(0.953004 0.00813252 8.25713e-21)
(1.03716 0.0234919 -7.75497e-21)
(0.999961 0.000911584 0)
(1.27019 -0.0177246 -5.31161e-20)
(0.721146 -0.0489983 0)
(1.09184 0.116019 2.71773e-20)
(0.596811 0.13716 4.55342e-20)
(0.995308 -0.00068988 1.74273e-20)
(0.913214 0.00909532 3.46094e-20)
(1.11792 -0.0432908 -4.53609e-20)
(1.02306 0.0120591 0)
(0.963706 0.019616 0)
(0.67491 0.184459 0)
(0.987908 -0.00181419 1.03018e-20)
(0.801688 -0.0947589 -4.26702e-22)
(0.846203 0.557937 -9.54727e-22)
(0.968296 0.010111 0)
(1.02178 0.0101413 -4.36647e-21)
(1.05324 0.0907427 -1.50308e-20)
(1.11262 -0.0219754 0)
(0.092313 -0.138821 2.98149e-19)
(1.10949 -0.0401603 2.67083e-20)
(1.02577 0.180442 -8.6121e-23)
(1.07358 0.0613217 0)
(0.00752566 0.0526187 1.77733e-19)
(1.0561 0.127311 0)
(1.11531 -0.0602918 6.25865e-20)
(-0.0619009 -0.0141069 2.75374e-20)
(1.27011 -0.014747 -7.90755e-21)
(0.941417 0.0411865 -1.18956e-20)
(0.792078 -0.0123524 -4.93634e-20)
(1.00006 0.00217053 6.05292e-21)
(1.11915 -0.0403991 -1.97132e-20)
(1.09866 -0.0488037 1.07137e-20)
(1.10456 -0.060279 3.89346e-20)
(1.05769 0.0193403 0)
(1.12136 -0.0152908 4.84762e-20)
(1.03035 0.0189704 0)
(0.842162 -0.0161355 3.39457e-20)
(1.04419 0.168557 0)
(-0.263292 0.00116247 5.49654e-20)
(1.09868 -0.0533079 0)
(1.0124 0.0542246 1.5478e-21)
(0.931566 -0.0901569 1.15807e-20)
(1.01779 0.190513 -5.90997e-21)
(0.305553 -0.0186493 1.151e-20)
(0.161604 0.110991 -1.0546e-19)
(0.854347 -0.0953927 0)
(1.01192 0.025507 0)
(1.17541 0.116766 0)
(1.11184 0.100628 0)
(1.02353 0.0117035 2.95774e-21)
(1.00032 0.00404229 -4.79296e-21)
(0.93871 0.11269 1.95561e-20)
(0.61164 -0.0363127 -8.83782e-24)
(1.24909 0.13303 -1.7844e-19)
(0.0694072 0.0553149 -1.24351e-19)
(1.11107 0.0380996 -1.62738e-20)
(1.1076 -0.0519039 4.84469e-20)
(1.1146 -0.0462127 -3.03213e-20)
(0.00583796 0.0196876 -7.73793e-20)
(1.2408 0.174404 -1.06631e-19)
(0.999654 0.00713158 -7.62922e-21)
(0.574334 0.0399738 0)
(0.800705 0.0283771 1.0819e-19)
(1.00923 0.000577694 0)
(1.02207 0.0226179 0)
(0.905337 0.40769 5.55332e-21)
(1.20987 0.442891 0)
(1.07296 -0.00364256 -5.33567e-21)
(1.00274 0.000700723 -1.72968e-21)
(1.11587 -0.0166356 6.84921e-20)
(1.11121 -0.023241 0)
(-0.0935862 -0.0236623 -8.89429e-20)
(1.21807 -0.0678145 -5.53877e-20)
(0.992085 0.0106636 0)
(0.994753 0.0300826 -1.24363e-20)
(1.13118 -0.00839524 7.29449e-21)
(0.639154 -0.0385228 -1.58458e-20)
(0.966243 0.0196959 9.4469e-21)
(0.549637 -0.0362846 0)
(-0.13767 -0.0152087 3.12475e-20)
(1.10771 -0.051609 -3.14516e-20)
(1.01491 0.0117007 4.91495e-22)
(0.546543 0.403104 2.6658e-19)
(1.12457 -0.00534132 4.42634e-20)
(-0.253857 -0.00590137 -1.79074e-19)
(1.00272 0.0166904 0)
(0.798678 0.0869385 0)
(1.01151 0.0244821 -4.43058e-22)
(1.18301 0.0631285 6.0646e-20)
(1.00727 0.00106394 0)
(0.174592 -0.0339927 0)
(0.567729 -0.0903863 3.9558e-20)
(0.997725 0.0847781 -6.14872e-21)
(1.17759 0.45163 1.06016e-19)
(1.07696 0.0562479 0)
(1.01426 0.0114938 -2.94963e-21)
(1.12188 -0.0430338 0)
(1.0969 -0.0539234 0)
(1.1103 0.0361826 -8.57196e-21)
(0.726281 -0.0468805 -1.63113e-20)
(-0.155535 -0.0123777 1.61374e-20)
(1.01127 0.00299211 1.63596e-21)
(1.06151 0.0882382 0)
(0.062865 -0.0444918 0)
(-0.0888982 0.0180612 0)
(1.00003 0.00227054 0)
(1.00591 0.00851379 8.72247e-22)
(0.326496 -0.0124912 8.45364e-21)
(1.12315 -0.0425496 -1.30142e-20)
(1.00004 0.000134537 0)
(1.1195 -0.0476423 -7.12628e-20)
(1.1676 0.00160056 0)
(0.805522 -0.0379788 0)
(1.09321 0.0972749 -4.97965e-20)
(1.00007 0.00221387 -6.03147e-21)
(0.982927 0.196744 0)
(-0.115438 -0.0132147 -6.38044e-20)
(1.03851 0.0022116 3.74476e-21)
(1.1911 0.133653 5.85048e-20)
(0.580958 0.173132 7.80425e-20)
(1.03211 0.0246262 -7.89891e-21)
(0.995045 0.0266064 -1.22162e-20)
(1.10499 -0.0359142 4.61181e-20)
(0.34476 -0.0182956 0)
(1.10873 -0.0385023 0)
(0.941072 0.113506 0)
(0.977386 0.0952895 1.48015e-20)
(1.00004 0.00024567 1.49283e-22)
(0.160979 -0.00562355 0)
(0.765093 -0.0538474 0)
(1.12558 -0.0561028 -1.4402e-20)
(1.01383 0.011436 4.47853e-21)
(-0.141548 -0.0207006 -1.25778e-19)
(0.0750802 -0.00851736 0)
(1.09798 -0.0580971 -6.70714e-20)
(0.543448 -0.0377411 4.97008e-21)
(1.08974 -0.0568005 -1.06495e-20)
(1.00008 0.0027409 6.0219e-21)
(1.00564 0.000690503 -2.56906e-22)
(1.12964 0.00839882 5.25804e-20)
(0.0931256 -0.0283105 3.33185e-20)
(1.15089 -0.0283244 1.22797e-20)
(1.06675 0.0381505 2.98957e-20)
(1.22386 -0.0672637 0)
(1.07636 -0.0378772 0)
(1.01623 0.00108544 3.08499e-21)
(1.04813 0.0369083 -5.48796e-20)
(1.0017 0.00420642 1.05655e-22)
(0.902206 -0.0876869 1.57032e-21)
(1.07102 -0.00316782 4.58391e-21)
(1.00007 0.000152675 -3.75177e-22)
(1.00133 0.10341 0)
(1.02504 0.167137 -1.27408e-21)
(0.793071 -0.035263 0)
(1.11935 -0.0473687 5.08825e-20)
(0.999379 0.136923 -4.35923e-21)
(1.04113 0.00824284 6.842e-21)
(1.25549 0.00904685 0)
(0.737826 -0.0472549 1.8518e-20)
(0.671062 -0.0556262 0)
(1.00255 0.0168391 -5.1602e-21)
(1.09086 -0.068485 0)
(0.998424 -0.000365225 0)
(1.04109 0.00816737 2.38619e-20)
(1.00077 0.0125932 1.29918e-20)
(0.836224 0.622613 1.08069e-21)
(1.00147 0.000845097 0)
(1.18683 0.0614753 6.91689e-20)
(1.08667 0.101665 4.10672e-20)
(1.02995 0.0183216 8.0799e-21)
(1.11548 -0.0191592 -8.95344e-20)
(1.03663 0.0538521 1.05395e-20)
(0.0944497 0.0548383 -2.78037e-20)
(1.01997 0.183803 4.74914e-21)
(1.16581 0.118749 -3.7372e-20)
(1.0286 0.0129664 -1.26256e-20)
(0.995675 0.0249956 1.77631e-20)
(-0.175811 -0.00223031 4.03615e-20)
(0.162179 -0.00805523 -3.11308e-20)
(1.00097 0.0137414 -2.47683e-21)
(1.00623 0.0010231 -3.10485e-23)
(1.07159 0.0431543 0)
(1.01492 0.0239177 -6.26456e-22)
(-0.0428639 -0.0335646 1.00401e-19)
(1.02758 0.0124333 4.50499e-21)
(0.190258 -0.0362109 7.67513e-21)
(1.04422 -0.0056493 -1.84799e-20)
(1.19514 0.304694 6.12284e-20)
(1.09638 0.000866711 -7.18626e-20)
(0.11106 0.299938 3.10427e-19)
(0.946536 0.0392484 2.25263e-20)
(1.28192 -0.00854633 -2.1759e-21)
(0.534542 0.295723 0)
(1.00412 0.106996 0)
(1.1246 -0.0422861 -5.98986e-20)
(0.960083 0.503878 0)
(0.995888 0.0418325 0)
(0.24157 -0.0186868 0)
(0.577271 0.049398 0)
(0.0830633 -0.0113785 -2.62771e-21)
(0.924096 0.0159954 -3.99509e-20)
(0.219722 -0.00713025 0)
(1.0683 0.0863321 2.44162e-20)
(-0.0342632 0.00861932 -7.18907e-20)
(0.541608 0.29463 0)
(0.940033 0.331694 1.51914e-20)
(0.943284 0.355792 -6.20043e-21)
(0.587585 -0.0421451 3.6241e-20)
(0.999723 0.0023895 4.92858e-21)
(1.05181 0.166535 -1.71925e-20)
(-0.120644 -0.00424264 -6.66264e-20)
(0.983245 0.0275969 0)
(1.00135 0.0696709 -7.1882e-21)
(0.0963063 -0.00873383 3.24275e-20)
(0.873123 0.472686 0)
(1.01734 0.051551 -2.58395e-22)
(1.11345 -0.0462935 0)
(0.718146 0.541225 0)
(1.00863 0.00461247 0)
(0.182669 -0.00468983 7.60678e-21)
(1.11703 -0.043779 7.14404e-20)
(1.00183 0.00457764 -3.44393e-21)
(1.00889 0.0121029 0)
(0.998597 -0.000168281 3.51896e-22)
(1.02208 0.00977674 5.31949e-21)
(1.25106 0.000646233 -3.40857e-20)
(0.890234 -0.0944073 2.76834e-20)
(0.404031 -0.285226 0)
(-0.139814 -0.00230326 -3.44016e-20)
(0.9979 0.0138796 5.66239e-23)
(1.19667 0.136087 -1.0476e-19)
(-0.148864 0.0174225 -1.8484e-21)
(1.10753 -0.00735483 -8.15459e-21)
(0.530348 -0.0349327 0)
(0.121775 -0.0343266 2.88458e-20)
(0.525856 -0.0895785 -1.21451e-19)
(1.01238 0.00510268 -1.61105e-21)
(1.12311 -0.0577691 -2.64075e-20)
(1.0101 0.0112297 0)
(0.940268 0.105224 6.20785e-20)
(1.03466 0.0229592 8.28901e-21)
(0.108052 0.31761 -1.63567e-19)
(1.17067 0.0063449 2.29823e-20)
(1.06187 -0.00877499 2.27083e-20)
(0.99959 0.00262771 -2.857e-21)
(1.12942 -0.00516251 -1.09319e-19)
(1.18259 0.124056 0)
(1.14809 0.00149407 0)
(0.182163 1.21681 1.084e-20)
(-0.0793185 0.00673145 -7.86731e-20)
(-0.273942 -0.00424131 2.26318e-19)
(0.986868 0.2033 0)
(1.12722 0.1443 -1.11171e-19)
(1.0056 0.00814021 0)
(-0.0631067 0.0193752 0)
(0.525308 -0.0319796 4.03675e-20)
(0.999384 0.0305753 -5.30407e-21)
(1.27605 -0.00128318 6.85521e-20)
(0.995885 0.0103231 0)
(1.20927 -0.0385115 1.01069e-19)
(1.04437 -0.00546393 1.33269e-20)
(0.999781 0.00208679 0)
(1.03226 0.0573529 0)
(0.592006 -0.0524575 3.04056e-20)
(1.03003 0.0569516 0)
(0.367342 -0.0224698 2.49571e-20)
(0.0122248 0.0390353 -2.89871e-20)
(1.11218 -0.0452373 -7.96127e-20)
(0.48097 0.25621 0)
(0.997607 0.039876 3.86238e-21)
(0.501351 0.406352 -2.17359e-19)
(0.488836 0.334771 1.27114e-19)
(1.00205 0.00965264 2.90882e-21)
(0.867606 0.450481 2.07999e-20)
(0.984849 0.0275252 1.80212e-22)
(0.994583 0.012258 1.51018e-21)
(1.18827 0.0881003 0)
(1.00007 0.000310941 0)
(0.994002 0.0142798 4.03601e-21)
(1.01039 0.0118823 0)
(1.24587 0.0104807 3.10499e-20)
(0.999949 0.00167425 -4.99475e-22)
(0.230068 -0.00731864 0)
(0.693538 -0.0567947 0)
(-0.0960666 0.0131194 0)
(1.23702 0.176908 3.71492e-20)
(0.358109 -0.0222149 1.27271e-20)
(-0.237724 -0.00960794 0)
(1.10463 -0.00889124 1.46751e-20)
(0.998314 0.0130812 0)
(1.20349 -0.00330181 -1.72461e-20)
(1.05875 -0.0154413 5.45463e-21)
(1.06748 0.0873629 2.39543e-20)
(0.999687 0.00711055 -8.45653e-21)
(0.828534 -0.0954317 -2.65284e-20)
(0.585777 -0.0360075 1.72412e-20)
(0.749357 -0.0604809 6.89977e-23)
(0.984616 0.080549 -5.73744e-22)
(1.17061 -0.00555698 -2.82693e-20)
(0.928918 0.0174835 5.95543e-20)
(1.06069 -0.0181683 -1.32317e-20)
(1.14655 -0.00162237 0)
(1.01977 0.0568618 -2.69343e-21)
(1.12361 -0.0612811 0)
(1.01758 0.0447494 0)
(1.00144 0.000803159 -2.03711e-21)
(-0.0121585 -0.0394872 0)
(0.297246 -0.0173553 0)
(0.318329 -0.0190237 -6.00371e-21)
(1.17249 0.195523 -7.2633e-20)
(-0.110434 0.0121899 0)
(0.271192 -0.0221086 0)
(-0.0821767 -0.0228392 0)
(0.00985892 -0.0166749 0)
(1.01566 0.00171291 3.2615e-21)
(1.13171 0.000426995 -8.67102e-22)
(1.02176 0.060396 3.15009e-21)
(0.992808 0.0289285 0)
(1.22314 -0.0552647 -1.61966e-19)
(1.13168 0.0106154 -6.2041e-20)
(1.01664 1.09483e-05 0)
(1.15226 0.043156 0)
(1.10549 -0.00288852 -3.12941e-20)
(0.0221038 -0.014037 -3.92947e-20)
(1.00215 0.00949659 3.43653e-21)
(1.13166 -0.0384944 -8.68832e-20)
(0.0996762 0.0551091 5.12269e-20)
(1.22349 0.315863 4.07864e-20)
(0.241348 -0.00876 -3.25938e-20)
(0.999947 0.00144994 -4.39697e-21)
(0.998191 0.0325431 7.21594e-22)
(1.01012 0.000321625 -5.66681e-22)
(1.0508 0.129096 8.51988e-22)
(1.0124 0.00492678 3.94896e-21)
(0.669386 -0.0414675 -1.89452e-20)
(0.413627 -0.263294 -7.3174e-20)
(1.00234 0.135237 4.02795e-21)
(-0.0180703 0.0264218 0)
(1.08199 0.0336539 2.60389e-20)
(1.11831 -0.0408623 0)
(-0.0381297 -0.0250386 -6.65302e-20)
(0.855787 0.566632 -5.44098e-21)
(1.11149 -0.0463465 6.12138e-20)
(1.11765 -0.0436348 6.08504e-20)
(1.13088 -0.0358893 7.66349e-20)
(1.15142 0.0617846 7.48775e-20)
(1.1898 -0.0178654 0)
(1.0918 -0.0262142 2.71543e-20)
(1.11261 -0.0495714 -4.01471e-20)
(0.389282 0.0968622 0)
(1.08904 -0.0349869 -3.20586e-20)
(1.13165 -0.0220743 2.26576e-20)
(1.01327 0.00099415 3.1466e-21)
(1.25787 -0.0328763 0)
(1.08498 0.0165289 2.60901e-20)
(1.02786 0.00307939 -7.5367e-23)
(1.04764 0.128159 0)
(1.05376 0.0225022 -8.43609e-21)
(0.0240369 -0.017212 0)
(0.574991 -0.0928562 0)
(1.01436 0.0225516 1.29763e-22)
(1.01599 0.000778811 1.05523e-21)
(0.698561 -0.0401302 -1.79328e-20)
(-0.254212 -0.00707065 0)
(1.00007 0.000246387 -2.01185e-21)
(0.216516 -0.00602242 3.35359e-20)
(1.05394 0.00396666 -2.14634e-20)
(1.22672 0.158139 2.75847e-20)
(1.01398 0.0247144 -1.7575e-22)
(-0.134536 -0.0196472 -3.94559e-20)
(1.14956 -0.0783511 0)
(1.05565 0.0910189 1.85997e-20)
(1.03562 0.0353578 -1.0366e-20)
(0.387692 -0.0254908 -3.35867e-20)
(1.23977 0.130765 1.20586e-19)
(-0.200099 0.00885641 0)
(1.00004 0.000328211 0)
(-0.122475 -0.0152379 -6.13381e-20)
(0.121934 0.0346733 1.42446e-19)
(1.05378 0.04877 9.92724e-22)
(1.02804 0.00333566 -1.50992e-20)
(-0.0787656 0.015955 -2.17204e-20)
(0.390613 -0.0506871 0)
(1.10421 -0.0126092 5.97475e-20)
(1.00943 0.0119043 -3.11626e-22)
(1.00841 0.0440258 0)
(1.08563 -0.0569211 -3.23154e-20)
(1.21222 -0.0485203 8.21309e-20)
(1.01676 -7.97541e-05 -1.3102e-21)
(1.00839 0.0111474 -5.6607e-22)
(1.00471 0.00236197 -9.13826e-22)
(1.005 0.00220762 0)
(-0.164032 -0.0176796 7.53336e-20)
(1.2254 -0.0543058 -1.34608e-19)
(1.1038 -0.0109181 -5.95986e-20)
(1.25037 0.124418 -1.81865e-21)
(1.00557 0.000786068 2.53649e-22)
(1.00988 0.00524553 -1.97355e-21)
(1.16664 -0.00897631 1.35129e-20)
(0.223159 -0.0621191 1.04415e-20)
(1.10272 0.0499699 0)
(1.03169 0.0199993 0)
(0.994874 0.0131134 0)
(0.992791 -0.000417469 -2.05103e-20)
(1.01269 0.0431113 1.12419e-19)
(0.0520318 0.0227747 1.63351e-19)
(1.00062 0.00350083 0)
(0.992902 0.00258112 -1.27437e-20)
(1.12247 -0.0585115 -1.4317e-20)
(1.09225 -0.0247775 -2.63794e-20)
(1.09582 0.000383162 -1.30408e-20)
(0.997467 0.0292857 -1.10134e-20)
(1.02685 0.0616842 3.24837e-21)
(1.04353 0.0881809 2.67592e-21)
(1.12935 -0.0235175 1.24388e-21)
(0.96503 0.458165 0)
(1.2508 0.127614 1.42948e-19)
(1.20422 -0.00471478 8.16993e-20)
(1.15137 -0.0189008 0)
(1.21474 -0.0693173 1.44749e-20)
(1.16529 0.118413 -5.14827e-20)
(1.00171 0.0161339 5.79959e-21)
(-0.106182 -0.0162601 5.4552e-20)
(0.993122 -0.000669882 1.2801e-20)
(1.00141 0.0705426 8.53436e-21)
(1.06386 -0.00135556 8.89902e-22)
(1.25455 -0.0401466 -4.26885e-20)
(0.997723 0.274307 0)
(1.00913 0.000936199 0)
(1.22266 0.315536 0)
(1.19869 0.0819189 0)
(0.10553 0.1749 -6.06478e-20)
(1.15348 -0.0195779 5.86019e-20)
(0.893225 0.130108 -4.59173e-22)
(1.10846 -0.00500963 -3.03231e-20)
(0.999354 0.00296696 6.09616e-21)
(0.590159 -0.0573162 0)
(1.2086 0.292913 -6.90849e-20)
(0.435476 -0.0383002 0)
(1.01688 0.0391007 0)
(1.09332 0.0373075 5.15104e-20)
(1.25342 0.115654 0)
(0.129154 -0.0378784 -6.26421e-20)
(-0.246385 -0.000417408 -1.70072e-19)
(1.13627 -0.00833783 1.06515e-21)
(1.17966 0.204073 -1.07141e-20)
(0.992054 0.0817204 -1.92584e-21)
(1.05417 0.0524308 1.75012e-21)
(0.996128 0.0319826 -7.08795e-21)
(0.895635 0.226625 0)
(0.688071 0.178252 0)
(0.974725 -0.00300326 0)
(1.12232 -0.0082094 0)
(0.574627 0.167329 -1.96385e-19)
(0.450596 -0.0403702 -1.08462e-20)
(-0.192467 0.0100595 0)
(1.03232 0.0677121 -1.99756e-21)
(1.11726 -0.0406501 -2.6226e-21)
(1.14661 -0.0769858 0)
(1.00611 0.11275 -1.5292e-21)
(0.96951 0.0215271 -1.89107e-20)
(0.124255 0.58291 0)
(0.782842 -0.0901411 7.39987e-20)
(0.741064 -0.0913226 2.75691e-20)
(1.24761 0.104013 -1.50082e-19)
(1.01633 0.0016201 0)
(0.190856 -0.00616145 -8.61448e-21)
(1.08695 -0.05526 3.12842e-20)
(1.00887 0.00100468 0)
(1.09066 0.0682903 -1.03392e-20)
(1.11813 -0.0293276 0)
(0.854057 0.0650631 3.82001e-20)
(1.1868 0.0802001 2.74845e-20)
(0.552013 -0.0375543 0)
(1.18465 -0.0196578 2.647e-20)
(1.08787 -0.0229024 2.82368e-20)
(0.59041 -0.0585195 0)
(1.05602 0.027708 6.22102e-21)
(-0.0101297 -0.0135194 -5.33242e-21)
(1.00001 0.00198881 0)
(1.00058 0.00378739 -2.062e-22)
(1.0827 -0.0665087 -3.43833e-20)
(0.756055 -0.0907257 -4.1473e-20)
(0.405592 0.250337 -1.63798e-19)
(1.05643 0.0281229 -6.66411e-21)
(1.01306 0.0516331 -9.69749e-22)
(0.993346 0.00303299 1.78941e-20)
(1.0778 -0.037835 1.25709e-20)
(0.0954164 0.156898 1.72256e-19)
(1.10286 -0.0597077 -3.52521e-20)
(1.05643 0.0533509 1.96658e-21)
(1.11095 -0.0449914 -3.51228e-20)
(1.12701 -0.00780805 5.21655e-20)
(1.01374 0.0243241 4.02669e-22)
(1.17057 0.449106 4.81353e-20)
(1.10144 -0.060415 2.54285e-20)
(1.12313 -0.0728371 5.66949e-20)
(1.00416 0.0181736 0)
(1.17842 -0.023556 -2.10806e-20)
(1.05283 0.024802 -1.18841e-21)
(0.0935037 0.0683026 -9.66979e-20)
(1.14052 0.136595 -4.61815e-20)
(1.00192 0.279092 0)
(1.09464 0.0396694 -4.87722e-20)
(1.00722 0.00269013 -3.11847e-22)
(1.02604 0.00547187 3.38745e-21)
(1.03373 0.0263004 7.43143e-21)
(0.966976 0.353476 2.91397e-21)
(0.893753 0.0098045 0)
(1.25113 0.0392952 -8.36655e-20)
(0.616151 0.753505 2.11854e-20)
(1.12143 -0.0136182 -5.09541e-20)
(1.00811 0.00465395 0)
(1.1921 -0.0113362 0)
(0.405977 0.26707 0)
(1.12027 -0.0423987 -5.43437e-20)
(1.03777 0.003199 0)
(0.902548 0.0309866 1.26914e-20)
(1.0079 0.0113974 -1.19914e-22)
(1.0731 -0.0178956 0)
(1.07139 0.0400253 0)
(0.363334 -0.0524768 -2.90581e-20)
(0.999805 0.00202222 0)
(1.21002 0.448228 -5.38751e-20)
(1.07439 -0.0153634 0)
(1.11363 -0.044182 1.25142e-20)
(1.16696 0.137772 -2.2536e-20)
(-0.0864667 -0.0271813 9.18695e-20)
(1.02449 0.27471 1.29801e-20)
(1.00832 0.0441212 -1.11004e-21)
(0.0551694 -0.0268422 -3.71775e-20)
(-0.24515 -0.00411224 8.42283e-20)
(1.00579 0.0322977 0)
(1.06293 -0.00304139 3.34934e-21)
(1.16059 -0.0825237 1.25712e-19)
(1.23684 0.106138 0)
(1.14741 -0.0318934 -2.52278e-20)
(1.00015 0.000336001 -2.44391e-21)
(1.03692 0.0351324 0)
(1.18751 0.29092 0)
(1.06228 -0.0106518 -3.09385e-20)
(1.14869 0.00318007 0)
(1.10398 -0.0340572 0)
(1.02662 0.00524706 4.9237e-21)
(1.10778 -0.0249172 0)
(0.648575 -0.0451735 3.40693e-20)
(1.03722 0.00117391 7.56143e-21)
(1.05002 -0.00806905 0)
(1.00418 0.00254793 1.01867e-21)
(0.157746 -0.0067974 -1.54164e-20)
(0.999945 0.00106114 9.99946e-22)
(0.984789 0.0816466 -5.38292e-22)
(-0.255894 0.00092352 5.36633e-20)
(0.993726 0.0665072 7.06622e-21)
(0.811209 -0.0926127 3.78663e-20)
(1.0728 0.0594685 -2.79508e-21)
(0.838245 0.0712236 -7.71886e-20)
(1.00447 0.00241655 1.40653e-21)
(1.0194 0.200307 1.25422e-20)
(1.00054 0.0117211 -7.02573e-21)
(1.14928 0.0697125 -1.48746e-20)
(1.00683 0.0014498 0)
(1.08547 0.243378 -3.12802e-20)
(1.05362 0.00364202 0)
(0.507143 0.281683 -9.93669e-20)
(0.510179 0.673162 5.27888e-20)
(0.220244 -0.061617 -1.29912e-20)
(1.00953 0.00033471 -4.06681e-22)
(0.999675 0.00260092 -4.65165e-21)
(1.15971 0.110842 4.68744e-20)
(1.12377 0.102204 -9.40043e-23)
(0.132209 -0.0110782 -3.46425e-20)
(0.361491 -0.0782801 4.98413e-20)
(1.1355 0.0179276 5.38043e-20)
(0.993026 0.0108701 0)
(1.24091 0.00463941 3.13102e-20)
(0.368134 0.208154 3.3795e-19)
(1.12257 -0.0731202 -5.06245e-20)
(1.24708 0.0514191 1.04808e-19)
(1.12594 0.00828573 4.97615e-20)
(0.591677 -0.0445286 4.09433e-20)
(1.08424 0.119993 -1.36503e-20)
(1.07567 -0.036682 1.95726e-20)
(1.2027 0.0128946 4.79846e-20)
(0.864627 0.421225 1.37768e-20)
(1.13466 0.021741 -3.87032e-20)
(0.293787 0.3252 -2.07291e-19)
(1.13511 0.0265823 2.3429e-20)
(1.05584 -0.0064081 -1.10246e-20)
(1.11873 -0.0314103 -3.4164e-20)
(1.00753 0.105443 -1.43233e-21)
(1.03133 0.00429512 2.2e-20)
(1.07294 -0.0169527 6.48462e-21)
(1.10817 0.116946 4.08659e-20)
(1.04838 0.0909682 1.64382e-21)
(0.999433 0.0118826 0)
(1.00608 0.000546198 0)
(1.12412 -0.0114637 4.98393e-20)
(1.06011 0.0088956 -2.09277e-20)
(1.15244 0.00865198 5.25262e-21)
(0.993721 0.0104215 0)
(0.995403 0.00802433 0)
(0.999955 0.000861973 6.83409e-23)
(1.02405 0.0609896 1.66995e-22)
(1.02126 0.000968372 -6.54341e-21)
(1.04975 0.0789885 1.34268e-20)
(1.00368 0.00263567 -3.21777e-22)
(-0.143934 -0.0181703 0)
(1.09092 -0.0462002 0)
(0.479212 -0.30482 -1.53267e-20)
(1.01135 0.00483302 4.89356e-22)
(1.00008 0.00157984 5.81665e-21)
(0.808113 0.143308 -5.24959e-20)
(1.15463 0.0551728 -8.34735e-20)
(0.956506 0.00209084 0)
(0.901416 0.0164239 1.04814e-19)
(1.12938 0.195454 8.28876e-20)
(1.13173 0.138805 -1.19469e-19)
(1.07442 -0.0157972 -8.65211e-21)
(1.17658 -0.00851014 3.42784e-20)
(1.04889 0.0135149 9.10377e-21)
(0.999849 0.00124433 6.44699e-21)
(1.00529 0.00216839 0)
(1.03498 0.0538139 -1.63156e-20)
(-0.26767 0.00258918 -1.27318e-19)
(1.00005 0.00129847 -8.26597e-21)
(1.20225 -0.0796868 3.40908e-20)
(1.05124 0.0790001 0)
(-0.144854 0.0200861 -7.99725e-20)
(0.970295 0.20835 -9.44575e-21)
(1.13752 0.183036 -4.4367e-20)
(1.11332 -0.04492 5.77551e-21)
(1.01933 0.00574571 0)
(1 6.48104e-05 0)
(1.09292 -0.0453058 0)
(0.988598 0.00322467 0)
(0.986684 0.040185 6.36147e-21)
(1.04822 0.0124731 0)
(1.01325 0.0545106 5.22056e-22)
(0.998661 0.000320388 2.97303e-21)
(1.08252 0.0489439 -3.46437e-20)
(1.00594 0.00746536 -5.82727e-22)
(1.0149 0.000708279 -2.30194e-21)
(1.05568 0.0896731 -9.29641e-21)
(0.889944 -0.023746 0)
(0.109896 -0.00777869 -2.04844e-20)
(1.07806 0.104357 2.36618e-21)
(1.03714 0.00128382 8.96285e-21)
(1.0082 0.00104318 0)
(0.160986 -0.0440443 3.00355e-20)
(0.97025 0.336046 0)
(1.00178 0.0394367 -4.70687e-21)
(1.01769 0.0416702 -4.86675e-22)
(1.00131 0.0198047 -1.67082e-19)
(1.15567 -0.079364 5.02635e-20)
(-0.281006 -0.000910735 1.37862e-19)
(0.901571 0.130465 0)
(1.05676 -0.00556489 5.49103e-21)
(1.01088 0.0030229 -1.15131e-21)
(1.01514 0.000929774 4.67024e-21)
(1.09066 -0.0347008 -3.952e-22)
(1.08395 0.103264 -1.39012e-21)
(1.11409 -0.0494106 -3.32268e-20)
(0.919837 0.0180456 0)
(0.21735 -0.0158639 -3.04942e-20)
(1.02674 0.0401936 8.21004e-21)
(0.967565 0.0563645 1.52476e-20)
(-0.291733 -0.00101197 -1.58703e-19)
(0.995663 0.00990006 0)
(1.08526 0.0135761 -3.10623e-20)
(1.00473 0.0294503 4.91693e-21)
(1.00186 0.00112704 2.25041e-21)
(1.10068 0.12306 4.36856e-21)
(0.78055 0.0010978 -5.68631e-20)
(1.04695 0.0257795 0)
(0.788091 -0.0914807 0)
(0.298733 -0.0130527 -3.52445e-20)
(1.17206 0.128789 2.11138e-20)
(1.00199 0.0167183 1.00728e-20)
(1.0232 0.00219031 -3.37954e-23)
(1.10562 -0.0544549 -6.07003e-20)
(1.20466 -0.0769896 -4.9874e-20)
(1.00008 0.000398837 2.83543e-21)
(1.19987 -0.0717621 7.20166e-20)
(1.02272 0.0025648 0)
(1.10498 0.106464 -3.56583e-20)
(1.03182 -0.00210403 0)
(1.03245 0.00549288 -1.97342e-20)
(1.21775 -0.0454675 5.99049e-20)
(1.03821 0.014213 -1.78519e-20)
(1.04331 -0.0889165 0)
(1.11126 0.0816537 -4.24066e-21)
(0.999955 0.000851621 8.33309e-21)
(1.01855 0.00312321 0)
(0.982298 0.000486591 1.26057e-20)
(1.00887 0.0186911 0)
(1.04956 -0.00687329 -6.32061e-21)
(0.512335 0.644028 -8.11079e-20)
(1.03608 0.00339743 1.76223e-20)
(1.02898 0.00919346 -8.17083e-21)
(0.448927 -0.0800612 0)
(0.717175 -0.0939684 5.37522e-22)
(1.08918 -0.025083 1.25029e-20)
(1.11577 0.111947 0)
(1.14193 -0.00122125 -7.26751e-20)
(1.0733 0.0208395 4.37206e-20)
(1.02305 0.0132569 0)
(0.892848 0.0175397 -2.15301e-20)
(-0.0971156 -0.0214562 8.8139e-20)
(1.09589 0.247913 0)
(0.998321 0.00466634 6.98224e-21)
(1.03434 0.0346265 1.15499e-20)
(0.399779 -0.0816321 0)
(1.10945 0.0153893 3.82725e-20)
(-0.0865308 -0.00126945 3.84289e-20)
(0.99996 0.0010371 -9.15392e-21)
(0.953102 0.00436736 1.87787e-20)
(0.142692 -0.00627357 2.4498e-20)
(1.10149 0.0120618 5.24332e-20)
(1.04889 0.0246395 0)
(-0.254461 0.00361282 2.55888e-19)
(0.217649 0.245583 1.60819e-19)
(1.00924 0.0185406 0)
(1.19723 0.0172423 0)
(1.00562 0.00201799 0)
(1.03664 0.0142721 1.8108e-20)
(1.01159 0.00496332 0)
(-0.114044 -0.025892 3.35266e-20)
(1.02089 0.000626876 7.6213e-23)
(1.03621 -0.00415792 8.2018e-21)
(1.02354 0.0128816 0)
(0.99682 -0.0872272 0)
(1.05887 -0.0128691 1.61093e-20)
(1.22914 0.154733 -2.71786e-20)
(0.714137 -0.0899899 8.50194e-20)
(1.0329 0.00398593 -2.78761e-21)
(0.851513 0.0270027 -1.45421e-20)
(1.00054 0.00323179 2.44856e-21)
(-0.126991 -0.00115321 4.09977e-20)
(1.00503 0.00964187 -1.87294e-21)
(1.0367 0.00275165 -1.43232e-20)
(0.998775 0.000833502 0)
(1.10696 -0.0523768 9.24041e-20)
(0.998564 0.000790324 4.42105e-22)
(1.18209 -0.0243566 3.37701e-20)
(0.303196 -0.0105163 1.75877e-20)
(0.754759 -0.0444473 1.71093e-20)
(0.908121 0.0256163 -4.60524e-20)
(1.11616 -0.043644 1.53134e-20)
(-0.23005 0.00275419 -7.78332e-20)
(0.996939 0.0250785 0)
(0.171943 -0.00465024 2.02008e-20)
(0.502942 0.0530619 -1.65702e-19)
(-0.210413 0.00307619 -5.21738e-20)
(0.347293 -0.0204546 1.15771e-22)
(0.4259 -0.0778457 1.63238e-20)
(0.369954 0.259767 -1.14586e-19)
(1.18819 -0.00752505 0)
(1.01019 0.0461602 1.25149e-21)
(0.535144 -0.0372228 0)
(1.10105 0.0129409 -3.6345e-20)
(0.495378 -0.0303634 -2.13758e-20)
(1.02742 0.00377326 5.39714e-21)
(1.02273 0.0214059 0)
(1.00352 0.0418758 9.09458e-21)
(1.00058 0.00347156 0)
(1.07807 0.0192204 2.75189e-20)
(0.895739 0.0855492 -8.06082e-21)
(0.170269 -0.0116858 3.54116e-20)
(1.02252 0.0207119 0)
(0.994199 0.00353658 -1.22547e-20)
(-0.173631 0.015258 -1.55749e-19)
(0.985097 0.405216 2.74581e-22)
(0.982393 0.000490192 0)
(0.821749 -0.04532 4.81102e-20)
(1.09012 0.0529018 0)
(1.04275 0.019333 5.65137e-21)
(0.554208 0.754684 0)
(0.815064 -0.0609232 0)
(0.954204 0.0469068 2.08862e-20)
(1.05934 -0.0135724 -1.64977e-20)
(0.275432 -0.00931918 3.71155e-20)
(-0.274901 -0.000881976 1.56335e-19)
(0.217758 0.075254 -2.57243e-19)
(1.03144 -0.00145236 0)
(1.2365 0.142365 6.08194e-20)
(1.19533 0.0761794 -1.8582e-20)
(-0.174791 0.00640591 -7.97695e-20)
(0.504575 -0.088192 -4.69476e-20)
(1.09502 -0.055909 0)
(1.01463 0.0245736 3.59638e-24)
(1.04986 0.0147667 -9.25409e-21)
(1.02599 0.0422468 -7.84372e-21)
(1.0174 -0.000106557 4.57459e-21)
(1.02573 0.0615849 -3.49712e-21)
(1.01555 0.00136797 2.36462e-21)
(1.04496 0.0906818 3.83246e-21)
(1.07795 0.124597 3.08228e-20)
(0.0012949 0.0280182 0)
(1.13419 -0.0395768 0)
(1.0367 -0.00385978 -1.33365e-20)
(1.17271 -0.0114708 -3.14082e-20)
(-0.0639386 -0.0260628 6.59112e-20)
(1.09877 0.113235 5.87443e-20)
(0.973141 0.02351 1.52119e-20)
(-0.0248472 -0.0139339 6.19011e-21)
(1.02883 0.018292 -4.70204e-21)
(0.987403 0.0390008 1.19251e-20)
(0.825936 0.0607484 -3.27622e-21)
(0.0452663 0.0345719 0)
(0.998488 -0.000742935 -1.31805e-20)
(1.00376 0.0187617 -2.46566e-21)
(0.534705 -0.0365883 -4.67909e-20)
(1.11403 -0.0445599 0)
(1.14035 -0.0723353 -1.39621e-19)
(1.15126 -0.0234505 -5.71793e-20)
(1.12085 -0.0427157 -3.61751e-20)
(1.00732 0.0173218 0)
(1.20064 -0.0108903 -1.09069e-19)
(0.972636 0.0227988 0)
(1.00339 0.010189 2.78072e-21)
(0.970572 0.0203936 0)
(0.630064 -0.0395303 5.10176e-20)
(-0.262759 -0.00172596 -7.9765e-20)
(1.03011 0.00799726 0)