/*--------------------------------*- C++ -*----------------------------------*\
| =========                 |                                                 |
| \\      /  F ield         | OpenFOAM: The Open Source CFD Toolbox           |
|  \\    /   O peration     | Version:  v2012                                 |
|   \\  /    A nd           | Website:  www.openfoam.com                      |
|    \\/     M anipulation  |                                                 |
\*---------------------------------------------------------------------------*/
FoamFile
{
    version     2.0;
    format      ascii;
    class       volScalarField;
    location    "50";
    object      k_0;
}
// * * * * * * * * * * * * * * * * * * * * * * * * * * * * * * * * * * * * * //

dimensions      [0 2 -2 0 0 0 0];


internalField   nonuniform List<scalar> 
14479
(
0.016171
0.00623761
0.00332073
7.11319e-05
7.75447e-05
7.08327e-05
6.22255e-05
0.000137405
0.000135548
0.000301416
6.57922e-05
9.66789e-05
8.71009e-05
0.00490597
0.00690819
9.18739e-05
6.22115e-05
0.00695336
8.44371e-05
6.8636e-05
0.000106825
7.77951e-05
6.81297e-05
0.0985213
6.59677e-05
8.6254e-05
0.00192458
0.000130258
8.7868e-05
0.00194366
0.00312672
0.0996772
6.19049e-05
6.18584e-05
0.00377352
9.65954e-05
6.56778e-05
7.21739e-05
5.52958e-05
9.93895e-05
0.000101417
6.65511e-05
6.46965e-05
6.45817e-05
6.55626e-05
7.19288e-05
8.29765e-05
0.000150041
6.93167e-05
6.63726e-05
0.00661154
0.000130448
8.33187e-05
0.00696825
6.93418e-05
9.6835e-05
9.85682e-05
8.76509e-05
6.65439e-05
8.78427e-05
8.19249e-05
8.00802e-05
0.000531491
8.34819e-05
6.22779e-05
0.000316606
0.000141948
0.0613352
8.29772e-05
8.80544e-05
0.00176235
8.38052e-05
0.00482742
0.000100751
7.84939e-05
8.26521e-05
7.23027e-05
0.000287534
7.39005e-05
0.000126627
8.47489e-05
0.000125571
0.0039258
0.00302568
0.00361849
7.43396e-05
7.35641e-05
6.22462e-05
0.000136822
8.55781e-05
0.000135228
0.000153614
0.11271
8.38955e-05
0.000156739
8.39751e-05
7.4141e-05
6.44184e-05
6.72253e-05
0.00578461
0.00107109
8.34359e-05
0.00708344
0.00394597
0.0669667
0.000181568
0.000187692
6.17941e-05
0.00294778
0.00587439
0.000188073
0.00673473
6.20027e-05
9.66046e-05
0.000168775
0.000112432
9.01656e-05
0.00102411
0.000101536
8.05287e-05
9.06429e-05
0.000252217
0.00684874
6.70492e-05
0.00026022
6.2157e-05
8.53722e-05
0.001112
9.13422e-05
0.000582968
6.81237e-05
0.0313022
0.00291865
0.00108783
0.00217991
9.60098e-05
0.000155926
0.000125717
0.0174465
0.00270729
0.00202255
0.119726
6.1116e-05
0.00166847
8.50504e-05
0.00371755
0.117425
6.55152e-05
6.98511e-05
0.000105196
0.00746056
7.84537e-05
6.77611e-05
8.95457e-05
8.65162e-05
6.10178e-05
0.00653678
0.0521867
0.00603787
9.63968e-05
0.000103163
6.56644e-05
7.87976e-05
7.61794e-05
6.65097e-05
6.39606e-05
7.81995e-05
0.000118528
0.000172179
0.00586295
0.00168908
0.000101445
8.99223e-05
8.60855e-05
6.54942e-05
6.89311e-05
9.59443e-05
7.4401e-05
6.29825e-05
0.00309831
0.000110798
6.1681e-05
0.00538869
6.19598e-05
4.52776e-05
6.16434e-05
0.0023144
0.0575481
8.69955e-05
0.0143994
0.0920497
9.65558e-05
0.000515264
0.00709984
9.99101e-05
0.000101433
6.44477e-05
6.29133e-05
9.54107e-05
7.87915e-05
0.000104717
7.25171e-05
7.2214e-05
7.82332e-05
9.02481e-05
0.000120668
6.40705e-05
0.000119366
6.1677e-05
9.07663e-05
9.64064e-05
8.41071e-05
9.01374e-05
8.97363e-05
0.00218849
0.00493031
0.00010658
0.000118403
0.004222
6.91142e-05
0.00585892
0.00884418
8.74641e-05
6.19292e-05
0.012394
8.18678e-05
0.0604847
7.78104e-05
0.000127384
6.14471e-05
8.08421e-05
6.15781e-05
7.98823e-05
6.52026e-05
6.73322e-05
0.104961
7.68482e-05
0.000125418
0.0601637
8.41017e-05
7.03631e-05
7.92205e-05
0.000127269
7.31198e-05
6.15478e-05
0.00013334
0.0812894
0.00736596
8.03015e-05
8.57601e-05
0.000195793
6.19991e-05
6.30248e-05
0.000334695
6.90375e-05
6.77642e-05
8.91535e-05
6.16558e-05
7.20436e-05
8.70332e-05
7.76798e-05
7.05952e-05
8.67171e-05
7.34055e-05
7.20041e-05
9.13254e-05
7.66366e-05
8.6017e-05
0.082334
0.000102403
0.000126317
0.000119616
0.000280348
0.000101384
0.000119066
0.000537203
0.000125199
6.13812e-05
9.61562e-05
8.40874e-05
0.000126574
9.48789e-05
8.51513e-05
8.76563e-05
0.000157094
0.00243424
0.000122547
0.00294408
9.91054e-05
0.0160281
0.000260977
7.82507e-05
7.17058e-05
0.000467205
7.64974e-05
0.00188826
0.11387
8.60841e-05
9.87235e-05
0.000484563
0.0935287
0.000162005
7.17778e-05
7.77493e-05
0.000101665
0.00401988
6.45969e-05
0.00352206
6.19043e-05
0.000155788
0.000113009
0.00297116
8.98672e-05
6.56788e-05
0.000101849
0.00776595
9.50505e-05
9.30133e-05
0.000101693
6.18292e-05
0.0993838
0.000129728
0.000154235
6.40759e-05
8.24663e-05
0.101764
0.0546131
0.00716818
8.74912e-05
8.39292e-05
6.7594e-05
6.44561e-05
7.15095e-05
0.000117559
7.55796e-05
8.49407e-05
0.0641335
9.08013e-05
7.67903e-05
8.04183e-05
8.30228e-05
7.71358e-05
6.20161e-05
0.000106603
0.000318698
9.69356e-05
0.000239001
0.000101571
0.000130133
0.000183957
8.69557e-05
8.12316e-05
0.00499931
0.111875
8.51931e-05
0.00517482
0.00203043
0.0462489
8.25442e-05
0.028834
6.21936e-05
9.07363e-05
0.00686977
0.0660543
8.96412e-05
6.20201e-05
6.04505e-05
0.000139772
0.000123694
6.04643e-05
7.57724e-05
5.36741e-05
8.45071e-05
0.000126924
0.00358208
0.000223487
8.01503e-05
0.000138932
9.536e-05
8.57629e-05
0.000101853
0.000117133
8.72588e-05
7.26179e-05
0.00673945
6.17668e-05
0.0756713
8.39824e-05
0.00077554
7.54047e-05
0.000137953
7.99679e-05
8.97616e-05
0.00247186
0.000344444
4.55318e-05
7.32361e-05
0.00416299
0.00010815
0.000157823
0.000109553
0.000124122
9.88254e-05
7.90305e-05
9.99087e-05
8.33944e-05
8.58006e-05
0.000101779
0.00476499
0.000108165
0.00492531
0.000916988
9.15909e-05
0.000108872
8.49272e-05
0.00533174
8.71872e-05
8.73825e-05
0.0291118
0.000131889
6.48879e-05
0.00365006
0.0751387
0.0035166
0.115713
8.58993e-05
8.98327e-05
9.08245e-05
6.04632e-05
6.54948e-05
7.40457e-05
0.000102795
9.46094e-05
0.00739387
0.049494
0.000106783
0.00360419
6.94847e-05
0.000122796
8.30051e-05
0.0132572
6.14667e-05
6.51448e-05
0.000264985
7.80317e-05
7.34119e-05
8.74894e-05
0.0051929
8.48142e-05
7.40966e-05
6.55766e-05
7.99397e-05
7.35406e-05
9.36644e-05
7.44939e-05
0.000109114
8.20505e-05
0.00296811
9.15664e-05
0.00302715
0.00017467
8.69934e-05
7.39284e-05
9.45439e-05
0.00482256
7.40241e-05
0.000101
0.00736558
0.0132386
8.19869e-05
7.76146e-05
0.000160374
0.000116651
7.94379e-05
4.71192e-05
0.0001391
0.000120265
0.000178752
0.000105559
7.61576e-05
0.00128132
9.53207e-05
0.00112057
0.00380792
0.00010314
7.75782e-05
6.16833e-05
7.3583e-05
0.000126625
8.62105e-05
6.21713e-05
6.18258e-05
0.000159748
8.45763e-05
0.000107469
7.37944e-05
6.77359e-05
0.00016202
6.68433e-05
0.000153959
9.24909e-05
6.62905e-05
0.000317077
0.000100433
0.103953
0.000204567
0.00026997
0.118174
8.22242e-05
7.87027e-05
7.38569e-05
8.2484e-05
8.78312e-05
0.00015257
8.70925e-05
0.000259636
0.0019563
8.99005e-05
0.000163332
0.00016928
8.19761e-05
7.57392e-05
7.78297e-05
8.96607e-05
7.35644e-05
0.000123871
9.24029e-05
9.57769e-05
6.70774e-05
9.69381e-05
0.102303
0.00692091
8.95009e-05
6.21162e-05
8.77304e-05
6.19379e-05
8.62606e-05
7.08758e-05
0.000107177
9.50026e-05
9.97754e-05
0.0692307
9.13826e-05
8.56301e-05
0.00126532
9.5503e-05
0.000384908
0.000102739
0.0585999
7.67845e-05
8.11051e-05
0.000502265
0.000511714
9.0681e-05
9.14388e-05
6.41985e-05
0.000568826
0.000110385
8.21376e-05
0.116001
0.000149468
8.59055e-05
7.21989e-05
0.0931723
0.000136092
7.43481e-05
8.3475e-05
6.38157e-05
0.000102019
6.09502e-05
4.66883e-05
8.60989e-05
7.76869e-05
6.1079e-05
9.75399e-05
0.000206782
0.0478481
8.7382e-05
0.000614359
0.0153633
0.0784531
8.63523e-05
8.94656e-05
0.0738693
7.40849e-05
0.000103891
9.28255e-05
8.90094e-05
5.92686e-05
9.0975e-05
0.000100698
7.15348e-05
0.0992806
0.00018115
6.83917e-05
0.00318028
0.000175826
6.19894e-05
9.33526e-05
7.6784e-05
8.86374e-05
9.62162e-05
0.000105664
7.7117e-05
8.93665e-05
0.000125634
0.000117155
0.000109286
0.000108816
7.73379e-05
8.99591e-05
0.0035316
0.0301663
8.10608e-05
0.0519542
0.0220847
7.32841e-05
0.00285134
7.5717e-05
6.64355e-05
0.000887243
0.0150535
9.62733e-05
9.2305e-05
8.42346e-05
0.000122039
6.20929e-05
0.000165665
8.93964e-05
9.28666e-05
6.98913e-05
6.55817e-05
0.00740494
8.31479e-05
6.24863e-05
0.000444014
7.38218e-05
0.000148186
0.000863149
8.22105e-05
9.29011e-05
8.45176e-05
0.0539798
0.120343
0.000159388
0.00265676
0.000119696
6.81976e-05
0.000149882
9.38327e-05
8.35407e-05
9.03315e-05
8.32462e-05
0.110304
0.00011994
6.9391e-05
0.0132971
9.34581e-05
0.000518482
8.07996e-05
0.00108771
0.00274479
0.000722343
7.18137e-05
0.000107281
0.0566757
0.000151375
6.04796e-05
9.61275e-05
7.4179e-05
6.98548e-05
8.59468e-05
6.07164e-05
6.21225e-05
7.10016e-05
6.22209e-05
0.000106681
0.000101537
6.19041e-05
9.44924e-05
8.60103e-05
8.30995e-05
9.52651e-05
0.000951237
0.0477452
6.07445e-05
0.0672681
6.26773e-05
0.00641074
0.0015311
7.64485e-05
0.000131382
8.71482e-05
8.2582e-05
9.52451e-05
0.125569
6.07297e-05
9.01796e-05
6.71703e-05
8.76438e-05
6.91767e-05
9.09924e-05
9.88076e-05
8.9612e-05
6.21781e-05
0.000109268
6.65987e-05
0.0945504
0.000561925
8.83561e-05
0.00250563
0.00151948
0.104152
0.00368445
8.75051e-05
6.25903e-05
6.57393e-05
8.35127e-05
8.11669e-05
7.16041e-05
0.0039525
0.00472038
7.67371e-05
9.17433e-05
0.0490058
0.00303578
0.000134148
0.00739455
0.00385511
8.82908e-05
6.20111e-05
8.37451e-05
0.00015966
0.00513876
0.00678766
7.07871e-05
0.000101348
9.14835e-05
9.26152e-05
0.00124275
0.000107217
7.65219e-05
8.89956e-05
0.000121428
7.69284e-05
8.48734e-05
9.44065e-05
0.000101479
8.62556e-05
0.0407811
0.00134912
8.57822e-05
0.000137796
0.00758277
0.0559001
0.00010404
0.00353106
0.000110976
0.000131125
0.000100966
5.62384e-05
6.19569e-05
0.000868831
0.0939873
6.16074e-05
0.00187769
0.000664041
8.86938e-05
0.00308684
8.85802e-05
9.93131e-05
7.68942e-05
7.15206e-05
6.70219e-05
7.30617e-05
0.00898539
6.78571e-05
0.0750481
8.67927e-05
0.0967244
8.12719e-05
8.28704e-05
0.00015718
7.74567e-05
0.00673347
0.000108066
9.38339e-05
2.99835e-05
7.33542e-05
8.70091e-05
0.000462256
9.73228e-05
8.45551e-05
0.000144615
0.0271435
0.123678
0.00092773
0.000157044
6.57543e-05
0.00221722
8.69151e-05
9.50277e-05
9.08803e-05
0.000106338
9.01105e-05
0.000161038
6.15053e-05
0.000121909
8.41239e-05
6.53188e-05
9.02119e-05
0.00597072
8.92209e-05
6.14313e-05
6.0723e-05
9.87783e-05
0.00011048
8.14929e-05
9.1689e-05
8.85198e-05
5.26146e-05
8.49328e-05
0.053232
0.0364808
6.65759e-05
0.065469
0.000100106
8.32045e-05
0.000103473
0.000127018
0.000107331
8.9663e-05
6.68546e-05
0.0920075
0.116401
0.00035157
0.0184844
6.53982e-05
0.0967082
0.000128274
8.76965e-05
9.60749e-05
0.000101552
0.000107298
0.000290209
9.78857e-05
6.92167e-05
0.000192709
8.73367e-05
8.77518e-05
6.14582e-05
0.0585568
8.69493e-05
0.00139823
0.0030264
0.00286459
6.64399e-05
7.05814e-05
0.000248454
8.69505e-05
7.00844e-05
0.000130231
0.0404459
8.57169e-05
8.22162e-05
8.06096e-05
7.91517e-05
5.2064e-05
0.00911043
0.00314689
7.20102e-05
8.90453e-05
0.000101487
7.60135e-05
8.49344e-05
6.09027e-05
6.09286e-05
9.42646e-05
0.000413502
8.89777e-05
6.08209e-05
9.02007e-05
0.100921
2.8709e-05
0.0010539
9.25057e-05
0.0575882
0.000107779
8.77242e-05
0.000140971
0.000164606
0.0751012
8.35563e-05
0.0918142
7.73253e-05
0.000104952
8.74037e-05
0.000107911
6.08213e-05
6.21347e-05
7.33722e-05
6.09027e-05
7.2816e-05
0.000109209
0.12132
0.00177047
0.00012211
6.63085e-05
0.000399883
8.26896e-05
6.4171e-05
0.000151965
6.6375e-05
0.000459048
0.000140412
7.05792e-05
0.000101299
0.00010555
0.000125144
0.000121053
0.0385166
0.000405394
0.000161648
0.000171198
7.31087e-05
0.0196408
7.11644e-05
6.39655e-05
8.23813e-05
0.000170687
7.03245e-05
0.000146186
0.000829292
6.51912e-05
8.46082e-05
0.000191977
0.00317498
9.06466e-05
0.0541502
9.24623e-05
7.74905e-05
0.0996501
0.0640416
0.000139249
0.000186474
0.00312021
0.000215039
8.2033e-05
0.119908
8.55958e-05
0.00122005
7.74033e-05
9.19917e-05
8.8379e-05
6.1984e-05
8.98763e-05
0.00241618
0.000136852
0.00571824
6.18174e-05
8.87723e-05
9.22586e-05
8.61465e-05
8.23721e-05
6.15877e-05
0.000115731
9.32473e-05
6.67753e-05
8.91633e-05
0.000134671
7.60845e-05
6.63832e-05
0.0670052
8.7074e-05
0.000108716
0.00230338
9.11858e-05
0.000107912
0.00299062
0.063656
7.11201e-05
7.75562e-05
7.8887e-05
6.86339e-05
0.00251932
0.106874
8.55756e-05
6.97018e-05
0.000187779
9.63318e-05
0.000145508
0.00246783
0.00135938
8.81273e-05
0.000119753
8.28326e-05
0.000100029
6.91933e-05
0.00347455
6.23143e-05
8.77265e-05
0.000557639
7.10119e-05
0.0932759
0.00212259
0.0012364
0.000167029
8.95269e-05
0.0800015
6.80311e-05
0.0372323
0.00261848
8.65154e-05
0.00307414
8.38779e-05
0.000107994
0.00752205
8.7218e-05
0.022328
9.22891e-05
7.01961e-05
0.000767813
0.00434909
8.92995e-05
0.000100759
0.00144645
9.1723e-05
7.0852e-05
8.61583e-05
0.0850486
7.77135e-05
7.72791e-05
8.5194e-05
0.00316706
6.13834e-05
0.00319444
0.000108019
0.00366168
6.92857e-05
0.0380517
6.18598e-05
0.000108422
9.16765e-05
8.97266e-05
8.04621e-05
7.05416e-05
4.9286e-05
0.000128731
0.00014644
0.000101101
8.92214e-05
0.000126055
7.57426e-05
7.7898e-05
7.11236e-05
6.93453e-05
0.00126118
8.98441e-05
7.44885e-05
6.16371e-05
6.98881e-05
8.52896e-05
0.0579337
6.10685e-05
0.000313103
7.19368e-05
8.34939e-05
8.27818e-05
0.0795049
0.101365
0.0073296
0.00206002
0.000103876
0.00526606
0.0193459
9.82828e-05
8.70802e-05
7.32241e-05
0.000717796
0.000434271
0.00466212
0.0602996
7.38572e-05
0.0794846
6.27298e-05
8.58192e-05
0.00297738
0.000144077
0.0621861
0.00177468
0.000149578
6.47871e-05
6.25888e-05
8.91072e-05
6.30509e-05
6.55803e-05
0.00298164
0.00241694
0.00516477
0.000169428
7.09361e-05
6.88375e-05
0.000108508
9.0131e-05
9.88991e-05
7.36744e-05
9.48159e-05
0.00014805
0.00010888
0.00011966
0.125055
6.78367e-05
8.45325e-05
6.26869e-05
6.33646e-05
9.8815e-05
8.16874e-05
0.113339
0.00223034
0.000132859
8.63544e-05
6.98963e-05
0.000638809
0.000163151
0.000946874
6.46248e-05
0.00190023
0.11914
0.000119623
7.28568e-05
0.0770467
0.00321448
0.112151
0.00655295
0.000145482
7.15868e-05
0.000137068
7.80923e-05
0.000133028
7.76621e-05
0.000150603
8.10071e-05
6.72834e-05
6.34722e-05
0.0833244
8.28114e-05
9.55006e-05
8.42057e-05
7.19212e-05
0.000100542
7.43174e-05
6.46355e-05
0.000108014
0.000219719
0.000225558
7.61473e-05
0.035198
0.000137298
8.87577e-05
0.000132761
9.92487e-05
7.78065e-05
9.62643e-05
6.20577e-05
0.000113907
7.05889e-05
0.00324742
0.000101871
0.00334219
9.88158e-05
9.19658e-05
0.00211761
0.000147781
9.10187e-05
0.0532182
7.64685e-05
0.00131344
6.32943e-05
8.06004e-05
0.000195886
0.114184
8.27275e-05
0.000136657
9.25349e-05
7.66315e-05
7.70595e-05
9.35164e-05
6.38783e-05
7.10907e-05
8.4816e-05
0.000129856
8.346e-05
0.00434296
0.000138456
8.64729e-05
8.4061e-05
8.02676e-05
0.014731
6.38197e-05
0.000113098
0.00826168
0.00316957
0.00016951
9.76335e-05
0.0141657
0.000101585
7.70055e-05
0.000120392
0.000107959
0.00261897
9.58309e-05
0.00742095
0.000100273
6.21796e-05
7.41815e-05
0.0156359
8.86354e-05
0.000131649
6.96316e-05
5.66495e-05
7.6318e-05
8.99667e-05
7.14806e-05
0.00015565
8.97584e-05
0.000105704
6.13564e-05
0.00115823
8.81584e-05
0.000150503
0.00243858
0.00209096
0.0419959
0.000112383
0.00695553
9.14898e-05
9.1757e-05
6.14219e-05
8.73048e-05
8.6123e-05
0.000120516
0.00420645
0.000164139
6.8396e-05
0.10839
0.000296013
0.000116096
9.48768e-05
0.000266587
0.0539104
0.0489092
0.000339966
0.00011638
0.00729137
0.000147971
6.92936e-05
8.9342e-05
0.00343891
9.52314e-05
7.86593e-05
6.25239e-05
8.62558e-05
9.86815e-05
7.75673e-05
6.15308e-05
0.00137546
8.71466e-05
0.000110856
0.0699003
0.00604681
6.96946e-05
9.48793e-05
0.0603199
0.0594619
7.23601e-05
6.22446e-05
9.01574e-05
8.44789e-05
6.51347e-05
0.000126184
8.96042e-05
8.99967e-05
7.7347e-05
0.000138547
0.000120454
0.124461
6.22918e-05
0.000214787
9.33897e-05
0.000100807
8.79779e-05
9.44448e-05
0.100396
0.0103904
0.000133143
8.57513e-05
0.000105191
6.99927e-05
0.000113429
9.70304e-05
0.000118289
0.000187774
8.40086e-05
0.076344
0.000118325
0.0729159
9.29809e-05
8.27236e-05
8.61282e-05
0.000765823
0.000572578
8.67314e-05
0.000106937
6.153e-05
0.000118293
0.000261884
7.18951e-05
7.18512e-05
7.64961e-05
6.78932e-05
6.17385e-05
6.43036e-05
0.000235683
6.57549e-05
8.80468e-05
9.66798e-05
0.0501644
0.000141597
9.74204e-05
6.94186e-05
9.06344e-05
0.000101954
7.81311e-05
6.61372e-05
0.00632641
0.0814611
8.40186e-05
9.82298e-05
8.67585e-05
0.000311358
6.40307e-05
5.26804e-05
0.0495307
5.34188e-05
7.0697e-05
0.105764
7.35803e-05
5.83801e-05
0.000193357
6.45408e-05
9.62048e-05
7.08096e-05
0.000165688
6.24448e-05
0.00467173
8.90139e-05
9.25289e-05
0.000105862
8.31363e-05
8.0294e-05
8.19828e-05
0.000147888
5.40809e-05
8.80921e-05
0.000172734
0.000102662
6.64776e-05
0.000107411
7.05785e-05
7.92962e-05
8.93196e-05
0.0512502
0.000123256
0.00434498
7.50174e-05
8.15684e-05
7.41229e-05
8.86786e-05
7.25842e-05
7.83104e-05
0.0062778
0.000188398
6.92176e-05
0.000266281
6.5186e-05
8.59755e-05
0.000385909
6.17485e-05
7.90558e-05
0.123122
8.84729e-05
0.0172152
6.24415e-05
0.000259563
0.000378733
6.16632e-05
8.18135e-05
0.000119276
7.26621e-05
0.0184334
0.000126432
7.23263e-05
0.000216887
7.65256e-05
8.31541e-05
8.17222e-05
6.68849e-05
0.000101378
6.9744e-05
0.0260679
7.29816e-05
7.73151e-05
7.66924e-05
7.43904e-05
7.84913e-05
6.53944e-05
0.000242293
0.0071475
0.000124279
7.79196e-05
7.9982e-05
8.17768e-05
7.37003e-05
0.000121286
7.40123e-05
0.000106613
6.57823e-05
0.000153084
0.0304266
0.000114623
8.97824e-05
5.46646e-05
0.00014667
0.00755706
7.72859e-05
9.98017e-05
0.000138085
0.122954
0.00931766
9.34067e-05
7.35635e-05
0.0646749
6.80238e-05
0.00138757
8.64453e-05
0.000111208
0.00416622
0.00499803
0.00668471
0.000113721
0.00077259
8.76246e-05
5.81254e-05
0.000119048
0.0858467
7.80127e-05
0.00413706
6.91684e-05
9.72962e-05
6.77469e-05
9.3547e-05
0.000148478
6.23171e-05
0.000101988
0.00216327
0.000120388
0.000114849
9.58087e-05
0.0021192
0.00398039
0.00990057
0.00744562
6.19106e-05
7.60618e-05
0.0590407
7.24179e-05
6.18422e-05
7.89212e-05
8.89529e-05
7.59521e-05
0.0001208
8.1755e-05
9.03211e-05
0.000114047
0.00380848
0.0724354
0.000129523
0.000139117
7.09696e-05
0.000182818
0.000130614
8.34758e-05
9.30408e-05
5.9043e-05
0.000102119
0.044662
0.0131334
8.54543e-05
0.0421745
0.000178594
0.000137749
8.8056e-05
6.17568e-05
0.000170186
0.000106053
0.00739539
0.00010275
6.97051e-05
0.106044
7.9546e-05
7.92219e-05
0.000163414
0.00639807
0.00611163
7.47531e-05
0.000275168
0.000188457
0.00642631
9.60651e-05
0.004649
0.000128581
0.0254538
0.000529193
6.79158e-05
0.00478301
0.00247957
0.000248464
0.000137368
7.01007e-05
0.000216009
0.000188953
0.000103403
0.00191372
0.000102937
8.24156e-05
8.12887e-05
0.00011073
8.71152e-05
9.6269e-05
0.000106213
7.89464e-05
0.00318319
0.000113849
0.000163601
6.43402e-05
6.39974e-05
8.13559e-05
0.00014689
0.0698932
0.000105233
0.00261687
0.000100769
0.00048607
0.00124131
8.5989e-05
9.67407e-05
8.66445e-05
7.30974e-05
0.0877804
7.698e-05
0.126001
0.000627859
0.0807377
8.44537e-05
0.000176222
8.05309e-05
0.000800766
7.67976e-05
0.00457284
0.000116975
0.000107243
0.000107901
7.57945e-05
7.27894e-05
0.000107201
0.000129283
0.00214579
0.00154504
0.00491295
8.01179e-05
0.000430872
0.000105446
0.00462007
0.00444011
0.000142602
0.0873977
8.0765e-05
0.000137469
9.72304e-05
7.28684e-05
7.03515e-05
8.64374e-05
0.0367866
9.91235e-05
8.55542e-05
9.37311e-05
8.85298e-05
8.8757e-05
0.000227817
6.42676e-05
0.000128669
8.12737e-05
0.11319
0.00219975
0.000106249
0.00414076
0.000108447
0.000101582
0.0667064
9.60132e-05
6.78844e-05
6.82661e-05
9.80085e-05
0.0029292
8.53048e-05
9.49282e-05
0.000130621
0.000145928
0.000186785
0.108669
0.00155787
6.84109e-05
0.000229157
8.14528e-05
0.000105808
0.107277
0.000348647
8.03259e-05
0.00046234
7.07603e-05
9.09948e-05
0.111462
7.14838e-05
0.000245039
0.000306969
0.000188403
7.82789e-05
0.000100117
0.000109835
7.18849e-05
0.000153668
0.000125279
0.000119489
0.0991451
8.28158e-05
0.0016146
7.70281e-05
0.11996
0.00287845
0.00215883
0.000161029
0.00295952
9.04997e-05
9.15407e-05
9.20551e-05
0.00014858
0.00184744
6.68401e-05
0.000187434
0.00255458
6.79469e-05
7.94514e-05
0.102889
0.0234158
0.000248608
0.00366632
7.90225e-05
0.000100863
6.57206e-05
0.0789754
0.0971259
0.000105215
0.000111869
6.4128e-05
9.84976e-05
0.00427462
8.60636e-05
8.75483e-05
0.031384
0.055651
0.00052305
8.27655e-05
8.81099e-05
7.68422e-05
8.45021e-05
0.0643375
0.0669684
6.57895e-05
6.63061e-05
8.13948e-05
0.00310251
8.43181e-05
9.45748e-05
0.000109893
0.000182161
8.45533e-05
0.00446293
0.00431091
0.0160585
8.60188e-05
6.71757e-05
0.000740056
0.00331166
0.0118359
7.31515e-05
7.88047e-05
6.59482e-05
9.6275e-05
0.000112857
8.02081e-05
8.1686e-05
0.000179623
8.52417e-05
8.77666e-05
0.00160999
7.67055e-05
9.53107e-05
0.000106002
8.62249e-05
0.00153799
8.48868e-05
8.30271e-05
6.2083e-05
0.000103553
8.82475e-05
0.000101939
0.000153188
7.55453e-05
0.000112683
8.90968e-05
6.22317e-05
7.555e-05
8.61298e-05
9.64951e-05
8.65151e-05
9.51018e-05
8.98105e-05
6.50525e-05
0.0507699
7.25568e-05
7.50616e-05
0.0126678
6.50643e-05
9.32067e-05
8.93605e-05
6.20659e-05
8.25387e-05
0.000118094
7.4036e-05
0.00279465
6.09447e-05
0.00753122
8.68884e-05
6.59065e-05
0.00391105
0.000259159
9.20129e-05
0.000100506
0.00624134
8.59349e-05
0.111188
9.34586e-05
0.000126834
7.21797e-05
0.000124556
8.75013e-05
8.45394e-05
8.95457e-05
6.897e-05
0.000117445
0.00153087
7.83527e-05
0.000144656
6.29907e-05
0.0574082
6.78162e-05
6.78137e-05
0.000159893
4.86021e-05
0.00014824
8.82482e-05
0.0036325
0.00228195
6.16924e-05
0.000106271
7.91006e-05
0.000126416
0.000113725
0.000116678
0.000532306
6.5378e-05
0.000116841
7.67513e-05
0.106106
0.0635304
0.101934
9.95783e-05
9.87991e-05
0.000104406
0.0985187
0.000104614
9.01251e-05
8.49338e-05
0.000187293
0.000118665
0.000150134
8.47063e-05
8.53508e-05
0.000215321
8.47462e-05
6.40234e-05
9.92215e-05
0.054372
9.48538e-05
6.22374e-05
0.000107881
0.000108061
0.000213592
8.6318e-05
0.000118571
0.0569322
7.61943e-05
8.48481e-05
0.000111213
0.00358465
0.00348068
8.40256e-05
7.73742e-05
0.000971416
0.00474689
5.07689e-05
9.64974e-05
9.55938e-05
0.000878101
0.000109051
7.94033e-05
6.22301e-05
4.20358e-05
0.000100894
0.0465818
7.26266e-05
9.6005e-05
8.82225e-05
8.8147e-05
0.119665
6.59518e-05
0.000144405
0.000135941
0.000144388
0.121172
0.00426499
0.0912846
8.7829e-05
7.26905e-05
0.000423613
7.33149e-05
0.00827059
0.0690233
0.0963809
0.00489929
6.17649e-05
9.12872e-05
8.66863e-05
9.27994e-05
9.94257e-05
0.000266347
6.22124e-05
0.000139437
7.39251e-05
0.000100545
0.000105798
0.00246214
8.5183e-05
9.83877e-05
0.00243103
0.0954005
0.00334363
0.00985499
0.000149579
0.000168896
8.58813e-05
0.00010341
0.0723766
8.45263e-05
0.00252907
0.000106347
0.000113829
0.00012313
7.62575e-05
0.000117592
8.87074e-05
6.0566e-05
0.00543641
7.48146e-05
0.0646345
8.94038e-05
7.51079e-05
8.80852e-05
0.000127972
0.0321299
7.0628e-05
8.12047e-05
6.62125e-05
0.108719
6.20405e-05
6.20899e-05
0.0186535
0.0519335
0.06014
9.59175e-05
7.5016e-05
0.0055564
0.0317408
6.95355e-05
9.51442e-05
8.88218e-05
8.63045e-05
0.000111568
8.17922e-05
8.23274e-05
0.0637169
8.44003e-05
8.69098e-05
7.47252e-05
0.024542
0.000162472
0.0439251
7.04732e-05
7.12581e-05
7.2486e-05
9.84187e-05
7.0097e-05
8.5346e-05
8.11911e-05
7.37756e-05
9.25893e-05
7.76068e-05
6.5263e-05
0.0221178
0.0167486
0.0664382
0.0957211
0.000244809
7.53442e-05
0.00197046
0.00010507
0.000113848
8.94225e-05
8.73097e-05
6.88597e-05
0.000105512
9.44072e-05
0.00312018
8.58863e-05
6.35739e-05
6.55894e-05
9.28772e-05
8.78192e-05
9.67995e-05
7.83844e-05
8.24947e-05
7.14682e-05
0.0678414
8.47167e-05
0.00461737
0.000177111
0.000105527
0.0672732
9.10165e-05
8.50896e-05
0.000106748
0.000116762
9.48977e-05
0.00144696
0.000152472
0.000152061
7.09995e-05
7.62233e-05
0.0418763
0.0365142
0.000105956
0.000143177
0.000100662
0.000216629
8.41197e-05
7.59332e-05
8.28332e-05
0.0320866
0.000139734
0.000165273
0.000105345
0.000105556
6.46591e-05
0.000323612
0.000145115
0.000112024
0.0538672
0.00321216
6.09424e-05
0.00236071
9.26523e-05
0.0608624
8.59269e-05
0.000108072
8.44534e-05
0.00388784
6.62616e-05
9.03125e-05
8.27117e-05
0.000107758
8.67078e-05
0.000125802
0.0367531
6.74378e-05
8.87895e-05
0.000393485
0.000104654
7.91658e-05
6.13587e-05
6.44287e-05
0.000325102
6.14762e-05
9.30377e-05
9.50485e-05
4.90888e-05
0.000117353
0.000112188
0.000191745
0.000149245
0.123711
0.000105022
7.26472e-05
0.000121148
8.9486e-05
6.98099e-05
6.94381e-05
0.0269704
0.0362127
0.000110964
0.000109288
2.85018e-05
0.0600351
8.56607e-05
0.000112459
0.0882321
7.08257e-05
9.17249e-05
7.20231e-05
4.46228e-05
7.88304e-05
0.0418343
0.0506078
9.07474e-05
0.0541204
0.000916446
9.57479e-05
9.68404e-05
0.038798
9.26489e-05
0.00165582
0.111123
6.15822e-05
0.000109948
0.0733548
6.88043e-05
7.27224e-05
0.000173637
0.000109834
8.19711e-05
0.00127873
0.0550038
8.09185e-05
0.0533614
0.0569494
0.00011452
8.68307e-05
0.0578701
6.1225e-05
7.37864e-05
7.569e-05
8.29609e-05
0.000108068
0.0518339
9.89268e-05
0.000106085
0.0499147
6.15097e-05
0.0408436
0.00463323
6.1799e-05
7.95538e-05
5.30225e-05
0.000107344
7.13482e-05
0.00480833
0.0813758
0.000130443
6.6355e-05
0.0525068
0.000102927
9.4765e-05
0.003218
6.11275e-05
8.72364e-05
0.000104916
0.000133618
8.6924e-05
0.117713
6.96948e-05
7.59497e-05
0.00297096
6.94533e-05
6.1328e-05
0.001973
9.52229e-05
7.14012e-05
8.49675e-05
0.00549003
8.1005e-05
0.000273981
0.0584788
0.000152999
0.000132273
9.02697e-05
0.000202233
0.053268
0.0148677
8.99346e-05
6.68228e-05
0.000444431
0.054238
8.94823e-05
0.0101177
8.8303e-05
7.38784e-05
0.000254228
0.010963
0.00273915
0.000676647
0.00011338
0.000196832
9.04143e-05
6.7172e-05
7.34932e-05
0.00496497
6.94462e-05
7.85939e-05
0.000186004
6.12573e-05
9.72898e-05
0.000162799
0.060815
0.000163232
6.10675e-05
0.00183765
6.48043e-05
8.70246e-05
0.0128394
0.00118101
0.000208992
0.126769
7.50936e-05
8.71993e-05
8.52053e-05
0.000116246
0.000558824
0.000191433
0.000272503
0.00167603
0.00179393
0.00309348
8.98208e-05
7.75298e-05
8.69921e-05
0.0168388
7.70371e-05
7.2063e-05
0.108682
8.57475e-05
8.88785e-05
7.22347e-05
0.0885384
0.0121378
7.45415e-05
0.000175696
8.73571e-05
0.00478362
9.57284e-05
0.0534138
6.7494e-05
0.000188766
7.98071e-05
0.0351142
6.43045e-05
6.51756e-05
0.00977551
8.43511e-05
8.01237e-05
6.92424e-05
0.0466945
6.35755e-05
6.46709e-05
0.000375258
7.64858e-05
0.000823963
9.56561e-05
7.89357e-05
0.000202327
9.44471e-05
0.000105166
8.01496e-05
0.0595629
7.57007e-05
6.23976e-05
0.000119744
0.00238475
8.30117e-05
0.061862
9.98345e-05
0.00130696
0.00385465
0.000109196
6.13368e-05
0.00022595
0.110875
0.000103383
0.000117749
6.64046e-05
0.00149832
8.44921e-05
0.000134236
6.16404e-05
9.02762e-05
0.0665514
0.000163918
0.063775
0.000105979
6.97422e-05
0.000197661
6.17782e-05
7.59729e-05
9.36139e-05
6.60398e-05
8.55711e-05
0.116432
0.0138063
0.00221623
0.000103441
9.194e-05
9.41531e-05
0.0543652
0.110597
6.25882e-05
7.94127e-05
0.000137949
0.000167074
7.52761e-05
0.000596902
8.86512e-05
7.23423e-05
8.98835e-05
8.2682e-05
8.63515e-05
0.000128005
0.000126455
9.08005e-05
6.877e-05
6.83717e-05
0.0459816
0.000354374
9.02295e-05
9.51357e-05
0.000170006
8.13117e-05
9.21495e-05
6.34015e-05
0.000123065
0.000393705
0.00270609
0.000246745
0.0370041
0.000188425
0.000188817
0.000138034
8.89965e-05
0.00010453
0.000122182
0.000248509
0.0497746
0.000127477
8.06582e-05
8.52201e-05
8.95656e-05
0.123525
0.000294654
0.00284034
0.000219274
0.11628
0.000105609
0.00443214
8.46051e-05
0.00121807
0.0694393
6.4632e-05
0.000103993
8.51767e-05
9.40196e-05
0.00139252
6.07097e-05
0.00307519
6.53276e-05
0.000102213
0.000131974
9.11455e-05
6.12749e-05
6.1906e-05
0.000154287
0.000104272
0.000928111
7.99859e-05
0.000103829
0.000649743
0.00613958
9.05023e-05
9.71262e-05
6.06706e-05
0.000101974
6.19559e-05
9.74338e-05
8.38464e-05
0.125162
0.00317316
6.22371e-05
0.00794624
0.000118797
8.82837e-05
8.71081e-05
0.000115256
7.95746e-05
8.43807e-05
6.26344e-05
0.000330065
6.55375e-05
0.0286531
0.0540558
0.000124224
0.0142885
8.39585e-05
6.67853e-05
0.108044
0.00151717
0.00010511
0.000154854
8.47814e-05
8.21867e-05
0.000103272
0.00012189
6.39614e-05
0.000106292
0.000136488
0.0606965
5.56952e-05
0.000163955
7.99207e-05
7.70593e-05
6.26789e-05
9.02307e-05
6.31006e-05
0.000125376
6.22223e-05
0.0158645
0.000106967
0.000154702
9.82282e-05
9.24419e-05
0.000151269
0.0788051
0.000105466
0.000118998
0.00479942
8.43695e-05
0.000272572
9.47553e-05
8.38511e-05
8.32815e-05
0.000209821
6.16171e-05
8.44153e-05
9.32551e-05
0.000133679
0.00405642
0.000119875
0.00281861
8.75859e-05
8.43313e-05
0.000122132
0.0647297
6.15569e-05
0.00015004
0.000121277
9.15441e-05
6.36961e-05
0.00705818
9.91103e-05
0.00166999
6.50194e-05
0.0023474
9.74315e-05
0.00855782
0.000131172
0.000133143
0.000106442
0.000111568
8.19542e-05
0.00012481
0.00010253
0.00273528
0.00318039
6.85673e-05
0.0398078
0.0021
0.00213509
6.04584e-05
7.19295e-05
0.00146006
6.84434e-05
0.000156045
0.000111432
7.83492e-05
0.00196232
0.00175796
0.0477869
6.17082e-05
0.000120218
0.00011209
0.0022635
7.96365e-05
8.06989e-05
0.0909273
9.97937e-05
0.000116879
0.00195283
7.81277e-05
0.0001172
9.24088e-05
0.000110225
7.29477e-05
0.000152234
9.28683e-05
9.9096e-05
0.00227488
0.00478777
0.000127484
0.122368
9.06143e-05
8.5108e-05
6.17846e-05
0.00476522
0.000181951
0.000167535
0.000203635
6.59877e-05
9.13508e-05
0.117799
0.000118202
0.0042262
0.00295133
0.00378533
0.000158245
0.000219905
8.15729e-05
0.000112101
0.00017425
6.04847e-05
6.11939e-05
0.00404401
0.000120114
0.0460424
0.000158671
0.000251781
0.000155671
0.000156695
0.000141813
7.1263e-05
9.7999e-05
0.000666407
0.00459249
0.00408584
9.97066e-05
0.000121643
0.00294644
0.000109578
0.0156969
0.0466163
6.47866e-05
0.000166058
0.000105179
0.0421656
0.000163639
0.000228744
0.0153328
8.77332e-05
0.000105653
0.00017541
0.00214668
8.38956e-05
0.00241064
9.76497e-05
0.0001168
9.45619e-05
0.00013933
8.96025e-05
6.06218e-05
0.000129468
0.000708895
0.000124524
9.34857e-05
0.00427611
0.00261092
0.000107904
7.30575e-05
6.69393e-05
9.07005e-05
0.00011616
8.09769e-05
7.22934e-05
0.000124525
6.13765e-05
0.000184677