/*--------------------------------*- C++ -*----------------------------------*\
| =========                 |                                                 |
| \\      /  F ield         | OpenFOAM: The Open Source CFD Toolbox           |
|  \\    /   O peration     | Version:  v2012                                 |
|   \\  /    A nd           | Website:  www.openfoam.com                      |
|    \\/     M anipulation  |                                                 |
\*---------------------------------------------------------------------------*/
FoamFile
{
    version     2.0;
    format      ascii;
    class       volScalarField;
    location    "50";
    object      p;
}
// * * * * * * * * * * * * * * * * * * * * * * * * * * * * * * * * * * * * * //

dimensions      [0 2 -2 0 0 0 0];


internalField   nonuniform List<scalar> 
14479
(
-0.120762
-0.00914671
-0.171579
0.00315181
0.0116697
0.00497637
0.00461673
-0.206313
-0.179201
-0.176489
0.00738389
-0.0698888
-0.0110936
-0.0171
-0.0179576
-0.000454939
0.00450077
-0.0209812
-0.00801461
0.010936
-0.139771
0.0113025
0.0101707
-0.304149
0.00736607
-0.00661881
-0.216485
-0.173103
-0.0153768
-0.213846
-0.172559
-0.305985
-0.00513402
-0.00511372
-0.128298
-0.0612428
0.00770188
0.0021292
-0.00805761
-0.106014
-0.00065609
0.00721252
-0.00614748
-0.00618437
0.00771086
0.00488938
-0.0010299
0.0255854
0.00998375
0.00723706
-0.155258
-0.170995
-0.00739786
-0.149324
0.0100957
-0.081635
-0.0620919
-0.0293333
-0.000659799
-0.0285983
-0.0121747
-0.012141
0.0197373
-0.00426692
0.00465934
0.0311763
0.0240814
0.0279719
-0.00756803
-0.015977
-0.00692245
-0.000770466
-0.139862
-0.110306
-0.00818409
-0.00123829
0.0111572
0.0199911
0.000946304
0.0264897
-0.00853446
-0.162172
-0.00875446
-0.191806
-0.236923
0.00324489
0.00457405
0.00468551
-0.205065
-0.0316154
-0.176883
0.0296242
-0.34655
-0.00381117
-0.0084833
-0.000601398
0.000770051
0.00420975
0.00522442
-0.0230267
0.0393555
0.00300875
-0.15604
-0.129148
0.0429356
-0.217952
0.0282368
-0.00537021
-0.162553
-0.027893
0.024765
-0.0187256
-0.00553008
-0.0928927
-0.192869
-0.11505
0.00406719
-0.294688
0.000533544
-0.0144366
0.00472494
0.0271844
-0.159575
0.0052025
-0.00845467
-0.00557193
-0.0302966
0.00439663
-0.0771545
-0.00359255
0.00970577
-0.280839
-0.159919
-0.263343
-0.00713099
-0.101805
-0.238817
-0.167723
-0.0902135
-0.178876
0.00642611
-0.312935
0.00103111
0.0047948
-0.00842086
-0.00854964
-0.30302
0.00842205
0.00961073
-0.0508145
-0.0072968
-0.00400368
-0.00115432
-0.051394
-0.00629668
0.000887183
-0.00635987
-0.27446
-0.0292059
-0.103422
-0.118821
-0.00207021
-0.00424625
0.0103361
-0.000775662
-0.000420984
-0.00458654
-0.179864
-0.164969
-0.0355624
0.0261606
-0.0884484
0.00120518
-0.0107003
0.00513381
0.0111254
-0.102366
0.000736207
-0.00580084
-0.275273
-0.113241
-0.000340097
-0.0190448
-0.00554647
-0.00676263
-0.000203509
-0.179682
-0.285935
-0.0262438
-0.279395
-0.289857
0.000257892
0.0286378
-0.0149466
0.00132155
-0.0888444
0.00719791
-0.00571908
-0.0872546
-0.00400658
-0.0465306
0.00803197
0.0114926
-0.00494458
-0.0649542
-0.00106964
-0.00126104
-0.001118
0.00285479
-0.066879
-0.0793992
-0.0157426
-0.0660184
-0.0639038
-0.230159
-0.00429114
0.0226477
0.000131355
-0.0053389
0.010357
-0.0161409
-0.119057
-0.0407869
-0.00548796
-0.25742
-0.000853328
0.0229119
-0.00130208
-0.141609
-0.00445711
-0.0146321
-0.00463094
-0.00906706
0.00823147
0.00408661
-0.280718
-0.000962781
-0.189025
-0.287864
-0.00822494
0.00853198
-0.00427868
-0.179046
0.00656129
-3.56214e-05
-0.184986
-0.631265
-0.0154978
-0.013033
-0.00748249
-0.00911648
-0.00503971
-0.0056654
-0.176626
-0.00816203
0.00475886
-0.0627898
0.00283827
0.0120326
-0.00515168
-0.00112547
0.00853749
-0.00547011
0.00154781
0.00248979
-0.0776034
0.0107327
-0.00739023
-0.634654
-0.129603
-0.141699
-0.000865498
0.0270782
-0.0851124
-0.178669
-0.0107368
-0.186958
0.00241743
-0.0903079
-0.0325938
-0.157424
-0.000882082
-0.0302241
-0.043744
-0.208445
-0.23503
-0.141951
-0.1878
-0.090458
-0.0385066
-0.188806
-0.00729502
0.0117717
-0.00876298
-0.00116057
-0.00804598
-0.308191
-0.0277497
-0.114329
-0.0111352
-0.28729
0.0292022
0.00264728
-0.00605203
-0.106778
-0.296696
-0.00223902
0.0087105
0.00317028
-0.18902
-0.0016137
0.0200617
-0.043003
0.00847983
-0.106964
-0.25058
0.000833035
-0.0557276
-0.106309
0.0040878
-0.280706
-0.182768
0.0230849
0.0126673
-0.0135169
-0.275624
-0.261348
-0.00890613
-0.0129377
-0.0316215
0.0102711
0.00712131
0.0118722
-0.106287
0.00420314
-0.028985
0.034352
-0.0749405
-0.00162257
-0.0150863
-0.0145088
0.0097641
0.00320181
-0.101425
-0.0102133
-0.0817242
-0.253747
-0.103764
-0.151394
0.000295931
-0.00337988
0.015861
-0.135136
-0.359515
-0.034083
-0.328468
-0.228197
-0.266397
-0.0133377
-0.292791
0.00268918
-0.00116304
-0.251983
0.0454499
-0.0423389
0.00250931
-0.00301158
0.00420593
-0.116813
-0.00299582
0.00293947
-0.00808102
0.00310762
-0.164971
-0.00795551
-0.221148
-0.0119185
-0.210107
-0.0828202
-0.0247801
-0.110594
-0.17527
-0.0028641
0.00848187
-0.194274
-0.00551655
-0.285811
-0.0157688
-0.00410437
0.00950959
-0.20901
0.0153192
-0.0459634
-0.284782
-0.00979496
0.000521792
0.00704236
-0.00685516
-0.041852
-0.207203
-0.140404
-0.176
-0.115846
0.00928403
-0.0922515
-0.0291126
-0.00842795
-0.110505
-0.141768
-0.125934
-0.00982543
-0.235273
-0.0788738
-0.0461081
-0.0128068
0.0137547
-0.0176779
-0.0335581
-0.282035
-0.185122
-0.00622489
0.00750324
-0.285505
0.0160233
-0.345671
-0.0269215
-0.0477699
-0.0746945
-0.00326023
0.00801967
0.0022437
-0.130012
0.0208074
-0.00865551
-0.272502
-0.103977
0.0077474
0.00978041
-0.114423
-0.013789
-0.191954
0.00246719
0.00824635
0.0290518
-0.00667808
0.00129635
-0.0475166
-0.00592176
-0.0325593
0.00303373
0.00844784
-0.0111063
0.013037
-0.0772896
0.0130871
-0.140894
-0.0129218
-0.154485
0.00551877
-0.157168
-0.231302
-0.0169785
0.00533962
-0.0939931
-0.0146346
0.000808698
-0.124427
-0.182186
-0.17383
-0.0116681
-0.0010295
-0.146155
-0.00141115
-0.0016537
0.0199827
0.0271668
-0.181327
0.0259776
-0.136226
-4.6788e-05
-0.22238
-0.0559115
-0.00246747
-0.0159679
-0.131309
-0.00193698
-0.000181951
0.00496262
0.0237731
0.00896393
0.00346425
0.00386309
-0.226392
-0.0139436
-0.00236793
0.00338687
0.00479993
-0.248582
-0.000242827
-0.210015
-0.0650901
0.0097156
0.0250197
-0.0970641
-0.283714
-0.173099
-0.225039
-0.445835
0.00557253
-0.00169619
0.00266378
-0.0247949
-0.0450126
-0.188211
-0.0251628
-0.244529
-0.215812
-0.0447539
0.0235799
-0.165945
0.0199374
0.00952669
-0.00106113
-0.0649015
0.00355905
-0.176362
0.00103381
-0.089767
-0.000347715
-0.00213806
-0.275491
-0.180594
-0.0632864
0.00347779
-0.00180024
-0.000718033
-0.046653
0.00985043
-0.143135
-0.0971618
-0.0920348
0.0429835
-0.0768716
-0.0080836
-0.00826875
-0.0851923
-0.00286541
0.0211411
0.0492135
0.0133448
-0.0168789
-0.228661
-0.325041
0.000221657
-0.0774738
-0.00617724
0.0334927
-0.10999
-3.45472e-05
-0.3114
-0.00252277
-0.0256019
0.0029339
-0.283742
-0.188033
0.00274907
0.00127056
-0.00130824
-0.128764
-0.000106211
-0.00678807
-0.0449506
-0.00308471
-0.00398553
-0.110024
-0.168509
-0.270118
-0.0350957
-0.233498
-0.138051
-0.251198
-0.0458499
-0.0631548
-0.297974
0.00380446
-0.00808485
-0.0562641
-0.044386
0.0129296
-0.0423613
-0.123429
-0.000147861
-0.309461
0.01418
0.0108628
-0.00632032
-0.277664
0.00410479
0.019693
0.0133528
-0.0101742
-0.103799
0.00272226
-0.0014682
-0.0492583
-0.144868
0.0272271
-0.13753
-0.0950324
0.0103346
-0.0566881
-0.2254
-0.280703
-0.015642
-0.270448
-0.065465
0.00422638
-0.19772
-9.00411e-05
-0.000958196
-0.00186504
-0.0634019
-0.103628
0.00378394
-0.0148933
-0.15607
-0.000334246
0.0116681
-0.0525111
-0.0698934
0.0112605
0.00529064
-0.197048
-0.027389
0.00299616
-0.00804732
0.00395316
-0.118961
-0.00834535
-0.00122451
-0.068068
-0.0148052
-0.285138
-0.4265
-0.243285
0.0444665
-0.0825095
0.010785
-0.143928
-0.0892191
-0.0079659
-0.015242
-0.0279588
-0.313182
-0.0868431
0.0111826
-0.244014
-0.0756645
-0.00882269
-0.015072
-0.262449
0.0136463
0.0343037
0.00468237
-0.110774
-0.266545
-0.11831
-0.00323896
-0.0796881
0.000881443
0.0116274
-0.0445377
-0.00293078
0.00371366
0.00341904
0.00429314
-0.105181
-0.0958203
-0.000531627
0.0203893
-0.0300679
-0.027764
-0.0989814
-0.223163
-0.274907
-0.00279097
0.0393145
0.00304496
-0.00952711
0.00164017
0.0141969
-0.20193
-0.0425281
-0.0252637
-0.0849911
-0.387688
-0.00366993
-0.014903
0.00915314
-0.0488785
0.0112223
0.000714084
-0.114752
-0.0405606
0.00419248
-0.10844
0.00979044
-0.270855
0.0337934
0.0183473
0.0127721
-0.00858472
-0.288175
-0.00957415
-0.0394608
-0.00568426
0.00476547
0.00895349
-0.0159367
0.0029255
-0.236443
-0.241107
-0.00279123
-0.065079
-0.276389
-0.293304
-0.206597
0.0246823
-0.241694
-0.0440541
0.00371995
-0.00913587
-0.234976
-0.246227
-0.017029
0.0037106
-0.11431
-0.0626221
-0.0518609
-0.0102104
-0.116952
-0.00251165
-0.0203483
-0.14247
-0.00279287
-0.0138139
0.0208104
-0.0923518
0.00230647
-0.305334
-0.291342
-0.0299157
-0.190433
-0.0160531
-0.28504
-0.119464
-0.222017
0.0238699
-0.151143
-0.123949
-0.00896409
-0.00484129
-0.265173
-0.307621
-0.000322738
-0.000332772
-0.328449
-0.0613518
-0.175283
-0.0207553
-0.116203
0.000385251
0.00301797
0.00916612
0.00427461
0.0326918
-0.00104869
-0.525412
-0.0108547
-0.318181
-0.0170396
-0.0258384
-0.239566
-0.0032817
-0.00816195
-0.12352
-0.0557601
0.00810487
0.00463097
0.00920952
-0.219548
-0.108316
-0.0338909
-0.0758837
-0.303813
-0.396804
-0.218796
-0.236461
0.00515508
0.00238328
-0.0410627
-0.0803614
-0.0478992
-0.105009
0.0189694
-0.00216223
-0.00468891
-0.156834
0.01706
0.00770795
0.00164569
-0.0190977
-0.00793379
-0.00445585
-0.00363007
-0.105883
-0.0938961
0.00832683
-0.0355788
-0.0202756
-0.00637765
-0.00347122
-0.270345
-0.2768
0.00960925
-0.285206
-0.118506
-0.000949309
0.0219064
-0.167304
-0.113327
-0.00626907
0.00998281
-0.281581
-0.295153
-0.191996
-0.0396011
0.00788953
-0.275395
-0.199287
-0.0424156
-0.102135
-0.0955772
-0.119524
0.025199
-0.000296958
0.0060431
-0.19422
-0.0405746
-0.04778
-0.00442271
-0.281874
0.00276176
-0.213775
-0.149106
0.0243193
-0.000130517
0.0048087
-0.189157
-0.0478582
-0.000361499
-0.202878
-0.278778
-0.00283602
0.0165093
-0.0136429
-0.00171588
-0.00824495
-0.115384
0.00309614
0.00401314
-0.0551986
-0.092147
0.00398091
-0.00758921
-0.000143958
-0.0038321
-0.0922146
-0.000985335
-0.0198581
-0.00305726
-0.0220112
-0.27743
0.00835558
0.0295359
-0.0672948
0.0253275
-0.0978806
-0.00233031
-0.182901
-0.145425
-0.531741
-0.0149382
-0.283944
-0.00309146
-0.135899
-0.0232732
0.0192685
-0.00290719
0.0040243
0.00602959
-0.00382399
0.0128092
-0.10355
-0.417619
-0.00716906
-0.00998705
0.00762239
-0.00380431
-0.00663318
0.00659212
0.000190644
0.00943016
0.0298574
0.0189223
0.00739162
-0.126265
-0.102132
0.00251558
-0.172104
0.0134078
-0.00210154
-0.0015279
0.0229281
0.0127017
0.0379034
0.00882794
0.00630999
-0.0111208
-0.214544
0.00814111
-0.122917
-0.259465
0.00774202
-0.00372005
-0.180644
0.00731314
-0.0596112
0.0260477
-0.046258
0.012531
-0.33244
0.0333092
0.0218465
-0.19454
0.0077829
0.0293657
0.0086852
-0.313541
-0.00334889
-0.00019038
0.0128847
-0.0690816
-0.0599074
0.00392232
0.00487742
-0.00135293
-0.0741306
0.0127755
0.00391104
-0.0093354
-0.00168796
-0.0116571
-0.0116601
-0.000279649
-0.104509
-0.0574791
0.00536153
-0.0634488
0.00342873
0.00171856
0.00944667
0.0361143
-0.0101219
-0.134866
-0.013777
-0.0428075
-0.128581
-0.0138364
-0.284443
0.0082498
-0.00584471
0.0149353
0.00448144
-0.198726
-0.280647
0.0176855
0.0115858
-0.237148
-0.0823023
-0.217573
-0.183921
-0.235491
-0.0582663
-0.177621
-0.00631602
-0.0947243
0.00443438
-0.237728
-0.0057989
-0.0461544
0.0244477
0.0116634
-0.284191
0.0302285
-0.233337
-0.170237
-0.00721486
-0.303879
0.00932906
0.0160439
-0.174885
-0.0167557
-0.201389
-0.00774066
-0.125576
-0.227475
-0.0225567
-0.259814
-0.0677956
0.00933818
0.0136919
-0.282972
-0.000746626
-0.12115
-0.00812016
-0.0670264
0.00820986
-0.045976
-0.297182
-0.00603306
-0.00485085
0.00902968
-0.297222
-0.00455367
0.00852853
-0.142549
-0.0121314
0.0044537
-0.274792
0.00408095
-0.146376
-0.0516065
-0.0157714
0.00444737
0.0114505
0.00289631
0.00582838
-0.205486
-0.124338
0.00374281
-0.148376
-0.000771326
-0.00655643
0.00988213
0.00446804
-0.224758
-0.0159944
-0.00178703
-0.00459162
0.00758911
-0.0128153
-0.496515
-0.00397502
-0.2524
0.0121143
-0.0150782
-0.0250856
-0.300267
-0.283305
-0.0222332
0.0269457
-0.132203
-0.00848336
-0.0592741
-0.0768745
-0.0494917
0.00196401
0.014307
-0.215098
0.0105044
0.0314147
0.00482055
-0.268813
0.00406787
-0.0117004
0.00835061
-0.184087
-0.287974
-0.225127
-0.206693
-0.000542589
0.00386613
-0.0547706
-0.00565115
-0.000654913
-0.13378
-0.00745832
-0.17453
-0.00881889
0.00884839
0.0109069
-0.137089
-0.0045285
-0.0913408
0.00592074
-0.0247007
-0.121847
-0.105718
-0.128911
-0.40729
0.00941583
-0.0348977
-0.00576518
0.00597918
-0.113152
-0.0138996
-0.406636
-0.0102035
-0.0119421
-0.0466323
-0.0069382
-0.287505
-0.246815
-0.210176
0.00749403
-0.00869289
-0.334135
-0.130068
0.00170246
-0.266344
-0.0144732
-0.378725
-0.203287
-0.221523
0.00905243
-0.15686
0.0143162
-0.202969
-0.00249959
-0.225801
0.00442088
-0.00682592
0.0060153
-0.294343
0.00674553
-0.0776852
-0.0292315
0.00263276
-0.119052
0.0027218
0.00756224
-0.130983
0.0264956
-0.164335
0.0141743
-0.281937
-0.00796865
-0.0618731
-0.0174878
-0.114337
-0.00369141
-0.103556
-0.000289815
-0.16471
0.00972664
-0.236436
-0.113543
-0.134779
-0.0941531
-0.0653714
-0.195016
-0.220606
0.0054597
0.0274057
-0.00153801
-0.224578
-0.0063111
-0.00320645
-0.0112398
-0.366089
-0.0258051
-0.0940516
-0.0479997
0.000605851
0.0113879
-0.0642778
-0.00158221
0.00942018
-0.0121712
-0.193056
-0.0082373
0.0110289
-0.00206222
-0.0384837
-0.00884873
-0.0132045
0.0328642
-0.00638091
-0.0404078
-0.1995
-0.152265
-0.169885
-0.102275
-0.249337
-0.098828
-0.00389004
-0.117772
-0.103991
-0.166271
-0.0744577
-0.0204251
-0.120323
-0.00603181
0.00255664
-0.441717
-0.0553669
-0.195983
0.00792368
0.00383684
0.00149323
-0.0230842
0.00897689
-0.209896
-0.0376674
-0.142933
-0.00258235
-0.221626
0.00299748
0.0183573
-0.240792
-0.164169
-0.278403
-0.0352428
-0.00649667
-0.0608811
-0.0369904
-0.00243292
-0.0421836
-0.00245361
-0.180282
-0.312779
-0.241157
0.00595482
-0.376805
0.0304113
-0.170733
-0.0780749
-0.211178
-0.278318
0.0269793
-0.208484
-0.173297
-0.00921559
-0.144595
0.0114395
-0.0553983
-0.00427172
-0.0754721
-0.00449637
-0.0055726
-0.00194476
-0.115396
-0.00565984
-0.00717878
-0.00433057
0.00759218
-0.156428
-0.552746
-0.00887007
0.0116483
-0.0631524
-0.284116
-0.496664
0.00462114
-0.00712316
0.00895943
-0.0233291
-0.00672794
0.021693
-0.0581037
-0.00547878
-0.0024839
-0.0106499
-0.177503
-0.365991
-0.00594901
-0.240455
-0.0839328
-0.12436
-0.0566418
0.00389736
-0.275511
0.048879
-0.177324
-0.0437122
-0.117499
0.00954896
-0.0273843
-0.00122975
-0.158236
-0.204415
-0.0218779
-0.613021
-0.153248
-0.2964
-0.066104
-0.0147968
-0.038617
-0.207967
0.0357186
-0.017456
0.0195421
-0.00469568
-0.00154499
-0.205434
0.00253875
0.00899266
-0.00223471
0.0047337
-0.00439396
0.00625726
-0.161993
0.00885129
-0.0293086
-0.0972107
-0.263756
-0.00157948
-0.107569
0.00780829
-0.0481384
-0.116279
-0.000809021
0.00921643
-0.211179
-0.584753
-0.00892307
-0.0800348
-0.0412222
0.0395844
0.00625859
-0.00806072
-0.263657
-0.0081545
0.00900677
-0.287992
0.00132294
0.00404832
-0.178934
-0.00668901
-0.0767359
0.0118707
0.0112038
-0.00564342
-0.297737
-0.049455
-0.0500449
-0.139427
-0.0062449
-0.0031632
-0.0159019
-0.00619168
-0.00761384
-0.0525266
-0.195789
-0.100313
-0.00603741
0.000625027
0.00775275
-0.0106523
0.0010864
-0.281913
-0.111406
-0.00757037
-0.00107404
0.00557144
0.00142405
-0.0597567
0.00453132
0.0130637
-0.125859
-0.142584
0.00626461
0.0423816
-0.00401093
-0.00608779
-0.124637
0.00027226
-0.00799718
-0.35944
-0.0603675
0.0507841
-0.00585305
-0.208263
-0.012401
0.00287972
-0.0151001
-0.139661
-0.00942638
-0.245576
-0.00168112
0.0021591
0.0177187
-0.00909666
-0.00121555
-0.0206612
-0.00455152
-0.126518
0.00932706
-0.00182229
0.00213451
0.00377125
-0.000217013
0.000404131
-0.00753338
-0.00443972
-0.193148
-0.0187533
-0.188863
-0.000716584
-0.0108385
-0.00289369
0.00749897
-0.182768
-0.00786247
-0.0998641
0.00884046
-0.134542
-0.283613
-0.155779
-0.0393876
-0.00760406
-0.14886
-0.194911
-0.00468905
0.0211601
-0.165813
-0.337051
-0.42408
-0.0221061
0.00703457
-0.289454
-0.00206355
-0.215516
0.00455094
-0.1584
-0.246837
0.0140046
-0.174219
-0.154523
-0.287232
-0.0413087
-0.00883298
0.0208882
-0.295511
-0.00390202
0.0316836
0.00805411
-0.0983192
0.0105651
-0.0665043
-0.216213
-0.000337607
-0.113841
-0.00726185
-0.171843
-0.157651
0.0199761
-0.184939
-0.192321
-0.203875
-0.00995579
0.00409622
-0.00136752
-0.259955
0.00426819
0.00390489
-0.0080199
-0.0521502
0.00884389
-0.107404
-0.0193564
-0.0716511
-0.157593
-0.0135669
-0.295967
-0.0916714
-0.212911
0.0121139
-0.261953
-0.186894
-0.00861108
-0.00935967
-0.00854373
-0.116533
-0.331028
0.0164326
-0.0415326
-0.279911
-0.255076
-0.197795
-0.0205659
-0.00433338
-0.0104566
-0.130991
-0.0070694
-0.127053
0.0101574
-0.280738
-0.0116303
-0.00359822
-0.197502
-0.00732176
-0.224566
0.0075478
-0.259293
-0.251532
0.0268047
-0.0824837
-0.194274
0.00480583
-0.334461
0.0445663
0.0105479
-0.235246
-0.227967
-0.143434
0.0221325
0.00768361
-0.0562141
-0.115086
-0.0100333
-0.170433
-0.098777
-0.00122
-0.0139049
-0.101467
-0.0485431
-0.00158968
-0.120362
-0.00185807
-0.213152
-0.0232353
-0.136384
-5.50705e-05
-0.000954545
-0.0032192
0.0233912
-0.449702
-0.137082
-0.229528
0.021739
-0.217246
-0.241049
0.00735925
-0.0953341
0.0155478
0.00387184
-0.296545
0.00745188
-0.445813
-0.297241
-0.462121
-0.00125238
0.0116301
0.00767919
0.0152754
0.00207617
-0.0143116
-0.00967444
-0.113644
-0.137208
0.00271974
0.00483192
-0.11436
-0.186717
-0.228847
-0.0063543
-0.192807
-0.0101575
-0.123313
-0.00171919
0.0133429
-0.0136895
-0.201772
-0.303944
0.00665432
-0.00253381
-0.100004
0.00400541
0.00734554
-0.0475333
-0.282368
-0.0941692
-5.12309e-05
-0.0867343
-0.00718668
-0.0483085
-0.190671
0.00631242
-0.183369
-0.012884
-0.304309
-0.0163437
-0.144564
-0.124572
0.01974
-0.126802
-0.287387
-0.0851168
0.0047028
0.00606199
-0.0895269
-0.012593
-0.0144771
-0.0657917
-0.184799
-0.216135
-0.251552
-0.357714
-0.181588
0.00141603
-0.192419
-0.0192681
-0.127845
-0.368563
-0.248063
-0.0109777
0.0212556
0.00468185
-0.0463619
-0.311142
0.00419335
-0.183455
0.0142058
-0.143891
-0.00737282
0.0199058
-0.154761
-0.00762087
-0.166929
-0.192213
-0.118751
-0.282758
-0.0106333
-0.240301
-0.00362101
-0.462191
-0.0122242
-0.0139225
-0.196391
-0.165703
-0.0022019
-0.0613027
-0.0522623
-0.224589
-0.0129836
0.00983244
-0.205784
-0.148006
0.00605407
-0.00402626
-0.31507
-0.017505
-0.225779
-0.126021
-0.00119375
-0.122872
0.00884885
-0.301692
-0.309688
-0.0967603
-0.159465
-0.00625553
-0.0794847
-0.164329
-0.00535761
-0.0511934
-0.282273
-0.285479
0.0146751
-0.011207
-0.0567299
-0.000375373
-0.0275673
0.035844
0.0344935
0.00891359
0.00576283
-0.013447
-0.00209461
0.00793055
0.0042699
0.0204511
-0.203202
-0.0349154
-0.152519
0.0390574
-0.0856926
-0.0164781
-0.00507111
-0.00802749
-0.125064
-0.0853324
-0.000499888
-0.00171337
0.00500902
-0.0850598
-0.104412
0.00556571
-0.00317098
-0.156045
-0.0109339
0.0061748
-0.0113455
0.00988674
-0.0988863
0.0221177
-0.00997879
-0.0112561
-0.0370015
-0.0257583
-0.0052548
-0.128346
-0.0585291
-0.125111
-0.163374
-0.000859986
0.0162606
-0.0519417
-0.00538358
0.00283991
-0.0154438
-0.064466
-0.0397392
-0.0730819
-0.0475501
0.00825214
0.0185878
0.00492851
0.00750034
0.0185441
-0.00590237
-0.0666462
-0.056682
-0.00533258
-0.00571326
-0.175327
0.000849684
-0.00895507
-0.000279874
-0.219697
0.0151974
0.00894536
-0.124132
-0.0112808
0.00189775
-0.0957071
-0.15652
0.0140415
-0.36432
0.00469687
-0.193385
0.00436409
-0.00141967
-0.00885194
-0.0308598
-0.0591964
0.00793941
-0.173833
-0.238137
-0.00843285
-0.160274
0.00418824
-0.2678
-0.00585648
0.00622739
-0.232358
-0.00893707
-0.147929
-0.0285471
0.00288989
-0.371512
-0.000402509
-0.135088
-0.00937487
-0.163766
-0.141455
-0.13381
-0.195994
0.00827861
-0.171739
-0.00245854
-0.389137
-0.278938
-0.310927
-0.0487349
-0.0877488
-0.0951108
-0.294074
-0.102651
-0.0588069
-0.0277535
-0.116847
-0.0326519
-0.13566
-0.0289011
-0.0101899
-0.131
-0.026564
-0.00152554
-0.11753
-0.284135
-0.0709137
0.00474094
-0.100497
0.0112491
-0.0502345
-0.00916852
-0.136521
-0.256593
0.00189016
-0.0113959
-0.159792
-0.249938
-0.130169
-0.0141927
0.00741049
0.034572
-0.11817
0.000490078
-0.0948495
-0.0748928
-0.33961
-0.152906
-0.00199129
0.00453875
0.00213235
-0.0977668
-0.280725
0.00712355
-0.087768
-0.0580078
-0.0210975
-0.322893
0.00910879
-0.126679
-0.202676
-0.00958402
-0.334915
-0.00158531
-0.260616
-0.0553696
0.0075474
0.0152149
0.00556752
0.0115636
-0.288192
-0.291093
-0.131404
-0.00151259
-0.0587319
-0.00150983
-0.0623505
-0.119182
0.0350489
-0.00550711
-0.120984
0.00168403
-0.121448
-0.131144
-0.171475
-0.00790088
-0.0916694
-0.00546809
-0.356274
-0.215832
0.0104013
-0.221071
0.029024
-0.00503481
-0.131778
-0.253693
-0.032365
-0.249168
-0.107801
0.0141937
-0.186016
-0.00209477
-0.174396
-0.0464131
-0.00209729
0.0366238
0.0124658
-0.288259
-0.0381421
0.00508852
-0.0308478
0.00104566
-0.272011
0.0044989
-0.00349129
0.0053341
-0.467337
-0.0051609
-0.00532095
-0.0043958
-0.280292
-0.270268
-0.0714818
0.00375681
-0.143831
-0.283477
0.00960723
-0.0943077
-0.0455537
-0.0443055
-0.147244
-0.0198663
-0.00204835
-0.287354
-0.00350291
-0.015222
0.000376232
-0.252152
-0.237827
-0.245732
0.0095524
0.00304307
0.0026356
-0.0856997
0.00807856
0.00892356
-0.0180913
0.00213191
-0.0602227
0.00228165
0.00781905
-0.247405
0.0223823
-0.28255
-0.269566
-0.185012
1.01855e-06
-0.190597
-0.1213
-0.146657
-0.0398828
-0.00860054
0.00938561
-0.0112657
-0.0826836
-0.143923
0.0152035
-0.00131446
0.00884379
-0.0835506
-0.0559009
-0.0847652
0.0127541
0.00934619
0.00294306
-0.291117
-0.0155493
-0.00181291
0.00876897
-0.12417
-0.290959
-0.0373904
-0.0364286
-0.131012
-0.123472
-0.0864258
-0.198492
-0.116712
-0.19113
0.00461558
-0.000223925
0.0512513
-0.270143
-0.137009
-0.133793
-0.118859
-0.284575
-0.0306537
-0.000239576
-0.0268322
-0.265449
-0.146289
-0.143315
-0.133384
-0.131198
-0.000227095
-0.154025
-0.196983
-0.148801
-0.253213
-0.194777
0.0010648
-0.00643286
-0.0541301
-0.280339
-0.0438223
-0.00125204
0.0165804
-0.187294
0.00558413
-0.0608509
0.00799253
0.014638
0.0175796
-0.124057
-0.265102
0.0103928
-0.043746
-0.203346
-0.114599
-0.00909203
0.00226667
-0.00044467
-0.0120991
-0.00171091
-0.0829806
-0.017306
-0.00668187
-0.116543
-0.161435
-0.18138
0.0274282
-0.456179
-0.113753
0.0112151
-0.145931
0.0016707
0.00414587
0.00423405
-0.316219
-0.250037
-0.143464
0.00464688
0.00788615
0.0296871
-0.0177575
-0.154018
-0.302088
0.00444291
0.018324
0.00888767
0.00341384
0.000780467
-0.270738
-0.277096
-0.0477475
-0.275795
-0.0140172
-0.0773688
-0.087499
-0.345326
-0.0519522
-0.013526
-0.29234
0.00254182
-0.144695
0.0358336
0.00910864
0.00249627
-0.212955
-0.154029
-0.00129996
-0.011954
-0.258323
-0.0167301
-0.278509
-0.277356
0.00521766
-0.0010059
-0.274482
0.00219275
0.00101735
9.20933e-05
-0.0249972
0.0216952
-0.283288
0.0193037
-0.0909366
-0.279093
0.000460393
-0.275281
-0.144568
0.00298154
-0.00121022
0.00443887
-0.11999
0.00293127
-0.251719
-0.601179
-0.19892
0.00523915
-0.283427
-0.0187874
-0.0802631
-0.18602
0.00191319
-0.000216317
-0.139598
0.00245741
0.0178295
-0.320652
0.00659078
0.000196728
-0.00762236
0.00692746
0.0022458
-0.161176
-0.0523571
0.00444341
-0.00629247
-0.0156502
-0.0131568
-0.00631448
-0.248754
-0.112731
0.000280605
-0.0340891
-0.18749
-0.282507
-0.381829
0.00232981
-0.00584004
-0.20086
-0.252567
-0.0481375
0.00925437
-0.0315913
0.00268797
-0.122811
-0.169192
-0.203803
-0.0109074
-0.103585
-0.203703
-0.0719505
0.0100265
0.00152802
-0.13222
0.00504101
0.00698893
-0.24496
0.00192948
0.0187115
-0.11354
-0.27564
-0.249759
0.0014072
-0.228548
-0.00611462
-0.0141512
-0.118667
-0.187711
-0.00823562
-0.43589
0.00881614
-0.00126516
-0.0404181
-0.161321
-0.184282
-0.177634
-0.180927
-0.172517
-0.00814749
-0.0140607
0.00420552
-0.00031764
-0.0472189
-0.00927659
0.0011958
0.00545584
-0.388802
-0.0167832
-0.0065202
0.00226327
-0.298472
0.0264574
0.000577875
-0.15724
-0.00778803
-0.175705
0.00767356
-0.257093
-0.00524257
-0.201765
-0.0115296
-0.282185
3.19948e-05
0.0001721
0.00963139
0.0163549
-0.0098553
0.00427496
0.0110655
0.00589677
-0.00603148
-0.00758774
-0.00255272
-0.211086
-0.0801227
-0.00348215
-0.277333
-0.0778367
-0.0930141
-0.0136999
-0.285439
-0.00106898
-0.00569677
-0.168384
-0.223986
-0.0272081
-0.272236
0.00684763
-0.182759
0.0414056
-0.144069
0.00208471
-0.195886
-0.329032
-0.130433
-0.164846
0.00669535
-0.209109
-0.026516
-0.190999
-0.00532064
-0.0357637
-0.290069
-0.115757
-0.550408
-0.108829
0.00433877
-0.177347
-0.000481976
-0.0013655
-0.0875031
-0.000119164
-0.0415858
-0.347576
-0.211394
-0.230197
-0.132818
-0.0502965
-0.000374898
-0.508448
-0.485444
0.0123063
-0.00971128
-0.124848
-0.174044
0.00362456
-0.333273
-0.0283609
0.00714259
-0.0602245
-0.0156301
-0.000143134
-0.157021
-0.175949
-0.0622191
0.00753566
0.00824178
-0.284179
-0.188489
-0.062856
-0.0779748
-0.24104
-0.00187526
0.017724
-0.00399865
-0.122377
-0.200074
-0.192725
-0.144387
-0.282784
-0.245693
-0.259113
-0.208058
-0.00563093
-0.110968
-0.145697
-0.00215025
-0.282944
0.00145783
-0.0123239
-0.034036
-0.0370554
-0.471955
-0.180448
-0.234338
-0.313913
-0.482565
-0.039699
-0.202045
-0.00552621
-0.00689905
-0.575385
-7.83586e-05
-0.136977
-0.000487444
-0.0486751
-0.186877
0.000523605
-0.181772
0.00852768
-0.12797
-0.20002
-0.0308105
-0.00153835
-0.00433464
-0.00549685
-0.137791
-0.206377
0.00753843
-0.00101463
-0.183853
-0.0162858
-0.0451852
0.00627442
0.000666849
-0.0187989
-0.00494076
-0.0850854
-0.00507349
-0.444781
-0.235588
0.00482109
0.0108357
0.022348
-0.0133374
-0.0158485
-0.161055
-0.0107274
-0.0110076
0.00487454
-0.164841
0.0085816
-0.278899
-0.283983
-0.111353
-0.117624
-0.0297623
0.00981978
-0.343432
-0.218413
-0.084713
-0.162822
-0.00597388
-0.0104613
-0.105409
-0.123545
0.00669776
0.010827
-0.191855
-0.287568
-0.00810471
-0.194677
-0.012901
-0.00430007
-0.00447515
0.00289943
0.0064455
-0.182759
0.00458423
0.020508
-0.134068
-0.00336336
-0.113552
-0.080754
-0.229816
-0.36216
-0.0957041
-0.132869
-0.178011
-0.0123868
-0.267303
-0.0912906
0.0137738
-0.0088305
-0.194597
-0.00150896
0.00521638
-0.0846858
-0.065868
-0.18424
-0.114892
-0.231412
-0.0159105
-0.0336125
-0.183872
-0.285867
-0.00200337
-0.192431
-0.181574
0.00281159
-0.0015621
-0.00498906
-0.0872067
-0.165872
0.0076111
-0.00722008
-0.100612
-0.248723
-0.190376
-0.00231642
-0.0973793
-0.15741
-0.0154326
-0.179832
-0.0103591
-0.319299
-0.238633
0.00803754
-0.27958
-0.223004
-0.00998543
-0.00213756
0.00922361
-0.177326
0.00937406
-0.154876
-0.150815
-0.00347003
-0.00679774
-0.176262
-0.282775
-0.00217099
-0.180081
-0.150857
-0.225585
-0.0105317
-0.00249828
-0.379011
-0.0893325
-0.113772
0.013701
-0.00307593
-0.161623
-0.0835821
-0.147255
0.00677299
-0.131573
-0.0768284
-0.0969789
-0.189191
0.0368507
-0.0257428
-0.436752
0.0150892
-0.00035873
-0.00415989
-0.198208
-0.188327
-0.13209
-0.132367
0.00662372
-0.0312977
-0.315943
-0.168069
-0.120787
-0.126757
-0.121874
-0.154134
-0.313182
-0.00123751
-0.119719
0.0254799
-0.00216487
0.00188285
-0.173575
-0.166374
-0.27505
-0.140431
-0.27646
-0.0475766
-0.214091
-0.18544
0.00427775
-0.000176818
0.0130982
-0.119432
-0.166999
0.00365848
-0.175272
-0.214342
0.0200995
-0.260816
0.0247318
-7.32206e-05
-0.171597
-0.124786
-0.271343
-0.243244
-0.304089
-0.0103524
-0.0545672
-0.108971
-0.152462
-0.149988
-0.0288249
-0.204539
-0.11042
-0.00489874
-0.0139605
0.0245673
0.00302064
0.000585411
-0.00146664
-0.265903
-0.190555
0.0182475
-0.155653
-0.11617
-0.00105933
0.00752197
0.00986687
-0.0402129
-0.130794
-0.00229869
0.00542975
-0.164963
0.000824583
-0.151257
-0.13414
-0.281173
-0.045552
-0.00514795
-0.273917
-0.268014
0.00643791
-0.00428656
-0.130261
-0.446673
-0.0117093
-0.000569382
-0.121608
-0.00323159
-0.0971099
-0.160878
-0.00533019
-0.0150436
-0.102343
0.00508916
-0.00551073
-0.19815
-0.0910606
0.00216131
-0.085661
-0.0339422
-0.261371
-0.28414
-0.152234
-0.00394642
-0.206007
0.00549522
-0.0370694
-0.283404
0.00228158
-0.0568939
-0.266351
-0.167135
-0.11291
-0.301378
-0.285413
-0.028903
-0.245654
-0.00991742
0.0140873
-0.041036
-0.284466
-0.00601728
-0.198062
-0.289798
-0.229913
-0.217824
-0.147016
-0.300335
-0.199224
-0.044504
-0.00168393
-0.0614928
-0.165327
-0.286817
-0.369818
-0.212743
-0.288039
0.0147447
-0.140112
-0.179265
-0.024123
-0.0392022
-0.0120734
-0.00874929
-0.0465538
-0.274298
-0.257888
-0.492865
-0.28833
-0.0719998
-0.0021714
0.00156145
-0.0413157
-0.130996
-0.00693956
-0.130769
0.00328367
0.00303802
-0.237147
-0.180348
0.0217176
-0.16119
-0.149525
-0.00134678
0.0048067
-0.000437107
-0.122192
0.00323653
-0.249794
-0.00169052
-0.143724
-0.0990002
-0.00564107
-0.140561
-0.0711181
-0.293281
-0.0703667
-0.0756385
0.00810555
0.00350036
-0.0600963
0.00764164
-0.0880485
-0.0588638
-0.158982
-0.000602591
-0.12385
0.00859858
-0.0312285
-0.281221
0.0305355
-0.119922
0.0188436
-0.0109225
-0.475593
-0.122873
0.0110527
-0.111778
-0.101661
0.00958388
-0.21005
-0.445663
-0.415734
-0.499797
-0.300376
-0.174139
-0.0426748
-0.0147985
-0.00412743
-0.0321625
-0.080844
-0.204368
-0.00163145
-0.00736432
-0.23209
-0.00216558
-0.223828
-0.254679
0.00881976
-0.268336
-0.0461947
-0.130387
-0.0510275
-0.130726
-0.224753
-0.00996333
-0.104228
-0.0872957
-0.00605152
-0.11726
-0.134874
-0.0484326
-0.129628
0.0181312
-0.130765
-0.146973
-0.00168513
-0.0661256
-0.147777
-0.122984
0.00429964
0.00116535
-0.130945
-0.138665
-0.133334
-0.0010459
0.0181658
-0.0961275
-0.0826101
-0.194732
-0.103744
0.0182204
0.0231414
-0.000293334
-0.0013317
-0.189433
-0.0306388
-0.283483
-0.195816
-0.00521587
-0.102175
-0.13801
-0.0277423
-0.0342111
0.00530742
-0.103513
-0.184324
0.0531529
-0.0423521
-0.0142039
-0.283721
-0.10761
-0.00122289
-0.0857809
-0.0892669
-0.196124
0.000482099
-0.30522
-0.170691
-0.0132647