/*--------------------------------*- C++ -*----------------------------------*\
| =========                 |                                                 |
| \\      /  F ield         | OpenFOAM: The Open Source CFD Toolbox           |
|  \\    /   O peration     | Version:  v2012                                 |
|   \\  /    A nd           | Website:  www.openfoam.com                      |
|    \\/     M anipulation  |                                                 |
\*---------------------------------------------------------------------------*/
FoamFile
{
    version     2.0;
    format      ascii;
    class       surfaceScalarField;
    location    "50";
    object      phi;
}
// * * * * * * * * * * * * * * * * * * * * * * * * * * * * * * * * * * * * * //

dimensions      [0 3 -1 0 0 0 0];
oriented        oriented;


internalField   nonuniform List<scalar> 
21485
(
0.105346
0.117767
-0.223114
0.126624
0.43056
-0.557184
0.0538674
0.015917
-0.0697843
0.460452
-0.660758
0.200306
-0.436978
0.252943
0.184036
-0.729878
0.569353
0.160524
0.629501
-0.572537
-0.0569642
0.170552
-0.177756
0.00720387
-0.118439
0.0357091
0.0827298
-0.0685056
-0.0175352
0.0860407
-0.696631
0.359799
0.336831
0.177247
0.2472
-0.40666
0.15946
-0.131128
-0.297742
0.42887
-0.579725
0.443741
0.135984
-0.767003
0.293478
0.473525
0.0719682
0.557533
0.563472
-0.458998
-0.104474
-0.299111
0.491869
-0.192759
0.149698
-0.487051
0.337353
-0.000818833
0.130634
-0.129815
-0.253559
-0.183419
0.34737
-0.53605
0.18868
-0.0166551
0.00240414
0.014251
-0.330626
-0.366005
-0.56159
0.313474
0.248116
-0.101754
0.0891227
0.0126315
-0.137174
0.0491342
0.0880401
-0.199744
0.365238
-0.165494
-0.0382609
-0.0634933
0.0704298
-0.0165625
-0.0197895
0.00313433
0.832761
-0.461755
-0.371006
0.394614
0.438147
0.017104
-0.0655278
0.0484238
0.100447
0.158615
-0.259063
0.635314
-0.275515
0.501579
-0.656162
0.154583
-0.367229
0.736478
-0.369248
0.0307987
-0.202037
0.171239
-0.348594
-0.418409
0.677015
-0.339271
-0.337744
0.394132
-0.658424
0.264293
0.65083
-0.256698
0.358966
0.276348
-0.425863
-0.304015
0.636386
-0.365626
-0.27076
0.249943
0.116866
-0.366808
-0.593286
0.197444
0.395842
0.389062
0.287953
0.0661413
-0.0178949
-0.0482463
-0.0726488
-0.0645256
0.601465
-0.402906
-0.198559
0.0458117
0.0203295
0.552181
-0.204811
-0.0116164
-0.154787
0.166404
0.246925
-0.146477
-0.296667
0.0793529
0.217314
-0.206375
0.595593
-0.389218
-0.218921
-0.0777458
-0.224235
-0.180649
0.404883
-0.294156
-0.120338
0.414494
-0.106315
0.328699
-0.222384
-0.128752
0.431115
-0.302363
0.661981
-0.151863
-0.510118
-0.39754
0.265244
0.132296
-0.118897
0.36884
-0.109883
-0.00819876
0.118082
0.415026
0.186439
-0.342527
0.142782
0.274938
-0.0974017
-0.177536
-0.565075
0.486719
0.0783561
-0.0631011
0.0674174
-0.00431631
-0.183296
0.214095
0.347214
0.0255595
-0.372773
0.445174
0.191212
0.435951
-0.349501
-0.0864498
0.237357
-0.343671
-0.356308
0.517236
-0.160929
-0.270084
0.393615
-0.123531
-0.523621
0.224511
-0.186513
0.232996
-0.0464822
-0.505985
0.320523
-0.0812306
0.0311974
0.0500333
-0.0397528
-0.0776567
0.117409
-0.216838
0.498958
-0.28212
0.170904
-0.475903
0.304999
0.0894437
0.166753
0.00379908
0.197048
-0.31565
0.118602
-0.0693046
-0.412763
0.187135
0.225628
-0.00951934
0.0289943
-0.019475
-0.513268
0.384516
0.170403
-0.592677
0.422274
0.0234608
-0.588536
-0.536711
0.180403
0.469059
0.149585
-0.618644
0.635263
-0.561184
-0.0740788
-0.197831
-0.226178
0.424009
-0.107237
0.226897
-0.11966
0.643518
-0.606563
-0.0369551
0.0626721
-0.0421819
-0.0204902
-0.034321
0.051425
-0.128363
0.170857
-0.042494
-0.00616165
-0.113623
0.119784
-0.267236
0.208307
0.0589287
-0.227981
0.622595
-0.0677434
0.0694577
-0.00171431
0.200795
-0.398626
-0.0678401
-0.199396
-0.388848
-0.190877
-0.631263
0.550889
0.0803735
-0.0610461
0.18188
-0.120834
-0.0123216
0.0915261
-0.0792045
-0.00858047
-0.0828893
0.0914697
-0.681937
0.300685
0.381252
-0.114881
0.279846
-0.164965
-0.599824
0.599824
0.0214637
-0.340939
0.319475
0.293705
-0.261967
-0.0317388
0.0292266
0.0334455
0.603405
0.0318576
0.14807
-0.571835
0.423764
-0.121363
-0.509899
0.325351
-0.128303
0.152987
0.121951
-0.258287
0.159849
0.0984376
-0.443455
-0.138245
0.5817
0.397508
-0.585451
0.187943
-0.00581776
0.00813923
-0.00232147
-0.0680517
0.000308259
0.10999
-0.283115
0.173125
0.303866
0.265173
-0.569039
-0.139473
0.196077
-0.0566046
0.0209721
0.142025
-0.162997
0.0301781
-0.216691
0.241479
-0.136133
0.0561616
-0.0699201
0.0137585
0.423078
-0.49217
0.0690916
-0.0292384
-0.00838774
0.0376262
0.497501
0.0780606
-0.575562
-0.0739995
0.497078
-0.289775
-0.233846
-0.369086
0.672952
-0.00241456
-0.0268239
-0.200724
-0.299221
0.499945
0.547354
-0.149847
0.35589
-0.136033
-0.219858
0.219169
-0.591521
0.372352
-0.539203
0.310502
0.228702
0.356502
0.245352
-0.601854
-0.0644345
0.253823
-0.189388
-0.272273
-0.289317
-0.0963363
0.593837
0.147976
-0.492204
0.344229
-0.00515273
0.00805475
-0.00290203
-0.28062
0.481415
-0.190652
0.0511787
-0.0310623
0.195839
-0.164777
0.719644
-0.311316
-0.408328
-0.319457
-0.219747
-0.332537
-0.0863135
0.41885
-0.604855
0.39848
0.504313
0.0774408
-0.581754
-0.0569536
-0.328706
0.38566
-0.105395
0.183586
-0.0781907
0.0752238
0.00919251
-0.0844163
-0.480664
0.200044
-0.311776
0.38372
-0.0719436
0.132163
-0.136294
0.00413056
0.701746
-0.345275
-0.356471
0.343865
-0.096665
0.427153
-0.646837
0.219685
-0.350913
0.500611
-0.163686
-0.0234731
0.187159
0.163835
0.364173
-0.528008
0.76682
-0.429951
-0.336869
-0.275672
0.117421
0.158251
-0.102331
0.0937507
0.533798
0.0782539
-0.612051
-0.357306
0.72959
-0.368912
-0.360678
0.732987
-0.303329
-0.429658
0.580169
-0.558145
-0.0220236
0.078103
-0.0219414
-0.00456866
0.00754391
-0.00297525
-0.192387
-0.120991
0.313378
0.0452287
-0.0087118
-0.0365169
0.0140202
-0.00897733
-0.00504287
0.267637
-0.283809
0.0161716
-0.2593
-0.13824
0.426521
0.136951
0.598781
-0.0972017
0.140008
-0.00784485
-0.220446
-0.314898
0.535344
0.422484
0.344336
0.0375072
-0.18477
0.147263
-0.580731
0.261274
0.189907
0.165983
0.118124
-0.43534
0.317216
0.348897
0.087054
0.289621
-0.346574
0.0611811
-0.232206
0.171025
0.702685
-0.0883091
-0.614376
-0.204367
0.60571
-0.401343
0.613814
-0.633971
0.0201573
0.1298
-0.557412
0.427613
-0.16393
0.225111
0.153828
-0.165445
0.424883
-0.187684
-0.237199
-0.0834315
-0.148775
-0.241829
0.158398
0.0931427
-0.110472
0.0173291
-0.410391
0.534982
-0.124591
0.111137
0.24932
-0.360457
-0.455068
-0.133593
0.588661
-0.521737
0.111346
-0.283228
-0.310058
-0.158067
0.476868
-0.318801
0.0314914
-0.182275
-0.13125
0.313525
0.312122
0.417468
0.0111295
0.0340992
0.0682031
0.386631
-0.454834
-0.0927981
0.585812
-0.142886
-0.442925
0.0723525
-0.0962134
0.023861
-0.503252
0.690495
-0.187243
0.105151
0.263975
-0.369126
-0.728525
0.225273
0.456185
-0.706869
0.250684
-0.175471
-0.335357
0.510828
0.550058
-0.0809993
-0.000295579
-0.030867
0.0311626
-0.115432
-0.336588
0.45202
-0.190663
0.0835021
0.107161
-0.0068763
0.00230764
0.330167
0.161703
-0.369079
-0.109565
0.478644
-0.377784
-0.202947
0.0832843
0.0216126
-0.104897
0.1307
-0.446449
0.31575
0.646609
-0.06644
-0.255225
0.194349
0.060876
-0.0909199
0.11114
-0.0202202
-0.25615
-0.282434
0.538585
-0.377072
0.0829166
-0.49553
0.332799
0.162732
0.564211
-0.393808
-0.473138
-0.17096
0.644099
-0.69671
0.272686
0.424025
0.0154211
-0.0839267
0.697004
-0.240819
0.505948
0.0601032
-0.566051
0.0888774
-0.251532
0.162654
0.548123
-0.418324
0.271718
-0.454052
0.182334
0.537507
-0.273833
-0.263673
0.107408
0.478403
-0.430244
0.0611646
0.265234
-0.597752
0.607043
-0.00929098
0.391729
0.115928
-0.507657
-0.11814
-0.140147
0.125118
-0.457654
-0.182056
-0.0122829
-0.078637
0.179274
-0.171913
-0.00736112
-0.0281112
0.100464
0.128328
0.574357
0.287524
0.00618132
-0.148231
-0.0280963
0.176327
0.705958
-0.1423
-0.563658
-0.0933157
-0.0973478
-0.0625005
-0.455238
0.517738
0.129638
-0.190684
0.336662
-0.233457
-0.103205
-0.179688
0.230268
-0.0505792
0.523064
-0.454861
0.205381
0.11997
-0.0464276
-0.167286
0.213713
-0.145747
0.0869396
0.0588071
0.0575779
-0.0973306
0.0231435
0.0803626
-0.103506
-0.0172225
-0.0640081
-0.0129119
0.153499
-0.140587
-0.219164
0.144349
0.0748157
-0.00217994
0.0862484
-0.0840684
-0.130932
0.478145
0.4241
-0.152381
0.566919
-0.418849
-0.279677
-0.121335
0.401012
-0.153735
0.0268407
-0.019347
-0.00749373
0.296887
-0.294943
-0.00194389
-0.228852
0.0161702
0.212682
0.4685
0.237457
0.00784804
0.00617216
-0.16441
-0.248352
-0.152026
0.543754
-0.439592
0.15321
0.286383
-0.126751
0.147477
-0.0207263
0.115849
-0.25937
0.14352
0.520523
0.199121
0.248373
-0.0953865
-0.128817
-0.428595
0.0901166
-0.102438
0.505212
-0.700853
0.195641
0.139276
0.109097
0.16435
0.0842717
-0.248621
-0.4259
0.225175
-0.144627
0.0178764
0.0691453
-0.0580158
-0.0398141
0.307451
0.187985
-0.00775917
-0.180226
-0.125363
-0.019264
0.460865
0.116759
-0.577624
-0.0233276
-0.00114752
0.0244751
0.1505
-0.0672157
0.0994101
-0.345828
0.246418
-0.327485
0.480983
-0.153498
-0.384408
0.381759
0.00264973
0.0388474
-0.039143
-0.0129064
0.0166357
-0.00372921
-0.36249
0.489113
-0.176313
-0.230347
0.1334
0.203262
-0.370675
-0.165375
0.307169
-0.527614
0.157441
0.266659
-0.021847
0.0959313
-0.525853
0.0262356
0.499617
-0.124297
0.329678
0.131148
-0.149961
0.0188122
-0.278227
0.160087
-0.395109
0.27446
-0.252996
0.146277
-0.349532
0.203255
0.0109376
0.360414
-0.371351
-0.549168
0.420351
0.117382
-0.00230799
-0.115074
0.638548
-0.170047
0.0202499
-0.175037
-0.152943
-0.113545
0.266488
0.00738817
-0.132751
-0.0753148
-0.0232182
0.098533
0.1354
-0.590468
-0.0636795
0.356118
-0.292439
-0.21946
-0.169223
0.388683
-0.0123152
-0.0507859
0.029261
-0.0387804
0.171252
0.145754
-0.317006
-0.126626
0.242476
0.0102822
0.0828605
-0.00424487
-0.00230959
0.00655446
-0.353312
-0.0310958
-0.00593361
0.00168874
0.626134
-0.49584
-0.130293
0.367025
-0.259151
-0.107874
0.0195813
0.049564
-0.162716
0.0614628
0.101253
-0.0816434
0.245993
0.471354
0.154779
-0.713818
0.325534
0.388284
0.598929
-0.598929
-0.0799581
-0.00654132
0.0864995
-0.335356
-0.378462
-0.131574
0.592026
0.134378
-0.501607
0.552153
0.0913652
0.0533072
-0.108282
0.115183
-0.121345
0.272121
-0.392458
0.155359
0.0113943
0.179542
-0.0212209
-0.158322
-0.253102
0.324815
-0.0717136
0.138925
0.00855149
0.0525819
-0.157977
-0.410672
0.346992
0.421554
-0.30343
-0.0506881
0.0446154
0.00607263
-0.550161
0.32218
0.00710192
-0.00284537
-0.00425656
0.287277
0.137606
-0.605075
0.161621
-0.297746
-0.101838
0.399584
-0.0135523
0.168911
0.1831
-0.40256
0.0723036
-0.225485
0.153182
-0.165682
0.115594
0.522954
0.455418
-0.589011
-0.311339
0.442039
-0.479857
0.145292
0.334564
-0.332037
0.178492
0.153546
-0.0608808
-0.0848659
0.147345
-0.129323
-0.0180216
0.136749
-0.115137
-0.194975
-0.0338775
0.145426
0.401929
-0.155765
-0.0779985
0.233764
0.185229
-0.304114
0.118886
0.221796
0.122069
0.148303
-0.00937783
0.0495225
-0.141024
0.109947
0.0310771
0.648787
-0.218227
0.0284506
-0.112784
0.0843331
0.169866
-0.0100165
-0.14213
0.199765
-0.457739
0.257974
-0.454883
0.306725
0.148159
0.215586
0.132989
-0.348575
0.0680264
-0.274891
0.206865
-0.00666628
0.000848524
-0.149002
-0.106223
0.420495
0.230335
0.514776
-0.049494
-0.465282
0.00262092
0.004481
-0.216957
-0.237926
0.0340247
-0.0050304
-0.0475964
0.344483
0.220742
-0.148439
-0.112753
-0.165473
-0.714737
0.45293
0.261806
0.396699
-0.0377331
0.475473
-0.0986995
-0.376773
-0.0845451
0.232145
-0.1476
-0.300143
-0.0832461
0.383389
-0.312031
0.531201
-0.00688993
0.0017372
0.103204
0.0141783
0.110723
0.404053
0.142558
0.409623
-0.0853183
0.00536021
-0.207036
-0.0484232
0.172481
-0.124058
0.485623
-0.480056
0.304585
0.00630065
-0.268267
-0.284145
-0.155447
-0.453241
-0.14451
-0.163971
0.257853
-0.0938825
-0.331881
0.297313
-0.12606
0.517316
-0.186513
-0.330803
0.187793
-0.487014
-0.125971
0.398092
-0.089476
-0.307409
0.396885
0.0323624
-0.160412
0.12805
0.306786
-0.396262
-0.00296049
0.150305
0.157524
0.0741485
-0.0656429
-0.00850558
-0.327595
0.21065
0.116945
0.00609687
0.00760672
0.120312
-0.127918
0.355869
-0.140283
-0.16605
0.449476
-0.283425
0.0297471
-0.186379
0.156631
0.488055
0.156911
-0.644966
-0.41334
0.577175
-0.242225
0.15768
-0.0552729
0.00458482
-0.185482
0.137059
-0.452021
0.271373
-0.440162
0.54757
-0.0274438
-0.0608404
0.0882841
0.536002
0.0778115
0.555866
-0.61245
0.0565831
0.110702
-0.294011
0.183309
0.105914
-0.375998
0.0353551
-0.232273
0.349138
0.144057
-0.144876
0.344375
-0.545908
0.201533
-0.0786134
-0.039126
0.117739
-0.129231
0.287846
0.486239
-0.647846
0.161607
-0.104925
0.592981
0.0461278
0.186018
0.53044
-0.732862
0.202421
-0.153097
0.686895
-0.289585
0.460489
0.250181
-0.369079
-0.573288
0.461383
0.111905
-0.119281
-0.429887
-0.147544
0.608408
0.142739
-0.135132
0.174802
-0.416746
0.241944
0.739521
-0.410292
-0.329229
0.371453
0.145862
-0.045745
0.551693
-0.149588
0.17056
-0.165277
0.669589
-0.00461997
-0.130062
0.134682
-0.248129
0.118655
0.129474
-0.442893
-0.261852
0.388598
-0.126746
0.0752533
-0.231019
-0.0243187
-0.0065483
-0.0904274
0.0728922
-0.011566
0.126749
-0.0430125
0.0682392
-0.0252267
0.082668
0.248988
-0.331656
0.57721
-0.0213435
0.505895
-0.0304226
0.128267
-0.337911
0.209644
0.173671
-0.220098
-0.0422278
0.132344
-0.320353
0.127966
0.048666
-0.201609
0.0487667
0.040356
-0.141214
0.335426
-0.236016
0.0889993
-0.0137755
0.28502
-0.174318
-0.38406
0.110165
-0.550327
-0.152952
0.502328
-0.130874
-0.00377497
0.140524
-0.191161
-0.408663
0.167145
0.465667
-0.580842
0.115175
0.337035
0.402486
0.0401591
-0.00131171
-0.00661842
-0.0486545
0.268328
-0.152891
-0.115437
-0.539043
0.419762
0.156111
0.286249
-0.442361
-0.165431
-0.382949
0.54838
0.194553
-0.31231
0.117757
-0.518151
0.360219
0.157932
0.148337
-0.0177031
0.185101
-0.155354
0.0994916
-0.112403
-0.159331
0.030968
0.18508
-0.0152143
0.290643
0.0421552
0.106771
-0.477564
0.370794
0.154647
0.0248956
-0.591479
0.453234
-0.154657
-0.203195
0.357852
-0.0865481
-0.0761679
0.487176
-0.109661
-0.377515
0.0950819
0.206774
-0.301856
0.115573
-0.127139
-0.186264
0.20325
-0.0169854
0.555677
0.0441475
-0.00837645
0.193457
-0.410617
-0.247807
0.117929
-0.225166
-0.0159186
-0.0864126
0.501044
-0.15667
0.0168941
0.00994657
-0.0717292
0.576941
-0.300698
-0.369141
-0.291617
0.00820064
-0.000639377
-0.00756126
0.124398
-0.0883476
-0.0360506
-0.403351
0.232525
0.469221
-0.601157
0.39679
0.00661158
0.172662
-0.394055
-0.237178
0.631232
0.587948
0.145039
-0.308798
0.178917
0.129882
0.117381
0.256844
-0.374225
-0.675964
0.417315
0.258649
0.191132
-0.174961
-0.0812349
-0.00567475
-0.00818754
0.0138623
0.251545
-0.183519
0.144023
-0.0969066
-0.000977946
0.078387
-0.077409
-0.216036
-0.0927627
0.164569
0.103758
0.00396876
0.330041
0.168917
-0.248408
-0.458461
-0.0146871
0.202672
-0.140612
-0.145394
0.286007
-0.468746
0.141262
-0.183475
-0.0600751
0.24355
0.190085
-0.173232
-0.0168532
-0.751607
0.546631
0.204976
0.0201574
0.144075
-0.164233
0.509888
-0.160215
-0.349673
0.4582
-0.312908
-0.228426
0.465661
0.144458
-0.610119
-0.198658
-0.193073
0.391732
0.389942
0.0972346
-0.192495
0.349716
-0.157222
0.0323916
-0.544789
0.199514
-0.36796
0.0313718
-0.235825
0.171391
0.101786
-0.0786425
0.229204
-0.146254
0.120215
0.0260386
0.247696
-0.197908
-0.0497877
-0.242621
-0.148095
-0.125512
0.273607
0.0236283
-0.0800013
0.0563729
0.00414093
0.00399831
0.0126602
-0.274063
0.261403
-0.000292946
-0.0126135
-0.182582
0.345143
0.157185
0.0507045
0.0113769
-0.0620814
-0.458129
0.59101
-0.234509
-0.118837
-0.0887902
-0.130374
-0.201
0.0320154
0.168985
-0.135083
-0.192513
-0.410668
0.222984
0.122345
-0.104
-0.0183441
0.678786
-0.478718
-0.200067
-0.173301
0.193458
0.0221458
0.231677
-0.155194
-0.0184047
0.173598
0.56211
-0.119774
-0.442336
0.609966
-0.182814
0.0526509
-0.00803543
0.105713
0.219286
-0.324999
-0.553052
0.0572116
0.562314
-0.593991
0.0316768
-0.0585548
0.0863748
-0.02782
0.552979
-0.107804
-0.181983
0.0267892
-0.235867
-0.00728734
0.00535172
0.00193562
-0.0486793
0.00566682
0.18529
-0.235618
0.0503276
0.0406808
0.186217
-0.262241
0.146751
0.115489
0.381057
0.128831
0.07061
-0.0980538
0.0246926
-0.186992
0.162299
-0.489087
0.0861806
0.168948
0.129719
0.36332
-0.257607
0.0230653
-0.00819648
-0.0148688
-0.116053
-0.146188
0.505109
-0.394816
-0.110292
-0.0318586
-0.0235882
0.0554467
0.156011
-0.123649
0.562253
6.17278e-05
-0.235788
-0.181612
-0.101503
-0.293595
-0.084652
0.378247
0.380965
-0.19208
-0.188885
0.651923
-0.348186
-0.303738
0.13674
-0.0527454
-0.0839941
0.0160539
0.000581758
-0.0842763
0.0257215
-0.389202
0.165516
-0.0116879
0.535904
-0.171731
-0.133325
0.469537
-0.336212
0.291222
-0.0966686
-0.240967
0.611362
-0.370395
-0.11155
-0.427492
0.566002
-0.139541
-0.426461
0.152809
-0.456555
0.303745
0.0528442
0.0503597
-0.130292
0.14328
-0.0129885
-0.538484
0.373053
-0.353315
0.349118
-0.221437
-0.127681
0.330901
-0.145672
0.161628
-0.0367835
-0.0775502
0.114334
0.00595803
0.00057964
-0.00653767
-0.539758
0.298791
0.0252477
0.145609
-0.559305
0.00625323
-0.160924
0.468653
-0.307729
0.509857
0.0614283
-0.571285
-0.445469
0.281385
0.164084
0.165219
-0.143687
-0.0215311
0.174066
-0.290274
0.116208
-0.20469
0.332958
-0.0301234
0.0931797
-0.0580995
-0.0350803
-0.742653
0.303854
0.438799
0.310342
-0.141393
0.522373
-0.184001
-0.338372
-0.263069
0.0990981
0.351889
0.15322
0.403933
0.218051
-0.621984
0.201752
-0.175777
-0.0259751
-0.253226
0.171582
-0.336237
0.489047
-0.0998851
0.0839665
0.499982
-0.360688
-0.139295
0.0605734
-0.0615513
0.142706
0.238259
-0.175327
-0.230036
0.405363
0.0857784
-0.379373
0.588599
-0.436561
-0.152038
-0.0161707
0.0234872
-0.0073165
0.59854
-0.144335
-0.454205
-0.225533
0.0432579
-0.384588
0.161408
-0.581655
0.420247
-0.454258
-0.0819118
0.53617
0.239837
-0.227177
0.154995
-0.480815
0.32582
0.0815984
-0.05797
-0.0945134
0.0767092
0.0178042
0.286148
-0.409687
0.123539
-0.0339301
0.236065
-0.202135
0.000718707
0.00523933
0.266518
-0.149097
0.0205498
0.144669
0.217739
-0.078463
0.0370352
0.0445632
0.136291
-0.276903
-0.526097
0.414546
-0.485851
0.334152
0.151699
0.218277
-0.0329865
-0.0317243
-0.0627891
-0.414217
0.357809
0.208193
-0.214358
-0.208401
0.174471
-0.129301
-0.14677
0.276071
0.442707
0.145892
0.12883
-0.0300144
-0.0988161
-0.182431
-0.250289
0.43272
0.120352
-0.237424
0.117072
-0.0252162
0.105579
-0.417453
0.235021
-0.216981
0.0253909
-0.325534
0.140319
-0.130404
-0.00991424
0.428444
0.170337
0.175749
-0.147919
-0.0278296
0.0982343
0.222154
0.126964
0.0908738
0.0335245
0.118211
-0.400645
-0.00443793
-0.00284941
0.0330764
0.162763
-0.0394115
-0.0405898
-0.214193
0.32533
0.0214528
-0.0967676
-0.117577
-0.124647
0.239116
0.457888
0.116537
-0.589675
-0.175008
0.156228
0.0187803
0.0137927
0.00195755
0.478293
-0.631391
0.376333
0.0692505
-0.445583
-0.192887
0.00662282
0.0897561
-0.254209
0.164453
0.0195024
0.0509274
0.170228
-0.264832
0.0946036
0.163505
0.0382468
0.231558
0.167524
-0.399083
-0.360173
0.515168
0.374856
0.147517
-0.122724
0.467867
0.115611
0.102128
-0.359503
0.219305
-0.110984
-0.108321
-0.158202
-0.206129
0.364331
0.131144
-0.0671704
-0.0639739
-0.178981
-0.116294
0.33558
-0.132681
-0.102937
0.526856
-0.373464
-0.153392
-0.323873
-0.170234
0.494107
-0.0680383
-0.0729856
-0.258532
-0.570177
0.45523
0.114947
-0.0272983
0.596651
-0.427862
-0.128847
0.0920631
0.210704
-0.0195729
0.0923289
0.191785
-0.284114
-0.0677808
-0.161099
0.228879
0.0140633
0.161685
0.0888342
0.00434556
0.0117947
-0.0904081
-0.0153868
0.157411
-0.355889
-0.290949
0.449517
-0.494629
0.0451121
0.284567
-0.110502
-0.181927
0.160706
-0.233262
0.214093
0.0191695
0.097089
-0.0442448
-0.3684
0.641484
-0.0933417
-0.548142
-0.705256
0.259021
0.446236
0.071967
0.0503775
-0.241301
-0.150649
0.39195
-0.558889
0.0788322
0.231942
0.08802
-0.394374
0.191907
0.202467
-0.649371
0.265033
0.384338
-0.432943
-0.309709
-0.0514138
-0.150623
0.225886
0.0218094
0.135816
-0.562927
0.427111
0.0819971
0.149206
0.293153
-0.122924
0.411088
-0.714417
0.527376
-0.303569
-0.223807
0.00776181
0.00572735
0.000597129
-0.00632448
0.404628
0.0953542
0.00557025
-0.00260476
-0.00296549
0.15929
-0.145372
-0.0139175
0.121093
0.397831
-0.148511
0.011957
-0.0846058
0.108702
0.0280378
0.176769
-0.421247
0.244478
-0.525367
0.16468
-0.000776685
0.0229987
-0.0254132
0.0600229
-0.0622028
-0.0588976
0.203246
-0.371096
-0.014744
-0.00858357
0.218993
-0.0616104
-0.157382
-0.298536
-0.173166
-0.0278343
0.0100267
0.104174
0.0246566
0.137134
0.15039
-0.547959
0.0256856
0.522273
0.13375
0.357612
-0.491362
0.198323
-0.224753
0.02643
0.13976
0.173764
0.0237998
0.150814
-0.174613
-0.399228
-0.250143
0.00495602
0.00114867
-0.00610468
-0.228975
0.341954
-0.112979
-0.0255191
0.0742858
0.0698719
-0.0101219
-0.05975
-0.0502843
-0.261492
0.633591
-0.167924
0.186912
0.465011
0.0991382
-0.0128898
0.0978969
0.165018
-0.262914
0.374178
-0.606119
0.173961
0.0450313
0.00712338
-0.00742784
0.000304461
0.185667
-0.495029
0.309362
-0.410523
-0.113097
0.681734
-0.265947
-0.415787
0.488069
0.0303688
0.00112252
0.464637
-0.01512
-0.576834
0.159481
0.417353
-0.286533
0.159002
0.127531
0.00960361
-0.601138
0.075285
-0.111993
0.333789
0.258399
-0.652454
-0.689031
0.277886
0.411144
-0.161686
-0.45608
-0.14448
-0.2062
0.583361
-0.37716
0.288372
-0.0864511
-0.20192
-0.00233913
0.0629125
-0.434361
0.12442
-0.138454
-0.109674
0.0416817
0.142597
-0.184279
0.115394
-0.014301
-0.25456
-0.0727708
0.10848
-0.0806671
0.0198267
0.13621
0.0830948
0.404993
-0.117716
0.0206437
-0.0127956
0.109403
-0.0305095
0.174566
0.199174
0.105416
-0.30459
0.333754
-0.10828
-0.225475
0.350007
-0.556208
-0.112403
0.578064
-0.290512
-0.155937
-0.385176
-0.532172
0.224763
-0.0761796
0.249398
-0.173218
-0.0913347
-0.00766289
0.0989975
-0.108801
-0.368763
-0.751578
0.417988
0.333591
0.373439
0.0156232
-0.587738
0.0425005
0.545237
-0.433278
-0.0187037
0.451982
0.435421
-0.515259
0.0798388
0.542679
-0.138745
0.528131
-0.123503
0.105383
-0.22548
0.120096
0.291769
-0.192406
-0.0993628
0.107118
0.356424
-0.463542
0.154709
0.0353759
0.238617
-0.0743659
-0.164251
-0.116345
0.121057
-0.124832
0.232207
-0.225839
-0.00636768
-0.587738
0.533505
0.107979
0.306211
-0.169077
-0.314155
-0.218016
-0.181068
0.0853505
0.0957173
-0.441693
0.563117
-0.121423
-0.13064
0.56606
0.137981
-0.411761
0.27378
0.0246734
-0.138296
-0.473982
0.364418
-0.0675102
-0.0204394
0.0879496
-0.0468996
-0.128109
-0.422973
0.501805
0.367935
0.159441
0.268547
-0.0702241
-0.507563
0.458069
0.138604
-0.286699
-0.121953
0.163635
0.0297713
-0.200053
0.170282
-0.547995
0.382839
0.165156
0.0472458
0.0838984
-0.0369934
0.168142
0.173036
0.118734
-0.184617
-0.0401357
-0.176858
-0.330706
0.371158
-0.162301
-0.400625
0.017736
-0.0261237
0.498765
-0.313098
-0.137989
-0.241209
-0.0610102
-0.138683
0.199693
0.0993345
-0.259483
0.160148
-0.096698
-0.429399
-0.125821
0.336471
0.402217
-0.025884
0.181472
-0.249253
0.392503
-0.528103
0.431405
-0.345242
0.152747
-0.298966
0.428641
-0.298984
-0.129657
-0.31404
0.618789
-0.140496
0.0804045
-0.163336
0.155577
-0.607719
0.181856
-0.161776
0.563256
0.0356731
-0.287391
0.416676
-0.129285
0.402153
0.125978
-0.124713
-0.333071
0.174868
-0.0653797
-0.0808742
-0.403235
-0.10598
0.509215
-0.23806
0.0545848
0.141873
-0.039773
-0.1021
-0.506582
0.103347
0.00167828
0.00389197
0.334619
-0.437923
0.103304
-0.438984
0.172105
0.266879
-0.250602
0.433702
-0.415426
-0.0126214
0.0633259
-0.0434445
0.0411053
-0.380685
0.167294
-0.0409176
0.161229
0.152663
0.0128528
-0.179595
-0.0261113
0.205707
0.0608805
-0.142841
0.0300569
0.112454
-0.283155
0.170702
-0.157503
0.161843
-0.00434043
-0.461299
0.0280207
-0.0608852
0.160377
-0.515741
0.541977
0.0314116
-0.063136
-0.45476
0.333397
0.197471
-0.333796
0.259249
-0.433751
0.174502
0.0132315
0.00741213
0.296603
-0.208878
-0.0877252
-0.0864291
-0.0564116
-0.0756774
-0.0148819
0.0905593
-0.217604
0.00492844
0.47893
-0.334112
-0.144818
-0.0106809
0.242888
-0.0504177
-0.228212
-0.142233
0.370445
0.0553782
-0.0440013
-0.15892
-0.0220666
0.132013
0.0119979
-0.0438565
-0.115303
0.314478
-0.0292629
0.00204292
-0.173332
0.171289
0.496559
-0.376366
-0.120193
0.308297
-0.392949
0.112097
0.154421
0.470231
-0.615892
0.14566
0.149893
0.00939723
0.601814
-0.336641
0.175055
-0.0956248
-0.331566
0.154229
0.177337
0.0101788
-0.000305414
-0.00987339
-0.28242
0.435629
-0.441701
0.179471
0.26223
0.0335741
-0.487832
-0.161291
-0.0130081
0.174299
0.278782
0.411713
-0.38628
0.497002
-0.157352
-0.0465139
0.203866
0.463022
0.135518
0.148576
-0.427048
0.278472
0.00150367
0.00422367
-0.411344
-0.199502
0.0421504
0.11473
-0.2615
-0.202191
-0.0936036
0.295794
-0.239867
0.359644
-0.119777
0.374062
-0.114814
0.579644
-0.457393
-0.122251
-0.201809
-0.39712
-0.127179
0.122559
-0.16662
-0.659459
0.453428
0.206031
0.0785678
0.636839
-0.283755
-0.353084
-0.195726
-0.243258
-0.273576
-0.244575
0.447593
-0.299017
-0.117797
0.0402473
0.108151
0.169367
0.512367
-0.463492
0.505698
-0.384049
-0.121649
-0.269708
-0.188031
-0.247715
0.136731
-0.398078
-0.185428
0.138529
0.423414
-0.265973
0.0554608
-0.329166
0.212872
0.00360389
-0.00990785
0.00630396
-0.0173182
0.0479528
-0.506951
0.302904
-0.149561
0.119051
0.279701
0.147442
-0.011111
-0.151862
0.249759
0.338995
-0.515982
0.176987
-0.0892697
0.397566
-0.00806033
0.0962183
-0.0881579
0.0388713
0.338477
-0.377348
-0.156727
0.203638
-0.0469109
-0.455635
-0.0276121
0.0164079
0.0112042
0.535027
-0.379881
-0.155146
0.298636
0.130005
-0.475163
0.0888829
-0.114999
-0.0051373
-0.00173899
0.0492574
-0.0883834
0.105389
-0.0184489
-0.322852
0.606414
-0.283562
0.414168
0.120859
-0.131911
-0.154622
0.74661
-0.459897
-0.286713
0.268158
0.00966338
-0.0623577
0.0526943
0.349399
0.00137837
0.0459253
-0.0473037
-0.512462
-0.090253
0.432041
-0.341788
-0.135162
-0.00910797
0.180231
0.246532
0.168216
-0.014717
0.158964
0.227387
0.0556164
-0.283004
0.0188647
-0.0164645
-0.0834207
0.10634
-0.0890239
-0.017316
-0.00250048
0.360046
0.118884
-0.176375
0.268704
0.329477
0.417133
-0.612767
0.361507
0.25126
0.216749
-0.0532439
0.191896
-0.331991
0.140095
-0.115306
0.107643
0.318599
-0.409689
0.0910897
0.190042
-0.288707
0.0986651
-0.152649
0.646913
-0.447622
-0.199291
-0.156171
0.180358
-0.0241864
-0.204871
0.151007
0.0538633
0.0754204
-0.10094
0.21366
-0.528557
-0.391171
0.48752
-0.0963491
0.00424184
0.0232381
-0.0274799
0.112439
-0.00609885
0.136271
0.470772
-0.0158173
-0.0117948
0.38581
-0.0672112
0.00788969
-0.0399703
0.0320806
-0.044948
-0.00556982
0.0505179
-0.173405
-0.00619045
0.143289
-0.346803
0.203514
-0.169167
-0.0614285
0.230595
-0.360263
-0.15724
-0.239807
0.357188
-0.161667
0.137974
0.0236931
0.0986572
-0.338524
0.425243
0.22167
-0.246601
-0.366166
0.000931059
0.00924774
0.314613
-0.231945
-0.0150304
-0.153099
0.16813
-0.182759
-0.109225
0.291984
-0.364887
-0.153748
0.00837518
0.549881
0.034976
-0.584857
0.542009
-0.328349
0.111598
0.0302745
0.250358
-0.0925978
0.0493183
0.0432795
-0.177424
-0.268046
0.00777717
7.50596e-05
-0.00785223
-0.00992351
0.199966
-0.154875
-0.199298
-0.0894096
0.0447865
0.171963
-0.519487
0.146023
-0.145148
-0.0455038
0.265705
0.413081
0.0258607
-0.180421
0.15456
-0.11684
0.477059
0.0912102
-0.0597986
-0.132781
0.144368
-0.0115878
0.0598687
-0.0502054
-0.137671
-0.0163335
0.154005
-0.200092
-0.0754147
0.0627932
-0.14367
-0.017997
-0.704643
0.259176
0.445466
0.0291741
-0.151128
-0.387717
0.266382
-0.107515
0.746646
-0.324074
-0.422572
0.488216
-0.17354
-0.314676
-0.700389
0.450099
0.25029
0.0371507
-0.217648
-0.120263
-0.0897674
0.236765
-0.146997
0.194462
-0.164691
0.399896
-0.168338
0.37806
-0.26657
0.107892
0.158679
0.208203
0.406771
-0.614974
-0.363829
-0.171814
0.429788
-0.0664119
0.149914
-0.229106
0.347161
-0.118056
0.370068
-0.331197
0.564618
0.000293921
-0.564912
-0.167308
-0.124702
0.29201
-0.341099
0.402392
-0.0654567
0.313279
0.433368
0.310381
-0.131889
0.00770283
0.00422893
0.0133219
0.156375
-0.207788
0.0436172
0.0118296
0.137031
0.00624949
-0.419852
0.148487
0.271365
0.07925
-0.101374
0.0221243
-0.0988309
0.0823665
-0.0266066
-0.0432955
0.0699022
0.00682174
0.147235
-0.154057
0.347708
0.171765
-0.0218721
-0.750215
0.426141
-0.429502
0.22622
-0.240095
0.0138742
0.174833
0.0893214
-0.264154
0.0760452
-0.142457
0.364615
0.141083
-0.392855
0.552335
0.112506
0.197029
0.0913424
-0.22054
0.0824969
0.177468
-0.259965
-0.137545
-0.0286236
0.166169
-0.151569
0.518019
-0.36645
0.0102242
-0.354796
-0.319418
0.0254075
0.266941
-0.10869
-0.0845188
0.0579122
-0.0019412
-0.00420074
0.00614194
0.158924
0.151457
-0.342675
-0.14953
-0.0309093
-0.177492
0.224839
-0.535354
0.383785
-0.150513
-0.189031
-0.305998
-0.159981
-0.0248022
0.184783
-0.147273
0.0456368
0.17264
0.585176
-0.240349
-0.344827
-0.0222536
-0.0177167
-0.137758
0.324893
-0.15311
0.178971
-0.159761
-0.0221665
-0.101807
0.0937462
0.00567472
0.142601
-0.0783641
0.092056
-0.0136919
-0.181207
-0.472955
0.0879149
-0.0173049
-0.484237
-0.302417
0.176905
0.115639
-0.533602
0.417963
-0.170707
0.155676
-0.525233
0.196527
0.63314
-0.24468
-0.38846
-0.501557
0.312526
0.0123577
0.167713
-0.180071
-0.269596
0.741732
-0.321233
-0.420498
0.346187
0.0793464
-0.425533
-0.331054
0.121758
0.209296
0.151218
-0.126478
-0.0247401
-0.105702
0.202937
-0.0972344
0.14478
0.126016
0.343521
-0.255093
0.108188
0.146906
-0.00501972
0.00616839
-0.160374
-0.0873404
-0.333287
-0.135351
0.468639
0.310823
0.430908
0.494957
0.211301
0.0751587
-0.28646
-0.746469
0.425235
0.267938
0.108872
-0.376811
0.232882
-0.055735
-0.177147
-0.241017
-0.111116
-0.730511
0.30525
0.425261
-0.0296269
-0.127876
0.0657412
-0.0734162
0.00767502
-0.420738
0.0879206
-0.128838
0.0256158
0.164727
-0.190343
0.184724
-0.030015
-0.259205
0.122416
0.136789
-0.422989
-0.281654
0.000156397
-0.00439445
0.146213
-0.141818
0.224527
0.182255
0.108968
-0.00249755
-0.114765
0.117263
0.3766
0.119958
0.233941
-0.100212
-0.133729
0.0103853
-0.529894
0.519509
0.200974
-0.19332
-0.00765391
0.0178065
0.0897568
-0.107563
0.317681
-0.10638
0.0551219
-0.0341851
0.235159
0.002475
-0.00762197
0.00514697
-0.112754
-0.0692288
0.084488
0.311651
-0.396139
0.0744969
-0.241804
-0.013804
0.0892244
0.223313
0.127657
0.226261
0.107493
-0.426474
-0.097927
0.568158
-0.0914403
0.0130762
-0.52472
0.372695