/*--------------------------------*- C++ -*----------------------------------*\
| =========                 |                                                 |
| \\      /  F ield         | OpenFOAM: The Open Source CFD Toolbox           |
|  \\    /   O peration     | Version:  v2012                                 |
|   \\  /    A nd           | Website:  www.openfoam.com                      |
|    \\/     M anipulation  |                                                 |
\*---------------------------------------------------------------------------*/
FoamFile
{
    version     2.0;
    format      ascii;
    class       surfaceScalarField;
    location    "450";
    object      ddtCorrDdt0(phi);
}
// * * * * * * * * * * * * * * * * * * * * * * * * * * * * * * * * * * * * * //

dimensions      [0 3 -2 0 0 0 0];
oriented        oriented;


internalField   nonuniform List<scalar> 
21458
(
-0.00118473
-0.00117438
0.00235909
3.56121e-05
0.00106257
-0.00109819
0.000367791
-0.000150568
-0.000217234
0.00136506
-0.00189194
0.000526869
-0.00582709
0.00148253
0.00434461
0.00191536
-0.00215088
0.000235527
-4.02361e-05
0.000238643
-0.000198435
-0.000164093
0.000155131
8.9384e-06
5.07619e-05
-0.000660896
0.000610124
0.000543539
0.00126829
-0.00181183
-0.00325325
-0.00185003
0.0051033
0.00178486
-0.00041979
0.000305653
0.00107789
-0.00138355
0.0013543
-0.00104865
-8.49174e-05
0.000388
-0.000303089
0.000803469
-0.00067004
-0.00013341
-0.00153737
-0.00241629
0.00395367
0.000414701
-0.000398931
-1.57815e-05
0.00304886
-0.00253024
-0.000518604
-0.000156022
-0.000171511
0.000327519
-0.0003711
-0.000105157
0.000476263
0.0019453
-0.00114182
0.000362142
-0.000274978
-8.71541e-05
-0.00120626
0.00125702
0.00111452
-2.65258e-06
-0.00111186
0.0112281
-0.00131864
-0.00990943
-0.00111319
0.00165673
0.00402243
0.000719618
-0.00474203
-0.000538619
0.000453714
0.00333093
-0.000108268
-0.00322261
0.000779761
-0.00177956
0.000999792
-6.55641e-07
0.00041535
-0.000132214
-6.65768e-05
0.00019879
7.70329e-05
0.000417148
-0.000494181
-4.23591e-05
-1.73747e-05
5.97367e-05
-0.000207592
0.000272644
-6.50231e-05
-0.000199087
-0.000470925
0.00117806
-3.71885e-05
-0.00114088
-0.00431221
0.005916
-0.0016039
-0.000414647
0.000162052
0.000252614
0.000837659
0.000340402
-0.00105717
-0.000303267
0.00136037
0.00101536
-0.00067591
-0.000339446
0.00126731
0.00067795
-0.00100938
0.00153574
-0.000526371
-0.000114539
0.000114549
-0.000459446
0.00573817
-0.00527875
-0.000545569
0.000369975
0.000175615
0.00183787
-0.00291926
0.00108131
-0.000481194
0.000319024
0.000162159
0.00678651
-0.007707
0.000920486
-0.00126737
0.00127167
-4.29236e-06
0.00235454
-0.00129356
-0.00106098
-0.000129861
-0.000415703
-0.000407647
0.000779862
-0.000372236
1.71994e-05
1.19252e-05
-2.91327e-05
-0.002826
0.00207471
0.000751286
2.20579e-05
-6.44028e-05
0.000580874
0.00174049
-0.00232137
-0.00152653
0.000527566
0.000998959
0.000263895
3.90569e-05
-0.000302947
-0.000831228
-0.00195059
0.00278169
0.000393336
0.000258457
-0.0006518
0.000924143
-0.00402652
0.00310237
-0.00122558
-0.000430894
0.00165648
-0.00144607
0.000139481
0.00130659
-7.63534e-05
-3.26543e-05
0.000109011
0.00206095
-0.00360495
0.00154399
-0.000971189
-0.00455165
0.00552284
-0.00128374
0.00284225
-0.00155851
-0.00437092
0.00229933
0.0020716
0.00280798
-0.00186804
-0.000939939
0.00333585
-0.00111369
-0.00222215
0.000224432
-0.00038048
-0.000115249
-0.001091
0.00318179
-0.00200072
-0.00118107
-0.00127624
0.000698124
0.000578126
-0.00144709
-0.000256683
0.00170378
-0.0025307
0.00124696
-0.00125638
-0.00314224
0.00439863
5.57345e-05
-3.56244e-05
-2.0113e-05
0.00016483
0.000397942
-0.000562771
-0.00105313
-0.00331778
0.000518018
-0.000416746
-0.000101263
-0.000178811
-0.000830579
0.00457776
-0.0065305
0.00195272
-0.000112395
-0.000562287
0.000674652
0.000651088
0.000132289
0.000246966
-0.000379246
0.00192923
-0.000307029
-0.0016222
0.000816834
-0.00204242
0.00146642
-0.00164151
0.00017509
4.76074e-05
0.00126335
-0.00131096
0.000311299
-0.00102347
0.000712178
-0.000219015
0.000787591
-0.000568584
-0.000381132
0.00014778
0.000233345
0.00188364
4.55855e-05
0.00076956
-0.000329666
-0.000439863
0.00172696
-0.00284568
0.00111873
0.000742907
0.002588
-0.00183775
-0.000988246
-0.00358392
0.00416479
0.000161378
-0.000106001
-5.53819e-05
0.00074866
2.08972e-05
4.0636e-05
-6.02747e-05
1.96389e-05
-0.00130969
0.00223384
0.00122863
0.00157935
0.000496227
-0.000479034
-0.000232309
-0.000182335
-0.00132178
0.00121831
0.00010348
-0.000487013
0.00063521
-0.000148182
-7.50857e-05
0.00142884
-0.00135383
0.00204764
0.000306912
0.0108844
0.000343673
-0.00140996
0.00169301
-0.000283086
-0.000423005
0.000307782
-0.00114859
0.0003172
-0.000153383
0.000383701
-0.000230328
-0.000724362
0.00477345
-0.0040491
0.000246059
-0.000169012
-0.00011044
0.000179205
-6.87711e-05
0.00202744
-0.00124768
0.000389532
-0.000466844
7.73025e-05
-0.00268473
0.0027101
-2.5377e-05
-0.000130587
8.32024e-05
4.73857e-05
-0.000708791
0.00094321
-0.000234405
1.36329e-05
-4.8929e-05
3.53498e-05
-2.71303e-05
4.14907e-05
-1.43649e-05
0.000297364
0.00177735
3.3641e-05
1.40919e-05
-4.77321e-05
-0.00445186
-0.000228732
0.0046806
0.00207946
-0.000117305
8.61356e-05
3.11882e-05
0.00202753
-0.00237121
0.000343679
-0.00420475
0.00161076
0.00259397
-0.00761312
0.0100353
-0.00242217
-0.000409817
0.000155809
0.000254027
0.000994841
0.00579167
0.0014991
-0.00199885
0.000499751
9.35893e-05
-0.000173666
8.00692e-05
0.00177104
-0.00202529
0.000254254
0.000120322
0.000895041
0.00225125
-0.00123986
-0.00101146
0.000891683
-0.000498352
0.000294371
0.000223663
-0.00212134
0.00306211
-0.00094077
-0.000707201
0.00064199
6.52101e-05
-0.00224385
0.00106918
0.00117465
-0.000408634
0.000288734
0.000119905
0.000373619
-0.00059264
-0.000184442
0.000552229
-0.000328946
0.000157412
-0.00341936
0.00391064
-0.00049129
-0.00474648
0.00320912
-0.000720914
0.000841328
-0.000787018
0.00172664
-0.000939624
0.000309868
0.000256848
-0.000566746
0.00544621
-0.00519349
-0.000252722
0.000143339
-0.00159044
-0.00243926
0.00165225
0.00218648
-0.00165968
-0.000526803
0.00138111
2.89747e-06
-0.00138402
0.0038534
-0.00204995
-0.000955346
0.00300529
0.00516993
-0.00562938
6.07412e-06
3.74334e-05
-4.34946e-05
0.0011134
-0.0011885
-7.15282e-05
-0.00040965
-0.000341095
-4.00347e-05
-6.35539e-06
-0.000123278
0.00012961
-0.00113306
0.000954246
0.000165712
-0.000573398
0.000519004
0.00425445
-0.000173394
0.000432225
-0.000258868
0.00400329
-0.00742073
0.00341748
0.000159227
0.000703364
-0.000862622
-6.64476e-05
-0.000229161
0.000295606
0.00287356
-0.00501216
0.00213859
0.000581032
-0.000372281
-0.00020874
-0.0104995
0.00288631
-8.19631e-05
0.000306398
-0.000461289
0.000307932
0.00163817
-0.000171759
-0.000194344
-2.35737e-05
0.000217923
0.00869929
-0.00747363
-0.00122563
0.000106384
-0.00116354
-0.00137654
0.00175206
-0.00037552
-0.0132906
-0.00445834
0.0177489
0.000535777
0.00171548
-3.22428e-05
9.95151e-05
-6.72777e-05
-0.00168109
-0.00162153
0.0033026
0.000505604
-0.000276066
-0.00022952
8.0272e-05
-0.000120505
-0.00171217
0.00172335
-1.11809e-05
0.00152445
-0.00325533
-0.00300716
0.000313639
0.00269351
0.000451174
-0.000364054
-8.71018e-05
0.000131821
-0.000305216
-0.000668498
-0.000741447
0.000422133
-0.00487399
0.00205521
0.00775432
-0.00980953
0.00483266
-0.00179861
-0.00303399
5.88716e-05
0.000189321
-0.000456937
0.000267607
3.4419e-05
-0.000444144
-0.00426908
0.00324578
0.00102329
0.000284891
-0.00035133
0.000864333
0.00783497
-0.000266124
-0.0023008
0.00256693
-0.00227613
0.00108871
0.00118739
-0.000626526
-0.000112734
0.000739239
-9.87961e-06
-6.64464e-05
-0.00017116
0.00033999
-0.000168833
-0.00211481
0.00117917
0.000935638
0.00110854
0.00134803
-0.00245657
0.000104355
-3.37843e-05
-7.05655e-05
-0.000222678
1.51025e-05
0.000201291
-0.00405248
0.00385119
-0.00540107
0.00430296
0.00109795
-0.00212652
0.00227064
-0.00014412
0.00228174
0.00173901
-0.00402075
0.000188389
0.000200894
-0.000389268
0.00306648
-0.000798811
-0.00226772
-0.0015792
0.00208707
-0.000507878
0.000202826
-0.000241742
3.89153e-05
-0.00031233
-0.000174696
-0.000923616
-0.000223556
-0.000808248
0.000695843
0.00162486
-0.00110159
-0.000523251
0.000185879
3.45801e-05
-0.000220498
-0.00189368
0.00638475
-0.00449107
0.000917194
-0.000788055
-0.000129138
-0.00109162
-0.000768746
0.00186037
-0.000397338
0.000586662
-0.000682035
0.000693959
0.000581156
-0.000612532
3.13559e-05
9.86902e-05
0.000136613
-0.000235286
-0.00122537
-0.00187319
0.00309856
-0.00222415
0.000644942
-0.000330692
-0.000688569
0.00101926
-0.00081982
0.00132542
-0.00022649
0.00134096
-0.00122134
0.00244547
-0.00122414
-0.00291581
0.00264968
-0.000141398
0.00015054
-9.14171e-06
0.000380879
-0.000248568
0.0038159
-0.00399886
0.000183027
0.0019799
-0.000867057
-0.00111285
-2.8862e-05
-0.000135239
0.00164469
0.000883307
-0.002528
-6.46594e-05
1.43367e-05
5.03312e-05
-6.02336e-05
-7.03414e-05
0.00130255
0.00067735
-0.00751326
0.00489191
0.00262135
6.36936e-05
-0.000116286
5.26652e-05
0.0044813
-0.000458869
7.34091e-05
-7.60729e-05
0.00360034
-0.0032382
0.0005483
-0.00369053
0.00130727
-0.00250473
0.00119746
0.00146156
0.000261795
0.00258536
-0.000557823
-0.000344994
0.000315249
2.97179e-05
0.00312493
-0.000921504
-0.00220342
-0.000122573
-0.00022249
-0.000862837
0.00314457
-0.00122549
0.00189376
-0.000668275
0.00367278
-0.00161183
0.00110156
-0.00322289
1.30476e-05
6.21272e-07
0.000145891
-0.00119603
0.00105014
0.000720336
-0.000375888
0.000351308
0.000229716
-0.00101049
0.00205785
-0.00104736
-0.00239407
0.00082705
0.00156703
0.000170742
1.64301e-05
-0.000187156
-0.00272296
0.00119757
0.00152539
-0.000932314
-0.00155967
0.00249198
-0.000373511
-0.000368946
0.000742454
0.000473503
0.000247458
-0.000720963
-0.000850439
-0.00158882
0.00374851
0.000650121
0.000101348
0.000230284
-0.000331631
0.000346004
-0.000247301
-0.00118016
0.00165565
-0.000475539
0.000308745
0.000411592
-0.000122566
-0.00160967
0.00173223
0.00174691
-0.0018925
0.000145594
0.000405998
0.000391896
0.000101352
-2.74142e-05
-0.00273334
-0.00147143
0.00190629
9.06573e-06
-0.000311185
0.000476901
-0.00204256
0.00125383
-0.000608023
-0.000645805
-0.00128016
0.00335539
-0.00207523
7.12639e-06
-1.0424e-06
-0.00108658
0.00355353
-0.00246697
-4.85933e-05
-0.000122564
0.00192256
-0.00204132
0.000118756
-4.08762e-05
-0.000210739
0.000251632
-0.00215979
0.000561633
0.00159816
-0.00087782
-0.00317467
-0.000224884
0.000178185
4.67056e-05
0.00517338
-0.00544814
0.000274762
6.04601e-05
0.00477221
0.000685984
-0.000197142
-0.00048884
-0.000879964
-0.000534882
0.00141484
-0.00218294
5.64157e-05
-0.0037287
0.000475469
-0.00366867
0.00216483
0.00150382
-0.000505406
0.000211633
0.000293773
-0.000730234
-0.000495135
0.000550075
-0.000240212
-0.000392839
0.00467343
-0.00611116
0.00143772
0.000310119
-0.00015092
-8.90526e-05
0.000160066
-7.10209e-05
-0.000343891
-0.00028264
-0.000208791
8.37315e-05
0.000125106
0.000743658
0.00088122
-0.000379815
-0.00102613
0.00140594
0.00425221
-0.00134111
-0.0029111
0.000374278
-4.18839e-05
-0.000332383
0.000139517
-0.00049402
0.000354501
-0.00505507
-0.000771977
-0.00139809
0.00187817
-0.000480077
-0.000247807
-7.19992e-05
0.000319802
-0.000882562
0.000161651
0.00161854
-0.000809516
-0.000809015
0.00104406
-0.00405123
0.000553508
0.00036369
-3.72294e-05
0.00428944
-8.5527e-05
-8.56221e-05
0.000171137
-0.00191468
0.000431142
0.00148355
-0.00065821
0.00171758
-0.00105937
-0.000984385
0.00199521
-0.000800471
-0.00119474
0.000608724
-0.000952341
0.000343609
-0.000720074
-0.000725992
0.00172156
0.000184742
-0.000160714
2.84946e-05
-0.00210741
0.000881927
-9.87492e-05
9.85565e-05
2.20952e-07
0.000866024
0.00100203
-0.00186806
0.00180839
-0.00348949
-3.47941e-05
-6.39476e-05
0.000133118
0.00186208
-0.00103315
0.00108074
-0.00024486
0.000718361
-0.000806425
-0.000720103
-0.000490189
0.000117368
0.000372824
-0.00455719
0.00354669
-8.73119e-06
9.21233e-05
-8.34054e-05
-0.000847531
0.000253376
0.000594178
0.00144648
-0.0021076
0.000661121
0.00018029
-0.000889077
-0.000225205
-0.000338659
0.000563889
0.000436659
-0.000132576
-0.00030406
0.00336548
-0.00149189
-0.00187359
0.00247532
-0.00232082
-0.000154499
1.36533e-05
-0.00164524
-0.00107772
-0.00036156
-0.000411398
0.000772958
0.00274
-0.00157093
-0.00116901
0.000201253
-0.000605688
0.00040444
-0.00202279
0.0006247
-0.001376
0.00290795
-0.00153195
-0.00265739
0.0049264
-0.00226902
-0.000588793
-0.00142069
0.00200948
-0.00126405
5.57823e-05
0.00120827
-0.0111473
0.00130466
0.00984264
0.00114561
-0.000802722
-0.000342887
0.00258536
-0.00127806
0.00199574
0.00177269
-0.00172192
-5.07714e-05
0.0019751
0.00167671
-0.00365181
0.000407887
0.000845959
-0.000231416
-0.000475787
-5.71624e-05
0.000368456
-0.00690509
-9.36991e-05
-0.00118641
0.00129323
-0.00188201
9.31163e-05
-0.000639929
0.000546842
-0.000120353
0.000177761
-5.73908e-05
-0.000261521
0.00157313
-0.00131161
-0.000402308
0.000444182
-4.18842e-05
-1.75768e-05
-0.00229817
0.00231574
-9.10786e-05
-0.00146135
0.00155242
0.000197801
-0.000314114
0.000116326
-0.00261661
-0.000444533
0.00306116
8.7619e-05
-0.000129472
4.18565e-05
-0.00742548
0.00948069
-0.000982729
-0.0012934
-0.00806143
0.000198519
0.00786287
0.000942536
0.00580868
-0.00675126
-1.23745e-05
-0.000235448
7.01184e-06
-6.67386e-05
5.97009e-05
0.000793162
0.00139333
-0.000752847
0.000898736
-0.000751701
0.00173799
-0.000986283
0.000674806
-0.000511038
-0.000163756
0.000381117
0.00023128
-0.000612387
-0.000477479
-0.000402468
6.63163e-05
3.80418e-05
0.00209233
-0.000169767
0.000984788
0.000853049
-0.000276703
-0.000570832
-0.00214027
0.000816204
0.00132407
-0.00163792
0.00310629
-0.00146836
-0.000362849
0.00016851
4.58439e-05
-3.88398e-05
0.0023525
0.000648803
-0.00300125
-0.000170701
0.000184298
-1.36055e-05
0.00231381
-0.00493043
-0.00405644
0.00278908
1.43582e-05
4.13702e-05
-0.0037595
0.00508932
-0.00132983
-0.000300918
-0.000222894
0.000523803
-9.3105e-05
0.000128708
-0.00921863
0.0125061
-0.00328744
0.00203863
0.000610856
-0.00264948
-0.000259418
2.39409e-05
0.00118562
-0.00120957
-0.000736452
0.000423644
-0.000249172
-0.000174448
-0.00170781
-0.000206878
-0.00283983
0.00137295
0.00146707
0.00171407
-0.0039201
0.00220603
0.000984803
-0.000283015
0.000118516
0.000164576
0.000777896
-0.000363807
-0.000414075
-0.000482645
0.000506583
0.000648211
-0.00234125
0.00169304
-0.00176081
-0.000398973
0.0014805
-0.000679114
7.65417e-05
0.000297755
0.00202999
-0.00119933
-0.000830651
-0.00112636
5.33958e-05
-0.00219366
-0.00141706
0.000933812
0.000483257
0.000189105
0.000234536
0.00138943
-0.000688394
0.00113958
-0.000674465
0.00123622
-0.000561876
0.00114206
-0.00119425
-0.000127542
-1.4435e-05
-0.000308532
0.000322963
3.77101e-05
8.27653e-05
-0.00399016
-0.0040713
0.00355227
-0.00365716
0.000104881
0.00118339
-0.00151408
6.97885e-05
-0.000149994
8.02088e-05
-0.00389842
0.000479077
0.000418029
-0.00015414
-0.000966477
0.00261117
0.000311361
0.00156913
-0.00188048
-0.000102865
-0.00258187
-0.000311827
0.000142386
0.000169462
5.43979e-05
6.22832e-05
-0.000116706
0.00473968
0.00208971
-0.00682939
-0.000488455
-0.0031802
-0.0128327
0.0036141
0.000127051
-3.94329e-05
-5.89041e-05
-0.000242015
-0.00116544
6.6312e-05
-0.000854369
-8.73684e-05
2.73509e-05
1.32681e-05
-2.27501e-05
-4.1902e-05
0.000733643
-0.000532388
0.000354148
0.0017765
-0.00213065
-0.00027838
0.00360107
-0.000534626
0.00261124
-0.00258813
-2.31053e-05
-0.000158
0.00013919
1.88167e-05
0.000901083
0.000871575
-0.00188292
0.00391292
-0.000162282
-0.000246349
0.00149008
-0.00161265
0.00146387
-0.000919326
-0.000544554
0.00407649
-0.000614117
-0.00346233
0.001147
-0.00101265
-0.000134358
0.000310309
0.000158436
-5.54232e-05
-0.000103006
-0.00151316
-0.00209179
-0.00609033
0.0133474
-0.00725728
0.00109951
-0.00232087
0.000779898
-0.00166871
0.000888798
-2.43404e-05
0.000158466
-0.000134153
6.4663e-05
-0.000235343
0.00252785
-0.00080089
-0.000116883
2.34288e-06
0.000254106
-2.83203e-05
-0.000225781
-0.00277291
0.00158817
-0.00202877
0.00173793
0.000290827
0.00417697
0.000833266
-0.00501024
-0.000635663
0.000790782
-0.000155113
-4.19471e-05
-0.00133458
0.00548465
-0.00130768
-0.000778292
-8.04108e-05
0.000858716
0.000342933
-0.000654126
0.000288603
-0.0014948
0.00120619
0.000860693
-0.00124051
-0.000192157
0.000965977
-0.000773824
-0.000569898
0.000767702
0.000416801
-0.000740363
-0.000535872
-0.00237632
-0.000766833
-0.000497229
-0.00106636
4.28843e-05
0.000156255
0.000885112
-0.00104137
-0.000231266
3.71304e-05
0.000194134
-4.73761e-05
-6.30437e-05
-4.23007e-05
0.000143654
0.000234009
-0.000429444
0.000195393
0.00541437
-0.0067829
0.00136847
0.00159308
-0.00216304
0.00056996
0.000748234
0.00442515
-0.00266526
0.00286342
-0.000198154
-0.00070846
-0.000376488
0.000757592
0.00218822
0.00264354
-0.00199533
-0.000205867
-0.000118187
0.000324013
7.3525e-05
-0.000385352
-0.00359144
0.00514897
-0.00155754
0.00013598
0.000978788
-0.00111476
-0.000157613
0.000333894
-0.000176312
0.00049173
0.00110135
-0.00978943
-0.00334354
0.013133
0.0014707
-0.00115934
-0.000439406
0.00100103
0.000239167
-0.0027694
-0.00230531
-0.000397443
0.00270278
-0.000909433
-0.000160936
0.00107037
0.00095883
-0.00379866
-0.000151337
0.00209638
-0.00194504
-0.000170943
-1.10397e-05
-0.00192173
0.00193278
-0.000486626
0.000209914
0.000276717
-0.00524483
0.0043917
0.000853134
0.000136588
-2.53354e-05
-0.000179332
0.000788054
0.000126311
-1.22417e-05
0.00079015
9.90559e-05
-0.000585672
-0.00109014
-6.9266e-05
0.00115939
0.00172718
0.00227612
0.000246225
5.28371e-06
-0.000251516
0.000541404
-9.72329e-05
-0.00336266
0.00408227
-0.000930114
0.000322108
-0.000476982
0.0027233
-0.00224632
-0.000119279
-0.000105605
0.00194236
-0.00200556
6.31836e-05
0.000184133
-5.9453e-06
0.00253331
0.000591611
0.00234903
-0.00254982
0.000200801
-0.000404347
0.000325381
7.90107e-05
0.0011738
-0.000182276
-0.00360262
-0.000283708
0.00301859
-0.0027349
-0.000213188
-1.80811e-05
0.00034771
0.000398494
0.000366359
-0.00077075
0.000127561
0.000118662
0.00158955
-0.00183175
0.000242195
0.00192995
0.000422378
-0.000219059
-0.000559228
0.00202114
-0.0017756
-0.000245545
0.00583822
-0.00595167
0.000113446
1.48332e-05
-0.000124729
0.000109898
-0.00127722
0.00121839
5.87683e-05
-0.00171885
-0.00129756
0.00301643
-0.00112845
0.000130395
-7.95055e-05
-5.09087e-05
0.00415511
-0.00263371
-0.00152139
-0.000594183
-0.000324373
0.000918549
-0.000446585
-0.00155603
0.00200263
-0.000143208
0.000186126
-1.99648e-05
-0.000166159
-0.00347543
0.00185389
-0.00215561
0.000132814
-0.00133354
-0.00391128
0.000821582
-0.000748281
5.83975e-05
-3.75106e-05
-2.08951e-05
5.18887e-05
0.000639409
-0.000691304
-0.00135685
0.0045095
-0.00315266
-0.00113425
-0.000179619
0.00131387
-0.00422873
-0.00714193
0.0113707
-1.77447e-05
0.000140149
-0.000122414
0.000188403
-0.000293858
0.000780336
-0.000486505
0.00101391
-0.000959562
0.00263415
-0.000703266
-0.00193088
0.000342403
-0.000218795
-0.000123633
0.00831002
-0.00736748
0.00320524
-0.00545736
0.00225212
0.00251556
-0.00080148
-3.41014e-05
-0.0016394
0.000505161
-6.06867e-05
0.00240972
0.000112338
-0.000128077
1.57116e-05
0.00240983
-0.000409459
-0.00200037
0.000550881
-3.32949e-05
-0.000517615
0.00195981
-0.00230699
0.00034718
0.000905373
0.000817349
-0.00172273
0.000694137
-0.000270294
-0.000423831
0.000470298
-0.000160235
-0.000551415
0.000603308
-0.00185812
-0.000297489
3.14824e-05
-0.00722166
0.00719001
0.00140386
1.57248e-05
-0.00141959
-0.000338363
0.00068132
5.48167e-06
0.000180651
0.00187022
-0.000251677
-0.000132006
-0.000470969
-0.000164691
0.0020952
0.000538939
-0.00124853
0.000187427
-2.8977e-05
-0.000320984
5.51269e-05
0.000265863
-0.000325635
-0.000740707
-0.00149506
0.00330345
-0.00187325
0.000802969
0.00107028
0.000223336
-5.85108e-05
8.4147e-06
4.99714e-05
0.00625495
-0.00415379
-0.00210117
0.00168466
-0.00232978
0.000645119
-0.000249224
-7.17665e-05
-0.000154993
4.02875e-05
0.000114704
0.00542448
0.000413732
-0.0043129
0.00247157
0.00184134
4.02106e-05
2.34967e-05
-0.000368528
0.00411703
0.00256104
-0.00305234
0.000267341
-0.000516559
-0.00444963
0.000858198
-0.00110572
0.000196292
-2.5127e-05
3.99669e-05
0.00223527
-0.00151082
-0.000724477
-0.000480034
0.000911877
-0.00043186
0.000888169
-0.000862165
-2.59988e-05
0.000973401
-0.00141998
-0.0020782
0.000764635
0.00131357
-0.00418539
-0.00234511
0.000296196
-0.000241064
-0.000264339
0.00120432
-0.000683499
0.00368273
-0.00299923
0.00250758
-0.00215344
0.00646173
-0.0017883
0.000308252
-0.000310424
2.1775e-06
-0.000719282
0.000241782
7.25588e-05
2.88045e-05
7.5852e-05
3.8417e-05
-6.67187e-05
0.00321821
-0.00175426
-0.00146396
-0.00126631
-0.000343378
0.000116437
0.000569532
-0.000512363
3.23011e-05
-0.0158814
0.0134592
0.000361576
0.000748487
-0.00111008
-0.000188132
-8.89953e-06
0.000197017
9.47878e-05
-0.000112541
0.000148392
0.00252196
-0.00267037
0.000871172
0.00160415
0.0005059
-0.000117898
0.00852404
-0.00693922
-0.0015848
-0.00490426
0.00366427
0.00250553
-0.00237199
-0.000133545
0.00361419
0.000743103
-0.00435733
0.00159473
4.34467e-05
0.000873023
0.000590841
-6.01637e-05
4.77737e-05
-0.000891174
0.000297
0.00176108
-0.000383949
-0.00137713
0.000856014
-0.000161858
0.00089402
0.00111439
-0.00072485
0.00133536
-0.00226768
0.0011432
-0.00388073
0.00273752
0.000617369
-0.00601059
0.00503939
0.000364959
0.000185904
0.00259003
-0.00412368
0.00124283
0.00288085
0.00640265
-0.00043061
-0.00597205
-0.000219287
-6.37994e-05
0.00207151
-0.00194336
-0.000128141
0.000545508
0.00196003
0.00132811
-0.0022494
0.000921299
0.0017079
-0.00135026
-0.000357619
0.00552342
0.000731538
-0.0023009
0.00168191
0.000619005
-0.00125429
-0.00174206
0.00299635
0.000789887
0.00465633
-7.91481e-05
-0.00022359
0.000302694
-0.00138756
-0.000673357
-0.00146085
-0.00108508
0.00144665
-0.000113817
-0.000605435
-0.00468142
0.000147565
0.000158828
-0.000306401
0.000444026
-0.00062951
0.000185479
0.00398398
-0.00227118
-0.0017128
-0.000328159
0.00142154
-0.00109338
0.00290369
-0.00167569
-0.001228
0.000820493
-0.000397182
-0.000423295
-0.000201708
0.000236113
0.000974393
0.00221036
-0.00206979
-0.000140565
-0.00348502
0.000827632
-0.00578713
0.00132874
0.0011343
0.000448444
-0.00158274
-0.000926251
0.000632377
0.00292663
-0.00271192
-0.000214717
0.00196972
-0.00576534
0.00379562
0.000665469
-0.000885645
0.000220173
-0.00080181
-0.000296731
0.00109855
0.00180705
0.000338512
-0.00214556
-0.00216975
0.0020184
0.000115836
3.92153e-05
-0.000155046
0.000570491
-0.00130071
0.000214621
-4.25561e-05
-0.000172066
1.29972e-05
2.29171e-05
-3.59397e-05
-0.000171112
0.000182413
-1.13248e-05
-8.54144e-05
-6.95726e-05
0.000132631
-9.90046e-05
-0.00013611
-0.000381092
0.000517169
0.00219512
0.000544952
-0.000629288
0.00286456
0.000188498
-0.000220747
0.000243598
-0.000638007
0.000394385
-0.000182065
-3.11338e-05
0.000150071
4.98343e-05
-3.68361e-05
0.000600457
6.50015e-05
-0.00101655
0.000640054
-0.00630493
0.00189486
0.00441006
0.000273591
0.00250837
-8.64086e-05
-0.00104686
-0.00125847
0.00491634
0.0014684
-0.000357782
3.25226e-05
0.000381558
-0.000414076
0.000544211
-0.000680287
0.00158874
5.9792e-06
0.00140718
-0.00085546
-0.000551728
-0.00157317
0.00184631
-0.000273148
-0.000264068
-0.00050492
0.000768998
0.000184811
-0.00107596
-0.000327513
0.00120914
-0.00088161
0.000502561
0.00012936
-0.000631908
0.000750795
-0.00059454
-0.00101357
-0.00128733
0.000201896
-0.000326906
0.000124991
-0.00103265
0.00355693
-0.00252429
0.000171648
0.000248464
-0.000420105
0.000305003
0.000902964
0.0035347
0.000444637
-0.00336375
0.000961041
0.00077879
-0.00173983
0.00168286
-0.00144403
0.00026963
0.000364815
-0.000121211
-0.000117077
9.55051e-05
2.15746e-05
-0.000482667
-0.000533889
-0.0020292
2.3646e-05
-0.00038223
-7.90657e-05
-0.000573104
0.0017547
-0.0011816
0.000411828
0.000531963
-0.000870317
0.00118987
-0.00186374
0.000673851
-0.00161492
-0.00469001
0.000119422
-0.000116536
-2.918e-06
-0.00128121
-0.00104858
0.00127143
-0.000573299
0.00375405
-0.00377028
1.62318e-05
-0.000956991
0.00150603
-0.00259668
0.00109065
-0.000153305
3.29485e-05
0.000984046
-0.00024114
-4.0155e-05
-7.69228e-05
0.00173345
-0.000143912
-0.00171156
0.0134332
-0.00490915
0.000105298
-0.000194233
8.89272e-05
-0.00721247
0.00298449
0.00422798
-0.000438615
0.00197191
-0.00153331
0.00248346
-0.00236843
-0.000115027
0.000595434
0.000655544
-0.000243938
-0.000411759
-0.000996187
0.000229362
-0.0037559
0.00409434
-0.000338441
-0.000133636
-7.70985e-05
-0.000496099
-0.000375957
0.000872061
-0.0104208
0.012912
-0.0024912
6.59135e-05
5.35131e-05
-0.00146089
0.00105343
0.000407454
6.59705e-06
0.000208027
0.000164088
-5.87862e-05
1.16188e-05
-0.00096397
0.00234751
-0.00177702
-0.00329783
0.00154728
-0.000412986
-0.00152098
0.00262953
0.00164967
0.00192098
-0.00357068
7.63983e-05
5.06558e-05
-0.0013086
0.000256782
0.00105185
0.00113841
0.0026775
0.00020859
0.000235429
-0.00129305
-0.000857839
0.000249259
-0.0013409
0.00265198
-0.00277781
0.000125833
0.000238678
-0.000189917
0.00185031
-0.00166039
-0.00144638
-0.00045015
6.79113e-05
0.000185754
-0.00196742
0.00178166
0.000141717
0.000213532
0.00132221
0.00189288
-0.00182183
-7.10316e-05
0.00679857
-0.00610395
-0.000694637
0.000417126
0.00147577
1.26379e-05
0.00269746
-0.00121336
-0.000901454
0.00106833
-0.000238189
-0.00083014
-0.000954321
6.82309e-05
0.000886082
0.00345185
-0.00154141
-0.00191045
0.00139693
-0.00504529
0.00364841
-0.00238904
0.00191206
-4.06596e-05
-2.473e-05
6.5386e-05
0.00791918
-0.00430504
-0.00295047
-0.000805438
-0.000139715
0.00219757
0.000188175
0.000100549
0.00218502
-0.000856909
0.000486002
0.00102811
-0.00151393
-4.48064e-05
-7.17402e-05
0.000304271
-0.000395352
-0.00404087
-0.00113466
0.00174552
0.000580036
-0.00172873
9.35648e-05
-1.71608e-05
0.000891823
-0.000755837
0.00049558
-0.000697207
-0.0021511
0.000889475
0.00126162
-0.00121006
1.58356e-05
-0.000119491
0.00026101
-0.000141523
0.00123877
-0.000612307
-0.00062649
0.000124033
-0.00212401
0.00369553
-0.00157152
0.000206983
0.00095376
-0.00116074
0.00236302
-0.00127495
-0.00108807
0.000116749
0.00063192
0.00120409
0.00224776
0.000468826
0.000351682
9.53379e-05
5.80453e-05
-0.000229186
0.000386797
-0.000211713
-0.000175097
-0.000113011
0.000107175
5.86841e-06
-0.00156165
-5.61637e-05
0.00161782
-0.00424861
0.00633832
0.00257368
-0.00122565
-0.00214447
0.000582816
0.000597316
-0.00038101
-0.00115519
0.00153619
-0.00018466
0.00107751
-0.000892854
-0.000607493
0.00254691
-0.00223328
-0.00101753
-0.00166077
0.00267829
0.000549129
-0.00104523
0.000650264
-0.000146824
-0.000503444
-2.39162e-05
0.00103781
-0.000913252
0.000438976
0.000474261
-0.00107316
0.000435173
-0.00658069
0.00945426
0.00106968
-0.00184348
0.00077379
7.04159e-05
-5.63311e-05
-0.00100244
0.00319444
-0.000284417
-0.00102417
0.000291101
0.00135853
0.00211119
-0.00020424
-1.1862e-05
-4.33235e-05
5.51801e-05
0.00157454
-0.00136102
-0.00249152
0.00363473
-0.00309882
0.0022929
0.000805927
0.000217514
0.000180425
0.000226607
-6.25266e-05
2.70324e-05
-0.000116091
-0.00247377
-0.00102751
0.00051515
0.000498965
-0.000466424
0.000220267
0.00012211
0.000142079
0.000568993
-0.000711064
-0.000527882
-0.00224504
0.0124009
-0.00464654
-0.00260557
-0.00151812
-0.00331777
0.00151535
0.00180241
0.00208527
-0.000495409
0.000246246
-0.000902377
-0.00410982
7.56143e-05
0.000151001
0.000105688
-1.42413e-05
7.33673e-05
-0.00528348
0.00460003
-0.00186778
6.43823e-05
0.00180339
0.000477344
-0.000749668
0.000272326
0.00143883
-0.000583384
-0.000855461
0.0061864
-0.0122769
0.00186044
0.00537143
0.00305696
-0.00842837
1.36547e-07
-0.000106134
5.46611e-05
3.06668e-05
0.00143076
-0.00146142
-0.00232057
0.000329916
-0.00150289
0.00117296
-0.00293849
0.00166124
-0.000784246
-0.00178006
0.00256431
0.00045098
0.00204749
-0.000472954
5.90437e-05
-1.75584e-05
4.15575e-05
0.00270611
-0.00274766
0.0015495
-0.000237974
-0.00131153
-0.0112861
0.00149666
-0.00658542
0.00101518
0.00557024
-0.000669527
-0.00242929
-0.00455506
0.00458651
0.000731449
-0.00132786
0.000596389
0.0018786
-0.000441842
-0.00143692
-1.25982e-05
4.47562e-06
8.11979e-06
0.00170662
2.46441e-05
-0.00173133
0.00010468
0.00064066
0.0007665
0.00231594
-0.00107034
-0.00116211
0.00223245
-0.00237603
0.00243649
5.21433e-05
-0.00153802
-0.00504739
0.000327216
0.00116825
-7.87117e-05
0.00115496
-0.00107625
-9.79575e-05
-0.000283066
0.000442302
-7.01023e-05
-0.000372188
-0.000725819
-0.00152077
0.00224659
-0.00123945
-0.000911656
-2.93176e-05
4.3887e-05
-1.45812e-05
0.000103161
9.18078e-06
9.33881e-06
0.004765
-0.0090136
0.000232635
3.77266e-05
-0.000270365
7.15416e-06
-7.15865e-06
-0.00242476
0.000518239
0.00190652
0.000168332
-0.000308046
0.0106705
-0.0139691
0.00329858
-0.000165931
-0.00170732
-0.000130433
4.47977e-05
0.000110962
-0.000278049
0.000167117
0.00410159
-0.0152489
0.00094847
-0.000471125
0.000656806
-0.0058503
-7.79652e-05
4.35152e-05
3.44345e-05
0.00609448
-0.00297442
-0.00312007
0.000397545
0.00115196
0.000362524
2.71463e-05
-0.000389641
0.000111889
4.3223e-05
-0.00191263
0.00641039
-0.00449779
0.0123844
-0.00558593
-0.00209299
0.00156662
0.000214916
-0.00183104
0.00161612
-7.19792e-05
-0.000187905
-0.000350705
-0.00196974
-0.00129336
0.000203224
0.000175726
-0.00557677
-0.00156959
0.00263926
-0.000110833
0.000231895
-0.000121004
0.000884396
-0.000304572
-0.000274477
0.000806462
0.00190944
-0.00176106
-0.00101111
-0.000449774
-0.000806092
-0.00108751
0.0018936
0.000792917
-0.000534825
-0.000258108
0.00105445
0.00431699
0.000875932
-4.47345e-05
-0.000831204
0.00156661
-0.00120413
-0.000696516
-0.000376641
-0.000156821
-0.00430649
0.00237588
0.0019306
0.000343402
-0.000799405
0.000455973
-0.00238186
0.00265938
-0.000277527
0.00107657
0.00165637
0.00232761
0.000114281
0.000117244
-0.000231499
-0.000150018
-0.000846175
-0.00121754
0.00131082
-9.32769e-05
0.000139127
-0.00014787
9.08864e-08
-0.00173642
-0.0020711
0.00108835
0.00715867
-0.000859206
-0.00629935
-0.00156706
-0.000314137
0.0011044
-0.000790263
0.00253909
-0.00336321
0.000824219
-0.000230521
0.000381054
0.000825411
-0.000550723
-0.000274696
-8.65534e-05
-0.00229531
0.00100977
0.000235873
-0.00034668
-7.74063e-05
-0.000137757