/*--------------------------------*- C++ -*----------------------------------*\
| =========                 |                                                 |
| \\      /  F ield         | OpenFOAM: The Open Source CFD Toolbox           |
|  \\    /   O peration     | Version:  v2012                                 |
|   \\  /    A nd           | Website:  www.openfoam.com                      |
|    \\/     M anipulation  |                                                 |
\*---------------------------------------------------------------------------*/
FoamFile
{
    version     2.0;
    format      ascii;
    class       volScalarField;
    location    "150";
    object      ddt0(k);
}
// * * * * * * * * * * * * * * * * * * * * * * * * * * * * * * * * * * * * * //

dimensions      [0 2 -3 0 0 0 0];


internalField   nonuniform List<scalar> 
13308
(
2.70063e-08
8.81888e-08
-2.91426e-05
5.94753e-08
-3.80729e-08
1.15035e-08
-2.85051e-08
-1.66753e-06
-1.07789e-08
-5.04694e-08
-2.36536e-08
3.73302e-06
2.37061e-05
-4.95341e-08
-8.71826e-09
2.46027e-09
3.59386e-09
-7.86972e-09
3.90951e-08
5.94954e-08
-3.018e-08
2.93555e-08
1.04426e-08
-1.36269e-05
-1.45283e-05
7.1262e-09
-3.6317e-05
4.47974e-08
-4.12794e-06
-1.21781e-08
3.16726e-05
-0.000105847
3.23249e-05
2.07761e-06
3.65959e-08
3.79347e-08
1.15064e-08
9.41775e-09
-4.36409e-09
1.08855e-08
3.27654e-08
-2.90842e-08
-3.97872e-06
1.58501e-08
-9.21732e-05
1.40492e-05
3.36909e-08
7.3451e-08
-3.94638e-08
5.87504e-08
2.69218e-05
1.00417e-07
-8.19685e-09
-9.15103e-06
2.27955e-08
-2.63823e-08
-4.87566e-08
-3.00957e-08
-3.92043e-08
4.47624e-08
-1.53317e-09
-2.86334e-08
-7.1894e-09
-2.35048e-09
-3.52567e-08
1.7388e-08
9.01713e-08
-3.62862e-05
-4.25913e-05
-1.38878e-08
2.33649e-09
3.72842e-09
-1.41484e-08
-2.97022e-08
1.22174e-08
-4.183e-08
-1.59582e-06
-5.69783e-08
3.5869e-05
2.56557e-08
-1.69892e-08
2.55886e-09
4.085e-08
-1.27817e-07
-9.42896e-05
-2.13405e-09
4.71048e-08
1.35346e-08
3.11913e-08
3.9816e-08
-8.54314e-09
2.29465e-06
-1.00854e-07
9.58608e-08
-8.01784e-09
-8.56879e-08
-1.22053e-08
-1.62363e-07
1.25468e-08
-4.10782e-09
-1.53752e-08
1.30072e-07
3.00567e-08
-2.31297e-08
5.98117e-08
1.2301e-08
1.28942e-07
4.51799e-08
3.09362e-08
1.76672e-05
-7.72186e-09
-0.000104889
-9.39105e-09
-6.45183e-06
-1.46627e-08
2.50934e-05
5.1681e-09
1.03752e-08
4.15386e-08
-6.82911e-09
-7.87482e-09
-3.37702e-08
2.02919e-08
1.33807e-08
-7.63108e-07
1.56965e-08
-8.64696e-05
-1.50518e-07
-8.75223e-08
-2.18419e-05
-3.35024e-06
7.97818e-09
3.00068e-08
4.38644e-08
-2.38328e-08
6.0479e-09
-2.70881e-09
3.31776e-08
2.16821e-05
-5.13774e-09
-4.37461e-06
4.47633e-06
3.06604e-06
3.87631e-09
1.98869e-06
-1.32544e-05
-4.14992e-08
2.44963e-09
9.15775e-08
-5.35465e-07
-1.39646e-05
-5.33631e-09
3.739e-08
-2.90291e-09
-1.23923e-08
1.32342e-09
3.14553e-08
3.64627e-08
3.12009e-06
1.37995e-06
6.44336e-08
-9.34593e-05
8.16228e-09
-5.50521e-09
-7.91182e-09
1.35e-05
5.95136e-09
-1.81808e-06
-9.62133e-06
-1.01865e-08
8.50661e-07
9.64954e-08
-9.4916e-05
2.25644e-05
1.03206e-08
3.05196e-09
-3.46084e-08
-3.01699e-06
-3.24769e-08
6.23798e-09
8.25457e-08
3.09678e-08
3.87497e-08
-9.06536e-05
1.48184e-08
-1.88231e-08
2.3167e-08
2.70474e-08
-9.4303e-09
2.73095e-10
-7.66791e-10
-3.102e-09
6.26635e-06
-1.47847e-05
-4.07265e-07
-2.78509e-06
-7.36208e-08
5.84771e-08
2.22133e-08
-7.32572e-08
-2.55885e-06
1.34245e-08
3.62796e-09
-5.42316e-08
6.22943e-08
-9.35629e-07
3.94196e-08
9.64286e-10
-1.4822e-08
8.80238e-08
-5.97928e-09
-1.40815e-05
-1.70826e-08
1.87536e-06
5.02379e-09
9.87803e-09
4.16047e-08
-3.47939e-05
1.56945e-09
-2.70029e-08
6.42856e-09
-8.58076e-08
-1.18119e-08
-3.60487e-08
-4.42444e-08
1.12121e-05
2.10232e-09
-3.4839e-08
5.40104e-05
3.73538e-08
5.67901e-09
-8.16793e-08
-1.98338e-09
2.83571e-09
4.60536e-09
-3.59617e-08
-4.27066e-08
2.01171e-09
-1.18944e-08
1.64249e-09
-7.77224e-09
6.82293e-08
1.39494e-08
-6.22495e-06
-2.04789e-07
-2.15755e-08
-2.79569e-06
8.80679e-10
1.20426e-08
1.93874e-08
-9.79964e-08
-4.90911e-08
-7.55224e-06
-3.306e-08
4.95769e-08
5.8321e-08
-5.83901e-09
-4.21732e-09
1.79937e-08
1.63685e-08
-2.44098e-08
-1.10876e-07
-1.19637e-08
5.00944e-08
6.18222e-06
-5.24661e-08
1.18464e-05
7.08733e-08
-7.79254e-06
-3.1585e-08
-1.51162e-08
-9.0345e-09
1.96435e-08
1.17795e-08
-5.0236e-06
-1.52488e-07
-2.48063e-09
-1.76309e-08
-2.54716e-07
-2.25046e-08
1.23326e-08
1.49671e-08
2.01496e-07
-6.38013e-08
-9.73704e-09
1.4316e-08
-3.41523e-08
2.32619e-07
6.32803e-08
-2.98429e-08
-5.31819e-05
5.56701e-06
3.31629e-05
-6.83133e-06
2.92219e-08
-1.64989e-08
-6.41337e-09
1.37107e-08
-8.12819e-06
-6.2519e-08
-1.68434e-05
8.26798e-08
-2.60699e-08
2.3797e-08
-8.07392e-08
4.15273e-08
6.03013e-08
5.52485e-08
9.0634e-09
-2.12178e-08
1.72907e-08
-2.35846e-08
6.63384e-06
6.75935e-08
-2.44171e-06
5.45649e-06
-4.54451e-06
3.34419e-09
4.34821e-06
2.55029e-08
3.85454e-08
-2.19981e-08
6.47374e-08
5.48108e-08
8.63291e-08
6.20239e-08
-4.04107e-08
-3.92433e-07
9.18256e-08
-2.06119e-08
-9.38193e-08
-2.42374e-06
8.0971e-08
-3.29803e-08
1.89269e-08
4.47444e-06
-9.44357e-08
1.37376e-08
2.97966e-10
3.06729e-09
-2.34673e-06
2.00303e-08
4.07515e-09
2.28035e-08
9.94295e-08
-3.89771e-08
-4.6368e-08
-5.91143e-08
-3.2394e-08
0.000345612
-2.41829e-08
-3.20766e-08
8.76246e-09
-2.96631e-08
3.36061e-07
-1.73955e-08
-1.84702e-09
-2.19345e-05
-3.72908e-06
1.041e-07
5.28114e-08
1.3986e-08
-1.82073e-06
2.77272e-08
5.69054e-06
5.48911e-08
4.62271e-07
-1.32581e-05
-1.90621e-08
2.20706e-08
-1.21879e-06
4.45827e-06
-1.88125e-07
-2.84998e-05
1.28508e-08
2.90055e-08
-2.6966e-06
-1.59079e-08
-2.83689e-06
7.1167e-09
6.70048e-08
6.59275e-09
-1.10249e-07
4.35574e-06
3.68327e-08
-7.93871e-08
-8.14466e-08
-2.69009e-08
-7.37624e-09
-1.41053e-05
1.16294e-06
1.17995e-08
1.34732e-08
1.62129e-05
1.63745e-08
1.06687e-07
-8.72237e-09
1.42963e-08
-3.5099e-06
8.46336e-07
-4.5024e-09
7.71007e-08
1.01485e-07
-6.41375e-08
2.30254e-08
-8.68319e-09
-4.96254e-08
3.65919e-08
1.07045e-05
4.14081e-08
-8.54303e-06
-2.71026e-05
-4.66262e-06
7.94212e-09
-1.47403e-05
4.35177e-08
-9.6481e-09
-3.1916e-07
-7.35671e-08
5.25823e-08
-3.0202e-09
3.89201e-08
-1.48499e-08
1.42415e-08
5.74539e-05
6.56693e-08
-2.38368e-08
-1.55964e-05
-7.01148e-05
3.29361e-05
5.88286e-08
-1.48318e-05
-2.94333e-05
5.87235e-08
-6.774e-09
-3.02994e-08
1.79807e-08
1.59744e-08
6.74707e-08
2.05463e-08
6.17346e-09
3.16637e-08
-2.58531e-08
3.44459e-08
2.54905e-08
9.27977e-07
-5.88224e-07
4.93094e-08
3.06391e-08
-1.20922e-06
-7.85772e-08
1.49904e-08
5.84589e-08
8.06843e-08
6.81368e-08
9.766e-06
-3.58928e-09
-5.4747e-08
-4.19049e-06
6.2327e-07
5.75627e-08
3.76597e-08
-5.76179e-09
-4.40402e-08
2.47556e-08
1.14649e-08
-2.05657e-08
5.65424e-05
8.16634e-08
1.69392e-08
3.51483e-08
-6.11918e-09
-2.425e-09
1.42558e-06
-2.50716e-10
4.13623e-08
3.37306e-09
1.85721e-08
-3.75868e-08
1.18056e-08
4.6912e-08
-6.19436e-08
3.38212e-08
1.51254e-07
-9.05746e-08
-0.000112282
4.8759e-08
-8.66138e-05
5.29702e-08
5.54721e-08
9.4089e-08
-8.65806e-05
3.02096e-08
-1.08665e-08
-1.69358e-08
2.20446e-08
-4.72858e-07
-1.48137e-07
-6.06108e-08
-7.88745e-08
4.10769e-08
-6.31723e-06
-7.90672e-08
-0.000112364
3.82917e-08
-2.77578e-05
-1.03315e-07
4.174e-07
8.80807e-08
-8.31824e-05
3.67542e-08
-8.03997e-05
-1.08488e-05
4.64035e-09
-1.80477e-08
-0.000230838
-2.04069e-05
-3.03587e-08
-1.08713e-07
-8.6749e-09
-8.60462e-09
4.10998e-06
-2.30306e-08
-7.14156e-06
-1.3929e-05
5.83816e-05
-5.10627e-07
6.52855e-08
-7.58998e-06
7.15858e-09
-2.89936e-09
1.07864e-07
-1.44654e-05
1.94832e-08
1.97803e-08
3.38326e-08
-5.74696e-10
1.73821e-08
-3.67135e-06
4.91099e-08
-1.24457e-06
-7.36738e-07
2.71806e-05
3.37733e-08
1.521e-07
-8.09751e-08
-3.01459e-08
1.81984e-05
2.43768e-05
-3.20113e-07
-2.06259e-08
-2.25145e-08
-9.60981e-07
-1.47422e-08
4.28829e-08
-4.73255e-09
8.07168e-10
3.61201e-08
7.89164e-07
6.43799e-10
1.15955e-08
-4.21618e-08
5.72032e-09
1.18498e-08
8.7188e-10
5.0979e-08
-1.79975e-06
4.33153e-08
4.83547e-08
5.24238e-08
-2.46382e-05
7.82621e-08
-2.99309e-08
6.70284e-06
-2.81844e-08
8.69863e-06
1.40068e-09
1.99796e-09
2.3534e-07
-1.35291e-08
1.70086e-08
-1.89925e-09
-1.40087e-08
-4.56502e-08
1.20058e-08
-4.63819e-08
9.2127e-08
-2.6841e-10
4.05302e-09
1.81816e-07
3.00738e-08
-9.3889e-09
5.81096e-08
-5.85187e-08
2.12329e-08
5.12741e-08
4.36304e-09
3.88327e-08
4.71618e-08
-1.31776e-06
-1.51703e-05
2.85726e-08
-6.78756e-09
-4.90111e-09
-5.28998e-08
2.19667e-08
-0.000112625
1.80109e-07
-4.55366e-07
2.39724e-08
5.18104e-08
1.26103e-08
1.8344e-07
-9.93985e-06
5.72013e-09
-3.0257e-06
4.67511e-08
-4.90761e-09
0.000149408
-7.5158e-06
7.5858e-05
9.0053e-08
2.50942e-08
2.01373e-06
1.19258e-05
3.15096e-08
-2.74972e-05
-7.06554e-07
-2.47072e-07
6.55768e-08
-3.52775e-06
2.02039e-08
4.31175e-08
2.96299e-08
5.82125e-09
5.30204e-08
1.39296e-07
-1.93711e-08
-2.64962e-08
-4.31839e-05
4.67452e-05
-7.45973e-06
-4.97446e-06
1.67975e-08
-1.71909e-08
-3.53841e-08
-2.13657e-08
4.9642e-09
-5.08613e-08
-4.40257e-08
-3.07345e-07
1.39738e-08
-3.09726e-05
1.7974e-09
-0.000112534
6.19277e-08
-1.00179e-08
1.40775e-09
-4.95139e-09
2.75112e-08
-2.3058e-08
6.00228e-08
5.69855e-08
-8.56638e-05
2.97729e-08
-5.25534e-08
-1.05338e-08
-2.11441e-08
-5.36714e-08
5.44614e-08
-1.51469e-05
-3.69523e-09
-1.49156e-08
-7.06457e-09
2.34126e-08
8.64493e-08
7.21344e-08
6.02036e-08
2.01597e-09
-2.43438e-05
-7.91016e-07
-8.40503e-08
-2.97073e-05
-8.21768e-09
-1.67873e-08
6.33523e-06
4.74401e-08
3.67879e-09
5.90125e-08
4.83555e-08
1.85653e-08
-2.39454e-09
8.4815e-06
2.41744e-07
4.89241e-08
-5.55227e-10
-4.8851e-05
-4.97046e-09
6.28655e-08
-5.88801e-09
2.58601e-08
1.49386e-08
1.33336e-06
-1.00286e-08
7.95737e-10
1.59678e-05
9.86337e-07
-5.78665e-08
3.85394e-08
2.22399e-05
7.4287e-09
3.24499e-06
-1.45075e-08
-3.07189e-09
1.16313e-08
-7.60972e-09
6.79969e-09
1.51089e-07
3.68285e-08
-2.96414e-07
8.70012e-08
-1.13204e-08
2.67576e-07
-2.07148e-08
7.21754e-09
-7.67674e-08
-1.27526e-05
2.17251e-07
-4.61382e-07
-2.47574e-08
1.06848e-07
5.21248e-05
-3.97507e-09
3.31104e-08
-8.90725e-08
-1.22318e-05
2.10795e-09
-1.5542e-05
-1.53917e-09
-2.8113e-07
-1.64231e-06
6.79226e-09
5.14968e-08
-4.88734e-09
-4.63762e-08
7.62757e-09
-3.26359e-08
-9.15515e-09
2.04872e-07
-4.30004e-08
-9.55467e-07
3.58725e-08
-1.43804e-05
1.49517e-08
-4.15471e-07
-4.11057e-05
-1.0065e-07
2.28464e-05
1.8597e-08
-3.19037e-08
1.77021e-09
5.97873e-07
3.99274e-08
-5.76306e-08
7.41829e-08
2.87089e-08
3.07375e-08
1.03714e-08
0.000138053
6.81155e-09
9.48037e-07
1.07847e-07
-7.14226e-08
1.91438e-07
6.7104e-06
-1.77707e-08
-1.4757e-05
-2.98437e-05
8.41983e-09
-6.55665e-05
-3.67177e-09
-2.7491e-08
1.68036e-07
-3.09708e-08
-1.74681e-09
4.38018e-08
3.89297e-06
1.00755e-05
-6.7461e-07
-1.54751e-08
-1.23001e-08
5.5783e-08
-9.00824e-08
2.54048e-08
-6.23255e-06
1.34142e-08
6.6828e-09
1.78331e-08
-4.31288e-05
-6.15735e-08
1.13695e-07
1.60746e-07
6.79521e-10
-4.42126e-08
6.47031e-08
-5.71703e-06
6.71059e-08
-7.2313e-09
-4.58888e-08
-9.12943e-05
2.44149e-08
2.98659e-06
3.11427e-08
-2.79073e-06
6.59452e-08
-2.11104e-08
3.33872e-08
2.48062e-08
-5.04183e-08
1.89468e-08
3.14039e-08
-6.2477e-07
-6.50451e-07
4.09825e-06
-1.17585e-07
6.11999e-08
7.29097e-08
-1.34946e-08
-5.46197e-09
-5.5445e-08
-8.33718e-08
0.00018654
4.49211e-08
-9.17401e-08
3.35139e-08
3.39093e-08
1.87225e-08
-1.42434e-09
1.01617e-07
8.49803e-08
1.78436e-08
2.37456e-08
5.01766e-05
8.09932e-08
3.98039e-08
1.82249e-08
-3.643e-08
8.80768e-09
-1.20547e-08
4.74599e-08
1.80814e-08
-4.86499e-05
-3.96706e-06
2.23296e-08
2.07815e-08
-8.31337e-08
9.48051e-08
2.37232e-08
9.12727e-08
-3.34369e-08
3.06822e-08
1.82395e-09
5.79752e-08
1.45344e-08
-3.57324e-06
-6.0748e-08
-2.66859e-08
-1.43538e-05
-2.9791e-08
9.48022e-09
-6.52528e-08
3.95907e-08
3.24608e-06
-2.39658e-08
-1.54361e-07
1.09127e-08
1.45024e-07
-1.20869e-06
7.47556e-08
1.84488e-08
-1.53803e-05
1.78345e-07
-7.06561e-08
1.77441e-08
8.30688e-09
3.97917e-08
3.91218e-05
2.5996e-08
3.62599e-06
-6.78332e-06
-7.69434e-08
-2.57177e-06
2.37199e-08
-9.01485e-05
-3.9922e-08
1.48342e-05
5.45505e-05
9.17885e-09
1.5405e-08
-1.06365e-08
3.56066e-08
-3.58819e-08
-5.50421e-05
1.67492e-08
-1.54948e-09
-2.25621e-08
1.87667e-08
-1.67207e-06
-1.52552e-05
-7.66371e-08
4.85199e-05
3.64748e-08
1.68912e-08
-1.36039e-05
-2.01573e-08
1.81312e-08
-3.14818e-06
-4.61509e-10
-3.28673e-08
-5.08563e-08
5.40371e-06
-1.8614e-08
-7.99886e-05
5.69602e-05
1.58468e-08
-1.11055e-07
-4.1252e-06
-1.43506e-08
2.6534e-08
2.58575e-08
-4.33568e-09
4.23877e-07
-9.22082e-08
7.18601e-06
-1.38575e-08
1.26606e-08
3.19499e-08
3.26634e-05
1.43988e-08
-5.48815e-07
-3.6199e-05
2.95507e-08
1.15698e-05
5.93474e-08
-6.11554e-05
-1.21018e-08
6.07022e-06
-1.7211e-07
2.93461e-08
1.70124e-08
-5.80378e-05
-4.44112e-07
-1.57852e-07
-4.31838e-08
-1.36479e-08
-7.61909e-06
7.56358e-08
1.34039e-08
-1.80957e-08
-8.89097e-08
8.39136e-09
9.1357e-09
1.13076e-08
-6.69004e-08
7.07326e-08
1.92379e-08
2.46228e-08
-2.04472e-08
4.82865e-08
1.70849e-08
-5.23267e-08
1.75052e-08
4.53747e-08
8.24341e-09
3.19899e-08
3.07094e-06
-6.15618e-08
-1.77042e-08
-4.5115e-08
3.21025e-06
-1.97194e-08
5.68948e-06
3.9262e-08
6.75798e-08
-1.32176e-06
-3.46014e-08
-1.34284e-05
1.85523e-08
2.54927e-08
1.12261e-06
-8.00307e-09
-1.12282e-07
-3.86252e-06
-1.19356e-05
-4.9053e-08
9.92417e-09
6.759e-08
2.52628e-08
9.82547e-09
3.94529e-08
7.60162e-08
2.71223e-08
-1.52475e-08
3.4018e-09
-4.45083e-08
8.11261e-07
2.97184e-06
4.43693e-05
-3.58869e-08
3.09948e-06
1.68765e-08
-2.07811e-08
-3.73055e-07
3.98336e-08
-3.38558e-10
2.46395e-05
-5.66075e-08
-3.14174e-08
3.36285e-06
6.57363e-09
1.05985e-09
-7.92777e-05
-1.79381e-08
2.26161e-08
2.14331e-08
-3.08545e-08
-2.0158e-08
-3.30226e-05
-4.5374e-07
2.17825e-07
-2.00599e-05
1.18251e-06
-0.000111932
-3.52099e-08
8.85905e-07
-7.44356e-08
-1.53105e-05
-3.78781e-09
-3.26263e-08
2.14998e-08
-2.45485e-06
3.50749e-08
-6.37849e-08
3.11682e-08
-9.79391e-08
-1.55257e-08
2.4509e-08
-7.13233e-07
2.63796e-08
5.16154e-09
-2.41561e-09
-3.68152e-08
-3.44092e-09
3.73928e-09
2.5288e-08
9.47413e-09
3.67924e-08
8.28803e-09
9.03791e-08
1.02811e-08
-5.85362e-07
-4.14473e-08
0.000124241
-3.2323e-08
-5.66342e-08
8.51191e-07
9.74796e-09
0.000285088
1.04172e-07
-3.13055e-08
-1.40675e-08
5.16922e-08
-2.77505e-07
4.89341e-09
-2.47847e-09
-2.35851e-08
-4.24407e-08
5.42112e-08
-6.78231e-09
1.61125e-08
-8.70033e-05
5.75024e-08
5.75369e-08
1.16341e-09
-9.46461e-09
3.45119e-10
4.32122e-08
-2.09635e-08
-3.18272e-08
2.63193e-08
-7.88972e-06
-8.23055e-08
1.60536e-08
2.86136e-08
-6.19721e-07
-9.46701e-08
2.6158e-08
3.98204e-08
1.68461e-07
1.11762e-08
1.59251e-07
-1.96856e-08
-5.52462e-08
-1.68019e-08
-3.07897e-08
1.88042e-08
-1.96041e-05
5.80465e-05
-4.66748e-08
2.99963e-08
5.20474e-08
1.23906e-08
-6.14391e-05
-7.69815e-08
-3.68684e-08
3.52824e-08
-3.67692e-08
2.1028e-07
2.6598e-08
8.2082e-09
-4.84365e-07
-8.68279e-08
-2.50876e-05
1.49167e-08
3.29286e-08
1.98312e-08
-5.34281e-05
-2.08561e-08
-2.24874e-08
-2.28695e-08
5.9664e-09
-3.4008e-08
-6.46071e-09
-2.21127e-06
6.94113e-09
2.02194e-08
-3.00081e-08
-2.84651e-08
-2.40198e-07
-3.77178e-08
2.61223e-09
0.000201234
-9.94739e-08
3.50892e-09
6.93178e-10
-1.58334e-05
-8.16731e-09
4.02607e-08
-5.10955e-08
2.84326e-08
-5.9974e-09
3.00735e-09
3.54133e-09
2.67517e-07
7.4731e-09
-2.01958e-08
-6.50989e-08
9.37364e-09
-1.55635e-05
1.73456e-08
-4.97855e-05
-7.21521e-07
-5.16135e-08
-1.41194e-05
-1.63544e-08
1.63834e-08
2.91084e-09
4.24952e-08
-1.87457e-08
-1.67785e-08
6.42004e-07
6.32929e-09
3.06058e-08
3.34335e-08
-3.94678e-08
-9.52175e-05
-2.0738e-07
6.47684e-09
-1.1157e-07
-3.08094e-08
1.39526e-09
3.35791e-05
-2.14324e-08
3.81843e-08
3.7548e-09
2.37941e-08
1.96916e-08
-4.51877e-09
7.64566e-08
9.58731e-07
1.50135e-05
-2.49891e-08
6.79879e-08
-2.09995e-08
-1.14614e-07
5.22099e-08
-1.39255e-07
4.46147e-08
1.55695e-06
-1.54483e-08
-1.03269e-06
2.22322e-05
-1.66975e-07
-3.21466e-08
-2.60761e-08
2.61787e-08
2.78083e-05
2.94643e-05
3.0455e-09
-1.12633e-08
1.3891e-08
-4.72226e-05
6.78031e-08
7.05468e-09
3.09765e-08
-4.96779e-05
-4.85515e-09
5.44314e-08
-3.14675e-07
7.90697e-08
-9.53926e-05
-1.74629e-08
2.80687e-08
-1.38669e-09
3.51782e-06
6.09549e-08
3.54173e-08
-1.05591e-05
5.56131e-08
9.22677e-08
5.48392e-07
-9.49557e-08
-5.05826e-08
2.60598e-08
1.12965e-08
-3.93897e-08
-4.5389e-08
3.7892e-08
4.40716e-07
1.30837e-08
-7.29829e-05
2.22614e-08
-6.01514e-08
-4.05035e-06
7.2227e-09
-7.5865e-09
-4.25342e-07
-4.08105e-07
-5.68602e-09
6.22978e-08
0.000159372
1.97851e-08
6.59055e-08
1.69315e-08
-2.37857e-08
-1.63234e-08
-4.76818e-08
3.3127e-05
-6.74154e-08
3.47064e-08
7.10188e-08
-3.33177e-09
-4.46348e-08
-1.47428e-05
1.39052e-07
-4.08314e-08
-3.66234e-08
-4.02573e-08
1.47148e-07
-2.49378e-08
-5.84583e-05
-2.02468e-08
4.20075e-08
1.32683e-08
3.29561e-08
-4.00563e-07
-1.38249e-08
-2.34474e-08
4.48067e-08
3.24666e-08
3.54269e-08
-4.7145e-06
-4.16828e-07
-1.0196e-08
7.0066e-06
-9.40383e-08
5.33706e-08
-3.42268e-05
5.97202e-08
3.68962e-08
6.16158e-08
3.52864e-06
2.58404e-06
2.17892e-09
6.78444e-08
-1.21461e-05
1.11621e-06
-2.62722e-08
-3.99546e-07
-1.51274e-05
3.2507e-05
-4.31126e-08
8.37711e-09
-2.05013e-09
-3.05923e-08
5.50173e-10
-2.31078e-08
2.14314e-08
3.99789e-08
6.16742e-09
-7.15536e-09
-5.02893e-06
9.4104e-08
8.18723e-06
-1.51231e-09
-6.3111e-08
-4.4826e-08
2.49396e-08
-8.70706e-08
1.81889e-08
6.40931e-08
2.47102e-08
-1.72575e-06
-1.90773e-08
9.7738e-08
-1.28147e-08
-1.75778e-08
-1.93077e-09
-3.01791e-07
-1.63314e-08
-6.61582e-08
2.90066e-08
-2.34715e-08
-3.36446e-09
1.76767e-09
5.45396e-08
-5.9032e-05
-1.05913e-08
7.01881e-08
1.15079e-07
-2.83432e-08
-1.33639e-09
-2.5122e-09
1.74477e-08
-2.21286e-08
-3.60579e-09
-7.57349e-05
-2.04167e-08
4.00575e-06
5.50553e-05
-9.2289e-06
-8.02974e-05
1.98032e-08
-2.98151e-08
-7.94487e-07
-5.54907e-06
-3.73317e-08
-2.25131e-08
7.66326e-08
1.17586e-08
-1.78246e-08
3.39501e-05
-2.66903e-08
3.97681e-08
2.58358e-08
-3.06206e-05
4.3993e-08
1.80108e-05
1.41985e-06
-4.21823e-08
-2.62658e-08
-4.92037e-08
-1.71416e-08
-1.02931e-08
4.46216e-06
-1.52081e-08
-1.07573e-07
4.56644e-09
3.05894e-08
-7.16634e-09
2.91257e-08
2.00796e-08
0.000152954
4.0727e-08
-0.000104063
3.04356e-08
-7.91861e-09
0.000142789
-3.28641e-05
0.000115173
-6.12652e-11
-4.99609e-08
-6.08306e-09
3.59738e-05
3.54749e-05
-6.23683e-08
-3.36992e-08
-1.34479e-07
1.71584e-08
-4.79642e-08
-5.70756e-08
-7.50962e-08
1.29518e-09
9.12645e-10
-5.44633e-08
-8.64806e-07
4.88035e-09
5.44472e-08
2.1314e-08
1.86223e-08
-9.78424e-09
-1.32084e-05
-2.95104e-07
7.69515e-09
-1.09928e-05
4.06377e-08
7.82426e-08
6.06613e-09
1.04456e-06
2.04845e-08
1.92308e-08
6.37992e-05
4.0725e-08
4.53306e-08
-4.47407e-09
3.03802e-08
2.3311e-08
3.74001e-08
5.27806e-08
1.85017e-05
-1.24807e-08
-3.96472e-08
-3.48607e-08
-4.88486e-05
-3.26435e-05
3.71571e-08
-4.7677e-08
2.05252e-08
-4.57499e-05
3.27298e-07
7.28057e-09
-2.23207e-05
9.07309e-08
9.5707e-07
-4.85716e-09
1.62347e-08
1.28093e-08
-2.82513e-08
-1.42033e-05
-9.70501e-07
1.89592e-08
-3.41735e-08
0.000162242
1.63046e-07
1.61722e-05
3.44574e-05
4.4806e-06
9.24947e-09
1.18254e-08
5.81929e-09
1.23283e-08
-7.87808e-05
-1.66901e-08
-1.12902e-07
-3.91466e-08
-3.65946e-08
-1.39202e-07
9.36225e-08
-1.49767e-06
8.23407e-09
1.96959e-08
1.86198e-08
4.84151e-08
9.8305e-08
-0.000106514
-1.40275e-08
-2.1067e-08
7.22626e-09
2.49894e-08
-2.19395e-05
3.39698e-08
-4.71263e-05
-1.36525e-08
1.86489e-07
2.16271e-08
1.23665e-08
-8.95689e-08
4.51773e-08
6.0941e-10
-2.15746e-08
6.0414e-08
-1.95404e-08
-1.08213e-08
-8.6128e-08
1.73157e-08
2.07048e-08
2.29399e-08
9.67747e-09
-2.26864e-08
-3.53777e-09
-4.07396e-05
7.91137e-08
6.5415e-10
-7.85301e-09
-3.97373e-08
-9.60002e-05
-2.61314e-08
-3.32829e-06
2.2929e-05
-7.58883e-08
-6.2592e-09
1.28631e-07
3.06973e-08
-4.02092e-05
3.88505e-08
-2.577e-05
-1.20061e-08
-6.65792e-08
-3.57624e-09
3.96816e-09
8.82452e-08
-3.97805e-07
2.75338e-08
-1.45658e-05
1.61721e-06
-8.57643e-08
1.24634e-05
8.63851e-09
2.39708e-08
-3.49753e-08
1.72175e-08
2.16378e-07
1.35959e-06
1.42865e-08
-8.46695e-09
5.7618e-09
8.91323e-11
-1.87625e-06
-7.82675e-08
-3.33847e-08
1.43386e-07
-6.09191e-10
-2.67211e-05
6.35869e-08
-4.54517e-09
-2.76046e-08
2.54444e-09
3.69749e-08
7.41113e-09
7.09828e-08
1.29993e-08
4.15946e-08
1.04114e-08
-1.66045e-08
2.17027e-07
-4.59004e-09
6.58892e-08
-1.28166e-06
-8.43345e-08
4.12493e-08
-6.63916e-08
-1.63601e-08
1.62892e-08
5.20056e-05
3.3428e-08
-1.7569e-08
-1.21732e-08
2.57652e-07
-4.37375e-08
5.81302e-08
-7.61102e-09
6.5088e-08
-1.7267e-08
4.78778e-08
-9.29497e-09
-2.89217e-07
7.8386e-09
-5.42403e-06
2.80243e-08
-3.03243e-09
1.45605e-08
-3.39312e-05
6.87354e-08
-1.51813e-08
-1.83756e-08
6.21682e-07
-4.15084e-09
-1.71546e-08
4.525e-08
4.13666e-09
-1.07165e-08
-4.3823e-08
1.15011e-07
2.10404e-07
-1.05054e-07
-1.37485e-08
2.6634e-08
5.46433e-08
-5.08122e-05
-4.19062e-08
4.31309e-10
-7.66405e-08
-9.76961e-08
-2.61322e-05
-8.12655e-05
-1.85449e-08
-1.67281e-09
-2.16967e-08
-5.58653e-08
-1.83723e-08
-3.8341e-06
-7.23516e-06
1.30674e-09
-3.33334e-09
2.91256e-08
-2.84273e-06
6.5796e-08
-9.53839e-08
7.72849e-07
1.79714e-08
-9.99353e-07
-1.77107e-08
3.7542e-07
3.41958e-08
1.78079e-08
-3.15835e-08
2.66392e-07
3.84208e-08
-2.94706e-08
5.61038e-08
-0.000116013
-1.66368e-08
2.98532e-09
-7.77824e-10
3.18566e-05
2.58153e-08
-1.8379e-05
3.56811e-08
1.61574e-08
1.51875e-07
-3.81816e-08
2.41055e-08
-1.15723e-08
-5.5635e-07
6.40885e-09
1.67585e-08
-8.89204e-08
7.19465e-08
6.07981e-09
1.53708e-08
9.84685e-05
9.38473e-09
9.09313e-09
-2.91919e-08
-6.96748e-08
-3.25923e-08
1.82461e-08
-3.64542e-05
1.31309e-08
2.18468e-08
1.01326e-08
7.30917e-07
9.38479e-09
2.45205e-09
5.41324e-08
4.86135e-06
4.28311e-08
8.87526e-09
9.00785e-07
-3.40171e-07
5.74452e-09
-5.82256e-09
-3.30636e-09
-2.7446e-06
9.76587e-08
7.76558e-08
2.22765e-08
-1.39126e-08
5.47151e-08
-2.82994e-07
-3.23159e-08
2.25321e-06
4.02705e-08
8.072e-09
8.64514e-08
2.86793e-09
3.02933e-08
-1.53493e-08
-6.16849e-08
1.96582e-08
-4.43539e-05
2.89483e-09
2.26526e-08
1.33401e-06
-6.37217e-09
2.8597e-09
-2.17178e-08
-2.64613e-08
1.20261e-07
2.87456e-08
-6.09436e-08
9.26942e-09
-7.05388e-08
2.07636e-07
7.50271e-08
4.36274e-05
-8.23512e-08
7.15571e-08
4.01368e-08
-2.97839e-08
1.3249e-09
-3.9168e-05
6.51249e-09
-5.94713e-08
-3.2611e-06
-2.0197e-08
2.667e-08
1.03092e-07
1.07414e-08
3.09565e-08
-4.32879e-07
-1.83267e-08
-1.74385e-05
-2.074e-08
7.50564e-10
2.78219e-08
-0.000103184
-3.93114e-08
-3.86823e-08
-3.16146e-05
-1.07282e-08
4.52042e-10
-1.77415e-08
1.14533e-08
4.44456e-05
2.42006e-05
-5.29958e-06
-1.8613e-08
5.78732e-08
2.89283e-08
-1.397e-05
1.36057e-08
0.000157456
-1.88508e-08
-3.60092e-08
1.15312e-06
1.12684e-08
2.3727e-07
1.62873e-08
6.03735e-08
-6.70592e-09
8.5551e-08
-3.39114e-08
1.05588e-05
2.93317e-07
5.89172e-08
-3.85925e-05
-1.49686e-08
4.69174e-08
6.99492e-08
1.89835e-08
2.1841e-08
7.5268e-06
-1.00556e-07
1.39646e-05
2.89777e-08
-1.90309e-07
-7.41287e-06
3.98671e-08
1.99526e-05
4.53779e-09
1.64056e-08
-1.80432e-08
5.47765e-08
-7.28194e-09
4.17123e-08
6.38683e-08
3.23912e-08
-1.09235e-07
1.00621e-08
-3.09584e-05
3.0529e-08
1.88653e-08
2.94388e-08
2.55033e-08
4.34432e-07
-3.42356e-05
-2.32061e-08
-4.25371e-08
-1.07028e-08
6.95876e-08
-3.00746e-08
2.58475e-08
-8.92472e-06
4.69502e-10
-5.78212e-08
2.77158e-08
-4.4802e-08
5.05856e-05
0.000150664
3.59367e-08
-3.69367e-05
0.000151534
2.31572e-08
1.32822e-05
4.01294e-08
-6.679e-08
-4.11701e-05
-4.51996e-08
-1.11126e-05
-1.33241e-08
4.47047e-07
4.8086e-08
3.99593e-09
-1.40258e-05
-1.19361e-05
2.37012e-08
5.92938e-08
2.27332e-08
-7.09847e-08
5.1425e-09
-1.18951e-05
1.69463e-08
-7.11635e-06
-1.01671e-05
4.74684e-09
-1.13257e-05
7.69358e-08
-0.000195344
-6.39524e-08
-2.68123e-08
2.66223e-08
-4.11548e-08
3.00926e-08
-4.44292e-05
4.2688e-08
-4.29437e-09
1.56706e-11
1.65666e-09
9.2227e-08
6.97267e-08
-7.9153e-07
1.41266e-08
4.98879e-08
1.90865e-08
2.41356e-08
-2.83754e-06
-7.94754e-08
6.18216e-05
-1.98442e-06
1.96267e-09
-2.43119e-08
6.82694e-08
1.55e-08
-7.78449e-05
-2.85009e-08
6.93853e-08
1.13892e-07
9.09136e-09
3.78067e-08
-2.64391e-07
-4.51098e-09
-5.20592e-10
5.67477e-08
1.99278e-08
-7.68273e-08
3.02118e-08
-3.87364e-08
2.72273e-08
-3.77974e-08
6.95368e-07
5.07697e-09
-2.47549e-06
4.92823e-08
-2.94817e-05
2.02161e-09
-1.67554e-06
3.78899e-08
1.3371e-08
-1.50055e-07
-2.70524e-08
-1.03451e-05
7.65237e-06
-5.04275e-08
-1.69829e-07
1.59935e-06
1.61978e-08
-4.32763e-08
3.7091e-08
1.44996e-07
5.564e-08
1.21754e-08
4.54109e-08
-3.08693e-08
3.61857e-08
-1.52413e-08
-1.20502e-08
3.50479e-08
4.71569e-08
-1.0218e-07
0.000265597
-1.46345e-08
-4.62417e-08
3.69668e-08
-2.751e-08
9.49288e-08
-6.86183e-08
2.88526e-08
-9.38124e-09
4.82823e-09
-3.20506e-08
-2.44136e-08
-1.12277e-08
-1.94098e-08
-3.91298e-08
5.55572e-05
2.75595e-09
-2.33725e-05
-5.83742e-09
3.10916e-08
-4.78692e-05
1.76224e-08
-2.3976e-08
-1.27625e-08
-4.42654e-09
6.26715e-09
1.93483e-09
-2.38716e-07
-6.2989e-09
3.77119e-08
2.10086e-08
-6.28147e-05
5.04761e-08
2.19874e-06
-2.32726e-06
-9.46412e-09
5.835e-08
-3.18722e-05
-8.07411e-08
-5.9008e-08
-1.17174e-08
6.2405e-08
-1.79893e-08
4.2025e-08
1.20465e-08
2.21693e-05
-3.76239e-08
1.70885e-07
2.97795e-08
-4.37859e-08
5.3583e-08
-2.56051e-07
-1.91148e-09
2.78555e-08
-1.70228e-08
5.85731e-08
-9.55563e-09
3.73512e-08
2.10132e-07
4.88663e-09
1.13596e-08
-3.01927e-07
1.34991e-07
1.18997e-08
-4.95147e-08
-2.62035e-08
-6.75018e-08
-6.08559e-05
9.26322e-09
-6.54102e-05
-2.16144e-08
-3.86841e-09
2.23022e-08
-3.2076e-08
-1.00069e-08
-1.88661e-07
3.42695e-08
0.000275859
4.68596e-08
-1.16771e-06
2.95992e-08
1.16028e-05
1.97622e-07
-7.0008e-05
-3.85767e-09
7.18497e-08
1.42319e-08
-5.47473e-09
-4.43709e-07
-1.40772e-05
2.15925e-05
-4.02781e-09
-3.40453e-08
1.7408e-08
1.792e-06
-4.45735e-08
-1.17689e-07
8.51117e-08
4.18052e-08
-4.89733e-08
3.2436e-08
9.1158e-09
-6.49648e-08
2.2599e-08
-7.38478e-08
2.67984e-08
5.59434e-08
1.36661e-05
-9.45375e-06
2.87459e-08
2.49467e-08
5.15974e-08
3.73403e-09
5.17312e-08
-6.98318e-08
8.87294e-08
-3.58833e-08
-1.30197e-07
2.17396e-08
-2.43445e-08
3.16114e-08
1.96856e-08
1.42973e-08
-1.33234e-08
2.89118e-08
1.09784e-08
-0.000104102
-9.11349e-08
-2.87206e-08
-2.22524e-08
9.65385e-08
-4.39782e-06
-3.65998e-08
1.66559e-08
-2.72744e-07
1.56971e-08
2.49995e-08
-5.96954e-05
4.34737e-09
-9.19715e-08
-5.76691e-06
1.79994e-07
-1.22809e-07
1.44041e-08
1.06366e-08
-2.93522e-08
-2.6163e-08
5.18603e-09
-4.7638e-05
-4.17242e-09
4.92243e-08
-2.51011e-08
-1.15779e-08
-5.73829e-08
2.83875e-07
-3.06511e-08
9.33113e-08
-6.57145e-08
-4.41732e-08
1.55104e-09
9.35816e-08
3.3187e-08
-4.87553e-08
-2.76559e-07
4.23814e-08
1.01707e-05
-1.88962e-08
7.71864e-08
-8.346e-09
-0.000100147
1.11556e-08
-4.1145e-08
-8.45554e-09
8.8916e-08
-5.3906e-07
-2.66723e-08
0.000153156
-2.00348e-08
1.37799e-07
-7.90263e-09
-1.84993e-09
1.8231e-05
7.80241e-08
5.76642e-08
2.77294e-08
5.83351e-08
-4.46538e-08
1.33705e-07
1.43122e-08
-2.76934e-08
3.33091e-08
4.72578e-08
2.61806e-08
1.07434e-08
5.86581e-08
-5.53588e-08
-4.19016e-06
-2.23852e-05
-7.64188e-07
-4.647e-05
-1.06555e-07
2.9637e-08
4.38067e-08
1.47462e-07
-7.32955e-05
1.29178e-08
-9.84299e-05
2.60463e-07
-1.74226e-08
-1.33883e-05
0.000258809
9.40767e-09
4.11309e-08
-5.23203e-08
-3.98217e-05
-5.76941e-08
6.00376e-09
5.3131e-07
-2.84698e-05
-9.26905e-06
-5.87718e-05
5.11901e-08
-3.80825e-08
-4.92592e-08
-6.8956e-09
-1.83466e-07
-2.15328e-08
-1.06784e-08
3.10451e-08
-6.71174e-08
2.6272e-08
-3.18902e-05
3.85578e-10
5.83056e-08
-4.44902e-05
-0.000107869
9.47857e-08
-2.93855e-07
-3.33377e-05
3.31228e-08
-5.35296e-07
-1.22856e-06
-1.50607e-05
-3.33053e-09
-4.48313e-08
-2.89e-08
4.68169e-08
2.03526e-08
-1.02746e-07
-1.16494e-09
0.000143035
-5.30841e-08
-3.76919e-07
3.52707e-08
2.8645e-08
-2.83591e-05
-2.83375e-07
-4.20826e-05
-6.38954e-08
1.22212e-10
-7.0642e-05
1.29248e-05
-1.14495e-06
4.05784e-08
-1.36455e-08
3.7141e-08
5.10391e-09
-3.70724e-08
4.9434e-09
-1.72199e-08
4.16385e-05
2.40515e-08
5.64601e-05
0.000230259
1.46523e-09
6.00885e-08
-1.54759e-07
8.00086e-09
-1.88101e-05
2.21666e-07
5.14983e-08
-2.02265e-08
-1.24177e-08
-9.77259e-07
3.28364e-08
-2.72617e-08
-3.087e-08
6.37631e-08
7.91695e-08
-1.38791e-07
2.24996e-05
9.44306e-09
3.42804e-08
-5.59575e-06
-1.55277e-09
-5.23341e-08
-1.02761e-08
-3.74799e-05
-5.31251e-06
-1.21238e-05
6.39693e-08
8.13839e-08
-1.91544e-08
2.44692e-07
-4.38649e-08
9.07641e-06
2.82209e-08
2.23226e-08
-4.31132e-08
-1.20927e-08
-1.80295e-08
-1.12042e-08
1.86477e-08
3.57059e-08
4.74573e-05
1.64321e-08
-3.04686e-08
2.28287e-09
3.53402e-08
7.20705e-08
5.80769e-08
1.0327e-07
5.64494e-09
2.36761e-08
9.42661e-08
-5.18223e-09
-2.8469e-08
-2.77575e-07
-1.37172e-07
2.63537e-08
0.000167224
4.23353e-06
-3.39352e-08
-4.29064e-08
1.77102e-08
4.22161e-09
-4.9366e-08
-3.91582e-08
-2.4043e-07
9.11509e-08
2.67179e-05
8.76064e-08
7.79568e-08
-2.78198e-08
-2.61657e-08
-4.50671e-05
4.48793e-08
2.62775e-06
4.37189e-08
-1.24104e-05
-8.19848e-07
-7.83616e-08
-3.17882e-08
-4.97065e-08
-2.4689e-05
-1.44282e-08
-3.85821e-08
1.92875e-09
1.49542e-07
-1.66895e-05
1.989e-05
-1.06055e-07
7.35488e-08
-5.00318e-06
-3.06223e-08
-2.19889e-07
1.57124e-06
-3.43727e-08
-2.92315e-05
1.55929e-07
-2.64181e-08
2.74189e-07
-9.19069e-09
1.0286e-08
-9.62748e-09
-3.84425e-05
9.22949e-08
-4.85702e-07
-3.85522e-08
-5.58243e-08
-7.20915e-05
-6.51129e-08
-5.73355e-08
-1.11844e-08
5.41656e-08
-2.04819e-08
2.39519e-05
9.98448e-06
4.04521e-08
1.50727e-08
-4.60884e-08
5.65877e-09
3.91631e-08
-7.252e-08
-4.32987e-06
8.05938e-06
-1.07498e-07
2.64073e-07
5.13369e-09
7.83523e-06
-4.6378e-06
5.13058e-08
1.31669e-08
-1.53915e-07
5.00683e-09
-2.25645e-08
-3.70152e-09
-3.21807e-08
-1.49676e-05
7.73139e-08
6.49582e-07
0.000156026
-1.99777e-08
-6.03146e-05
-3.65733e-05
-9.46317e-05
5.00516e-09
-1.43268e-08
4.88384e-08
1.51788e-08
-3.40618e-08
2.43439e-08
-4.40634e-08
5.78599e-08
-2.14717e-07
-5.46904e-09
3.90671e-05
-2.13572e-08
2.31016e-07
9.40584e-09
-1.93682e-08
-8.64723e-06
-6.46609e-10
-3.97752e-05
2.69913e-08
1.49332e-08
4.53629e-08
5.11509e-08
2.97219e-08
-1.88234e-08
4.0303e-08
-0.000110653
-2.07627e-08
3.00421e-08
2.13369e-08
4.53656e-08
-7.55189e-05
5.86663e-08
5.49876e-05
7.53309e-08
9.31252e-06
-5.48619e-08
3.42001e-08
1.44616e-05
4.2113e-08
3.50458e-08