/*--------------------------------*- C++ -*----------------------------------*\
| =========                 |                                                 |
| \\      /  F ield         | OpenFOAM: The Open Source CFD Toolbox           |
|  \\    /   O peration     | Version:  v2012                                 |
|   \\  /    A nd           | Website:  www.openfoam.com                      |
|    \\/     M anipulation  |                                                 |
\*---------------------------------------------------------------------------*/
FoamFile
{
    version     2.0;
    format      ascii;
    class       volVectorField;
    location    "150";
    object      ddt0(U);
}
// * * * * * * * * * * * * * * * * * * * * * * * * * * * * * * * * * * * * * //

dimensions      [0 1 -2 0 0 0 0];


internalField   nonuniform List<vector> 
13308
(
(0.000663464 0.000243722 -2.81712e-21)
(0.00107871 -2.31464e-05 -3.97314e-21)
(0.000326857 0.000307318 -2.88778e-21)
(0.000217094 -9.61632e-05 4.93387e-21)
(0.000179703 1.36594e-06 -6.26288e-22)
(0.000814484 -0.000265412 5.49914e-21)
(0.000291248 7.11713e-05 0)
(0.000462341 -0.000131884 3.62278e-21)
(0.000268312 -3.42254e-06 1.20461e-21)
(9.10298e-05 -2.77322e-05 -2.06204e-21)
(0.000535288 5.72211e-05 4.85298e-22)
(0.00100773 0.000156271 0)
(0.000668188 0.00027466 0)
(0.000291441 6.70046e-05 1.36995e-21)
(0.000269605 1.07729e-05 -5.16256e-21)
(0.00017994 -2.46052e-06 -1.51132e-21)
(4.77146e-05 -0.000462764 -4.38064e-21)
(5.58709e-05 -0.000111181 0)
(0.000681964 0.000233637 6.35312e-21)
(0.0011678 -0.000393809 7.402e-21)
(0.000127637 2.91483e-05 -1.38746e-21)
(-2.49428e-05 -6.85245e-05 6.92221e-22)
(-2.92984e-05 -6.54545e-05 -4.86676e-21)
(0.000618694 0.000140443 0)
(0.000276959 0.000285945 1.10954e-21)
(0.000161364 -0.000281828 -1.3715e-20)
(0.0014059 0.000217894 4.09069e-21)
(-1.97225e-05 -6.52854e-05 5.3441e-21)
(0.00124003 0.000235546 -2.15073e-21)
(-1.53222e-05 -4.62624e-05 -1.18003e-20)
(0.000788377 -1.3377e-05 0)
(0.00141447 0.000343727 -2.86531e-21)
(0.000591712 0.000185344 0)
(0.000681375 0.000141405 0)
(0.00067648 0.000238697 -1.12228e-23)
(0.00022642 -9.33119e-05 0)
(-3.47257e-05 -6.97851e-05 0)
(0.0001807 -5.88301e-05 0)
(0.000223542 -7.84292e-05 -4.93109e-21)
(0.000418358 -8.12931e-07 -2.4121e-21)
(0.000468573 9.51437e-05 2.50941e-23)
(0.000414439 -0.000185986 -8.83212e-21)
(0.000435384 -0.000151895 -4.24916e-21)
(0.0004933 7.59839e-05 -6.89052e-21)
(0.0014661 0.000389134 2.56026e-21)
(0.000649149 0.000112973 0)
(0.000172161 -0.000146295 0)
(3.70122e-05 0.000172466 2.70488e-21)
(0.000565471 -6.77338e-05 7.56459e-21)
(1.85941e-07 9.31229e-06 0)
(0.000805054 -4.3351e-06 0)
(0.00125088 -5.48583e-05 0)
(-1.63292e-05 -4.27401e-05 0)
(0.000820216 0.000147643 1.05726e-21)
(0.00079564 -0.000261159 -7.76312e-21)
(0.000401816 -0.000185358 9.79597e-21)
(0.000626992 -0.000363584 -6.74247e-21)
(8.64307e-05 0.000105499 0)
(9.29085e-05 -2.67088e-05 2.8191e-21)
(0.000620082 0.000340229 0)
(7.04417e-05 -0.000459633 0)
(8.38133e-05 0.00011209 2.42219e-24)
(0.000616927 -0.000112544 -1.01217e-20)
(0.000411976 1.0336e-06 -1.07744e-21)
(0.000149089 -0.000282205 7.22778e-21)
(0.000266581 -0.000707992 0)
(0.00108478 -5.45916e-05 -5.74851e-21)
(0.00161137 0.000342609 0)
(0.00145813 0.000209469 -2.26309e-24)
(5.39892e-05 -0.000107065 0)
(2.31235e-06 3.20663e-06 6.49359e-21)
(0.000622932 -0.00012293 3.83763e-21)
(-5.7567e-05 -0.000179693 0)
(0.00067857 -0.000753103 6.98125e-21)
(0.000354885 -0.000217733 -4.04731e-21)
(1.93008e-05 0.000147459 -1.44407e-22)
(0.00113304 0.000281063 -3.44744e-21)
(0.000522352 0.000142549 -1.05108e-20)
(0.000617268 0.000222016 7.62111e-21)
(0.000638892 -0.000142515 -2.19211e-21)
(-5.01209e-05 -6.87772e-05 -7.66e-21)
(0.000625114 0.00019551 0)
(3.23241e-05 -0.000351299 -5.69177e-21)
(8.22805e-05 0.000146832 -4.26202e-21)
(0.00143519 0.00037865 -4.45274e-21)
(6.63097e-05 0.000164505 0)
(5.25527e-05 -6.34361e-06 -2.84084e-21)
(0.000582264 0.00029621 0)
(0.000595112 0.000301226 -2.72517e-21)
(0.000125132 2.93338e-05 0)
(9.24366e-05 -1.40279e-05 0)
(0.000409559 0.000127204 0)
(0.000489854 0.000118995 5.82281e-21)
(0.000775541 0.000270712 3.1748e-21)
(0.000424807 0.00021245 5.24146e-21)
(0.000520383 0.000110446 7.166e-21)
(-5.15674e-05 -6.4605e-05 0)
(0.000439959 0.000302755 4.24514e-21)
(0.000494751 8.07836e-05 9.98867e-21)
(0.00077447 0.000138755 -4.04313e-21)
(0.000807915 0.000197065 0)
(3.95931e-05 0.000178087 0)
(0.000160711 -0.000175491 5.85874e-21)
(0.000321164 -3.63179e-06 -1.01655e-20)
(-6.24343e-05 -0.000172117 9.6591e-22)
(5.25857e-05 5.63508e-05 0)
(0.000481858 0.000362577 -2.41056e-21)
(0.000609763 0.000351165 -2.37284e-21)
(0.00111324 -0.000348057 0)
(0.000698708 0.000346466 0)
(0.000623801 2.34991e-05 0)
(0.00144406 0.000355467 0)
(9.3342e-05 -2.02045e-05 0)
(0.000658257 0.000128871 -5.51097e-21)
(0.000797378 0.000189772 0)
(0.000575326 0.000163227 -1.3724e-21)
(9.11146e-05 0.000315636 -1.495e-21)
(0.000554834 0.000167772 0)
(0.000485679 -0.000136801 -2.81996e-21)
(0.000630704 2.50777e-05 -2.32797e-21)
(0.000417538 0.000208554 0)
(2.68254e-05 0.000205958 -1.46691e-21)
(2.39584e-06 0.00021938 2.71893e-23)
(6.37093e-05 0.000160568 0)
(0.000782414 4.11199e-05 0)
(0.000224001 0.000122487 1.78282e-23)
(0.00138329 0.000409877 0)
(2.09021e-05 0.00021931 -2.31196e-22)
(4.57381e-07 1.61911e-05 3.86361e-21)
(0.000988568 -0.000355386 0)
(0.000285326 0.000257552 2.27401e-21)
(0.000818806 -0.000140573 2.53537e-21)
(0.000226533 -8.35263e-05 3.15983e-21)
(0.000624717 9.77867e-05 -3.97004e-21)
(8.24625e-06 0.000222513 -3.85971e-21)
(0.000556092 -3.58562e-05 2.12946e-21)
(0.000278246 1.16948e-06 -2.78304e-21)
(0.000161124 -0.000165143 -5.20346e-21)
(0.000690989 0.000329587 -4.72966e-21)
(0.000320127 1.25097e-06 7.16845e-21)
(0.000376755 0.000397291 -1.37926e-21)
(0.000708441 0.000152694 8.72716e-21)
(0.00083847 0.000207689 4.47359e-21)
(0.000534134 0.000180247 -2.10333e-21)
(0.00103712 0.000152289 -3.36507e-21)
(0.000730558 0.00104154 4.95928e-22)
(0.000573007 -7.00598e-05 -1.29024e-20)
(8.97503e-06 -8.14133e-06 -6.48067e-21)
(5.71257e-05 0.000190216 -1.53367e-21)
(0.000638558 0.000119415 -1.82049e-21)
(0.000507985 0.000225099 -7.85822e-21)
(0.000279376 9.00331e-06 3.17765e-21)
(0.00115133 -0.00034325 -6.16928e-21)
(0.000177473 -5.8212e-05 0)
(-1.33182e-05 -3.66467e-05 0)
(0.000551018 -4.27233e-05 -1.89303e-21)
(4.39663e-05 5.69258e-05 0)
(0.000462462 9.28187e-05 0)
(0.000775946 6.63521e-05 0)
(0.000671693 0.000137064 3.75389e-21)
(0.000669026 7.73106e-05 -1.11975e-21)
(0.00132651 0.000421692 -1.39502e-21)
(0.000561909 0.000174018 0)
(0.000274009 7.3319e-06 -2.71566e-21)
(-2.89678e-05 -7.9708e-06 9.35505e-21)
(0.000672478 0.000761809 0)
(0.000557192 7.18894e-05 -1.39019e-21)
(0.00038744 0.000402736 -5.68881e-21)
(0.000282109 0.000290831 1.24275e-21)
(0.000660031 0.000525793 -3.42654e-21)
(0.000580629 -0.000108575 -4.29901e-21)
(0.00123872 -9.46783e-05 -3.41989e-21)
(0.0014239 9.17176e-05 0)
(0.00068768 0.000301748 8.55435e-21)
(0.000565245 3.01252e-05 -5.45476e-21)
(5.83777e-07 4.40654e-06 0)
(0.0007121 -0.000773567 -3.77886e-21)
(0.00024676 8.74999e-05 0)
(0.000194123 -8.46075e-05 -4.94807e-21)
(0.000193995 -5.06472e-05 -5.03161e-21)
(0.000671122 0.000110436 0)
(0.00048364 -0.000145635 -2.86904e-21)
(0.000185797 -0.000261325 -3.84275e-21)
(0.0014965 0.000132294 -5.44714e-21)
(0.000338194 0.000144959 -3.07429e-23)
(0.00029313 4.57277e-06 0)
(6.59759e-06 0.000219174 4.31038e-21)
(0.000300924 -0.000726146 0)
(-4.76128e-05 -6.22748e-06 -7.76683e-22)
(0.000539071 0.000185781 4.69276e-21)
(0.000829484 -0.000158502 6.28652e-22)
(0.000855716 -0.000159495 -7.18003e-22)
(0.000465962 0.000616197 -2.09684e-21)
(0.000501313 0.000243898 3.26343e-21)
(0.00049729 0.000365712 -4.14949e-21)
(0.000291398 0.000279149 -6.88537e-21)
(0.000509842 0.000144146 7.61442e-21)
(1.25821e-05 0.000234823 3.57043e-21)
(3.39852e-05 -0.000444625 0)
(0.000573672 -9.64049e-05 3.42046e-21)
(0.000501974 0.000214718 0)
(0.000555204 5.42555e-05 0)
(0.000557659 4.3184e-05 0)
(0.000372348 -0.000157115 4.34861e-21)
(0.000481634 0.000381663 0)
(0.000311723 0.000237964 -6.6406e-21)
(0.000351515 0.000143521 1.96452e-21)
(0.000478181 -4.75225e-05 -6.15025e-21)
(5.2824e-05 0.000194362 0)
(0.00070441 -0.00021423 -4.26318e-21)
(0.000777509 0.000146028 5.04873e-21)
(0.000627234 0.000132486 -7.75348e-25)
(1.76474e-06 3.17979e-06 -8.84284e-21)
(0.0009888 -0.000261222 0)
(0.000558542 4.54457e-05 0)
(0.000635558 0.000192577 1.04599e-22)
(-8.77305e-05 -0.000172333 0)
(0.000774651 0.00172019 -1.26251e-23)
(3.23873e-05 -0.000135345 0)
(3.91868e-05 -0.000140648 -1.00289e-20)
(0.000261058 4.29795e-06 5.4579e-21)
(1.64498e-05 7.27594e-05 0)
(0.000212976 -1.33112e-05 0)
(0.000536833 1.15964e-05 0)
(4.88752e-05 -5.94874e-05 -5.17484e-21)
(0.000700842 0.000316732 -5.70901e-21)
(0.000556318 7.24403e-05 -2.37999e-21)
(1.75481e-07 1.24828e-05 -6.40712e-22)
(0.000686404 5.76098e-05 -1.83973e-21)
(0.000613886 0.000159474 -5.28626e-21)
(0.00063453 -0.000127457 0)
(2.1372e-05 0.000121871 5.72051e-21)
(1.43358e-05 -6.63947e-06 -1.9652e-21)
(0.000337958 -0.000537977 5.19661e-21)
(0.000477988 0.000240805 0)
(0.000350764 4.28439e-05 0)
(-4.88252e-05 -0.000176466 -6.57377e-21)
(-4.20294e-05 -1.89061e-05 -2.02065e-21)
(0.000867788 -0.000179896 1.24604e-21)
(0.000122598 -2.83738e-05 5.25143e-21)
(0.000396234 2.06494e-05 2.10942e-21)
(0.00047948 0.00039853 0)
(2.70372e-05 0.00020183 2.65182e-21)
(0.000196284 7.74897e-05 -2.70585e-21)
(0.000231526 0.000497643 -3.05269e-21)
(0.000248285 0.000190547 -2.15784e-21)
(0.000499671 0.000228238 0)
(0.00047831 -1.12375e-05 -8.55361e-21)
(4.94732e-06 0.000224095 0)
(0.000566664 2.72332e-05 0)
(0.000490766 0.00012412 0)
(4.49017e-05 -5.7754e-05 3.86225e-21)
(0.000764203 0.000918051 -4.35023e-22)
(4.82695e-06 3.22389e-06 4.17586e-21)
(8.55187e-07 6.4437e-06 0)
(0.000622184 0.000133605 -7.08101e-21)
(-1.26675e-05 -3.96047e-05 -5.30626e-21)
(0.000118811 -2.80454e-05 -4.97644e-21)
(0.000197096 -1.46877e-05 -2.01311e-21)
(0.000558797 0.000164335 0)
(0.000534532 5.79653e-05 3.70211e-21)
(-7.91292e-05 -0.00018121 3.33778e-21)
(0.000169066 -0.000260235 3.05025e-21)
(0.000235782 -0.000720909 2.33673e-21)
(0.000777835 0.00017991 -2.22919e-21)
(0.000192271 -7.81076e-05 0)
(0.000696328 0.000354667 0)
(0.000676405 0.000112527 -4.80319e-21)
(0.000653288 0.000119093 -3.93204e-22)
(0.000542335 1.17099e-05 0)
(-2.429e-05 -2.57958e-05 2.30531e-23)
(0.000544801 4.28291e-05 0)
(0.000125477 0.000136356 1.02587e-21)
(0.00049812 6.90922e-05 -3.54061e-21)
(0.000785846 8.80261e-05 0)
(0.000754576 0.000358091 7.42353e-25)
(-3.93098e-05 -1.65162e-05 0)
(0.000102993 0.000313063 5.49941e-21)
(0.00040996 0.000302223 -5.24726e-21)
(0.000643942 -0.000380471 0)
(6.05547e-05 0.000168108 0)
(0.000201097 -1.28412e-05 -3.84619e-21)
(0.000458692 0.000291638 4.01914e-21)
(0.00069004 0.00052371 -7.22187e-21)
(0.000679986 0.000286033 0)
(1.38147e-05 6.63532e-05 0)
(1.70723e-06 0.000180336 2.01941e-21)
(0.000805663 0.000460836 2.85214e-21)
(4.62323e-05 -0.000334438 0)
(0.000979902 -0.000292667 2.8765e-21)
(0.000470985 0.000281938 -5.69271e-21)
(0.000314612 0.000103763 -4.0283e-21)
(0.000632492 0.000242494 -8.27241e-21)
(0.00120427 0.000284545 7.59342e-21)
(0.00061431 0.000166555 0)
(-3.81501e-05 -6.98173e-05 0)
(0.000477097 -1.79754e-05 1.19438e-20)
(3.21756e-05 0.000199874 -4.50471e-21)
(0.000885296 0.000163545 0)
(0.000172752 1.02933e-05 -3.91497e-21)
(0.00143158 0.000330142 -4.1155e-21)
(0.000753884 -0.000204877 0)
(0.000555683 9.02577e-05 4.27324e-21)
(2.03914e-05 -1.27409e-05 -6.56438e-21)
(0.000554644 -2.33493e-06 7.6021e-22)
(7.19402e-05 0.000168221 0)
(0.000992754 0.000394794 5.59666e-21)
(0.000619157 0.000370406 1.00331e-23)
(6.95601e-05 0.000155488 0)
(3.29436e-05 -5.05375e-05 -6.26777e-22)
(0.000838165 -1.21419e-06 0)
(0.000802971 0.000229725 -5.4478e-21)
(0.000855166 -2.60219e-06 -1.34218e-21)
(0.000259059 6.90198e-05 -7.99103e-21)
(0.000797075 5.17441e-05 -8.15063e-22)
(0.000609753 0.000122047 -5.05791e-21)
(0.000297198 -9.89336e-05 0)
(0.00105194 -0.000305255 -1.43842e-21)
(0.000792041 6.05753e-05 8.17645e-22)
(0.000602925 5.1631e-05 1.95529e-21)
(0.000131208 0.000138904 1.28872e-21)
(0.000616331 2.09557e-05 2.31431e-21)
(0.000762685 -0.000229958 0)
(3.74859e-05 -0.00031302 0)
(0.00123213 0.000147552 0)
(0.000676734 7.4374e-05 1.60882e-21)
(0.00035958 -0.000156162 -1.23021e-20)
(8.26424e-05 0.000140569 -2.581e-21)
(0.00121039 -1.93617e-05 1.87325e-21)
(0.000217909 6.026e-05 1.27136e-21)
(0.000642996 0.000278258 4.2652e-21)
(0.000714035 0.000210506 -6.09616e-24)
(0.000513434 0.000320133 7.17512e-21)
(0.000244833 0.000181068 -3.4097e-23)
(0.000556469 5.69279e-05 1.41808e-21)
(0.000864021 7.13686e-06 0)
(0.000781458 2.39504e-05 0)
(0.000403139 0.000134206 2.54753e-21)
(0.000196542 -0.000241313 -3.81054e-21)
(0.00102596 -0.000205481 0)
(0.000512811 0.00018139 0)
(1.16961e-05 0.000111928 -4.74399e-21)
(0.000465927 0.000238565 0)
(4.084e-05 0.000214192 1.00267e-21)
(0.00116405 -3.2371e-05 0)
(2.36923e-05 0.000129853 -2.9482e-21)
(0.000388692 1.50165e-05 2.21067e-21)
(0.000264895 -8.90389e-06 0)
(0.000214863 -9.32046e-06 -4.0423e-21)
(0.000340744 0.000173648 4.25941e-21)
(0.000567805 -0.000173355 7.29821e-21)
(0.000349765 4.81687e-05 0)
(0.000580827 0.00028419 2.3996e-23)
(0.000492785 -4.37599e-05 0)
(0.000824281 0.000482231 3.12537e-21)
(0.000275279 1.2461e-05 3.04905e-21)
(0.000563761 5.06147e-05 0)
(0.000569312 -9.08173e-05 -1.28476e-21)
(0.000308373 -0.000110014 4.459e-21)
(9.02019e-06 0.000236023 -2.35465e-21)
(0.000608469 0.00037907 2.23892e-21)
(0.00109181 -0.000302261 0)
(0.00106507 0.000168952 3.54041e-21)
(0.000231126 0.00013006 -5.30891e-21)
(0.000692784 0.000304899 2.77638e-21)
(0.000471586 -0.000115188 -1.03452e-20)
(0.000248174 0.000511129 -1.54411e-21)
(0.000187864 7.81551e-05 0)
(9.93439e-08 2.00172e-05 3.84378e-21)
(0.000610719 4.97487e-05 3.67591e-21)
(0.000583396 0.000308476 4.30367e-21)
(0.000589218 0.000112794 5.30724e-22)
(0.000649879 0.000264287 -4.18378e-21)
(0.000555703 0.00132918 -1.187e-21)
(0.000555442 0.000114825 0)
(0.000335336 0.000150637 -3.51621e-21)
(0.00104366 0.000410282 0)
(0.000342296 2.26617e-05 -4.38466e-25)
(0.000913173 0.000810055 3.70325e-21)
(0.000471293 -4.26957e-05 0)
(8.5652e-06 0.000237108 2.41247e-21)
(0.000620333 1.83421e-05 2.89909e-21)
(2.18153e-05 0.000214555 2.41971e-22)
(0.000429314 0.000754257 5.28189e-21)
(0.000757132 0.000280371 7.50527e-24)
(0.000128234 4.84707e-05 1.66252e-21)
(0.000608015 -0.000373213 -5.85743e-21)
(0.000553478 8.64391e-05 -4.54033e-21)
(0.000196033 -0.000227359 -2.98407e-21)
(0.000480189 0.000241195 1.7731e-21)
(0.00058315 0.000130828 6.72228e-21)
(0.000618467 -4.10688e-05 -1.15307e-20)
(0.00049802 7.38223e-05 0)
(0.000727687 0.000108635 -3.52153e-21)
(0.000631978 -4.27984e-05 -1.36869e-21)
(0.00065107 0.000645124 -8.68752e-22)
(8.10995e-05 0.00014161 1.92678e-21)
(4.77746e-05 0.000209098 -4.43057e-21)
(0.000885353 0.000122118 2.65947e-21)
(0.00105629 0.000239423 -1.92645e-21)
(0.000683754 0.000304263 4.00895e-21)
(0.000646731 0.000133012 3.71699e-21)
(0.000129671 4.11328e-05 7.44056e-22)
(0.000556001 2.37839e-06 0)
(0.0006154 -2.99022e-05 1.24119e-20)
(-1.83267e-05 -4.78887e-05 5.67263e-21)
(1.64583e-05 0.000165135 -6.06576e-22)
(4.64219e-05 5.89845e-05 0)
(0.000682953 -1.95177e-05 0)
(0.000648498 0.000148008 -1.06205e-20)
(0.000934125 0.000933842 0)
(0.00158437 0.00033522 0)
(0.000286133 -0.000112282 -2.22056e-21)
(0.00025492 3.92894e-06 0)
(0.000467155 0.000257867 -5.03342e-23)
(0.000674529 -0.000139455 -8.24817e-21)
(0.000724118 0.000478094 3.20646e-21)
(8.03425e-05 0.000148034 2.02766e-21)
(4.89858e-05 -1.9956e-06 0)
(0.000477322 -0.000121987 1.133e-20)
(0.000906801 -0.000435931 0)
(2.36699e-05 0.000194418 -2.55429e-21)
(0.000692993 0.000332927 7.72476e-21)
(0.000639516 -5.14285e-05 2.31733e-21)
(0.000692278 5.81824e-05 -2.24018e-21)
(0.00101055 0.000422374 0)
(9.9563e-05 0.000202547 -2.30349e-21)
(0.000619019 0.000169059 0)
(0.000624557 0.000314643 -2.9847e-21)
(0.000601062 0.000195657 -2.89496e-21)
(0.000254584 6.47451e-05 4.79004e-21)
(0.000588931 0.000198866 0)
(0.00163645 0.000331932 -1.93864e-21)
(0.00063969 0.000144938 0)
(9.141e-05 -6.92225e-05 2.52029e-23)
(0.000534084 0.000167686 0)
(4.98646e-05 -0.000297814 0)
(0.00035016 -0.00019981 3.69259e-21)
(0.000697954 -0.000192088 0)
(0.000409802 0.000153027 -2.36454e-21)
(5.5467e-05 4.62046e-06 0)
(0.00010931 3.54567e-05 6.58468e-22)
(8.18508e-05 0.000140778 0)
(0.000592532 0.000315557 7.10306e-22)
(0.000139387 -0.000189957 -1.46597e-20)
(0.000631799 0.000114599 -3.03209e-21)
(0.000543592 -9.10142e-05 -3.76903e-21)
(5.15377e-05 7.02467e-05 0)
(0.000195858 0.00023274 -1.64505e-21)
(0.000708301 0.000150218 5.34401e-21)
(0.000591158 0.000210637 -5.46942e-21)
(0.000246637 -2.00604e-06 5.42775e-21)
(0.000379009 0.000139748 -8.92765e-21)
(0.000724367 -0.000219062 6.405e-21)
(0.000656261 0.000131145 -1.92428e-21)
(0.000891519 0.000138421 -9.93934e-21)
(0.000204597 -8.53445e-05 3.15775e-21)
(0.000340398 -0.000140549 -1.10433e-20)
(0.000280101 -4.20117e-05 0)
(0.000678553 0.000276487 2.36324e-21)
(0.000461337 -9.51772e-05 0)
(0.000636769 0.0001518 5.87908e-21)
(0.000905055 -0.000467181 1.22378e-21)
(4.13972e-06 1.90887e-06 -5.29045e-21)
(0.000492174 -0.000171934 -8.03433e-21)
(0.000843285 -2.07581e-05 0)
(0.000183433 -7.78367e-05 0)
(0.000677716 4.75632e-05 2.82917e-21)
(0.000733184 -0.000203103 -6.67491e-21)
(0.00027867 -3.72491e-05 1.54085e-21)
(0.000435435 0.000430722 -1.77143e-21)
(0.000411453 1.02788e-05 -5.7943e-21)
(0.000703765 0.000321828 -7.29127e-21)
(0.000756675 1.95362e-05 -4.63497e-21)
(5.49711e-05 8.28865e-06 -5.52905e-21)
(2.21272e-06 6.32102e-05 -2.0217e-21)
(0.000524157 0.00012356 0)
(2.07111e-06 5.62254e-05 0)
(0.000529428 6.2637e-05 -4.08228e-21)
(-4.40195e-09 -9.75447e-08 -4.3435e-21)
(0.000660099 7.57941e-05 0)
(4.80956e-05 6.93226e-05 0)
(0.000623217 0.000103458 0)
(0.000574594 0.000565561 9.16032e-22)
(0.000102517 -8.78199e-05 4.49263e-21)
(0.00143359 0.000241455 -2.8367e-21)
(0.000394384 6.58949e-05 -2.59366e-21)
(0.00126618 0.000438384 -2.96641e-21)
(-2.49577e-05 -2.87538e-05 9.96425e-21)
(0.000618427 0.000137012 6.60573e-21)
(0.00127282 -0.00012931 -1.80177e-21)
(0.00158039 0.000188345 -3.23754e-21)
(0.000161598 -0.000141913 -5.1527e-21)
(0.000700512 0.000303345 0)
(0.000579166 -0.000167418 -7.77483e-21)
(0.000569024 0.000198102 0)
(0.00050856 0.000350625 2.37797e-21)
(8.67204e-05 0.000138533 1.02591e-21)
(1.79009e-05 0.000164668 2.37785e-21)
(0.000256226 -1.33241e-05 0)
(0.000400647 0.000138527 -5.16347e-21)
(0.00110452 0.00016964 -3.76986e-21)
(0.000518493 0.000101021 2.59893e-21)
(0.00146622 0.000263515 -3.16065e-21)
(0.000620393 8.98631e-05 3.22624e-21)
(0.00151735 0.000307201 0)
(7.2562e-05 0.000167913 2.23231e-21)
(0.000670716 0.000303297 -5.26618e-21)
(0.00113539 -9.2105e-06 6.22316e-21)
(0.00133281 0.000433471 -1.55791e-21)
(0.000392183 6.17806e-05 0)
(0.00173225 0.000356532 8.07394e-21)
(0.000664669 0.000112653 6.57886e-21)
(0.00103605 0.000290702 -2.3653e-21)
(0.000467231 -6.46905e-07 2.82267e-21)
(0.00053709 -0.000163655 4.11629e-21)
(0.000660847 -6.48313e-05 5.85169e-24)
(2.40401e-06 0.000192613 -2.08695e-21)
(0.00048319 0.000138998 -3.22467e-21)
(0.000403884 1.11199e-05 1.08348e-20)
(0.000672924 0.000289634 -4.09378e-21)
(0.000564198 0.000105152 0)
(0.000353168 -0.000141443 3.80194e-21)
(0.000936313 0.000202133 0)
(0.0017588 0.000879093 -4.02673e-21)
(0.00068282 3.65382e-05 0)
(0.000570334 0.000248019 -8.36052e-21)
(0.000664022 0.000118535 0)
(0.000856019 5.03894e-06 -2.83461e-21)
(0.00067591 0.000248549 0)
(7.05935e-05 7.70328e-05 0)
(1.07693e-05 0.000109786 2.36893e-21)
(0.000566869 0.000212879 3.37765e-21)
(0.000715258 0.000216247 0)
(0.000540121 6.23659e-05 -6.43705e-22)
(0.000514986 -4.29195e-06 -1.68506e-21)
(0.000567317 5.17245e-05 -2.35721e-21)
(0.00056236 0.00011419 -2.90133e-21)
(0.000834847 0.000404089 0)
(8.13683e-06 9.59811e-05 4.02108e-21)
(0.000305412 0.000205336 2.24152e-21)
(0.000655897 0.000118839 -5.07659e-22)
(0.000694766 0.000108208 -2.00991e-21)
(0.000521263 -6.67001e-06 -3.80104e-21)
(6.98533e-05 8.16595e-05 -7.23792e-21)
(0.00051293 0.000115669 6.06805e-21)
(2.7507e-06 5.41923e-05 -2.10288e-21)
(0.000746254 0.000111747 1.84932e-21)
(0.00069423 0.000322287 5.68643e-21)
(0.000589357 0.00022468 6.63001e-21)
(6.40971e-05 3.04605e-05 2.93477e-21)
(2.15555e-05 0.000151237 0)
(0.00101116 0.000373278 0)
(7.4591e-05 0.000122245 5.31443e-21)
(0.000655358 0.000243841 1.31113e-23)
(-4.00102e-05 -1.29132e-05 0)
(0.000741758 0.00052783 -8.82096e-21)
(0.00017232 -0.000156565 -3.06911e-21)
(0.000666778 0.000307674 -2.68264e-21)
(-5.81856e-05 -6.69391e-05 6.64879e-21)
(0.000122977 -3.22087e-05 -4.87067e-21)
(2.84106e-05 5.94176e-06 -2.6136e-21)
(0.00054968 0.000191214 0)
(0.000348389 0.000148879 0)
(2.38535e-05 0.00018954 0)
(0.000233291 0.000352984 -1.95204e-21)
(0.000303864 0.000104929 -3.57428e-21)
(0.000665901 0.000236374 -2.88616e-21)
(1.65066e-07 2.035e-06 0)
(4.79115e-05 7.93419e-05 0)
(0.00105491 0.000476497 -3.58259e-21)
(5.09734e-05 -5.17237e-06 4.34514e-23)
(0.000164848 2.79827e-05 -6.51735e-21)
(0.000808699 0.000161877 -4.55031e-21)
(6.55908e-05 2.5471e-05 -5.90894e-21)
(0.000902164 0.000129461 6.79274e-21)
(0.000565006 -3.65272e-05 -1.08406e-21)
(2.7548e-07 8.2118e-06 -2.90065e-21)
(0.000244249 0.000606421 0)
(0.000472333 -2.18627e-06 -5.78792e-21)
(0.000538738 6.1775e-05 0)
(0.000520521 0.00012293 0)
(0.000548746 4.45632e-05 0)
(0.000332194 -0.000152745 6.92592e-21)
(0.00055424 0.000196965 0)
(7.82347e-05 0.000117262 1.78624e-21)
(0.00126226 -0.00016936 -8.60362e-21)
(4.89082e-06 0.000235644 2.21437e-21)
(0.00058709 -9.70916e-06 0)
(0.000749546 2.66409e-05 3.62168e-21)
(0.000390885 -8.72124e-05 2.78578e-21)
(-3.49581e-05 -5.78864e-06 -1.36185e-20)
(0.000389275 0.000141509 2.33091e-21)
(0.000649615 0.000257628 0)
(0.000532185 -2.71349e-05 0)
(0.000610313 0.000135601 6.54572e-21)
(0.000542494 -3.94372e-05 0)
(0.000593459 0.000201692 0)
(0.000681924 -0.000155869 6.26084e-21)
(0.00107245 0.000251851 -4.02649e-21)
(0.000581881 0.000206636 0)
(4.98283e-05 5.55485e-05 2.93073e-21)
(6.61661e-05 1.82699e-05 8.17518e-21)
(0.000175744 -8.20846e-05 -1.23099e-21)
(0.000299756 6.91184e-05 -1.51044e-21)
(0.000494963 -3.56577e-05 3.61609e-21)
(0.00140262 0.000268803 3.12122e-21)
(0.000574248 0.000603618 1.27464e-21)
(0.000528527 0.000352566 -2.2537e-21)
(0.000495757 -0.000158707 1.50731e-20)
(6.46742e-05 1.71079e-05 -5.30947e-21)
(-5.95861e-05 -6.28376e-05 -6.30484e-21)
(0.000627012 0.000621974 0)
(0.000648097 0.000115439 -6.74421e-21)
(0.000402137 0.000123259 -2.83407e-21)
(0.000510883 0.000194986 3.11195e-21)
(0.000372277 -6.67828e-05 2.11497e-23)
(4.23924e-05 -5.64337e-05 -6.35437e-21)
(0.000442109 -8.43021e-05 -1.67215e-21)
(0.000952216 0.000214654 0)
(0.000673412 -6.07661e-05 -3.73358e-21)
(0.00115612 0.000101762 1.07014e-21)
(0.000569686 0.000204498 3.71549e-21)
(0.000688051 0.000181075 -7.60014e-21)
(0.000641417 -4.02085e-05 -9.98725e-22)
(4.45635e-05 8.02561e-05 2.9168e-21)
(0.00149185 0.00029476 2.53695e-22)
(0.000337956 0.000188776 0)
(0.000594411 0.000307127 0)
(0.000470675 0.000341775 -1.79151e-21)
(0.00112627 0.000300358 3.99211e-21)
(0.000387373 -9.60583e-05 4.83236e-21)
(5.21123e-05 -3.8254e-06 -2.27812e-23)
(3.08119e-05 -4.93216e-05 -9.28985e-24)
(0.000656831 2.79161e-05 2.71571e-21)
(7.34462e-05 0.000162315 2.86394e-21)
(0.000103754 0.000107337 2.66926e-21)
(0.000296466 9.70225e-06 0)
(0.000606272 6.11759e-05 -9.48905e-22)
(0.000700938 -0.000152907 -4.4716e-24)
(0.000650927 8.34058e-05 4.3938e-21)
(0.000871835 1.06741e-05 -1.49013e-21)
(0.00102487 0.000413539 0)
(5.44664e-05 2.03363e-05 -5.81272e-21)
(0.000161226 3.25767e-05 3.9235e-21)
(0.000168621 1.00123e-05 0)
(0.000132381 0.000145109 -1.38107e-21)
(6.60408e-05 8.93487e-05 9.43524e-21)
(5.26196e-05 2.42603e-05 -7.75231e-22)
(0.000533483 7.1186e-05 2.18233e-21)
(0.000552046 -0.000105293 -3.99439e-21)
(0.000153547 -0.000190743 6.31496e-21)
(0.00101331 0.000495572 6.00355e-21)
(-4.19719e-05 -7.68905e-06 2.07966e-21)
(0.00143923 0.000287823 9.09022e-22)
(0.000630492 0.000134664 3.28614e-21)
(0.000314 -0.000530542 -4.72822e-21)
(8.15405e-05 -0.00043983 -9.99333e-21)
(3.4915e-05 -3.90214e-05 1.13135e-21)
(0.000617979 0.000104835 3.97641e-21)
(0.000113965 0.000194658 -2.26548e-21)
(0.000471399 -0.000100486 0)
(0.000355843 -5.89709e-05 0)
(0.0016915 0.000331298 -7.28488e-21)
(0.000581302 0.000205964 -3.62861e-21)
(3.62525e-05 6.3849e-05 -5.33629e-21)
(0.000373969 -3.725e-05 0)
(5.32391e-06 0.000236284 -6.66329e-22)
(1.17799e-05 0.000217973 -3.19851e-21)
(0.00018841 -5.17596e-05 0)
(0.000630456 0.000160908 3.58439e-21)
(0.000635439 2.23073e-05 -2.61054e-21)
(0.000552323 6.7883e-05 -2.53758e-21)
(0.000232948 0.000197552 6.60623e-21)
(0.000163534 -2.75497e-05 -4.25663e-21)
(0.00116049 0.000105489 0)
(0.000511348 0.000314317 0)
(3.60622e-05 -8.88167e-06 0)
(0.000937739 -0.000516374 1.06002e-20)
(0.00114405 8.90786e-05 -3.15302e-21)
(0.00109282 0.00024209 -4.19032e-21)
(0.000512958 9.10672e-05 2.90235e-21)
(0.00109981 5.45597e-05 -2.6019e-21)
(1.03889e-05 8.91044e-06 5.16871e-24)
(0.000695314 -0.000599219 0)
(0.000475787 0.000115675 0)
(1.20388e-05 6.40965e-05 -2.51943e-21)
(0.000642294 4.18378e-05 2.32958e-21)
(0.000783761 -0.000231883 1.13374e-21)
(0.000148131 -5.90585e-05 0)
(0.000209106 -0.000692043 -1.04606e-20)
(0.000487133 -2.33367e-05 0)
(0.000397482 9.15174e-05 0)
(3.74566e-07 5.45729e-06 2.56685e-21)
(0.000455297 8.224e-05 -1.13955e-20)
(0.000579443 4.68132e-05 -3.96012e-21)
(0.000451922 0.000351588 5.91756e-22)
(-3.79046e-05 -1.03388e-05 -2.15504e-21)
(6.84061e-05 0.000133539 3.44246e-21)
(0.000520565 0.000210387 6.03469e-21)
(6.9253e-05 -6.65843e-05 -6.23749e-21)
(0.000589602 1.9931e-05 7.41243e-21)
(0.000601441 0.000129329 -3.08553e-21)
(0.000823191 0.000227296 -2.84954e-21)
(3.7207e-05 -5.30555e-05 4.92611e-21)
(0.00083317 2.91722e-05 0)
(0.000403916 -2.16298e-05 -1.2062e-21)
(0.000521668 0.000169246 -3.55963e-21)
(6.90795e-05 -6.72814e-05 3.2789e-23)
(0.000683643 0.000346433 4.64062e-21)
(0.00059488 1.70024e-05 -4.75665e-21)
(0.000572388 0.000108382 1.35946e-21)
(0.000241078 0.000198978 -5.3342e-21)
(5.05703e-05 -3.02307e-06 0)
(3.90381e-05 -5.41255e-05 0)
(0.000335219 2.29481e-05 -1.16848e-20)
(5.17097e-05 6.05861e-05 0)
(0.000579576 0.000516771 3.41912e-22)
(0.00037653 -7.5791e-05 0)
(0.000375059 -4.04285e-05 -1.50195e-20)
(1.20784e-05 0.000143211 -5.38144e-21)
(0.000556611 4.61399e-05 -3.33455e-21)
(0.000645177 0.000120379 0)
(0.000159681 -5.86548e-05 -7.329e-21)
(3.82424e-05 -5.42169e-05 0)
(0.000521999 8.99418e-05 2.62745e-21)
(0.000970388 0.000411371 3.76693e-21)
(0.000268369 0.000640633 4.36717e-22)
(0.000597 -5.79098e-05 2.51377e-21)
(3.83706e-05 -1.6012e-05 -6.79151e-21)
(1.61111e-05 0.000135422 4.38556e-21)
(0.000684269 5.64332e-05 3.2312e-21)
(1.35773e-07 2.46475e-06 3.73122e-21)
(6.03216e-08 3.52208e-05 -1.1622e-21)
(4.52394e-05 0.000161976 -2.21704e-23)
(0.00134287 0.00028877 3.97285e-21)
(0.000642656 2.58665e-05 0)
(0.000605184 0.000185571 -3.31992e-21)
(9.58445e-05 -6.98482e-05 5.66836e-24)
(0.000584401 0.00025947 4.27203e-21)
(0.000462602 -0.000135166 -3.51543e-21)
(3.55567e-05 -3.72955e-05 1.70082e-23)
(0.000605072 0.000130633 -1.00221e-20)
(0.000560131 6.75183e-05 -7.13818e-23)
(1.22311e-05 0.00015058 2.10818e-21)
(3.56222e-05 -7.68692e-06 0)
(0.000465105 9.42705e-06 -3.00028e-21)
(0.000578104 4.40004e-05 5.6379e-21)
(0.000829046 0.000283017 0)
(0.000456616 1.0845e-05 7.79791e-21)
(0.000348421 -6.29643e-05 1.11332e-20)
(9.40526e-06 0.000223849 3.04239e-21)
(0.000557374 0.000213884 0)
(0.000117495 6.88918e-05 -5.09338e-21)
(0.000645003 0.000282604 -3.89497e-21)
(0.000669053 -0.000160096 4.68258e-21)
(2.54847e-06 4.94612e-05 1.14997e-21)
(0.000684708 0.000341129 -5.13309e-21)
(0.000608131 -3.19988e-05 2.90076e-21)
(9.46772e-06 5.67224e-05 2.35075e-21)
(0.000532832 2.39596e-05 5.08223e-21)
(0.000856147 0.000264807 -5.59579e-22)
(0.00014582 -5.91839e-05 3.8671e-21)
(0.000141137 -6.48377e-05 -3.76113e-21)
(0.000191651 -1.13937e-05 4.22122e-21)
(1.4329e-05 0.000214343 1.13728e-21)
(0.000399821 0.000150726 -2.29711e-21)
(0.000162161 -2.9132e-05 3.97347e-21)
(0.000464974 2.54083e-05 -6.41056e-22)
(0.00104569 -0.000238295 0)
(0.000420831 -2.93479e-05 -5.86748e-21)
(6.72591e-06 9.19918e-05 -4.28336e-21)
(0.000522482 8.12349e-05 -5.30216e-21)
(0.000577067 0.000593022 -7.65016e-22)
(0.000350324 0.000101067 0)
(0.000557208 4.53484e-05 0)
(0.000431753 0.000271592 0)
(0.00116203 9.86496e-05 0)
(1.10548e-08 -6.8314e-08 4.2329e-21)
(0.00129614 6.48081e-05 0)
(0.000421653 -0.000137509 3.72458e-23)
(0.000109156 -9.09842e-05 0)
(0.000121139 3.82642e-05 -2.65937e-21)
(0.000662606 -0.000607679 -3.67261e-21)
(5.36509e-05 -4.93319e-06 3.27685e-21)
(0.000365701 -0.000226125 8.30781e-21)
(0.000544919 0.000101264 -5.61291e-21)
(0.000856622 3.82116e-05 0)
(0.000779689 0.000186725 -6.52736e-21)
(0.000996879 -0.000265354 -2.96259e-21)
(6.58099e-05 9.32071e-05 3.40668e-21)
(0.000147776 7.45834e-05 -2.41607e-21)
(0.000141517 9.63667e-06 -3.83098e-21)
(0.000206188 0.000233569 1.11401e-22)
(0.00134413 0.000584744 0)
(2.10835e-05 -1.04852e-05 -3.98379e-21)
(0.000513459 0.000204889 -5.49887e-21)
(0.000708557 0.000224291 0)
(0.0013158 0.000162148 -4.15287e-21)
(1.21684e-06 3.90477e-06 -4.5693e-21)
(7.48236e-05 6.33923e-05 -3.27785e-21)
(5.36882e-06 0.000124574 0)
(4.28213e-05 -5.62115e-05 -4.07067e-21)
(1.33509e-05 0.000221184 -3.02354e-21)
(1.15204e-05 0.000222163 4.24286e-21)
(0.000674377 0.000906912 3.38085e-21)
(5.00681e-05 3.86915e-06 0)
(0.000404024 1.98694e-05 -4.71833e-21)
(6.42579e-05 -3.55397e-06 0)
(0.000693554 0.00013197 2.7515e-21)
(0.000485763 -3.04324e-05 0)
(0.000699989 0.000199759 1.80539e-21)
(0.000504103 -0.00020048 -1.3617e-21)
(0.00164916 0.000761295 2.5309e-21)
(0.000646644 0.000143416 -8.53831e-22)
(0.000224293 6.44041e-05 0)
(0.000462022 8.62321e-05 3.0488e-21)
(0.000540369 -2.93981e-05 0)