/*--------------------------------*- C++ -*----------------------------------*\
| =========                 |                                                 |
| \\      /  F ield         | OpenFOAM: The Open Source CFD Toolbox           |
|  \\    /   O peration     | Version:  v2012                                 |
|   \\  /    A nd           | Website:  www.openfoam.com                      |
|    \\/     M anipulation  |                                                 |
\*---------------------------------------------------------------------------*/
FoamFile
{
    version     2.0;
    format      ascii;
    class       volScalarField;
    location    "50";
    object      epsilon;
}
// * * * * * * * * * * * * * * * * * * * * * * * * * * * * * * * * * * * * * //

dimensions      [0 2 -3 0 0 0 0];


internalField   nonuniform List<scalar> 
13749
(
0.00113737
8.50017e-07
1.51861e-06
1.053e-06
0.00763151
7.53885e-07
0.00911507
1.41268e-06
3.65132e-06
1.04165e-06
7.54782e-07
1.54982e-06
1.52175e-06
0.00275452
1.18437e-06
0.00280212
1.25028e-06
1.37509e-06
7.76266e-07
7.85753e-07
0.00600924
0.00824193
1.09192e-06
1.6785e-06
1.6864e-06
7.56647e-07
1.20909e-06
2.40021e-06
0.00946274
0.00634657
2.42144e-05
1.05967e-06
3.79835e-06
1.18952e-06
0.000194448
0.00719548
0.00896564
1.24914e-06
0.000237122
0.0101972
1.43189e-06
4.31821e-06
8.68314e-07
0.00855725
7.75838e-07
8.50418e-07
7.66333e-07
9.14857e-07
1.88646e-06
1.37527e-06
1.68985e-06
7.75411e-07
0.00999905
9.47273e-07
1.40232e-06
0.00818015
0.00889109
1.736e-06
7.74207e-07
2.64961e-06
1.05702e-06
2.5162e-05
1.29144e-06
1.0411e-06
2.28634e-06
0.000129422
1.65132e-06
3.16163e-06
0.00825503
0.000781689
1.67263e-06
3.96329e-06
1.30329e-06
0.00700786
1.42383e-06
0.00598342
1.07451e-06
7.47252e-07
0.00950686
8.56321e-07
1.84522e-05
1.686e-06
1.64132e-06
7.62836e-07
0.0102177
7.6556e-07
0.00211165
1.65206e-06
0.00541077
2.24588e-06
9.62711e-07
3.7246e-05
7.56285e-07
6.72265e-07
1.40841e-06
0.0056643
0.00618764
1.66806e-06
0.0116609
7.59821e-07
1.06456e-06
0.00336707
1.21763e-06
3.94453e-06
7.56942e-07
1.48391e-06
9.55987e-07
0.000132131
7.48805e-07
0.00640141
1.23916e-06
0.000133714
0.0091516
1.39018e-06
2.2918e-06
1.88568e-06
1.06221e-06
1.55339e-06
2.45179e-06
1.3754e-06
9.40247e-07
2.56716e-06
7.55361e-07
8.24222e-07
7.96983e-07
0.0097422
4.43732e-06
1.43013e-06
8.19327e-07
0.000695241
7.66216e-07
0.00191938
2.49192e-06
0.0107955
4.47902e-06
0.00842969
0.00702836
2.57508e-06
7.60653e-07
7.76696e-07
0.00630189
7.69525e-07
9.40425e-07
0.00337268
1.22283e-06
7.4955e-07
0.0053841
0.00812999
0.00681966
0.00904577
7.64943e-07
0.00651476
7.53469e-07
4.0137e-06
0.00991006
1.4625e-06
0.0021612
7.2962e-06
1.87671e-06
1.15898e-06
1.51147e-06
7.572e-07
3.78973e-06
7.66193e-07
7.70374e-07
1.52196e-06
7.98482e-07
1.2466e-06
0.0077276
1.02063e-05
1.2707e-06
7.57193e-07
0.0090876
0.00568605
5.08434e-07
1.52323e-06
4.63217e-06
2.64244e-05
2.39789e-06
0.0069044
1.63509e-06
1.38895e-06
4.79669e-06
0.00292205
1.51158e-06
7.76999e-07
9.36859e-07
7.93119e-07
0.0200621
8.9475e-07
0.00761836
1.83039e-05
1.52058e-06
1.49557e-06
7.64323e-07
7.85702e-07
2.45232e-06
1.71765e-06
1.97593e-06
1.10132e-05
0.00723385
1.50958e-06
0.00995592
0.00743016
9.83802e-07
0.000638422
4.27461e-06
0.00915761
7.60484e-07
7.99134e-07
1.43234e-06
0.0012608
1.7456e-06
8.85953e-07
0.0109954
0.000172839
1.50157e-06
0.0065897
1.44105e-06
9.44373e-07
7.58e-07
0.00616605
3.9894e-06
1.63853e-06
5.03557e-05
0.00756587
0.00353369
7.65234e-07
0.000605955
9.30957e-07
7.3331e-05
0.00510199
9.19182e-07
7.54216e-07
1.34585e-06
7.47318e-07
0.00510874
9.26439e-07
1.17949e-05
7.60789e-07
0.00158873
1.08247e-05
9.41832e-07
9.7248e-07
7.76748e-07
7.63194e-07
9.99028e-07
8.93895e-07
8.18457e-05
2.41177e-05
1.2605e-06
7.67033e-07
0.00691861
0.00401716
6.72806e-06
7.54576e-07
0.00563482
3.20258e-06
1.42679e-06
8.31828e-07
0.0108209
0.00972232
1.25242e-06
1.66333e-06
8.27528e-07
7.47361e-07
7.49944e-07
1.05104e-05
0.00801977
1.57034e-06
7.71979e-07
1.49164e-06
0.00594335
0.00581519
9.3053e-07
0.00943725
0.000174772
1.69764e-06
0.00781302
1.22853e-06
7.86324e-07
0.00508099
0.00811968
1.48792e-06
0.000123263
1.56413e-06
7.55038e-06
2.15812e-05
8.2613e-07
0.0105272
0.00725464
3.46095e-06
1.37898e-06
1.71103e-06
0.0098153
0.0094059
8.30622e-07
1.40652e-06
0.00138854
1.48183e-06
0.00992773
9.6547e-06
0.00504526
1.46771e-06
2.53276e-06
0.00634555
0.00803316
9.7223e-07
0.00780989
7.85867e-07
8.06344e-07
1.70321e-06
0.00110127
2.00193e-06
1.73815e-06
1.01808e-06
7.57885e-05
8.11541e-07
4.1874e-06
7.80916e-07
9.32105e-07
9.44198e-07
1.47885e-06
0.000156094
1.29431e-06
1.46948e-06
0.00726759
9.27077e-07
1.0596e-06
0.00816581
0.0113233
1.3413e-06
7.59087e-07
0.00358982
1.41586e-06
9.85627e-07
0.00222509
1.39684e-06
0.00704733
0.00144118
7.47619e-07
0.00443088
0.00375161
1.54803e-06
7.56617e-07
1.97912e-06
1.70986e-06
1.73844e-06
1.10558e-06
0.00017456
1.49291e-06
0.00627608
1.28996e-06
7.6516e-07
1.87471e-06
1.88532e-06
1.6227e-06
1.4457e-06
1.74721e-06
7.74523e-07
1.12856e-06
9.18331e-07
2.34891e-06
0.00711315
7.55221e-07
7.70183e-07
7.49334e-07
2.77395e-06
1.42142e-06
1.2659e-06
7.72773e-06
7.5726e-07
1.37918e-06
3.23827e-05
1.3159e-06
8.53488e-07
7.69767e-07
9.34924e-07
0.00732617
6.3045e-06
1.23733e-06
7.7727e-07
7.71579e-07
0.000177246
1.86131e-06
0.000157879
0.00438164
2.52306e-06
0.00627923
0.00561781
1.48483e-06
1.1131e-06
9.31968e-07
0.000184126
0.00771697
9.45002e-07
1.00891e-06
1.28647e-06
0.00515754
7.66928e-07
1.94541e-06
1.31186e-06
2.35856e-05
9.4648e-06
7.77734e-07
0.00409001
0.0119058
1.13203e-06
6.23408e-05
0.000944414
7.5876e-07
8.22415e-05
1.22114e-06
0.000216256
7.47633e-07
0.00339949
0.00677017
1.40527e-06
0.00869465
0.00666688
1.02453e-06
1.69622e-06
0.0066429
1.66597e-06
1.18168e-06
1.5169e-06
7.73954e-07
1.18177e-06
1.6003e-06
1.27267e-06
2.39817e-06
1.07045e-06
8.35943e-07
7.8235e-07
1.31149e-06
1.28279e-06
1.27548e-06
0.0178167
4.9293e-06
2.81508e-06
0.000839432
0.00478937
1.74892e-06
0.00270489
0.00932062
0.00819846
1.40109e-06
1.37984e-06
0.00549092
0.000225621
2.2159e-06
8.2793e-06
7.50549e-07
7.63046e-07
1.54155e-06
1.67823e-06
1.63592e-06
0.00641169
0.00613605
0.0122133
7.64278e-07
1.00033e-06
0.00948638
7.63406e-07
0.0073223
0.00132965
1.36054e-06
1.70069e-06
2.33739e-06
0.00734631
1.68997e-06
0.0082326
9.60152e-07
1.39651e-06
7.94024e-07
0.00203972
2.08072e-06
9.28176e-06
1.62561e-06
0.000809823
7.85661e-07
1.67321e-06
1.01071e-06
8.30841e-07
1.02022e-06
7.64177e-07
1.15643e-06
1.37339e-06
1.38819e-06
0.0088932
7.62549e-07
6.25261e-06
2.40301e-06
8.47035e-07
0.010202
0.00969197
0.00794031
1.17371e-06
8.18177e-06
1.82661e-06
0.00018555
9.39843e-07
1.82065e-06
7.59684e-07
0.0095365
1.30644e-06
7.74238e-07
0.00793859
0.000767005
1.36063e-06
0.000187873
0.00690858
1.79562e-06
0.000766582
0.00262211
7.45447e-07
0.00509582
7.89917e-07
0.00782613
0.00021275
8.64875e-07
1.46598e-06
0.00993087
1.65635e-06
9.99693e-07
0.00596279
0.0116194
7.33607e-05
1.80696e-06
0.000575646
1.54775e-06
1.34581e-06
0.00707923
0.0101488
1.82769e-06
0.005243
0.00546821
8.49176e-07
0.00793517
1.61613e-06
1.04909e-06
0.00594403
0.00632972
1.50679e-06
1.24323e-06
0.00983436
1.56293e-06
1.36756e-06
0.00571221
0.00189953
0.0103983
1.26919e-06
0.008598
1.954e-06
0.0100036
7.98279e-07
5.14138e-06
0.00518675
1.1692e-06
1.56259e-06
1.27983e-06
0.0145699
0.000291553
7.47716e-07
2.40789e-05
1.04355e-06
0.00149846
0.000492944
1.62278e-06
2.01978e-06
1.61417e-06
1.31549e-06
0.00919907
3.85712e-06
1.66735e-06
0.00554978
2.02435e-06
0.00570414
1.56138e-06
9.94855e-07
0.00118263
1.75777e-06
1.73577e-06
0.00960652
1.358e-06
0.00408851
0.000193377
1.64916e-06
0.00934687
1.70141e-06
0.00928856
2.31458e-06
3.55503e-05
2.15749e-06
1.62583e-05
0.00291952
8.393e-06
0.0105649
0.0079082
1.19678e-06
0.00340763
1.3935e-06
0.00961638
0.00728123
0.00565249
0.00708712
1.34247e-06
7.73383e-07
1.47261e-06
0.000160861
1.61042e-06
1.49896e-06
1.67232e-06
2.69408e-05
2.30558e-06
9.75544e-06
1.19166e-06
2.29749e-06
0.00632547
1.3935e-06
1.07764e-06
0.00144007
2.48382e-06
1.51679e-06
0.00268289
1.18573e-06
0.00780769
1.32269e-06
9.38289e-07
7.50493e-07
9.5037e-07
0.00215152
1.43317e-05
3.61947e-06
2.17455e-06
0.00565121
7.54534e-07
9.43827e-07
1.2709e-06
0.0107507
1.04975e-05
0.0101435
0.00710017
0.00620536
7.60492e-07
0.00643106
1.03745e-06
0.000123098
1.21068e-06
1.98667e-06
0.00998285
7.38072e-05
0.0028724
3.59934e-06
1.41028e-06
2.38692e-06
1.07838e-06
9.26066e-06
0.00363952
0.00382852
9.39761e-07
0.000600181
0.00543232
0.00566723
0.00809197
0.0064167
0.00563389
0.00232116
1.38886e-06
1.83459e-06
2.3471e-06
1.73393e-06
9.67514e-07
7.48928e-07
1.54222e-06
1.65333e-06
4.24657e-05
1.6849e-06
0.00692051
0.00353859
7.66178e-07
1.22546e-06
0.00771823
0.00794467
0.0008513
1.40596e-06
0.00685924
1.62756e-06
1.46451e-06
0.00252765
2.35771e-06
0.0101872
7.58544e-07
7.47439e-07
0.010408
1.04557e-06
0.0107657
8.00432e-07
0.010197
1.83079e-06
1.18595e-06
7.75048e-07
2.86368e-05
7.56756e-07
0.0109009
1.47856e-06
0.000205555
0.0003815
7.6499e-07
1.47572e-06
0.000268441
0.00339984
1.35673e-06
0.00469892
7.54908e-07
9.26111e-07
1.6245e-06
0.000879274
0.00756833
0.000187794
8.08596e-07
1.11756e-06
1.02706e-05
1.51473e-06
1.26464e-06
0.0244185
9.63325e-07
0.00215048
1.04365e-06
0.00746112
0.000200652
1.30335e-06
0.00968667
0.00748156
2.235e-06
1.41858e-06
0.000879548
7.15942e-06
0.00182985
1.66184e-06
7.13058e-05
0.000191233
9.15607e-07
3.88264e-06
1.07993e-06
0.00780013
2.66966e-06
7.6282e-07
1.2678e-06
1.46819e-06
0.0001328
1.64258e-06
9.30321e-07
1.70585e-06
0.00721765
1.51515e-06
7.62744e-07
1.39485e-06
0.00796048
7.9155e-07
9.51597e-07
7.45236e-07
2.15269e-05
1.33161e-06
0.0066235
1.36e-05
0.00709722
0.00787863
1.46883e-05
0.00735838
7.48978e-07
0.00626871
3.16e-06
1.53903e-06
1.24873e-06
9.17188e-06
0.000463003
0.00598182
0.00477192
7.85573e-07
7.76326e-07
0.000315179
0.012055
7.4836e-07
1.82702e-06
8.26377e-07
1.26377e-06
7.96554e-07
9.05109e-07
0.00759953
9.06433e-07
8.02159e-07
9.08666e-07
7.72726e-07
8.53133e-07
0.00339237
2.12041e-05
0.0106656
0.00484634
0.00643618
0.00672015
0.00749168
7.68337e-07
0.00641345
1.57403e-06
2.36543e-05
1.58397e-06
7.49614e-07
0.0096521
9.11431e-07
3.57734e-06
8.22281e-07
0.00359019
0.00454945
7.60071e-07
0.00911176
1.48696e-06
0.00733148
0.004638
8.13617e-07
1.46829e-06
7.55588e-07
2.2724e-06
4.88252e-06
6.5134e-06
7.69177e-07
7.45559e-07
7.60915e-07
2.02246e-06
0.00522827
1.84252e-06
5.29912e-05
0.00931867
1.65957e-06
0.0115924
1.12331e-06
0.003238
1.12158e-06
9.08611e-07
1.27126e-06
0.00783486
1.53807e-06
3.62151e-05
3.58674e-06
7.58919e-07
1.71199e-06
1.50587e-06
0.00769273
0.006086
1.21226e-06
7.67899e-07
0.0104709
1.297e-05
7.60722e-07
1.11654e-06
1.36359e-06
1.07913e-06
7.45851e-07
0.00831334
7.70828e-07
2.24411e-06
0.00768918
0.00185897
0.00445956
1.64625e-06
0.00223555
4.14928e-06
0.0025985
0.00716022
1.55207e-06
1.62712e-06
8.94424e-06
1.44896e-06
1.008e-06
7.8841e-06
8.82248e-07
2.64593e-05
1.69007e-06
8.46759e-07
0.00993379
1.30066e-06
1.45695e-06
1.53216e-06
7.58055e-07
1.36621e-06
0.0092985
1.26281e-06
1.70426e-06
0.0029806
0.000167174
1.10618e-06
1.65473e-05
0.00617157
7.4812e-07
1.25395e-06
2.11535e-06
1.63039e-06
0.0085078
1.20561e-06
3.74024e-06
1.51883e-06
4.82833e-06
7.69998e-07
8.42999e-07
7.71429e-07
1.68797e-06
1.59522e-06
1.59786e-06
1.70203e-06
1.46832e-06
1.22171e-06
1.56959e-06
1.65672e-06
1.3034e-06
9.25492e-07
1.99206e-06
7.47668e-07
0.00647325
1.2457e-06
1.52122e-06
0.00807403
2.69492e-06
7.6528e-07
8.96854e-07
1.45249e-06
7.58965e-07
9.88405e-06
0.00776864
1.10921e-06
1.53623e-06
0.00129753
6.2899e-06
9.11761e-05
8.83613e-07
0.00715583
7.47612e-07
0.00871411
1.17023e-06
0.00398149
9.91885e-07
2.01065e-06
1.532e-06
1.59863e-06
0.00631776
0.0102151
7.61112e-07
0.00384802
0.00628
1.64556e-06
1.48076e-06
0.00757048
0.00273381
7.59526e-07
1.7471e-06
7.613e-07
1.70702e-06
7.59086e-07
0.00799896
0.0060742
1.30036e-06
0.000320351
1.40534e-06
0.00689582
1.93211e-06
7.75792e-07
7.56339e-07
1.52317e-06
0.00230106
1.11927e-06
1.53303e-06
1.17789e-06
9.21228e-06
1.5372e-06
0.00639577
7.71591e-07
7.74054e-07
8.122e-06
0.00530667
7.49883e-07
0.00892944
0.003088
7.51176e-07
7.4814e-07
7.51564e-07
7.76131e-07
1.23156e-06
7.56295e-05
0.00226368
0.00122614
7.59192e-07
0.00646058
1.56377e-06
1.67755e-06
1.64377e-06
8.11164e-07
1.55073e-06
8.71767e-07
1.22203e-05
1.07211e-06
0.00376165
1.38747e-06
7.50605e-07
1.66786e-06
0.00377019
7.73737e-07
1.82982e-06
7.52209e-07
0.00446095
1.67451e-06
0.0078667
0.00950527
1.41533e-06
0.0112185
0.000246869
0.0159516
0.00729857
7.59961e-07
7.50454e-07
0.00806434
0.000182079
0.00590087
0.00957847
1.59558e-06
7.74821e-07
0.00358588
1.54531e-06
2.5735e-06
1.48987e-06
1.60304e-06
0.00660744
0.00348308
1.41548e-06
1.13869e-06
3.0274e-06
0.00889306
0.000177093
0.00928885
7.58941e-07
1.88334e-06
7.72835e-07
1.60244e-06
0.000345554
7.65972e-07
0.00778972
1.61488e-06
0.006756
1.24229e-06
1.63868e-06
0.000190123
0.00233908
0.00354226
0.00424388
7.48087e-07
1.24433e-06
7.61897e-07
0.00860105
0.0102112
1.53915e-06
1.10614e-06
1.92384e-06
0.00598348
1.62954e-06
1.37497e-06
7.67966e-07
1.21798e-06
8.21585e-07
7.48462e-07
1.54771e-06
7.3751e-07
8.97022e-07
7.43145e-06
1.56604e-06
0.000210278
1.43896e-06
1.57327e-06
4.32635e-05
7.69766e-07
0.0061115
7.76316e-07
0.000612123
1.40114e-06
1.39647e-06
1.20587e-06
0.00743225
1.27606e-06
1.26057e-06
1.56669e-05
2.78696e-06
1.98729e-06
0.0177682
1.70586e-06
8.39076e-07
0.000279242
7.55672e-07
7.7208e-07
7.4848e-07
1.25126e-06
1.56828e-06
1.64389e-06
0.000775896
0.00408896
0.0124793
1.74163e-06
7.72851e-07
1.71293e-06
0.000150562
0.00513741
9.56072e-07
0.00334202
2.01641e-06
0.00451856
8.16218e-07
7.57057e-07
8.15676e-07
0.00840175
8.19409e-07
1.71897e-06
0.00346755
1.3923e-06
1.07383e-06
0.00645851
7.71807e-07
1.38518e-06
1.61052e-06
0.00550304
0.000192162
0.0049186
0.00779364
3.62118e-06
7.59803e-07
1.21409e-06
7.70498e-07
2.36955e-05
0.00867944
8.61874e-07
7.70755e-07
8.95912e-07
1.41659e-06
1.56439e-06
2.28985e-06
1.38014e-06
1.58812e-06
6.98512e-06
0.010703
7.60544e-07
7.52978e-07
1.93661e-06
1.41185e-06
0.00291602
1.62425e-06
1.56471e-06
7.9173e-07
0.00692355
0.00551277
7.56255e-07
7.70456e-07
0.00345016
9.44137e-07
0.00607732
1.61169e-06
1.11249e-06
0.00521334
0.0036441
7.67019e-07
7.68332e-07
9.07271e-07
0.0111595
1.5214e-06
6.61207e-06
7.76949e-06
1.59777e-06
7.74428e-07
1.50329e-06
0.0143364
7.68811e-07
0.0034895
0.00790703
1.64983e-06
3.3819e-06
6.47661e-07
1.32464e-06
0.000521481
1.67286e-06
0.00502182
0.00956733
1.05433e-06
8.19705e-07
1.16475e-06
1.31442e-06
3.67119e-06
7.66678e-07
8.00175e-07
1.2094e-06
7.55408e-07
0.000196052
1.21581e-06
2.06785e-06
1.39905e-05
1.18698e-06
8.34042e-06
0.00620484
7.45626e-07
1.26007e-06
7.7817e-07
7.63224e-06
1.58395e-06
1.6614e-06
1.04987e-06
0.00383626
1.05936e-06
0.000339257
0.00565502
0.000149155
0.00564919
1.37087e-06
0.000186186
0.00749648
7.96835e-07
7.6842e-07
7.1565e-06
7.73363e-07
0.00954599
1.66964e-06
0.00080807
0.00157172
9.44631e-07
0.00782662
1.16788e-06
1.19995e-06
1.37472e-06
0.00707051
0.00749546
0.00698398
0.00803042
0.0113615
1.37224e-06
0.00910683
8.23284e-07
7.62818e-07
1.89065e-06
1.16772e-06
0.00273192
5.67492e-05
7.7022e-07
2.0659e-06
7.34621e-06
7.51906e-07
0.00656557
0.00795168
2.10471e-06
7.55819e-07
7.55001e-07
2.17131e-06
1.43633e-06
9.19451e-07
1.2621e-05
0.0079605
7.45799e-07
1.37477e-06
7.45773e-07
1.03075e-06
7.66685e-07
7.52608e-07
0.00176813
7.26934e-06
7.94384e-05
1.51684e-06
4.78421e-05
7.08021e-06
1.57076e-06
0.00571712
1.77717e-06
0.000204239
1.07232e-06
2.06369e-06
9.03658e-07
8.20125e-07
1.49825e-06
1.65824e-06
1.42766e-06
0.000100182
3.28736e-06
0.0083598
0.00747571
8.15189e-07
3.82866e-06
0.00704176
7.51041e-07
1.21735e-06
2.36432e-06
0.00720568
2.15149e-06
1.16385e-06
0.00919159
7.7069e-07
0.000211748
0.00741417
7.54426e-07
1.44135e-06
0.000181648
1.4166e-06
1.04447e-06
7.4848e-06
0.0100598
4.38566e-06
0.00382298
1.3572e-06
7.45663e-07
0.00367789
1.30644e-06
0.000182354
1.50418e-05
1.65556e-06
0.00920553
1.58938e-06
0.000111396
1.64373e-06
8.50615e-05
1.81922e-06
1.8408e-06
7.47889e-07
0.000151707
1.48588e-06
0.00016109
7.99552e-06
1.74838e-06
1.55273e-06
4.33663e-06
1.35601e-06
0.0080303
1.02192e-06
9.06464e-06
0.00715967
8.14173e-07
1.23302e-06
0.00540687
7.69134e-07
0.000126566
9.72783e-06
0.00666726
1.79419e-06
7.49442e-07
1.66333e-06
1.25559e-06
1.65343e-06
0.0107558
8.74324e-07
0.000451596
1.65413e-06
1.62053e-06
1.22874e-06
7.47872e-07
0.00449856
7.68035e-07
9.68977e-07
0.00233353
0.000205693
9.14922e-07
3.43391e-05
2.93971e-06
0.00737141
7.73013e-07
1.79999e-06
9.2803e-07
0.00231964
1.34227e-06
3.31731e-06
1.56498e-06
0.00803791
0.00377263
1.01143e-06
7.68838e-07
0.00782037
0.00822106
1.05492e-06
1.49287e-06
3.00635e-05
7.33754e-06
7.68315e-07
9.29295e-07
1.65823e-06
0.0107892
1.24972e-05
7.47383e-07
0.000143501
0.00810997
0.00768002
7.65891e-07
1.14284e-06
1.29571e-06
1.52345e-06
5.04861e-06
0.0111166
1.17607e-06
1.07517e-06
1.52796e-06
7.73854e-07
1.44686e-06
7.49585e-07
7.72678e-07
0.00210531
1.64479e-06
2.38556e-06
0.00667519
7.60044e-07
7.58871e-07
0.00844096
8.40402e-07
0.00939717
7.90698e-07
7.66046e-07
1.30736e-06
0.00316684
0.00889082
1.07456e-06
1.45257e-06
9.92856e-07
0.000136724
7.69097e-07
9.35124e-07
1.43611e-06
1.16368e-06
9.45103e-07
7.5143e-07
2.81396e-06
8.54928e-07
0.00606947
0.00314589
0.000326333
1.33403e-05
1.62719e-06
1.47306e-06
1.34534e-06
1.32993e-05
0.00754752
4.44167e-05
1.49825e-06
1.63391e-06
1.70632e-06
1.51427e-06
0.00431647
1.6716e-06
8.20136e-07
9.51465e-07
0.00827751
0.0114308
1.40841e-06
0.0105987
1.78094e-06
8.36629e-07
1.39011e-06
9.53577e-06
1.52059e-06
7.66856e-07
1.19538e-06
1.6042e-06
1.68282e-06
1.42651e-06
7.74215e-06
1.26154e-06
0.00832896
8.63214e-07
0.000114704
0.0113964
2.31047e-06
0.00186506
6.71945e-06
1.1984e-06
7.5068e-07
1.1511e-06
1.21075e-06
0.000739869
1.48625e-06
9.0224e-07
0.00279462
0.00316536
0.00940328
1.71943e-06
1.52057e-06
7.72944e-07
5.08846e-06
0.00250114
1.25091e-06
0.0128412
1.39223e-06
1.0996e-06
0.000103015
7.77884e-05
0.00622839
1.47863e-06
1.25935e-06
1.44604e-06
8.44031e-07
1.35063e-06
0.0089893
1.40407e-06
1.63922e-06
7.9052e-06
2.1881e-06
7.60536e-07
1.51614e-06
0.00799384
4.40305e-06
1.01034e-06
0.0013987
1.82565e-06
1.42888e-06
1.65149e-06
1.05104e-06
1.2412e-06
7.62903e-06
1.07968e-06
1.73317e-06
0.00310533
7.89101e-07
0.00417443
0.00919765
1.99027e-06
0.00604402
0.00729166
0.0069066
2.43119e-05
1.63981e-06
7.48003e-07
0.00581041
1.45728e-06
0.0093341
7.60956e-07
9.26172e-07
1.52688e-06
0.00551427
0.00276636
9.11312e-05
1.13527e-06
0.00272403
0.00843405
0.00641237
3.57178e-06
5.86086e-05
0.00724033
1.20642e-05
0.00256253
1.76954e-06
3.36644e-06
1.49311e-06
5.86519e-07
1.06438e-06
0.00281184
8.88427e-05
1.56924e-06
5.90426e-07
1.35232e-06
0.0035523
0.00713398
1.51137e-06
8.27117e-07
5.07614e-06
0.0173601
1.51387e-06
9.0691e-07
7.68384e-07
1.17436e-06
7.92827e-06
0.00790754
1.11507e-06
0.00082791
8.41996e-07
9.13384e-07
1.65117e-06
0.00866546
4.29062e-05
1.61523e-06
8.07638e-07
7.58212e-07
0.000150418
0.00762534
7.74255e-07
7.74097e-07
0.00485433
1.38114e-06
7.62244e-07
1.52601e-06
0.0100152
8.11049e-07
9.88745e-07
2.13548e-06
7.61654e-07
1.30259e-06
0.00013915
0.00800046
1.46988e-06
9.77071e-07
7.47812e-07
0.00195262
9.3279e-07
5.54265e-06
0.00475575
1.49434e-06
0.0074955
0.00869344
3.82936e-06
7.90755e-07
2.47022e-05
0.00625015
3.49908e-06
8.25798e-07
1.63751e-06
1.85455e-06
1.90854e-06
1.61111e-06
3.16128e-06
7.6867e-07
4.29086e-05
8.07142e-07
0.00999062
1.48242e-06
1.44109e-06
0.00845028
7.73494e-07
0.0101312
0.00596404
1.04197e-06
1.54761e-06
7.69852e-07
1.71353e-06
1.47744e-06
0.00945385
0.00711685
1.68695e-06
7.67911e-07
2.03902e-06
7.61721e-07
0.000103633
1.5487e-06
0.0059247
2.11996e-06
0.00332714
0.000118268
1.63653e-06
0.00857879
0.000715434
0.00243918
0.00518366
1.20018e-06
7.71582e-07
7.47317e-07
9.98689e-06
0.0165339
7.61752e-07
0.000108514
0.00312298
1.73918e-05
0.00801017
9.57903e-07
0.0019618
1.16829e-06
6.67295e-06
1.55306e-06
3.68287e-06
1.99647e-05
0.00884269
1.12175e-06
7.4816e-07
0.00554461
1.52283e-06
0.000192989
1.40353e-06
0.000187859
0.00607796
9.14001e-07
1.52816e-06
0.00367716
1.01823e-06
7.79921e-07
0.00762609
0.000264005
1.71232e-06
1.07819e-06
0.00977272
4.65759e-06
1.5673e-06
2.51186e-06
2.42786e-06
0.00290315
0.00301304
0.00253345
6.55892e-05
4.26042e-06
9.76159e-07
3.4274e-06
0.00579841
1.73703e-06
1.7105e-06
7.51763e-07
1.60952e-06
1.50528e-06
1.56645e-06
4.31475e-06
0.000813644
0.0126341
0.00100761
0.00576079
1.67424e-06
3.83517e-06
9.04065e-07
0.00396965
0.00239396
0.000101911
8.25411e-05
0.00951668
1.76898e-06
1.80955e-06
7.45393e-07
0.00204638
1.38603e-06
9.13689e-07
1.59344e-06
1.43543e-06
0.00266858
1.45537e-05
0.0037583
7.51218e-07
0.000189376
0.00867988
7.70416e-07
7.65619e-07
2.94445e-06
0.00199044
8.51809e-07
1.551e-06
0.0158703
9.88083e-07
1.08508e-06
1.62721e-06
9.26565e-07
7.70359e-07
1.18754e-06
9.54614e-07
0.00042627
1.13133e-06
7.55695e-07
1.65674e-06
0.000158547
1.75702e-06
0.00378784
1.8889e-06
1.82491e-06
1.42633e-06
1.57196e-06
0.0022589
1.61729e-06
0.00311864
0.00638694
0.00105717
0.00288093
9.50432e-07
0.00850865
1.91626e-06
7.30761e-07
0.00621613
0.00941907
0.00276045
1.56027e-06
8.00568e-07
0.0075122
0.00276231
9.20123e-07
1.52017e-06
1.79982e-06
1.14151e-06
0.00178331
7.60437e-07
1.18707e-06
0.00517291
1.56094e-06
0.00609551
1.61126e-06
9.20591e-07
1.34991e-06
1.23782e-06
0.00788143
0.00156669
6.89272e-06
0.0034596
7.65513e-07
8.82673e-07
1.00505e-06
1.81784e-06
7.76185e-07
1.09532e-06
7.77111e-07
8.25352e-07
0.0092077
8.521e-07
0.00322292
0.00294842
0.00139825
0.00378784
2.58157e-06
1.28393e-06
1.29592e-06
0.00318733
0.0035729
1.64637e-06
0.000137283
0.00541041
0.00473457
1.11526e-06
0.00419338
1.07334e-06
1.571e-06
8.11059e-07
9.0956e-07
1.47544e-06
9.19343e-05
0.00770208
8.9339e-06
0.0080108
0.000301213
1.18022e-06
0.00735623
1.34499e-06
7.9912e-07
1.34027e-06
9.15834e-07
0.000152049
0.0039162
1.59469e-06
0.00439362
0.00310327
0.0103549
1.3859e-06
7.72155e-07
0.00342349
1.18922e-06
0.00208142
2.98885e-06
9.91621e-06
0.000202477
0.00867267
0.00398234
0.00499849
0.00323391
3.04806e-06
2.2186e-06
1.22517e-06
1.64303e-06
1.5503e-06
0.00721635
1.27861e-06
3.12169e-06
1.60847e-06
1.39387e-06
0.0116661
1.06405e-05
1.59824e-06
0.00604287
2.51282e-06
0.00688557
0.00820572
2.33026e-06
6.52182e-05
0.00292324
9.53275e-07
1.45523e-06
6.86304e-06
0.00591927
1.54954e-06
0.00861584
1.67898e-06
0.0119267
3.98169e-06
0.00572698
8.053e-07
0.00403014
1.38374e-06
1.34771e-06
0.00620604
1.60967e-06
1.08427e-06
0.00847982
0.00343424
8.12961e-07
0.00631214
1.39168e-06
0.00920558
1.65622e-06
0.00306577
4.08345e-06
0.0065676
1.56666e-06
0.000174628
4.34114e-06
0.0106781
1.54776e-06
0.0172734
7.65596e-07
2.9895e-06
1.80442e-06
8.06008e-07
0.00989138
3.73529e-06
1.20377e-06
0.000550576
0.000180365
1.18546e-06
0.0067624
0.000775743
1.62264e-06
0.00506329
1.79871e-06
0.00601534
1.79025e-06
0.0116066
0.00294997
7.87535e-07
0.00530746
1.81034e-06
9.61464e-07
0.00112884
1.44638e-06
1.33851e-06
1.27238e-06
1.51459e-06
0.00680772
0.00190028
2.94775e-06
1.43581e-06
0.00906568
0.00627803
0.00240769
0.0104111
9.86563e-07
6.75197e-06
1.6727e-05
1.00084e-06
1.13601e-06
1.155e-06
8.87837e-06
7.66342e-07
1.57286e-06
2.73334e-06
0.00324004
0.00255806
1.40298e-06
2.32487e-06
0.00383869
0.00369827
9.57879e-07
3.97926e-06
1.52685e-06
0.00749563
7.64262e-07
9.32109e-06
1.266e-06
0.00712715
1.60633e-06
0.00694243
1.27095e-06
9.4337e-07
0.00285317
0.00816441
0.0090843
1.45155e-06
1.89483e-06
7.7673e-07
1.50532e-06
4.1048e-06
2.13689e-06
9.11946e-07
0.00356796
0.00656152
0.000186475
6.90664e-06
3.64432e-06
1.58673e-06
2.95887e-06
6.76062e-05
1.91758e-06
9.79572e-06
1.4419e-06
1.61133e-06
7.70812e-07
0.00761342
6.99158e-05
1.36032e-06
7.70223e-07
0.0012768
1.40032e-06
0.00311044
0.00252084
2.67405e-06
7.73131e-07
1.0768e-06
9.68877e-07
8.86543e-07
9.3108e-07
0.00498845
0.00778649
2.27002e-06
1.55243e-06
7.62779e-07
0.00729519
0.00505337
0.000169429
9.52696e-07
7.65779e-07
8.5751e-07
7.09361e-06
7.65596e-07
1.63312e-06
9.46964e-07
1.37404e-06
9.29454e-07
1.27605e-06
9.58576e-06
7.72194e-07
0.00824143
1.56192e-06
1.62254e-06
1.28335e-06
0.0086701
0.00712787
1.51082e-06
0.00872025
6.72523e-06
3.46034e-06
1.58004e-06
2.45189e-06
2.05779e-06
1.31643e-05
0.00742522
0.00555661
0.00177954
9.03576e-07
2.21159e-05
7.6741e-07
0.007408
7.61245e-07
0.000110848
7.77514e-07
1.63718e-06
1.28914e-06
7.65658e-07
9.3583e-07
0.00434929
0.00365582
1.58263e-06
1.41552e-06
0.00677315
0.00650204
8.1018e-05
8.35666e-07
7.68459e-07
7.47657e-07
0.00835404
1.9792e-05
0.00222669
7.59484e-07
0.00718852
1.44671e-06
8.87816e-07
0.00229031
0.00857916
2.22139e-06
0.00477886
0.00340387
1.30607e-05
1.36816e-06
8.51131e-07
6.57991e-06
7.64658e-07
7.62194e-07
7.68769e-07
2.18264e-06
0.00681274
1.3611e-06
1.63632e-06
7.86331e-06
0.00722159
0.00889202
0.00507103
1.86649e-06
0.00263075
1.3927e-06
1.21552e-06
0.00592632
0.000189185
1.6012e-06
1.56708e-06
0.0043755
7.20558e-06
1.75681e-06
1.25965e-06
1.78167e-06
0.00537498
1.78685e-06
0.00202941
1.2903e-06
1.09245e-06
7.63129e-07
0.00555822
0.00555115
2.68183e-06
1.914e-06
0.00974088
7.49532e-07
8.20073e-07
0.00581673
0.00458949
1.87141e-06
1.86746e-06
1.08958e-06
1.49813e-06
0.00414498
0.00627803
0.0100273
0.00910544
3.34304e-06
1.10702e-06
2.53271e-06
0.00219612
1.12475e-06
1.54371e-06
1.63053e-06
0.00495003
1.28499e-06
1.4199e-06
0.00839985
3.14393e-06
0.00694513
7.35033e-06
1.41481e-06
3.12659e-06
1.46978e-06
8.93947e-07
0.008445
1.5873e-06
8.52858e-07
0.00587179
1.43966e-06
8.13857e-07
7.50189e-07
0.00996854
7.19774e-06
7.7452e-07
5.09132e-07
6.79401e-06
0.00734225
0.00702915
6.99546e-06
1.12139e-06
0.0109398
0.00985509
0.00682044
1.6161e-06
9.07539e-07
0.00885688
0.00668029
9.29363e-06
0.00155695
0.00797195
3.18618e-06
8.28463e-07
0.00527644
0.00329822
1.76423e-06
1.09486e-06
0.00851211
0.0017038
9.06361e-07
1.55528e-06
5.81408e-05
0.00678804
0.00696925
1.42485e-06
9.94395e-07
0.00828833
0.0052903
0.00136837
0.00629327
0.000177184
0.00670993
1.66448e-06
0.000350101
0.0010529
0.00789872
7.4761e-07
9.90489e-07
0.0114154
0.00443916
7.44963e-07
0.00775302
0.00600307
0.000156091
1.81462e-05
9.65646e-07
1.63889e-06
8.23178e-07
3.78648e-05
1.62441e-06
1.11935e-06
8.1302e-07
0.00743267
7.7437e-07
2.31831e-06
9.8494e-07
0.00218252
1.1947e-06
0.0104147
1.33981e-06
9.18876e-07
1.36656e-06
9.48803e-07
0.00399387
0.00502651
1.51124e-06
7.59933e-07
0.00456373
0.00765069
5.45172e-06
0.00832871
7.12242e-06
7.59213e-05
0.00789968
7.63027e-07
0.00738364
0.0100078
3.62724e-06
1.18406e-06
2.27155e-06
0.0081164
0.00650763
0.00549328
8.39868e-05
1.90093e-06
0.00863044
0.000141215
2.7194e-06
7.68579e-07
1.57273e-05
7.45375e-07
0.00671914
0.00355786
0.0120554
1.48557e-06
1.60669e-06
3.95917e-06
1.6673e-06
0.00350506
0.0073142
0.012204
1.47761e-06
3.41967e-06
0.00301423
0.00271557
0.00758928
0.00510343
0.00829344
7.72492e-07
9.86366e-07
0.0065245
0.00841623
0.00779048
0.00785362
8.8402e-05
1.07051e-06
1.82302e-06
1.63818e-06
0.00194863
1.61723e-06
1.92758e-06
1.5975e-06
3.42964e-06
1.5407e-06
0.00230968
1.65593e-06
0.000198432
0.00770697
0.0111771
9.97289e-07
0.00463358
1.05772e-06
6.72414e-06
1.62555e-06
5.52657e-06
8.206e-07
0.0038664
2.2458e-06
7.56248e-07
1.30234e-06
0.00439382
8.19518e-07
1.95356e-06
1.48313e-06
2.50409e-06
1.20412e-06
0.00795006
7.63994e-07
1.56433e-06
1.63487e-06
1.59791e-06
0.00758264
7.44999e-07
0.00318021
0.00634899
0.000187442
7.15125e-06
1.62655e-06
1.52855e-06
0.00817571
0.00507696
1.85345e-06
1.4594e-06
7.75445e-07
7.75383e-07
1.42303e-06
9.174e-06
0.0058187
0.00460797
1.0984e-06
0.00397831
0.00816581
1.64955e-06
7.2861e-06
0.0116684
7.66119e-07
1.46323e-06
0.00160488
0.00388285
1.55112e-06
9.95211e-06
7.56878e-07
0.00863396
1.67263e-06
0.00748478
0.00828811
9.82891e-07
2.22997e-06
9.25998e-07
0.00350684
0.000194698
0.0119029
1.3556e-06
9.08857e-07
0.00790921
7.52064e-07
1.38784e-06
7.65829e-06
0.00119531
0.000192251
0.00684717
0.00659572
9.18057e-07
1.56483e-06
0.00904293
0.00807196
9.19611e-07
0.00520581
1.54028e-06
1.70728e-06
1.58187e-06
7.62899e-07
7.47291e-07
3.72551e-06
1.64293e-06
0.010892
2.3405e-06
0.0034284
7.37131e-06
0.00209913
1.34617e-05
1.81401e-06
0.00754461
1.33587e-06
1.6296e-06
1.6228e-06
0.00851937
0.000806597
4.07625e-06
0.00589598
0.00747578
2.22032e-06
1.64505e-06
0.00839879
7.69014e-07
0.00671259
7.68916e-07
0.00839438
1.08831e-06
1.67805e-06
0.0101166
2.21597e-06
7.40425e-06
1.53464e-06
0.00661693
0.0111962
1.35381e-06
1.38085e-06
0.000317284
9.89075e-07
1.47713e-06
3.65763e-06
1.32576e-06
1.33826e-06
1.61871e-06
0.000624325
0.004904
0.00564938
7.75212e-07
1.40309e-06
8.27075e-07
7.74645e-07
3.06237e-06
1.67023e-06
3.10868e-06
0.00875577
3.31045e-06
1.46048e-06
7.76978e-07
5.59551e-06
0.00635387
0.00454493
1.66798e-06
1.88597e-05
0.00517745
0.0038671
1.57188e-06
0.000476974
0.00597469
9.05314e-07
0.00886358
0.00863488
6.67131e-06
1.04692e-06
3.07632e-06
2.72284e-06
1.66051e-06
7.51231e-07
1.71702e-06
1.03381e-06
0.00887402
9.66939e-06
1.42818e-06
3.90238e-05
1.64865e-06
0.00732387
1.59956e-06
1.54886e-06
1.71917e-06
1.43041e-06
3.1823e-06
1.42465e-06
9.32376e-07
0.00887439
0.00789982
1.66613e-06
0.00818381
0.00963715
0.00777401
1.46724e-06
1.58871e-06
0.0119172
0.00726487
7.91415e-07
0.00990662
7.53495e-07
2.135e-06
0.00333508
1.67623e-06
0.0075401
0.00199875
1.65795e-06
6.47121e-06
0.00925166
8.00458e-07
2.46426e-06
9.28008e-07
0.000107152
0.00614552
0.000609472
0.000432951
0.00410535
0.000206459
3.36761e-06
7.69774e-07
3.30365e-06
9.54586e-05
0.00139789
2.20917e-06
3.66576e-06
9.48932e-07
1.76065e-06
1.32122e-05
0.0100387
1.47648e-06
1.60471e-06
1.77022e-06
7.78147e-07
1.73904e-06
1.66613e-06
5.66151e-06
1.77858e-06
0.00579725
0.00256869
0.00455544
1.89968e-06
0.0023227
1.5813e-06
8.12351e-07
7.12853e-06
0.00671879
9.65528e-07
0.00384921
0.00451073
0.00177358
1.17034e-06
1.5313e-06
2.1698e-06
3.64014e-06
0.00646891
0.000947682
0.0078203
0.00627562