/*--------------------------------*- C++ -*----------------------------------*\
| =========                 |                                                 |
| \\      /  F ield         | OpenFOAM: The Open Source CFD Toolbox           |
|  \\    /   O peration     | Version:  v2012                                 |
|   \\  /    A nd           | Website:  www.openfoam.com                      |
|    \\/     M anipulation  |                                                 |
\*---------------------------------------------------------------------------*/
FoamFile
{
    version     2.0;
    format      ascii;
    class       volScalarField;
    location    "50";
    object      k;
}
// * * * * * * * * * * * * * * * * * * * * * * * * * * * * * * * * * * * * * //

dimensions      [0 2 -2 0 0 0 0];


internalField   nonuniform List<scalar> 
13749
(
0.00906985
6.47576e-05
8.85969e-05
7.20963e-05
0.0475439
6.0744e-05
0.0241284
8.39033e-05
0.000160355
7.1702e-05
6.08021e-05
8.94716e-05
8.87203e-05
0.0254515
7.67302e-05
0.0258853
7.6017e-05
8.30014e-05
6.21053e-05
6.25796e-05
0.0316243
0.0427189
6.96598e-05
9.24634e-05
9.32881e-05
6.09115e-05
7.79974e-05
0.000120737
0.0459163
0.0292913
0.00080521
7.33815e-05
0.000164935
7.68795e-05
0.00458142
0.0275861
0.0419589
7.91039e-05
0.00534495
0.0230136
8.44943e-05
0.000180262
6.53553e-05
0.0436823
6.2112e-05
6.4677e-05
6.15094e-05
7.02973e-05
0.000101
8.32273e-05
9.27548e-05
6.21071e-05
0.0211092
6.83038e-05
8.39202e-05
0.0282163
0.044775
9.44683e-05
6.19817e-05
0.000128673
7.31654e-05
0.000603691
7.66137e-05
6.92155e-05
0.000114567
0.00358202
9.22778e-05
8.00591e-05
0.0239222
0.00713639
9.34056e-05
0.000180481
8.09205e-05
0.0384621
8.4535e-05
0.0337821
7.27672e-05
6.03268e-05
0.0249178
6.50525e-05
0.000526459
9.38681e-05
9.47904e-05
6.12986e-05
0.047324
6.1428e-05
0.0204315
9.23716e-05
0.0314218
0.000113119
6.93814e-05
0.000752242
6.0896e-05
6.84054e-05
8.41056e-05
0.0340465
0.0291155
9.59652e-05
0.0407868
6.11024e-05
7.3339e-05
0.0193993
7.8386e-05
0.000171028
6.09367e-05
8.60744e-05
6.91156e-05
0.00180529
6.0427e-05
0.0307851
7.87859e-05
0.00153174
0.0207006
8.36214e-05
0.000116334
5.98803e-05
7.2337e-05
8.95567e-05
0.000122341
8.3172e-05
6.79037e-05
0.000103168
6.07659e-05
6.35028e-05
6.26219e-05
0.0469829
0.000132513
8.44365e-05
6.32503e-05
0.00582004
6.15025e-05
0.0186685
0.000122572
0.0393015
0.000184667
0.043075
0.0306277
0.00012548
6.11616e-05
6.17482e-05
0.032334
6.16812e-05
6.79416e-05
0.0160744
7.8435e-05
6.04668e-05
0.0322066
0.0232951
0.0377126
0.0436825
6.14143e-05
0.0311165
6.06744e-05
0.00015551
0.047868
8.54177e-05
0.0138868
0.000267449
8.39749e-05
7.58427e-05
8.85631e-05
6.09528e-05
0.000155745
6.15024e-05
6.17706e-05
8.79161e-05
6.27664e-05
7.86043e-05
0.0400865
0.000340646
7.94758e-05
6.09526e-05
0.0455006
0.0310218
7.89886e-05
8.79317e-05
0.000190731
0.00065094
0.00012074
0.0438161
9.08846e-05
8.48426e-05
0.00019628
0.0167913
8.84531e-05
6.17542e-05
6.79214e-05
6.26639e-05
0.00883423
6.88218e-05
0.0475394
0.000484535
8.73445e-05
8.798e-05
6.13651e-05
6.23976e-05
0.000122335
9.71875e-05
0.000103356
0.00026104
0.0249407
8.84462e-05
0.0480307
0.0216974
6.94965e-05
0.0100038
0.00017954
0.0430251
6.11484e-05
6.2711e-05
8.48251e-05
0.0122986
9.47577e-05
6.6141e-05
0.0213661
0.00411053
8.8312e-05
0.0245369
8.4911e-05
6.80977e-05
6.09931e-05
0.0301184
0.000169997
9.09461e-05
0.00110323
0.0471901
0.0164364
6.14405e-05
0.00949817
6.76828e-05
0.00160385
0.0130555
6.72417e-05
6.07839e-05
8.18377e-05
6.03245e-05
0.0306948
6.94697e-05
0.000379927
6.11692e-05
0.0120302
0.000381233
6.80906e-05
7.23318e-05
6.17509e-05
6.13257e-05
7.04368e-05
6.64685e-05
0.00113806
0.00060569
7.90766e-05
6.15616e-05
0.0358183
0.0247132
0.000184332
6.07812e-05
0.0316451
0.000148503
8.4457e-05
6.3715e-05
0.020495
0.0444808
7.92667e-05
9.4685e-05
6.39852e-05
6.03271e-05
6.04918e-05
0.000379645
0.0417876
8.86524e-05
6.18474e-05
8.71941e-05
0.0295262
0.0276744
7.12125e-05
0.0243107
0.00456902
9.36684e-05
0.0411466
7.82911e-05
6.26752e-05
0.0147536
0.0334583
8.78146e-05
0.00162522
8.84735e-05
0.000270657
0.000379279
6.34721e-05
0.0161963
0.0456936
0.000156984
8.44437e-05
9.43547e-05
0.045041
0.0437008
6.45158e-05
8.40061e-05
0.0111447
8.60149e-05
0.0461282
0.00032578
0.032697
8.64605e-05
0.000124658
0.0413233
0.0420701
6.94667e-05
0.0481806
6.23276e-05
6.27104e-05
9.54086e-05
0.0135819
0.000104313
9.80202e-05
7.11755e-05
0.00115177
6.29425e-05
0.000176863
6.23818e-05
6.76272e-05
6.80936e-05
8.68266e-05
0.0040662
8.06773e-05
8.73724e-05
0.0348467
6.74448e-05
7.24908e-05
0.0398802
0.0517044
8.20082e-05
6.10493e-05
0.0197621
8.4504e-05
6.95759e-05
0.0078992
8.34183e-05
0.0272997
0.0137463
6.03435e-05
0.0232612
0.0204154
8.94174e-05
6.09107e-05
0.000105744
9.57293e-05
9.521e-05
7.38539e-05
0.00409158
8.72187e-05
0.025347
8.08904e-05
6.1441e-05
0.000100482
0.000101014
9.02125e-05
8.02362e-05
9.47552e-05
6.20065e-05
7.46976e-05
6.91971e-05
0.000118426
0.0451108
6.0822e-05
6.17598e-05
6.0442e-05
0.000132742
8.41829e-05
7.93164e-05
0.00021041
6.09523e-05
8.30182e-05
0.000731025
8.11428e-05
6.45813e-05
6.17179e-05
6.85318e-05
0.0385678
0.000167925
7.84207e-05
6.20108e-05
6.13989e-05
0.00220229
0.00010321
0.00417558
0.0260099
0.000133816
0.0264939
0.0370635
8.60731e-05
7.41198e-05
6.83418e-05
0.00417948
0.0289054
6.8088e-05
7.05827e-05
8.00084e-05
0.0326908
6.15429e-05
0.000104355
8.10161e-05
0.000423599
0.000322585
6.21728e-05
0.0131621
0.0532785
7.48205e-05
0.00121422
0.00955677
6.09511e-05
0.00131214
7.80345e-05
0.00539936
6.03447e-05
0.0172137
0.0367796
8.40647e-05
0.0224597
0.0334166
7.09878e-05
9.35272e-05
0.0356121
9.32761e-05
7.7238e-05
8.73072e-05
6.19711e-05
7.72726e-05
8.95661e-05
7.95489e-05
0.000119248
7.37175e-05
6.42891e-05
6.21549e-05
8.09631e-05
8.06461e-05
7.96247e-05
0.0115311
0.000207347
0.000142605
0.0108439
0.0290531
9.47801e-05
0.0205667
0.0202015
0.030297
8.56591e-05
8.29545e-05
0.0329442
0.00555469
0.000112159
0.000325149
6.05294e-05
6.13096e-05
8.79949e-05
9.36997e-05
9.0584e-05
0.0412207
0.032718
0.0539861
6.13861e-05
7.02564e-05
0.0178053
6.1321e-05
0.0358502
0.0132087
8.26746e-05
9.62136e-05
0.00011709
0.0306115
9.34892e-05
0.0310152
6.86555e-05
8.38475e-05
6.30242e-05
0.0150707
8.25388e-05
0.000322433
9.10746e-05
0.010637
6.19326e-05
9.21999e-05
7.04657e-05
6.45177e-05
7.08204e-05
6.13826e-05
7.57575e-05
8.26872e-05
8.51627e-05
0.0197218
6.12795e-05
0.000169964
0.00012434
6.43664e-05
0.0486614
0.0410356
0.0370123
7.70219e-05
0.000297923
0.000101715
0.00309893
6.84151e-05
9.90652e-05
6.10948e-05
0.046766
8.05902e-05
6.19882e-05
0.0205256
0.00837121
8.24776e-05
0.00427427
0.0329489
9.66125e-05
0.00833383
0.0246367
6.01962e-05
0.0326855
6.20544e-05
0.0482903
0.0053049
6.59912e-05
8.55681e-05
0.0203838
9.18744e-05
7.00801e-05
0.0414242
0.0525359
0.00162276
9.69789e-05
0.00787242
8.82277e-05
8.21072e-05
0.0293523
0.0215326
9.841e-05
0.0383779
0.0293275
6.48108e-05
0.0392111
9.06992e-05
7.1843e-05
0.0374063
0.0331227
8.93947e-05
7.86372e-05
0.0471538
8.93373e-05
8.25118e-05
0.0367297
0.0144317
0.0450666
7.94089e-05
0.041653
0.00010252
0.0175679
6.30048e-05
0.000149192
0.0325412
7.68624e-05
8.97779e-05
7.97772e-05
0.034878
0.00639117
6.03553e-05
0.000289915
7.18112e-05
0.0104754
0.00429591
9.047e-05
0.000108465
8.9967e-05
8.10818e-05
0.0445565
0.000167827
9.21673e-05
0.0312696
0.000108172
0.0369452
8.92766e-05
7.00496e-05
0.0122023
9.49967e-05
9.72904e-05
0.0419635
8.25708e-05
0.0135717
0.00443166
9.23081e-05
0.0462852
9.54923e-05
0.0274523
0.00012532
0.000783406
0.000112422
0.000420023
0.017222
0.000201189
0.0496652
0.0382196
7.7747e-05
0.0182816
8.33069e-05
0.0419939
0.0362633
0.0307569
0.032104
8.17156e-05
6.19363e-05
8.58647e-05
0.00387787
8.99062e-05
8.91126e-05
9.54177e-05
0.000448977
0.000116074
0.000230472
7.75494e-05
0.000116175
0.0270184
8.36643e-05
7.34181e-05
0.0133135
0.000112194
8.70504e-05
0.0102832
7.78837e-05
0.0413515
8.11217e-05
6.8554e-05
6.05259e-05
6.88016e-05
0.0230257
0.000437622
0.000160002
0.000110659
0.0367611
6.07792e-05
6.85706e-05
7.9455e-05
0.0413188
0.000239411
0.0273679
0.0253321
0.0293887
6.11482e-05
0.036583
7.15857e-05
0.00151154
7.80612e-05
0.000106861
0.0446382
0.00107575
0.0158004
0.000159444
8.43746e-05
0.000120524
7.29166e-05
0.000312067
0.0136196
0.0123964
6.8226e-05
0.00544006
0.0336325
0.0342048
0.029991
0.0350284
0.0332479
0.0221166
8.31691e-05
9.86859e-05
0.000118052
9.7216e-05
6.89511e-05
6.04178e-05
8.81022e-05
8.64571e-05
0.000878508
9.25108e-05
0.0378629
0.0163989
6.14922e-05
7.82596e-05
0.0263357
0.0384976
0.0121593
8.3945e-05
0.0306786
9.03066e-05
8.56183e-05
0.0237962
0.000118447
0.048508
6.10289e-05
6.03323e-05
0.0492555
7.25233e-05
0.0492617
6.31029e-05
0.0484969
9.93862e-05
7.78304e-05
6.20365e-05
0.000508896
6.09053e-05
0.0498987
8.67733e-05
0.0043505
0.0036331
6.14289e-05
8.58416e-05
0.00599483
0.0244367
8.21677e-05
0.0233992
6.08174e-05
6.92818e-05
9.05264e-05
0.0116354
0.0405276
0.00437824
6.36287e-05
7.438e-05
0.000349168
8.70459e-05
7.93883e-05
0.00955667
6.8775e-05
0.0229006
7.16581e-05
0.0360986
0.00336601
8.1021e-05
0.0458653
0.0404123
0.00011389
8.44107e-05
0.0115547
0.000259817
0.0184215
9.18844e-05
0.00125563
0.00466714
6.70684e-05
0.000168455
7.29612e-05
0.0328228
0.00013119
6.12968e-05
7.97622e-05
8.65513e-05
0.00334908
9.08106e-05
6.98794e-05
9.37147e-05
0.0313717
8.70205e-05
6.12827e-05
8.49841e-05
0.0411437
6.21411e-05
6.83732e-05
6.01825e-05
0.000546818
8.43345e-05
0.0373821
0.000272791
0.0386261
0.0364179
0.000168671
0.0377271
6.04272e-05
0.0313239
0.000114489
8.88645e-05
7.90715e-05
0.000307513
0.0041509
0.0281784
0.0285016
6.26414e-05
6.21783e-05
0.00637209
0.0344129
6.03901e-05
9.85173e-05
6.39487e-05
7.95967e-05
6.30419e-05
6.6682e-05
0.0319148
6.66669e-05
6.32834e-05
6.67443e-05
6.14477e-05
6.50788e-05
0.0187289
0.000509218
0.0213684
0.0355145
0.0296852
0.0427318
0.0232397
6.15112e-05
0.0250569
8.87694e-05
0.000634727
8.91144e-05
6.04601e-05
0.045356
6.9356e-05
0.000175556
6.38663e-05
0.0219219
0.0342294
6.11182e-05
0.0450052
8.62693e-05
0.0284508
0.030562
6.35723e-05
8.56057e-05
6.08439e-05
0.000113896
0.000197284
0.000257719
6.16855e-05
6.02023e-05
6.11694e-05
0.000108358
0.0355376
9.90594e-05
0.000741126
0.0461303
9.25306e-05
0.0524396
7.4564e-05
0.00934498
7.44493e-05
6.68084e-05
8.018e-05
0.0407827
8.78535e-05
0.00071312
0.000157606
6.09673e-05
9.43204e-05
8.67209e-05
0.0411679
0.0401044
7.77089e-05
6.15006e-05
0.046818
0.000379754
6.11642e-05
7.43707e-05
8.24573e-05
7.33282e-05
6.0221e-05
0.0427642
6.17767e-05
0.000113855
0.0337543
0.0187819
0.0117714
9.16182e-05
0.0233602
0.000175947
0.0239333
0.0449228
8.81015e-05
9.04934e-05
0.00015588
8.50134e-05
7.05448e-05
0.000277031
6.60295e-05
0.000862407
9.4622e-05
6.4636e-05
0.0245538
8.07651e-05
8.61667e-05
8.77413e-05
6.09963e-05
8.25233e-05
0.0447476
7.99158e-05
9.37545e-05
0.0160853
0.0041243
7.38636e-05
0.000181178
0.0329908
6.03752e-05
7.88991e-05
0.000108599
9.05833e-05
0.043727
7.80057e-05
0.000162597
8.7397e-05
0.000195668
6.17397e-05
6.42042e-05
6.18345e-05
9.28181e-05
9.42674e-05
8.94635e-05
9.40434e-05
8.56098e-05
7.8404e-05
8.88307e-05
9.18871e-05
8.08545e-05
6.74807e-05
0.000103821
6.03467e-05
0.0320283
7.87177e-05
8.72986e-05
0.042395
0.000130235
6.14434e-05
6.67997e-05
8.67663e-05
6.10563e-05
0.00032956
0.0392832
7.40261e-05
8.76345e-05
0.0164534
0.000215384
0.00112195
6.60751e-05
0.025726
6.0343e-05
0.0443973
7.62627e-05
0.0262657
6.99299e-05
0.000104464
8.75543e-05
9.03306e-05
0.0310052
0.0217258
6.11933e-05
0.0203384
0.0292566
9.13459e-05
8.59839e-05
0.026295
0.00989917
6.10849e-05
9.46274e-05
6.11991e-05
9.57735e-05
6.09827e-05
0.0265789
0.031378
8.07041e-05
0.00665094
8.38261e-05
0.0316249
0.0001017
6.18038e-05
6.08932e-05
8.74896e-05
0.0240653
7.43889e-05
8.77413e-05
7.73426e-05
0.000309144
8.88916e-05
0.0332824
6.18315e-05
6.19753e-05
0.000217262
0.036027
6.04862e-05
0.0425067
0.0250192
6.05683e-05
6.03762e-05
6.05929e-05
6.17625e-05
7.81193e-05
0.00116596
0.0092975
0.0164396
6.10715e-05
0.0305014
8.86856e-05
9.25337e-05
9.13299e-05
6.36837e-05
8.80766e-05
6.55538e-05
0.000237765
7.27021e-05
0.0247519
8.31327e-05
6.05231e-05
9.30512e-05
0.01552
6.19578e-05
9.91962e-05
6.06246e-05
0.0306703
9.22057e-05
0.0298157
0.0465614
8.4159e-05
0.051447
0.00566709
0.0471006
0.0372057
6.11225e-05
6.05181e-05
0.04127
0.00468783
0.0290114
0.0248436
8.94439e-05
6.3435e-05
0.014187
8.79637e-05
0.00012723
8.99991e-05
8.95985e-05
0.036036
0.0194817
8.42698e-05
7.50109e-05
0.000115743
0.0448566
0.00225817
0.0459165
6.10347e-05
0.000110392
6.1905e-05
8.96352e-05
0.0049391
6.14896e-05
0.0368337
9.07934e-05
0.037685
7.84744e-05
9.39363e-05
0.00481275
0.00743277
0.0201847
0.0229899
6.03718e-05
7.8589e-05
6.11776e-05
0.0435472
0.0469582
8.79499e-05
7.39126e-05
0.000103409
0.0305193
9.29237e-05
8.28943e-05
6.16131e-05
7.77981e-05
6.42126e-05
6.03943e-05
9.22558e-05
6.32487e-05
6.63064e-05
0.000268769
8.86938e-05
0.00517794
8.62323e-05
9.21226e-05
0.00076234
6.16916e-05
0.027987
6.20194e-05
0.00550628
8.3835e-05
8.34009e-05
7.80329e-05
0.0285343
7.96239e-05
7.90602e-05
0.000488496
0.00013349
0.000120983
0.046894
9.38551e-05
6.43953e-05
0.00609432
6.08717e-05
6.18516e-05
6.03887e-05
7.944e-05
8.87525e-05
9.09436e-05
0.0112412
0.0209005
0.054561
9.54218e-05
6.19063e-05
9.54699e-05
0.00176117
0.0349298
6.85262e-05
0.0143711
0.000114115
0.0294111
6.40362e-05
6.09236e-05
6.39897e-05
0.0286369
6.37354e-05
9.45007e-05
0.0169844
8.33648e-05
7.37294e-05
0.0330307
6.18445e-05
8.32351e-05
9.06875e-05
0.0283317
0.00460274
0.0267082
0.0340945
0.000164506
6.1117e-05
7.76673e-05
6.17181e-05
0.000496618
0.0411315
6.51844e-05
6.17845e-05
6.62764e-05
8.31707e-05
8.98617e-05
0.000119889
8.34721e-05
9.00537e-05
0.000257708
0.0219225
6.11537e-05
6.06883e-05
0.000106508
8.39541e-05
0.0171118
9.02983e-05
8.88362e-05
6.26597e-05
0.0302536
0.0335997
6.08231e-05
6.17603e-05
0.0196068
6.84431e-05
0.0292016
9.07053e-05
7.4161e-05
0.0345375
0.0146341
6.15643e-05
6.13294e-05
6.68233e-05
0.0513263
8.7208e-05
0.000249008
0.000303425
9.03192e-05
6.19987e-05
8.77026e-05
0.0419632
6.16734e-05
0.0182308
0.0137906
9.2913e-05
0.000151156
5.77915e-05
7.81976e-05
0.00729064
9.39938e-05
0.0326747
0.0469219
7.28542e-05
6.36901e-05
7.5856e-05
8.34353e-05
0.000191779
6.1542e-05
6.24581e-05
7.76198e-05
6.08236e-05
0.00492992
7.76054e-05
0.000112126
0.000451864
7.68109e-05
0.000295195
0.0300285
6.02065e-05
7.91023e-05
6.17696e-05
0.000272037
8.94767e-05
9.28136e-05
7.29913e-05
0.0147743
7.37105e-05
0.00362281
0.030293
0.00392455
0.0329252
8.26765e-05
0.00444417
0.0289333
6.27417e-05
6.16403e-05
0.000261795
6.18447e-05
0.0468484
9.54916e-05
0.012023
0.0156714
6.80643e-05
0.0409216
7.60496e-05
7.74608e-05
8.32234e-05
0.0343576
0.033429
0.0347831
0.0421718
0.0518507
8.26387e-05
0.0455777
6.44922e-05
6.1297e-05
0.000102132
7.69467e-05
0.0152243
0.00178796
6.17572e-05
0.000109862
0.00030024
6.06192e-05
0.0368886
0.0375149
0.000113467
6.08642e-05
6.08196e-05
0.000111582
8.49747e-05
6.74971e-05
0.000399678
0.0279331
6.02173e-05
8.282e-05
6.02156e-05
7.13859e-05
6.15336e-05
6.06473e-05
0.0169159
0.000264132
0.00227015
8.80359e-05
0.00151621
0.000258182
8.866e-05
0.0341115
9.77194e-05
0.00512752
7.2768e-05
0.000109847
6.70838e-05
6.44105e-05
8.65424e-05
9.31073e-05
8.57385e-05
0.00255923
0.000148769
0.0297912
0.0254327
6.37413e-05
0.000165037
0.0388695
6.05617e-05
7.83846e-05
0.000117942
0.032713
0.000109928
7.59104e-05
0.0243414
6.1776e-05
0.00443206
0.0319731
6.07607e-05
8.48355e-05
0.00495464
8.40143e-05
7.25378e-05
0.000269234
0.0295167
0.000181994
0.0228319
8.3054e-05
6.02085e-05
0.0231908
8.10418e-05
0.00450285
0.000314886
9.16497e-05
0.0421628
8.92248e-05
0.00158904
9.37785e-05
0.00222793
0.000102591
9.92333e-05
6.03608e-05
0.00434417
8.79565e-05
0.00454609
0.000279108
9.8536e-05
8.8352e-05
0.000179229
8.22017e-05
0.0412924
7.10441e-05
0.00030635
0.0345395
6.37796e-05
7.87587e-05
0.036735
6.16952e-05
0.00343437
0.000326925
0.0351728
9.66669e-05
6.04582e-05
9.58585e-05
7.89239e-05
9.38341e-05
0.0500075
6.54515e-05
0.0065597
9.40119e-05
9.0703e-05
7.80773e-05
6.03603e-05
0.0237322
6.16068e-05
6.8967e-05
0.0233493
0.00445104
6.73289e-05
0.00061648
0.000138542
0.0351582
6.19379e-05
9.85502e-05
6.74326e-05
0.023688
8.23639e-05
0.000134349
8.86613e-05
0.0282647
0.0234328
7.39819e-05
6.16788e-05
0.0338379
0.0350537
7.35288e-05
8.73578e-05
0.000625808
0.00026231
6.16156e-05
6.74741e-05
9.24142e-05
0.021755
0.000410677
6.03209e-05
0.00395999
0.0347588
0.0359853
6.1486e-05
7.13349e-05
8.12923e-05
8.76616e-05
0.000145933
0.0508643
7.64186e-05
7.28293e-05
9.02256e-05
6.19898e-05
8.52523e-05
6.0469e-05
6.18928e-05
0.0222228
9.09662e-05
0.000118693
0.0323093
6.09818e-05
6.10504e-05
0.0354336
6.41759e-05
0.0461571
6.24842e-05
6.14885e-05
8.17434e-05
0.0250079
0.0385911
7.28447e-05
8.54382e-05
6.9878e-05
0.00186119
6.16914e-05
6.76658e-05
8.49009e-05
7.59001e-05
6.82798e-05
6.05842e-05
0.000122992
6.50773e-05
0.035376
0.0183443
0.00665701
0.000412612
9.09767e-05
8.58583e-05
8.21375e-05
0.000412133
0.0255485
0.000806677
8.65146e-05
9.23258e-05
9.69314e-05
8.7087e-05
0.0336075
9.3573e-05
6.33298e-05
6.84532e-05
0.0430591
0.0519607
8.42426e-05
0.0494946
9.62205e-05
6.44962e-05
8.33637e-05
0.000324022
8.71854e-05
6.1541e-05
7.69247e-05
9.33298e-05
9.33353e-05
8.68175e-05
0.000274118
7.90713e-05
0.0339084
6.52205e-05
0.00335514
0.043129
0.000116899
0.0184882
0.000252724
7.74717e-05
6.05264e-05
7.54377e-05
7.78604e-05
0.0115004
8.83697e-05
6.65019e-05
0.0165126
0.0172624
0.0313999
0.000100976
8.75228e-05
6.1921e-05
0.000202307
0.0182189
7.87514e-05
0.0443905
8.32888e-05
7.36511e-05
0.00317773
0.00116883
0.0303143
8.75893e-05
7.90218e-05
8.58768e-05
6.46955e-05
8.40417e-05
0.0399303
8.39382e-05
9.30025e-05
0.000129147
0.000111812
6.11525e-05
8.72481e-05
0.0367611
0.000183119
7.28691e-05
0.0169369
9.96112e-05
8.44192e-05
9.31938e-05
7.21718e-05
7.91201e-05
0.000284048
7.29783e-05
9.44072e-05
0.0082884
6.20618e-05
0.0113603
0.0219297
0.000131652
0.0400163
0.0297556
0.0263677
0.000552135
9.43398e-05
6.03596e-05
0.0339053
8.62611e-05
0.0462229
6.11885e-05
6.73137e-05
8.74208e-05
0.0337438
0.014934
0.00288516
7.51663e-05
0.0188949
0.0378024
0.0384139
0.00015806
0.00149527
0.0260771
0.000383006
0.0184865
9.55225e-05
0.000151509
8.81033e-05
5.60101e-05
8.53564e-05
0.021347
0.00288587
8.87577e-05
6.03333e-05
8.2086e-05
0.0199898
0.0321706
8.69498e-05
6.44003e-05
0.000201804
0.0482852
8.79365e-05
6.66627e-05
6.16307e-05
7.6216e-05
0.000309525
0.0353825
7.42558e-05
0.0119814
6.41415e-05
6.68706e-05
9.2472e-05
0.038286
0.00116074
8.99548e-05
6.31815e-05
6.10114e-05
0.0041687
0.0271925
6.18933e-05
6.19765e-05
0.0246497
8.30007e-05
6.11767e-05
8.80988e-05
0.0425525
6.32763e-05
6.96646e-05
0.000100002
6.12331e-05
8.07661e-05
0.00353831
0.0345079
8.61127e-05
6.92615e-05
6.03553e-05
0.020475
6.75637e-05
0.000158964
0.0244341
8.64282e-05
0.0368817
0.0443057
0.000167683
6.20876e-05
0.000427743
0.0299267
0.000184089
6.52264e-05
9.06352e-05
0.000100167
0.000100672
9.28633e-05
0.000133482
6.16655e-05
0.000828789
7.09154e-05
0.0480587
8.65023e-05
8.50924e-05
0.0435008
6.17663e-05
0.0485114
0.0295714
7.20443e-05
8.80067e-05
6.17255e-05
9.39199e-05
8.64486e-05
0.0424406
0.0308967
9.31884e-05
6.16162e-05
9.25133e-05
6.11554e-05
0.00281454
8.81967e-05
0.0321401
0.000109691
0.0151077
0.00348864
9.19477e-05
0.0248799
0.0111589
0.0225096
0.0329132
7.71816e-05
6.35269e-05
6.03238e-05
0.000285476
0.0419081
6.12209e-05
0.00330787
0.0169563
0.000362408
0.0331567
7.00176e-05
0.0197401
7.6054e-05
0.000248135
8.85048e-05
0.000162774
0.000404398
0.0445794
7.45333e-05
6.0377e-05
0.0380643
8.72425e-05
0.00442052
8.3675e-05
0.00469649
0.0355794
6.75827e-05
8.77695e-05
0.0153477
7.10579e-05
6.22272e-05
0.0312279
0.00306073
9.3825e-05
7.29422e-05
0.0474358
0.000189681
8.85647e-05
0.000123935
0.000121623
0.0228671
0.0255098
0.0145252
0.000987845
0.00017883
6.92166e-05
0.000153352
0.0291206
9.43978e-05
9.55241e-05
6.06052e-05
9.04064e-05
8.67273e-05
8.85353e-05
0.00017945
0.00715564
0.0545945
0.0102967
0.0386536
9.30827e-05
0.000166305
6.65393e-05
0.0210875
0.0131874
0.00314675
0.00266137
0.0291865
9.54486e-05
9.85049e-05
6.01937e-05
0.0213434
8.3077e-05
6.70544e-05
8.96447e-05
8.55924e-05
0.0151667
0.00043608
0.0209775
6.05707e-05
0.00469447
0.0356462
6.17614e-05
6.14667e-05
0.000141058
0.0205708
6.49101e-05
8.86259e-05
0.0456059
6.96935e-05
7.48206e-05
9.19657e-05
6.73511e-05
6.16012e-05
7.70636e-05
6.8402e-05
0.00456324
7.47513e-05
6.08541e-05
9.27839e-05
0.00419438
9.6981e-05
0.0207223
0.000100005
9.85522e-05
8.68244e-05
8.91484e-05
0.0102093
9.42164e-05
0.0157997
0.0341952
0.00866986
0.0164764
6.8327e-05
0.0437714
0.00010628
6.29094e-05
0.0312463
0.0419344
0.0255949
8.88144e-05
6.28408e-05
0.0392303
0.0204109
6.77925e-05
8.73313e-05
9.65589e-05
7.67573e-05
0.0182359
6.11108e-05
7.7181e-05
0.0328099
8.83727e-05
0.0403339
9.22586e-05
6.71262e-05
8.26893e-05
7.83766e-05
0.0265949
0.0121466
0.000255686
0.020161
6.14615e-05
6.57706e-05
7.03537e-05
0.000101639
6.178e-05
7.39954e-05
6.2126e-05
6.44696e-05
0.0394395
6.44897e-05
0.0189224
0.0249812
0.0156034
0.0183146
0.000127831
8.09549e-05
8.14284e-05
0.0184425
0.017856
9.1616e-05
0.0037793
0.0264182
0.0243127
7.42395e-05
0.0225407
7.27976e-05
8.86943e-05
6.35811e-05
6.67193e-05
8.92134e-05
0.00266173
0.0325172
0.00031579
0.029561
0.00307223
7.64487e-05
0.030654
8.19686e-05
6.28104e-05
8.18248e-05
6.69457e-05
0.00408757
0.0216892
9.01393e-05
0.0233573
0.0185411
0.0312956
8.33774e-05
6.17344e-05
0.0168049
7.82189e-05
0.0222444
0.000141712
0.000329525
0.00499465
0.0441867
0.0318527
0.0253479
0.0189352
0.000140443
0.000114082
7.79117e-05
9.07724e-05
8.82182e-05
0.0280943
7.99282e-05
0.000143367
9.30801e-05
8.33163e-05
0.0525833
0.000373806
9.00992e-05
0.0327011
0.000125061
0.027792
0.0372386
0.000117868
0.000844262
0.025537
6.84433e-05
8.87119e-05
0.000253123
0.031426
8.83545e-05
0.043888
9.24749e-05
0.018126
0.000169342
0.0276958
6.38843e-05
0.0193042
8.50651e-05
8.44973e-05
0.0288471
9.04014e-05
7.36198e-05
0.0288677
0.0198918
6.29806e-05
0.0348465
8.35568e-05
0.0325245
9.79606e-05
0.017464
0.000132238
0.0361702
8.89384e-05
0.00444884
0.000181053
0.0492765
8.81836e-05
0.0445791
6.14616e-05
0.000138676
9.78001e-05
6.39132e-05
0.0289545
0.000197805
7.88305e-05
0.00518874
0.00447336
7.77158e-05
0.0276216
0.0117523
9.02611e-05
0.0302164
9.82713e-05
0.0282666
9.73064e-05
0.0443197
0.0238828
6.23933e-05
0.0353486
9.83911e-05
6.86622e-05
0.0110592
8.59666e-05
8.35522e-05
8.06202e-05
8.71111e-05
0.0317966
0.0141387
0.000139655
8.46782e-05
0.0452526
0.0360908
0.0111303
0.0293083
6.97094e-05
0.000234406
0.000576353
7.02857e-05
7.49044e-05
7.58405e-05
0.000238831
6.15137e-05
8.89158e-05
0.000123932
0.0174644
0.01326
8.48324e-05
0.00011833
0.0295752
0.01926
6.85672e-05
0.000134147
8.79311e-05
0.0319219
6.13891e-05
0.000313938
7.92278e-05
0.0315049
9.22091e-05
0.0320817
7.94214e-05
6.79791e-05
0.0252609
0.042316
0.0398046
8.54125e-05
0.000100437
6.21406e-05
8.67304e-05
0.000175526
0.000109947
6.68233e-05
0.0167239
0.0303057
0.00462842
0.000256116
0.000159427
8.97997e-05
0.000138871
0.00195871
0.000101244
0.000327841
8.47806e-05
9.1367e-05
6.17842e-05
0.0289026
0.00178206
8.22762e-05
6.1745e-05
0.0126624
8.3698e-05
0.0183809
0.0245039
0.000132652
6.18925e-05
7.2913e-05
6.8947e-05
6.5881e-05
6.75605e-05
0.032855
0.0294364
0.000115955
8.93568e-05
6.1302e-05
0.032727
0.0337662
0.00198341
6.83468e-05
6.14925e-05
6.50773e-05
0.000260288
6.14737e-05
9.10165e-05
6.80977e-05
8.27145e-05
6.74639e-05
7.9579e-05
0.000324568
6.18625e-05
0.0204843
9.07635e-05
9.24023e-05
8.00807e-05
0.0389219
0.0353864
8.72331e-05
0.038031
0.00024896
0.000158291
8.93106e-05
0.000123209
0.00010994
0.000403731
0.0405287
0.0266774
0.0174089
6.66585e-05
0.000750256
6.15788e-05
0.0332436
6.11955e-05
0.00280316
6.21688e-05
9.06859e-05
8.027e-05
6.1475e-05
6.81907e-05
0.0134343
0.0286512
8.92105e-05
8.69514e-05
0.0342105
0.0371695
0.00267183
6.4364e-05
6.16299e-05
6.03451e-05
0.0338514
0.000675768
0.0109583
6.10778e-05
0.0377755
8.49519e-05
6.58944e-05
0.0240363
0.0291475
0.000112577
0.0295669
0.0163858
0.000406475
8.25241e-05
6.45049e-05
0.000245102
6.14008e-05
6.12256e-05
6.16956e-05
0.00011225
0.0304128
8.23807e-05
9.26537e-05
0.00030465
0.035589
0.029003
0.0326223
0.000101297
0.0145909
8.32906e-05
7.80831e-05
0.0293917
0.00473154
8.97004e-05
8.88919e-05
0.0233915
0.000262751
9.49754e-05
7.90962e-05
9.7467e-05
0.0261786
9.75153e-05
0.0211613
9.23932e-05
7.51385e-05
6.13165e-05
0.0308331
0.0367134
0.000296984
0.000100986
0.0472238
6.04658e-05
6.3606e-05
0.0300782
0.0303482
0.000103731
0.00010077
7.40264e-05
8.65385e-05
0.0218055
0.0363909
0.0481656
0.0454983
0.000151658
7.43261e-05
0.00011921
0.0171591
7.54365e-05
8.87356e-05
9.05523e-05
0.0271856
8.01809e-05
8.41485e-05
0.0428778
0.000143687
0.0386487
0.000286047
8.52751e-05
0.000144571
8.55792e-05
6.61561e-05
0.0339859
9.45568e-05
6.46566e-05
0.0347219
8.47395e-05
6.44883e-05
6.05102e-05
0.047874
0.000259317
6.20027e-05
5.45189e-05
0.000251619
0.0399458
0.0351575
0.000256386
7.48042e-05
0.0507422
0.0438533
0.0346353
9.06904e-05
6.66671e-05
0.0446005
0.0313822
0.00031237
0.0152167
0.0299027
0.000144979
6.4167e-05
0.0331142
0.0183304
0.000100693
7.39782e-05
0.0306954
0.0200507
6.66573e-05
8.82939e-05
0.00150828
0.0262627
0.0341566
8.42213e-05
6.99199e-05
0.0357068
0.0289204
0.0111578
0.0363182
0.00440549
0.0343378
9.34286e-05
0.00341663
0.0111431
0.0418456
6.03416e-05
6.97287e-05
0.0518268
0.0199014
6.01645e-05
0.0370625
0.0273786
0.00422574
0.000494401
6.88635e-05
9.28395e-05
6.41151e-05
0.00125554
9.28726e-05
7.4424e-05
6.33164e-05
0.0361766
6.19953e-05
0.000150223
6.95405e-05
0.0232446
7.71096e-05
0.0491482
8.16823e-05
6.88586e-05
8.45865e-05
6.85562e-05
0.0250726
0.0331547
8.74387e-05
6.11088e-05
0.023022
0.0367947
0.000216964
0.0352803
0.000258379
0.00244445
0.0343711
6.12924e-05
0.0270063
0.0325589
0.000179711
7.65744e-05
0.000115909
0.0383806
0.0368494
0.0361327
0.00274612
0.000102853
0.0435995
0.00395964
0.000130758
6.16566e-05
0.000451135
6.01923e-05
0.0304206
0.0204651
0.0172287
8.61461e-05
8.97968e-05
0.000168899
9.21668e-05
0.0179224
0.0294439
0.0538536
8.60497e-05
0.000152322
0.0235007
0.0181228
0.0362974
0.0345023
0.0304456
6.18777e-05
6.95791e-05
0.0359688
0.0382527
0.041428
0.0372939
0.00287803
7.27361e-05
0.000102006
9.1268e-05
0.0201607
9.23481e-05
0.000101435
8.96082e-05
0.000153034
9.26859e-05
0.0239399
9.58918e-05
0.00450758
0.0475708
0.0511894
7.00517e-05
0.0285342
7.25714e-05
0.000316945
9.107e-05
0.000218854
6.40974e-05
0.0222222
0.000114921
6.08839e-05
8.04847e-05
0.0224944
6.40747e-05
0.00010238
8.67789e-05
0.000123275
7.72187e-05
0.0211845
6.13668e-05
8.87796e-05
9.29866e-05
8.96062e-05
0.0357521
6.01671e-05
0.0172862
0.0354845
0.00463052
0.000258469
9.16082e-05
8.76411e-05
0.0424956
0.0327827
9.98437e-05
8.60848e-05
6.18933e-05
6.20786e-05
8.42287e-05
0.000307934
0.0293805
0.0240104
7.45119e-05
0.0212692
0.0421334
9.15598e-05
0.000261265
0.0524758
6.15068e-05
8.76999e-05
0.0109715
0.0257361
8.99829e-05
0.000329757
6.09137e-05
0.0325407
9.18236e-05
0.0343537
0.0383832
6.96035e-05
0.000113092
6.73869e-05
0.017666
0.00458454
0.0531235
8.20937e-05
6.67231e-05
0.0275988
6.06248e-05
8.3487e-05
0.000272375
0.0130059
0.00474278
0.0377883
0.033717
6.70516e-05
8.92167e-05
0.0405716
0.0378635
6.71133e-05
0.0257057
8.85261e-05
9.82584e-05
8.92996e-05
6.12972e-05
6.03223e-05
0.000161688
9.27801e-05
0.0505928
0.000117482
0.0151637
0.000266525
0.0137193
0.000414554
9.83919e-05
0.0365033
8.15514e-05
9.25303e-05
9.46204e-05
0.0389566
0.00701684
0.000173182
0.0301816
0.0330888
0.000113121
9.30807e-05
0.038637
6.16767e-05
0.031613
6.16635e-05
0.0431946
7.42108e-05
9.40664e-05
0.0182345
0.000113342
0.000263712
8.77408e-05
0.0314376
0.0513378
8.20729e-05
8.59127e-05
0.00310096
6.97127e-05
8.59035e-05
0.000162218
8.13314e-05
8.16214e-05
9.28118e-05
0.00556382
0.0330805
0.0333732
6.17814e-05
8.61041e-05
6.82494e-05
6.19776e-05
0.000141605
9.46216e-05
0.000142285
0.0394967
0.000149994
8.58676e-05
6.21861e-05
0.00022055
0.0415475
0.027858
9.39511e-05
0.00064066
0.0273921
0.021062
8.86967e-05
0.00480917
0.0389873
6.65682e-05
0.0443087
0.0392225
0.000251152
7.21701e-05
0.000141646
0.00013292
9.39886e-05
6.05643e-05
9.54856e-05
7.14132e-05
0.0340968
0.000330703
8.63153e-05
0.000591651
9.26121e-05
0.0314673
9.20918e-05
8.97793e-05
9.59327e-05
8.47136e-05
0.000145654
8.51033e-05
6.75499e-05
0.0397315
0.0330267
9.25899e-05
0.0381521
0.0439193
0.0361539
8.57406e-05
9.19963e-05
0.053238
0.0459695
6.36622e-05
0.0337285
6.07014e-05
0.000109647
0.0167718
9.28443e-05
0.0281797
0.0196843
9.33117e-05
0.000241044
0.0458412
6.29535e-05
0.000123554
6.74312e-05
0.00124017
0.0412877
0.00559469
0.00414096
0.0216545
0.00219016
0.000152167
6.1717e-05
0.000148852
0.00130465
0.0114303
0.000111779
0.000159829
6.83372e-05
9.69778e-05
0.000481914
0.0433762
8.58455e-05
9.04029e-05
9.70796e-05
6.22077e-05
9.54062e-05
9.46153e-05
0.000222142
9.71146e-05
0.0386151
0.0145848
0.0211999
0.00010265
0.0136763
8.91295e-05
6.3776e-05
0.000258201
0.0378172
6.8843e-05
0.0208552
0.0305901
0.0191772
7.61047e-05
8.75124e-05
0.00011215
0.000159504
0.0369831
0.0101356
0.0212012
0.0348166
9.91013e-05
0.0375052
0.00649363
9.13736e-05
0.000114471
0.000449265
9.45632e-05
0.0278104
6.05054e-05
0.000275884
9.76748e-05
0.000107426
0.0273814
9.77011e-05
0.035482
7.4093e-05
0.0427742
9.60927e-05
0.045516
0.00130496
7.44271e-05
0.0448622
0.0393323
6.31172e-05
0.00530644
0.000252229
0.000147198
0.022663
9.99233e-05
6.1327e-05
0.0204338
8.20089e-05
0.000126933
0.0118045
0.00035137
0.000107076
0.000179497
9.38028e-05
0.0317593
9.31183e-05
0.000127551
0.0299849
0.000109185
0.0308287
9.06622e-05
0.0450032
0.0461757
8.71513e-05
6.8201e-05
6.18784e-05
0.00188789
0.0203886
9.1779e-05
0.000103052
0.000103575
9.46957e-05
0.0316451
6.15546e-05
9.28376e-05
8.66645e-05
9.75823e-05
6.11173e-05
0.0214506
0.000258984
6.96848e-05
0.0451369
5.80924e-05
8.24294e-05
0.000104233
8.1728e-05