/*--------------------------------*- C++ -*----------------------------------*\
| =========                 |                                                 |
| \\      /  F ield         | OpenFOAM: The Open Source CFD Toolbox           |
|  \\    /   O peration     | Version:  v2012                                 |
|   \\  /    A nd           | Website:  www.openfoam.com                      |
|    \\/     M anipulation  |                                                 |
\*---------------------------------------------------------------------------*/
FoamFile
{
    version     2.0;
    format      ascii;
    class       volScalarField;
    location    "50";
    object      k_0;
}
// * * * * * * * * * * * * * * * * * * * * * * * * * * * * * * * * * * * * * //

dimensions      [0 2 -2 0 0 0 0];


internalField   nonuniform List<scalar> 
13749
(
0.0090588
6.47574e-05
8.85971e-05
7.20962e-05
0.0475363
6.0758e-05
0.0241282
8.39034e-05
0.000160349
7.17019e-05
6.08164e-05
8.94715e-05
8.872e-05
0.0255107
7.67305e-05
0.0259316
7.67036e-05
8.30012e-05
6.21161e-05
6.25894e-05
0.0316221
0.0427204
7.0192e-05
9.24632e-05
9.3288e-05
6.092e-05
7.79971e-05
0.000120737
0.0459168
0.0292922
0.000804398
7.33799e-05
0.000164929
7.68795e-05
0.00463065
0.0275861
0.0419601
7.91037e-05
0.0053851
0.0230134
8.44947e-05
0.000180258
6.53559e-05
0.0436834
6.21255e-05
6.4677e-05
6.15205e-05
7.02533e-05
0.000101
8.32273e-05
9.27546e-05
6.21167e-05
0.0211091
6.83039e-05
8.39204e-05
0.0282161
0.0447761
9.44686e-05
6.19925e-05
0.000128672
7.31637e-05
0.000603516
7.68735e-05
6.94238e-05
0.000114566
0.00358975
9.22778e-05
8.04371e-05
0.023922
0.00712406
9.34054e-05
0.000179288
8.09204e-05
0.0384539
8.45345e-05
0.0337297
7.27666e-05
6.03375e-05
0.0249175
6.50539e-05
0.000526368
9.38681e-05
9.47944e-05
6.13145e-05
0.047325
6.14376e-05
0.0205388
9.23717e-05
0.0313979
0.000113118
6.93818e-05
0.000752018
6.09096e-05
6.8802e-05
8.41056e-05
0.0340324
0.0290944
9.59703e-05
0.0408222
6.11129e-05
7.33376e-05
0.0193989
7.83858e-05
0.000171021
6.09496e-05
8.60744e-05
6.91159e-05
0.00180059
6.04393e-05
0.0307861
7.87859e-05
0.00151538
0.0207004
8.36212e-05
0.000116333
5.90802e-05
7.23367e-05
8.95565e-05
0.000122341
8.31717e-05
6.79014e-05
0.000103454
6.07775e-05
6.34987e-05
6.26292e-05
0.0469834
0.000132661
8.44363e-05
6.32453e-05
0.00582031
6.15144e-05
0.0188157
0.00012257
0.0393337
0.000184663
0.043076
0.0306278
0.000125478
6.11735e-05
6.17604e-05
0.0323355
6.16886e-05
6.79402e-05
0.0160823
7.84348e-05
6.04786e-05
0.0321888
0.0232949
0.037703
0.0436828
6.14228e-05
0.0311172
6.06844e-05
0.000155248
0.0478688
8.54177e-05
0.0138865
0.000268434
8.4986e-05
7.58424e-05
8.85629e-05
6.09649e-05
0.000154912
6.15177e-05
6.17808e-05
8.79158e-05
6.27748e-05
7.86038e-05
0.0400877
0.000345478
7.94758e-05
6.09646e-05
0.0455018
0.0310057
7.78435e-05
8.79314e-05
0.000190721
0.000650769
0.00012074
0.0439604
9.08847e-05
8.48421e-05
0.000196271
0.0167925
8.84528e-05
6.1766e-05
6.79206e-05
6.26818e-05
0.00883223
6.89061e-05
0.0475364
0.00048452
8.7345e-05
8.79799e-05
6.13738e-05
6.24177e-05
0.000122335
9.71875e-05
0.000103355
0.00026206
0.0249406
8.84459e-05
0.0480316
0.0216969
6.94977e-05
0.0099425
0.000179534
0.0430263
6.11598e-05
6.2718e-05
8.48246e-05
0.0124471
9.47583e-05
6.61392e-05
0.0213628
0.00409702
8.83121e-05
0.0245369
8.4911e-05
6.8097e-05
6.10054e-05
0.0301196
0.000169993
9.09462e-05
0.00108474
0.0472306
0.0164443
6.1448e-05
0.00945932
6.76817e-05
0.00157148
0.0130543
6.72418e-05
6.07916e-05
8.18379e-05
6.03355e-05
0.0306757
6.95146e-05
0.000379905
6.11807e-05
0.0120233
0.000379959
6.80904e-05
7.22428e-05
6.17634e-05
6.13354e-05
7.04364e-05
6.64658e-05
0.00113825
0.000605504
7.90762e-05
6.15744e-05
0.0358173
0.0246932
0.000184377
6.07909e-05
0.0316295
0.000148505
8.44569e-05
6.37123e-05
0.0204962
0.0444816
7.92664e-05
9.4684e-05
6.39839e-05
6.0338e-05
6.05033e-05
0.000378932
0.0417891
8.86523e-05
6.18572e-05
8.7194e-05
0.0295234
0.0276533
7.11676e-05
0.0243104
0.00457396
9.36683e-05
0.0411482
7.82911e-05
6.26858e-05
0.0147483
0.0334582
8.78149e-05
0.00161107
8.84735e-05
0.000270651
0.000377273
6.34682e-05
0.0161946
0.0457414
0.000156984
8.44431e-05
9.43547e-05
0.045042
0.043702
6.4527e-05
8.40063e-05
0.011139
8.60148e-05
0.0461293
0.000325772
0.0326967
8.64603e-05
0.000124657
0.0414799
0.0420717
6.94628e-05
0.048245
6.23445e-05
6.27055e-05
9.54082e-05
0.0134375
0.000104313
9.802e-05
7.1176e-05
0.00114906
6.29375e-05
0.000176857
6.23917e-05
6.76264e-05
6.80925e-05
8.68264e-05
0.00410533
8.06771e-05
8.73729e-05
0.034847
6.74435e-05
7.24907e-05
0.0398815
0.0517045
8.20087e-05
6.10525e-05
0.0197685
8.45039e-05
6.95754e-05
0.0078984
8.34184e-05
0.0272997
0.013628
6.03556e-05
0.0231342
0.0204212
8.94174e-05
6.09209e-05
0.000105744
9.57286e-05
9.52096e-05
7.38542e-05
0.00408361
8.72186e-05
0.025347
8.089e-05
6.14511e-05
0.000100482
0.000101014
9.02127e-05
8.0209e-05
9.47556e-05
6.20175e-05
7.46975e-05
6.91792e-05
0.000118425
0.0450461
6.08314e-05
6.17718e-05
6.04495e-05
0.00013274
8.41824e-05
7.93162e-05
0.000209719
6.0962e-05
8.30181e-05
0.000730913
8.1143e-05
6.45823e-05
6.17321e-05
6.85331e-05
0.0384839
0.000165791
7.84206e-05
6.20222e-05
6.1407e-05
0.00219379
0.000103208
0.00417691
0.0259159
0.000133784
0.0264882
0.0371594
8.60729e-05
7.41198e-05
6.83416e-05
0.00422607
0.0289053
6.80877e-05
7.05829e-05
8.00084e-05
0.0326852
6.15509e-05
0.000104355
8.1016e-05
0.000424956
0.000322576
6.2182e-05
0.013174
0.0532784
7.48205e-05
0.00121416
0.00977117
6.09641e-05
0.00131202
7.80344e-05
0.00538255
6.0356e-05
0.0172206
0.0367071
8.40646e-05
0.0224596
0.0334177
7.09884e-05
9.35271e-05
0.03554
9.32762e-05
7.7238e-05
8.73074e-05
6.19825e-05
7.72729e-05
8.95663e-05
7.9549e-05
0.000119247
7.37155e-05
6.42851e-05
6.21694e-05
8.09633e-05
8.06458e-05
7.96246e-05
0.011531
0.000207324
0.000142072
0.0106824
0.029033
9.47801e-05
0.020707
0.0202014
0.0302968
8.56574e-05
8.29542e-05
0.0329289
0.00553864
0.000112158
0.000325106
6.05417e-05
6.13222e-05
8.79948e-05
9.36998e-05
9.0584e-05
0.0413203
0.0327171
0.0539859
6.14021e-05
7.02563e-05
0.0178042
6.13299e-05
0.0358505
0.0133604
8.26744e-05
9.62123e-05
0.000117089
0.0305485
9.34891e-05
0.0309424
6.86551e-05
8.38473e-05
6.3035e-05
0.0150734
8.17481e-05
0.00032242
9.10748e-05
0.0104691
6.19384e-05
9.21996e-05
7.04641e-05
6.45288e-05
7.08187e-05
6.14045e-05
7.57576e-05
8.26871e-05
8.51611e-05
0.0197216
6.12922e-05
0.0001672
0.000124346
6.43689e-05
0.0486623
0.041024
0.0370129
7.70223e-05
0.000296145
0.000101712
0.00319087
6.84174e-05
9.90653e-05
6.11059e-05
0.0467672
8.05902e-05
6.20017e-05
0.0205251
0.00836417
8.24774e-05
0.0042636
0.0329494
9.66122e-05
0.00833789
0.0246877
6.0207e-05
0.0326827
6.20568e-05
0.0483349
0.00532184
6.6003e-05
8.5568e-05
0.0203836
9.18744e-05
7.00788e-05
0.041342
0.0525359
0.00156213
9.69784e-05
0.00771581
8.82276e-05
8.21077e-05
0.0293131
0.0215324
9.84099e-05
0.0382984
0.029326
6.48062e-05
0.0392122
9.06995e-05
7.18431e-05
0.0374172
0.033124
8.93959e-05
7.86371e-05
0.0471542
8.93373e-05
8.25119e-05
0.0367577
0.0144378
0.0450655
7.94088e-05
0.0416543
0.00010252
0.0175677
6.30243e-05
0.000148128
0.0325324
7.68628e-05
8.97775e-05
7.97772e-05
0.0349386
0.00641217
6.03667e-05
0.00029948
7.18108e-05
0.0104756
0.00429587
9.04696e-05
0.000108468
8.99672e-05
8.1082e-05
0.0445568
0.00016782
9.21673e-05
0.0312497
0.000108167
0.0369828
8.92767e-05
7.00492e-05
0.0124603
9.49968e-05
9.72885e-05
0.0419326
8.25706e-05
0.0135776
0.00441785
9.2308e-05
0.0462864
9.54911e-05
0.0274275
0.000125298
0.000758584
0.00011159
0.000419999
0.0172225
0.000199847
0.049666
0.0382209
7.77471e-05
0.0182886
8.33069e-05
0.0419926
0.0362644
0.030735
0.0321042
8.17157e-05
6.19515e-05
8.58647e-05
0.00386916
8.99061e-05
8.91137e-05
9.54178e-05
0.000438682
0.000116073
0.000225917
7.75497e-05
0.000116174
0.027019
8.36645e-05
7.34111e-05
0.0131936
0.000112562
8.70505e-05
0.0102821
7.78849e-05
0.041353
8.1122e-05
6.8512e-05
6.05384e-05
6.88013e-05
0.0230343
0.000437587
0.000159996
0.000110658
0.0368018
6.07893e-05
6.85709e-05
7.9455e-05
0.0413329
0.000235622
0.0273462
0.025332
0.0293563
6.11594e-05
0.0365747
7.15853e-05
0.00150825
7.80609e-05
0.000106856
0.0446384
0.00104961
0.0158016
0.000159438
8.43743e-05
0.000120524
7.29155e-05
0.000312056
0.0136226
0.0123981
6.82252e-05
0.00544011
0.0336125
0.0341908
0.0299909
0.0350277
0.0332117
0.0222731
8.31691e-05
9.8686e-05
0.000118052
9.72141e-05
6.89069e-05
6.04261e-05
8.81021e-05
8.67453e-05
0.000878578
9.25106e-05
0.0378628
0.0164102
6.14958e-05
7.82593e-05
0.0263357
0.038499
0.012062
8.39447e-05
0.0306481
9.03068e-05
8.56183e-05
0.0239346
0.000118446
0.048509
6.10444e-05
6.03444e-05
0.0492564
7.25222e-05
0.0492617
6.31225e-05
0.0484974
9.93862e-05
7.78313e-05
6.20482e-05
0.000509131
6.09092e-05
0.0498987
8.67731e-05
0.0043566
0.00363355
6.1445e-05
8.58416e-05
0.00602644
0.0245303
8.21676e-05
0.0233968
6.08303e-05
6.93037e-05
9.05263e-05
0.0116482
0.0404555
0.00437889
6.36403e-05
7.43799e-05
0.000349134
8.70457e-05
7.93882e-05
0.00955668
6.87755e-05
0.0228761
7.16589e-05
0.0361
0.00346279
8.13108e-05
0.0458666
0.0404119
0.000113889
8.44105e-05
0.0116086
0.000259806
0.0184864
9.18841e-05
0.00123525
0.0046709
6.70696e-05
0.000168448
7.29612e-05
0.0328227
0.000131183
6.13226e-05
7.97622e-05
8.65512e-05
0.00339119
9.08107e-05
6.98595e-05
9.37147e-05
0.0313717
8.70206e-05
6.12869e-05
8.49838e-05
0.0411448
6.21451e-05
6.83727e-05
6.01936e-05
0.000546749
8.43375e-05
0.037375
0.000273873
0.0386266
0.036418
0.000183143
0.0377267
6.04361e-05
0.0312694
0.000114308
8.88643e-05
7.90708e-05
0.000307498
0.00415112
0.0281735
0.028482
6.26517e-05
6.21961e-05
0.00638329
0.0344745
6.04e-05
9.85173e-05
6.39472e-05
7.95967e-05
6.30587e-05
6.66828e-05
0.0319147
6.66681e-05
6.33022e-05
6.67459e-05
6.1456e-05
6.50749e-05
0.0187349
0.000509211
0.0213681
0.0354033
0.0296859
0.0428571
0.0232396
6.15231e-05
0.0250569
8.87691e-05
0.000634543
8.91147e-05
6.04677e-05
0.0453572
6.94442e-05
0.000175547
6.3867e-05
0.0218896
0.0341121
6.11233e-05
0.0450059
8.62693e-05
0.0284508
0.0305816
6.35808e-05
8.56056e-05
6.08525e-05
0.000113895
0.000197278
0.000257631
6.16926e-05
6.02142e-05
6.1172e-05
0.000108352
0.0356303
9.90594e-05
0.000745436
0.0461315
9.25305e-05
0.0524397
7.45638e-05
0.00934428
7.44491e-05
6.68103e-05
8.01796e-05
0.040784
8.78536e-05
0.000713128
0.000157602
6.09805e-05
9.43202e-05
8.67208e-05
0.0411676
0.0402537
7.77086e-05
6.15124e-05
0.0468184
0.000377115
6.11755e-05
7.43707e-05
8.24569e-05
7.33274e-05
6.02331e-05
0.0427654
6.17794e-05
0.000113854
0.0337543
0.0188246
0.011783
9.16182e-05
0.0233293
0.00017594
0.0240465
0.0450499
8.81015e-05
9.04931e-05
0.00015674
8.50133e-05
7.05448e-05
0.000277025
6.60282e-05
0.000864822
9.46207e-05
6.4633e-05
0.0245535
8.0765e-05
8.61667e-05
8.77416e-05
6.10032e-05
8.25232e-05
0.0447479
7.99154e-05
9.37544e-05
0.0160805
0.00415907
7.38638e-05
0.00018723
0.0329873
6.03855e-05
7.88988e-05
0.000108598
9.0583e-05
0.0437284
7.80057e-05
0.000162593
8.73973e-05
0.000195661
6.17464e-05
6.42055e-05
6.18558e-05
9.2818e-05
9.42566e-05
8.94634e-05
9.40438e-05
8.56096e-05
7.84039e-05
8.88306e-05
9.18871e-05
8.08543e-05
6.74802e-05
0.000103821
6.03582e-05
0.0320297
7.87172e-05
8.72986e-05
0.0423963
0.000130233
6.14525e-05
6.67986e-05
8.67669e-05
6.10657e-05
0.000329551
0.0392835
7.40256e-05
8.76345e-05
0.0163608
0.00021592
0.00110873
6.60764e-05
0.0257183
6.03548e-05
0.0443987
7.62623e-05
0.0262673
6.98886e-05
0.000104463
8.75542e-05
9.03308e-05
0.0310065
0.0217255
6.12034e-05
0.020345
0.0292576
9.13458e-05
8.59838e-05
0.0262949
0.00989957
6.10907e-05
9.46275e-05
6.12095e-05
9.57722e-05
6.09961e-05
0.0265787
0.0313288
8.07038e-05
0.00666765
8.3826e-05
0.0316251
0.0001017
6.1817e-05
6.09042e-05
8.74899e-05
0.0240637
7.43893e-05
8.77418e-05
7.73432e-05
0.000309143
8.88915e-05
0.0332815
6.18428e-05
6.19835e-05
0.000216616
0.0361395
6.04962e-05
0.0425081
0.0250594
6.05803e-05
6.03863e-05
6.06051e-05
6.1776e-05
7.81193e-05
0.00116275
0.00929752
0.0163879
6.10816e-05
0.0304934
8.86854e-05
9.25336e-05
9.133e-05
6.36991e-05
8.80766e-05
6.55628e-05
0.000235006
7.27007e-05
0.0247474
8.31326e-05
6.05306e-05
9.30512e-05
0.0155161
6.197e-05
9.91966e-05
6.06297e-05
0.0307744
9.22054e-05
0.0298155
0.0465626
8.41589e-05
0.0514472
0.00570246
0.0471464
0.0372057
6.11428e-05
6.05249e-05
0.0412086
0.00466424
0.0290052
0.0248434
8.94438e-05
6.34446e-05
0.0141846
8.79637e-05
0.000127231
8.99939e-05
8.95984e-05
0.036036
0.0194872
8.42694e-05
7.50103e-05
0.000115355
0.0448579
0.00225661
0.0459179
6.1046e-05
0.000110335
6.19159e-05
8.96353e-05
0.00481934
6.15131e-05
0.0368347
9.07937e-05
0.0376748
7.84743e-05
9.39361e-05
0.00484271
0.00743117
0.0201878
0.0229912
6.0383e-05
7.85892e-05
6.11894e-05
0.0435481
0.0469592
8.79501e-05
7.39119e-05
0.000103408
0.0305205
9.29231e-05
8.28945e-05
6.16237e-05
7.77978e-05
6.4223e-05
6.04044e-05
9.22533e-05
6.3222e-05
6.63058e-05
0.000279038
8.86936e-05
0.00519969
8.6233e-05
9.21254e-05
0.000760453
6.1704e-05
0.0279874
6.20322e-05
0.00550676
8.38351e-05
8.34007e-05
7.80329e-05
0.0285342
7.96236e-05
7.90599e-05
0.000488218
0.000133488
0.000120984
0.0469838
9.3855e-05
6.43905e-05
0.00611705
6.08844e-05
6.18647e-05
6.0397e-05
7.94397e-05
8.87523e-05
9.09436e-05
0.0112703
0.0209066
0.0545607
9.54219e-05
6.19179e-05
9.54689e-05
0.00176137
0.0350205
6.85276e-05
0.0143817
0.000114228
0.0294172
6.40563e-05
6.09256e-05
6.40074e-05
0.0286367
6.37401e-05
9.45005e-05
0.0169954
8.33648e-05
7.37277e-05
0.0330323
6.18561e-05
8.32348e-05
9.06879e-05
0.028333
0.00460724
0.0267069
0.0340944
0.000164495
6.11322e-05
7.76671e-05
6.17306e-05
0.000479758
0.0411328
6.51864e-05
6.17957e-05
6.62752e-05
8.25959e-05
8.98613e-05
0.000119862
8.34723e-05
9.00538e-05
0.00025769
0.0219222
6.11654e-05
6.06979e-05
0.000106503
8.3954e-05
0.0171105
9.02983e-05
8.88363e-05
6.26704e-05
0.0302537
0.0335863
6.08323e-05
6.17763e-05
0.0196109
6.84427e-05
0.0291895
9.07055e-05
7.4161e-05
0.0345689
0.0146458
6.15772e-05
6.13387e-05
6.68245e-05
0.0513266
8.72078e-05
0.000248949
0.000303391
9.03194e-05
6.20125e-05
8.77025e-05
0.0420255
6.16844e-05
0.0182262
0.0137908
9.29126e-05
0.000151153
5.78075e-05
7.78185e-05
0.00713358
9.39927e-05
0.0326772
0.046923
7.28532e-05
6.36914e-05
7.58562e-05
8.34364e-05
0.000191936
6.15551e-05
6.24594e-05
7.76195e-05
6.08264e-05
0.00491144
7.7606e-05
0.000112141
0.000461337
7.68106e-05
0.000295187
0.0300288
6.02184e-05
7.9102e-05
6.17807e-05
0.000272025
8.94768e-05
9.28135e-05
7.29908e-05
0.0147818
7.37096e-05
0.00361322
0.0302909
0.00394404
0.0329098
8.26763e-05
0.0044449
0.0289333
6.27634e-05
6.16512e-05
0.000261781
6.18535e-05
0.0468494
9.5493e-05
0.0119396
0.0157913
6.8062e-05
0.0408422
7.60495e-05
7.74606e-05
8.32234e-05
0.034358
0.033429
0.0347843
0.042172
0.0518509
8.26381e-05
0.0455789
6.45048e-05
6.13222e-05
0.000102132
7.69473e-05
0.0152205
0.00177541
6.17686e-05
0.000109861
0.000300202
6.06341e-05
0.0368765
0.037515
0.000113482
6.08775e-05
6.08289e-05
0.000111582
8.49746e-05
6.74964e-05
0.000399652
0.027933
6.02293e-05
8.28198e-05
6.02276e-05
7.13852e-05
6.15434e-05
6.0653e-05
0.0167923
0.000264122
0.00225687
8.80356e-05
0.00150485
0.000258166
8.866e-05
0.0340752
9.77187e-05
0.00513057
7.2768e-05
0.000109841
6.70832e-05
6.44195e-05
8.65424e-05
9.31073e-05
8.57391e-05
0.0026243
0.000148765
0.0297446
0.0254326
6.37495e-05
0.000165033
0.0388615
6.05738e-05
7.83844e-05
0.000117941
0.0327132
0.000109927
7.59102e-05
0.0243412
6.17897e-05
0.00443536
0.0319731
6.07655e-05
8.48354e-05
0.00495053
8.40144e-05
7.2537e-05
0.00026922
0.0295425
0.000181989
0.0227652
8.30535e-05
6.02205e-05
0.0231696
8.10417e-05
0.00451375
0.000315536
9.16493e-05
0.0421636
8.92249e-05
0.00158767
9.37778e-05
0.00226699
0.00010262
9.92331e-05
6.03716e-05
0.00433337
8.7957e-05
0.00453213
0.000279097
9.85359e-05
8.83519e-05
0.00017941
8.22016e-05
0.0412261
7.10439e-05
0.000306344
0.0345398
6.37911e-05
7.87586e-05
0.0368477
6.17084e-05
0.00346261
0.000326924
0.03517
9.66669e-05
6.04681e-05
9.58639e-05
7.89236e-05
9.38331e-05
0.0500083
6.545e-05
0.00660867
9.40111e-05
9.07032e-05
7.80775e-05
6.03713e-05
0.0237334
6.16139e-05
6.89683e-05
0.0232811
0.00445208
6.73292e-05
0.000613394
0.00013854
0.0351584
6.19532e-05
9.85495e-05
6.74335e-05
0.0236429
8.23638e-05
0.000135303
8.8661e-05
0.0282645
0.0234125
7.38939e-05
6.16922e-05
0.0338039
0.0350536
7.35285e-05
8.73577e-05
0.000625819
0.000262301
6.16246e-05
6.7475e-05
9.24142e-05
0.0217547
0.000420065
6.03324e-05
0.00394457
0.0347587
0.0359854
6.14965e-05
7.18235e-05
8.12917e-05
8.76616e-05
0.000145236
0.0508643
7.64184e-05
7.28287e-05
9.02273e-05
6.20043e-05
8.5252e-05
6.04809e-05
6.1911e-05
0.022271
9.09663e-05
0.000118692
0.0323103
6.09914e-05
6.10576e-05
0.0354334
6.41745e-05
0.0461578
6.25003e-05
6.14968e-05
8.17428e-05
0.0250405
0.038591
7.28446e-05
8.54381e-05
6.98763e-05
0.00185562
6.16991e-05
6.76656e-05
8.49005e-05
7.58997e-05
6.82961e-05
6.05955e-05
0.000123501
6.50735e-05
0.0353636
0.0183423
0.00667165
0.000412589
9.09769e-05
8.58583e-05
8.21376e-05
0.000412106
0.0255485
0.00079217
8.65144e-05
9.23256e-05
9.6932e-05
8.7087e-05
0.0334993
9.3573e-05
6.33268e-05
6.84534e-05
0.0430604
0.051961
8.42425e-05
0.0494948
9.62207e-05
6.44976e-05
8.33638e-05
0.000324016
8.71856e-05
6.15644e-05
7.69247e-05
9.33336e-05
9.33355e-05
8.68157e-05
0.000274113
7.90709e-05
0.0339083
6.52221e-05
0.00334094
0.0431334
0.000116899
0.0186521
0.000252701
7.74715e-05
6.05331e-05
7.54372e-05
7.78602e-05
0.0115117
8.83679e-05
6.65004e-05
0.0165123
0.0172598
0.0313455
0.000100901
8.75228e-05
6.19393e-05
0.000202304
0.0182448
7.87508e-05
0.0444078
8.32879e-05
7.36519e-05
0.00317034
0.0011666
0.030315
8.75898e-05
7.90217e-05
8.58768e-05
6.46934e-05
8.40423e-05
0.0399303
8.39381e-05
9.30023e-05
0.000135443
0.000111812
6.1164e-05
8.72483e-05
0.0367611
0.000183114
7.28626e-05
0.0168274
9.96109e-05
8.44194e-05
9.31931e-05
7.21719e-05
7.91198e-05
0.0002959
7.29784e-05
9.44073e-05
0.00828595
6.20775e-05
0.0113714
0.0219294
0.000131602
0.0399151
0.0297789
0.0263677
0.000552135
9.43415e-05
6.03712e-05
0.0338922
8.62611e-05
0.046224
6.12023e-05
6.73166e-05
8.74208e-05
0.0337308
0.0149347
0.00288264
7.51663e-05
0.0188858
0.0378024
0.0383992
0.000158055
0.00154731
0.0260771
0.000382995
0.0185081
9.55197e-05
0.000151505
8.81037e-05
5.60258e-05
8.31441e-05
0.0214464
0.0028847
8.87577e-05
6.00697e-05
8.20863e-05
0.019991
0.032145
8.69497e-05
6.4406e-05
0.000201799
0.0483558
8.79363e-05
6.66642e-05
6.16464e-05
7.62161e-05
0.000309477
0.0353802
7.42556e-05
0.012004
6.41406e-05
6.68731e-05
9.24719e-05
0.038286
0.00121775
8.99549e-05
6.31898e-05
6.10208e-05
0.00416802
0.0271924
6.19054e-05
6.19896e-05
0.0246497
8.30004e-05
6.11875e-05
8.80985e-05
0.0425295
6.32811e-05
6.96654e-05
0.000100686
6.12476e-05
8.07657e-05
0.00356909
0.0345078
8.61123e-05
6.9263e-05
6.03672e-05
0.0204735
6.75642e-05
0.000156308
0.0244346
8.64282e-05
0.036883
0.0443071
0.000167677
6.20993e-05
0.000429773
0.0298851
0.000184027
6.52109e-05
9.06354e-05
0.000100167
0.000100672
9.28635e-05
0.000134681
6.16765e-05
0.000801372
7.1211e-05
0.0480598
8.65022e-05
8.50922e-05
0.043502
6.17799e-05
0.0485121
0.0295382
7.20443e-05
8.80069e-05
6.17386e-05
9.39202e-05
8.64483e-05
0.0423714
0.0308968
9.31885e-05
6.16334e-05
9.24114e-05
6.11664e-05
0.00284052
8.81966e-05
0.0321349
0.000109691
0.0151112
0.00349733
9.19477e-05
0.0248797
0.011169
0.0224027
0.0329078
7.71817e-05
6.35189e-05
6.03344e-05
0.000293391
0.0420087
6.12284e-05
0.00329253
0.0169596
0.000352942
0.0331566
7.00176e-05
0.0196903
7.6054e-05
0.000248111
8.8505e-05
0.000162768
0.000392723
0.0445807
7.45333e-05
6.03885e-05
0.0379606
8.72425e-05
0.00442928
8.36747e-05
0.00469593
0.0355664
6.75845e-05
8.77695e-05
0.0153594
7.10569e-05
6.22401e-05
0.0312532
0.00305652
9.38249e-05
7.29424e-05
0.0474369
0.000189675
8.85648e-05
0.000123935
0.000121622
0.0229833
0.0255559
0.0145247
0.000988047
0.000178825
6.92182e-05
0.000153348
0.0291219
9.43979e-05
9.55238e-05
6.06164e-05
9.04065e-05
8.67271e-05
8.85354e-05
0.000179446
0.00716194
0.0545939
0.0101853
0.0388011
9.3083e-05
0.000166299
6.65391e-05
0.0209877
0.013187
0.0031346
0.00265922
0.029146
9.54482e-05
9.85054e-05
6.02047e-05
0.0213961
8.30765e-05
6.7055e-05
8.96448e-05
8.55926e-05
0.0151656
0.000427177
0.0209808
6.05828e-05
0.00469861
0.0356461
6.17745e-05
6.14726e-05
0.000141052
0.0205896
6.49072e-05
8.86261e-05
0.0456673
6.96937e-05
7.48186e-05
9.19657e-05
6.73533e-05
6.16138e-05
7.70635e-05
6.84e-05
0.00450279
7.47502e-05
6.08671e-05
9.27837e-05
0.00420069
9.69802e-05
0.0207235
0.000100006
9.85521e-05
8.68218e-05
8.91486e-05
0.0102086
9.42212e-05
0.0158026
0.0341909
0.00867477
0.0164745
6.83284e-05
0.0437728
0.00010633
6.2896e-05
0.0312477
0.0418818
0.0256264
8.88146e-05
6.28495e-05
0.0392284
0.0204891
6.77917e-05
8.73313e-05
9.65583e-05
7.67554e-05
0.0181952
6.1123e-05
7.71803e-05
0.0327998
8.83727e-05
0.0404981
9.2258e-05
6.71292e-05
8.26892e-05
7.83765e-05
0.0265948
0.0121664
0.000255669
0.0201595
6.14712e-05
6.57695e-05
7.03533e-05
0.000101616
6.17938e-05
7.39951e-05
6.21265e-05
6.47681e-05
0.0393894
6.44907e-05
0.0189215
0.0250502
0.0155373
0.018321
0.000127832
8.09543e-05
8.14276e-05
0.0184451
0.0178644
9.16159e-05
0.00380094
0.0264225
0.0243151
7.42389e-05
0.0225431
7.27968e-05
8.86942e-05
6.35912e-05
6.67211e-05
8.92099e-05
0.0026637
0.0325172
0.000315774
0.0295904
0.00306761
7.6449e-05
0.0306127
8.19686e-05
6.28225e-05
8.18247e-05
6.69476e-05
0.00407987
0.0216912
9.01395e-05
0.0233585
0.0185117
0.0312417
8.33776e-05
6.17426e-05
0.0168142
7.82205e-05
0.0222715
0.000141713
0.000329528
0.00500975
0.044188
0.0317421
0.0253491
0.0189366
0.00014044
0.000114082
7.79117e-05
9.07728e-05
8.8218e-05
0.0280943
7.99279e-05
0.000143363
9.30821e-05
8.33162e-05
0.0525835
0.00037379
9.00993e-05
0.0326979
0.000125062
0.0277921
0.0372386
0.000117867
0.000833743
0.0255798
6.84446e-05
8.87047e-05
0.000253106
0.0314209
8.83543e-05
0.0438892
9.24748e-05
0.018123
0.000169338
0.0276999
6.3896e-05
0.0193096
8.5062e-05
8.44945e-05
0.0288543
9.04015e-05
7.36193e-05
0.0288675
0.0198931
6.29786e-05
0.0348437
8.35569e-05
0.0324668
9.7902e-05
0.0174664
0.000132167
0.0361607
8.89387e-05
0.00446045
0.000181048
0.0492766
8.81836e-05
0.044678
6.14803e-05
0.000138673
9.78002e-05
6.39231e-05
0.0289175
0.00019783
7.88326e-05
0.0051766
0.00448137
7.77197e-05
0.0276217
0.011765
9.0261e-05
0.030197
9.82712e-05
0.0282566
9.73063e-05
0.0443098
0.0239604
6.24039e-05
0.0353997
9.83915e-05
6.86612e-05
0.0109403
8.59666e-05
8.355e-05
8.06192e-05
8.71111e-05
0.0317969
0.0141235
0.000139623
8.46782e-05
0.0452539
0.0360804
0.0111295
0.0292701
6.97091e-05
0.000239524
0.000575362
7.02853e-05
7.49039e-05
7.58401e-05
0.000234529
6.15244e-05
8.89157e-05
0.000123538
0.017469
0.0132596
8.48327e-05
0.00011833
0.0294511
0.0192557
6.85672e-05
0.000133542
8.7931e-05
0.0319219
6.14002e-05
0.000313925
7.92276e-05
0.0315169
9.22087e-05
0.0320651
7.94213e-05
6.79783e-05
0.0253057
0.0423173
0.0398027
8.54122e-05
0.000100436
6.2147e-05
8.67307e-05
0.000175518
0.000109946
6.6825e-05
0.0167347
0.0303102
0.00463654
0.000256096
0.000159441
8.97999e-05
0.000138868
0.00197404
0.000101243
0.000327827
8.47805e-05
9.13671e-05
6.17947e-05
0.0289025
0.00186004
8.22764e-05
6.17657e-05
0.0125524
8.3698e-05
0.0183811
0.0245038
0.000132643
6.1904e-05
7.29128e-05
6.89468e-05
6.58791e-05
6.75589e-05
0.0328675
0.0294363
0.000115955
8.93566e-05
6.13152e-05
0.0327271
0.0337967
0.00198018
6.83442e-05
6.14924e-05
6.50803e-05
0.000260274
6.14879e-05
9.10168e-05
6.80953e-05
8.27145e-05
6.74652e-05
7.95793e-05
0.000324551
6.18802e-05
0.0204839
9.07617e-05
9.24024e-05
8.00803e-05
0.0389212
0.0353869
8.72331e-05
0.0379936
0.000248937
0.000158294
8.93108e-05
0.000123209
0.00010993
0.000403701
0.0404927
0.0266748
0.0173087
6.66594e-05
0.000746953
6.15892e-05
0.0332437
6.12002e-05
0.00284654
6.21684e-05
9.0686e-05
8.02699e-05
6.14874e-05
6.81904e-05
0.0134429
0.0285179
8.92106e-05
8.69453e-05
0.0342114
0.0371578
0.0026685
6.43627e-05
6.16415e-05
6.03565e-05
0.0337977
0.000673782
0.0109581
6.10818e-05
0.0377728
8.49518e-05
6.58894e-05
0.0240197
0.0291473
0.000112576
0.0295496
0.0163964
0.000406447
8.25236e-05
6.45064e-05
0.000245076
6.14024e-05
6.12377e-05
6.16928e-05
0.00011225
0.030413
8.23804e-05
9.26531e-05
0.000304626
0.0355894
0.0290028
0.0326229
0.000101297
0.0145909
8.32902e-05
7.80828e-05
0.0293927
0.00473527
8.97004e-05
8.8892e-05
0.0233928
0.000262735
9.49752e-05
7.90961e-05
9.74674e-05
0.0261768
9.75156e-05
0.0210913
9.21518e-05
7.51354e-05
6.13264e-05
0.0308072
0.0367871
0.000296901
0.000100985
0.047225
6.0478e-05
6.36005e-05
0.0300791
0.0303763
0.000103733
0.00010077
7.40258e-05
8.65385e-05
0.0218103
0.0363775
0.0481663
0.0454996
0.000151653
7.43256e-05
0.000118761
0.0172397
7.54361e-05
8.87356e-05
9.05523e-05
0.027183
8.01807e-05
8.41483e-05
0.0428784
0.000143685
0.0385816
0.000285444
8.52755e-05
0.000144568
8.55789e-05
6.6152e-05
0.0339858
9.45459e-05
6.46599e-05
0.0347083
8.47396e-05
6.44837e-05
6.05223e-05
0.0478751
0.000259316
6.20087e-05
5.42488e-05
0.000251598
0.0399448
0.0351581
0.000256374
7.48049e-05
0.0507426
0.0438532
0.0346363
9.06906e-05
6.66685e-05
0.0446015
0.0313813
0.000312368
0.0154987
0.0299025
0.000144975
6.41711e-05
0.0331055
0.0183352
0.000100715
7.39779e-05
0.0306952
0.0200383
6.66576e-05
8.8294e-05
0.00154361
0.0262627
0.0341571
8.42212e-05
6.99195e-05
0.0356071
0.0289169
0.0112143
0.0363067
0.00444217
0.0343391
9.34282e-05
0.00341694
0.0112001
0.0418462
6.03529e-05
6.9729e-05
0.0518272
0.0199046
6.01764e-05
0.0370627
0.0273529
0.00423056
0.000494384
6.88648e-05
9.28391e-05
6.41217e-05
0.0012348
9.2872e-05
7.44239e-05
6.33163e-05
0.0361769
6.20005e-05
0.00015041
6.95419e-05
0.0232379
7.71094e-05
0.049149
8.1682e-05
6.88781e-05
8.45829e-05
6.85567e-05
0.0250518
0.0331701
8.74387e-05
6.11143e-05
0.0230203
0.036795
0.000216948
0.0352802
0.000258373
0.00242315
0.034371
6.13016e-05
0.0270062
0.03261
0.000179724
7.65744e-05
0.000115865
0.0383818
0.0368369
0.0361844
0.00273437
0.000102852
0.0436005
0.00394178
0.000130756
6.16725e-05
0.000451118
6.02049e-05
0.0304209
0.020465
0.0172319
8.61459e-05
8.97968e-05
0.000168893
9.21668e-05
0.0179325
0.0294025
0.0538534
8.60496e-05
0.000152318
0.0236471
0.0181021
0.0362987
0.034601
0.0304454
6.18887e-05
6.95808e-05
0.0359671
0.0382525
0.0414273
0.0372941
0.00287433
7.2736e-05
0.000102006
9.12681e-05
0.0200275
9.23477e-05
0.000101435
8.96084e-05
0.000153031
9.26786e-05
0.0239444
9.5899e-05
0.00451142
0.0476841
0.0511899
7.00516e-05
0.0285148
7.25713e-05
0.000316567
9.10702e-05
0.000218839
6.41046e-05
0.02222
0.000114921
6.08952e-05
8.04849e-05
0.0224934
6.40857e-05
0.00010238
8.67787e-05
0.000123274
7.72187e-05
0.0211843
6.13784e-05
8.87796e-05
9.29862e-05
8.96064e-05
0.0357523
6.01789e-05
0.0172825
0.0354725
0.00463164
0.000258461
9.16083e-05
8.76411e-05
0.0424959
0.0327796
9.98438e-05
8.60847e-05
6.19058e-05
6.20856e-05
8.42284e-05
0.000307934
0.0293819
0.0240113
7.45096e-05
0.0212699
0.0421334
9.15597e-05
0.000261257
0.052476
6.15e-05
8.76964e-05
0.010971
0.0257417
8.99828e-05
0.000329748
6.09187e-05
0.0325762
9.18234e-05
0.0343527
0.0383832
6.96034e-05
0.000113091
6.73868e-05
0.0176761
0.0045906
0.0531236
8.20937e-05
6.67239e-05
0.0275987
6.0636e-05
8.34867e-05
0.000272372
0.0129648
0.00473863
0.0377865
0.0337174
6.70546e-05
8.92169e-05
0.0405713
0.0378636
6.71144e-05
0.0257045
8.85259e-05
9.82615e-05
8.92998e-05
6.1307e-05
6.03325e-05
0.000161685
9.27795e-05
0.0505931
0.000117482
0.0151751
0.000266512
0.013718
0.000414518
9.83919e-05
0.0365036
8.15514e-05
9.25302e-05
9.46262e-05
0.0389566
0.00703414
0.000173177
0.0301422
0.033096
0.000113121
9.30805e-05
0.038637
6.16882e-05
0.0316134
6.16837e-05
0.0431955
7.42148e-05
9.40655e-05
0.0182344
0.000113342
0.000263712
8.7741e-05
0.0314382
0.0513383
8.20729e-05
8.59074e-05
0.00311189
6.97113e-05
8.59033e-05
0.000162213
8.13312e-05
8.16214e-05
9.28115e-05
0.00556123
0.0331799
0.0333585
6.17969e-05
8.61008e-05
6.80601e-05
6.19903e-05
0.000141602
9.46205e-05
0.000142282
0.0394966
0.000149989
8.58671e-05
6.21965e-05
0.000220535
0.041713
0.0277438
9.39507e-05
0.000638205
0.0273928
0.0210667
8.86966e-05
0.0047821
0.0390566
6.65677e-05
0.0443099
0.0392224
0.000250528
7.21698e-05
0.000141643
0.00013292
9.39878e-05
6.05719e-05
9.54848e-05
7.14127e-05
0.0341326
0.000341636
8.63153e-05
0.000593238
9.26121e-05
0.0314673
9.20917e-05
8.97784e-05
9.59323e-05
8.4713e-05
0.00014565
8.51034e-05
6.75507e-05
0.0397315
0.0330267
9.25898e-05
0.0381521
0.0439193
0.036154
8.57406e-05
9.19969e-05
0.053238
0.0459744
6.36733e-05
0.0336599
6.07088e-05
0.000109646
0.0167773
9.28444e-05
0.0282024
0.019603
9.3311e-05
0.000241015
0.0458421
6.29669e-05
0.000123555
6.74312e-05
0.00124497
0.0411935
0.00561133
0.00413963
0.0216547
0.00219848
0.000152162
6.17289e-05
0.00014885
0.001314
0.0114545
0.000111778
0.000159825
6.8336e-05
9.69774e-05
0.000481151
0.0433397
8.58454e-05
9.04032e-05
9.708e-05
6.22083e-05
9.54055e-05
9.46144e-05
0.000222128
9.71146e-05
0.0387657
0.0145818
0.0212045
0.000102649
0.0136747
8.91292e-05
6.37885e-05
0.000258189
0.0378072
6.88431e-05
0.0208562
0.0306848
0.0190249
7.61047e-05
8.75122e-05
0.00011215
0.0001595
0.0369707
0.010166
0.021201
0.0348059
9.91014e-05
0.0375052
0.00641563
9.13738e-05
0.00011447
0.000448065
9.45626e-05
0.02783
6.05156e-05
0.000275872
9.76747e-05
0.000107421
0.0273812
9.76327e-05
0.0354822
7.53037e-05
0.0429466
9.60921e-05
0.0455141
0.00130502
7.44255e-05
0.0448634
0.0392672
6.31125e-05
0.00523178
0.000252206
0.000147195
0.0226641
9.99229e-05
6.13418e-05
0.020433
8.20094e-05
0.000126933
0.0117119
0.000350992
0.000107075
0.000179493
9.38025e-05
0.0316749
9.31184e-05
0.000127546
0.0300361
0.000109185
0.0308285
9.06623e-05
0.0450045
0.0461421
8.71512e-05
6.82026e-05
6.18833e-05
0.00185149
0.0203899
9.17791e-05
0.000103051
0.000103395
9.46948e-05
0.0315847
6.15648e-05
9.28369e-05
8.66647e-05
9.75823e-05
6.11254e-05
0.0214468
0.00026287
6.96852e-05
0.045281
5.82979e-05
8.24291e-05
0.000104219
8.1728e-05
0.000151504
0.0240777