/*--------------------------------*- C++ -*----------------------------------*\
| =========                 |                                                 |
| \\      /  F ield         | OpenFOAM: The Open Source CFD Toolbox           |
|  \\    /   O peration     | Version:  v2012                                 |
|   \\  /    A nd           | Website:  www.openfoam.com                      |
|    \\/     M anipulation  |                                                 |
\*---------------------------------------------------------------------------*/
FoamFile
{
    version     2.0;
    format      ascii;
    class       volScalarField;
    location    "50";
    object      nut;
}
// * * * * * * * * * * * * * * * * * * * * * * * * * * * * * * * * * * * * * //

dimensions      [0 2 -1 0 0 0 0];


internalField   nonuniform List<scalar> 
13749
(
0.00650942
0.000444014
0.000465192
0.000444263
0.0266577
0.000440498
0.00574832
0.000448494
0.000633804
0.000444206
0.000440816
0.00046487
0.000465527
0.0211653
0.000447389
0.021521
0.000415966
0.000450901
0.000447187
0.000448561
0.0149784
0.0199276
0.000399959
0.000458416
0.000464445
0.000441315
0.00045284
0.0005466
0.0200521
0.0121669
0.00240984
0.000457347
0.000644573
0.00044719
0.00971495
0.00951842
0.017673
0.000450844
0.0108432
0.00467443
0.000448733
0.000677244
0.000442718
0.0200687
0.00044753
0.000442701
0.000444333
0.000486147
0.000486674
0.000453301
0.000458213
0.000447706
0.00401077
0.000443258
0.000451989
0.00875952
0.0202936
0.000462663
0.000446594
0.000562383
0.000455797
0.00130355
0.000409055
0.000414151
0.000516678
0.00892254
0.000464094
0.000182454
0.00623914
0.00586361
0.000469448
0.000739693
0.000452187
0.0189987
0.000451706
0.0171658
0.000443508
0.000438325
0.00587794
0.000444769
0.00135183
0.000470351
0.000492695
0.000443316
0.0197265
0.000443605
0.0177919
0.000464829
0.0164227
0.00051278
0.000450022
0.00136735
0.000441301
0.000626445
0.000452025
0.0184179
0.0123301
0.000496888
0.0128396
0.00044223
0.000454717
0.0100591
0.000454153
0.000667394
0.000441507
0.000449348
0.00044972
0.00221989
0.000438871
0.0133244
0.00045083
0.0015792
0.00421415
0.000452696
0.000531465
0.000171136
0.000443358
0.000464685
0.000549419
0.000452657
0.000441354
0.000373145
0.000439955
0.000440336
0.000442839
0.0203922
0.000356156
0.000448671
0.00043945
0.00438489
0.000444301
0.0163418
0.000542615
0.0128771
0.00068523
0.0198098
0.0120121
0.000550303
0.000442602
0.000441814
0.014931
0.000444964
0.000441763
0.00689503
0.00045279
0.000439012
0.0173389
0.00600732
0.0187695
0.018985
0.000443763
0.0133759
0.000439733
0.000542267
0.0208092
0.000448996
0.00803068
0.00088232
0.000338177
0.000446676
0.000467035
0.00044159
0.000576057
0.000444312
0.000445763
0.000457064
0.00044405
0.000446076
0.0187152
0.00102324
0.000447372
0.000441591
0.0205035
0.0152323
0.00110443
0.000456846
0.000706804
0.00144318
0.000547165
0.0250256
0.000454654
0.000466428
0.000722861
0.00868409
0.000465839
0.000441728
0.000443182
0.000445595
0.000350108
0.000476423
0.0266986
0.00115438
0.00045155
0.000465805
0.000443413
0.000445986
0.000549249
0.000494912
0.000486565
0.000556855
0.0077391
0.000466386
0.0208545
0.00570244
0.000441836
0.014108
0.000678689
0.018193
0.00044251
0.000442904
0.000452111
0.0107971
0.000462942
0.000444399
0.00373665
0.00879822
0.00046745
0.00822273
0.000450289
0.000441941
0.000441708
0.0132404
0.000651954
0.000454313
0.00217534
0.0264902
0.00688065
0.000443974
0.0133993
0.000442863
0.00315707
0.00300668
0.000442709
0.000440883
0.000447872
0.000438253
0.0165981
0.000468831
0.00110141
0.000442633
0.00819858
0.00120839
0.00044304
0.000484195
0.000441824
0.0004435
0.000446955
0.000444823
0.00142422
0.00136901
0.000446472
0.000444681
0.0166891
0.013683
0.000454522
0.000440635
0.0159946
0.000619749
0.00044994
0.000439231
0.00349361
0.0183154
0.000451517
0.000485093
0.000445265
0.000438265
0.000439143
0.00123418
0.0195964
0.000450432
0.000445944
0.000458725
0.0132016
0.0118532
0.000490483
0.00563626
0.0107502
0.00046514
0.0195025
0.000449036
0.000449606
0.00385558
0.0124083
0.00046644
0.00192856
0.000450396
0.000873198
0.000599907
0.000438894
0.00224263
0.0259022
0.000640855
0.00046539
0.000468286
0.0186018
0.0182735
0.000450995
0.000451562
0.00805052
0.000449356
0.0192897
0.000989355
0.0190711
0.000458393
0.00055219
0.0242194
0.0198291
0.000446711
0.0267512
0.000444892
0.000438936
0.000481004
0.0150753
0.000489186
0.000497493
0.00044784
0.00157532
0.00043936
0.000672313
0.000448492
0.000441591
0.000441969
0.000458799
0.00953314
0.000452591
0.00046755
0.0150375
0.000441595
0.000446343
0.017529
0.0212483
0.000451265
0.000441888
0.00979123
0.000453917
0.000442026
0.00252383
0.00044835
0.00951772
0.0118004
0.000438352
0.0109905
0.00999867
0.000464845
0.00044132
0.000508487
0.000482361
0.000469298
0.000444016
0.00863137
0.000458595
0.00921316
0.00045652
0.000444024
0.000484716
0.0004871
0.000451374
0.000400778
0.000462493
0.000446768
0.000444973
0.000469266
0.000537365
0.0257479
0.000440849
0.000445719
0.000438778
0.00057169
0.000448713
0.000447269
0.000515611
0.000441548
0.000449747
0.00148523
0.00045032
0.000439803
0.000445354
0.000452117
0.0182732
0.000402555
0.000447318
0.000445251
0.000439728
0.00246273
0.000515072
0.00993924
0.0138958
0.000638749
0.0100607
0.0220074
0.000449055
0.000444199
0.000451039
0.00853829
0.00974437
0.000441521
0.000444413
0.00044783
0.0186488
0.000444472
0.0005038
0.000450295
0.000684708
0.000989511
0.000447314
0.00381215
0.021458
0.000445069
0.00212847
0.00870368
0.000440658
0.00188413
0.000448798
0.0121327
0.000438361
0.00784472
0.0179828
0.000452595
0.00522154
0.0150746
0.000442676
0.000464126
0.0171822
0.00047002
0.000454363
0.000452256
0.000446586
0.000454736
0.000451158
0.000447503
0.000533659
0.000456895
0.00044498
0.000444418
0.000449832
0.000456304
0.000447368
0.000671676
0.000784967
0.00065016
0.0126074
0.0158617
0.000462282
0.0140742
0.00394064
0.0100765
0.000471329
0.000448843
0.0177892
0.0123079
0.000510932
0.00114925
0.000439336
0.000443352
0.000452063
0.000470834
0.000451424
0.0238507
0.015701
0.0214769
0.000443743
0.000444091
0.00300776
0.000443308
0.0157971
0.0118094
0.000452143
0.00048988
0.000527897
0.01148
0.000465464
0.0105161
0.000441828
0.000453083
0.000450219
0.0100216
0.000294676
0.00100807
0.00045922
0.0125746
0.000439386
0.000457248
0.00044215
0.000450903
0.00044245
0.00044375
0.000446657
0.000448048
0.000470212
0.00393619
0.000443206
0.000415809
0.000579044
0.00044021
0.0208894
0.0156369
0.0155273
0.000454895
0.000976343
0.000509759
0.00465807
0.00044822
0.000485129
0.000442199
0.0206402
0.000447421
0.00044667
0.00477627
0.00822281
0.000449961
0.00875193
0.0141428
0.000467836
0.00815405
0.0208332
0.000437487
0.0188685
0.000438739
0.0268173
0.0119049
0.00045317
0.000449509
0.00376551
0.000458647
0.000442145
0.0259001
0.0213782
0.00323063
0.000468435
0.00968955
0.000452639
0.000450839
0.0109532
0.00411166
0.000476889
0.0252828
0.0141562
0.000445184
0.0174383
0.000458114
0.000442793
0.0211861
0.0155994
0.000477324
0.000447658
0.0203484
0.000459589
0.000448051
0.0212555
0.00986812
0.0175789
0.000447151
0.0181609
0.000484102
0.00277666
0.000447543
0.00038963
0.0183745
0.000454761
0.000464233
0.000447557
0.00751431
0.0126091
0.000438467
0.000314157
0.000444747
0.00659079
0.00336943
0.000453933
0.000524223
0.000451294
0.000449783
0.0194232
0.000657205
0.000458531
0.0158567
0.000520216
0.0215362
0.000459421
0.00044391
0.0113312
0.000462059
0.000490785
0.0164976
0.00045185
0.0040546
0.00914051
0.000465007
0.0206282
0.000482358
0.00730218
0.00061068
0.00155372
0.000527227
0.000976592
0.00914321
0.000434043
0.0210128
0.016624
0.000454564
0.0088271
0.000448227
0.0165045
0.0162545
0.0150622
0.0130885
0.000447658
0.000446414
0.000450592
0.00841353
0.000451735
0.000476793
0.000489985
0.000673411
0.000525937
0.000490039
0.000454201
0.000528704
0.0103865
0.00045208
0.000450171
0.0110775
0.000456104
0.000449633
0.00354731
0.000460417
0.0197107
0.000447772
0.000450787
0.000439317
0.000448277
0.0221781
0.00120266
0.000636573
0.00050681
0.0215218
0.00044063
0.00044836
0.000447068
0.0142923
0.000491413
0.00664562
0.00813419
0.0125266
0.000442502
0.0187291
0.000444558
0.00167045
0.000452983
0.000517312
0.0179639
0.00141113
0.00782232
0.000635673
0.000454318
0.000547706
0.000443735
0.000946449
0.00458696
0.00361243
0.000445784
0.0044378
0.0187403
0.0185799
0.0100039
0.0172097
0.0176588
0.018966
0.000448238
0.000477764
0.000534392
0.000490555
0.00044225
0.000438664
0.000452971
0.000406896
0.00163567
0.000457144
0.0186437
0.00683979
0.000444174
0.000449799
0.00808753
0.0167894
0.0156308
0.000451086
0.0123492
0.000450967
0.000450487
0.0201623
0.000535548
0.020788
0.000441909
0.000438296
0.020979
0.000452737
0.0202871
0.000447731
0.0207587
0.000485574
0.000459701
0.000446898
0.00081391
0.00044116
0.020557
0.000458328
0.00828689
0.00311389
0.000443949
0.000449401
0.0120489
0.0158077
0.000447871
0.0104868
0.000440965
0.000466464
0.000454017
0.0138573
0.0195319
0.00918668
0.000450627
0.000445538
0.00106835
0.0004502
0.000448528
0.000336617
0.000441907
0.0219484
0.000442812
0.0157188
0.00508194
0.000453291
0.019545
0.0196461
0.000522315
0.000452047
0.0136616
0.000848595
0.0166908
0.000457232
0.00198996
0.0102513
0.000442149
0.000657782
0.00044364
0.0124306
0.00058021
0.000443298
0.000451633
0.000459207
0.00760146
0.000451845
0.000472398
0.000463358
0.0122722
0.000449812
0.000443138
0.000466004
0.0191386
0.000439058
0.000442142
0.00043741
0.0012501
0.000480702
0.0189881
0.000492453
0.0189198
0.0151504
0.000174321
0.0174088
0.000438771
0.0140869
0.000373323
0.000461799
0.000450625
0.000927922
0.00334921
0.0119465
0.0153211
0.000449551
0.000448204
0.0115944
0.00884132
0.000438595
0.000478107
0.000445378
0.000451195
0.00044904
0.000442139
0.0120626
0.000441293
0.000449326
0.000441231
0.000439772
0.000446791
0.00930606
0.0011006
0.00385302
0.0234229
0.0123224
0.0244549
0.0064882
0.0004432
0.00881057
0.000450562
0.00153287
0.000451222
0.000438877
0.0191818
0.000474993
0.000775377
0.000446442
0.0120471
0.0231783
0.000442314
0.0200063
0.000450459
0.00993666
0.018125
0.000447052
0.000449195
0.000440952
0.000513779
0.000717437
0.000917757
0.000445228
0.000437508
0.000442563
0.000522499
0.0217401
0.000479316
0.000932873
0.0205523
0.000464321
0.0213495
0.000445451
0.0024273
0.000444768
0.000442106
0.000455135
0.0191057
0.000451632
0.0012638
0.000623284
0.0004408
0.000467683
0.000449473
0.019828
0.0237845
0.000448321
0.0004433
0.0188401
0.00100071
0.0004426
0.000445834
0.000448762
0.000448448
0.000437608
0.0197983
0.000445588
0.000519876
0.0133359
0.0170784
0.00279643
0.000458891
0.0219691
0.000671479
0.0198392
0.0253659
0.000450089
0.000452956
0.000244501
0.000448912
0.000444338
0.000876085
0.000444762
0.00252982
0.000476784
0.00044405
0.00546216
0.000451362
0.000458646
0.000452218
0.000441721
0.00044862
0.0193807
0.000455165
0.000464186
0.00781259
0.00915743
0.000443891
0.000178536
0.0158721
0.00043852
0.000446794
0.000501774
0.000452947
0.0202267
0.000454242
0.000636162
0.000452613
0.00071365
0.000445535
0.000440091
0.000446076
0.000459349
0.000501353
0.000450813
0.000467661
0.00044923
0.000452848
0.000452461
0.000458673
0.000451413
0.000442821
0.000486981
0.00043837
0.0142623
0.000447687
0.000450885
0.0200346
0.000566438
0.000443989
0.000447785
0.000466476
0.00044206
0.000988955
0.0178777
0.000444628
0.00044992
0.0187774
0.000663786
0.00124253
0.000444689
0.00832388
0.000438349
0.0203579
0.000447296
0.0155946
0.000443718
0.000488466
0.000450338
0.000459371
0.0136945
0.00415862
0.000442794
0.00967472
0.0122668
0.000456361
0.000449357
0.00821987
0.00322606
0.000442148
0.000461273
0.000442769
0.000483611
0.000440925
0.00794843
0.0145882
0.000450784
0.0124275
0.000450008
0.0130531
0.000481784
0.000443126
0.000441228
0.000452279
0.0226515
0.000444963
0.000451959
0.000457061
0.00093368
0.000462629
0.0155876
0.000445939
0.000446589
0.000523055
0.0220128
0.000439099
0.018211
0.0182437
0.000439532
0.000438522
0.000439664
0.000442341
0.000445968
0.00161779
0.00343684
0.0198375
0.000442149
0.0129602
0.000452663
0.000459374
0.000456697
0.000449977
0.000450222
0.000443647
0.000416346
0.000443706
0.0146583
0.000448294
0.000439212
0.000467225
0.00574991
0.000446521
0.000483976
0.000439746
0.018978
0.000456951
0.0101704
0.0205272
0.000450388
0.0212337
0.0117084
0.0125168
0.0170696
0.000442439
0.000439227
0.0190083
0.0108624
0.012837
0.00579931
0.000451258
0.000467411
0.00505161
0.000450645
0.000566105
0.000489295
0.000450713
0.0176882
0.00980688
0.000451525
0.000444719
0.000398259
0.0203631
0.00259152
0.0204277
0.000441762
0.000582353
0.00044628
0.000451251
0.00635365
0.000444255
0.0156751
0.000459421
0.0189187
0.000446144
0.000484637
0.0109647
0.00212568
0.0103516
0.0112087
0.000438489
0.000446713
0.000442112
0.0198432
0.0194352
0.000452305
0.000444496
0.000500249
0.01401
0.000476904
0.000449777
0.000444883
0.000447238
0.00045168
0.000438595
0.000494925
0.000488177
0.000441114
0.000874837
0.000452092
0.0114753
0.000465086
0.000485479
0.00120898
0.000444976
0.0115347
0.000445922
0.00445781
0.000451453
0.000448284
0.000454463
0.00985952
0.000447154
0.000446265
0.00137082
0.000575451
0.000662871
0.0111387
0.000464747
0.000444785
0.0119705
0.000441306
0.000445945
0.000438504
0.000453913
0.000452043
0.000452809
0.0146576
0.00961485
0.0214693
0.000470525
0.000446289
0.00047889
0.00185408
0.0213742
0.000442043
0.00556174
0.000581228
0.0172292
0.000452155
0.000441251
0.000451798
0.00878466
0.000446173
0.000467566
0.00748721
0.000449238
0.000455603
0.0152036
0.000446001
0.000450141
0.000459592
0.0131276
0.00992224
0.0130524
0.0134236
0.000672596
0.000442452
0.000447165
0.000444934
0.000936745
0.0175428
0.000443696
0.000445743
0.000441261
0.00043948
0.000464564
0.000564931
0.000454363
0.000459582
0.000855703
0.00404127
0.000442551
0.00044022
0.000527187
0.000449302
0.00903736
0.000451803
0.000453928
0.000446315
0.0118978
0.0184308
0.000440263
0.000445567
0.0100281
0.000446546
0.0126283
0.000459437
0.000444936
0.0205925
0.0052891
0.000444728
0.000440587
0.000442957
0.021246
0.000449895
0.00084398
0.00106648
0.000459502
0.00044671
0.000460495
0.0110545
0.000445265
0.00857219
0.0021647
0.000470929
0.000608043
0.000464112
0.000415461
0.00917349
0.000475316
0.019134
0.0207111
0.000453079
0.000445377
0.000444619
0.000476661
0.000901644
0.000444604
0.000438768
0.000448349
0.000440762
0.0111571
0.00044582
0.000547189
0.00131349
0.000447347
0.000940315
0.0130792
0.00043753
0.000446916
0.000441284
0.00087266
0.000454905
0.000466649
0.00045672
0.00512095
0.000461591
0.00348181
0.0146047
0.00929356
0.0172708
0.000448757
0.00954725
0.0100504
0.000444617
0.000445014
0.000861914
0.000445107
0.0206924
0.00049153
0.0160996
0.0140631
0.000441387
0.0192563
0.000445697
0.000450029
0.000453439
0.0150258
0.0134181
0.0155911
0.0199318
0.0212969
0.0004479
0.0205295
0.000454681
0.000443302
0.000496543
0.000456336
0.00763574
0.00506989
0.000445659
0.00052581
0.00110437
0.000439844
0.0186532
0.0159291
0.000550546
0.000441111
0.000440942
0.000516067
0.000452446
0.000445948
0.00113912
0.00882148
0.000437585
0.000449037
0.000437576
0.000444952
0.000444478
0.000439842
0.0145653
0.000863753
0.00583878
0.000459858
0.00432467
0.00084732
0.000450388
0.0183175
0.000483588
0.0115856
0.000444428
0.000526227
0.000448202
0.000455277
0.000449898
0.000470503
0.000463414
0.00588402
0.000605924
0.00955483
0.0077871
0.000448566
0.00064026
0.0193099
0.000439516
0.000454245
0.000529513
0.0133662
0.000505496
0.000445604
0.00580156
0.000445659
0.00834901
0.0124094
0.000440425
0.000449397
0.0121629
0.000448437
0.000453392
0.000871608
0.00779448
0.000679704
0.0122722
0.000457426
0.000437539
0.0131606
0.000452449
0.0100069
0.000593269
0.000456626
0.0173801
0.000450801
0.00204005
0.000481524
0.00525186
0.000520683
0.00048145
0.000438446
0.0111957
0.000468593
0.0115465
0.000876879
0.000499799
0.000452459
0.000666667
0.000448479
0.0191096
0.000444508
0.000931813
0.0149962
0.000449665
0.000452761
0.0224624
0.000445392
0.00838724
0.000988835
0.0166997
0.000468738
0.00043895
0.000497194
0.000446492
0.000479267
0.0209252
0.00044097
0.00857552
0.000480882
0.000456907
0.00044651
0.000438448
0.011268
0.000444753
0.000441786
0.0210269
0.00866856
0.000445925
0.000996074
0.00058763
0.0150919
0.000446652
0.00048561
0.000440982
0.021771
0.000454857
0.000489694
0.000452065
0.00894515
0.0130993
0.00048703
0.000445327
0.0131772
0.0134519
0.00046125
0.000460071
0.00117243
0.000843963
0.000444717
0.000440923
0.000463528
0.00394793
0.00121459
0.000438162
0.00983506
0.0134077
0.0151751
0.00044425
0.000400739
0.000459023
0.000453975
0.000379646
0.0209458
0.000446896
0.000443996
0.000479502
0.000446914
0.000452094
0.000439023
0.000446194
0.0211116
0.000452786
0.000531501
0.0140746
0.000440357
0.000442029
0.0133869
0.000441062
0.0204043
0.000444398
0.000444197
0.000459996
0.0177734
0.0150756
0.000444434
0.000452284
0.000442626
0.00228024
0.000445359
0.000440669
0.000451732
0.000445549
0.000443964
0.000439615
0.00048381
0.000445833
0.0185571
0.00962726
0.0122219
0.00114858
0.000457787
0.000450387
0.000451328
0.00114944
0.00778341
0.00131855
0.00044961
0.000469528
0.000495578
0.00045076
0.0235498
0.000471423
0.000440121
0.000443238
0.0201591
0.0212576
0.000453501
0.020802
0.000467874
0.000447484
0.000449931
0.000990916
0.000449904
0.000444485
0.000445523
0.00048868
0.000465905
0.000475536
0.000873484
0.000446047
0.0124241
0.000443499
0.00883249
0.0146897
0.000532313
0.0164945
0.000855465
0.000450741
0.000439216
0.000444946
0.00045063
0.0160884
0.000472888
0.000441153
0.0087811
0.00847273
0.00943672
0.000533696
0.000453398
0.000446447
0.0007239
0.0119441
0.000446204
0.0138108
0.00044844
0.000443982
0.00882222
0.00158062
0.0132789
0.000466967
0.000446264
0.000459002
0.000446305
0.000470648
0.0159633
0.000451621
0.000474891
0.00018989
0.000514226
0.000442539
0.000451873
0.0152147
0.000685421
0.000473
0.0184581
0.000489149
0.000448879
0.000473304
0.000446024
0.000453915
0.000951826
0.000443953
0.000462819
0.00199102
0.000439298
0.00278245
0.00470576
0.000783762
0.0238446
0.0109283
0.00905988
0.00112853
0.00048847
0.000438361
0.0178061
0.000459546
0.0206009
0.000442815
0.000440309
0.000450472
0.0185842
0.00725586
0.00822081
0.000447909
0.0117956
0.0152491
0.020711
0.000629509
0.00343338
0.00845287
0.00109435
0.0120028
0.000464081
0.000613694
0.000467879
0.000481385
0.000616051
0.0145857
0.00843676
0.00045182
0.000554869
0.000448438
0.010124
0.0130565
0.000450203
0.000451285
0.000722049
0.012087
0.00045972
0.000441006
0.000444895
0.000445176
0.00108756
0.0142488
0.000445042
0.0156053
0.000439755
0.000440615
0.000466091
0.0152241
0.00282614
0.000450877
0.000444842
0.000441849
0.0103979
0.00872731
0.000445292
0.000446581
0.0112651
0.000448919
0.000441897
0.000457745
0.0162717
0.000444302
0.000441756
0.000421468
0.000443054
0.000450707
0.00809751
0.0133957
0.000454042
0.000441876
0.000438411
0.0193229
0.000440439
0.000410319
0.0112983
0.000449888
0.0163329
0.0203222
0.000660833
0.000438742
0.000666611
0.0128965
0.000871653
0.000463678
0.000451494
0.000486914
0.000477925
0.000481731
0.000507257
0.000445233
0.00144074
0.000560756
0.0208063
0.000454284
0.000452202
0.0201543
0.000443904
0.0209058
0.0131961
0.000448317
0.000450414
0.000445414
0.000463304
0.000455249
0.0171473
0.012072
0.000463301
0.000444961
0.000377771
0.000441893
0.00687954
0.000452042
0.0156918
0.000510809
0.00617405
0.00926165
0.000464945
0.00649404
0.0156645
0.0186954
0.0188082
0.000446706
0.000470734
0.000438243
0.000734434
0.00956014
0.000442822
0.00907515
0.00828588
0.000679661
0.0123522
0.000460613
0.0178765
0.000445592
0.000830424
0.00045393
0.000647482
0.000737222
0.0202268
0.000445707
0.000438522
0.0235184
0.000449828
0.00911289
0.000448965
0.0105672
0.0187449
0.000449746
0.000453691
0.00576525
0.000446292
0.00044684
0.0115087
0.00319359
0.000462695
0.000444126
0.0207223
0.000695227
0.000450414
0.00055035
0.00054834
0.0162105
0.0194381
0.00749506
0.00133902
0.000675568
0.000441715
0.00061753
0.0131624
0.000461699
0.000480114
0.000439725
0.000457031
0.000449713
0.000450361
0.000671698
0.00566376
0.0212322
0.00946983
0.0233421
0.000465761
0.000649035
0.000440758
0.0100819
0.00653798
0.00874476
0.00772295
0.00805601
0.000463509
0.0004826
0.000437481
0.0200347
0.000448158
0.000442893
0.000453895
0.000459336
0.00775792
0.00117598
0.0105381
0.000439543
0.0104734
0.0131752
0.000445607
0.00044413
0.000608179
0.0191335
0.000445169
0.000455777
0.011795
0.00044242
0.000464325
0.000467789
0.000440611
0.00044333
0.000450084
0.000441115
0.00439648
0.000444518
0.000441037
0.000467665
0.00998666
0.00048177
0.010203
0.000476519
0.000478998
0.000475671
0.000455019
0.00415276
0.000493978
0.00720405
0.0164771
0.00639912
0.0084808
0.000442085
0.0202657
0.000530512
0.000487415
0.0141358
0.0168026
0.0213585
0.000454997
0.000443943
0.0184382
0.0135736
0.000449531
0.000451532
0.000466226
0.00046452
0.016783
0.000441992
0.000451634
0.0187292
0.000450289
0.02402
0.000475434
0.000440514
0.000455867
0.000446639
0.00807671
0.0084756
0.000853625
0.010574
0.000444115
0.000441069
0.000443228
0.000511458
0.000442561
0.000449894
0.000446999
0.000453224
0.0152039
0.000439271
0.00999878
0.0190493
0.0156709
0.00796981
0.000569676
0.000459397
0.000460486
0.00960411
0.00803135
0.000458835
0.00936371
0.0116096
0.0112364
0.000444769
0.0109047
0.000444367
0.00045067
0.000448586
0.000440468
0.00048549
0.00693576
0.0123555
0.00100461
0.00981756
0.00282017
0.000445678
0.0114964
0.000449591
0.000444318
0.000449594
0.000440424
0.0098898
0.010811
0.000458559
0.0111755
0.00996995
0.00851265
0.000451447
0.000444214
0.00742415
0.000463024
0.0213955
0.000604712
0.000985538
0.0110886
0.0202616
0.0229296
0.0115688
0.00997822
0.000582399
0.000527959
0.000445915
0.00045134
0.000451797
0.00984378
0.00044968
0.000592583
0.000484778
0.000448208
0.0213311
0.00118188
0.000457133
0.0159266
0.000560181
0.0100959
0.0152095
0.00053657
0.000983623
0.0200779
0.000442269
0.000486714
0.000840212
0.0150159
0.000453416
0.0201204
0.000458401
0.00247929
0.000648197
0.0120544
0.000456114
0.00832195
0.000470644
0.000476794
0.0120679
0.000456935
0.000449877
0.00884467
0.0103695
0.000439124
0.0173135
0.000451511
0.0103422
0.000521468
0.00895346
0.000385416
0.0179283
0.000454409
0.0102005
0.000679596
0.0204658
0.000452184
0.0103545
0.000444068
0.000578958
0.000477072
0.000456125
0.00762813
0.000942745
0.000464608
0.00440098
0.00998524
0.000458538
0.010154
0.0160239
0.000451879
0.0162291
0.000483208
0.0119545
0.000476005
0.0152311
0.0174018
0.000444885
0.0211885
0.000481276
0.000441311
0.00975112
0.000459854
0.000469395
0.000459741
0.000450915
0.013366
0.00946772
0.000595477
0.000449457
0.0203296
0.0186729
0.00463076
0.0074255
0.000443303
0.000732402
0.00178732
0.000444232
0.000444504
0.000448192
0.000578217
0.000444389
0.000452388
0.000505728
0.0084723
0.00618613
0.000461651
0.00054204
0.0205076
0.00902724
0.000441737
0.000407006
0.000455753
0.0122352
0.000443796
0.000951617
0.000446236
0.0125338
0.000476381
0.0133428
0.000446674
0.00044087
0.0201286
0.0197391
0.015697
0.000452328
0.000479133
0.000447428
0.000449733
0.000675514
0.000509125
0.000440686
0.00705501
0.0125976
0.0103392
0.000854767
0.000627697
0.000457392
0.000586593
0.00510733
0.000481087
0.000987488
0.000448641
0.00046627
0.000445707
0.00987499
0.00408802
0.000447868
0.000445481
0.0113019
0.000450242
0.00977582
0.0214373
0.000592246
0.000445929
0.000444343
0.000441575
0.000440619
0.000441206
0.0194751
0.0100154
0.000533077
0.000462899
0.000443397
0.0132135
0.0203061
0.00208969
0.000441291
0.00044441
0.000444491
0.000859575
0.000444243
0.000456525
0.000440732
0.000448131
0.000440715
0.000446656
0.000989073
0.000446037
0.00458227
0.000474687
0.000473602
0.000449731
0.0157256
0.0158109
0.000453306
0.0149276
0.000829459
0.000651682
0.00045434
0.000557216
0.000528634
0.00111437
0.0199095
0.0115271
0.0153278
0.000442577
0.00229064
0.00044471
0.0134263
0.000442748
0.00637985
0.000447383
0.000452091
0.000449831
0.000444228
0.000447194
0.0037347
0.0202088
0.00045258
0.000480706
0.0155515
0.0191235
0.00793009
0.000446165
0.000444841
0.000438353
0.0123453
0.00207658
0.00485364
0.00044207
0.0178658
0.00044896
0.000440165
0.0227031
0.00891251
0.000513471
0.0164637
0.0070991
0.00113853
0.000447989
0.000439978
0.000821708
0.000443735
0.000442632
0.000445609
0.000519559
0.0122189
0.00044875
0.000472172
0.00106228
0.0157849
0.00851389
0.0188875
0.000494776
0.00728328
0.00044831
0.000451436
0.0131191
0.0106503
0.000452258
0.000453811
0.0112546
0.000862307
0.000462103
0.000446995
0.000479878
0.0114752
0.000478962
0.019859
0.000595433
0.00046512
0.000443404
0.0153937
0.0218529
0.0029599
0.000479535
0.0206047
0.000439008
0.000444003
0.0139981
0.0180611
0.000517475
0.000489387
0.000452643
0.000449895
0.0103241
0.0189847
0.0208226
0.0204612
0.000619197
0.000449127
0.000504991
0.0120663
0.000455354
0.000459063
0.000452598
0.0134373
0.000450282
0.000448825
0.0196986
0.000591026
0.0193567
0.00100187
0.000462581
0.000601637
0.000448463
0.000440626
0.0123095
0.000506956
0.000441155
0.018479
0.000448904
0.000459893
0.000439267
0.0206924
0.000840828
0.000446716
0.00052542
0.000838693
0.0195594
0.0158261
0.000845698
0.000449093
0.0211822
0.0175625
0.0158295
0.000458033
0.000440758
0.0202135
0.0132683
0.000944922
0.0133847
0.0100948
0.00059372
0.000447294
0.0187038
0.00916868
0.000517231
0.000449872
0.00996211
0.0212365
0.000441202
0.000451124
0.0035215
0.00914486
0.0150663
0.000448042
0.000442471
0.0138445
0.0142288
0.00818834
0.0188632
0.00985839
0.015815
0.00047198
0.00300085
0.0106136
0.019952
0.00043833
0.00044179
0.0211767
0.0080299
0.00043731
0.0159456
0.011238
0.010296
0.00121232
0.00044198
0.000473325
0.000449437
0.00374688
0.000477882
0.000445352
0.000443786
0.0158472
0.000446695
0.000876077
0.000441884
0.0222807
0.000447919
0.0208742
0.000448184
0.000464411
0.00047121
0.00044582
0.0141659
0.0196819
0.000455319
0.000442257
0.0104522
0.0159262
0.000777116
0.0134502
0.000843583
0.0070834
0.0134592
0.000443114
0.00889
0.00953329
0.000801342
0.000445692
0.000532295
0.0163344
0.0187794
0.02139
0.0080811
0.000500852
0.0198232
0.00999249
0.000565854
0.000445158
0.00116466
0.000437472
0.0123955
0.0105945
0.00221597
0.000449594
0.000451681
0.000648473
0.000458541
0.00824785
0.0106676
0.0213879
0.000451007
0.000610635
0.0164903
0.0108851
0.0156241
0.0209932
0.010059
0.000446084
0.000441735
0.0178463
0.0156477
0.0198274
0.0159386
0.00843278
0.000444788
0.000513689
0.000457632
0.0187726
0.000474599
0.000480406
0.000452373
0.000614571
0.000501824
0.0223324
0.000499763
0.00921549
0.0264265
0.0210995
0.000442852
0.0158146
0.00044813
0.00134454
0.00045919
0.000780003
0.0004506
0.011495
0.000529262
0.000441147
0.000447657
0.0103646
0.000450877
0.000482891
0.000456972
0.000546187
0.000445675
0.00508053
0.000443628
0.000453461
0.000475993
0.000452238
0.0151714
0.000437325
0.00845644
0.017849
0.0102952
0.000840771
0.000464348
0.000452251
0.0198794
0.0190515
0.000484064
0.000457004
0.000444609
0.000447312
0.000448694
0.00093025
0.0133517
0.0112598
0.000454918
0.0102341
0.0195657
0.00045739
0.00084316
0.0212397
0.000444419
0.000473074
0.00675043
0.0153524
0.000469805
0.000983369
0.000441211
0.0110379
0.000453681
0.0141909
0.0159981
0.000443608
0.000516185
0.00044135
0.00800948
0.00971563
0.0213384
0.000447437
0.000440859
0.00866742
0.000439833
0.000452003
0.00087186
0.0127363
0.0105303
0.0187692
0.0155124
0.000440749
0.000457792
0.0163824
0.0159847
0.000440815
0.0114239
0.000457916
0.000508953
0.000453702
0.000443258
0.000438237
0.000631557
0.000471556
0.02115
0.000530732
0.00603615
0.000867306
0.00806986
0.00114896
0.000480311
0.0158954
0.000448065
0.000472857
0.000496532
0.0160324
0.00549376
0.000662193
0.013905
0.013181
0.000518695
0.000474006
0.0159968
0.000445195
0.0133994
0.000445062
0.0200038
0.000455435
0.000474576
0.00295799
0.000521749
0.000845323
0.00045148
0.0134426
0.0211859
0.000447801
0.000481072
0.00272764
0.000442219
0.00044962
0.000647505
0.000449048
0.000448032
0.00047894
0.0044625
0.0200834
0.0177434
0.000443136
0.000475558
0.000506868
0.000446282
0.000589309
0.000482443
0.000586114
0.016035
0.000611651
0.000454365
0.00044794
0.000782382
0.0244508
0.0153679
0.000476273
0.00195868
0.013043
0.0103242
0.00045044
0.00436403
0.0228967
0.000440532
0.0199347
0.0160345
0.000850951
0.00044776
0.000586978
0.000583983
0.000478797
0.000439443
0.000477905
0.000443975
0.0117909
0.00101793
0.000469499
0.000807316
0.000468218
0.012168
0.000477183
0.000468364
0.00048179
0.000451532
0.000599989
0.000457539
0.000440454
0.0160094
0.0124267
0.000463085
0.0160075
0.0180138
0.0151324
0.000450935
0.000479445
0.0214048
0.0261791
0.000460894
0.010335
0.000440109
0.000506797
0.00759093
0.000462828
0.00947849
0.0174471
0.000472653
0.000808075
0.0204425
0.000445598
0.00055753
0.000440973
0.00129183
0.0249646
0.00462212
0.00356455
0.0102799
0.00209103
0.000618814
0.000445337
0.000603616
0.00160478
0.00841167
0.000509019
0.00062718
0.000442917
0.000480745
0.00158201
0.0168682
0.00044921
0.000458365
0.00047915
0.000447579
0.000471071
0.000483568
0.000784464
0.000477241
0.0231492
0.00745306
0.00887927
0.000499204
0.00724747
0.000452139
0.000450623
0.000841701
0.0191571
0.000441771
0.0101694
0.0186706
0.0186623
0.000445404
0.000450114
0.000521704
0.000629027
0.0190291
0.00975618
0.00517297
0.0173844
0.000481936
0.0152201
0.00598648
0.000464724
0.000518531
0.00149327
0.000477636
0.0166649
0.000439083
0.000875397
0.000477572
0.00052446
0.00881309
0.000502351
0.0151407
0.000152002
0.0249105
0.000479315
0.0145109
0.00181527
0.000447797
0.0204011
0.0197639
0.000440026
0.00519261
0.000863989
0.000598006
0.0112095
0.000491044
0.000443451
0.00478041
0.000447957
0.000567977
0.0109583
0.00162134
0.000520613
0.000670436
0.000461616
0.0202855
0.000462578
0.000609668
0.0181062
0.000507699
0.0101943
0.000451409
0.0200402
0.0264416
0.000458008
0.00045828
0.000437686
0.00252813
0.0101746
0.000463927
0.000484881
0.000476686
0.000475997
0.00875139
0.000444587
0.000468192
0.000449852
0.000478198
0.000442003