/*--------------------------------*- C++ -*----------------------------------*\
| =========                 |                                                 |
| \\      /  F ield         | OpenFOAM: The Open Source CFD Toolbox           |
|  \\    /   O peration     | Version:  v2012                                 |
|   \\  /    A nd           | Website:  www.openfoam.com                      |
|    \\/     M anipulation  |                                                 |
\*---------------------------------------------------------------------------*/
FoamFile
{
    version     2.0;
    format      ascii;
    class       surfaceScalarField;
    location    "50";
    object      phi;
}
// * * * * * * * * * * * * * * * * * * * * * * * * * * * * * * * * * * * * * //

dimensions      [0 3 -1 0 0 0 0];
oriented        oriented;


internalField   nonuniform List<scalar> 
20392
(
0.196167
-0.11653
-0.079637
-0.532426
0.441788
0.0906375
0.242044
0.0711602
-0.313204
0.300386
0.179004
-0.479389
0.0788241
0.00155671
-0.0803808
0.0107552
-0.420632
0.409877
-0.00101408
0.0187181
-0.017704
0.554346
-0.391323
-0.163023
-0.0956269
0.178755
-0.0831284
-0.153027
0.453412
0.458879
-0.448124
-0.257606
0.309075
-0.0514693
0.314776
-0.0727322
-0.127742
0.216849
-0.0891065
-0.242017
0.464719
-0.222703
0.0703679
-0.19811
-0.184548
-0.310788
0.495336
-0.582903
0.590353
-0.00745016
0.390426
-0.680228
0.289802
0.651261
-0.488298
-0.162963
0.0069712
-0.0450399
0.0380687
0.042507
-0.00315836
-0.0393486
0.260943
-0.641846
0.380903
-0.319751
0.0794721
0.240279
-0.267479
0.222555
0.0449243
0.665923
-0.517707
-0.148216
-0.0924828
-0.313049
0.405532
-0.21004
0.210064
-2.37118e-05
-0.0364914
0.0390421
-0.00255068
-0.0297761
0.0343099
-0.00453375
0.170123
-0.584756
0.414632
-0.388835
0.52611
-0.137275
0.0421829
-0.13781
0.132889
-0.374906
0.551166
-0.302378
-0.248788
-0.00382204
-0.0166188
0.0204408
0.0731921
-0.0690101
-0.00418196
0.474731
-0.288536
-0.186195
0.212072
0.339094
-0.0189691
0.000651464
0.0183176
-0.127431
0.516502
-0.389072
-0.145898
0.0355198
0.110378
0.727216
-0.536209
-0.191007
-0.0381271
0.0425942
-0.00446702
0.0679881
-0.501644
0.433656
0.434519
0.292697
0.581223
-0.405324
-0.175899
-0.618438
0.236287
0.382151
-0.155454
0.242036
-0.086582
0.0348819
0.304034
-0.338916
-0.296155
-0.023596
0.565716
-0.497728
-0.018671
-0.00346819
0.0221392
0.580669
-0.466877
-0.113792
-0.0773089
-0.317566
0.394875
-0.0193264
0.0183124
0.00462714
-0.0264903
0.0218632
-0.258051
0.249618
0.00843269
0.178681
0.387036
0.0779625
0.106704
-0.184667
-0.507132
0.118297
0.126518
-0.0132943
-0.113224
-0.0731816
-0.440134
0.513316
-0.285713
0.546656
0.053138
0.117292
-0.17043
0.503513
-0.157305
-0.346208
0.194824
-0.282739
0.0879152
0.419621
-0.395933
-0.0236879
0.00106467
-0.0197357
0.143231
0.0529365
-0.30449
0.24928
0.0552103
0.0184915
-0.30012
0.281629
0.449839
-0.357045
-0.0927938
0.0831227
-0.0159914
-0.0671314
-0.481036
0.326432
0.154604
0.00428134
0.0460099
-0.0502913
0.642108
-0.475445
-0.166663
0.105185
-0.577617
0.472432
-0.0169466
-0.00202246
-0.455661
-0.0767654
0.0959902
-0.113066
0.0170756
-0.0492321
-0.255258
0.243074
0.0782701
-0.321345
-0.232966
0.649606
-0.41664
0.0579944
-0.0634323
0.00543788
0.621682
-0.52545
-0.0962315
-0.301103
0.0853792
0.215724
0.299822
-0.104998
0.011083
0.043067
-0.0541501
0.182999
-0.129861
-0.0456832
0.405819
-0.360136
0.110728
-0.0147374
0.0370865
0.421793
0.24716
-0.431708
0.292541
-0.36985
-0.00188306
0.0702935
-0.0684104
0.00631642
-0.00574893
-0.000567494
0.351756
-0.108681
0.0131389
-0.00387174
-0.00926719
-0.215249
0.614474
-0.399225
0.324414
-0.488652
0.164238
0.00440819
0.082261
-0.0866692
0.295576
-0.388058
0.166301
-0.16818
0.00187909
0.443815
-0.406729
0.554052
-0.212098
-0.341954
0.324504
-0.370188
0.15523
-0.160054
0.00482347
0.570028
-0.464844
-0.0294291
-0.000346974
0.205218
0.269512
-0.182464
0.328392
-0.145928
0.0229337
-0.0244412
0.00150753
-0.14092
-0.26955
0.410469
0.13274
-0.20724
0.0745002
0.372582
0.0470382
0.302206
0.339903
0.0406428
-0.298249
-0.209894
0.19088
0.0190138
0.334298
-0.299416
-0.208517
-0.302312
0.510829
-0.520785
0.396627
0.124158
-0.554871
-0.0261155
0.580987
0.648507
-0.134213
-0.514294
-0.613869
0.0439207
0.569948
-0.0284123
-0.00807916
-0.415822
-0.104963
-0.502294
0.374863
0.496348
0.152159
-0.116407
0.1066
0.00980677
0.191145
0.390078
-0.0626908
-0.238413
-0.0731435
-0.107847
0.180991
0.00457475
0.00856418
-0.151731
0.00583327
-0.0473992
0.00927209
-0.0288347
0.0250127
-0.177271
0.104127
-0.411761
0.5597
-0.147939
-0.103196
0.575543
-0.472347
-0.00629625
0.0348317
-0.0285354
0.292554
-0.599096
0.306542
-0.284549
-0.272153
0.556702
-0.00428968
0.312844
-0.428713
0.11587
-0.148861
0.60306
-0.454199
-0.0558915
0.0669746
0.0217178
0.00121593
0.0833554
-0.000232666
0.0264132
-0.0290701
0.00265699
-0.353447
0.646001
-0.0015827
0.0290488
-0.0274661
-0.557831
0.0029603
0.313791
-0.2953
0.0330302
-0.0389783
0.00594814
0.201155
0.352896
-0.102402
0.10681
0.557015
0.0471308
-0.604146
0.423054
-0.496236
0.13088
-0.45269
0.32181
0.349441
-0.328811
-0.0206295
-0.0174956
0.461311
-0.141166
-0.408663
0.549829
0.143852
-0.56445
0.420599
-0.372762
-0.231733
0.604495
-0.249991
0.0044586
0.245533
-0.0270146
0.520536
-0.493521
-0.509251
0.430084
0.0791675
-0.0395235
0.0359032
0.00362037
0.0488979
0.508117
0.126904
-0.451187
0.324284
-0.410156
0.392661
-0.0360234
0.0406506
0.0497938
-0.000985175
-0.0488086
-0.204545
-0.191388
-0.00459466
-0.245397
-0.145927
0.013372
0.132556
0.0134525
-0.0635135
-0.146527
-0.0136336
0.0732255
-0.0595919
0.0348457
0.227557
-0.262403
0.333741
-0.371494
0.0377527
0.00986562
-0.155793
-0.0016651
0.00314939
-0.00148429
0.228043
0.086733
-0.49077
0.387574
0.536935
-0.398736
-0.138199
0.584904
-0.621766
0.0368625
0.0063673
-0.0152234
0.00885615
0.0539661
-0.4941
-0.0269113
0.105735
0.0284697
-0.128333
0.0998635
0.292788
-0.397001
0.104213
0.301358
0.0480823
0.15468
0.467002
0.568489
0.0164142
-0.0650463
-0.144848
0.171351
0.127707
-0.299058
-0.0639796
-0.140138
0.204118
-0.303866
0.0037459
-0.0205596
0.0282452
-0.00768565
-0.100769
-0.00666581
0.039696
-0.0194605
-0.0099265
0.029387
-0.148849
0.538767
-0.389918
0.349119
-0.121276
-0.227844
-0.150583
0.149111
0.00147193
0.00842509
0.064767
0.168288
-0.614666
0.446377
-0.539512
-0.0743562
-0.268915
-0.212121
0.334088
-0.248709
-0.23676
-0.0212912
-0.503753
0.510585
-0.00683226
-0.0255146
0.00216701
0.0233476
-0.48951
0.198712
0.290798
0.375206
-0.0738474
0.00960398
-0.0290645
0.498727
-0.580623
0.0818962
-0.517587
0.233039
0.587495
-0.419207
0.0268076
-0.0331039
-0.113388
0.148908
0.277446
-0.242601
-0.104272
-0.30608
0.410352
0.064838
-0.0917493
-0.00277196
0.00197182
0.000800144
0.476534
0.0806231
-0.557157
0.29224
0.37143
0.165505
-0.427695
0.323423
0.00479178
-0.00199249
-0.00279929
0.119123
-0.51679
0.397667
0.393137
0.272785
-0.095176
-0.376636
0.471812
0.543964
-0.577577
0.033613
0.103919
-0.117154
0.0132355
0.341975
-0.480602
0.138627
-0.000576112
-0.108415
0.108991
0.196461
-0.608222
0.207642
-0.0644112
0.557587
-0.387464
0.181934
0.476209
-0.134234
0.00871328
0.466837
-0.475551
0.428218
-0.455233
-0.35258
0.56603
-0.21345
-0.0404518
-0.463301
0.109748
-0.0812781
0.115346
-0.00519147
-0.490359
-0.0188921
0.0201636
-0.472953
0.45279
-0.058682
-0.0193845
0.0780665
-0.0380651
0.150062
-0.111997
0.555569
-0.132514
0.121288
-0.549477
0.428189
0.0494984
0.000295357
-0.00927966
-0.153253
0.162532
-0.162804
0.661531
0.414226
0.151909
-0.566134
-0.0142847
-0.0112299
0.0742861
-0.0250682
-0.0492179
-0.290427
0.00189118
-0.0623112
-0.214135
0.276446
-0.561282
0.402823
0.158459
-0.114993
0.658957
0.431469
-0.58033
0.159025
0.0127871
-0.171812
0.0430988
-0.000591816
0.12461
0.329498
-0.454108
-0.370241
0.548922
-0.333735
0.309571
0.0241644
0.0299799
-0.0230087
0.00142883
0.00488759
-0.322445
-0.295993
-0.0171796
0.0184667
-0.00128712
-0.363977
0.483483
-0.233248
-0.0342307
-0.0431397
0.0462954
-0.00315573
0.482781
-0.186045
-0.296736
-0.27547
0.598588
-0.000721456
0.00551323
0.000767859
-0.0207834
0.0200155
0.293838
0.0813677
-0.361951
0.244202
0.11775
-0.355429
0.480039
-0.00261025
0.122609
-0.119999
0.111062
-0.293526
0.587696
-0.17347
0.0239164
-0.0175491
-0.0599327
0.124771
0.141572
-0.150851
0.32606
0.00768082
-0.243067
0.262851
-0.0197845
0.0204494
0.0538367
0.00406081
-0.0730709
-0.55051
0.587975
-0.0374651
-0.375066
0.0575001
0.140536
0.0671055
0.285909
-0.534125
0.248216
0.0620552
0.117152
-0.117728
-0.0825154
0.0682729
0.0142425
-0.362176
0.277068
0.0851079
0.190381
-0.112419
-0.071721
0.011816
0.059905
-4.0913e-05
-0.563422
0.101583
0.461839
0.0836961
-0.0981624
0.0144663
0.0503163
-0.524255
0.473939
-0.576218
0.094426
0.481792
0.198824
-0.239782
0.0409586
0.416993
-0.133653
-0.283341
-0.199312
0.135333
0.286997
-0.115646
-0.503108
0.150527
0.147023
0.00820724
-0.07987
-0.1084
0.333287
0.317974
0.518833
-0.0550944
-0.463739
-0.48067
-0.298828
-0.063348
0.375836
0.127677
0.0879941
0.361845
0.0671787
-0.319068
0.251889
0.0261012
0.00154085
-0.027642
0.0567368
0.462096
-0.460661
0.636131
-0.17547
-0.0564703
-0.0136551
0.0701253
-0.0333522
0.0362923
-0.00294006
-0.291643
-0.0738036
0.365447
0.616987
-0.42501
-0.191977
-0.00508281
0.00101184
0.00407097
0.272366
0.0608456
-0.333211
-0.502836
0.353987
0.000793729
-0.00337652
0.00258279
0.388066
0.16628
0.00179644
-0.022356
-0.285638
0.275538
0.0100998
-0.718182
0.371204
0.346978
-0.031449
0.0822623
0.00147776
-0.00656057
0.16195
0.147125
-0.115768
0.535163
-0.419395
-0.164563
-0.0701286
0.234691
0.255174
-0.0563501
0.150151
0.0927388
-0.242889
0.0320684
0.385267
-0.417336
-0.481042
0.22939
0.251652
-0.151176
-0.182559
-0.031056
0.0117745
0.0192816
0.482998
-0.276294
-0.206703
-0.131359
0.607893
0.0636184
-0.219073
0.152211
0.0898256
0.240188
-0.434412
0.194223
0.390609
-0.520932
0.130322
-0.13221
-0.10455
-0.092812
0.483239
0.0381385
0.326731
-0.364869
0.43422
-0.582419
0.148198
0.174282
-0.0415419
0.0701214
-0.0685647
0.420107
-0.535875
-0.648629
0.275866
0.181572
-0.577889
0.396318
0.204997
-0.0982922
-0.554127
-0.330866
0.45777
-0.158938
-0.144928
0.0694281
-0.587135
-0.521543
-0.0613598
0.124037
-0.141885
0.0178484
0.171686
-0.371884
0.200198
0.133541
0.298911
-0.432452
-0.430985
0.574836
-0.138899
0.419106
-0.280207
0.00427545
0.020322
-0.0245975
0.389017
-0.525823
0.136806
-0.620668
0.248906
0.371762
0.231379
-0.602379
0.371
0.170829
0.370197
-0.541026
-0.12644
-0.235511
-0.276762
-0.0756227
0.352385
-0.521282
-0.061245
0.029796
-0.226149
0.297559
-0.0714107
0.0113075
0.0215123
-0.0328198
-0.0727214
-0.0701522
0.142874
0.321039
-0.533137
0.477993
-0.445925
0.294988
-0.433887
-0.447408
0.00231738
0.0178158
-0.0201332
-0.571494
0.460806
0.110688
0.104866
-0.435007
0.330141
0.357169
-0.313732
-0.043437
-0.0424552
-0.0656992
0.108154
-0.202245
0.618168
-0.415923
0.0699423
-0.234505
-0.217078
0.388764
0.0663779
0.16674
-0.233118
0.133065
-0.135675
-0.379182
-0.301046
0.00387463
-0.00164934
-0.00222529
-0.00363687
0.0368163
-0.0331795
0.431641
-0.393502
-0.128125
0.0328509
0.095274
0.335295
-0.115793
-0.219502
0.469769
-0.461056
-0.0617338
-0.0663911
0.204196
0.278584
-0.493969
0.422126
0.0718426
0.151193
0.428716
-0.579909
-0.00255782
-0.000214146
-0.0365464
0.0408218
0.366333
-0.073792
-0.00859485
-0.0158464
-0.0300484
0.0284657
0.324153
0.169031
-0.493183
-0.288269
0.0550202
-0.032265
-0.296059
0.240378
0.0556819
0.210873
-0.394702
0.183829
-0.0937992
0.386587
0.124196
-0.562829
0.438633
0.369305
-0.158431
-0.431858
0.629263
-0.197405
0.0140322
0.343137
0.0681003
-0.175948
-0.182717
-0.41773
-0.143552
0.373409
-0.323092
-0.152503
0.404988
-0.252485
0.196584
0.286413
0.180416
-0.511282
0.000526345
-0.0136328
0.0131065
-0.179538
0.244445
-0.0649074
0.241882
0.0719093
0.334965
0.0820281
-0.00252362
0.106442
0.0962658
-0.228476
0.0993591
0.0230372
-0.00131945
-0.0177955
0.0185633
0.198294
0.115674
-0.313968
-0.404614
0.35095
0.0536637
-0.0577746
-0.128328
-0.365641
0.0592456
0.123754
-0.155859
0.0395645
0.116295
0.511401
-0.0660676
-0.445333
0.389784
-0.62275
0.537208
-0.0504658
-0.486742
-0.0467793
-0.0199379
0.36291
-0.132654
-0.007986
-0.0370539
-0.0405053
0.0368684
0.496525
0.153081
0.0743196
-0.40941
0.33509
0.0139899
-0.568696
0.0275593
-0.00145817
0.233974
0.100114
0.0529871
0.281311
0.189805
-0.252116
0.200248
-0.132148
-0.0326307
-0.00555838
0.038189
-0.0603076
0.282862
-0.0413678
0.00873718
-0.165706
0.533439
-0.367733
-0.326845
0.185925
0.102068
-0.590366
0.182564
-0.0420275
-0.329063
0.0777473
0.251315
0.0154732
0.117592
0.0776841
0.203286
-0.28097
0.44172
-0.106755
-0.489894
0.0202584
0.469636
0.324032
-0.24456
-0.463795
0.232704
0.23109
-0.267756
0.524152
-0.256396
-0.139642
-0.598129
0.179346
0.418783
0.453132
-0.322252
0.323223
-0.460342
0.137119
0.38463
-0.186336
-0.015919
-0.00024451
0.0161635
-0.489145
0.509308
-0.520511
0.429477
0.0910339
-0.338305
0.0761823
0.262122
-0.2739
0.407441
0.0442579
-0.0509237
-0.00434864
-0.00514863
0.00949727
0.00714653
0.0499941
-0.0571406
0.401329
-0.0320247
0.416421
-0.0142838
-0.262478
-0.0239024
0.365934
-0.342031
0.403375
0.116226
-0.519602
-0.270081
0.151904
0.118177
0.440286
0.174188
0.000722649
0.0474592
-0.0481819
-0.381375
-0.191988
0.573364
0.177332
-0.552423
0.375091
-0.0259322
0.0148095
0.0111227
0.343856
-0.132995
-0.21086
0.211319
0.379034
-0.273252
-0.20779
-0.0763206
0.0834672
-0.230086
0.074182
0.155904
0.111592
0.232264
-0.274558
0.211867
0.436336
0.143918
-0.580255
-0.0187037
-0.0638117
-0.504368
0.0144733
0.00331532
-0.486448
0.120638
0.36581
-0.45376
0.186004
-0.366875
0.56803
0.0193572
-0.0188308
-0.295448
0.224447
0.0710011
0.465657
-0.232953
0.0714906
-0.122934
0.0514436
-0.0346149
0.00126272
0.21607
-0.52215
-0.0696331
-0.160453
0.336738
0.104983
0.388222
-0.323506
-0.064716
-0.363189
0.0715456
0.0119011
0.0218045
-0.0337056
-0.000459666
0.0191777
0.112322
0.110845
-0.223167
0.126507
-0.0550164
-0.0457643
-0.0599525
0.105717
0.510545
-0.0903957
-0.420149
-0.00318244
-0.0640097
0.0671921
-0.211626
0.28931
0.341383
0.155836
-0.497219
0.00629045
0.027822
-0.0341124
-0.00223654
0.0370682
0.41393
-0.223778
-0.190152
-0.109544
-0.30555
0.415093
-0.00705315
0.0339169
-0.0268638
0.339982
-0.206708
-0.133274
0.510099
-0.186876
0.0499925
-0.0286402
-0.0213523
0.12171
0.0608541
0.00696896
-0.0539419
0.046973
-0.292551
0.472967
0.00851648
-0.0649868
0.0717671
-0.211905
-0.0188077
0.0028887
0.597666
-0.0291766
-0.12794
0.389409
-0.261469
0.0386005
-0.0810557
0.0390977
0.362232
0.243176
0.0321465
-0.275323
-0.437155
0.00386096
-0.203982
0.474859
-0.270877
-0.426424
0.428165
-0.421021
-0.0071434
0.502121
-0.410589
-0.0915324
-0.00444192
-0.09796
-0.0835561
-0.0737017
-0.23364
0.307342
-0.178042
0.287331
-0.109289
0.42589
-0.185701
-0.369581
-0.00550467
0.0319178
0.0332962
0.133005
-0.0508596
-0.244588
-0.0553958
-0.00119536
0.0565911
0.301484
-0.092714
-0.20877
-0.0254984
0.0317888
0.192787
0.147195
0.439112
-0.364792
0.0968822
0.0538333
0.1906
0.312443
-0.115904
-0.196539
-0.0064626
0.00211396
0.364694
-0.311707
-0.000644194
0.000836948
-0.000192753
-0.387975
0.0939101
0.205912
-0.0353008
0.153599
0.101574
-0.0247969
0.0273299
-0.00253298
0.0420431
-0.268192
-0.171545
0.387615
0.424943
-0.104803
-0.32014
-0.084263
0.0997361
0.00214513
-0.00381023
-0.116208
0.512835
0.0511977
-0.0304947
-0.0207031
0.0844503
-0.0604071
-0.0240432
0.38652
-0.402803
0.0162822
-0.00354697
0.00098915
0.148912
0.334242
-0.483154
-0.0568551
0.063824
-0.0730282
0.0698457
-0.00589738
-0.0272939
0.338117
-0.433293
-0.147201
0.564745
-0.417544
0.431507
-0.341156
-0.0903512
0.467488
-0.268776
0.0956001
-0.527458
0.207498
0.206432
-0.214039
0.341747
-0.149437
-0.221033
0.37047
0.073036
0.127212
-0.131494
-0.00818193
0.0961719
0.0942585
-0.19043
-0.0173782
0.0269822
0.0967839
-0.563422
-0.0470541
-0.238584
-0.564179
0.155516
0.143933
-0.495022
0.351089
0.00219532
0.00129501
-0.00349033
-0.440222
0.421529
0.0186929
-0.00983163
-0.0344718
0.0443035
-0.493449
0.112074
0.365488
-0.501632
0.136143
-0.0867551
0.598156
0.583697
-0.259193
0.0603217
0.0788095
-0.139131
-0.0935329
-0.0148822
-0.142233
0.146491
-0.00425817
0.179134
-0.119888
0.0244941
0.541395
0.236622
0.347075
-0.159615
0.485621
-0.326007
-0.00902037
-0.409326
-0.116498
0.00176534
-0.0265622
0.01545
0.0127953
0.0515013
-0.0396002
-0.17438
-0.0614793
0.0521664
0.0093129
0.352662
0.149459
-0.063917
0.222942
-0.407649
0.0946001
0.185103
0.116381
0.00885439
-0.0547278
0.0458734
-0.364734
0.215297
0.00270457
0.000444823
-0.0243201
-0.117913
-0.0762583
0.348624
0.0500719
0.159992
0.336158
0.16607
-0.502228
0.000587002
0.116565
0.00213778
-0.00184537
-0.000292411
0.000746228
0.00139155
-0.160094
0.481172
-0.321078
-0.110295
0.105853
-0.0475484
-0.0119301
0.0594785
0.0749468
-0.00465334
-0.00086813
-0.0184583
-0.0496727
0.0416867
0.054925
-0.00891502
0.23648
-0.089799
-0.146681
-0.342331
0.491243
0.210317
-0.0979944
-0.172322
0.0249133
0.147408
0.212248
0.100195
0.484748
-0.11926
-0.387563
-0.167253
0.554816
0.574424
-0.0372157
0.514494
-0.296851
-0.217644
0.0917653
0.0211121
-0.112877
0.336261
-0.202949
-0.133312
-0.0509805
0.0132076
0.0377729
-0.000677159
0.00312734
-0.00245018
0.103027
-0.523825
0.420798
-0.366384
0.566247
-0.199863
0.0240768
-0.0186795
-0.00539729
0.0626583
0.021792
-0.094027
0.288112
-0.194085
-0.432291
0.318439
0.113852
-0.00489531
-0.000853624
0.438586
0.0743416
0.29437
0.137138
0.0388758
0.197604
-0.00896821
-0.163353
0.0487767
-0.0045188
0.41726
0.170236
-0.397138
-0.321045
0.0113882
0.0398095
-0.49398
0.363928
0.130052
0.026106
0.00284488
-0.0289509
0.473047
0.124618
0.0273019
-0.034355
-0.177199
-0.0928817
-0.118096
-0.322126
0.540765
-0.416569
0.508487
-0.0998324
-0.408654
0.471398
0.145589
-0.00116435
0.0272704
0.0107428
-0.144468
0.464167
-0.319699
0.105936
-0.0152976
-0.0906382
-0.0679249
0.606949
-0.247874
0.459945
-0.0776481
-0.0984492
0.176097
0.133463
-0.00883814
-0.0744542
0.0832923
-0.509089
0.628014
-0.118925
0.488187
0.203745
-0.292934
0.244189
-0.0177609
-0.000163582
0.0179245
0.542709
-0.31332
-0.0263582
-0.382399
-0.0467452
0.429145
-0.0768025
-0.0790569
-0.45821
0.170535
0.287674
-0.487724
-0.132943
-0.0136328
-0.525117
0.359412
-0.164211
0.162636
0.00157525
0.499572
-0.15819
0.00819919
-0.0686063
-0.349028
0.325126
0.0986723
-0.0661478
0.00486474
0.0612831
-0.0363706
0.0635886
-0.027218
-0.119399
0.215571
-0.0486344
-0.278036
-0.0148977
0.123711
-0.0011014
0.331588
-0.0976132
0.0823064
0.241726
-0.404768
0.517161
-0.112393
-0.560046
0.373044
0.187002
0.463489
-0.344366
-0.0577974
-0.110383
0.0697162
-0.545161
0.000600383
0.0210427
-0.0216431
-0.300157
-0.0381475
-0.181849
0.587431
-0.405582
0.309569
0.0387906
-0.34836
0.352469
-0.0754005
0.532487
-0.393783
-0.138704
0.284148
0.121106
-0.346132
0.119995
-0.232257
0.112262
0.00515996
0.022943
-0.0281029
-0.346421
0.490354
0.518955
-0.415928
-0.168055
-0.203439
-0.00407877
-0.0354448
-0.392783
-0.191525
0.584308
-0.0716315
-0.499862
-0.125518
0.561854
0.128627
-0.00458982
-0.337676
0.381902
-0.0442254
-0.0480751
-0.0134041
0.403524
-0.0392176
-0.0117628
0.000695014
0.0241426
-0.0248376
0.300295
0.127869
-0.0717435
0.0130615
0.0911998
-0.492762
0.401562
0.0561354
-0.0368102
-0.0193252
0.546502
-0.155893
0.307427
-0.277196
-0.0302307
-0.510878
0.144494
-0.00161986
0.109493
0.0132196
0.0933807
0.0412873
0.0514823
-0.0895474
0.304909
-0.580379
-0.528371
0.0267269
-0.174278
0.478242
-0.303964
0.0114422
-0.00758125
0.527939
-0.43674
-0.245114
0.0585036
0.186611
0.556514
-0.153691
0.0191424
-0.445731
-0.124095
0.569826
-0.134164
-0.338842
0.473006
-0.0223736
0.024691
-0.478289
0.441441
0.0368475
0.0273164
-0.0480297
-0.430259
0.557887
-0.387058
-0.423013
0.563165
-0.140151
-0.00356536
1.83939e-05
-0.007485
-0.120848
0.000390542
-0.0175702
0.201258
-0.0637454
-0.137512
-0.000380332
-0.053471
0.0398374
0.0152055
0.618699
-0.398594
-0.220104
-0.0190135
-0.0120426
-0.480639
0.12521
0.0163735
0.0989724
0.279146
0.350116
0.560602
-0.37903
-0.0577227
-0.111949
0.0176437
-0.197181
0.413663
-0.312079
-0.0928731
0.0301857
0.0626874
0.101987
0.0992712
0.0864958
-0.497478
0.410982
-0.00469236
0.03048
-0.0257876
0.223659
0.166107
-0.389766
-0.0154819
0.0206419
-0.0945429
0.113379
-0.0188362
-0.550282
0.398277
0.152006
0.433234
-0.151014
-0.28222
-0.426128
-0.123349
0.165984
0.15277
-0.0869984
-0.0657713
0.17633
-0.163543
-0.539519
0.00709481
0.532425
-0.386036
-0.140043
0.52608
0.494986
-0.40849
-0.266366
0.0949367
0.17143
0.0591438
0.0155981
-0.0747419
-0.0347976
-0.130448
0.196826
-0.0521496
0.0467023
0.00544734
-0.206084
-0.0766551
0.00220141
0.0673483
-0.449748
-0.00147505
0.0022854
-0.000810354
0.0755044
0.356136
0.329325
0.466561
-0.269977
-0.00322643
0.0391296
0.332463
-0.443202
0.110739
-0.102321
0.055917
0.0916949
-0.147612
0.529433
-0.0338011
-0.495632
-0.303375
0.378807
0.153723
-0.532529
0.00570141
-0.042072
-0.0233735
-0.0483475
0.500734
-0.296537
0.246896
0.371803
-0.0452221
0.0540765
0.531179
-0.147455
-0.383724
-0.0570825
0.45493
-0.397848
-0.383859
0.459521
-0.0756619
-0.461345
0.138957
0.322388
0.0783856
-0.539046
0.406708
0.153382
-0.56009
0.0385154
-0.0923487
-0.431476
-0.122461
0.195497
-0.0216786
0.244366
0.0872221
0.00389466
-2.0029e-05
-0.296101
0.225345
0.0707566
-0.0113734
-0.152838
0.0403727
0.108738
-0.0456906
-0.228867
0.0724519
0.000773618
0.412859
-0.0833605
-0.383547
0.139632
0.243915
-0.087181
-0.489509
0.368825
0.120683
-0.304544
0.00173254
0.111948
-0.11368
0.341883
0.168703
-0.456399
-0.128356
-0.0535978
0.25396
-0.200362
-0.107525
0.549313
0.0168207
-0.00139483
-0.38878
-0.0174105
0.406191
0.270649
0.0818194
-0.112429
-0.284572
-0.0904456
0.546913
-0.456467
-0.127915
0.436738
-0.308824
-0.0244358
-0.0046343
0.136276
0.330285
0.226418
-0.106423
0.0807791
0.00390972
-0.0846888
0.379539
0.152948
0.347558
0.159872
-0.50743
-0.0484391
-0.0768831
0.0890023
-0.0121192
0.466458
-0.581451
0.494751
-0.340858
-0.153893
-0.0654463
-0.122499
0.187945
-0.259445
-0.124101
-0.0472443
0.0440859
0.273944
-0.386313
0.112369
-0.166851
0.0534627
-0.279623
0.374525
-0.0949018
0.0582804
0.0944893
-0.572486
0.332878
-0.509572
0.176694
-0.156134
-0.380821
0.536955
0.283121
-0.227592
-0.0555288
-0.325947
-0.0561109
0.382058
0.349725
-0.484314
0.134589
0.0682659
0.194586
-0.0562749
-0.0948052
0.376164
-0.201605
-0.174559
-0.0716546
-0.0322753
-0.356505
-0.14536
-0.202449
0.0678896
0.134559
0.592451
-0.163735
-0.0798504
0.0880496
-0.411425
0.301881
0.125335
0.261372
-0.386707
-0.0524952
0.0426636
-0.160217
-0.00447704
0.164694
0.212844
-0.571346
0.392384
0.178961
0.322965
-0.255786
0.0789372
-0.512347
0.433409
-0.111834
0.000468514
0.111365
0.0449735
-0.0678709
0.0228974
-0.427599
0.108947
0.318651
-0.493406
0.360395
0.13301
-0.145269
-0.194149
0.339418
-0.283679
0.122182
0.161497
0.109868
0.218524
0.0351952
-0.571404
0.0385359
-0.0170236
0.11562
0.412552
-0.528172
-0.00463887
-0.0426054
-0.326032
-0.126658
-0.113456
-0.0359893
0.149445
-0.0982563
-0.0397619
-0.446852
0.338715
0.108138
-0.263354
0.24809
0.0152638
-0.0169317
-0.0082035
0.0251352
0.0173787
0.00108808
-0.418541
-0.00406905
0.00554681
0.233463
-0.314444
0.0809807
-0.429692
0.278678
-0.00247775
0.00100271
0.42851
0.249277
-0.47598
0.418898
-0.070285
0.223884
-0.0188038
0.548237
-0.0039164
0.0217322
0.016219
0.0399164
-0.408271
0.375996
-0.190551
-0.271951
0.462502
-0.384831
0.307567
0.0772642
-0.0283763
-0.00283401
0.0312103
0.212504
-0.140737
-0.553201
0.142647
0.410553
0.11059
0.424573
-0.373422
-0.352094
0.374545
-0.0420824
0.278741
-0.396837
-0.110101
0.34807
-0.0651488
-0.587402
0.449092
0.13831
0.448416
0.333502
-0.22244
-0.105725
0.071691
0.0340338
0.556838
-0.141145
-0.415693
-0.0684332
-0.00734921
0.0757824
-0.118886
0.0712943
0.0475917
-0.162794
0.438763
-0.275969
-0.0462814
0.512739
-0.488837
0.326043
0.417938
0.157604
-0.572393
0.413127
0.159266
-0.142104
0.000353736
0.14175
-0.00168402
-0.320398
0.175129
-0.401756
0.00895007
-0.0095756
0.000625529
0.159634
0.21653
0.232261
0.301571
-0.0681081
0.408171
-0.54673
0.138559
-0.080547
-0.216565
0.447944
-0.348973
0.491926
-0.155768
-0.0263281
-0.0871278
-0.1261
0.172416
-0.559979
0.175861
0.0547527
-0.230614
-0.00170785
0.00326546
-0.00155761
-0.428438
-0.134391
-0.0603926
0.233825
-0.173433
0.0654856
-0.490441
0.424956
-0.1478
0.0917015
0.0188579
-0.0182575
-0.00469039
-0.279343
-0.105488
0.0246057
0.0116866
-0.451856
-0.0148193
0.00116202
0.0136573
-0.02677
-0.180869
-0.427276
-0.0128321
0.0177264
-0.00489432
-0.460408
0.385356
0.0750517
-0.00127228
0.0425596
-0.0158977
0.0165868
-0.00068907
-0.2565
0.364495
-0.107995
-0.549571
0.158588
0.390984
-0.0024293
-0.341201
-0.105651
-0.206688
0.187869
0.0188189
-0.00594061
-0.367394
0.373335
-0.601552
0.197214
0.404338
-0.0364651
-0.00255352
-0.277688
-0.467234
-0.0385968
0.505831
-0.251222
0.328969
0.0471527
-0.0517915
-0.111328
0.105058
0.00627078
0.0516431
-0.00494085
-0.414178
-0.240141
0.654319
-0.277583
0.321316
-0.0437331
-0.564778
0.439993
0.124785
0.0961371
-0.352638
-0.387472
0.306126
0.0813457
-0.386527
0.565873
-0.0152909
0.0738567
-0.0585658
0.181846
-0.269242
0.0873966
0.0796688
0.00368662
-0.142309
0.0775211
-0.29156
-0.110612
-0.00360338
0.000226861
0.00563525
-0.00547679
-0.000158459
0.00728447
0.0847163
-0.0920008
0.0988974
-0.51313
0.414233
0.355314
0.139437
-0.536631
-0.0332957
0.569927
-0.00453394
-0.027247
0.0317809
-0.0429829
0.275792
-0.341699
0.450647
0.0678184
0.149452
-0.217271
-0.084205
0.00536748
0.0788375
-0.0639675
0.281349
-0.217382
-0.405768
0.289243
0.116525
-0.570613
0.447595
0.123018
0.107079
0.301001
-0.40808
-0.0389073
-0.460105
0.499012
-0.419501
0.518398
-0.331888
-0.398885
0.547909
-0.149024
0.154411
0.28703
0.400257
0.130922
-0.227215
-0.161598
0.388813
-0.363917
0.484556
0.0637331
0.259232
-0.0345592
-0.333754
0.368313
-0.139051
-0.0327613
-0.421167
0.617319
-0.196152
0.0385821
-0.489496
-0.0754826
0.564978
0.0974932
0.00844252
0.375939
0.144007
-0.486338
-0.128859
-0.021599
0.00291957
-0.452166
0.191556
0.419453
-0.61101
-0.0416538
-0.0826543
0.124308
0.0447795
-0.071404
-0.250211
0.321615
0.00398642
-0.0618509
0.0928153
-0.454558
0.264007
-0.0364187
-0.472671
0.537149
-0.359817
0.393349
0.42447
-0.288194
0.121661
-0.348877
0.141642
-0.328455
0.186813
-0.230782
-0.193175
0.423957
0.00286788
-0.00693694
-0.00440498
-0.0361003
0.239117
-0.0889668
-0.126145
-0.249165
0.195567
0.111414
-0.0196486
-0.0465811
0.297835
0.203349
-0.501184
-0.00492207
-0.359715
0.0821323
-0.130532
0.550527
-0.142356
0.0493119
0.445674
0.389468
0.161059
-0.0190826
-0.406719
-0.143563
-0.210636
0.00355312
-0.00423027
-0.40115
-0.00346372
-0.172617
-0.316035
-0.0352407
0.0270372
-0.147409
-0.301356
-0.104412
-0.266927
0.00357359
-0.0769205
-0.224629
-0.335417
0.0110029
-0.0709554
-0.00103243
0.0220751
-0.203351
0.220994
0.402398
0.12866
-0.531058
-0.299467
0.406546
-0.525914
-0.447176
0.0611983
0.385977
-0.00366619
-0.554945
0.423137
0.131807
0.00264167
-0.40119
0.398548
0.433221
-0.27881
0.430102
-0.383064
-0.0550722
-0.23879
0.280833
0.0501547
-0.3282
0.278046
-0.290637
0.220681
0.0699559
0.00144899
0.132082
-0.133531
0.000922967
-0.36931
0.565772
-0.440437
0.554902
-0.114465
-0.253665
0.370799
0.290732
-0.00328189
0.00134654
0.00193535
0.112111
-0.407103
0.294992
0.321954
-0.213757
-0.108196
-0.446366
-0.024604
0.47097
-0.0265798
0.0680469
0.00689988
-0.317191
-0.24064
-0.578186
0.00308173
0.291389
-0.451483
0.00838258
-0.0850815
-0.0720944
-0.393991
0.466086
0.0625921
-0.00797097
-0.0546212
-0.00299272
0.00134338
-0.458935
0.00106234
0.457873
-0.193566
0.563763
-0.521968
0.16153
0.360438
-0.00283666
0.0353745
-0.0325378
0.465099
-0.515565
-0.0171905
0.193521
0.131713
-0.130264
-0.0425474
0.136307
0.337081
-0.0530263
-0.284054
-0.00644758
-0.0028196
0.373356
0.0982275
-0.471584
0.0897306
-0.00895149
0.00297547
-0.00496796
0.0568308
-0.267747
0.210916
-0.100631
0.156548
0.568194
-0.158865
-0.409329
0.0876242
0.342478
-0.0507345
0.0566439
0.197316
0.0877436
-0.0194707
-0.0355444
0.0391344
-0.00358991
-0.329743
0.149795
-0.577015
0.46817
0.108845
0.0311696
-0.368846
0.136734
0.0878688
-0.224603
-0.45223
-0.00670538
-0.518546
0.125763
0.281366
0.219368
-0.441129
-0.110188
-0.35022
-0.552578
0.192784
0.359794
-0.282414
-0.0537587
0.336172
0.539509
-0.509764
-0.0297454
-0.298351
0.43124
-0.00844741
-0.103595
0.112042
-0.00536615
-0.0709545
-0.544095
0.158059
0.144764
-0.483813
-0.00695661
-0.116508
0.117095
0.103274
0.182396
-0.28567
0.269771
0.210857
0.315253
0.00132763
0.378472
-0.40028
0.0218076
-0.180447
0.0821806
0.0235362
-0.499749
0.388083
0.111666
-0.0595476
0.0583522
-0.425902
0.297988
0.31808
-0.00112181
0.0219582
-0.0208364
-0.454316
0.00794943
-0.45456
-0.116053
0.14698
-0.119628
-0.0273514
-0.538277
0.123728
0.414549
0.00525209
-0.0407965
-0.0305264
0.304257
-0.273731
0.182763
-0.27679
-0.139447
0.25104
-0.501597
0.199285
-0.013216
-0.00454496
0.179487
0.293842
-0.473329
0.304458
-0.417431
0.112973
0.354189
0.0259696
-0.0288036
0.0233228
-0.00194361
-0.0213792
-0.0676607
0.0017215
-0.054617
0.0528955
-0.0107069
0.0353126
-0.512629
0.147132
0.365497
0.0460979
0.530712
-0.141245
-0.568376
0.220124
-0.152305
0.432019
-0.153278
-0.0690211
-0.0198461
0.0888672
-0.104613
0.506851
-0.402238
0.421275
-0.418633
0.00839632
0.278934
-0.14022
0.0985665
-0.568165
0.147533
0.0818158
-0.00214699
0.0257268
-0.00158421
-0.328193
0.0457795
-0.180758
-0.390018
0.570775
0.126012
-0.56645
0.0824308
-0.20183
-0.0893793
0.460178
0.528802
-0.157537
-0.371265
0.00506002
-0.0968968
0.0918368
-0.000711477
0.0195694
0.532505
-0.125797
-0.110395
0.388978
0.143527
0.428747
-0.0901032
-0.338644
0.578519
-0.453992
-0.124527
-0.597755
0.424846
0.172909
0.0470812
0.186936
-0.234017
0.118364
-0.126811
-0.130967
0.525437
-0.394471
0.360264
-0.203429
-0.156835
0.305286
-0.409899
-0.12013
0.125332
-0.00520243
0.193454
-0.530206
0.336752
0.00737653
-0.0563961
0.236587
-0.180191
-0.512839
0.153229
0.35961
-0.539314
0.42141
0.117905
-0.0812631
-0.227396
-0.34395
0.395662
0.135051
-0.434663
0.143255
0.291407
-0.279464
0.228683
0.0507805
0.317293
-0.25356