/*--------------------------------*- C++ -*----------------------------------*\
| =========                 |                                                 |
| \\      /  F ield         | OpenFOAM: The Open Source CFD Toolbox           |
|  \\    /   O peration     | Version:  v2012                                 |
|   \\  /    A nd           | Website:  www.openfoam.com                      |
|    \\/     M anipulation  |                                                 |
\*---------------------------------------------------------------------------*/
FoamFile
{
    version     2.0;
    format      ascii;
    class       surfaceScalarField;
    location    "50";
    object      phi_0;
}
// * * * * * * * * * * * * * * * * * * * * * * * * * * * * * * * * * * * * * //

dimensions      [0 3 -1 0 0 0 0];
oriented        oriented;


internalField   nonuniform List<scalar> 
20392
(
0.196122
-0.116512
-0.0796097
-0.532425
0.441789
0.0906357
0.242046
0.0711576
-0.313203
0.300385
0.179002
-0.479387
0.0790252
0.00117581
-0.080201
0.0107624
-0.420637
0.409875
-0.00101391
0.0187199
-0.017706
0.554345
-0.391322
-0.163023
-0.0956262
0.178756
-0.0831301
-0.153026
0.45341
0.458883
-0.44812
-0.257607
0.309075
-0.0514679
0.314775
-0.0727296
-0.128032
0.21665
-0.0886174
-0.242015
0.464717
-0.222702
0.0697917
-0.197824
-0.184713
-0.310694
0.495407
-0.582902
0.590352
-0.00745016
0.390424
-0.680243
0.289819
0.651259
-0.488301
-0.162959
0.00695766
-0.0450452
0.0380876
0.0425074
-0.00315522
-0.0393522
0.260923
-0.641868
0.380945
-0.31975
0.0794712
0.240279
-0.267478
0.222555
0.0449232
0.665924
-0.517708
-0.148216
-0.0924786
-0.31305
0.405529
-0.210035
0.210057
-2.23463e-05
-0.0364934
0.0390452
-0.00255185
-0.0297704
0.0343086
-0.00453815
0.169995
-0.584799
0.414804
-0.388855
0.526121
-0.137266
0.0421843
-0.137811
0.132889
-0.374904
0.551238
-0.301995
-0.249243
-0.00382132
-0.0166196
0.0204409
0.0731946
-0.0690145
-0.00418014
0.474729
-0.288534
-0.186195
0.21134
0.339898
-0.0189716
0.000651472
0.0183201
-0.12743
0.516501
-0.389071
-0.145899
0.0355196
0.110379
0.727215
-0.536208
-0.191007
-0.0381306
0.0425954
-0.00446475
0.0679833
-0.501622
0.433639
0.434519
0.292697
0.58121
-0.40531
-0.1759
-0.618478
0.236331
0.382147
-0.155454
0.242035
-0.0865802
0.0348812
0.304032
-0.338914
-0.296155
-0.0235953
0.565697
-0.497714
-0.018672
-0.00346853
0.0221405
0.580666
-0.466875
-0.113792
-0.0773076
-0.317566
0.394873
-0.0193284
0.0183144
0.00463001
-0.0264929
0.0218629
-0.25805
0.249618
0.00843169
0.178679
0.387018
0.0779579
0.106707
-0.184665
-0.507145
0.11829
0.126517
-0.0132931
-0.113224
-0.0732045
-0.440181
0.513385
-0.285735
0.546658
0.0531366
0.117293
-0.17043
0.50337
-0.156683
-0.346687
0.194824
-0.282738
0.087914
0.419747
-0.395839
-0.0239084
0.00106504
-0.019737
0.143193
0.0529289
-0.304488
0.249279
0.0552092
0.0186639
-0.300082
0.281418
0.449837
-0.357043
-0.0927936
0.0831372
-0.0159901
-0.0671471
-0.481034
0.326432
0.154602
0.00436649
0.0460096
-0.0503761
0.642107
-0.475444
-0.166663
0.10519
-0.577623
0.472433
-0.0169491
-0.00202249
-0.455661
-0.0767641
0.0959891
-0.113066
0.0170769
-0.0492311
-0.255257
0.243064
0.0782583
-0.321322
-0.232967
0.649599
-0.416632
0.0579985
-0.0634348
0.00543629
0.621687
-0.525449
-0.0962381
-0.301132
0.0857084
0.215423
0.299821
-0.104997
0.0110405
0.0431273
-0.0541678
0.182999
-0.129862
-0.0456816
0.405807
-0.360126
0.110728
-0.0147388
0.0370881
0.421795
0.246993
-0.431706
0.292541
-0.369849
-0.00184547
0.0702906
-0.0684451
0.00632472
-0.00570195
-0.000622767
0.351727
-0.108663
0.0130889
-0.00379767
-0.00929119
-0.215246
0.614465
-0.399218
0.324425
-0.488663
0.164238
0.00440669
0.0822678
-0.0866744
0.295578
-0.388056
0.166298
-0.168182
0.00188399
0.443817
-0.406729
0.554051
-0.212097
-0.341953
0.324499
-0.37018
0.155217
-0.160058
0.0048411
0.570034
-0.464844
-0.029429
-0.000341389
0.205216
0.269512
-0.182601
0.328405
-0.145804
0.0229347
-0.0244421
0.00150743
-0.140918
-0.269549
0.410467
0.13274
-0.207237
0.0744967
0.372505
0.0472424
0.302205
0.339902
0.0406412
-0.298248
-0.209891
0.190875
0.0190165
0.334296
-0.299415
-0.208517
-0.30231
0.510827
-0.520847
0.396791
0.124056
-0.55487
-0.0261175
0.580987
0.648505
-0.134213
-0.514292
-0.61387
0.0439212
0.569949
-0.0284151
-0.00807832
-0.415997
-0.10485
-0.502293
0.374863
0.496345
0.152159
-0.116409
0.106603
0.00980565
0.191145
0.390065
-0.0631725
-0.237959
-0.073141
-0.107849
0.18099
0.00450231
0.00858655
-0.151732
0.00583338
-0.0474012
0.00927058
-0.0288353
0.025014
-0.17727
0.104129
-0.411768
0.559709
-0.147941
-0.103204
0.575546
-0.472342
-0.0063079
0.0348408
-0.0285329
0.29255
-0.599087
0.306537
-0.284548
-0.272152
0.5567
-0.00428703
0.312845
-0.428712
0.115867
-0.148864
0.603066
-0.454203
-0.0559367
0.0669772
0.0217183
0.0012164
0.0833782
-0.000240931
0.0264158
-0.0290722
0.00265636
-0.35344
0.64599
-0.00157913
0.0290457
-0.0274665
-0.557832
0.00296246
0.313799
-0.295135
0.0330334
-0.0389803
0.00594693
0.201155
0.352896
-0.102408
0.106815
0.557166
0.0469185
-0.604085
0.423146
-0.496351
0.130879
-0.452688
0.321808
0.349436
-0.328811
-0.0206257
-0.0174986
0.461316
-0.141051
-0.408717
0.549768
0.143857
-0.564446
0.420588
-0.372765
-0.231741
0.604506
-0.249991
0.00445994
0.245531
-0.0270164
0.520536
-0.493519
-0.50925
0.430083
0.0791672
-0.039524
0.035906
0.00361804
0.0489937
0.508172
0.126903
-0.451186
0.324283
-0.410159
0.39266
-0.0360243
0.0406544
0.0498175
-0.000979923
-0.0488376
-0.204642
-0.191197
-0.00459587
-0.245395
-0.145928
0.0133691
0.132559
0.0134512
-0.0635132
-0.146522
-0.0134929
0.072978
-0.0594851
0.0348449
0.227557
-0.262402
0.333742
-0.371488
0.0377456
0.00986807
-0.155796
-0.00165245
0.00315472
-0.00150227
0.228045
0.08673
-0.490771
0.387567
0.536932
-0.398733
-0.138199
0.584899
-0.62176
0.0368615
0.00636918
-0.0152185
0.00884934
0.0539834
-0.494164
-0.0266621
0.105687
0.0284714
-0.128337
0.0998656
0.292788
-0.397
0.104212
0.301358
0.0480787
0.154684
0.467002
0.568485
0.0164138
-0.0650477
-0.144843
0.171366
0.127693
-0.299059
-0.0639784
-0.140139
0.204117
-0.303686
0.00360414
-0.0205592
0.0282454
-0.00768618
-0.100765
-0.00666442
0.0396978
-0.0194522
-0.00993222
0.0293844
-0.148849
0.538765
-0.389917
0.349653
-0.122296
-0.227357
-0.150585
0.149112
0.00147316
0.00842343
0.0647712
0.168288
-0.614658
0.446369
-0.539512
-0.0743585
-0.268915
-0.212119
0.334212
-0.248504
-0.236759
-0.0212903
-0.503754
0.510583
-0.00682887
-0.0254904
0.00214061
0.0233498
-0.490111
0.200149
0.289963
0.3752
-0.0738428
0.00960979
-0.029062
0.498726
-0.580622
0.081896
-0.517585
0.233037
0.58749
-0.419202
0.0268006
-0.0331085
-0.113389
0.148909
0.277445
-0.2426
-0.103863
-0.306086
0.409949
0.065074
-0.0917361
-0.00276456
0.00197609
0.000788472
0.476542
0.0806254
-0.557167
0.291858
0.371428
0.165504
-0.427362
0.323499
0.0047892
-0.00197792
-0.00281128
0.119122
-0.516787
0.397664
0.393138
0.272785
-0.0951755
-0.376635
0.471811
0.543964
-0.57758
0.0336157
0.1039
-0.117168
0.0132679
0.341895
-0.480544
0.138649
-0.000575327
-0.108417
0.108992
0.196465
-0.608233
0.20758
-0.0643871
0.557546
-0.387551
0.181933
0.476172
-0.134276
0.00871113
0.46684
-0.475551
0.428216
-0.455232
-0.35258
0.566029
-0.213449
-0.0404561
-0.463298
0.109752
-0.0812803
0.115345
-0.00519067
-0.490358
-0.018892
0.0201594
-0.472958
0.452798
-0.0586883
-0.0193858
0.0780742
-0.0380385
0.150058
-0.11202
0.555704
-0.132557
0.121294
-0.54948
0.428185
0.0495333
0.000284284
-0.00927733
-0.153245
0.162522
-0.162804
0.66153
0.414225
0.151909
-0.566133
-0.014286
-0.0112044
0.0742886
-0.0250674
-0.0492212
-0.290426
0.00189213
-0.0623055
-0.214141
0.276447
-0.561273
0.40282
0.158454
-0.114995
0.65896
0.431472
-0.580336
0.158997
0.0127835
-0.171781
0.0431023
-0.000594868
0.124609
0.329498
-0.454107
-0.370227
0.548906
-0.333735
0.309569
0.0241657
0.0299842
-0.0230265
0.00147085
0.00485387
-0.322423
-0.296055
-0.0171819
0.0184689
-0.00128703
-0.364526
0.483456
-0.233248
-0.0342297
-0.0431387
0.0462986
-0.00315986
0.482778
-0.186043
-0.296735
-0.275489
0.598595
-0.000736367
0.00552557
0.000767577
-0.0207855
0.020018
0.293837
0.0813635
-0.361653
0.243874
0.117779
-0.355429
0.480038
-0.00260996
0.122611
-0.120001
0.110925
-0.293525
0.587695
-0.17347
0.023911
-0.0175418
-0.0597057
0.12478
0.141563
-0.15084
0.326056
0.00768588
-0.243067
0.26285
-0.0197834
0.0204486
0.05384
0.00405909
-0.0730736
-0.550507
0.587974
-0.0374665
-0.375065
0.057499
0.14048
0.0671004
0.285909
-0.534125
0.248216
0.0620576
0.117154
-0.117729
-0.0825398
0.0682121
0.0143276
-0.362174
0.277068
0.0851058
0.190378
-0.11242
-0.0715388
0.0116777
0.0598611
-3.64096e-05
-0.563421
0.101583
0.461838
0.0837414
-0.097934
0.0141926
0.0503216
-0.524256
0.473934
-0.576216
0.0944262
0.481789
0.198824
-0.239783
0.0409589
0.417211
-0.13316
-0.28405
-0.199312
0.135333
0.287
-0.115634
-0.503107
0.150527
0.147025
0.00819246
-0.0798702
-0.108401
0.333288
0.317972
0.518831
-0.0550945
-0.463737
-0.480668
-0.298828
-0.063346
0.375731
0.127638
0.0879936
0.361843
0.067175
-0.319061
0.251886
0.0261028
0.00153992
-0.0276427
0.0567367
0.462095
-0.46066
0.63613
-0.17547
-0.0564748
-0.013654
0.0701288
-0.0333543
0.0362954
-0.00294113
-0.291642
-0.0738032
0.365445
0.616988
-0.425011
-0.191976
-0.00510168
0.00103369
0.00406799
0.272365
0.0608442
-0.33321
-0.502835
0.353986
0.000800269
-0.00338425
0.00258399
0.388065
0.16628
0.0017974
-0.0223566
-0.285959
0.275536
0.0104234
-0.718185
0.371206
0.34698
-0.0308814
0.0824436
0.00145705
-0.00655872
0.161951
0.147124
-0.115774
0.535166
-0.419392
-0.164558
-0.0701299
0.234688
0.255175
-0.0563512
0.150151
0.0927375
-0.242888
0.0320684
0.385266
-0.417335
-0.481509
0.2301
0.251409
-0.151174
-0.18256
-0.0310573
0.011787
0.0192703
0.482998
-0.276294
-0.206704
-0.131361
0.607903
0.0636167
-0.219071
0.152209
0.0898259
0.240188
-0.434411
0.194223
0.390716
-0.520993
0.130277
-0.13221
-0.104549
-0.092825
0.483249
0.0381387
0.326729
-0.364868
0.434244
-0.58246
0.148216
0.174279
-0.0415385
0.0698348
-0.068659
0.420104
-0.535877
-0.648642
0.275876
0.181565
-0.577889
0.396324
0.204996
-0.0982883
-0.554126
-0.330865
0.457768
-0.158774
-0.144912
0.0694294
-0.587137
-0.521542
-0.0613597
0.124038
-0.141893
0.0178546
0.171685
-0.371882
0.200197
0.13354
0.298911
-0.43245
-0.430976
0.574833
-0.138876
0.419098
-0.280222
0.00418455
0.0204778
-0.0246623
0.389048
-0.525664
0.136616
-0.620666
0.248905
0.371761
0.23138
-0.602382
0.371002
0.170827
0.370198
-0.541025
-0.126363
-0.235291
-0.276779
-0.0755963
0.352375
-0.521209
-0.0611597
0.0302782
-0.226188
0.297518
-0.0713299
0.0113286
0.0215039
-0.0328325
-0.0728936
-0.0699747
0.142868
0.321039
-0.533136
0.477992
-0.445924
0.294999
-0.433875
-0.447492
0.00231804
0.017817
-0.020135
-0.571493
0.460805
0.110687
0.104866
-0.435005
0.33014
0.357168
-0.313731
-0.0434368
-0.0425125
-0.0656497
0.108162
-0.202244
0.618155
-0.41591
0.0699438
-0.234502
-0.217077
0.388762
0.0664462
0.166757
-0.233203
0.133068
-0.135677
-0.379204
-0.301039
0.00387495
-0.00165338
-0.00222157
-0.00363601
0.0368189
-0.0331829
0.431639
-0.393501
-0.128127
0.0328504
0.0952762
0.335095
-0.115974
-0.219122
0.46977
-0.461058
-0.0617338
-0.0663928
0.204194
0.278584
-0.494325
0.422108
0.072217
0.151199
0.428716
-0.579915
-0.00256611
-0.000198452
-0.0366711
0.0408557
0.366332
-0.0737907
-0.008595
-0.0158471
-0.0300464
0.0284673
0.324152
0.16903
-0.493182
-0.288267
0.055019
-0.0323046
-0.296058
0.240377
0.0556809
0.210874
-0.394698
0.183824
-0.0937979
0.386586
0.124204
-0.562826
0.438622
0.369298
-0.158424
-0.431857
0.629262
-0.197404
0.014032
0.343136
0.068098
-0.175947
-0.18272
-0.41773
-0.143544
0.373412
-0.32309
-0.152502
0.404986
-0.252484
0.196584
0.286414
0.180415
-0.51128
0.000526495
-0.0136339
0.0131074
-0.179505
0.244456
-0.0649511
0.241741
0.0720581
0.335727
0.081484
-0.00255994
0.10646
0.0962647
-0.228475
0.0992541
0.0230379
-0.00131964
-0.0177977
0.0185653
0.198307
0.115664
-0.313971
-0.404612
0.350949
0.053663
-0.0577821
-0.128381
-0.365944
0.0592443
0.123754
-0.155865
0.0395704
0.116295
0.511406
-0.0660668
-0.445339
0.389772
-0.622739
0.537207
-0.0504656
-0.486741
-0.0467784
-0.0199381
0.36291
-0.132599
-0.00797708
-0.0370682
-0.040508
0.036872
0.496516
0.153083
0.0743196
-0.409408
0.335088
0.0139788
-0.568686
0.0275598
-0.00145696
0.233868
0.100344
0.0529865
0.28131
0.189813
-0.252119
0.200247
-0.13215
-0.0326791
-0.00558143
0.0382605
-0.0603065
0.282861
-0.041436
0.00875696
-0.165706
0.533438
-0.367732
-0.326843
0.185925
0.102067
-0.590368
0.182496
-0.0420158
-0.329144
0.0779382
0.251206
0.0154737
0.117594
0.077683
0.203286
-0.280969
0.441759
-0.106032
-0.489894
0.0202596
0.469634
0.324031
-0.24456
-0.463793
0.232704
0.231089
-0.26776
0.524153
-0.256393
-0.139641
-0.598125
0.179349
0.418776
0.45313
-0.32225
0.323222
-0.460341
0.137119
0.384637
-0.186331
-0.015919
-0.000243951
0.0161629
-0.489151
0.509311
-0.520238
0.42935
0.0908874
-0.338201
0.0761863
0.262014
-0.2739
0.40744
0.0442617
-0.0509262
-0.00426052
-0.00517935
0.00943987
0.0071489
0.0499947
-0.0571436
0.40132
-0.0320216
0.416495
-0.0143004
-0.262478
-0.0240222
0.365571
-0.341549
0.403384
0.116187
-0.519572
-0.270078
0.151902
0.118176
0.440278
0.174186
0.000720264
0.0474634
-0.0481837
-0.381374
-0.191988
0.573362
0.177332
-0.552426
0.375094
-0.0259299
0.0148098
0.0111201
0.343446
-0.132869
-0.210576
0.211319
0.379033
-0.272566
-0.208943
-0.0763223
0.0834712
-0.230085
0.0741809
0.155904
0.111456
0.23199
-0.274584
0.211411
0.436332
0.143921
-0.580253
-0.0187711
-0.0637687
-0.504366
0.0144721
0.00354048
-0.48649
0.121196
0.365294
-0.453764
0.186004
-0.366875
0.568029
0.0193588
-0.0188323
-0.295447
0.224447
0.0710002
0.465656
-0.232952
0.0714629
-0.123104
0.0516415
-0.0346183
0.00126406
0.215703
-0.521789
-0.0696321
-0.160453
0.337401
0.104358
0.388221
-0.323505
-0.0647151
-0.363187
0.0715452
0.0119069
0.0218366
-0.0337435
-0.000459807
0.0191797
0.112323
0.110843
-0.223166
0.126717
-0.0552542
-0.0457683
-0.0599584
0.105727
0.51054
-0.0903887
-0.420152
-0.00318059
-0.064015
0.0671956
-0.211626
0.289309
0.341382
0.155836
-0.497217
0.00602801
0.0279571
-0.0339851
-0.00222801
0.0370688
0.413913
-0.223769
-0.190144
-0.109542
-0.305549
0.415091
-0.00705255
0.0339191
-0.0268665
0.339981
-0.206706
-0.133275
0.510098
-0.186876
0.0499864
-0.0287822
-0.0212042
0.121635
0.0608601
0.00697112
-0.0539452
0.046974
-0.29255
0.472965
0.00851491
-0.0649897
0.0717659
-0.211905
-0.0188074
0.00288843
0.597661
-0.0291761
-0.127672
0.389229
-0.261558
0.0385477
-0.0810602
0.0390963
0.362223
0.243177
0.0321451
-0.275322
-0.437154
0.00398748
-0.20344
0.474922
-0.271482
-0.426424
0.428222
-0.421227
-0.00699405
0.502119
-0.410587
-0.0915315
-0.00444393
-0.0979645
-0.0835585
-0.0737009
-0.23364
0.307341
-0.178073
0.287339
-0.109267
0.425889
-0.185701
-0.369579
-0.00550401
0.0319198
0.0332915
0.133007
-0.0508588
-0.244588
-0.0554191
-0.00121722
0.0566364
0.301495
-0.0927231
-0.208772
-0.0256635
0.0316916
0.192785
0.147196
0.43911
-0.36479
0.0971361
0.0538324
0.1906
0.31245
-0.115907
-0.196542
-0.0063792
0.00211868
0.364692
-0.311705
-0.000655998
0.0008379
-0.000181903
-0.387045
0.0939103
0.205911
-0.0353041
0.1536
0.101575
-0.024827
0.0273447
-0.00251766
0.0419895
-0.268177
-0.171495
0.387198
0.424789
-0.104607
-0.320182
-0.0842649
0.0997386
0.0021673
-0.00381975
-0.116011
0.512802
0.0512007
-0.0304953
-0.0207054
0.0844546
-0.0604088
-0.0240458
0.386512
-0.402799
0.0162872
-0.00354082
0.000974709
0.148911
0.334242
-0.483153
-0.0568565
0.0638276
-0.0730315
0.0698509
-0.00588588
-0.0272954
0.338116
-0.433292
-0.147205
0.564741
-0.417535
0.431506
-0.341156
-0.0903501
0.467945
-0.267797
0.0955999
-0.527457
0.207494
0.206419
-0.214047
0.34174
-0.149074
-0.221151
0.370225
0.0730339
0.127214
-0.13119
-0.00818526
0.0961685
0.0942605
-0.190429
-0.0173721
0.0269819
0.0967828
-0.563421
-0.0472959
-0.238663
-0.564181
0.155464
0.143933
-0.495021
0.351089
0.00219818
0.00130375
-0.00350193
-0.440204
0.421514
0.0186898
-0.00982704
-0.0344784
0.0443055
-0.493448
0.112074
0.365464
-0.50158
0.136115
-0.086757
0.598163
0.583686
-0.259188
0.061066
0.0782405
-0.139306
-0.0935338
-0.0148831
-0.142235
0.146491
-0.00425519
0.179133
-0.119889
0.0243228
0.541398
0.236621
0.347066
-0.159614
0.48562
-0.326006
-0.00897702
-0.409447
-0.116217
0.00173879
-0.0265658
0.0154494
0.012796
0.0515411
-0.0396342
-0.174379
-0.0615
0.052181
0.00931901
0.352661
0.149458
-0.063901
0.222898
-0.407647
0.094597
0.185107
0.116388
0.00885311
-0.0547298
0.0458767
-0.364595
0.21552
0.00271773
0.00043699
-0.0243232
-0.117912
-0.0762569
0.348622
0.0500701
0.159987
0.336157
0.166069
-0.502227
0.000587325
0.116566
0.00215016
-0.00184956
-0.000300595
0.000746534
0.00140363
-0.160092
0.481167
-0.321074
-0.110301
0.105857
-0.0475208
-0.0120269
0.0595477
0.0749795
-0.00468885
-0.000867817
-0.0184605
-0.0496789
0.0417018
0.0550046
-0.00899504
0.236157
-0.0897691
-0.146388
-0.342331
0.491242
0.210316
-0.0979932
-0.172318
0.0249103
0.147408
0.21225
0.100199
0.484682
-0.119218
-0.387569
-0.167248
0.554817
0.574423
-0.0372157
0.51463
-0.29694
-0.21769
0.0917677
0.0211125
-0.11288
0.33626
-0.202949
-0.133311
-0.0509864
0.013202
0.0377844
-0.000686251
0.00312988
-0.00244362
0.103034
-0.523826
0.420792
-0.366383
0.566246
-0.199863
0.0240779
-0.0186801
-0.00539779
0.062663
0.0217915
-0.0930741
0.28806
-0.194986
-0.432289
0.318438
0.113851
-0.0048983
-0.000803657
0.438586
0.0743414
0.294369
0.137136
0.0388708
0.197286
-0.00896532
-0.163353
0.0487789
-0.00451715
0.417254
0.170236
-0.397137
-0.321048
0.0113873
0.0398134
-0.493986
0.363937
0.130049
0.0261093
0.00284457
-0.0289538
0.473046
0.124615
0.0273046
-0.0343571
-0.177198
-0.09288
-0.118091
-0.322113
0.540764
-0.41656
0.508664
-0.099796
-0.408868
0.471401
0.145586
-0.00116362
0.0272729
0.010741
-0.145417
0.464356
-0.318938
0.10594
-0.015299
-0.0906413
-0.0679296
0.606948
-0.248577
0.459917
-0.0777731
-0.0983208
0.176094
0.133463
-0.0088367
-0.0744573
0.083294
-0.509083
0.628015
-0.118931
0.488227
0.203744
-0.292354
0.244149
-0.017936
5.71822e-06
0.0179303
0.543262
-0.313162
-0.0263538
-0.382397
-0.0467456
0.429143
-0.0768079
-0.079057
-0.458209
0.170534
0.287674
-0.487723
-0.132943
-0.0136339
-0.525116
0.35941
-0.164653
0.162418
0.00223556
0.499571
-0.158189
0.00820159
-0.0686103
-0.348785
0.324763
0.0986331
-0.0661503
0.00486294
0.0612874
-0.0363726
0.0635984
-0.0272258
-0.1194
0.215569
-0.048633
-0.277757
-0.0145967
0.123713
-0.00110223
0.33185
-0.0979812
0.0823055
0.241726
-0.405076
0.517129
-0.112053
-0.560528
0.373592
0.186936
0.463487
-0.344364
-0.0578015
-0.110381
0.0697161
-0.54516
0.000600004
0.0210449
-0.0216449
-0.300064
-0.038137
-0.181851
0.587428
-0.405577
0.309567
0.0387909
-0.348358
0.352466
-0.0753982
0.532543
-0.393469
-0.139074
0.284148
0.121105
-0.346129
0.119996
-0.232256
0.112261
0.00515956
0.0229444
-0.028104
-0.34642
0.490353
0.518958
-0.415924
-0.168056
-0.203432
-0.00407648
-0.0354475
-0.392783
-0.191523
0.584306
-0.0716312
-0.499861
-0.12552
0.561852
0.128634
-0.00459621
-0.337669
0.381853
-0.0441841
-0.0480902
-0.0134098
0.403814
-0.0392276
-0.0117588
0.000694439
0.0241449
-0.0248394
0.300481
0.127741
-0.0717497
0.0130614
0.0912032
-0.492764
0.401561
0.0561982
-0.036867
-0.0193312
0.546535
-0.155819
0.307427
-0.277195
-0.0302322
-0.510876
0.144493
-0.00161947
0.109493
0.0132208
0.0933825
0.0413128
0.0515085
-0.089547
0.304902
-0.58039
-0.528355
0.0267334
-0.17434
0.478542
-0.304202
0.0115371
-0.00754957
0.52794
-0.436737
-0.245113
0.0585022
0.18661
0.556503
-0.153683
0.0191416
-0.445728
-0.124099
0.569827
-0.134164
-0.33884
0.473004
-0.0223751
0.0246931
-0.478287
0.441439
0.0368475
0.0273175
-0.0480296
-0.430257
0.557885
-0.387058
-0.423019
0.563158
-0.140139
-0.00357336
3.25479e-05
-0.00748588
-0.120851
0.000390512
-0.0175724
0.20155
-0.0638367
-0.137713
-0.000383369
-0.0532932
0.0398002
0.0152055
0.618699
-0.3986
-0.220099
-0.0190049
-0.0120524
-0.480638
0.125209
0.0163724
0.0989724
0.279146
0.350116
0.560603
-0.379037
-0.0577269
-0.112017
0.0176758
-0.197181
0.41366
-0.312077
-0.0932033
0.0299534
0.0632499
0.102231
0.0993182
0.0864994
-0.497479
0.410979
-0.00469111
0.0304811
-0.02579
0.223659
0.166105
-0.389765
-0.0154829
0.0206425
-0.0945366
0.113296
-0.0187596
-0.550269
0.398264
0.152005
0.433233
-0.151014
-0.282219
-0.426124
-0.123356
0.165984
0.152771
-0.0869988
-0.0657719
0.176304
-0.16352
-0.539516
0.00709576
0.532421
-0.386041
-0.140036
0.526077
0.494987
-0.408488
-0.266379
0.0949422
0.171437
0.059015
0.0156804
-0.0746953
-0.0347965
-0.130484
0.19693
-0.0521518
0.0467066
0.00544521
-0.206084
-0.076654
0.00220057
0.0673485
-0.449746
-0.00147882
0.00229396
-0.000815132
0.0755047
0.356135
0.329323
0.466561
-0.269977
-0.00322367
0.0391296
0.332463
-0.4432
0.110738
-0.102322
0.0559165
0.0916955
-0.147612
0.529436
-0.0337988
-0.495637
-0.303373
0.378806
0.153722
-0.532528
0.00570668
-0.0420792
-0.0231994
-0.0483394
0.500732
-0.296537
0.246889
0.371809
-0.0452254
0.0540785
0.531006
-0.14771
-0.383296
-0.0570838
0.454938
-0.397854
-0.383857
0.459519
-0.0756621
-0.461343
0.138956
0.322387
0.0783854
-0.539045
0.406708
0.15338
-0.560088
0.0385189
-0.0923568
-0.431469
-0.122462
0.195496
-0.0216807
0.244432
0.0874174
0.00389327
-1.8316e-05
-0.2961
0.225345
0.0707556
-0.011875
-0.152778
0.0403712
0.108741
-0.0461409
-0.228443
0.0722054
0.000772591
0.412858
-0.0833602
-0.383546
0.139632
0.243914
-0.0874037
-0.489508
0.368825
0.120683
-0.304542
0.00173194
0.111948
-0.11368
0.341883
0.168699
-0.456523
-0.128277
-0.0535979
0.253959
-0.200361
-0.107521
0.54931
0.0168232
-0.00139485
-0.388778
-0.0174105
0.406189
0.270649
0.0818173
-0.112428
-0.284572
-0.0904523
0.546916
-0.456463
-0.127914
0.436737
-0.308823
-0.0244385
-0.00463372
0.136274
0.330287
0.226417
-0.106422
0.0807799
0.0039112
-0.0846911
0.379092
0.153451
0.347556
0.159872
-0.507428
-0.0487224
-0.0768913
0.0890142
-0.0121229
0.466458
-0.581454
0.494749
-0.340857
-0.153892
-0.0654451
-0.122499
0.187944
-0.259445
-0.124101
-0.0472456
0.0440904
0.273946
-0.38631
0.112364
-0.166851
0.0534623
-0.279623
0.374524
-0.0949005
0.0582805
0.0944903
-0.572472
0.332877
-0.509571
0.176694
-0.156129
-0.380827
0.536956
0.28312
-0.227592
-0.0555279
-0.325966
-0.0561456
0.382111
0.349725
-0.484314
0.134589
0.0682647
0.194585
-0.0562744
-0.0948022
0.376163
-0.201605
-0.174558
-0.0716537
-0.0322752
-0.356503
-0.145359
-0.202448
0.0678882
0.13456
0.592455
-0.163739
-0.0798528
0.0880543
-0.411423
0.30188
0.125334
0.261372
-0.386706
-0.0524974
0.0426704
-0.160213
-0.00448097
0.164694
0.212845
-0.571351
0.392383
0.178967
0.322959
-0.255784
0.0789409
-0.512348
0.433407
-0.111834
0.00046755
0.111366
0.0449789
-0.0678766
0.0228977
-0.427598
0.108948
0.31865
-0.493405
0.360395
0.13301
-0.144657
-0.194925
0.339581
-0.283757
0.12215
0.161607
0.110003
0.218402
0.0351952
-0.571404
0.0385487
-0.0170448
0.115619
0.412554
-0.528173
-0.00463607
-0.0426096
-0.326031
-0.126657
-0.113435
-0.0359394
0.149375
-0.0981952
-0.0397609
-0.446851
0.338714
0.108137
-0.263352
0.248089
0.0152627
-0.0169365
-0.00819507
0.0251315
0.0173808
0.00108812
-0.418538
-0.00409386
0.00555091
0.233463
-0.314443
0.0809798
-0.429691
0.278677
-0.00248565
0.00100683
0.428505
0.249276
-0.475988
0.418904
-0.0702861
0.223886
-0.0188058
0.548242
-0.00391689
0.0217339
0.0162045
0.0399937
-0.408269
0.375994
-0.190562
-0.272238
0.4628
-0.38483
0.307566
0.0772632
-0.0283773
-0.00283275
0.0312101
0.212503
-0.140738
-0.553205
0.142662
0.410543
0.110595
0.424571
-0.373421
-0.352093
0.374544
-0.0420814
0.278734
-0.396825
-0.110102
0.348068
-0.0651541
-0.587404
0.449084
0.13832
0.448407
0.333426
-0.222502
-0.105591
0.0716438
0.0339473
0.556842
-0.141147
-0.415695
-0.0684355
-0.00735149
0.075787
-0.119025
0.0714493
0.0475754
-0.162794
0.438768
-0.275974
-0.0462833
0.512741
-0.488841
0.326047
0.41793
0.157616
-0.572391
0.413126
0.159265
-0.142089
0.000337795
0.141751
-0.00168538
-0.32057
0.175913
-0.401754
0.00897495
-0.00953463
0.000559683
0.159633
0.21653
0.232261
0.30157
-0.0681072
0.408148
-0.546721
0.138573
-0.0805467
-0.216566
0.447945
-0.348823
0.491925
-0.155768
-0.0263405
-0.0870948
-0.126099
0.172411
-0.55998
0.175859
0.0547531
-0.230612
-0.00170858
0.00328532
-0.00157674
-0.428428
-0.134398
-0.0603911
0.233823
-0.173432
0.0654894
-0.490444
0.424954
-0.147748
0.0917006
0.0188595
-0.0182595
-0.00468839
-0.279343
-0.105487
0.0246086
0.0116868
-0.452017
-0.0147632
0.00119806
0.0135652
-0.0267708
-0.180871
-0.427275
-0.013002
0.017699
-0.00469691
-0.461023
0.384981
0.0760424
-0.0012611
0.0425739
-0.0159001
0.0165891
-0.000688979
-0.2565
0.364495
-0.107994
-0.549591
0.158595
0.390996
-0.00244495
-0.341201
-0.10565
-0.206679
0.187863
0.0188163
-0.00596101
-0.367409
0.37337
-0.601551
0.197214
0.404338
-0.0364768
-0.00253968
-0.277687
-0.467233
-0.0385967
0.50583
-0.251138
0.329076
0.0471576
-0.0517937
-0.111328
0.105058
0.00626945
0.0516452
-0.00493861
-0.41418
-0.240142
0.654321
-0.277574
0.321191
-0.0436173
-0.564778
0.439982
0.124795
0.0961367
-0.352637
-0.387348
0.306538
0.0808101
-0.386522
0.56587
-0.0152893
0.073859
-0.0585697
0.181846
-0.269241
0.0873953
0.0796797
0.00369849
-0.142309
0.0775117
-0.291559
-0.110759
-0.00360899
0.000224737
0.00563545
-0.00550076
-0.000134688
0.00728347
0.0847206
-0.092004
0.0988969
-0.513133
0.414236
0.355313
0.139436
-0.536639
-0.0332841
0.569923
-0.00453205
-0.0272496
0.0317817
-0.0429862
0.275792
-0.341698
0.450645
0.0678185
0.149449
-0.217268
-0.0842085
0.00536602
0.0788425
-0.063966
0.28135
-0.217384
-0.405766
0.289242
0.116524
-0.570617
0.447588
0.123029
0.107078
0.301001
-0.408079
-0.0389071
-0.46011
0.499017
-0.419506
0.518403
-0.331927
-0.398871
0.547942
-0.149071
0.15441
0.287029
0.3998
0.131206
-0.227215
-0.161597
0.388812
-0.363495
0.484692
0.063731
0.259228
-0.0345582
-0.333734
0.368292
-0.139034
-0.0327464
-0.421173
0.617318
-0.196145
0.0385876
-0.489503
-0.0754779
0.564981
0.0974966
0.00844369
0.375937
0.144006
-0.486337
-0.128854
-0.0216004
0.0029203
-0.452164
0.191556
0.419452
-0.611008
-0.041665
-0.0826476
0.124313
0.0447829
-0.0715304
-0.250141
0.321671
0.00396121
-0.0618499
0.0928106
-0.454922
0.264359
-0.0364122
-0.472671
0.537151
-0.35982
0.393355
0.424469
-0.288194
0.121661
-0.348876
0.141641
-0.328455
0.186813
-0.231236
-0.193064
0.4243
0.00284946
-0.00694332
-0.00440424
-0.0361037
0.239117
-0.0889657
-0.126156
-0.249164
0.195566
0.111417
-0.0196495
-0.0465761
0.297833
0.203349
-0.501182
-0.00492171
-0.359556
0.0819823
-0.130476
0.550527
-0.14238
0.0493156
0.445672
0.389442
0.161085
-0.0190848
-0.406711
-0.143558
-0.210636
0.00354857
-0.00423482
-0.401149
-0.00346317
-0.172619
-0.316043
-0.0352378
0.0270427
-0.147422
-0.301355
-0.104411
-0.266926
0.00357441
-0.076925
-0.224916
-0.335612
0.0110028
-0.0709612
-0.00103193
0.0220768
-0.203333
0.221009
0.402393
0.128663
-0.531055
-0.299466
0.406544
-0.525915
-0.446679
0.0612728
0.385406
-0.00366434
-0.554943
0.423137
0.131806
0.00263185
-0.401194
0.398562
0.433219
-0.278809
0.430216
-0.382973
-0.0550711
-0.238815
0.280805
0.050154
-0.328198
0.278044
-0.290636
0.220681
0.0699546
0.00145595
0.13208
-0.133536
0.000923035
-0.369317
0.565782
-0.440437
0.554902
-0.114465
-0.253669
0.370798
0.290732
-0.00328974
0.00133185
0.00195789
0.11211
-0.407102
0.294992
0.321952
-0.213757
-0.108195
-0.446361
-0.0246048
0.470965
-0.0265799
0.0680348
0.00694469
-0.317194
-0.240638
-0.578181
0.00309577
0.291385
-0.451477
0.00835218
-0.0850805
-0.0720947
-0.393989
0.466084
0.0626303
-0.00808582
-0.0545445
-0.00299012
0.00133673
-0.45893
0.00106037
0.457869
-0.193566
0.563765
-0.521965
0.16153
0.360435
-0.00283565
0.0353768
-0.0325411
0.465099
-0.515564
-0.0171833
0.193487
0.13172
-0.130264
-0.0425464
0.136313
0.337079
-0.0530244
-0.284055
-0.00650471
-0.00278647
0.373355
0.0982253
-0.47158
0.0897327
-0.00895282
0.00298646
-0.00496438
0.05683
-0.267745
0.210915
-0.100632
0.156548
0.568204
-0.158883
-0.409321
0.0877639
0.342452
-0.049947
0.0566436
0.197316
0.0877601
-0.0195479
-0.0355476
0.0391357
-0.00358809
-0.329748
0.149791
-0.577013
0.468168
0.108845
0.0311415
-0.36881
0.136788
0.087884
-0.224672
-0.452227
-0.00670283
-0.518545
0.125762
0.281364
0.219368
-0.441128
-0.110963
-0.35006
-0.552576
0.192783
0.359794
-0.28235
-0.0537484
0.336099
0.539628
-0.509848
-0.02978
-0.298349
0.431238
-0.00844973
-0.103597
0.112046
-0.00536436
-0.0709579
-0.544094
0.158053
0.144763
-0.483811
-0.00696035
-0.116509
0.117096
0.103273
0.182396
-0.285669
0.26977
0.210879
0.315242
0.00132009
0.378443
-0.400285
0.0218424
-0.180413
0.0821873
0.0235394
-0.499903
0.387749
0.112154
-0.0595824
0.0583652
-0.425901
0.297987
0.318346
-0.00112137
0.0219593
-0.020838
-0.45431
0.00794947
-0.45455
-0.116067
0.146981
-0.119633
-0.0273479
-0.538277
0.123739
0.414539
0.00525059
-0.0407982
-0.0305084
0.304245
-0.273737
0.183634
-0.276708
-0.13916
0.250616
-0.501596
0.199285
-0.0132534
-0.00468264
0.179486
0.293842
-0.473327
0.304457
-0.417429
0.112971
0.354186
0.0259711
-0.0288039
0.0233241
-0.00194307
-0.021381
-0.0676655
0.00171768
-0.0546216
0.0529039
-0.0107065
0.0353151
-0.512628
0.147132
0.365496
0.0460996
0.530725
-0.141282
-0.568373
0.220122
-0.152303
0.432007
-0.153273
-0.0690239
-0.0198448
0.0888687
-0.10478
0.506798
-0.402018
0.421278
-0.418646
0.00842929
0.27891
-0.140227
0.0985615
-0.568164
0.147527
0.0818399
-0.00216022
0.0257285
-0.00158355
-0.328121
0.0457711
-0.180757
-0.390014
0.570771
0.126013
-0.56645
0.0824281
-0.201828
-0.0893791
0.460177
0.528797
-0.157538
-0.371259
0.00506097
-0.096898
0.091837
-0.000711838
0.0195713
0.532504
-0.125796
-0.110394
0.388982
0.143523
0.428745
-0.0901022
-0.338643
0.578526
-0.453985
-0.124541
-0.597755
0.424851
0.172904
0.0468088
0.187195
-0.234004
0.118365
-0.126815
-0.130699
0.525224
-0.394525
0.360263
-0.203428
-0.156835
0.305142
-0.409922
-0.120132
0.125335
-0.00520378
0.193454
-0.530205
0.336751
0.00748385
-0.0563957
0.236585
-0.180189
-0.513061
0.153765
0.359296
-0.539312
0.421408
0.117904
-0.0812721
-0.227405
-0.343945
0.395643
0.135082
-0.434662
0.143254
0.291407
-0.279462
0.228683
0.0507796
0.317288
-0.253557
-0.545204
0.180291