/*--------------------------------*- C++ -*----------------------------------*\
| =========                 |                                                 |
| \\      /  F ield         | OpenFOAM: The Open Source CFD Toolbox           |
|  \\    /   O peration     | Version:  v2012                                 |
|   \\  /    A nd           | Website:  www.openfoam.com                      |
|    \\/     M anipulation  |                                                 |
\*---------------------------------------------------------------------------*/
FoamFile
{
    version     2.0;
    format      ascii;
    class       volScalarField;
    location    "600";
    object      p;
}
// * * * * * * * * * * * * * * * * * * * * * * * * * * * * * * * * * * * * * //

dimensions      [0 2 -2 0 0 0 0];


internalField   nonuniform List<scalar> 
13308
(
-0.0166378
-0.0180679
0.0190642
0.0611699
0.0961492
0.0102959
0.105619
0.0558961
0.081894
0.0767131
0.0438419
0.0706518
-0.0179174
0.103646
0.0876351
0.0953099
0.0397886
0.0565852
-0.014003
-0.0120516
0.0900343
0.0548633
0.0545564
-0.034772
0.0196568
0.0470748
0.0490037
0.0555196
0.0477886
0.0568787
0.080735
0.0284183
-0.0205093
-0.00746603
-0.0157945
0.0619108
0.0538087
0.0709798
0.0642374
0.0670626
0.0876141
0.0466338
0.0554416
0.0792258
0.0241953
0.0887009
0.0560578
0.0805692
0.0426671
0.0743325
0.0806037
-0.0251766
0.0571177
0.0480133
0.0125483
0.0472802
0.0244037
0.0829862
0.0772271
0.135615
0.039605
0.0831132
0.0329969
0.0689656
0.0470434
0.028285
-0.0166337
0.0251447
0.0495291
0.0572928
0.0752542
0.0322524
0.0491471
0.0133013
0.0468203
0.078056
0.00927078
0.0219591
-0.0175101
0.0296096
0.0528414
0.109362
0.0438681
0.0868834
0.024962
0.123976
0.0719401
0.130967
0.131421
0.0891273
0.0776246
-0.0676631
0.0279134
0.118303
0.126771
0.0281157
0.0528189
0.00974789
0.0806677
-0.00747627
-0.0181296
0.080983
0.0533743
0.0747382
0.0493555
0.0760165
-0.0566172
0.13857
-0.00901601
-0.0108322
0.0826162
0.0274535
0.0775784
-0.0196461
-0.0165311
-0.0225415
0.172102
0.104794
0.0457349
0.0835166
0.125281
0.0791419
0.0716433
0.120868
0.100544
0.124213
0.0211897
0.0855821
0.0745073
0.0681587
0.0206837
0.00795565
0.0632062
0.0186069
0.0745495
0.0468651
0.0822013
0.0544278
-0.0127648
0.0763174
-0.0699378
-0.00474832
0.000952937
0.108403
0.0714332
0.170628
0.0405221
0.0654643
0.0847564
-0.0306347
-0.0597139
0.084503
-0.0114053
0.0718815
0.057937
0.0471357
0.0758206
0.086944
0.101671
-0.00849866
0.0935657
0.0206687
0.106396
0.0852145
0.0565844
0.198166
0.0725909
-0.0683019
0.0186885
-0.0604623
0.0675521
-0.0229087
0.0456776
-0.015916
0.0501606
0.075825
0.01165
0.0328298
0.0634769
0.073715
0.0967829
0.0449243
0.0480419
0.0447707
0.118732
0.08119
0.0733505
0.0266944
0.0536312
0.110066
0.00767042
0.00572874
0.197151
-0.0609062
-0.0551359
0.0191552
0.022549
0.0796396
0.0404421
0.0671394
-0.0435516
0.0651088
0.0639694
0.0510272
0.158522
0.0211445
0.116655
0.0545784
0.0839074
0.0215203
-0.0105148
-0.0338448
0.0753056
0.0754824
0.0638671
0.108872
0.0490244
0.170604
0.0539112
0.0539055
0.0870166
0.0773819
0.089849
0.0601131
0.0668376
-0.0148437
0.0745533
0.0651889
0.0910016
0.102254
0.0302756
0.0785241
0.0652499
0.0317488
0.128008
0.0849201
0.0495212
0.0536913
0.00525331
0.0826542
0.074538
0.162066
0.0791238
0.0325346
0.210532
0.138172
-0.0457261
0.0605192
0.0728323
0.0498541
0.0265115
0.0664062
0.166171
0.0751577
0.0758793
0.0977107
0.0577225
0.0821083
0.0919709
0.103231
0.0419445
0.0489219
0.0479468
0.028589
0.00201118
0.0646924
-0.00973658
0.0975013
-0.0209198
0.061345
0.0567686
0.0545248
0.123269
0.0766149
0.102203
0.103515
0.0540049
0.170885
0.0102468
0.0222874
0.125652
0.0919471
0.0106442
-0.0589494
-0.0282567
0.0772731
0.0690317
0.138652
0.0444891
-0.00164874
0.0232653
-0.0697246
-0.0183378
0.0120101
0.104219
0.0535888
0.0593083
0.0908375
0.0411679
0.0980655
0.0186707
0.0163361
0.0294046
0.0670869
0.06503
0.0861524
-0.045379
0.141318
0.11995
0.0653182
-0.000483237
-0.0217673
0.0769615
0.108915
0.101367
-0.00520713
0.0402965
-0.00600372
0.101873
0.031197
0.125276
0.0808046
0.0155006
0.0453808
-0.0340222
0.0937034
0.0517092
0.086129
-0.025215
0.109911
-0.0152746
0.103331
0.143088
0.135906
0.0670548
0.0775572
0.10009
0.106653
0.048799
-0.00691208
-0.0398613
0.077142
0.128643
0.137893
-0.0228206
0.078681
0.0740416
0.0804926
0.0910525
0.109998
0.0355193
0.0867538
0.128921
0.0544678
0.14013
0.0867733
0.0683572
0.0559069
0.0429199
0.0784714
0.144006
-0.00845627
0.0659549
0.125713
-0.0151913
0.0491692
0.212188
0.0315478
0.0651163
0.0300938
-0.00326943
-0.0289295
-0.0209844
0.182989
0.0898381
0.12097
0.109109
0.080242
0.15845
0.0559479
0.0773332
0.0815024
0.0869915
0.246047
0.119955
0.0932788
0.0254854
0.0316947
0.0500402
-0.0629117
-0.0470896
0.0331945
0.0779927
0.0860811
0.0314699
0.179024
0.0855905
0.137309
0.0963411
0.0108948
-0.0339994
0.0992693
0.0927535
0.0655988
0.0342554
0.056341
0.105755
0.0759609
0.0735864
0.00603349
0.1588
0.0235899
0.0412468
0.0878503
-0.0642331
0.0251977
-0.0540651
0.0862182
0.0716483
0.0476432
0.00391851
0.0783881
-0.0382385
0.0305479
0.0914572
-0.0488454
0.140792
-0.0399456
0.0229676
-0.0191808
0.108712
-0.0486023
0.0276036
0.100936
0.0732029
0.0175034
0.0461578
0.0485318
0.0224483
0.111704
0.072935
0.0844876
0.0982724
0.134281
0.0522104
-0.0137132
0.0654404
0.0767293
0.149588
0.103252
-0.0331615
0.0872253
0.111584
0.0194661
0.0989666
0.0757737
0.0631996
0.0539749
0.0382665
-0.0197342
0.0517747
0.00691648
0.00410269
0.0751702
0.0427151
0.00101991
0.064933
0.0942675
0.0183716
0.0701915
0.17195
0.0707653
-0.0361327
0.0979355
0.0731268
0.0705433
0.0917295
0.0710118
0.040185
0.0758738
0.0924595
0.0765377
0.0923284
0.177722
0.0613926
0.0362228
0.0871821
0.0192749
0.056522
0.0985287
-0.023661
0.0439035
0.0564739
-0.0346264
0.0346273
0.00961788
-0.0523332
0.0875054
0.108315
0.0802307
0.108508
0.0667717
0.0299806
0.0353287
0.020505
0.0265987
0.0867291
-0.0143311
-0.0229088
0.0199768
0.0856471
0.0315294
-0.0223395
-0.0382285
0.0634589
0.0990467
0.0557411
0.0696782
0.0247944
0.0718488
-0.0315372
-0.0132114
0.0533186
0.0960296
0.0910558
0.0943306
-0.0379537
0.0969242
0.0753484
-0.0192664
0.0785702
0.0768164
-0.0522356
-0.0138802
0.06793
0.0561478
0.0689493
0.0900313
0.104232
0.0764412
0.0226392
-0.0273635
0.0912484
0.0541696
0.0788067
0.0275288
0.0750161
0.0870562
-0.0140631
-0.0343302
0.0753
0.0783903
0.111194
0.0819628
-0.0161454
0.0537313
-0.0590437
0.0550274
-0.0127877
0.0523861
0.0824941
0.0742884
0.01253
0.118302
0.0784312
0.177216
0.0289735
-0.0147006
0.0757279
0.0770886
0.0055564
0.0717323
0.100813
0.0346109
0.0752145
0.0769318
0.0452172
0.0768324
0.235271
0.0623979
0.0687612
0.0924089
0.0534423
0.0530835
0.0108361
0.0822908
-0.0215449
0.0739045
0.073376
0.0983468
0.0570312
0.0562613
0.110945
-0.0237409
0.0514161
0.0981138
0.0487909
0.00506341
0.0242838
0.00910697
-0.0479335
0.075867
0.0749814
0.0639661
0.102627
0.0555889
0.0343657
0.184516
-0.0512045
0.043412
0.0747418
0.0523165
0.18074
-0.0242342
0.103376
-0.0420152
0.0606001
0.0650721
0.105637
0.094631
0.099651
-0.0318667
0.00743022
-0.0150735
0.0737507
0.0770418
0.0282531
0.0230651
-0.00250505
0.152396
0.00863141
0.0564544
0.072011
0.0654946
0.0877574
0.0927138
0.0988428
0.0823796
0.0826929
0.0681361
0.0950862
0.0759737
0.108869
0.0739176
0.101287
0.0975348
0.127234
0.0788389
0.0740922
0.0376966
0.0660886
0.0524419
0.0059965
0.0541354
0.0336712
0.0986084
0.0329656
0.0403967
0.0678866
0.018277
0.139295
0.0503908
0.0623123
0.031678
0.00567635
0.0761556
0.0405713
0.0761227
0.074987
0.0728382
-0.0386134
0.0846253
0.036478
0.14042
0.0894173
-0.0286912
0.140984
0.0693476
0.00267096
0.0647266
0.0128572
0.033294
0.0649836
0.074997
0.0151649
-0.0540819
0.0773259
0.0871272
0.0134633
0.079556
0.0298658
0.0579877
-0.0526405
0.0768215
0.0845594
0.0389314
0.0175019
0.0541697
0.0817554
0.117298
0.0686261
0.0403884
-0.0426541
-0.0223618
0.0657201
0.0795933
0.0473778
0.018307
0.068083
-0.00941766
0.0393684
-0.0246268
0.140084
0.0717963
0.0662889
0.0811237
0.0762466
0.172621
0.0588915
0.0458969
0.0755331
0.0545919
-0.0238809
0.0756076
0.0647343
0.0336175
0.00139087
0.244169
0.0773722
0.0693315
0.0776113
0.0917054
0.0758386
0.0733229
0.101962
0.0199898
0.0855878
-0.0429454
0.0736399
-0.0366873
0.0547603
0.0681257
0.0965782
0.0356902
0.075421
0.0690875
0.0649385
0.0404137
0.115825
0.0660274
0.0449446
0.0832307
-0.0550148
0.0935713
-0.014367
0.0676515
0.074606
-0.0105444
0.0378819
0.0772369
0.0580916
0.113364
0.0798662
0.0743907
0.0933417
0.076037
0.112363
0.0884626
0.10509
-0.00742939
0.0487888
0.076071
0.0352521
0.179606
-0.0658286
0.0545116
-0.0681157
0.0623386
0.0756455
0.0525984
0.0497377
0.0611487
0.0888434
0.0168201
0.0721895
0.0456877
-0.0117766
0.0792757
-0.00510784
-0.00323782
0.079121
0.108722
0.0922197
0.14943
0.103132
0.0672656
0.116367
-0.0148351
0.0550368
0.0754258
0.0782523
0.0722096
0.0666113
0.0844755
0.0751538
0.210772
0.0724629
0.0734658
0.073628
0.0342697
0.0570889
-0.0135028
0.0401918
0.0946943
0.10059
0.110511
0.0849923
0.0500701
0.0739368
0.0410314
0.0988896
0.0853857
0.0767011
-0.0361476
0.0261688
0.0931679
0.0944269
0.143071
0.0585909
-0.0556497
0.0759831
0.112028
0.101082
0.0287213
0.0928565
0.0841495
0.0687516
0.0595575
0.0880434
0.150347
0.146339
0.146675
0.0960618
-0.0241154
0.069653
0.0393828
0.090342
0.100482
0.0530683
0.0912683
0.105335
0.0543644
-0.0514925
0.131438
0.0928103
0.0922035
0.0772225
0.0584503
-0.0210711
0.0402119
0.0820785
0.108788
0.0772657
0.0124186
0.111881
0.0356768
0.0840403
-0.0505954
0.0720248
0.129757
0.0775958
0.177229
-0.0105145
0.081053
0.0734532
0.101658
0.211015
0.0523545
-0.0217502
0.098176
-0.0460529
0.195889
0.0715416
0.0713649
0.0542564
0.0833041
-0.0169505
0.0409783
-0.0261075
-0.0502114
0.0240504
0.0316199
0.0782389
0.0447747
0.0129991
-0.028097
0.0907527
0.0732249
0.0362407
0.0548107
0.069947
0.0416263
0.0552672
0.0244903
0.0755923
0.0995105
0.0702201
-0.00233282
-0.0416787
0.0709298
0.0976281
0.0835649
0.0689002
0.0209412
0.0473801
0.0908695
0.0950902
0.0879428
0.0537633
0.0744242
-0.0445586
0.0852201
0.0460346
0.095073
0.106418
0.0396386
0.0390189
0.132759
0.107265
0.0677996
0.101819
0.0471263
0.0748927
0.080624
0.0736436
0.168739
0.0792569
0.0912746
-0.0338321
0.0489052
0.0658801
0.0782506
-0.0693079
0.150043
0.0532042
0.0741878
-0.03688
0.0731756
0.0690458
0.0702812
0.0417448
0.229327
0.0842413
0.0775969
0.0880533
-0.0224314
0.0245172
0.0276724
-0.0300228
0.0829244
0.0727634
0.0100172
0.083923
0.0723733
0.111514
0.0645605
0.0751385
0.0774898
0.0785802
0.0879123
0.0757164
-0.0525273
0.0805148
0.0575296
0.0791012
-0.0488684
0.0686616
0.0279431
0.0750899
0.040032
0.0102116
-0.0411101
0.041582
0.154516
0.0401003
0.039003
0.00814886
0.0245453
0.0156961
-0.00624506
0.0865684
0.0852693
0.0914012
0.0423843
0.0760132
0.0796417
0.0889176
0.174536
0.0882423
0.0662324
0.094395
0.0694349
0.149512
0.0827786
0.0894501
0.0467843
0.0724292
0.0949557
0.0997584
-0.0641419
0.0716355
0.0769121
-0.052728
0.214428
0.0755494
0.0904327
0.0757844
0.10107
0.0363525
0.0869528
0.0524993
0.0345876
0.0726024
-0.0185701
0.109666
0.0812939
0.00224171
0.0611339
0.0220463
0.00695912
0.105074
0.103209
0.037996
0.0779675
-0.0397909
0.0787932
-0.0446999
0.0655543
0.000241206
0.131457
0.0299541
0.0782333
0.0482986
0.175963
0.0316198
0.0447771
0.0906229
0.103032
0.0523351
0.0759222
0.0757998
0.103237
0.00236565
-0.0319739
0.0839361
0.0231425
0.0786163
0.133189
0.0785408
0.108829
-0.063285
0.0751984
0.104013
0.114079
0.0679859
0.226547
0.0813722
0.108732
0.0719653
0.001719
0.0762427
0.0631496
0.0964063
0.0799069
0.0778989
0.173981
0.0801756
0.0814841
-0.00552364
0.080735
0.0460101
0.152217
0.0999092
0.120397
0.0772142
0.00343054
0.0724663
0.121427
0.150794
-0.00288098
0.0433331
0.0254816
0.102483
0.0829052
-0.010802
0.0808663
0.0773354
0.210072
0.0485145
0.0833903
-0.0394366
0.141286
0.0974335
0.0699574
0.0811382
0.100633
0.0110239
0.105923
0.0368531
0.121698
0.0745143
0.044542
0.018375
0.0822392
0.0133723
0.0533679
0.0809949
0.00962793
0.0778039
0.0755366
0.0295291
0.0704876
0.062663
0.12463
0.0465093
0.127723
0.0555184
0.102193
0.0784564
0.0660063
0.113353
0.0829206
-0.0309968
0.221077
0.121072
0.0529458
0.0556956
0.065201
0.0767966
0.0372355
0.0442411
0.112159
0.0412339
0.0765916
0.0509818
0.0604043
0.0556329
0.0748819
0.0930958
0.17328
0.0766367
0.0849154
0.0698151
0.0486143
0.0896303
0.073782
0.0785449
0.0744514
0.002073
0.11094
0.0433519
0.102746
0.0373665
0.0181438
0.0756837
0.118441
0.068561
0.0788899
0.058231
0.0714599
-0.0177609
0.0778534
0.107881
0.0580435
0.06889
0.02601
-0.0170416
0.05792
-0.0558398
0.0724594
0.0966586
0.090202
0.0347435
0.0726581
0.0515331
0.106458
0.117521
0.055151
0.0768641
-0.0617042
0.0809923
0.123213
0.0811396
0.0770917
0.0811976
0.0849309
0.238544
0.0532383
-0.030711
-0.000195147
0.0387854
-0.0256477
0.0517237
0.144707
0.0735002
0.0963863
0.0835187
0.105604
0.0949963
-0.0236737
-0.0295899
0.037129
0.0729352
0.109195
0.0528324
0.0428622
0.143607
0.156749
-0.0515795
0.146778
0.0466236
0.0892997
-0.0149757
0.07344
0.0726602
-0.0152271
0.0980293
-0.0216697
0.113585
0.0967816
-0.0208359
0.0419265
0.0735137
0.112783
0.0661006
0.0680724
0.0681033
0.101198
0.232716
0.0326953
0.0152305
0.127028
0.0899621
0.0159143
0.051745
0.075871
0.0224677
0.100565
0.0781017
0.0426153
0.107712
0.0864877
0.0910176
0.05467
0.083728
0.122995
0.125018
0.0816815
0.076849
0.0753139
0.113491
0.151501
0.0648083
-0.0670076
0.0738298
0.09897
0.081392
0.0260684
0.134192
0.0749469
0.0428711
-0.0157085
0.0924921
0.131942
0.105386
0.0767332
0.0735905
0.0492788
0.0752279
-0.0027846
0.0755183
0.0900823
-0.0367871
0.0750994
-0.00622855
0.0432537
-0.0397669
0.0688871
0.0158993
0.069839
0.0783651
-0.0224544
0.126992
0.0552476
0.0710224
-0.0240552
0.0727293
0.0749893
-0.0215516
0.00226974
0.0888713
0.0402797
0.125843
0.0761175
0.11071
0.104273
0.0840676
0.0775212
0.134003
0.0594578
0.0701613
0.00182598
0.115538
0.0797153
0.00104452
0.0247382
0.0114939
0.0582407
0.102457
0.0792072
-0.0101749
0.131285
0.0532765
0.0718774
0.0828443
-0.0196218
0.0796788
0.111856
0.0479637
0.0753729
0.0568586
-0.0182909
0.0641945
0.0585204
-0.0549118
0.0798769
0.0441524
0.0996386
0.108451
0.0735884
0.0043487
0.0923788
0.054849
0.0617401
-0.000797758
0.0724035
0.0377221
0.0624969
0.0760695
0.0927748
0.00225202
0.0172858
0.0280066
0.0804959
-0.0113176
0.0694159
0.0418233
0.0756916
-0.0138142
0.0976226
0.120099
0.0924546
0.0112745
0.0721799
0.119421
0.0618398
0.0820107
-0.0271856
0.177364
0.018529
0.0748881
0.164828
0.0785944
0.0762922
0.0727967
0.00276852
0.191725
0.074892
0.080319
0.0739242
0.119835
0.0441042
0.107324
0.0955274
0.0447662
0.116913
0.15401
0.106792
0.0113836
0.103446
0.0648508
0.0683115
0.0913754
0.0891954
-0.0202825
0.0635848
0.0800346
-0.0427223
0.071404
0.0781541
0.110977
0.0573614
0.106039
0.108496
0.0374929
0.0527421
-0.00563719
0.0630776
0.0827599
0.106789
0.0710844
0.0675971
0.0400577
0.0955354
0.0707118
-0.00519684
0.162149
-0.00100484
0.102417
0.0193867
-0.000917147
0.102104
0.163931
0.0254253
0.0859053
0.0271203
0.105292
0.0831645
-0.0147073
0.088408
-0.0125635
0.161626
0.0442131
0.0441041
0.0509235
0.0983671
0.0601739
0.0687791
0.0363219
0.0812555
0.10482
0.0735391
0.0728895
0.22001
0.0662104
0.0661541
0.0860018
0.0633586
-0.0666548
0.0971973
0.0877831
0.0520284
0.105731
0.0976666
0.0887871
0.0927704
-0.0609195
0.0628614
0.0686287
0.0939593
0.0541407
0.0180405
0.135546
-0.0170565
0.0768171
0.0747743
0.0790796
0.0814695
0.0148523
0.0198294
0.127222
0.115475
0.0794827
0.0925
0.0290989
0.0874085
0.117093
0.0303008
0.0682039
0.0042201
0.0637129
0.0127167
0.0484738
0.140862
0.0729163
0.107063
0.0437362
0.00101908
0.0880754
0.0727719
0.0941749
0.0936742
0.0725751
-0.0201538
0.095196
0.158285
0.121762
0.0416932
0.0674407
0.076117
0.051903
-0.0106972
0.0598682
0.0732134
0.0735403
0.0470172
0.136508
-0.0552871
-0.024764
0.0999765
0.0730236
0.172566
0.133469
0.0477266
0.0810827
0.0662509
0.0637413
0.040765
0.143129
0.125435
-0.0277486
-0.0122039
0.00671225
-0.0363101
0.103146
0.0882949
0.0810555
0.072515
0.0755082
0.0789739
0.0277178
0.136936
0.242322
0.069288
0.131468
0.118474
0.0639269
0.0683647
0.0714686
0.075437
0.100012
0.0749139
0.069665
0.0222775
-0.00470062
0.064394
0.0603111
0.0429045
0.100645
0.0166313
0.085206
-0.0372136
0.083078
0.0984815
-0.0443148
0.0571477
0.0763673
0.103606
0.0472981
0.0138597
-0.021944
0.095985
0.0337813
0.0933033
0.122723
0.0612384
0.104944
0.00805138
0.0628093
0.0693855
0.0588761
-0.0182478
0.115466
0.0904919
0.0758919
0.103018
0.0762438
-0.0605091
0.0474249
0.0597239
0.0544581
0.0311608
0.0798681
0.068921
0.052703
0.103094
0.0731466
0.0790284
0.0763697
0.0604422
0.0599486
0.0788296
0.0930987
0.224136
0.119164
0.117369
0.0807156
-0.00968379
0.0345976
0.0493159
0.0738039
0.0695425
0.0986441
0.0673375
0.0443271
-0.0245444
0.1092
0.0367439
0.0537541
0.0742492
0.00954243
0.0131068
0.0667448
-0.0288458
0.0883666
0.0989994
0.144267
0.0619878
0.0685472
0.118281
0.04387
0.0911602
-0.0391349
0.0691138
0.160312
0.0637035
0.142515
0.0747495
0.0689045
0.0829194
0.0383131
0.118848
0.0285002
0.0660737
0.0898848
0.0672422
0.0742475
0.0786099
0.095023
0.0845991
0.164977
0.0657824
0.119304
0.0628249
0.0543345
0.0496423
0.0315153
0.0958661
0.069653
0.0528345
0.101763
0.0724915
0.155203
0.0645775
0.0756731
0.051384
0.0700735
0.0212995
0.091359
0.133167
0.0614485
0.0894667
0.0308137
0.0678853
0.124785
0.0729096
0.0818767
0.075987
0.237161
-0.0380091
0.0549195
0.110739
0.117167
-0.0593926
0.0136275
0.0213338
0.0884845
0.0806835
0.0163805
-0.00359265
0.108796
-0.0396293
0.0891574
0.0778857
-0.0175059
0.112211
0.16895
0.0617226
0.108023
0.0596615
0.0559665
0.0826438
0.0907374
0.227447
0.0434212
0.108134
0.137285
0.0649326
0.00759083
0.0885388
0.0828663
0.123396
0.04746
0.1001
0.0699521
0.0936321
0.0790377
-0.0206463
-0.0534018
0.0805287
0.110541
0.0124507
0.0890369
0.0520965
0.164586
0.0150615
0.165396
0.127687
0.100433
0.120492
0.0544122
0.0802186
0.00907907
0.0405838
0.107325
0.0860995
0.0265025
0.0425332
0.0803856
0.0179042
0.0762191
0.101028
0.0848401
0.064278
0.0938971
0.0796743
0.0705081
0.0725181
0.0752465
0.103595
-0.00457334
0.028674
0.11268
-0.0249031
0.0785579
-0.03762
0.0740384
0.21901
0.10766
0.109843
0.171934
0.0720534
0.0390418
0.104003
0.23785
0.0674733
0.0306385
0.0748236
0.0901219
0.100269
0.0904188
0.0904174
-0.0277077
0.0678104
0.0952803
0.158226
0.0131372
-0.0378744
0.0560115
0.0835877
0.0591455
0.0414864
0.0734307
0.133019
0.0746848
-0.00456323
0.0809153
-0.0263527
-0.019814
0.0908266
0.0314464
0.0589133
0.110011
0.0101926
0.0966694
0.150883
0.0613383
0.12166
0.0693558
0.0759448
0.0479583
-0.014434
0.0137364
-0.0269688
0.065222
0.1157
0.114943
0.0774102
0.0922595
0.111443
0.0938771
0.0678755
0.106174
0.0808022
-0.015193
-0.00720059
0.0274149
0.027172
0.0645425
-0.0339227
0.0396097
0.103744
0.0958642
0.0189071
-0.0491306
0.0478011
0.0198021
0.0910899
0.0726953
0.0949642
0.0664217
-0.0374309
0.0216258
-0.0684539
-0.0517369
0.0270371
0.0215433
0.0777712
0.0910022
0.115877
0.0102496
0.0982554
0.029953
0.128643
0.0566443
0.0919765
0.12948
0.0887783
0.117429
0.0536468
0.202101
0.103499
0.103763
-0.00867145
-0.000512727
0.0906011
0.0739942
0.0763584
0.0997585
0.10513
0.0735301
0.176175
0.0851095
0.0613104
0.0155734
0.0741623
0.0978804
0.079913
0.0765839
0.0543325
0.0784755
0.0565339
0.09018
0.0832792
0.03511
0.0911093
0.122721
0.0389403
0.0976596
0.163725
0.0701542
0.0755286
-0.0184567
0.0540908
0.0676789
-0.0348812
0.202117
0.0661015
0.0679248
-0.0276688
0.0784649
-0.00427159
0.0952162
0.084181
0.0769769
0.0697014
0.0884076
0.130795
0.0523153
0.10362
0.07092
0.0443607
0.072712
0.0765639
0.0776183
0.0859151
0.0410587
0.0727757
0.00171969
0.074639
0.113284
0.0134762
0.0912697
0.0750343
0.0198967
0.051841
0.0752152
0.0989266
0.0703934
-0.00354768
0.0303215
0.0899538
0.0804818
0.0807531
0.0760978
0.090846
0.0682561
0.0594354
0.0760555
0.0376284
0.034077
0.0682724
0.081261
0.0581931
0.00426379
0.0662175
0.0622742
0.202456
0.0737494
0.124911
0.00391903
0.0526195
0.0662953
-0.00481352
-0.0221788
0.0320102
0.105996
0.0595056
-0.018139
0.0165448
0.0527172
0.104559
0.0571157
0.083113
0.04885
0.18786
0.128439
-0.0375764
0.053982
0.0764068
0.0709387
-0.0341973
0.149353
-0.00312211
0.0733701
0.16569
0.0594954
0.0792771
0.13409
0.0570478
0.0856134
-0.0489244
0.0927266
0.0963133
0.0704946
0.0441483
0.0717599
0.0380884
0.0905733
0.0512465
0.0768105
0.0649495
0.0754555
0.0803555
0.0399753
0.0314492
0.0755111
0.110532
-0.0252758
0.0957469
0.0805732
0.104265
-0.0433715
0.0510052
0.075459
0.148187
0.033527
0.0274218
0.0239114
0.0692677
0.0818227
-0.00284511
0.120838
0.0652631
0.0730473
0.14661
-0.0256631
0.0999248
-0.0113313
0.0757558
0.0279288
0.00386743
0.0970708
0.0800178
0.0714833
0.0978446
0.149779
0.100288
0.0648678
-0.00293254
0.127573
0.073333
0.0955691
0.057708
0.100662
0.0906428
0.0631638
-0.0283804
0.0479088
0.031003
0.098832
0.107827
0.0760367
0.0615124
0.00770143
0.0748582
0.045092
0.0907065
0.0112032
0.0381284
0.0985548
0.054214
0.0493527
0.0892684
0.0711135
0.0770386
0.0888222
0.0530833
0.079315
0.0733362
0.231787
0.152459
-0.017981
0.011188
0.000770255
0.059823
0.0755462
0.130606
0.0565126
0.0567133
-0.00413383
0.0742439
0.0639026
0.020468
-0.0595315
0.100164
0.0818192
0.100342
0.0780188
-0.0334862
0.192406
0.0636657
0.0552227
0.172602
0.204096
0.100104
0.102612
0.191611
0.122315
0.0461578
0.0663282
0.135316
0.0838213
0.0536796
0.0483872
0.138368
0.105829
0.0123408
0.0876874
0.0874963
0.0564435
0.10018
-0.0153191
0.0977534
0.0588326
0.0825183
0.0645414
0.0879058
0.120232
-0.0267911
0.0791437
0.0546543
0.0360144
0.0313329
0.0786955
0.0698914
-0.00604705
0.0999875
0.0518757
0.0233195
0.0789777
0.162678
0.0711793
0.118524
0.0160221
0.0598118
0.0330228
0.217751
0.129066
0.0222631
0.111951
0.0581282
0.123486
0.0591227
0.0173908
0.0703478
0.0730965
0.103817
0.0639712
0.0667787
0.0267293
0.0801244
0.0815406
0.0180226
0.07021
-0.0332163
0.0888928
0.0645357
0.0900125
-0.0651459
0.174577
0.065974
0.0373418
0.0881877
0.0116684
0.0371563
0.205268
0.199377
0.0717389
0.100332
0.0286074
0.0719668
-0.0495302
0.0681948
0.0748073
0.0639481
0.00288963
0.123887
0.0390159
0.0941336
0.109522
0.168045
-0.0416596
0.0599688
0.0814782
0.00492199
-0.00641117
0.054667
0.0281866
0.042047
0.0372246
-0.0283296
0.0409127
0.0902067
0.0751788
0.0668293
0.0783383
0.0841924
0.0856552
0.0159072
0.0891064
0.00102396
0.0998577
0.111206
0.0721562
-0.0172041
0.089176
0.0557583
0.0601677
0.103768
0.130128
0.0889972
0.0747954
0.153239
0.0530275
0.0790012
0.0794399
0.0670256
0.105239
0.0768427
0.0938421
0.0773308
0.077237
-0.00125607
0.108663
0.0491797
0.0578184
0.00730028
-0.0577869
0.0011322
0.145721
0.0841215
0.0529227
0.127277
0.0495182
0.0328317
0.0589235
0.0881819
0.0763991
0.0745084
0.042453
0.0855509
0.0989121
0.119262
0.0900605
0.0875051
0.109517
0.151983
0.0757647
0.0988766
0.0691751
-0.00626615
0.0668997
0.0186036
-6.05711e-05
0.0533491
0.0920274
-0.0643412
0.0155474
0.0423509
0.109143
-0.00779059
0.0426275
0.0398215
0.093979
0.0867229
0.161375
0.0733385
-0.0112377
0.171998
0.0768194
0.0987055
-0.0127167
0.171332
0.0806663
0.00946586
0.155233
0.097824
0.109111
0.0344575
0.0540649
0.112745
0.0787713
0.0513553
0.0634171
0.040366
0.0754054
0.0896758
0.186691
0.0120012
0.0844421
0.0802511
0.103876
0.0992541
0.0720939
-0.000602033
0.0722677
0.0151145
0.028672
0.0882377
0.165653
0.248645
0.053321
0.105161
0.0650584
0.0624487
-0.0202688
0.0309946
0.0752402
0.0753498
0.0357281
0.102476
0.0741152
0.0282968
0.0456009
0.0765539
0.0888195
0.0781691
0.165649
0.024684
0.0742117
0.121868
-0.0101071
0.114173
0.240037
0.0794138
0.0796154
-0.0368108
0.0656097
-0.0626041
0.00405822
0.132524
0.0664665
-0.0641657
0.0700562
0.0896566
0.146572
0.0718697
0.00984464
0.0918643
0.218731
0.110662
0.0373445
0.0512084
0.0647583
0.0463225
0.0892296
0.0744603
-0.0137409
0.049078
0.141555
0.0728285
0.0608282
0.00379805
-0.0657499
0.0975924
0.0890426
0.0678147
0.214683
0.0725412
0.0564392
0.0657712
0.0307026
0.0540981
-0.0012898
0.121545
0.0984854
0.129998
0.0134984
0.0640483
0.0923126
0.0389147
0.197384
-0.0082727
0.133183
0.0960852
0.0419581
0.166004
0.0985252
0.0783556
0.100154
0.162862
0.0966397
0.085109
0.0858307
0.0384483
0.0535779
0.0693232
0.0989357
0.0584431
0.154017
-0.0344932
0.0796534
0.0266641
0.0310113
0.170918
0.0364092
0.0929795
-0.0676258
0.0898347
0.0237577
0.010799
0.0769633
0.155892
0.0988111
0.0720239
0.0764445
0.00527266
0.0739794
0.130974
0.060756
0.0270867
-0.0272936
0.101332
0.0520539
-0.0271355
0.100084
0.0631361
-0.0390794
0.0635053
0.0639336
-0.0565444
0.163954
0.0549719
0.0947024
0.0586145
0.0278716
0.118668
0.0738081
0.0659399
0.117288
-0.000838916
0.237722
0.0846937
-0.0517094
0.0865416
0.0536505
0.0665664
0.0738142
0.0930032
0.159997
0.0827318
0.122325
0.112123
0.0767478
0.0751488
0.0525554
0.00678569
0.0586982
-0.0198501
0.121199
0.177391
0.097464
0.0349133
-0.0469495
0.11335
-0.0157807
-0.0470639
0.0603909
0.0373572
-0.025968
-0.0499975
0.155672
-0.0319116
0.0990214
0.0907332
-0.0135004
0.00458224
0.067981
-0.0357406
-0.0422388
0.083753
0.101889
0.00978577
0.0430346
0.0898281
0.074634
0.0942853
0.121548
0.145929
0.0496083
0.0642272
0.0875148
0.0131388
0.0897441
0.136052
0.103752
0.0607212
0.0633703
0.103623
0.0599263
-0.00798142
0.133611
0.075107
0.141994
0.112049
0.0148589
0.0628795
0.0255537
0.100519
0.0981328
0.0896062
0.0749448
0.0257183
0.0495993
0.0611411
0.182989
0.0632074
0.0771503
0.17304
-0.0302217
-0.0182423
0.0782153
0.0224874
0.0879768
0.134798
0.157161
0.0756221
0.0942126
0.0566745
0.048532
0.150146
-0.0405352
0.0573298
0.109942
0.117379
0.0850913
-0.00027749
0.16953
0.109899
0.06561
0.0522275
0.0450559
0.0167487
0.0605394
0.0691811
0.0817028
0.0874498
0.0733275
0.0767898
0.0724897
-0.00568523
0.0489595
0.0984646
0.117595
0.0290785
0.0738554
0.160431
0.0752844
0.0776597
0.111606
0.067079
0.124033
0.0889525
0.0588916
0.120339
0.245315
0.0888435
0.0643445
0.225381
0.0699494
0.0395688
0.0850286
0.0649244
0.0610273
0.0267465
0.0305959
0.219769
-0.0139691
0.110947
0.16051
0.130056
0.213035
0.111673
0.0818491
0.0245358
-0.0288039
0.0898622
0.0692322
0.0427747
0.107401
0.129786
0.0531758
0.0773336
0.0273793
0.051334
0.0809216
0.0784839
0.214281
0.077429
0.159125
0.0431394
0.0769527
0.0506886
0.158841
0.0759628
0.162105
0.0754304
0.0733753
0.127064
0.0766483
0.0134554
0.161571
0.160421
0.167561
0.0969593
0.0727564
0.0741041
0.104861
0.148875
0.159363
0.0507533
0.0677154
0.148711
0.0984234
0.109302
0.165325
0.09733
0.072516
0.040874
0.0927545
0.0261351
0.0975748
-0.0247438
0.0372675
0.088088
0.0211953
0.0735888
0.0417081
0.0718177
0.0992581
0.0435541
0.0750892
0.130131
0.0557976
0.0968386
0.0780802
0.0967837
0.0818192
0.111267
0.21462
0.082202
0.0619456
0.0933139
0.0722103
0.136488
0.0615343
0.0795207
-0.0482003
0.131412
0.137101
0.101151
0.113183
0.0964152
0.102923
-0.0514243
0.19302
0.053979
0.077954
0.113652
0.108107
0.146646
0.103689
0.117127
0.142048
0.0950377
-0.0238534
-0.0148743
0.118159
0.100981
0.0396337
0.10262
0.0734473
0.0767174
0.0650696
0.0717346
0.0870422
0.122143
0.0666746
-0.0447613
0.124276
0.163315
-0.00647949
0.140749
0.087664
0.168957
0.0949751
0.103846
0.120692
-0.0320456
0.0238908
-0.0330147
0.0804191
0.0922801
0.0778625
0.0829206
0.13714
0.0764098
0.073595
0.0530192
0.15241
0.0301689
0.115298
0.0547817
0.0571216
0.0676425
0.0980223
0.0352627
0.067169
0.165201
0.0997429
0.121005
0.0365512
0.158188
0.0876508
0.0600075
0.0864314
0.0899468
0.0916089
0.102147
0.0527293
0.114311
0.098599
0.0550504
0.0829348
0.0691868
0.0803176
0.0466274
0.0961136
0.117602
0.0826177
0.0823658
0.0873646
0.0722697
0.0942196
0.113204
0.132006
0.126265
0.161192
0.0997785
0.0930685
0.113955
0.0650491
0.0255469
0.116326
0.0580539
0.0693685
0.09662
0.0797437
0.0975348
0.100594
0.00795554
0.13471
-0.0405575
0.0779941
0.0758077
0.0384928
0.0594828
0.0903415
0.118147
0.0696278
0.0767671
0.118381
0.212331
0.0763109
0.0589739
0.00693796
0.0250072
0.0544476
0.0383103
0.0870562
0.0918739
0.0969666
0.0848797
0.0588899
0.106099
-0.0326255
0.0497384
0.0579016
0.103573
-0.0685884
-0.0308106
0.052031
0.0928819
0.108698
0.0514022
0.0735514
0.0836747
0.134793
0.0584443
0.0621216
0.050926
0.0246172
0.0499294
0.0921805
0.151584
0.138231
0.103922
0.141265
0.213828
0.0826126
0.146239
0.0701468
0.0767107
0.10254
0.0412678
0.0783403
0.079411
0.075005
0.106119
0.0197361
0.0958657
0.0501868
0.0366124
0.0852638
0.0731679
0.0722896
0.0361791
0.0816621
0.213602
0.0816743
0.0750387
0.0441856
0.0714351
0.0863009
0.0771109
0.042849
0.0613504
0.0418987
-0.0615271
0.0881488
0.0215523
0.0726794
0.131511
0.124598
0.0455328
0.0808244
0.0271937
0.0703073
-0.0648009
0.0588204
0.0356675
0.0871942
0.0737601
0.020518
0.0285062
0.0932477
-0.0449938
0.0618204
0.103349
0.103645
0.0598371
0.117613
0.065492
0.00521
0.0796389
-0.00805731
0.0480944
-0.00850385
-0.00587766
-0.0614613
0.0267638
0.0962342
-0.0518012
0.0798982
0.0799884
0.0114962
0.0837182
0.075139
0.0930569
0.124975
0.0539548
0.0910461
0.0285575
-0.00883463
-0.0451312
0.119588
0.0175166
-0.00311885
0.0019919
0.115574
-0.0238371
0.0814156
0.0988061
0.091624
0.123795
0.0975786
-0.00216416
0.0641047
0.225505
0.0782437
0.0717351
0.176579
-0.00149272
0.0143783
0.0624906
0.130414
-0.0556282
0.0147982
0.114065
0.0706424
-0.0263088
-0.0110924
0.110133
0.0457833
0.0792307
0.116545
0.0414871
0.0693887
0.099509
0.0473892
0.0428232
0.0381343
0.0543698
0.0427261
0.0685117
0.092398
0.0792102
0.0688285
0.0675346
0.0653376
0.0924132
0.0799595
0.1345
0.105582
0.113165
0.0589124
0.0888456
0.0745664
0.108013
0.0692539
0.0686795
0.07036
0.10628
-0.0220809
0.155928
0.112996
0.0780255
0.00379667
0.0748637
0.100905
0.168204
0.0875895
0.124086
0.0814875
0.0373602
0.0633883
0.0914605
8.29809e-05
0.071177
0.189449
0.078406
0.0604622
-0.0215371
0.131214
0.0758646
0.0840589
0.059572
0.0576116
0.0828041
0.0821908
0.0433257
0.0122383
0.0832333
0.0615136
-0.00386074
0.224777
0.117737
0.104793
0.059928
0.133964
0.0414085
0.0818553
0.111626
0.0972699
-0.00727144
0.130872
0.0571165
0.093872
0.146539
0.101891
0.0635311
0.056281
0.0595865
0.0465153