/*--------------------------------*- C++ -*----------------------------------*\
| =========                 |                                                 |
| \\      /  F ield         | OpenFOAM: The Open Source CFD Toolbox           |
|  \\    /   O peration     | Version:  v2012                                 |
|   \\  /    A nd           | Website:  www.openfoam.com                      |
|    \\/     M anipulation  |                                                 |
\*---------------------------------------------------------------------------*/
FoamFile
{
    version     2.0;
    format      ascii;
    class       surfaceScalarField;
    location    "600";
    object      phi_0;
}
// * * * * * * * * * * * * * * * * * * * * * * * * * * * * * * * * * * * * * //

dimensions      [0 3 -1 0 0 0 0];
oriented        oriented;


internalField   nonuniform List<scalar> 
19765
(
-0.0445663
-0.0490662
0.0936325
0.00388249
0.120155
-0.124038
-0.0327969
0.0601874
-0.0273905
-0.123201
-0.183857
0.307058
0.236945
-0.247365
0.0104193
-0.199667
0.016076
0.183591
0.141226
-0.215389
0.0741638
0.0138193
0.0618113
-0.0756306
0.168608
0.14424
-0.312848
-0.122303
0.448945
-0.326642
0.136785
-0.0731438
-0.0636415
-0.043413
0.0445028
-0.00108979
-0.0767423
0.0166994
0.0600429
0.243494
-0.102269
-0.139985
0.316444
-0.176459
0.331308
-0.0943631
-0.210638
-0.0459742
0.256612
-0.303011
-0.110709
0.41372
0.0468331
0.0621054
-0.108939
-0.170734
-0.0201888
-0.163301
0.353223
-0.189922
0.332647
-0.542079
0.209432
0.514445
-0.181798
-0.049497
0.06894
-0.0194429
0.0433328
-0.0761297
0.159592
-0.29098
0.131387
-0.0375972
0.0419591
-0.0043619
-0.30644
-0.235639
-0.0349094
0.00690609
0.0280033
-0.153865
0.460368
-0.306503
0.0155587
-0.0633805
0.0478218
0.0612903
-0.0552515
-0.00603874
0.0741237
-0.0663768
-0.00774683
0.0644814
-0.034204
-0.0302774
-0.0527905
0.0996235
-0.247618
0.124416
0.447096
0.067349
-0.348274
0.264028
0.084246
0.315181
-0.0871836
-0.227998
-0.232277
0.0192883
0.212989
-0.0428687
0.154259
-0.111391
-0.0643986
-0.123476
0.187875
0.0663494
-0.0525301
-0.112297
0.15484
-0.0425438
-0.0584052
0.000291381
0.0581138
0.00798331
-0.164112
0.367586
-0.203474
0.294308
0.199845
-0.494153
0.173621
-0.164604
-0.00901693
0.636389
-0.374454
-0.261934
0.0541047
-0.038546
-0.0131181
-0.125783
-0.504542
0.350677
-0.0349094
-0.173343
-0.026324
-0.230411
0.166012
0.178597
-0.0132255
-0.165372
-0.320382
-0.0494116
0.369793
-0.360436
0.238133
-0.138231
0.0609839
0.0772467
-0.318212
0.107574
0.0505734
-0.370955
0.144705
-0.174523
0.0298184
-0.213576
-0.0187013
-0.131769
0.291361
0.0484469
0.206077
-0.254523
-0.141225
0.145107
0.0518018
-0.0406413
-0.0111606
-0.0363674
-0.00122983
-0.397881
0.0948703
-0.443736
-0.169437
0.613173
0.186467
-0.0417622
0.217086
-0.395787
0.178701
0.0532175
-0.208439
0.155221
-0.286617
0.129818
0.156799
0.324893
-0.549371
0.224478
-0.0440593
0.0529276
-0.00886833
-0.0587079
0.102968
-0.0442602
0.076819
-0.0236134
-0.0532057
-0.154381
0.17776
-0.0233791
0.186087
-0.396618
0.210531
0.0873593
-0.141672
0.0543128
-0.402529
0.219598
0.182931
-0.303588
0.430638
-0.12705
-0.0589007
0.000495453
-0.277851
0.122055
0.155795
-0.334587
-0.200192
0.53478
-0.0142025
0.112633
-0.0984304
-0.0978444
0.0836419
-0.373857
0.210557
0.468778
-0.301243
-0.167535
0.0511561
-0.0470982
-0.0040579
0.109381
-0.0461631
-0.0632179
-0.0500415
0.106596
-0.0565547
-0.0349081
-0.110829
0.145737
-0.108088
0.0371117
0.0709766
0.457721
-0.271634
-0.051496
-0.0211241
0.0726201
-0.154142
0.0418456
0.130148
-0.127948
-0.00220061
-0.155534
0.0380266
0.117507
-0.101852
0.39616
-0.372838
0.28834
0.0844986
-0.253476
0.0656189
0.187857
0.439772
-0.222686
-0.291463
-0.219913
0.511376
-0.00785499
0.0712027
-0.0633477
-0.0737952
-0.0644354
0.170633
-0.149598
-0.0210347
0.0822044
-0.0642228
-0.0179816
-0.104356
0.0805295
0.0238263
0.0553461
0.00594411
0.108342
0.0773108
-0.0386552
-0.0386556
-0.0785794
-0.0769547
0.0732619
0.000861794
0.0352413
-0.164493
0.129252
-0.113778
0.144399
-0.0306208
0.168424
-0.224021
0.0555974
-0.0779641
-0.0263917
0.130633
-0.165541
-0.176057
-0.213839
0.389896
0.390048
-0.50039
-0.0744739
-0.203377
-0.0551679
0.0921753
-0.0370074
0.205808
-0.0166494
-0.189159
0.0476251
0.014682
-0.0623071
0.35566
-0.168844
-0.186816
0.438061
0.198328
0.0270064
0.0415774
-0.0685838
0.0741438
-0.0203703
-0.0537735
0.131954
-0.170339
0.038385
0.0675634
-0.112905
0.00927257
0.103633
-0.428883
0.0140939
0.414789
-0.0137187
0.160692
-0.146973
0.269454
-0.100846
-0.265429
-0.107409
0.0734989
0.00870549
-0.0138575
-0.239619
-0.0243661
-0.0545495
0.0359997
0.00165809
-0.0376578
-0.0355521
-0.0110246
0.0465768
-0.12548
0.141667
-0.0161865
-0.0108844
-0.0325287
0.0167728
-0.0663855
0.0496127
0.181326
-0.00770584
0.301745
-0.573963
0.272218
-0.44894
0.11713
0.33181
-0.0471026
0.0566168
-0.00951421
0.0449797
-0.0613379
0.0163581
-0.297301
0.235844
0.0614572
-0.000101805
-0.219815
-0.128459
0.215934
-0.510106
0.294172
-0.18061
0.166891
0.330753
-0.57435
0.243597
0.134716
-0.177585
-0.0972761
0.0493425
0.0479336
0.0328179
0.0316634
-0.00273238
0.0848042
-0.0820719
0.0631087
-0.0154836
-0.145628
0.0318501
-0.210841
-0.0864605
0.386485
-0.632732
0.246247
0.0413745
-0.0838033
0.0424288
-0.137395
0.00504282
0.132352
-0.0740025
0.0496364
-0.0239941
0.067327
-0.0111108
-0.0757873
0.0432388
-0.0727959
0.0295571
0.127333
-0.140451
0.0164918
-0.0591112
0.0426194
-0.0331616
-0.0435806
0.0148663
-0.118051
0.103184
0.450279
-0.668421
0.218141
-0.130639
0.0113432
0.063722
-0.0750652
-0.323832
0.143785
0.180046
0.212897
-0.338577
0.12568
-0.0395149
-0.0396982
0.0792131
0.202837
-0.034413
0.0971584
-0.249295
0.152136
0.0649769
-0.0484851
-0.117972
0.187086
-0.069114
-0.132451
-0.124344
0.256795
0.0277
-0.456583
0.239618
-0.191171
-0.631427
0.67475
-0.0433225
-0.137017
0.0115366
0.157486
-0.0255316
0.148246
0.00923956
0.0685373
-0.0271628
0.0646501
-0.0196703
-0.081496
0.073641
0.0501497
-0.0859871
0.0272792
-0.240672
-0.13964
0.380312
-0.241502
0.195528
0.0804208
-0.037182
0.070166
-0.0653586
-0.00480747
-0.112649
-0.0158466
0.128496
-0.013285
-0.0749684
0.0882534
-0.0851154
0.243385
-0.15827
-0.0392337
-0.0628798
0.102114
-0.0750512
0.054681
-0.155784
-0.0187395
0.174524
0.0590571
-0.235486
0.176429
-0.292884
-0.156057
-0.159745
0.183117
-0.0233723
0.0980312
0.0321171
-0.0646762
0.0151792
-0.535035
0.0912992
0.0688302
-0.0418238
0.0883807
-0.101666
0.100793
-0.0134341
-0.245689
0.433112
-0.187423
-0.0703352
0.0632288
-0.0531629
0.30767
-0.254507
-0.291624
0.238461
-0.286376
0.14639
-0.678064
0.249509
0.428556
-0.137409
0.291191
-0.153782
-0.091222
0.0875433
0.00367871
0.23095
-0.444772
0.213822
0.0324086
-0.0655703
-0.124135
-0.0132605
0.620217
-0.279481
-0.0319991
-0.0260397
0.0580388
-0.139572
0.0892923
0.0502794
0.0320857
0.261265
-0.460713
0.199448
0.468802
-0.167056
-0.0256024
0.217945
-0.192343
-0.160749
0.00649681
0.154252
-0.209792
0.00632429
0.203468
-0.0216789
-0.374108
-0.42422
0.570036
-0.145816
0.159513
-0.0112668
-0.228797
0.42778
-0.198983
-0.0346728
0.224428
-0.189755
0.0748196
-0.114053
-0.433534
0.257477
0.0599201
-0.048577
0.124268
-0.0473932
-0.0768746
-0.079221
-0.0694667
0.148688
0.0699284
0.000237638
0.167191
-0.208509
0.0413181
0.417748
-0.124768
0.139634
0.0367027
0.0726783
-0.178271
0.409221
0.0744976
-0.0577249
-0.321041
-0.286838
0.607879
-0.112162
0.562441
-0.0669857
-0.0615768
0.128563
-0.288608
-0.405909
0.177112
0.3205
-0.202731
-0.11777
0.0362308
0.108168
0.0460009
0.0907844
0.194082
-0.193821
-0.0838092
0.00633072
-0.0418829
-0.147491
-0.176341
0.0125354
-0.0767582
-0.0844383
0.0449233
0.0516086
0.0257022
-0.0889399
-0.00228208
0.211726
0.317924
-0.52965
0.0912984
-0.128159
0.0368611
0.24948
-0.0840947
-0.165386
-0.139601
-0.00515776
0.144759
-0.0613092
-0.0359669
0.0927713
-0.0545184
-0.0382528
0.156291
-0.580511
-0.0974585
0.1327
-0.0743442
0.0228482
-0.00683078
0.185428
-0.107676
0.229732
0.261917
0.0585838
0.0583959
-0.07952
-0.0825457
0.0946443
-0.014022
-0.0806223
-0.411588
-0.266476
0.516655
-0.272166
-0.0415313
-0.0552092
0.0967405
-0.199199
-0.20333
0.0310753
-0.166725
0.135649
0.0123258
-0.0669352
0.0546094
-0.00346351
-0.0508878
0.0675872
0.0446358
-0.0398952
-0.0047406
-0.0573277
-0.082244
0.196947
0.250149
0.186049
-0.0188573
-0.0552747
-0.253252
0.308527
0.0392665
-0.0392665
-0.322922
0.277784
0.0451381
-0.0345525
0.0464815
-0.0119291
0.166445
-0.175789
0.00934394
-0.127322
0.0953733
0.0319488
-0.284918
0.584643
-0.299725
-0.0504474
0.0817565
-0.0313091
0.212245
0.135001
-0.347246
0.130191
-0.0542258
-0.0759653
-0.139071
0.0652754
0.176673
-0.251147
-0.218436
-0.257068
0.475504
0.010217
0.116685
-0.126902
0.0964499
-0.119711
0.0232611
-0.0358515
0.0579757
-0.0221242
-0.287055
0.0613529
0.225702
-0.0839178
0.02875
0.0422747
-0.00627504
-0.0510783
0.0779002
-0.0268219
0.159826
-0.141441
-0.0183853
-0.0345754
0.107808
-0.117981
0.0101738
0.141045
0.108435
-0.0424214
-0.0483415
0.0907629
0.188946
-0.0225001
-0.413451
0.214252
-0.135919
-0.059243
0.0565106
-0.257217
0.172101
-0.251914
-0.0990293
0.350944
-0.143095
0.0173121
0.231369
-0.035485
-0.195884
-0.0676085
0.0855451
-0.0179366
-0.0307574
0.0705903
-0.0398329
0.0515911
-0.134878
0.0832868
-0.208584
0.129363
-0.128722
0.0160728
-0.0541296
0.0182781
0.0589577
0.0332176
-0.18277
0.0343341
0.148436
-0.324349
0.0750545
0.143205
-0.160791
0.017586
0.0761991
-0.0203472
-0.0558519
-0.255973
0.513376
-0.257404
-0.145683
-0.0150656
-0.0285419
-0.106751
-0.0363443
-0.188708
0.449973
-0.211032
0.176359
-0.126766
0.271006
0.129118
-0.266527
-0.0628506
0.0353248
0.0439986
-0.180966
0.136967
-0.240193
0.0304002
0.0100827
0.10255
-0.142985
0.202042
0.0506517
-0.092183
0.105604
-0.0711665
0.118482
-0.0473156
0.017478
-0.0644543
0.0469763
0.0717523
-0.0217
-0.0500523
-0.425173
0.184501
-0.07355
-0.0655206
0.0102283
-0.0412925
0.0422574
-0.000964956
0.211826
-0.00601765
-0.0412086
0.0736173
0.21605
-0.197123
-0.0189273
0.0473685
0.0768992
-0.0157902
0.0757103
0.393544
0.110645
-0.00283789
-0.0210157
-0.0534992
0.0745149
-0.0458115
-0.00129105
0.0794995
-0.00720534
-0.0722942
-0.00215187
0.0142232
-0.117809
0.103585
-0.174183
0.0562109
0.0350753
-0.0753741
0.0402989
-0.225898
0.185841
0.0400566
-0.0337747
-0.0471004
0.080875
-0.0470757
-0.188411
-0.201258
-0.223915
0.0381081
0.187843
0.167818
-0.0659792
0.0839846
0.0573142
-0.107356
0.14159
-0.29569
0.154099
0.189765
-0.20299
-0.0694161
-0.057906
-0.234111
-0.0902379
0.0552873
0.00936279
-0.0461103
0.0534889
-0.00737864
0.153711
-0.126561
-0.0271506
0.0152394
-0.039422
0.000157077
0.0392649
0.143243
0.0104684
-0.0414675
-0.040018
0.0814855
-0.397678
0.145763
-0.177317
0.148775
0.0546627
-0.0833385
0.0286758
0.000576535
0.0409239
-0.081713
0.0407892
0.0353045
-0.110174
0.074869
0.30942
-0.16783
-0.100732
0.0502842
-0.1623
0.0357389
0.41503
0.0453386
0.298937
-0.119201
0.526793
-0.19604
-0.0218295
0.0628724
-0.0410429
-0.0758649
0.110446
-0.0345807
0.040723
0.0322969
0.0195049
0.020674
-0.130141
-0.156235
0.0669657
-0.0116784
0.176597
-0.184886
0.00828889
0.0850693
0.010537
-0.0956062
-0.402618
0.337108
-0.592101
0.254994
-0.00797129
0.128655
-0.175699
0.0470436
-0.211214
-0.22232
-0.0864848
-0.00237576
0.0888606
0.150252
-0.00700955
0.0356994
-0.0676986
0.113603
0.113901
-0.227504
-0.051282
0.0655896
-0.0143075
0.063142
-0.0508162
0.0104422
-0.0973668
-0.189688
-0.00977397
0.0630473
-0.0532733
0.043381
-0.0375394
-0.00584156
0.0517852
0.0608827
-0.112668
-0.108089
0.388683
-0.280594
-0.0722462
0.104715
-0.032469
-0.139428
-0.274024
-0.187098
-0.0995188
-0.179575
0.0198297
-0.192222
0.174677
0.0175453
-0.633425
0.414336
0.219089
-0.21625
-0.164274
0.380524
0.332442
-0.178545
-0.153897
-0.123131
0.0252866
-0.144188
-0.1901
0.334287
-0.0290616
-0.0169393
0.0460009
-0.0517068
0.0793289
-0.0276221
-0.423231
0.540035
-0.116804
0.1597
0.0196
-0.1793
-0.0823779
0.0516205
0.0645337
0.0216381
-0.0861719
-0.289479
0.159338
0.188705
-0.161745
-0.0269606
0.0149585
0.168159
-0.0568146
0.0921191
-0.0402813
0.00554675
0.0347346
0.366645
-0.222859
0.101419
0.162005
-0.263425
-0.0567698
-0.0186046
0.0753744
-0.0834041
0.0684523
0.0149518
0.206518
-0.178711
-0.0278068
-0.109184
0.0333189
0.175384
-0.0467292
-0.491737
0.170697
-0.175509
0.213925
-0.0384165
-0.135285
0.145502
0.161251
-0.308742
-0.0154538
0.0531364
-0.0376826
-0.160831
-0.289744
0.258948
0.0307956
-0.108501
-0.0114137
0.119915
-0.232994
0.0194185
-0.0886009
0.00211607
-0.0788223
0.0734255
0.00539681
-0.327322
-0.306103
-0.315026
0.488177
-0.173151
-0.102747
0.12953
-0.0267834
-0.55512
0.240094
-0.130206
0.0980969
0.0321095
0.281445
0.31557
0.105325
-0.0205212
0.155623
-0.578853
-0.0565155
0.115292
-0.0587763
0.0913436
0.0197311
-0.111075
0.162219
0.209502
-0.371721
0.0679029
-0.0511829
-0.01672
0.108219
-0.178553
0.0703344
-0.0497153
0.0629908
-0.0132755
0.5218
-0.310074
0.0329301
-0.0999158
-0.0127442
-0.0232737
-0.0300303
0.053304
-0.339273
0.175161
-0.047677
-0.120059
0.164057
-0.0773934
0.0923566
-0.0149632
-0.0164505
-0.0650455
0.286367
0.144271
0.106477
-0.282816
0.15605
-0.0108654
-0.171905
-0.0345884
-0.00670403
-0.0839385
-0.0241498
0.0526039
0.015299
-0.000587645
-0.112318
0.0027397
-0.140078
0.352323
-0.0852062
0.0439976
-0.142159
0.0354081
0.0133935
0.182257
-0.0740386
-0.0368566
0.0471889
-0.0103323
-0.0670541
0.0576646
0.00938954
0.10371
0.0165232
-0.120233
0.193822
-0.187765
-0.00605736
0.0329533
0.0359403
-0.0688936
0.0614549
-0.0439769
0.2657
-0.103175
0.0822579
0.0209167
-0.205537
-0.0274576
0.0129312
-0.0413196
0.012258
-0.155797
-0.0857779
0.0457574
0.0400206
0.0412771
0.030785
-0.0720622
-0.0585506
0.0430969
-0.0193715
-0.063871
0.0832424
-0.0953177
0.0556195
-0.0393086
0.0603183
-0.0210097
-0.0685804
-0.0253004
0.0938808
-0.176229
0.436143
-0.259914
-0.530112
0.274139
0.0596022
-0.0557302
-0.00387197
0.0171334
-0.105457
0.0883241
-0.107492
0.134505
-0.0270129
0.185084
-0.170132
-0.0149516
-0.0844453
0.0132788
-0.0986393
0.112863
0.0369266
0.0558447
-0.274345
-0.255767
-0.0206909
-0.0543603
-0.0378907
-0.00792083
-0.00390728
0.0332534
-0.0293461
0.0425961
0.142487
-0.410522
0.234293
-0.0658006
0.102912
-0.239751
0.491328
-0.251578
-0.033413
-0.00600897
0.0119166
0.0615823
0.0830808
-0.0185471
0.584718
-0.240098
-0.34462
0.442243
-0.11735
-0.0435344
0.0786097
0.478178
-0.327841
-0.150337
-0.081263
0.0366967
-0.438179
0.59447
-0.104797
0.102156
-0.059999
-0.0252072
0.272732
0.184989
0.255051
0.172729
-0.534033
-0.00417511
0.538208
0.102185
-0.072072
-0.0301133
0.0313017
0.205448
-0.416662
0.173364
-0.145014
-0.0283499
-0.0557099
-0.0223717
0.0780816
-0.101857
-0.29185
-0.31676
0.60861
-0.583922
0.42827
0.155652
-0.0055081
0.0523179
-0.0468098
-0.193502
-0.372164
0.565667
-0.25189
0.0156629
0.236227
-0.0339316
0.0339316
0.420077
0.164641
-0.00807259
-0.0322087
0.0101597
0.150532
-0.480337
-0.090446
0.570783
-0.0687769
0.101668
-0.032891
-0.0146873
-0.133865
0.0263729
-0.133195
0.0304486
-0.0196805
0.110979
-0.0972443
0.25925
0.0247919
0.333367
0.144811
-0.145752
0.187738
-0.4123
0.0275707
0.0577721
-0.0853428
-0.0720802
-0.00674218
0.154165
-0.208516
0.0543504
-0.147954
0.534439
0.0358287
0.152877
0.0829401
-0.00344054
0.170079
-0.159155
-0.0109247
0.111248
-0.0783181
-0.16062
-0.0199896
-0.0605645
-0.0390794
0.0996439
0.00109727
0.1755
0.0360868
0.0168408
-0.0663472
0.0565733
0.23533
0.122761
0.297316
-0.162712
0.323963
0.102608
0.140886
-0.183087
0.040102
0.0582759
-0.00567202
0.0670338
-0.10348
0.0364467
0.0681151
-0.0845656
0.0273284
0.454143
-0.331382
0.466034
-0.193302
0.0421277
-0.0835952
-0.0595839
-0.00403514
0.063619
-0.194475
0.0906082
0.103867
0.0108405
0.25817
-0.154646
-0.103524
0.222572
0.188517
-0.41109
0.0693293
-0.0296046
-0.0397247
-0.0311153
-0.0319642
0.0649176
-0.137859
0.00194024
0.0914086
0.000947975
-0.0727829
0.0326247
0.0401582
0.0458154
-0.0676449
-0.401846
-0.182076
-0.0415069
0.0039675
0.0585859
-0.0792769
0.0597756
-0.0807913
0.0159713
-0.121209
0.105238
-0.0107795
0.0468662
0.21446
-0.0602945
-0.52809
-0.48409
0.265654
-0.0409096
0.0939236
-0.053014
-0.116248
-0.202551
0.318799
-0.337963
0.211872
0.126091
0.107118
-0.23957
-0.121138
0.0819959
0.0391421
0.0323769
-0.0578172
0.0254403
-0.043422
0.0419976
0.00142446
0.0186671
0.0224575
-0.0650038
0.0425463
-0.574897
0.324114
0.250783
-0.293739
0.0418489
-0.109057
-0.213865
0.170545
-0.0294999
-0.0776271
-0.332895
-0.282949
-0.291948
0.0147665
-0.101134
0.0863674
0.028714
0.144152
0.0569436
-0.0624516
-0.102753
-0.528674
0.0576077
0.000668208
-0.110597
0.0490198
0.209185
-0.234787
-0.171087
-0.147124
-0.435207
-0.0032778
0.438485
-0.101465
0.110737
0.0784525
-0.217964
0.139511
0.00939497
-0.148995
0.240705
-0.0917099
0.0130613
-0.0499179
0.0308441
-0.319778
0.595952
-0.276175
0.0559945
0.0226227
-0.0786172
-0.403396
0.202137
0.383721
0.0789193
-0.462641
-0.104975
0.317872
-0.0639911
0.0127091
-0.112466
0.0345016
0.0748316
-0.109057
0.034225
0.214281
-0.0373833
-0.176898
0.0181069
0.197293
-0.215399
-0.00417786
-0.133681
0.104633
-0.0530422
0.283298
0.258276
-0.541575
-0.148446
-0.0246806
0.173126
-0.0116514
0.0517568
-0.0401054
-0.0430956
0.00320043
-0.0085029
0.0781618
-0.0696589
-0.0609946
0.0493432
0.649507
-0.378259
-0.271247
-0.0257893
0.196934
-0.171145
-0.0342687
-0.00566764
0.0399364
-0.644102
0.232514
-0.101767
0.0460918
0.0556757
0.0156021
-0.364173
0.299762
0.064411
-0.259809
0.175999
0.168387
0.017662
-0.0396704
0.00540166
0.170823
-0.65116
0.0291065
0.146567
-0.175674
-0.108673
0.108012
0.000660492
-0.0564336
-0.0132345
0.0696681
-0.540932
0.484622
-0.27137
-0.213252
-0.00940122
0.11056
-0.101159
0.448264
-0.262837
-0.185426
0.116307
-0.12264
0.00633354
0.0487284
-0.04424
-0.00448839
-0.0203516
0.116801
-0.499486
0.242418
0.0518555
-0.0367664
-0.0150891
-0.0853492
0.0229257
0.0624235
-0.0967057
0.0244595
0.271222
0.177041
0.0611601
0.0179928
-0.0791529
-0.000740706
0.117047
-0.0386513
0.0458034
-0.00715212
0.144815
0.202857
-0.575021
-0.301039
-0.198447
-0.073154
-0.152744
-0.483266
0.263353
-0.00227404
0.0936176
0.151642
0.106528
0.0682654
-0.0501438
-0.0181216
0.289287
-0.450921
0.161634
0.0231726
-0.114264
0.0910912
-0.0411353
0.00248396
0.361156
-0.170703
-0.190453
0.433889
-0.211317
-0.0855427
0.0770398
-0.016827
-0.0415832
0.0584102
-0.0836726
0.108366
-0.0246935
0.044528
-0.0589513
0.0144233
-0.293508
-0.241616
0.535125
-0.275726
-0.273646
-0.0494871
0.0234474
-0.327451
-0.34097
0.36573
-0.618
0.252271
0.11714
-0.310638
0.193498
-0.0419395
0.00738708
-0.065219
-0.0472467
-0.0544464
0.0662943
-0.0118479
-0.333439
0.225351
0.0644918
-0.0838633
0.0846359
-0.0228246
0.079833
-0.51504
-0.00436286
0.115611
-0.0274666
0.102298
0.445712
-0.156425
-0.177416
0.460714
-0.205502
0.0177373
-0.00615865
-0.102514
0.0430809
-0.0983675
0.0552866
-0.175493
-0.0300086
0.0553752
0.0128901
0.181422
-0.349821
0.168399
0.0608768
-0.00127459
-0.361035
0.266867
0.094168
0.0268662
-0.0944747
0.062314
-0.0299371
0.224176
-0.463927
0.0736955
-0.151028
0.145456
0.00557139
-0.345108
-0.298994
-0.141706
0.0048952
0.136811
0.0901622
-0.0470814
-0.234625
-0.129548
-0.368737
0.173592
0.195145
0.324427
-0.19868
-0.125747
0.324953
0.140644
-0.465598
-0.156393
-0.214025
0.232131
0.0423199
0.0270095
-0.0181136
0.161319
-0.0652579
-0.0200913
-0.506894
0.232549
-0.0136689
-0.0718738
0.0867648
-0.0493085
0.00221037
-0.0803336
0.103506
-0.0109257
-0.0557173
0.066643
-0.0314386
0.060098
-0.0286594
0.292551
0.304464
-0.0254435
-0.03216
0.0576035
-0.232196
0.215021
0.0171756
0.362708
-0.20049
-0.201961
-0.171897
-0.198249
0.17246
-0.498136
0.297943
-0.0650885
0.194907
-0.0369589
-0.00436064
0.0384885
0.0133669
0.040154
-0.0384959
0.159555
-0.128479
-0.387141
0.309514
-0.182537
-0.0403919
0.222929
0.315348
-0.194189
-0.121159
-1.14139e-05
0.159711
0.0277019
0.0551322
-0.0828341
-0.453652
0.168735
-0.122777
0.113376
-0.0651068
0.0822402
0.0422022
-0.0443025
0.00210027
0.37219
0.257341
-0.629531
-0.215296
-0.239049
0.454344
0.318301
-0.484328
0.166028
-0.47931
-0.205783
0.387205
0.397815
0.0487802
-0.0843786
0.0355984
0.604571
-0.333276
-0.271294
0.018891
-0.219138
0.487892
-0.268754
-0.0165563
0.0671888
-0.0506325
-0.0147
-0.045164
-0.0276189
-0.190022
0.209524
-0.019502
0.068979
-0.0583884
0.017725
0.213644
0.163823
0.00945887
-0.465577
0.24644
0.157851
-0.136843
-0.0210086
-0.104279
-0.110025
0.214304
0.0129994
-0.0583177
0.0453183
-0.0227299
0.067258
0.0346755
-0.0407906
0.00611509
-0.066472
0.121696
0.312488
-0.187329
-0.125159
-0.04502
0.158623
-0.556874
0.0108796
0.545994
-0.0197277
0.403873
-0.0639947
0.034744
0.0292506
-0.0208863
0.110179
-0.111964
0.0349754
-0.0914908
0.155796
0.0264615
-0.372864
-0.126146
0.499009
-0.137381
-0.0043258
-0.376738
0.174777
0.0713812
0.0467512
-0.118132
-0.17198
0.0136492
0.158331
-0.171991
-0.0345128
-0.00890926
-0.131889
0.126682
0.0052062
0.233972
-0.527481
0.00682391
0.283914
0.0693083
-0.137012
0.127796
0.00921591
0.478068
0.196682
0.0612384
0.044087
-0.160141
-0.00808372
0.0502859
-0.05627
0.0723769
-0.0161069
-0.204021
0.1469
0.0571209
-0.1666
-0.194435
0.131262
0.184085
0.596148
-0.336694
-0.259454
0.210086
0.317096
-0.527182
-0.0220039
0.0701747
-0.263694
0.193519
0.156781
0.0393771
-0.221914
0.25104
0.158821
-0.144017
-0.0148033
-0.0529167
-0.0866949
0.073026
0.0998033
0.00777526
-0.107579
0.00731706
-0.180129
0.401184
-0.221055
-0.0555141
-0.148507
-0.592731
0.224236
0.368495
0.0961774
0.0771865
-0.000514661
-0.0364442
0.14511
0.692497
-0.327367
-0.36513
-0.0229592
-0.114052
0.0777848
0.0256947
-0.10348
-0.0525801
-0.0252163
0.0777963
-0.12619
-0.00569806
0.128124
-0.232403
-0.0535158
-0.0128315
-0.09665
-0.0263121
0.122962
0.539965
-0.0886374
-0.201106
-0.0777179
0.240433
-0.162715
0.224536
-0.41197
0.187434
-0.0745012
0.0239036
0.00791274
0.0115277
-0.0677977
-0.0913502
0.00536312
0.0846471
-0.0209251
-0.170762
-0.00777547
0.178537
0.0417032
-0.172541
0.19876
-0.0262191
-0.0564062
-0.0128352
0.0692413
-0.0243039
0.0600034
-0.556062
-0.000522309
0.556585
-0.0168435
0.153513
-0.231231
0.0178537
0.246174
-0.0842055
-0.00892839
0.0510996
-0.0421712
0.243245
-0.0533966
-0.189848
-0.317393
0.609944
0.200722
0.13172
-0.0865243
-0.0473403
-0.0731961
0.0196969
0.0111431
-0.490937
0.26213
0.228807
-0.0283171
0.181538
-0.0257424
-0.119695
-0.0090271
-0.00822338
-0.0337162
-0.253287
-0.109516
0.362803
0.22944
-0.284715
-0.0658893
-0.0174492
-0.161069
-0.128411
-0.267639
0.170395
-0.427129
-0.106904
0.00261812
-0.422179
0.189431
0.232748
-0.00711702
0.0455636
-0.0384466
-0.0236251
-0.0349255
0.0287436
-0.142868
0.114125
-0.0228076
0.078802
0.0211304
0.235675
-0.175133
-0.0605422
-0.0543884
-0.0608378
0.115226
0.361375
0.0386342
-0.400009
-0.0567734
0.147382
0.0335209
-0.0786993
0.0451785
0.561925
-0.301719
-0.260206
-0.0281505
-0.0445109
0.0726613
0.585773
-0.261659
-0.181974
0.0174812
-0.56594
0.178799
0.0331492
-0.0370565
0.101013
0.014292
-0.115305
0.0253403
0.0521211
-0.0774614
-0.0248441
0.0641382
-0.0392941
0.218132
-0.398901
0.180769
-0.0418903
0.119396
-0.0480149
0.043362
-0.0688055
-0.160774
-0.304803
0.0421754
-0.00749993
-0.055623
0.0831937
-0.600632
0.227769
0.0174618
-0.137157
-0.0691872
0.0509969
0.0181904
0.0299193
-0.0986962
-0.374627
-0.188517
-0.404214
-0.160116
-0.080077
-0.0079753
-0.170186
-0.00938914
-0.0109143
-0.140049
0.150963
0.099235
-0.115061
0.0158259
0.36788
-0.143344
-0.378541
0.204217
0.174324
-0.0115183
0.168986
-0.385235
-0.0309871
0.0887592
0.270624
-0.19059
-0.080034
-0.307602
0.550138
-0.242535
0.570913
-0.23064
-0.340273
0.411042
-0.192911
0.411527
-0.195309
-0.216218
0.0534202
-0.0943298
-0.240511
-0.266383
0.0229456
0.0802788
-0.103224
-0.203921
0.401208
-0.197287
-0.14497
-0.194303
-0.269232
-0.296708
0.0333164
0.0201725
0.377391
-0.458956
0.0815652
-0.0170656
0.112439
-0.178406
-0.19033
0.0284739
0.0107926
-0.118497
-0.00711795
0.125615
-0.0465954
0.00235536
-0.242124
0.346814
-0.10469
-0.0646341
0.0806054
0.0727564
-0.0501337
0.252888
-0.182713
-0.0541235
0.0433441
-0.0126892
-0.214663
-0.0138334
0.155352
-0.141519
-0.0150244
-0.0574883
0.0725127
0.0978768
0.00431773
-0.102195
-0.0477091
0.0607084
0.070965
-0.0791598
0.00819482
-0.00924258
-0.0300239
-0.570193
0.250415
-0.194902
0.0241404
-0.358637
0.155918
0.202718
-0.100084
-0.00841661
-0.0576182
-0.0441493
0.227243
0.262894
-0.490138
0.113808
-0.314898
-0.285735
0.155567
-0.00839232
-0.147175
-0.247538
0.151394
0.0961444
-0.379291
0.126039
0.0564465
-0.0275371
0.0733525
0.0352842
-0.0589093
-0.0192002
0.172743
-0.153543
-0.0431028
-0.0062057
-0.13018
0.0436558
-0.115022
0.0762472
0.0387746
-0.0192796
0.0873947
0.102644
-0.024859
0.279622
0.0349191
-0.6193
0.217251
-0.114643
-0.00263648
-0.0312952
0.0995119
-0.154814
-0.214772
0.369585
-0.0695388
0.0529825
0.208554
0.0250521
0.163811
-0.12284
-0.159976
0.160516
-0.140235
-0.0202814
-0.0416743
-0.0189597
0.060634
-0.0213886
0.0799745
-0.0616142
-0.0213299
0.0829441
-0.0355141
-0.0317716
0.0672857
-0.073232
0.0187136
-0.0155129
0.0632866
-0.0477737
0.216982
-0.0312482
-0.185734
-0.0814914
0.0243711
0.0571203
-0.501673
0.27087
0.230803
0.0127785
-0.563548
0.327522
0.236026
-0.0323629
-0.134362
-0.150227
0.00454398
0.0289372
0.195442
0.216085
0.0471543
-0.300441
0.0366198
-0.152294
0.115674
-0.0057767
0.0288394
-0.101983
0.101879
-0.040641
0.0815523
-0.0444818
-0.0370705
0.347206
-0.142258
-0.204947
0.584949
-0.303504
-0.30373
-0.135536
-0.101291
0.236827
0.0269386
-0.0438195
-0.0532832
0.0971026
-0.142291
-0.105247
0.0242633
0.218982
-0.203459
-0.197784
0.156812
0.0409714
-0.260148
-0.241526
0.0556434
0.0874725
-0.143116
-0.0590386
0.0712432
-0.0122046
-0.178279
-0.0327527
0.0600041
-0.0176843
0.0409982
0.160515
-0.201513
0.000340314
-0.430279
0.429939
-0.0930569
0.0584278
0.0346291
-0.0151337
0.310681
-0.295547
-0.0344408
-0.280522
-0.31158
-0.179033
0.14667
-0.437663
0.215919
0.221744
-0.222923
0.0739277
-0.037
0.0794737
-0.0424737
0.412667
-0.197737
-0.21493
0.133106
-0.0191798
-0.113926
-0.0841723
0.120792
0.266345
-0.488715
0.222369
-0.182233
-0.213744
0.395977
-0.384566
0.149942
-0.0556021
-0.0108353
-0.110374
-0.0497138
0.0654713
-0.243218
0.177747
-0.118312
0.123571
-0.00525944
-0.0102617
-0.125023
-0.145978
-0.352158
0.242144
0.00419622
0.151371
-0.0293145
-0.142742
-0.0565913
0.0348913
-0.0186719
0.134149
-0.0979178
0.393577
-0.190314
-0.203263
0.00326231
0.0766634
-0.0799257
0.30913
0.166997
-0.476126
-0.154785
0.167303
-0.0125182
-0.0350231
0.179714
0.253398
-0.227904
0.39689
-0.00837733
0.112087
0.192353
0.0483654
0.229418
-0.108596
0.069003
0.039593
-0.198842
-0.185724
0.0773814
0.0567672
-0.0100313
-0.0417104
0.0517418
0.00033521
0.0473594
-0.0476946
-0.217635
-0.0139459
0.231581
0.211249
-0.227898
0.293369
-0.0394022
-0.165411
0.204814
0.015377
-0.0718106
-0.197908
-0.208002
0.0243934
0.164263
0.143407
-0.287018
0.164178
0.07832
-0.0199241
0.00854005
-0.156237
0.147697
0.379824
-0.182856
-0.196969
0.05819
-0.0805617
-0.284608
-0.206329
-0.0531238
0.0216852
-0.107977
0.0530288
0.0549483
-0.101132
0.257931
-0.2283
0.172786
-0.0600089
0.0510805
0.122149
-0.257685
-0.0551548
-0.059867
-0.286555
-0.276993
0.0500827
0.0625634
-0.112646
0.112374
-0.0125706
0.00385166
0.0953833
-0.0535236
-0.030855
0.0630442
-0.113313
0.050269
-0.392677
0.237864
0.203685
0.236627
-0.440312
-0.00987985
0.153272
-0.143392
-0.466398
0.375952
-0.255835
0.0382003
0.12123
-0.160632
-0.0385727
-0.025422
-0.0640383
-0.0249302
0.0889685
0.1275
0.00560612
-0.132815
-0.198659
0.331474
0.0381582
-0.037967
-0.000191143
0.628669
-0.282451
-0.346217
0.304242
0.249476
-0.553717
-0.0673425
-0.228347
-0.0156754
-0.129339
-0.216115
0.202258
-0.246207
-0.175973
0.459321
-0.272362
-0.186959
-0.0533591
0.0576382
-0.217754
-0.00516711
0.105158
-0.0999907
0.220847
-0.191687
-0.14689
0.0473323
-0.0641592
-0.0137561
-0.130584
0.14434
0.0452139
-0.0109828
-0.0342311
0.0528668
0.0286856
-0.0719285
0.0253682
0.0211134
-0.597748
0.280988
-0.224015
0.04231
0.181705
0.44969
-0.543831
0.0941415
0.0128373
-0.167622
0.518742
-0.308656
-0.0331618
-0.0754342
-0.0163299
-0.0670742
-0.281603
0.573799
-0.292196
0.0563144
-0.110703
-0.0568738
-0.0197634
0.184942
-0.165179
-0.0303174
-0.0285833
0.0692152
-0.328912
0.183941
-0.0720088
-0.446257
0.237529
0.208728
0.104133
-0.140314
0.0361806
0.0509117
-0.0177625
-0.125751
-0.0487719
0.268359
0.21439
-0.0622932
0.209604
-0.147311
-0.179719
-0.0442961
0.400043
0.228626
-0.393676
0.564499
-0.0725865
0.0135479
-0.0503763
0.0136099
0.0470368
-0.190477
0.14344
-0.386154
0.195486
0.215557
-0.0216544
0.330784
0.205466
-0.36974
0.109213
-0.0462086
-0.0630047
0.334615
-0.170352
0.0320835
0.0245333
0.145585
0.0149313
0.0541518
0.0711935
-0.0486039
-0.0225896
-0.278168
-0.196095
0.146662
-0.181653
0.0349918
-0.244709
-0.063091
0.3078
0.271859
-0.302527
-0.0215324
0.0621346
-0.0406022
0.0494341
-0.0490989
-0.0273161
0.131449
0.0262771
0.070808
-0.0970852
0.0723191
-0.116139
0.0430141
-0.00816985
-0.0348443
-0.0844766
0.402777
0.133916
-0.0782729
-0.35703
-0.0461954
-0.0229919
0.198572
-0.184923
-0.127514
-0.0860114
0.0667318
-0.11254
-0.0223383
-0.017111
-0.0420002
-0.284042
0.122973
-0.0356204
0.0977258
0.258451
-0.0131644
-0.0403376
0.053502
0.0708638
0.000228145
0.271631
-0.0413519
0.0137754
-0.17552
0.166007
-0.315946
0.149939
-0.0133192
0.0817716
-0.0819062
0.0178679
-0.204949
0.10751
-0.0574271
-0.256846
0.446412
0.377732
-0.12042
0.0995335
-0.0346834
-0.0583735
-0.0920347
-0.0259466
-0.0166881
-0.0467596
0.0634476
-0.0552621
-0.052715
-0.0370093
-0.270417
0.307426
0.0314989
-0.0348129
0.00331398
-0.0527489
-0.179448
-0.190773
-0.237788
0.428561
-0.0801381
0.0587495
0.0832457
-0.0427742
-0.0404715
0.0434835
-0.259599
0.10106
-0.343183
-0.0279017
0.0610301
-0.0331284
0.15606
-0.0307415
-0.125319
0.334898
-0.307845
-0.0270533
-0.227139
-0.301535
-0.11203
0.119805
-0.0210543
0.151688
0.1698
-0.122763
-0.0402011
-0.0231795
0.193854
-0.587529
0.250817
0.18928
0.0813446
0.0443031
0.135837
-0.18014
-0.269535
-0.224987
0.494522
0.0550815
-0.0660072
0.51983
-0.1541
-0.170216
0.151015
0.271323
-0.286456
0.0363055
-0.207725
0.171419
-0.0559353
-0.0429364
0.0988717
0.55663