/*--------------------------------*- C++ -*----------------------------------*\
| =========                 |                                                 |
| \\      /  F ield         | OpenFOAM: The Open Source CFD Toolbox           |
|  \\    /   O peration     | Version:  v2012                                 |
|   \\  /    A nd           | Website:  www.openfoam.com                      |
|    \\/     M anipulation  |                                                 |
\*---------------------------------------------------------------------------*/
FoamFile
{
    version     2.0;
    format      ascii;
    class       surfaceScalarField;
    location    "50";
    object      ddtCorrDdt0(phi);
}
// * * * * * * * * * * * * * * * * * * * * * * * * * * * * * * * * * * * * * //

dimensions      [0 3 -2 0 0 0 0];
oriented        oriented;


internalField   nonuniform List<scalar> 
20424
(
-1.68234e-05
1.79938e-05
-1.17089e-06
0.000612831
-0.000238853
-0.000373935
-2.24195e-05
-1.16728e-05
3.40899e-05
9.32461e-05
-0.000146186
5.29749e-05
-0.000367808
0.000146032
0.000221797
-0.000408463
0.00036009
4.83832e-05
0.00288071
-0.0105181
0.00763735
-6.84486e-05
9.61969e-05
1.00538e-05
3.1285e-05
-4.13133e-05
-4.80111e-06
9.80561e-05
-0.000244827
0.000339649
-9.48471e-05
-2.45923e-05
7.61126e-06
1.69713e-05
7.05258e-05
0.000102147
-0.00017275
-0.000264189
-0.000564405
0.000828581
-1.38566e-05
0.00073349
-0.000719624
-0.000110328
8.88155e-05
4.95037e-05
-0.000138298
0.000425645
3.20481e-05
-0.000457693
2.87184e-05
-3.33139e-05
4.61431e-06
-4.41831e-05
-8.07132e-05
0.000124881
0.00111087
-0.00016331
-0.000947565
-0.000482677
0.000468818
0.000656967
-2.85578e-05
-0.000628412
0.000143233
-0.000344142
0.000200916
-3.26654e-05
-0.000335125
-0.000137575
0.000124414
1.31318e-05
-0.000112291
0.000137108
-2.49117e-05
0.00033619
-0.000358553
2.23824e-05
0.000143692
-0.000104451
-3.92474e-05
0.000204263
-3.14018e-05
-0.00017283
0.00719503
-0.00280575
-0.00438929
0.000830486
-0.00083623
5.74136e-06
-0.00013888
-0.000101352
0.000240194
-9.71339e-05
8.24858e-05
1.46355e-05
-7.63504e-05
3.03145e-05
4.602e-05
-5.08949e-06
-1.87531e-05
2.38588e-05
1.38258e-05
2.75933e-05
-4.14271e-05
7.20219e-05
-9.86167e-05
2.66024e-05
9.75961e-06
0.000150343
-0.000160088
-1.86378e-05
0.000159981
-0.000141378
-0.000111204
-0.000297237
-0.000482539
0.000482536
-0.00022029
-0.000161361
0.000381659
0.000634573
0.00023939
-0.000873962
0.000654053
-0.000228402
0.00013708
-0.000124827
-1.2266e-05
4.02238e-05
-3.72073e-05
-3.02127e-06
8.92582e-05
-0.000479734
0.00039048
-4.10679e-05
2.81467e-05
1.29357e-05
-0.000368442
0.000414684
-4.62611e-05
0.000467161
-0.000323914
0.000365501
0.000745363
-0.000128411
0.000109773
-0.00135639
-0.000122668
0.00147905
-0.00111685
0.000373322
0.000743541
-1.97663e-06
-3.90801e-05
0.000108721
0.00017232
-0.000281033
-0.000163762
2.49187e-05
1.3941e-05
6.19984e-05
-7.59077e-05
0.000773941
-0.00123168
0.00045774
5.82649e-05
-6.93022e-05
1.10346e-05
-9.94393e-05
-0.000110023
0.000209449
-0.000316692
0.000426186
-0.00010951
1.2837e-05
-3.74212e-05
-4.07516e-05
3.63097e-05
4.40649e-06
-0.000498496
6.26919e-05
0.000435774
2.76181e-05
-1.75427e-05
0.000108466
-3.64233e-05
-0.000154814
0.000132641
2.21675e-05
-5.78922e-06
0.000142878
-0.00119853
0.00126337
-6.48345e-05
6.45088e-06
-3.11144e-05
2.46714e-05
-0.000801931
0.00157586
-6.63137e-06
6.58479e-05
-5.92457e-05
0.000475795
0.000409179
0.0015864
-0.0020935
0.00050707
8.89746e-05
-0.000115005
2.59677e-05
-4.87793e-05
6.27428e-05
0.000177272
-6.85488e-05
2.27089e-05
-1.09545e-05
-1.17567e-05
3.06256e-05
-3.57016e-05
-1.92531e-05
5.79762e-05
-3.8793e-05
-0.00023996
8.92634e-05
5.44293e-05
-0.000464926
-0.000178621
0.000643511
0.00358552
0.0020416
-0.00562716
-0.000168259
-5.62727e-05
0.000224522
-0.000214377
0.000108751
0.000105613
-2.95389e-05
-4.6855e-05
0.000120904
-0.000172738
5.1864e-05
1.54524e-05
-6.19518e-05
4.65081e-05
2.61972e-05
-0.0013826
-3.1237e-05
5.96498e-05
-2.84243e-05
-0.000367553
-0.000643582
0.00101112
-0.00324111
0.00402747
-0.000786341
-0.000324045
0.000116193
0.000207819
7.12902e-05
0.000100343
-0.000171573
-0.000104912
9.65626e-05
8.37754e-06
3.13313e-05
-2.48785e-05
-0.00060362
0.000105075
0.000182337
-0.00030296
0.000120619
-6.39054e-06
-1.23456e-05
0.000116436
3.74612e-06
-0.000120175
-0.0006359
0.000222555
0.000413339
-3.57107e-06
-2.88873e-05
3.24577e-05
-0.000653512
1.75994e-05
-8.44967e-05
-2.23422e-05
0.000106787
-3.4071e-05
1.88246e-05
1.52524e-05
0.000170724
-4.98256e-05
2.4877e-05
-1.25704e-05
-1.23085e-05
-1.99815e-05
2.75916e-05
-0.000227775
7.48065e-06
0.000118537
-0.000203016
-0.000200238
0.00067321
-0.000473003
0.000817882
-0.000644115
-0.000173775
6.70597e-05
-5.66718e-05
-1.03805e-05
-2.13271e-05
1.49298e-05
0.000103391
-0.00122025
0.000183384
-7.65457e-05
5.46361e-05
-3.23505e-05
-2.22904e-05
1.49488e-05
-8.33987e-05
-5.71046e-08
-1.18384e-06
1.24337e-06
-2.316e-06
1.33133e-05
-1.09951e-05
5.12469e-05
-2.85525e-05
-2.26993e-05
0.000300742
-3.94982e-05
-0.000261299
-8.84755e-05
-0.00111006
0.000349602
1.04898e-05
0.000493569
0.000401044
-0.000894631
-0.000193831
0.000270182
-7.62839e-05
0.00080681
-0.00160874
0.000190377
-0.000400557
0.000210181
-0.000493398
-0.000388824
0.000882207
-0.000506795
0.000338535
-0.00133846
0.00028939
0.00104908
-0.000560529
0.000201643
0.000358947
-0.000120193
8.65791e-05
3.35963e-05
0.000780327
-0.000304535
-9.73673e-06
-2.07657e-05
3.05068e-05
-5.74989e-05
8.30169e-05
-2.55568e-05
0.000556691
-5.45758e-05
-0.000502099
0.000559131
-0.00113156
0.000572359
-5.73058e-05
4.25727e-05
1.47529e-05
-6.84074e-05
7.67531e-05
-8.36583e-06
0.0010586
-0.000385184
-0.000673427
-3.87472e-05
2.02653e-05
1.84898e-05
0.000556685
-2.97551e-05
4.49986e-05
-1.52199e-05
-6.92672e-06
-0.000332274
0.000339193
-5.29834e-05
0.000110008
-5.70303e-05
0.000315828
0.000179279
-0.000495118
-2.88613e-05
-9.88509e-06
-2.81245e-05
0.000109005
-8.08852e-05
-0.000321721
-0.000331802
0.000456843
-0.00121768
0.000760838
-0.000107282
-4.65581e-05
0.00015386
-0.000648462
0.000366857
0.000281606
-4.28911e-05
1.31371e-05
1.39062e-05
0.000175078
-0.000189008
0.00057074
4.21013e-05
5.54478e-05
0.000119912
-0.000175363
-0.00120679
0.00100659
2.25271e-05
-1.50552e-05
-7.46376e-06
0.00037265
-2.8376e-05
-0.000344279
0.000336557
-0.000437929
-4.98479e-05
8.68814e-05
-3.70539e-05
7.72088e-05
-0.000155231
7.8012e-05
0.000268718
-0.000483096
-4.66343e-05
2.42128e-05
0.000382034
-0.000177752
0.000130455
-5.99563e-05
-1.63963e-05
-5.20203e-05
1.37251e-05
1.11397e-05
1.84111e-05
-4.02619e-05
3.67242e-05
3.52031e-06
-6.06342e-05
-1.90696e-05
7.97047e-05
0.0154182
-0.0125375
0.00127108
0.000315301
-3.32805e-07
-0.000106948
0.000893686
-0.000400122
-0.00103982
0.000450824
0.000588986
9.30084e-06
-1.28725e-05
-6.41386e-05
-3.29857e-05
9.19056e-05
9.03927e-06
-0.00010088
0.00844233
-0.00213595
-0.0063064
0.000289934
-0.000595183
0.000305209
0.000105003
-0.000165636
0.000507023
0.000551569
-3.56817e-05
0.000142749
-0.000107084
-0.00083276
0.000280509
0.000552215
4.41526e-05
1.4109e-05
-8.66913e-05
0.000178613
0.000933715
-0.000276749
6.53916e-06
0.00011235
-0.000118854
0.00127622
-0.000250982
-0.00102521
0.000381118
0.000386679
-0.000767799
-0.000832081
0.00441761
-0.00017008
0.000519685
-0.00024535
0.000276079
-1.49898e-05
1.26755e-05
-1.05087e-05
-0.000183287
2.85544e-05
2.05126e-05
-4.90769e-05
0.000389262
-0.000298854
-9.04276e-05
0.000186224
-0.000187483
3.7418e-05
0.000150056
-0.000207844
-0.000186843
0.000394687
5.30309e-05
-8.93095e-05
3.63045e-05
-4.18483e-05
7.85692e-05
-3.67162e-05
-0.00049048
0.00176671
-0.000715693
-6.85828e-05
0.00078427
-0.000277475
0.00029102
-1.35428e-05
5.08295e-05
1.62803e-05
-0.000875567
0.000838557
3.69651e-05
-0.00101791
0.00101789
-0.00679431
-0.000250755
0.00704506
-7.86038e-05
-3.37175e-05
-0.000364594
0.000282267
8.23391e-05
0.00106325
-0.000912318
-0.000150939
-0.000217615
5.49555e-05
0.000162658
0.00034525
-0.000220156
-0.000125095
-5.50073e-05
-4.94297e-05
0.000857993
-0.000943164
8.51502e-05
0.000109631
-0.000297093
-0.00146113
-0.000786101
0.00081301
-2.69332e-05
-1.24443e-05
-0.000329795
0.000342211
-0.000866603
0.00167342
9.89576e-05
-4.59127e-05
0.00144501
-0.000885906
0.00112035
-5.70949e-05
0.000105607
-0.000981183
-8.30962e-06
6.13595e-06
2.14543e-06
-1.03578e-05
1.03591e-05
-4.53761e-06
4.48186e-06
3.36926e-05
6.5315e-06
-0.000537562
-0.00086849
0.00140604
0.000128834
0.000171905
0.00157454
-0.00197827
0.000403708
-0.000425778
-0.000140336
9.61485e-05
1.38882e-05
7.49173e-05
-7.6029e-05
0.000132606
-5.65246e-05
0.000116737
-0.000902853
0.000113791
0.000721672
-0.000835467
0.000534295
-0.000601016
6.67441e-05
1.78418e-05
-0.000168919
0.000151112
0.000724435
-0.000343315
-0.000295168
0.000275912
-0.000309528
0.000101683
8.78826e-06
0.000149704
-0.000158482
2.47149e-05
-1.46828e-05
-1.00199e-05
-0.000522452
8.29387e-05
0.000439513
-1.52066e-05
-3.12169e-05
2.73553e-05
3.86488e-06
5.89426e-05
-9.02136e-05
-0.000995609
0.000807361
0.00018822
-2.5821e-05
-3.15851e-05
-1.23528e-05
-2.1729e-05
0.000365778
6.86894e-06
0.00458558
-0.00254397
-0.000528843
0.000627798
-9.89678e-05
8.65306e-05
-2.96051e-05
-5.69565e-05
-0.00112364
0.000496863
0.000626775
-8.34672e-05
0.000152459
2.9158e-05
-0.000181567
-0.000111061
0.000182768
-7.16999e-05
0.000276974
0.000503348
-0.000814984
-0.000202645
0.00101763
-0.000129674
-7.89759e-06
0.000749265
0.00118029
-0.00192956
0.000409325
-0.00140497
-2.83004e-05
1.23536e-05
1.59492e-05
0.000560384
0.000279068
-0.000839453
-8.89588e-05
0.000537587
-0.000448615
0.00091172
-0.000226944
-0.000684768
4.15266e-06
-3.98175e-05
-0.000288758
-0.000667373
0.000956127
-0.00101768
0.00101768
-0.000177819
0.000110862
6.69695e-05
0.000812369
-0.000403092
-0.000101846
6.15314e-05
0.000126419
-4.924e-05
-9.7113e-06
5.01283e-05
-4.04169e-05
0.000483122
0.000587108
-0.00107025
-0.000123482
-0.000358911
0.000482389
2.69875e-05
9.15985e-06
-3.61508e-05
-6.61822e-05
1.31936e-05
1.07762e-05
-4.24717e-05
3.16498e-05
4.00254e-05
2.19873e-05
-0.00122853
0.000395764
-0.000290634
0.000305264
-1.45977e-05
0.000597852
-0.000777649
0.000179797
-3.73103e-05
2.35108e-05
1.38052e-05
3.57158e-05
-0.000190559
-5.42574e-05
-0.000732515
0.00122941
-0.000496889
0.000987658
-0.00105624
8.18977e-05
4.47443e-06
-8.63611e-05
4.29829e-06
1.48563e-05
-1.91565e-05
9.5614e-05
-9.09619e-05
-4.73868e-06
-1.34052e-05
-3.41732e-06
0.000105911
-1.69579e-05
-7.20495e-05
4.2496e-05
-2.21729e-05
2.93234e-05
-7.14623e-06
4.00572e-05
-0.000562527
-5.0285e-05
2.68123e-05
5.97018e-05
-8.11601e-05
4.32367e-05
3.78776e-05
6.29183e-05
-0.000112767
-0.000188983
6.65919e-05
0.000122393
-8.31673e-05
-6.50419e-05
0.000148188
0.000768136
-0.000207757
-0.000141717
0.000233276
-9.15319e-05
-0.000133787
0.00016005
-2.62523e-05
0.000776871
-0.000344096
-0.000432774
-9.33131e-06
-1.89664e-05
-0.00014463
0.000217117
-0.000100679
0.00164283
-0.00111002
-0.00053283
1.51956e-06
5.31211e-05
-0.000134382
6.61254e-05
6.82853e-05
-0.000207765
-0.000200928
0.000408666
0.00102068
-0.00102069
-8.6808e-05
0.000166935
-8.01354e-05
2.23546e-05
-2.23492e-05
3.46986e-06
-0.000288352
1.05261e-05
-2.7623e-05
1.71076e-05
-3.03267e-05
-4.17153e-05
-9.8248e-06
3.2233e-05
-2.23822e-05
-9.76409e-05
7.03053e-05
2.73068e-05
-1.47429e-05
-9.6296e-05
-1.79178e-05
8.09666e-06
3.22315e-05
-1.9402e-05
2.81427e-05
2.30955e-05
0.000392343
-5.61593e-05
0.000130126
-0.00026391
-5.70034e-05
-5.0157e-07
4.53129e-05
-5.19176e-05
0.000117841
1.931e-05
-7.82169e-05
-1.94286e-05
0.000114937
-0.000127399
7.9231e-06
8.99245e-05
-9.78545e-05
0.00169514
0.00549988
9.74985e-06
0.000142717
0.000288045
0.000865868
-0.0011539
-0.000687362
0.000409897
5.19303e-05
3.10688e-05
-7.35594e-05
-6.08029e-05
0.000362764
-0.000144007
-0.000218731
0.000124099
-8.41751e-05
-3.99364e-05
7.65257e-05
-4.6929e-05
-2.96264e-05
6.36458e-05
-4.58693e-05
-1.77395e-05
6.88245e-05
-5.17383e-06
0.000328994
-0.000256081
-7.28884e-05
-0.000580673
-0.00046608
0.00104676
5.94861e-05
-0.00015892
-5.35522e-05
0.000125308
-7.18004e-05
-0.000236782
0.000332684
-9.59191e-05
-0.0001569
0.000943552
-0.000786662
0.00115354
-0.000813341
-0.000340292
-0.0037106
0.00610948
-0.00239888
-1.94847e-05
1.11357e-05
1.70619e-07
-2.8587e-05
-8.70685e-06
-0.000337787
0.000214304
0.00107707
-0.000596745
-6.77901e-05
1.42216e-06
6.63533e-05
0.000667213
-0.000674163
-0.000462247
0.000615955
-0.000153718
-0.000774161
0.000452441
-1.05117e-05
-8.22839e-05
9.28014e-05
-0.00150947
0.000776964
7.50343e-05
-3.24684e-05
0.000619667
-0.00105551
0.000435842
1.83278e-06
2.08784e-05
-0.000132462
6.46753e-05
0.000189207
-0.000144564
-4.46019e-05
-0.00156283
-0.000367857
0.00193061
-0.000213596
-3.17373e-05
0.000236378
-0.000224054
-1.23658e-05
1.40629e-05
6.50678e-05
-7.9051e-05
-8.09428e-06
2.94681e-06
5.15052e-06
-2.88927e-05
-7.60199e-05
0.000707635
-6.08221e-06
-0.000701559
0.000308465
5.43035e-05
-2.16609e-05
-5.9599e-06
-2.36929e-05
1.74143e-05
6.28067e-06
0.000898117
-6.76377e-05
3.6083e-05
2.80096e-05
-6.4101e-05
1.53165e-05
4.01288e-05
-0.000138063
0.000141788
-0.00117577
0.000289164
0.000886653
0.000194489
-0.000137938
-5.65606e-05
0.000526533
8.41477e-05
-4.5684e-05
-3.8449e-05
-4.53807e-05
-4.41189e-06
4.97811e-05
-0.000865809
0.00599704
-0.00513122
0.000236831
-0.000842086
0.000605247
-0.000881478
-0.00192427
0.000343403
-0.000225543
-0.00011786
0.00033927
-0.00120587
1.0087e-05
1.24444e-05
-0.000344398
-0.000120522
-2.62375e-05
7.61718e-06
1.86251e-05
0.000460547
-0.000476394
1.5864e-05
-5.96093e-05
-0.000129384
-6.48221e-05
9.18081e-05
-9.95178e-05
6.05601e-05
3.89371e-05
0.000253186
-0.00029197
3.87632e-05
-0.00013999
0.00043744
-0.000297454
7.93459e-05
4.47675e-05
-0.000145261
0.000109185
3.60681e-05
0.000222515
3.79811e-05
-0.000260473
0.000288303
5.50798e-05
0.000522694
-0.00114629
0.000623591
-0.000351362
-0.00121147
-8.71191e-07
2.81547e-06
-1.93937e-06
0.00132184
0.000320988
-0.000666833
0.00133938
-0.000672555
4.48841e-05
-0.000226725
-9.73504e-05
3.17356e-05
-4.94227e-05
1.77011e-05
-0.000223157
0.000372987
-0.000149783
0.00252262
0.00129648
-0.0038191
-5.70074e-05
-8.10857e-05
-0.000967738
0.000152764
4.64477e-05
-4.74632e-05
1.02312e-06
0.00246623
-0.00171699
0.000711918
-0.0012926
-0.00135828
0.000170595
0.00118767
-0.00239242
-0.00812568
-0.000661
0.000561986
9.90308e-05
-6.13975e-06
6.71323e-06
-5.76563e-07
-0.000181855
0.000716142
0.000785703
0.000902367
-0.00044556
2.99779e-06
0.000108926
8.03005e-05
0.000269284
-6.37437e-05
-0.000205601
-0.000116427
1.77816e-05
-0.000640774
-0.000134901
0.000775663
7.12955e-05
-4.00048e-05
3.72854e-05
0.00021032
-0.000247616
-4.71896e-06
5.97143e-06
-1.24186e-06
2.31286e-05
0.000143332
5.27999e-05
-0.000196069
1.38518e-05
-4.34586e-05
7.04697e-06
-2.75118e-05
2.04685e-05
-0.00445493
-0.00233938
-4.6472e-06
0.000589919
-0.000585251
0.000360621
-0.00012423
-0.00036306
0.00084618
0.000148386
-0.000142535
-5.8384e-06
1.63019e-05
0.000264629
-0.000280929
6.91629e-06
-1.66266e-05
0.000666521
0.000132967
-0.000799486
-2.147e-05
0.000179446
-0.000157981
0.000138559
0.00023909
-0.000173669
-6.54469e-05
-0.000191398
9.18673e-05
-0.000104913
9.43816e-05
2.40863e-05
-7.80441e-09
-2.40718e-05
8.27691e-07
-5.55514e-06
7.4204e-05
-0.000131257
-0.000612606
0.000150357
5.81181e-05
-4.8367e-05
-9.07771e-05
4.49942e-05
0.000618051
0.00014133
-0.000759404
-0.000798681
0.00149727
-0.000698576
-0.000251367
0.000488214
-0.00104806
0.000677243
-0.000563453
-2.77959e-05
1.18388e-05
1.59605e-05
0.000420899
-0.00121961
-0.00015843
-1.72261e-05
0.000175653
-8.18154e-05
0.000117901
2.54368e-05
6.28554e-06
-1.93551e-05
0.00027888
-0.00025953
-3.01589e-05
0.000117751
-8.75472e-05
2.94746e-05
-4.76032e-06
-3.98921e-05
7.71982e-05
-0.000401449
5.42795e-05
0.000130467
-0.000184792
-2.1435e-05
4.29507e-05
-2.14803e-05
-0.000334258
0.000114101
0.000723184
-0.00101195
-0.00398823
0.00312243
0.000205192
-0.000196682
-8.51643e-06
-0.000285451
-3.12396e-05
-4.30497e-05
2.32051e-05
1.98244e-05
0.000247309
-2.47737e-05
-9.89593e-05
-4.63127e-05
-3.96881e-05
9.39618e-05
-1.83363e-05
-6.56712e-06
2.49126e-05
4.20094e-05
0.000137936
-0.000179922
1.08087e-05
-0.00020583
-1.2048e-05
0.000217847
-0.000671975
0.000445037
5.49476e-05
0.000214302
7.76271e-05
-6.36893e-05
1.01316e-05
-3.04224e-05
-0.000159302
0.000189736
0.000989638
-0.0010182
0.000105918
-0.00017945
-0.000796833
0.00113611
0.00028767
-0.000328453
-0.000558751
-0.000799527
9.72799e-05
-0.000277923
0.000180639
-0.000115667
0.000576231
6.10044e-05
4.74482e-05
-1.40876e-05
-9.60926e-06
-8.26079e-06
1.20304e-05
-3.77e-06
3.29395e-05
-5.20013e-06
-2.77433e-05
-4.69935e-05
5.15111e-06
0.00123936
-0.00123937
-5.44738e-05
0.0001206
0.000103232
0.000101962
0.00111714
-0.000497464
0.000481729
0.00021435
-0.000696062
-0.000139923
-7.76947e-05
-1.10228e-05
3.97549e-05
-0.000358178
-6.65418e-05
0.000424723
-0.00139838
0.00141467
0.000199065
-3.16295e-05
-0.000167461
0.000329586
-0.000232308
-0.000411675
0.000276958
0.0001347
-0.000122534
0.000159321
-3.67945e-05
-2.40306e-05
3.54263e-05
-1.13968e-05
6.13914e-05
5.63805e-05
-0.000206231
3.85856e-07
0.00010111
0.00092177
-0.00102289
3.19601e-06
6.56749e-05
0.00834112
-0.0115822
-0.00038166
4.93664e-05
-0.000114295
2.35976e-05
-7.33675e-05
8.85574e-05
-1.51304e-05
-0.000252909
8.9797e-06
4.84333e-06
0.000653427
-0.00017171
-0.000168191
-0.000166066
0.000655004
0.000892067
-0.000133685
-0.000758389
0.000116717
0.00240588
0.000213714
-0.000745133
0.000531425
-0.000274871
0.000872714
-0.000380376
1.19148e-05
0.000155234
0.000184415
-0.001016
0.000868118
0.000147823
-3.95728e-05
-5.80201e-05
9.76088e-05
0.000384325
0.000433552
0.000561015
-0.000919197
0.000229907
4.06267e-07
-0.000230319
-0.000238632
-1.49725e-05
0.000253642
0.00086211
3.59979e-05
-0.000169564
-0.000130187
0.000299711
-0.00018117
9.43636e-05
8.51235e-05
1.04795e-05
6.29606e-06
-3.03227e-05
0.000201989
0.000101533
-0.000172104
7.0593e-05
0.000238079
-0.000359203
0.000121119
-0.00083297
0.000568757
2.10188e-05
-1.67114e-05
6.32318e-05
-8.1927e-05
1.86917e-05
0.000807174
-0.000964074
-0.00023712
-1.48123e-06
-0.000535997
-0.000104779
8.89816e-05
-7.09014e-06
-6.48449e-07
-3.40552e-05
3.47159e-05
0.000173214
-0.000264319
9.1033e-05
-2.54314e-05
-0.000182324
-9.64518e-07
-7.13224e-06
-0.00160781
-0.000241651
0.0018494
8.30586e-05
-0.000122634
-1.52484e-05
-1.09871e-05
4.14127e-06
-7.10946e-05
6.69804e-05
-3.36519e-05
-4.74984e-05
-0.000517121
0.000204345
-2.2017e-05
-0.000172747
8.38013e-05
8.8923e-05
-0.00123324
0.000800641
0.000432582
-3.50237e-05
0.000143981
0.000299742
-0.000439742
-3.85661e-06
0.000174241
-0.000170361
-0.000238761
7.50044e-05
-0.000239919
-4.1659e-05
0.000281544
1.2673e-05
-1.44938e-05
1.81936e-06
0.0276743
-0.0276732
2.18285e-05
0.000584854
-0.000606681
1.86484e-05
0.00021488
7.32418e-05
-0.000288087
9.50682e-05
-4.63474e-05
-4.8651e-05
-0.000124931
0.000188312
-6.33998e-05
0.000332765
-0.000375836
0.000429377
-0.000474739
0.000496241
-0.000624742
-1.81431e-05
0.000642873
2.26752e-05
-7.14405e-05
0.000465182
-0.00051203
4.68494e-05
-5.45374e-06
-2.76193e-05
2.73093e-05
-3.82271e-05
1.06142e-05
0.000216752
-0.000232629
1.59044e-05
-0.000948465
-0.00022729
-0.000477478
0.000269781
0.000207692
-0.000205518
0.000201645
-0.000104754
0.00016289
-0.0001213
9.96996e-05
-0.000613379
-0.000532909
0.00018106
0.000233634
-1.44475e-05
1.5164e-05
-7.13022e-07
-8.80299e-05
3.98456e-05
4.81944e-05
0.000100845
-0.000130662
2.97674e-05
-2.30838e-05
3.85421e-05
-0.00021353
0.000155516
0.000285488
0.000103743
-0.000218912
4.61495e-05
0.000244523
-0.000141116
0.000169431
7.5091e-05
-8.6842e-05
1.60425e-05
7.07813e-05
-2.0592e-07
-0.000124631
-0.00293081
0.00432262
-0.0013918
8.91283e-05
-6.36866e-05
-0.00125157
0.00154095
0.00015377
1.94254e-05
0.00731115
-0.00997264
0.00266148
0.000459306
1.70443e-05
-0.00047637
-1.92559e-05
-9.63198e-06
-0.00406306
0.00440724
-0.000344173
-0.000153709
0.000160272
3.94913e-05
3.70152e-05
0.000293155
0.000418079
-0.000711232
-1.46441e-06
-3.22562e-05
3.37441e-05
0.000934796
-0.000122459
2.83102e-05
2.78041e-05
-5.61123e-05
-4.25304e-05
0.000108261
-6.5742e-05
2.38239e-05
3.17663e-07
-2.41419e-05
0.000140686
1.90377e-05
-0.00015971
5.45559e-05
-2.16149e-05
-3.29631e-05
0.000509908
6.23852e-05
-3.30107e-05
-2.93663e-05
1.39673e-05
1.00556e-05
-2.40262e-05
-4.04119e-05
-8.66803e-06
4.90551e-05
-2.90439e-07
-9.42237e-05
9.44975e-05
0.0003092
0.000150095
-0.000440137
0.000161561
0.000278541
-6.37673e-05
-9.70061e-06
-0.000535124
9.49618e-05
-9.19252e-05
0.000290978
-7.27172e-05
-0.000945194
0.000673162
-0.000835128
0.000161951
-1.82911e-05
1.86569e-05
-3.69394e-07
0.000118552
-0.000201738
0.000168299
-1.53206e-05
7.85418e-05
2.53404e-05
-1.25068e-06
0.000217238
-3.77936e-05
-0.00054106
-0.00106676
-0.000246871
-0.000401596
0.000296473
-1.77975e-06
9.12532e-05
-0.000149863
-2.62967e-05
2.92136e-05
-2.92285e-06
-0.000232942
-0.00042807
3.56695e-06
-2.18969e-05
-6.48845e-05
-0.000307755
0.000279678
2.80847e-05
4.09254e-05
-7.97081e-05
3.87776e-05
-0.000111503
-1.40345e-06
0.000112906
-3.30301e-05
8.31913e-05
0.000988736
-0.0015263
-0.000164028
-1.78519e-05
-0.00105707
4.2251e-05
-2.84042e-05
0.000184535
-8.30213e-05
0.000267212
0.00349842
-0.00376563
-0.000455246
-0.000247125
0.00014235
-1.42597e-05
-3.02081e-05
4.44566e-05
-0.000614363
-0.000166669
0.000781024
-0.000396975
0.000429035
1.34212e-05
-1.63041e-05
2.89008e-06
-0.000126458
0.000984438
0.00161592
-0.000837294
-0.00077866
-0.000110077
3.13044e-05
7.87617e-05
6.53714e-05
3.02622e-06
-6.84027e-05
-0.00292558
-0.000756162
0.000373644
0.000382596
-2.43858e-05
-7.8188e-05
-6.51143e-05
0.000143297
0.000393344
7.18354e-05
-0.000458302
-0.000102213
1.8804e-05
-0.000417043
0.000398237
-4.64252e-05
6.52675e-05
-1.8864e-05
2.44e-05
-1.04397e-05
0.000105044
-0.000318571
0.000474047
0.000371359
-0.000845397
1.49632e-05
3.03428e-06
-9.84797e-07
-0.00032882
8.42942e-05
-7.418e-05
-1.01074e-05
3.81349e-05
0.000111582
7.28412e-05
-4.42893e-05
-7.21533e-05
0.000267708
1.64699e-05
-1.30778e-06
0.000151044
-0.000167145
1.60231e-05
1.42098e-05
-0.000395858
-0.000399641
3.09536e-05
0.000368672
3.9339e-05
-0.00247837
0.00289928
4.93025e-05
-2.00148e-05
1.01273e-05
-0.000110623
0.000284088
0.000246603
-0.00100493
-0.00021275
0.000499539
-0.000773255
0.000273709
-4.15922e-06
-0.000100743
2.93814e-05
-0.000511923
-0.000186952
6.4917e-05
0.000121998
-0.000388468
3.47702e-06
0.000384945
-0.000139158
0.000292353
-0.00015318
-1.77716e-05
4.57917e-05
0.000660989
0.00310056
-0.00376149
-8.15078e-06
-2.30676e-05
0.000331637
-0.000275419
-5.62236e-05
0.000233901
0.00024863
5.3026e-05
-0.000113826
6.08362e-05
0.00021844
-0.000162011
-5.63994e-05
0.00127795
-0.000894114
-0.00038385
-2.71851e-05
-3.68442e-05
6.40346e-05
-0.00174284
0.00220204
-0.000459226
-0.00451793
0.0015871
-0.00032449
0.000885512
0.00193398
0.000214837
-0.000378861
-2.29706e-05
0.000154534
-0.000667817
0.000513294
-0.000185219
4.063e-05
0.000168747
-0.000239681
7.08918e-05
-0.000823021
0.000258634
-0.000120376
1.02759e-05
-5.59383e-05
9.26394e-05
-1.25432e-05
-0.00201544
-1.6457e-05
-1.83549e-06
1.08059e-05
0.00017197
-4.20585e-05
-3.77649e-06
-0.000106676
-0.000433238
0.000539874
0.000484352
-0.000316786
0.000903673
-0.000586881
4.1438e-05
0.000237428
7.87312e-05
5.42063e-06
-1.46229e-05
2.64644e-05
-0.000272128
0.000451395
-0.000674085
0.000306525
3.31502e-05
-1.88575e-07
6.60449e-05
-2.51305e-05
6.58594e-05
-6.92469e-06
-5.89394e-05
-0.000405866
-3.83912e-05
1.43015e-05
2.41211e-05
0.000795256
-0.000377178
-8.3181e-06
1.18446e-05
-3.52706e-06
-0.000212091
0.000173192
3.89083e-05
-0.000486456
-0.000310354
0.00160878
-0.000899194
-0.000709609
1.15161e-05
-2.2116e-06
1.97537e-05
8.54355e-06
-7.71261e-05
7.56181e-06
6.95546e-05
-0.000383826
0.000307792
-0.00100409
0.00032056
0.000683525
9.38119e-05
0.000332374
0.000416699
-1.46076e-05
-0.000255718
0.000270331
0.000279156
-0.00140279
0.000238959
0.000468676
0.000135207
-0.000222009
0.000290141
1.51484e-05
0.000262109
0.000218296
-0.000480387
-8.27098e-05
4.01839e-05
-6.27441e-05
0.000192887
1.63828e-06
0.000139876
-0.00014152
0.000727363
0.000164704
-0.000127717
6.81337e-05
0.000495937
-0.000475555
-2.0367e-05
4.31705e-05
-0.000168106
1.45679e-05
1.61893e-05
-3.07703e-05
-7.27509e-07
1.02733e-05
-9.57637e-06
-0.000313122
-4.60875e-05
0.000670442
-0.000170909
0.000470889
-0.00137422
0.00149878
-0.000124563
0.000540345
-0.000326621
8.3264e-05
2.48076e-05
-0.000108116
-0.000338509
0.000353071
1.88527e-05
0.000478762
-0.000718666
2.28096e-05
2.49575e-05
-4.77725e-05
-3.40964e-05
0.00305298
-0.00301888
2.94341e-05
-2.23761e-05
-0.0147027
0.00969961
0.00500309
-4.20859e-05
0.00146448
-0.00142241
-0.000630921
0.000406959
0.000223963
-7.90038e-05
-2.8169e-06
0.000117486
-2.74037e-05
-9.00955e-05
0.000835538
-0.000596583
9.35637e-05
3.90632e-05
-0.000141283
-0.000874746
3.12743e-06
2.19324e-05
-2.50687e-05
-0.000524934
-0.000619579
0.00114451
0.00148283
0.000271652
-0.00175451
-0.000127086
0.000147994
-0.000355459
0.000207478
-0.000698542
5.44285e-05
-0.000241829
0.00039556
-1.63467e-05
-6.18467e-05
0.000158159
0.000382198
-0.00120077
0.00055718
0.000136395
-0.000342479
-1.51623e-05
0.000171723
-0.000156591
-0.00033813
2.03254e-05
0.000317748
-1.46874e-05
-1.86142e-05
-2.55467e-05
0.000125895
0.000260457
-2.15242e-05
6.46411e-05
-4.31123e-05
0.000657549
1.5605e-05
0.000498759
0.000526536
-0.000129612
-0.000396928
0.000352867
-7.25591e-05
0.00033468
0.000518023
-0.000450717
-6.73001e-05
1.66742e-05
-0.00017712
0.000160451
0.0048482
0.00126128
1.68183e-05
-3.39362e-06
-0.000683475
0.000502982
0.00018047
-0.00115424
-0.00203524
0.00318945
0.000261952
-7.15603e-05
0.00102707
0.000680292
-0.00170735
0.00183932
-0.00209008
-0.00188752
0.00290512
-0.0010176
1.85434e-05
-6.76768e-06
-1.17852e-05
0.00343617
-0.00186165
-1.72546e-05
-0.000233061
0.000250332
1.29982e-05
8.44123e-05
-7.14504e-05
-1.29392e-05
-6.64832e-07
-2.0554e-05
2.12277e-05
-2.56341e-05
-1.15721e-05
-3.82473e-06
2.76556e-05
-0.000954754
-0.000310741
0.00126551
-2.2126e-05
-4.17088e-06
-3.37408e-05
5.38527e-05
-2.00906e-05
2.76442e-05
-1.55769e-05
9.82879e-05
-8.27126e-05
-0.000103895
-7.39071e-05
-7.20044e-05
8.30774e-06
0.000864225
-0.00100337
-0.000106115
-2.16278e-05
0.00346447
0.000562993
3.21223e-05
-0.000124908
9.27935e-05
0.000275246
-0.000550365
5.61774e-05
0.000494181
-0.000720035
0.000327827
-0.000609208
0.00028138
-8.37652e-05
9.2943e-05
0.00195201
0.00535914
0.00112824
0.000149722
0.00117324
-0.000149823
-0.00102344
0.00240016
6.60676e-05
-3.91204e-05
0.000102039
0.000362193
-0.000660211
0.000298011
-0.000157703
0.000380476
-0.000110697
0.000128965
-0.000529484
-0.00149238
0.000224484
0.000981244
-0.00120574
-0.000384525
0.000369915
6.08073e-06
4.2785e-06
-9.25804e-05
-6.31035e-05
0.000155628
0.000208806
0.000850947
-0.00105976
4.62094e-05
3.82287e-05
0.001109
1.75088e-05
-0.0011265
1.3044e-05
-0.000143854
0.000130796
0.000447262
0.000345172
-0.00079245
-0.000230722
6.11587e-05
0.000776112
-0.000244678
0.000408782
4.57269e-05
-2.03845e-05
-2.53429e-05
-0.000553255
-0.000461855
0.00101511
3.53585e-05
-0.000623442
0.000588074
-2.19381e-05
5.64206e-05
-3.44796e-05
-3.27304e-05
6.73993e-05
-3.46105e-05
-0.00122864
0.000615256
-0.00056857
0.000326708
-0.000107476
9.44183e-05
1.31274e-05
0.000140142
-0.000157387
5.19182e-06
-0.000116686
0.000394195
-0.000228743
-0.00016543
0.00101666
-0.00134576
0.000329064
4.08647e-05
8.42776e-06
-2.96324e-05
-3.15496e-06
-2.53384e-05
3.404e-06
2.92349e-06
-2.91962e-06
-0.000465132
-0.000601477
-0.000647021
0.00124849
9.21762e-05
1.28083e-05
-0.000104979
3.40997e-05
-5.56282e-05
0.000249645
-0.000128263
-0.000121362
0.000721874
-0.000497409
-0.000581194
7.2782e-06
8.92877e-05
1.64563e-06
5.50795e-05
7.31675e-06
6.99614e-06
5.57333e-06
-1.25763e-05
-5.1178e-06
9.42548e-05
-0.0002758
-0.000355131
0.000485901
0.000237405
-0.000723316
0.00198574
-0.00202782
-0.00247011
0.00455709
-0.00208698
-3.19969e-05
0.000102264
-7.02545e-05
-8.6886e-05
-0.000310093
0.000136183
-4.64713e-05
-8.96622e-05
-8.45085e-07
-2.50165e-08
-7.21426e-05
1.43373e-05
5.7808e-05
0.000565973
-0.00124947
-0.000966619
0.00154942
-0.00010866
0.000227165
0.000596353
-0.000920836
3.02012e-06
-9.16055e-06
-0.00192162
6.28179e-05
-8.86055e-05
-0.000309325
0.000228996
8.03221e-05
5.86764e-05
-3.5862e-05
8.13821e-05
0.00094568
6.7375e-05
-4.35135e-05
-2.3872e-05
2.42229e-05
-3.24841e-05
-3.0068e-05
0.000211692
-0.000181638
1.40921e-05
-1.48443e-05
7.59837e-07
0.000222868
-0.00031328
0.000188378
-0.000118137
-7.02728e-05
0.00249807
-9.79014e-05
2.41561e-05
-2.79801e-05
0.000598413
-0.00115167
2.4189e-05
0.000169015
0.000851664
0.000379239
7.05056e-05
-0.000100009
2.95029e-05
-0.000439258
0.000705068
-0.000265809
-4.48215e-05
2.56805e-05
1.9143e-05
-4.12774e-05
1.4094e-05
1.90534e-05
9.84181e-05
-1.64049e-05
-5.94504e-06
7.99615e-06
-8.01065e-05
2.06787e-05
-4.71214e-05
2.64129e-05
5.83035e-05
2.60043e-05
6.25176e-06
1.25643e-05
7.36904e-06
1.26529e-05
-2.00152e-05
5.96086e-05
-0.000471258
-0.0035799
0.00701606
0.000896871
-0.00149835
-3.1275e-05
2.62839e-06
2.86677e-05
0.000883445
-2.13408e-05
-8.16867e-07
8.18678e-07
-1.95996e-05
-0.000220497
0.000118676
-0.000100931
-0.00094592
0.000651073
0.000294843
0.00135266
-0.001027
-0.000325672
-0.000547342
-8.24147e-05
0.00014042
-5.80124e-05
-5.7036e-06
-0.000116837
0.0008334
-0.000811564
-1.33979e-05
-1.25836e-05
-3.80168e-05
5.06034e-05
0.000122664
1.09986e-05
-5.72946e-05
-5.77146e-05
0.000959734
-0.000125519
-0.000834219
-0.000166737
-0.0010947
0.00126142
-2.12023e-05
2.34879e-05
-2.26549e-06
0.000178647
-4.59011e-05
-0.000132828
0.00110507
-0.00442205
0.00331698
5.43163e-06
1.43128e-05
-0.000543542
0.000733172
-0.000189635
-8.15134e-05
6.56995e-05
1.57884e-05
-0.000284788
-0.000520474
0.000805254
-0.000338668
9.99569e-05
7.79421e-05
0.00013926
-0.00127278
0.00101705
-0.000116923
0.0014134
2.10335e-05
2.46922e-05
-0.000221345
-0.0011183
5.40745e-05
2.36715e-06
0.00544008
-0.000854509
1.04744e-05
-1.41979e-05
3.721e-06
7.40438e-05
-7.37836e-05