/*--------------------------------*- C++ -*----------------------------------*\
| =========                 |                                                 |
| \\      /  F ield         | OpenFOAM: The Open Source CFD Toolbox           |
|  \\    /   O peration     | Version:  v2012                                 |
|   \\  /    A nd           | Website:  www.openfoam.com                      |
|    \\/     M anipulation  |                                                 |
\*---------------------------------------------------------------------------*/
FoamFile
{
    version     2.0;
    format      ascii;
    class       surfaceScalarField;
    location    "50";
    object      phi;
}
// * * * * * * * * * * * * * * * * * * * * * * * * * * * * * * * * * * * * * //

dimensions      [0 3 -1 0 0 0 0];
oriented        oriented;


internalField   nonuniform List<scalar> 
20424
(
-0.569528
0.591084
-0.0215559
-0.0670066
0.0995832
-0.0325766
-0.3488
0.0187445
0.330055
0.147131
0.0243067
-0.171438
-0.198838
-0.0251217
0.22396
-0.128738
0.128075
0.000663173
0.0919191
-0.119528
0.0276094
-0.206975
-0.0765837
0.358615
-0.248068
-0.110547
0.180205
-0.033073
0.127408
-0.116068
-0.0113397
-0.548377
0.33582
0.212558
-0.142386
0.155263
-0.0128776
-0.0709831
0.0593315
0.0116516
-0.028091
0.0425326
-0.0144416
-0.213386
-0.14539
0.287314
-0.141924
-0.0632558
0.0978693
-0.0346135
0.298764
-0.596851
0.298088
-0.539661
0.339295
0.200367
-0.00463588
0.00135964
0.00327624
-0.0413074
0.0132164
0.0765749
-0.063765
-0.0128098
-0.104116
0.113878
-0.00976132
-0.209046
0.0102075
-0.110221
-0.0397602
0.149982
0.0515128
-0.17824
0.126728
0.204294
-0.184198
-0.0200957
0.0958685
-0.467568
0.371699
0.241695
-0.100773
-0.140922
-0.127135
0.100969
0.0261663
-0.0151406
0.0206542
-0.0055136
-0.149035
0.142862
0.00617256
0.115204
-0.135081
0.0198777
-0.246844
-0.149678
0.396522
0.20724
-0.496263
0.289023
-0.369874
0.328097
0.0417769
-0.141552
-0.152668
0.294219
-0.247845
0.213263
0.0345821
-0.116345
0.139074
-0.0227292
-0.135952
0.00721389
0.00187612
-0.00187612
0.13224
0.0644842
-0.196724
-0.149748
-0.00871542
0.158464
0.0297114
-0.0929672
0.144788
-0.190511
0.0457233
0.110438
-0.390711
0.280273
0.12592
-0.111611
-0.0143091
-0.393786
0.328291
0.0654942
-0.0112283
0.0120024
-0.000774142
-0.124779
0.0206627
-0.00169648
-0.0029394
-0.140868
0.0245233
0.0221367
-0.0847296
0.0625929
-0.184115
0.0111359
0.172979
-0.096252
-0.297534
0.144375
-0.0108201
-0.133555
-0.00521954
-0.143815
-0.178581
0.414025
-0.235443
-0.033393
-0.0404419
0.0738349
0.386352
-0.211584
-0.174768
0.259708
-0.0877589
-0.171949
0.025594
-0.0211121
-0.00448191
-0.288517
-0.25986
-0.114383
-0.148599
0.262982
-0.169661
0.194816
-0.0251552
0.188266
0.170349
0.158482
-0.300034
-0.120586
-0.0763106
0.196897
0.189825
-0.0450369
-0.0334457
0.0393867
-0.00594104
0.000684809
-0.467289
0.466604
-0.0896829
0.0562899
-0.212172
0.338051
-0.125879
-0.0842282
-0.0212448
0.0599942
-0.127502
0.0675079
-0.115783
-0.0840512
0.199834
-0.415916
0.237335
0.138274
0.00610115
-0.421571
-0.141412
0.562982
0.463813
-0.256573
-0.259233
0.239085
0.0201487
0.0165869
0.39216
-0.296292
-0.129742
0.143938
-0.0141964
0.13227
-0.10848
-0.0237899
0.0135442
-0.0649336
0.0513895
-0.0347557
-0.0499616
0.0847173
0.188814
-0.435658
0.135307
-0.109918
-0.025389
0.242016
-0.462867
0.220851
0.0831306
-0.0609939
-0.133624
0.245397
-0.111773
-0.0936584
0.0724353
0.0212231
0.0679096
-0.0220865
-0.0458231
-0.13637
0.118815
0.017555
-0.149181
0.187396
-0.0382149
0.241432
0.216994
-0.458426
0.436576
-0.435892
0.0634574
-0.233119
0.0046635
-0.00236576
-0.00229774
-0.219927
-0.276336
-0.135786
0.219814
-0.0840281
0.0334657
-0.0397495
0.00628377
-0.664427
0.435697
0.22873
-0.0037806
0.0372463
-0.0848576
0.121532
-0.0366746
-0.239565
0.417252
-0.177687
0.13375
0.00155694
0.446922
-0.152939
-0.293983
-0.158662
0.494481
-0.0336238
0.165864
-0.120888
0.0360305
0.00741819
-0.00702921
-0.000388982
0.00042985
0.000950711
-0.00138056
0.100408
-0.293355
0.192947
-0.522675
0.302749
-0.16621
-0.0179053
-0.0328208
0.266128
0.471235
-0.271818
-0.199417
-0.211725
0.0047499
0.692397
-0.45649
-0.235907
-0.0111337
0.428477
-0.417343
0.187518
-0.483165
0.295647
0.0147712
0.185552
-0.200324
0.00347646
-0.0369221
0.0945517
0.0335233
-0.0254059
-0.0113467
0.0367526
-0.204313
0.0271126
0.1772
-0.0226848
-0.0669981
0.189008
-0.21189
0.0228821
0.0583501
-0.0721135
0.0137634
0.0588623
-0.0453181
0.0241445
-0.0934284
0.0692838
0.0826294
-0.169693
0.0870636
0.202684
-0.282549
0.0798643
-0.0933871
0.00915886
-0.139278
-0.237192
0.37647
-0.0510565
0.207784
-0.156728
0.0147949
-0.00182441
-0.0129705
0.092469
-0.122959
0.0304898
-0.0135229
0.146692
-0.133169
-0.147003
0.205765
-0.0587619
0.0153371
-0.00821671
-0.00712037
-0.557834
0.498578
0.0592561
0.0147949
0.163254
-0.159109
-0.00414462
0.144919
-0.0494701
-0.0954485
0.17901
0.118782
-0.297792
0.121062
-0.103638
-0.0174237
-0.57327
0.0154365
0.145612
-0.133259
-0.0123531
0.0364367
-0.0402173
-0.0187106
-0.0636436
0.0823542
-0.208199
0.188319
0.0198803
0.0103938
-0.0072081
-0.00318569
0.00773036
0.155524
0.160315
-0.172282
0.0119667
0.0332574
-0.100264
-0.23156
0.45293
-0.22137
0.0269366
-0.0195184
0.642403
-0.371693
-0.270709
0.00668887
0.00190898
-0.00859785
0.0731311
0.0697312
-0.558241
0.211995
0.346245
-0.241598
-0.0690281
0.310626
0.0556235
-0.0903792
0.0154704
-0.36427
0.1386
0.103095
-0.172561
0.0301758
-0.208601
0.0615975
0.304785
0.142137
0.189013
-0.0097771
0.137304
-0.127527
0.220399
-0.280505
0.0601055
-0.0124739
0.104393
0.0959925
-0.0359983
-0.166033
-0.0421654
-0.0348862
0.0094803
0.0319932
-0.0233929
-0.0086003
-0.327865
-0.336562
-0.0235233
0.138727
-0.162883
0.19141
-0.0285271
-0.000664146
-0.0685413
0.0692055
0.0493827
-0.0797171
0.0303344
0.00340138
0.216998
0.00405539
0.0112817
-0.0923921
0.208703
-0.116311
-0.0416643
-0.0386915
0.0803558
0.276254
0.110098
-0.191019
0.028136
0.015629
0.0609459
-0.261212
0.173756
0.0874562
0.122478
-0.116272
-0.00620597
0.00641745
0.00345617
-0.00987361
0.0367588
0.0955112
0.134175
-0.0396232
-0.00719322
0.00784162
-0.464814
0.45368
-0.168658
-0.0356548
0.447986
-0.275909
-0.172077
-0.125756
0.0484441
0.0773122
0.149495
-0.136488
-0.035622
0.17211
-0.0212659
-0.00495357
0.0262195
-0.142503
-0.105115
0.247617
-0.428053
0.237102
0.19095
0.126811
-0.00433344
-0.0758212
0.0601329
0.0156883
0.137585
-0.113374
-0.0242111
0.284477
-0.18407
0.0491673
0.0230619
-0.0722292
0.00605643
-0.00605643
-0.0264977
-0.0535902
0.0800879
0.162604
-0.111091
-0.106511
-0.0171654
0.123676
0.0254599
-0.02514
-0.000319945
0.132775
-0.114327
-0.0184478
0.0241778
-0.0236714
-0.000506456
-0.174415
-0.293152
-0.0907078
0.0229943
0.0677135
-0.196738
0.0602504
-0.0605851
-0.0354828
-0.0429461
0.0784289
0.0128781
-0.129654
0.116776
-0.0814421
0.0587573
0.0960823
-0.238585
-0.0165812
0.10905
0.0275834
-0.00212347
0.0717188
-0.0225515
-0.439881
0.281113
0.158768
0.333491
0.263524
0.324858
0.367539
0.460008
-0.34957
-0.00499823
-0.0418585
0.0468568
-0.104227
0.118998
0.0567866
-0.126064
0.0692778
-0.0264386
-0.252353
-0.287309
-0.297222
0.151832
0.234405
-0.18127
-0.0531342
-0.0614378
0.025955
0.0785082
-0.0641789
-0.0143293
0.108598
-0.0125988
-0.0959988
-0.137613
0.121103
0.0165099
0.0120331
-0.00561565
-0.207003
-0.0522301
-0.0247144
0.00344844
-0.161372
0.19404
-0.0326675
0.192676
-0.360422
0.167746
-0.00936275
0.000584403
0.00877834
0.206086
-0.579348
0.564854
0.0144945
-0.227835
0.0942109
-0.0454812
-0.0492272
0.0947084
-0.153852
0.140329
0.140725
-0.38029
0.00916535
-0.00247648
-0.114897
0.00641718
0.016294
-0.0119858
-0.00430826
0.282574
-0.47377
0.191197
-0.118621
-0.0184631
0.137085
0.0160023
-0.288681
0.131153
0.157528
0.13551
0.135818
-0.271329
-0.00943681
-0.0839502
0.0180374
-0.0765344
0.0584971
0.0251886
-0.13541
-0.0975271
-0.00736866
0.104896
-0.11934
0.0738587
-0.361472
0.532587
-0.171114
-0.000973093
-0.00090298
0.00187607
0.118031
-0.101076
-0.0169555
0.0112425
-0.00631287
-0.00492959
0.121198
-0.21359
0.00316802
0.00934304
-0.0125111
0.00774604
-0.00774604
-0.0115734
0.131802
-0.120228
-0.00125738
-0.118083
-0.154851
0.145074
0.143191
-0.384789
0.395137
-0.224404
-0.170733
0.0729362
-0.0950522
0.022116
0.0051515
0.0011744
-0.0063259
0.161699
-0.0504894
-0.11121
-0.0666964
0.245707
0.156207
-0.172072
0.0158653
0.17098
0.243044
-0.0952215
0.0535572
-0.201
0.221179
-0.0201785
-0.0564841
-0.0243044
0.0807885
-0.385374
0.322968
0.0624067
-0.000536539
0.0939265
0.0334812
-0.0161896
0.0399668
-0.0237772
0.0723544
-0.0122215
-0.3063
0.431288
-0.124988
0.202566
0.32332
-0.525886
0.0616831
-0.234963
0.17328
-0.430375
-0.139152
0.0660044
-0.181787
-0.223133
0.411947
-0.117967
0.146092
-0.0281255
0.00116736
-0.0105301
0.0276453
0.371648
-0.0890747
-0.173518
-0.0933828
0.266901
-0.340657
-0.217584
-0.0794198
0.242666
-0.163246
0.146972
-0.103708
-0.0432637
-0.00219866
0.00122557
0.150596
-0.13035
-0.0202466
-0.331851
0.100629
0.231222
-0.0231895
0.0179554
0.00523412
0.324938
-0.68641
-0.226122
0.0617621
-0.197548
0.047606
-0.043529
-0.00407701
0.200238
0.270997
-0.0384517
-0.143263
0.181714
0.0027604
0.0746965
-0.0774569
-0.00753002
0.00753002
-0.0232904
0.119367
-0.0960769
0.309733
0.287282
-0.000687129
-0.0130412
-0.594254
0.340485
0.253769
0.204348
-0.427481
-0.461412
0.304895
0.156517
-0.288533
0.023063
0.26547
-0.121448
0.256958
-0.337395
-0.124017
0.228346
-0.516863
0.483581
-0.296063
0.0716444
0.13265
-0.216088
-0.115763
-0.252121
0.201065
0.165877
-0.378049
-0.0254942
-0.152746
-0.00822818
-0.280305
-0.085522
0.0984001
-0.475292
0.287193
0.188099
-0.0757256
-0.0514092
-0.128786
-0.159895
-0.028217
-0.0467104
0.0749274
0.0136522
0.123933
-0.0439061
0.25169
0.165851
-0.204302
0.133569
-0.265384
0.131815
0.143079
-0.363059
0.21998
0.164189
-0.351772
0.187583
0.132729
-0.329289
0.19656
0.306263
-0.173534
0.00278502
-0.0031848
0.000399777
0.0373474
0.00615949
-0.0435069
0.0276373
0.23207
-0.109485
0.297663
-0.188178
0.109591
0.0464801
-0.156071
0.0153052
-0.0771773
0.0618721
-0.114502
-0.0154886
0.12999
-0.000446603
-0.0850448
0.0854914
-0.264868
-0.175013
-0.260763
-0.096121
-0.289253
0.00727717
-0.00212567
0.123853
-0.103078
-0.490308
0.151083
0.339226
0.139214
0.00570462
-0.000110085
-0.000555336
0.000665421
-0.00655037
0.0429871
-0.506329
0.292371
0.213957
-0.0515638
0.0353742
0.0388958
0.107796
-0.155795
0.0790993
0.076696
-0.648181
0.22661
-0.286301
-0.204008
0.0911621
0.157545
-0.248707
-0.135387
0.126601
0.00878625
-0.00727926
8.60407e-05
0.0287766
-0.107063
0.0782867
-0.151113
0.180592
-0.0294793
-0.226243
-0.229465
0.455708
0.494602
-0.25317
0.0447296
-0.0339315
-0.0107981
-0.128299
0.261867
-0.261626
0.602111
-0.738904
0.560424
0.17848
-0.0184806
0.00333997
-0.141484
0.333723
-0.192239
-0.428146
0.196585
0.0312307
0.188583
-0.103686
0.0162469
0.0874396
0.0926239
-0.0791824
-0.0134414
0.00302576
0.324592
-0.168957
-0.155635
-0.1782
0.159201
0.0189984
-0.11627
0.0457059
0.0705642
-0.0164789
0.00507842
0.0114005
0.0970803
0.00388821
0.11158
-0.0877772
-0.0238024
-0.0131701
-0.068272
0.277462
0.36494
-0.135177
0.00543586
-0.651252
0.252581
0.398671
-0.114179
0.0619015
0.0522778
-0.248657
0.169237
0.0594295
0.10227
-0.0428578
-0.0346226
0.0774804
0.109249
-0.0109597
-0.0982897
0.0304299
-0.0960408
0.0656109
0.331039
-0.18796
-0.120914
-0.103201
0.224115
0.191575
-0.153603
-0.037972
0.0813793
0.0302004
-0.0250834
0.0355231
-0.0104397
-0.125505
-0.00988229
0.420088
-0.638673
0.218586
0.0487378
-0.00113176
-0.0373314
0.0463965
-0.00906516
-0.156782
-0.0638731
-0.0724972
-0.20239
-0.127278
0.329668
0.130612
-0.123138
-0.0074736
0.0900154
-0.0912367
0.00122128
0.216671
-0.185441
-0.0555556
0.0735929
0.583322
-0.30716
-0.276162
0.0142562
-0.111783
0.0697409
-0.0323935
0.0155268
-0.00117823
-0.0143486
-0.0727676
-0.0467609
-0.0953684
0.0943215
0.00104686
-0.325453
-0.267894
0.593347
0.100577
0.00802011
0.0120992
0.0656653
-0.0843759
0.0284523
-0.14671
0.237872
0.141462
0.103195
-0.244656
-0.291067
0.138399
0.00730933
0.0173341
-0.0246434
-0.0290243
-0.219044
-0.149106
0.24528
-0.0961736
-0.70124
0.301123
0.400117
0.0402974
-0.159852
0.190055
-0.030203
-0.346296
-0.127474
0.289904
-0.539916
0.250013
-0.0666187
0.040121
-0.122113
0.104788
0.0173246
-0.0671191
0.0958956
0.0819675
-0.00903127
0.120809
0.086755
-0.207564
0.012958
0.0673199
-0.0802779
0.211728
0.183409
0.00401312
0.0100732
-0.0140863
-0.00362297
0.137622
-0.133999
0.0203523
0.156479
-0.00122437
-0.155254
-0.0690686
0.0262108
-0.270184
-0.236145
0.372359
0.277654
-0.650013
-0.301472
-0.399767
0.132105
0.084566
0.000478697
-0.000588782
-0.174679
-0.0731657
-0.139676
0.016921
-0.0804713
0.108984
-0.0285126
-0.0105806
-0.0845755
0.095156
-0.00210082
-0.0143781
-0.192047
0.00306801
0.0754402
-0.367163
0.556585
-0.189422
-0.0964164
0.0858358
0.00664418
-0.00417568
-0.0024685
-0.348004
0.206519
-0.362616
0.160226
-0.0878472
0.113561
-0.0257135
0.131088
-0.147432
0.0163437
0.334897
-0.14222
0.104159
-0.253265
-0.176468
0.300191
-0.203654
-0.0965372
-0.450498
0.297965
0.152534
-0.0264315
0.00276017
-0.00717373
0.0103418
-0.0604466
-0.0558236
0.0058522
0.0018175
-0.0076697
0.0176191
0.00797497
-0.152741
0.174968
-0.0222272
0.0111543
0.180421
0.143012
-0.263926
0.22195
0.0782416
-0.30655
-0.253725
0.560274
-0.1111
0.132977
-0.0218773
-0.145604
-0.239218
0.1327
0.106518
-0.00780487
0.001492
0.253591
-0.112129
0.0006842
-0.328512
0.219028
-0.133127
0.267201
-0.134074
0.0111471
-0.0749121
0.192945
-0.027094
-0.079208
0.0660379
0.156867
-0.271251
0.00603151
0.00949529
-0.100588
0.0808288
0.0197589
-0.0381968
-0.0759825
0.296752
-0.13827
-0.426903
-0.312001
0.665181
-0.348867
-0.316314
0.104365
0.157737
-0.262101
-0.255546
-0.172507
-0.0100925
0.0100925
-0.174436
0.0311733
0.00828562
-0.00243341
-0.131179
-0.0246168
-0.066035
0.00786237
0.0581727
0.0145262
0.118248
-0.264963
0.563726
-0.0100595
0.067874
-0.0578144
0.0722672
-0.0593092
0.244992
-0.149125
-0.095867
-0.0800614
-0.0205263
-0.19498
0.253991
-0.0590113
0.239626
0.0786024
-0.318229
-0.171015
0.404578
-0.233563
-0.159471
0.133977
-0.0465702
-0.192648
0.130075
-0.0223728
-0.107702
0.122922
0.18334
0.0524405
0.0154691
0.0620636
-0.111534
-0.0240679
-0.115608
-0.0218903
-0.110531
0.132422
0.0146442
-0.274599
-0.0952757
-0.0575694
-0.00846559
-0.00473804
-0.0216935
0.0114064
0.0139973
-0.070228
0.0562307
0.0838729
0.00614252
-0.0864193
0.001168
0.0852513
-0.078386
0.0219019
-0.01007
-0.00115824
-0.0975998
-0.0184683
0.0573601
-0.181436
0.124076
-0.0287854
0.0129759
0.0158094
0.00029975
0.0001301
-0.0699517
0.0598922
-0.121023
0.0310203
0.090003
-0.261188
0.114195
0.146993
-0.0140066
-0.00447398
0.131995
-0.103925
-0.0280693
-0.109789
0.0864984
0.201178
-0.139495
0.218551
-0.389566
0.0279745
-0.185968
0.0494312
0.136537
0.00294354
-0.00142205
-0.00152149
-0.0173672
-0.0536159
0.51884
-0.316274
0.39957
-0.0754362
-0.324134
-0.052698
0.0680031
-0.141161
-0.120027
0.0191914
-0.0118821
0.149549
-0.45585
-0.444156
0.269895
0.17426
0.325949
-0.214813
-0.111136
-0.0667542
0.0695146
-0.431123
0.20488
0.0727707
-0.100163
0.0273925
-0.00413524
-0.0246502
-0.297244
-0.354007
-0.151501
-0.101298
0.252799
-0.324423
0.150905
0.0069098
0.00257407
0.00208942
-0.184022
0.0643664
0.119656
-0.0705097
-0.0328217
0.103331
-0.233203
0.0864931
-0.0596582
0.0900881
-0.00179792
0.00976603
-0.00796811
-0.158596
0.153376
0.0492647
-0.182627
0.133362
0.392185
0.181683
-0.573868
0.054322
-0.00713592
0.0741335
-0.0673692
-0.0067643
0.216159
-0.149744
0.175847
-0.0261032
0.189272
-0.038955
-0.150317
0.157308
0.0591741
-0.216482
0.0149947
-0.167736
-0.0306492
-0.14755
0.0694971
-0.0102641
0.0681945
-0.0579304
-0.203223
-0.212693
0.00982761
-0.0116132
0.00178564
-0.00379175
-0.18746
0.0214271
-0.0405059
-0.146955
-0.055693
-0.0114908
0.0671838
-0.0798069
-0.0238795
0.00803437
-0.0061095
-0.00192486
-0.00814597
0.00634806
-0.232001
0.0573215
-0.155514
0.151891
0.0271427
0.0083804
0.0038708
0.00813161
0.148525
0.455488
-0.604013
-0.156025
-0.196772
0.352797
0.188042
-0.0333169
-0.154725
-0.238295
0.480311
-0.0106139
0.0235899
-0.073072
-0.0526843
-0.117544
-0.066478
-0.172452
0.00624253
-0.0204954
-0.151957
0.143865
-0.328903
0.185038
-0.138634
-0.0518769
-0.0911319
0.0961261
-0.00499415
-0.204066
-0.15855
-0.0739422
-0.0194862
0.213269
0.11268
-0.0854811
0.051219
0.0342621
-0.00344522
0.0116718
-0.00822657
-0.043643
0.47934
-0.111552
0.0234139
0.0881377
-0.122766
-0.138447
0.362075
-0.197886
0.0652385
-0.0508059
-0.0144326
-0.187829
-0.172329
0.360158
-0.0728592
0.0716018
0.481885
-0.278994
-0.202891
-0.217593
0.0684123
0.14918
0.224843
0.337077
-0.56192
-0.170478
0.20919
-0.0387119
0.0892874
0.175868
-0.265155
0.00954553
0.213668
0.192057
-0.405725
0.149666
0.231498
-0.381164
-0.343395
0.250672
0.0927227
0.281708
-0.468826
0.187118
-0.00680053
0.0033553
0.118623
-0.0617684
-0.0568548
0.125927
-0.147817
0.0730092
0.045614
0.197379
0.0476133
-6.72857e-06
0.00606316
0.0486389
-0.0131203
-0.0355186
-0.534418
0.136518
0.397901
0.129552
0.0174202
-0.0763348
0.348243
0.0513279
0.629207
-0.256848
0.165627
-0.0280045
0.0938537
-0.021083
0.00591682
0.00447697
0.0332147
0.54071
0.104992
0.0138033
0.252144
0.305316
-0.55746
-0.0785158
-0.0168526
0.25823
-0.564779
0.000577779
-0.0361351
0.204305
-0.16817
0.484658
-0.243439
-0.241219
0.268549
-0.519894
0.251345
-0.380992
0.156588
0.0429357
-0.0479339
0.0489123
0.0516652
0.0186817
-0.0201472
-0.326149
0.0089294
-0.194898
-0.0942315
0.0856052
0.00862625
0.184266
-0.0636825
-0.168318
-0.0212239
0.0212393
-1.53773e-05
-0.0219689
-0.00105893
0.0230279
0.0126429
0.0852264
0.508149
-0.544789
0.0366397
-0.0813467
-0.00936114
0.106137
-0.124189
0.0180525
0.199274
-0.341466
0.142192
-0.26447
0.451919
-0.187449
-0.0907433
0.120992
-0.104324
-0.0166687
0.289397
-0.00302439
0.00478724
-0.00176285
0.00948065
0.000346957
-0.0399169
0.122546
0.241043
-0.261573
0.0205299
-0.209163
0.387572
-0.178409
0.363551
-0.213885
0.0240526
-0.0346665
0.136526
-0.019904
-0.116622
0.465492
0.125592
-0.114426
-0.0152279
0.167329
-0.344918
0.177589
0.183912
0.0101278
0.198265
0.249721
-0.0234932
0.0403111
0.0144815
0.441007
-0.148675
-0.0492179
0.197893
0.152225
-0.0901614
-0.0231596
-0.0403792
0.0635388
-0.0270968
-0.00867561
-0.0877407
0.032781
0.113311
0.000261936
0.000826271
-0.00263069
0.022467
0.0246097
-0.0882533
-0.00652219
0.00918368
-0.00266149
-0.481272
0.211088
-0.000439173
0.0023153
0.00375832
0.144057
-0.147815
0.174707
-0.144389
-0.0303184
-0.0326649
-0.0748761
0.107541
0.141402
0.192321
-0.00754276
0.00247313
0.00506963
-0.155416
-0.423932
-0.0791366
0.11022
-0.0310833
-0.000525542
-0.00135058
0.32329
-0.193015
-0.130276
0.227808
-0.0426315
-0.185176
0.0720853
0.0334206
-0.105506
-0.201269
-0.166647
0.367916
0.0939086
-0.0209349
-0.0729737
-0.102064
0.0109326
-0.0120252
-0.0579266
-0.0658457
0.0937906
-0.0448783
-0.403383
0.161097
-0.151546
-0.00955091
-0.0783185
0.235864
0.314087
-0.147804
-0.166283
-0.00808982
0.0674214
-0.0944644
0.293739
0.161702
-0.0243983
0.166629
-0.0761722
-0.548897
0.0144785
0.268453
-0.132635
-0.180628
-0.148661
0.157568
-0.0179721
-0.139596
-0.0168223
-0.0349266
0.0435312
-0.00860463
0.0882712
0.0252895
0.239111
0.0854807
0.143136
0.413448
-0.0960687
-0.00756958
-0.0413607
-0.0522977
0.25725
-0.152886
0.264344
0.220315
0.475905
-0.165409
-0.310496
-0.113786
-0.400558
0.240943
0.159615
0.0129859
-0.0637918
0.287346
-0.53901
0.251664
0.115857
0.000751815
-0.116609
0.000476724
-0.0796847
0.049127
-0.0393411
-0.00978586
0.275629
-0.603494
0.255683
0.226202
-0.24257
0.481793
-0.239223
0.11834
0.116065
0.0725003
-0.0974018
0.0249015
-0.000671002
-0.0204411
0.007606
0.0724331
-0.0906906
0.0182575
-0.118836
0.000214838
0.0358525
0.00887704
0.307173
-0.163309
0.1738
0.0473788
0.0901588
-0.0789819
-0.0111769
-0.131516
-0.0860769
-0.304785
0.0886971
0.120926
0.027488
-0.148414
-0.0543516
0.068349
-0.0870944
-0.161563
0.0764031
-0.0296921
-0.046711
0.20202
-0.0447115
0.00360778
-0.012195
0.00858722
-0.0727084
0.354726
-0.282018
-0.00195108
0.000529029
-0.00788678
0.00136459
0.00453798
-0.0283047
0.0306419
-0.00233714
-0.0424511
-0.0439681
-0.110029
0.1334
-0.0233705
0.00505722
-0.00144943
0.220359
0.161797
-0.112532
-0.39792
0.345966
0.0519536
0.110005
-0.0124479
-0.0975575
0.482473
-0.192569
0.0421541
-0.0810429
0.0388888
0.0864706
-0.0509805
-0.0354901
-0.163152
0.0971231
0.0660289
-0.187998
-0.160006
-0.0668932
0.214707
-0.147813
0.0419228
-0.00607024
0.038515
-0.219785
0.14422
-0.0868601
-0.231725
0.488642
-0.256917
-0.0723091
0.0599749
0.0123341
0.101569
-0.0206318
-0.0809368
-0.0793033
-0.0933901
0.116987
-0.0235968
0.000914044
3.66664e-05
0.290837
-0.0775681
-0.00376236
0.000737965
-0.0808411
0.03839
-0.000152701
0.072588
0.0314105
0.033421
0.115361
0.0998067
-0.215168
-0.090967
0.0973109
-0.00634387
-0.173636
-0.423215
0.157369
0.0300268
0.0490496
0.207346
0.25198
-0.459326
0.0118749
0.036764
0.00559799
-0.0166982
-0.00231288
0.0190111
0.000615339
0.0887208
0.00143797
-0.0540386
-0.0154023
0.0694409
0.258625
-0.137353
-0.121272
0.0123846
-0.0974294
0.449579
0.0585709
0.0545129
-0.0700665
0.0155536
0.103087
-0.0805757
-0.0225108
0.0379745
0.151033
0.0923877
-0.0234421
-0.0689455
-0.0894851
0.0358949
-0.0995392
0.0946025
0.00493679
0.345653
-0.145959
-0.199694
0.0997201
-0.0429335
0.00138756
-0.000203184
-0.00118438
0.232076
0.222601
-0.0500109
-0.17259
0.240564
-0.524911
0.284347
-0.506965
0.116254
-0.330757
0.5556
-0.0406293
-0.00675061
0.0473799
-0.278897
0.531041
-0.198934
0.369902
-0.170968
0.0214722
0.489584
-0.262808
-0.226776
0.109496
-0.12107
-0.142535
-0.185978
0.100955
-0.13362
0.17116
-0.258254
0.0488183
-0.0709048
0.524451
-0.271014
-0.253437
0.0225104
-0.00956123
0.0219942
-0.0124329
0.0104764
-0.0795606
0.0944498
-0.0148892
-0.110169
0.0596799
-0.049446
-0.0360351
-0.027873
0.0999583
0.0485113
-0.00921061
-0.0393006
-0.0861001
0.100356
-0.550218
0.209562
-0.00810552
-0.00608702
0.0141925
0.202116
-0.0070212
0.000911691
-0.0572498
-0.15464
0.0121195
0.0532308
0.035373
-0.0886038
-0.0184736
0.0909067
0.581325
-0.317801
0.177633
-0.208644
0.0310116
0.00195644
0.0265128
-0.0284693
0.0338055
0.188795
-0.0632175
-0.00811654
0.0713341
0.166184
-0.215603
0.0494197
0.0840152
-0.0671182
-0.0168969
0.0529475
0.0790472
-0.00372714
0.0889784
-0.0566801
0.565329
-0.244542
-0.320787
-0.0093994
-0.0340883
0.0434877
0.0772183
-0.0183985
-0.0588199
-0.451114
0.308819
0.142295
-0.109706
0.287134
-0.177427
0.0382022
-0.0110594
0.253375
0.037462
0.118096
-0.101667
-0.0164296
-0.00395658
0.00534414
0.495917
-0.227369
-0.0743016
0.0945473
-0.0202457
-0.0524424
-0.109452
0.161895
0.146412
-0.113631
-0.2998
0.190094
-0.259786
-0.191327
0.299393
0.297622
0.00761866
-0.0108652
-0.03241
0.0432752
0.372536
-0.167278
-0.205258
0.431511
-0.224166
0.101472
0.0618713
-0.163343
0.085404
-0.0321732
-0.0255862
0.432901
-0.215907
-0.229578
0.317796
-0.104128
0.558368
-0.33118
-0.227188
-0.381078
0.177011
-0.0985608
-0.0645913
-0.162508
0.155197
0.0073112
0.0595515
0.0269191
-0.100975
0.0237255
0.0772497
-0.145794
0.129065
0.0167289
0.096665
-0.0840221
0.26568
-0.129254
-0.136426
0.511426
-0.0913386
-0.302332
0.239349
0.0629826
-0.0191331
0.073646
-0.173282
0.0664847
-0.0917599
-0.0291282
-0.0733217
0.0612965
-0.587685
0.262232
0.0104661
-0.0238273
-0.130025
0.103794
-0.0787039
-0.0250905
-0.0709834
-0.326937
0.0112802
0.0811075
-0.164286
-0.0468788
0.211165
0.389488
0.275693
-0.115033
0.250047
-0.135014
0.504938
0.0232109
-0.528149
-0.0334263
0.110739
0.15208
-0.131766
-0.0203139
0.029649
-0.115749
0.235928
-0.566685
0.0387036
-0.048103
-0.338448
-0.00138117
-0.00614886
0.00356627
-0.384139
-0.0433636
0.427503
-0.00792267
0.0154194
-0.00749675
-0.629413
0.373572
0.255841
-0.381881
0.180612
-0.221537
0.154644
0.596004
-0.308722
-0.200942
-0.10139
-0.171444
-0.0919481
0.263392
0.339616
-0.172287
0.254493
0.162759
0.200395
0.322204
-0.522599
-0.275797
0.0808166
0.0748171
0.024903
0.0403455
-0.0512107
-0.38633
0.15634
0.22999
-0.0156608
0.00165415
0.325768
0.271247
0.135325
-0.0251572
-0.129694
0.124519
0.0112298
-0.00829099
-0.00293881
0.0441582
-0.0427035
-0.00145465
-0.00604372
-0.100608
0.253753
-0.153145
0.365382
-0.125756
0.0137446
0.0603889
0.143592
-0.557503
0.292249
0.265254
0.0110215
0.142663
-0.216552
0.132501
-0.0228653
0.00626464
0.0166007
0.120147
-0.0151964
-0.10495
0.481952
-0.207336
-0.274616
0.0244077
0.132387
-0.156795
-0.100055
0.0850345
0.0150207
0.499729
-0.244047
0.0733212
-0.0891236
0.0158024
-0.277636
0.22367
0.0539663
-0.00503114
0.0204015
-0.0153704
-0.131587
-0.0270092
0.0676494
0.0979771
-0.055104
-0.0355866
-0.0479699
-0.0432667
0.166187
0.399142
-0.0028523
-0.156032
0.0039089
0.30491
-0.10133
-0.013567
0.359542
0.231527
-0.591069
-0.23724
-0.243002
0.480242
0.0883299
-0.259774
-0.204109
0.541186
0.00442098
0.156676
0.00586594
0.0323363
-0.356068
0.168239
-0.0632759
0.04763
0.0156459
-0.0158392
0.0108081
0.299076
0.200653
-0.00545279
0.0112878
0.0286907
-0.0399785
0.0424668
0.141445
0.0431424
0.00882654
0.00746748
-0.0397043
0.0957104
-0.0560062
-0.0203925
-0.000831372
0.0603252
0.0363398
-0.120934
0.277802
0.0974106
-0.0123761
-0.320526
-0.229692
-0.0081406
-0.0147247
0.0092553
-0.120866
0.0167218
0.0102148
-0.201141
-0.243015
-0.0198104
-0.00914912
0.0289595
-0.22296
-0.205186
-0.0399455
0.0512149
-0.0112694
-0.0709648
0.0787233
-0.00775851
0.0780534
0.0158551
0.198723
0.14693
-0.0241675
0.00219852
-0.102386
0.0376238
0.0647621
-0.197553
-0.107231
-0.0260263
0.000886315
-0.0832744
0.184746
0.10005
-0.0768293
-0.0232202
0.138085
-0.118279
-0.0198054
-0.0281813
-0.000123402
0.328111
-0.017784
-0.119829
-0.227322
-0.25395
0.096774
0.0190833
0.0302977
-0.18564
0.155342
-0.257458
-0.217835
0.0273154
0.0670062
-0.295358
0.073821
0.0900129
-0.0986885
0.0874331
0.0305981
0.441921
0.000459294
0.00728675
-0.10949
0.267227
0.262181
-0.185303
-0.0768777
0.011223
-0.0291203
0.0178973
0.167929
0.171191
-0.33912
0.215721
-0.243897
0.0281765
0.348251
-0.173035
-0.175216
-0.00706723
0.0429457
-0.0358785
0.174416
-0.301212
0.126796
-0.00195079
-0.128643
-0.24835
0.376992
-0.0877675
0.23078
0.471993
-0.273276
-0.198717
-0.164499
0.00199147
-0.560035
0.434425
0.12561
0.00664105
0.00311847
-0.00975952
-0.013505
0.134608
0.112802
-0.081782
0.180188
0.0887226
-0.268911
0.330755
0.163685
-0.49444
-0.562186
0.283289
0.0629019
0.176448
-0.204617
-0.302348
0.125286
0.0309209
-0.0063864
-0.314207
0.49328
-0.179073
-0.157406
0.0368202
0.00733709
0.020614
0.0229478
0.183589
-0.326124
-0.0119665
0.0208045
-0.173097
-0.104539
-0.0291322
0.000950896
0.298893
0.26041
-0.559304
-0.233495
-0.1099
0.0108332
-0.0137127
0.00287944
0.108894
-0.0340765
-0.162834
0.0934937
-0.12692
-0.206815
0.106207
-0.113694
0.133588
-0.019894
-0.13143
0.122715
-0.430229
0.18679
-0.00672947
0.0505514
-0.00761569
0.00395679
0.00268739
-0.0494032
-0.122669
-0.185149
0.192588
-0.00743829
-0.00482755
0.0924981
-0.243999
-0.0519032
0.333611
0.0878963
0.00918397
0.471765
-0.14101
0.0809399
0.0228545
-0.0696099
0.0593458
-0.0750027
0.0935622
-0.0185595
0.0463228
-0.0469869
-0.257195
0.00666666
0.250528
-0.0926967
-0.0083791
-0.0179553
0.18524
-0.167285
-0.0188871
-0.0678768
0.0867639
0.140394
0.143853
-0.284248
-0.0611589
0.53294
-0.273614
-0.259327
-0.428636
0.163768
-0.0402362
0.0063047
-0.477451
0.234881
-0.280849
-0.281338
-0.0167255
-0.099508
0.116233
0.0365037
0.157057
-0.193561
0.216225
-0.0424249
-0.377605
0.168442
-0.0371711
-0.026824
0.0639951
0.0137725
0.0511589
0.0255715
-0.0450899
-0.112624
0.0901662
0.0224579
-0.503084
0.118945
0.0470115
0.0476079
-0.0946195
0.146868
0.00521205
-0.144952
0.0686416
-0.0365679
0.0621395
0.0649858
-0.00279051
-0.0621953
0.629676
-0.519165
-0.110512
-0.0436787
0.0858328
-0.044255
0.0912665
0.00969708
-0.0103842
0.466843
-0.230059
-0.236784
-0.0343301
0.0406287
-0.00629867
-0.407614
-0.152421
0.000611564
-0.230714
0.408524
-0.17781
0.519785
-0.261482
-0.258304
-0.00722892
0.00363658
0.00359234
-0.496139
0.258899
0.186756
0.238857
-0.425613
-0.25861
0.0130504
0.00425726
0.00223718
-0.00649444
-0.0899378
-0.0226862
0.321121
0.308086
-0.0964233
0.0221217
-0.383773
0.142789
0.240983
0.00853285
-0.00527763
-0.00325522
-0.312405
0.546873
-0.234468
-0.208968
0.28757
-0.0959773
0.0408733
0.0616325
0.208176
-0.269808
-0.167737
-0.225379
0.393116
-0.0166302
0.118021
-0.101391
0.0014241
0.33787
-0.140723
0.446039
-0.15022
0.180518
-0.223477
0.0647155
0.158762
0.144211
-0.416029
0.184209
0.00383281
-0.389462
0.124991
-0.0876749
-0.207684
-0.20831
-0.0488849
0.142405
-0.194847
0.43721
-0.296484
-0.113052
-0.0145797
0.127632
-0.00465198
0.0226074
0.167966
0.106381
-0.274348
0.0257993
0.0285227
0.0550696
0.273028
-0.0335987
-0.137113
0.170712
-0.491906
0.260181
-0.343914
0.187889
-0.153243
0.17505
-0.0218078
0.0467666
-0.00260846
0.0220659
0.112251
-0.134317
0.596982
0.307897
-0.303988
-0.0939803
-0.00699491
-0.00771176
0.0491144
-0.0414026
-0.12846
-0.213124
0.341584
0.00897348
0.0939608
-0.102934
0.220547
0.030125
0.190994
-0.0248105
-0.0234467
0.0114609
-0.0733628
-0.0911367
-0.0132864
0.0581276
-0.0448412
-0.166047
0.369591
-0.203544
0.461455
0.171314
-0.299774
0.283291
-0.544064
0.260773
-0.0283613
0.122853
0.127194
0.206291
-0.496853
0.290562
-0.310208
-0.237088
0.547297
0.529301
-0.288251
-0.241051
-0.223678
-0.206551
-0.0230844
-0.00294192
-0.367091
-0.262322
0.0112803
-0.00740384
-0.00387649
0.285668
-0.155833
-0.129834
0.00195415
0.0703407
-0.000955582
-0.0693852
-0.336073
-0.237544
0.573616
-0.299352
-0.136694
0.0944992
-0.0700915
0.0748988
-0.038646
-0.0362528
0.0607945
0.011012
-0.0718065
-0.265652
-0.0366002
-0.0355133
0.0177849
-0.0969214
0.0646272
0.0690316
-0.0879187
0.296199
0.300816
-0.260631
0.111506
0.142746
-0.24352
0.0207805
-0.0830928
0.0623123
0.0335405
0.181166
0.234797
-0.116452
0.0265138
-0.0176171
0.0207289
-0.00311186
0.301347
0.00411042
0.0236233
0.0527799
0.205998
-0.215699
0.00970053
0.160254
0.0688778
0.00834053
0.010705
0.12738
0.268222
0.198621
0.0137516
-0.0677902
0.280588
0.143006
0.142662
0.16787
-0.168341
0.000471196
-0.192138
-0.0313395
0.167034
-0.335992
-0.610492