/*--------------------------------*- C++ -*----------------------------------*\
| =========                 |                                                 |
| \\      /  F ield         | OpenFOAM: The Open Source CFD Toolbox           |
|  \\    /   O peration     | Version:  v2012                                 |
|   \\  /    A nd           | Website:  www.openfoam.com                      |
|    \\/     M anipulation  |                                                 |
\*---------------------------------------------------------------------------*/
FoamFile
{
    version     2.0;
    format      ascii;
    class       volVectorField;
    location    "50";
    object      U;
}
// * * * * * * * * * * * * * * * * * * * * * * * * * * * * * * * * * * * * * //

dimensions      [0 1 -1 0 0 0 0];


internalField   nonuniform List<vector> 
13749
(
(1.01108 0.000725131 -4.66652e-21)
(1.05159 0.00162117 -1.52602e-20)
(0.9857 -0.00927754 0)
(1.02758 0.0615417 -1.59723e-21)
(0.988771 0.0496458 0)
(1.08184 0.0389884 3.04944e-20)
(0.946393 0.207849 1.70541e-20)
(1.03228 0.00267802 0)
(0.991375 0.00580802 8.04213e-22)
(1.0284 0.0626327 1.38975e-21)
(1.05488 0.00112305 0)
(1.00044 0.00394568 1.171e-20)
(1.05253 0.074615 -2.35214e-21)
(1.0076 -0.00406563 0)
(0.72382 -0.00874008 0)
(1.0381 0.000297491 -4.66712e-21)
(0.987537 0.0155029 -8.65127e-21)
(1.0521 -0.00589034 0)
(1.00183 0.00341117 8.49548e-21)
(0.996705 -0.0011395 -2.1225e-21)
(-0.0823023 -0.0126646 -5.58883e-20)
(0.681715 -0.00818103 1.87364e-21)
(1.03908 -0.0192701 -1.96447e-21)
(1.05995 -0.00253636 0)
(0.98582 0.0489219 0)
(1.06287 0.0218408 3.25037e-20)
(1.06002 0.0254636 1.10469e-20)
(1.05177 0.052469 -1.59307e-20)
(1.01429 0.00452427 5.197e-21)
(0.966845 0.0200835 -2.17879e-21)
(1.11212 0.263592 3.04946e-21)
(0.376153 -0.00129184 0)
(0.911637 0.0506403 -1.80557e-20)
(1.05221 -0.0018992 1.51917e-20)
(1.01021 0.0106382 6.18932e-22)
(1.01312 0.004238 0)
(0.984215 -0.00751419 1.01027e-20)
(0.992513 0.019805 -1.12684e-20)
(1.04137 0.0223751 -5.63171e-21)
(1.05423 0.00314543 1.27795e-20)
(1.08136 0.0414863 -3.62851e-20)
(-0.0472384 -0.00565113 3.35014e-20)
(0.934187 0.0228455 0)
(0.915223 -0.0107831 0)
(1.05197 -0.00707815 -2.56128e-22)
(1.0488 0.0400766 0)
(0.99996 0.00386761 0)
(1.07627 0.00650527 1.55616e-20)
(1.01762 0.0118246 0)
(-0.22658 -0.00756751 -9.43589e-20)
(1.06003 -0.00197594 2.88997e-21)
(-0.0690385 -0.0127571 5.17556e-20)
(1.05469 0.00332545 -1.47344e-20)
(1.07585 -0.0286176 1.54091e-20)
(1.00186 0.0871283 0)
(1.01699 0.0120919 -2.2333e-21)
(1.05723 0.064835 -2.60088e-23)
(0.914337 0.0416278 0)
(1.01229 0.0133912 6.16453e-21)
(1.0828 -0.0385774 -2.18218e-20)
(1.00167 0.0187779 5.22721e-21)
(1.02881 0.0371173 0)
(0.423775 0.00302343 0)
(1.00035 0.0036962 -1.2277e-20)
(1.02524 0.0256935 5.97476e-22)
(0.941066 0.0108318 6.88593e-21)
(0.991243 0.00644478 -6.53342e-22)
(0.993224 0.0190585 0)
(1.04101 -0.000982876 1.27557e-20)
(1.04794 0.0386693 0)
(0.698697 0.0122324 -2.44001e-20)
(1.00719 0.00120515 6.55835e-21)
(1.08749 -0.0354641 -1.74475e-20)
(1.01851 0.0159967 4.30576e-21)
(1.06702 0.00336636 -4.73836e-21)
(1.07335 0.178058 -5.68129e-21)
(1.03982 0.00483894 0)
(1.0122 0.0137701 0)
(1.05718 0.0650669 1.31816e-20)
(1.00002 0.000500253 0)
(1.01336 0.00464277 2.63808e-21)
(0.979018 0.0451532 -1.36938e-20)
(1.06064 -0.00318996 3.41289e-21)
(1.01454 0.0047428 -3.32559e-21)
(1.07942 0.0610516 -1.25409e-20)
(1.05593 0.185833 1.32083e-20)
(1.03762 -0.0409591 1.01319e-20)
(1.08626 -0.0146024 1.01503e-20)
(1.00987 0.0100777 -6.44372e-22)
(1.07398 0.00496938 -4.31561e-22)
(1.00709 0.0067404 2.55431e-21)
(1.07613 -0.0313365 0)
(1.03049 0.0300604 0)
(1.20124 0.0561097 0)
(0.731965 0.306325 0)
(1.0599 0.000275744 1.11932e-20)
(1.04704 0.00837757 0)
(0.995305 -0.00526931 -8.50127e-21)
(1.00726 0.0012872 0)
(0.944519 0.0126668 1.11635e-20)
(0.0775639 -0.014677 5.30427e-20)
(1.01275 0.00455968 0)
(1.04153 0.00808527 3.60479e-21)
(0.587204 -0.0166576 -8.51668e-22)
(0.999781 -0.0014558 -2.33536e-21)
(0.619593 -0.0167493 9.18554e-22)
(1.08092 0.010246 0)
(0.993793 0.00750607 1.36942e-20)
(1.0729 0.00505468 -5.55466e-24)
(0.9957 0.00316489 1.14737e-20)
(1.00033 0.00418995 -1.13552e-20)
(0.92923 0.0227742 -1.10881e-20)
(1.08271 0.0112094 -1.24147e-20)
(0.0726269 0.0536344 6.59933e-20)
(0.00568796 -0.0151881 -8.36805e-21)
(1.02729 0.0133614 1.20775e-21)
(1.01252 0.00406191 -5.31581e-21)
(0.997267 0.0860794 -3.03355e-21)
(0.96876 -0.017525 0)
(1.01368 0.0124186 -4.43877e-21)
(1.03202 0.00310946 -5.20561e-22)
(1.00013 0.000133994 -3.8188e-21)
(1.01216 0.00076641 3.89508e-21)
(1.01511 0.00336933 -1.15522e-21)
(0.983088 0.0456796 -3.08922e-21)
(0.711144 0.0124226 2.22674e-20)
(1.08118 0.0380633 0)
(0.645437 -0.0396789 -1.22531e-20)
(1.05025 0.0166507 3.0761e-21)
(1.08967 -0.0362177 3.2878e-20)
(1.04127 0.0543737 9.65012e-21)
(0.988598 -0.0246264 -5.70057e-21)
(0.985939 -0.0425806 -3.4341e-22)
(1.07928 -0.0234856 7.97954e-21)
(1.06355 0.0539876 -2.29334e-20)
(0.953453 0.000491342 4.90954e-20)
(1.06667 0.00407948 0)
(1.01769 0.0110781 4.29504e-21)
(1.0331 0.0115499 7.2535e-24)
(-0.272601 -0.0101173 0)
(0.843501 0.0292061 5.92686e-20)
(1.05424 0.00966379 1.22286e-22)
(1.04599 0.0206864 4.19469e-21)
(0.210654 -0.0296301 6.36175e-20)
(1.00809 0.00154496 2.65284e-21)
(-0.278922 -0.00771439 0)
(1.05356 0.0582294 1.00304e-20)
(0.985979 0.126214 -7.05935e-21)
(0.969354 -0.00814352 1.99281e-20)
(1.05479 -0.00203274 1.4023e-20)
(1.00779 0.00166336 0)
(1.05091 -0.00250561 0)
(0.678536 -0.01907 -4.94792e-21)
(1.11551 -0.0197314 -5.20375e-20)
(1.04233 0.000804309 0)
(0.173128 -0.0120906 0)
(1.05373 0.0562663 2.86111e-22)
(1.061 0.07118 0)
(1.0512 0.00112833 1.37537e-20)
(0.998174 0.00925272 2.23115e-20)
(0.430634 0.151775 2.01693e-20)
(1.00268 0.00124759 -4.18174e-21)
(-0.1587 -0.0151787 1.25226e-19)
(0.912459 0.0490304 2.12729e-20)
(0.997078 0.000348303 -9.85267e-23)
(0.997876 0.0146929 -2.58424e-20)
(1.086 -0.013223 1.84339e-20)
(0.986677 -0.00965897 0)
(0.966008 0.0207695 -3.27828e-20)
(1.05215 0.0738273 -5.74648e-21)
(1.04688 0.0220587 0)
(0.995393 0.00374284 0)
(1.01792 0.0114453 0)
(1.05056 0.00461359 0)
(0.957501 0.00499665 5.77932e-21)
(0.948255 0.216917 0)
(1.08219 0.185651 9.34987e-21)
(1.0422 0.000796987 -3.59235e-21)
(0.590823 -0.0371822 2.29478e-20)
(0.51235 -0.039131 4.99841e-21)
(0.999907 -0.000943162 2.08861e-21)
(1.05187 -0.00237339 -5.88135e-21)
(1.04785 0.0109495 -8.0468e-21)
(0.809403 0.299451 -1.13387e-20)
(1.07161 -0.031455 -2.46232e-20)
(0.954293 0.00276428 0)
(0.190138 -0.0277732 -1.09843e-19)
(1.01406 0.0421763 -4.74281e-21)
(1.22147 0.117671 8.51843e-20)
(1.00221 0.0192782 -1.85847e-21)
(1.04864 0.0118462 1.51372e-20)
(1.03921 -0.0186207 1.26238e-20)
(1.03517 0.00354171 2.59144e-21)
(1.10241 0.0472681 -5.91724e-20)
(0.168522 -0.0237106 1.74825e-20)
(1.06389 0.176141 -1.93747e-20)
(1.07856 0.0346509 1.50064e-20)
(-0.158481 0.00738612 0)
(1.01189 0.000492506 0)
(1.05029 0.0170736 5.9083e-21)
(1.01743 0.00609009 0)
(1.0587 -0.00201461 1.22903e-20)
(1.06054 0.071097 2.37493e-23)
(0.940862 0.0357901 2.30557e-21)
(0.495276 0.0101856 3.26273e-21)
(1.03211 0.0178209 -1.40157e-21)
(1.0111 0.012243 -4.02249e-21)
(1.10315 0.0433237 5.18575e-20)
(1.06827 -0.0302607 0)
(1.09206 0.0214435 0)
(1.02802 0.0136178 -1.36974e-21)
(1.0319 -0.00809497 1.14746e-21)
(-0.129503 -0.0056496 -4.7487e-20)
(0.826643 0.288661 7.28418e-21)
(1.06148 0.0235101 -1.15229e-20)
(1.09808 0.0329996 4.11315e-20)
(0.536458 0.0144476 0)
(1.05387 -0.000471136 0)
(0.485812 0.010048 -9.46207e-21)
(1.01396 0.0047775 0)
(1.19742 0.279215 -1.05132e-19)
(0.944819 0.0331055 0)
(1.0788 -0.0271795 -4.36157e-20)
(1.10761 -0.0263101 0)
(0.938893 0.0895676 1.46993e-20)
(1.08635 -0.0304758 0)
(1.0328 0.0190259 0)
(0.831592 0.0347713 -6.65796e-20)
(0.52325 0.0131888 0)
(1.03569 -0.00556341 3.74388e-21)
(0.98977 -0.00447499 2.56196e-20)
(0.999994 -0.000107834 -9.02776e-21)
(1.0002 0.000108947 0)
(1.00011 0.00382513 0)
(0.788796 0.0103736 1.69172e-20)
(0.982264 0.049128 1.54226e-20)
(0.973351 0.186915 -8.63199e-21)
(1.07084 -0.0293155 2.36169e-20)
(0.997151 -0.00134282 1.92717e-21)
(0.988423 0.0144536 0)
(0.989407 0.0547335 -2.76045e-21)
(1.08074 -0.0258567 0)
(1.04304 0.00293231 -4.33916e-21)
(1.06655 -0.00569967 7.96582e-21)
(1.08606 0.0565204 -4.17748e-20)
(0.220871 -0.02759 -1.29188e-22)
(0.978219 0.0443268 3.14476e-20)
(0.478777 0.011241 4.69013e-22)
(1.04829 0.0361684 2.76145e-21)
(0.992075 -1.14836e-05 5.90997e-22)
(-0.201347 -0.0116274 -4.55999e-20)
(0.953057 0.000191573 -4.50851e-20)
(1.00535 0.000609223 -6.38006e-21)
(1.03096 0.0310418 8.67468e-22)
(0.837377 0.0779795 0)
(1.05338 0.0105546 9.07856e-21)
(0.993448 0.00668489 -1.34315e-20)
(-0.186214 -0.0133022 -8.15738e-20)
(1.05144 0.177723 -7.50286e-21)
(0.267787 0.0532982 0)
(1.01835 0.00629411 1.98099e-21)
(0.909499 0.0853579 9.07269e-21)
(1.07575 0.00577466 1.61036e-20)
(1.02232 0.0385594 7.57874e-22)
(0.968945 -0.00321112 2.44423e-20)
(1.06559 0.00459576 -2.55728e-21)
(1.06171 -0.0234484 -3.79035e-20)
(1.06397 0.0241527 -1.77859e-20)
(0.874961 0.161819 3.3595e-20)
(0.834015 0.0620119 1.40496e-19)
(1.01334 0.00147008 9.92122e-21)
(-0.0364779 -0.0140488 5.36357e-21)
(1.05338 0.000949692 -1.39696e-20)
(0.170248 -0.0279848 0)
(1.01376 0.0406179 2.5319e-23)
(0.258744 -0.0116086 5.56982e-21)
(-0.153025 -0.0071771 -3.19321e-21)
(1.05062 0.00221716 1.08815e-20)
(0.833779 0.063177 -4.91505e-20)
(1.04999 0.0055032 -7.13397e-21)
(0.998207 0.0140837 1.1022e-20)
(1.01651 0.0151028 2.78289e-22)
(1.13926 0.00213388 -1.02092e-20)
(-0.118264 -0.0165209 -6.51467e-21)
(1.0553 0.00944968 -1.78636e-20)
(0.968074 -0.0111129 -2.2008e-20)
(1.07006 0.0416441 -2.02975e-20)
(1.01285 0.0131616 0)
(1.20843 0.12856 -3.76004e-20)
(0.992073 0.0474767 0)
(1.04426 -0.00753543 -4.50813e-21)
(1.01607 0.01251 0)
(0.479676 0.0107153 1.39388e-20)
(1.05528 0.00102536 -5.2426e-21)
(0.761769 0.0112045 0)
(1.06773 -0.0281286 -7.63895e-21)
(0.994224 -0.00474996 2.04988e-20)
(1.01211 0.00255645 0)
(1.03802 0.0181995 -8.80956e-21)
(1.01097 0.000660765 6.22809e-21)
(1.04048 0.00538097 -3.71704e-21)
(1.01003 0.0098407 -5.48215e-21)
(1.0507 -0.00351282 0)
(-0.219002 -0.0121554 4.25049e-20)
(1.05109 -0.00302287 0)
(1.01879 0.00615271 5.83899e-22)
(1.02541 0.0102627 2.34967e-23)
(0.997358 0.000401157 -8.646e-21)
(1.03362 0.00527207 0)
(1.05112 0.00356041 0)
(-0.052108 -0.012393 0)
(1.08072 0.0459093 -1.22094e-20)
(1.02275 0.0293148 0)
(0.356231 -0.0303725 5.4655e-21)
(1.01318 0.00111275 -6.40209e-21)
(0.989873 0.0478855 0)
(1.04218 0.00874118 4.75286e-21)
(0.767739 0.00822951 3.40256e-21)
(1.01435 0.0120278 0)
(1.04366 0.00380045 4.81124e-21)
(1.10159 -0.00642262 0)
(0.135128 -0.00175303 2.50065e-20)
(1.06123 0.0066252 -2.16576e-22)
(1.00001 9.10151e-05 0)
(-0.277924 -0.00689596 8.82929e-20)
(0.999923 -0.000216385 -8.4102e-21)
(1.00971 0.00933061 5.13196e-21)
(1.01739 0.00779882 0)
(0.992279 0.00997386 0)
(0.967458 -0.00628269 2.10073e-20)
(1.01722 0.00773635 0)
(1.00041 0.00354463 1.32484e-20)
(1.01537 0.00351119 2.34226e-21)
(1.05357 0.052079 -8.33388e-21)
(1.02125 0.0314542 -1.15868e-21)
(1.03238 0.0117639 0)
(1.01783 0.0156889 -4.03718e-21)
(1.05973 0.0258283 0)
(0.992079 0.00962791 -3.88842e-22)
(0.934677 0.0968722 -1.96624e-20)
(0.994364 -0.00723112 -1.22743e-20)
(1.09787 0.282761 -3.67021e-21)
(1.02064 0.0394387 -2.04186e-21)
(1.06633 0.0177347 -3.50713e-21)
(1.09197 0.0212741 -1.95115e-20)
(1.03351 0.0113447 -2.0809e-21)
(1.0431 0.00435644 0)
(0.962107 0.000903401 3.0913e-20)
(1.01266 0.01707 6.3316e-21)
(0.99297 0.00871561 -7.71566e-21)
(0.99997 0.0230077 9.27497e-21)
(0.999597 0.0244394 0)
(-0.0692946 0.00605309 -2.05263e-21)
(0.58619 0.255027 6.98923e-20)
(1.03095 0.034711 -4.04688e-22)
(1.00645 0.0162981 6.27114e-21)
(1.08091 0.0686062 2.57286e-20)
(1.06281 0.0132101 0)
(1.04358 0.115641 -9.73943e-21)
(1.1059 0.320098 7.53137e-20)
(0.990641 -0.00493069 0)
(0.999982 -0.00014314 8.27504e-21)
(1.01542 0.01287 0)
(-0.147002 -0.014169 0)
(0.823579 0.0221327 0)
(0.998875 0.00990359 -5.40252e-23)
(0.993421 0.127943 0)
(-0.0154987 -0.00949908 -1.03196e-20)
(0.716848 -0.018315 0)
(0.994937 -0.00303906 1.98761e-20)
(0.789459 0.0120834 0)
(1.0542 0.00965635 8.25424e-21)
(0.905043 0.0639703 7.83311e-20)
(1.00004 0.00037817 -7.87527e-21)
(0.998718 0.00989601 -5.2102e-21)
(1.03213 0.0271549 0)
(1.03295 0.119982 4.2955e-21)
(-0.141103 0.0120331 0)
(1.11624 0.0386838 1.53401e-20)
(1.04753 0.00972704 0)
(0.999471 -0.00163264 6.45054e-21)
(0.994907 -0.00611988 0)
(0.679266 -0.0126472 -1.08888e-20)
(0.962507 0.000872397 -2.84877e-20)
(0.99989 -0.000284072 1.02017e-20)
(1.00918 0.000106293 4.14671e-21)
(0.352159 0.00134778 -2.29315e-21)
(0.999164 0.0191371 -1.05235e-20)
(0.99853 0.00878432 -2.21437e-20)
(1.04156 0.00795537 0)
(1.06189 -0.0122175 0)
(1.08486 -0.0233062 -2.25303e-20)
(0.143019 -0.0280897 0)
(1.00288 0.0235153 -8.07843e-21)
(0.957142 0.0377502 8.00055e-21)
(1.16493 0.221332 5.91741e-20)
(0.168672 0.0673898 1.22391e-19)
(1.11221 0.264892 1.39323e-21)
(1.05813 -0.00355134 7.20922e-21)
(1.08781 -0.0310203 0)
(1.00295 0.00121364 -9.64417e-21)
(1.0808 0.0634885 0)
(1.00156 0.000401332 0)
(1.05635 0.00330808 0)
(1.03303 0.00557767 1.96483e-21)
(1.05492 0.00850719 5.72094e-21)
(1.11308 0.000928987 4.84661e-20)
(1.05946 -0.00424487 2.83819e-20)
(1.05811 0.00220426 8.18023e-21)
(1.01308 0.017887 0)
(1.03872 0.0161726 -4.14359e-21)
(1.04608 0.00627055 -5.23734e-21)
(1.05768 -0.0029103 -9.03722e-21)
(0.542627 -0.0393605 0)
(1.02908 0.119742 7.35638e-22)
(0.999539 -0.000435132 -1.56213e-20)
(0.757312 0.00795176 0)
(0.782096 0.00975951 -1.10621e-20)
(1.05128 -0.00214634 0)
(1.06079 -3.49695e-05 -1.28667e-20)
(0.993887 0.0103594 8.74617e-21)
(1.08044 0.0505952 0)
(1.20931 0.143337 0)
(1.04086 0.00783559 -7.69015e-21)
(1.06114 -0.025776 7.71104e-21)
(1.00245 0.004128 1.00815e-20)
(0.877718 0.159971 -6.01922e-20)
(0.85942 0.328334 0)
(0.274316 -0.00579115 -1.57185e-20)
(0.934224 0.217757 2.90219e-21)
(1.0749 -0.0146872 -1.44952e-20)
(1.00003 0.000363046 -8.41356e-21)
(1.0657 -0.00534605 -1.79381e-20)
(1.03809 0.113569 5.94655e-21)
(1.11096 -0.0153745 0)
(1.04877 0.036467 3.30838e-21)
(1.03319 0.0279806 -2.42999e-21)
(1.02422 0.0277099 -9.17997e-22)
(0.991422 0.019563 -6.90929e-21)
(0.419595 -0.0381867 -1.02494e-20)
(0.991901 0.0060305 0)
(0.974122 0.00925197 -4.13823e-20)
(1.00001 0.000200709 -9.87429e-21)
(1.04814 0.0104818 7.76424e-23)
(1.03152 0.0606167 3.32799e-21)
(1.01792 0.00656095 0)
(1.00339 0.00412576 -1.40811e-20)
(0.818686 0.276754 -9.31174e-21)
(1.08072 0.00685338 -1.91313e-20)
(1.1184 0.0332149 1.23108e-22)
(1.13559 -0.00117545 -9.87865e-21)
(0.947673 0.0142193 2.76471e-20)
(1.19862 0.310956 0)
(1.01712 0.0145141 -6.67371e-21)
(0.222157 -0.0278922 4.35594e-20)
(1.05905 0.0171997 1.14027e-20)
(1.03101 0.0598812 -3.22863e-21)
(1.05079 0.0610844 -7.56777e-21)
(1.0718 0.00216823 3.89293e-20)
(0.995391 -0.00330879 -1.76891e-23)
(1.00125 0.000678131 7.07386e-21)
(1.00001 0.000207531 -9.13585e-21)
(1.0406 0.00772608 3.71032e-21)
(0.000405601 -0.0103636 -9.94475e-21)
(1.04076 0.0235885 5.97442e-21)
(1.04762 -0.00444187 -7.50163e-21)
(1.05172 -0.000735937 0)
(1.14539 0.114834 0)
(0.222626 0.0897175 -1.59219e-19)
(0.917822 -0.0119528 1.92318e-20)
(1.04315 0.00395358 -6.66734e-22)
(1.00292 0.00439333 4.46179e-21)
(1.1392 0.114123 0)
(0.115146 -0.0130204 0)
(0.999579 0.0184783 -2.70027e-22)
(0.994418 0.00954092 0)
(1.05419 -0.00124592 0)
(1.08544 0.0676544 -1.52394e-20)
(0.992104 0.0002736 0)
(0.97543 0.00985342 2.52593e-20)
(1.05149 0.0539814 1.41736e-20)
(1.03305 0.00412824 1.76444e-21)
(1.01801 0.00769676 -3.25031e-21)
(0.468473 0.00909413 -5.50626e-21)
(0.229938 -0.00658533 -6.19071e-21)
(1.16508 0.223064 3.81188e-20)
(-0.149444 -0.0158251 0)
(0.420412 0.00436935 -1.64579e-22)
(0.997932 0.0594077 0)
(1.04603 0.0061231 0)
(1.03779 0.0166339 0)
(1.0331 0.00422114 -6.56987e-21)
(1.00156 0.00116492 0)
(1.05365 0.00271036 3.69755e-21)
(1.01788 0.00753967 0)
(1.01842 0.0368115 -4.57988e-21)
(0.122094 -0.0257533 0)
(1.02423 0.0274042 8.42567e-22)
(-0.0172005 0.0127003 0)
(1.0065 0.0157312 0)
(0.967236 -0.00194096 1.30688e-20)
(1.0384 -0.0219552 8.87889e-21)
(1.04258 0.00391284 4.00676e-21)
(1.08319 -0.0282422 1.96861e-20)
(1.02426 0.0248551 -1.19058e-21)
(0.286526 -0.00595149 1.83531e-20)
(1.05408 0.00170333 -1.81121e-20)
(1.05568 0.00328845 0)
(0.994011 0.019246 -1.22162e-20)
(1.00857 0.000317478 -2.6259e-21)
(0.999888 -0.000109591 -7.31335e-21)
(1.0314 0.0166798 0)
(1.01064 0.0123861 8.79972e-22)
(0.181225 -9.27927e-05 -5.40367e-22)
(1.04416 0.00430225 2.70945e-21)
(-0.17679 -0.0141291 0)
(0.903362 0.0654634 -3.03897e-20)
(1.06138 0.0203958 2.26372e-20)
(1.05374 -0.000640132 8.00993e-21)
(1.00185 0.00350586 -8.73652e-21)
(1.0544 0.0195 2.12165e-20)
(1.19137 0.304508 2.50122e-20)
(0.98535 0.0270517 1.84406e-20)
(1.05397 0.00146052 2.21886e-23)
(0.970723 0.0240038 0)
(1.02483 0.00579634 1.00398e-22)
(0.997916 0.00431039 1.13069e-20)
(1.0582 0.0270045 -1.0452e-20)
(1.01777 0.0361848 0)
(1.10421 0.0522628 -2.35252e-20)
(1.00024 0.0245799 0)
(0.75666 0.293557 1.12547e-19)
(0.986057 0.12331 -2.66328e-21)
(1.04757 -0.0045078 2.29774e-21)
(1.04926 0.00295634 -1.0169e-20)
(1.08167 0.0441372 1.38567e-20)
(0.985279 -0.00789247 -1.17026e-20)
(1.06037 0.0201775 -1.66194e-20)
(0.477635 0.00935053 5.80498e-21)
(0.753875 0.00965441 1.17253e-20)
(1.04188 -0.0038971 1.15523e-20)
(1.21501 0.138874 -6.55524e-20)
(1.05109 -0.00164284 0)
(1.04332 -0.0086486 1.43536e-21)
(-0.20378 -0.00876243 8.80283e-20)
(1.05471 0.00129109 0)
(0.968437 0.0641212 1.26837e-20)
(0.49396 0.00475671 -3.31608e-21)
(0.0057539 -0.0124648 2.8816e-20)
(1.05892 0.0183622 1.64731e-20)
(1.05572 0.000462371 -2.76788e-23)
(0.955995 -0.0025412 0)
(0.357863 -0.00133338 -2.72391e-21)
(1.05404 0.00112728 -1.70376e-20)
(1.06071 0.00774593 -1.08568e-20)
(1.03904 0.017889 5.07082e-21)
(0.997728 0.00414358 1.2049e-22)
(1.05401 0.00282551 0)
(1.03832 0.00208537 -3.41138e-21)
(0.0593132 -0.0141455 4.40988e-20)
(1.01011 -0.00544126 -4.3707e-21)
(1.01231 0.00293523 -2.75537e-21)
(1.01937 0.00629024 0)
(1.06387 0.0154876 -7.92468e-21)
(0.958197 -0.00498676 -1.69724e-20)
(0.347243 -0.0365464 -1.00126e-20)
(0.994635 -0.00406792 -2.07755e-20)
(0.991384 -0.00997221 8.02025e-22)
(1.01387 0.0273906 5.25163e-21)
(1.10088 -0.00331896 -2.15479e-20)
(0.999594 -0.00164392 -7.67482e-21)
(1.12759 0.014147 1.41519e-20)
(0.48899 0.00365472 4.46349e-21)
(1.00134 0.000341255 -1.0094e-20)
(1.03348 0.0155714 0)
(1.0249 0.0104323 3.16234e-22)
(0.48506 -0.0376384 -5.12502e-21)
(0.0738107 -0.0117849 1.09086e-20)
(1.05912 0.0425892 1.82306e-20)
(0.926074 0.0972932 -9.8365e-21)
(1.03346 0.0287157 2.47741e-21)
(1.05853 0.00284797 -8.98243e-21)
(-0.211256 -0.00177636 1.17758e-19)
(0.921829 0.0465027 2.26181e-20)
(0.981376 0.0669294 0)
(0.999966 0.000319476 0)
(0.567719 0.638058 1.38702e-19)
(1.04064 0.0011884 9.4257e-21)
(1.00264 0.00433518 5.23981e-21)
(1.03444 0.0591288 -5.29916e-21)
(1.05069 0.0187763 -1.3095e-20)
(1.03882 0.00688162 0)
(0.996607 0.0609655 0)
(0.957738 0.037155 -2.59048e-20)
(1.00165 -0.0231543 1.21897e-20)
(1.04798 0.0127228 1.01643e-20)
(1.01162 0.0140146 -6.49109e-21)
(-0.233659 -0.00904662 -1.1856e-19)
(0.149622 -0.0263013 4.8642e-20)
(1.04278 0.00170386 0)
(1.0427 0.00193315 2.45131e-21)
(1.04748 0.0178838 6.32994e-21)
(1.0636 -0.0132377 -9.3419e-21)
(0.156454 -0.0116263 0)
(-0.167837 0.0025032 0)
(1.04117 0.024193 0)
(1.05784 0.0186815 1.01056e-20)
(0.518008 -0.0383674 0)
(-0.214234 -0.00778585 0)
(0.999967 0.00029136 5.21676e-21)
(0.999779 0.0145256 -7.39949e-21)
(1.04202 0.0107921 7.36162e-21)
(1.00731 0.00664779 -1.09431e-21)
(0.52236 0.00232024 -6.31073e-21)
(1.05824 -0.00114474 -1.62678e-20)
(1.05895 0.0426743 -1.38645e-20)
(0.992761 0.0875254 0)
(0.989609 0.0851868 0)
(0.994844 0.0140044 9.35064e-21)
(1.04815 0.0408428 0)
(1.03135 0.241294 6.65026e-21)
(0.994414 0.00931651 -2.34394e-20)
(1.08126 -0.0238478 1.66398e-20)
(1.01473 0.0269391 -2.76969e-21)
(0.891261 0.380983 -2.15915e-20)
(0.223073 -0.0210761 -5.00977e-20)
(0.999568 -0.0015121 0)
(1.187 0.217288 7.6838e-21)
(1.03533 0.00376755 8.00861e-22)
(0.993403 0.00941001 0)
(1.04377 0.0164274 3.4617e-21)
(1.01874 0.0102565 1.88812e-21)
(0.829004 0.0474605 -1.07573e-19)
(1.00365 0.00917626 -7.75526e-21)
(1.04375 0.0057079 8.3665e-21)
(1.00202 0.00271926 0)
(1.04206 0.00292529 -1.79211e-21)
(1.03136 0.0125132 -2.53346e-21)
(1.04348 0.0177659 -3.75319e-21)
(1.01393 0.0165972 0)
(1.01598 0.00808493 1.93305e-21)
(0.991764 0.00813755 0)
(1.00451 0.011857 0)
(0.136954 -0.0193549 -5.50877e-20)
(1.10642 0.0158223 0)
(1.04881 0.00356342 1.31479e-20)
(1.10553 0.0152243 0)
(0.98566 0.0280533 6.32845e-21)
(-0.114144 -0.00782851 -1.12745e-20)
(0.735753 -0.0161481 -1.85987e-21)
(1.013 0.000702589 4.84873e-21)
(1.0508 0.00309332 -7.70707e-21)
(1.05938 -0.00144461 -6.45802e-21)
(1.01972 0.00602744 -1.94431e-21)
(1.00135 0.000690937 -7.32815e-21)
(1.05893 0.0165963 -1.65451e-20)
(1.1236 0.0123871 2.34916e-20)
(0.170193 -0.00969159 0)
(1.05424 -0.0013765 0)
(0.999931 0.000310711 -5.61963e-21)
(1.02526 0.026132 0)
(1.10446 0.0486617 7.84156e-20)
(0.999791 -0.000863901 -1.11648e-20)
(1.07662 -0.0157349 -6.81889e-21)
(1.00143 0.00125296 0)
(0.0481838 -0.0111573 -5.48259e-20)
(1.00006 0.0425336 0)
(1.00312 0.0112355 8.36532e-21)
(0.99798 -0.000420611 0)
(1.01646 0.015232 0)
(0.830674 0.0107987 5.98087e-21)
(1.06454 -0.00504388 0)
(1.08251 -0.0233565 -1.82188e-20)
(1.01804 0.00682181 0)
(1.03865 0.00280602 3.12323e-21)
(1.15266 0.0767837 -9.92634e-22)
(0.945076 0.0157946 -1.46248e-20)
(1.0404 0.0253155 -8.42443e-21)
(0.441575 0.00799428 3.10178e-22)
(0.518627 0.0130541 -4.89265e-21)
(1.05153 -0.00596991 -1.674e-20)
(1.00329 0.00158066 3.56586e-21)
(1.18858 0.278783 1.43987e-19)
(0.857245 0.0207792 1.39865e-20)
(0.980839 -0.00665584 3.22165e-21)
(1.01822 0.00543368 8.75485e-23)
(1.0657 0.192204 2.82284e-20)
(1.0939 0.0256201 -1.17602e-20)
(1.01371 0.004329 -6.13576e-21)
(0.0979672 -0.0119767 2.17217e-20)
(-0.211554 -0.00771978 1.06943e-19)
(1.06637 0.0533754 5.2803e-21)
(0.996318 0.0387516 -1.50985e-20)
(1.01821 0.0141334 -2.42042e-21)
(1.0163 0.00853564 -4.15028e-21)
(0.548127 0.000332393 4.7339e-21)
(1.02013 0.124814 1.17865e-22)
(1.01141 0.000553595 0)
(0.939016 0.0904447 2.6729e-20)
(1.01059 0.0169392 -5.86803e-22)
(1.04903 0.0339816 0)
(1.01773 0.00588872 -2.51192e-21)
(0.985218 0.0461619 0)
(1.03434 0.0579589 5.3681e-21)
(0.999911 0.000285817 0)
(1.03925 0.00384306 5.19658e-21)
(0.990609 0.122609 1.11542e-20)
(1.03344 -0.0356265 -2.02474e-20)
(1.05536 0.000544295 -1.61476e-20)
(1.1363 0.115635 1.39339e-20)
(1.05079 -0.00404599 0)
(1.08192 0.0480952 1.32562e-20)
(0.145397 -0.00845733 3.70847e-21)
(1.05084 0.0602494 -1.96521e-21)
(1.04268 0.00344514 -4.12063e-21)
(1.12065 -0.0180666 7.53548e-20)
(0.193963 -0.00881162 0)
(0.995573 -0.00335597 -1.96435e-20)
(-0.0308228 -0.00730412 6.82705e-22)
(1.05516 0.0433652 -2.79081e-20)
(0.966365 0.0602446 -2.06371e-20)
(0.890945 0.0479411 -2.3717e-20)
(0.999677 0.0199585 1.03727e-20)
(-0.156123 0.0257765 5.49502e-20)
(1.00496 0.000677154 7.33102e-21)
(1.05506 0.00267192 -1.33504e-20)
(-0.0279345 -0.00482526 0)
(0.997881 0.0219173 1.02125e-20)
(0.975858 0.0414685 -2.14878e-20)
(1.08891 2.59351e-05 -2.3982e-20)
(1.00664 0.0138878 0)
(1.14624 0.0573967 -3.67289e-20)
(1.0323 0.241537 -5.5921e-21)
(1.05703 0.0174215 3.05885e-21)
(1.18528 0.220647 -8.68533e-21)
(1.06427 -0.00473809 0)
(1.0175 0.00631708 0)
(1.04151 0.0829209 -7.69975e-21)
(1.03192 0.0265644 4.85576e-22)
(1.01225 0.0282313 -1.393e-21)
(1.01567 -0.00298768 6.9572e-21)
(0.979874 -0.00884675 -1.7975e-21)
(1.05048 0.00430283 -8.35454e-21)
(0.998273 0.00948119 0)
(1.09689 0.283442 0)
(1.01274 0.000787231 0)
(0.968876 -0.00397648 -2.34846e-20)
(0.999337 0.0223795 9.55533e-21)
(0.93538 0.0814663 -2.27045e-20)
(0.847456 0.026054 1.57088e-20)
(0.739383 -0.00695972 2.06079e-21)
(1.05376 -0.000816983 0)
(1.00391 0.0237696 -4.86804e-21)
(1.00309 0.00424398 3.25929e-21)
(1.05499 -0.00219729 -2.04598e-20)
(1.20305 0.061121 0)
(1.03227 0.0163032 0)
(1.00353 0.0117356 1.41584e-20)
(1.00985 0.0119009 -1.67752e-21)
(1.05704 0.04294 1.4725e-20)
(1.01388 0.0135518 5.77645e-21)
(1.03802 0.0167141 0)
(0.999788 0.000401821 -1.16361e-20)
(1.05283 -0.000434086 -8.16431e-21)
(1.08642 -0.0276432 -5.11923e-22)
(0.761653 0.0070456 1.30504e-20)
(0.999924 -0.000937193 0)
(1.00403 0.00961519 8.36789e-21)
(0.999024 0.000275922 5.4063e-21)
(0.99101 0.0570235 2.98661e-21)
(1.20229 0.0940054 -8.49849e-20)
(0.400982 0.00543071 0)
(0.70593 -0.0078188 0)
(1.07225 -0.0061023 0)
(0.909001 0.0806673 0)
(0.662058 -0.0119959 6.24497e-21)
(0.994211 0.0141446 0)
(0.99316 0.0501339 -1.06775e-20)
(1.05427 -0.00786916 2.29032e-21)
(1.044 0.00593228 0)
(1.02085 0.0305893 2.86443e-21)
(1.04788 -4.9375e-05 0)
(1.03889 -0.00294673 0)
(1.033 0.00599918 4.13781e-21)
(1.04887 0.00392315 6.82427e-20)
(1.03832 0.00626432 0)
(0.180938 -0.0164423 5.95447e-20)
(0.995656 0.00429719 0)
(0.0315157 -0.0111048 -2.70438e-20)
(0.167308 -0.0055641 0)
(0.765602 0.0100265 -1.73935e-20)
(0.584714 0.0149348 -1.42329e-20)
(1.05121 -0.00188246 0)
(1.05315 0.0022955 -7.26648e-21)
(0.089071 -0.0191944 -9.01464e-20)
(1.01036 0.0117569 1.58647e-21)
(0.979301 0.0689828 0)
(0.995776 0.000747582 -3.80958e-21)
(1.14062 0.153946 0)
(1.00352 0.0044028 4.95635e-21)
(1.06971 0.515235 -7.4178e-20)
(0.740224 0.172393 2.27956e-20)
(0.974161 0.11461 -1.55735e-20)
(0.999138 0.0178088 -8.13918e-21)
(0.987997 0.0250933 0)
(0.694339 -0.010375 1.15816e-20)
(0.98566 0.0546226 0)
(0.971138 0.0612828 -7.56601e-21)
(1.00148 0.00639103 0)
(1.00668 -0.0180824 -2.26435e-21)
(1.15471 0.0844506 0)
(1.05155 -0.00137747 0)
(1.09896 0.0380273 4.97475e-20)
(-0.024391 -0.0124741 -3.72035e-22)
(1.01533 0.0263017 -2.10473e-21)
(0.0713797 -0.00921866 -2.97763e-20)
(1.05103 -0.00255078 -7.5491e-21)
(1.19926 0.0528251 0)
(1.04766 0.00925103 0)
(1.10168 0.0435054 -6.49529e-20)
(0.951994 0.0173756 1.49235e-21)
(1.13007 0.0174614 -5.43683e-20)
(1.00168 0.00307063 0)
(1.04703 0.00819758 2.90467e-21)
(0.816544 0.0263031 0)
(1.00487 0.00581074 0)
(0.717546 -0.0150437 2.00471e-21)
(0.745877 0.00662728 -2.11599e-20)
(0.402429 0.00236359 -1.13798e-21)
(0.681452 -0.00961559 -9.38479e-21)
(1.05352 -0.00770628 0)
(1.04332 0.0102421 0)
(0.965147 0.00414163 0)
(1.10744 0.308422 -7.87827e-20)
(1.00344 0.00165077 -1.07242e-20)
(1.15099 0.0152166 2.23739e-20)
(1.1338 0.0235874 -5.10084e-20)
(1.04166 0.0558105 -9.58409e-21)
(1.09571 -0.0174546 6.4735e-22)
(0.839969 0.241899 -2.91341e-20)
(1.14318 0.137643 -3.14575e-20)
(0.989628 -0.00184179 0)
(0.97635 0.188822 1.08413e-20)
(0.0220258 -0.00207313 0)
(0.995407 0.00415985 0)
(1.04271 0.0160526 3.09529e-21)
(1.00301 0.00361139 -3.70434e-21)
(0.999852 0.00342656 0)
(1.00209 0.00295537 5.97742e-22)
(0.832019 0.0129091 -4.94582e-21)
(0.999681 -0.000952388 2.52484e-20)
(1.01474 0.0154387 3.0625e-21)
(1.05873 -0.00346462 -2.29194e-20)
(0.995757 -0.00668176 8.84072e-21)
(1.05016 0.00287677 -1.34761e-21)
(1.00594 0.0153476 5.51149e-21)
(0.88856 0.0362252 4.1729e-20)
(1.03245 0.0064486 -9.8992e-22)
(0.761195 0.264321 6.69494e-21)
(0.998348 0.000420408 7.67296e-21)
(0.713932 0.104814 1.01511e-19)
(0.378343 -0.0357367 2.75723e-20)
(1.09919 0.0368541 -5.10291e-20)
(1.06375 0.003733 0)
(1.05612 0.00883153 -1.51218e-22)
(0.853103 0.39236 2.5432e-21)
(1.08715 -0.000741423 3.22218e-20)
(0.799069 0.0127009 5.08835e-21)
(0.890497 0.153468 0)
(0.997688 0.000466334 1.33652e-20)
(0.278216 -0.0203535 0)
(0.948543 0.0170215 -2.66496e-20)
(0.129175 -0.00852754 8.5666e-21)
(1.03874 0.0583518 -3.5899e-21)
(1.13305 0.0227587 0)
(1.17887 0.0556015 -6.5792e-20)
(1.07125 -0.00539865 0)
(0.999977 -0.00017508 -1.21671e-21)
(1.03976 0.00270725 1.50264e-21)
(0.585154 0.0129578 8.13643e-21)
(1.04295 0.0153114 -1.31152e-20)
(1.06845 0.0175489 -7.02537e-21)
(1.04757 0.0190552 4.70377e-21)
(1.04499 -0.00217984 8.60768e-21)
(1.05395 0.00109624 1.11051e-20)
(1.0509 -0.000620417 2.70847e-21)
(1.00786 -0.0203208 -9.0257e-21)
(1.00671 0.00556962 -1.23972e-20)
(0.756211 -0.00528141 7.06284e-21)
(1.04906 0.00731523 1.01637e-20)
(1.0014 0.00808816 1.08992e-20)
(1.02668 0.0152629 -3.34968e-22)
(0.574108 -0.0399892 8.61961e-21)
(1.01621 0.0257762 8.35203e-21)
(1.09585 0.0289474 1.08804e-20)
(0.0961465 -0.00422609 -1.89919e-21)
(0.997756 -0.000998994 1.32016e-22)
(1.05398 0.00318383 0)
(1.01427 0.0791649 1.03657e-21)
(1.05145 -0.00440344 -1.27001e-20)
(1.02598 0.0149505 0)
(1.00127 0.00821571 4.51197e-21)
(1 0.000105115 0)
(1.09415 0.024702 2.44318e-20)
(0.773366 0.00298472 0)
(1.0029 0.0128476 1.17184e-20)
(1.00493 0.00610074 0)
(0.927061 0.00673231 5.40785e-21)
(1.17073 0.0508077 5.00593e-20)
(1.07969 0.0665502 -2.53259e-20)
(0.994988 -0.00522 1.5403e-20)
(1.01326 0.0139132 4.39398e-23)
(1.01442 0.0170944 0)
(0.999935 0.000144939 0)
(0.994994 0.00871713 1.49844e-20)
(0.968826 0.109366 4.8694e-21)
(0.961365 0.0476508 1.28774e-20)
(0.749489 0.164791 -8.01339e-20)
(1.17808 0.147764 2.29063e-21)
(1.05227 -0.00539857 1.41412e-20)
(1.05215 -0.00454766 -2.42406e-21)
(0.960779 -0.00806756 1.2211e-22)
(0.999404 -0.000625428 1.52925e-20)
(1.02848 0.0118159 3.52506e-22)
(1.14697 0.012359 0)
(0.896194 -0.00937704 -1.82618e-20)
(1.08364 0.0120347 6.57091e-21)
(1.05633 0.0162344 -2.03731e-20)
(1.00002 0.000324683 9.16451e-21)
(1.14617 0.143774 3.43639e-20)
(1.0534 0.0113051 0)
(1.05639 7.26379e-05 0)
(0.996195 0.000782183 6.97461e-21)
(1.09312 -0.0169561 4.24655e-20)
(0.96586 0.0314059 9.98877e-21)
(0.999815 -0.000178589 -1.36522e-20)
(0.964304 0.00800296 1.38814e-20)
(1.01352 0.000709635 4.3668e-21)
(1.05864 -0.00249493 -1.06637e-20)
(1.06104 0.0174346 -3.186e-21)
(0.892032 0.148692 2.83855e-20)
(1.00193 0.00308099 -5.81258e-21)
(0.810254 -0.00493053 -1.23944e-20)
(1.00004 0.000266452 0)
(0.160926 0.000953591 -8.15207e-21)
(0.204598 -0.0211272 -3.03073e-20)
(0.998761 0.00223192 0)
(0.264297 -0.0289178 0)
(1.00639 0.000660337 0)
(1.00647 0.0130947 0)
(0.989182 0.0235386 -9.50319e-21)