/*--------------------------------*- C++ -*----------------------------------*\
| =========                 |                                                 |
| \\      /  F ield         | OpenFOAM: The Open Source CFD Toolbox           |
|  \\    /   O peration     | Version:  v2012                                 |
|   \\  /    A nd           | Website:  www.openfoam.com                      |
|    \\/     M anipulation  |                                                 |
\*---------------------------------------------------------------------------*/
FoamFile
{
    version     2.0;
    format      ascii;
    class       surfaceScalarField;
    location    "150";
    object      ddtCorrDdt0(phi);
}
// * * * * * * * * * * * * * * * * * * * * * * * * * * * * * * * * * * * * * //

dimensions      [0 3 -2 0 0 0 0];
oriented        oriented;


internalField   nonuniform List<scalar> 
21485
(
-0.0110337
0.0278601
-0.0168264
0.0319344
-0.0113332
-0.0206012
1.58033e-05
-3.66938e-05
2.08927e-05
-2.91741e-05
4.04387e-05
-1.12634e-05
-0.00412025
-0.00311952
0.00723978
-3.09109e-05
2.46749e-05
6.23453e-06
-0.000106159
0.000321686
-0.000215526
0.00190077
-0.00116876
-0.00073203
-7.96902e-05
-0.000277428
0.00035712
-8.30062e-05
0.000127128
-4.41211e-05
-0.000462043
-3.73503e-05
0.000499405
0.000177358
0.00323847
0.00265019
-0.00588866
0.0409965
-0.00434362
-0.0366528
-0.01699
0.0200994
-0.00310956
-1.76451e-05
3.44166e-06
1.42005e-05
0.000240681
-0.000346838
0.035847
-0.0173082
-0.0185388
6.58062e-05
-0.000115561
4.97526e-05
-0.00458862
0.00207108
0.00251753
-2.12923e-05
0.000473894
-0.000452598
-0.00562174
0.00150149
0.00522455
-0.0118006
0.00657608
0.00120367
-0.00316658
0.00196291
9.16663e-05
-0.000553704
0.000111411
-4.34604e-05
-6.79567e-05
0.000196639
-7.73016e-06
-0.000188907
-0.000148218
-0.000204967
0.000353187
0.000174375
-0.000123955
-5.04202e-05
0.000237618
-4.09804e-05
-1.98813e-05
3.56853e-05
-0.00271165
0.00391532
0.000558786
-0.00349399
0.0029352
0.00343235
-0.00287357
-1.09525e-05
-1.16574e-05
2.26104e-05
0.000678672
-0.0032587
0.00257998
0.00058508
-0.000622433
-2.67466e-05
4.205e-05
-1.53018e-05
0.0287695
-0.0181836
-0.0105859
0.00229755
-0.000692767
-0.00160479
-2.30535e-06
-1.53425e-05
0.000208915
0.000260172
-0.000469084
-0.00844656
0.0137032
-0.00525666
-0.0126103
0.00416375
0.000157274
0.000427797
-2.21898e-05
-8.72115e-06
-4.60535e-05
2.87092e-05
1.7342e-05
-0.00443542
0.0287229
-0.0242875
-0.00837663
0.00335418
0.00502247
-0.000145388
0.000354311
-6.59982e-06
6.31513e-06
2.87995e-07
8.81844e-05
-0.000236402
-0.00013141
6.00364e-05
7.13713e-05
1.27293e-06
-7.87812e-06
0.0108301
-0.00560551
-0.000139517
-0.000127074
0.000266581
-0.00279491
0.00347354
6.87459e-05
0.000156549
-0.000225298
0.064642
-0.0304638
-0.0341782
0.000230586
-0.000161843
-6.53655e-05
0.0002089
-0.000143528
-0.000330585
0.000386662
-5.60719e-05
-0.0657311
0.0216698
0.0440612
3.03395e-05
-6.35603e-05
3.32167e-05
-3.77081e-05
-0.000233039
0.000270747
-0.0289286
0.00154763
0.0273813
-0.0328296
0.0283941
-0.037664
0.0940246
-0.0563605
-4.51186e-05
-8.62937e-05
0.000124137
5.02363e-05
0.00422044
0.0135315
-0.0177521
4.25609e-05
-3.46963e-05
-7.86659e-06
-1.28218e-05
2.92118e-06
9.90262e-06
0.00110255
0.00119499
0.000543914
-0.000443706
-0.000100203
-2.66718e-05
-1.93827e-05
-0.00265284
0.00445684
-0.00180399
-0.0379624
-0.0277687
7.61912e-05
8.35723e-05
-0.000159764
-6.48949e-05
0.0244145
-0.0243494
0.000127504
-6.1699e-05
0.00176545
0.00221473
-0.0039802
0.000625066
-0.0226895
6.2837e-05
-7.59699e-05
1.31373e-05
0.000928843
-0.000344831
-0.000583986
-0.00126624
0.00122214
4.40973e-05
0.00152917
-0.000932696
-0.000596467
0.000283977
0.00131616
0.000584607
-0.000347016
0.000337112
9.90364e-06
-0.000284657
-0.0260845
0.032135
-0.00605069
0.00126244
0.00557292
-0.00683534
6.6913e-05
-3.65763e-05
-0.00662545
-0.00441945
0.0110449
-4.91964e-07
4.30542e-05
-0.000106761
0.000182949
-3.10408e-05
1.39982e-05
1.7045e-05
3.83019e-05
3.19972e-05
-7.0302e-05
0.0469258
-0.0127342
-0.0341915
-0.0136706
-0.0077776
0.0214482
-3.42778e-05
3.49652e-05
-6.93123e-07
-1.00992e-05
8.47508e-06
1.61834e-06
-1.85122e-05
7.56031e-06
-0.0238128
-0.0575122
0.0813243
-0.00128157
0.000113477
0.00116808
0.0445585
-0.011994
-0.0325649
0.00512649
-0.00169414
3.23887e-05
-8.26494e-06
-2.41225e-05
0.0145858
0.03234
0.0258102
0.0187478
-0.0376562
0.0206661
0.00627202
-0.00252113
-0.00375089
-0.000326339
0.000382888
-5.65465e-05
0.000353068
-0.000156268
-0.000196806
6.85074e-05
-0.000118303
4.97966e-05
3.47936e-05
-1.15405e-05
-2.32534e-05
-0.0143918
0.011004
0.00338799
1.86532e-05
-1.86538e-05
-0.000567354
0.000306854
0.000260505
0.0143696
-0.0445372
0.030168
1.96745e-06
-1.20685e-05
-1.83096e-05
5.66117e-05
-0.0127773
0.00235637
0.010421
0.00543419
0.000837827
-0.000370725
2.37138e-05
0.0218261
-0.0176058
0.000201423
0.000595613
-0.00079702
0.00251618
0.00627606
-0.00879224
0.00234151
-0.0130148
0.0106733
-1.52712e-05
-4.44979e-05
5.9769e-05
-5.07175e-06
3.74607e-05
0.0176135
-0.00910666
-0.00850674
0.0375115
-0.023983
-0.0135284
0.000218987
0.000497481
-0.000716468
0.00024535
0.00258035
-0.00282585
0.00355711
-0.00179166
0.0189167
-0.0299506
2.25922e-05
2.24463e-05
-4.50366e-05
0.0276
-0.00563495
-0.021965
-0.00279914
-0.00340732
0.00620655
0.000236324
-0.000646798
0.000410478
0.0308427
-0.0032427
6.13965e-05
6.6106e-05
0.0224808
0.0150307
0.00222836
-0.00502762
-0.00083894
-0.000154158
0.000993071
0.0103342
-0.00799264
-0.00836208
0.00482931
0.00353272
0.07963
-0.0280157
-0.0516144
-2.81854e-05
7.9425e-05
-5.12394e-05
0.0232394
-0.0453383
0.0220989
-0.000398155
0.000185458
0.000212698
2.69342e-05
8.44754e-05
0.000487547
-0.000251223
0.0534713
-0.00265089
-0.0508204
-0.000133251
0.000160681
-2.74256e-05
0.0478494
-0.0332635
-0.000329955
0.000548943
-0.00214139
0.00105407
0.00108732
-8.53646e-05
2.9739e-05
5.56215e-05
4.85196e-05
-7.66989e-05
0.00172215
-0.00501231
0.00329015
0.0240421
0.0405999
0.000163231
-2.68543e-05
-0.000136377
-0.000128023
4.0626e-05
8.73989e-05
-0.00130531
0.00174377
-0.000438488
9.15661e-05
-0.0001163
2.47338e-05
0.0339126
0.0139368
-0.0111432
0.039019
-0.0278756
0.000157652
-0.000155953
-1.69256e-06
-2.8762e-05
1.97445e-05
9.01895e-06
-0.0017702
0.00500865
3.00946e-05
-2.54377e-05
-4.65803e-06
-0.00300592
-0.00158269
0.000182189
-0.000791206
0.000609017
6.33466e-06
-1.48429e-05
8.50844e-06
-0.00285402
-0.0036756
0.00652963
-0.00988149
0.0192068
-0.00932522
-7.15097e-05
0.000140018
0.000516489
-0.000523971
7.48112e-06
0.0282623
-0.00573002
0.00536387
0.000366151
-0.022976
0.0120444
0.0109317
0.00142592
0.000101763
-0.00152768
-4.99227e-05
7.25162e-05
0.000198649
0.000241401
-0.000440043
-7.04651e-05
0.000235278
-0.000164812
-0.000192727
3.60588e-05
0.000156676
0.00273141
-0.00145652
-0.0012749
0.00617563
0.00559011
-0.0117658
-0.000889891
-0.0280386
0.00110353
0.0347435
-3.30827e-05
6.33825e-06
0.000171729
-1.40742e-05
-0.000375766
-0.00016225
0.000538005
0.00233427
-0.00518829
0.000313017
-0.000394331
8.13171e-05
-2.28674e-05
7.1396e-05
-0.00376485
-0.00459724
0.00211392
-0.000206268
-0.00190765
-0.00369186
0.00103903
-4.11817e-05
-8.68414e-05
0.000929954
0.000603374
-0.00153334
0.000109668
-6.26078e-06
-0.000103407
0.0139893
-0.0181204
0.0041311
1.18884e-05
-1.04403e-05
-1.44793e-06
-0.000130929
0.00021495
-8.40198e-05
0.00169214
-0.000762189
0.000124979
-0.000264497
-0.000225449
0.000109105
0.0001163
-0.000751325
0.00135469
0.000523923
-0.00127524
0.00025575
0.000301198
-0.000556867
0.0656892
-0.00497628
-0.0607132
0.0261374
-0.00861758
-0.0175198
0.00218002
0.00291741
-0.00509742
0.0134783
0.0522108
-0.00275105
-0.00562559
0.0539791
0.000969285
-0.0549486
1.22736e-06
-0.000102303
0.000364311
-0.000262006
-0.000518035
-0.00521198
1.09651e-05
-0.000203688
4.16542e-08
-1.83285e-05
1.82849e-05
0.0320935
1.62756e-06
-1.48156e-05
1.31872e-05
0.000125098
-5.07528e-05
-7.43448e-05
-0.0010958
-0.000948005
0.0020438
-0.000479353
0.000249846
0.000229513
0.00167667
-0.00277247
0.021472
0.012303
-0.0337751
-0.000274661
-0.000720867
0.000995523
-2.21847e-05
-8.8544e-06
0.00176894
-0.00217889
0.000409819
-8.85967e-05
-0.00171804
0.00180663
-0.00122339
0.000219652
0.00100373
-0.000360915
0.000559569
-5.98971e-05
-5.5665e-05
0.00164303
-7.22049e-05
-0.00157082
4.17652e-05
-6.46206e-05
-0.000116105
0.00045446
-0.000338353
0.00198903
-0.000794077
-0.00119495
0.000480725
0.000945198
-0.00349421
-0.000552785
0.00404694
0.00785506
0.00584462
-0.0136998
-0.0537666
0.0358267
0.0179397
0.000150108
-0.000480691
0.000109736
-6.26427e-05
-4.7098e-05
0.00817784
-0.0148033
-0.00362017
0.00235908
0.00126107
0.00696271
-0.0016799
-0.0052828
-9.86923e-05
1.56877e-05
-0.00497271
0.0264447
4.53502e-06
-3.63559e-05
3.18171e-05
0.00070912
0.000514355
-0.00122348
-0.000265753
0.000134824
-0.00369968
0.0050704
-0.00137072
-9.70386e-05
1.93659e-05
7.76728e-05
1.12067e-05
-9.57798e-06
0.00115086
0.000492163
-7.01056e-05
2.48339e-05
-1.67466e-05
-8.08855e-06
-8.78893e-05
6.11228e-05
2.67658e-05
-0.000674495
0.000875942
0.00670931
-0.00498715
6.62748e-05
0.0120391
-0.00418409
0.000463852
-0.000763161
0.000299317
6.20316e-05
6.30626e-05
-2.70014e-06
0.000112368
0.0423886
-0.028019
-0.000925774
-0.00103336
0.00195911
0.0270451
-0.0149563
-0.0120888
-0.000293809
-0.00092957
0.000186863
0.000138951
-0.00032581
5.68161e-05
-0.000383154
-0.00077123
0.000568703
0.000202529
0.00192387
0.00199926
-0.00392317
-2.67948e-05
2.68357e-05
-0.000329664
-4.10599e-05
0.000388493
-0.000165492
-0.000222999
-0.00060947
0.0009913
-0.000381836
0.000643992
0.000284875
-0.000102996
0.000161603
-5.86146e-05
6.4785e-05
-1.9467e-06
1.95408e-05
0.000199286
-0.000218829
-0.0194171
0.035129
-0.0157118
-0.000173946
9.07369e-05
8.32057e-05
0.000287184
0.000256729
-0.00465185
0.000952165
-0.00131502
-0.0114623
-0.00113297
-0.000177525
0.00131049
-0.00713399
0.00667927
-0.00379083
-0.00288847
-0.00036852
0.000196939
0.000171577
2.40647e-05
-0.000946963
0.000922895
0.00620726
0.0208378
0.00092795
0.00180347
-0.0258642
-0.000220212
-3.4836e-05
-5.30527e-05
-0.000222653
-0.000186673
0.000409323
-0.000218659
0.000273193
-5.45343e-05
0.0102737
-0.0242886
0.014015
-6.00596e-05
-2.53066e-05
0.00502735
0.0167988
5.66869e-05
0.000158263
0.000313424
3.96415e-05
4.56061e-05
-4.8325e-05
2.71849e-06
0.0244867
-0.0194594
-0.000232097
0.000318053
-8.59553e-05
-0.00104553
0.000206575
-0.000246845
2.81872e-05
-0.000156271
0.000167239
0.0105733
-0.00439765
2.35897e-06
0.000216715
-0.000219069
-0.000217455
-2.93895e-05
-9.16511e-05
4.97626e-05
4.18913e-05
-0.00138113
-0.000590167
0.0019713
0.000360665
-0.000476772
0.0459308
-0.0294069
-0.0165239
-0.0160486
0.00508993
0.0109586
0.000241088
-0.000115377
-0.000125703
0.000495005
0.0012739
8.33905e-05
-0.000285095
0.000201726
0.0062305
0.0257039
-0.00219387
0.00484405
-0.000174968
-0.000596263
-0.00835438
-0.00344621
9.88182e-05
-0.000474585
-0.00213746
-0.00251439
2.62767e-05
5.59592e-05
3.01664e-05
-1.02294e-05
-1.99368e-05
5.48136e-05
-0.000384472
0.058746
0.0560305
-0.114777
0.000164829
-0.000839302
-0.00122157
-0.000435756
-0.000131597
3.7809e-05
0.000141032
-0.000178814
0.00471741
0.000452973
-0.00517039
0.000159507
-0.000102817
0.000100538
3.69526e-05
-0.000137488
0.0225268
-0.0163195
0.000111181
-0.000238263
-0.0125989
0.00662277
0.00597603
-5.5078e-06
-0.000211949
-0.000139242
0.000105032
3.4205e-05
-0.00350277
0.00568279
-2.50197e-05
-3.40772e-05
5.90967e-05
-0.0133696
0.0101057
0.00326394
-8.7524e-06
-4.06177e-06
0.0086943
-0.00743185
-0.000246931
-0.00143902
0.00168592
-0.0253517
0.0356253
0.000564567
-0.000308803
7.22286e-05
2.40173e-05
-9.62404e-05
0.000117733
0.00012336
4.15957e-05
3.06397e-05
-0.00107208
0.000755763
0.000316317
-0.00160824
-0.00672912
0.00833735
2.66653e-05
-0.000182932
0.0112739
-0.00281786
-0.00845622
-0.000287194
5.50983e-05
-0.000510496
-0.000561587
0.000496823
-0.00022721
-0.000269614
-4.22298e-06
4.22616e-06
-1.01626e-05
-4.99076e-05
6.00713e-05
0.000322862
0.000173958
7.90595e-06
-3.70788e-05
0.0123411
0.0164284
-3.3661e-05
-6.18802e-07
0.0041386
-0.030645
-0.000222757
-0.00105882
0.000284327
0.000102336
0.00193204
-0.000615886
0.000354099
-0.000229207
-0.000124889
0.000296768
-0.000236877
-5.9899e-05
0.000255756
1.74381e-05
6.64676e-06
-0.00131196
4.21976e-05
-6.72177e-05
-2.85116e-05
0.00214243
3.9499e-05
-5.49996e-05
1.55016e-05
0.00154942
0.00357708
0.000970457
-0.00104864
7.81899e-05
-0.000123847
-0.000101582
0.0102321
-0.00771594
0.00169881
-0.00429237
0.00259355
0.000420093
0.00151194
-0.00938345
-0.0039862
0.00031431
-7.5207e-05
-0.000239101
0.00773203
0.0123387
0.010188
-0.00153533
0.00445275
0.00124549
0.000743538
-0.00536322
0.0367588
-0.0313956
0.00926109
-0.00457232
-0.00468874
-0.000749676
0.000140215
0.000456542
-0.000273848
-0.00018269
0.000616895
-0.000162435
-0.000822408
0.000846466
0.0104789
-0.000144734
0.00266619
-0.00189234
-0.000773892
-8.26429e-05
0.000763118
-0.000680489
0.00400582
-0.005776
0.0003019
-4.61438e-05
9.23521e-06
-0.000214838
0.000243111
-2.82688e-05
0.0181958
-0.0295289
0.00193795
-0.00103336
-0.000904577
-0.000568711
0.00116432
0.00549621
-6.6921e-05
0.000171143
-0.000104241
0.0274236
-0.0528356
0.0254118
-0.000179548
4.6592e-05
0.00013295
0.000226829
9.52805e-05
-0.000322114
2.77798e-05
-4.30503e-05
5.33189e-05
-0.00354754
-0.0053911
-0.00721921
0.0124485
0.0140858
-0.0265348
-0.000150685
0.00112115
0.0379357
-0.0105122
0.00950654
-0.00393359
-9.63989e-05
-0.000272126
9.8925e-05
0.000215386
-0.000518639
0.000683525
0.000598075
-0.000290242
-0.00030783
0.000511878
-0.000354622
4.70063e-05
0.000518763
-0.000565767
-0.0012197
0.00122204
-2.36495e-06
-0.00335583
-0.0164457
0.0198016
0.060233
0.0193971
-0.00014728
1.40314e-05
0.000123225
-2.26845e-05
-0.0108983
0.023347
0.00691001
0.00392005
-6.35932e-05
5.34239e-05
0.000155544
-0.0270725
0.0256423
0.00143044
-7.88892e-05
-0.000706287
0.000431621
-0.0461843
0.00164747
-0.000427192
0.000204539
5.9413e-06
1.8892e-05
0.000541334
-0.000254871
-0.00028646
0.0481081
-0.00149097
0.00124403
0.000703729
0.000422145
-0.00112587
0.000604263
-0.000758443
0.000339534
-5.52047e-05
-0.0132295
0.00972906
0.00350044
-0.000352098
-3.18933e-05
0.000383994
-0.0118809
-0.00134858
9.63055e-05
0.000360237
-0.000180743
-2.07538e-05
-9.60412e-06
3.03587e-05
0.000326099
0.0104794
-0.0108056
-2.58254e-05
0.00144828
0.000496285
-0.00194458
-0.000150791
-2.87608e-05
-0.00183824
0.0012563
0.000581938
0.0007326
-0.000554604
-0.000178
0.00534704
0.0329433
-0.0382903
1.42708e-05
-7.93717e-06
-0.000850492
-0.00036922
5.10989e-05
-1.15997e-05
-0.0246543
-0.00241829
0.000179605
2.92937e-05
1.88435e-05
-7.63657e-06
6.99591e-05
-7.51922e-05
5.23395e-06
2.0089e-06
9.88012e-06
-1.23423e-05
2.50898e-05
-1.27512e-05
0.00766042
-0.0295593
0.0218989
0.0240821
-0.0241469
0.000817971
0.0008716
0.0278512
0.000474311
-0.000495602
-6.7482e-06
1.04398e-05
-3.69173e-06
0.000464707
-0.000542195
7.75346e-05
0.000423728
-0.00368245
-0.00667616
0.0114636
-0.00478742
-0.0254693
0.0308164
0.00123989
-1.78491e-05
2.48057e-05
-1.0179e-05
-1.4627e-05
0.000323821
0.000192668
0.00064862
0.000880547
-0.00738159
-0.0254479
-0.0117546
-0.00113898
0.0128936
5.44383e-06
0.000154063
-2.5666e-05
-6.59816e-05
0.00225583
-0.000807552
-7.82147e-05
0.000172439
-9.42531e-05
6.14517e-08
1.05785e-05
-1.06402e-05
-0.000451071
0.0011548
2.40524e-05
-1.9519e-05
-0.00315413
0.00339953
-1.41965e-05
0.000177427
0.000757624
-0.00106929
0.000311652
0.001582
0.0003536
-0.00193563
-0.0061048
-0.00275949
0.0283441
-0.0255844
0.0022557
0.000410476
-0.00068226
-0.00149664
4.06918e-05
8.64355e-05
-0.00154442
0.00132167
-0.00383103
0.0134261
-0.00959504
-0.00307936
0.00767309
-0.00459374
-3.57686e-05
2.34242e-05
0.000590543
-0.000543535
-0.000788819
0.000754528
3.42823e-05
2.67542e-05
0.000361739
0.00031675
-3.32415e-06
0.000143766
-0.000214233
-0.0085335
-0.00406556
0.000202154
-0.00020988
0.000242846
0.0272033
0.0187275
-2.503e-05
0.000116596
0.0276446
-0.0199842
-0.0033135
6.88213e-06
1.19603e-05
0.00123304
0.000447406
-0.000898477
0.000346777
0.000270118
5.51046e-06
1.31425e-05
0.000369834
0.0521665
0.00968114
-0.0618476
-9.53405e-06
9.59537e-06
-0.00199502
0.00249006
2.01375e-05
3.09619e-05
-0.00022521
-0.000260743
0.000485954
0.000113442
-0.000107996
1.22239e-05
-5.48774e-05
4.26518e-05
0.000726869
-0.000823067
9.62014e-05
-0.000908492
0.000988767
-8.02744e-05
0.00283972
-0.0026353
-0.000204418
0.00056023
-8.63344e-05
0.000579143
0.000153455
0.000168318
-0.000148778
0.0519757
-0.0757885
0.00036194
-0.00093065
-6.78257e-05
5.18142e-06
0.0108289
-0.00874291
-0.00208604
0.000111965
0.000242135
0.00781886
-0.00154279
-0.0221352
0.0100533
0.0120819
0.000705334
0.0105687
-0.00592491
0.00904272
-0.00311783
-0.00149982
0.000747902
0.000751927
-0.000565951
-0.000978469
-0.00607227
0.00853773
-0.00246546
-1.82691e-05
-3.85995e-07
0.000931447
-0.000569506
0.0120804
0.00162282
-0.0236427
0.00997215
4.61783e-05
-0.000117685
-1.25531e-05
5.80458e-06
0.00409933
0.00257992
-2.73771e-07
4.58795e-05
0.000200367
2.033e-05
2.01092e-05
0.000160208
0.00190292
-0.00206315
0.000193774
-0.00050374
0.000309962
-0.000844088
-1.92328e-05
-9.52854e-06
0.0153321
-0.0013428
-0.000384581
0.000848434
-1.79219e-05
-0.000192367
0.000210289
-0.00913315
-0.0138428
0.00078413
-0.000208941
-0.00057519
-0.000495432
0.00162234
-0.00112692
0.00118695
5.26042e-05
-0.00123956
-0.000219324
-0.000727642
-7.56077e-05
0.000101875
0.000110749
-0.000212634
-3.63862e-05
0.000263217
0.00137199
-0.000198723
-0.00282993
-0.00197606
0.00480613
0.000280303
0.000503828
0.000252502
-0.00047772
0.00088098
-0.000222106
0.00144425
0.0307241
-0.0184211
-0.000219371
0.000221735
0.00120582
0.00144654
-0.00265236
0.000320398
-0.0163689
0.000157794
-0.000258009
0.00010022
0.000874391
-0.000344156
-0.000530231
-2.30817e-05
1.78044e-05
5.27534e-06
0.0120957
-0.024029
0.0119327
-0.000250704
0.00376094
-0.00351024
0.00503567
0.0317232
-0.00776908
-5.68513e-05
2.83657e-05
2.84878e-05
0.0125026
-0.0222377
0.00973513
0.00159651
-0.00752143
-5.28953e-05
-6.27454e-05
0.000115638
0.000679668
2.40163e-05
-4.27119e-06
-0.00135789
-0.000360154
-8.96055e-05
-0.000308548
5.54876e-05
-0.00015849
-0.00144978
-0.000296079
0.000357228
-6.11432e-05
-0.000577493
0.00380957
-0.00323208
-0.000904333
0.0019034
-4.16024e-06
-0.00189925
-0.000112566
0.000119758
-7.19237e-06
-4.99121e-05
5.41238e-06
-0.0018961
0.000832397
0.00106369
-3.94564e-05
0.000122851
-0.0385587
-0.000616291
0.0010637
1.56086e-05
-7.83887e-05
6.27886e-05
-1.9641e-05
-0.0146908
0.0379302
0.00355596
0.0114925
-0.0309096
-0.000661184
0.00116014
-0.000498966
0.00986402
-0.00953792
0.000192676
-8.35968e-05
0.00023872
-4.94664e-05
-0.000189249
-0.0019484
-0.000745297
0.00269368
0.0208734
-0.00877829
0.000352311
-0.000166855
-0.000398257
0.000227926
0.000170331
-0.004625
0.0034691
0.00115589
2.65351e-05
3.56025e-06
-6.033e-05
5.3295e-06
-0.00050227
-0.000182359
0.000684623
0.000902703
-0.000146939
0.0205871
-0.0105754
-0.0100116
-5.86213e-05
3.26757e-05
2.59459e-05
-3.78538e-05
1.1182e-05
-0.000146825
-0.00025143
0.000114444
-0.000119981
0.000284623
-0.00016464
-0.0104968
0.00666578
0.00238898
-0.00530057
0.00291169
0.0179388
-0.0257164
0.00426972
-0.00645954
0.00218998
0.00356073
-0.00381143
8.04616e-05
-1.05023e-05
0.00063334
-0.000470739
-0.000162603
0.000112439
-5.24038e-05
-0.000156439
0.000114559
-0.00085903
0.000356754
0.00306935
0.00253087
-0.00560023
-0.00185147
0.00612132
-0.00338733
-9.91261e-05
0.00348644
0.000217269
0.000130277
-0.000347556
-1.72503e-06
-0.00035037
0.00556271
0.0150244
-0.0001725
0.00505158
-0.0141582
0.0458952
-0.0199394
-0.0259559
0.0291722
-0.0255534
-0.00361906
-6.15818e-06
1.09142e-05
-4.75812e-06
0.000161659
-2.07551e-05
-0.000140905
-0.000178604
-0.000106495
-4.36266e-05
-1.49943e-05
0.000370865
0.000275471
-0.000150487
-1.42195e-05
-6.24299e-07
0.0059659
-0.00215627
-0.0038096
-0.000964005
5.55104e-05
-0.00032231
-7.73475e-05
0.000399649
-2.7852e-05
0.000141294
-9.11037e-05
-2.95169e-05
0.000120622
-0.000273174
0.000383494
-0.000110316
0.000103497
1.97291e-05
-0.000178571
0.000203566
-2.49923e-05
0.000104992
0.000621879
-0.00963257
-0.000352337
0.000102375
0.00024996
-0.000840111
0.000757456
-0.000212062
0.000870806
-0.000590312
-0.000280506
0.000547825
-5.75118e-05
-0.00049034
1.34595e-05
-0.000335773
-0.0991696
0.0416569
0.00094458
-4.18832e-05
-0.0713357
0.0138505
0.0574852
-0.0104746
0.000713848
0.0097607
0.012275
-0.00738951
-0.00488546
0.00153038
-0.00163294
0.000102554
-0.000461286
0.000277773
0.000183512
2.06546e-05
-0.000809479
-0.000282365
0.00698623
0.00170143
-0.00868758
0.00100965
-0.000684822
-0.000324821
-4.37408e-05
-0.000112698
-0.000230961
0.00128129
-0.00105032
0.000291331
0.000250004
0.00167612
-0.00506346
9.65175e-06
-5.2371e-06
-4.41667e-06
0.00082864
0.000321741
-0.00115038
-5.38086e-05
-0.000233386
8.75639e-05
-0.000360739
-7.57379e-05
0.000121921
0.00242916
-0.00297952
0.000550352
-0.00445085
0.00162107
0.0239699
0.00520209
0.0124242
-0.0200393
0.00761511
0.0289822
0.016913
-0.0116954
-0.00102382
0.0127192
-0.00212651
0.00322787
-0.00110138
-0.0162999
0.0078998
0.00840012
0.000166675
-0.000268975
0.00644468
0.000645955
0.00159678
-0.00224272
0.00191777
-0.00872068
0.0068029
-0.00136691
-0.000529216
4.93199e-05
3.49749e-05
-8.4295e-05
-0.000154103
4.15403e-05
0.000564499
-0.000123864
-0.000440581
0.000825416
-0.000808334
-1.70828e-05
-0.000395859
0.000299478
9.63826e-05
0.000298006
0.000249802
0.0105269
0.00868008
-0.000228641
0.00175899
0.00527632
0.0192104
-0.000141514
-1.25851e-05
-0.00101224
0.00221807
7.52333e-05
-0.000103082
0.000125364
-5.19733e-05
-7.33947e-05
0.00530723
-0.00291824
0.000371198
0.00019331
0.000212509
-9.84907e-05
7.39091e-06
-0.00103884
-0.000252674
-0.000143184
0.00227909
0.000961392
-0.00324049
0.0049354
-0.0166308
0.000157924
1.13704e-05
-0.000169292
-7.77744e-05
-4.98196e-06
8.2753e-05
-0.000214566
0.000110527
0.000104041
9.43395e-05
6.72601e-05
-9.41266e-05
1.63521e-05
0.00010551
0.0170173
-0.0203731
0.000185363
-0.000165991
-1.93651e-05
-1.73026e-05
-1.57809e-05
0.00397447
0.000228716
-0.00420325
0.0160556
-0.000361538
9.19733e-06
0.000590439
-0.000396666
0.0501655
-0.0143389
-0.000374706
0.000254729
0.00219899
-0.00114493
0.000113967
5.793e-06
0.00264052
0.0234969
-0.00010553
-3.37133e-05
0.000191487
-0.00104199
-0.0300475
0.0250748
-0.00158091
-0.00203927
-0.00142201
0.00369198
-0.00226995
-0.00094505
0.00254129
0.000430318
-0.000106497
-0.0632598
0.0459651
0.0172946
-0.00705194
0.000979638
0.000544136
0.000521444
-0.00106558
2.32979e-05
-4.31782e-05
-0.000222068
0.000105424
0.000116641
-0.000484538
0.00131318
0.00135104
0.000721746
-0.00207279
0.000111794
-6.24744e-05
0.00109838
-0.00132934
-0.000882071
0.000265783
0.0252877
-0.0200113
-0.0212961
0.0351314
-0.0231249
-0.0120066
-2.93858e-05
0.000110045
-8.06584e-05
-0.00508518
0.00612121
-0.00103625
-0.000667435
0.000511441
-0.000693791
-0.00220606
-0.00309442
6.0702e-05
-9.81816e-05
3.7479e-05
0.0619343
-0.0744952
0.0125609
-5.31739e-05
-0.000161661
0.00270281
-0.00383737
-0.00811871
0.0119561
2.28388e-07
2.44457e-05
-0.0012757
0.000293233
0.000577579
0.000781015
-0.00100034
-0.000151627
-0.000390762
0.000542394
-0.0050837
0.00923157
-0.00414764
0.00369009
0.000284465
-0.000846307
0.0078326
0.000406168
5.85453e-05
-0.000345654
0.00292601
6.08331e-07
-2.60483e-05
-0.0380909
0.00146226
0.0366287
-0.000291757
-0.000169527
-0.000329817
0.000100614
-0.00018659
-8.01165e-05
0.000266701
0.000119084
-1.55875e-05
-0.0098135
3.41592e-05
-8.93594e-07
-3.32661e-05
0.000532599
-0.00262327
0.00209067
4.94087e-06
0.000233781
-0.0167018
0.0119881
0.00471366
-0.000950462
0.000244163
0.00825577
-0.0366869
4.86838e-05
-0.000100465
5.17784e-05
0.00169214
-0.00214969
0.000457551
0.000561916
0.000447731
-0.00197757
0.00128479
-0.00376652
0.00318903
0.010428
-0.00434007
-0.00608795
0.000199625
-5.47324e-05
-0.000104391
-0.000117679
-0.00660431
0.0186487
-6.89545e-05
4.36552e-05
2.52995e-05
0.000121228
8.66221e-07
-9.21161e-06
8.35262e-06
0.00266464
-0.000235481
0.000202861
0.000462085
-0.000664943
0.000598808
-0.000293877
-0.000304927
-5.9876e-06
0.0160369
-0.0246545
0.000252314
-0.000164129
0.000186065
-2.44053e-05
5.20731e-05
4.60458e-05
-9.81212e-05
-0.00222835
-0.000751171
-0.00129632
0.00377825
-0.00154996
-0.000142985
-3.0961e-05
0.019642
0.0154869
-0.000346211
-0.00148083
9.97041e-05
0.00261334
-0.000911113
-0.00170228
0.000198819
0.000356518
-0.0010177
6.79418e-06
0.000181375
-2.34496e-05
0.0294055
0.012983
3.86364e-05
-1.26459e-06
-3.73716e-05
-0.000195746
-0.000156058
0.000351807
-0.00544873
-0.00431627
0.00976492
0.000162686
-0.000424691
-0.000441459
0.000118393
0.000323064
3.32447e-05
0.0016589
9.16505e-05
0.00047383
-0.00056552
-0.00895854
0.00235354
0.00660501
0.000294212
-9.20555e-05
-1.29515e-05
2.80997e-05
-1.51482e-05
0.0194935
-0.0306367
-0.00202904
0.0541955
-1.21237e-05
5.96369e-06
-0.000103483
0.000194217
0.000224492
-0.000545146
0.000320656
0.0633034
0.00715895
0.00178077
0.000832564
0.00035618
-0.000304001
-5.21885e-05
-1.37968e-05
5.86638e-05
-4.48642e-05
-0.00659608
0.000399957
3.39416e-05
6.61213e-07
-3.46028e-05
0.0125405
-6.30144e-07
1.85776e-06
-0.00677559
-0.0313152
0.00234582
7.34353e-05
-0.00241924
5.74621e-05
-0.000399431
0.000341975
5.74066e-06
3.21973e-05
-2.03032e-06
0.00470091
-0.000695106
0.000157006
-0.000174928
0.00109164
-0.0009286
-0.000163036
7.8736e-05
0.00431609
-0.000109143
-0.000685649
0.000314065
0.000371578
1.87283e-05
-0.000145119
0.000126393
-0.00294408
-0.00150664
0.00659066
0.0381292
0.00198854
-0.000406545
-0.109369
0.073601
0.035767
9.51098e-05
2.39768e-05
5.44204e-05
-0.000325786
4.83575e-05
-2.53595e-05
-4.98329e-05
0.0145259
0.0206053
-0.000230349
0.000106513
0.00206071
-0.00113275
-3.34241e-05
-0.000191541
0.000665849
-0.000229723
0.000120175
0.000109546
0.019291
0.0106221
-0.0299131
-0.000335377
-0.000350277
-2.00993e-05
-3.6755e-05
0.000991832
-0.00178591
0.000406816
0.00560559
0.00412348
-0.00320081
-0.000328378
0.00352918
-0.00765379
0.00703577
0.000618074
-0.0210129
0.01227
-0.00260076
0.0298755
-0.0272747
0.000252365
-0.000397746
1.46164e-05
-6.37758e-06
-8.23921e-06
9.8246e-05
-3.84634e-05
-5.97859e-05
7.57205e-05
-0.000286918
0.000211194
7.41562e-06
2.23406e-06
0.00271382
-4.91884e-05
0.00080124
0.0180232
-0.0188241
-0.0143774
-0.00676791
0.0211453
0.000291005
-0.00106644
0.00077543
0.000228631
0.000645756
-0.00060939
-0.00271834
0.00332773
6.71606e-06
0.000631426
-0.000284652
0.0266654
-0.0243711
-0.00229418
1.46162e-05
3.65596e-05
-2.4006e-06
0.0320156
-0.00261004
-0.00227194
0.00787754
-0.00689151
-0.0183553
0.0252469
0.0023743
0.00472429
-0.00709861
-0.000187663
0.000263383
-0.000152452
0.000147542
4.90329e-06
0.000778162
-0.000664694
0.00115209
-0.00122429
-6.2097e-05
3.17143e-05
3.03844e-05
0.00141338
-0.00283542
-0.000393558
0.000637712
-4.53821e-05
-2.3574e-05
0.00319478
-0.00864354
-0.012046
0.0261318
-5.37933e-06
0.00190877
-0.0806499
-0.0287186
0.00021188
-0.000167737
-4.41379e-05
0.00254589
0.0116327
-0.0141786
-0.00613726
0.0010522
0.106694
-0.0479485
0.014427
-0.0288044
0.00341468
-0.00773102
0.0117129
-0.0237591
0.0256297
-0.0086433
0.00430322
0.00251902
-0.00592625
-6.61211e-05
5.23247e-05
0.000989016
-0.00933499
-0.000435886
0.000177467
0.000258419
0.000452657
0.000475512
-0.000928169
-4.86144e-05
0.000123849
0.00822001
0.00225943
-0.0181372
-0.0451226
-0.0101547
0.00507088
-0.0238535
4.83992e-05
-9.70115e-05
4.87186e-05
-0.000101615
0.00384411
-0.000147501
6.01353e-05
8.7365e-05
2.71552e-05
0.000210844
0.000219474
9.24163e-05
-2.8104e-05
0.00024482
-2.55557e-05
3.365e-06
0.00105849
-9.14402e-06
4.92589e-06
-0.00114478
0.00196634
-0.000821573
0.00202705
0.000686767
-0.0431392
6.24245e-05
-9.18104e-05
-6.09104e-05
-0.000235166
-0.0374837
0.0426056
-0.00512182
-0.000102271
0.000260073
0.000223411
-3.02913e-06
-0.000220378
0.0145864
-0.0520701
-0.000376293
0.000579158
-0.00171716
0.000913192
0.000803966
-0.000403225
-0.000171419
0.000574637
-0.00994157
0.00055812
0.00299178
0.000101816
-8.62062e-05
-0.000416636
-0.00252741
-0.00805124
-0.00472412
-0.00228514
0.00278142
0.000129283
0.000146193
-0.00188214
-0.00237365
0.0042558
1.48634e-05
0.000229441
-0.00126281
0.000362932
0.000497971
-0.000860905
-0.00109427
0.000908086
0.000186184
7.07035e-05
2.75424e-05
-7.42033e-05
0.000242519
1.702e-05
-2.725e-05
0.000247045
0.000124161
0.00399753
0.00143666
-0.000414704
-0.0306351
-0.00114966
0.00434628
-0.00319663
0.00124697
0.000813749
0.00847646
0.0392242
-0.0477002
-0.00103157
0.00126101
-0.000106382
0.000136908
-3.05265e-05
0.000100757
0.00107424
-0.000999006
-0.000550069
0.00154908
0.00316908
0.0234964
4.57443e-05
0.000188228
-2.95086e-05
-0.000158728
-7.14379e-05
-6.94705e-06
5.25412e-05
4.59366e-05
0.000197175
4.42189e-05
0.000173051
-8.34707e-05
-0.000146254
0.000232151
-0.000366278
1.80373e-05
0.000348245
-0.00216721
0.00188243
0.000284789
-0.0409428
0.0210033
0.0244805
-0.0139535
0.000118707
-0.000130444
1.17353e-05
0.000296712
0.000302097
0.0013276
-0.0253105
-0.000136409
-0.000566298
0.000918768
-0.000176238
-0.000742532
-0.001222
0.00198678
-0.000764775
-0.000522482
0.000335807
-0.000529898
-9.97608e-05
0.00062965
0.00994568
-0.00802788
-0.00540303
0.00231866
0.00308448
-0.00234542
0.00139742
-0.0326142
0.0217159
0.000105906
-0.00168904
0.00158314
-0.00395312
-0.0123468
-2.26153e-06
8.22258e-05
-7.99576e-05
2.14212e-05
-2.05504e-05
9.81627e-05
-0.00157268
0.00167859
-0.0015855
0.00254687
0.000158774
-0.000128914
-2.98614e-05
-0.00592784
0.00517062
0.000757219
-0.00345743
0.00230777
-0.0045122
0.00404948
0.000462715
4.12526e-06
1.04411e-07
-0.000345762
0.00110338
-0.000728737
3.52756e-05
-2.95831e-05
-5.69564e-06
0.000160515
-0.0142826
0.0556571
-0.0413745
0.000265753
-0.000668977
0.000256455
0.00258326
-6.72563e-05
6.49914e-05
4.76225e-05
-0.000637924
0.000115033
-5.22228e-06
3.91637e-05
-0.000473025
-0.00108928
0.000948682
0.000140598
7.71049e-05
9.4028e-05
-0.0218108
-0.00131414
0.000258355
-0.00177806
0.00319143
-0.00561274
0.00347527
-8.92958e-05
0.000588861