/*--------------------------------*- C++ -*----------------------------------*\
| =========                 |                                                 |
| \\      /  F ield         | OpenFOAM: The Open Source CFD Toolbox           |
|  \\    /   O peration     | Version:  v2012                                 |
|   \\  /    A nd           | Website:  www.openfoam.com                      |
|    \\/     M anipulation  |                                                 |
\*---------------------------------------------------------------------------*/
FoamFile
{
    version     2.0;
    format      ascii;
    class       surfaceScalarField;
    location    "150";
    object      phi;
}
// * * * * * * * * * * * * * * * * * * * * * * * * * * * * * * * * * * * * * //

dimensions      [0 3 -1 0 0 0 0];
oriented        oriented;


internalField   nonuniform List<scalar> 
21485
(
0.0542955
-0.00170122
-0.0525943
0.186179
0.318363
-0.504541
0.0523932
0.0155215
-0.0679147
0.467061
-0.670903
0.203842
-0.455148
0.261253
0.193894
-0.729571
0.567243
0.162328
0.627192
-0.556592
-0.0706005
0.163535
-0.174689
0.0111538
-0.118671
0.0365815
0.0820899
-0.0685561
-0.0178282
0.0863844
-0.710404
0.38108
0.329324
0.176861
0.287517
-0.444987
0.157469
-0.111379
-0.409094
0.520473
-0.71872
0.392705
0.326016
-0.737307
0.282852
0.454455
0.0866609
0.540531
0.594708
-0.386779
-0.207929
-0.306217
0.495731
-0.189515
0.179181
-0.525848
0.346667
-0.000290648
0.128472
-0.128182
-0.26689
-0.188257
0.318331
-0.573543
0.255212
-0.0234112
0.0175479
0.00586337
-0.34704
-0.363365
-0.565148
0.311994
0.253154
-0.100422
0.0877617
0.0126607
-0.137244
0.0498217
0.0874226
-0.205406
0.367262
-0.161856
-0.0380947
-0.0623276
0.0686546
-0.0162615
-0.00748685
-0.0159244
0.781244
-0.437378
-0.343867
0.370921
0.410323
0.0166266
-0.0636775
0.0470509
0.0672939
0.186088
-0.253382
0.648166
-0.267086
0.486045
-0.63814
0.152096
-0.327742
0.718764
-0.391022
0.0152494
-0.191286
0.176037
-0.335767
-0.40154
0.690941
-0.355924
-0.335017
0.391368
-0.61308
0.221712
0.614065
-0.222697
0.378569
0.269597
-0.424587
-0.304984
0.641759
-0.367978
-0.273781
0.205322
0.121556
-0.326878
-0.62885
0.253352
0.375498
0.406127
0.284815
0.0636153
-0.0172084
-0.0464069
-0.0730742
-0.0641701
0.606448
-0.410465
-0.195983
0.0440087
0.0196067
0.583882
-0.265551
-0.00976204
-0.155125
0.164887
0.236282
-0.168988
-0.295714
0.0742754
0.221439
-0.110993
0.578406
-0.467413
-0.22321
-0.072504
-0.234715
-0.176249
0.410965
-0.309275
-0.115739
0.425014
-0.042744
0.243872
-0.201128
-0.125622
0.433353
-0.307732
0.659304
-0.16367
-0.495634
-0.37704
0.212112
0.164928
-0.116919
0.322241
-0.178227
0.0254796
0.152747
0.422732
0.183716
-0.344915
0.139509
0.164369
-0.107942
-0.0564273
-0.568765
0.490785
0.0779803
-0.0605749
0.0647676
-0.00419263
-0.183998
0.199247
0.363429
0.0194065
-0.382836
0.449952
0.191807
0.458701
-0.370398
-0.0883027
0.220445
-0.263189
-0.366972
0.530376
-0.163404
-0.224538
0.374416
-0.149878
-0.528142
0.221926
-0.182346
0.212592
-0.0302461
-0.553363
0.227894
-0.0792813
0.0304738
0.0488075
-0.041414
-0.0752213
0.116635
-0.223155
0.518855
-0.2957
0.176205
-0.494688
0.318484
0.102713
0.163554
-1.90524e-05
0.20603
-0.31818
0.11215
-0.0688496
-0.384182
0.202412
0.18177
-0.0371802
0.0135073
0.0236729
-0.516047
0.390425
0.187558
-0.582629
0.395071
0.0243382
-0.593103
-0.550689
0.183716
0.45915
0.150194
-0.609344
0.638852
-0.568738
-0.0701139
-0.191752
-0.336921
0.528673
0.0265451
0.116429
-0.142974
0.630185
-0.593202
-0.0369828
0.0602914
-0.0405519
-0.0197394
-0.0331473
0.0497739
-0.192646
0.220236
-0.0275901
-0.00149675
-0.115512
0.117009
-0.322357
0.308413
0.0139441
-0.212057
0.582978
-0.0662053
0.0678047
-0.00159942
0.304364
-0.496116
-0.0316357
-0.290721
-0.355808
-0.362912
-0.596038
0.512211
0.0838273
-0.0581426
0.179503
-0.12136
-0.0132369
0.0924795
-0.0792426
-0.00841663
-0.0830047
0.0914213
-0.683728
0.301173
0.382555
-0.0723707
0.209567
-0.137196
-0.606384
0.606384
0.0117729
-0.346505
0.334732
0.412628
-0.315708
-0.0969195
0.0280789
0.0322124
0.611057
0.027795
0.154537
-0.556252
0.401715
-0.122368
-0.47367
0.328504
-0.122473
0.019934
0.144435
-0.254425
0.149832
0.104594
-0.40327
-0.148081
0.55135
0.360271
-0.614162
0.253891
-0.0053903
0.00791889
-0.00252859
-0.0664223
0.000216977
0.0496879
-0.208772
0.159084
0.286255
0.189896
-0.476151
-0.140773
0.191852
-0.051079
0.0272495
0.127463
-0.154713
0.0180285
-0.200374
0.0548858
-0.000590266
0.054912
-0.0684205
0.0135085
0.441819
-0.437643
-0.00417558
-0.0101052
-0.00232969
0.0124349
0.470815
0.0878768
-0.558691
0.0079466
0.433872
-0.288878
-0.239265
-0.274504
0.560759
-0.00381997
-0.00628524
-0.181738
-0.328379
0.510117
0.569246
-0.208975
0.371658
-0.169846
-0.201812
0.198117
-0.53509
0.336973
-0.548632
0.319139
0.229493
0.457698
0.149188
-0.606887
-0.0581712
0.250008
-0.191837
-0.270849
-0.2943
-0.104177
0.574992
0.0289164
-0.465708
0.436792
-0.00344354
0.00673889
-0.00329535
-0.261508
0.565872
-0.187967
0.047194
-0.0179807
0.183547
-0.165567
0.691097
-0.2984
-0.392697
-0.321842
-0.226789
-0.346382
-0.0904069
0.436789
-0.601622
0.490629
0.505581
0.0729608
-0.578541
-0.063174
-0.331759
0.394933
-0.101161
0.17574
-0.074579
0.0754793
0.00942481
-0.0849041
-0.542868
0.28136
-0.255033
0.37547
-0.120436
0.13241
-0.135961
0.00355122
0.679289
-0.335286
-0.344003
0.374634
-0.0871166
0.425655
-0.649255
0.2236
-0.364585
0.543766
-0.164313
-0.0175364
0.181849
0.165997
0.370332
-0.536328
0.713438
-0.397951
-0.315487
-0.193246
0.0441234
0.149122
-0.102245
0.0938279
0.544115
0.0633543
-0.607469
-0.448301
0.686487
-0.35449
-0.331997
0.68854
-0.250122
-0.438418
0.598585
-0.556809
-0.041776
0.0766176
-0.0217056
-0.00519173
0.00607634
-0.000884612
-0.186913
-0.127311
0.314225
0.0440468
-0.00862147
-0.0354254
0.000640911
-0.00293213
0.00229122
0.326862
-0.322769
-0.00409257
-0.205191
-0.171849
0.345522
0.249186
0.58159
-0.0955448
0.139574
-0.00716373
-0.240524
-0.300391
0.540915
0.387738
0.325701
0.0345603
-0.181927
0.147367
-0.590898
0.269055
0.167967
0.203692
0.122079
-0.454238
0.33216
0.369651
0.0890496
0.292182
-0.355357
0.0432098
-0.226319
0.183109
0.692054
-0.0865858
-0.605468
-0.134673
0.599156
-0.464483
0.5887
-0.607856
0.0191559
0.139553
-0.547187
0.407634
-0.176265
0.219474
0.153996
-0.163758
0.427836
-0.183486
-0.24435
-0.0671669
-0.159152
-0.236334
0.169167
0.0911513
-0.109502
0.0183503
-0.480142
0.578598
-0.0984562
0.127519
0.224037
-0.351556
-0.413897
-0.147728
0.561625
-0.583899
0.103757
-0.335989
-0.292861
-0.350872
0.620415
-0.269543
0.030438
-0.177277
-0.137311
0.314588
0.281682
0.404805
0.0109032
0.0331437
0.0692167
0.390934
-0.460151
-0.0903543
0.594944
-0.146479
-0.448465
0.0724172
-0.0964205
0.0240032
-0.491193
0.661663
-0.17047
0.0984554
0.278008
-0.376464
-0.697799
0.206606
0.463544
-0.692123
0.22858
-0.205532
-0.318756
0.524288
0.540785
-0.0816344
-0.00317565
-0.0192592
0.0224348
-0.116227
-0.356887
0.473114
-0.186839
0.0835592
0.10328
-0.00493325
-0.000258478
0.336701
0.15903
-0.384533
-0.116995
0.501527
-0.38151
-0.209388
0.0840021
0.0202156
-0.104218
0.134992
-0.465189
0.330196
0.649615
-0.0510304
-0.231855
0.184227
0.0476284
0.0162619
0.0227725
-0.0390344
-0.176259
-0.44296
0.619219
-0.38558
0.0763045
-0.499251
0.3323
0.166952
0.560042
-0.372484
-0.451197
-0.154565
0.605762
-0.655419
0.241261
0.414158
0.0155829
-0.084139
0.689413
-0.225869
0.509282
0.0636937
-0.572975
0.073441
-0.247431
0.17399
0.537104
-0.397551
0.29117
-0.482112
0.190942
0.540876
-0.272544
-0.268331
0.110274
0.48467
-0.450245
0.0657124
0.270027
-0.60755
0.616893
-0.00934263
0.398997
0.118959
-0.517956
-0.108514
-0.145911
0.132172
-0.478554
-0.187257
0.0361581
-0.0198961
0.176619
-0.167613
-0.00900572
-0.0282308
0.100648
0.124932
0.567122
0.344728
0.0678996
-0.141683
-0.0259006
0.167583
0.649534
-0.17123
-0.478303
-0.0928473
-0.0939918
-0.073619
-0.434577
0.508196
0.130055
-0.188197
0.346901
-0.232188
-0.114713
-0.175947
0.20887
-0.032923
0.527305
-0.458088
0.214888
0.113615
-0.0535674
-0.16159
0.215158
-0.144989
0.0841578
0.0608313
0.0548334
-0.0962474
0.0233043
0.0803334
-0.103638
-0.0169505
-0.0623308
-0.0138134
0.153248
-0.139435
-0.0643124
-0.00524191
0.0695543
-0.00189392
0.0864904
-0.0845965
-0.12845
0.491879
0.451604
-0.160434
0.557151
-0.402614
-0.296368
-0.121921
0.418289
-0.319723
-0.00218218
-0.00706302
0.0092452
0.305353
-0.29584
-0.00951265
-0.226722
0.0218074
0.204915
0.391566
0.257968
0.00454646
-0.00390555
-0.184403
-0.199779
-0.155639
0.554635
-0.451578
0.152044
0.299534
-0.126674
0.146447
-0.0197723
0.0244897
-0.156944
0.132454
0.500588
0.19051
0.120489
-0.100555
-0.137466
-0.409721
0.0898038
-0.103041
0.493152
-0.68216
0.189009
-0.00381015
0.124299
0.167862
0.0790735
-0.246936
-0.429846
0.248108
-0.143851
0.0171762
0.0668682
-0.055965
-0.025524
0.352386
0.18904
-0.0107469
-0.178293
-0.124083
-0.0197674
0.446342
0.122777
-0.569119
-0.0128479
-0.00174173
0.0145897
0.149973
-0.0659708
0.0824425
-0.287346
0.204903
-0.351077
0.550751
-0.199674
-0.385182
0.389388
-0.00420612
0.0336169
-0.0367926
-0.0121178
0.0151158
-0.00299804
-0.277374
0.463553
-0.210277
-0.234709
0.146154
0.200747
-0.347072
-0.226471
0.293944
-0.534468
0.166762
0.284842
-0.0217708
0.0961175
-0.532594
0.0275441
0.50505
-0.117872
0.33276
0.161776
-0.215227
0.0534516
-0.274407
0.165893
-0.412595
0.276513
-0.26474
0.156522
-0.356707
0.200185
0.0147814
0.375508
-0.390289
-0.539848
0.402381
0.117071
-0.00193517
-0.115136
0.583188
-0.191622
0.0188318
-0.173956
-0.103849
-0.107612
0.211461
0.00805643
-0.13214
-0.0753308
-0.0234273
0.0987581
0.151509
-0.565406
-0.0602528
0.355903
-0.29565
-0.219525
-0.175357
0.394882
-0.0117944
-0.0487805
-0.0294828
-0.00769737
0.196161
0.134956
-0.331117
-0.0902374
0.114727
0.00866378
0.0824875
-0.00423791
-0.00196554
0.00620344
-0.360586
-0.0245956
-0.00595215
0.00171424
0.614327
-0.473888
-0.140439
0.416144
-0.310729
-0.105415
0.0189736
0.0478945
-0.107789
-0.0642827
0.172071
-0.0766169
0.244479
0.448591
0.165737
-0.683502
0.308386
0.375116
0.593253
-0.593253
-0.0801309
-0.00660749
0.0867384
-0.323148
-0.360354
-0.133549
0.600609
0.154289
-0.482031
0.538733
0.0914516
0.0366453
-0.262313
0.117547
-0.119044
0.285455
-0.401193
0.148414
0.01514
0.177056
-0.0187952
-0.158261
-0.261465
0.326726
-0.0652618
0.13857
0.00787655
0.0508915
-0.152053
-0.411404
0.351151
0.440334
-0.318255
-0.048852
0.0430421
0.00580989
-0.512613
0.300556
0.00274889
0.00211979
-0.00486868
0.294202
0.133635
-0.569058
0.165788
-0.311266
-0.105842
0.417108
-0.0167335
0.165148
0.192164
-0.41169
0.0673145
-0.223915
0.1566
-0.143558
0.132716
0.450472
0.419127
-0.566856
-0.326008
0.461
-0.447913
0.0051694
0.442744
-0.348197
0.153967
0.19423
-0.0588772
-0.0861119
0.146106
-0.128346
-0.0177597
0.135161
-0.114946
-0.188223
-0.0384991
0.207613
0.361633
-0.166796
-0.0582462
0.225042
0.202721
-0.313071
0.11035
0.256217
0.118417
0.147002
-0.00843217
0.0475592
-0.140485
0.109619
0.0308665
0.55469
-0.236328
0.0215742
-0.108949
0.0873745
0.171097
-0.0212647
-0.180231
0.196415
-0.462298
0.265882
-0.410603
0.399289
0.0113141
0.221577
0.128862
-0.350439
0.0612551
-0.274046
0.212791
-0.00643188
0.00104158
-0.140706
-0.0911487
0.417606
0.196458
0.426823
0.0601386
-0.486961
0.00369305
-0.000944157
-0.249207
-0.161396
-0.0111055
0.0246128
-0.0411885
0.346541
0.21874
-0.151426
-0.104878
-0.169529
-0.683696
0.437217
0.246478
0.399268
-0.0206997
0.494479
-0.104641
-0.389838
-0.0772901
0.222981
-0.145691
-0.279428
-0.105837
0.385265
-0.298495
0.496612
-0.00572935
0.00228582
0.103144
0.0139269
0.00540939
0.421413
0.204828
0.379054
-0.0855718
0.00544089
-0.204064
0.0156053
0.0279331
-0.0435384
0.463485
-0.497308
0.291776
0.0581377
-0.373846
-0.297638
-0.153941
-0.460402
-0.147148
-0.17142
0.257736
-0.0863154
-0.418997
0.309607
-0.113446
0.537417
-0.196069
-0.341348
0.171076
-0.499455
-0.121622
0.407076
-0.0841804
-0.348273
0.432453
0.0361885
-0.160716
0.124528
0.35585
-0.44003
-0.00289123
0.148997
0.154673
0.0724307
-0.0640282
-0.00840253
-0.377026
0.249162
0.127864
0.00600839
0.000735501
0.121452
-0.122188
0.358316
-0.136739
-0.171357
0.468424
-0.297067
0.0238616
-0.181278
0.157416
0.387927
0.22906
-0.616987
-0.420397
0.586393
-0.235008
0.157718
-0.0533007
0.00444868
-0.0457374
0.0613426
-0.457138
0.280888
-0.445125
0.555399
-0.0276402
-0.0610802
0.0887203
0.513505
0.0751948
0.532302
-0.586373
0.054071
0.0478409
-0.301924
0.254083
0.138413
-0.362951
0.0340578
-0.177377
0.298933
0.14226
-0.14255
0.349747
-0.55409
0.204343
-0.0793521
-0.0373833
0.116735
-0.103222
0.28931
0.432927
-0.604979
0.172052
-0.158217
0.546143
0.0397129
0.183268
0.513857
-0.708212
0.194355
-0.140816
0.684931
-0.303094
0.479298
0.22272
-0.339639
-0.591917
0.416405
0.175512
-0.127507
-0.412341
-0.150936
0.597278
0.135238
-0.134503
0.170711
-0.419985
0.249274
0.71376
-0.395208
-0.318552
0.387622
0.149795
-0.0483111
0.557593
-0.135582
0.162831
-0.162023
0.667603
-0.00767423
-0.127449
0.135123
-0.246616
0.10018
0.146436
-0.409334
-0.20775
0.375411
-0.167661
0.0550919
-0.221888
-0.0160823
-0.00317684
-0.0909926
0.0731644
-0.0060588
0.123606
0.0130219
-0.0218047
0.00878278
0.0936631
0.270004
-0.363667
0.552858
-0.0205557
0.524141
-0.0296612
0.120088
-0.345083
0.224995
0.170725
-0.224292
-0.0432205
0.133024
-0.321274
0.134361
0.061431
-0.165281
0.0477785
0.0399831
-0.144841
0.266877
-0.184434
0.0895046
-0.0140253
0.286589
-0.238748
-0.401672
0.112723
-0.557848
-0.162893
0.521648
-0.134025
-0.00495694
0.140118
-0.193822
-0.412561
0.164615
0.480736
-0.555695
0.0749591
0.324659
0.389101
0.0402121
-0.00659512
-0.00640429
-0.0468964
0.268053
-0.147816
-0.120237
-0.530675
0.403169
0.153696
0.289759
-0.443455
-0.169182
-0.359571
0.528753
0.208651
-0.315827
0.107176
-0.544898
0.378289
0.166609
0.146053
-0.0175806
0.179931
-0.156069
0.0983188
-0.112132
-0.177455
-0.0151919
0.175753
-0.00465646
0.293939
0.0383606
-0.052031
-0.4162
0.468231
0.154612
0.0224438
-0.560904
0.412823
-0.155263
-0.188173
0.343436
0.0359005
-0.143689
0.508199
-0.118104
-0.390095
0.0868027
0.224287
-0.31109
0.118533
-0.124592
-0.152918
0.179073
-0.0261559
0.561737
0.0446464
-0.0175573
0.19331
-0.402175
-0.210905
0.175191
-0.148646
-0.0156985
-0.086546
0.508294
-0.158548
-0.0074899
0.00530772
-0.0694399
0.562592
-0.302653
-0.375057
-0.295846
0.00897517
-0.0104187
0.00144355
0.124416
-0.0872096
-0.0372065
-0.419224
0.226243
0.453046
-0.590879
0.456206
0.00882492
0.167794
-0.385832
-0.244417
0.63025
0.589807
0.0987331
-0.313167
0.172577
0.14059
0.117128
0.274673
-0.391801
-0.645908
0.405345
0.240563
0.190488
-0.168681
-0.0815678
-0.00529183
-0.00816021
0.013452
0.249006
-0.187751
0.140107
-0.0268686
0.00614777
0.0871118
-0.0932595
-0.211695
-0.101472
0.159257
0.108795
-5.07261e-05
0.344894
0.173961
-0.218545
-0.473579
-0.0117337
0.200773
-0.125075
-0.167225
0.2923
-0.545228
0.194152
-0.186226
-0.0561121
0.242338
0.184699
-0.171061
-0.0136381
-0.722571
0.524311
0.19826
0.105251
0.149009
-0.25426
0.552385
-0.193234
-0.359151
0.420439
-0.415269
-0.179983
0.453541
0.147324
-0.600865
-0.190306
-0.192544
0.382851
0.402091
0.106108
-0.188971
0.350415
-0.161444
0.0275387
-0.528818
0.193532
-0.385491
0.0286046
-0.233569
0.175398
0.101961
-0.0786571
0.190013
-0.145332
0.119405
0.0259273
0.227055
-0.205757
-0.0212973
-0.252109
-0.168209
-0.106781
0.27499
0.0228817
-0.0775495
0.0546678
0.00418372
0.00373518
-0.00111537
-0.282321
0.283436
-0.00116421
-0.0109535
0.00253321
0.359612
0.162035
0.0495197
0.0112049
-0.0607246
-0.43972
0.614948
-0.15725
-0.136131
-0.062168
-0.00214439
-0.193906
0.0238681
0.170038
-0.141904
-0.235122
-0.413701
0.230215
0.122069
-0.104055
-0.0180141
0.677137
-0.500332
-0.176805
-0.1786
0.283851
0.0170287
0.23298
-0.151186
-0.0210976
0.172284
0.606184
-0.136312
-0.469872
0.611478
-0.185823
0.0508197
-0.0077776
0.0964929
0.233119
-0.329612
-0.547416
0.0735276
0.500178
-0.506405
0.00622738
-0.0588287
0.0867365
-0.0279078
0.55793
-0.107977
-0.181031
0.0298448
-0.24299
-0.00641512
0.00381492
0.00260021
0.0211196
-0.00809772
0.166257
-0.214653
0.048396
-0.0753129
0.191742
-0.253799
0.174159
0.0796402
0.390173
0.162212
0.0708126
-0.0984528
0.019299
-0.182447
0.163148
-0.492817
0.0823524
0.173016
0.12643
0.370075
-0.273582
0.0148604
-0.0283111
0.0134507
-0.0855722
-0.168227
0.545748
-0.417096
-0.128652
-0.0307742
-0.0232962
0.0540705
0.156463
-0.120274
0.475347
0.0248305
-0.248049
-0.155407
-0.0533657
-0.369183
0.0147251
0.354458
0.339548
-0.213111
-0.126438
0.657508
-0.35188
-0.305628
0.136451
-0.0523878
-0.0840634
0.015311
-0.000195219
-0.0846661
0.0258374
-0.37531
0.163792
-0.00979552
0.544592
-0.174261
-0.161979
0.51425
-0.352271
0.293902
-0.0852506
-0.229746
0.583363
-0.353618
-0.119284
-0.411391
0.578632
-0.143885
-0.434746
0.133891
-0.439961
0.30607
0.0530561
0.0500877
-0.130249
0.14254
-0.012291
-0.52065
0.351469
-0.345569
0.353243
-0.219131
-0.134111
0.339073
-0.136352
0.162395
-0.0393473
-0.0754251
0.114772
0.0032483
0.000746684
-0.00399498
-0.515384
0.285638
0.0277008
0.192536
-0.539166
-0.00825008
-0.166463
0.473269
-0.306807
0.447269
0.094825
-0.542094
-0.479923
0.315809
0.164114
0.160745
-0.137026
-0.0237197
0.181476
-0.291152
0.109676
-0.221078
0.341166
-0.027315
0.0653569
-0.0601307
-0.00522622
-0.709883
0.28535
0.424533
0.31095
-0.137934
0.549102
-0.206948
-0.342154
-0.264201
0.0927808
0.366493
0.179255
0.388304
0.210748
-0.599052
0.194
-0.175424
-0.0185752
-0.251812
0.175195
-0.336554
0.470445
-0.0997649
0.0840664
0.52377
-0.351361
-0.172409
0.0710353
-0.0648875
0.169625
0.169923
-0.173326
-0.228894
0.40222
-0.0350225
-0.334161
0.55375
-0.407181
-0.146569
-0.00316784
0.00857614
-0.0054083
0.540178
-0.145477
-0.394701
-0.226284
0.0490071
-0.373738
0.184363
-0.571679
0.387316
-0.411735
-0.136964
0.548699
0.243915
-0.245031
0.159234
-0.491153
0.331919
0.0788566
-0.0559749
-0.0925737
0.0747762
0.0177975
0.302005
-0.425196
0.123191
-0.0292366
0.232775
-0.203539
-0.000541198
0.00378949
0.172273
-0.12815
0.0236448
0.137101
0.0913828
-0.095193
0.0357528
0.0431038
0.157053
-0.282128
-0.518798
0.399514
-0.490339
0.34195
0.148389
0.195771
-0.0295138
-0.0311654
-0.0614083
-0.527131
0.363985
0.214646
-0.201978
-0.205507
0.176271
-0.155507
-0.12484
0.280347
0.420353
0.133397
0.128301
-0.0296492
-0.0986522
-0.190292
-0.252559
0.442851
0.125937
-0.239618
0.113681
-0.0253412
0.105675
-0.427578
0.237286
-0.22357
0.0585051
-0.337933
0.139704
-0.130547
-0.0091571
0.41491
0.166679
0.177598
-0.161239
-0.0163591
0.0541599
0.231679
0.121563
0.0893971
0.035019
0.00463624
-0.447597
-0.00254116
-0.00387396
0.0202559
0.163291
-0.0382949
-0.0392546
-0.186273
0.313792
0.0216699
-0.0970007
-0.117356
-0.117652
0.232276
0.457137
0.105332
-0.556529
-0.173057
0.143584
0.0294734
0.0177674
-0.00985926
0.487929
-0.628745
0.37286
0.0348429
-0.407702
-0.175017
0.022099
0.0772553
-0.251824
0.174569
0.0189845
0.0496701
0.175991
-0.266624
0.0906328
0.163762
0.030237
0.246985
0.17335
-0.420335
-0.367474
0.526708
0.378969
0.170133
-0.126076
0.485688
-0.0284116
0.119794
-0.452434
0.163142
-0.0991543
-0.063988
-0.153842
-0.210911
0.364753
0.152107
-0.0905788
-0.0615287
-0.195518
-0.107968
0.341087
-0.11967
-0.0949833
0.536003
-0.3831
-0.152903
-0.35448
-0.122867
0.477347
-0.0676401
-0.0728452
-0.258729
-0.576086
0.40598
0.170106
-0.0281321
0.595375
-0.384304
-0.13011
0.0907627
0.203156
-0.0126683
0.0827981
0.203177
-0.285975
-0.0143342
-0.186716
0.201051
-0.00232827
0.179927
0.0896588
-0.0243019
0.0107585
-0.0901107
-0.0180825
0.145546
-0.359468
-0.289787
0.362684
-0.450535
0.0878513
0.285164
-0.103688
-0.179539
0.160744
-0.230798
0.215427
0.0153716
0.0969209
-0.0438648
-0.365871
0.62292
-0.0904528
-0.532467
-0.676202
0.239645
0.436557
0.0720781
0.0499912
-0.240801
-0.153207
0.394008
-0.559266
0.0619578
0.27424
0.264606
-0.394928
0.19572
0.199207
-0.620593
0.245444
0.375148
-0.418048
-0.291835
-0.0366715
-0.154615
0.229246
-0.00219095
0.187704
-0.569632
0.381927
0.078963
0.150541
0.294525
-0.118533
0.419448
-0.66957
0.530384
-0.308149
-0.222235
0.00557467
0.00532866
0.00080662
-0.00613528
0.394237
0.129533
0.00467079
-0.00478318
0.000112396
0.155812
-0.144081
-0.011731
0.122807
0.382507
-0.158471
0.0113849
-0.084459
0.108658
0.0277934
0.173807
-0.421899
0.248091
-0.554299
0.202939
0.00604304
0.00993313
-0.0137531
0.0602392
-0.0621331
-0.057419
0.0521771
-0.388189
-0.00732987
-0.00551806
0.208892
-0.0600161
-0.148876
-0.298902
-0.173699
-0.0202074
0.00945548
0.103879
0.024422
0.0991765
0.245551
-0.549878
0.0254945
0.524383
0.142583
0.364076
-0.506659
0.189843
-0.185601
-0.00424294
0.13364
0.180948
0.0318226
0.146356
-0.178179
-0.389089
-0.231504
0.00415836
-0.000890219
-0.00326814
-0.265201
0.384558
-0.119357
-0.0257861
0.0735647
0.0682059
-0.00997527
-0.0582307
0.0138394
-0.268873
0.615692
-0.134957
0.189709
0.467799
0.0998071
-0.0133167
0.0898459
0.172376
-0.262222
0.357928
-0.488384
0.16388
0.0450116
0.00511181
-0.0056048
0.000492997
0.183775
-0.497429
0.313655
-0.416158
-0.107572
0.661219
-0.256439
-0.404779
0.500219
0.0293672
0.00107077
0.440561
-0.077877
-0.564635
0.180899
0.383736
-0.285146
0.163582
0.121564
0.00902665
-0.608415
0.0758213
-0.107787
0.364004
0.264046
-0.649878
-0.658261
0.259737
0.398524
-0.161979
-0.409395
-0.140687
-0.197874
0.555907
-0.358033
0.28759
-0.0829656
-0.204625
0.00475814
0.0662771
-0.388382
0.170279
-0.152999
-0.0936166
0.195883
0.088151
-0.284034
0.115292
-0.0139729
-0.257708
-0.0722325
0.108814
-0.0810784
0.0199982
0.0900916
0.0730507
0.406378
-0.112176
0.00927289
-0.00472643
0.108425
-0.0292181
0.171478
0.205236
0.0999868
-0.305223
0.405554
-0.153233
-0.252321
0.332825
-0.530698
-0.11474
0.568281
-0.304168
-0.161021
-0.372911
-0.587554
0.239281
-0.0491323
0.230984
-0.181852
-0.0614027
-0.0409167
0.102319
0.0418171
-0.458017
-0.738137
0.403862
0.334275
0.378061
0.0280656
-0.571075
0.0405838
0.530491
-0.434944
-0.0229888
0.457933
0.423808
-0.520817
0.0970094
0.522975
-0.134671
0.550289
-0.156052
0.00771151
-0.192505
0.184794
0.379952
-0.281243
-0.0987093
0.113751
0.369041
-0.482793
0.152936
0.0317622
0.225776
-0.0509303
-0.174846
-0.113907
0.119208
-0.124165
0.408869
-0.260903
-0.147966
-0.571075
0.519093
0.103827
0.353947
-0.254771
-0.343518
-0.244036
-0.0638711
0.114385
-0.0505143
-0.401584
0.571832
-0.170247
-0.145015
0.568823
0.133412
-0.416083
0.282671
0.0220415
-0.137554
-0.494961
0.377966
-0.0677917
-0.0205057
0.0882974
-0.0546128
-0.118445
-0.442617
0.504575
0.372555
0.15783
0.223101
-0.0332573
-0.416789
0.476927
0.121158
-0.289367
-0.0679293
0.263812
0.0268492
-0.198529
0.17168
-0.621674
0.413098
0.208576
0.0671378
0.0849696
-0.0977536
0.259529
0.244849
0.135103
-0.172591
-0.0130095
-0.0398984
-0.37689
0.350525
-0.211617
-0.358014
-0.001141
-0.00118869
0.501473
-0.317698
-0.15771
-0.265825
-0.0561224
-0.140823
0.196945
0.088277
-0.257762
0.169486
-0.104188
-0.414611
-0.135942
0.385104
0.389097
-0.0162377
0.218913
-0.233247
0.364266
-0.521265
0.417077
-0.345659
0.156689
-0.336252
0.43285
-0.297952
-0.134898
-0.323725
0.617808
-0.129879
0.0806615
-0.16395
0.153204
-0.608664
0.184077
-0.170176
0.557053
0.0361998
-0.304193
0.436528
-0.132335
0.388048
0.162241
-0.187527
-0.333315
0.179473
-0.0649159
-0.0804164
-0.437681
-0.0920728
0.529754
-0.236996
0.0507696
0.14103
-0.0393676
-0.101662
-0.526518
0.0888376
0.00353864
0.00113215
0.348938
-0.457564
0.108626
-0.453316
0.172386
0.28093
-0.253391
0.445556
-0.380273
-0.0125237
0.0620434
-0.0383292
0.0430873
-0.382101
0.189088
-0.0315364
0.152989
0.152707
0.0110845
-0.164316
-0.0227794
0.187095
0.059667
-0.143069
0.0341203
0.102781
-0.282449
0.179668
-0.153498
0.158941
-0.00544315
-0.46678
0.0318356
-0.061163
0.159482
-0.52131
0.548854
0.0302171
-0.0613824
-0.425122
0.302754
0.202548
-0.328186
0.275026
-0.46293
0.187905
0.00443649
0.0048364
0.369387
-0.294921
-0.074466
-0.0824731
-0.0605959
-0.0758921
-0.0151823
0.0910744
-0.22112
-9.7704e-06
0.504829
-0.341904
-0.162925
0.146884
0.261984
-0.0494359
-0.235222
-0.137504
0.372726
0.053972
-0.0427671
-0.156116
-0.0217463
0.131365
0.0116731
-0.0424473
-0.110628
0.315864
-0.0285881
0.00627098
-0.173961
0.16769
0.522264
-0.393375
-0.128889
0.378137
-0.363412
0.0243688
0.147904
0.466807
-0.609696
0.14289
0.148446
0.00736608
0.491831
-0.301935
0.176653
-0.101307
-0.335345
0.146382
0.188963
0.0151353
-0.00891373
-0.00622157
-0.296728
0.448772
-0.456884
0.180576
0.276308
0.0930213
-0.504757
-0.142981
-0.0274116
0.170392
0.258867
0.402796
-0.472798
0.478207
-0.154153
-0.0383228
0.192476
0.418848
0.12133
0.147661
-0.434289
0.286628
0.000928642
0.00440002
-0.398488
-0.189114
0.0349615
0.138376
-0.263216
-0.206283
-0.0895001
0.295783
-0.259202
0.388406
-0.129204
0.400262
-0.125236
0.56065
-0.417023
-0.143627
-0.198877
-0.394376
-0.127084
0.11941
-0.162236
-0.661482
0.455435
0.206047
0.0785341
0.538062
-0.136735
-0.401327
-0.195151
-0.258165
-0.287364
-0.257534
0.454553
-0.306892
-0.117039
0.0416138
0.104667
0.162435
0.498784
-0.452354
0.526962
-0.396779
-0.130183
-0.268374
-0.193924
-0.201317
0.102163
-0.38617
-0.182203
0.12759
0.453984
-0.287222
0.0496708
-0.334346
0.226378
0.00888171
-0.0109159
0.00203417
-0.00490957
0.181762
-0.568541
0.427525
-0.146957
0.117739
0.280187
0.146578
-0.0100354
-0.158905
0.248751
0.34873
-0.529827
0.181097
-0.0101209
0.388258
-0.00954569
0.0973091
-0.0877634
0.25018
0.248177
-0.498358
-0.174139
0.295475
-0.121337
-0.47445
-0.0238148
0.0148881
0.0089267
0.52277
-0.358893
-0.163877
0.298122
0.134728
-0.471553
-0.00124452
-0.115453
-0.00571077
0.000777521
0.0497927
-0.087176
0.105408
-0.02125
-0.406218
0.649781
-0.243562
0.391758
0.131012
-0.127541
-0.157605
0.721854
-0.454167
-0.267687
0.20873
0.00948271
-0.0610232
0.0515405
0.462256
0.00135738
0.0441512
-0.0455086
-0.505861
-0.0942104
0.452273
-0.358062
-0.159354
-0.00894115
0.177538
0.249902
0.166807
-0.0135585
0.164256
0.272135
0.026428
-0.298563
0.0189448
-0.0162251
-0.0835398
0.106458
-0.0891366
-0.0173212
0.028256
0.367062
0.137766
-0.187138
0.269936
0.31176
0.410095
-0.603289
0.367859
0.23543
0.207628
-0.0438659
0.213508
-0.349587
0.136078
-0.136661
0.0957444
0.421902
-0.461671
0.0397685
0.185938
-0.350955
0.165017
-0.162768
0.564637
-0.411839
-0.152798
-0.137802
0.173486
-0.0356835
-0.187008
0.141781
0.0452263
0.0748014
-0.100588
0.235716
-0.536108
-0.24248
0.525997
-0.283517
0.0121264
-0.0160731
0.00394663
0.11256
-0.00610246
0.138469
0.478423
-0.0141096
-0.0097052
0.45325
-0.0313476
0.0314303
-0.00260492
-0.0288254
-0.0433479
-0.00538454
0.0487324
-0.159969
-0.00434663
0.150848
-0.36375
0.212902
-0.166713
-0.0379373
0.20465
-0.371495
-0.153759
-0.256776
0.373905
-0.157994
0.129126
0.0288689
0.108506
-0.367708
0.404598
0.160039
-0.230738
-0.372551
0.00754854
0.00758676
0.346928
-0.253265
-0.0129918
-0.153283
0.166274
-0.20545
-0.0983379
0.303788
-0.372194
-0.150703
0.00662197
0.558532
0.0353636
-0.593895
0.548571
-0.312854
0.110991
0.0300387
0.203561
-0.0930441
0.0494885
0.0435555
-0.179098
-0.300825
0.00628282
0.000265512
-0.00654833
-0.087356
0.273294
-0.163547
-0.193114
-0.157841
0.0353286
0.1723
-0.527922
0.144822
-0.140711
-0.0472561
0.242826
0.434311
0.0224803
-0.171709
0.149229
-0.12461
0.502899
0.0888042
-0.0585871
-0.132239
0.142864
-0.0106254
0.0583086
-0.0488259
-0.137597
-0.0150238
0.152621
-0.197268
-0.0742287
0.061705
-0.135777
-0.0222172
-0.711938
0.2626
0.449338
0.183665
-0.251594
-0.403231
0.281309
-0.108375
0.725024
-0.309507
-0.415518
0.493703
-0.173006
-0.320697
-0.582281
0.387005
0.195276
0.00194752
-0.233723
-0.11136
-0.0490631
0.215198
-0.166135
0.192786
-0.165936
0.419732
-0.172747
0.393425
-0.264351
0.0871254
0.177226
0.147901
0.455195
-0.603095
-0.381575
-0.167451
0.433333
-0.0620089
0.145568
-0.260537
0.375143
-0.114606
0.459401
-0.209221
0.543946
0.000674671
-0.544621
-0.157531
-0.143575
0.301106
-0.368324
0.411036
-0.0922827
0.302646
0.422378
0.329999
-0.176032
0.00747186
0.00417779
0.0136126
0.161692
-0.198363
0.0427516
0.0113189
0.136874
0.00566509
-0.435119
0.148956
0.286162
0.0794536
-0.101572
0.0221184
-0.0987105
0.0824854
-0.026206
-0.0422527
0.0684587
0.00506528
0.147507
-0.152572
0.256307
0.167731
-0.0192848
-0.727437
0.41793
-0.445989
0.167332
-0.190336
0.0230043
0.190066
0.0735249
-0.263591
0.0768996
-0.138909
0.375688
0.151273
-0.357278
0.538176
0.115538
0.199846
0.0877441
-0.230726
0.0778184
0.180839
-0.258658
-0.134926
-0.0260197
0.160945
-0.149003
0.495196
-0.346193
0.00836026
-0.401143
-0.405771
0.103847
0.186625
-0.0375029
-0.0831811
0.0569751
-0.00118408
-0.00421861
0.00540268
0.132835
0.197164
-0.404053
-0.0616556
-0.0266412
-0.178866
0.223922
-0.512567
0.363564
-0.157512
-0.187282
-0.310148
-0.152358
-0.0218262
0.174184
-0.132575
0.0412268
0.154544
0.600621
-0.251327
-0.349293
0.0318018
-0.0344067
-0.0910146
0.293427
-0.147058
0.169538
-0.159859
-0.01968
-0.102818
0.0932722
0.00361716
0.245969
-0.0794552
0.0924185
-0.0129633
-0.172959
-0.464958
0.0882528
-0.0174402
-0.526564
-0.301127
0.194347
0.133437
-0.497699
0.364262
-0.168857
0.155865
-0.535049
0.20329
0.604543
-0.244956
-0.359586
-0.503828
0.316546
0.00766367
0.166536
-0.1742
-0.284498
0.717482
-0.313968
-0.403514
0.40326
0.015205
-0.418465
-0.375842
0.140746
0.235096
0.148177
-0.123916
-0.0242613
-0.0127471
0.0709445
-0.0581974
0.11879
0.158196
0.356054
-0.252725
0.083906
0.168819
-0.00458095
0.00369073
-0.142569
-0.0587484
-0.345997
-0.139741
0.485738
0.306846
0.410637
0.509427
0.236342
0.0644339
-0.300776
-0.724435
0.410467
0.24589
0.0917757
-0.337666
0.229002
-0.0496984
-0.179303
-0.244361
-0.110818
-0.625991
0.259771
0.36622
-0.0273694
-0.126129
0.0439428
-0.0636555
0.0197127
-0.415677
0.0923844
-0.123921
0.0210473
0.165561
-0.186608
0.178943
-0.0260069
-0.258387
0.114261
0.144127
-0.426924
-0.285014
-0.00149266
-0.109479
0.173458
-0.0639786
0.202255
0.195984
0.0979176
-0.00281477
-0.114065
0.116879
0.393024
0.12924
0.248217
-0.139975
-0.108241
0.0101727
-0.533283
0.523111
0.194517
-0.177459
-0.0170582
0.0191998
0.0893525
-0.108552
0.334681
-0.0983386
-0.0176934
-0.0211747
0.215692
0.00581923
-0.00734523
0.001526
-0.114953
-0.0660777
0.0785856
0.322231
-0.400816
0.0904514
-0.247982
-0.0143042
0.0891057