/*--------------------------------*- C++ -*----------------------------------*\
| =========                 |                                                 |
| \\      /  F ield         | OpenFOAM: The Open Source CFD Toolbox           |
|  \\    /   O peration     | Version:  v2012                                 |
|   \\  /    A nd           | Website:  www.openfoam.com                      |
|    \\/     M anipulation  |                                                 |
\*---------------------------------------------------------------------------*/
FoamFile
{
    version     2.0;
    format      ascii;
    class       volScalarField;
    location    "400";
    object      ddt0(k);
}
// * * * * * * * * * * * * * * * * * * * * * * * * * * * * * * * * * * * * * //

dimensions      [0 2 -3 0 0 0 0];


internalField   nonuniform List<scalar> 
13917
(
0.000103303
-4.45583e-07
4.19596e-06
-2.14937e-08
-1.36985e-07
-4.77976e-07
-2.87815e-08
8.15416e-05
2.06133e-08
-0.000200033
-7.45807e-06
-1.69511e-08
5.96102e-09
0.00447132
5.28182e-08
7.83384e-05
-4.93021e-11
8.2463e-07
-2.00578e-08
0.000171381
1.32827e-07
-4.04676e-09
-2.02206e-08
-3.76757e-09
1.3439e-08
1.6624e-07
-0.00252743
0.00017521
5.09746e-07
8.07548e-10
-0.000283
3.01331e-08
-4.1435e-08
8.59798e-05
-1.40918e-08
2.71336e-05
-7.05956e-09
2.39519e-09
-2.87905e-08
1.28149e-07
8.46326e-10
6.68337e-09
-2.91828e-08
5.14859e-10
1.17651e-08
0.000680213
1.12352e-07
-0.0147966
0.00128687
-1.50173e-08
-1.40263e-09
-4.14716e-08
3.38221e-05
7.50547e-09
1.04025e-08
1.18555e-08
-0.000272035
-1.97839e-08
-1.09427e-08
0.000744957
0.00984298
8.80852e-06
-8.50835e-10
1.35829e-08
-0.000274037
-6.40473e-05
6.66325e-07
3.46991e-05
-4.38054e-06
6.4755e-05
-0.000217945
9.02065e-05
3.9076e-08
5.9762e-09
1.48711e-07
9.8992e-11
-1.28902e-08
-2.08073e-09
-5.95532e-09
-2.77922e-08
-1.76905e-08
8.48623e-10
-2.28571e-10
-1.21678e-06
5.80692e-09
-0.000883886
2.28237e-08
-7.9117e-09
1.64244e-07
3.26596e-10
-5.0191e-10
-4.64449e-08
0.00111254
-4.0187e-09
1.96789e-08
6.83371e-07
-0.00767471
-1.22794e-10
-4.37422e-09
1.74108e-06
1.09018e-09
4.94264e-10
-4.59712e-09
-1.01277e-09
-6.02751e-09
0.000190251
4.32116e-05
5.45599e-06
-1.59512e-08
-0.00439948
1.25131e-08
8.15667e-05
5.51231e-07
-0.0240942
-0.000265595
3.00158e-08
-5.49145e-09
-2.32969e-12
-5.27024e-08
2.50049e-08
5.15039e-10
-3.27055e-09
1.30801e-06
-5.76302e-08
4.36906e-05
-1.47462e-05
2.63497e-08
1.94771e-07
1.51015e-09
2.51461e-08
-1.76282e-08
0.000186258
9.55533e-05
5.2942e-08
3.03434e-08
-0.00961349
0.0149952
2.41725e-05
2.47219e-07
8.38656e-10
0.00284316
-2.2481e-10
0.000190215
-1.03625e-08
1.042e-07
3.16665e-07
-0.000191235
0.00337629
-0.00582053
-5.23579e-10
1.45253e-07
-3.41311e-10
-9.38577e-08
-6.27687e-09
-0.0127656
3.93101e-09
-1.02204e-09
8.9577e-05
9.0018e-10
1.29243e-10
7.25098e-11
-0.000693554
3.43632e-08
0.00509129
-0.000713296
1.34047e-05
3.59096e-05
-0.0189458
9.36205e-11
3.29207e-07
1.63321e-10
8.27179e-05
1.48391e-08
0.0121738
-3.63046e-07
1.06513e-09
-3.64403e-08
4.03187e-07
-2.38849e-08
1.66071e-08
3.6967e-09
3.79168e-09
-1.07151e-08
-1.98812e-05
-1.41873e-06
0.000127277
-4.84311e-09
-8.16048e-06
2.47233e-10
-0.000113611
-3.80312e-07
1.49259e-08
-1.63393e-07
0.000118195
-1.57961e-09
4.75024e-05
2.47086e-08
0.000103644
-8.89709e-09
6.88869e-10
1.07521e-07
6.62972e-05
2.16536e-05
-2.33312e-08
0.000296345
-8.63001e-08
1.57016e-07
-1.86594e-09
6.10089e-08
-2.82168e-08
7.45817e-09
-7.00283e-07
3.5694e-06
-0.00488835
2.64332e-08
2.34061e-07
-0.000368192
5.99159e-10
-3.48104e-09
-3.48743e-09
-0.019668
-4.27875e-07
1.71046e-05
-6.78666e-09
-4.60244e-08
-0.0136047
4.21909e-05
3.03146e-10
9.0596e-10
7.48482e-10
-3.00457e-09
-2.42287e-09
9.29341e-05
-0.00141745
-4.89532e-09
-3.30182e-10
-1.69792e-07
8.19327e-05
1.49334e-11
7.81049e-09
-0.000928046
0.000193064
-6.79798e-07
-0.000331254
-5.7348e-07
-1.33401e-08
-0.0144523
-1.24091e-07
3.92694e-07
-4.03834e-08
-1.64689e-09
-0.00248351
-2.74251e-08
-2.72159e-08
-2.86304e-07
6.37448e-09
-6.89696e-11
2.40598e-08
-1.54465e-08
-4.79397e-09
5.80077e-05
0.0065615
2.65584e-10
-2.45904e-09
1.91944e-09
-4.78011e-09
3.88627e-08
-1.85283e-09
-4.98589e-08
-4.49807e-10
2.29419e-05
-5.32769e-05
9.2019e-09
-5.62102e-08
0.00189381
1.05908e-10
-5.10717e-06
6.31891e-05
4.07611e-10
7.37393e-05
6.15752e-09
-0.000714154
7.16112e-10
3.71001e-08
-7.60801e-09
1.6525e-08
-8.40254e-07
1.223e-09
-0.000212306
-4.65804e-09
0.00475831
3.77199e-07
0.00112865
1.74089e-05
3.00358e-10
1.08776e-09
-8.00965e-08
5.63688e-08
-1.24529e-07
-2.11524e-08
-7.69784e-09
6.56344e-10
2.29645e-07
-2.28701e-05
-1.08827e-08
-1.79616e-08
3.76302e-09
9.41636e-05
6.34483e-05
2.33462e-09
1.62846e-07
3.7653e-08
0.000584238
4.26133e-09
1.01753e-05
0.0110676
5.15008e-06
-5.06301e-06
-4.72006e-08
-1.58481e-05
0.000954298
1.05559e-05
1.69664e-08
5.27915e-08
-0.000585204
-3.78381e-09
-5.2787e-07
1.07193e-08
-5.74069e-10
8.06408e-05
-2.10506e-09
-3.12356e-08
-4.57306e-09
0.000188484
-4.40686e-09
-1.89363e-08
-1.59959e-08
4.94878e-06
3.88013e-10
-3.73075e-08
0.000178183
1.93941e-08
-8.20909e-09
6.81827e-05
0.000187492
0.000779515
0.00675549
9.91098e-10
-4.15435e-09
0.000190815
6.66822e-06
1.52716e-09
-4.44379e-08
7.50174e-09
7.58533e-07
-1.98983e-08
-6.50774e-08
-1.055e-06
-5.29856e-06
-1.69481e-08
0.000116503
-1.05834e-08
1.88991e-08
2.67029e-07
-1.43712e-06
6.11646e-10
9.81812e-05
-1.86773e-08
0.000155735
1.78238e-08
-1.06049e-07
-6.6533e-07
-0.00326895
5.78003e-08
-4.1438e-05
0.00141397
-6.81526e-09
7.29912e-10
-0.000391373
-8.20061e-09
-0.00285995
-1.0823e-07
7.30718e-09
0.000863139
1.34189e-09
0.00117364
3.78544e-10
0.00019907
0.00142954
1.30985e-08
-0.0117315
-2.9199e-06
1.92563e-08
0.000569777
2.55668e-06
-5.87543e-09
-7.9131e-07
1.40711e-08
-1.8432e-06
9.08724e-06
-3.82616e-09
-5.96947e-09
-2.9449e-08
1.53033e-08
4.63398e-10
-1.16637e-08
0.0131973
1.43563e-05
1.24577e-08
-2.56611e-08
-2.35169e-08
-1.07761e-07
0.000225242
2.68271e-09
-9.12598e-11
-1.29794e-08
-5.38357e-07
1.9063e-08
2.67502e-09
0.00603665
-0.0116319
-0.000100827
-7.24222e-08
-2.66348e-06
-3.44245e-09
2.44645e-09
3.94327e-08
-4.8156e-09
2.72198e-09
-7.15276e-09
2.19865e-09
-1.25381e-09
-0.012603
1.87892e-08
7.10028e-08
2.80044e-05
-2.40848e-08
2.14494e-09
-4.74744e-08
0.000196769
9.72514e-08
3.51114e-05
-2.06052e-09
1.76392e-09
-1.04262e-08
2.31658e-10
-1.79673e-08
1.29651e-09
0.00529344
-1.18108e-06
0.00018801
9.15091e-10
2.99765e-08
2.20277e-09
-1.83492e-08
5.08285e-07
0.00116656
3.44668e-08
-0.00377536
3.35884e-09
5.53086e-10
-2.76075e-08
1.06648e-09
6.68712e-09
2.34227e-09
9.14399e-05
0.00789794
5.28427e-09
0.000980573
-2.58697e-08
1.09767e-08
-2.56924e-08
-1.50826e-08
0.00031268
-2.43538e-08
0.000182616
0.000303747
0.000164234
-1.35049e-09
-5.10332e-06
-2.86889e-06
1.48275e-09
-0.000262412
-4.08246e-10
3.27109e-09
2.53871e-08
-1.9759e-08
1.11744e-07
-7.06222e-07
-2.89448e-08
-1.52009e-08
-9.1948e-08
4.2191e-06
-4.57084e-08
1.93264e-08
0.00352803
-5.10772e-08
9.88866e-09
-0.00301839
8.7279e-10
-1.86593e-07
4.95408e-08
3.86238e-09
6.70968e-05
1.04714e-09
8.05017e-10
-6.66824e-08
-4.00492e-10
-2.46105e-10
-2.36514e-07
7.18408e-05
-0.0144741
-3.96295e-09
2.87447e-08
1.32586e-07
0.000184621
0.00321842
1.61855e-08
3.57425e-09
-1.77627e-08
-2.34975e-07
-0.00313423
1.7453e-08
1.35365e-09
4.07935e-09
-1.27105e-08
-2.80896e-08
1.84292e-08
-3.39652e-10
-3.1196e-08
1.76256e-09
4.82269e-09
-3.13162e-08
8.00389e-05
5.03915e-10
3.80936e-08
-9.98216e-09
3.71786e-08
-7.4328e-08
1.28808e-06
-2.67604e-07
-4.80957e-06
-8.56166e-11
1.03058e-06
0.000107675
-0.00564372
3.24941e-05
7.65513e-09
1.59699e-08
6.33831e-07
4.64034e-08
-0.000202565
1.99537e-09
7.02676e-05
2.75663e-08
8.50025e-05
-1.24521e-05
1.30936e-08
-4.92058e-05
-3.49001e-09
3.85621e-08
8.36463e-10
-8.71871e-09
7.99057e-05
9.88713e-10
5.02285e-06
-3.45781e-11
1.96957e-08
-1.2533e-08
-5.96978e-07
4.70996e-08
-2.12773e-09
-6.03995e-09
-4.7158e-08
-0.0035162
-0.00017278
9.61895e-05
0.000562734
7.01821e-10
5.19289e-05
5.02078e-12
0.0149311
0.00129853
-3.26729e-08
-3.22568e-06
2.87421e-10
-4.95871e-08
4.48869e-09
2.16476e-09
-8.24096e-10
8.08365e-10
-0.000156459
-7.76041e-09
2.08974e-08
2.72668e-08
-4.69359e-09
-8.00415e-11
0.00012565
-0.000731762
0.000490902
-3.69729e-08
1.98765e-08
-0.000459427
8.02584e-05
-2.48648e-10
0.000189559
-1.25731e-09
-4.50795e-08
8.13362e-09
-0.000325338
-1.34744e-08
-1.40972e-08
1.25005e-07
-0.00393587
-6.11717e-08
-0.000346593
6.33267e-11
-4.40311e-08
3.22095e-09
3.83227e-10
0.000114596
-7.198e-05
2.80282e-09
-1.05811e-07
6.61292e-09
-7.12376e-08
-3.44837e-10
9.47187e-05
-8.80761e-09
2.87023e-08
6.59735e-10
2.46718e-08
-1.42427e-06
-7.14065e-10
-8.46459e-08
-6.97196e-10
-9.33479e-09
0.0110736
2.3175e-08
1.21179e-08
1.19345e-05
1.56031e-06
1.85569e-05
-1.56924e-07
-2.55925e-09
3.74534e-08
0.000126723
6.82287e-06
3.84626e-08
3.39287e-09
2.3907e-08
1.14798e-10
4.15262e-09
-8.78296e-06
-8.78498e-08
-5.25761e-09
-0.00886606
-6.73533e-08
0.000341142
0.00328201
-1.94402e-05
-1.62096e-08
-7.13513e-07
7.93584e-05
-1.02039e-08
-7.78304e-07
0.000149423
-5.45116e-09
1.30776e-10
7.49724e-10
-4.47005e-07
-7.92443e-10
5.57234e-05
-2.11589e-08
2.58357e-10
1.1093e-08
-2.16955e-10
-8.26593e-05
1.37235e-08
9.40664e-09
6.59832e-05
-4.87827e-08
-3.55522e-05
-6.96013e-09
-1.10708e-08
-1.87373e-09
2.74701e-08
8.52321e-09
-2.43518e-08
3.29547e-05
-9.98447e-09
-0.006355
9.08013e-05
-7.07602e-07
9.81549e-05
1.90645e-08
3.64127e-10
5.58296e-09
6.70484e-05
-0.0145792
2.64739e-08
4.05071e-05
-0.0123116
-7.14049e-09
7.08326e-09
-3.71485e-08
0.000178109
3.81448e-05
-6.26477e-08
1.58102e-08
4.59922e-08
-6.34725e-08
-2.43279e-08
-7.87686e-08
-2.15543e-08
5.44161e-09
-2.76102e-08
4.85064e-10
1.73096e-09
-7.43812e-08
1.1119e-05
2.97951e-08
-2.1598e-07
3.45096e-05
2.8072e-07
-0.0124122
1.27507e-08
-2.36012e-07
3.74977e-09
4.42513e-06
5.03026e-10
2.79266e-08
-0.000748721
4.72904e-06
-2.71927e-08
2.80082e-08
1.28124e-09
-1.51943e-08
-2.57698e-08
4.872e-08
-1.86617e-06
5.84069e-05
-8.05288e-08
-3.20839e-10
4.68463e-05
2.79863e-08
-2.12477e-08
-9.64125e-08
1.63365e-10
4.08534e-08
-0.00288048
1.6852e-09
-4.20974e-08
-6.44138e-07
-3.15329e-08
-1.21409e-08
5.676e-09
4.63755e-09
5.68175e-05
-3.54877e-08
6.95102e-09
-2.33234e-08
-1.73103e-08
-3.97324e-09
-4.52046e-08
-0.00159543
5.18686e-07
-0.0126173
6.52303e-07
0.000187574
5.40282e-08
-2.07314e-08
-0.000329767
3.44004e-08
-4.86585e-05
4.46431e-10
-7.04915e-11
-6.84003e-09
8.37604e-09
1.19417e-06
-1.22679e-08
-0.000641552
8.95772e-09
0.000344869
1.42959e-08
-3.12956e-08
-2.57779e-09
-1.80017e-08
4.42176e-08
-0.000379489
-1.63912e-06
5.73219e-10
5.00606e-05
-2.46021e-08
5.6767e-05
2.5452e-09
2.34271e-05
-1.34818e-08
-1.04057e-08
1.57381e-08
5.10552e-05
-1.58814e-08
5.86046e-05
-0.00503673
-1.6478e-08
-3.22204e-08
-4.29758e-10
2.83644e-07
0.00154489
-8.06736e-10
-0.00845346
1.16819e-08
2.04841e-05
1.11649e-09
-0.00196477
-9.43614e-10
1.864e-10
-7.38114e-08
4.203e-10
2.25951e-08
-6.21766e-09
2.5532e-08
-2.30968e-08
-6.67411e-09
-8.31776e-06
2.82806e-09
8.60482e-05
5.26707e-05
0.000260035
0.000185452
-0.00877343
8.2048e-05
0.000353563
2.80163e-09
1.95539e-08
2.7288e-08
-1.61697e-08
-1.68366e-08
-1.04656e-08
-2.13922e-08
0.000357949
1.12702e-08
-1.26904e-06
-2.61387e-08
-3.74581e-08
-1.36983e-06
3.46128e-09
1.39036e-07
-1.52597e-08
7.92558e-08
-1.72589e-08
-2.47626e-09
9.35795e-05
-6.96359e-08
-0.000330672
3.70991e-09
-4.55392e-08
9.07508e-10
1.69403e-08
-0.000905078
8.96181e-09
8.64604e-06
-3.28852e-09
0.000132083
3.76905e-08
7.49357e-09
3.18386e-08
6.53987e-06
8.00534e-09
0.000232939
-0.000180111
-5.3616e-09
-3.25287e-08
-1.15269e-09
-1.02122e-05
1.20324e-08
1.22805e-08
0.000122393
6.15474e-10
-4.59606e-09
-3.7996e-10
0.000113793
-3.67427e-08
-0.00294434
-0.000409579
3.5744e-08
-1.52887e-08
2.71756e-08
-1.54053e-05
-2.12707e-08
-1.47877e-08
4.12539e-08
6.79556e-05
2.84177e-08
0.0031554
-2.2519e-08
2.3565e-09
0.00208697
1.15967e-09
1.16014e-07
0.000117968
5.39338e-09
-1.36507e-08
0.00222934
6.27887e-08
3.9931e-08
-8.58106e-08
-1.60043e-08
-0.000217614
7.8981e-08
1.51273e-08
-4.85598e-07
3.43324e-08
7.6458e-05
1.28071e-08
-6.48731e-08
-3.43457e-10
4.20632e-05
-0.000166142
2.51624e-09
-3.68946e-09
-3.2085e-08
2.06925e-08
8.33975e-09
1.00075e-08
7.30601e-10
2.95549e-08
1.07393e-08
3.87057e-10
3.70324e-09
4.00447e-09
-0.000436026
-0.000391988
-3.81759e-09
-1.07452e-09
0.0016128
2.10926e-09
-0.000243443
-0.0011313
1.50483e-05
1.53717e-09
6.91367e-09
-2.59656e-09
-1.36243e-08
-1.06156e-09
-1.11607e-08
1.11438e-08
-2.59958e-08
-9.94589e-09
0.000192268
0.001035
1.08444e-08
4.69102e-05
-1.26582e-08
-2.34419e-09
1.93632e-06
8.02824e-05
-1.33751e-07
-3.61831e-10
-0.000167959
-7.43339e-09
-1.10641e-08
0.000103835
-1.54588e-08
-0.0205339
-2.13741e-08
2.12893e-05
1.53398e-09
-7.40139e-09
1.00435e-07
0.000109405
-3.47667e-09
8.02937e-05
-1.40625e-05
-7.38526e-10
-8.48598e-09
-2.24545e-08
1.00724e-08
3.45597e-08
-1.62683e-08
-1.35565e-08
7.04107e-05
0.00010006
2.21463e-05
2.27304e-08
4.60126e-09
5.59589e-05
-5.75134e-09
0.0136776
-2.83566e-07
-1.15306e-08
7.50275e-10
0.00640732
-0.0137676
0.000208213
4.43571e-07
-0.00109859
4.7358e-10
-2.1213e-08
-8.30747e-09
-4.43342e-09
4.67259e-08
0.000863374
9.00793e-05
-7.31782e-09
-1.71045e-09
7.73553e-05
2.31654e-10
1.63802e-09
0.000651949
-0.000337582
-1.17607e-08
-1.70926e-10
-1.84471e-08
5.97289e-09
1.29458e-08
1.32626e-07
-8.16884e-09
-3.70047e-09
-0.00746887
5.45448e-07
-2.58719e-05
-0.00064117
-9.70866e-06
5.06042e-05
6.5136e-09
-4.03637e-09
2.68021e-06
0.000129199
0.000468936
-2.66135e-06
5.66902e-08
9.24139e-09
4.2088e-10
-5.12663e-08
-9.09372e-05
1.1179e-06
-7.05779e-09
-1.02156e-08
1.68505e-08
-1.4397e-05
-2.41787e-09
-2.1751e-08
2.19469e-08
0.000225359
0.000260345
0.0036315
6.454e-05
-4.0412e-10
-6.67905e-05
6.20199e-10
-2.59278e-07
-1.69923e-07
0.00464532
-2.99679e-08
5.18379e-08
1.2189e-08
0.000664193
2.79287e-08
0.000733934
-3.02292e-08
-8.00528e-07
0.00505187
1.10448e-10
-1.85475e-08
6.44449e-09
-1.08829e-08
2.62907e-08
-4.23756e-05
1.68368e-09
1.03325e-09
5.66364e-10
0.00020744
-1.38297e-08
1.70223e-08
-1.39671e-08
2.73371e-08
-6.06921e-09
-1.29357e-06
1.73901e-08
-1.1348e-08
5.95433e-09
9.45771e-06
-1.27905e-05
-3.75991e-07
8.14648e-05
-3.6087e-09
3.53063e-08
-0.0164899
4.75887e-09
4.78276e-09
5.52932e-05
5.1149e-05
1.31968e-07
-2.9571e-07
2.15686e-10
2.92565e-05
-3.30196e-05
1.03739e-07
-0.000243294
1.06457e-08
-1.26291e-07
9.9022e-05
-1.0139e-06
-0.00224265
-0.0139461
1.99496e-09
-1.39985e-08
8.86569e-09
2.67119e-08
-7.12161e-09
1.40324e-05
6.44637e-11
-8.30508e-08
6.00049e-09
7.29825e-09
8.85085e-05
-1.98202e-08
0.000540766
-0.00383405
6.78769e-09
1.85521e-09
-3.85476e-08
-3.17269e-08
-2.49241e-09
4.70721e-05
-3.80655e-08
9.19308e-05
6.66966e-09
-0.00300085
-5.68567e-07
-1.62969e-08
0.000579472
-3.62783e-08
2.24427e-07
2.07142e-09
0.000562953
-1.2948e-08
2.69075e-08
1.68262e-07
-1.74442e-08
2.46479e-08
-1.96009e-08
0.00288951
1.31997e-08
3.38482e-05
-0.000329725
1.37951e-08
-2.37783e-09
4.89719e-07
0.000204851
-0.000360936
2.34966e-09
-4.6229e-08
-2.14915e-06
-0.000861623
1.48385e-05
-8.35333e-12
-3.78655e-10
2.194e-09
-1.64189e-08
8.87494e-10
-3.97109e-08
0.000210055
6.02731e-09
5.9652e-08
0.000838955
-2.98328e-06
-1.00802e-09
-0.000435152
-0.00278915
3.94056e-08
-5.04077e-10
3.33611e-10
8.12352e-10
1.17251e-08
0.000106733
-0.000580619
-1.16828e-06
7.93313e-08
-1.12e-08
8.14247e-09
2.98783e-05
-1.44406e-09
2.70564e-08
3.27112e-09
-1.37046e-05
5.46069e-06
-1.06733e-09
2.18062e-08
4.76729e-05
-9.86231e-08
6.19702e-05
-0.00223183
-9.94931e-07
-1.44703e-09
0.00152205
2.39535e-09
-1.97515e-09
0.000364088
-0.00289884
4.0029e-09
1.57268e-07
2.5664e-09
1.18142e-07
-2.065e-08
1.87462e-09
2.98409e-09
4.64106e-09
-1.09636e-08
4.70966e-09
1.34851e-08
4.02142e-05
1.28566e-07
-2.05591e-08
-1.83382e-08
-7.59506e-07
7.21794e-09
1.06797e-07
-9.22926e-05
2.15494e-06
-4.49813e-05
1.15046e-08
1.01716e-08
4.22227e-05
-1.00776e-09
0.000196886
1.14518e-08
7.51654e-08
2.79386e-09
-8.27061e-10
7.78224e-05
2.06065e-08
-1.40331e-08
3.30709e-08
0.00239662
-3.55861e-05
7.65231e-05
3.64053e-09
2.62748e-08
-0.00417581
-5.61198e-10
-4.68778e-09
-5.74105e-07
-0.00743701
2.63768e-08
-6.00432e-09
-1.14944e-08
0.000187985
1.0578e-08
1.14248e-08
8.84206e-09
1.2595e-08
2.44865e-06
1.62204e-09
-2.98907e-09
0.00122071
8.84195e-09
0.00150885
3.85266e-06
-1.85275e-08
4.366e-08
3.80835e-09
-3.72973e-10
-8.09837e-09
-3.47822e-09
5.63635e-08
7.15473e-07
-6.30868e-09
-1.58424e-07
-1.15009e-09
1.14974e-06
2.62029e-08
1.51932e-07
-1.61769e-08
3.73812e-05
-6.20479e-10
0.000153867
5.59193e-09
6.87528e-10
-2.01379e-08
8.73823e-09
4.22033e-08
2.03645e-08
-2.63272e-07
-7.80805e-09
-2.32111e-09
0.00032783
-3.47292e-07
-1.6106e-06
-4.41134e-10
-3.11617e-09
2.29747e-08
1.20626e-06
-5.48467e-09
-0.000390177
-8.40378e-08
-4.97294e-09
5.44897e-10
7.93226e-09
-9.61416e-08
1.16502e-05
-0.0135291
-5.31611e-05
8.35087e-05
7.99836e-07
2.30946e-07
2.75668e-08
-0.000761695
5.97639e-09
-3.36979e-10
-2.30911e-08
-0.000226632
1.87976e-09
6.23629e-05
-1.05185e-08
-7.95048e-10
-6.88762e-07
0.000754769
3.15339e-05
-0.000868607
6.34934e-09
8.50493e-07
1.00649e-05
-3.3844e-09
-0.000746402
-6.33467e-09
-8.21642e-10
0.00281912
4.38328e-09
3.62334e-05
-1.21837e-05
-1.28791e-09
6.90941e-10
3.7897e-09
0.000104466
-6.86356e-10
3.56749e-09
2.50937e-08
-1.5893e-08
-6.93701e-09
-5.97967e-08
4.49916e-09
1.15682e-08
1.94927e-08
-2.85489e-08
-3.64856e-09
0.000172757
1.46831e-05
-4.99716e-09
-4.46977e-09
-3.96534e-08
3.82183e-09
3.97642e-08
-9.37471e-11
-1.16149e-09
-9.66728e-09
-3.78971e-09
-1.71122e-08
3.30116e-08
2.13805e-06
5.71628e-09
-1.3752e-08
-1.0897e-08
-4.84e-07
-2.15083e-09
4.44721e-08
-9.27781e-09
-4.93147e-09
1.4771e-07
3.46178e-08
2.10912e-08
0.00175517
1.63812e-05
8.51233e-05
-0.000328594
-2.86045e-08
0.000181287
9.17921e-09
3.02888e-08
-0.00128325
0.0115786
3.37758e-08
7.29e-05
1.39192e-09
-5.61563e-08
-0.00736078
3.07909e-08
1.22254e-08
0.00310611
-0.00508307
4.20925e-11
1.00893e-08
1.12474e-08
0.000840817
5.18331e-08
4.34536e-05
0.000174301
4.03384e-10
2.30574e-05
0.000238889
8.67718e-10
0.000629088
0.000193251
-9.37533e-10
6.28458e-09
0.000383322
5.93683e-05
-7.02654e-09
-1.95175e-08
5.62496e-09
-0.000588927
6.87635e-07
2.80106e-08
-9.8928e-11
0.000182325
5.88037e-10
1.39566e-08
-2.22375e-08
-9.67903e-10
0.000470563
5.31948e-08
-1.98545e-08
6.02685e-05
-8.76581e-09
8.12918e-07
-1.62154e-08
0.000308906
-2.14217e-07
0.000741079
-3.32609e-09
-1.4107e-08
2.38868e-10
-1.36112e-09
-3.98283e-08
3.34633e-08
9.90055e-05
-1.43794e-08
5.03557e-09
1.54068e-08
0.000273967
4.28542e-09
-0.001067
0.00334785
0.00101941
-1.02713e-08
-1.21408e-08
3.77171e-09
0.000396654
-5.38038e-09
0.000205853
-1.74747e-10
-0.0170959
-1.54243e-08
5.83056e-08
5.14686e-05
1.10101e-08
-6.77638e-10
5.91e-05
-5.78957e-09
5.54381e-05
1.03077e-08
9.62127e-05
-0.00395671
1.40497e-08
7.55202e-05
8.38523e-09
4.28375e-08
-0.0121434
1.39117e-08
-6.09169e-08
0.000106888
-5.41258e-08
-2.73073e-08
6.30319e-08
0.000183903
-4.64313e-09
0.000941963
-1.16516e-09
7.7341e-05
1.28787e-08
-1.67981e-08
-4.4837e-09
-0.000407019
-5.47654e-09
1.05549e-05
-2.04823e-07
-0.000163911
-1.11331e-09
6.83542e-08
8.15956e-05
0.000119368
0.00275007
-2.17324e-07
-3.15056e-09
-3.70383e-10
-0.0186137
3.02883e-09
-0.000501624
3.00998e-09
-4.70387e-07
7.15972e-05
1.27275e-09
1.82054e-05
4.86025e-10
0.000106256
0.000500524
1.62167e-08
1.2013e-08
0.00234334
-0.0100581
1.28607e-08
2.89338e-09
-6.27857e-09
-2.04477e-08
-2.04616e-05
-3.40437e-07
6.76789e-05
-6.54941e-10
4.09762e-08
3.16534e-05
9.53012e-08
-0.00281634
0.000204056
9.96573e-09
-6.28101e-10
1.01469e-06
0.0078722
0.00281814
-0.00788909
6.61177e-07
1.86882e-07
8.31699e-06
5.31835e-05
0.000310401
-0.00432674
3.2537e-09
-9.05873e-08
-9.15136e-08
-3.98082e-07
-3.53299e-08
-1.95034e-08
-2.92442e-07
-2.39079e-05
-0.00429867
3.40938e-09
0.0122032
6.39164e-05
3.28792e-07
2.54118e-08
1.48863e-08
1.35299e-05
-1.17262e-08
8.99063e-05
2.44276e-08
5.62164e-08
4.04332e-05
-2.07385e-05
-7.41419e-09
-2.788e-08
3.30981e-08
-1.23502e-08
0.000117928
-1.46138e-06
0.000100348
6.54606e-09
7.97089e-05
-2.20232e-05
1.22121e-07
-3.38949e-09
-1.26665e-08
-7.74956e-08
-0.00120439
-1.41675e-07
-7.97089e-09
-3.95866e-05
-0.00733781
-2.898e-09
2.29158e-08
-2.89323e-08
-8.70791e-08
3.73814e-05
1.77642e-10
2.5466e-09
-1.00725e-08
0.00226964
-0.00181151
-3.93267e-09
-4.49165e-08
3.45678e-05
-5.83972e-09
-1.94444e-05
-3.77588e-08
0.00010448
4.07699e-08
0.00330197
0.000204416
-1.83661e-08
-4.54494e-09
-0.000442597
-3.63626e-09
4.44451e-07
4.09227e-05
3.03723e-09
-2.49104e-06
-2.82621e-08
6.29724e-09
0.00645576
8.00515e-05
6.4234e-09
-0.0121869
-0.0047595
3.5753e-09
-2.39196e-08
-6.65439e-08
-4.8647e-07
-0.000189276
0.000245139
-0.0110122
-2.89017e-08
-0.000135606
3.60968e-08
3.28506e-08
1.40567e-09
-3.0312e-08
-4.12138e-09
-6.68257e-09
6.54596e-05
-4.08972e-05
1.97887e-09
-4.73496e-07
-1.05621e-07
-5.72375e-09
-0.0046558
-0.000317332
-2.18741e-09
-9.25802e-09
1.35807e-08
2.44749e-09
9.7672e-09
-1.30245e-09
-0.0107841
3.30726e-08
-1.85915e-07
-3.89432e-08
-5.07501e-07
4.18971e-06
-1.88518e-07
0.0151723
-2.2899e-08
1.68058e-08
2.49266e-09
-4.65489e-09
8.57769e-05
-2.15009e-08
3.99147e-08
0.0033536
5.96737e-09
-1.01434e-08
-6.30475e-08
3.12615e-09
2.81224e-09
-6.43231e-07
-9.1872e-09
0.00010612
0.000663882
0.015607
7.95338e-08
0.0232914
-1.24602e-08
0.000113195
1.29221e-09
-1.55532e-07
0.00780866
-6.98387e-10
0.00169215
7.32348e-05
1.05023e-07
3.04823e-09
-6.08558e-10
-1.4172e-08
0.00119654
1.46153e-10
-1.84688e-08
1.2254e-09
2.93133e-09
4.49322e-07
7.34521e-09
2.48533e-08
-4.99807e-09
-1.02406e-09
-0.000492281
-3.42204e-08
1.31559e-08
-9.42514e-08
3.58116e-06
3.33218e-05
-0.00687766
-1.31445e-09
-4.04522e-09
0.000116248
-1.16425e-08
-2.44631e-08
-3.77391e-08
2.95523e-05
9.66266e-09
5.65272e-10
7.11753e-08
-0.000596852
-1.69407e-08
-2.80219e-09
-7.99145e-10
9.7858e-08
0.000170926
-4.94924e-07
2.21967e-08
2.02403e-08
-1.31339e-08
5.1802e-05
1.09089e-07
-0.000167675
9.80188e-09
7.70307e-09
9.49408e-05
-2.12847e-07
-0.000511181
2.22855e-08
-1.71022e-09
-8.31407e-09
6.05479e-08
-1.17012e-06
2.4698e-08
-1.73227e-08
6.18917e-09
4.82476e-05
-5.87071e-10
-8.30585e-09
6.0174e-05
-5.11678e-09
1.55804e-06
-3.7142e-08
1.19935e-08
-7.49027e-09
0.0031265
-1.15475e-08
0.0023072
0.000248376
-1.01486e-09
-0.0111869
1.63362e-08
-1.25653e-07
-7.21058e-08
5.38415e-09
-4.52173e-09
-3.81881e-09
-3.24384e-10
-0.0191747
9.33668e-09
3.21202e-05
-0.000237213
-3.34787e-09
-4.22468e-06
1.65866e-07
2.58633e-05
-7.00584e-09
0.00135536
6.6724e-05
3.75954e-05
6.99044e-10
2.13638e-08
3.16494e-09
0.000246042
7.43967e-05
5.1845e-10
-1.74056e-08
2.65778e-08
-0.0113049
-3.09533e-08
1.65042e-08
-1.66468e-08
-3.66882e-08
-0.000267614
3.56582e-09
-0.000236863
4.47399e-08
3.8406e-09
0.000295023
6.88278e-09
-0.0112038
-0.0149792
1.08937e-07
3.47647e-08
6.6081e-09
1.27868e-08
3.51475e-09
5.58413e-06
4.26815e-07
8.52777e-09
-1.41463e-08
1.81057e-05
0.00293546
1.94693e-10
3.60513e-07
0.0264917
-0.0189913
9.94881e-10
-1.54541e-08
0.000611563
3.72143e-05
1.22995e-05
5.02398e-09
0.0222787
3.62491e-08
1.61383e-09
4.29433e-05
6.69776e-09
-1.01406e-08
0.000414359
1.94202e-08
-7.22902e-06
-2.08341e-09
2.98979e-09
-8.51526e-09
-4.1847e-09
-0.000325749
-2.07842e-09
-2.82123e-09
4.18442e-10
1.77553e-08
9.79668e-09
-9.18498e-08
3.13909e-08
5.92134e-08
-1.82e-08
1.20093e-08
5.93882e-05
2.54425e-05
2.98488e-05
-0.0124779
-1.94409e-08
0.00417072
2.26224e-08
-0.00050247
0.00838573
-0.000485098
-1.97947e-09
-7.45065e-08
3.0552e-08
2.84411e-08
2.27696e-09
-1.07885e-07
5.22293e-07
2.10608e-08
2.10047e-07
-2.78749e-10
-9.64323e-09
1.27361e-08
2.98563e-09
1.17376e-09
-1.79588e-08
4.16675e-05
4.66783e-09
5.8225e-05
1.14991e-08
0.000160117
-1.18609e-08
6.38571e-09
1.16023e-08
-1.50698e-11
-9.27385e-10
-1.15332e-07
8.04521e-05
2.57683e-07
4.64038e-05
0.00192723
2.15843e-09
4.74139e-08
3.20861e-05
3.19077e-08
-4.5308e-09
4.04141e-09
-2.41301e-09
-0.000153009
-3.38762e-09
3.31152e-06
-1.36213e-05
-8.71761e-08
0.00875047
0.0155262
-7.26606e-09
0.000115501
-1.28443e-09
-7.46735e-13
0.000109782
0.000197984
-1.20103e-08
3.00515e-08
-0.0186774
1.63535e-09
1.64155e-05
1.09686e-09
-1.75452e-08
-2.35704e-08
5.03199e-09
-1.42623e-07
7.54972e-05
9.80931e-05
-4.03054e-08
6.03516e-10
-8.70878e-07
1.54809e-08
-4.88926e-07
-3.61383e-09
-3.29156e-08
3.63706e-08
-5.58045e-09
1.58484e-09
5.26691e-10
-9.55727e-07
3.67491e-07
7.38556e-07
9.08981e-05
-2.06383e-08
2.58526e-05
2.08023e-08
-2.83086e-08
6.89012e-05
-2.44931e-08
-0.000335309
1.38636e-08
3.61406e-05
5.61428e-05
-0.00027548
-8.16458e-05
6.25659e-10
-2.21842e-07
4.6927e-05
-9.54846e-09
9.72055e-05
8.39394e-09
-4.07845e-09
2.90917e-09
1.65314e-08
1.38218e-08
5.40713e-05
0.000183377
-0.00637166
1.55982e-08
2.21132e-07
-1.28404e-08
8.29673e-10
3.67039e-08
5.76944e-07
1.53854e-08
0.017474
-3.57274e-08
-1.36512e-09
2.12667e-10
2.11808e-08
2.29642e-06
-2.3324e-08
1.50927e-10
-1.2515e-08
-2.11595e-06
1.94416e-08
1.5083e-07
5.55349e-08
-0.000426822
-1.5071e-08
3.99282e-08
8.62014e-09
-5.30027e-09
0.00163456
-0.00052839
4.84243e-07
4.27619e-09
0.000750736
-2.57157e-08
1.90427e-08
-8.40032e-08
4.67487e-05
0.00307797
1.30313e-07
4.30536e-10
0.00100537
-8.63426e-09
-1.60018e-09
-1.85414e-09
0.00253008
-0.000486568
8.88491e-10
0.001044
-0.000340329
1.72711e-09
3.06908e-07
-2.75788e-07
9.89791e-05
-6.89841e-09
5.95283e-05
5.45497e-09
6.77112e-05
2.62002e-07
0.00012206
-1.44236e-08
1.11304e-10
5.42543e-05
6.12271e-09
-4.87307e-10
0.00616498
0.000202995
-2.89501e-06
0.00213547
3.79345e-08
7.81895e-09
-0.000220308
-5.55759e-09
-6.61119e-09
-1.1924e-08
-9.15899e-08
-7.82556e-09
-1.37441e-07
-5.76077e-09
0.000497576
0.000112322
2.79956e-08
8.33833e-05
-1.86314e-09
7.13041e-05
5.48679e-05
-1.57932e-08
3.36525e-09
1.88121e-09
-0.00190812
4.25613e-07
-1.2467e-07
6.28745e-05
-8.0193e-05
-0.0100439
-1.16171e-08
0.000202204
0.000138833
5.08054e-06
-0.000143107
-1.60971e-08
-1.82154e-08
-7.14974e-08
-5.68847e-09
-7.7198e-10
4.58836e-08
8.67876e-05
2.67114e-08
0.000214995
-0.00475714
0.000208463
0.0177142
4.0087e-05
5.72269e-08
0.000104805
9.57282e-08
2.94037e-08
3.62313e-09
3.2728e-10
-3.6549e-08
4.83832e-05
-1.61896e-09
-0.000517133
2.90035e-05
4.08618e-09
-4.6006e-08
3.98461e-09
-1.43647e-06
8.75427e-09
-1.13409e-07
-0.000251853
-8.28496e-09
1.59046e-08
1.44695e-09
3.08777e-08
2.08109e-08
8.83244e-05
1.24409e-07
0.000166318
1.95198e-07
6.54477e-09
0.000219706
-4.89526e-07
-3.98733e-09
5.39465e-05
5.91438e-05
0.0142104
0.0028865
6.8483e-05
-1.35063e-08
6.02325e-05
8.02894e-05
9.35216e-07
5.97322e-05
-3.46675e-09
1.54601e-08
2.04123e-08
2.38214e-08
5.97646e-05
-1.6491e-07
-1.85883e-08
2.41251e-08
0.000195053
7.68605e-05
-9.44818e-09
6.73841e-08
8.23651e-05
2.38301e-05
-6.10954e-08
-4.40403e-09
-2.87632e-07
-1.36759e-08
7.48705e-09
0.00437556
-4.20424e-09
9.58614e-06
0.000171916
0.000102778
3.01647e-09
-6.26349e-07
-2.86104e-07
-2.16872e-09
2.94572e-09
0.00203377
0.00313098
6.60955e-09
-1.9627e-07
-8.24219e-09
2.11262e-06
8.54358e-05
0.00112383
1.2416e-08
0.000453643
-0.000153436
-2.54225e-08
-9.3377e-10
-1.42432e-05
-1.42356e-09
1.4696e-09
9.84879e-05
1.60535e-07
-4.63606e-07
-3.10843e-09
6.36099e-08
-1.29352e-08
3.19866e-09
1.35634e-08
3.92716e-08
0.000832366
2.004e-09
0.00089262
2.37516e-05
-1.08335e-08
-1.98655e-09
0.00178142
0.000108578
0.00133767
8.66075e-09
2.37919e-09
-4.51361e-08
7.96088e-09
1.33573e-05
0.000323549
7.56706e-09
0.000168952
6.35012e-05
-8.877e-09
3.14357e-08
3.18782e-09
8.81831e-09
1.05521e-08
1.25974e-08
-2.26888e-08
-1.01497e-07
-2.00757e-07
-1.56098e-07
1.00654e-08
9.32832e-09
-1.09384e-07
-2.63685e-09
-1.58479e-08
2.37892e-08
8.48872e-10
0.000452258
0.000108126
4.35453e-05
1.71916e-05
2.40092e-09
-5.5149e-09
1.77062e-06
-0.000372833
3.31474e-08
-2.45498e-08
2.36434e-08
0.00963874
-0.0147177
2.89671e-08
-1.29054e-07
2.65411e-09
0.000789437
0.000118174
2.25864e-08
-0.000266667
7.85034e-05
-2.96317e-09
1.74713e-05
-3.12513e-07
0.00097538
0.000102485
6.92792e-10
0.000125739
6.74692e-05
-2.08006e-08
-4.21524e-07
-5.27933e-07
4.13721e-08
-8.10873e-09
-0.00355755
0.00132215
6.39186e-09
-7.36835e-10
0.00921766
8.78657e-05
-4.44673e-07
2.05106e-09
2.11669e-05
-2.1544e-08
4.32031e-05
3.65371e-05
-4.01189e-08
-6.08861e-10
3.55694e-08
-4.43923e-10
2.41927e-05
-0.0159529
-0.000513816
2.78656e-08
3.53073e-05
-0.00139111
1.59813e-09
-1.04069e-09
7.47778e-05
-7.59885e-10
8.92073e-05
-1.24564e-08
3.43687e-05
3.2805e-08
5.96695e-09
-0.00623025
-5.00534e-10
-2.78964e-08
-4.91661e-05
-1.605e-08
7.12755e-09
6.88457e-09
2.61738e-07
8.57468e-05
9.57861e-07
6.358e-05
2.82855e-09
1.05967e-09
-3.15427e-08
-5.92059e-07
0.000116683
0.00412119
-7.28056e-07
3.63997e-06
-4.09313e-08
-0.000309472
-6.82147e-08
-9.65812e-09
-3.47971e-09
4.2942e-09
-0.000162162
8.17053e-06
0.00226432
2.24084e-07
-1.33063e-07
-7.40044e-09
0.000383958
-0.00304922
0.000513238
-3.24219e-08
2.54621e-08
2.14207e-09
7.59538e-05
-5.98688e-06
-0.00110313
-0.00016305
-6.67485e-08
3.59938e-05
1.47375e-09
6.64412e-09
-6.07838e-07
-0.000154611
6.04828e-05
6.33008e-09
-8.66193e-08
2.36333e-09
4.32234e-09
-2.84008e-06
-0.00706709
0.00271608
-1.3338e-08
-7.06828e-07
5.4235e-05
0.0216382
5.03111e-05
4.80134e-05
0.000118507
6.38494e-09
-1.56672e-07
-8.81875e-09
-8.07192e-08
1.59257e-09
7.58686e-07
2.59515e-09
-5.26836e-08
-0.00145179
0.00128409
-6.05964e-10
-5.70285e-06
7.04206e-05
-2.32656e-08
1.14605e-08
-0.000140287
-2.13366e-08
8.92096e-10
-5.66854e-09
8.33602e-05
3.84953e-08
-2.41608e-07
-7.25152e-05
0.00212624
9.93405e-05
2.12911e-09
-0.000438279
8.06219e-05
-0.0195256
-0.000648828
-1.90037e-08
-1.90855e-08
-6.4553e-09
3.84988e-05
3.02772e-06
3.2659e-08
-8.79348e-05
9.96827e-07
7.41298e-05
9.35629e-10
-0.0107144
0.00222654
6.90735e-05
-3.11525e-08
0.0162678
3.35934e-08
0.000105125
7.87011e-07
-0.000228143
2.82601e-05
7.34125e-09
8.28449e-10
7.80204e-05
0.00012489
-8.02372e-06
1.11615e-09
2.48414e-07
6.04989e-08
-0.000238932
-7.12985e-06
6.41369e-05
8.80811e-09
5.61153e-05
-1.62699e-07
-0.00492939
1.98531e-08
0.000123334
-0.00342919
3.86092e-09
4.27272e-08