/*--------------------------------*- C++ -*----------------------------------*\
| =========                 |                                                 |
| \\      /  F ield         | OpenFOAM: The Open Source CFD Toolbox           |
|  \\    /   O peration     | Version:  v2012                                 |
|   \\  /    A nd           | Website:  www.openfoam.com                      |
|    \\/     M anipulation  |                                                 |
\*---------------------------------------------------------------------------*/
FoamFile
{
    version     2.0;
    format      ascii;
    class       volVectorField;
    location    "400";
    object      U;
}
// * * * * * * * * * * * * * * * * * * * * * * * * * * * * * * * * * * * * * //

dimensions      [0 1 -1 0 0 0 0];


internalField   nonuniform List<vector> 
13917
(
(0.651725 0.0124238 0)
(1.01965 0.0260277 -3.91371e-22)
(1.08678 0.0419819 -3.09445e-21)
(1.03329 0.00792585 5.73444e-21)
(1.01946 0.0111228 7.80123e-23)
(1.01786 0.0249348 0)
(1.04693 0.0173236 8.64277e-21)
(1.05851 0.0341111 0)
(1.053 0.00791339 -1.12448e-20)
(0.0186097 -0.120915 4.27439e-22)
(1.05027 0.0339031 -6.11558e-23)
(1.02598 0.00747972 0)
(1.011 4.2982e-05 0)
(0.745718 -0.121476 7.24919e-22)
(1.01658 0.0128333 0)
(0.629256 0.00762292 0)
(1.00795 3.1842e-05 -1.53508e-22)
(1.04467 0.0236793 1.93922e-22)
(1.0726 0.0413786 0)
(0.660558 0.0483386 0)
(1.02452 0.019235 0)
(1.0169 0.00594587 0)
(1.05886 0.0298612 2.44237e-22)
(1.01677 0.00584426 0)
(1.03265 0.013825 0)
(1.02453 0.0177027 0)
(0.863023 0.117504 0)
(0.00544802 -0.0879322 0)
(1.03043 0.0151599 4.59739e-22)
(1.01448 -0.000632367 0)
(0.0328233 -0.104136 5.30152e-20)
(1.07148 0.0288027 0)
(1.03046 0.00994679 5.77966e-21)
(0.683693 0.0215794 0)
(1.01481 0.00148159 2.15379e-22)
(1.06541 0.0458802 0)
(1.02504 0.0147546 1.37366e-21)
(1.00864 0.000129153 1.55963e-21)
(1.04778 0.0172435 0)
(1.02616 0.0291471 -4.15283e-21)
(1.00572 -5.03711e-05 0)
(1.01642 0.000376905 5.75389e-24)
(1.04848 0.00549336 1.96715e-20)
(1.07579 0.0370178 0)
(1.07494 0.0372833 -6.78908e-21)
(1.06091 0.052918 0)
(1.02498 0.0194168 0)
(0.386608 0.183299 1.1092e-20)
(0.93469 0.139328 0)
(1.01477 0.00156373 -2.55645e-22)
(1.02556 0.00727568 -2.73504e-21)
(1.06189 0.049514 -5.91826e-21)
(0.54616 0.00142268 0)
(1.021 0.00797705 0)
(1.02202 0.00849773 -2.66456e-21)
(1.06217 0.0486857 1.5443e-20)
(-0.0151015 -0.0225746 -4.5326e-20)
(1.05802 0.0299431 1.43253e-22)
(1.01609 0.000419939 3.62425e-22)
(1.06058 0.0551084 4.94984e-21)
(0.384045 -0.049477 -6.67373e-22)
(1.01738 -0.0053539 0)
(1.00895 -7.41717e-06 0)
(1.03244 0.0133429 0)
(0.875829 0.0574058 -5.3894e-21)
(1.02241 -0.00902582 -2.0993e-22)
(1.03418 0.0160472 0)
(1.05936 0.0527529 0)
(1.0499 0.0242303 -2.59022e-22)
(0.606597 0.00697175 -2.91887e-20)
(0.952759 0.0531046 2.15056e-20)
(0.670116 0.0189521 0)
(1.02968 0.00214912 3.32649e-21)
(1.01569 0.000377898 -5.29175e-22)
(1.0241 0.0196838 0)
(1.03008 0.0152724 0)
(1.01871 0.00755555 -1.91555e-22)
(1.01538 0.000390202 3.35546e-22)
(1.03002 0.0148009 0)
(1.03081 0.0102439 4.78764e-21)
(1.01971 0.0090969 0)
(1.00809 5.00735e-05 0)
(1.02925 0.00184241 0)
(0.95752 0.042124 4.13517e-21)
(1.01514 0.00136636 -1.01831e-23)
(1.04784 -0.0365889 3.19219e-21)
(1.0708 0.0284424 0)
(1.01565 0.000706918 -2.71726e-22)
(1.02586 0.0279361 2.18065e-21)
(1.00866 2.87291e-05 1.77973e-22)
(1.00893 2.02483e-05 -9.9033e-23)
(1.0494 0.005533 -2.39299e-20)
(0.913625 0.136364 2.95841e-21)
(1.01395 0.00116924 -6.26841e-23)
(1.02219 0.0103885 0)
(1.03231 0.0138193 -6.66612e-22)
(0.877675 0.0566368 -1.03111e-20)
(1.00856 8.14536e-05 0)
(1.0157 0.000780814 1.35617e-21)
(0.977907 0.0474866 0)
(1.00776 1.79799e-05 -1.07864e-22)
(1.00823 -1.78736e-05 0)
(1.01994 0.00941337 7.6503e-22)
(1.00988 0.000233608 -8.48992e-23)
(1.01841 0.0074775 8.75205e-24)
(0.951949 0.0309991 0)
(0.690259 0.101417 0)
(1.01975 -0.00614727 0)
(1.0169 0.000434804 2.06064e-22)
(0.810572 0.129002 1.55049e-21)
(1.01791 -0.000232124 -7.95531e-22)
(0.694515 0.0249296 -3.42726e-20)
(1.02866 0.0138868 -3.57209e-23)
(0.225131 0.186238 -3.73454e-20)
(0.885873 0.0557275 2.51695e-21)
(1.0291 0.0160361 -4.56445e-22)
(1.07206 0.040481 1.16867e-20)
(1.00897 1.08709e-05 -9.22461e-23)
(1.08178 0.0422637 -5.2878e-21)
(1.02779 -0.00037325 -9.16446e-21)
(1.00875 6.73928e-05 3.11382e-23)
(1.01457 0.000341019 -1.57649e-22)
(1.03696 0.0149097 -6.13123e-22)
(1.06442 0.0429652 8.3213e-21)
(0.581552 0.00300961 -2.33504e-21)
(0.934629 0.0429581 -6.30431e-21)
(1.03264 0.0126108 -6.64125e-21)
(1.02346 0.0194055 -1.70186e-21)
(1.01381 0.00249092 -1.27909e-23)
(1.06532 0.0429919 0)
(1.05963 0.0173414 1.53039e-22)
(1.05121 0.0876265 0)
(0.77195 0.025166 0)
(1.02867 0.0159631 -3.00936e-21)
(1.0734 0.0312601 -1.32103e-20)
(0.774044 0.129676 -5.10755e-21)
(0.405642 -0.0873281 0)
(0.554859 0.00486979 1.29786e-22)
(1.0249 0.0166805 -1.48691e-22)
(1.00549 5.59454e-05 -7.16404e-22)
(0.832836 -0.0751018 1.17931e-20)
(1.015 0.000362329 -1.62156e-22)
(0.962622 0.0302658 -4.21853e-21)
(1.01514 0.00418334 2.91557e-23)
(1.02788 0.00232462 0)
(1.01932 0.00189806 -2.75273e-22)
(0.956914 0.0525729 -7.6491e-21)
(0.840649 -0.0774675 -9.01739e-21)
(0.461116 0.185123 0)
(1.02134 0.00826858 5.72481e-22)
(1.02683 0.0260749 0)
(1.00862 1.92253e-06 -5.53474e-24)
(1.02748 0.00196886 0)
(1.02794 -0.00068285 7.61026e-23)
(0.831561 0.0667982 -5.312e-21)
(1.01657 0.00541039 -1.88949e-23)
(1.0098 0.000254107 1.24056e-22)
(0.748185 0.0233501 2.77887e-20)
(1.00792 -2.17374e-06 4.47791e-24)
(1.00882 -2.65896e-05 0)
(1.01525 0.00297145 0)
(0.774887 0.0772631 -1.03858e-20)
(1.02339 0.015937 -5.38212e-22)
(0.816434 -0.0575856 -6.03066e-21)
(0.585935 0.0544598 3.50803e-21)
(0.964149 0.0550044 4.62277e-21)
(0.368836 0.00332865 0)
(0.334459 0.086424 -5.0379e-21)
(1.00931 -0.000223667 0)
(1.02494 0.0158261 -4.76234e-23)
(1.01694 0.00587771 2.51451e-22)
(0.780802 0.0275767 2.27044e-20)
(1.05305 0.00720581 1.00518e-20)
(0.565364 -0.0429093 -6.97566e-23)
(1.04983 0.0476624 0)
(1.0084 1.61657e-05 7.79965e-23)
(1.0337 0.00763586 0)
(1.06326 0.0509371 -2.20002e-20)
(1.05915 0.0166587 2.57854e-20)
(1.02341 0.0163035 4.21109e-22)
(1.04743 0.00634756 -6.85569e-21)
(1.01677 0.00580391 0)
(1.0253 0.00745715 1.57227e-21)
(1.06563 0.0481424 5.15041e-21)
(1.08201 0.0433512 0)
(1.04675 0.0924445 0)
(1.0249 0.00728182 0)
(1.06551 0.0477983 3.78101e-21)
(1.01446 -0.000637035 -6.3797e-23)
(1.04793 -0.0263082 1.24407e-21)
(1.04863 0.0486581 8.98261e-21)
(1.07419 0.036486 6.84495e-21)
(1.0649 0.0478063 9.48371e-21)
(0.662212 0.0191414 5.62188e-20)
(1.01393 0.00120598 3.8802e-22)
(0.588513 0.00462249 -2.04915e-20)
(1.036 0.0195675 -4.7007e-21)
(0.796092 0.0264961 -2.37511e-20)
(1.01462 0.00141509 -8.10704e-23)
(1.0165 0.00534588 1.04564e-23)
(1.02585 0.0194593 2.15986e-21)
(0.610538 0.00751284 0)
(0.543511 0.00460582 -2.63126e-20)
(1.02342 0.013515 0)
(0.904764 0.122403 2.94897e-21)
(1.0264 0.0191393 -3.29698e-23)
(1.02704 0.0271027 0)
(1.01493 0.000342352 -5.94778e-24)
(1.0629 0.0499119 -2.68566e-22)
(1.01946 0.00892415 5.24784e-22)
(1.01207 0.00179467 -1.03785e-22)
(1.01875 0.017021 -1.62078e-21)
(1.02042 0.0187072 1.55985e-22)
(0.468901 0.175163 -1.17e-20)
(1.07306 0.0306891 6.96448e-21)
(1.02423 0.0171685 2.30902e-22)
(0.78469 0.0742534 2.01427e-20)
(1.0129 0.000520914 0)
(1.01116 5.87187e-05 -2.3967e-22)
(1.01116 4.7706e-05 0)
(0.289373 0.109852 5.24289e-21)
(1.06515 0.0481155 1.23881e-20)
(1.05461 0.0467195 7.22615e-21)
(1.01828 0.000491117 0)
(1.00808 -9.29539e-05 2.24811e-24)
(0.717116 0.142299 1.0125e-20)
(0.579868 0.0048191 -2.20179e-20)
(1.01048 8.34007e-05 1.38596e-22)
(1.01027 7.08087e-05 -1.24264e-22)
(1.00522 -0.000162682 0)
(1.01147 3.26089e-05 0)
(1.01148 1.87343e-05 -2.54237e-22)
(0.663823 0.0172691 1.306e-20)
(0.550156 0.147343 0)
(1.01812 0.00715921 -5.5439e-23)
(1.01037 -0.000319717 -1.2341e-23)
(1.05734 0.0439742 0)
(0.646506 0.0132884 0)
(1.00827 2.44885e-05 1.2403e-23)
(1.01808 0.000494341 0)
(0.87753 0.126766 -1.88984e-21)
(0.957574 0.0298186 0)
(1.06632 0.048512 -5.59088e-21)
(0.779331 0.0730228 0)
(1.05434 0.0553122 0)
(1.01529 0.00424247 -1.05375e-21)
(0.444003 0.0725858 1.68768e-21)
(1.05839 0.0440651 2.82102e-21)
(1.02759 0.0151029 -4.13916e-22)
(1.06762 0.0361603 4.49223e-21)
(1.0235 0.0131877 0)
(0.547813 0.158954 1.38278e-20)
(1.02821 0.000264527 3.73248e-21)
(1.03718 0.0354385 -4.2477e-21)
(1.04886 0.0453692 0)
(1.01808 0.00715617 8.57653e-22)
(1.00334 -5.56687e-05 0)
(1.03286 0.0130734 0)
(1.01512 0.00773569 3.33666e-22)
(1.01532 0.00113791 0)
(0.608424 0.00778845 1.98319e-20)
(0.814833 0.110505 -1.37833e-20)
(1.01435 0.000409526 -1.47679e-22)
(1.01009 9.20937e-05 0)
(1.01674 0.00565935 1.08389e-22)
(1.01011 0.000109003 0)
(1.02832 -1.59037e-05 6.63678e-21)
(1.01668 0.000131791 -2.27589e-21)
(1.0486 0.0296257 -6.04731e-21)
(1.01469 0.000369793 -1.58955e-22)
(0.562307 0.00549802 2.48645e-21)
(0.693169 0.102144 0)
(1.02213 0.00597784 -1.51817e-21)
(1.01675 0.00731845 0)
(1.03232 0.0558842 -7.61496e-21)
(1.01162 -5.32893e-05 -5.92187e-23)
(0.989374 0.0411055 -6.86876e-22)
(0.623408 0.0102579 1.58925e-22)
(1.0116 -4.81692e-05 6.09596e-23)
(0.622772 0.00878505 2.81635e-20)
(1.01502 0.00112377 0)
(0.781066 0.0737478 0)
(1.00774 -5.37522e-06 9.46442e-25)
(1.01756 0.0112936 -2.99959e-22)
(1.01812 0.00724625 -1.02383e-22)
(1.01461 0.00385704 6.00691e-22)
(1.07049 0.0473879 0)
(1.01015 0.000221509 -1.07121e-21)
(0.959257 0.0605112 5.84209e-21)
(1.03398 0.023084 0)
(0.768832 0.106125 3.68432e-21)
(1.02005 0.00183775 0)
(0.968895 0.113426 0)
(0.545413 0.00376887 -2.60065e-21)
(1.00881 -1.08096e-06 -2.37622e-22)
(1.05655 0.0352384 -9.74025e-21)
(1.01642 0.00939557 2.8398e-22)
(1.0282 0.0164317 -3.42155e-21)
(1.01837 0.0105145 -3.88331e-23)
(1.03054 0.0146788 -7.87195e-21)
(1.01431 0.00113087 -1.37594e-22)
(1.01088 0.000280667 5.23422e-22)
(1.06273 0.0533045 8.95106e-21)
(1.03685 0.00638187 0)
(1.03692 0.0345989 7.25171e-21)
(1.03047 0.0142845 2.59092e-21)
(1.01787 0.000577167 -1.62401e-21)
(0.764061 0.0246934 -2.71567e-20)
(0.597138 0.00631519 0)
(1.01342 0.00217955 2.18596e-23)
(1.01561 -0.00173541 -7.43868e-24)
(1.02861 0.0165281 0)
(0.997197 0.0660906 0)
(1.08168 0.0313409 -4.15614e-20)
(0.712534 0.0834203 -7.08824e-21)
(0.629771 -0.038172 4.14561e-22)
(1.02596 -0.0040766 4.86404e-23)
(1.0481 0.0818021 1.11211e-20)
(1.0165 0.0067494 -2.52907e-22)
(0.973756 0.0432091 -2.1874e-20)
(1.00581 0.0847437 7.2185e-24)
(1.08719 0.0409397 0)
(1.01602 0.000152068 0)
(1.0167 0.0120716 0)
(0.894035 0.116948 0)
(1.01692 0.00591414 4.29114e-23)
(1.02007 0.0277753 2.30179e-22)
(1.07336 0.0367199 6.7066e-21)
(1.00787 -2.9787e-05 -2.22524e-22)
(0.788029 0.0282127 -1.17043e-22)
(1.0151 0.00103925 0)
(1.06836 0.0168363 0)
(1.01407 -0.000242223 -3.70488e-22)
(0.589651 0.0439213 8.50194e-20)
(1.01085 0.00119451 6.59813e-22)
(1.03802 0.0329202 -1.063e-21)
(1.02682 0.0187715 -1.01472e-22)
(1.02652 -0.0014376 -6.83959e-23)
(1.00885 8.44622e-05 1.42094e-22)
(1.06875 0.0350761 9.70174e-21)
(0.977047 0.0326535 6.67377e-21)
(1.02245 0.0101018 1.35295e-21)
(1.01682 0.00579346 5.43109e-23)
(0.710818 0.0282995 -1.69823e-20)
(0.972753 0.0322429 0)
(0.797524 0.0301131 -1.22499e-20)
(0.799531 -0.0924343 0)
(1.01131 -3.43669e-05 2.8037e-23)
(1.0186 0.00752131 -5.94504e-22)
(0.951743 0.0294822 0)
(1.05139 0.0787542 -1.48056e-20)
(1.01132 -3.1963e-05 -2.42293e-22)
(1.01705 0.0105034 2.64907e-22)
(1.0232 0.00789464 2.31692e-21)
(1.01457 0.0164344 0)
(1.03814 0.0337773 -3.53797e-21)
(1.06423 0.0462164 1.86904e-21)
(1.04301 0.0618215 4.73621e-21)
(0.988792 0.0364205 -5.42711e-22)
(1.06656 0.0187381 1.9458e-20)
(0.683896 0.0274554 0)
(1.01401 0.00258505 6.26004e-23)
(1.02276 0.0101548 0)
(1.0199 0.0120425 3.14064e-22)
(1.07599 0.0484857 -9.23882e-21)
(1.00761 -1.98119e-05 9.46758e-23)
(0.647165 0.0123785 -6.63752e-20)
(1.06657 0.0182022 -1.40358e-20)
(0.879778 0.0214682 -1.29843e-21)
(1.02212 0.00876077 3.49553e-21)
(1.04725 0.0718179 0)
(1.01518 -0.000928106 8.3537e-24)
(0.901704 0.0990527 0)
(1.01613 0.000646621 -2.13002e-22)
(1.05693 0.0478165 -7.90338e-21)
(1.03724 0.0533921 5.9857e-21)
(1.02784 0.0186458 -5.02058e-23)
(1.02233 0.00625426 -4.9624e-21)
(1.00538 0.0588531 0)
(1.01498 -0.000247978 0)
(0.557824 0.0432692 -3.24168e-21)
(1.06472 0.0481827 -1.04229e-20)
(1.0161 0.000651893 -2.13563e-22)
(0.922854 0.11383 -3.34208e-21)
(1.01816 0.00736947 3.57038e-22)
(1.03365 0.0277081 -1.15557e-21)
(1.01168 0.000826326 7.60581e-23)
(0.677862 0.0547712 0)
(1.02605 0.0357813 8.3212e-22)
(1.02615 0.014271 -8.8074e-23)
(0.700715 0.152246 -4.75458e-21)
(0.995833 0.0299916 0)
(1.02318 0.0124637 2.86688e-21)
(0.695077 0.0460391 -2.26532e-21)
(1.08902 0.0270104 -1.0345e-20)
(1.02652 0.0135614 -7.28793e-22)
(1.07005 0.048046 7.14231e-21)
(1.01893 0.00755984 7.71311e-22)
(0.992598 0.0250871 2.67741e-21)
(1.08587 0.0424147 2.34452e-20)
(1.0153 0.000904273 0)
(1.04978 0.0137449 -1.10327e-20)
(1.03094 0.0141464 3.26349e-21)
(1.01463 0.00380888 5.92943e-22)
(1.01229 0.00170849 2.16096e-23)
(1.01421 0.0027677 -8.24051e-23)
(0.311259 -0.108357 0)
(0.972084 0.0614564 -4.71892e-21)
(1.02245 0.00947443 1.75886e-21)
(1.01445 0.00271726 2.53149e-23)
(1.0165 0.00552954 -2.50619e-22)
(1.05227 0.0367626 -1.7166e-20)
(1.03452 0.0780711 0)
(1.0127 -0.000149453 0)
(1.0092 -0.000202807 0)
(1.08103 0.0316131 2.78009e-20)
(1.04337 0.0715986 0)
(1.01482 0.0040408 6.60244e-22)
(1.02614 0.0140279 7.32122e-23)
(0.782024 -0.0089793 0)
(0.67442 0.042143 7.66381e-21)
(1.02329 -0.0118084 0)
(1.07362 0.0414503 0)
(0.999829 0.043586 4.63314e-21)
(1.01423 -3.55199e-05 4.70562e-22)
(1.01229 -0.000111608 -2.28056e-22)
(1.0253 0.0183054 2.15829e-21)
(1.01219 0.00163022 1.22584e-23)
(1.01267 -0.000139526 2.3179e-22)
(1.01818 0.00727297 -9.83244e-22)
(1.01229 -0.000100586 -4.22332e-24)
(1.01396 -5.42663e-05 0)
(0.46058 0.100554 -5.85721e-22)
(1.01918 0.00783277 -4.92428e-23)
(1.02712 0.0319307 0)
(0.573847 0.00690998 0)
(1.05553 0.035215 0)
(1.01225 0.00188397 3.02341e-22)
(1.02694 0.00205606 0)
(0.710933 0.0546629 0)
(1.02557 0.0190362 -1.06459e-21)
(0.565636 0.00120174 2.44501e-20)
(1.0136 -0.000220367 0)
(1.01952 0.00207706 -3.25717e-21)
(1.0153 -0.00025559 0)
(1.0118 1.24699e-05 2.73955e-22)
(1.0248 0.0143547 1.90198e-21)
(1.01817 0.00726965 -1.31242e-22)
(0.809626 -0.00223719 0)
(1.01444 0.0017485 0)
(0.945048 0.0303402 2.56676e-21)
(1.01933 0.00212642 0)
(1.05801 0.0220418 -9.99716e-21)
(1.01491 0.00380113 -2.57112e-22)
(1.01927 0.00858759 0)
(1.05494 0.0534703 0)
(0.793738 0.022784 1.952e-21)
(1.02311 0.00762686 -2.36347e-21)
(0.561364 0.0953829 6.33185e-21)
(1.01248 0.00203909 1.7783e-23)
(1.01212 0.000592292 1.10439e-21)
(1.01628 0.00533294 -2.57237e-22)
(1.01826 0.00751646 -5.22024e-22)
(1.0117 0.00161637 6.16416e-23)
(1.015 0.000572365 0)
(0.756665 0.0242876 3.27765e-21)
(0.474186 -0.0435241 -8.28393e-22)
(1.01152 0.00153054 0)
(0.964908 0.11819 -2.59178e-21)
(1.08037 0.0327759 0)
(1.0185 0.000168529 3.60045e-21)
(1.0565 0.0372106 -9.38123e-21)
(1.07731 0.0225943 7.15797e-21)
(0.659639 0.0661083 9.03186e-21)
(1.05192 0.0141927 -1.25492e-20)
(0.953513 0.0307706 9.53771e-21)
(0.992149 0.0163138 -1.93816e-21)
(1.00908 0.00460741 1.39756e-21)
(1.01824 0.00739698 -4.50472e-22)
(1.02377 -0.00628216 2.05697e-22)
(1.01463 0.00505187 0)
(1.02315 0.0128006 -9.04735e-23)
(0.917941 0.045058 0)
(1.00895 2.59069e-05 -9.64908e-23)
(1.02093 0.00767133 0)
(1.0225 0.0104517 3.19654e-21)
(1.05112 0.0113245 -8.5094e-21)
(1.02515 0.0213038 6.65649e-22)
(1.07937 0.0433501 -1.10818e-20)
(1.06361 0.0304876 -1.75669e-20)
(1.01944 -0.000336514 0)
(1.01649 0.00779782 5.80345e-22)
(1.04322 0.0177274 0)
(1.02527 0.0410608 -4.29693e-21)
(1.02217 0.00934168 -1.73967e-21)
(0.682852 -0.13949 1.5794e-21)
(1.05179 0.0276825 -8.42167e-21)
(1.03471 0.0230536 4.4707e-21)
(0.562741 0.0191826 9.68242e-23)
(1.01517 0.00121065 -2.9821e-21)
(1.02446 0.0426984 4.31225e-21)
(1.06442 0.0509581 0)
(1.01104 0.00107379 1.58022e-23)
(0.689771 0.0192401 -1.77568e-21)
(1.01223 0.000601 0)
(1.01179 3.2721e-06 0)
(1.05334 0.0369563 1.75966e-20)
(1.01355 -0.000211068 0)
(1.01309 0.000542977 -5.94418e-22)
(1.06153 0.0543556 0)
(0.731019 0.0223794 0)
(0.604956 0.168099 -4.24409e-21)
(1.0152 0.00279182 1.24744e-21)
(1.03718 0.0065351 9.78328e-21)
(1.01779 -0.00102737 2.88583e-22)
(0.94196 0.0393937 7.06513e-21)
(0.964438 0.0648531 -1.30367e-20)
(1.02171 0.00883079 3.17448e-21)
(1.02164 0.00825801 1.88402e-21)
(1.01487 0.00250172 0)
(1.04911 0.042763 1.40263e-20)
(0.865097 0.0607464 -3.0556e-22)
(1.01407 0.00239778 -4.17493e-23)
(1.0083 -1.34311e-05 3.48492e-23)
(1.01634 0.00511235 -4.00281e-23)
(1.01451 0.00364432 -1.8733e-21)
(1.01923 0.00517475 0)
(1.04119 0.0230595 0)
(1.00898 5.74909e-05 1.90711e-22)
(1.0633 0.0312369 1.82212e-20)
(1.01092 0.00101013 -4.3973e-22)
(1.01682 0.00580583 -1.60025e-21)
(1.03091 0.0137799 1.53824e-21)
(0.717014 0.0634836 3.95868e-20)
(1.00863 0.000136408 -1.62149e-22)
(1.0433 0.0100553 3.43364e-21)
(1.01525 0.00113024 0)
(1.05737 0.0214719 -1.71805e-20)
(1.05974 0.0394483 -5.47565e-21)
(1.02004 0.00800032 1.52198e-21)
(1.04989 0.0463457 0)
(0.976914 0.0563946 0)
(1.02938 0.0130928 0)
(1.03893 0.018767 1.96846e-22)
(0.812396 0.0276779 1.21072e-20)
(0.506581 0.105459 0)
(0.589583 0.00894537 -1.76154e-20)
(1.01306 0.00186478 -7.29479e-25)
(1.01597 0.00504172 0)
(1.01998 -0.000575561 -2.38811e-22)
(1.0215 0.00413435 0)
(0.881175 0.0527324 9.86796e-21)
(1.01194 -5.71299e-05 0)
(0.88156 0.173143 0)
(1.03659 0.019398 6.86846e-21)
(0.862787 0.0330557 2.17257e-20)
(0.985516 0.0450286 -1.38141e-21)
(1.04823 0.00629862 2.01839e-21)
(0.134977 0.00433278 2.51227e-20)
(1.0115 0.00148934 -2.7965e-22)
(1.07435 0.0227518 2.77943e-20)
(1.00929 0.000108453 -4.59155e-23)
(1.01652 0.00165101 9.80008e-22)
(0.842207 0.031835 1.60218e-20)
(1.01314 -0.000184751 5.72017e-23)
(1.0878 0.0352558 4.70407e-20)
(1.00774 -4.13152e-05 3.04084e-23)
(1.01794 5.63081e-05 -1.93707e-21)
(1.01618 0.00523763 0)
(1.07897 0.0427099 1.07359e-20)
(1.01894 0.00585468 -2.22304e-22)
(1.00951 0.000118981 -1.35054e-22)
(1.07682 0.0357476 0)
(1.05551 0.0371225 -2.11976e-21)
(0.81894 -0.169775 2.35069e-21)
(0.981151 0.0504534 0)
(0.775938 0.024793 1.17034e-20)
(0.63713 0.0651802 -5.23676e-21)
(1.00862 0.000142948 1.88342e-22)
(0.592649 0.00208496 -6.73598e-21)
(1.00929 -5.83022e-05 3.50331e-23)
(0.435183 -0.071019 0)
(0.870196 -0.077072 0)
(1.01675 0.00194908 -2.71711e-22)
(1.0144 0.000508396 1.77813e-22)
(1.00824 2.77141e-05 1.74498e-22)
(1.05114 0.027369 0)
(1.0469 0.00561829 7.47832e-21)
(1.0131 -0.000173395 -5.88333e-23)
(1.00925 0.000122676 0)
(1.01529 0.00031653 -1.52565e-21)
(1.00258 0.0504965 -1.47635e-20)
(1.01609 0.00329601 -7.95991e-22)
(1.07039 0.0269629 2.11897e-20)
(1.02057 0.00744131 0)
(1.00939 0.000105817 3.22541e-22)
(1.00858 1.75606e-05 2.75557e-22)
(1.07127 0.053307 7.52183e-24)
(0.862321 0.062778 -6.6478e-21)
(0.324008 0.0529415 -3.84804e-20)
(1.06682 0.0355452 -1.22801e-20)
(1.04174 0.0226299 0)
(1.01694 0.0562018 -4.061e-21)
(0.649899 0.0138346 -2.76849e-20)
(1.01192 0.000844709 -9.0118e-23)
(0.863821 0.0374225 0)
(1.01444 0.000103863 3.31414e-21)
(1.08082 0.0251281 -3.41161e-20)
(1.02134 0.00427924 5.86744e-21)
(1.01736 0.0572482 6.7411e-21)
(1.01428 0.00348293 7.28482e-22)
(1.02009 0.00493075 0)
(1.02841 0.00229316 0)
(0.82373 -0.177027 -1.10075e-21)
(1.0501 0.0290425 -1.06047e-20)
(0.848025 0.0626286 -1.03528e-20)
(1.009 5.70031e-05 1.57971e-24)
(1.04832 0.028532 -6.48327e-21)
(1.01461 0.00204437 0)
(1.00705 -0.000106103 -2.37803e-22)
(0.694004 0.0326598 -7.11117e-22)
(0.957722 0.0365 3.89536e-22)
(1.015 0.00195718 -5.4248e-23)
(1.06451 0.04681 -2.221e-21)
(1.01805 0.000605529 2.44886e-21)
(1.01587 0.00114837 0)
(1.00779 -2.96318e-05 0)
(0.706097 0.0360583 4.28113e-20)
(1.0162 0.00324839 8.07683e-22)
(1.0153 0.00881597 0)
(1.01193 -6.1987e-05 1.51084e-22)
(1.01482 0.00194385 -3.60523e-22)
(1.07459 0.0484711 0)
(1.00827 1.39776e-05 -3.79681e-23)
(1.06576 0.0454113 -5.22744e-21)
(1.00806 4.65095e-05 -1.61594e-23)
(1.01096 0.0012119 0)
(0.35718 -0.0694662 2.60023e-22)
(1.07098 0.0273298 0)
(1.0214 0.00852884 -1.86498e-21)
(0.496361 0.00254394 0)
(1.08666 0.0348752 -4.34738e-20)
(1.00557 0.0631089 -1.40021e-22)
(1.06539 0.0518133 0)
(1.01133 0.00140405 2.04008e-22)
(1.01569 0.0130773 -7.7187e-22)
(0.707696 0.0620175 -2.11311e-22)
(1.09009 0.0302184 1.62433e-22)
(1.02547 0.018323 0)
(1.02537 0.0148036 -5.83151e-22)
(1.02113 0.00503714 -5.55772e-22)
(1.00866 6.5855e-05 1.294e-22)
(1.01425 0.00307208 0)
(1.02737 -0.00572888 3.82066e-23)
(1.05989 0.0411199 0)
(1.03324 0.0179854 -2.03529e-21)
(0.482459 0.0226378 -4.81425e-22)
(1.05102 0.0292557 1.29715e-20)
(1.0218 0.0969099 9.71069e-22)
(0.946177 0.0569019 -1.32912e-20)
(1.0376 0.00147106 0)
(1.04093 0.0312745 -9.53233e-21)
(1.06533 0.0475901 0)
(0.63342 0.0107993 2.56333e-20)
(1.01426 0.00115644 0)
(1.02362 -0.00393708 6.92165e-22)
(1.02936 -0.0035754 0)
(1.01102 0.00121992 0)
(1.00917 8.653e-05 1.28013e-22)
(1.00865 -4.25673e-06 -7.34718e-23)
(1.01823 -0.00156564 0)
(1.0139 0.000491108 0)
(0.598952 0.00265262 7.32574e-21)
(1.06369 0.015349 1.12556e-20)
(1.01008 0.00029375 0)
(1.07266 0.0360323 -6.95407e-21)
(1.00904 5.76246e-05 3.17493e-22)
(0.721513 0.0839743 -1.49311e-20)
(1.01507 0.00112338 0)
(1.01382 0.00242775 0)
(0.70992 0.0207381 0)
(1.05968 0.0377616 1.32302e-20)
(0.88087 -0.0937002 2.12427e-21)
(1.03019 0.00369301 0)
(1.01601 -0.000104289 0)
(1.01368 0.00207148 1.87152e-23)
(1.03459 0.00520734 -4.33303e-21)
(1.04888 0.0197499 -5.50576e-22)
(1.01433 0.00365956 7.77632e-22)
(0.561343 0.00467481 -2.09224e-20)
(1.0339 0.0253961 0)
(0.895692 0.142315 -3.61889e-21)
(0.901021 -0.0690898 2.71565e-21)
(1.02473 -0.00261072 -5.98484e-22)
(0.776846 0.0251602 0)
(1.03701 0.00696214 0)
(1.00988 0.000216572 -1.75397e-22)
(1.01477 0.00205912 3.77065e-22)
(0.634659 0.011968 -1.85279e-20)
(0.651132 0.161826 0)
(1.03597 0.0202076 -5.28282e-21)
(0.572749 0.00227382 0)
(0.8531 0.129662 -3.19635e-22)
(1.01099 0.00128554 -8.0207e-22)
(1.01362 0.00227281 0)
(1.02438 0.014312 3.41799e-21)
(0.961175 0.0323467 0)
(0.950706 -0.0946713 0)
(1.04953 0.0298969 -3.5059e-21)
(1.03404 0.0051943 3.63543e-21)
(1.04308 0.0105078 0)
(1.08144 0.0249267 3.56465e-20)
(1.01672 0.0065045 1.92777e-22)
(1.06464 0.0457651 1.10811e-20)
(1.06349 0.0160479 0)
(1.02188 0.0100175 -1.93368e-21)
(1.03066 0.0104269 -7.99567e-21)
(1.00971 0.000219796 1.77825e-22)
(1.04821 0.0195996 0)
(1.01578 0.00728634 -5.76017e-22)
(1.091 0.0271285 -4.03699e-20)
(1.02765 0.0167478 1.52896e-21)
(1.0154 9.12827e-05 3.47003e-22)
(0.56407 0.00425855 -2.83703e-20)
(1.01765 -0.00130099 0)
(0.875862 0.139891 -9.37302e-22)
(1.02545 0.0144304 -2.2127e-21)
(1.02044 0.0209789 1.00219e-22)
(1.03897 0.0187558 -3.37347e-21)
(1.08876 0.0302605 1.79926e-20)
(1.00884 5.32906e-05 -1.14753e-22)
(1.0739 0.0216429 -1.23545e-20)
(0.884928 0.0604261 1.49811e-20)
(0.918751 -0.0105884 1.19146e-21)
(1.02209 0.00404828 1.87546e-21)
(1.02806 0.0168554 3.67608e-21)
(1.01273 0.000225702 4.55903e-22)
(1.01979 0.00323277 3.47034e-21)
(1.02816 0.00148097 9.39082e-22)
(1.02109 0.00213079 0)
(1.01372 0.0028562 0)
(1.07241 0.05386 6.28039e-21)
(1.06543 0.0459281 0)
(1.01115 0.00127641 1.6599e-22)
(1.09168 0.0276975 -1.24757e-20)
(1.05237 0.00820127 2.01684e-20)
(1.05104 0.0117966 1.37031e-20)
(1.06521 0.0469101 0)
(1.01866 0.00769601 -5.71046e-22)
(1.07393 0.0231214 1.36024e-20)
(0.916052 0.0622493 9.4199e-21)
(1.00889 0.000130981 -1.82045e-22)
(1.06017 0.0371485 0)
(1.04914 0.0534962 6.61828e-21)
(1.06263 0.0162961 0)
(1.01328 0.00257559 1.37413e-22)
(1.01189 0.00174767 -5.48496e-22)
(1.01418 0.00300547 0)
(0.595909 0.00661994 1.15728e-22)
(1.02985 0.00976892 -4.11917e-21)
(1.01545 0.00117326 -5.89447e-24)
(1.0675 0.0171671 0)
(1.01453 0.00383254 -1.0309e-21)
(1.01262 0.00202773 -5.1895e-23)
(1.06191 0.0483526 -1.202e-21)
(0.942966 0.0538952 -8.2087e-21)
(1.02928 -2.74706e-05 3.12697e-22)
(0.648543 0.0650065 -8.35618e-21)
(1.01682 0.017152 0)
(0.947758 0.0288827 0)
(1.02843 0.00115986 -9.96479e-21)
(1.01901 0.0076906 1.38198e-22)
(1.04187 0.0566129 1.03916e-20)
(1.01647 0.00183208 -5.54642e-22)
(1.0197 -0.0122899 4.42844e-22)
(1.00856 9.4015e-05 9.52503e-23)
(1.0091 6.75825e-05 1.26934e-22)
(1.0293 0.00443913 4.15794e-21)
(1.02709 0.0170023 -1.58954e-21)
(1.01734 0.00703571 7.28976e-22)
(1.01319 0.00251523 2.02531e-23)
(1.00604 -0.0138943 2.20274e-22)
(1.01593 0.00430591 -3.0152e-23)
(0.876823 -0.113171 0)
(1.02584 0.0145221 0)
(1.05214 0.013539 1.40977e-20)
(1.01399 -0.000236328 -2.7268e-22)
(1.06742 0.0367528 -2.81805e-20)
(1.01743 0.011971 2.31117e-22)
(0.768914 0.059527 -1.07054e-20)
(1.02974 -0.00292502 4.15621e-22)
(1.00792 0.000108372 5.57642e-23)
(0.713815 0.0759896 -2.57152e-20)
(1.03038 0.011018 3.07909e-21)
(0.604336 0.00721487 -1.98147e-20)
(1.04653 0.0044467 0)
(1.03887 -0.0176482 -6.72563e-22)
(1.01712 0.006538 2.57384e-23)
(1.01271 0.00155743 -2.59036e-23)
(1.02182 0.00378579 -7.30256e-23)
(0.796175 0.030519 0)
(1.04706 0.0201578 -6.30732e-21)
(1.01256 0.0710238 7.45698e-23)
(0.6382 0.0234662 -1.65394e-20)
(1.01955 0.00312322 0)
(1.06258 0.0170086 0)
(1.01024 -0.000314826 0)
(1.01977 -0.0018376 -3.77603e-22)
(0.849629 -0.0199038 -7.29097e-22)
(1.01058 -0.000341226 -1.39845e-23)
(0.494413 0.0798172 1.39197e-21)
(1.04437 0.00955136 0)
(1.03578 -0.0239457 0)
(1.07106 0.0404886 -2.47655e-22)
(0.964865 0.0238805 2.68877e-21)
(1.01053 0.000243396 0)
(1.00938 0.000137762 -1.10706e-22)
(1.04428 0.0645598 4.54331e-21)
(1.01132 0.0013583 -7.59066e-23)
(1.02041 0.00771431 2.4114e-21)
(1.02687 0.0131417 -3.10437e-21)
(1.01567 0.00474897 1.80524e-22)
(1.06735 0.0177683 -2.06605e-21)
(1.01038 0.000226812 -6.57717e-23)
(1.01674 -0.0251906 1.82408e-21)
(1.02157 0.00995978 1.88117e-21)
(0.635419 0.0107339 5.97826e-20)
(0.597474 0.00610877 2.54118e-21)
(1.02875 0.0686479 0)
(0.939231 0.0295506 -5.14605e-21)
(0.590325 0.110465 -7.57221e-21)
(0.623583 0.00947673 -6.06539e-20)
(0.980076 0.0596044 0)
(1.01048 0.00105256 4.61471e-22)
(1.01571 0.000811103 -2.5171e-22)
(1.02487 0.00446698 4.7668e-21)
(1.02819 0.011485 -4.05699e-21)
(1.01494 0.00265614 0)
(1.04785 0.0202873 1.41748e-21)
(1.01644 0.00416224 -8.24521e-22)
(1.04671 0.0752056 -1.4813e-21)
(1.02074 0.0079707 -3.72847e-21)
(1.03584 0.044094 -1.76761e-20)
(1.02962 0.00922628 0)
(1.06114 0.0123627 2.00422e-20)
(1.03489 0.0619303 0)
(1.01334 0.00174109 1.06922e-22)
(1.02516 0.030068 2.20953e-21)
(1.03009 0.011163 7.91386e-22)
(1.01724 0.00165565 6.06711e-24)
(1.04235 0.0181191 -8.31882e-21)
(1.01505 -0.000230149 0)
(0.778439 0.0247441 0)
(1.0605 0.0419674 0)
(1.01765 -0.0146193 0)
(1.01344 0.00211396 0)
(1.02162 -0.000739481 0)
(1.0168 0.00579411 -1.70228e-22)
(1.01606 0.00449721 0)
(0.590938 0.0307609 0)
(1.01067 0.00115115 2.42689e-22)
(0.964582 0.0448953 0)
(1.01416 0.00335333 3.63171e-22)
(0.953173 0.00810568 0)
(1.01744 0.00942196 7.65731e-23)
(1.01557 0.0042507 1.6808e-21)
(1.07442 0.0220298 6.78947e-22)
(1.01613 -0.00570298 0)
(1.01082 0.00123387 -1.2113e-22)
(0.895232 -0.0305005 -8.51598e-21)
(0.885175 0.0431711 0)
(1.02251 0.0136828 0)
(1.06852 0.0358064 1.11411e-20)
(1.01132 0.00122237 -3.30555e-23)
(0.972113 0.0409471 0)
(1.01603 -7.35692e-05 1.3031e-22)
(1.01611 0.00470205 0)
(0.673099 0.0235738 2.73987e-20)
(1.00914 7.04096e-05 8.89574e-23)
(1.03365 0.00845195 0)
(1.07183 0.0361942 1.32852e-20)
(0.662041 0.0181013 -5.20541e-20)
(1.01646 7.23743e-05 -1.33885e-22)
(0.945704 0.0618207 0)
(1.01887 0.0585329 0)
(1.01654 0.000622089 0)
(1.01808 0.00692916 -4.26878e-23)
(1.01588 0.00493843 1.80716e-22)
(1.01335 0.0445387 0)
(1.02106 -0.000274272 7.81556e-22)
(1.07758 0.0363317 -1.88332e-20)
(1.0259 0.00618583 7.02472e-23)
(0.696306 0.0200819 0)
(1.01724 0.0106289 2.18631e-23)
(0.894159 0.0798844 -2.31629e-20)
(1.01443 0.0027827 0)
(1.01265 -0.000246034 -1.06254e-22)
(1.02075 0.0402954 3.36709e-22)
(1.01415 0.000298024 9.1652e-22)
(1.01737 -0.00116686 -5.87496e-24)
(0.837963 0.0287788 -2.34616e-20)
(1.0246 0.0125942 1.04516e-21)
(1.01211 0.00184603 -1.08612e-21)
(0.997919 0.126449 7.81318e-22)
(1.0165 0.000712261 0)
(1.01579 0.000604821 2.49002e-22)
(1.06038 0.040347 -6.94146e-21)
(1.0261 0.0132457 -1.39541e-21)
(0.871206 0.0541744 0)
(1.02794 0.0308643 2.61488e-22)
(1.07674 0.0235941 1.42596e-20)
(1.06415 0.0534932 0)
(1.04233 0.0106177 3.49066e-21)
(0.705702 0.020002 8.45082e-23)
(1.02187 0.0106051 2.52002e-21)
(1.06024 0.0387032 0)
(1.02039 0.00187853 3.32271e-21)
(0.589834 0.00811567 -2.06566e-20)
(0.975081 -0.00138075 1.87184e-21)
(1.03144 0.00325299 5.49852e-21)
(1.01603 -9.6878e-05 1.30374e-22)
(1.01644 0.00141285 7.13593e-22)
(1.02196 0.00887966 0)
(1.01554 -0.000166678 7.6774e-25)
(1.01362 0.000231291 1.59848e-22)
(1.01435 0.000540075 -5.47367e-22)
(1.0217 0.00336848 7.34762e-21)
(1.04 0.0239146 0)
(1.00878 0.000118486 2.03326e-22)
(1.02458 0.0122329 1.03194e-21)
(1.07067 0.0316105 1.43718e-21)
(0.578112 0.0810538 0)
(0.752141 0.0643492 1.19679e-20)
(1.07112 0.0354624 1.1359e-20)
(1.01692 0.00590826 -2.54723e-23)
(1.02239 0.0325702 0)
(1.01588 0.00364674 0)
(1.05176 0.0554791 -3.21869e-20)
(0.848271 0.0386453 0)
(0.334342 0.00140156 0)
(1.01187 -2.44705e-05 -4.87865e-22)
(1.01062 0.00113134 -4.16681e-22)
(1.01724 0.000604197 -1.45014e-21)
(1.01872 0.00697933 -8.55104e-22)
(1.01169 -2.7066e-05 4.6142e-22)
(1.01519 -0.000278876 1.38506e-22)
(1.01748 0.00366353 3.78719e-21)
(1.04111 0.0322726 -5.11024e-21)
(1.0122 0.00187613 0)
(0.586787 0.0785558 -3.9085e-20)
(0.990852 0.104399 -3.58297e-22)
(1.01254 0.00231436 -4.29186e-22)
(0.812437 0.0328043 1.45757e-20)
(1.02071 0.00190135 -3.92489e-21)
(1.01426 0.00284118 5.94961e-23)
(1.02047 -0.00447974 -2.18224e-22)
(0.715395 0.041005 -2.09575e-20)
(1.02156 0.0430514 -4.49761e-21)
(1.00871 -2.68739e-05 -1.0322e-22)
(0.883701 -0.119218 -2.15128e-21)
(1.01421 0.00156802 0)
(1.01425 0.00261836 0)
(1.08629 0.0284768 1.82641e-20)
(1.01586 0.000968578 1.29361e-22)
(0.787027 0.0448555 -5.20842e-22)
(1.0343 0.00862789 8.78558e-21)