/*--------------------------------*- C++ -*----------------------------------*\
| =========                 |                                                 |
| \\      /  F ield         | OpenFOAM: The Open Source CFD Toolbox           |
|  \\    /   O peration     | Version:  v2012                                 |
|   \\  /    A nd           | Website:  www.openfoam.com                      |
|    \\/     M anipulation  |                                                 |
\*---------------------------------------------------------------------------*/
FoamFile
{
    version     2.0;
    format      ascii;
    class       volScalarField;
    location    "100";
    object      omega_0;
}
// * * * * * * * * * * * * * * * * * * * * * * * * * * * * * * * * * * * * * //

dimensions      [0 0 -1 0 0 0 0];


internalField   nonuniform List<scalar> 
14315
(
0.315325
0.134327
0.0220417
0.0228366
0.023365
0.0213774
0.0199874
0.022356
2.53005
0.0235277
0.0232397
0.029979
0.0932143
0.0215494
0.0214226
0.021558
0.0211738
4.31535
0.0207743
0.0215873
0.0282743
0.0216218
0.0220626
0.0236497
0.406806
0.0215853
0.0883321
0.023951
0.0963203
0.020191
0.0278652
0.0202808
2.22471
0.174486
0.0223339
0.0202708
0.020566
0.0222657
0.0223592
0.0220483
2.23962
0.0215196
0.0258416
0.0457456
0.043953
0.023418
0.0218805
0.0237113
0.0216983
0.0256201
0.0205499
0.0441082
0.0204267
0.0210654
0.0204603
0.022252
0.0826056
0.0224533
0.0215742
0.909113
0.0210033
0.0234312
0.0261379
0.0207257
0.0210587
0.0209386
0.0221775
0.0275697
0.0224053
0.0202599
0.0210116
0.0208537
0.0207007
0.0218516
0.0210532
0.0232063
0.0208404
0.0271445
0.0202513
0.0511437
0.0234479
1.26605
0.0216927
0.0210175
0.0204465
4.52028
0.044093
0.0209665
0.0209665
0.0210438
0.0324247
4.79559
0.0732598
0.0219405
0.0236347
0.0230474
0.0204578
0.0209727
0.0232579
0.0215099
0.0214368
0.0804326
0.022332
0.0244753
0.0210215
0.021142
0.0220158
0.0250885
0.0227951
0.0372597
0.0280335
0.0369195
0.023963
0.0694497
0.0216945
0.0422685
0.0268183
0.0224148
2.46776
1.21558
0.024249
0.021184
0.0207472
0.0319704
0.0786154
0.0211266
1.73179
0.38001
0.0215479
0.0214481
0.0336678
0.683713
1.4344
0.554097
0.023191
0.0215405
6.35522
0.0656917
0.0887033
1.32132
0.0479559
0.0820418
0.0201993
0.518926
2.11186
0.0218088
0.0237922
0.0221027
0.0312817
0.0364978
0.0214323
0.0196811
0.0212595
0.0233018
0.00478997
0.0227249
0.0226367
0.0226017
0.0896841
0.0488756
0.0235135
0.0216423
1.3455
0.0313261
0.0223576
4.56892
0.0224101
0.0230472
0.0228269
0.0213792
2.49512
4.99292
0.03026
0.0248705
0.120576
1.41277
0.0293622
0.0211202
0.0378144
0.0547115
2.19748
0.031971
0.0214223
0.0276107
0.0279298
1.26865
0.0284457
0.0282678
0.0218596
0.0314837
0.0225358
1.50653
0.0888807
0.0197127
0.0208716
0.0230799
0.636052
0.0214697
0.0235949
0.0328425
1.91903
0.0214702
0.147068
0.0217551
0.0228379
0.0211784
0.0224528
0.0470458
0.0221371
0.0197134
0.0217717
0.0219102
0.0528953
0.0229918
2.35177
0.0241173
0.0775964
0.0214532
0.0214171
0.0233719
0.10721
0.0221951
0.11376
1.4617
0.0269784
0.0230347
0.0268456
0.0304483
0.0207303
0.0231992
0.023087
2.23922
0.0217768
0.285167
0.0228376
0.024599
0.0438317
0.0248736
0.0244935
4.72302
5.04334
0.0278947
0.0209515
1.43177
0.102674
0.0190898
4.48259
0.0126768
0.0207072
0.0210555
0.0226028
0.0210254
17.3688
0.0205738
0.02246
2.4482
2.96053
0.0480873
2.55794
0.021718
0.0284989
0.0230421
0.0240495
10.6141
0.0242466
0.0600695
0.0306195
1.92315
0.027554
0.0272615
0.0575545
0.0215941
0.0226885
0.0206916
0.0233774
0.017041
0.0716478
0.0196602
0.022903
0.0271817
0.0210334
0.0316554
0.0217272
0.026744
0.0232294
2.89316
0.153554
0.0244154
0.0209195
0.0211244
0.0576122
0.0214763
0.0227957
0.072809
0.0201821
0.0216593
0.0231512
4.06865
0.0214699
0.658266
0.0335369
0.0215294
0.0215592
0.0262785
0.0228786
0.0214765
0.0247757
0.0332492
0.0241651
0.0263143
0.0200961
0.0201055
0.0289473
0.0353173
0.0281224
2.58455
1.22767
0.0283503
0.0230198
3.42004
0.0217836
0.0214994
0.290564
0.0214569
0.0211306
0.0247374
0.0807629
0.0210488
0.617311
0.0253798
3.23318
0.112157
7.00716
0.160064
1.88994
0.0217733
0.503272
0.0233163
0.080819
0.0229067
0.026976
1.57189
4.6922
0.0229657
0.0214991
3.72439
1.36817
2.48398
0.0205431
0.0229039
1.03619
0.158872
0.0219241
0.0216556
0.0265298
0.0473626
0.0276634
0.0925359
2.23316
0.0147646
0.0269412
1.31625
0.0202434
0.0210803
0.0202326
0.0243664
0.034663
0.0242015
0.0251751
0.0210477
0.084325
4.24467
0.0265611
2.88748
0.0231349
0.0215178
0.0418613
2.76261
0.0275329
0.0221572
0.0307057
0.0217329
0.0724885
0.0264778
0.0217885
0.0373548
0.49862
0.0243787
1.65503
0.0464158
0.157761
0.0289728
0.0207542
0.0227577
0.0234588
0.0232858
0.0222813
0.0247113
0.0234339
0.0292657
0.0207278
0.0211302
0.0599766
0.0231957
1.85034
0.119491
2.96397
0.036345
0.0351003
0.0271923
0.0202034
0.0215472
0.0207553
4.36404
0.0301119
0.0286717
0.0301701
0.0397644
0.0243317
0.662203
0.488042
2.02713
0.0536765
0.0215306
0.0202693
0.0286061
0.0340281
0.0219579
0.505284
0.148389
0.138183
0.0232048
0.0211267
0.0579554
0.0275739
0.0202141
2.34584
0.0585865
0.0327529
0.0213883
0.0661165
0.0201731
0.0214689
0.112703
0.103869
0.0555075
0.0201812
0.0201642
0.0214583
0.0212166
0.0250937
0.0211191
1.22224
0.662702
0.0201726
3.88559
0.01969
0.126332
0.025064
0.0306833
0.677794
0.022794
0.0477045
2.57314
0.0684898
0.0196902
6.47679
1.14415
0.0294397
0.0220567
0.053609
0.0290139
0.0217705
0.0229453
0.0209176
0.0249939
0.0478311
0.669598
0.0219386
0.0221681
0.27903
0.0231266
1.21138
0.0271306
0.0229672
0.653648
0.0578383
0.0218015
0.130774
0.0246381
1.2719
0.0244077
0.0211879
0.0283476
0.0510774
0.0360704
0.0710629
0.0222425
0.0245823
0.0246221
4.10288
0.0211376
3.099
0.0216416
0.0661798
0.0208997
0.0202175
0.0223867
0.0246675
0.0207158
0.056134
0.022337
0.0231754
1.01439
0.0215485
0.0342635
0.0289176
0.0644713
0.0209931
0.501833
0.021455
0.240654
0.509471
6.85405
3.21113
0.0318945
0.0263241
0.0424561
3.25488
0.0264757
0.0262934
0.287851
0.0215154
0.0205499
0.0217081
0.0217988
0.0248484
0.0200982
15.8769
0.0201065
0.0230245
3.27122
1.34771
0.0210402
0.0216417
0.0209479
0.021674
0.0213853
2.82538
0.0217194
0.0216197
0.0212288
0.0237448
0.021039
0.0490425
0.0227753
0.0214864
0.0267097
0.0218761
0.0215759
0.0224547
0.0416764
0.0321344
0.249486
0.135305
0.021265
0.0226343
0.259939
1.32676
0.0290535
0.021037
0.0249832
0.030054
0.0107387
0.0898374
0.109013
0.354886
0.0215413
0.0680979
3.33001
0.0236949
0.106869
0.0485633
0.276779
0.0217426
5.39662
0.0201049
0.296304
0.0210192
0.664228
0.0228456
0.0214499
0.042859
1.24576
2.95494
2.23196
0.0230291
0.00743836
2.52502
0.0277589
2.34462
0.0214636
0.0242594
0.0234508
0.020189
0.0226613
0.0214617
0.0288975
0.0215158
0.0210512
0.0453024
0.0210131
0.0247798
0.0209109
0.0207923
0.0217712
0.023002
3.03187
0.0309755
0.0216397
2.5431
0.0216293
0.102993
20.9442
0.0249033
0.0222798
0.0216602
0.129941
0.0270528
0.0230799
1.33693
0.0756617
0.0225074
4.35791
0.0210305
0.0301331
0.0231702
0.0875026
0.0244914
0.0200953
0.042758
0.0213873
0.0261693
0.0263299
0.0469503
0.0645358
0.0739535
0.0217767
0.0272413
0.0534109
0.0487767
0.0243423
3.6987
0.0209962
0.0429241
0.0198367
1.38832
0.0240203
0.0438638
0.0212086
1.97737
0.0210306
0.0269065
5.63884
0.0249806
0.0207118
4.74941
0.0639395
0.0210149
0.0215377
0.0510586
0.229523
1.11837
0.0212667
0.234601
0.0219781
0.0346363
0.0228436
1.46108
0.0201065
0.0218005
0.021714
0.0239696
0.0280757
0.182694
1.11941
0.0225734
0.0217772
0.0219806
0.0217708
0.0198689
3.58743
0.0225021
0.027116
0.0221534
0.0207033
0.0220534
1.81626
0.0545952
0.0526212
0.0207028
0.0225063
0.0209058
0.0227258
0.0221181
0.0611484
0.0198784
0.0215059
2.04791
0.1389
0.289412
0.0214576
0.0207574
3.57978
0.0750901
0.0214597
1.06325
0.022629
0.261377
0.0452474
0.0218893
0.0215529
3.813
0.168522
0.0268858
0.0279159
0.0240115
0.0245979
0.0425726
14.5519
0.0212068
0.0456862
0.131625
0.0530673
0.0536477
11.8994
3.19164
0.0211552
0.0246755
0.038991
0.0276508
0.0214062
0.0198656
0.0343587
6.31456
0.0217091
0.0229001
0.0328233
1.28423
0.0153773
0.0346598
0.422798
0.0317294
0.0231488
0.0286906
4.70998
0.12596
0.107793
0.0234422
0.0204732
3.78996
0.260151
2.18026
0.0262855
0.0338636
2.94377
0.0201576
0.0211947
0.0525624
0.0852437
0.0226026
0.0201452
0.088214
0.0200784
0.0210314
0.0208578
3.00818
0.0201718
0.0223718
3.49814
0.0215982
0.108251
0.0205545
0.023991
0.0214379
0.0201782
0.687993
2.68608
0.0217853
0.0213943
0.0214483
0.132685
0.0211923
0.0210342
0.026754
0.0697489
2.73417
0.0200894
0.409132
0.0211448
0.0211864
0.038063
0.14402
0.0230748
0.0466393
0.0206926
0.0173324
0.0207014
0.172143
0.021389
0.032682
0.022355
0.0556067
2.25855
0.0215973
0.0247624
0.229504
0.0261987
0.0198421
0.0302236
0.0441852
13.8183
0.0226088
0.0266204
0.0231985
1.06252
0.0281408
0.0227427
0.0386317
0.0255257
0.0247036
0.0249954
0.0227632
0.282416
0.119573
0.107002
0.0231144
0.0215554
2.57588
0.0394142
0.0226744
2.65646
0.0605701
0.0232805
0.0201039
0.0308246
0.0227814
0.0572428
0.0214677
0.0206956
0.0246583
0.021154
0.050718
0.0287664
0.0229158
0.0406824
0.223957
0.0216759
2.97864
0.0221098
0.0261836
0.0206927
0.0218808
0.0399824
0.022409
0.0260261
0.0239631
0.0455855
1.76676
0.432301
0.0244437
0.0225907
0.0303175
26.6285
0.0216419
0.0231999
0.0221482
0.021451
0.0725849
0.672128
0.0336112
0.0707515
0.0274453
1.93068
1.41522
0.135421
0.0461275
0.0211352
8.07539
0.283636
0.0211455
0.0210805
0.0233105
0.0533515
1.15651
0.021872
0.0234338
0.0212554
0.0278044
0.0332509
0.212481
0.0791452
0.0229198
3.12822
0.0721489
4.12901
0.0296299
0.0658296
0.02267
0.0210435
0.0352091
0.0231409
0.263424
0.0131847
0.02201
0.0297767
0.0206992
0.0202079
0.553799
0.0226795
0.0208444
0.0204239
0.02296
0.0209573
0.0351405
0.021392
0.101271
0.0207816
0.0210098
0.0208143
0.0356079
0.0318683
0.0211868
0.0495603
0.158233
0.0236503
2.04352
0.0214148
0.191504
0.0229746
0.0212904
0.0227131
0.0237407
0.0984004
0.108864
1.09434
3.10342
4.02607
0.0248376
0.0360566
0.0219853
1.55542
0.562623
0.0207664
0.0217539
8.91768
0.0244573
0.0198962
4.09888
0.034259
0.196142
0.0211457
0.198123
0.289338
0.038627
0.0213281
0.27915
0.0214139
0.0211968
0.0251236
0.0941913
0.0257702
0.0200968
0.0208068
3.65024
0.0242858
0.0197223
0.0248034
0.0237036
0.0239432
0.0201024
0.0233955
0.578502
0.0977775
0.0779568
0.0211247
0.0229002
0.0936801
0.810091
0.120162
0.0213339
0.02759
0.0224159
0.0287723
0.672741
0.0215818
0.021197
0.0237026
0.0197199
0.127509
0.0227693
0.0267427
0.0239543
0.07055
0.0228091
0.0362782
0.0826258
0.0208088
0.013932
0.0373175
0.0666921
0.0395326
0.0208891
0.0571316
0.024233
0.0234223
0.0230282
0.0218089
0.0292232
0.0909022
0.0387774
6.31366
0.0266213
0.0207027
2.9376
0.0211942
0.0218855
0.0149449
0.0435346
0.0214311
0.0239822
0.0228793
0.020714
0.0623475
0.272109
0.0214584
0.248008
0.026479
0.0201795
0.0209053
0.0481842
0.0355692
0.0251588
0.0204429
0.0218413
0.0257289
11.8909
0.0365722
0.120932
0.0301505
0.0260755
0.243209
0.0225409
0.0213811
0.0280684
0.0211397
0.277573
0.0219694
0.0223707
0.0243447
0.27033
0.0294259
0.0236351
3.97295
0.0765832
3.26385
0.0218726
0.0589657
0.023332
0.0227491
0.054804
2.88838
3.45882
0.0234832
0.0225058
0.0607553
0.0285176
0.0410227
0.0208999
0.0214029
0.0214664
0.022421
0.0229554
0.021647
0.656146
1.39643
0.0435874
0.374505
0.0217231
0.0355636
0.0210576
0.0169778
0.0279311
0.0960809
1.51266
0.0226274
3.18143
0.0327585
0.0213676
2.10009
0.068764
0.0321182
0.0228728
0.0452512
0.020548
0.021582
0.0444566
0.0213452
0.020539
3.61021
0.0488918
0.0200903
0.0211658
0.298273
0.300848
0.0238319
0.0214277
0.0596451
0.0634193
0.0199078
0.0223683
0.0210315
2.84379
0.0240694
0.0199855
2.82072
5.38211
0.0248908
0.0218455
0.0314264
0.0284622
0.0335933
2.53357
0.0214746
0.021327
0.0210262
0.0942407
0.0221243
5.15909
0.195816
0.020525
0.0218294
0.0781214
0.023472
0.020496
3.02802
0.024779
0.0239747
0.26017
7.39032
0.0206037
0.229085
0.0208614
0.0209661
0.0210278
6.52226
0.0613946
0.0214465
0.0174231
2.70705
0.0434989
0.0213513
0.0344179
0.285273
0.0250496
0.185708
0.0235645
0.0212249
0.0204897
3.36141
0.0226617
0.0205217
0.0210531
0.0125927
0.0204206
0.0210562
0.0317534
0.0216994
0.0220412
0.0247054
0.0226769
0.244595
0.0215538
0.0252206
0.0279665
0.029623
0.0241869
0.0217351
0.0216048
0.0240851
2.44303
0.0208016
0.0345122
2.46593
0.0265016
0.162318
0.0200691
2.92282
0.0217689
0.0238442
0.0315943
0.158039
0.0169038
0.0352943
0.0227898
0.0295649
0.0247525
0.0388709
0.883294
0.644777
0.040307
0.0370864
0.0205135
0.0211169
0.0162367
0.0229516
0.158432
0.0227848
2.21972
0.224824
3.37407
0.0211455
0.0206998
0.0260064
0.0268801
0.0214118
0.0209596
0.0221944
0.0208297
0.0209336
0.130106
0.0995167
0.0240258
0.0210331
0.0216901
2.1109
0.0792648
0.0309344
0.014073
2.25452
0.0223242
0.0213579
0.022347
0.0210615
0.0215141
0.0895024
0.0208965
0.0217178
0.206195
0.021036
0.0979455
0.020581
3.2367
2.89144
0.0215988
0.0210024
0.0211662
0.0239735
0.0250146
0.027244
0.0199607
0.020417
0.0252666
1.38561
0.0219055
6.6708
0.0216556
0.0214466
5.05825
0.284861
0.0238268
0.0196538
2.36202
0.0342201
0.0267403
2.88015
0.296029
0.020885
1.43169
0.0371875
0.0208147
0.0214973
2.80059
0.0213777
0.0208836
0.0401187
1.56429
0.053961
0.0262813
0.0223021
0.0200011
0.18702
0.0207734
0.02433
0.0386033
0.033823
0.0218151
0.0378335
0.0282542
0.29615
0.119371
0.0218042
0.265795
0.0264755
3.25456
0.112003
2.62231
0.0213856
0.0239327
0.0288704
0.0227534
0.0209287
0.0213749
3.28306
0.0544976
0.0501992
0.0213643
0.0216876
0.0638286
3.40464
0.0255823
0.0236624
0.0217788
0.0223071
3.10294
0.0504458
0.0235661
2.85983
3.28633
0.0216191
0.0213232
0.0262021
0.020573
0.0200222
0.107419
0.0304478
2.6353
0.0204338
0.0210375
0.0230574
0.0211348
0.0204266
0.0212026
0.0339811
0.130275
0.0286032
0.0434882
0.0208927
1.76143
0.610063
0.0488877
0.165586
0.0687263
0.0211218
0.0229048
0.150498
0.0198775
0.0307397
0.0237271
0.0214222
0.0284361
0.0204158
0.0210609
0.0208184
0.0231895
0.0214385
0.108319
0.0287577
0.0203908
3.29514
0.0214351
0.0241753
0.305649
0.0255011
0.0204602
0.115256
0.299725
0.020867
1.39388
0.341399
0.0395457
0.0626438
0.0225874
0.0408549
0.0401322
0.0825975
0.056425
0.0236285
0.113519
0.0260455
0.0210519
0.0216326
0.0353679
0.027965
0.0218232
0.0204586
0.0204422
0.0244826
0.0240219
0.0377517
0.0226569
0.0204351
0.0324469
0.0235438
0.0221063
0.0517748
0.153778
0.19757
0.0288621
0.0228286
0.0223718
0.0244002
0.0227778
0.0225505
0.0210827
0.117949
0.0210071
0.0290919
0.0262075
2.30345
0.0561152
7.26468
0.0203833
0.0638747
0.0249895
0.0214566
0.128533
0.0208952
0.478028
0.0208235
0.0331829
0.0217505
0.0210292
0.0217463
0.036895
0.0228338
2.53572
0.0215616
0.0424071
0.0199637
0.0244259
3.05078
0.156975
0.668789
0.0225959
0.0579477
0.10523
0.0213452
0.0285287
0.0231956
0.0218897
0.0228016
3.66133
0.105019
2.16404
0.0263859
0.0237085
0.0331542
0.0482031
0.0217672
0.0204265
0.0325916
0.144856
0.021148
0.0245183
0.0220255
0.0214007
0.031559
0.0240422
2.32926
0.100108
2.68738
0.0216175
0.0214013
0.0366482
0.0214554
0.0215631
0.0867929
0.0217238
0.0838934
0.0215843
0.119753
0.0211644
0.0214309
0.0207596
0.0217479
0.0265682
0.0207055
0.0658438
0.020817
0.0317599
0.0203761
0.0262235
1.22269
0.0676848
0.0420309
0.0431131
0.783767
0.470326
0.0441109
3.58193
0.0746515
0.0598338
0.0223295
0.0216455
0.0216372
0.021574
0.0530488
0.0221475
0.354352
0.0227722
0.0189839
0.0255099
0.0230383
0.0212907
0.0203579
0.0208388
0.0443484
0.0439958
0.0256478
0.0275193
0.021801
0.00945355
0.0630242
0.080404
0.0214546
0.0210005
0.0196331
0.0304808
0.142017
0.0214206
0.0759362
0.0225113
0.0286807
1.08963
0.025877
0.110562
0.0658902
0.0278177
0.0665148
0.0210454
0.2623
0.0997403
2.9398
0.0216192
0.0209894
0.021425
2.86157
0.0196751
1.18351
0.036496
0.0252512
0.0295219
0.0288374
3.0919
0.0215214
0.0217389
0.022895
0.0340629
0.0216132
0.0213479
0.65388
0.056897
0.438797
0.0304384
0.0214589
0.0259585
0.284661
1.81838
0.0215074
0.021844
0.158186
2.48454
0.0227394
0.0213342
0.0213295
0.0214197
0.0212459
0.0230439
0.0229966
0.128029
0.0217288
0.0216114
0.0579576
2.48442
0.0214059
0.02145
15.471
5.93953
0.0219531
0.0207193
0.0202256
0.0241466
0.0220995
0.0212569
0.0442535
0.0213643
0.0850481
0.022036
0.0228307
0.0691973
3.77972
0.111475
0.0214578
0.02068
0.0200716
0.0866766
0.0205288
0.0322637
0.0208116
0.0320737
0.0321409
3.04659
2.93195
0.0292912
0.0227452
0.0170359
0.240713
0.0205809
0.287334
0.042015
0.0265461
0.0214882
0.0212751
0.0260178
0.0337549
0.0209015
0.0689724
0.101417
0.0508784
0.0229182
0.125444
0.0217293
0.025968
0.0351557
0.0249763
0.0204712
0.0215284
0.0272638
0.0202644
0.0629957
0.0209103
2.9026
0.0213997
0.0901991
0.0246337
0.0232183
0.783949
0.0231104
0.271054
0.0445305
0.0226692
0.12581
2.89237
0.0540912
0.0227397
5.03836
0.0211181
0.024435
2.05977
0.453481
3.52128
0.0212038
0.0310797
0.0219183
0.0209998
0.0213635
0.0221393
0.0273069
0.0285949
2.49084
0.0351725
0.108405
0.0670071
0.0460134
0.00987181
0.0245576
0.037371
0.0695262
0.0228716
0.0200042
0.023328
0.0203689
0.0290259
0.0196745
0.0205353
0.0209772
0.154883
0.040932
0.0249054
0.0218672
0.0199851
0.0220696
0.063025
0.0256083
0.0229073
2.7303
0.0470787
0.0231608
0.0223109
0.0368638
0.216926
0.0203451
0.0912215
0.0262699
0.187041
0.0209032
0.0254071
0.0214966
0.0249176
6.4654
0.0221012
0.0263595
0.0434233
0.0214875
0.0666106
0.0245989
2.97392
0.0511668
0.022943
0.0597797
17.2325
0.0374328
0.0228201
0.333944
0.0215281
0.0212147
0.0212959
0.0413127
0.0218499
0.0118197
0.0209266
0.016007
0.0207967
0.0475093
0.0291819
0.0263786
0.0233347
0.040345
0.0281852
2.2479
0.121516
0.0330789
6.08131
0.0255811
0.0268649
0.935663
0.0218457
0.0215096
0.0213606
0.0324398
0.0323431
2.49734
0.021463
0.0224665
0.0239466
0.0294402
0.0238139
0.21507
0.029634
0.260628
0.0370406
0.0215232
1.39208
0.0185999
0.0216168
0.0203178
0.02161
0.0216464
0.106532
0.0204769
0.0213618
0.0234874
0.0203075
0.0453309
0.0214225
2.57596
0.592999
0.884153
0.0792262
0.0250948
0.047847
3.29825
0.0227503
0.0325882
0.0217811
0.037262
2.56389
0.021883
0.0594447
0.0436905
0.0298946
0.0204331
0.0210104
0.0264388
0.0752824
0.0231802
0.0419272
0.0235122
0.0525004
0.0216066
2.27969
0.0198113
3.23916
0.0255488
0.021808
0.0221157
0.0309107
5.97086
3.75257
0.0232116
12.6839
0.0227219
0.0472865
7.72294
0.0239107
0.0241889
0.0201275
0.0256501
5.31397
11.5519
0.020959
3.95818
0.0533552
11.9848
0.0329381
0.0214122
12.2614
0.0218325
0.0228172
0.0215929
0.021194
0.0215405
0.0380145
0.0214615
0.0216888
0.0210621
0.0407583
0.0231325
0.108361
0.0222239
0.021879
0.0235078
0.0562677
0.0242725
4.51345
0.021964
0.0204731
0.150034
0.0222271
0.0220563
0.0215441
0.0276641
0.0213533
0.00450902
0.0212581
1.3529
0.0212419
0.0478294
0.162192
2.15717
0.0220671
0.0203891
0.0218801
2.87983
0.0216862
0.0243126
1.18386
0.0204106
0.0228874
0.0210569
11.0452
0.0219502
3.03036
0.0237976
0.0230052
0.0252781
0.0205751
4.60735
0.0370003
1.0359
0.282908
2.95845
1.01023
0.0234121
0.0215598
0.0283813
2.04713
0.0317611
9.86623
0.0293977
2.90935
0.0233129
0.0215067
1.24298
0.0401023
0.901837
0.0219216
0.0284373
2.94838
0.0216565
0.0224535
0.229364
0.0536291
0.0374277
0.0206673
0.0219587
0.0496239
3.26157
0.021974
0.0678509
1.66062
0.0361908
0.0214131
0.119534
11.4886
0.0214635
0.0263806
0.0239263
0.0685479
0.20634
0.0215587
0.0244974
0.0235354
0.0554123
0.0215872
0.0214048
0.0224571
0.0214742
5.48212
0.021268
2.94827
0.0209913
0.123696
0.0245688
3.27072
0.0233629
0.0214157
0.0329078
0.0840059
0.0503711
2.29428
0.0711306
0.142699
0.0258775
0.0474002
0.0205598
0.0219911
5.30728
2.87535
0.0209118
0.0242621
0.0260047
1.4919
0.0364213
0.0209081
0.021192
0.0327262
0.0209835
0.0217531
0.0203589
0.054111
0.0296006
0.0215882
0.0317536
0.0486532
0.0226106
0.0307595
0.0265802
0.021243
1.57102
13.2227
0.0216415
0.0194761
0.0219118
0.0200911
0.0226418
5.37878
0.021358
0.0517791
9.37337
0.0208241
0.0199298
0.0215737
0.0215282
2.5369
0.711468
0.0078573
0.0197206
0.023287
0.0222049
0.0382795
0.0214929
1.72473
0.0210419
0.0214614
3.56746
0.0154829
0.0215162
0.0197299
0.0251415
0.0197523
0.275521
0.0655731
0.021441
0.0214292
11.703
0.639765
1.36611
0.0221943
0.0213211
0.0296606
0.0603782
0.0953793
0.159508
0.0197775
0.0222681
0.0233251
0.0218685
0.476534
0.0237762
3.27162
0.0470297
0.87008
0.028043
0.0222768
3.66883
0.0250635
0.04444
0.0329077
0.0215421
0.0213302
0.0361216
1.24834
0.0234281
0.02229
0.0612263
0.0215361
0.021391
0.0215082
0.0223707
1.31886
2.38567
0.0816093
0.0217279
0.0212428
3.17534
0.0218088
0.0328593
0.0212799
0.0966405
0.0242819
6.71365
0.0689242
0.327635
0.0232502
0.0276348
0.026728
0.022944
0.0215629
2.55262
1.66878
0.0321451
0.0735736
0.0209353
0.0205953
0.225423
0.0205351
7.7524
0.0588413
0.042458
16.1146
0.0245055
0.505359
0.0212803
0.0203931
0.477385
0.0220764
0.0212124
0.671453
0.314786
0.0214389
0.0220378
0.0243864
0.264772
0.0224491
0.197946
0.0320352
0.0213315
0.0794635
0.024315
0.027277
0.0256029
0.0215154
0.0269715
0.492172
0.0574664
0.022895
0.0272672
2.5189
0.0216183
0.0217467
0.0214162
0.378013
2.95085
1.77987
0.0227112
0.639338
3.06552
0.0232088
0.471848
0.0218486
0.0683326
0.0216515
0.472088
2.92402
1.87672
5.32856
5.99826
0.023294
0.0210731
0.0218144
0.0212823
3.17619
0.0199363
1.47906
1.06292
0.021604
0.0212218
0.0264023
0.0227459
3.09506
0.0212744
0.0214607
0.0244021
1.87745
0.0199916
0.122705
0.0266013
0.0256421
0.0255463
0.041698
0.054402
0.0206029
0.0216063
0.0211902
3.57359
0.0204071
0.0228147
0.0228388
0.0410336
2.7878
0.0212653
0.0200769
0.0232247
0.0342431
0.15037
0.0295564
0.0230973
0.0729596
0.0213798
0.0203415
0.0223787
0.0810613
3.73849
0.020776
6.39987
1.40775
0.112603
0.144042
2.19474
0.096335
2.45158
0.0242546
0.0211376
0.0427589
0.0221808
0.0239009
2.24474
3.29929
0.0209897
0.0364936
0.0238148
0.027877
0.0262814
0.0227366
0.022656
0.0518254
0.0444606
0.131888
3.44041
0.0410338
0.0221474
0.0213992
0.171504
0.0214904
1.23712
0.0737204
0.0216011
0.0222435
0.053957
0.1323
0.0210282
0.0219311
0.0212774
0.0679234
0.478826
0.0225253
13.9321
0.0629279
0.0216204
0.153031
3.02223
0.0260205
0.0213716
0.0214407
0.0260918
0.26416
0.0250158
1.93826
0.024881
0.0352916
0.0264485
0.11974
0.0529995
0.265491
0.020903
0.0531575
1.60909
0.022377
4.34074
2.78759
0.0452298
0.0588994
0.243848
0.0316025
0.0267067
0.0727212
0.276615
0.0285658
0.0231419
0.0248881
0.0198354
0.150494
0.0229798
0.0208153
2.94108
0.0261827
1.21348
0.0558252
0.0224977
0.51264
2.66096
3.37755
0.0214309
0.0223491
0.0236781
2.733
1.06907
0.22451
0.0217193
0.0425439
0.0453812
0.736629
0.0218134
3.09948
0.0232441
1.0375
0.0401784
2.32527
0.0245774
0.0215581
0.0235907
0.0214374
0.0209719
0.0220481
0.0214111
0.0209482
0.0711268
0.115448
0.0222218
0.0331194
0.022296
0.0834144
0.46766
0.0257655
0.0233427
2.89063
0.063621
0.0420097
0.0213746
0.0777919
0.0477304
3.01895
0.0212472
0.868333
2.77609
0.0487969
0.0213981
0.0205771
0.0218203
0.363618
0.0228903
0.0528355
0.0702632
0.0120803
2.46213
0.0209695
3.50331
0.0238745
0.11893
3.02494
0.0227559
0.0216171
0.340451
0.0214544
0.0204332
0.0238981
0.0225084
0.0518743
0.0223002
0.0563634
0.0214944
0.0931112
3.08361
0.0275204
0.0214307
0.0211879
0.0608252
0.397767
0.0231604
0.024039
0.0214691
0.0622784
0.0233729
3.31954
3.13489
0.0653131
0.026392
0.0485054
0.0333989
0.0240289
2.52066
0.0586712
0.0203494
6.71072
0.505812
0.0289706
0.021359
0.0527569
0.0238779
0.0347416
0.497668
0.105463
0.0223415
0.0213445
3.18515
2.90018
0.0938415
0.0454269
0.024712
2.98568
5.15629
0.0212378
3.44849
0.0249142
0.0237812
0.0233949
0.726308
3.32443
0.0214499
3.64503
0.0216742
0.215284
10.1123
0.0247794
0.025115
0.0288179
0.0213334
0.0211454
5.26415
1.34656
0.0217841
0.0499209
0.026396
0.0269784
0.0220173
0.0545526
0.0224236
3.59425
0.078173
0.0210885
0.024441
0.0212096
0.0232962
0.0192826
0.051792
0.0231451
2.62457
0.0695829
0.0295449
0.0293897
0.0199935
0.0626643
0.0809221
0.0204584
0.0224737
0.0464241
0.0243913
0.0235646
0.474737
0.0241552
0.0216445
0.0349676
0.0208797
0.0215622
0.0798986
0.0108726
0.0594217
0.0379807
0.621844
2.2989
0.0686335
0.0320744
2.81164
3.07247
2.10289
0.0915737
0.0267168
1.84435
0.084895
0.0223249
0.0214935
0.0211689
0.0215214
0.0241372
0.0219696
0.21662
0.0221118
0.0357354
0.0259393
1.8807
0.0375779
0.0342388
3.18205
0.0521104
0.0217586
0.0755752
6.42085
0.0355018
0.0638207
0.0255961
0.0754084
0.0226506
0.0273873
0.0205115
0.0285939
0.102619
0.0697072
0.0582142
0.0433213
0.0222302
0.0269691
0.0226259
0.0479978
0.0709723
0.0328016
0.104853
3.07342
0.0213262
0.0586506
0.0294785
0.0356395
0.297405
0.0214825
0.0431599
3.47899
0.0639841
0.0422136
0.0215955
0.0575848
0.0206672
0.0339027
0.0504668
2.15162
5.75512
0.51644
0.291875
5.03721
0.039205
0.0206939
0.0583177
0.0325322
0.0225698
0.340443
0.385033
0.0129814
0.0264639
2.91963
0.0212916
0.0222572
0.0232155
2.99476
0.0208567
0.12754
0.0767872
0.0228531
0.0216417
0.0728938
0.0211384
0.0577067
0.061359
1.90748
0.0225246
0.0295984
3.3317
0.0428143
0.0453209
0.0219378
0.0203519
0.110376
2.50159
0.0992008
0.0203574
0.120137
0.0527242
0.0208519
0.0220091
0.036532
0.0243659
4.19389
0.342586
0.0213557
0.0350699
0.0212101
0.0216222
0.0395927
0.0212026
0.023568
2.32789
1.67503
0.0638841
0.0236416
0.0325374
0.119533
0.0214145
3.05759
0.0322232
0.0699232
3.27566
0.0732312
0.0218969
0.0253247
0.0216165
0.0308985
0.0217507
0.105575
2.77806
0.148738
1.81662
0.0222398
2.57954
0.0235638
0.0798286
0.0212311
0.0221696
0.0234318
0.348284
0.0299809
0.0221884
0.0227234
0.020505
0.0226091
0.0610807
0.0675593
0.0324439
3.20287
0.0214924
0.0234464
0.031889
0.0214373
0.0254726
3.94644
0.45399
1.21232
2.78214
0.0203809
0.0301668
0.0208797
3.21195
0.0422643
0.0334946
3.33195
4.38406
0.0215788
3.2173
0.0204644
2.40626
2.66959
0.022747
1.45153
0.0204113
0.0211887
0.0223791
0.0475606
0.021674
0.0206578
0.0413346
0.019858
0.0405059
3.34338
0.0216071
0.0517907
0.0384722
0.0215292
0.0199686
0.0198467
0.0210107
0.020291
0.0207263
0.142621
0.04033
0.0215586
0.0210067
0.0396123
1.42023
0.0222924
2.42412
0.0212257
0.0466804
0.0216085
0.0332594
0.0325911
0.0197341
0.0251716
0.0411489
0.00725954
0.403668
3.25693
3.42997
0.0438474
2.29999
0.0217397
0.0216149
3.46229
0.0249494
0.0360637
0.0224846
0.0245219
0.0217639
0.0305131
0.041416
0.0215067
0.0630787
2.24687
0.0314322
0.322924
0.0216798
2.67162
0.0740065
0.0221508
0.0432438
0.0246456
3.4246
0.0230043
4.66178
0.0274424
0.0330556
0.0214416
0.0242697
3.47269
5.72632
0.0215935
0.0231434
0.0300971
1.26726
2.74745
2.80851
0.0634066
0.0782505
0.0214344
0.451917
0.0266201
0.0259861
0.0299551
0.0237759
0.0279777
3.454
0.0259854
0.0318356
0.0216625
0.033541
0.898902
0.070578
0.0468838
0.0214502
0.0255224
0.0241825
0.02152
0.0561757
0.0380294
0.0395251
0.0448572
0.021456
0.0605865
0.0389298
0.0633426
0.031136
0.0197971
0.0461612
0.0518999
0.112885
0.0214351
0.125947
1.86039
0.034431
0.0248522
0.0331618
1.95855
0.14038
0.041823
0.082815
0.0213823
0.0482263
0.0255137
18.4956
0.021538
0.019734
0.0278251
0.0266453
0.0214589
0.0214808
0.0217194
0.0495655
0.283265
0.157524
0.0414457
0.0216431
0.284441
3.12526
0.0210865
0.023084
0.0213969
0.024428
0.0219143
0.0223272
0.0673584
1.64672
0.0210961
0.104189
0.0311143
0.0524502
0.236222
0.0294695
0.0318814
0.0214448
0.0223453
0.0241951
1.50537
0.0316764
0.0303897
0.0737973
0.0226275
0.00776986
0.0347474
0.114506
0.029636
0.0232299
2.75062
0.111132
0.0333483
4.16971
1.32827
0.137522
0.0319441
0.0312145
0.0214619
0.0211706
0.0386429
0.021446
0.0214369
0.0758423
1.85168
0.0214901
0.0273961
0.0214499
0.0225326
0.0246271
0.0216147
0.0212434
0.0242029
0.0230794
0.021571
0.503873
0.0216208
0.0263345
0.020991
0.0215445
0.135832
0.0211092
0.168671
0.020616
0.133194
0.020359
0.0227793
0.306415
0.135937
0.0215506
0.0225517
0.0214183
0.023163
0.0222491
0.0744615
0.0218542
0.0204885
0.0462537
0.0222629
0.0312904
2.91715
3.41972
1.35101
0.0261345
0.219214
0.022928
0.0357329
0.0315153
0.0367462
0.0264391
0.0225864
0.0404731
0.0217708
0.0215951
0.0214636
0.0714914
0.0225429
0.0224004
0.0224027
0.0214472
0.045137
0.02241
0.0220635
0.0222749
0.0687684
0.023003
8.46699
0.105894
0.0212152
0.021807
0.0245111
0.0217487
0.0242518
0.0238635
0.0225641
0.0209412
0.0215982
0.03072
0.0209661
0.041412
0.0221722
0.0216446
0.0221351
0.147527
0.0216446
1.95709
3.32364
0.0583959
0.0263213
0.0218427
0.0345121
0.0225541
0.0259341
0.0221568
0.0388336
1.32826
0.116208
0.0198041
2.89873
0.0307703
0.0467883
0.0204861
0.0667804
0.0372137
0.0213374
0.0233262
0.0652286
0.0229848
0.0198866
4.18765
0.0222446
1.25795
2.29658
3.23473
0.0215874
0.0222252
0.0223028
0.0208461
0.0217097
2.13909
0.0712631
0.0347792
0.0234416
0.349765
3.5447
0.0220049
0.0208943
0.0219645
0.019742
0.0349731
0.0219662
0.0208234
0.0244995
8.6256
0.0237088
0.0222568
0.0252117
0.0214233
0.264292
0.0234101
0.0215287
0.0217207
0.0244286
0.0217859
0.0225426
0.0214716
0.0302902
0.021441
0.229838
0.0348693
0.0269639
0.0238445
0.159093
0.0221039
0.0218819
0.0396055
0.0214203
0.0624402
0.0213196
0.482131
0.0218961
0.0243851
0.025256
0.0206394
0.0220772
0.0214273
0.023571
0.0240728
0.0214276
0.0231214
0.0228373
0.349909
0.0255966
0.0222397
0.0205264
0.0226815
0.0212415
2.11938
0.0271196
0.0214364
0.0219964
0.019789
0.0268682
0.0215853
0.0672274
0.0215291
1.77612
0.0220925
0.0211874
0.023317
0.021384
16.7436
0.021381
0.0240858
0.0218521
0.0213684
0.0225112
0.0229176
0.0242552
0.0205941
0.0234086
2.00424
1.88442
1.14953
0.0561016
0.0212679
3.32167
0.0218716
0.0442273
0.0307965
0.0225999
1.80387
0.0225019
0.0214077
0.0721324
0.0330526
0.122263
0.0234303
0.0248069
0.0456828
0.0382126
0.115674
2.05682
0.0270397
0.0298533
0.0214254
0.0213908
0.0309781
0.0248886
0.0288356
0.0234222
0.0367013
0.021945
0.0215621
0.0211074
0.05016
3.34291
0.0211618
0.0222866
0.0219401
0.0212319
0.365062
0.022986
1.29534
0.0228098
0.026626
0.484077
0.0295783
0.0221104
0.0216006
0.023887
0.0332071
0.0237989
0.0224605
0.0241509
0.119658
0.0232745
0.0238369
1.46284
0.0214517
0.0209798
0.59013
0.0314183
0.021593
0.0472422
0.0216524
1.92253
0.0199523
0.0217
2.68852
0.0237311
0.0215388
0.0198274
0.0716363
0.549162
1.73036
1.18844
0.0302812
0.0236889
0.0209694
3.11952
0.0286676
0.0213907
0.0199732
0.0547571
0.0221997
3.03148
0.0258968