/*--------------------------------*- C++ -*----------------------------------*\
| =========                 |                                                 |
| \\      /  F ield         | OpenFOAM: The Open Source CFD Toolbox           |
|  \\    /   O peration     | Version:  v2012                                 |
|   \\  /    A nd           | Website:  www.openfoam.com                      |
|    \\/     M anipulation  |                                                 |
\*---------------------------------------------------------------------------*/
FoamFile
{
    version     2.0;
    format      ascii;
    class       surfaceScalarField;
    location    "100";
    object      phi_0;
}
// * * * * * * * * * * * * * * * * * * * * * * * * * * * * * * * * * * * * * //

dimensions      [0 3 -1 0 0 0 0];
oriented        oriented;


internalField   nonuniform List<scalar> 
21240
(
-0.371173
0.553942
-0.182769
-0.0473807
0.157149
-0.109768
-0.158155
-0.340988
0.499144
0.250648
-0.180291
-0.0703567
-0.0918233
0.249397
-0.157574
-0.257836
-0.21333
0.471166
0.616331
-0.480757
-0.135574
-0.25086
-0.11897
0.369829
0.0462422
-0.0680658
0.0218235
0.560428
-0.465281
-0.0951474
-0.628391
0.363897
0.264495
0.371325
0.0326803
-0.404006
0.189612
-0.0244725
-0.165139
0.14206
0.234984
-0.377045
0.497068
0.119263
0.0175944
-0.34564
0.328045
-0.383741
0.533518
-0.149777
0.0382909
-0.0329237
-0.00536721
0.408636
-0.566182
0.157545
0.280181
-0.262587
0.00599998
0.145057
-0.151057
0.0776307
-0.405154
0.327524
-0.669
0.475905
0.193095
-0.302433
-0.325958
0.0452133
0.0473411
-0.0925544
0.320447
-0.0571983
-0.263249
0.171849
-0.063426
-0.108423
0.411712
0.148716
0.153881
0.0179675
-0.572973
0.615124
-0.0421512
-0.0535757
0.15266
-0.0990845
0.626693
-0.165307
-0.461386
-0.00234395
0.00619058
-0.00384662
0.638443
-0.450817
-0.187626
-0.0354116
0.241188
-0.205776
0.104204
0.522489
0.408911
0.145026
-0.553938
-0.299403
0.263991
-0.740158
0.392235
0.347923
-0.18875
0.280942
-0.0921916
0.0729726
-0.0267304
-0.18448
-0.133026
0.317506
0.0112609
0.172536
-0.183797
-0.108535
-0.0191322
0.127667
0.238272
-0.136556
-0.101717
0.292587
-0.161816
-0.130771
0.349144
-0.507299
0.567549
-0.155837
0.453947
-0.207002
-0.246945
0.232771
-0.22151
-0.158747
0.567658
0.000252082
-0.118723
0.118471
-0.694284
0.372903
0.321381
0.388075
-0.560292
0.172218
-0.437092
-0.257192
0.215946
0.0769145
-0.292861
0.349931
-0.258185
-0.0917464
0.65464
-0.483768
-0.170872
-0.0393464
0.359794
0.11124
-0.0660272
0.61949
-0.231416
0.153367
0.139219
-0.167274
0.19115
-0.0238757
0.209207
-0.618216
0.409008
0.394529
0.0908798
-0.485409
-0.378198
0.548804
-0.170606
-0.48585
0.144862
0.086054
-0.13963
-0.356456
0.170862
0.185594
0.670993
-0.566788
0.195447
-0.645802
0.450355
-0.608832
0.219109
0.389723
0.172073
-0.563137
0.391064
0.260548
0.092669
-0.353217
0.623441
-0.435886
-0.187555
0.458136
-0.220028
-0.238107
-0.399624
0.243514
-0.0424847
-0.201029
0.536971
0.134021
-0.0423284
-0.0624047
0.104733
0.555369
0.0143908
-0.56976
0.0595675
-0.327878
0.26831
0.272112
0.181835
0.636531
-0.417422
0.777636
-0.404734
0.115499
-0.0594052
-0.0560941
0.0851601
0.153112
-0.618302
0.15802
0.460282
-0.446229
0.6597
-0.464253
0.179709
-0.0456792
-0.13403
0.0297749
0.00430857
-0.0340835
0.0270309
0.162581
0.0684782
0.486556
0.595712
-0.606217
0.0105056
0.551308
0.00406164
0.419786
0.35785
0.45706
-0.665676
0.208616
-0.249707
0.636623
-0.386916
-0.381018
0.196538
-0.400184
0.544108
-0.143924
-0.418565
0.590975
-0.17241
-0.357308
-0.311692
0.0482489
-0.237189
0.18894
0.57975
-0.42173
0.354184
0.0750659
-0.42925
-0.317294
0.128544
-0.227161
0.194513
0.0326488
-0.0261115
0.217573
-0.191462
0.126405
-0.135675
0.00926955
-0.18331
0.251036
-0.0677262
0.114667
-0.00131212
-0.113355
0.361937
-0.377394
0.015457
0.130435
0.00238999
-0.132825
0.355055
-0.277424
-0.120841
0.121094
0.332013
-0.177842
-0.154171
-0.115268
0.0809137
-0.00134757
-0.0795661
0.311779
-0.252212
0.143518
0.424031
-0.580721
0.19698
-0.197132
0.605768
0.254959
-0.136423
-0.118536
-0.0472326
-0.0516169
0.0988495
0.555224
-0.264459
-0.290766
0.0108184
0.166352
-0.177171
-0.515814
0.144641
0.610101
-0.374523
-0.235578
-0.557531
0.157347
-0.0487914
-0.0883552
0.137147
0.148121
-0.0282818
-0.119839
-0.269403
0.197914
0.0714882
0.00831288
0.204233
0.253902
0.357202
0.252899
-0.0439581
0.000160962
0.0437972
0.154704
-0.0242689
-0.00663383
-0.119412
0.126046
0.200008
-0.18919
-0.195357
0.149312
0.0460446
-0.0829295
0.0356969
-0.15263
-0.420343
0.149888
-0.00176707
0.00245334
-0.00487072
0.00241738
-0.0951131
0.355662
-0.0673114
0.429249
0.352207
0.152256
-0.137271
-0.0149847
-0.0161992
0.142604
0.399105
0.145003
-0.275848
0.706636
-0.430789
-0.598247
0.277583
0.320664
-0.480059
-0.103622
0.58368
-0.675421
0.510318
0.165103
0.240105
-0.266216
-0.258881
0.166037
0.0928446
-0.628367
0.148308
0.287779
0.0621522
0.0796588
-0.121987
-0.174554
-0.0148244
0.189378
-0.216468
0.351561
-0.135092
0.00385347
-0.0246222
0.152049
-0.127427
0.398316
-0.631092
0.232776
0.030564
0.0849352
-0.31814
-0.422019
0.117957
-0.183812
0.0658557
0.599687
-0.125917
-0.47377
-0.551596
0.29376
0.0818077
-0.000894015
0.0445428
-0.0327688
-0.011774
-0.307193
0.146938
0.160255
-0.0127696
-0.190261
0.20303
-0.0613876
0.091337
-0.0299494
-0.274782
0.0604388
0.214343
-0.120344
0.49167
0.173529
0.381696
0.0186199
-0.15884
0.14022
0.0245921
-0.142012
0.117419
0.00643635
0.00327181
-0.00970816
0.0997065
0.155253
0.502985
-0.103881
0.197296
-0.29233
0.0950345
-0.152313
0.158313
-0.257338
-0.0705398
-0.243634
0.0603237
-0.187352
-0.0562817
0.0634422
0.325367
-0.388809
0.157706
-0.00545029
-0.277506
-0.0852527
0.362758
0.250635
-0.0224443
-0.228191
0.107504
-0.000234487
-0.10727
-0.392942
-0.214831
0.607773
0.630229
-0.173168
0.332444
-0.150564
-0.18188
-0.407668
0.388831
0.485859
-0.213601
-0.272258
-0.17985
0.00529636
0.103662
-0.152453
0.0065051
-0.00884905
-0.500213
0.357711
0.142502
-0.655309
0.236744
0.265165
-0.360278
0.147978
0.10267
-0.53878
0.284705
0.254076
-0.301207
0.0237016
-0.126428
0.0178935
-0.120926
0.617994
-0.177004
0.622457
-0.445453
-0.33164
0.395082
-0.239571
0.33224
-0.0679909
-0.0741709
0.142162
-0.0772093
0.195166
0.00462452
0.00156606
-0.146394
-0.0520181
0.198412
0.0271015
0.0680393
-0.0951408
-0.361035
-0.196496
0.161051
0.341934
0.592434
0.00725331
0.0268101
-0.103581
0.0767711
-0.0826565
0.298603
0.0963149
-0.0695048
-0.201737
-0.0676658
-0.00713757
0.250651
0.0416069
0.184956
-0.226563
0.154252
0.17776
-0.154185
0.129563
0.412601
-0.609732
0.112364
-0.272462
0.160098
0.199211
0.133234
0.017566
-0.117019
0.0994527
0.479131
-0.129988
-0.313509
-0.21736
0.53087
0.0810487
0.191929
-0.272978
0.230856
-0.20562
-0.0252356
0.107631
-0.126763
-0.260882
0.0829218
0.17796
0.226376
-0.352797
0.126421
-0.00629912
-0.037659
0.0289845
0.0251212
-0.0541056
0.0456731
0.0865711
-0.132244
-0.566311
0.188114
-0.0768672
-0.0643351
-0.0392461
0.445741
-0.662858
0.217117
-0.0107856
0.0397701
-0.748583
0.296568
0.452015
0.536095
-0.123494
0.466316
-0.600743
0.134426
-0.154591
-0.10429
-0.444377
-0.201424
0.0120478
-0.0323376
0.0202898
-0.40179
0.546816
0.126182
-0.377041
0.0520421
-0.108909
0.0568664
0.0551782
-0.0478667
-0.00731149
-0.138291
0.0999399
0.038351
0.00368206
-0.00122873
-0.0981239
0.363289
0.392412
-0.225375
-0.167037
0.167435
0.0786791
-0.246114
0.0443332
-0.190727
-0.0316396
0.0436875
0.179057
-0.00147226
-0.177585
-0.117182
0.0198788
0.0973033
-0.319719
0.134314
0.185406
0.011626
-0.00751695
-0.144796
-0.0617207
0.147775
0.355367
-0.276498
-0.0788682
-0.413302
0.48178
0.676611
-0.370924
-0.305688
0.613531
-0.16779
0.655596
-0.586407
-0.069189
0.129244
-0.610001
-0.0885553
0.115501
-0.0269457
-0.602979
0.327131
-0.152662
-0.0882458
0.240908
-0.160939
0.153423
0.506435
0.117006
0.0147776
-0.479643
0.197946
0.281697
0.130936
0.0170808
-0.148017
-0.23979
0.147967
-0.0608352
0.0056355
0.0551997
-0.136305
0.129671
0.222459
-0.0252317
-0.197227
-0.419341
0.592614
-0.173272
-0.451414
-0.107352
0.558767
-0.0507097
-0.0524409
0.103151
-0.198738
-0.301475
0.537046
-0.13873
-0.0335694
-0.0630614
0.0966308
0.176969
0.438155
-0.349863
0.133394
0.751201
-0.348987
-0.402213
0.000351469
0.00342647
0.280003
0.142637
-0.422641
-0.509037
0.222203
0.286834
-0.224158
0.169326
0.0548321
0.341612
0.0601277
-0.40174
0.408286
-0.266226
-0.320145
0.142303
-0.242091
0.0617992
-0.253269
-0.344978
-0.212633
-0.124452
-0.0249541
0.204011
-0.150631
-0.0166429
-0.691543
0.285762
0.405781
-0.270193
-0.42135
0.162912
0.0172642
-0.180176
0.129701
-0.1459
0.292745
-0.20344
-0.0893056
-0.0379763
0.0677889
-0.0298126
0.253758
0.0580215
0.234011
0.158401
0.543828
0.111768
-0.0371823
0.00742423
0.029758
0.35182
-0.12555
-0.22627
0.117209
0.253646
-0.370855
0.594944
-0.485318
-0.109627
0.426309
-0.146306
0.237392
0.422307
0.212507
-0.00800502
-0.204502
0.0919639
-0.0648625
-0.0667181
0.461247
0.0160395
0.318055
0.433146
-0.0464481
0.0134078
0.0330403
-0.0958443
0.0315091
0.0350678
-0.00529285
-0.0821227
0.0772059
0.00491673
-0.112485
0.0648066
0.0476781
0.539914
-0.486579
-0.0533345
0.616716
-0.463638
-0.153078
0.223066
-0.110703
-0.0920026
0.0306151
0.342121
-0.124548
0.102453
-0.164174
0.00500643
0.0630947
-0.0681011
0.0291962
0.0153466
0.011804
-0.386184
0.37438
0.489475
0.0504383
-0.0390309
0.00184862
-0.0012429
-0.00171581
0.0029587
-0.0050069
-0.0630589
-0.562191
0.403444
0.191557
-0.09393
0.0989364
-0.082172
4.93545e-05
0.451579
-0.647273
0.195694
-0.608484
0.189143
-0.0224576
0.153393
-0.110197
0.125565
-0.0798922
0.0913076
0.000775304
-0.0920829
0.114443
-0.0624013
-0.430528
0.140177
-0.175187
0.0350102
0.00256941
-0.00381231
0.677113
-0.296302
-0.380811
0.420026
0.159725
0.333683
0.343431
0.170441
-0.0222508
0.151951
0.346586
-0.120211
0.248671
-0.165749
0.4848
-0.551518
-0.0088656
0.11637
-0.00376627
0.000949718
0.00281655
0.0226438
-0.169599
0.146955
-0.056803
0.0188267
0.507962
0.0290843
0.0762589
-0.349256
0.272997
-0.477793
0.29212
0.185673
-0.00351178
-0.000254488
0.00109278
-0.11982
0.118727
-0.445875
0.486059
-0.0401847
-0.196741
-0.122978
-0.233451
-0.246192
-0.109889
0.0213335
-0.308266
-0.138004
0.44627
-0.464695
-0.143789
-0.0386911
0.165042
-0.126351
0.370498
0.246218
0.252627
-0.175193
-0.0774331
-0.081961
0.145291
-0.0633295
-0.103173
-0.0232553
0.0787906
-0.104755
0.0259641
0.121515
-0.281336
0.15982
0.604513
-0.443966
-0.160546
0.48368
0.0242822
0.43194
-0.227707
0.530226
-0.490554
-0.0396719
0.448022
0.22859
0.184572
0.0462841
0.203732
0.228208
0.396342
-0.0750305
-0.321311
-0.147233
-0.415904
-0.0901445
0.444328
-0.193446
0.265142
-0.0716964
-0.136021
-0.136441
-0.04939
0.0727801
0.0235348
0.107897
-0.090331
-0.00917545
0.123843
-0.0387393
-0.124591
0.163331
-0.138991
0.140083
-0.662943
0.391643
0.2713
-0.269381
0.14411
0.387491
-0.531601
-0.004096
0.000188719
0.00390728
-0.116226
-0.0379587
-0.243918
0.0565658
-0.185677
-0.12596
0.14458
0.0154379
0.0157077
-0.415182
0.399474
-0.159884
0.530382
-0.0496234
0.0725813
-0.0229578
-0.097168
0.0347633
-0.0476396
0.389252
0.475456
0.14171
-0.617166
-0.0280537
0.190965
-0.174245
0.135506
-0.330114
0.0905428
0.1231
-0.586739
0.0831924
-0.130573
0.0801988
-0.00865509
-0.0715437
-0.333762
0.345566
0.59588
-0.330553
-0.265328
0.212128
-0.182911
-0.0292169
0.319773
-0.440118
-0.277323
-0.38562
0.0233492
-0.104713
-0.0124691
0.047272
0.132437
-0.176048
-0.375548
-0.0375954
0.146509
-0.108913
-0.661345
0.38425
0.277095
0.303678
0.0540337
-0.0293472
-0.0664971
0.104645
-0.0133378
-0.118701
-0.484377
-0.114557
0.498807
-0.215397
-0.33117
0.546567
0.12189
0.307456
-0.429347
-0.494108
0.325884
0.168224
0.331422
0.384871
-0.131113
0.399001
-0.383294
0.313178
-0.427735
-0.00615417
-0.00073452
0.00688869
0.313694
0.277064
0.36138
0.218184
-0.18165
-0.0365333
0.295314
-0.194731
-0.100583
-0.36621
0.500852
-0.134641
0.493002
0.0372242
-0.0682137
-0.0700772
0.0904569
-0.0209604
-0.0694965
-0.130913
0.00506933
0.125843
-0.607792
0.0395607
-0.00126974
0.0779344
-0.0246217
-0.0533126
0.317987
0.0783553
-0.532036
-0.0124946
0.544531
0.169684
-0.0532344
-0.116449
-0.0763835
-0.204952
-0.389736
0.223777
0.165959
0.248483
0.387195
-0.528952
0.141757
-0.164005
-0.0631563
-0.121631
0.0184582
-0.187574
-0.321463
-0.134109
-0.152565
0.286674
-0.151382
-0.380654
0.289667
-0.603177
-0.0942296
0.545808
0.25008
0.134791
-0.105148
0.302444
-0.224592
0.0719304
-0.392401
-0.022781
-0.0985194
0.123112
-0.455342
0.170265
0.285077
0.149198
0.00795091
0.208884
-0.221654
0.0627748
0.0151596
0.212322
-0.462029
-0.343636
-0.195145
0.206797
0.0859478
-0.0977321
-0.00966597
0.107398
-0.163282
-0.0991422
0.0655728
0.259959
-0.378928
0.223397
-0.0388247
-0.570079
0.0445803
0.525499
-0.00187209
-0.00428208
0.44592
0.130244
-0.576164
0.0508328
-0.0418654
-0.00896744
-0.117179
0.583496
0.2153
-0.0444814
-0.170818
-0.43279
0.579802
-0.147011
-0.0960376
0.571494
0.468875
-0.63192
0.163045
0.187275
-0.455191
-0.163025
0.0151613
0.196967
-0.211173
0.288087
-0.161111
0.0846022
-0.209612
-0.354268
-0.130567
0.484835
-0.171845
0.143104
0.0287408
0.0584409
0.172283
-0.230724
0.0824415
-0.275887
-0.546172
0.508144
0.0380283
0.553341
-0.139604
-0.413737
-0.605392
0.05922
-0.606014
0.20794
0.398074
0.412171
0.14117
-0.0370079
0.00408416
-0.00312397
-0.000972031
0.337469
-0.304789
0.0360713
0.155078
0.112939
-0.0197392
-0.0932
-0.0134625
-0.0329856
0.0180562
-0.494445
0.476389
-0.147609
-0.44815
0.629916
-0.181766
-0.263809
0.158446
0.422678
-0.581124
-0.581235
0.249595
-0.257396
-0.199792
0.0400897
0.159702
-0.720163
0.304459
0.415704
0.0545864
-0.0381899
-0.0163965
-0.434401
0.652338
-0.292469
-0.359869
-0.0480172
0.0345547
7.24248e-05
0.00249699
0.497776
0.138755
0.340559
0.033238
-0.373797
0.675578
-0.177802
0.543675
-0.608653
0.0649788
-0.494895
0.318847
-0.0501874
-0.0106478
-0.240676
0.480575
-0.358227
-0.122348
0.404156
-0.282266
0.51876
0.0107773
-0.529537
-0.00727692
0.492077
-0.164071
0.132488
0.031583
0.205678
-0.323446
0.117767
0.298759
0.0875861
-0.386345
-0.0359225
0.1761
0.413033
-0.242768
0.39044
0.00959124
-0.205338
0.195747
-0.253944
-0.223849
-0.174686
0.0325164
0.14217
0.0934643
-0.0461232
-0.048827
0.0801964
-0.0313694
-0.209444
0.483874
-0.27443
0.0633197
-0.2592
0.19588
0.125567
-0.576384
0.241627
-0.181188
-0.0556898
0.289701
0.557172
-0.204386
-0.352786
-0.570079
0.211839
-0.267529
-0.378853
-0.259913
0.100118
0.159795
-0.529626
0.323095
0.206532
0.0887611
0.47295
-0.561711
0.120958
-0.388984
0.268026
0.132399
0.0223051
0.0415495
-0.0281417
-0.3123
0.107739
0.204561
-0.0537343
-0.0764158
0.13015
0.185548
0.0719833
-0.257531
-0.286674
0.576341
0.363558
-0.011
-0.0260078
-0.637987
0.415315
0.222672
-0.636844
0.188694
0.481123
0.0807744
-0.561897
0.341804
0.0571972
-0.585621
0.408196
0.0424757
-0.450672
0.0607546
0.0630817
-0.235255
0.306823
-0.0715681
0.0347004
0.0204778
0.00420141
-0.00472705
0.000525635
0.586641
-0.110736
0.639562
0.0099118
0.0611482
-0.07106
-0.160028
0.194205
-0.0341767
-0.0459782
0.0670466
-0.0210684
0.124824
0.238494
0.108092
0.434361
-0.0704644
-0.63708
0.389239
0.247841
0.358326
-0.152648
-0.112403
0.411162
0.377856
-0.0598697
0.384525
-0.324397
-0.655312
0.18913
0.466183
0.11024
0.00090944
-0.111149
-0.24143
-0.413883
-0.072724
-0.127068
0.511076
0.164503
-0.520369
0.304973
0.315958
-0.248889
-0.067069
0.508349
0.0873627
0.0215827
0.0292502
0.206914
0.0884001
-0.218115
0.348218
-0.130103
0.0321102
0.0583467
0.126306
0.0990842
-0.0247211
-0.0743631
-0.0315979
-0.00448243
0.0360803
-0.253799
-0.240309
-0.458369
0.122191
-0.340306
0.13978
-0.146601
0.00682054
-0.12191
-0.413651
-0.192567
-0.00317453
0.00324696
0.0218267
-0.0734436
0.162858
-0.153267
0.0714408
-0.0408768
0.372281
0.184891
-0.226322
0.175462
0.0508604
0.473274
0.0454854
-0.149365
-0.110548
-0.205808
-0.146988
-0.667586
0.397393
0.123185
-0.015554
-0.423877
0.210547
0.178588
-0.0345548
-0.144034
-0.287153
0.0902853
0.196867
0.116068
-0.0161284
0.155823
-0.0234241
-0.595758
0.285162
0.310596
0.122351
-0.306449
0.184098
-0.440508
0.132242
-0.242771
-0.352987
-0.617051
0.389686
0.227365
0.097327
-0.300684
0.203357
0.000611279
0.107286
-0.0829279
0.564051
0.0281293
0.0848099
0.137557
0.44478
-0.582337
-0.110243
0.3546
-0.116106
-0.0367874
0.115692
-0.0789051
-0.215706
-0.327604
0.54331
-0.192318
0.105679
0.356222
-0.535178
0.178956
-0.138296
-0.0149914
0.0131193
0.00763212
0.210551
0.561441
-0.33539
-0.226051
0.00965734
-0.00881312
-0.000844217
0.173467
0.0418326
0.527359
-0.171137
-0.166756
0.0344131
-0.108584
-0.272785
-0.333229
-0.0522032
0.109678
-0.0574752
-0.471244
0.261799
-0.282113
-0.200233
0.482346
0.576198
-0.250831
0.198225
-0.160977
-0.0372476
-0.0730579
-0.169033
0.0488979
-0.268321
-0.399266
0.352818
0.126313
-0.601958
0.575562
0.0263959
-0.141928
-0.29867
0.440598
-0.188082
0.0730253
-0.122712
0.0496867
0.407669
-0.157589
0.196097
-0.279805
0.083708
-0.149984
-0.239752
0.198954
0.377244
0.286923
0.0290347
0.478816
-0.574853
0.0373644
-0.0330558
0.0793547
-0.26213
0.182775
0.0201034
0.285711
-0.305815
-0.115171
0.37513
0.387433
0.174008
-0.380987
0.265815
-0.0763225
0.243849
-0.167527
0.139447
0.0302364
0.00691327
-0.106287
0.538048
-0.431761
-0.0784477
0.274545
0.444661
-0.609426
0.164766
-0.196629
0.259949
-0.308987
0.226331
0.0721477
-0.124589
-0.0252707
0.504086
-0.0464622
0.430987
0.000736344
0.00346507
-0.0222741
0.101065
0.276147
-0.493507
-0.196905
-0.296148
0.493053
0.516858
-0.372748
0.0448204
-0.0421832
-0.00263721
-0.248025
0.0680238
0.180001
0.35636
-0.486927
0.152696
0.254973
0.105511
-0.409324
0.303814
-0.572054
0.28538
0.110336
-9.61111e-05
-0.365128
0.238036
0.127092
-0.256087
0.113789
-0.0339927
-0.0797965
-0.0792671
0.0304401
-0.120735
-0.313674
0.116659
0.197015
-0.430096
0.448153
0.131747
0.301868
-0.433615
-0.110972
-0.0150631
0.126035
0.0470333
-0.0182834
-0.0287499
-0.549109
0.0976941
0.0830695
0.0272665
0.0856559
-0.00545713
-0.00256431
0.103249
0.0389129
0.0207128
0.0263205
0.0163515
0.0284689
0.415397
-0.564285
0.148888
0.0403555
0.183041
-0.0982239
-0.0217216
0.119946
-0.205271
0.300189
-0.441068
0.140879
0.56181
-0.424253
-0.127677
0.039322
-0.00533403
-0.490043
0.131816
0.185936
-0.0379583
0.278989
-0.0730724
-0.205917
0.0491492
0.192478
0.648853
-0.400367
-0.248486
0.289919
-0.103827
-0.186092
-0.622304
0.444218
0.178087
-0.145635
-0.0290511
0.126371
-0.634623
0.210036
0.424588
0.0155104
0.0240503
-0.0222723
0.162053
-0.082147
0.138535
-0.056388
0.124879
-0.309866
0.184987
-0.281848
-0.383828
-0.00336678
0.0065125
-0.00314572
-0.567298
0.209358
0.35794
-0.00293002
0.000713469
0.00221655
0.0354878
0.143101
-0.124573
0.056156
-0.00664643
-0.0495095
0.0878613
0.348441
-0.436303
0.116037
0.321449
-0.437486
-0.0930861
-0.0160163
0.109102
0.256779
0.169438
-0.426217
-0.179845
0.401621
-0.313759
-0.147906
-0.667885
0.262594
0.405291
0.113557
0.323942
-0.437499
0.161104
-0.538202
0.377098
-0.0150382
-0.0427662
0.0578044
-0.731161
0.510719
0.220442
0.0631017
0.166797
-0.229899
0.0431358
0.0706534
-0.264747
0.207548
-0.0637847
0.0905819
-0.0267972
-0.403745
0.108718
-0.305468
0.196749
-0.274719
0.420546
-0.145827
-0.190355
-0.540806
0.0465856
-0.0987888
0.0610606
-0.0511488
0.102931
-0.168497
-0.326398
-0.285548
-0.159891
0.44544
0.0125839
-0.0947309
-0.343539
0.459576
0.437877
-0.32432
-0.139116
-0.41308
-0.158045
0.571124
0.000576071
0.0604846
-0.317473
-0.350412
-0.393006
0.481767
0.415318
0.0560077
-0.471326
0.66668
-0.183964
-0.482717
-0.099536
-0.585647
0.410447
0.1752
0.410289
-0.279292
-0.130997
-0.0781801
0.263728
0.110461
-0.497065
0.386604
-0.233034
-0.429825
0.491859
-0.381397
-0.403846
-0.181802
-0.145
0.445189
0.0585884
0.220401
0.0823016
-0.234313
0.152011
0.447683
-0.252409
-0.195273
0.0845658
-0.0403165
-0.0442493
0.308254
0.102596
-0.41085
0.199195
-0.0549484
-0.144247
-0.598334
0.325549
-0.206592
-0.0805609
0.283732
0.382948
-0.0187384
-0.161325
0.180063
-0.0337135
0.116783
0.0229885
-0.164546
0.427038
-0.262493
0.0986352
0.205276
-0.303911
0.019504
-0.197464
0.17796
-0.240959
0.164637
0.174652
-0.134657
0.417137
-0.28248
-0.186786
0.151311
0.0354742
-0.431344
0.29334
-0.197988
0.186508
0.266375
-0.0744461
0.152973
0.441972
0.0338167
-0.0976015
0.0594216
0.0291366
-0.0885582
-0.19965
0.272471
-0.0728211
0.417998
-0.109744
-0.00211926
0.00539107
-0.15642
0.177307
-0.0208878
-0.66487
0.278543
0.386328
0.0218107
-0.025317
-0.0793959
-0.324691
-0.0784689
0.40316
0.645983
-0.341524
-0.155161
-0.366203
-0.298667
0.202576
0.245107
-0.410506
0.110444
-0.514865
0.404421
-0.197348
0.294675
-0.276424
0.561128
0.191286
-0.176124
0.0549611
0.322895
-0.142154
-0.0824384
-0.563524
0.206414
0.35711
-0.288811
-0.309523
0.267352
-0.365476
-0.0144185
0.0600566
-0.0456381
-0.357646
0.583305
-0.225658
-0.158228
0.135771
0.385571
0.27497
0.138062
0.069806
-0.0915276
0.188142
-0.266589
0.610193
-0.610193
-0.190696
0.165742
0.0385133
-0.147525
0.109012
0.0317277
-0.0456985
-0.374892
-0.247412
0.0317543
0.0964177
-0.721521
0.390351
-0.31557
0.116142
0.199429
0.00920351
-0.0136859
-0.107198
0.37455
-0.0874466
0.556322
0.223129
0.390402
0.151591
-0.287892
0.395159
-0.107267
0.113164
-0.479374
-0.0311409
0.0306025
0.0657144
0.699883
-0.290455
-0.409427
0.00305392
-0.00283249
-0.000221434
-0.0900826
0.17041
0.0750941
-0.0615144
-0.0135797
-0.0308497
0.180162
-0.119224
0.534542
0.0102206
-0.00927091
0.424441
-0.617332
0.192891
0.471404
-0.587477
0.39729
0.190187
0.193563
-0.174059
0.230935
0.36004
-0.262704
-0.0193207
0.282025
0.264244
-0.014607
-0.249637
-0.392002
0.0570955
-0.106877
0.168022
0.224523
-0.628369
0.159676
-0.0624944
-0.0971819
0.502296
0.134326
0.0471985
0.00556812
-0.0527666
-0.197858
-0.365666
0.0220686
0.0493722
0.274662
0.425221
0.114333
-0.094454
0.180226
0.472113
-0.579458
0.240969
0.338489
0.203428
0.0864909
-0.155857
0.599723
-0.20222
-0.397503
-0.428224
-0.147729
0.575954
0.229885
-0.274443
0.0445582
-0.167881
0.145129
0.387196
-0.532326
-0.692436
0.410588
0.115197
0.0660634
-0.181261
-0.381908
-0.339612
0.168362
0.342713
-0.407772
-0.284664
-0.314444
0.121305
0.193139
-0.540143
0.165484
0.0327409
-0.49011
0.321613
0.0697371
-0.374374
-0.191807
-0.632361
0.233738
0.398622
0.413562
0.179052
0.113441
0.0130701
-0.126511
-0.0280619
-0.124492
0.152554
-0.56586
0.231183
0.334677
-0.348006
0.111684
0.236322
-0.0632178
-0.0415369
-0.187421
-0.0903784
-0.10194
-0.0680866
0.476283
-0.0451349
0.11816
0.246755
-0.409232
-0.0845723
-0.183684
0.268257
0.14877
0.0333513
-0.182122
-0.030917
0.0903386
-0.17028
0.580727
-0.178102
-0.00147647
0.000741947
0.00997401
-0.0207596
0.0507134
0.148482
0.482492
-0.362911
-0.119581
0.27452
-0.0446352
-0.182527
0.0924445
0.391364
-0.398784
0.00742048
0.149322
-0.324655
0.199105
-0.0122954
0.0201098
-0.00781436
-0.141413
0.139941
0.100614
0.496072
-0.596686
0.0337086
-0.0931137
-0.0328263
0.19831
-0.0988225
0.0605404
0.0382822
-0.115484
-0.305211
0.420695
0.0277542
-0.217517
0.189763
-0.0833145
-0.402003
0.0147115
0.111868
-0.126579
0.500987
-0.36787
-0.133117
-0.641414
0.410536
0.230878
0.446265
-0.519026
0.163056
0.35597
0.19149
-0.242471
0.0509806
-0.112627
0.0588924
0.52702
0.0831734
0.406107
0.239876
0.135638
-0.512165
0.376527
-0.0472648
0.0289814
-0.191966
-0.515694
0.300863
0.563024
-0.419505
-0.427218
0.161923
0.265296
-0.224753
-0.0354748
0.260228
-0.375394
0.187886
0.0615113
0.399677
-0.203787
-0.0054953
0.209282
0.0939142
0.114389
0.413103
0.14992
0.692103
-0.275279
-0.416824
0.200793
-0.085596
0.258282
0.433822
0.478797
-0.196691
-0.282107
0.556465
-0.396135
-0.16033
-0.142237
-0.0416306
-0.114238
0.155869
0.313278
-0.362934
0.225835
0.137099
0.295372
-0.511078
-0.223487
0.106763
-0.101957
0.0922911
-0.236225
0.163167
-0.0488528
0.151306
-0.197729
0.122396
-0.280673
0.0931434
0.389349
0.0193025
0.0557916
-0.385905
0.521543
0.415167
0.141298
0.119803
0.0132733
-0.133076
0.126156
0.0296668
0.000402876
-0.121535
0.121132
-0.141601
0.535217
-0.393616
0.242786
0.112581
0.273297
-0.397865
0.124568
-0.186188
-0.123678
0.465434
-0.635588
0.170154
-0.0807597
0.304537
-0.0770902
0.168204
-0.0911136
-0.176033
-0.0778773
0.228954
-0.151077
-0.0309133
0.173429
-0.0291426
-0.144286
-0.386622
0.0538715
0.00228451
-0.311784
-0.169603
-0.195526
-0.689499
0.268006
0.421492
0.19273
-0.162751
-0.0299795
0.527162
-0.0190188
-0.414836
0.187817
-0.00188074
-0.416039
0.569933
-0.153894
-0.403341
0.263656
0.139684
0.620973
-0.196532
-0.48919
0.203642
-0.151453
0.108303
-0.157156
-0.233514
-0.403566
0.546493
-0.159297
-0.125558
0.0453653
-0.206342
-0.20622
0.042215
-0.699423
0.408968
-0.354745
0.185142
0.0235994
0.134858
-0.158458
0.0152897
-0.00506903
-0.0158719
0.0932936
-0.115568
-0.108657
-0.149955
0.177149
-0.0271941
0.328401
-0.610513
-0.429879
0.295222
-0.136227
0.481837
-0.345611
-0.241461
0.0716844
0.169777
-0.412474
0.29699
-0.692138
0.248863
0.443276
-0.491796
0.35667
0.135126
0.205461
0.0760139
-0.281474
0.170158
-0.26774
-0.424398
-0.226462
-0.189736
0.416198
-0.049435
0.198206
0.0413509
-0.0121547
0.162066
-0.000962382
-0.00240439
0.263795
0.000449125
0.114849
-0.14044
0.0255914
0.139391
0.083675
-0.131523
-0.191922
-0.204143
0.23963
-0.0354869
0.0419908
-0.00729037
0.0361823
-0.434985
0.293057
-0.225456
-0.0757517
-0.136115
-0.1085
-0.0340289
0.142529
-0.120439
0.378377
0.48211
-0.125749
-0.321407
-0.167783
-0.152181
0.234483
-0.115233
0.0959581
0.25019
-0.346148
0.246426
-0.40948
-0.257699
0.0122128
0.159947
0.393995
-0.13748
0.303439
-0.127422
-0.117082
0.244504
-0.183671
0.470154
-0.286483
0.415819
-0.127193
-0.114268
-0.58336
-0.0481188
-0.180072
-0.267388
0.182816
-0.0769877
0.156805
-0.079817
0.114302
-0.142958
0.0286554
0.505432
-0.18403
-0.321402
0.00384572
-0.00483722
0.000991502
0.0155962
0.152378
-0.0380756
-0.00360497
0.191422
-0.0299461
-0.117579
0.548926
-0.154522
-0.394404
-0.265643
-0.0972907
0.032167
0.160563
0.275753
0.299932
-0.575685
0.383727
0.165199
-0.0391417
-0.0148084
0.206094
0.0966142
-0.323076
0.454534
0.0726286
-0.671078
0.223328
0.44775
-0.25656
-0.414518
-0.123389
-0.341892
0.342817
-0.487303
0.144486
-0.409327
0.130035
-0.625034
0.265888
0.359147
-0.415691
-0.441963
0.602347
-0.479624
-0.122724
-0.0622136
0.0471753
0.12523
0.22937
0.147623
0.435504
-0.583126
0.0572222
-0.0638686
-0.00280777
-0.00600535
0.265225
-0.0737354
0.203293
-0.284053
0.101639
-0.147318
-0.0716349
0.130669
-0.15292
0.0474016
0.0183438
-0.0657454
-0.327751
0.00634403
0.155032
0.323765
-0.506271
0.587045
-0.0663732
0.0954369
-0.0290637
0.0737915
0.231277
-0.305068
-0.0252386
-0.0132212
0.0384598
-0.0367177
-0.0621048
0.167837
-0.580462
0.412625
0.163904
-0.52155
0.0357881
0.150712
-0.578936
0.544871
-0.394253
-0.150618
-0.00267621
0.00225111
0.000425106
-0.338016
0.589797
-0.25178
0.394466
-0.121169
0.677246
-0.204296
-0.0339606
0.00139933
0.0325613
0.604768
-0.200376
-0.404391
-0.489044
0.536354
-0.37525
0.462536
-0.545464
0.60439
-0.15847
-0.0117881
-0.0005073
0.128181
-0.473406
0.313515
-0.687515
0.412236
-0.000786193
-0.108122
0.150589
-0.0232404
-0.127349
-0.353082
-0.135461
0.488543
-0.200494
-0.365267
-0.155507
-0.363825
-0.205334
0.569158
-0.200889
0.278303
-0.0774141
-0.496216
0.329152
0.167064
0.475303
0.0695677
-0.0335348
0.039877
-0.00634219
-0.19178
-0.0894646
0.281244
0.558082
-0.174355
-0.450286
0.266615
-0.182985
-0.364565
0.54755
0.168434
-0.576943
0.408509
-0.394286
-0.185173
0.13653
0.335038
-0.471567
-0.137225
-0.108993
-0.271994
0.209163
-0.0606807
0.135642
0.222685
0.390415
0.209308
0.130622
0.261435
-0.392057
0.0502637
-0.189885
0.139622
0.165848
0.0283568
0.080509
-0.157599
-0.14372
-0.254145
0.0756061
0.236404
-0.312011
0.264927
-0.372125
0.291341
-0.400718
0.109377
-3.43605e-05
-0.00264185
0.464418
-0.296055
0.182694
-0.298026
0.115331
0.00236925
0.532547
-0.532547
0.0835233
-0.030337
-0.0531863
-0.145706
-0.445629
0.591335
-0.0164027
0.0632241
-0.0468214
-0.207977
0.283583
0.285529
0.110237
0.0474688
-0.0562815
0.0476264
-0.535883
0.352898
0.0150109
0.0984302
0.101651
-0.585418
-0.1132
0.247514
-0.188367
-0.0830192
0.271387
-0.149371
-0.0262271
0.175598
0.0200647
-0.0735805
0.0535158
-0.00697249
0.395803
-0.136213
-0.0202067
-0.135346
-0.0234941
0.163829
0.107691
-0.537957
0.430267
-0.558266
0.315495
0.0660433
0.160918
-0.226961
-0.0797634
0.0557433
0.0240201
0.0826911
-0.00768873
-0.691785
0.424045
-0.0416911
0.00815637
-0.567189
0.424987
0.111108
-0.534056
0.51668
0.0173763
-0.213138
0.303423
0.135026
0.344406
-0.479433
0.525192
-0.0626558
0.293226
-0.219435
-0.611387
0.444139
0.167248
0.574904
0.1266
-0.152916
0.026316
0.0973605
0.0411746
-0.209315
-0.344042
-0.267346
-0.378872
0.241391
-0.000367637
-0.00256238
-0.394099
0.128354
-0.156415
-0.419509
0.0668955
-0.0194938
-0.250314
-0.173964
0.424279
-0.431939
0.289451
0.142487
0.277374
-0.0892326
0.147438
-0.583324
-0.26167
0.0741193
0.0797622
0.381246
0.165246
0.262084
0.0100285
-0.433503
0.552262
-0.339567
-0.212695
-0.0972902
0.603355
-0.44651
-0.156845
-0.0207699
0.0492388
0.0476474
-0.0620658
-0.125349
-0.225171
0.35052
0.248503
0.370987
-0.372034
0.483697
-0.356011
-0.127686
-0.0734933
-0.168977
0.292828
-0.194193
-0.433052
-0.144887
0.577939
-0.425542
0.514701
-0.0891591
-0.299597
0.00213766
0.152143
-0.286253
-0.0359048
0.00313596
-0.303642
0.406238
-0.330111
0.0679178
-0.0673066
0.197182
0.432733
-0.086054
-0.203689
-0.399291
-0.0602672
0.0215821
0.0386851
-0.316656
0.110735
0.205922
0.140908
0.032521
0.0451273
-0.00313645
-0.692233
0.435673
-0.526576
0.384975
0.239157
-0.19496
-0.523111
0.117261
0.40585
0.125414
0.250034
-0.375448
0.0458971
-0.045321
-0.131432
0.474248
-0.151816
0.533062
0.0279368
0.107535
0.0321893
-0.139724
0.10215
-0.0840417
-0.0181082
-0.185877
-0.3519
-0.436712
-0.144767
0.581478
-0.414738
0.549005
-0.134267
-0.630464
0.202128
0.428336
-0.440233
0.141563
-0.112265
-0.113228
0.405568
-0.130597
-0.143751
-0.0430343
-0.170179
0.128548
-0.443371
0.141457
0.0389246
-0.180381
0.278465
-0.156114
-0.329103
-0.238195
0.171701
-0.0307933
-0.00179744
-0.00248464
0.136786
-0.159058
-0.0509394
0.0830496
0.309656
0.17529
-0.484946
0.082888
0.400809
-0.189399
0.306059
0.108927
0.173098
-0.282025
0.369455
0.179349