/*--------------------------------*- C++ -*----------------------------------*\
| =========                 |                                                 |
| \\      /  F ield         | OpenFOAM: The Open Source CFD Toolbox           |
|  \\    /   O peration     | Version:  v2012                                 |
|   \\  /    A nd           | Website:  www.openfoam.com                      |
|    \\/     M anipulation  |                                                 |
\*---------------------------------------------------------------------------*/
FoamFile
{
    version     2.0;
    format      ascii;
    class       volVectorField;
    location    "100";
    object      U;
}
// * * * * * * * * * * * * * * * * * * * * * * * * * * * * * * * * * * * * * //

dimensions      [0 1 -1 0 0 0 0];


internalField   nonuniform List<vector> 
14315
(
(1.00139 0.0486058 3.16712e-21)
(1.11868 -0.0373792 -4.16291e-20)
(1.01917 -0.00430776 -4.98728e-22)
(1.05517 0.00357838 -1.84919e-21)
(1.05476 -0.00785166 -6.97088e-21)
(1.0284 0.00165443 1.27389e-22)
(1.03023 -0.00251927 -3.16994e-22)
(1.03285 -0.0126274 -5.7957e-22)
(1.06505 0.0639702 8.69642e-20)
(1.01134 -0.0114567 0)
(1.01089 0.00351063 1.2156e-21)
(1.0062 -0.0257547 1.45884e-21)
(1.08657 -0.0548252 -5.42492e-21)
(1.03401 0.00560617 1.15812e-21)
(1.0302 -0.00300838 0)
(1.03229 -0.00724934 1.2049e-21)
(1.0259 -0.00114021 -4.88202e-23)
(0.774369 0.0614239 2.76405e-20)
(1.0222 -0.00124313 9.31994e-22)
(1.03242 -0.00769194 0)
(1.07889 -0.00142196 0)
(1.0277 -0.00847856 0)
(1.01954 -2.10053e-05 2.18119e-22)
(1.01018 0.00256263 -2.85097e-21)
(1.1454 0.0191539 -6.56372e-20)
(1.03585 0.00548617 -1.15731e-21)
(1.11581 -0.0261112 1.97312e-20)
(1.00965 -0.0101128 -1.35188e-21)
(1.11514 -0.0284889 0)
(1.02333 0.000379419 0)
(1.07741 0.0239546 0)
(1.02323 0.000696899 -2.21854e-21)
(-0.0685781 0.0198837 9.71106e-20)
(1.05664 -0.0302034 7.86729e-22)
(1.04093 -0.0108856 -6.69069e-21)
(1.02329 0.000761828 2.03403e-21)
(1.02194 0.000302454 9.36141e-22)
(1.04067 -0.0103592 0)
(1.01928 0.000121469 -3.01052e-22)
(1.04647 0.00140576 1.09157e-20)
(1.08159 0.0627737 -5.86256e-20)
(1.03564 -0.000714916 -3.77782e-21)
(1.05175 -0.0236874 1.22277e-20)
(1.09916 0.0255555 -3.1683e-20)
(1.08861 -0.0228447 1.78224e-20)
(1.05864 -0.00177478 0)
(1.0203 -0.00473236 0)
(1.00941 -0.00752263 4.40267e-21)
(1.03267 -0.00855834 2.91359e-21)
(1.05146 -0.022435 -4.84531e-21)
(1.02195 0.000368268 0)
(1.09993 -0.00288603 -2.82746e-22)
(1.02424 0.00208946 1.26217e-21)
(1.02041 -0.0020084 -2.2871e-21)
(1.02386 0.00233299 1.4243e-21)
(1.04303 -0.00829852 0)
(0.970077 -0.0233971 -3.7816e-21)
(1.01231 0.000759359 0)
(1.03563 0.00531804 0)
(1.14486 0.0178702 6.23026e-20)
(1.02031 -0.00164186 1.95088e-21)
(1.05841 -0.0016447 9.49547e-21)
(1.07387 0.014612 0)
(1.024 -0.000316764 -8.55884e-22)
(1.02467 -0.00188051 3.01603e-22)
(1.02324 -0.00161976 0)
(1.0189 -0.00544243 1.05172e-21)
(1.07633 0.023383 0)
(1.04001 -0.0115188 0)
(1.02321 0.000620219 2.52272e-21)
(1.02254 0.00394321 -1.02892e-21)
(1.0236 -0.000613734 0)
(1.02443 0.00250518 -1.0413e-21)
(1.03707 -0.00801545 -1.04642e-21)
(1.02454 -0.000744899 -7.64834e-23)
(1.03162 -0.0151716 -4.48101e-23)
(1.02413 -0.000989632 0)
(1.06418 -0.0183321 1.05726e-20)
(1.02325 0.000664154 -2.01386e-21)
(1.09994 0.0316907 -2.93039e-20)
(1.02069 -0.000377525 -8.62275e-22)
(0.873037 0.0412352 0)
(1.03213 -0.00883759 -6.90539e-22)
(1.02363 -0.00155665 0)
(1.02436 0.00245797 1.14039e-21)
(0.708998 -0.0884872 -3.38404e-20)
(1.08777 -0.023557 -7.60481e-23)
(1.02517 0.00216895 0)
(1.02505 0.00260123 0)
(1.02265 0.00528259 1.00298e-21)
(1.08543 -0.00498892 -1.78897e-20)
(0.743269 0.0588119 -6.22057e-20)
(1.08364 -0.0551525 0)
(1.02174 0.000528689 0)
(1.01837 -0.000168047 1.31649e-21)
(1.02062 -0.000352404 9.85024e-22)
(1.02472 0.00198043 9.35195e-22)
(1.01888 -0.00396256 -3.50649e-22)
(1.01897 -9.05821e-05 0)
(1.03528 -0.000152733 1.77665e-21)
(1.02931 0.0034373 0)
(1.03212 -0.0472975 -3.76706e-22)
(1.01876 -2.33166e-05 -5.34246e-22)
(1.05266 -0.0163022 0)
(1.02594 0.00169043 0)
(1.02625 -0.00277136 -8.48158e-23)
(1.046 0.00224377 -5.41895e-21)
(1.06924 0.00285615 -8.70811e-21)
(1.04569 -0.0117237 9.22419e-22)
(1.09393 0.00255926 0)
(1.05929 -0.0244882 0)
(1.08962 0.0264613 -1.7005e-20)
(1.02887 -0.0142261 7.68008e-22)
(1.107 -0.0199207 4.87075e-20)
(1.02764 -0.00897532 7.46647e-22)
(1.09805 -0.00178207 2.75528e-22)
(1.0502 -0.0267384 -7.95582e-21)
(1.04078 -0.0111466 4.23592e-21)
(1.07477 0.0219184 0)
(0.789123 0.0539081 -7.62437e-21)
(1.00875 -0.00475069 -1.46446e-21)
(1.0261 -0.00107158 9.0279e-23)
(1.02212 -0.00105433 -1.69936e-21)
(1.0763 -0.0179514 -3.37182e-20)
(1.1017 0.0444744 -3.73986e-20)
(1.02555 -0.00358447 -2.096e-22)
(0.884438 -0.150949 -8.77295e-22)
(0.994485 0.0486075 -2.58601e-21)
(1.02417 -0.00697318 0)
(1.0296 0.00372674 0)
(1.08466 0.0288564 0)
(1.13693 -0.033414 0)
(0.741813 0.0276779 -1.0729e-20)
(0.869011 0.265355 -2.37233e-21)
(1.03111 -0.014958 -1.01311e-22)
(1.024 -0.00684094 0)
(0.814342 0.0629663 -5.61763e-21)
(1.10489 -0.0213845 -2.44312e-20)
(1.11178 -0.0500348 0)
(0.938006 -0.148732 0)
(1.0876 -0.0267141 3.67371e-20)
(1.10163 0.044819 -5.85075e-21)
(1.02328 0.000410185 0)
(1.1343 -0.0347027 0)
(-0.0124614 0.0813399 9.75292e-20)
(1.03654 -0.00788333 9.21618e-22)
(1.02891 -0.0139942 4.4282e-22)
(1.01231 0.00137828 1.37814e-21)
(1.08624 0.0145409 0)
(1.09284 0.00123535 0)
(1.02952 0.00312247 7.84199e-22)
(1.0259 0.00495435 6.76134e-23)
(1.02013 -0.00169605 1.03405e-21)
(1.02011 0.000632034 1.62308e-23)
(1.03259 0.00095535 1.56276e-22)
(1.04534 -0.0109979 -7.52341e-22)
(1.05153 -0.00207804 -6.39401e-21)
(1.02271 0.000522231 -3.14267e-24)
(0.969119 -0.0162088 0)
(1.09827 0.0323061 6.12655e-21)
(1.06046 0.00225943 -1.15267e-20)
(1.03809 0.00569561 -1.70289e-22)
(-0.0457508 0.0347823 -6.12686e-20)
(1.08589 0.0166155 -2.54715e-20)
(1.01929 -0.00013028 0)
(0.648042 -0.0908677 -2.47106e-20)
(1.01887 0.000200145 0)
(1.057 0.0153222 -1.49311e-20)
(1.01933 -0.000113674 -9.73606e-22)
(1.02799 0.00187578 0)
(1.07164 0.020489 0)
(0.743854 0.059037 1.63974e-20)
(1.05693 -0.0302109 6.44762e-21)
(1.06031 -0.0125557 0)
(1.13273 0.036876 0)
(0.779981 0.0558615 -8.15424e-21)
(1.0035 -0.0222453 0)
(1.02539 -0.00367474 1.0884e-21)
(1.08666 -0.0158078 1.86004e-20)
(1.10444 -0.0121223 -3.1988e-20)
(-0.0860333 0.0102866 0)
(1.07553 -0.0186274 1.06763e-20)
(1.02926 0.00292923 -8.20403e-22)
(1.04569 -0.0288951 0)
(1.07746 -0.00185246 -2.39501e-20)
(0.87208 0.0506632 -6.53825e-21)
(1.06042 -0.0252622 4.87372e-21)
(1.06124 -0.0236105 -9.91935e-21)
(1.02163 -0.00647936 -7.4967e-22)
(1.08684 0.0128284 7.61844e-21)
(1.03458 -0.0131172 -8.6077e-22)
(0.762302 -0.0136882 0)
(1.12203 -0.00725525 -3.1367e-20)
(1.02652 0.00581967 5.30672e-24)
(1.01899 -0.00250588 0)
(1.04493 -0.0133612 -8.20776e-21)
(0.850967 0.242537 0)
(1.02946 0.00453232 3.8017e-22)
(1.06111 0.00305314 1.38622e-20)
(1.08338 0.0283493 2.10026e-20)
(-0.0918369 0.0200317 -6.22482e-20)
(1.02802 0.00477206 -2.16596e-23)
(1.04094 -0.0479278 0)
(1.03632 -0.00715857 -2.6793e-21)
(1.05523 0.00356143 6.97336e-21)
(1.02594 -0.00443025 8.07015e-22)
(1.03516 -0.0132746 1.50214e-21)
(1.09944 0.026967 5.69316e-20)
(1.02915 -0.00447114 0)
(1.02485 0.00614755 8.60818e-23)
(1.02184 -0.00593582 7.42634e-22)
(1.0372 -0.00870282 1.65893e-21)
(1.10808 0.00586225 0)
(1.0566 0.0146604 3.0792e-21)
(-0.0564123 0.021232 -8.44901e-20)
(1.06397 0.000849715 0)
(1.09483 0.0491047 0)
(1.02939 0.0039776 0)
(1.02944 0.00258202 0)
(1.01805 -0.000117996 9.44277e-22)
(1.10122 0.0522175 0)
(1.04226 -0.00821727 -2.22585e-21)
(1.10198 0.0537063 0)
(0.770064 0.0149619 1.17468e-20)
(1.06289 -0.0187333 -2.0971e-20)
(1.05756 0.00505535 0)
(1.04881 -0.026652 4.56476e-21)
(1.08429 0.0162796 1.1738e-20)
(1.02215 -0.000980447 2.63449e-21)
(1.05929 0.0111935 0)
(1.04425 -0.0137409 4.00193e-21)
(1.01931 -0.0625844 -3.15609e-20)
(1.02054 -0.00371379 0)
(0.98456 0.0752407 -1.01712e-22)
(1.05234 -0.00472187 -9.41769e-21)
(1.06202 -0.00773099 0)
(1.09752 0.0251004 5.17879e-20)
(1.05258 -0.0179898 -1.0086e-20)
(1.03455 -0.0202458 -1.3159e-21)
(0.815217 0.0617705 -1.88942e-20)
(0.386705 -0.0675008 5.22612e-20)
(1.07883 0.0157388 -9.99039e-21)
(1.02336 -0.00172542 0)
(0.804388 0.0434668 0)
(1.09993 0.0531244 0)
(1.02224 -0.0145455 2.97094e-22)
(0.272612 -0.0668547 2.41289e-20)
(1.0307 0.0037708 0)
(1.02205 -0.000837072 -1.99815e-21)
(1.02112 -0.000388622 -1.53216e-21)
(1.0517 -0.00146331 -7.30085e-21)
(1.02185 0.00438106 9.83507e-22)
(0.801696 0.0382738 -2.90021e-20)
(1.02193 0.00039256 1.90445e-21)
(1.03316 -0.0130202 9.68068e-23)
(1.00541 -0.0540468 -4.22712e-20)
(0.900948 0.0521727 0)
(1.08966 0.0415081 1.95832e-20)
(-0.0130572 0.0872991 0)
(1.03578 -0.00716998 0)
(1.0225 -0.0150587 -1.84896e-22)
(1.0538 -0.00540531 -1.30175e-20)
(1.06364 0.001727 0)
(0.819889 0.0395595 6.23623e-20)
(1.06538 0.0143944 2.23404e-20)
(1.10451 0.0329523 0)
(1.04387 -0.0371465 -2.63307e-21)
(-0.105887 0.0139208 0)
(1.07717 0.000228796 -2.4944e-20)
(1.07607 0.0224195 0)
(0.990708 -0.00363323 -6.57854e-21)
(1.02226 0.00094934 0)
(1.01955 -0.000236966 1.67257e-21)
(1.02085 -0.0133505 0)
(1.01795 -0.000120169 -7.48468e-22)
(1.03099 -0.000355294 3.16147e-22)
(1.11342 0.0243762 4.80284e-20)
(1.02612 0.00473874 -1.31051e-22)
(1.05557 0.0169933 1.27786e-22)
(1.07598 0.000488921 1.12378e-20)
(1.02448 -0.000725355 -1.26291e-22)
(1.08648 0.0155383 2.66758e-20)
(1.03106 -0.00932419 -1.67853e-23)
(1.07223 0.0266371 0)
(1.05417 -0.00654977 1.34833e-20)
(1.01433 0.0626625 -4.17138e-20)
(1.11528 -0.0555893 3.4477e-20)
(1.06535 0.00195735 4.02619e-21)
(1.02552 -0.00484435 -7.52646e-22)
(1.02048 0.00422855 3.39521e-21)
(1.11092 0.00640103 3.20382e-20)
(1.0279 0.0047829 -1.74152e-22)
(1.01707 -3.01872e-05 -7.65874e-23)
(1.10294 0.0423125 0)
(1.02337 0.000328877 0)
(1.03858 0.0060799 3.0797e-21)
(1.02768 0.00456273 -1.32596e-22)
(-0.0182222 0.0652116 0)
(1.03271 0.00289015 -9.47196e-22)
(0.950313 -0.113772 0)
(1.07546 -0.0208078 0)
(1.03386 0.00491961 -5.97842e-22)
(1.03466 0.00568024 -3.75959e-21)
(1.0502 -0.0251446 7.95334e-21)
(1.0559 0.00472421 0)
(1.0206 -0.00175134 0)
(1.05327 -0.0175517 5.35473e-21)
(1.07611 -0.0203112 -2.77633e-20)
(1.06501 0.013729 -1.61589e-20)
(1.07438 0.0148617 3.77221e-21)
(1.02406 -0.0006511 6.98463e-22)
(1.02412 -0.000541207 1.14432e-21)
(1.0744 -0.0136731 -2.26752e-20)
(1.09129 0.00219674 0)
(1.04234 -0.0319009 2.59313e-21)
(1.04688 0.0660408 6.20292e-20)
(0.789445 0.0379723 -4.2364e-21)
(1.02249 -0.0138257 1.93516e-21)
(1.01781 -0.000141401 -3.58806e-22)
(0.819081 0.062338 -5.4029e-20)
(1.04019 0.0111219 0)
(1.03488 0.000436513 -2.93073e-21)
(0.957733 0.0683299 7.89288e-22)
(1.03227 0.00242449 0)
(1.02331 0.00442887 0)
(1.06724 0.00244697 0)
(1.09554 0.0492862 1.85575e-20)
(1.0245 -0.00182856 -7.60812e-22)
(0.858717 0.269729 4.52392e-21)
(1.02845 0.00373572 8.78478e-23)
(0.834351 0.0608357 2.56854e-20)
(1.09966 0.0540412 2.35015e-20)
(0.723776 0.0587055 6.3711e-20)
(1.10727 0.0524793 -8.36191e-21)
(1.1319 0.00614734 0)
(1.02122 -0.0001503 -1.47192e-22)
(1.08238 0.0592958 0)
(1.06032 0.0105216 0)
(1.13291 0.0377515 -9.19107e-21)
(1.04563 -0.0120218 3.35583e-21)
(1.07501 0.022448 0)
(1.14357 0.00937571 4.34626e-20)
(0.745732 0.0592062 -5.51628e-20)
(1.02032 -0.0117154 -6.40108e-23)
(1.02124 -0.000104503 -1.61655e-22)
(0.80862 0.0621708 3.73987e-20)
(-0.039367 0.0442635 0)
(1.06355 0.0633716 -2.94314e-20)
(1.02193 0.000309244 0)
(1.04485 -0.0124477 5.59979e-21)
(1.14683 0.00936039 5.04801e-20)
(1.10534 0.0528085 1.9068e-21)
(1.02392 -0.000272457 6.23123e-23)
(1.02636 -0.00463913 2.5573e-23)
(1.07216 0.0260368 -2.22988e-20)
(1.08855 -0.0258855 -4.02494e-23)
(1.07797 0.0144759 1.02526e-20)
(1.14176 0.014447 -2.30112e-21)
(1.02491 -0.0579991 0)
(1.03026 0.00436555 -6.63145e-22)
(1.07659 0.0120481 0)
(-0.0412578 0.0431417 0)
(1.02428 0.000780639 0)
(1.02597 0.00133211 3.02233e-21)
(1.02435 0.000846954 0)
(1.06491 0.00146035 0)
(1.09024 0.000676802 0)
(1.03412 -0.0201426 0)
(1.05297 -0.0203496 1.14403e-20)
(1.02443 -0.00164026 -4.07792e-22)
(1.12037 -0.00981156 4.05011e-21)
(0.0487556 0.0377378 -1.75461e-20)
(1.07462 0.00207495 -1.29161e-20)
(1.02483 0.0656629 -3.93033e-20)
(1.01705 -3.32742e-05 4.33761e-23)
(1.03244 -0.00655634 8.00208e-22)
(0.989606 -0.0473815 0)
(0.0221809 0.0471705 0)
(1.07468 0.0269175 -1.03597e-21)
(1.01945 0.0076614 0)
(1.04568 -0.0358738 -3.51896e-21)
(1.03155 -0.00905904 0)
(1.11404 0.0259072 -3.98222e-20)
(1.00457 -0.013485 2.97175e-21)
(1.02719 -0.00356873 3.44312e-22)
(1.08914 -0.0125045 9.31174e-21)
(1.08787 0.0282047 0)
(1.05404 -0.0154394 -8.53578e-21)
(1.11703 -0.0374358 0)
(1.09835 0.0280663 -3.19487e-20)
(1.13157 0.0239092 -1.36676e-20)
(1.05771 -0.0279589 7.46553e-21)
(1.0247 0.00048882 8.96769e-22)
(1.01727 -6.65686e-06 3.58762e-23)
(1.03066 -0.0155111 0)
(1.01671 -9.82358e-06 3.76363e-22)
(1.01977 -0.000233303 -1.52547e-21)
(1.06202 -0.00829925 5.30239e-21)
(1.0304 -0.015055 0)
(1.03476 -0.0102229 0)
(1.02413 0.00257986 1.0513e-21)
(1.02602 -0.00275025 8.24773e-23)
(1.05163 -0.0632815 1.76003e-21)
(1.05917 0.0116236 -1.13132e-20)
(1.1276 0.00664137 -7.27181e-20)
(1.104 0.0521613 0)
(0.967349 -0.0629851 -3.44307e-20)
(1.08961 0.0259651 -1.30503e-20)
(1.08606 -0.012139 8.52556e-21)
(1.0739 0.0259917 -1.29523e-20)
(1.02397 0.000545231 1.87209e-21)
(1.03261 -0.00689748 1.67371e-21)
(1.0221 -0.000775768 -8.66731e-22)
(-0.0152898 0.088996 1.68153e-20)
(1.08363 0.0177262 -1.23603e-20)
(1.06228 -0.0240811 1.01364e-20)
(1.05785 -0.0284673 -7.05204e-21)
(1.08791 -0.018056 0)
(1.0531 -0.0153594 0)
(0.907352 0.164649 -4.62998e-21)
(1.08783 0.0107846 5.01325e-22)
(1.09592 0.0621448 2.12199e-20)
(1.10045 0.0328623 2.85459e-20)
(1.03418 0.00430848 -3.41477e-22)
(1.02057 0.0111941 -4.54036e-23)
(1.07304 -0.0137787 2.17543e-20)
(1.08517 -0.0110047 -8.31293e-21)
(1.0378 -0.00877313 0)
(1.07402 0.0809291 0)
(1.11654 -0.0336678 -1.14354e-20)
(1.09622 0.0564865 -2.17014e-20)
(1.01979 -0.012204 2.37312e-21)
(1.02572 -0.00342114 -9.70598e-23)
(1.07941 -0.0360194 0)
(1.00742 -0.0184754 -5.19026e-21)
(1.0239 0.000656027 -6.44333e-22)
(1.08241 0.0630074 1.39004e-21)
(1.1031 0.0348822 2.22731e-20)
(1.08547 -0.00555708 -8.6679e-21)
(1.02785 0.00201831 0)
(1.11055 -0.0144531 0)
(1.02349 0.000376201 -1.38233e-21)
(1.02833 0.00450976 1.26452e-22)
(1.09844 0.0547368 0)
(1.13999 0.0133289 -2.64453e-20)
(1.109 0.00840944 -1.43737e-20)
(1.02345 0.000386515 2.04697e-21)
(1.02356 0.000340214 1.85486e-21)
(1.02135 -8.98892e-05 -1.3911e-21)
(1.02724 -0.00437459 -2.12362e-23)
(1.01618 -0.0179614 1.44175e-21)
(1.02553 -0.00351415 4.6864e-22)
(0.878501 -0.019865 0)
(0.867272 0.152598 0)
(1.02359 0.000416741 0)
(0.0584908 0.0180753 -1.06333e-19)
(1.02637 0.00548024 0)
(1.04877 -0.0311621 -1.88358e-21)
(1.06459 -0.00717414 -3.58776e-21)
(1.03732 -0.0374684 -2.93669e-21)
(0.979476 -0.015076 5.78451e-21)
(1.01758 0.0001173 -4.90707e-22)
(1.0888 0.042956 -4.03904e-20)
(0.998371 0.0132688 2.32867e-20)
(1.10868 -0.0179183 3.08041e-20)
(1.02503 0.00518379 0)
(0.761112 0.0606133 -3.30893e-20)
(1.12658 0.0530229 6.7623e-20)
(1.03645 -0.0118135 -9.00198e-22)
(1.01739 0.00993674 0)
(1.10637 -0.0071847 -1.70722e-20)
(1.05881 -0.0270049 3.83345e-21)
(1.03804 -0.00600914 0)
(1.05289 -0.0054784 6.59591e-21)
(1.02315 -0.0015392 -1.20299e-21)
(1.06898 0.0035418 3.61492e-20)
(1.09874 0.029489 4.60186e-20)
(0.949059 -0.0633728 2.04985e-22)
(1.04455 0.000879737 1.21704e-21)
(1.01625 0.00938728 1.55718e-21)
(0.975613 0.0539104 2.38035e-22)
(1.0231 -0.000253063 0)
(0.893728 -0.0485762 -8.7089e-21)
(1.04436 -0.0298593 0)
(1.05598 0.017832 5.64055e-22)
(0.903824 0.20323 4.79035e-21)
(1.10626 -0.0143251 0)
(1.03065 -0.00969075 -1.72022e-22)
(1.11711 -0.0395169 2.42893e-20)
(1.05956 -0.0109764 0)
(1.1287 0.0528793 2.54896e-20)
(1.01664 -0.00013235 8.34435e-22)
(1.02623 -0.00435126 0)
(1.04076 -0.030617 0)
(1.13992 0.0078614 -1.17584e-20)
(1.08776 -0.0108769 8.53572e-21)
(1.10211 0.0406332 0)
(1.03305 -0.0118775 5.88372e-22)
(1.06101 -0.008931 -2.35131e-20)
(1.02187 -2.14037e-05 2.0999e-22)
(0.0680703 0.0168516 3.97327e-20)
(1.02432 0.0035603 -1.05844e-21)
(0.259795 -0.0772665 0)
(1.0206 -0.000378305 1.24614e-21)
(1.06782 -0.0364963 0)
(1.02129 0.00329647 1.06337e-21)
(1.02165 0.0111967 0)
(1.01969 -0.000179093 3.59318e-22)
(1.06651 0.00159457 -4.24399e-21)
(1.02436 -0.000106785 -3.73399e-21)
(1.07685 -0.0361829 -2.81584e-21)
(1.04334 -0.00902695 0)
(1.05446 -0.00587862 -3.30241e-23)
(0.599549 0.152403 -3.48596e-22)
(1.02193 -0.000389981 2.77806e-21)
(1.08685 -0.00781034 1.94785e-20)
(1.06405 -0.0231195 -6.33623e-21)
(1.05573 -0.0632086 -2.06943e-21)
(1.02223 0.000497391 -5.38169e-22)
(1.0305 0.0955616 0)
(1.0218 0.00043897 3.73711e-22)
(0.934175 0.0877904 -1.8871e-22)
(1.04945 0.0878025 0)
(0.750106 0.0610563 -1.70903e-20)
(-0.0171808 0.0821905 -2.53467e-22)
(1.004 -0.0290557 3.72999e-21)
(1.07462 0.0129738 0)
(1.09312 0.0320001 3.82997e-20)
(0.839914 0.060478 -2.73426e-20)
(1.01688 -0.000165338 1.21248e-21)
(1.05159 -0.0238708 7.0606e-23)
(1.02721 -0.0242969 -3.06807e-21)
(1.03537 7.54706e-05 0)
(1.02186 0.000178111 0)
(1.02247 -0.00673869 0)
(1.03104 -0.00963713 5.92872e-22)
(1.06768 0.0201478 -2.67456e-20)
(1.024 -0.0010069 0)
(0.759607 0.0333314 8.96279e-20)
(1.02409 -0.000862917 -8.71689e-22)
(1.02049 -0.000324579 -9.84737e-22)
(0.86609 0.0608604 1.37466e-20)
(-0.035677 0.0483467 7.03201e-20)
(1.02302 -0.000930647 0)
(1.02339 -0.00693518 0)
(1.02261 -0.000760401 0)
(1.02128 -0.000120059 1.10674e-21)
(1.02741 0.00209251 2.68138e-22)
(1.02312 0.0634885 5.38796e-20)
(1.02274 -0.00664244 0)
(1.02131 -0.0011225 8.67501e-22)
(1.02733 -0.00461106 1.10723e-22)
(1.01894 -0.000257393 -8.20606e-22)
(1.02429 -0.0016388 6.0192e-22)
(1.10054 -0.0112403 3.01478e-20)
(1.04013 -0.0140058 0)
(1.03257 -0.00594215 2.56734e-23)
(1.07585 0.0112354 0)
(1.03054 -0.0102228 -2.1796e-22)
(1.02355 -0.00625096 0)
(1.05199 0.0102381 -1.3057e-20)
(0.995881 -0.0545469 -1.24853e-22)
(1.08217 -0.0105871 8.16259e-21)
(1.14475 0.0171801 3.92262e-20)
(1.11161 0.0536371 0)
(1.02654 -0.000150576 0)
(1.0466 -0.00890226 7.06529e-21)
(1.06563 -0.0258247 0)
(0.704362 0.0593405 1.52296e-20)
(1.02287 -0.0115566 2.31684e-21)
(1.02431 -0.00256534 -6.77292e-22)
(1.02058 0.000173 -3.10534e-22)
(1.02098 -0.011214 0)
(1.03262 0.00156462 -4.95199e-22)
(1.07013 -0.0370869 -4.64451e-21)
(1.08481 -0.00955822 1.71585e-23)
(1.07271 0.0049161 0)
(1.0332 0.00603235 -3.51019e-21)
(1.10424 -0.0245176 0)
(0.811698 0.060531 -2.76437e-20)
(1.04219 -0.0180255 4.70155e-21)
(1.14038 -0.0146976 4.28455e-20)
(1.02103 -0.0592748 0)
(0.980742 0.061487 1.81854e-22)
(1.02121 -0.000182639 0)
(0.759335 0.0601234 -1.43471e-20)
(1.02295 -0.00148261 0)
(1.01795 -0.00738398 1.31759e-21)
(1.02401 -0.00118102 0)
(0.864853 0.0951764 -5.35636e-21)
(1.02798 -0.00258089 0)
(1.02485 -0.00641751 2.34801e-22)
(1.08581 0.0413346 0)
(0.898334 0.0202765 -1.25682e-20)
(0.901357 0.0518244 -4.37105e-20)
(-0.0178807 0.0791471 0)
(1.01692 -4.49818e-05 -2.04459e-22)
(1.03197 -0.00231596 0)
(1.07398 0.0341941 7.73251e-20)
(1.07096 -0.0133581 -2.48016e-20)
(1.06256 0.0663129 -4.52038e-21)
(1.0297 0.00426892 6.06472e-23)
(1.03323 -0.0190983 4.71664e-22)
(1.0096 0.0051822 9.45527e-22)
(1.02205 -0.00213332 0)
(1.03945 -0.0133607 1.43829e-21)
(1.03209 -0.00589629 0)
(1.03645 -0.0129404 0)
(1.03308 0.00453919 1.97976e-21)
(1.02127 -8.75184e-05 7.0794e-22)
(1.10161 0.0145203 -3.35185e-22)
(1.02121 -8.78106e-05 -3.39965e-22)
(1.06716 0.0209921 0)
(1.02222 -0.000583838 0)
(1.02198 -3.55379e-05 1.48452e-21)
(1.04027 0.0100768 5.74392e-21)
(1.01905 -0.000160655 -3.28093e-22)
(0.26213 -0.0660782 0)
(1.0351 -0.0352678 -8.45729e-22)
(1.03854 0.00401868 2.20849e-22)
(0.989927 0.0106919 -3.99756e-20)
(1.02153 -0.000726049 -3.69276e-21)
(1.09657 0.0542232 5.30489e-21)
(0.687421 0.0298714 1.23251e-20)
(1.0184 -0.0196482 -5.73073e-21)
(1.01861 0.00748801 0)
(1.03903 0.00436202 3.41911e-21)
(1.09871 -0.0493767 0)
(1.07317 0.0276528 0)
(1.01888 -0.000166045 -1.90944e-21)
(-0.0350959 0.0474134 -7.56474e-20)
(1.10043 0.0434435 5.38907e-20)
(1.05278 0.0100062 8.82427e-21)
(0.474784 -0.0930534 0)
(1.02416 -0.00261922 0)
(1.06399 -0.0255348 0)
(1.01894 -0.000246073 -2.22782e-22)
(1.0693 -0.0348243 6.13508e-21)
(1.03579 -0.020899 0)
(1.02399 -0.000394081 8.94919e-22)
(1.09717 0.0242414 -4.03508e-20)
(1.02873 0.00191088 7.99958e-22)
(1.07025 -0.00616794 -1.18511e-20)
(1.04187 -0.0261996 2.53491e-21)
(1.08955 0.0410856 -1.02011e-20)
(1.10166 -0.024823 0)
(0.988144 0.0165359 1.89552e-21)
(1.04173 0.00130209 -2.20413e-21)
(1.00468 -0.0145788 0)
(0.986636 0.0149638 -5.70059e-21)
(0.987772 -0.0543881 9.97475e-23)
(1.03997 -0.0206604 -1.60663e-21)
(0.929363 -0.0689283 -8.90128e-20)
(1.02386 -0.00115002 1.49418e-22)
(1.09399 0.0304766 -5.48022e-20)
(1.02384 0.0080283 0)
(1.13393 -0.0352323 0)
(1.03305 -0.0188154 3.88811e-22)
(1.09593 0.0290597 1.40808e-20)
(1.02471 -0.00037389 6.53587e-23)
(0.560077 -0.13797 2.27984e-21)
(1.02388 -0.00256884 1.28074e-21)
(1.07575 0.00190144 -1.43239e-20)
(0.150961 0.00735346 -8.90012e-20)
(1.06365 -0.00834542 -7.47028e-22)
(1.02193 -0.000703905 -9.36951e-22)
(0.097013 0.0174827 0)
(1.06748 -0.0356705 4.98499e-21)
(1.02378 -0.00241007 0)
(1.03371 0.00511061 -2.81479e-21)
(1.10646 0.00745484 -6.82356e-21)
(0.935377 0.078813 2.16109e-22)
(1.14442 -0.00273026 0)
(1.02636 2.61612e-05 7.86384e-23)
(0.925977 0.0714137 -4.21792e-22)
(1.02079 -0.00633321 0)
(1.07377 -0.0239144 2.27877e-20)
(1.05576 0.00554397 0)
(0.7168 -0.00481391 5.2614e-21)
(1.02403 -0.000371225 1.70207e-21)
(1.02032 -0.00301542 0)
(1.02017 -0.000193613 -1.44802e-21)
(1.01099 -0.00652327 1.49026e-21)
(1.07204 -0.0129951 3.13559e-20)
(1.14608 -0.00554476 1.28997e-20)
(0.959238 -0.104538 1.30575e-20)
(1.05048 -0.00291364 0)
(1.03842 -0.00548976 0)
(1.02028 -0.00594017 0)
(1.04056 0.00932604 -5.88793e-22)
(1.02222 0.0101688 0)
(0.777842 0.0597164 0)
(1.04653 -0.00762467 0)
(1.02424 -0.0171739 0)
(1.0326 -0.0116513 5.91356e-22)
(1.0219 -0.000672833 -9.14554e-24)
(1.03264 -0.0110908 -1.7251e-21)
(1.01792 -0.0960863 4.51014e-21)
(1.10637 -0.00728518 0)
(1.14153 0.00908815 2.70126e-20)
(1.02214 -0.000839065 1.86161e-21)
(1.04965 -0.00319414 4.5131e-21)
(1.02466 0.0048893 -2.03263e-21)
(1.04699 -0.00952409 -3.62954e-21)
(1.04193 -0.00772913 2.07461e-21)
(1.11257 0.00950222 0)
(1.02296 0.0102524 3.94526e-24)
(1.03287 0.00437252 -1.13602e-21)
(-0.0169498 0.0784701 2.93177e-20)
(1.13058 0.021756 0)
(0.978607 0.0804999 1.23854e-22)
(1.02868 0.00410064 -3.41205e-22)
(1.02217 -0.000838168 -1.80832e-21)
(0.829052 0.0614164 -6.77161e-20)
(1.07433 -0.0375792 9.16873e-21)
(1.02228 -0.000978864 3.09295e-23)
(0.96544 -0.120217 -3.81399e-21)
(1.02179 -0.011252 2.00263e-21)
(0.976239 0.0422141 -3.53901e-22)
(1.10235 0.0121807 0)
(1.04229 -0.00265443 0)
(1.03379 0.00617805 2.66567e-21)
(0.939793 -0.0360602 6.36465e-20)
(1.11012 0.0538426 1.63228e-20)
(1.00673 -0.0165737 5.75804e-21)
(1.03798 -0.0298456 0)
(1.01961 -0.000266963 1.35224e-21)
(1.0119 -0.0115438 0)
(1.09782 0.0213628 -2.00748e-20)
(0.718926 0.057083 -2.19215e-20)
(1.01978 0.00402137 -1.73715e-21)
(1.1022 0.0114628 5.55106e-20)
(1.09687 0.0563068 3.20705e-20)
(1.10436 -0.0111829 0)
(1.10844 0.0054635 4.57484e-20)
(0.728576 0.0600893 0)
(0.834086 0.0619896 2.27912e-20)
(1.02587 -0.0014448 2.2212e-24)
(1.06087 -0.00960609 1.49612e-20)
(1.09204 0.0259929 -1.79264e-20)
(1.02318 -0.0166427 -2.49728e-21)
(1.03249 -0.00265715 -1.79296e-21)
(1.02326 0.00897477 0)
(1.08486 0.0299118 -9.34739e-21)
(0.180175 0.00779813 -2.31224e-20)
(1.02082 -0.00167837 0)
(1.05558 0.00250402 5.06637e-21)
(1.06029 -0.0318026 9.48112e-21)
(0.68896 0.0769538 -6.87476e-21)
(1.02758 -0.0119665 -8.01433e-22)
(1.02932 -0.0422848 0)
(1.08052 -0.0332842 3.67867e-22)
(1.08232 -0.00895044 0)
(1.01712 -8.90169e-05 0)
(1.00784 -0.0168165 0)
(0.772935 0.0617603 -2.1791e-20)
(1.09501 -0.0474525 0)
(1.13359 -0.0221717 6.47558e-20)
(1.04305 -0.0167498 -6.30463e-21)
(1.01922 -0.00401571 1.3503e-23)
(0.0687872 -0.00219275 -2.98204e-20)
(0.930318 0.0592691 -3.57833e-22)
(-0.0180319 0.0327697 0)
(1.0701 -0.00745994 -6.13987e-21)
(1.08676 -0.00718399 -1.00811e-20)
(0.993098 0.0543461 -6.68618e-20)
(1.02416 0.000138705 -6.33755e-22)
(1.0261 -0.000886203 8.79484e-23)
(1.09493 0.0395417 -3.85558e-20)
(0.940268 -0.068152 5.8448e-21)
(1.04698 -0.0081449 -8.07801e-21)
(1.02407 9.31312e-05 -2.07674e-21)
(1.07231 -0.0335007 -2.11872e-20)
(1.02333 -0.00131604 7.19916e-22)
(1.02432 -0.00195385 -1.92264e-22)
(1.02273 -0.00116291 0)
(0.997843 0.0634462 2.47665e-20)
(1.02315 0.00022989 0)
(1.0509 0.0110332 3.22056e-21)
(0.950688 -0.0357017 -3.08655e-20)
(1.03637 0.00549123 1.28942e-21)
(1.10662 0.0490097 -1.87194e-20)
(1.02188 0.000213784 0)
(1.04122 -0.0191586 -1.96164e-21)
(1.0319 0.00185214 8.87387e-22)
(1.02311 0.000251591 0)
(1.14719 -0.00124925 -2.78371e-20)
(1.04481 0.0339796 -1.72656e-20)
(1.04051 0.0106027 -4.30338e-21)
(1.02726 0.00227816 0)
(1.0271 0.00383795 -1.2485e-22)
(1.13136 -0.0198156 -2.26854e-20)
(1.02593 -0.000876539 -8.42936e-23)
(1.02437 -0.00210159 -2.15725e-22)
(1.07602 0.0134117 0)
(0.999639 -0.0513882 0)
(1.03215 0.0315781 6.20601e-20)
(1.02347 -0.00149116 -4.57613e-22)
(1.08123 0.00701687 4.14402e-22)
(1.02559 -0.00123694 0)
(1.01724 -0.00110947 0)
(1.09086 0.0278556 0)
(0.999971 -0.0668928 -7.08183e-22)
(0.935714 -0.0487156 0)
(1.01904 -0.0600654 0)
(1.02213 -0.000785662 0)
(1.02462 -0.0166501 -3.08992e-22)
(1.02218 -0.000866802 1.9877e-21)
(1.00756 -0.0693482 1.54079e-21)
(1.032 -0.00279819 2.05847e-21)
(1.05866 -0.0329654 -4.00022e-21)
(1.04993 0.0147135 6.48335e-21)
(0.971555 -0.0780482 0)
(1.10136 0.028499 0)
(1.0288 -0.00857789 0)
(1.0683 0.00666682 0)
(0.926886 0.0817095 1.39202e-22)
(1.04349 -0.026764 0)
(1.01737 -0.00105179 0)
(1.07519 -0.0162762 -5.16939e-21)
(1.10127 0.00987291 -5.55962e-20)
(0.782723 0.037316 -4.6518e-20)
(1.02678 -0.0126976 0)
(1.02624 -0.0207631 4.86385e-22)
(1.05859 0.00395132 1.90119e-20)
(1.08053 -0.0912378 -1.55693e-20)
(1.05823 -0.0257907 -4.31234e-21)
(1.02542 -0.0130373 0)
(1.07737 -0.0255911 -1.34342e-20)
(1.00809 -0.0109868 -3.1244e-21)
(1.06286 -0.00691286 7.08321e-21)
(1.06837 0.00188737 9.57793e-21)
(1.05145 -0.00514475 1.56186e-20)
(0.961445 0.0959963 0)
(1.10664 0.0491649 -1.81141e-20)
(1.11134 0.047671 -2.65354e-20)
(1.05189 -0.00807178 0)
(1.02846 -0.00821928 -8.6925e-23)
(-0.0500428 0.00878544 -4.72718e-20)
(1.08461 -0.0208675 0)
(1.01984 -0.000108766 1.59693e-21)
(1.04723 0.0662092 -2.32892e-21)
(1.10298 0.0351091 -3.73395e-20)
(1.02902 -0.0136705 1.25089e-21)
(1.02397 -0.00118528 0)
(1.07644 -0.0172165 2.87545e-20)
(1.01948 -6.82099e-05 1.87742e-21)
(0.962542 -0.0661323 0)
(1.02899 0.00450382 3.40156e-22)
(1.02213 -0.000818759 9.04394e-22)
(1.03978 -0.0214442 2.02648e-21)
(1.0257 -0.00404813 -1.47544e-22)
(1.07749 -0.0332621 2.75381e-20)
(1.03723 -0.0170276 -2.07124e-21)
(1.05554 0.0189625 -5.47743e-22)
(1.04396 -0.00316874 0)
(0.932784 0.0680245 0)
(1.03559 -0.00661329 0)
(0.984203 0.0564947 4.77961e-22)
(1.01321 -0.00403892 1.14373e-21)
(1.07106 0.0254006 -2.05789e-20)
(1.02213 -0.000733185 2.06166e-21)
(1.03014 -0.0103951 1.11119e-22)
(1.09283 0.026865 0)
(1.04907 -0.00278116 4.4118e-21)
(1.0191 -0.000161956 -2.62492e-22)
(1.064 0.0136267 1.6739e-20)
(1.09932 -0.00897437 -3.62867e-20)
(0.276681 0.0471063 -1.12425e-20)
(1.08453 -0.0244219 -5.4596e-22)
(1.0641 0.0232932 0)
(1.01993 -0.000104121 0)
(1.03152 -0.032765 -9.86406e-22)
(0.295498 0.0213273 -1.43737e-20)
(1.03505 -0.00661064 0)
(1.01747 -0.000101563 4.08114e-24)
(1.01887 -0.0107587 4.09589e-22)
(1.03227 0.00212254 -1.8394e-21)
(0.93088 -0.0257769 0)
(0.946378 0.0419523 1.16906e-20)
(1.08533 -0.00879214 0)
(1.09153 0.0504837 3.58714e-20)
(1.01414 0.00330753 -7.51118e-22)
(0.00420116 0.049115 -2.21489e-21)
(0.554392 -0.104041 -1.3011e-20)
(1.10948 0.0596994 0)
(1.08533 -0.0269977 -2.69583e-20)
(1.02542 -0.00125213 0)
(0.121877 0.0222054 5.70227e-20)
(1.0094 -0.0422287 0)
(1.02571 -0.00145271 0)
(1.01938 -0.000622835 2.557e-21)
(1.05944 0.00344505 8.66325e-21)
(1.02228 -0.0427833 -5.01126e-22)
(0.709283 0.115301 4.95732e-21)
(1.04378 0.00610744 6.30587e-21)
(1.02909 -0.0141637 -9.29026e-22)
(1.02155 -8.97958e-05 -1.1426e-21)
(1.03961 -0.0311951 2.03618e-21)
(1.08339 -0.0111077 -8.47494e-21)
(1.00849 -0.0679934 -1.46323e-21)
(1.11037 -0.0224855 -4.75412e-20)
(1.01925 -6.74032e-05 5.86989e-22)
(0.961062 0.0619229 -5.51405e-20)
(1.04558 -0.00207334 2.56595e-21)
(0.415873 -0.0928597 -6.07226e-21)
(1.01535 0.00364494 0)
(1.10633 0.0342814 -1.49216e-20)
(1.02054 -0.000311993 0)
(1.02183 -0.00263212 7.06879e-22)
(1.02627 -0.039156 0)
(1.05842 0.00481034 -1.09421e-20)
(0.995418 -0.072255 -1.30986e-21)
(1.02536 -0.0131615 1.03558e-22)
(1.04606 0.00518795 -3.88011e-21)
(1.06467 -0.024109 2.02013e-20)
(1.02212 -0.000800359 -9.42009e-22)
(1.02063 -0.00349706 -1.40728e-21)
(1.05739 -0.0488297 -2.65433e-20)
(1.01969 -7.50125e-05 0)
(1.02201 -0.000167685 1.76695e-21)
(1.02092 -0.00359779 -7.16831e-22)
(1.04294 -0.0139189 0)
(1.0208 0.00311496 0)
(1.07327 -0.024767 2.02167e-20)
(1.02686 0.00223517 0)
(1.09781 0.0536117 -4.88934e-20)
(1.02232 -0.00141932 -2.86903e-21)
(1.01491 -0.012276 0)
(1.02469 -0.0048907 7.92527e-22)
(1.08517 0.0323222 -2.13827e-20)
(1.08706 0.00759098 0)
(1.02572 -0.00454562 5.05063e-22)
(1.00229 0.0040332 7.21858e-22)
(1.13078 0.0257497 5.24769e-20)
(1.04306 -0.017532 -2.50974e-21)
(0.594752 -0.132417 0)
(1.02474 -0.0064403 -4.95108e-22)
(1.14325 -0.00776036 2.19668e-20)
(1.0569 0.0042512 0)
(1.01716 -0.0141457 4.2039e-22)
(1.05039 -0.00601174 2.54516e-21)
(1.05908 -0.00487954 0)
(1.11135 0.0473435 3.36552e-20)
(0.997347 -0.0657763 9.31456e-22)
(0.649681 0.140317 -5.10238e-21)
(0.0137111 0.0219233 -3.81967e-20)
(0.167029 -0.0557691 0)
(1.06853 0.00569919 0)
(0.997791 -0.0403367 2.28417e-21)
(1.04556 0.00476355 3.74581e-21)
(0.611612 -0.107285 1.52963e-20)
(0.864157 0.250229 -2.85676e-21)
(1.02462 0.000334761 1.86374e-21)