/*--------------------------------*- C++ -*----------------------------------*\
| =========                 |                                                 |
| \\      /  F ield         | OpenFOAM: The Open Source CFD Toolbox           |
|  \\    /   O peration     | Version:  v2012                                 |
|   \\  /    A nd           | Website:  www.openfoam.com                      |
|    \\/     M anipulation  |                                                 |
\*---------------------------------------------------------------------------*/
FoamFile
{
    version     2.0;
    format      ascii;
    class       volVectorField;
    location    "100";
    object      U_0;
}
// * * * * * * * * * * * * * * * * * * * * * * * * * * * * * * * * * * * * * //

dimensions      [0 1 -1 0 0 0 0];


internalField   nonuniform List<vector> 
14315
(
(1.00174 0.0488591 3.11675e-21)
(1.11858 -0.037371 -4.15934e-20)
(1.01917 -0.00425605 -4.92413e-22)
(1.05517 0.00357837 -1.86439e-21)
(1.05476 -0.00784957 -7.01959e-21)
(1.0284 0.00165536 1.38009e-22)
(1.03021 -0.00258287 -3.18905e-22)
(1.03285 -0.0126282 -6.04965e-22)
(1.06504 0.0640366 8.7177e-20)
(1.01124 -0.0114051 0)
(1.01093 0.00361934 1.21396e-21)
(1.00598 -0.0255943 1.45487e-21)
(1.08658 -0.0546423 -5.42875e-21)
(1.034 0.00560691 1.19372e-21)
(1.03017 -0.00307524 0)
(1.03228 -0.0072498 1.25509e-21)
(1.02589 -0.00114052 -8.48291e-23)
(0.774327 0.0614193 2.77144e-20)
(1.0222 -0.00123697 9.21637e-22)
(1.03242 -0.00769311 0)
(1.07889 -0.00142903 0)
(1.02769 -0.00848165 0)
(1.01953 -2.04737e-05 2.19413e-22)
(1.01018 0.00262629 -2.84884e-21)
(1.14537 0.0191434 -6.56705e-20)
(1.03585 0.00548752 -1.18454e-21)
(1.11576 -0.0261212 1.97829e-20)
(1.00957 -0.0100748 -1.34963e-21)
(1.1152 -0.0282653 0)
(1.02333 0.000376818 0)
(1.0774 0.0239606 0)
(1.02323 0.000695666 -2.21076e-21)
(-0.068703 0.0197523 9.71543e-20)
(1.05616 -0.030564 8.018e-22)
(1.04093 -0.0108862 -6.77782e-21)
(1.02329 0.000761359 2.02705e-21)
(1.02194 0.000304818 9.27438e-22)
(1.04067 -0.0103587 0)
(1.01929 0.000122894 -3.03449e-22)
(1.04647 0.0014062 1.10388e-20)
(1.08158 0.0628307 -5.87698e-20)
(1.03563 -0.000715289 -3.86447e-21)
(1.05174 -0.0236993 1.2303e-20)
(1.09915 0.0255624 -3.17871e-20)
(1.08862 -0.0227948 1.78607e-20)
(1.05865 -0.00176849 0)
(1.0203 -0.00470786 0)
(1.00935 -0.00732265 4.3974e-21)
(1.03267 -0.00855896 3.02253e-21)
(1.05146 -0.0224657 -4.8759e-21)
(1.02195 0.000370779 0)
(1.09992 -0.00286143 -2.83345e-22)
(1.02425 0.00208102 1.26028e-21)
(1.02039 -0.00200619 -2.2691e-21)
(1.02387 0.00233086 1.4205e-21)
(1.04302 -0.00830215 0)
(0.970213 -0.0227293 -3.78675e-21)
(1.01232 0.000860254 0)
(1.03563 0.0053191 0)
(1.14483 0.0178565 6.23831e-20)
(1.02029 -0.001621 1.93551e-21)
(1.05842 -0.00166438 9.55836e-21)
(1.07387 0.014622 0)
(1.02398 -0.000331854 -8.53243e-22)
(1.02467 -0.00187936 2.74118e-22)
(1.02324 -0.00161835 0)
(1.01889 -0.00540923 1.03924e-21)
(1.07632 0.0233815 0)
(1.04001 -0.0115205 0)
(1.02321 0.000619048 2.51388e-21)
(1.02257 0.00392896 -1.02254e-21)
(1.02358 -0.000598758 0)
(1.02444 0.00248904 -1.03748e-21)
(1.03707 -0.00801621 -1.06571e-21)
(1.02454 -0.000744759 -5.30022e-23)
(1.03163 -0.0151695 -5.17259e-23)
(1.02411 -0.000997092 0)
(1.06421 -0.0183346 1.06231e-20)
(1.02325 0.000663109 -2.00669e-21)
(1.09992 0.0316812 -2.94037e-20)
(1.02069 -0.000377258 -8.29217e-22)
(0.875 0.038995 0)
(1.03213 -0.00883961 -7.22938e-22)
(1.0236 -0.00155252 0)
(1.02438 0.00243603 1.13774e-21)
(0.708393 -0.0882003 -3.37876e-20)
(1.08778 -0.0235219 -7.4969e-23)
(1.02517 0.00212584 0)
(1.02506 0.002556 0)
(1.02269 0.00525773 9.96762e-22)
(1.08544 -0.0049657 -1.79302e-20)
(0.743315 0.0588183 -6.24064e-20)
(1.08369 -0.0548523 0)
(1.02174 0.00052877 0)
(1.01837 -0.000168012 1.30554e-21)
(1.02062 -0.000352184 9.47271e-22)
(1.02473 0.00196714 9.34332e-22)
(1.01885 -0.00392467 -3.53587e-22)
(1.01897 -9.07241e-05 0)
(1.03528 -0.000153231 1.81587e-21)
(1.02931 0.00343813 0)
(1.03157 -0.0473439 -3.73658e-22)
(1.01876 -2.28398e-05 -5.37386e-22)
(1.05267 -0.0163104 0)
(1.02594 0.00163454 0)
(1.02625 -0.00277065 -4.78255e-23)
(1.046 0.00224474 -5.48078e-21)
(1.06924 0.00286266 -8.75502e-21)
(1.04569 -0.0117258 9.31222e-22)
(1.09393 0.00258511 0)
(1.05929 -0.0245054 0)
(1.08962 0.0264793 -1.7076e-20)
(1.02889 -0.0142462 7.40782e-22)
(1.10703 -0.0199093 4.88458e-20)
(1.02763 -0.0089776 7.02365e-22)
(1.09804 -0.00176847 2.76112e-22)
(1.05019 -0.026778 -8.00654e-21)
(1.04077 -0.0111485 4.29145e-21)
(1.07476 0.0219054 0)
(0.791 0.0510767 -7.78619e-21)
(1.0087 -0.00463276 -1.46362e-21)
(1.02609 -0.00107187 1.2144e-22)
(1.02212 -0.00104588 -1.68082e-21)
(1.07633 -0.0179464 -3.38299e-20)
(1.10169 0.0444819 -3.75404e-20)
(1.02555 -0.00358193 -1.94152e-22)
(0.884272 -0.150954 -7.64905e-22)
(0.994882 0.0490351 -2.53693e-21)
(1.02416 -0.00696488 0)
(1.0296 0.0037281 0)
(1.08467 0.0288559 0)
(1.13684 -0.0335118 0)
(0.741364 0.0287225 -1.06716e-20)
(0.868517 0.265943 -2.46879e-21)
(1.03112 -0.0149579 -1.4526e-22)
(1.02399 -0.00683009 0)
(0.814304 0.0624751 -5.61956e-21)
(1.10493 -0.0214024 -2.44646e-20)
(1.11169 -0.0498998 0)
(0.93723 -0.148339 0)
(1.08763 -0.0266339 3.68118e-20)
(1.10162 0.0448463 -5.8721e-21)
(1.02328 0.000407677 0)
(1.13419 -0.0344831 0)
(-0.0124774 0.0813177 9.76009e-20)
(1.03654 -0.00788503 9.39754e-22)
(1.02893 -0.0140212 4.30694e-22)
(1.01233 0.00146565 1.37245e-21)
(1.08623 0.0145404 0)
(1.09283 0.00127038 0)
(1.02952 0.00312287 8.3739e-22)
(1.02592 0.00496908 6.84103e-23)
(1.02008 -0.00168455 1.04299e-21)
(1.02013 0.000634628 1.63791e-23)
(1.03259 0.000829164 1.57132e-22)
(1.04534 -0.0110009 -7.59515e-22)
(1.05152 -0.00207855 -6.44836e-21)
(1.02273 0.000525184 -3.16078e-24)
(0.969331 -0.0153425 0)
(1.09827 0.0322974 6.1488e-21)
(1.06046 0.00226359 -1.16041e-20)
(1.03809 0.00569684 -1.73523e-22)
(-0.0457731 0.0347263 -6.12939e-20)
(1.08588 0.0166328 -2.55701e-20)
(1.01929 -0.000130091 0)
(0.647378 -0.0905805 -2.4669e-20)
(1.01888 0.000201803 0)
(1.05701 0.0153248 -1.50707e-20)
(1.01933 -0.000113982 -9.71728e-22)
(1.02799 0.00187629 0)
(1.07162 0.0204771 0)
(0.743922 0.0590479 1.64684e-20)
(1.05693 -0.0302682 6.47431e-21)
(1.06031 -0.0125664 0)
(1.13282 0.0368351 0)
(0.780014 0.0567053 -8.08098e-21)
(1.0033 -0.0220708 0)
(1.02538 -0.0036721 1.01386e-21)
(1.08666 -0.015787 1.86525e-20)
(1.10443 -0.012083 -3.20551e-20)
(-0.0861223 0.0101139 0)
(1.07555 -0.0185967 1.07123e-20)
(1.02926 0.00292901 -8.76051e-22)
(1.04566 -0.0289406 0)
(1.07747 -0.00186187 -2.40559e-20)
(0.873996 0.0486804 -6.7576e-21)
(1.06044 -0.0253 4.89809e-21)
(1.06126 -0.0236513 -9.96775e-21)
(1.02162 -0.00645417 -7.37385e-22)
(1.08684 0.0128308 7.64568e-21)
(1.03457 -0.0131205 -8.82892e-22)
(0.761301 -0.0127773 0)
(1.12196 -0.00736233 -3.13936e-20)
(1.02654 0.00583633 5.37935e-24)
(1.01897 -0.00245684 0)
(1.04492 -0.0133659 -8.28724e-21)
(0.850483 0.241111 0)
(1.02946 0.00453317 4.07561e-22)
(1.06111 0.00305374 1.39557e-20)
(1.08338 0.0283467 2.11063e-20)
(-0.091943 0.0199017 -6.22717e-20)
(1.02802 0.00477297 -2.57828e-23)
(1.04034 -0.0480304 0)
(1.03632 -0.00715968 -2.73247e-21)
(1.05523 0.00355776 7.03014e-21)
(1.02594 -0.00442907 7.46221e-22)
(1.03515 -0.0132773 1.5414e-21)
(1.09943 0.0269781 5.71167e-20)
(1.02911 -0.00454409 0)
(1.02487 0.00616888 8.72624e-23)
(1.02182 -0.00590498 7.3068e-22)
(1.0372 -0.00870542 1.68966e-21)
(1.10807 0.00588012 0)
(1.05661 0.014662 3.10751e-21)
(-0.0565409 0.0211157 -8.45293e-20)
(1.06397 0.000850961 0)
(1.0948 0.0491093 0)
(1.02939 0.00397921 0)
(1.02943 0.00258193 0)
(1.01805 -0.000118326 9.42456e-22)
(1.10119 0.0522476 0)
(1.04226 -0.00822049 -2.25348e-21)
(1.10197 0.0536354 0)
(0.769451 0.0159284 1.16835e-20)
(1.06291 -0.0187392 -2.10701e-20)
(1.05756 0.0050597 0)
(1.04878 -0.0265815 4.59163e-21)
(1.08429 0.0162926 1.17868e-20)
(1.02215 -0.00097675 2.60494e-21)
(1.05929 0.0111992 0)
(1.04424 -0.0137485 4.0439e-21)
(1.01908 -0.0625522 -3.15571e-20)
(1.02054 -0.00367076 0)
(0.985004 0.0762868 -7.44602e-23)
(1.05234 -0.00472167 -9.49448e-21)
(1.06203 -0.00769776 0)
(1.09752 0.0251111 5.19614e-20)
(1.05259 -0.0179993 -1.01505e-20)
(1.03454 -0.0202368 -1.34595e-21)
(0.81521 0.0619012 -1.89172e-20)
(0.38641 -0.067531 5.21999e-20)
(1.07883 0.0157511 -1.00324e-20)
(1.02336 -0.00172415 0)
(0.80422 0.0442639 0)
(1.09991 0.0531106 0)
(1.02213 -0.0144934 3.07438e-22)
(0.272336 -0.0668955 2.40999e-20)
(1.03073 0.00366681 0)
(1.02205 -0.000830295 -1.97592e-21)
(1.02112 -0.000388722 -1.50228e-21)
(1.0517 -0.00145602 -7.36321e-21)
(1.02188 0.00438118 9.77611e-22)
(0.801674 0.0382522 -2.90336e-20)
(1.02194 0.000396984 1.88768e-21)
(1.03316 -0.0130202 1.00499e-22)
(1.00519 -0.0540746 -4.22748e-20)
(0.900901 0.0521573 0)
(1.08965 0.0415114 1.97595e-20)
(-0.01307 0.0872797 0)
(1.03578 -0.00717147 0)
(1.02257 -0.015037 -1.82694e-22)
(1.0538 -0.0054027 -1.31157e-20)
(1.06364 0.0017294 0)
(0.819892 0.0394621 6.24488e-20)
(1.06538 0.0143938 2.24961e-20)
(1.10452 0.0329411 0)
(1.04379 -0.037152 -2.65282e-21)
(-0.105964 0.0137572 0)
(1.07718 0.000247122 -2.5036e-20)
(1.07607 0.0224268 0)
(0.99095 -0.00342438 -6.59925e-21)
(1.02226 0.000949494 0)
(1.01955 -0.000236781 1.64753e-21)
(1.02075 -0.0132673 0)
(1.01795 -0.000120161 -7.48356e-22)
(1.03099 -0.000451716 3.17857e-22)
(1.11341 0.0243744 4.81414e-20)
(1.02614 0.00475309 -1.32491e-22)
(1.05557 0.0169989 1.29055e-22)
(1.07599 0.000499844 1.12845e-20)
(1.02448 -0.000725223 -1.00605e-22)
(1.08647 0.0155502 2.67793e-20)
(1.03105 -0.00932232 -1.6919e-23)
(1.07222 0.0266634 0)
(1.05417 -0.00654816 1.35826e-20)
(1.01432 0.062711 -4.18215e-20)
(1.11522 -0.0554133 3.44373e-20)
(1.06535 0.00195731 4.04948e-21)
(1.02548 -0.00486923 -7.61427e-22)
(1.02052 0.00425276 3.37537e-21)
(1.11092 0.00641487 3.21003e-20)
(1.0279 0.00478353 -2.26959e-22)
(1.01707 -2.98714e-05 -7.69627e-23)
(1.10297 0.0423131 0)
(1.02337 0.000326493 0)
(1.03858 0.00608147 3.13526e-21)
(1.02773 0.00452202 -1.33267e-22)
(-0.0182256 0.0651499 0)
(1.03271 0.00289113 -9.77225e-22)
(0.950708 -0.116699 0)
(1.07549 -0.0207767 0)
(1.03386 0.0049202 -6.1686e-22)
(1.03466 0.00568098 -3.86184e-21)
(1.0502 -0.0251702 8.00398e-21)
(1.0559 0.0047271 0)
(1.02056 -0.00175234 0)
(1.05327 -0.0175621 5.3893e-21)
(1.07615 -0.0202534 -2.78558e-20)
(1.06501 0.0137289 -1.62707e-20)
(1.07438 0.014875 3.79179e-21)
(1.02405 -0.000659623 7.00088e-22)
(1.02411 -0.000547497 1.14642e-21)
(1.07443 -0.0136296 -2.2768e-20)
(1.09129 0.0022205 0)
(1.04229 -0.0318927 2.61198e-21)
(1.04686 0.0660717 6.22527e-20)
(0.791468 0.0356806 -4.28798e-21)
(1.02258 -0.0137221 1.91186e-21)
(1.01781 -0.0001413 -3.58881e-22)
(0.819026 0.0623514 -5.41146e-20)
(1.04019 0.0111225 0)
(1.03488 0.000438309 -3.00336e-21)
(0.957994 0.0696921 8.27109e-22)
(1.03227 0.00242559 0)
(1.02335 0.00440098 0)
(1.06724 0.00245025 0)
(1.09552 0.0492775 1.8635e-20)
(1.0245 -0.00182741 -6.86249e-22)
(0.858246 0.269301 4.68724e-21)
(1.02851 0.00371948 8.7568e-23)
(0.834356 0.0608777 2.57684e-20)
(1.09966 0.054056 2.35859e-20)
(0.723822 0.0586545 6.39289e-20)
(1.10729 0.0526142 -8.38665e-21)
(1.13186 0.00617648 0)
(1.02122 -0.000150846 -1.46824e-22)
(1.08283 0.0576522 0)
(1.06032 0.0105259 0)
(1.13296 0.0376067 -9.22346e-21)
(1.04563 -0.0120262 3.38677e-21)
(1.075 0.0224493 0)
(1.14353 0.00940132 4.34932e-20)
(0.745811 0.0592409 -5.53943e-20)
(1.02027 -0.0116853 -6.32927e-23)
(1.02124 -0.000105117 -1.61288e-22)
(0.808566 0.0621968 3.74636e-20)
(-0.0393961 0.0442113 0)
(1.06355 0.0634291 -2.95067e-20)
(1.02194 0.000311163 0)
(1.04484 -0.0124547 5.65396e-21)
(1.14679 0.00938325 5.0511e-20)
(1.10532 0.0529785 1.90254e-21)
(1.02391 -0.000272395 3.7656e-23)
(1.02631 -0.00469283 2.6704e-23)
(1.07215 0.0260524 -2.24471e-20)
(1.08856 -0.0258299 -3.94029e-23)
(1.07797 0.0144855 1.03035e-20)
(1.1417 0.0144429 -2.30432e-21)
(1.02469 -0.0580118 0)
(1.0303 0.0042962 -6.63865e-22)
(1.07659 0.0120501 0)
(-0.04129 0.0430929 0)
(1.02428 0.000776553 0)
(1.02597 0.00129176 3.0121e-21)
(1.02435 0.000843239 0)
(1.06492 0.00146225 0)
(1.09024 0.0006989 0)
(1.03412 -0.0201315 0)
(1.05296 -0.0203691 1.15113e-20)
(1.02443 -0.00163933 -3.7066e-22)
(1.12038 -0.00958722 4.05521e-21)
(0.0487461 0.0377121 -1.75605e-20)
(1.07463 0.0020894 -1.29749e-20)
(1.02481 0.0656924 -3.94452e-20)
(1.01705 -3.28446e-05 4.35805e-23)
(1.03244 -0.00655744 8.28171e-22)
(0.989088 -0.0472398 0)
(0.0221332 0.047164 0)
(1.07467 0.0269283 -1.04257e-21)
(1.01951 0.00767127 0)
(1.04561 -0.0359215 -3.54286e-21)
(1.03155 -0.00906361 0)
(1.11401 0.0259202 -3.99155e-20)
(1.00447 -0.0134152 2.9471e-21)
(1.02715 -0.00362483 3.48182e-22)
(1.08917 -0.0124608 9.33141e-21)
(1.0881 0.0270535 0)
(1.05405 -0.0154465 -8.58893e-21)
(1.1169 -0.0374289 0)
(1.09834 0.028076 -3.20583e-20)
(1.13156 0.0239324 -1.36929e-20)
(1.05772 -0.0279798 7.5046e-21)
(1.0247 0.00046724 8.93294e-22)
(1.01727 -6.14389e-06 3.60744e-23)
(1.03068 -0.0155006 0)
(1.01672 -9.26647e-06 3.79477e-22)
(1.01977 -0.000233163 -1.50386e-21)
(1.06203 -0.00833975 5.3307e-21)
(1.03041 -0.0150621 0)
(1.03486 -0.010421 0)
(1.02415 0.00257477 1.04743e-21)
(1.02602 -0.00274949 4.65069e-23)
(1.05138 -0.0635403 1.76275e-21)
(1.05917 0.0116295 -1.14063e-20)
(1.12756 0.00667094 -7.27711e-20)
(1.10395 0.0522532 0)
(0.967155 -0.0629627 -3.44211e-20)
(1.08961 0.0259782 -1.31017e-20)
(1.08608 -0.0120864 8.55474e-21)
(1.07389 0.0259932 -1.30365e-20)
(1.02397 0.000541932 1.86828e-21)
(1.03261 -0.00689845 1.73e-21)
(1.0221 -0.000776743 -8.50847e-22)
(-0.015296 0.0889562 1.68261e-20)
(1.08362 0.0177401 -1.24115e-20)
(1.06232 -0.0240966 1.0185e-20)
(1.05786 -0.0285199 -7.08759e-21)
(1.08792 -0.0180679 0)
(1.05311 -0.0153647 0)
(0.908262 0.161294 -4.71997e-21)
(1.08799 0.00934813 5.03458e-22)
(1.09591 0.0621814 2.12685e-20)
(1.10042 0.0328551 2.86448e-20)
(1.03418 0.00430915 -3.51106e-22)
(1.02061 0.0112391 -4.56475e-23)
(1.07305 -0.0137498 2.18432e-20)
(1.08517 -0.0109767 -8.33614e-21)
(1.0378 -0.00877486 0)
(1.07478 0.079263 0)
(1.11647 -0.0337416 -1.14378e-20)
(1.09624 0.0564329 -2.17996e-20)
(1.01974 -0.0121769 2.34649e-21)
(1.02571 -0.00341903 -8.80363e-23)
(1.07946 -0.0359277 0)
(1.00725 -0.0183424 -5.17132e-21)
(1.0239 0.000648877 -6.43203e-22)
(1.08241 0.063065 1.39335e-21)
(1.10309 0.0348738 2.23475e-20)
(1.08547 -0.00556016 -8.68882e-21)
(1.02784 0.00201862 0)
(1.11053 -0.0143752 0)
(1.02349 0.000373639 -1.3794e-21)
(1.02832 0.00451046 1.44829e-22)
(1.09843 0.0547235 0)
(1.13994 0.013367 -2.64814e-20)
(1.10898 0.00840335 -1.44121e-20)
(1.02345 0.00038379 2.04177e-21)
(1.02356 0.000337036 1.85014e-21)
(1.02135 -9.0253e-05 -1.38524e-21)
(1.02724 -0.0043733 -2.13976e-23)
(1.01605 -0.017884 1.43006e-21)
(1.02553 -0.00351177 4.29187e-22)
(0.880355 -0.0224867 0)
(0.867948 0.148403 0)
(1.02358 0.000413278 0)
(0.0584089 0.0180261 -1.06411e-19)
(1.0264 0.00549533 0)
(1.04831 -0.0314916 -1.89263e-21)
(1.0646 -0.00719725 -3.60738e-21)
(1.03724 -0.0374936 -2.96383e-21)
(0.980146 -0.0174595 5.86189e-21)
(1.01758 0.000118296 -4.94777e-22)
(1.08879 0.0429813 -4.06009e-20)
(0.998368 0.0132637 2.33077e-20)
(1.10867 -0.0177816 3.08514e-20)
(1.02504 0.00520326 0)
(0.761069 0.0605765 -3.31796e-20)
(1.12659 0.052989 6.76749e-20)
(1.03655 -0.0119359 -8.92944e-22)
(1.01749 0.00997658 0)
(1.10633 -0.00716343 -1.8452e-20)
(1.05882 -0.0270234 3.85271e-21)
(1.03804 -0.00600893 0)
(1.05289 -0.00547731 6.6464e-21)
(1.02315 -0.00153853 -1.17203e-21)
(1.06898 0.00354924 3.63445e-20)
(1.09872 0.0294871 4.61759e-20)
(0.949595 -0.0669982 1.84763e-22)
(1.04455 0.000879306 1.23279e-21)
(1.01633 0.00945799 1.55153e-21)
(0.97603 0.0549848 2.28438e-22)
(1.0231 -0.000253012 0)
(0.895789 -0.0514125 -8.73331e-21)
(1.04433 -0.0298981 0)
(1.05598 0.0178411 5.69814e-22)
(0.904658 0.20062 4.88342e-21)
(1.10624 -0.0140791 0)
(1.03065 -0.00969661 -1.95731e-22)
(1.11698 -0.0394045 2.42979e-20)
(1.05956 -0.0109855 0)
(1.1287 0.052837 2.55075e-20)
(1.01664 -0.000132463 8.29597e-22)
(1.02623 -0.00434842 0)
(1.04071 -0.0306369 0)
(1.13988 0.0078423 -1.17748e-20)
(1.08775 -0.0108551 8.55958e-21)
(1.1021 0.0406444 0)
(1.03305 -0.0118792 6.14154e-22)
(1.06102 -0.0089339 -2.36405e-20)
(1.02187 -2.1361e-05 1.61881e-22)
(0.0679999 0.0168117 3.97637e-20)
(1.02435 0.00354481 -1.05204e-21)
(0.259631 -0.0767018 0)
(1.0206 -0.000378347 1.22196e-21)
(1.06802 -0.0364823 0)
(1.02132 0.00331053 1.05702e-21)
(1.02168 0.0112325 0)
(1.01968 -0.000178942 3.59815e-22)
(1.06651 0.00159313 -4.26865e-21)
(1.02434 -0.000131463 -3.72564e-21)
(1.07693 -0.0361038 -2.82293e-21)
(1.04334 -0.00902975 0)
(1.05446 -0.00587643 -3.26129e-23)
(0.59987 0.15204 -5.59386e-22)
(1.02195 -0.000372142 2.73919e-21)
(1.08686 -0.00772056 1.98803e-20)
(1.06408 -0.0231273 -6.3641e-21)
(1.05549 -0.0635768 -2.07717e-21)
(1.02223 0.00049962 -5.43096e-22)
(1.0315 0.0955679 0)
(1.02181 0.000441054 3.77139e-22)
(0.933938 0.0877038 -1.85016e-22)
(1.05043 0.0872788 0)
(0.750098 0.0611136 -1.71464e-20)
(-0.0171888 0.0821473 -2.53625e-22)
(1.00371 -0.0289315 3.73207e-21)
(1.07462 0.012977 0)
(1.09311 0.0320141 3.84521e-20)
(0.839928 0.0604997 -2.74321e-20)
(1.01688 -0.000165281 1.17947e-21)
(1.05159 -0.0238805 7.07127e-23)
(1.02726 -0.0248156 -3.07664e-21)
(1.03537 7.77838e-05 0)
(1.02186 0.00017921 0)
(1.02245 -0.00672789 0)
(1.03104 -0.00963926 6.41983e-22)
(1.06768 0.020151 -2.69329e-20)
(1.02399 -0.00101079 0)
(0.759652 0.0333448 8.97278e-20)
(1.02408 -0.000870909 -8.7364e-22)
(1.02049 -0.000324513 -9.52782e-22)
(0.866116 0.0609088 1.37909e-20)
(-0.0357138 0.0482987 7.03593e-20)
(1.02298 -0.000917132 0)
(1.02338 -0.00691518 0)
(1.02258 -0.000762205 0)
(1.02128 -0.000120596 1.10362e-21)
(1.02741 0.0020928 3.11183e-22)
(1.02311 0.0635342 5.40174e-20)
(1.02272 -0.00662887 0)
(1.02133 -0.00110682 8.55052e-22)
(1.02733 -0.00460977 8.97486e-23)
(1.01894 -0.000257249 -8.07289e-22)
(1.02429 -0.00163781 5.46515e-22)
(1.10055 -0.0111068 3.02143e-20)
(1.04012 -0.0140079 0)
(1.03257 -0.00594364 2.59327e-23)
(1.07585 0.0112391 0)
(1.03054 -0.0102341 -2.43898e-22)
(1.02354 -0.0062382 0)
(1.05199 0.0102433 -1.31911e-20)
(0.995392 -0.0542742 -1.44666e-22)
(1.08217 -0.0105379 8.18508e-21)
(1.14472 0.0171765 3.92703e-20)
(1.11159 0.0537232 0)
(1.02654 -0.000150931 0)
(1.0466 -0.00890539 7.13399e-21)
(1.06526 -0.0262171 0)
(0.704375 0.0604143 1.50852e-20)
(1.02298 -0.0115245 2.28618e-21)
(1.02431 -0.00256246 -6.45536e-22)
(1.02058 0.000173017 -2.594e-22)
(1.02109 -0.0111533 0)
(1.03263 0.00143678 -4.94589e-22)
(1.07038 -0.0372703 -4.68618e-21)
(1.08451 -0.0104633 1.36029e-23)
(1.07279 0.00432829 0)
(1.0332 0.00603381 -3.63167e-21)
(1.10419 -0.0245028 0)
(0.811712 0.0605998 -2.77395e-20)
(1.04218 -0.0180387 4.72796e-21)
(1.14039 -0.0145878 4.27614e-20)
(1.0208 -0.0591247 0)
(0.981243 0.062486 1.9055e-22)
(1.02121 -0.00018316 0)
(0.759338 0.0601916 -1.43964e-20)
(1.02294 -0.0014804 0)
(1.01819 -0.00811147 1.33023e-21)
(1.02401 -0.00118037 0)
(0.865539 0.0916014 -5.37256e-21)
(1.02795 -0.0026274 0)
(1.02485 -0.00640848 2.28022e-22)
(1.08579 0.0413553 0)
(0.897777 0.0208162 -1.25334e-20)
(0.901307 0.0518421 -4.37234e-20)
(-0.0178946 0.0791116 0)
(1.01692 -4.45991e-05 -2.05725e-22)
(1.03195 -0.00240415 0)
(1.07396 0.0341415 7.74176e-20)
(1.07099 -0.0133398 -2.4907e-20)
(1.06255 0.0663601 -5.25145e-21)
(1.0297 0.00427035 6.07014e-23)
(1.03323 -0.0190801 4.87345e-22)
(1.00964 0.00528832 9.43552e-22)
(1.02203 -0.00213019 0)
(1.03944 -0.0133605 1.45872e-21)
(1.03208 -0.00589764 0)
(1.03649 -0.0131839 0)
(1.03308 0.00453976 2.0447e-21)
(1.02127 -8.7165e-05 7.11056e-22)
(1.1016 0.0145286 -3.36071e-22)
(1.02121 -8.74432e-05 -3.41347e-22)
(1.06716 0.0209956 0)
(1.02219 -0.000576473 0)
(1.02198 -3.5968e-05 1.47827e-21)
(1.04026 0.0100765 5.852e-21)
(1.01906 -0.000160784 -3.25483e-22)
(0.261995 -0.0655132 0)
(1.03501 -0.0352495 -8.52768e-22)
(1.03854 0.00402004 2.2718e-22)
(0.989928 0.0106849 -4.00116e-20)
(1.02155 -0.000707353 -3.6418e-21)
(1.09655 0.0542382 5.3276e-21)
(0.68745 0.0298511 1.23387e-20)
(1.01826 -0.0196266 -5.67621e-21)
(1.01868 0.00752552 0)
(1.03903 0.00436202 3.47797e-21)
(1.09866 -0.0491493 0)
(1.07315 0.0276549 0)
(1.01888 -0.000166062 -1.89356e-21)
(-0.0351363 0.0473679 -7.569e-20)
(1.1004 0.0434571 5.40911e-20)
(1.05278 0.0100104 8.91216e-21)
(0.47421 -0.0927839 0)
(1.02416 -0.00261647 0)
(1.06402 -0.0255419 0)
(1.01894 -0.000245866 -2.19296e-22)
(1.06958 -0.0350239 6.17404e-21)
(1.03578 -0.0208868 0)
(1.02399 -0.000397998 8.96004e-22)
(1.09717 0.0242463 -4.04854e-20)
(1.02873 0.00191161 8.58031e-22)
(1.07024 -0.00622082 -1.19091e-20)
(1.04183 -0.0262144 2.55625e-21)
(1.08954 0.0410764 -1.02933e-20)
(1.10162 -0.0247614 0)
(0.988247 0.0169214 1.88747e-21)
(1.04173 0.00130211 -2.24073e-21)
(1.00458 -0.0145632 0)
(0.986733 0.0151613 -5.68414e-21)
(0.987189 -0.0540054 1.03163e-22)
(1.03995 -0.0206623 -1.62619e-21)
(0.929094 -0.0688839 -8.89523e-20)
(1.02386 -0.00114931 1.37424e-22)
(1.09398 0.0304751 -5.50178e-20)
(1.02386 0.00805198 0)
(1.1338 -0.0351841 0)
(1.03305 -0.0187951 4.04543e-22)
(1.09592 0.0290544 1.41326e-20)
(1.02471 -0.000373829 1.09542e-23)
(0.559921 -0.138298 2.34729e-21)
(1.02388 -0.00256578 1.24208e-21)
(1.07575 0.00191504 -1.43833e-20)
(0.150931 0.007323 -8.9072e-20)
(1.06366 -0.00833466 -7.51108e-22)
(1.02193 -0.000704487 -9.21398e-22)
(0.0969828 0.017464 0)
(1.06769 -0.0356902 4.97903e-21)
(1.02379 -0.00240719 0)
(1.03371 0.0051113 -2.90206e-21)
(1.10646 0.0074606 -6.84584e-21)
(0.935179 0.0791575 2.25642e-22)
(1.1444 -0.00278526 0)
(1.02636 2.66056e-05 9.73962e-23)
(0.925867 0.0725289 -4.19135e-22)
(1.02077 -0.0063031 0)
(1.07382 -0.023884 2.28634e-20)
(1.05577 0.00554891 0)
(0.715997 -0.00372778 5.23994e-21)
(1.02403 -0.000376643 1.70321e-21)
(1.02032 -0.00296915 0)
(1.02018 -0.000193311 -1.43179e-21)
(1.01095 -0.00639602 1.4798e-21)
(1.07206 -0.0129712 3.14866e-20)
(1.14602 -0.00534099 1.17337e-20)
(0.960268 -0.106794 1.30574e-20)
(1.05048 -0.0029066 0)
(1.03842 -0.00548901 0)
(1.02026 -0.00591224 0)
(1.04056 0.00932775 -5.99133e-22)
(1.02225 0.0102133 0)
(0.7779 0.0597266 0)
(1.04653 -0.0076275 0)
(1.02429 -0.0171173 0)
(1.0326 -0.0116524 6.19491e-22)
(1.0219 -0.000673173 -9.31742e-24)
(1.03264 -0.0110944 -1.80985e-21)
(1.01831 -0.0970041 4.49593e-21)
(1.10633 -0.00731991 0)
(1.14148 0.00910859 2.70494e-20)
(1.02214 -0.000837474 1.8396e-21)
(1.04965 -0.00318721 4.55467e-21)
(1.0247 0.00486664 -2.02364e-21)
(1.04699 -0.00952677 -3.66326e-21)
(1.04193 -0.00773289 2.10038e-21)
(1.11255 0.00953945 0)
(1.02299 0.0102907 4.07275e-24)
(1.03286 0.00437332 -1.17488e-21)
(-0.0169665 0.0784383 2.93376e-20)
(1.13054 0.0218104 0)
(0.979063 0.0814761 9.06704e-23)
(1.02868 0.00410147 -3.74673e-22)
(1.02217 -0.000839492 -1.77414e-21)
(0.82901 0.0613958 -6.78718e-20)
(1.07462 -0.0378339 9.26148e-21)
(1.0223 -0.00096094 3.10516e-23)
(0.96613 -0.121976 -3.79508e-21)
(1.02176 -0.0112395 1.97469e-21)
(0.97653 0.0429743 -3.82344e-22)
(1.10234 0.012192 0)
(1.04229 -0.0026557 0)
(1.03379 0.0061794 2.75164e-21)
(0.939661 -0.0361449 6.36613e-20)
(1.11008 0.0539057 1.63699e-20)
(1.00661 -0.0164639 5.73802e-21)
(1.03793 -0.0298523 0)
(1.01961 -0.000266843 1.31551e-21)
(1.01182 -0.0115348 0)
(1.09781 0.0213648 -2.01358e-20)
(0.718849 0.0569989 -2.19859e-20)
(1.01982 0.00406821 -1.72731e-21)
(1.10219 0.0114794 5.56461e-20)
(1.09687 0.0562889 3.22062e-20)
(1.10431 -0.0111453 0)
(1.10842 0.00549696 4.5838e-20)
(0.728556 0.060108 0)
(0.833983 0.0620856 2.28349e-20)
(1.02587 -0.0014446 4.15676e-24)
(1.06088 -0.00959505 1.50431e-20)
(1.09203 0.0260031 -1.79954e-20)
(1.02325 -0.0165783 -2.468e-21)
(1.03249 -0.00265653 -1.8523e-21)
(1.02329 0.00900585 0)
(1.08485 0.0299114 -9.39207e-21)
(0.180161 0.00777433 -2.31415e-20)
(1.02084 -0.00165415 0)
(1.05558 0.00250523 5.10583e-21)
(1.06032 -0.0318327 9.44471e-21)
(0.689108 0.0779829 -6.80569e-21)
(1.02747 -0.0120436 -8.37119e-22)
(1.0292 -0.0422185 0)
(1.08011 -0.0341531 3.63724e-22)
(1.08231 -0.00902506 0)
(1.01712 -8.87741e-05 0)
(1.00769 -0.0168407 0)
(0.772905 0.0617533 -2.18541e-20)
(1.09502 -0.0473524 0)
(1.13353 -0.0221669 6.478e-20)
(1.04304 -0.0167634 -6.36985e-21)
(1.01919 -0.00399405 1.31709e-23)
(0.0686563 -0.00236943 -2.98282e-20)
(0.93024 0.0607979 -3.72618e-22)
(-0.0181129 0.0327371 0)
(1.07011 -0.00746591 -6.16817e-21)
(1.08677 -0.0071472 -1.02945e-20)
(0.993072 0.0543085 -6.69601e-20)
(1.02415 0.000130398 -6.33446e-22)
(1.0261 -0.000885844 1.20942e-22)
(1.09492 0.0396495 -3.87259e-20)
(0.939638 -0.0677565 5.85672e-21)
(1.04698 -0.0081477 -8.15282e-21)
(1.02407 8.56016e-05 -2.07653e-21)
(1.07263 -0.0337425 -2.13936e-20)
(1.02332 -0.00131215 7.23736e-22)
(1.02432 -0.00195245 -1.75671e-22)
(1.02273 -0.00116323 0)
(0.99784 0.0635206 2.48386e-20)
(1.02314 0.000228201 0)
(1.0509 0.011039 3.25478e-21)
(0.950538 -0.0357917 -3.08721e-20)
(1.03637 0.00549267 1.31977e-21)
(1.10665 0.0491229 -1.72374e-20)
(1.02188 0.000216465 0)
(1.04121 -0.0191581 -1.98379e-21)
(1.0319 0.00185383 9.17352e-22)
(1.02311 0.000250503 0)
(1.14717 -0.00122916 -2.7503e-20)
(1.04479 0.0339323 -1.72862e-20)
(1.04051 0.0106013 -4.3835e-21)
(1.02726 0.00227885 0)
(1.0271 0.00383808 -1.77441e-22)
(1.13129 -0.0197545 -2.27624e-20)
(1.02593 -0.000875714 -1.15915e-22)
(1.02437 -0.00210005 -1.99523e-22)
(1.07602 0.0134165 0)
(0.999266 -0.0512394 0)
(1.03214 0.0315374 6.21296e-20)
(1.02346 -0.00148931 -4.59346e-22)
(1.08123 0.00610476 4.21961e-22)
(1.02559 -0.00123678 0)
(1.01724 -0.0010547 0)
(1.09086 0.0278739 0)
(0.999681 -0.0668677 -6.76048e-22)
(0.935358 -0.0481788 0)
(1.01878 -0.0599183 0)
(1.02213 -0.000782942 0)
(1.02449 -0.0166315 -3.1975e-22)
(1.02218 -0.0008641 1.96283e-21)
(1.00723 -0.0694433 1.50275e-21)
(1.032 -0.00279751 2.12863e-21)
(1.05868 -0.0329896 -4.02079e-21)
(1.04993 0.0147167 6.56045e-21)
(0.97094 -0.0775802 0)
(1.10135 0.0284687 0)
(1.02879 -0.00858722 0)
(1.0683 0.00667745 0)
(0.926684 0.0823242 1.29897e-22)
(1.04345 -0.0267757 0)
(1.01738 -0.00100286 0)
(1.07522 -0.0162657 -5.1876e-21)
(1.10126 0.00989589 -5.57321e-20)
(0.782746 0.0373459 -4.65703e-20)
(1.02677 -0.0127199 0)
(1.02626 -0.0207032 4.71522e-22)
(1.05859 0.00395466 1.91524e-20)
(1.08022 -0.0918864 -1.55915e-20)
(1.05824 -0.0258417 -4.33396e-21)
(1.02539 -0.0130636 0)
(1.07741 -0.0255618 -1.34735e-20)
(1.00801 -0.010953 -3.0985e-21)
(1.06288 -0.00689893 7.12355e-21)
(1.06838 0.00188424 9.63288e-21)
(1.05145 -0.00514854 1.57469e-20)
(0.961676 0.0971066 0)
(1.10667 0.0492481 -1.6768e-20)
(1.11135 0.0477024 -2.6614e-20)
(1.05189 -0.00807747 0)
(1.02846 -0.00822131 -6.59381e-23)
(-0.0501563 0.0086082 -4.72811e-20)
(1.08463 -0.0208255 0)
(1.01984 -0.00010909 1.59193e-21)
(1.04721 0.0662496 -2.33644e-21)
(1.10296 0.0351123 -3.74679e-20)
(1.02903 -0.0136911 1.20355e-21)
(1.02396 -0.00118875 0)
(1.07647 -0.0172035 2.88533e-20)
(1.01948 -6.85512e-05 1.8709e-21)
(0.961919 -0.065817 0)
(1.02899 0.00450451 3.73522e-22)
(1.02213 -0.000818222 8.92043e-22)
(1.03977 -0.0214441 2.04768e-21)
(1.0257 -0.00404483 -1.34742e-22)
(1.07756 -0.0332167 2.761e-20)
(1.03726 -0.017304 -2.04557e-21)
(1.05553 0.0189694 -5.53325e-22)
(1.04385 -0.00338569 0)
(0.932588 0.0688787 0)
(1.03558 -0.00661525 0)
(0.984168 0.0564604 4.77022e-22)
(1.01313 -0.00389052 1.14614e-21)
(1.07106 0.0254076 -2.0722e-20)
(1.02213 -0.000730565 2.03728e-21)
(1.03014 -0.0103985 1.61933e-22)
(1.09282 0.026871 0)
(1.04907 -0.00277812 4.4548e-21)
(1.0191 -0.000161829 -2.22733e-22)
(1.064 0.0136263 1.68587e-20)
(1.09929 -0.0089574 -3.62758e-20)
(0.276837 0.0464743 -1.13547e-20)
(1.08437 -0.0249068 -5.40258e-22)
(1.0641 0.0233005 0)
(1.01993 -0.000104302 0)
(1.03146 -0.0327289 -9.98661e-22)
(0.295538 0.0213145 -1.43891e-20)
(1.03505 -0.00661304 0)
(1.01747 -0.00010148 4.04905e-24)
(1.01877 -0.0106842 4.18914e-22)
(1.03227 0.00212396 -1.90528e-21)
(0.930506 -0.0249168 0)
(0.947008 0.0386428 1.17834e-20)
(1.08534 -0.00886127 0)
(1.0915 0.0505002 3.60499e-20)
(1.01417 0.00338469 -7.60519e-22)
(0.00417354 0.0490923 -2.21665e-21)
(0.553746 -0.103166 -1.30067e-20)
(1.1095 0.0597717 0)
(1.08536 -0.026932 -2.70158e-20)
(1.02542 -0.00125199 0)
(0.121891 0.0221807 5.707e-20)
(1.00946 -0.0428138 0)
(1.0257 -0.00145254 0)
(1.01937 -0.000579534 2.53912e-21)
(1.05944 0.00344699 8.72516e-21)
(1.02175 -0.0427458 -5.04358e-22)
(0.710602 0.114167 5.19472e-21)
(1.04378 0.00610689 6.38936e-21)
(1.0291 -0.0141829 -8.92963e-22)
(1.02155 -9.0427e-05 -1.13937e-21)
(1.03956 -0.0312114 2.05507e-21)
(1.0834 -0.0110262 -8.49898e-21)
(1.00817 -0.0681275 -1.42711e-21)
(1.11028 -0.0224057 -4.76014e-20)
(1.01926 -6.75547e-05 5.83892e-22)
(0.96105 0.0619683 -5.52827e-20)
(1.04554 -0.00226618 2.54996e-21)
(0.415379 -0.0925422 -6.06475e-21)
(1.01541 0.00376516 0)
(1.10634 0.0342789 -1.49679e-20)
(1.02054 -0.000311961 0)
(1.02181 -0.00261056 7.00258e-22)
(1.02614 -0.0391346 0)
(1.05842 0.0048125 -1.10228e-20)
(0.995317 -0.072711 -1.29032e-21)
(1.02527 -0.0133175 9.66993e-23)
(1.04606 0.00518931 -3.92636e-21)
(1.0647 -0.0241233 2.02892e-20)
(1.02211 -0.000800414 -9.28495e-22)
(1.0206 -0.00349981 -1.4232e-21)
(1.05764 -0.0485671 -2.6648e-20)
(1.01969 -7.52309e-05 0)
(1.02199 -0.0001679 1.7784e-21)
(1.02089 -0.00359027 -7.24404e-22)
(1.04294 -0.0139217 0)
(1.02083 0.00313904 0)
(1.07332 -0.0247615 2.02879e-20)
(1.02686 0.00223617 0)
(1.09779 0.0536033 -4.91023e-20)
(1.02231 -0.00141868 -2.83529e-21)
(1.01478 -0.012271 0)
(1.02465 -0.0048875 7.99926e-22)
(1.08516 0.0323334 -2.1487e-20)
(1.08706 0.00761426 0)
(1.02572 -0.00454309 4.74551e-22)
(1.00261 0.00408156 7.25154e-22)
(1.13078 0.0258094 5.25758e-20)
(1.04305 -0.0175272 -2.53226e-21)
(0.594639 -0.132895 0)
(1.02473 -0.00643186 -4.81245e-22)
(1.14321 -0.00778815 2.19584e-20)
(1.0569 0.00425141 0)
(1.01702 -0.0140702 4.34581e-22)
(1.0504 -0.00600736 2.56735e-21)
(1.05908 -0.00487643 0)
(1.11135 0.0473663 3.37555e-20)
(0.997032 -0.0656447 8.83409e-22)
(0.650568 0.139792 -5.37858e-21)
(0.0136087 0.0218615 -3.8221e-20)
(0.166834 -0.0558533 0)
(1.06853 0.00570802 0)
(0.997467 -0.0401751 2.29968e-21)
(1.04556 0.00476622 3.79163e-21)
(0.610645 -0.106459 1.53009e-20)
(0.86409 0.251577 -3.12528e-21)
(1.02461 0.00030575 1.85845e-21)
(1.03935 0.0108933 1.72267e-21)