/*--------------------------------*- C++ -*----------------------------------*\
| =========                 |                                                 |
| \\      /  F ield         | OpenFOAM: The Open Source CFD Toolbox           |
|  \\    /   O peration     | Version:  v2012                                 |
|   \\  /    A nd           | Website:  www.openfoam.com                      |
|    \\/     M anipulation  |                                                 |
\*---------------------------------------------------------------------------*/
FoamFile
{
    version     2.0;
    format      ascii;
    class       volScalarField;
    location    "300";
    object      ddt0(k);
}
// * * * * * * * * * * * * * * * * * * * * * * * * * * * * * * * * * * * * * //

dimensions      [0 2 -3 0 0 0 0];


internalField   nonuniform List<scalar> 
13851
(
1.34121e-07
-3.04404e-08
4.28221e-09
-0.000204538
-1.85484e-08
-3.40401e-08
-9.68149e-09
2.53892e-08
-2.74117e-05
4.93082e-08
2.08176e-08
1.32214e-08
-1.62545e-08
-5.20473e-05
3.38112e-08
1.47983e-08
-2.04536e-05
2.01868e-08
4.40227e-06
7.91021e-08
-5.20359e-08
3.16404e-08
-0.00030986
-3.30162e-09
6.81489e-05
3.05831e-08
5.46449e-05
-0.000155738
6.0959e-05
-2.36516e-08
-0.000155833
2.25139e-09
1.31176e-07
-0.000116527
-1.56302e-08
7.28895e-05
2.53221e-09
0.000125699
0.000129394
-1.10682e-07
-0.000132662
7.36187e-05
-4.49512e-05
3.34188e-05
7.16934e-05
7.43504e-08
1.72508e-08
7.88787e-09
4.43225e-08
3.31799e-08
4.94882e-05
-2.77827e-08
-8.54891e-08
2.96233e-08
-2.85301e-05
-1.09007e-09
2.4166e-07
-0.000122913
0.000135876
-6.62812e-05
1.45887e-08
2.17122e-05
2.82009e-08
-1.91752e-08
-3.86718e-06
-5.83323e-06
-5.84647e-05
-9.95422e-06
4.56439e-08
-0.000248524
-7.68371e-05
-7.91477e-09
6.81738e-08
-6.18139e-05
-8.17074e-09
-4.05489e-08
-2.05371e-05
-1.2789e-08
7.27238e-05
-5.97559e-08
-1.81229e-08
7.05615e-06
-2.49965e-08
-5.88503e-05
-6.86923e-05
-0.000131598
6.73057e-08
9.70958e-06
9.6217e-09
-0.000167181
-4.3133e-08
9.81261e-09
2.16512e-05
-0.000138634
7.43866e-05
-9.81483e-06
-4.81507e-08
1.4407e-07
-7.08157e-06
-1.55351e-06
3.03314e-07
2.18521e-07
-9.21973e-07
5.77086e-08
4.8227e-08
3.99375e-08
7.62854e-08
-8.55216e-05
2.94801e-08
-1.87146e-08
-1.29344e-09
-1.0675e-07
1.7806e-06
6.83468e-08
5.88996e-08
9.32046e-09
-1.3213e-09
-1.73364e-08
-0.000184072
-0.000270104
-3.40094e-07
5.36606e-08
-8.44712e-08
-9.47254e-05
1.35643e-06
7.16105e-05
6.29243e-08
-3.42325e-08
-0.000121901
-5.59915e-08
1.17194e-08
6.57591e-09
9.23051e-05
-0.000109149
3.7197e-08
9.1404e-05
-2.77705e-05
-0.000117427
2.88711e-07
-3.67965e-08
5.26449e-06
3.30878e-09
-1.2306e-07
-3.96008e-06
-1.33235e-05
7.24421e-08
-1.11223e-08
-0.000151816
6.70033e-06
-5.58084e-08
3.15774e-07
1.64979e-06
6.49061e-08
1.24053e-06
-9.37616e-08
-2.60203e-08
9.96868e-08
0.00012717
-1.07926e-08
-1.09648e-08
-6.55782e-08
6.70198e-05
4.95856e-08
1.96997e-09
-5.18063e-05
8.22998e-06
7.17453e-06
5.63686e-05
-4.18792e-09
-0.000295356
9.05151e-09
1.35348e-08
-1.27186e-09
1.00154e-08
6.87709e-05
1.32377e-05
-1.27148e-08
-5.45983e-08
2.11021e-08
-2.39759e-07
1.6763e-06
5.13306e-05
-4.98027e-08
-4.39151e-08
-1.78132e-05
1.00431e-05
1.38938e-07
-4.92408e-08
-2.92033e-08
8.84032e-08
-2.07003e-05
-1.52981e-08
-4.65866e-05
-1.13881e-08
6.92142e-08
-1.15803e-07
4.25891e-08
1.1751e-07
-2.8729e-08
3.13539e-06
4.23791e-06
-6.39778e-06
-0.000110923
3.42842e-08
-0.000149619
-5.68014e-07
5.51971e-08
-2.27557e-09
-3.71805e-05
-7.28543e-08
2.73811e-07
-2.28444e-08
8.65215e-06
4.2305e-08
-2.76419e-09
-6.88762e-08
1.62417e-09
9.93886e-07
-7.19561e-08
-3.47628e-05
6.76077e-08
-3.65363e-08
-5.30599e-05
8.20661e-05
-1.50407e-08
-8.96894e-09
-5.86826e-09
-2.76827e-06
-2.99166e-08
-9.81524e-09
-0.000289528
-3.80554e-08
-6.94243e-08
-4.13229e-08
-0.000104596
-5.70299e-09
-0.000220993
-0.000100557
-1.36113e-06
2.12924e-08
4.95251e-06
-7.14739e-05
8.33774e-05
1.17826e-07
-3.7634e-08
-2.99229e-07
3.66204e-07
2.90809e-08
-7.2712e-06
-7.67076e-08
-5.11143e-06
3.64104e-07
-2.92019e-08
9.64079e-09
-1.07347e-08
6.25437e-05
2.772e-05
-5.70797e-08
-2.60657e-05
-5.9709e-08
3.51103e-07
8.74738e-08
1.02424e-08
4.47413e-08
4.96051e-07
5.52852e-08
5.3645e-08
-1.04601e-07
-8.60523e-05
-4.3911e-08
3.61565e-09
-2.93328e-08
-3.26858e-05
-0.000126988
-4.30973e-08
-6.5845e-08
1.71801e-06
-6.89227e-08
1.20626e-08
3.88524e-08
-4.26962e-05
-3.16513e-05
6.18125e-08
1.73313e-08
-1.18536e-05
-4.38011e-08
-2.31936e-08
9.38175e-09
-3.84316e-08
3.82522e-08
-3.92503e-08
-3.03322e-09
-5.44135e-08
-4.89714e-09
5.4556e-08
-2.86868e-05
-3.6831e-08
-1.35061e-07
6.40409e-05
-9.01974e-05
-2.88784e-08
-9.05748e-08
2.10281e-05
-1.99279e-08
-1.02899e-09
-1.95082e-08
-6.13896e-05
0.000261721
-5.174e-08
-1.27569e-08
-0.00030447
5.03189e-09
-3.51413e-08
2.53406e-05
-8.10659e-05
-1.89443e-08
-6.73414e-05
5.75213e-05
-2.94535e-05
1.03911e-06
-1.07515e-06
8.94236e-05
-0.000104735
-0.000133741
5.71563e-08
-9.24511e-05
-4.6616e-06
-3.9193e-05
-0.000445687
5.85143e-08
-2.77437e-08
-4.49388e-08
1.22238e-05
-8.15123e-07
-2.35269e-09
7.81531e-10
-4.06605e-08
-3.76056e-05
-2.77421e-05
-2.18897e-08
7.83757e-05
-8.15629e-09
5.83937e-09
-1.47756e-08
-5.22846e-05
1.41014e-06
-1.67218e-07
-1.17992e-07
-7.36596e-08
7.88855e-05
-1.80719e-08
4.74869e-07
6.36425e-08
-1.37477e-08
-5.85719e-09
1.87849e-09
1.15401e-07
-1.28554e-06
-1.97824e-06
1.76458e-08
5.95073e-05
8.34856e-05
5.31007e-08
-9.80054e-05
7.83161e-07
-4.08856e-08
-9.14491e-05
1.45487e-08
-5.7013e-06
-7.48409e-08
7.88756e-09
6.58817e-05
7.60607e-05
-4.51851e-07
1.13679e-05
4.45709e-08
2.07239e-05
-5.12861e-05
2.41375e-08
-3.07944e-06
-1.03354e-08
-0.000103335
1.50408e-08
-1.09275e-08
4.7495e-07
5.66367e-06
-6.55033e-08
6.19599e-09
-2.78757e-08
8.75754e-10
2.59956e-08
-4.77633e-08
-0.000117135
1.01015e-07
-8.41989e-09
-0.000144799
-5.50221e-09
-4.23029e-05
-2.51654e-08
0.000305435
-5.59653e-08
3.67036e-08
-0.000168199
5.02266e-07
3.89853e-08
2.11616e-05
-6.27309e-05
-1.2105e-05
1.27283e-08
-1.02282e-06
-1.53883e-08
3.73356e-09
1.91308e-09
-3.53427e-05
-0.000176105
0.000101141
-5.70611e-08
5.10266e-07
1.3809e-05
-0.000143905
-1.08421e-08
-7.84187e-05
8.14449e-07
-0.000256711
-7.77105e-08
-0.000105328
-6.56073e-08
-1.91315e-08
-2.58136e-05
1.05391e-05
-8.98785e-08
-3.29239e-08
-1.76248e-08
9.55701e-09
-0.000185115
-3.35172e-08
1.07938e-08
1.54358e-08
8.05561e-09
1.35829e-07
2.78356e-05
1.21286e-07
2.02566e-07
0.000251921
-0.000124103
-4.12913e-08
1.62781e-05
-1.49427e-08
-5.21617e-08
-1.99031e-08
1.90265e-07
-4.68519e-08
1.68107e-08
-4.9641e-08
2.199e-07
-1.75781e-08
0.000287326
-3.60249e-08
5.32255e-08
7.41467e-05
-3.6824e-08
1.71697e-08
1.70437e-07
7.44409e-09
-1.12731e-08
-0.000186539
0.000212599
-3.54193e-08
-5.30004e-05
-3.73739e-08
-2.68426e-08
-9.94905e-05
5.59412e-05
3.394e-08
-9.26547e-08
-0.000100669
6.48296e-08
-0.000171474
-6.74141e-08
-5.4492e-09
-5.61484e-07
-3.04819e-08
-0.000111027
2.4392e-05
8.87154e-05
-1.20302e-08
1.92666e-06
-3.83576e-08
5.77656e-05
-2.72759e-08
1.24065e-08
-7.61167e-09
-7.22183e-08
-4.23859e-08
-2.97063e-08
-2.82671e-08
-0.000132048
-0.000100119
0.00029297
-5.25107e-05
0.000223386
7.21751e-05
-2.19873e-07
-4.62494e-09
-9.01906e-08
-7.03911e-05
7.44183e-09
-2.22041e-07
-2.78751e-08
5.6258e-05
1.84652e-08
-3.96478e-08
1.46502e-06
1.12983e-08
3.49809e-08
0.000172377
-1.67597e-07
-0.000119787
-0.000157637
6.88588e-08
9.50763e-09
-5.43277e-06
-0.000100391
5.20141e-08
0.000176778
-0.000145567
-9.49164e-09
9.94242e-05
4.4257e-06
1.20956e-07
-7.25948e-09
0.000260644
-5.46553e-05
-1.04564e-08
3.45645e-06
1.25436e-08
-1.63317e-07
0.000249856
-0.000103541
1.49383e-08
-4.26696e-08
-1.03555e-07
4.10931e-08
-0.000124078
0.000113738
-1.76255e-08
1.66987e-05
6.01191e-08
1.24884e-08
4.53138e-08
-1.44395e-08
1.12117e-08
-7.43834e-08
0.000120218
4.03058e-06
9.95907e-05
1.71354e-08
-4.59733e-08
-1.90414e-05
7.2148e-08
6.27061e-07
1.18418e-08
-2.08057e-08
-3.53861e-08
0.000121259
-3.45925e-05
-3.14091e-08
-9.88907e-05
-1.39713e-08
1.25963e-08
7.61979e-05
-2.97997e-05
7.35548e-08
-2.38582e-08
-1.47746e-06
0.000115079
8.22148e-06
4.39708e-08
-0.000197166
-2.55837e-08
5.12965e-09
-0.000319021
0.000228556
2.23599e-06
-0.000115132
5.919e-07
9.15908e-05
9.83537e-08
0.000164273
-4.76337e-05
-2.3148e-08
7.77505e-05
-7.44501e-05
-3.3601e-08
-4.00652e-08
-4.07416e-08
-0.000103917
-5.59969e-08
-0.000335861
8.30173e-08
1.90685e-08
2.46447e-08
-7.92757e-11
-1.27054e-08
6.40747e-05
8.77723e-09
6.06486e-07
3.58812e-08
5.1802e-09
1.61321e-08
7.4148e-09
-4.02579e-08
1.98977e-05
2.41432e-08
8.75834e-05
3.12453e-09
-5.29001e-08
5.43111e-09
2.59298e-09
-6.39083e-08
2.35007e-07
3.01843e-08
6.06814e-08
0.000143844
1.41618e-07
2.34772e-05
-2.51397e-08
7.95276e-09
-0.000112731
4.31691e-05
2.62612e-07
-0.000286443
-2.01248e-06
5.51152e-07
-7.8124e-05
1.44276e-08
0.000188743
-1.79354e-08
-2.6997e-09
-6.40299e-05
-1.27964e-05
-3.92664e-08
2.06431e-07
9.73462e-08
7.94926e-05
7.56495e-05
6.52292e-09
6.51012e-05
-0.000226629
3.01599e-07
1.87724e-08
1.46137e-08
1.80056e-05
0.00029532
-1.50111e-08
2.21692e-07
-2.68195e-08
-2.55043e-08
0.000174111
2.32892e-07
-1.97314e-07
3.89245e-08
-1.08742e-07
-8.43553e-08
2.96744e-08
-1.00925e-08
9.93456e-08
-8.06403e-08
-6.11244e-09
-1.17521e-07
-1.20335e-08
2.53026e-09
-8.87818e-07
-0.000197748
3.78695e-06
5.84237e-05
9.43279e-05
1.20584e-07
-6.20498e-05
-3.96844e-10
0.000242664
6.51945e-08
5.17223e-08
1.10465e-08
2.6179e-06
2.87927e-09
-2.90046e-09
7.33085e-08
-1.78557e-08
9.06064e-06
4.50421e-08
-8.90583e-05
-3.59649e-08
0.000283357
2.12871e-06
2.73556e-05
2.32841e-07
-5.4826e-08
1.31212e-08
3.17005e-05
4.83526e-07
1.727e-09
2.05668e-05
4.87143e-08
-0.000102748
-8.17834e-09
7.22673e-07
-3.65133e-08
-1.05388e-05
1.6073e-09
2.88429e-08
-3.60746e-08
-5.46407e-08
6.63273e-05
-1.03698e-07
0.000122975
-2.97839e-05
2.42522e-07
0.000105981
-1.08905e-05
5.93863e-07
-4.29208e-06
2.33942e-07
-4.67526e-07
-1.81733e-08
1.05434e-08
-3.70582e-08
2.51358e-09
1.81663e-08
1.40036e-07
-8.80467e-08
-0.000111265
5.93527e-08
-3.48013e-05
-4.69693e-09
-0.000228035
-3.92289e-08
5.85131e-08
-1.37755e-08
3.25319e-05
-2.03374e-08
0.000245327
-0.000107017
-4.14601e-09
-9.43298e-09
-1.04686e-08
-0.000117648
-6.89274e-08
1.39877e-08
0.000153011
1.00235e-07
-1.05337e-08
-3.82305e-08
-1.34741e-08
1.68426e-06
4.50433e-08
-2.29844e-08
4.83074e-06
0.000113942
-5.12951e-08
-2.33246e-08
8.95981e-05
-1.66378e-08
8.52111e-05
4.96228e-08
1.96177e-08
7.16503e-05
-7.48792e-08
8.74361e-08
4.35672e-08
2.62815e-08
4.06346e-09
3.70115e-08
3.48401e-08
8.85008e-08
1.66739e-08
1.90648e-08
-4.32891e-06
-8.42653e-08
2.92179e-06
-5.8499e-05
0.000278588
1.04132e-08
-0.000232972
3.8227e-07
-6.58373e-08
1.93342e-06
-1.42376e-08
3.70153e-08
7.98815e-05
8.44227e-05
0.000214772
0.000105473
-4.52857e-08
-1.19105e-08
2.20711e-06
8.07596e-08
-1.64094e-07
-0.000269341
3.17904e-07
-1.1415e-05
3.24589e-08
-7.86325e-08
-4.5005e-08
-3.36112e-09
-3.16719e-05
-2.6674e-09
5.28887e-08
1.20792e-07
7.20996e-08
-3.58468e-08
-9.02636e-05
-9.48916e-08
-2.02123e-08
-1.70708e-06
-1.31428e-08
-1.76715e-08
4.46677e-09
4.06084e-05
-1.83571e-08
-0.000109764
8.76098e-08
-1.45131e-06
-3.48303e-08
-3.49224e-07
-3.63315e-08
4.25698e-09
-6.13571e-08
7.21872e-09
0.000109776
5.71985e-08
3.33622e-05
-3.56943e-08
-3.13781e-05
-8.60901e-05
-5.00512e-08
4.86428e-09
-0.000143495
0.000213673
-2.60414e-08
-6.82253e-08
-2.00524e-08
1.37512e-05
2.0498e-08
2.46532e-06
9.38251e-08
-2.43887e-09
0.000251187
-4.03443e-08
1.35218e-07
2.32406e-08
-0.000122357
-5.70471e-05
-0.000223675
2.63644e-08
-6.26066e-05
-2.68841e-07
-2.48251e-08
-1.30234e-07
2.53252e-09
2.30443e-07
-0.000243069
2.637e-05
5.9932e-08
7.3864e-08
1.75003e-08
-2.26898e-07
-0.00016676
1.11939e-06
-5.71703e-05
9.38836e-05
-5.90334e-08
-1.06023e-07
1.68016e-08
-3.97031e-08
-2.62198e-07
-4.8117e-08
1.68429e-08
5.36694e-05
7.68864e-05
-2.01485e-08
-3.53166e-05
-7.74197e-08
1.82324e-08
1.2258e-08
-6.53217e-08
3.18853e-05
-3.02281e-08
0.000243091
-6.35686e-09
1.21282e-07
-0.000336821
-0.000328048
8.57299e-06
-1.33744e-05
0.000242909
-1.3606e-09
-1.62867e-06
9.54099e-07
-5.46194e-06
-3.35268e-08
-3.77976e-08
-0.000228772
9.10683e-09
2.31957e-08
4.23954e-08
-1.77146e-08
5.16193e-05
2.04326e-06
1.79061e-08
1.90655e-08
-5.811e-05
-1.45091e-08
-5.48528e-05
2.17953e-08
-8.36263e-08
-7.75946e-05
9.87748e-09
3.14037e-05
4.0864e-08
-3.06484e-08
-5.86369e-05
3.87155e-08
-2.53691e-07
1.58775e-08
-0.000133129
-4.3653e-08
2.36647e-05
2.92645e-08
-8.24824e-05
7.99901e-05
1.70008e-05
9.69038e-09
1.97781e-08
-4.08015e-08
-1.30255e-07
1.11205e-08
3.44947e-08
-0.000115121
-3.79841e-08
1.20236e-08
-3.91319e-08
-1.53771e-08
7.88525e-08
-4.90703e-09
-2.76635e-08
4.15738e-08
4.43443e-08
-0.000101741
0.00010164
1.99284e-08
-1.07397e-08
-0.000240087
-1.47899e-08
-2.07367e-05
8.9056e-09
-4.62537e-08
4.95221e-09
-1.15535e-08
-3.39058e-08
-7.27188e-08
-1.62408e-08
3.50443e-07
4.94621e-09
-1.03652e-06
-5.42317e-08
8.25448e-05
-3.62028e-05
2.53964e-07
2.18308e-06
-7.4828e-08
0.000108774
6.4606e-07
3.18803e-08
-6.83172e-09
-1.9146e-08
-5.75632e-06
-2.0021e-08
-7.67135e-07
-9.24802e-05
-0.000125804
-1.18159e-07
5.45533e-08
0.00010352
-6.64043e-05
0.000236847
4.62577e-08
7.56964e-08
1.25466e-08
-5.15194e-08
1.67958e-07
-4.89109e-05
-1.88281e-07
-4.76183e-08
4.88511e-07
4.33182e-06
1.71682e-08
-0.000127993
-9.52469e-05
-3.55424e-08
-6.71683e-08
0.000110682
1.3963e-08
1.70968e-08
-1.23369e-05
-1.68006e-08
1.14503e-08
8.63604e-08
-6.05521e-09
-1.6733e-09
-3.30471e-05
-0.000168473
-1.87063e-08
-6.04055e-06
-4.39183e-08
-1.69309e-07
-4.62121e-05
-2.90094e-08
-5.40397e-05
-6.85203e-09
2.45421e-08
2.78291e-08
1.19259e-07
-5.86852e-05
2.13388e-05
2.68736e-06
-2.8235e-05
0.000275085
-1.81017e-08
1.04631e-08
-6.90855e-08
3.88166e-06
-2.35834e-08
-7.17967e-10
-3.70875e-08
7.79541e-05
6.11014e-05
2.13405e-08
1.23772e-08
-1.93913e-08
1.72145e-07
-5.29342e-05
2.14471e-08
2.38196e-08
-5.1746e-08
0.000104935
1.00892e-08
-0.000126321
1.07052e-07
-3.33698e-08
-5.83651e-08
1.26871e-07
-2.35961e-08
1.32273e-07
9.76615e-05
2.10548e-05
1.85818e-07
-2.63969e-08
-0.000127401
6.96452e-08
-0.000140514
-6.33268e-05
-2.80119e-08
1.49331e-05
6.41728e-05
-0.000232762
2.67733e-08
-1.68843e-08
-6.63858e-05
-1.04841e-08
-6.38734e-08
6.41541e-06
3.6817e-06
4.13818e-09
-4.36967e-05
-8.25278e-08
0.000128426
0.000126614
2.3505e-08
5.49007e-09
-4.47016e-08
-4.26166e-06
-2.3152e-08
-1.66082e-09
-1.10417e-08
-6.84942e-08
4.01554e-08
-3.96088e-05
-1.21267e-07
0.000195046
5.15809e-06
-1.31207e-08
-1.71163e-08
-6.89592e-09
3.46177e-08
7.8595e-05
1.69991e-06
0.000100651
4.18315e-05
1.16101e-08
-2.22613e-09
-4.55299e-08
-2.14992e-08
3.48406e-06
-2.07616e-08
-8.76469e-08
-1.15127e-08
1.34292e-08
-2.00304e-05
-4.10521e-08
-5.16776e-05
-6.08515e-08
7.44606e-10
-4.83284e-08
8.51236e-09
-3.55603e-08
6.32478e-08
-2.41142e-06
-8.84027e-05
-0.000282113
7.69619e-05
0.000106136
-6.26078e-06
-7.90913e-05
-1.76104e-08
-1.71407e-07
-2.08057e-08
7.35156e-06
-4.25754e-08
-1.93052e-08
-0.000111337
-7.58463e-08
-3.46777e-08
-1.7571e-08
3.27197e-06
-1.59806e-09
-3.79237e-08
1.56034e-08
0.000270415
4.10762e-08
4.35612e-09
-1.27351e-07
-1.17445e-07
-4.32443e-08
-3.37285e-08
3.42312e-06
-6.08352e-08
-0.000206913
-1.72332e-07
-7.8441e-08
-0.000119166
-8.57274e-05
5.57585e-06
0.000301434
-2.76081e-07
0.000287761
-8.15114e-09
-2.24798e-07
2.02415e-08
-7.00494e-08
-1.75722e-08
-0.000105466
-2.62758e-08
-1.78585e-08
-4.04319e-05
7.44495e-08
-7.80717e-09
-5.65088e-09
4.18317e-07
-4.53876e-09
0.000270571
-2.35455e-08
2.14682e-06
2.73323e-08
8.23977e-08
9.83305e-09
-1.90862e-06
-1.90245e-08
8.45001e-05
-9.59625e-05
9.20585e-07
-9.91295e-05
-8.91735e-08
3.52898e-05
3.09848e-06
-7.52311e-08
0.000122929
-4.77679e-09
5.52103e-08
-1.32625e-07
1.0386e-09
4.61767e-10
-9.98824e-09
-2.74142e-08
2.79465e-07
1.2515e-08
-2.42992e-08
3.76185e-08
-5.2808e-06
9.16223e-10
0.000386526
-5.74167e-08
1.67454e-08
-1.45911e-08
-7.19097e-05
-6.89653e-05
1.82588e-07
9.44509e-08
1.30512e-08
-5.12596e-09
-5.93816e-08
0.000304944
-2.37332e-08
7.0787e-09
-1.21597e-07
2.96493e-06
-5.64828e-08
-1.44287e-05
-3.89261e-08
6.02688e-07
3.45473e-08
-3.32e-08
1.95356e-08
-3.43977e-08
0.000261347
-0.000133949
-5.07347e-08
4.17135e-10
-4.92594e-05
6.87644e-08
1.92267e-08
-1.07105e-08
-1.48025e-07
2.50449e-05
-1.11185e-08
-0.000143647
-3.03291e-08
-3.61345e-08
-3.95473e-07
2.09152e-09
-2.83573e-06
4.60295e-05
1.39374e-08
0.000269295
2.2908e-08
1.45713e-08
-1.78239e-07
8.04316e-09
1.47602e-07
8.01545e-09
2.94713e-08
-6.32926e-09
-2.00059e-07
7.50559e-08
-2.61404e-09
4.80795e-09
-2.66219e-08
-8.0745e-08
4.72794e-08
4.37029e-05
-2.32735e-08
2.85391e-08
1.56331e-05
1.08035e-07
6.01238e-09
-5.18584e-05
9.0892e-08
8.47862e-05
2.96418e-09
2.80614e-06
-3.03665e-07
3.4071e-07
2.60435e-06
5.30122e-08
-0.000127866
2.15805e-08
-3.51137e-07
-4.75212e-08
2.29285e-09
2.71435e-08
1.4268e-09
-2.71807e-08
-1.19037e-07
-1.35115e-08
5.92466e-08
-3.86614e-08
-5.10977e-05
5.77309e-05
-0.000175332
-2.63964e-08
-6.45461e-07
-3.3606e-05
-0.000266274
2.20457e-07
-3.66418e-08
-0.000245221
-5.46335e-09
-5.31864e-08
-0.000114703
3.18689e-05
1.43939e-08
1.47764e-08
-5.44343e-08
3.74574e-06
-1.08157e-07
-3.27675e-08
-0.000111374
-1.5901e-08
-2.9631e-08
0.000401473
-1.34656e-08
3.2734e-06
-0.000106085
-3.04467e-08
-3.09611e-08
2.34085e-08
3.82521e-08
2.04936e-05
-3.12696e-05
-0.000224899
2.73902e-08
-5.55291e-08
1.35622e-05
1.15359e-08
-8.49867e-07
1.64658e-07
-1.88085e-09
-2.24079e-10
7.03286e-08
-0.000107533
0.000257022
2.91375e-09
1.89286e-09
-3.85971e-08
-9.31446e-05
-9.55647e-09
4.09489e-08
3.42259e-06
-3.70302e-08
9.34213e-05
3.73043e-08
-4.49704e-08
-2.85172e-08
-1.06424e-05
0.000245552
7.48167e-08
0.000228992
-1.20512e-08
3.97055e-08
1.8662e-09
0.000287041
-3.18116e-08
-3.80153e-09
8.93724e-09
-1.19565e-08
-1.88128e-08
-1.23187e-07
-1.76413e-10
-3.83964e-08
-3.96365e-08
2.27427e-05
2.69329e-08
-9.54437e-08
-1.58994e-08
-2.21751e-08
9.4765e-07
-3.14102e-07
7.94084e-08
-6.1074e-05
-4.69377e-08
5.82503e-05
5.89803e-09
-1.00335e-06
-3.85416e-06
2.98441e-08
-3.03519e-05
1.10322e-09
1.84031e-08
-2.88431e-08
-3.61652e-08
2.07393e-07
-3.90442e-09
-2.03916e-08
-3.98008e-08
-4.16152e-08
1.52749e-08
3.04847e-08
-5.15689e-07
-3.60791e-08
-1.98173e-09
-4.96827e-05
-2.65316e-08
4.72849e-08
1.2666e-07
1.28617e-05
3.43161e-09
1.38703e-07
1.84031e-08
-4.30993e-07
-6.20141e-05
1.80811e-06
-2.85285e-08
7.96694e-05
-5.92043e-06
3.35044e-05
7.81354e-08
3.8811e-05
-2.61274e-08
0.000413899
-1.13282e-08
1.19745e-07
1.24516e-05
7.766e-05
3.27739e-08
3.34646e-05
-7.579e-08
-5.51423e-05
8.2877e-08
-5.87878e-08
2.36485e-08
0.0002889
-0.000231344
3.63792e-08
-1.40404e-08
1.0206e-07
7.10663e-07
4.91872e-08
1.47586e-05
8.45398e-08
-2.70409e-08
-5.03901e-08
-1.12221e-07
5.45106e-08
-6.09545e-07
-3.67766e-08
-1.10552e-09
-1.48716e-05
-3.31753e-08
3.62902e-08
-2.22331e-08
1.27475e-06
8.40767e-05
6.85107e-11
1.4411e-05
1.82896e-08
-1.12862e-08
-0.000135106
-8.52131e-09
4.19968e-08
1.29429e-08
1.10269e-05
3.48989e-08
-1.90751e-08
2.34346e-08
0.000228938
1.27708e-08
-7.45255e-08
-5.11642e-08
-3.72685e-05
6.275e-09
1.96481e-08
9.54206e-07
7.11706e-08
-8.85884e-06
-3.65295e-08
-6.22105e-05
2.02804e-08
3.09948e-09
1.62308e-08
1.27874e-07
-1.77396e-09
-3.39675e-08
3.15036e-08
0.000143145
-1.10205e-08
-6.53185e-05
-1.16962e-07
7.98131e-08
-5.91299e-08
4.54851e-08
2.69879e-08
-0.000131894
-2.42502e-08
-1.05779e-08
-8.00104e-08
2.14971e-05
-2.70354e-05
-1.69351e-08
8.11789e-07
2.96503e-09
-7.9615e-10
-1.72344e-07
-1.17678e-07
0.000300679
1.40613e-07
8.39334e-05
-7.14882e-08
-4.16595e-08
7.97998e-10
-3.03463e-08
-3.44553e-08
1.41543e-05
8.85781e-07
4.64722e-08
-7.035e-08
-2.13096e-05
-1.22597e-07
-1.65446e-08
2.55825e-08
-1.25303e-07
1.68684e-07
-0.000180329
1.73586e-08
3.58042e-05
-4.35095e-05
-0.000217707
1.13787e-08
4.06041e-08
-5.83154e-08
-6.33502e-08
2.42521e-08
-3.5979e-08
-9.62445e-07
-3.54483e-08
-6.17525e-09
-4.18396e-08
1.2593e-08
-5.99331e-08
7.18572e-08
-4.18512e-05
-4.14641e-10
0.000187586
-1.29527e-08
9.45125e-07
2.65198e-08
3.84837e-08
2.05721e-07
2.99285e-08
2.91918e-05
1.35149e-07
1.73221e-08
2.31127e-08
7.76318e-09
-1.04044e-07
1.02017e-08
0.00011275
5.55979e-08
2.1949e-08
-1.13695e-05
4.97209e-05
2.69327e-08
0.000100571
-4.39373e-05
-5.87921e-09
2.45936e-08
4.4302e-08
-2.25443e-06
2.61304e-08
8.43579e-05
9.48293e-09
-0.000277714
2.40334e-08
-2.96624e-06
0.000333941
-4.57381e-08
0.000279229
2.3155e-08
-3.13341e-09
-6.99507e-09
0.000232792
-1.24056e-09
-1.49938e-07
-1.95382e-08
4.67098e-07
3.46248e-08
-1.03126e-07
3.5926e-08
0.00012313
-1.06914e-07
3.46382e-08
-9.87377e-05
-1.77508e-08
5.43473e-08
-2.81803e-08
2.46114e-08
4.50155e-05
-2.01785e-10
6.15757e-08
2.00573e-08
-2.273e-07
2.07431e-08
1.65173e-08
-8.12586e-08
-9.30947e-05
2.72363e-07
5.25957e-08
-0.000209926
3.56794e-08
-0.000151202
1.20747e-08
0.000261974
-1.62717e-08
-6.84372e-08
-2.53838e-08
2.34912e-05
-8.94947e-05
5.35141e-08
3.97847e-07
2.12027e-07
2.22041e-08
-8.8641e-08
0.000123336
-9.71443e-09
-5.31541e-08
-2.23483e-08
-2.148e-08
8.427e-08
-0.000220045
-2.62154e-08
-6.90997e-09
7.74397e-09
-4.31976e-05
-7.38177e-05
8.23125e-09
-3.53867e-08
7.77616e-05
-5.45746e-08
0.000283411
0.000291223
-5.09124e-06
-3.7967e-08
-5.11526e-09
9.80214e-08
-0.000119101
3.79953e-09
1.27737e-08
7.68831e-09
-1.60086e-07
2.98097e-05
-0.000295523
5.66861e-09
7.12968e-07
9.78504e-06
5.17996e-08
-7.67877e-06
-5.22381e-08
-5.8557e-08
1.233e-07
0.000302257
1.00549e-07
-4.84789e-07
-4.68747e-05
3.27842e-08
0.000285162
-5.84492e-06
0.000296262
1.58457e-09
8.53839e-05
-0.000206106
-0.00011842
-0.000100344
-7.01408e-05
-6.02278e-08
4.59485e-08
1.00506e-06
-2.67907e-07
4.2863e-08
-4.23646e-05
1.65264e-08
2.16474e-08
-7.50408e-05
-5.21218e-08
4.819e-08
-4.20411e-08
-4.81902e-09
3.90186e-06
-3.56368e-08
-0.000145294
-1.95304e-08
-3.5575e-07
-4.27334e-05
-4.8987e-05
-2.31861e-08
5.8368e-07
1.76903e-08
3.46408e-08
-4.58101e-08
4.20275e-08
-9.60741e-09
-1.89639e-07
-7.75291e-09
1.3506e-08
1.58103e-06
-3.71526e-08
-2.33567e-08
0.000238097
0.000118403
1.58857e-08
6.27758e-07
1.43928e-05
1.86955e-08
-5.86739e-08
0.000241335
-1.37886e-06
-4.17015e-08
-3.84684e-08
-2.8757e-09
-1.03693e-08
1.83039e-08
8.04147e-05
1.97853e-07
-1.77611e-08
-3.49353e-08
-2.0554e-06
-5.62073e-08
-1.01121e-06
6.1679e-05
-8.49329e-08
4.17979e-08
-2.69248e-08
-4.82127e-08
1.01633e-08
-5.15911e-08
-2.04044e-08
-6.09572e-09
1.1652e-07
1.53299e-08
-1.7402e-08
1.84846e-09
-0.000101115
-6.1442e-08
-0.000197505
-3.82169e-06
6.37216e-08
-2.75991e-06
-9.09869e-07
-1.22448e-07
4.18428e-08
3.00448e-08
4.90946e-08
4.32721e-07
2.64254e-08
-1.98313e-08
-4.95271e-08
8.10474e-05
-3.85553e-08
0.00028551
7.59177e-09
-7.36365e-08
-2.48955e-08
-7.11319e-08
8.15297e-08
3.22245e-08
-8.57794e-09
-0.000305
-7.19845e-09
4.05045e-06
-1.70243e-05
-9.13834e-05
-1.35318e-08
1.39186e-07
-2.12722e-05
-7.69924e-06
4.14876e-05
-3.35812e-07
-2.25915e-08
-2.45748e-07
-2.95337e-05
0.000279123
-2.84453e-08
1.91972e-05
-2.41769e-09
-1.21798e-07
-1.17803e-08
5.21136e-08
-7.51198e-07
1.70601e-06
3.77851e-09
-1.76618e-06
-1.26909e-09
-0.00010792
-0.000137635
-3.17207e-05
0.00024573
-8.58246e-05
5.09036e-08
2.46892e-07
-0.0001588
-1.63472e-08
-5.37234e-08
5.7765e-08
-3.50794e-07
-0.000132068
8.17436e-05
1.2803e-08
-7.40086e-08
-5.28788e-08
-1.6066e-08
-5.51192e-05
1.62235e-08
0.000296102
-0.000110753
-3.68379e-08
-3.70828e-08
-2.74929e-05
-2.6435e-08
1.18322e-08
2.45204e-08
-0.000235619
-3.59056e-05
8.74298e-08
6.78399e-07
-7.66756e-09
-9.49676e-05
-0.000216738
1.74053e-08
-0.000232633
-0.000121043
-0.0002456
3.68852e-09
6.26362e-09
-2.37331e-08
5.93734e-08
-9.01555e-05
-3.75556e-08
1.96113e-07
4.29875e-05
7.60272e-05
-4.57553e-08
-1.15662e-08
-7.93182e-06
9.98478e-09
-0.000193982
6.16873e-05
1.40814e-08
-2.31574e-08
7.5448e-09
2.13781e-07
7.11245e-05
3.57856e-08
7.80319e-06
-3.63913e-08
1.49641e-08
2.71894e-08
-2.28196e-08
-2.55938e-06
-4.5232e-08
-0.000188161
-9.78588e-08
2.38831e-08
3.7181e-08
3.76512e-09
8.82265e-09
-8.90154e-05
-2.63099e-05
2.45784e-06
-1.64266e-08
1.40994e-07
-2.26367e-08
4.43215e-08
-4.58217e-06
-1.69946e-05
-4.82843e-05
-1.43596e-08
0.000297019
-1.77813e-06
7.6396e-05
1.96028e-08
-9.92742e-09
5.56358e-09
5.30483e-09
-0.000238498
1.29746e-08
-5.36878e-08
3.98082e-05
-0.000115427
-4.53428e-05
-0.000134096
1.04747e-09
1.87599e-08
4.57054e-08
-9.88184e-05
3.02295e-08
-1.51881e-05
-4.39509e-09
3.29722e-05
-2.15822e-08
-7.71167e-09
-3.66775e-08
-1.48147e-08
-6.8095e-08
6.21551e-08
-6.93584e-06
-7.20322e-09
1.13671e-07
-3.43469e-08
1.66557e-05
-2.90529e-05
2.83987e-08
7.76673e-05
3.6681e-08
-2.79184e-08
-1.94231e-08
1.36509e-09
9.53088e-08
-5.24166e-08
9.49012e-05
9.10669e-08
-1.0438e-08
-5.42092e-08
-6.86443e-06
1.70878e-08
-1.70756e-08
-0.000119429
-3.81636e-05
2.31288e-07
-4.7919e-09
-3.0271e-05
-6.23511e-09
-1.2286e-06
1.88007e-09
-2.65544e-07
-1.35032e-06
-2.24207e-05
-7.52197e-08
-0.00013115
6.90547e-09
2.30311e-08
3.4208e-08
-9.63434e-05
-2.25575e-06
2.19993e-07
-2.32051e-06
-6.94396e-10
0.000262518
8.64935e-08
3.07999e-06
1.26264e-05
-3.45584e-05
-1.45144e-06
5.44991e-05
7.58037e-05
2.87068e-08
-1.70941e-08
-2.01953e-07
-5.66391e-08
1.14693e-09
-2.25097e-07
-1.30862e-08
-4.94898e-08
0.00013843
6.64246e-08
-3.21003e-08
-2.49151e-08
1.52257e-07
6.64559e-08
4.70087e-08
-2.2537e-06
1.65708e-08
-1.50701e-08
1.12717e-07
-7.52047e-05
9.42943e-09
-0.000242783
5.16605e-08
-1.50339e-08
-5.69517e-08
-1.12415e-07
-0.000125711
-8.50903e-06
8.88964e-08
-6.77374e-08
2.60257e-08
-2.90146e-05
-0.000103977
6.91197e-05
7.6277e-08
9.68429e-08
-1.79484e-05
3.78781e-08
-2.53849e-08
7.60057e-09
-0.000124888
-1.51001e-06
2.15108e-08
-2.37757e-08
-1.08572e-08
0.000104355
-1.99581e-07
8.26237e-07
-2.06006e-08
-4.01407e-08
4.22283e-08
1.7684e-06
-2.39451e-08
-2.69517e-08
0.000126806
7.99048e-05
-0.000114796
0.000153657
-0.000214958
0.000375008
-0.000166289
-3.08741e-07
1.60742e-08
-0.000299514
3.85633e-05
-1.75991e-05
-1.49198e-08
8.71865e-09
-3.46622e-08
1.2209e-07
0.00027313
-0.000118115
-3.4928e-08
1.03338e-08
1.00658e-05
-1.469e-08
1.89395e-08
-7.06771e-05
8.71016e-07
1.67555e-05
-7.40044e-09
-9.52067e-05
0.000294086
-4.66165e-06
-3.82215e-08
4.07747e-08
-3.24619e-08
2.64277e-09
-1.44431e-08
4.20514e-09
2.22061e-08
1.07639e-08
5.16835e-08
3.1156e-08
5.63494e-06
-3.26271e-05
-9.42504e-08
-1.79722e-09
-8.85624e-05
1.83108e-06
-5.59582e-08
-0.000225826
-0.000389881
1.85817e-05
-2.93705e-08
2.08616e-08
3.3689e-08
-3.73529e-08
-9.72581e-08
-1.08188e-08
-9.80141e-08
-5.45278e-09
1.33036e-08
-3.74728e-06
-8.59106e-09
-2.14616e-08
-1.2175e-05
0.00011158
-1.49465e-05
-6.18028e-06
-1.01462e-07
-8.56161e-09
-2.79512e-08
1.54321e-10
4.04379e-08
9.37649e-05
1.31021e-07
2.0672e-09
3.93149e-09
0.000116215
-0.000216917
-5.11379e-08
-5.26734e-08
6.92123e-09
2.02878e-08
-4.6698e-08
2.97612e-07
-3.04251e-08
-6.10555e-08
-0.000204052
7.19593e-09
-1.73704e-05
-5.93962e-08
2.22197e-05
5.55845e-08
6.10613e-09
-2.08919e-08
2.21311e-08
-2.4609e-08
3.46689e-08
9.01294e-09
2.89364e-08
3.90716e-08
0.00025673
-0.000211674
9.62361e-05
5.95114e-08
-1.00124e-05
5.297e-08
2.46757e-08
2.79512e-08
9.07446e-08
-2.36159e-08
3.58313e-05
-0.000228096
1.81746e-08
-1.89347e-07
0.000115351
8.038e-09
-5.06766e-05
-7.04532e-08
5.67406e-06
-1.20298e-07
3.74615e-07
0.000117747
-1.33858e-05
-7.2759e-05
8.7172e-08
-1.72905e-08
-4.57805e-08
4.10382e-08
0.000407002
-4.21891e-09
5.90596e-09
1.91201e-05
7.74792e-05
-4.48739e-08
-5.44186e-08
2.37227e-05
-4.39891e-08
0.000326402
-1.62604e-07
-1.93281e-07
5.89787e-09
2.02394e-07
-6.73682e-07
0.000308301
1.81691e-08
-2.59642e-06
7.20802e-08
-2.709e-07
-3.46992e-09
-3.45355e-06
4.02713e-08
-1.46069e-06
-4.70979e-08
2.00894e-07
-1.34805e-07
-1.45337e-09
1.20746e-07
-2.6523e-08
-3.54601e-08
-1.84783e-05
-4.44565e-09
9.65054e-09
-3.0845e-09
4.40017e-08
-9.45254e-09
7.07518e-07
-1.30358e-08
2.99788e-08
4.39826e-06
-4.43991e-08
-8.58589e-08
-1.91567e-08
2.05602e-08
1.32457e-08
-0.000254299
4.55515e-05
8.15823e-08
-6.50045e-05
-4.1243e-05
7.18888e-08
-4.38587e-08
-0.000341782
-7.99856e-05
2.04443e-07
-2.49858e-05
7.61822e-06
7.51651e-08
-8.01454e-08
-1.76995e-08
8.82068e-09
-1.05093e-08
5.738e-05
-0.0001387
1.90269e-05
-4.81216e-06
0.000144459
-0.000101754
2.62247e-09
-5.74415e-05
-1.16148e-07
0.000280314
-9.31706e-05
3.17708e-08
-2.63829e-08
3.97363e-05
-5.07617e-08
-2.24143e-08
1.80544e-06
4.58074e-05
8.0693e-07
3.64898e-08
-8.53417e-05
-6.16416e-09
0.000127423
-4.3195e-05
-5.50356e-08
3.56577e-05
2.83135e-05
4.06547e-05
2.09994e-05
-3.31334e-05
3.09178e-05
2.85226e-08
-1.63929e-08
1.69764e-08
-2.2964e-08
3.55925e-08
1.43976e-06
1.19322e-07
-2.17227e-05
6.1405e-06
-9.22724e-08
4.4472e-06
-9.86033e-06
4.41807e-06
3.17264e-06
-3.02503e-06
-3.66537e-05
-4.45508e-06
-1.29266e-08
-7.60837e-09
0.000306892
1.56736e-08
-5.12376e-09
0.000266608
1.46629e-07
0.000312584
-4.09111e-08
-0.000140893
5.66158e-09
-4.74511e-08
-0.00017123
2.59899e-08
-3.52967e-08
3.40584e-05
-0.000203219
-0.000138471
4.55187e-08
-3.35469e-08
5.15768e-08
-3.57877e-08
1.46799e-07
-6.47952e-09
3.6147e-09
-0.00029819
-3.7816e-08
-4.13135e-08
1.25013e-05
1.50563e-08
1.37822e-08
-2.31163e-06
2.11693e-08
8.33724e-10
-7.37303e-08
1.75862e-06
3.84531e-09
-1.33481e-08
0.000155757
-7.50304e-05
1.38121e-08
-3.67612e-08
-0.000228148
3.88262e-08
7.50041e-08
9.65322e-10
-2.03922e-09
-0.000277838
8.79474e-09
-2.85839e-08
-0.000222893
-1.70356e-08
0.000119062
-1.07588e-07
2.18928e-08
1.36526e-07
7.65765e-05
5.35409e-08
0.000134361
5.88764e-05
-4.15744e-08
5.63739e-09
-1.15424e-06
-3.66298e-09
0.000136378
5.16151e-08
-0.000166141
2.44808e-07
-3.33561e-08
3.08135e-09
-1.97312e-06
-6.64587e-08
2.72831e-06
1.88999e-09
1.42719e-08
8.29455e-08
-1.03486e-08
5.9664e-05
-9.23135e-08
1.51535e-08
1.55586e-08
-4.306e-08
-3.35383e-08
-4.87401e-08
-7.63398e-05
5.43342e-07
1.35571e-06
2.06577e-08
1.48002e-08
-1.00318e-08
2.22302e-09
4.03054e-08
6.62118e-08
-8.26075e-08
-2.79316e-05
-6.06517e-08
1.95469e-08
-4.69458e-08
1.00698e-07
9.14587e-05
7.85366e-08
0.000131783
-0.00011614
-0.000131072
-1.9861e-07
1.69195e-09
5.57875e-08
-4.91455e-08
-5.72688e-08
-3.83804e-06
-3.77258e-08