/*--------------------------------*- C++ -*----------------------------------*\
| =========                 |                                                 |
| \\      /  F ield         | OpenFOAM: The Open Source CFD Toolbox           |
|  \\    /   O peration     | Version:  v2012                                 |
|   \\  /    A nd           | Website:  www.openfoam.com                      |
|    \\/     M anipulation  |                                                 |
\*---------------------------------------------------------------------------*/
FoamFile
{
    version     2.0;
    format      ascii;
    class       surfaceScalarField;
    location    "300";
    object      phi;
}
// * * * * * * * * * * * * * * * * * * * * * * * * * * * * * * * * * * * * * //

dimensions      [0 3 -1 0 0 0 0];
oriented        oriented;


internalField   nonuniform List<scalar> 
20580
(
-0.124539
0.00551504
0.119024
0.124667
-0.245215
0.120549
0.255082
-0.130416
0.00403254
-0.000188592
-0.00384395
0.583833
-0.61974
0.0359074
0.258531
-0.183408
-0.0751228
-0.296356
0.0445612
0.575405
-0.578224
0.00281896
-0.0319551
0.0286868
0.00326834
0.423372
-0.246441
-0.176931
0.141275
0.00576259
-0.147037
-0.518682
0.312609
0.206073
-0.20762
0.285575
-0.077955
0.0253231
-0.0110863
-0.0142368
0.186898
-0.0352397
-0.151658
-0.111452
0.0995813
0.0118703
0.000115198
0.00143797
-0.00155317
-0.170479
0.354576
-0.184097
0.0928587
-0.10161
0.00875154
-0.113744
-0.0107955
0.0591328
-0.186966
0.127833
0.233973
-0.199269
-0.034704
0.0267675
-0.0584634
0.0316958
-0.584788
0.591839
-0.00705145
0.0780878
-0.0959508
0.0178629
0.00186788
0.112675
-0.114543
-0.0126544
-0.0672487
0.0799031
-0.0893384
0.0754025
0.0139359
-0.00906925
0.0404327
-0.0313634
0.483528
-0.323209
-0.16032
-0.017684
0.0067579
0.0109261
-0.223508
-0.0728484
-0.11296
0.123012
-0.0100523
0.0483377
-0.0410458
-0.00729198
-0.153687
0.145426
0.00826125
-0.0308173
-0.00748997
0.0383072
-0.6152
0.0304123
0.000682675
-0.0684554
0.0677727
-0.015448
0.0270165
-0.0115686
-0.129059
-0.162228
0.291287
-0.0263854
-0.00567036
0.0320558
-0.0420355
0.0329662
0.00862436
-0.00862436
0.0934019
0.00478818
-0.0981901
0.0383874
-0.0470658
0.00867833
0.449876
-0.277249
-0.172627
-0.53504
-0.0694275
-0.126717
0.044699
0.082018
-0.0485127
-0.211838
0.26035
-0.299327
0.0917062
-0.0114377
0.0111133
0.000324367
0.145219
-0.285207
0.139987
-0.100747
-0.0107044
-0.0458989
-0.12639
0.172289
0.023359
-0.00119053
-0.0221685
0.103827
-0.232886
0.00564383
-0.118603
-0.0341617
0.00777621
-0.0185615
0.0876098
-0.0690483
-0.0124182
0.0185916
-0.0061734
-0.354554
-0.164128
0.0735866
-0.086241
-0.217975
-0.197133
0.415108
-0.192497
0.143984
-0.0412257
0.0950935
-0.0538678
-0.0852748
0.0440492
-0.0158137
0.00339547
-0.097652
0.0672746
0.353605
-0.247254
-0.106351
-0.00288255
0.000864611
0.00201794
-0.0104669
0.00183162
0.00863533
0.161819
-0.179303
0.0174839
-0.0332978
-0.221453
0.254751
0.0177461
0.000845526
0.176026
-0.0158829
-0.160143
0.221675
-0.213681
-0.00799325
0.000562613
-0.000447415
0.342018
-0.525252
0.183234
0.0948201
-0.0167322
0.44907
-0.216732
-0.232339
0.244279
0.109325
-0.102986
0.111798
-0.00881162
-0.0259367
-0.12775
-0.0180796
0.0229922
-0.00491252
0.0186927
-0.000946552
-0.00647999
0.0129298
-0.00644982
0.0683795
0.165593
0.0297582
-0.00513006
-0.0246281
0.230408
0.146403
-0.376811
-0.0134467
-0.00423733
0.268431
-0.123211
-0.301109
0.0776006
-0.00543135
0.00543135
-0.0104406
0.0039606
0.0151974
-0.0231822
0.00798483
0.0338411
0.0673327
-0.101174
0.146474
-0.351328
0.204854
-0.0906099
0.105083
-0.0144734
-0.0139359
0.0144278
-0.000491902
0.00903146
0.0988272
-0.107859
-0.108555
0.0179447
0.126291
-0.048294
-0.0779971
0.085181
-0.123718
0.0385372
-0.168577
-0.080567
0.249144
-0.468341
0.131569
0.336772
0.128634
-0.167021
0.038387
-0.164669
-0.303672
-0.00855988
-0.00190707
-0.0734089
-0.2277
-0.336127
0.165648
-0.0135947
0.154309
-0.140715
0.336119
0.113758
-0.0976148
0.109617
-0.0120025
0.0180447
0.10649
-0.124535
-0.112666
0.108813
0.00385323
0.162789
-0.208688
0.168575
-0.397673
0.229098
0.465389
0.110017
-0.00166122
0.00569376
-0.00858642
0.00570387
0.066631
-0.104451
0.0378199
0.158431
-0.416946
0.258515
-0.275875
0.287803
-0.0119281
0.0179417
0.000911464
-0.0188532
0.0820545
-0.107138
0.025084
0.0287269
-0.0697333
0.0410064
0.34175
-0.195275
0.0603648
0.0891164
-0.149481
0.0282125
0.00466293
-0.0328754
0.145535
0.014603
-0.160138
-0.199877
0.000608278
-0.129128
0.183227
-0.0540983
-0.0759299
0.0766125
0.0333699
0.0149678
0.00196174
0.139313
-0.00804711
0.0236474
-0.0156003
-0.0505487
0.00995193
0.00297788
-0.0126836
0.127736
-0.115053
-0.161971
0.0261966
0.135775
-0.101395
-0.00159196
0.252643
-0.230984
-0.0216594
-0.0665509
0.296959
-0.08276
0.00303334
0.0797266
-0.00357868
-0.0667361
0.0703148
-0.0401987
0.231627
-0.191428
0.513953
-0.171935
-0.00368268
0.0387048
-0.0311494
-0.00755536
-0.0602306
0.120595
-0.0533455
-0.0552091
-0.105456
0.00784107
-0.100426
0.118471
0.0964665
-0.0928228
-0.00364368
-0.21602
-0.0217729
0.237793
0.128869
0.189043
-0.317912
0.309866
0.213947
-0.523812
-0.023166
0.00771804
-0.182321
0.0872434
0.0950778
-0.0481002
0.206643
-0.158543
-0.416261
-0.164234
0.580495
0.0415468
-0.036551
-0.00499588
0.154961
-0.0263269
-0.0386618
-0.0880552
0.0126309
0.0126923
-0.0439636
0.00586265
0.0381009
-0.0349842
-0.00897937
-0.0096051
-0.00183259
0.153715
-0.16731
0.065795
-0.0564087
-0.00938628
0.534992
-0.326937
-0.208055
0.437612
-0.269037
0.150969
-0.137617
-0.0133525
0.549902
-0.110289
-0.439613
0.0229579
-0.00776055
-0.0729611
-0.015698
0.0886591
0.0926426
-0.102917
0.0102748
0.255859
0.181752
0.18026
-0.164778
-0.0154818
0.107313
-0.0146699
0.0967033
-0.0146488
0.127243
0.0116759
-0.175625
0.163949
0.178638
-0.033103
-0.00456691
0.00456691
0.013535
0.0251698
0.0936936
0.0293183
-0.0741324
-0.0596817
0.133814
0.229597
0.00658104
-0.236178
-0.134728
-0.240294
0.375022
-0.0714367
0.067858
-0.129328
-0.0529929
-0.0156572
0.0045709
0.128722
0.129809
-0.227073
0.186874
-0.0975939
0.111689
-0.0140949
0.115184
-0.0214902
0.200693
0.102556
-0.30325
0.127814
-0.311758
0.183944
-0.0115676
-0.0743134
0.085881
0.110899
-0.105386
-0.00551305
0.0103492
-0.0263106
0.0159614
0.0376764
-0.0283101
-0.00936631
0.0177804
0.169117
-0.0101092
-0.0500213
0.0601306
-0.00945506
0.0198042
0.19576
-0.213661
0.0179013
0.115304
-0.133077
0.0177729
0.0340067
-0.0091975
-0.0248092
0.199042
-0.00859995
-0.190442
-0.0984783
0.105032
-0.00655389
-0.243767
-0.032108
0.00950442
-0.646352
0.396476
0.249875
-0.13434
0.156007
-0.0216673
-0.213588
0.180362
0.033226
-0.247228
-0.0520989
-0.00340147
0.0798591
-0.0764576
-0.173683
-0.138605
0.312287
-0.00189385
0.0259178
-0.201755
0.457614
0.114758
-0.106509
-0.00824891
-0.0208884
0.00280874
0.0254758
-0.0194673
-0.00600855
0.0354009
-0.141373
0.105972
0.138244
-0.0229406
0.66847
-0.366493
-0.301977
-0.0321809
-0.0505791
0.171904
-0.455349
0.283446
0.011086
0.00833637
0.00959957
-0.0179359
0.0857633
-0.159896
-0.0361289
0.235171
-0.480667
0.221964
0.00656107
0.0311154
0.22747
0.256059
0.082854
-0.0560864
0.0330166
-0.0254884
-0.00752812
-0.105136
0.114167
0.143162
-0.559423
-0.0496435
0.0868849
-0.0372414
-0.0180172
0.021469
-0.00345184
-0.0070251
0.0454125
0.00110298
0.174527
-0.174123
-0.000404125
0.065781
-0.0640808
-0.00170014
0.0808925
-0.084294
0.0255467
0.154713
0.103327
-0.0359939
0.155059
-0.15573
0.000671545
0.00335678
-0.0201596
0.0168028
-0.10296
0.110416
-0.0074557
-0.309191
0.64526
-0.336069
0.0572087
0.152343
-0.209552
0.00748936
0.0413455
0.000201315
-0.019515
-0.00605664
0.0255716
-0.347178
0.212449
0.0532663
0.186352
0.154598
-0.34095
0.0944564
-0.0936531
-0.000803305
0.102972
-0.097373
-0.00559936
-0.0974198
0.154628
0.141768
0.0131926
-0.122705
0.0197449
-0.0929283
0.301915
-0.208987
0.0554017
0.0708894
-0.126804
0.037269
0.0895346
0.0941841
-0.0770761
-0.017108
0.458796
-0.190719
-0.268077
-0.294164
0.0469362
0.121164
-0.0332859
0.0410135
-0.00772767
0.00939642
0.000519936
-0.00991636
0.14837
-0.0149919
-0.133378
0.386501
-0.228069
0.0903212
0.00638214
-0.0932101
0.0971129
-0.00390274
-0.0935118
0.113663
-0.0201509
0.153487
-0.0117191
-0.0386713
0.00538549
-0.0157676
0.0155382
0.000229355
0.144367
-0.191858
0.0474906
-0.097817
-0.0605511
0.158368
-0.0869036
0.0903665
-0.0034629
0.181944
0.167577
-0.349521
0.226759
0.295788
-0.522548
-0.108465
0.0149534
-0.0158153
0.136718
-0.120903
-0.458717
0.229669
0.229047
0.49211
0.131537
-0.623648
0.404895
-0.232991
-0.563829
0.570517
-0.00668816
-0.0161487
-0.15143
0.167579
0.536625
-0.0277606
-0.00419455
-0.0884403
0.147573
0.15035
-0.287532
0.137182
0.0105283
0.0216626
-0.00372086
0.0584684
0.214601
-0.273069
0.00101489
-0.0125739
0.000300881
0.012273
0.0718535
0.18079
-0.18328
0.241749
-0.208311
0.11987
0.0179231
-0.0184695
0.000546355
0.0292615
0.0107685
-0.0400299
0.153235
-0.0266783
-0.126557
0.461487
0.122346
0.0621341
0.00366089
0.180438
0.13851
-0.143602
0.00509226
-0.0113847
-0.00118916
0.0861209
-0.0814342
-0.00468676
-0.25179
0.20369
-0.0933146
0.00641106
0.00336629
0.0804613
-0.0838275
-0.00704814
0.013634
-0.00658585
0.103917
-0.00288849
-0.101029
0.0450699
-0.113109
0.0680392
-0.0261971
0.01815
0.0227474
-0.00183712
-0.0209103
-0.0276145
-0.0617239
0.313487
-0.185673
-8.23861e-05
0.00152379
-0.0014414
-0.021383
0.021383
0.00354337
-0.0337961
0.0302527
-0.0404989
0.0440423
0.145831
0.0499286
0.154518
-0.0271578
-0.12736
0.0241705
-0.158891
0.13472
0.0129028
0.0168553
0.0535435
-0.114749
0.0612055
-0.21581
-0.300514
0.516325
-0.105623
-0.429417
-0.0514908
0.178499
-0.127008
0.00373628
-0.0107844
0.0293627
0.369432
-0.187488
0.00229364
0.0534627
0.112894
-0.166357
-0.176679
0.0475503
-0.046846
0.253489
0.0185406
-0.000617496
0.0918498
-0.00152862
0.0109416
-0.012539
-0.201049
0.180267
-0.216396
-0.0411323
0.0363318
0.00480052
0.247313
-0.0177163
0.00325631
-0.0617091
0.206076
-0.121385
-0.0869254
0.142177
-0.0887141
0.332755
0.28917
-0.13882
0.108067
-0.12609
0.0180226
-0.0133456
0.112173
-0.109369
0.113653
-0.00428415
-0.0725636
-0.031495
-0.00963728
0.190419
0.041208
0.00470645
-0.101475
0.0917709
0.00970372
-0.192474
0.429522
-0.237048
0.0889175
-0.00279654
-0.0996947
0.120331
-0.0206365
-0.0120867
-0.00184918
0.164557
-0.216048
-0.133451
0.0042512
-0.0870113
0.0684498
-0.0845778
0.072996
0.0115818
0.110734
-0.115869
0.00513455
0.0283157
-0.0238991
-0.00441656
0.285463
-0.235272
-0.0501912
0.0161388
-0.0890999
0.000296733
0.00832763
0.0182859
-0.179519
0.161233
0.0195965
-0.0162397
-0.0288016
-0.148133
0.176934
-0.0373162
0.0101515
0.0271647
0.0817941
-0.179611
-0.0284567
-0.129915
0.11034
-0.109486
-0.000854034
0.0485906
-0.0864251
0.0378345
0.307547
-0.178679
0.232344
-0.151093
-0.0812519
0.0934136
-0.109229
0.0112473
-0.294382
-0.0236934
0.318076
-0.00760309
0.155973
-0.0443518
-0.00286193
0.0472137
-0.20988
0.176582
-0.0756218
-0.057455
-0.00894368
0.0106449
-0.00170125
0.102826
-0.25134
0.148514
-0.0347975
0.106983
-0.0721855
-0.151112
0.148613
0.00249932
-0.0132469
0.0425083
0.186729
-0.195329
0.129648
-0.12778
-0.0720382
0.061929
-0.00416608
0.157719
-0.15131
-0.00640919
-0.0306284
0.0111134
0.00067545
-0.089392
0.0397485
-0.279312
0.186384
0.110585
-0.00251802
0.150019
-0.175541
0.0255217
-0.124346
-0.00910504
0.415658
-0.206541
-0.209117
-0.00696455
0.00696455
-0.00715035
0.0449309
-0.0377806
-0.0811489
0.0858472
-0.00469831
-0.0553726
0.23564
-0.0123653
0.0807319
-0.0785679
-0.00216399
0.0096412
-0.000244779
0.481849
-0.212512
-0.269336
-0.00424923
0.00416684
-0.0988278
0.101143
-0.00231553
-0.0224565
-0.0159943
0.0384508
0.165379
-0.0103206
-0.0141644
-0.0717942
0.0859586
-0.0403581
-0.237869
0.278227
0.567737
-0.0178355
0.000172372
0.0231866
0.084803
-0.00628144
-0.0785216
0.14563
0.277742
-0.204685
-0.0405304
-0.132852
0.05723
-0.156765
0.459183
-0.302418
-0.0493176
0.0421672
0.03331
0.121208
-0.118733
0.0190384
-0.21869
0.21613
0.00255926
0.0121422
0.273321
-0.331086
0.25161
0.0794752
-0.0714502
-0.0131276
-0.0778688
-0.209663
-0.0301774
-0.300908
0.0164704
-0.0673164
0.050846
-0.0488553
0.00450353
-0.166697
-0.0331798
0.0163325
-0.0881294
0.0717969
0.216714
-0.434689
0.515195
-0.219407
0.269216
-0.16639
0.00104709
0.126334
-0.141873
0.0155388
-0.32663
0.0299445
0.296685
-0.312123
0.211288
0.100835
-0.0404179
0.107049
-0.119302
0.29341
-0.174109
-0.0577903
0.0433109
0.0144794
-0.171062
-0.378842
0.549903
-0.152208
-0.055852
0.20806
-0.0245921
-0.0224737
0.00188251
-0.0951126
0.0932301
0.429141
-0.606266
0.177125
0.498259
-0.20013
-0.298129
-0.193977
-0.0247122
0.31704
-0.123017
-0.194023
0.0790914
-0.10021
0.0211182
-0.0647495
0.0578911
0.00685835
0.187165
-0.012638
-0.0130035
-0.0372546
0.0502581
0.213843
0.266645
-0.485862
0.219217
-0.0222592
0.0317959
-0.0095367
-0.0706788
-0.160477
0.0857747
0.0747021
-0.30025
0.272762
0.0274879
0.0236589
-0.128168
0.115484
0.0738713
-0.0260457
-0.0478256
-0.237511
0.0689341
-0.165073
0.000665778
0.164408
-0.0153558
-0.191937
0.168322
0.0236152
-0.0285673
0.0267302
0.0869626
-0.00623067
-0.0856755
0.00452658
-0.234527
0.0819235
0.152603
-0.0015385
-0.158978
-0.150236
0.309215
0.00388171
-0.13529
-0.0158221
0.0399588
0.075225
0.174778
-0.0247593
0.209136
-0.112914
0.114797
0.123812
-0.44609
-0.17365
-0.0088944
0.00792404
0.000970359
0.00676962
-0.0290288
-0.0183266
-0.0394636
-0.00741974
-0.000680704
0.00810044
-0.048279
-0.00558266
0.00753657
-0.00195391
-0.000260156
0.151675
-0.0288016
-0.122874
0.577221
-0.30532
-0.271901
0.0570373
-0.0918348
0.148137
-0.394577
-0.37371
0.0793273
0.0194657
-0.140401
0.120935
-0.0172543
0.0255733
-0.00831901
-0.0584124
-0.183673
0.242086
0.2061
-0.229577
0.0234774
-0.142607
0.0950235
0.047583
-0.143365
0.0106219
0.132743
0.396638
-0.181621
-0.215017
-0.0400036
-0.0279108
0.0679144
0.459936
-0.286162
-0.173773
0.0342027
-0.0295732
-0.00462951
0.0907589
-0.0116675
0.166282
0.282789
-0.295943
0.204345
0.0915979
0.0984486
-0.0973822
-0.0010664
0.01275
-0.231247
0.0693621
-0.0895207
0.0201586
-0.0363061
0.0933435
-0.143469
0.355757
-0.212288
0.0220871
-0.0143481
-0.00773895
-0.00699163
0.0998503
0.101824
-0.100496
-0.00132774
-0.0480886
-0.186438
-0.0106934
-0.056623
0.0169523
-0.00263718
-0.0143151
-0.336664
0.193195
-0.00793033
-0.0761588
0.0840891
0.368162
-0.176735
-0.191426
0.108608
-0.0624374
0.0703422
-0.00790483
-0.0204242
-0.016892
0.187604
-0.165478
-0.0221262
0.141069
-0.0147342
0.231336
-0.405877
0.174541
0.119204
-0.118189
-0.00101532
0.0331972
-0.00498469
-0.0170789
0.0230447
-0.00596573
-0.256171
0.394206
-0.138036
0.000810973
-0.00144407
0.000633099
-0.350323
0.120908
-0.00930179
0.161315
-0.15871
-0.00260444
0.334572
0.147276
-0.0743683
-0.139313
-0.0164703
0.0204163
-0.00394603
0.109269
-0.0606787
0.00561676
0.201855
-0.260268
-0.174737
0.329335
-0.0302634
0.0376217
-0.00735833
0.145011
0.406292
-0.551303
-0.106232
-0.00647501
0.112707
-0.177458
0.240616
-0.0631585
0.177777
-0.164237
-0.0135402
0.185006
-0.0348335
-0.150172
-0.0391374
0.0462074
-0.00707
-0.0141164
-0.0016512
0.087846
-0.223711
0.135865
0.0053241
-0.00502736
0.0863842
0.17915
-0.265534
0.000382733
0.123435
-0.123818
-0.0325695
-0.00946598
0.0230924
-0.0242829
0.281517
-0.315697
0.0341799
0.142937
-0.00888497
0.094066
0.0186666
0.00174976
0.00778259
-0.0855657
0.0777831
-0.0138911
0.133095
0.0921616
-0.0182903
0.183658
-0.0223434
-0.0725547
0.154349
-0.0229695
0.0313059
0.0620751
-0.00884256
-0.0532325
-0.0655624
0.12581
-0.0602476
0.0299932
0.00420949
-0.0759173
0.0909694
-0.0150521
0.00520024
0.0346807
-0.0398809
0.308345
-0.207062
-0.101283
0.0796645
0.00794524
0.0719014
-0.0860658
0.516025
-0.245461
-0.270563
-0.0043399
-0.00109145
0.0526743
-0.0156716
-0.0370026
0.165391
0.0166667
0.309915
-0.133977
-0.175938
-0.0520201
0.0390166
-0.114376
0.122958
-0.00858174
-0.0441034
0.0671947
-0.0230913
-0.26171
0.183841
0.603229
-0.0569538
-0.546275
-0.0978344
0.131819
-0.0339845
-0.12572
-0.0176446
-0.502996
0.331935
0.00570363
0.503141
0.100087
-0.0946935
0.0187762
0.223673
-0.216482
-0.00719098
0.00625119
-0.130597
-0.254656
0.174089
0.210356
0.186282
-0.127892
-0.00982808
0.13772
0.000135891
0.000675083
0.167149
-0.143999
-0.0231493
0.00418009
0.0181533
-0.286173
0.48229
-0.196117
-0.417635
0.0162856
0.401349
0.00404738
-0.141664
-0.146739
-0.165384
-0.0950825
0.11911
-0.024027
-0.260759
0.173292
0.087467
-0.116901
-0.0435761
0.0834443
-0.00377976
0.325
-0.557997
0.232998
-0.0210358
0.0239145
-0.00287877
0.311047
0.357424
-0.107846
0.0951471
0.0126991
0.00529307
3.10275e-05
-0.0337687
-0.00541522
0.0391839
0.0181918
0.0208615
-0.0649649
-0.0577466
-0.0848599
0.0995267
-0.109736
0.0102092
0.0435073
0.00916692
0.2278
-0.376826
0.149026
-0.0618811
0.0218775
0.137064
-0.148505
0.166791
0.000525174
-0.00794491
0.00626294
0.0764183
-0.0826812
-0.349613
0.157139
-0.118757
0.0236746
-0.105246
0.305939
-0.0321556
0.0373558
0.00940766
-0.00115346
-0.0082542
0.0158087
0.191839
-0.207647
0.055707
-0.0411991
-0.00680347
0.0480025
0.618626
-0.333204
-0.285422
0.38464
0.233986
0.127195
-0.0145201
-0.0235368
0.00250104
-0.0583693
0.0680194
-0.00965003
-0.219793
0.0365124
0.114432
-0.104895
-0.00953638
0.158575
-0.277877
0.319055
-0.38281
0.0637545
0.0677103
-0.0825475
0.0148373
0.00494546
0.131393
-0.0962092
-0.0351841
0.163479
0.311236
-0.474715
-0.0608035
-0.066
0.0965313
0.0370752
-0.133606
0.0202435
-0.133034
0.112791
-0.26757
0.0858805
0.181689
-0.195759
-0.0313135
-0.12462
0.0102435
-0.179727
0.0818925
-0.123212
0.0845505
0.0135077
0.148311
-0.122412
-0.0568903
-0.122903
0.0573406
-0.0946491
0.0686034
-0.0288115
-0.0727987
0.0386143
-0.0524522
0.0138378
-0.0166731
0.0860352
-0.0746829
0.0213374
0.0206102
0.00149973
-0.02211
-0.0306015
-0.0996613
0.130263
0.00777052
-0.0702079
-0.00468597
0.152619
0.187004
-0.339623
0.10392
-0.176475
-0.112213
0.0834019
-0.0168264
0.183905
-0.167078
0.219727
-0.436458
-0.451501
0.245981
0.20552
0.110949
-0.101244
-0.00970477
0.00358326
0.0247324
-0.203001
0.0507928
-0.0309761
0.00548766
0.189084
-0.475257
0.0104649
-0.0688343
-0.0452349
0.102937
-0.0577016
-0.0126057
0.00122095
-0.0814369
-0.0373201
-0.0179733
0.204702
0.100273
0.15481
-0.00258751
-0.0100181
0.0690323
0.062361
-0.146701
0.116099
0.00623511
-0.313589
0.325731
-0.0917397
0.0961333
-0.00439363
0.00310261
-0.0634412
-0.0312523
0.18068
-0.0284646
-0.152216
0.102366
-0.106729
0.00436243
-0.252018
0.21166
-0.335305
-0.0305089
-0.183152
0.340529
-0.0214739
0.040249
-0.0091364
-0.0311126
-0.412185
-0.151643
0.0831591
-0.0154488
0.0107502
-0.115762
0.0343251
-0.0174147
0.0249599
-0.0075452
0.00578373
0.00864403
-0.0938564
0.0304152
-0.00649162
0.106018
0.169652
-0.15146
0.136604
-0.237327
-0.0568367
0.0240333
0.336596
-0.36063
-0.000844544
-0.41679
0.392853
0.141551
-0.125219
-0.0163325
-0.023386
-0.081827
0.105213
0.106271
-0.00974021
-0.00709474
0.0824972
-0.244975
0.0140761
0.230899
0.00624614
0.486999
0.110016
-0.00141068
0.00122208
0.0129565
-0.141899
0.128942
0.0436504
0.443348
0.232863
0.246598
-0.479461
-0.0308851
0.0397226
-0.0088375
0.0313464
-0.214754
0.0293731
0.0298622
-0.0592352
0.0447941
-0.00128673
0.11344
0.0924277
-0.120489
0.0280613
-0.233179
-0.146724
0.379903
-8.06408e-05
-0.0409651
0.000351994
0.16005
-0.160402
0.0573002
-0.240973
0.000896763
0.342854
0.181214
-0.524067
0.023732
-0.254716
-0.153421
-0.18317
0.336591
-0.0151461
0.14293
-0.127784
-0.0202417
0.0212521
-0.00101046
0.0299917
-0.190826
0.160834
-0.169815
0.171355
-0.00154045
-0.112698
0.0138705
-0.0234152
0.00633627
-0.176506
0.116825
0.0116154
0.139594
-0.151209
0.0402357
-0.0059243
-0.0343114
-0.355618
0.379652
0.0327457
-0.328609
-0.192496
0.521105
0.0463491
0.247061
-0.0756074
-0.0132707
0.0888781
-0.0766211
0.11472
-0.0380993
-0.0129185
-0.0997479
0.110715
-0.00873008
-0.101985
0.0158387
-0.539432
0.315023
0.224409
0.377354
0.219661
0.114306
-0.113923
0.232334
0.0760113
-0.119175
-0.420257
0.197756
-0.219187
0.0214307
0.105753
0.00261007
-0.108363
-0.398799
0.434165
-0.0353657
0.098061
-0.103969
0.00590824
0.0152433
-0.0611766
0.0475181
0.0136585
-0.00301609
0.113732
0.00506661
0.0126143
-0.0176809
-0.00281533
0.130552
0.479457
0.118634
-0.111025
-0.00760823
-0.51629
0.236885
0.279405
0.136581
0.0957638
-0.0142979
0.0529122
0.0364609
-0.000129141
0.000193942
-0.0429427
0.0370184
-0.1771
0.301376
-0.124277
-0.192507
0.208315
0.123662
-0.0771524
-0.0465099
0.224954
-0.20783
-0.0171234
-0.187055
-0.192474
0.379529
-0.0196072
-0.0388561
0.0936797
0.000776713
0.000922956
0.0193542
-0.0202772
-0.0187405
-0.114546
0.0379247
-0.347747
0.30577
0.0419767
0.00768062
-0.330889
0.0957108
-0.0596117
-0.036099
-0.0801673
-0.0385658
0.248204
0.490329
0.136309
-0.626638
0.0306748
0.0781383
0.100524
-0.00218053
-0.0983431
-0.0208246
-0.254709
0.0386889
-0.628487
0.362398
0.266089
-0.0225073
0.00226559
-0.254722
-0.0128479
-0.0168598
-0.155285
0.172145
0.358404
-0.515169
-0.0201037
0.0267874
-0.00668371
-0.477253
0.168062
-0.00450987
-0.000517495
-0.282973
-0.121475
0.404448
0.00352322
-0.108659
0.174671
-0.151551
-0.0231192
0.136143
-0.0762114
-0.0599321
0.0108657
-0.313946
0.0924928
-0.259151
0.149926
0.109225
0.597029
-0.346687
-0.250342
-0.0146159
-0.0673441
0.0819601
0.0741799
-0.242101
0.167921
-0.0309642
0.0249076
-0.0477589
0.252601
-0.204842
-0.086687
0.0264886
0.0601983
-0.00678801
-0.0270648
0.0338529
0.0178398
-0.172241
0.154401
-0.15924
0.411428
-0.252188
-0.000844467
-0.00604058
0.00688504
-0.0498516
-0.00908149
0.0589331
0.222176
-0.13433
0.0917817
0.0229386
0.0443056
-0.281633
-0.0274768
0.000857607
0.0266192
0.323705
-0.171086
-0.0586194
-0.053594
0.473726
-0.224813
-0.248913
0.426781
0.170248
0.0629285
-0.0335554
0.0108824
0.28885
0.209409
-0.180044
0.053654
-0.0075561
-0.0221905
0.0297466
-0.0545203
0.0706534
-0.0161331
-0.0518714
0.0106723
-0.130818
-0.21636
-0.00323488
0.0238451
0.11571
0.343087
-0.606143
0.207344
-0.230023
0.20825
-0.403605
0.297982
0.286622
-0.550527
0.263905
0.050462
-0.0116076
-0.0388544
0.0544594
-0.0117478
-0.0427115
-0.274419
0.100736
-0.434831
0.534918
0.140429
0.0471757
0.0692993
0.266819
-0.000848881
4.41442e-06
0.00276478
-0.0127371
-0.0181002
-0.00809694
-0.177108
-0.0820435
-0.0859433
0.249075
0.26695
-0.0268253
-0.16014
0.0662677
-0.111503
-0.140746
0.368546
0.186232
-0.514841
-0.0951597
0.0946667
0.000492949
0.00364133
0.00576634
0.118558
-0.0261298
-0.00312894
0.149635
-0.0233353
-0.1263
-0.410062
0.212929
0.154283
-0.00964722
-0.144636
0.115952
-0.0241703
-0.00241133
0.0020606
0.000350726
0.152134
-0.168282
0.0637271
0.00451048
-0.0682375
-0.114075
0.033908
0.0616619
0.430449
0.0356413
0.00697476
-0.042616
-0.00563159
0.0412729
0.00234416
0.0216581
-0.0240023
-0.0651738
-0.0573442
0.0661213
-0.00877713
-0.0987794
0.180703
0.0623962
0.00338476
-0.0165846
0.0820783
-0.0654937
-0.191457
0.174631
-0.582433
0.366623
-0.048803
0.0490855
-0.000282575
-0.235495
0.221987
0.0135075
-0.475889
0.316649
0.0344158
0.247102
-0.217223
-0.0182717
0.00546958
-0.0998144
0.224235
-0.38139
0.157155
0.00806421
0.146219
-0.0168062
-0.00408218
-0.122138
-0.118279
0.240417
-0.000101217
0.00466813
0.0796982
-0.222541
0.142843
0.000518861
0.104166
-0.104685
0.00809655
0.0212894
-0.0293859
-0.28905
0.0767529
-0.0689703
-0.21837
0.115019
0.103351
0.173745
-0.155906
-0.07135
0.0168297
-0.0229881
-0.0912886
-0.00716166
0.0984502
0.149891
0.0263961
-0.0339522
-0.157981
0.317924
-0.159944
0.00252306
-0.0259193
0.0233962
-0.0209729
-0.158546
0.0224368
-0.00416425
-0.0182725
0.00527132
-0.00538412
0.000112795
0.0240459
-0.0215229
-0.0019942
0.128587
-0.126593
-0.143942
-0.156537
0.300479
0.120403
-0.297503
-0.324313
0.657688
-0.333376
-0.17036
0.419516
-0.109565
-0.309951
-0.0239044
-0.15984
-0.0157849
0.0236102
-0.156197
0.132587
-0.055291
-0.121216
0.117822
-0.216602
-0.366489
0.235671
0.00401074
-0.187949
0.183938
-0.172011
0.168632
0.00337897
-0.147177
-0.148767
-0.121553
0.189933
0.0313332
0.00897745
-0.0403106
-0.0106505
-0.070118
0.0807684
0.0232192
0.163922
-0.187141
-0.134046
-0.00855485
0.142601
-0.0418256
-0.00697736
0.229832
0.00903076
0.00460322
-0.55772
0.202102
0.143749
-0.00335212
-0.140396
-0.135641
0.209821
-0.190435
0.353529
-0.163094
0.115096
-0.139035
0.0239393
-0.157858
0.424502
-0.148179
0.372414
-0.062754
0.107824
-0.0929807
0.282024
0.100307
0.00544603
-0.297532
0.150793
0.0043399
-0.000861319
-0.00347858
-0.0801202
0.0886856
-0.00856537
0.00733748
-0.0892785
0.0819411
0.0746073
-0.0825376
0.133298
-0.325212
0.191914
0.00562994
-0.108122
0.103825
0.00429727
0.528013
0.0118938
-0.0231431
-0.206434
-0.00665322
0.015684
0.210774
-0.209616
-0.00115828
-0.0683166
0.0672487
0.0216688
-0.0101048
0.00116117
-0.122152
0.0932712
0.0288807
0.12383
0.188398
-0.312228
-0.0461625
-0.0161318
0.0833805
0.012998
-0.105234
-0.113135
0.321631
0.160659
-0.257551
0.38503
-0.127479
0.0612297
0.0920055
0.25513
-0.306204
0.0510742
-0.000247478
0.0171997
0.00435327
0.27869
0.298531
-0.0408543
-0.0606203
-0.0965894
0.0180917
0.0784977
-0.302484
0.149063
-0.0106355
0.0419686
-0.00272209
-0.00178778
0.100559
-0.00687917
-0.213054
0.165295
0.00818073
0.0380267
0.145598
-0.161073
0.477534
-0.316462
0.0193844
-0.0184614
-0.132285
0.1439
0.374469
-0.258796
-0.115673
0.424278
-0.180894
-0.243383
-0.18561
0.169727
-0.160607
0.139224
0.021383
0.0268686
-0.0360661
-0.00151753
-0.0119292
0.0171314
0.133371
-0.150503
0.037476
-0.00461373
-0.0328623
0.06413
-0.210379
0.146249
0.164972
0.158815
-0.323787
-0.0895246
0.0419818
0.0475428
-0.236704
-0.214797
-0.00190379
-0.0822695
0.0841732
-0.396917
0.591624
-0.24573
-0.345893
0.131717
0.0781158
-0.209833
-0.0812549
0.0102877
-0.0347143
0.0244265
-0.0239929
-0.00348385
-0.0795616
0.088226
-0.00866436
-0.00247397
0.0143447
-0.0118707
-0.0138145
0.0540468
-0.0402323
0.122386
0.0292896
-0.0922267
-0.208024
-0.149148
-0.148384
0.0205095
0.136655
0.497841
0.0361588
-0.534
0.144616
-0.13166
0.0192127
-0.0282661
-0.0541202
-0.113533
0.542674
-0.0993531
0.140586
-0.0412327
-0.00418557
-0.0969691
0.1041
-0.00713115
-0.00308264
-0.00554172
0.122578
-0.0990058
0.433578
-0.165406
0.0928238
-0.083571
-0.00925281
0.0211185
0.176638
-0.00526036
-0.0276151
0.0291944
-0.300606
-0.327881
0.140519
0.233949
0.44121
-0.271932
-0.169278
0.220082
-0.0397202
0.0904285
-0.0905647
0.000136208
-0.0058403
0.040521
0.00593324
-0.0368183
0.0571816
0.11247
0.313959
-0.471817
0.00651998
0.0896133
0.226479
0.0905611
0.013008
-0.0848021
-0.0178051
0.015168
0.134519
-0.115054
-0.00140829
-3.57868e-05
0.0076795
0.011242
-0.00617536
0.0148073
0.11323
-0.128037
-0.0224476
0.174581
-0.0252756
0.0220408
0.183299
-0.160079
0.0743505
0.0927142
-0.167065
0.0878002
0.0358621
-0.0116749
0.333156
-0.143719
-0.189437
0.0499598
0.0206935
0.325775
-0.160803
-0.0422357
-0.0101937
0.0524293
0.00714834
-0.374012
-0.183709
0.175584
0.147153
-0.0320565
0.0974563
0.00099234
0.176353
-0.138176
-0.0381768
-0.34413
0.551362
-0.207232
0.0260485
-0.203506
-0.175252
0.215001
-0.0397498
-0.115008
-0.116181
0.231189
0.0212158
0.051343
-0.0725588
0.279397
-0.458584
0.179187
0.00662146
-0.056473
0.0234341
-0.02109
0.17949
0.146285
-0.176484
0.154037
-0.0250144
-0.135593
-0.487842
0.242381
0.039142
-0.00268102
-0.0177998
0.00685975
0.0261697
0.00438758
-0.0305573
0.20936
0.243458
-0.452818
0.0287956
-0.20913
0.180334
0.0208071
0.169692
-0.1905
-0.221791
-0.0246893
0.24648
-0.0949061
0.0148913
0.0800148
0.0249231
0.380811
-0.598517
0.217705
-0.0109533
0.110217
-0.0992642
-0.133062
-0.0466646
-0.0713987
0.0161917
0.055207
0.147845
0.00173442
0.0395403
-0.214792
-0.219576
0.0512126
0.168363
0.0920807
0.112177
-0.0116287
-0.100548
0.111832
-0.232634
0.367651
-0.135017
0.016253
-0.0235101
0.00506214
0.018448
-0.0496135
0.027157
0.00138097
-0.00696364
-0.0521274
0.0098917
0.00249179
0.0178171
0.00461969
0.366395
-0.192996
-0.173399
-0.338145
0.163408
0.18087
0.11649
-0.29736
-0.0109637
-0.074602
-0.107817
-0.0340562
-0.110292
-0.0076272
0.00687834
0.000748866
-0.31604
0.158059
0.184991
0.336264
-0.521255
0.379472
-0.0109564
-0.0778637
0.30061
0.213343
0.131553
-0.206605
0.0750521
0.100113
0.0903065
0.0722282
-0.0547284
-0.0174998
-0.111994
0.216409
-0.104416
-0.334569
-0.181721
-0.448024
0.257305
-0.142393
0.329136
-0.186743
0.18584
-0.620671
0.123178
-0.115197
-0.00798096
-0.0802651
-0.0146409
-0.0477936
0.122144
-0.0573086
0.00807393
0.0492346
-0.200481
0.346597
-0.146117
0.155048
0.003624
-0.0366447
0.0298567
-0.0244736
0.000574467
0.0720568
-0.00567953
-0.0663772
0.0667367
0.0412825
-0.108019
0.0573259
0.0340423
0.425141
-0.129804
0.110944
0.0188599
0.0229555
-0.242531
-0.425179
0.142206
-0.1825
0.195263
-0.0127628
-0.0011983
0.110528
-0.279545
0.169017
0.110002
0.00217473
-0.0698585
0.0679547
0.294785
-0.192229
-0.302706
0.112271
-0.160833
0.126651
0.034182
-0.00342788
0.366494
0.205982
-0.572476
0.0273578
0.0448704
-0.124032
0.304901
0.0768556
-0.0878193
0.463454
-0.23059
-0.0973429
-0.177076
0.0710838
-0.0680771
-0.0267301
0.0948072
0.0565211
0.229054
0.0125082
-0.0797569
-0.0064954
-0.00206448
-0.0895634
-0.0440283
0.0105911
0.0334372
-0.344619
0.10675
-0.00122903
-0.0011823
-0.079582
0.0629974
-0.394208
0.30016
0.0940484
-0.00023073
-0.0833403
0.0255221
-0.107311
0.0795593
0.0277521
-0.223442
-0.192727
-0.112547
0.305275
0.430633
-0.441175
0.0105414
0.308774
0.253585
-0.04796
-0.205625
-0.139234
0.143612
-0.00437759
-0.109693
-0.0120803
0.121773
-0.182459
0.306289
-0.215615
0.432329
-0.106142
0.0318287
-0.24119
0.418282
-0.177092
-0.0642956
0.0438493
0.0204463
-0.177307
0.0176339
-0.000384062
0.0170443
-0.0166602
0.0678983
-0.0955128
0.250338
-0.473865
0.223527
0.0099941
0.244722
-0.531664
0.286942
0.185867
-0.0230777
0.114811
-0.12494
0.0101283
0.0822947
-0.010238
0.126369
-0.128363
0.336126
-0.593515
0.257389
0.110583
-0.0210485
-0.0900459
0.0373186
0.0527273
0.103976
-0.103457
0.0193167
-0.0959388
0.0766221
0.134409
-0.103306
-0.0311029
0.0988887
-0.122275
-0.080501
-0.0376878
0.12659
-0.00579975
-0.120791
0.0795974
-0.191591
0.223862
0.191796
0.0628136
0.000114896
0.00460435
-0.0429843
0.212607
-0.169623
-0.425447
0.264374
-0.00527745
-0.0016871
0.293345
0.19868
-0.492025
0.151077
-0.0138482