/*--------------------------------*- C++ -*----------------------------------*\
| =========                 |                                                 |
| \\      /  F ield         | OpenFOAM: The Open Source CFD Toolbox           |
|  \\    /   O peration     | Version:  v2012                                 |
|   \\  /    A nd           | Website:  www.openfoam.com                      |
|    \\/     M anipulation  |                                                 |
\*---------------------------------------------------------------------------*/
FoamFile
{
    version     2.0;
    format      ascii;
    class       surfaceScalarField;
    location    "300";
    object      phi_0;
}
// * * * * * * * * * * * * * * * * * * * * * * * * * * * * * * * * * * * * * //

dimensions      [0 3 -1 0 0 0 0];
oriented        oriented;


internalField   nonuniform List<scalar> 
20580
(
-0.124541
0.0055158
0.119025
0.124667
-0.245216
0.120549
0.255083
-0.130416
0.00403318
-0.000188288
-0.00384489
0.583833
-0.61974
0.0359074
0.258532
-0.183408
-0.0751231
-0.296357
0.0445619
0.575406
-0.578224
0.00281895
-0.0319556
0.0286868
0.00326881
0.423372
-0.246441
-0.176931
0.141275
0.00576256
-0.147037
-0.518682
0.31261
0.206073
-0.207621
0.285576
-0.0779546
0.0253225
-0.011086
-0.0142366
0.186898
-0.0352391
-0.151659
-0.111452
0.0995814
0.0118707
0.000114699
0.00143793
-0.00155263
-0.170479
0.354576
-0.184098
0.0928602
-0.101611
0.00875073
-0.113745
-0.0107963
0.0591337
-0.186967
0.127833
0.233973
-0.199269
-0.0347041
0.026768
-0.0584628
0.0316949
-0.584788
0.591839
-0.00705146
0.0780879
-0.0959501
0.0178622
0.00186686
0.112676
-0.114543
-0.0126561
-0.067248
0.079904
-0.0893393
0.0754037
0.0139356
-0.00906999
0.0404345
-0.0313645
0.483529
-0.323209
-0.16032
-0.0176844
0.00675849
0.0109259
-0.223508
-0.0728491
-0.11296
0.123013
-0.0100532
0.0483374
-0.0410451
-0.00729232
-0.153687
0.145426
0.00826125
-0.0308184
-0.00749059
0.038309
-0.6152
0.0304123
0.0006811
-0.068455
0.0677739
-0.0154491
0.0270178
-0.0115687
-0.129059
-0.162228
0.291287
-0.0263851
-0.00566997
0.032055
-0.0420373
0.0329673
0.00862507
-0.00862507
0.0934032
0.00478802
-0.0981912
0.0383883
-0.0470675
0.00867912
0.449877
-0.277249
-0.172628
-0.53504
-0.0694275
-0.126717
0.0446998
0.0820177
-0.0485128
-0.211838
0.260351
-0.299327
0.0917056
-0.0114386
0.0111143
0.000324296
0.145219
-0.285207
0.139988
-0.100747
-0.0107048
-0.0459001
-0.126389
0.172289
0.0233593
-0.00119075
-0.0221686
0.103827
-0.232886
0.00564474
-0.118605
-0.0341609
0.00777584
-0.0185628
0.0876109
-0.0690481
-0.0124175
0.0185906
-0.0061731
-0.354554
-0.164128
0.0735857
-0.0862418
-0.217976
-0.197132
0.415108
-0.192498
0.143985
-0.0412262
0.0950941
-0.0538678
-0.0852756
0.0440494
-0.0158127
0.00339526
-0.0976523
0.0672752
0.353605
-0.247254
-0.106351
-0.00288223
0.000865071
0.00201716
-0.0104676
0.00183211
0.0086355
0.161819
-0.179304
0.0174844
-0.0332972
-0.221454
0.254751
0.0177451
0.00084549
0.176026
-0.015884
-0.160142
0.221675
-0.213682
-0.0079933
0.000562069
-0.00044737
0.342018
-0.525252
0.183234
0.0948193
-0.0167313
0.449071
-0.216731
-0.232339
0.24428
0.109326
-0.102986
0.111797
-0.0088112
-0.0259368
-0.127751
-0.018079
0.0229916
-0.00491255
0.0186916
-0.000946548
-0.00647968
0.0129304
-0.00645068
0.0683796
0.165594
0.0297599
-0.00513034
-0.0246295
0.230408
0.146404
-0.376811
-0.0134474
-0.00423699
0.268431
-0.123212
-0.301109
0.0776013
-0.00543265
0.00543265
-0.0104407
0.00396105
0.0151986
-0.0231834
0.00798472
0.0338414
0.067334
-0.101175
0.146475
-0.351328
0.204854
-0.0906095
0.105084
-0.0144741
-0.0139357
0.0144276
-0.000491969
0.00903092
0.098828
-0.107859
-0.108555
0.0179454
0.126291
-0.0482946
-0.0779969
0.0851817
-0.123719
0.0385369
-0.168577
-0.0805664
0.249144
-0.468341
0.131569
0.336772
0.128634
-0.167021
0.0383874
-0.164669
-0.303672
-0.00855999
-0.00190762
-0.0734096
-0.227699
-0.336127
0.165648
-0.0135946
0.15431
-0.140715
0.336119
0.113758
-0.0976143
0.109617
-0.012003
0.0180446
0.106491
-0.124535
-0.112668
0.108814
0.00385435
0.162788
-0.208688
0.168575
-0.397673
0.229098
0.465389
0.110017
-0.00166158
0.00569476
-0.00858562
0.00570339
0.0666318
-0.104452
0.0378202
0.158431
-0.416946
0.258515
-0.275875
0.287803
-0.011928
0.0179412
0.0009113
-0.0188525
0.082056
-0.10714
0.0250841
0.0287263
-0.0697336
0.0410073
0.34175
-0.195275
0.0603652
0.0891167
-0.149482
0.0282118
0.00466295
-0.0328748
0.145535
0.0146037
-0.160139
-0.199877
0.000608216
-0.129129
0.183227
-0.0540984
-0.0759309
0.076612
0.0333694
0.014968
0.00196179
0.139313
-0.00804692
0.0236484
-0.0156015
-0.0505483
0.00995198
0.00297838
-0.0126831
0.127736
-0.115053
-0.161972
0.0261958
0.135776
-0.101394
-0.00159227
0.252644
-0.230985
-0.0216591
-0.0665509
0.296959
-0.0827601
0.00303269
0.0797274
-0.00357711
-0.0667368
0.0703139
-0.0401988
0.231628
-0.191429
0.513953
-0.171935
-0.00368225
0.0387058
-0.0311505
-0.00755532
-0.0602307
0.120596
-0.0533462
-0.0552087
-0.105456
0.00784171
-0.100426
0.118471
0.0964672
-0.0928241
-0.00364309
-0.216021
-0.0217722
0.237793
0.128869
0.189043
-0.317912
0.309866
0.213946
-0.523813
-0.0231674
0.00771833
-0.182322
0.0872442
0.0950778
-0.0481011
0.206644
-0.158542
-0.416261
-0.164234
0.580495
0.0415488
-0.0365524
-0.00499643
0.154961
-0.0263273
-0.0386627
-0.0880547
0.0126305
0.0126921
-0.0439648
0.00586331
0.0381015
-0.0349845
-0.00898032
-0.00960614
-0.00183248
0.153715
-0.16731
0.0657948
-0.0564078
-0.00938702
0.534992
-0.326937
-0.208055
0.437612
-0.269037
0.15097
-0.137618
-0.0133526
0.549902
-0.110289
-0.439613
0.0229588
-0.00776016
-0.0729608
-0.0156997
0.0886605
0.0926419
-0.102918
0.0102759
0.255859
0.181753
0.180261
-0.164778
-0.0154829
0.107313
-0.014671
0.0967047
-0.0146487
0.127245
0.0116758
-0.175625
0.163949
0.178639
-0.0331041
-0.00456653
0.00456653
0.0135351
0.0251708
0.0936937
0.0293194
-0.0741321
-0.0596821
0.133814
0.229597
0.00658028
-0.236177
-0.134729
-0.240294
0.375022
-0.0714356
0.0678585
-0.129328
-0.0529938
-0.0156568
0.00457084
0.128722
0.129809
-0.227073
0.186875
-0.0975937
0.111689
-0.0140955
0.115185
-0.0214911
0.200693
0.102557
-0.30325
0.127814
-0.311758
0.183944
-0.0115684
-0.0743133
0.0858817
0.110899
-0.105385
-0.0055134
0.0103486
-0.0263105
0.015962
0.0376754
-0.0283097
-0.00936573
0.0177797
0.169118
-0.0101084
-0.0500221
0.0601305
-0.00945565
0.0198042
0.19576
-0.213661
0.0179009
0.115305
-0.133077
0.017772
0.0340071
-0.0091981
-0.024809
0.199043
-0.00859997
-0.190443
-0.0984787
0.105032
-0.00655366
-0.243767
-0.0321081
0.00950477
-0.646352
0.396476
0.249875
-0.13434
0.156007
-0.0216674
-0.213588
0.180362
0.0332261
-0.247228
-0.0520984
-0.00340208
0.0798606
-0.0764585
-0.173683
-0.138605
0.312288
-0.00189377
0.0259181
-0.201755
0.457614
0.11476
-0.10651
-0.00824961
-0.0208877
0.00280872
0.0254766
-0.0194685
-0.00600813
0.0354006
-0.141373
0.105973
0.138245
-0.0229398
0.66847
-0.366493
-0.301977
-0.0321804
-0.0505797
0.171904
-0.455349
0.283446
0.0110861
0.0083363
0.00959883
-0.0179351
0.0857637
-0.159896
-0.036129
0.235172
-0.480667
0.221964
0.00656065
0.0311148
0.22747
0.256059
0.0828541
-0.0560861
0.0330157
-0.0254881
-0.00752757
-0.105137
0.114167
0.143162
-0.559423
-0.0496449
0.0868861
-0.0372412
-0.0180162
0.0214679
-0.00345173
-0.00702598
0.0454143
0.00110264
0.174528
-0.174124
-0.000404594
0.0657816
-0.0640808
-0.00170082
0.0808934
-0.0842954
0.0255478
0.154713
0.103328
-0.0359941
0.155059
-0.155731
0.000671652
0.00335677
-0.0201603
0.0168035
-0.102962
0.110417
-0.00745566
-0.309191
0.64526
-0.336069
0.0572093
0.152343
-0.209553
0.00748992
0.0413473
0.000201547
-0.0195163
-0.00605699
0.0255732
-0.347178
0.212449
0.0532657
0.186352
0.154598
-0.34095
0.094458
-0.0936536
-0.000804348
0.102973
-0.0973744
-0.00559898
-0.0974197
0.154629
0.141768
0.013193
-0.122707
0.0197449
-0.0929289
0.301916
-0.208987
0.0554022
0.0708892
-0.126804
0.0372699
0.0895342
0.0941856
-0.0770773
-0.0171084
0.458796
-0.190719
-0.268078
-0.294164
0.0469357
0.121164
-0.0332853
0.0410138
-0.00772847
0.00939773
0.000519914
-0.00991765
0.148371
-0.0149926
-0.133378
0.386501
-0.22807
0.0903226
0.00638204
-0.0932115
0.0971138
-0.00390227
-0.0935118
0.113664
-0.0201522
0.153488
-0.0117196
-0.0386714
0.00538606
-0.0157669
0.0155376
0.000229299
0.144367
-0.191858
0.047491
-0.0978181
-0.0605505
0.158369
-0.0869052
0.0903671
-0.00346187
0.181944
0.167577
-0.349521
0.226759
0.295789
-0.522548
-0.108466
0.0149544
-0.0158152
0.136719
-0.120904
-0.458717
0.229669
0.229047
0.492111
0.131537
-0.623648
0.404895
-0.232991
-0.563829
0.570517
-0.00668817
-0.0161494
-0.15143
0.16758
0.536626
-0.0277604
-0.00419511
-0.0884402
0.147574
0.15035
-0.287532
0.137182
0.0105289
0.0216618
-0.00372063
0.0584677
0.214601
-0.273069
0.00101548
-0.0125742
0.000300802
0.0122734
0.0718532
0.18079
-0.183281
0.241749
-0.208311
0.119871
0.0179225
-0.0184687
0.000546216
0.0292621
0.0107696
-0.0400317
0.153236
-0.0266784
-0.126558
0.461487
0.122346
0.0621331
0.00366172
0.180438
0.138511
-0.143603
0.00509231
-0.0113852
-0.00118897
0.0861225
-0.0814354
-0.00468712
-0.251791
0.20369
-0.0933155
0.00641025
0.00336796
0.0804606
-0.0838285
-0.00704789
0.0136347
-0.0065868
0.103917
-0.00288799
-0.101029
0.0450705
-0.113109
0.068039
-0.026198
0.0181511
0.0227468
-0.00183723
-0.0209095
-0.0276144
-0.0617249
0.313487
-0.185673
-8.22478e-05
0.0015241
-0.00144185
-0.0213842
0.0213842
0.00354467
-0.0337975
0.0302528
-0.0404988
0.0440435
0.145831
0.049929
0.154518
-0.027158
-0.12736
0.0241703
-0.158891
0.134721
0.0129035
0.0168564
0.0535442
-0.114749
0.0612053
-0.21581
-0.300515
0.516325
-0.105623
-0.429417
-0.0514908
0.178499
-0.127009
0.00373693
-0.0107848
0.029363
0.369432
-0.187489
0.00229327
0.0534625
0.112894
-0.166357
-0.176679
0.0475504
-0.0468454
0.253489
0.0185399
-0.000617426
0.0918511
-0.0015285
0.0109421
-0.012539
-0.201049
0.180268
-0.216397
-0.0411341
0.0363334
0.00480069
0.247313
-0.0177156
0.00325572
-0.0617096
0.206077
-0.121386
-0.0869254
0.142177
-0.0887145
0.332755
0.28917
-0.13882
0.108067
-0.12609
0.0180227
-0.013345
0.112173
-0.10937
0.113654
-0.00428421
-0.072563
-0.0314964
-0.00963767
0.190419
0.041208
0.00470604
-0.101476
0.0917713
0.0097049
-0.192474
0.429523
-0.237049
0.0889188
-0.0027963
-0.0996961
0.120332
-0.0206362
-0.0120867
-0.00184895
0.164558
-0.216049
-0.133452
0.004252
-0.0870117
0.0684489
-0.0845777
0.0729952
0.0115825
0.110734
-0.115869
0.00513438
0.0283172
-0.0239003
-0.0044169
0.285464
-0.235272
-0.0501913
0.0161403
-0.0891011
0.000296674
0.00832839
0.0182863
-0.17952
0.161234
0.0195971
-0.0162404
-0.028802
-0.148133
0.176935
-0.0373155
0.0101509
0.0271646
0.0817937
-0.179612
-0.028458
-0.129915
0.110341
-0.109487
-0.000853814
0.0485899
-0.0864251
0.0378353
0.307548
-0.178679
0.232345
-0.151093
-0.0812523
0.0934139
-0.109229
0.0112483
-0.294382
-0.0236935
0.318076
-0.00760265
0.155974
-0.0443524
-0.00286142
0.0472138
-0.209879
0.176582
-0.0756211
-0.0574561
-0.00894475
0.0106461
-0.00170132
0.102826
-0.251341
0.148515
-0.0347982
0.106985
-0.0721865
-0.151113
0.148613
0.00250028
-0.0132481
0.0425102
0.186729
-0.195329
0.129648
-0.127781
-0.0720388
0.0619304
-0.00416658
0.15772
-0.15131
-0.00640944
-0.0306303
0.0111141
0.000675439
-0.0893933
0.0397484
-0.279312
0.186383
0.110585
-0.00251807
0.150019
-0.175541
0.0255219
-0.124346
-0.00910597
0.415658
-0.206541
-0.209117
-0.00696484
0.00696484
-0.00715056
0.0449308
-0.0377802
-0.0811485
0.0858466
-0.00469815
-0.0553727
0.23564
-0.0123656
0.0807335
-0.0785679
-0.00216563
0.0096424
-0.000244664
0.481849
-0.212512
-0.269336
-0.00424952
0.00416727
-0.0988273
0.101144
-0.00231635
-0.0224557
-0.0159942
0.0384499
0.16538
-0.0103207
-0.0141631
-0.0717956
0.0859587
-0.0403577
-0.23787
0.278227
0.567737
-0.0178355
0.000172434
0.0231869
0.0848044
-0.0062829
-0.0785214
0.14563
0.277742
-0.204685
-0.0405303
-0.132852
0.0572311
-0.156765
0.459184
-0.302418
-0.0493175
0.042167
0.0333103
0.121208
-0.118734
0.019038
-0.21869
0.21613
0.00256004
0.0121423
0.273321
-0.331086
0.25161
0.0794759
-0.0714495
-0.0131282
-0.0778691
-0.209663
-0.0301781
-0.300908
0.0164716
-0.0673187
0.0508471
-0.0488553
0.00450293
-0.166698
-0.0331799
0.0163337
-0.0881297
0.071796
0.216713
-0.434689
0.515195
-0.219406
0.269216
-0.16639
0.00104704
0.126334
-0.141874
0.0155399
-0.32663
0.0299444
0.296686
-0.312123
0.211288
0.100835
-0.0404182
0.10705
-0.119302
0.293411
-0.174109
-0.057793
0.0433123
0.0144807
-0.171061
-0.378842
0.549903
-0.152207
-0.0558531
0.20806
-0.0245925
-0.022475
0.00188287
-0.0951131
0.0932302
0.429141
-0.606266
0.177125
0.498259
-0.200129
-0.298129
-0.193977
-0.0247131
0.317041
-0.123018
-0.194022
0.0790926
-0.100211
0.0211184
-0.0647519
0.0578928
0.00685901
0.187166
-0.0126376
-0.0130035
-0.0372549
0.0502584
0.213844
0.266645
-0.485862
0.219217
-0.0222585
0.0317954
-0.00953692
-0.070678
-0.160477
0.0857746
0.0747027
-0.30025
0.272763
0.0274874
0.0236581
-0.128168
0.115485
0.0738714
-0.0260453
-0.047826
-0.237511
0.0689336
-0.165074
0.000665806
0.164408
-0.0153556
-0.191938
0.168322
0.0236162
-0.0285667
0.0267294
0.0869629
-0.00622939
-0.0856748
0.00452627
-0.234527
0.0819238
0.152603
-0.001539
-0.158979
-0.150236
0.309215
0.00388212
-0.13529
-0.0158234
0.0399586
0.0752262
0.174779
-0.0247596
0.209136
-0.112915
0.114797
0.123812
-0.446091
-0.17365
-0.00889569
0.00792522
0.000970473
0.00676976
-0.0290283
-0.0183283
-0.0394647
-0.00742021
-0.000680821
0.00810103
-0.0482803
-0.00558365
0.00753828
-0.00195463
-0.00026064
0.151675
-0.0288013
-0.122874
0.577221
-0.30532
-0.271901
0.0570376
-0.0918359
0.148137
-0.394577
-0.37371
0.0793275
0.0194654
-0.140401
0.120935
-0.0172555
0.025574
-0.00831849
-0.0584129
-0.183673
0.242086
0.2061
-0.229577
0.023477
-0.142608
0.0950243
0.0475833
-0.143365
0.0106219
0.132744
0.396638
-0.181621
-0.215017
-0.0400047
-0.0279102
0.0679148
0.459936
-0.286163
-0.173773
0.0342022
-0.0295725
-0.00462968
0.0907601
-0.0116676
0.166281
0.282789
-0.295944
0.204345
0.0915986
0.0984486
-0.0973817
-0.00106692
0.0127503
-0.231247
0.0693619
-0.0895218
0.0201599
-0.0363066
0.0933442
-0.143469
0.355757
-0.212289
0.0220888
-0.014349
-0.00773975
-0.00699094
0.0998511
0.101825
-0.100497
-0.00132821
-0.0480888
-0.186438
-0.0106944
-0.0566243
0.0169513
-0.00263698
-0.0143144
-0.336664
0.193195
-0.00792932
-0.0761595
0.0840888
0.368162
-0.176736
-0.191427
0.108607
-0.0624392
0.0703441
-0.00790492
-0.0204235
-0.016892
0.187605
-0.165479
-0.0221264
0.141069
-0.0147354
0.231336
-0.405877
0.174541
0.119204
-0.118189
-0.00101443
0.0331966
-0.00498478
-0.0170802
0.0230458
-0.0059656
-0.25617
0.394206
-0.138036
0.000812004
-0.00144478
0.000632774
-0.350324
0.120908
-0.00930165
0.161316
-0.15871
-0.00260546
0.334572
0.147276
-0.0743685
-0.139313
-0.0164714
0.0204179
-0.00394653
0.109269
-0.0606793
0.0056174
0.201855
-0.260268
-0.174737
0.329335
-0.030263
0.0376222
-0.0073592
0.145011
0.406292
-0.551303
-0.106232
-0.00647493
0.112707
-0.177457
0.240617
-0.0631594
0.177777
-0.164236
-0.0135412
0.185007
-0.034834
-0.150173
-0.0391383
0.0462092
-0.00707087
-0.0141159
-0.001651
0.0878464
-0.223712
0.135865
0.00532479
-0.00502812
0.0863851
0.179149
-0.265534
0.000382622
0.123436
-0.123818
-0.0325705
-0.0094668
0.0230924
-0.0242832
0.281518
-0.315698
0.03418
0.142937
-0.00888455
0.0940662
0.0186679
0.00175002
0.0077832
-0.0855655
0.0777824
-0.0138922
0.133096
0.0921621
-0.0182908
0.183658
-0.0223426
-0.0725558
0.154349
-0.022969
0.0313053
0.0620754
-0.00884196
-0.0532335
-0.0655629
0.125811
-0.0602483
0.0299925
0.00420962
-0.0759191
0.09097
-0.0150509
0.00520059
0.0346821
-0.0398827
0.308345
-0.207063
-0.101283
0.0796646
0.00794627
0.0719029
-0.086066
0.516025
-0.245461
-0.270564
-0.00434113
-0.00109152
0.0526736
-0.0156704
-0.0370033
0.165391
0.0166675
0.309915
-0.133977
-0.175939
-0.0520206
0.0390171
-0.114377
0.122959
-0.00858158
-0.0441034
0.0671946
-0.0230912
-0.26171
0.183841
0.603229
-0.0569537
-0.546275
-0.0978342
0.131819
-0.0339849
-0.125721
-0.0176447
-0.502997
0.331935
0.00570331
0.503141
0.100087
-0.0946942
0.0187751
0.223673
-0.216482
-0.00719117
0.00625199
-0.130598
-0.254656
0.174089
0.210356
0.186282
-0.127892
-0.00982811
0.13772
0.000136216
0.000675788
0.167149
-0.144
-0.0231496
0.0041799
0.0181533
-0.286173
0.48229
-0.196117
-0.417635
0.0162857
0.401349
0.0040474
-0.141665
-0.146739
-0.165384
-0.0950824
0.11911
-0.0240274
-0.26076
0.173292
0.0874675
-0.116901
-0.0435766
0.0834454
-0.0037808
0.325
-0.557997
0.232997
-0.0210371
0.023916
-0.00287888
0.311047
0.357423
-0.107847
0.095148
0.0126986
0.00529382
3.09719e-05
-0.0337689
-0.00541616
0.0391851
0.0181922
0.0208617
-0.0649652
-0.0577469
-0.0848607
0.0995279
-0.109737
0.0102086
0.0435076
0.00916602
0.2278
-0.376826
0.149026
-0.061882
0.0218773
0.137065
-0.148506
0.166792
0.0005253
-0.00794551
0.00626151
0.0764188
-0.0826803
-0.349613
0.157139
-0.118757
0.0236749
-0.105246
0.305939
-0.0321569
0.0373575
0.0094092
-0.00115379
-0.00825541
0.0158085
0.191839
-0.207647
0.0557068
-0.0411988
-0.00680342
0.0480022
0.618626
-0.333204
-0.285422
0.38464
0.233986
0.127196
-0.0145194
-0.0235383
0.00250118
-0.0583705
0.0680215
-0.00965104
-0.219793
0.0365119
0.114432
-0.104896
-0.00953615
0.158575
-0.277878
0.319056
-0.38281
0.0637544
0.0677097
-0.0825478
0.0148381
0.00494517
0.131394
-0.0962099
-0.0351836
0.16348
0.311236
-0.474716
-0.0608044
-0.0659997
0.0965314
0.0370757
-0.133607
0.0202446
-0.133035
0.112791
-0.26757
0.0858811
0.181689
-0.19576
-0.0313136
-0.12462
0.0102434
-0.179727
0.0818928
-0.123213
0.0845502
0.0135072
0.148312
-0.122413
-0.056891
-0.122904
0.0573412
-0.0946496
0.0686043
-0.028811
-0.0727999
0.0386139
-0.0524528
0.0138389
-0.0166743
0.0860362
-0.0746829
0.0213367
0.0206097
0.00149989
-0.0221096
-0.0306014
-0.0996619
0.130263
0.0077707
-0.0702099
-0.00468555
0.152619
0.187004
-0.339623
0.10392
-0.176476
-0.112214
0.0834033
-0.0168263
0.183905
-0.167079
0.219727
-0.436459
-0.451501
0.245981
0.20552
0.11095
-0.101244
-0.00970548
0.0035835
0.0247337
-0.203001
0.0507938
-0.0309754
0.00548722
0.189085
-0.475258
0.010466
-0.0688365
-0.0452348
0.102937
-0.0577024
-0.0126061
0.00122092
-0.0814374
-0.0373199
-0.0179734
0.204703
0.100273
0.15481
-0.00258737
-0.0100188
0.069032
0.0623615
-0.146701
0.1161
0.00623647
-0.313589
0.325731
-0.0917411
0.0961349
-0.00439379
0.00310308
-0.0634404
-0.0312538
0.180681
-0.0284647
-0.152216
0.102365
-0.106729
0.00436326
-0.252018
0.211661
-0.335305
-0.0305084
-0.183153
0.340529
-0.0214738
0.0402507
-0.00913722
-0.0311135
-0.412186
-0.151643
0.0831594
-0.0154497
0.0107508
-0.115762
0.0343248
-0.0174159
0.024961
-0.00754504
0.00578379
0.00864384
-0.0938571
0.0304166
-0.00649097
0.106019
0.169652
-0.15146
0.136604
-0.237328
-0.0568362
0.0240334
0.336596
-0.36063
-0.000844563
-0.416791
0.392853
0.141552
-0.125219
-0.0163327
-0.0233854
-0.0818277
0.105213
0.106272
-0.0097407
-0.00709456
0.0824982
-0.244976
0.0140762
0.2309
0.00624662
0.486999
0.110016
-0.00140981
0.00122153
0.0129565
-0.141899
0.128943
0.0436506
0.443348
0.232864
0.246597
-0.479461
-0.0308851
0.0397236
-0.00883845
0.0313465
-0.214755
0.0293723
0.029864
-0.0592363
0.044793
-0.00128544
0.11344
0.0924279
-0.12049
0.0280619
-0.233179
-0.146724
0.379903
-8.03237e-05
-0.0409648
0.000352074
0.16005
-0.160403
0.0573007
-0.240974
0.000897596
0.342853
0.181214
-0.524067
0.0237315
-0.254716
-0.153421
-0.18317
0.336592
-0.0151472
0.142931
-0.127784
-0.0202425
0.0212532
-0.00101062
0.0299917
-0.190826
0.160834
-0.169815
0.171356
-0.00154057
-0.112699
0.0138713
-0.0234166
0.0063364
-0.176507
0.116825
0.0116156
0.139594
-0.15121
0.0402375
-0.0059249
-0.0343126
-0.355618
0.379652
0.0327469
-0.328609
-0.192496
0.521105
0.0463496
0.247061
-0.0756075
-0.0132698
0.0888773
-0.0766204
0.114721
-0.0381005
-0.0129198
-0.0997481
0.110715
-0.00872999
-0.101985
0.0158389
-0.539432
0.315023
0.224409
0.377354
0.219661
0.114306
-0.113923
0.232334
0.0760114
-0.119175
-0.420257
0.197756
-0.219188
0.0214317
0.105753
0.00261082
-0.108363
-0.398799
0.434165
-0.0353657
0.0980621
-0.10397
0.00590773
0.0152436
-0.0611777
0.0475204
0.0136573
-0.00301614
0.113732
0.00506704
0.012614
-0.017681
-0.00281581
0.130552
0.479457
0.118634
-0.111025
-0.00760846
-0.516291
0.236885
0.279406
0.136581
0.0957637
-0.0142995
0.0529134
0.0364624
-0.000129029
0.000193452
-0.0429445
0.0370197
-0.1771
0.301377
-0.124277
-0.192507
0.208316
0.123663
-0.0771531
-0.0465099
0.224954
-0.207831
-0.0171235
-0.187055
-0.192474
0.379529
-0.0196074
-0.0388555
0.0936802
0.000777793
0.000923119
0.0193547
-0.0202778
-0.0187402
-0.114546
0.0379258
-0.347747
0.305771
0.0419766
0.0076808
-0.330889
0.0957117
-0.0596129
-0.0360988
-0.0801676
-0.0385666
0.248205
0.490329
0.136308
-0.626638
0.0306741
0.0781394
0.100523
-0.00218013
-0.0983431
-0.0208245
-0.254709
0.0386882
-0.628487
0.362398
0.266089
-0.0225083
0.00226573
-0.254722
-0.0128484
-0.0168602
-0.155285
0.172146
0.358404
-0.515169
-0.0201048
0.0267879
-0.00668306
-0.477253
0.168062
-0.00451049
-0.000517628
-0.282973
-0.121475
0.404448
0.00352276
-0.108659
0.174672
-0.151552
-0.0231198
0.136144
-0.0762116
-0.0599328
0.0108658
-0.313946
0.0924924
-0.259152
0.149926
0.109226
0.597029
-0.346687
-0.250342
-0.0146165
-0.0673438
0.0819603
0.0741794
-0.242101
0.167922
-0.0309661
0.0249091
-0.047759
0.252602
-0.204843
-0.0866882
0.02649
0.0601982
-0.00678846
-0.0270642
0.0338527
0.0178399
-0.172241
0.154401
-0.159241
0.411428
-0.252188
-0.000844389
-0.00604142
0.00688581
-0.0498528
-0.00908241
0.0589352
0.222177
-0.134331
0.0917831
0.0229377
0.0443052
-0.281633
-0.0274785
0.000857661
0.0266209
0.323706
-0.171087
-0.0586192
-0.053595
0.473727
-0.224813
-0.248914
0.426781
0.170248
0.0629297
-0.0335574
0.0108827
0.28885
0.209409
-0.180044
0.0536549
-0.00755579
-0.02219
0.0297458
-0.0545214
0.0706537
-0.0161324
-0.0518709
0.0106721
-0.130818
-0.21636
-0.0032351
0.0238448
0.115709
0.343087
-0.606143
0.207344
-0.230022
0.20825
-0.403605
0.297982
0.286622
-0.550527
0.263905
0.0504611
-0.0116069
-0.0388542
0.0544607
-0.0117492
-0.0427115
-0.274419
0.100737
-0.434831
0.534918
0.140429
0.047176
0.0692993
0.266819
-0.000849752
5.36338e-06
0.002765
-0.0127367
-0.0181013
-0.00809668
-0.177108
-0.0820435
-0.085943
0.249075
0.26695
-0.026826
-0.160141
0.0662686
-0.111503
-0.140747
0.368546
0.186232
-0.514841
-0.0951601
0.0946684
0.000491772
0.00364202
0.00576717
0.118558
-0.0261306
-0.0031286
0.149636
-0.0233347
-0.126301
-0.410062
0.21293
0.154284
-0.00964729
-0.144636
0.115953
-0.0241695
-0.00241255
0.00206185
0.000350704
0.152134
-0.168283
0.0637273
0.00451198
-0.0682392
-0.114076
0.0339087
0.061662
0.430448
0.0356412
0.00697469
-0.0426159
-0.00563155
0.0412727
0.00234438
0.021659
-0.0240034
-0.0651741
-0.057346
0.066123
-0.00877707
-0.0987794
0.180703
0.0623963
0.0033853
-0.016586
0.0820804
-0.0654944
-0.191458
0.174631
-0.582433
0.366623
-0.0488023
0.0490851
-0.000282779
-0.235495
0.221988
0.0135076
-0.475889
0.316649
0.0344158
0.247102
-0.217223
-0.0182718
0.00546917
-0.0998151
0.224235
-0.38139
0.157155
0.00806427
0.146219
-0.0168055
-0.00408218
-0.122139
-0.118279
0.240417
-0.000101441
0.00466797
0.0796979
-0.222541
0.142843
0.000519799
0.104167
-0.104686
0.00809713
0.0212887
-0.0293858
-0.28905
0.0767527
-0.0689695
-0.21837
0.115019
0.103351
0.173746
-0.155906
-0.0713506
0.0168292
-0.0229882
-0.0912879
-0.00716178
0.0984496
0.149893
0.0263956
-0.0339514
-0.157981
0.317924
-0.159943
0.00252326
-0.0259208
0.0233976
-0.0209732
-0.158547
0.0224359
-0.0041642
-0.0182717
0.00527287
-0.00538558
0.000112704
0.0240475
-0.0215242
-0.00199323
0.128587
-0.126594
-0.143942
-0.156537
0.300479
0.120404
-0.297503
-0.324312
0.657688
-0.333376
-0.170361
0.419516
-0.109564
-0.309952
-0.0239037
-0.15984
-0.0157849
0.0236099
-0.156197
0.132587
-0.0552913
-0.121216
0.117823
-0.216602
-0.366489
0.235671
0.00400979
-0.187948
0.183939
-0.172011
0.168632
0.00337907
-0.147177
-0.148767
-0.121554
0.189933
0.0313338
0.00897649
-0.0403103
-0.0106509
-0.0701176
0.0807686
0.0232196
0.163922
-0.187142
-0.134047
-0.00855492
0.142602
-0.0418253
-0.00697699
0.229832
0.00903073
0.00460396
-0.557721
0.202102
0.143749
-0.00335201
-0.140397
-0.135642
0.209821
-0.190435
0.353529
-0.163094
0.115097
-0.139036
0.0239394
-0.157858
0.424503
-0.148179
0.372414
-0.0627538
0.107824
-0.0929811
0.282024
0.100307
0.00544531
-0.297532
0.150793
0.00434113
-0.000861403
-0.00347973
-0.0801219
0.0886872
-0.00856533
0.00733776
-0.0892799
0.0819421
0.0746079
-0.0825372
0.133298
-0.325212
0.191914
0.00562989
-0.108124
0.103826
0.00429764
0.528013
0.0118938
-0.0231426
-0.206434
-0.00665423
0.015685
0.210774
-0.209616
-0.00115867
-0.0683164
0.0672494
0.0216695
-0.0101059
0.00116118
-0.122152
0.0932718
0.0288807
0.12383
0.188398
-0.312229
-0.0461643
-0.0161326
0.083382
0.0129982
-0.105235
-0.113136
0.321631
0.160659
-0.257551
0.38503
-0.12748
0.0612299
0.0920062
0.255131
-0.306204
0.0510737
-0.000247479
0.0171988
0.00435324
0.27869
0.298531
-0.0408558
-0.0606204
-0.0965892
0.018091
0.0784982
-0.302484
0.149063
-0.0106343
0.0419681
-0.00272263
-0.00178787
0.100561
-0.00688046
-0.213054
0.165295
0.00818157
0.0380276
0.145599
-0.161073
0.477535
-0.316462
0.019385
-0.0184619
-0.132285
0.1439
0.374469
-0.258796
-0.115673
0.424278
-0.180894
-0.243384
-0.185611
0.169727
-0.160608
0.139224
0.0213843
0.0268684
-0.0360665
-0.00151822
-0.0119292
0.0171326
0.133371
-0.150504
0.0374768
-0.00461445
-0.0328624
0.0641311
-0.210379
0.146248
0.164972
0.158816
-0.323787
-0.0895248
0.0419821
0.0475427
-0.236703
-0.214798
-0.0019028
-0.082271
0.0841738
-0.396917
0.591624
-0.24573
-0.345893
0.131718
0.078116
-0.209834
-0.081255
0.0102871
-0.0347139
0.0244268
-0.0239945
-0.00348409
-0.0795609
0.0882265
-0.00866563
-0.00247375
0.0143441
-0.0118704
-0.0138147
0.0540481
-0.0402335
0.122386
0.0292893
-0.0922262
-0.208024
-0.149148
-0.148384
0.0205096
0.136655
0.497841
0.0361588
-0.534
0.144617
-0.13166
0.0192118
-0.0282656
-0.0541204
-0.113533
0.542674
-0.0993534
0.140586
-0.0412328
-0.00418549
-0.0969701
0.104102
-0.00713147
-0.00308296
-0.0055421
0.122578
-0.0990061
0.433578
-0.165406
0.0928235
-0.0835702
-0.00925333
0.0211174
0.176638
-0.00526037
-0.0276144
0.0291944
-0.300606
-0.327881
0.140519
0.23395
0.44121
-0.271932
-0.169278
0.220082
-0.0397203
0.0904303
-0.0905652
0.000134973
-0.00584066
0.0405227
0.00593394
-0.0368191
0.0571819
0.11247
0.313959
-0.471817
0.00652017
0.0896147
0.226479
0.0905616
0.0130067
-0.0848023
-0.0178043
0.0151673
0.134519
-0.115054
-0.00140865
-3.6131e-05
0.00768019
0.011242
-0.00617492
0.0148084
0.113229
-0.128038
-0.0224483
0.174582
-0.0252753
0.0220402
0.183299
-0.16008
0.074351
0.0927144
-0.167065
0.087801
0.035862
-0.0116744
0.333156
-0.143719
-0.189437
0.0499609
0.0206929
0.325775
-0.160804
-0.0422358
-0.0101951
0.0524309
0.00714874
-0.374012
-0.183709
0.175584
0.147153
-0.0320567
0.0974558
0.000992844
0.176354
-0.138177
-0.0381774
-0.34413
0.551362
-0.207232
0.0260494
-0.203507
-0.175252
0.215001
-0.0397493
-0.115009
-0.11618
0.231189
0.0212152
0.0513444
-0.0725596
0.279396
-0.458584
0.179188
0.0066223
-0.0564751
0.0234353
-0.0210909
0.17949
0.146286
-0.176485
0.154037
-0.0250156
-0.135592
-0.487842
0.242381
0.0391437
-0.00268124
-0.0178007
0.00685966
0.0261711
0.00438783
-0.0305589
0.20936
0.243458
-0.452818
0.0287956
-0.20913
0.180334
0.0208071
0.169693
-0.1905
-0.221791
-0.0246887
0.24648
-0.0949065
0.0148925
0.080014
0.0249236
0.380811
-0.598517
0.217705
-0.0109544
0.110218
-0.0992641
-0.133063
-0.0466643
-0.0713999
0.0161929
0.0552071
0.147846
0.0017344
0.0395398
-0.214792
-0.219576
0.0512126
0.168363
0.0920811
0.112178
-0.011629
-0.100549
0.111832
-0.232634
0.367651
-0.135017
0.0162539
-0.0235092
0.00506195
0.0184472
-0.0496129
0.0271572
0.00138124
-0.00696489
-0.0521288
0.009893
0.00249235
0.0178163
0.00461959
0.366395
-0.192996
-0.1734
-0.338145
0.163408
0.18087
0.11649
-0.29736
-0.0109644
-0.0746012
-0.107816
-0.0340575
-0.110293
-0.00762832
0.00687935
0.000748975
-0.31604
0.158059
0.184991
0.336264
-0.521255
0.379472
-0.0109562
-0.0778635
0.30061
0.213343
0.131552
-0.206605
0.0750529
0.100113
0.0903067
0.0722302
-0.0547305
-0.0174997
-0.111994
0.21641
-0.104416
-0.334569
-0.181722
-0.448024
0.257305
-0.142392
0.329136
-0.186744
0.18584
-0.620671
0.123179
-0.115198
-0.00798134
-0.0802644
-0.0146421
-0.0477935
0.122144
-0.0573086
0.00807417
0.0492344
-0.200481
0.346597
-0.146117
0.155048
0.00362411
-0.0366446
0.0298562
-0.0244749
0.000574545
0.072058
-0.00567871
-0.0663793
0.0667366
0.0412831
-0.10802
0.0573271
0.0340424
0.425141
-0.129805
0.110945
0.0188599
0.0229556
-0.242532
-0.425179
0.142206
-0.182501
0.195263
-0.0127621
-0.00119853
0.110528
-0.279546
0.169017
0.110003
0.00217501
-0.0698589
0.0679561
0.294785
-0.192228
-0.302706
0.112271
-0.160833
0.126651
0.0341817
-0.0034268
0.366494
0.205982
-0.572476
0.0273591
0.0448711
-0.124032
0.304902
0.076855
-0.0878193
0.463454
-0.23059
-0.097343
-0.177077
0.0710842
-0.0680771
-0.0267307
0.0948079
0.0565216
0.229054
0.0125098
-0.0797578
-0.00649588
-0.00206411
-0.0895633
-0.0440282
0.0105915
0.0334367
-0.344619
0.10675
-0.00122926
-0.00118329
-0.0795839
0.0629979
-0.394209
0.30016
0.0940485
-0.000230066
-0.0833401
0.0255214
-0.107312
0.0795591
0.0277525
-0.223442
-0.192727
-0.112548
0.305275
0.430634
-0.441175
0.0105414
0.308774
0.253586
-0.0479602
-0.205626
-0.139235
0.143612
-0.00437725
-0.109693
-0.0120811
0.121774
-0.182459
0.306289
-0.215616
0.432329
-0.106143
0.0318293
-0.24119
0.418282
-0.177092
-0.0642974
0.0438502
0.0204472
-0.177308
0.017635
-0.000384036
0.0170434
-0.0166594
0.0678998
-0.0955143
0.250338
-0.473865
0.223528
0.00999543
0.244722
-0.531665
0.286942
0.185867
-0.0230788
0.114812
-0.12494
0.0101283
0.0822971
-0.0102391
0.12637
-0.128364
0.336126
-0.593515
0.257389
0.110584
-0.0210496
-0.0900463
0.0373193
0.052727
0.103977
-0.103458
0.0193166
-0.0959404
0.0766238
0.13441
-0.103307
-0.0311032
0.0988893
-0.122275
-0.0805004
-0.0376889
0.126591
-0.005799
-0.120792
0.0795978
-0.191591
0.223862
0.191796
0.0628162
0.000113588
0.00460465
-0.0429843
0.212608
-0.169623
-0.425447
0.264374
-0.00527755
-0.00168729
0.293345
0.198681