/*--------------------------------*- C++ -*----------------------------------*\
| =========                 |                                                 |
| \\      /  F ield         | OpenFOAM: The Open Source CFD Toolbox           |
|  \\    /   O peration     | Version:  v2012                                 |
|   \\  /    A nd           | Website:  www.openfoam.com                      |
|    \\/     M anipulation  |                                                 |
\*---------------------------------------------------------------------------*/
FoamFile
{
    version     2.0;
    format      ascii;
    class       volVectorField;
    location    "250";
    object      ddtCorrDdt0(U);
}
// * * * * * * * * * * * * * * * * * * * * * * * * * * * * * * * * * * * * * //

dimensions      [0 1 -2 0 0 0 0];


internalField   nonuniform List<vector> 
14315
(
(0.00360412 -0.00239126 4.46524e-21)
(0.000333951 -0.000326572 0)
(2.08217e-06 1.27052e-05 4.05323e-22)
(0.000113072 0.000259497 -8.03976e-22)
(0.00047733 0.000326366 -4.79614e-22)
(-1.35831e-06 -4.92708e-06 1.27099e-21)
(-6.13763e-05 -0.00027513 -1.08294e-21)
(-1.06063e-06 -1.31992e-05 0)
(-5.38339e-05 6.15979e-05 1.23786e-21)
(-1.97192e-06 3.6625e-06 -9.678e-22)
(-0.000228031 0.000132237 -1.55646e-21)
(-0.00167808 1.82309e-05 2.18703e-22)
(0.00256778 -0.00192363 -2.89638e-21)
(-3.76261e-08 -7.76682e-07 -5.66859e-22)
(-0.0012075 -0.000548115 8.84184e-22)
(-1.12885e-06 1.54832e-07 -1.04683e-21)
(9.57541e-08 -1.29923e-05 -1.0916e-21)
(-9.30952e-07 1.8896e-06 2.23619e-21)
(-0.000156587 0.000115762 0)
(-0.000133164 0.000104795 0)
(-1.16341e-06 2.29372e-06 1.77756e-24)
(-0.00294111 0.00381209 0)
(2.72731e-05 -0.000141094 1.88814e-22)
(-0.00174089 1.53928e-05 -2.22573e-22)
(0.000216063 -1.87286e-05 1.3318e-21)
(0.000266233 -0.000335932 -2.26714e-22)
(9.62288e-08 2.13207e-06 0)
(-6.2378e-05 -0.000279528 1.08347e-21)
(-5.65383e-05 -8.48736e-05 1.55165e-21)
(0.000959482 -0.00190195 -1.61677e-21)
(-3.79544e-06 -1.71692e-05 -6.71211e-22)
(-8.23362e-07 2.50557e-06 -2.39405e-21)
(3.84189e-08 -7.3184e-07 -1.18841e-21)
(0.000509017 0.00180421 -1.69245e-21)
(-0.00332899 0.00072689 -7.55425e-22)
(-0.00500615 0.000988614 -2.11479e-21)
(0.00093606 -0.00214875 -1.68093e-21)
(1.0433e-05 -6.85691e-06 1.14754e-21)
(0.00355217 0.000190762 -1.0274e-22)
(4.55087e-05 -3.08841e-06 -3.11806e-24)
(-0.0011598 -4.8712e-06 7.50798e-22)
(-0.000940599 8.14925e-05 3.65444e-21)
(1.16284e-06 -2.74749e-06 -3.03052e-24)
(-9.98393e-07 -1.89132e-07 -1.41319e-21)
(6.40794e-05 1.07994e-05 -1.38158e-22)
(0.000195494 6.92197e-06 -9.76276e-22)
(-0.000124752 6.99539e-05 -1.10904e-21)
(0.000273016 0.00112113 0)
(0.000549661 0.00137253 0)
(-7.68683e-07 1.74688e-06 -1.62435e-21)
(-0.00540999 0.000171131 1.77022e-22)
(8.3331e-05 0.000292257 4.10965e-22)
(-0.00189191 -0.000357042 0)
(6.59419e-05 -0.0005399 0)
(5.7603e-06 -1.17821e-05 -1.5993e-23)
(-0.00492985 0.00160874 2.54683e-21)
(0.00138213 0.00042138 -2.19428e-21)
(-7.8047e-05 5.84073e-05 -3.04036e-22)
(-9.68186e-07 2.37145e-06 5.533e-22)
(2.12052e-06 1.0725e-05 -1.51859e-21)
(-0.000463661 -0.00338089 -2.10986e-21)
(-0.000669744 -0.00039328 7.56623e-22)
(-0.00423309 0.00262345 0)
(-1.28775e-06 2.31376e-06 -9.29793e-22)
(-2.1414e-05 -0.00262414 6.1384e-23)
(0.000900459 -0.00197029 1.83807e-21)
(-0.00640034 -0.00480418 4.60606e-22)
(-1.34574e-07 1.98472e-06 1.00576e-21)
(-1.24888e-06 2.31966e-06 -8.532e-22)
(7.431e-06 -1.24012e-05 2.93087e-22)
(0.00026756 -0.000579083 -9.80648e-22)
(-8.17635e-05 3.67935e-05 0)
(-0.00362603 0.000705526 8.50639e-22)
(0.00225065 0.00398186 -8.54504e-22)
(-7.06338e-07 2.09348e-06 0)
(-0.00485052 -0.00570752 0)
(-1.13726e-05 -1.74465e-05 -8.8572e-22)
(0.00170293 -0.0111418 3.55193e-22)
(5.7965e-05 -4.24002e-07 -1.27907e-22)
(1.08253e-06 -1.16535e-06 8.9977e-22)
(-1.25101e-06 -5.7825e-07 0)
(0.00889766 -0.00274525 2.52436e-21)
(-7.54755e-05 2.79847e-05 1.18159e-21)
(0.000716418 -0.0116108 2.39935e-22)
(-1.22195e-06 2.08688e-06 0)
(1.40805e-06 -3.49152e-06 6.32634e-22)
(-0.0072074 -0.00494913 0)
(-0.000209991 -4.21753e-05 0)
(-0.00133957 -0.000419753 -9.79693e-22)
(6.58393e-05 0.000405046 7.08103e-23)
(-1.88922e-05 1.24766e-05 9.16908e-22)
(8.9593e-05 -5.00141e-05 7.83161e-22)
(-1.23232e-06 -5.37064e-07 0)
(5.73024e-07 -1.77744e-06 -3.91908e-22)
(0.000629077 0.000162553 -1.3375e-21)
(0.00018414 0.000646734 -4.98991e-22)
(1.82107e-06 -2.34102e-06 0)
(0.00258734 -0.00180041 0)
(0.000833288 -0.000361452 -5.26229e-22)
(-0.000478974 0.000559852 -1.69169e-21)
(-1.07422e-07 2.85402e-06 -1.07573e-21)
(-0.00344477 0.00104138 0)
(-0.00472817 0.00204358 -8.66385e-22)
(-1.36631e-06 -8.50657e-07 5.78087e-22)
(0.000317855 -7.07631e-05 0)
(0.00319228 -0.000252039 9.70054e-22)
(-0.00230776 0.00476638 0)
(-0.00179659 0.000633867 -1.13554e-23)
(-2.21044e-05 -1.66617e-05 0)
(-0.000355306 -0.000337904 -2.14362e-22)
(0.000105823 0.000605072 2.56022e-22)
(2.87849e-07 1.69678e-06 -1.54344e-24)
(-0.00164687 0.00529354 0)
(4.14276e-07 2.29641e-06 -6.86391e-22)
(-1.87917e-06 1.5683e-06 0)
(2.4909e-06 -4.06927e-05 1.45702e-21)
(2.43037e-07 2.20078e-06 9.04717e-22)
(-0.00170405 -0.000382349 7.46698e-22)
(-0.00580389 0.00228926 -5.61658e-22)
(9.57367e-05 -8.00925e-06 9.57455e-22)
(0.00919907 0.00280106 -4.91452e-23)
(-3.12149e-06 -8.12809e-06 0)
(-1.12907e-06 -8.09487e-07 4.14145e-22)
(0.000413634 0.000161267 0)
(-5.35222e-05 -5.79684e-05 -7.0139e-22)
(-9.19192e-07 -1.57805e-07 7.99454e-22)
(0.00374923 0.00501151 -3.01245e-21)
(-1.22925e-06 -4.56495e-07 6.50972e-22)
(-4.49197e-07 -2.52495e-06 9.75779e-22)
(7.5625e-05 -6.53686e-05 1.23487e-21)
(-0.000414582 -5.86769e-05 -2.12847e-22)
(0.00349822 -0.00539697 -9.11815e-22)
(0.00322207 -0.00746714 -5.71492e-22)
(0.000279447 -0.000202729 0)
(0.00134044 -0.00205066 1.02639e-21)
(-6.93431e-07 2.21269e-06 -1.21963e-21)
(2.10197e-07 2.20248e-06 -6.81725e-22)
(-1.50449e-05 -6.13469e-05 1.93971e-22)
(1.15447e-06 -1.3047e-06 -7.41755e-24)
(-6.9893e-07 2.08416e-06 0)
(-3.94948e-05 -9.61958e-05 1.05115e-22)
(0.000781869 0.000106612 -2.27471e-21)
(4.73912e-07 1.62827e-06 0)
(0.00237997 -0.00208426 -4.10329e-22)
(-0.000354294 -0.000300773 0)
(-0.000442469 -3.71545e-05 8.3414e-22)
(-0.000634334 -0.000516622 1.16954e-21)
(-0.00136888 0.00473187 7.46427e-22)
(-3.78288e-06 -3.40725e-06 -1.26411e-21)
(-0.000100236 4.15688e-05 0)
(-1.47331e-06 1.03572e-05 1.58692e-21)
(-0.00344512 -1.93924e-05 3.27253e-23)
(9.23171e-07 2.40646e-06 -5.56648e-22)
(-3.48527e-06 -3.52715e-06 1.63543e-21)
(0.000407606 0.000348518 -8.5431e-23)
(-0.00176594 -0.000417496 -7.18358e-22)
(7.3775e-07 -4.11499e-06 1.64571e-21)
(-1.18406e-06 2.45886e-07 0)
(-1.45592e-06 -4.80904e-06 -1.18119e-21)
(0.000129383 -0.000105478 4.10842e-22)
(-9.53975e-07 2.10991e-06 3.14343e-24)
(-0.00505619 0.000595662 -1.27162e-22)
(-0.0035353 -0.000888427 0)
(-0.000900289 0.000146478 -8.09311e-22)
(-6.67409e-06 4.47915e-06 0)
(-0.00177495 0.000749039 0)
(-0.000366983 -3.73842e-05 -1.13448e-21)
(0.000177248 -0.000216562 0)
(0.00326345 0.00293928 -1.05264e-21)
(0.00339717 -0.00523454 0)
(-0.0077822 -0.00068127 4.0625e-22)
(-8.84539e-07 8.86512e-08 3.03061e-23)
(-0.000223265 -5.06483e-05 -1.71137e-22)
(-1.40171e-06 3.56881e-06 1.04767e-21)
(3.70114e-05 4.70486e-05 1.00613e-21)
(0.00198631 -0.00489288 -1.90998e-21)
(5.96712e-08 -6.79288e-07 2.98785e-22)
(-0.00362881 0.003353 0)
(-0.00261374 0.00313284 8.22098e-25)
(-0.000405497 -5.83169e-05 6.25344e-23)
(-0.000419696 0.00164772 -6.71728e-22)
(-9.89664e-06 -1.5743e-05 0)
(-1.22796e-06 -7.27058e-07 -7.93099e-22)
(-0.000402026 0.00414371 5.84274e-22)
(2.48915e-05 -7.93348e-05 1.47087e-22)
(6.46395e-06 -5.41204e-06 -1.61992e-22)
(6.68921e-05 -2.1078e-05 6.06275e-22)
(0.000804786 0.00388293 1.55889e-21)
(-0.00390613 0.000116774 -1.43369e-22)
(0.00337607 -0.000201128 0)
(1.09637e-05 -0.000127937 5.08116e-22)
(0.000174657 -0.000445329 -9.53712e-22)
(0.000538087 -0.00016064 -1.40002e-21)
(-0.000694603 0.000645673 -4.09644e-21)
(1.96651e-07 4.97444e-07 -3.58137e-22)
(-0.00539226 -0.00368976 0)
(-0.00102266 -0.00371701 1.57847e-21)
(-3.12255e-06 -4.76216e-07 -1.25937e-21)
(-1.86074e-06 -4.15199e-07 -5.75688e-22)
(-0.000102422 -0.000309871 -1.16845e-21)
(0.000693272 0.000141013 -4.43426e-22)
(-2.45798e-05 7.83475e-06 -1.06121e-21)
(-0.000843286 8.37657e-05 1.47531e-21)
(0.000526566 -0.000183792 1.16732e-21)
(-2.56217e-06 -2.43898e-06 -3.29884e-22)
(0.000969154 0.00117825 1.15081e-22)
(0.000102776 -0.00222425 0)
(-5.61685e-05 8.98618e-06 0)
(-1.18373e-06 3.66848e-07 -4.5655e-22)
(0.000883361 0.00010744 -1.21755e-21)
(0.000896221 0.000355901 1.65882e-21)
(-5.60482e-07 -2.49994e-06 -4.84401e-22)
(0.000790263 0.000115273 1.86032e-21)
(0.000450027 0.000162394 -1.11724e-21)
(-0.000291157 -0.00018252 0)
(-0.00631308 0.0012269 0)
(0.00248383 -0.00991559 -3.70598e-22)
(0.000856141 -0.000406912 0)
(-0.000312023 -0.000168693 6.84027e-22)
(0.000472414 0.000453815 -1.05668e-21)
(-2.52723e-05 5.24962e-06 1.23687e-21)
(-1.87406e-05 -1.74096e-05 -8.00238e-22)
(9.43716e-05 -0.000132743 4.88025e-22)
(6.94146e-06 3.22119e-06 -2.51999e-22)
(-0.000590903 -0.000394442 -6.45099e-22)
(-2.84917e-06 7.16547e-06 -1.71898e-22)
(-9.78883e-07 -6.29463e-08 0)
(-0.0011615 0.00335435 -2.5153e-22)
(-0.00366983 0.000235308 -1.47847e-22)
(0.000429729 0.00492232 -2.60528e-21)
(-1.53472e-06 -2.76337e-08 0)
(-6.04909e-06 3.88705e-06 -1.09615e-21)
(-9.36866e-05 4.29181e-05 1.58914e-21)
(2.35474e-08 8.53776e-08 -1.79373e-21)
(9.42142e-08 -6.37765e-07 0)
(-0.00146224 -0.000176367 -3.28326e-22)
(5.73171e-05 -2.0438e-05 -1.36489e-22)
(-6.18511e-05 1.42747e-05 0)
(-0.0032306 0.00138575 -2.77895e-22)
(-0.00054953 0.00170737 0)
(5.59001e-07 -1.75533e-06 5.54764e-22)
(3.75819e-06 2.35698e-07 -2.27062e-22)
(0.0014046 0.00324043 4.59448e-22)
(0.000740467 2.7337e-05 -1.30944e-22)
(-0.00282867 -0.00324101 1.23347e-22)
(1.94066e-05 -0.000298571 7.74251e-23)
(0.00208615 -0.000726478 -1.913e-21)
(-2.91402e-07 3.86473e-07 -1.58987e-21)
(-0.000657624 0.00185285 0)
(-0.00416707 -0.0127387 -9.00501e-22)
(-4.56211e-07 -1.7033e-06 0)
(-1.37771e-06 -9.67415e-07 -5.74049e-22)
(0.00583259 0.00603524 5.03201e-21)
(-0.00100438 0.00261802 5.46471e-22)
(-9.75369e-08 -1.34823e-06 -1.50437e-21)
(0.00102334 -0.000779562 0)
(1.42944e-05 -1.62689e-05 -1.19278e-21)
(0.000832946 0.00141202 2.10314e-24)
(0.00289359 0.00371823 7.0079e-22)
(-0.000234348 6.92572e-07 -1.04653e-21)
(0.0034999 -0.00931947 3.27419e-22)
(-2.74186e-06 -9.23795e-06 3.28452e-22)
(0.000463916 0.000199849 -2.70037e-23)
(-0.00298026 -0.0136843 0)
(-0.000648424 0.000202965 1.15264e-21)
(1.12455e-05 -1.62337e-05 1.64232e-21)
(8.8981e-05 8.13565e-05 1.08868e-21)
(4.73689e-06 3.18383e-06 -2.26706e-22)
(1.19749e-06 -3.50129e-06 -7.21141e-22)
(-0.00190379 -0.001101 0)
(0.000255782 -0.000183724 4.29236e-22)
(-3.79239e-06 -7.76292e-06 0)
(0.00267854 -0.00135011 0)
(-1.01644e-05 -5.24303e-05 -1.72528e-21)
(4.14211e-05 2.61517e-06 0)
(0.00124271 -0.00154815 0)
(0.000130084 -1.31013e-05 -9.48365e-22)
(6.53081e-05 -1.33672e-05 0)
(0.00367548 0.00238943 0)
(0.00182377 0.00265695 -9.6075e-23)
(-1.5123e-06 -1.91852e-05 -5.61127e-22)
(-2.38169e-06 -4.35478e-06 1.06838e-21)
(3.97549e-05 0.00158314 0)
(0.00971464 -0.00286587 2.74243e-21)
(-1.89189e-06 1.48366e-06 0)
(-0.00110205 0.000150675 0)
(-0.00401236 0.00283252 0)
(-0.000320695 0.00515429 1.31561e-22)
(0.000257893 -0.000180069 0)
(0.0175296 0.00108411 0)
(4.83342e-05 4.51697e-05 -7.21316e-22)
(-0.0026905 -0.0025346 1.50483e-22)
(0.000643321 -0.00014232 -1.29216e-21)
(0.00359845 0.00289177 3.01184e-22)
(0.000290297 -0.00290605 5.50897e-23)
(-0.000172368 2.51361e-05 -3.66562e-22)
(-0.00162025 0.000728485 1.26609e-22)
(0.000512368 0.000115102 9.84917e-22)
(4.81078e-08 2.79648e-06 -2.19063e-21)
(-1.85399e-06 -3.95988e-07 0)
(-2.36058e-05 1.23573e-05 2.81861e-22)
(-0.00300016 -0.00195499 1.28911e-22)
(-0.00102052 0.00513301 -9.23094e-22)
(0.000210656 -0.000258201 2.51077e-22)
(6.92184e-06 -5.38927e-06 5.01691e-22)
(-1.22076e-06 2.20322e-06 -1.69602e-22)
(-0.000417631 -4.88716e-05 0)
(-0.0034184 0.00339996 5.4766e-23)
(-1.23214e-06 1.79491e-06 -1.39759e-21)
(-2.59397e-07 -1.58782e-06 5.51177e-24)
(-0.000794883 -0.0088574 0)
(-9.66771e-07 -1.17075e-06 0)
(-0.00645807 0.000619061 5.10669e-22)
(-0.000217049 0.000782179 -2.72424e-22)
(0.000244893 0.000216824 -2.92608e-22)
(-1.42067e-05 0.00506574 1.97978e-21)
(-3.92125e-07 -2.28988e-06 4.72671e-22)
(9.70298e-06 -2.06616e-05 -3.93117e-25)
(-4.7982e-06 6.28576e-06 0)
(-8.49364e-07 1.41083e-07 0)
(0.000659244 0.000132245 2.24872e-21)
(-0.00566577 0.00253087 -1.57543e-22)
(0.000893127 0.000121288 1.10097e-21)
(1.52779e-05 -2.27769e-06 1.19073e-21)
(0.000308922 -0.00262557 1.68893e-21)
(2.15998e-07 5.38891e-07 7.51381e-22)
(-0.00154873 0.00082971 -2.37847e-22)
(0.00319227 -0.00108144 0)
(0.000135995 7.75028e-05 -3.44274e-23)
(-2.83142e-07 -1.63577e-06 7.69042e-22)
(5.87084e-06 -2.06349e-05 4.29034e-22)
(-0.000197857 -0.000113123 1.1322e-22)
(6.27903e-08 2.24714e-06 2.67437e-21)
(-0.00322896 0.00108997 3.25996e-22)
(-0.00578672 -0.00398233 0)
(-7.38488e-07 1.63789e-06 0)
(0.000658928 -0.000162085 9.67612e-22)
(0.00644297 0.00550643 -3.43498e-21)
(0.0045313 0.00758635 -1.67831e-22)
(0.000471658 -0.000649495 -8.00734e-22)
(-3.06109e-06 -6.76653e-07 -1.18449e-21)
(-0.00305924 0.0033532 -1.82419e-22)
(-1.45434e-06 2.24191e-07 -1.38347e-21)
(-1.86392e-07 3.93823e-07 9.89282e-22)
(0.0027497 0.002273 -1.59453e-21)
(-9.19603e-07 2.67229e-07 -1.08296e-21)
(-4.67457e-07 -1.5662e-06 -4.40263e-22)
(-0.000988126 -0.00580711 0)
(-0.000589506 -0.000392733 -5.94361e-22)
(0.000458445 0.000508156 6.01626e-22)
(-4.04216e-08 5.69678e-07 -2.0027e-21)
(9.95847e-08 1.91632e-06 -4.15568e-22)
(-0.00040149 -2.69512e-05 0)
(0.000408228 -1.72199e-05 9.18231e-22)
(0.00207736 0.00268402 1.91931e-21)
(9.73738e-08 2.26378e-06 0)
(-2.59686e-06 -2.51077e-06 0)
(3.89776e-08 -6.49796e-07 0)
(-1.3223e-06 1.81545e-06 -8.29828e-22)
(-0.00206111 -0.00109421 -4.34867e-23)
(-0.00014062 0.000111405 9.75233e-22)
(-0.000626031 0.000298152 0)
(-0.00204945 0.00365317 4.59168e-23)
(-0.000666337 0.000112363 -1.51637e-21)
(0.000732346 0.00262807 -4.16894e-22)
(-0.00102783 0.00478619 6.51563e-22)
(-1.24988e-06 -4.99688e-07 6.77229e-22)
(0.000720136 1.26604e-05 -2.25579e-22)
(-0.000104131 0.00153262 -3.91118e-22)
(-6.21517e-06 -1.75768e-05 -4.42928e-24)
(-0.00827861 -0.00526015 -2.42455e-21)
(1.19263e-06 2.20197e-06 0)
(-7.89704e-08 4.43746e-07 1.68853e-21)
(0.00141345 -0.0016784 0)
(-0.000207682 -0.000121457 2.16427e-22)
(7.82476e-05 8.08778e-05 4.50398e-24)
(-4.1972e-06 6.49265e-06 0)
(-6.24438e-07 1.78098e-06 0)
(2.16442e-07 2.27818e-06 0)
(-0.000367299 0.00132951 2.8368e-22)
(0.00348962 0.00014818 1.91501e-21)
(-7.8963e-05 1.68687e-05 0)
(-9.33225e-07 2.54316e-07 1.10307e-21)
(-0.00805489 -0.00265554 -7.01783e-22)
(8.12399e-05 -6.89871e-05 0)
(5.05956e-05 -0.000603295 0)
(0.000117292 -0.000136504 9.15952e-22)
(0.00108587 -0.000664096 -6.08549e-23)
(4.94596e-05 -0.000639076 2.55931e-22)
(0.000609289 0.000396702 4.22923e-22)
(-5.48259e-06 4.68539e-06 -6.06732e-22)
(-0.00102866 8.33989e-05 0)
(0.00526903 0.00761056 3.87321e-22)
(0.000531216 0.00196811 1.81017e-21)
(-0.0001601 0.000688295 -1.20923e-22)
(0.000566052 -0.000673493 8.28365e-22)
(2.14244e-05 -4.96632e-05 4.50513e-22)
(-4.81387e-09 8.3546e-07 1.21451e-21)
(-2.29788e-05 -1.33695e-05 -1.80647e-21)
(-0.000507529 -3.45226e-05 -3.67584e-22)
(-5.29802e-06 5.57317e-06 1.69778e-21)
(-5.53443e-06 -1.48654e-05 1.16804e-21)
(-1.80916e-07 -1.71673e-06 4.87055e-22)
(-0.00300504 0.000860876 1.67736e-23)
(0.00011739 -0.000670639 1.24276e-21)
(0.00103994 0.000715126 0)
(0.000711654 -0.000150596 -3.09135e-22)
(-0.00669141 0.00136877 0)
(-0.000565489 0.000377923 0)
(-0.00195823 0.00178532 0)
(-1.71096e-06 4.80363e-07 9.8301e-22)
(0.000922852 -0.000203775 4.48637e-25)
(-0.00190144 -0.000414004 6.41568e-22)
(-0.000199401 3.3055e-05 4.56479e-22)
(-8.72957e-07 -2.81313e-06 0)
(-9.54866e-07 -1.19209e-06 0)
(-0.000850183 -0.00055085 -1.18587e-21)
(0.00450079 0.00106891 1.41699e-21)
(-1.10258e-06 1.57109e-06 0)
(-0.00142074 -0.00862563 -1.19392e-21)
(-3.45499e-06 -7.41676e-06 0)
(0.000416696 0.00351236 5.12047e-22)
(0.00269425 -0.000985556 0)
(-5.44259e-06 -1.66431e-05 -1.54295e-21)
(-7.7024e-08 1.28463e-06 2.39204e-25)
(0.00199832 -0.00199362 -1.18543e-21)
(-0.00608554 0.00161101 4.29167e-22)
(0.000177569 -0.000356953 -1.42587e-21)
(4.75225e-05 -3.70961e-05 1.01352e-21)
(8.07839e-06 -1.00696e-05 -8.3646e-22)
(-0.00494387 0.0020239 -4.32136e-23)
(8.48167e-05 -0.000120013 0)
(-1.92907e-07 7.73112e-07 -1.61787e-21)
(-5.42318e-05 5.32551e-05 1.08028e-21)
(0.000106874 0.00075356 0)
(-1.22467e-06 -3.0556e-06 6.40614e-22)
(-0.0003552 0.000492019 -5.07428e-22)
(0.000882337 5.35904e-05 8.78667e-22)
(0.00030505 0.000428846 -6.14652e-22)
(6.36782e-08 2.5575e-06 2.41271e-21)
(-0.000999525 0.00234967 1.63878e-22)
(8.36427e-08 2.30356e-06 0)
(-0.000165847 -0.000131911 0)
(-1.10323e-06 2.50878e-06 4.91854e-22)
(1.02107e-05 -5.08169e-06 2.17711e-21)
(-0.00123492 -7.27566e-05 -2.00629e-21)
(7.90219e-05 -4.82576e-05 0)
(0.00176263 -0.00223212 1.45942e-21)
(-5.72986e-07 2.28459e-06 0)
(7.47321e-06 4.71761e-06 2.08924e-22)
(-0.000983726 -0.00676342 0)
(0.000807771 9.40263e-05 -5.80925e-22)
(-1.55422e-07 3.17361e-06 -2.9638e-24)
(-6.16941e-05 4.21926e-05 7.96946e-22)
(-2.26103e-06 -4.29623e-06 -1.3171e-21)
(0.000554368 0.000230006 1.47872e-21)
(0.00430446 0.00392535 0)
(0.00320921 -0.00173554 0)
(0.000962894 -0.000200363 -2.93928e-22)
(-0.000393838 -0.000283927 0)
(2.24737e-07 1.84664e-06 -9.68401e-22)
(5.87318e-05 6.91658e-05 1.21762e-21)
(-0.00149822 -0.000456164 1.96563e-22)
(-0.000267132 0.000462719 4.59127e-22)
(0.000126552 -0.000721994 -1.66233e-21)
(0.00243622 0.000735315 8.64654e-22)
(0.00354937 0.000108351 0)
(-0.000404398 -0.000243589 -2.43766e-22)
(-7.30114e-05 3.85519e-05 -1.29698e-21)
(-0.000409609 -5.075e-05 0)
(-3.37763e-06 -5.24441e-06 6.16717e-22)
(-0.000236795 -0.000380466 0)
(0.000386823 0.000494496 -6.42514e-22)
(-2.31353e-05 6.33263e-05 -6.44701e-22)
(0.000714646 0.00011664 -2.70239e-22)
(8.94201e-06 1.52331e-06 -9.74648e-22)
(-2.15821e-07 -1.00525e-06 0)
(-7.847e-06 -4.20968e-06 -5.77188e-22)
(0.000331389 0.000571304 5.44654e-22)
(0.000802872 0.000105348 0)
(-0.000249258 -6.3864e-05 4.91053e-22)
(-0.0047986 -0.00201643 -2.26175e-21)
(-0.000241419 -0.000341252 0)
(-0.000351387 -3.95006e-05 -2.42075e-22)
(0.00425345 0.00124596 0)
(-0.000501184 0.0013045 1.27853e-21)
(-2.3131e-09 -8.87106e-07 0)
(0.00044107 -0.000608459 1.05003e-21)
(-1.49625e-06 -6.02961e-06 -2.36809e-21)
(0.000391275 0.000386631 0)
(-1.57098e-06 3.60909e-07 -2.10418e-24)
(0.00102162 0.00402973 -1.63055e-22)
(-3.99854e-06 2.43621e-06 -8.92895e-22)
(0.000211825 0.000201664 0)
(0.000188504 -0.000487163 0)
(-0.000434427 -4.17625e-05 -2.16684e-22)
(-2.8678e-07 2.43182e-06 -6.65998e-22)
(-4.19119e-05 4.02745e-05 0)
(-0.00441146 -0.00234181 0)
(-0.000123784 -7.58804e-05 0)
(3.04848e-05 -0.000643619 2.35471e-22)
(-0.00563201 -0.00288638 7.97068e-23)
(-0.000560003 0.000141214 -1.14115e-21)
(-6.82827e-06 2.78609e-06 1.57298e-21)
(5.49122e-08 -7.60615e-07 1.62795e-22)
(-9.05831e-07 -2.85521e-06 0)
(-0.00485854 -0.00657874 0)
(-0.00216559 -0.000417283 -1.43865e-23)
(3.54805e-05 3.70338e-06 0)
(-2.14878e-07 -1.95267e-06 -1.52139e-21)
(0.000150011 -3.12615e-05 8.32658e-22)
(-1.6467e-06 3.08983e-06 0)
(-2.09831e-06 -4.62708e-06 -5.17845e-22)
(-4.91382e-06 -3.81218e-06 0)
(0.00107713 0.000979724 -1.32e-22)
(-0.00137186 -0.00796532 -3.84258e-23)
(-4.0254e-05 2.99339e-05 0)
(0.000535013 -0.000636735 -8.63994e-22)
(0.00414738 0.00175245 7.29742e-22)
(-0.000639391 0.000269285 -2.55057e-21)
(-0.000634878 0.000203934 -3.98404e-22)
(-1.42874e-06 -3.05844e-06 2.61519e-22)
(-6.40846e-07 -2.99641e-06 -9.4593e-22)
(-6.35755e-05 -4.88726e-05 -6.96188e-22)
(0.00285631 -0.00416752 9.19223e-23)
(0.000256602 0.000550622 5.64568e-22)
(-1.6378e-06 4.42166e-06 -1.0789e-21)
(-3.99923e-07 1.75984e-06 2.67481e-22)
(-0.000128853 0.000503587 0)
(9.31529e-07 -1.14087e-06 0)
(8.57521e-08 2.05818e-06 -5.02062e-22)
(-0.000223916 -8.28567e-05 0)
(-1.08354e-06 1.53961e-06 2.49153e-21)
(-1.75365e-08 -1.25648e-06 -1.17112e-21)
(-0.0054959 0.0109223 1.09218e-21)
(-0.00158852 -0.000369564 1.18415e-22)
(-3.76252e-07 -1.39486e-06 1.23489e-21)
(-0.000717384 0.000153731 -8.04287e-23)
(0.000871231 -0.000404898 6.01508e-22)
(4.54529e-08 1.47744e-06 -1.5916e-21)
(0.00299328 0.00308724 0)
(-1.01284e-06 -2.56688e-06 2.21588e-22)
(0.000386813 -0.000219404 5.17721e-22)
(-0.000375057 0.000239499 -1.94293e-22)
(-2.18718e-06 -4.36577e-06 1.32595e-21)
(3.43822e-05 -8.55441e-05 8.13653e-22)
(-1.19679e-05 -1.34258e-06 -1.06009e-21)
(0.00115413 0.000964131 0)
(0.000121123 -0.000340929 8.27824e-22)
(0.000379685 -3.5767e-05 1.00978e-21)
(-1.94706e-06 -4.61422e-06 8.52222e-22)
(-6.88736e-06 2.49361e-06 8.07279e-22)
(-0.000192914 -0.000228399 0)
(-0.000674693 0.00240234 2.96559e-23)
(-0.000229514 -2.61133e-05 0)
(-0.00395693 0.00824859 0)
(-5.07968e-05 -2.40805e-05 -1.14408e-21)
(4.15617e-07 2.22354e-06 2.19863e-21)
(-5.2228e-08 1.64134e-06 0)
(-7.14518e-05 1.07404e-05 1.22936e-21)
(-0.000180511 -0.000118496 0)
(-0.00323505 -0.00256629 2.48049e-22)
(-0.000410288 -4.28646e-05 0)
(-0.0019277 0.000131577 -8.65063e-22)
(0.0011663 0.00266032 3.71395e-22)
(0.000226142 -0.00233427 -2.07369e-22)
(4.62774e-08 2.04073e-06 -3.81235e-22)
(1.43152e-08 8.70162e-07 0)
(1.18131e-05 -3.95318e-05 2.17534e-22)
(-1.3744e-06 -3.73254e-06 0)
(1.72606e-05 0.00713877 -1.04943e-22)
(-1.07445e-06 -4.09175e-07 1.33333e-21)
(-0.000478237 0.000197551 1.23526e-21)
(0.000374778 -0.00102568 0)
(-0.00174483 -0.00145852 -1.13854e-23)
(-9.77442e-08 -7.95229e-09 -6.85023e-24)
(2.0101e-05 5.8547e-05 -6.97544e-22)
(-6.64537e-07 2.34025e-06 0)
(0.00406545 -0.0129531 -1.88355e-21)
(9.3904e-09 -6.70943e-07 0)
(0.000764192 -0.00183802 2.1944e-21)
(-0.000189694 0.000370045 0)
(1.26023e-07 2.23448e-06 0)
(-0.0059186 -0.0133784 5.42222e-22)
(-1.39215e-06 1.71958e-06 7.23598e-22)
(-1.21452e-05 -6.99191e-07 1.63396e-21)
(1.01427e-07 4.37581e-08 -8.07002e-22)
(7.09263e-06 -9.70245e-06 -2.77581e-22)
(-0.00193667 0.000126522 -1.78727e-21)
(-2.71226e-06 5.18044e-06 -1.22853e-21)
(-0.000352704 -4.23838e-05 -4.24065e-22)
(-1.19257e-06 2.13425e-06 4.26233e-22)
(0.00118023 0.000754426 4.77619e-22)
(3.51363e-05 -0.000222808 -1.94297e-22)
(0.00144423 0.000442136 7.18489e-23)
(-1.187e-06 1.81633e-06 0)
(0.000522648 0.00173305 8.41451e-22)
(-2.46335e-05 -7.65242e-07 5.03121e-22)
(0.000268847 -0.000238499 0)
(0.000334999 -0.000149859 -5.86024e-22)
(6.81208e-05 -5.64279e-05 4.9197e-22)
(-0.000377642 -0.00357971 0)
(0.000908326 0.00486146 -8.68348e-22)
(0.0011835 0.00513598 0)
(-1.71082e-06 -4.70187e-06 4.71722e-22)
(-3.44722e-07 1.69185e-06 -6.7521e-22)
(-0.00554929 -0.00511769 -7.05598e-22)
(8.36419e-07 2.22252e-08 1.03339e-21)
(9.19603e-06 3.95969e-05 4.69736e-22)
(0.00145625 -0.00372389 -4.34344e-22)
(-0.000365364 -3.62485e-05 1.33089e-21)
(-0.0010716 -0.000993558 5.9324e-22)
(0.000442258 -0.000221605 -4.95801e-22)
(-1.25001e-07 -9.12887e-07 -6.27769e-22)
(-0.00076762 -0.000731609 6.02644e-22)
(-1.14071e-05 -1.48579e-05 -9.26593e-22)
(0.00127751 0.000520249 6.70571e-23)
(7.21457e-07 -0.00046693 7.54463e-23)
(-1.95839e-08 3.2339e-06 -2.29204e-21)
(-1.55117e-06 2.47698e-07 8.11307e-22)
(0.000287877 -0.000887741 5.7026e-22)
(0.000994996 0.000453064 -8.2987e-22)
(-9.41898e-07 4.67089e-06 1.10004e-21)
(-0.000307889 -0.00234683 3.5985e-22)
(-0.000376777 -7.6376e-05 2.66346e-23)
(7.64376e-07 -5.16271e-07 -1.28234e-21)
(4.38247e-07 3.50269e-08 -1.25937e-22)
(0.000209742 -0.000798162 0)
(-0.000460799 -0.00210905 0)
(0.000878859 0.000186809 0)
(-3.24433e-10 5.29955e-07 -5.8204e-22)
(0.000271005 -0.000333465 1.1543e-21)
(-3.68298e-07 1.87336e-06 -2.61799e-21)
(7.36276e-08 -4.68432e-07 -4.56682e-23)
(-0.000417646 -3.97897e-05 -2.32263e-22)
(-3.10623e-07 2.27142e-06 1.35321e-21)
(-0.000430611 -2.97343e-05 -7.80031e-22)
(5.91487e-05 -3.32146e-05 -1.23876e-21)
(0.000836358 0.0024714 -4.48271e-22)
(-2.83821e-06 -5.70883e-07 1.36162e-21)
(5.02881e-08 1.81672e-06 -2.04145e-21)
(4.40659e-05 -8.75191e-05 -1.43644e-21)
(1.16961e-05 -2.85985e-06 -1.18931e-21)
(0.00145812 0.00317917 0)
(-0.000433435 4.66745e-05 1.13056e-22)
(-0.000366643 -3.59472e-05 5.61026e-22)
(-2.72493e-07 1.12783e-05 2.33504e-21)
(-4.40483e-05 5.63855e-05 -1.49197e-22)
(-5.85245e-08 1.60856e-07 0)
(-7.81535e-06 -1.49049e-05 7.37932e-22)
(-0.00185935 -0.00267059 1.23745e-22)
(-0.00638892 -0.0129472 0)
(0.000362362 -0.000566195 0)
(5.20549e-05 -0.000199325 -1.79935e-22)
(-0.000968205 -0.000314357 0)
(0.00840082 0.000794892 2.0472e-21)
(1.29587e-05 -7.64981e-05 0)
(-3.6561e-06 4.74235e-07 0)
(0.000744089 -0.000471755 -6.11131e-22)
(-0.000138258 -0.00024293 -5.31602e-22)
(-1.38288e-06 -3.62316e-06 0)
(-2.30159e-06 8.45709e-07 1.20287e-22)
(-6.45289e-05 -0.00431707 1.09412e-21)
(-0.00507013 -0.00235893 0)
(0.000523148 -0.000121235 1.63525e-21)
(0.00017375 0.00440535 1.43574e-21)
(-1.19678e-06 2.66202e-08 2.44947e-21)
(8.57802e-06 1.23649e-05 0)
(0.000875935 6.94406e-05 3.4924e-22)
(2.04022e-06 -4.33401e-06 -2.84773e-21)
(-0.00185422 -0.000333527 0)
(4.37206e-07 -4.103e-08 -4.48738e-22)
(-0.00169993 7.16006e-05 2.39288e-21)
(1.43862e-07 1.83068e-06 0)
(3.22681e-05 6.05064e-05 -1.65416e-22)
(-7.07772e-07 -2.75986e-06 1.12599e-21)
(-0.00403122 -0.000990499 -2.5992e-22)
(-0.00102142 0.00192871 1.35297e-22)
(-4.89871e-07 1.65249e-06 -1.313e-21)
(-0.000865571 -0.0100487 1.53555e-21)
(-5.25491e-07 1.96322e-06 2.06875e-21)
(-1.00329e-07 -8.52022e-07 0)
(-0.00287232 -0.00125602 -1.84869e-22)
(0.00295058 -0.00159534 0)
(-9.26206e-06 2.40921e-05 -1.2876e-21)
(-0.00221393 -0.000792837 9.62415e-23)
(-0.000310393 0.000247167 -2.19037e-22)
(-0.00501237 -0.00712576 9.61265e-23)
(0.00152313 0.0010768 2.13389e-21)
(-2.48824e-07 -1.96872e-06 1.55878e-21)
(1.65362e-06 -1.54964e-06 -7.35682e-22)
(-4.68976e-08 2.09763e-08 0)
(-8.57447e-07 -3.25562e-06 -1.98078e-21)
(5.79288e-05 -5.16793e-05 5.04005e-22)
(-1.06613e-06 -3.59962e-06 2.11494e-21)
(-0.00234729 -0.00443959 -1.02786e-21)
(0.00193313 -0.00139453 1.81534e-21)
(3.42882e-05 -4.92928e-05 0)
(6.66224e-06 -3.25502e-06 0)
(1.63805e-06 -4.83605e-08 0)
(3.27236e-08 -1.00255e-06 6.10166e-22)
(-0.000400307 -2.17994e-05 2.84986e-22)
(-1.2374e-06 -4.20724e-09 1.09125e-21)
(-0.000161206 0.000335812 0)
(0.000223372 -0.000306834 -1.32864e-21)
(-4.25508e-05 4.83969e-05 0)
(0.000683036 7.03839e-06 1.98092e-21)
(0.000117747 0.000435107 7.15535e-22)
(0.000479018 -0.000326582 8.99236e-22)
(0.000152953 -0.000838709 6.77683e-22)
(2.7375e-05 1.71115e-05 -9.66681e-22)
(-0.0014526 -2.67239e-05 3.47904e-22)
(-0.000112981 0.000123444 9.23204e-22)
(-4.58128e-09 -8.15026e-07 8.31571e-22)
(-4.48036e-07 1.788e-06 2.53881e-21)
(1.57876e-06 5.06909e-07 -1.37969e-21)
(-7.07097e-05 7.13628e-05 -6.50944e-24)
(-7.98465e-06 -3.86535e-06 0)
(8.03665e-07 9.71927e-05 -6.88405e-22)
(-1.08167e-05 -4.78846e-07 1.44752e-21)
(8.47571e-06 1.37476e-05 2.82017e-22)
(0.000893542 -0.00197771 0)
(1.42676e-07 3.92322e-07 1.92444e-21)
(8.00989e-06 4.02702e-07 0)
(-0.000525739 0.000527066 -1.69494e-21)
(6.99086e-07 -2.03989e-06 0)
(2.53906e-05 1.19175e-05 3.11142e-22)
(0.000573913 0.000429858 -1.07155e-21)
(2.37458e-06 -5.82302e-07 9.08024e-22)
(-0.00364036 -0.00667717 0)
(-1.22449e-06 -6.37851e-07 0)
(-1.26452e-07 1.13528e-06 -8.40334e-22)
(0.00205492 -0.000921126 1.61383e-21)
(-0.00405534 -0.000581251 1.88347e-22)
(-0.000376515 -6.99383e-05 -1.144e-22)
(-0.000887501 0.00216553 3.08215e-21)
(-7.22937e-07 2.01798e-06 0)
(0.000686975 -0.000138806 1.67592e-22)
(-3.65302e-05 -4.09279e-05 0)
(-7.56997e-07 2.43785e-06 1.28057e-21)
(-0.00207853 0.000998761 0)
(-6.28752e-07 1.70935e-07 -7.15334e-22)
(-7.70852e-07 2.40962e-06 1.52339e-21)
(1.32244e-05 -9.203e-05 2.70362e-22)
(-6.20677e-07 1.99951e-06 -9.53766e-22)
(-0.000340697 -4.70874e-05 3.77283e-22)
(-1.27675e-05 -2.59086e-06 3.2937e-22)
(0.00117705 0.00404573 -3.97598e-22)
(8.34e-06 3.05777e-06 0)
(0.00184669 -0.00139391 -2.51887e-21)
(-0.00599346 -0.00356488 6.31244e-21)
(-0.000574031 0.000348771 5.37074e-22)
(2.81456e-05 -1.01648e-06 0)
(0.0010836 0.0011271 1.6459e-22)
(-5.54628e-05 0.00697634 2.29632e-22)
(-0.00178556 -0.00128589 1.00814e-22)
(2.52409e-07 1.66896e-06 5.717e-22)
(-0.000453524 -0.000231625 1.44035e-22)
(-4.17502e-06 -4.70558e-05 3.28658e-22)
(0.000181957 0.00462676 -7.23774e-23)
(-5.08898e-09 -4.35839e-07 0)
(-0.000235584 -0.000114155 6.49912e-22)
(0.00322417 -0.000262062 1.83577e-22)
(-0.00022287 -0.00772885 0)
(0.000340845 -0.0107091 -1.44661e-21)
(-6.33732e-07 1.95341e-06 -7.48875e-22)
(-0.00168386 -5.04163e-05 -3.06005e-22)
(-1.44685e-06 -9.75369e-06 0)
(2.51752e-05 -9.58357e-05 0)
(-0.00310469 -0.00669987 1.37808e-23)
(0.000277837 0.00141428 -3.40573e-23)
(-2.70771e-06 6.63679e-06 -1.31454e-21)
(1.29922e-06 1.37507e-06 -1.07544e-21)
(-0.000651364 4.80269e-06 0)
(0.000235757 -3.43354e-05 6.47597e-22)
(-0.0228884 -0.0128571 0)
(-1.50572e-06 3.11975e-07 3.73915e-22)
(-0.00164656 0.0033077 -1.20387e-20)
(0.0058884 -0.00352594 3.28522e-21)
(0.00527463 -0.00358472 -2.80062e-21)
(-0.000952754 -3.45989e-05 -1.61345e-22)
(-1.10626e-05 1.94584e-07 -1.99376e-21)
(0.00118706 0.00055288 -2.24194e-21)
(-0.000641646 -0.000514724 -4.63096e-22)
(0.0006408 0.00108667 8.56257e-22)
(-5.80724e-05 5.6968e-05 1.61436e-22)
(0.00414864 -0.00349716 1.15248e-21)
(-3.08349e-05 -2.90253e-05 0)
(-1.55232e-07 -1.40394e-06 4.13481e-22)
(3.06003e-05 1.45542e-05 -1.78664e-21)
(-5.64003e-08 2.9117e-06 5.31653e-22)
(3.75144e-06 5.47225e-05 1.38082e-21)
(0.000734983 5.12858e-05 -1.09089e-21)
(0.00199512 -0.000857003 9.94812e-22)
(1.47231e-07 2.96989e-06 8.38372e-22)
(8.50956e-08 -4.28909e-06 0)
(-8.83049e-06 1.83524e-05 2.54113e-22)
(-0.000691059 -0.00942616 -5.29291e-22)
(-0.000111998 1.48667e-05 -3.7014e-22)
(9.36854e-06 -6.23929e-06 -1.27983e-21)
(0.00153561 0.00670202 1.10849e-21)
(0.000413664 -0.000204244 6.97631e-22)
(0.000219473 -1.98701e-05 0)
(-1.68684e-06 -4.41685e-06 -1.45871e-21)