/*--------------------------------*- C++ -*----------------------------------*\
| =========                 |                                                 |
| \\      /  F ield         | OpenFOAM: The Open Source CFD Toolbox           |
|  \\    /   O peration     | Version:  v2012                                 |
|   \\  /    A nd           | Website:  www.openfoam.com                      |
|    \\/     M anipulation  |                                                 |
\*---------------------------------------------------------------------------*/
FoamFile
{
    version     2.0;
    format      ascii;
    class       volScalarField;
    location    "250";
    object      epsilon;
}
// * * * * * * * * * * * * * * * * * * * * * * * * * * * * * * * * * * * * * //

dimensions      [0 2 -3 0 0 0 0];


internalField   nonuniform List<scalar> 
14315
(
0.0921472
0.0200996
2.29794e-06
3.62327e-06
5.77688e-06
1.99272e-06
0.0163373
2.40787e-06
2.45562e-06
2.33494e-06
7.04105e-06
0.011297
0.104675
1.86862e-06
0.0107665
2.77072e-06
2.40273e-06
2.95143e-06
2.81144e-06
2.72948e-06
2.84134e-06
0.0383666
2.55311e-06
0.0110361
4.42742e-06
0.019553
3.10215e-06
0.0168661
3.16567e-06
8.72375e-06
1.99772e-06
2.87687e-06
1.84394e-06
0.0346504
0.0222844
0.0411821
0.000407106
2.38385e-06
1.81253e-05
6.2676e-06
0.0318393
0.0087798
2.43579e-06
2.22191e-06
2.35823e-06
3.97379e-06
3.46668e-06
0.0105335
0.0100251
3.0002e-06
0.0107552
3.61553e-06
0.0109618
0.0104634
1.89838e-06
0.0425183
0.0210351
2.4798e-06
2.73129e-06
2.30033e-06
1.5257e-05
0.0244847
0.0409575
2.74935e-06
9.63482e-06
0.00102086
0.12402
3.65544e-06
2.78492e-06
1.89944e-06
0.0103795
2.43614e-06
0.0239458
0.0306102
2.63881e-06
0.0902758
2.13287e-06
0.05303
2.34586e-06
1.68129e-06
2.26978e-06
0.0375791
2.41053e-06
0.0541006
2.81447e-06
1.73228e-06
0.125868
0.0114687
0.0116539
6.54929e-06
2.14022e-06
4.35929e-06
2.25004e-06
1.7835e-06
0.0107855
0.010894
2.44451e-06
0.012262
0.0156234
9.38416e-06
3.68179e-06
0.0101648
0.0399597
2.2204e-06
1.04303e-05
1.42218e-05
0.018198
0.0121067
2.0992e-06
4.86947e-06
0.0106027
2.65396e-06
0.0197625
2.97757e-06
2.42408e-06
0.0113781
2.99438e-06
0.0120156
0.0194697
0.0323056
0.000160482
1.91436e-06
2.21486e-06
0.0127738
3.0478e-06
2.2425e-06
4.46948e-05
2.33778e-06
1.87812e-06
4.22863e-06
0.00829824
0.0292846
0.000154915
0.00990509
9.46291e-06
2.72134e-06
2.58241e-06
0.0221818
1.6994e-06
2.67359e-06
0.022002
0.0127827
2.66127e-06
0.0129514
4.78654e-06
0.00845014
7.15239e-06
0.0375228
1.92336e-06
2.91099e-06
2.28146e-06
0.0220402
2.41159e-06
1.92382e-06
5.37611e-06
0.0110472
2.43255e-06
2.76868e-06
1.98419e-06
0.0216701
2.70745e-06
0.0102342
0.0454069
0.010938
2.22331e-06
0.0126145
0.009143
5.83109e-06
0.0168933
0.0258417
0.0274191
2.95291e-06
0.010077
2.33148e-06
2.35722e-06
0.00082451
4.20388e-06
0.039565
0.0313667
0.00818995
2.25953e-05
2.12218e-06
2.22671e-06
0.00347594
2.38742e-06
2.38533e-06
5.55034e-06
2.69822e-05
0.0250765
0.00346061
2.52495e-06
6.08198e-06
0.00970687
0.00680048
1.74387e-06
0.021022
1.77423e-05
2.24744e-06
2.38414e-06
5.64169e-06
0.0110953
2.22066e-06
0.0122611
0.00995805
2.04542e-06
2.77925e-05
8.53584e-06
2.32032e-06
2.74318e-06
0.0101981
2.10902e-05
1.86745e-06
0.0107011
3.45266e-06
0.0120231
0.0210134
0.0597297
0.0167726
0.0113911
3.96986e-06
2.21238e-06
2.08106e-06
3.12663e-06
2.34684e-06
0.0249443
2.27705e-06
2.48819e-06
0.00304643
0.0234583
0.21484
2.4621e-06
2.23656e-06
2.82782e-06
3.93648e-06
4.27245e-06
1.75642e-05
2.33726e-06
2.34409e-06
0.0229064
0.0182246
1.7749e-06
2.07934e-06
0.015858
0.012202
0.00186814
5.91136e-06
0.0344223
3.68978e-06
0.0192817
0.0196447
1.91839e-06
2.2076e-06
0.0392584
0.000639977
2.50655e-06
0.0245845
2.15186e-06
4.14673e-05
0.0166396
7.09216e-06
9.9386e-05
1.91318e-06
0.0108568
0.0156595
0.013143
2.14749e-06
2.90769e-06
2.08869e-06
1.74355e-06
0.0122748
0.021074
2.04263e-06
0.00576092
0.0101317
2.51779e-06
0.0325168
0.0220173
2.35202e-06
0.0145355
2.29711e-05
1.9993e-06
1.93943e-06
0.0180225
0.0364155
2.45035e-06
0.0107531
0.0385553
0.0188507
0.00956467
0.0298732
2.37639e-06
0.0107111
0.00989317
0.0158866
1.15532e-05
2.8115e-06
0.0119723
3.55588e-06
2.85487e-06
2.40721e-06
2.14656e-06
0.0100989
0.040988
0.0197885
2.38753e-06
2.79451e-06
0.00817285
0.0374413
2.8369e-06
1.87066e-06
0.0445444
2.13445e-06
0.0188838
0.0112391
4.04502e-06
3.66722e-05
1.87379e-06
2.15052e-06
2.25429e-06
2.99837e-06
0.0119704
0.00301073
0.0105912
2.13999e-06
0.0384453
1.74935e-06
0.0123732
1.58746e-05
6.52035e-06
1.89462e-06
2.14693e-06
0.00871375
3.87079e-06
0.0218036
0.0284624
3.05944e-06
0.0102264
0.041041
0.0414825
0.0197768
2.24069e-06
0.0343741
2.61726e-06
3.72639e-06
0.0378561
2.95517e-06
1.92711e-06
0.140209
6.5276e-06
0.0106614
4.14457e-06
2.56591e-06
0.00781647
0.0122728
0.00415983
2.69676e-06
2.03045e-06
4.27486e-06
2.80705e-06
0.012828
3.32673e-06
0.0149092
0.0386417
0.0150741
0.0381234
0.0173948
2.33863e-06
0.0109883
0.0173476
2.00902e-06
0.00018161
2.42371e-06
4.14908e-06
0.0330333
0.00883762
2.8432e-06
2.26292e-06
3.09098e-06
2.71503e-06
0.0175325
0.0115201
2.40188e-06
2.92112e-06
0.0303957
4.73428e-06
0.0211195
3.28338e-06
0.0239691
0.0220333
0.00179965
2.2447e-06
0.0117976
0.044747
0.0354697
0.0108059
0.0202902
2.70253e-06
4.09562e-06
2.09534e-06
0.0101219
2.2478e-06
2.41342e-06
1.8534e-06
0.010763
0.0219083
2.67818e-05
0.0104327
0.00300327
0.0137366
0.000920106
2.5249e-06
0.0141013
0.0101092
2.89649e-06
1.91603e-06
2.13869e-06
8.07331e-06
0.0148366
2.87114e-06
0.000462168
2.03426e-06
0.0812514
1.27092e-05
2.42087e-06
3.8898e-06
0.0121976
0.0178566
3.20341e-06
2.3227e-06
1.88587e-06
0.0127842
0.0215743
4.09695e-06
2.42005e-06
0.000845587
1.83254e-06
4.00916e-06
0.0104058
5.0842e-06
2.88545e-06
0.00054473
2.6954e-06
0.0090142
2.81556e-06
2.37983e-06
1.03192e-05
4.1789e-06
0.0127607
3.15083e-06
2.35282e-06
0.0989865
0.0127235
3.63535e-06
2.39969e-06
1.94808e-06
0.00988656
0.00497663
0.0131881
0.0147419
4.80077e-06
2.54877e-06
0.0223387
0.010879
3.86448e-06
0.0227359
0.0244952
0.0104317
4.70031e-06
2.41443e-06
0.00809795
1.90945e-06
4.9721e-06
0.0103958
2.37027e-06
0.0125798
2.36176e-06
1.91152e-06
2.10685e-06
0.0107486
0.0110152
3.19959e-06
0.0578007
4.83009e-06
0.0111339
0.0139568
1.93003e-05
4.22168e-06
0.0188695
2.4114e-06
3.69248e-06
2.55511e-06
0.00338849
2.27324e-06
3.84298e-06
0.000107096
0.0083528
3.6727e-06
2.36391e-06
0.062189
0.0224552
6.23595e-06
0.0173093
0.0120408
2.22677e-06
4.21208e-06
1.92323e-06
0.0438387
9.47814e-06
2.47528e-06
1.85703e-06
0.0221103
2.35052e-06
1.95357e-06
2.05816e-06
4.08834e-05
0.0417953
5.31046e-06
0.019331
0.0347392
4.40028e-06
0.0108457
1.84273e-06
1.82752e-06
2.93744e-06
0.00310178
0.0104776
2.32096e-06
3.64143e-06
3.8052e-06
1.70773e-06
2.68195e-06
3.1432e-06
2.90513e-06
1.85571e-06
0.00739213
0.0120651
2.49806e-06
0.0124193
4.6882e-06
3.8907e-06
0.0150654
1.84323e-06
0.0102807
0.000722194
1.95742e-06
2.55518e-06
2.15593e-06
6.07384e-06
3.13052e-06
0.0107697
1.94177e-06
2.22598e-06
0.0149968
0.0142424
0.0229994
0.0181849
2.84084e-06
2.76001e-06
2.57724e-06
2.37191e-06
0.00877768
0.0243195
0.00800271
9.54626e-06
1.99643e-05
1.03731e-05
3.0823e-06
3.92264e-06
2.17441e-06
1.91315e-06
0.0415407
2.25564e-06
0.0112166
1.26669e-05
0.0131673
2.30449e-06
2.35476e-06
2.87184e-06
0.195014
1.85865e-06
0.0320092
3.69844e-06
3.13528e-06
0.0209428
2.85169e-06
2.16579e-06
1.74112e-06
1.87044e-06
8.94093e-06
2.28625e-06
0.00989074
2.8239e-06
5.80575e-06
3.31925e-06
5.85563e-06
2.79547e-06
0.0320386
2.43236e-06
0.020469
0.00927815
2.54574e-06
0.00277995
0.018138
0.139697
1.93027e-06
3.63733e-06
0.0364967
2.51433e-06
2.37593e-06
0.0423742
0.0106517
1.04608e-05
0.0103908
1.889e-06
1.62762e-05
2.42153e-06
5.7532e-06
2.35074e-05
3.69652e-06
2.52684e-06
1.10768e-05
3.81731e-05
2.31525e-06
9.69251e-06
0.00834295
1.66452e-06
1.76643e-06
0.023224
2.34482e-05
0.0107674
1.76167e-06
3.27501e-06
2.9721e-06
1.83241e-06
0.00806233
3.67655e-06
0.0081856
2.34499e-06
0.0375601
2.25437e-06
2.69532e-06
2.56314e-06
2.12311e-06
0.0130171
0.0237167
0.00947594
2.28435e-06
2.38853e-06
4.16007e-06
2.00119e-06
0.000729347
0.0242847
0.0181927
3.27062e-06
8.81805e-06
0.0947747
2.37006e-06
2.01247e-06
4.41424e-06
0.0157612
1.92042e-06
2.02472e-06
0.00166868
0.0471688
1.30654e-05
0.0780461
2.60084e-06
2.32186e-06
0.0101365
2.42721e-06
0.012349
1.75866e-06
8.41401e-06
2.59934e-06
2.38271e-06
1.88213e-06
0.000953879
0.0197685
3.32403e-06
0.145206
3.29464e-06
4.17573e-06
0.00332187
0.0122843
2.18979e-06
0.0126303
0.00141384
0.0540003
0.0186354
1.84941e-06
2.4573e-06
1.70364e-06
1.8691e-06
2.47044e-06
1.88586e-06
0.0479094
0.0337342
2.30978e-06
2.08139e-06
2.50385e-06
1.82247e-06
0.00779613
2.48688e-06
3.5699e-06
3.21289e-06
2.38591e-06
0.0109663
1.54058e-05
5.99607e-06
0.0244813
2.39871e-06
0.0193692
2.74064e-06
1.86151e-06
3.0012e-06
2.55287e-06
2.50849e-06
2.1179e-06
2.48527e-06
2.16862e-06
2.31818e-06
0.0109044
1.75283e-06
2.36618e-06
4.80147e-06
1.77998e-06
2.4094e-06
4.07471e-06
2.43939e-06
0.0911028
2.2323e-06
4.04485e-06
0.0339558
0.0260277
0.00819887
0.000247842
2.70879e-06
0.0100822
2.66096e-06
2.72804e-06
0.139918
3.20697e-06
2.91027e-06
2.55048e-06
3.11297e-06
0.0096937
2.14407e-06
0.0127821
2.35643e-06
0.0332369
5.04771e-05
4.4172e-06
2.43185e-06
0.0106211
0.0430524
0.0123594
2.56649e-06
0.00809224
2.65609e-06
0.0169209
4.16675e-06
0.00874894
0.00996083
0.000288175
0.0604208
3.19958e-06
0.0250458
1.90823e-06
2.55514e-06
0.000448386
0.0175262
2.27909e-06
2.51413e-06
0.000390492
0.0106167
0.078325
2.62881e-06
0.00182874
0.0294827
0.0269658
0.0123644
2.17948e-06
0.00221605
0.0265179
0.016705
2.41326e-06
0.0417429
2.61464e-06
1.84688e-06
2.40839e-06
3.17977e-06
2.41478e-06
1.19796e-05
0.0340679
3.21144e-06
2.42144e-06
2.14801e-06
0.047703
3.56791e-06
2.38698e-06
6.34742e-05
0.0100683
0.0117871
1.90276e-06
0.0266879
4.1057e-06
1.95766e-06
2.20007e-06
1.33413e-05
0.010125
2.71824e-06
0.012926
1.08905e-05
0.0223167
1.71522e-05
4.11482e-06
0.0185061
2.7166e-06
0.0120466
3.77836e-06
1.73523e-06
2.64749e-06
3.92255e-06
1.76793e-06
2.56425e-06
2.3951e-06
2.40445e-06
0.072233
1.83059e-06
2.2824e-06
0.0345238
0.00888183
0.0104574
3.61052e-06
2.29565e-06
0.00794444
2.15503e-06
2.52276e-06
0.0109076
2.42523e-06
0.0121254
0.0181435
0.0103914
0.0138357
0.0207506
9.24854e-06
0.112047
0.0276401
2.38908e-06
3.50327e-06
2.82464e-06
1.39592e-05
0.0319162
9.14412e-06
0.0102894
2.35724e-06
0.0128197
4.75189e-05
2.00476e-06
0.125875
2.79678e-06
0.00877064
2.4341e-06
2.37262e-06
2.06464e-06
4e-06
1.09098e-05
2.29011e-06
0.000140649
2.44782e-06
4.01695e-06
2.52448e-06
0.0502941
2.86611e-06
1.75369e-06
2.61312e-06
9.90661e-06
1.93247e-06
2.75468e-06
2.19876e-06
0.0104838
2.4426e-06
2.25958e-06
2.41823e-06
3.08576e-05
1.79409e-06
0.0155315
3.29785e-06
0.0191569
2.1876e-06
0.0101296
0.0116704
4.10447e-06
0.224236
0.0215977
0.0222717
0.0169176
2.13997e-06
7.37477e-06
0.0140609
0.0102529
1.77671e-06
2.40887e-06
8.29441e-05
2.29917e-06
0.0517744
2.14196e-06
0.0112505
0.0113893
0.00933867
2.47191e-06
0.0393409
0.031902
1.88679e-06
0.0161979
2.71998e-06
1.77892e-06
0.00916559
0.0190967
2.84993e-06
3.83681e-06
0.0166958
2.37628e-06
0.0210245
2.83597e-06
1.16028e-05
3.53572e-06
0.0443308
0.0299415
0.0309577
1.8602e-06
4.12853e-06
0.0265924
2.24376e-06
0.00175065
2.53225e-06
1.97996e-06
3.30529e-05
0.00052072
0.0141456
0.000994586
2.16868e-06
0.0128488
2.38529e-06
2.53415e-06
0.00558846
0.023902
0.0186094
0.00900938
0.00969944
9.69869e-06
0.170246
0.0447382
0.013405
1.19958e-05
0.0404141
2.28274e-06
2.32843e-06
2.83512e-06
3.71218e-06
0.0231359
0.0108038
4.10506e-06
0.0269292
0.00492065
3.45419e-06
0.0246552
2.39732e-06
0.00043564
5.22512e-06
9.08015e-06
0.0120121
0.0424982
3.05612e-06
0.0333679
3.77491e-06
2.38645e-06
2.15328e-06
1.84121e-06
0.000205753
2.04776e-06
2.58929e-06
0.037927
1.80014e-06
0.050611
1.91566e-06
0.0117591
1.17184e-05
1.99944e-06
0.0214408
0.00894147
0.0108372
0.0103571
0.0122033
3.45354e-05
0.0148978
0.0104904
5.17708e-06
2.3328e-06
0.010305
2.28885e-06
0.0101994
3.65884e-06
1.90231e-06
0.0362821
2.83683e-06
0.00893109
3.96892e-06
2.27811e-06
0.00926049
0.0097822
0.012164
2.33743e-06
0.0134293
1.1974e-05
3.92792e-06
0.0139553
0.0109347
7.43288e-06
4.60051e-06
2.01201e-06
3.11277e-06
2.43732e-06
0.00930929
0.0212699
1.66026e-06
0.0233373
0.0125523
2.7145e-06
2.63817e-06
0.0105474
2.88517e-06
0.0333204
0.0141808
1.98785e-06
1.83896e-06
0.00202428
2.34213e-06
0.00378099
0.0129265
2.60473e-06
0.0388847
4.97776e-05
3.2143e-06
4.22271e-06
2.40898e-06
2.71456e-06
3.19342e-06
0.0117807
0.00439677
2.0988e-06
5.55085e-06
0.0131994
1.93043e-06
3.19972e-06
3.67907e-06
2.27215e-06
2.35753e-06
0.0109838
2.11048e-06
3.63893e-06
0.0207416
3.18473e-06
0.0160961
0.0170874
4.14725e-06
3.74062e-06
2.66583e-06
0.0364106
1.74111e-06
2.13885e-06
0.0391992
0.0101437
5.96475e-06
0.0193453
0.0242277
0.0221402
3.57026e-06
0.023089
1.0765e-05
0.0109308
0.000278192
2.39273e-06
0.0284483
2.61393e-06
0.0886515
3.27232e-06
0.0551522
2.39845e-06
0.0102629
2.37296e-05
1.90552e-06
1.89658e-06
3.90183e-06
0.00173308
2.68342e-06
0.0203871
0.0170689
0.031224
2.86649e-06
0.0104015
0.0125487
2.73848e-06
0.0135435
2.53529e-06
0.0169152
0.0113631
2.19393e-06
0.0161937
0.025072
1.90356e-06
0.0103991
1.74276e-06
0.0127023
2.49297e-06
0.000126403
0.0109391
2.05177e-06
0.00396436
2.4259e-06
3.66684e-06
2.79407e-05
2.6101e-06
0.000185974
0.0122186
3.02603e-06
5.06749e-06
5.86952e-06
2.59469e-06
0.0119761
2.15707e-06
0.0375918
0.0046061
2.35801e-06
0.0175443
1.09209e-05
0.00920431
2.76655e-06
2.1334e-06
0.074172
1.13975e-05
1.77876e-06
0.0112807
0.0433036
1.25161e-05
0.00977017
3.31389e-06
0.0552483
4.11918e-06
0.00236514
0.0125353
2.22625e-06
8.02022e-05
3.67704e-06
0.00908263
1.71129e-05
2.41576e-06
0.0729158
3.07516e-06
1.95547e-06
9.86445e-06
0.0730409
3.95435e-06
1.92385e-06
9.99418e-06
0.0114027
1.92349e-06
1.25959e-05
3.15314e-06
1.766e-06
3.25042e-06
1.86707e-06
0.011453
2.52433e-06
0.0105428
1.69278e-06
0.00414221
2.33497e-06
0.0235244
0.000175678
2.13332e-06
3.22226e-06
2.09409e-06
3.57335e-06
0.00109081
1.78663e-06
0.00991275
4.75606e-06
2.4313e-06
0.00980157
0.0552387
0.00204455
0.0125976
4.04931e-06
0.0237484
0.0141039
7.58378e-05
0.0102059
0.00654412
2.7188e-06
1.88001e-05
1.85309e-06
5.63452e-06
6.0647e-06
1.89377e-06
4.58876e-06
2.29333e-06
3.23064e-06
0.0111828
0.0410776
0.0194593
3.33939e-06
0.0108165
0.089799
2.37245e-06
1.95886e-06
0.0219748
4.66439e-06
2.05182e-06
0.00542319
0.0167881
0.0121166
0.00850204
0.0254444
1.81292e-06
0.000134755
1.85369e-06
0.01081
2.44543e-06
4.8552e-06
0.000237455
2.08866e-05
1.88155e-06
2.90665e-06
0.00833512
1.90872e-06
0.010512
2.61105e-06
0.0614756
0.0107537
0.224241
0.0161484
3.17831e-06
6.67777e-06
1.98244e-06
0.0102597
0.0132947
2.99095e-05
0.0254292
2.54686e-06
5.91974e-06
2.87753e-06
0.000121392
2.2648e-06
0.028092
2.72336e-06
0.034392
0.0133403
0.0013547
0.011564
2.37975e-06
2.26466e-06
0.0880828
3.67033e-06
0.0228216
2.4405e-06
0.0100522
3.02834e-06
0.0353674
0.256377
5.26595e-06
2.42387e-06
7.72164e-05
0.0246073
2.55896e-06
3.06486e-06
2.43918e-06
0.0165147
2.29383e-06
0.000225563
0.0164517
0.0100507
0.0157649
0.00787246
6.11088e-06
2.39864e-06
0.0439474
5.09611e-06
2.44641e-06
3.12362e-05
3.63316e-06
2.07887e-06
1.75216e-06
5.28221e-06
3.63557e-06
0.00886712
0.0327608
5.12855e-06
2.39606e-06
2.37719e-06
0.0940807
0.0117485
0.0246119
2.76335e-06
4.00135e-06
0.0170891
6.9993e-06
1.97763e-06
0.00021468
3.72787e-06
2.43474e-06
2.69455e-06
7.93942e-06
1.92392e-06
0.00116038
1.18014e-05
2.26053e-06
3.16451e-06
0.00140401
0.0221929
0.0274175
0.0310307
2.17836e-06
2.30754e-06
6.05696e-05
2.08717e-06
0.0660544
3.11356e-06
3.01507e-06
2.45701e-06
6.04164e-05
2.24862e-06
2.78028e-06
2.48701e-06
3.32676e-06
4.11142e-06
0.0105998
0.0150737
0.111854
0.0783186
0.0170922
0.0659248
3.87624e-06
3.47376e-06
4.04867e-06
5.07346e-06
2.54848e-06
2.27446e-06
2.67598e-06
0.000896262
0.000919283
2.0165e-06
2.40933e-06
0.0717292
1.12571e-05
5.96436e-06
0.0110963
0.00905307
0.0162255
2.72654e-06
2.28036e-06
2.05665e-06
3.48926e-06
0.0126769
0.0680188
0.0100298
2.48053e-05
3.32887e-06
0.0178339
0.0103934
1.81605e-06
0.000433224
2.42881e-06
2.53859e-06
1.38761e-05
2.03146e-06
2.18088e-06
0.0201042
0.0110201
0.0671569
0.0429451
0.018147
3.36955e-06
3.79977e-06
0.0262371
3.82282e-06
3.49507e-06
0.0308946
0.0507621
2.99444e-06
2.2372e-06
2.32199e-06
2.74727e-06
0.000329665
2.35282e-06
2.46509e-06
4.88996e-06
4.26571e-06
4.87937e-06
2.495e-06
3.23337e-06
0.00296134
6.91452e-05
2.47033e-06
4.88827e-06
1.1397e-05
0.000211554
0.014147
3.74711e-06
0.0186959
3.59834e-06
2.04033e-06
0.00873421
4.04272e-06
1.90049e-06
2.44297e-06
0.00888691
0.0109213
0.0105774
0.015923
0.0437165
0.00134476
2.99795e-05
2.05309e-06
2.87964e-06
0.00012793
1.82778e-06
2.35415e-06
0.023237
2.7041e-06
0.0822149
3.75929e-06
3.29976e-06
2.38487e-06
3.76936e-06
0.0119409
4.52358e-06
1.73896e-06
3.17508e-06
0.0311949
4.28438e-06
1.86695e-06
2.22429e-06
0.0228832
2.24979e-06
0.0129227
0.0191451
1.92123e-06
0.010708
2.34331e-06
2.39477e-06
2.10301e-06
2.245e-06
2.21074e-06
0.0192025
0.0199072
0.00937301
0.00323338
2.31006e-06
0.0112733
2.4316e-06
0.0161884
0.0297187
1.93311e-06
0.204782
2.27844e-06
4.59679e-06
2.8487e-06
2.41354e-06
2.46197e-06
0.0158461
0.0110818
0.0186046
0.0527195
2.20982e-06
6.01869e-06
0.0650277
0.0439473
0.01131
0.0102416
2.83433e-06
2.31481e-06
9.04034e-06
2.8588e-06
3.21206e-06
1.86144e-06
0.114467
3.39069e-06
3.5225e-06
0.0108276
2.16106e-06
4.00557e-06
0.188936
2.77943e-06
0.00881304
2.47789e-06
0.000959282
0.0690605
0.0110102
0.176133
2.18115e-06
0.0164956
5.23385e-06
3.2391e-06
1.67104e-06
0.00966606
2.61986e-06
4.16225e-06
0.0463269
4.06222e-06
0.033195
2.22671e-06
0.00288405
5.10814e-06
0.000356983
3.52586e-06
0.0133705
1.78185e-06
4.05064e-06
2.34529e-06
2.62028e-06
2.0683e-06
0.0892646
5.52225e-05
0.00950125
7.8068e-05
4.76162e-06
2.51593e-06
1.86382e-06
0.0283132
2.33091e-06
2.75517e-06
0.0532064
2.25542e-06
0.0396261
0.0427228
0.0718995
6.48153e-06
2.44988e-06
0.0255036
0.0163348
1.89565e-06
2.18422e-06
0.0190922
0.000567171
0.0134223
2.68876e-06
1.93041e-06
2.43934e-06
0.0163681
0.00127247
1.86934e-06
0.00609162
0.0704378
2.46733e-06
2.69634e-06
1.88637e-06
2.05038e-06
1.86186e-06
1.98689e-06
0.0136749
0.017097
0.0104294
3.02346e-06
2.15637e-06
0.000145463
0.000315926
2.72755e-06
0.0134221
2.02292e-06
3.01213e-06
2.32383e-06
1.72617e-06
1.86036e-06
9.65586e-05
2.49845e-06
0.00711631
0.0389281
1.98309e-06
4.76053e-06
0.00616029
3.76922e-06
1.86871e-06
0.104745
2.23676e-06
2.09103e-06
2.84387e-06
2.46084e-06
0.00977354
0.0107589
4.17093e-06
4.16879e-06
0.0253976
0.0274786
2.27377e-06
3.16334e-06
0.026468
0.0619111
0.0171412
0.0197558
0.0270044
1.87804e-06
1.79067e-06
2.21196e-06
0.00584409
2.35621e-06
0.00881879
0.0167846
0.000133424
2.78962e-06
0.0629404
0.022531
3.30509e-06
2.4646e-06
1.79652e-06
0.0101257
2.82292e-06
0.00890532
1.87649e-06
0.0186461
2.55063e-06
0.0339522
0.0117777
0.0197779
2.91845e-06
0.0268943
2.88935e-06
2.51218e-06
0.0246634
2.64542e-06
2.48069e-06
1.97657e-06
3.36327e-06
0.00325546
1.90184e-06
0.00140057
2.26307e-06
0.0144232
0.0364258
2.52992e-06
3.25004e-05
1.90777e-06
2.83252e-06
0.0175688
0.0863725
0.0273274
0.00776572
0.027741
0.000173678
0.223294
0.00993881
2.86591e-06
2.36977e-06
1.7393e-06
2.87942e-06
2.47542e-06
0.034369
0.045706
2.18746e-06
3.23536e-06
3.06545e-06
0.0203551
2.17862e-06
1.81204e-06
0.0172635
1.88725e-06
1.29259e-05
2.48669e-06
3.28989e-06
4.22264e-06
0.019884
1.73973e-06
3.30778e-05
1.48588e-05
2.78901e-06
2.5117e-06
2.03533e-06
2.14632e-06
2.3401e-06
0.0185144
0.0289736
3.52369e-06
0.0103492
0.0224674
3.2825e-06
3.16565e-06
0.0235124
6.78483e-06
0.0246254
2.32262e-06
0.000143432
2.78009e-06
0.00862453
2.5356e-06
8.26865e-05
3.50182e-06
2.82714e-06
3.93031e-06
0.0213552
0.237016
0.00865362
3.67635e-06
0.0213081
0.00920817
0.0608396
2.77607e-06
2.40174e-06
0.0118179
0.0120229
2.41362e-06
0.165629
2.10277e-06
0.00991902
0.0575488
0.0099426
2.11958e-06
2.41521e-06
0.0160095
0.0272561
0.00653421
2.02373e-06
3.0921e-06
1.87174e-06
2.98379e-06
1.86243e-06
4.6979e-06
2.41237e-06
2.29689e-06
0.00949957
0.0171869
0.00739152
2.42601e-06
2.05808e-06
0.023821
0.0175373
2.40635e-06
0.0274828
0.0218713
1.77792e-06
0.0239957
0.0415538
0.0127997
0.0164659
2.59341e-06
0.0181334
4.44714e-06
6.27671e-06
3.93533e-06
2.39503e-06
0.0120757
0.0112608
0.122049
9.61454e-06
2.67707e-06
0.0115811
4.12374e-06
3.71776e-06
0.00497763
2.43919e-06
8.9007e-06
2.08978e-06
2.54318e-06
0.00976789
2.16308e-06
5.87535e-06
2.59768e-06
0.0176043
6.60687e-06
2.45082e-06
2.30107e-06
2.74112e-06
2.99283e-06
0.0420757
2.42057e-06
2.90039e-06
2.19623e-06
0.00202997
2.75858e-05
0.0106129
0.0234029
2.31933e-06
2.84997e-06
2.65099e-06
4.47862e-06
2.39916e-06
0.017583
0.02903
2.88245e-06
6.44965e-06
2.823e-06
2.47968e-06
2.89762e-06
3.08414e-06
0.0227985
2.31227e-06
2.35047e-06
0.0814891
3.35056e-06
2.09467e-06
0.269606
2.40131e-06
0.0507866
0.019462
0.0223134
0.108945
8.29083e-05
0.0131029
0.0114461
2.07999e-06
0.00953759
2.71977e-06
3.34052e-06
2.10764e-06
0.0364331
1.85173e-06
1.77596e-06
0.117228
0.0236907
0.046835
1.9003e-06
2.40227e-06
1.80617e-06
2.47508e-06
1.52034e-05
2.64409e-06
2.10431e-06
0.0137486
0.00924838
0.0310869
0.0253499
0.00874791
1.2814e-05
1.80476e-06
3.11589e-06
0.0226161
2.30672e-06
2.63296e-06
0.0286445
1.84702e-06
2.44472e-06
1.8931e-06
3.21965e-06
3.34313e-06
1.78827e-06
0.0492194
0.0104485
3.66646e-06
7.75377e-06
6.37753e-06
0.0102545
2.32632e-06
2.43662e-06
2.13736e-06
2.30261e-06
0.0245672
1.74032e-06
2.31368e-06
3.36298e-06
0.0136984
2.49115e-06
2.41375e-06
0.0103417
2.04822e-06
3.47242e-06
2.79911e-06
1.66434e-06
1.7948e-06
1.71327e-06
2.29731e-06
2.35816e-06
2.54417e-06
1.05608e-05
3.18941e-06
0.0473889
2.46631e-06
0.0110477
2.32652e-06
2.23487e-06
1.90063e-06
3.36973e-06
2.3007e-06
0.000137018
0.0324441
2.63133e-06
0.0138303
2.4147e-06
0.0426534
1.99106e-06
2.2671e-06
2.85438e-06
0.0147473
0.0273167
0.0149321
0.0278484
1.93251e-06
1.80914e-06
0.0114901
2.9271e-05
1.06965e-05
2.40782e-06
2.39135e-06
8.23953e-06
3.65986e-06
1.8319e-06
0.000452337
0.0346417
2.11714e-06
0.0402211
0.00990793
0.0114348
4.10651e-06
0.0113442
0.0212559
2.57936e-06
1.81404e-06
3.00389e-06
2.10203e-06
0.0311908
2.22971e-06
7.0093e-05
0.0317813
0.0136718
0.0108166
6.30805e-06
2.6179e-06
0.00109394
0.0319996
4.36176e-06
2.28031e-05
1.88392e-06
0.000244534
2.83966e-06
0.0100883
0.0017889
1.74607e-06
1.90805e-06
1.83643e-06
0.0268589
2.36177e-06
3.67004e-06
0.0241785
1.77633e-06
0.0100227
1.92416e-06
1.82385e-06
5.49994e-06
1.8774e-06
0.0118768
3.5011e-06
0.0768457
2.39796e-06
0.0138721
5.33217e-05
0.037226
2.23321e-06
1.71661e-06
2.3063e-06
2.84057e-06
2.30926e-06
0.000356975
0.000682497
0.0566742
0.0227259
0.00213913
0.000147396
2.77764e-06
2.10444e-06
1.92885e-06
1.79036e-06
2.37343e-06
0.0229978
2.62882e-06
0.00985948
2.62397e-06
0.068648
0.0110604
2.14265e-06
2.41888e-06
5.59802e-06
0.0520227
2.443e-06
2.47272e-06
2.61309e-06
0.0962531
0.0243818
0.010028
0.00244991
1.66794e-06
0.00627059
1.92758e-06
0.0156313
0.0203623
2.47124e-06
2.30772e-06
1.75822e-06
0.0110982
0.0077068
2.29814e-06
0.0251648
0.010437
7.4606e-06
0.00911038
2.09251e-06
0.0115576
0.000124943
0.0597365
3.56678e-06
0.03737
1.22779e-05
0.0164843
2.56556e-06
2.10849e-06
0.0511639
0.00989229
0.00209351
1.99372e-06
0.0405736
0.0186988
2.02009e-06
1.93082e-06
2.04044e-06
3.83892e-06
2.31626e-06
3.14657e-06
2.13395e-06
2.25373e-06
0.0209368
0.00574244
3.13439e-06
0.0113647
0.0277143
0.0119088
2.39271e-06
2.21299e-06
2.41106e-06
0.0219739
0.017997
0.0100904
0.0205161
4.20969e-06
6.69192e-05
0.00427699
3.24568e-06
2.63072e-06
3.9951e-06
0.0165197
3.05448e-06
0.035837
1.60556e-05
0.0311273
0.0030351
0.0211753
0.0210277
2.35446e-06
5.56205e-06
0.0263553
0.0177083
0.0234845
0.0214926
2.43518e-06
0.00999768
0.0124284
0.0105804
0.000627525
0.0134466
5.55001e-06
2.35734e-06
0.000338967
0.0309655
2.63395e-06
1.92007e-06
0.00765705
8.92557e-06
1.85606e-06
0.0285074
0.119707
0.0152264
0.0606137
0.0112819
0.0322665
0.0322511
3.62958e-06
0.0193826
0.0444207
0.0312226
0.0282977
0.0254439
1.59754e-05
0.0364006
0.0408107
2.4876e-06
2.31003e-06
2.37407e-06
2.42342e-05
0.00024452
0.0228265
0.014864
0.0254892
5.66222e-06
0.0276162
5.62769e-05
2.27855e-06
0.00931674
2.33516e-06
0.0102091
2.68434e-06
0.00185653
0.01947
2.21576e-06
1.78897e-06
1.92065e-06
2.98968e-06
2.44432e-06
2.49634e-06
0.00138613
2.43155e-06
1.14929e-05
0.013144
2.59267e-06
0.010011
1.77796e-06
0.0493889
2.82307e-05
2.56293e-06
0.0296087
2.37717e-06
4.90426e-06
0.0317629
0.0212284
0.00954019
0.0031564
4.82086e-06
2.52109e-06
0.000826597
0.000786553
0.0101253
2.052e-06
0.0155421
3.33668e-06
0.0189792
0.00622719
2.43174e-06
9.11977e-05
2.08177e-06
2.6011e-06
0.00833479
3.15112e-06
2.17001e-06
0.0286328
2.41685e-06
0.0278255
2.3999e-06
0.00807729
0.0557102
2.38998e-06
0.0120448
3.86234e-06
1.41041e-05
2.4055e-06
0.00999126
2.25596e-06
0.0301664
2.50481e-06
1.94021e-06
1.37242e-05
2.56972e-06
2.41446e-06
2.02847e-06
5.01916e-06
0.0420156
1.84953e-06
0.167883
0.0316388
1.04856e-05
0.0684041
0.0349147
5.82518e-06
2.10707e-06
0.000388794
0.00948267
0.0564098
1.85885e-06
2.7208e-06
1.77071e-06
1.79338e-06
2.44063e-06
0.0307578
0.00553413
1.15395e-05
0.0125145
4.65917e-06
0.0118673
2.102e-06
6.65778e-06
2.12834e-05
1.91073e-06
0.00996908
2.93022e-06
0.00412397
0.00414273
0.238318
1.7418e-06
0.0102025
2.28007e-06
1.95733e-06
0.0226317
3.18082e-06
3.76623e-06
2.4914e-06
1.9166e-06
0.00981072
2.87058e-06
3.26577e-06
2.02007e-06
0.0104491
2.17522e-06
2.40332e-06
1.8059e-06
1.08185e-05
0.000182314
4.59769e-06
2.43144e-06
0.000111678
2.26861e-06
3.25829e-06
2.33514e-06
3.61531e-06
0.00519578
2.07948e-06
7.23813e-06
1.89412e-05
2.06891e-06
0.03848
0.0283396
3.66401e-06
1.42389e-05
0.0150865
0.127013
0.00079676
1.47692e-05
1.29958e-05
2.37108e-06
3.5539e-06
2.46531e-06
0.0216758
0.0197857
0.0209457
2.04341e-06
2.99205e-06
0.0135512
3.19813e-06
0.0157752
2.16882e-06
0.0106976
2.28782e-06
0.00827403
2.09814e-06
0.00229629
0.0230896
3.12134e-06
2.11266e-06
2.36743e-06
2.1929e-06
3.76155e-05
0.0186031
0.0143207
2.96006e-06
3.28846e-06
0.00998614
0.0103789
1.82132e-06
0.0216463
0.0176984
1.17811e-05
2.34769e-06
0.0436237
6.25038e-06
2.09825e-06
0.0129536
0.0303458
0.0388494
0.0263741
0.0209843
2.58342e-05
0.0101327
2.05484e-06
3.59216e-06
2.37529e-06
2.33582e-06
2.00265e-06
0.0181603
0.0291136
2.48305e-06
0.000600625
0.0100798
0.011188
0.0107014
0.0285136
0.018614
2.40124e-06
0.0100176
0.0201859
1.87531e-06
5.89011e-06
2.0641e-06
0.0126692
0.009974
2.66845e-06
2.45494e-06
0.00991688
2.46265e-06
1.99792e-06
2.46435e-06
2.68406e-06
0.0260509
1.81846e-06
0.0201535
4.14617e-06
0.0130292
3.0243e-06
0.000130056
0.0304688
0.0196321
2.80931e-06
1.22326e-05
0.00913135
1.92025e-06
0.00999539
0.0161725
0.0103583
0.000102075
0.191134
1.43474e-05
2.26625e-06
3.99021e-06
3.63962e-06
0.0035548
0.000118576
0.0161216
2.61998e-06
2.06075e-05
2.01595e-06
0.0254885
2.62571e-06
0.301877
0.0327789
2.94516e-06
0.00995965
2.12766e-06
2.32697e-06
2.32929e-06
2.09102e-06
2.50492e-06
2.67847e-06
1.87189e-06
3.57217e-06
3.30614e-06
0.00384636
2.60668e-06
1.83383e-06
6.60207e-05
3.50243e-05
2.00599e-06
2.33408e-06
2.2634e-06
0.0754012
0.0774755
3.26836e-06
3.14013e-06
0.00117357
2.73116e-06
2.11181e-06
0.020515
0.0169708
0.0154942
2.56714e-06
3.7424e-06
1.92576e-06
0.0410167
8.99142e-06
2.01072e-06
0.0270158
2.41294e-06
2.25002e-06
2.05795e-06
0.0371756
1.83512e-06
1.8581e-06
0.0209319
0.033641
0.013218
2.48293e-06
0.0306304
2.49659e-06
2.63323e-06
0.0377132
1.95289e-06
0.0204444
0.0279118
2.4199e-06
2.06924e-06
1.91796e-06
0.0115147
0.000271481
0.0512307
2.40218e-06
0.000139526
2.14101e-06
0.0112874
2.65792e-06
6.6965e-06
0.0254449
0.000220523
2.68189e-06
0.0111521
0.00837654
0.0276745
0.000159011
2.65775e-06
1.72515e-06
3.6784e-05
0.0147779
1.28942e-05
2.08164e-06
3.51831e-06
0.0368394
1.84562e-06
2.26068e-06
0.0264854
0.00871523
2.50633e-06
0.000206443
0.0121851
1.91106e-06
3.58933e-06
0.00515405
3.11317e-06
2.73747e-06
0.0178642
6.38079e-06
0.00901915
2.69084e-06
0.000420528
2.82862e-06
2.74649e-06
3.05185e-06
8.73129e-06
0.0179556
0.0645705
0.00991553
1.80642e-06
6.52252e-06
3.66196e-06
2.01819e-06
0.024349
0.00827888
5.41211e-06
0.0847011
0.021438
2.32355e-06
2.12856e-06
0.0132021
8.13064e-06
2.46973e-06
3.58068e-06
0.0012332
0.000292206
0.000313901
2.32842e-06
2.09913e-06
2.01605e-06
0.00164274
2.41299e-06
2.02826e-06
4.48979e-06
2.84646e-06
1.80624e-06
1.90085e-06
0.0150129
0.0206249
0.000354831
4.11291e-06
2.37374e-06
0.0116742
0.000100646
2.11758e-06
4.71994e-06
3.22233e-06
0.0450258
2.07434e-06
4.91647e-06
2.1115e-06
2.49012e-05
2.02192e-06
2.46726e-06
2.60356e-06
5.3186e-06
2.91961e-06
2.93889e-06
2.56113e-06
2.44387e-06
2.40388e-06
0.0112401
0.00927932
0.0321004
1.82271e-06
2.2959e-06
2.12216e-06
2.24899e-06
0.000628099
1.90913e-06
1.93236e-06
0.000599721
0.020624
2.14949e-06
2.39015e-06
0.104956
2.18125e-06
5.88513e-06
0.00976503
3.0902e-06
4.15451e-06
0.0118827
0.028841
3.67371e-06
2.14912e-06
0.0159253
6.58499e-05
1.84908e-06
0.0067797
0.189058
1.81897e-06
0.0284783
2.20259e-06
4.73037e-06
0.0264363
0.0270551
2.40627e-06
2.65797e-06
2.73382e-06
0.0310037
0.000111249
0.0367132
1.71169e-06
3.73809e-06
2.35676e-06
0.0205112
0.0149774
2.60706e-06
0.0109177
1.76999e-06
2.71401e-06
2.36207e-06
9.15392e-05
0.0278382
1.77367e-06
3.30034e-06
2.19941e-06
0.00895456
0.000197512
2.7823e-06
2.60257e-06
0.0094646
0.0012107
4.13838e-06
6.68636e-06
0.0218539
4.16178e-06
0.016997
2.56122e-06
0.147999
5.69214e-06
0.0105343
0.0273332
0.0168689
0.000109966
2.42901e-06
4.80775e-06
0.0124121
0.00441838
0.0169373
7.2697e-06
0.00976093
1.80584e-06
0.0335992
0.171799
1.97496e-06
0.000219555
1.81713e-06
0.00230139
2.16653e-06
1.77185e-06
0.000110402
1.01002e-05
2.31002e-06
1.9074e-06
3.79313e-06
2.07421e-06
2.70027e-06
6.75151e-06
2.49631e-06
3.49403e-06
0.0761964
2.13598e-06
0.00931097
0.108725
2.17931e-06
0.0125187
3.31464e-06
0.00753883
2.14416e-06