/*--------------------------------*- C++ -*----------------------------------*\
| =========                 |                                                 |
| \\      /  F ield         | OpenFOAM: The Open Source CFD Toolbox           |
|  \\    /   O peration     | Version:  v2012                                 |
|   \\  /    A nd           | Website:  www.openfoam.com                      |
|    \\/     M anipulation  |                                                 |
\*---------------------------------------------------------------------------*/
FoamFile
{
    version     2.0;
    format      ascii;
    class       volScalarField;
    location    "250";
    object      nut;
}
// * * * * * * * * * * * * * * * * * * * * * * * * * * * * * * * * * * * * * //

dimensions      [0 2 -1 0 0 0 0];


internalField   nonuniform List<scalar> 
14315
(
0.0059059
0.0365957
0.000464331
0.000571535
0.000690688
0.000463953
0.0364336
0.000467288
0.000488905
0.000459589
0.000722548
0.00643014
0.00682184
0.000453811
0.00731766
0.000460958
0.000466991
0.000462133
0.000519568
0.00051271
0.000461531
0.0257658
0.000507962
0.00687838
0.000617242
0.0370184
0.000463237
0.0365128
0.000525077
0.000839721
0.000479115
0.000461892
0.000453776
0.0221798
0.0266701
0.0241154
0.00488435
0.000465714
0.000972071
0.000706763
0.000459386
0.0087039
0.000462234
0.000458089
0.000496797
0.000591477
0.000546606
0.00458711
0.00599877
0.00046232
0.00370502
0.000571335
0.00681194
0.00633709
0.000474257
0.0238593
0.00527124
0.000492067
0.000461288
0.000463601
0.00104059
0.0260342
0.0245501
0.000460739
0.000885497
0.00614356
0.00644455
0.000466908
0.000461056
0.000475369
0.0066418
0.00048958
0.0267011
0.00388947
0.00046041
0.00651548
0.000468304
0.0191003
0.000494891
0.000453582
0.000457579
0.00540069
0.000486957
0.0189396
0.000461501
0.000457528
0.00626069
0.00545801
0.00530813
0.000701252
0.000484311
0.000610489
0.000457393
0.000457694
0.00824079
0.0222692
0.000461505
0.0173832
0.0321615
0.000826062
0.000467005
0.00569354
0.0246781
0.000457103
0.000868277
0.00100332
0.0140011
0.0222627
0.000485153
0.000681851
0.0212316
0.000460952
0.0143932
0.000462362
0.000459513
0.00578055
0.00046264
0.0048142
0.0121905
0.000470787
0.00166217
0.000470254
0.000457211
0.00502711
0.000527988
0.000457369
0.00161098
0.000457996
0.000454776
0.000602169
0.0245052
0.0212906
0.00258046
0.0252775
0.000884116
0.000461116
0.000460067
0.0352762
0.000454046
0.000460721
0.0356516
0.00500557
0.000460249
0.0182341
0.000674107
0.0266008
0.000801071
0.0143788
0.000465348
0.000513086
0.000462837
0.000400938
0.000460256
0.000464652
0.000671433
0.00664208
0.000461521
0.000461011
0.000464404
0.0356491
0.000461206
0.00564387
0.0160403
0.00716479
0.00046138
0.0231421
0.00861918
0.000660849
0.00321382
0.0213453
0.0106394
0.000462113
0.00798093
0.00045961
0.000498208
0.00626241
0.000469031
0.0251808
0.0274869
0.0233114
0.00128613
0.000467828
0.000457173
0.0043909
0.000494238
0.0004648
0.000674448
0.00102638
0.0260839
0.00471049
0.000504497
0.000679842
0.0225491
0.00855916
0.000452824
0.00932926
0.00116279
0.000457765
0.000458452
0.000675332
0.00760177
0.000467786
0.00473415
0.0239539
0.000456745
0.000957075
0.000834283
0.000479485
0.000460685
0.0224009
0.000931171
0.000454716
0.00784923
0.000580466
0.0344309
0.0117373
0.0172277
0.0327592
0.0335077
0.000613428
0.000467893
0.000484129
0.000579021
0.000463419
0.0273284
0.000460941
0.000466879
0.00422776
0.0260967
0.00417997
0.000462709
0.000460485
0.000505835
0.000467715
0.000469342
0.00130646
0.000493129
0.000481666
0.02709
0.0284454
0.000457196
0.000473475
0.00865747
0.00522845
0.00591808
0.00074822
0.0267713
0.000466548
0.0286514
0.00695489
0.000454693
0.000457018
0.0169453
0.00591318
0.000460624
0.033361
0.000475988
0.000912281
0.0159098
0.00082932
0.00238481
0.000470507
0.00784225
0.00653118
0.0171918
0.000475462
0.000520757
0.000475204
0.000457316
0.0201466
0.036053
0.000462388
0.00640815
0.00822088
0.000485275
0.0290203
0.00107817
0.000495125
0.0158679
0.0011872
0.000480384
0.000462242
0.0290933
0.00581138
0.00045973
0.00758454
0.0253065
0.0147937
0.0238274
0.00409077
0.000499749
0.00566128
0.0230776
0.0161955
0.000911188
0.00054199
0.0223458
0.000587334
0.000461946
0.000458679
0.000485593
0.00384065
0.01603
0.0370911
0.000464391
0.000461365
0.0238962
0.0258554
0.000461439
0.000454246
0.0213082
0.000455904
0.0113141
0.022567
0.000595937
0.00109898
0.000454969
0.000474688
0.000461113
0.000462444
0.00582363
0.00375309
0.0237093
0.000477474
0.00465327
0.000452946
0.0231011
0.000975086
0.000701476
0.000454406
0.000474062
0.0222815
0.000467614
0.0268542
0.00959601
0.000462676
0.024417
0.0171558
0.0163907
0.034482
0.000457725
0.0130132
0.000460026
0.000466615
0.0209815
0.00046224
0.00045478
0.00175753
0.00076849
0.0219421
0.00046822
0.000460244
0.0203585
0.005232
0.00808584
0.000460878
0.000456855
0.000469318
0.000461211
0.0209753
0.000548547
0.0193031
0.0147399
0.0189092
0.0247905
0.01436
0.000458066
0.00739054
0.0287243
0.00048001
0.00160246
0.000460224
0.000468781
0.0281261
0.0236075
0.000515268
0.000461036
0.000463011
0.000460899
0.00516911
0.0038086
0.000486885
0.000461995
0.0112939
0.000629772
0.0353719
0.0005912
0.0333366
0.0352525
0.0038078
0.000460886
0.00543299
0.0164632
0.0227285
0.0214571
0.0343031
0.00049923
0.000468697
0.000484238
0.0328904
0.000460836
0.00046927
0.000454732
0.00397294
0.034979
0.000903911
0.0248908
0.00350835
0.0181048
0.00675322
0.000459286
0.0306139
0.0102296
0.000548869
0.000455383
0.000456458
0.000840498
0.0169384
0.000461728
0.00520909
0.000462282
0.0112418
0.000995208
0.000470201
0.00046758
0.0176473
0.0117373
0.000558408
0.000490889
0.000474712
0.0109604
0.0358918
0.000468609
0.000486388
0.00261309
0.000460642
0.000623709
0.0234606
0.000656583
0.000462095
0.00495411
0.000460628
0.0243591
0.000461278
0.000465687
0.000933356
0.000600541
0.0183932
0.000464289
0.000462857
0.00286861
0.00444825
0.000466108
0.000507001
0.000462639
0.0121949
0.00441498
0.0179631
0.0310408
0.000673946
0.000460094
0.0332477
0.00692518
0.000613721
0.0348534
0.015507
0.00581769
0.000668728
0.000509096
0.0228831
0.000467745
0.000690413
0.0208305
0.000502444
0.00512284
0.00046323
0.000454318
0.000460161
0.0220353
0.00707676
0.000573132
0.00489642
0.000682767
0.00493672
0.0163616
0.00115924
0.000469586
0.0344461
0.000462791
0.000597383
0.000459565
0.00465066
0.000459244
0.000585528
0.00111733
0.0257588
0.000466589
0.000480377
0.00568273
0.0353117
0.000742273
0.00932739
0.0049852
0.000459127
0.000469544
0.000455521
0.00855623
0.000851995
0.000481343
0.000454607
0.0344284
0.000459428
0.000458406
0.000459443
0.000931441
0.021796
0.000655258
0.0342902
0.018871
0.00062708
0.0073106
0.00046029
0.000461166
0.000516878
0.00741554
0.0209786
0.00045985
0.000466399
0.000608211
0.000453883
0.000460479
0.000569503
0.000462042
0.000454175
0.00611607
0.00458408
0.000460744
0.00495281
0.000658682
0.000467641
0.0156417
0.000460114
0.0260543
0.00226394
0.000457973
0.000532103
0.000462223
0.000728568
0.000552269
0.00769188
0.000458236
0.000459861
0.0372324
0.00676457
0.0346308
0.0094117
0.000505802
0.000461175
0.000460454
0.000484282
0.0226442
0.0246333
0.0221796
0.000864855
0.001116
0.00084461
0.000463293
0.000467422
0.000498525
0.000456202
0.0172368
0.000457403
0.00670017
0.000965724
0.0209266
0.000491661
0.000499007
0.00046214
0.00272698
0.000453904
0.0290455
0.000581179
0.000463544
0.00780975
0.000461498
0.000461788
0.000458133
0.000473135
0.000834715
0.000460053
0.00708283
0.000461544
0.000713976
0.000590796
0.00072178
0.00046116
0.0200174
0.000472166
0.0365591
0.0211554
0.000533142
0.00513483
0.0151998
0.00420609
0.000458539
0.000466353
0.00925762
0.000460372
0.000476733
0.0115878
0.00570252
0.000942001
0.0261038
0.000454046
0.00106604
0.000469997
0.000711593
0.0012436
0.000466567
0.00045966
0.00093802
0.000944257
0.000460044
0.000872541
0.0234149
0.000452402
0.000454194
0.034621
0.00118178
0.0239466
0.000452914
0.00056459
0.000462366
0.000453618
0.0232252
0.000466223
0.0249995
0.000493469
0.0258227
0.000457751
0.00046152
0.000532876
0.000475929
0.0139466
0.0330711
0.00780136
0.000463414
0.00050504
0.0004687
0.000477941
0.00503041
0.00813928
0.0345357
0.000587056
0.000871577
0.00744127
0.000491986
0.000470502
0.000633696
0.0375033
0.000456093
0.000471418
0.00418492
0.0218912
0.000955201
0.0117192
0.000459873
0.000465873
0.0222957
0.000461436
0.00464289
0.000454076
0.000814984
0.000460529
0.000501268
0.000455171
0.00599732
0.0284268
0.000464389
0.00518438
0.000464336
0.000468952
0.00759034
0.017266
0.000486892
0.0210323
0.00349927
0.00791763
0.00692016
0.000454962
0.000461018
0.00045541
0.000456258
0.000526809
0.000456247
0.00465859
0.0274666
0.000488716
0.000472333
0.000460363
0.000455346
0.0204725
0.000459032
0.0005708
0.000559499
0.000482187
0.00736894
0.00102836
0.00076311
0.0343228
0.000476057
0.00125749
0.000513038
0.000453901
0.000462455
0.00046062
0.000494068
0.00046025
0.000511483
0.000461739
0.000465846
0.00279314
0.00045268
0.000462865
0.000646359
0.000457921
0.000476293
0.000620691
0.000461267
0.0112895
0.000457313
0.000468031
0.0277086
0.0257366
0.0217282
0.00326443
0.000461112
0.0236683
0.000493546
0.000460837
0.00507923
0.00046367
0.0004622
0.000530251
0.00046345
0.00830693
0.000462798
0.00888254
0.000462783
0.0283655
0.00166399
0.000626257
0.000476596
0.00416892
0.0185458
0.0201162
0.000460416
0.0116133
0.000493811
0.0147368
0.000469425
0.0232911
0.00837996
0.00382875
0.0167309
0.000463856
0.000601984
0.000470611
0.000531685
0.00418323
0.0292261
0.000460848
0.000460292
0.00550029
0.00724069
0.00589694
0.000460066
0.00480542
0.0201053
0.0203342
0.0156168
0.000461442
0.00790317
0.0280019
0.0294516
0.00050785
0.00580424
0.00048764
0.000454034
0.000476328
0.000463409
0.000481986
0.000937251
0.0252135
0.000463589
0.000462316
0.000483682
0.020771
0.000540052
0.000465452
0.00122126
0.0251206
0.00512151
0.000458434
0.0322445
0.00046938
0.000465659
0.000488942
0.00101517
0.00585753
0.000460519
0.0231418
0.000951614
0.0273942
0.00118413
0.000596863
0.0366483
0.000501008
0.00764015
0.00046686
0.000458484
0.00049431
0.00061642
0.000462002
0.00046065
0.000479616
0.000511543
0.0115318
0.000455154
0.000459312
0.0271427
0.014254
0.00428406
0.000577415
0.000461764
0.0223754
0.000462249
0.000459244
0.00529312
0.000469479
0.0230078
0.034592
0.0228282
0.0074606
0.0357581
0.000891014
0.00559568
0.0207126
0.000475256
0.000465262
0.00046151
0.000977179
0.029527
0.0008602
0.0044354
0.000480523
0.00534346
0.00169429
0.000470902
0.00694337
0.000510333
0.0177413
0.000471203
0.000463694
0.000471149
0.000468065
0.000920132
0.000465148
0.00166205
0.000489421
0.000468719
0.000460355
0.00750239
0.000461897
0.000457921
0.000459868
0.00089642
0.000469144
0.000501894
0.000499978
0.00581715
0.000461201
0.000457195
0.000459445
0.00130414
0.000456618
0.000896532
0.000464814
0.0373996
0.000456999
0.0250385
0.00536219
0.00046865
0.00356182
0.0351953
0.0190583
0.0288419
0.000476179
0.000781159
0.0178916
0.00786246
0.000452878
0.000506424
0.00149717
0.00046016
0.0056467
0.000475691
0.00425051
0.0226601
0.00788001
0.000490414
0.0242407
0.0276075
0.000454826
0.000819684
0.000460788
0.000456807
0.0248937
0.00482789
0.000461943
0.000590298
0.0219155
0.000463531
0.0279559
0.000461425
0.000949146
0.000465433
0.0156974
0.0181415
0.00990124
0.000455186
0.000468639
0.0291157
0.00050526
0.00405064
0.000484194
0.000455342
0.00147034
0.00198415
0.0113655
0.00270761
0.000456853
0.016266
0.000459947
0.000460336
0.0103469
0.0118508
0.0282689
0.0213857
0.00689923
0.000872696
0.00205589
0.0227134
0.00389571
0.000956036
0.00952558
0.000462521
0.000457782
0.000461642
0.000601416
0.000397384
0.00383679
0.000468946
0.0305662
0.00806505
0.000465038
0.0162367
0.000479459
0.00463234
0.000684142
0.000926322
0.0148929
0.0145119
0.000462859
0.0270209
0.000466563
0.000460722
0.000478359
0.000455274
0.00301937
0.000489837
0.000459868
0.0265406
0.000453193
0.00410806
0.000458414
0.0228954
0.000932029
0.000455651
0.0271411
0.0104989
0.00544496
0.00568715
0.0222764
0.00143002
0.0201251
0.00432274
0.000655277
0.00046607
0.00622659
0.000464218
0.00649112
0.000591283
0.000458095
0.0264167
0.000510962
0.0234784
0.000468089
0.000480633
0.0114946
0.0136695
0.0202783
0.000491676
0.0208294
0.000989298
0.00057847
0.00936983
0.0216278
0.000777756
0.000663602
0.000478846
0.00046356
0.000477236
0.0114488
0.0355461
0.000452399
0.0243767
0.0184922
0.000460845
0.000509162
0.00899412
0.000461803
0.00890274
0.0174563
0.000455217
0.000456196
0.00481212
0.000473106
0.00416211
0.0328064
0.000459706
0.0257125
0.00118343
0.000463772
0.000469186
0.000462945
0.000500331
0.000463473
0.00532093
0.00884608
0.000466425
0.000705707
0.0231331
0.000458557
0.000463796
0.000567604
0.000457807
0.000475071
0.00749753
0.000467293
0.000595848
0.0355126
0.000463399
0.00620083
0.0293446
0.000597049
0.000466946
0.000511302
0.00894476
0.000452535
0.000482214
0.00826615
0.0229058
0.000705364
0.0101657
0.0258455
0.0328495
0.00058943
0.0149211
0.00107631
0.0241262
0.00344179
0.000459948
0.0310683
0.000515926
0.00569866
0.00058841
0.00813513
0.000465645
0.0043416
0.00122139
0.000455226
0.000466723
0.00046779
0.00539812
0.000496761
0.028202
0.000714957
0.029723
0.000461361
0.00646921
0.00502313
0.000460969
0.0178509
0.000531353
0.00539566
0.00661723
0.000501557
0.0308998
0.0208447
0.000455366
0.00754463
0.000453868
0.0202133
0.000460691
0.00187298
0.00751978
0.000459644
0.0042329
0.000470315
0.000569441
0.00143956
0.000515707
0.00323084
0.00383202
0.000562222
0.000656693
0.000737732
0.000536343
0.00429304
0.000477426
0.0177996
0.00442396
0.000463455
0.00626955
0.00085573
0.0232202
0.000461149
0.000463462
0.0131269
0.000990658
0.000463129
0.0320889
0.014113
0.00093047
0.0112694
0.000546489
0.00669304
0.000468708
0.00359753
0.0224491
0.000457833
0.00202803
0.0004665
0.0256084
0.00145112
0.000458736
0.0131179
0.000547215
0.000454369
0.000914848
0.0113406
0.000582842
0.000469763
0.000851415
0.0321913
0.000469759
0.00094021
0.000553462
0.0004526
0.000464014
0.000454939
0.00630391
0.000460336
0.0230724
0.000454284
0.00647542
0.000478779
0.0250311
0.001538
0.000462713
0.00046358
0.00048594
0.000563796
0.00314115
0.000454641
0.0222718
0.000652764
0.000458873
0.0169051
0.0184765
0.00425557
0.00489713
0.000468172
0.0317614
0.0174265
0.00163159
0.00677923
0.0103801
0.000461712
0.00108953
0.000456534
0.000670637
0.00070624
0.000454133
0.000625755
0.00046205
0.000464014
0.0342111
0.0136016
0.0366366
0.000593256
0.0078491
0.0110017
0.000458362
0.000465383
0.0355836
0.000618986
0.000458873
0.00407248
0.0377809
0.00544812
0.0239634
0.0325229
0.000455095
0.00245767
0.000456246
0.00130559
0.000458935
0.00068495
0.00300639
0.00109085
0.000471073
0.000462362
0.0223646
0.000471619
0.0335655
0.000488161
0.00703329
0.0335776
0.00338743
0.0317028
0.000573341
0.000812119
0.00046436
0.0231634
0.0344408
0.00131789
0.0307656
0.000459595
0.000759888
0.000461829
0.00160003
0.00046134
0.0158181
0.000460629
0.0273352
0.00103844
0.00677833
0.0227726
0.000462957
0.000457688
0.00526767
0.000466426
0.0107466
0.000461383
0.00605853
0.000463062
0.0193902
0.00413933
0.000666828
0.000470214
0.00132956
0.0314361
0.000459591
0.00056934
0.000460354
0.0289436
0.000463063
0.00153944
0.0125387
0.0221781
0.0305322
0.0222059
0.000801704
0.000464319
0.00755811
0.00064363
0.000514719
0.00143116
0.000466208
0.000485286
0.000452603
0.000695139
0.000466414
0.00653463
0.012223
0.000681135
0.000464405
0.00045798
0.00592969
0.0222269
0.033319
0.00046105
0.000468206
0.00587759
0.000767975
0.000454763
0.00297459
0.00057784
0.000461621
0.0004609
0.000802571
0.000454411
0.00311404
0.000924531
0.000475535
0.000463659
0.00353975
0.0346914
0.00569074
0.000376459
0.000456674
0.00045774
0.000953404
0.000488777
0.00496147
0.00052798
0.000462639
0.000460768
0.00116287
0.000457769
0.000509557
0.000459051
0.000464639
0.000468841
0.00568889
0.0310238
0.00844583
0.00714436
0.0373186
0.00738118
0.000611865
0.000564885
0.000468248
0.000697853
0.000528955
0.000508275
0.000507833
0.00171475
0.0026194
0.000471761
0.000462319
0.00665473
0.000936514
0.00066687
0.00736002
0.0126485
0.0303311
0.00046122
0.000460616
0.000469672
0.000465434
0.0173121
0.0149689
0.0226176
0.000983605
0.000541799
0.0369385
0.00436731
0.000461509
0.00401189
0.00047228
0.000459506
0.000988774
0.00046274
0.000466311
0.0365146
0.00574305
0.0097206
0.00540032
0.033647
0.000464964
0.000466926
0.016932
0.000608198
0.00046584
0.0195362
0.0155707
0.000462538
0.000476243
0.0004835
0.000460995
0.00370723
0.000465757
0.000480597
0.000689314
0.00060643
0.000670537
0.000501004
0.000463815
0.00408482
0.000990723
0.000459101
0.000644083
0.000923242
0.00303755
0.0143376
0.000466697
0.0267192
0.000568472
0.000458048
0.00818322
0.000468312
0.000456078
0.00045951
0.0136387
0.00401864
0.00674956
0.0372364
0.0200685
0.00298398
0.000957085
0.000491023
0.000461905
0.00234395
0.000461148
0.000459172
0.0288214
0.000460645
0.00398713
0.000578818
0.000464332
0.000462825
0.000602767
0.022963
0.000667951
0.000452556
0.000463075
0.0299819
0.000606232
0.000459247
0.000474099
0.0353504
0.000464874
0.00670001
0.0280856
0.000454431
0.0160876
0.000459405
0.000458591
0.000470804
0.000464223
0.000459626
0.0346423
0.0341354
0.0222092
0.00695158
0.00047949
0.0150952
0.000523692
0.0290537
0.00952865
0.000469379
0.00429054
0.000477288
0.000638355
0.000461333
0.00046212
0.000458886
0.0291336
0.0217835
0.0335147
0.00669671
0.000457084
0.000730677
0.0150244
0.0174664
0.0065342
0.0329202
0.00046169
0.000458
0.000822721
0.00051222
0.000463764
0.000454661
0.00283212
0.000464543
0.000565727
0.00725004
0.000469276
0.000468195
0.00571492
0.000535089
0.0188428
0.000459148
0.00668259
0.00675324
0.0100901
0.00504638
0.000472808
0.0307636
0.000719869
0.000581724
0.000452251
0.0208818
0.000460002
0.000468729
0.0193622
0.000468473
0.018219
0.000457268
0.00435844
0.000645394
0.00209002
0.000465301
0.00698054
0.000453106
0.000468273
0.000472635
0.000493161
0.000486992
0.0111773
0.00175617
0.0226401
0.000691482
0.000646244
0.00049621
0.000468911
0.0236829
0.000465345
0.000505453
0.0194371
0.000476899
0.023429
0.0187374
0.0109128
0.000761563
0.000459901
0.0109401
0.00902766
0.000454313
0.000456589
0.0337507
0.0050696
0.034674
0.000502924
0.000462351
0.000458796
0.0371524
0.00227727
0.000456381
0.0056031
0.01411
0.000459908
0.000460451
0.000456222
0.000481415
0.000458647
0.000457422
0.0335814
0.0306706
0.00568547
0.000462599
0.000468285
0.00239111
0.000955051
0.000460933
0.0168199
0.000473879
0.000462671
0.000481771
0.00045265
0.000465149
0.00236701
0.00045994
0.00445903
0.0217648
0.000455146
0.000674543
0.00524655
0.000576385
0.000471809
0.00739505
0.000475544
0.000474181
0.000512031
0.000459524
0.024541
0.00759317
0.000600175
0.00046795
0.033955
0.0281457
0.000480335
0.000542977
0.0312739
0.013561
0.0121504
0.0278928
0.0285716
0.000469979
0.000457106
0.000457178
0.0088956
0.00046607
0.00995009
0.0339006
0.00278313
0.000461177
0.0160524
0.0247529
0.000464271
0.000508609
0.000462014
0.00771408
0.000461433
0.0142318
0.000467275
0.0369757
0.000459424
0.0240169
0.00472169
0.00147682
0.000462184
0.0274831
0.000461639
0.000482679
0.0309956
0.000460054
0.000459823
0.000464772
0.000464581
0.00842448
0.000454292
0.00272102
0.000457803
0.0171865
0.0135621
0.000504862
0.00191008
0.000468045
0.000514764
0.0329421
0.00474176
0.0246247
0.00824796
0.0324821
0.000712996
0.00320954
0.0249257
0.00046181
0.000463092
0.0004526
0.000461795
0.000510481
0.0231962
0.01802
0.000482714
0.00046445
0.000544165
0.0276639
0.000466877
0.000459752
0.0373887
0.000471876
0.000949462
0.000459865
0.000540219
0.00046877
0.00126668
0.000453847
0.0013414
0.000982129
0.000461357
0.000459345
0.00045837
0.000484542
0.000466032
0.0338731
0.00960694
0.0004661
0.0208376
0.0111608
0.000464265
0.00053399
0.034516
0.000747597
0.0336468
0.000458004
0.00262875
0.000511502
0.0245534
0.000459371
0.00155156
0.000565387
0.000538532
0.000467745
0.0185494
0.0041613
0.0220956
0.000466559
0.00828001
0.0145798
0.016906
0.000461301
0.000460556
0.00366555
0.0177202
0.000470118
0.00515891
0.00046038
0.0183047
0.0146358
0.0218759
0.00046677
0.000462516
0.0376554
0.0118298
0.00439152
0.000462894
0.0004631
0.000465945
0.000462335
0.000459531
0.000688415
0.000468196
0.000457807
0.01522
0.0128955
0.00459175
0.00046001
0.000456785
0.0306935
0.00947454
0.000466897
0.030315
0.0250928
0.000452865
0.033646
0.00429937
0.00746076
0.0362961
0.000537219
0.0374305
0.000627123
0.000706708
0.000594678
0.000464168
0.00995062
0.0219752
0.00514259
0.000900079
0.000461167
0.0221632
0.000596122
0.000467036
0.00842523
0.000460036
0.000894784
0.000466027
0.000481521
0.021312
0.000457044
0.000720553
0.000460134
0.0340984
0.000747979
0.000460423
0.000479639
0.000529981
0.000462648
0.0196359
0.000472785
0.000461901
0.00045957
0.00467981
0.00122697
0.00647462
0.0111775
0.000458333
0.000461953
0.00046039
0.000654782
0.000465145
0.0301219
0.0250798
0.000461794
0.00073465
0.000510718
0.000493269
0.000462208
0.000463428
0.0355004
0.000493293
0.000504465
0.00468494
0.000465047
0.000469691
0.00354445
0.000466171
0.0150114
0.0102716
0.0348228
0.00728721
0.00175404
0.00414682
0.00558049
0.00045577
0.0111846
0.000494627
0.000464496
0.000476473
0.00974559
0.000470549
0.00045286
0.00732434
0.0335752
0.0218784
0.000475878
0.000469956
0.000459185
0.000458925
0.00105786
0.000460913
0.00045985
0.0145744
0.0237306
0.00999709
0.031091
0.0177123
0.000955276
0.000455054
0.000547293
0.0110007
0.000458051
0.000493687
0.0298076
0.000468808
0.000475925
0.000455124
0.00046405
0.000464617
0.000455816
0.0209926
0.0073217
0.000466405
0.000784001
0.00074835
0.0253895
0.000479073
0.000464292
0.000469323
0.000458157
0.0139118
0.000456084
0.000457925
0.000575089
0.0166016
0.000459571
0.000469468
0.00577477
0.000480415
0.000556889
0.000511486
0.000452326
0.000454726
0.00045233
0.000458004
0.000464486
0.000494096
0.000802748
0.000463646
0.0219002
0.000497649
0.02534
0.00048805
0.000464132
0.000461817
0.000551605
0.000464884
0.00267197
0.0265026
0.000460726
0.0167137
0.00046925
0.00996052
0.000457303
0.000466169
0.000461864
0.0190295
0.0270051
0.00500122
0.0318886
0.000464125
0.000456413
0.00552345
0.00132926
0.000880696
0.00047372
0.00046459
0.000811114
0.000570516
0.000467812
0.00264631
0.0244966
0.00045653
0.0230151
0.00748291
0.0221146
0.000467984
0.0060374
0.0338029
0.00046014
0.000459944
0.000462622
0.000478233
0.0215142
0.000463314
0.00158354
0.0113392
0.0116176
0.0165206
0.000728842
0.000500626
0.00244074
0.0209374
0.000647005
0.00108402
0.000454078
0.0022631
0.000546721
0.00405873
0.00732387
0.000456102
0.000454319
0.000454453
0.0140974
0.000459563
0.000565247
0.00967226
0.000454476
0.0115509
0.000467666
0.000456233
0.000703016
0.0004724
0.0157814
0.000465464
0.0063314
0.000462737
0.0196768
0.0010889
0.0245645
0.000474117
0.000452305
0.000459802
0.000461553
0.000457528
0.00486221
0.00235076
0.0181345
0.0282586
0.00765963
0.000847351
0.000533008
0.000455857
0.000455138
0.000455908
0.000464648
0.0317362
0.000489502
0.0216412
0.000460654
0.00665536
0.018654
0.000494297
0.000473054
0.000723568
0.0195925
0.000476529
0.000460319
0.000499882
0.00773092
0.0125104
0.0113677
0.0034288
0.000452317
0.00846801
0.000454549
0.0372614
0.0356923
0.000461243
0.000486613
0.000452949
0.00701739
0.0118589
0.000477259
0.0266631
0.00483491
0.00078178
0.0231916
0.000460415
0.0328686
0.00248817
0.00993052
0.000592016
0.00376419
0.00100032
0.015127
0.000487402
0.000475279
0.00528818
0.00479383
0.00523613
0.000463933
0.0230277
0.00464059
0.000459454
0.000455047
0.000481097
0.000467344
0.000459279
0.000463419
0.000470283
0.000467995
0.0346057
0.010748
0.000463294
0.00623804
0.0264674
0.00598078
0.000463175
0.000459846
0.00046867
0.0313621
0.036546
0.00818082
0.016043
0.00064051
0.00143107
0.00878835
0.000563159
0.000460894
0.000468202
0.0320408
0.000534569
0.0169667
0.00103629
0.000385968
0.00937163
0.0363037
0.0362379
0.000481629
0.000743975
0.0321641
0.0172805
0.0335962
0.0101225
0.000461409
0.00873491
0.0210735
0.0219083
0.00206921
0.00874426
0.000742137
0.000507724
0.00382392
0.0243881
0.000460181
0.000462902
0.00957991
0.000884423
0.000459681
0.0142745
0.00687055
0.00508542
0.0100127
0.0282087
0.0275959
0.0220792
0.000466323
0.0164564
0.015955
0.0224719
0.0318592
0.0271294
0.00111993
0.0206866
0.022152
0.0004806
0.000483166
0.000459418
0.00125559
0.00121264
0.0326601
0.0377806
0.0213876
0.000695662
0.0318257
0.00066237
0.000459127
0.0139674
0.000464187
0.00853262
0.000461107
0.00329805
0.0335724
0.000458352
0.00045635
0.00046333
0.000462423
0.000515749
0.000480961
0.00674858
0.000461677
0.00096846
0.0243952
0.000489442
0.00665068
0.000460882
0.0208209
0.00133004
0.000489005
0.0243108
0.000466027
0.000640558
0.00481071
0.0324603
0.0127907
0.00868712
0.000639564
0.000491982
0.00638868
0.00329829
0.00863001
0.000458417
0.01853
0.000464564
0.0333398
0.0116809
0.000461954
0.00176343
0.000465445
0.000459934
0.0152492
0.000463196
0.000500069
0.0305241
0.000470294
0.0322653
0.00050465
0.0246113
0.00494285
0.000502866
0.0242565
0.000467268
0.00098053
0.000512853
0.00859363
0.000457745
0.0147962
0.000480938
0.000454585
0.000922241
0.000487155
0.000459426
0.000455795
0.000659001
0.00823869
0.000464721
0.00539856
0.0248047
0.000890243
0.0148949
0.023074
0.00071573
0.000465698
0.00446359
0.0253952
0.0110048
0.000467312
0.000460865
0.000459676
0.000454612
0.000473864
0.0252915
0.00524599
0.00105717
0.0045609
0.000685119
0.0203623
0.000493304
0.000707301
0.00098653
0.000462321
0.0109653
0.000553711
0.00825409
0.0083794
0.00428235
0.000456573
0.0269669
0.000475405
0.000454817
0.0301354
0.000463573
0.000575671
0.000459131
0.000458448
0.0261582
0.000461907
0.000565737
0.000455703
0.027223
0.000458244
0.000466809
0.000461717
0.00088287
0.00264859
0.000674394
0.000524866
0.0023778
0.000483818
0.000584491
0.000464807
0.000575013
0.00913741
0.000468488
0.000716734
0.000968912
0.000468128
0.0250835
0.0293665
0.000466247
0.00100504
0.0317224
0.00304752
0.00527835
0.00103041
0.000915904
0.000493079
0.00046618
0.000460847
0.0276849
0.0295292
0.0337542
0.000468915
0.000523039
0.0223618
0.000528829
0.0309452
0.000458285
0.0266779
0.000487779
0.0238245
0.000465551
0.00817503
0.0281883
0.000463237
0.000479772
0.000458962
0.000459739
0.00115064
0.0372903
0.0331124
0.000569257
0.000464391
0.0100338
0.00820395
0.000456112
0.0287801
0.0325534
0.000920104
0.000465997
0.0206353
0.000725315
0.000455946
0.0348502
0.00490979
0.0125931
0.0245032
0.0116785
0.0014969
0.0115118
0.000488431
0.000465987
0.000474762
0.000481949
0.000472671
0.0300471
0.0224166
0.00046024
0.00616543
0.0105383
0.0237748
0.0248892
0.0203166
0.0322807
0.000463484
0.0138496
0.0367354
0.000458291
0.000726276
0.00048999
0.0243691
0.0122429
0.000460391
0.000521314
0.0119588
0.000460512
0.000456639
0.000459925
0.000460466
0.0335956
0.000459057
0.0362513
0.000468644
0.00825234
0.000542672
0.00143211
0.0215261
0.0319536
0.000461725
0.00104039
0.0120966
0.000454579
0.0133404
0.0356022
0.00938829
0.00119667
0.00455799
0.000934043
0.000465648
0.00046844
0.000466365
0.00436286
0.00220779
0.0343899
0.000503636
0.00122108
0.000456755
0.0333705
0.000493115
0.00293803
0.0241141
0.000529435
0.00859571
0.000456707
0.000497521
0.000489794
0.000464783
0.000460666
0.000460536
0.000457833
0.000585073
0.000550981
0.00836776
0.000490171
0.000454252
0.000818719
0.0011537
0.000455593
0.00049921
0.000458278
0.0125326
0.00624536
0.000464409
0.000551153
0.00725693
0.000528474
0.000455921
0.00108384
0.00612974
0.0370415
0.000488098
0.000598979
0.000457965
0.0248661
0.000889106
0.000482649
0.0326366
0.000459914
0.000478863
0.000467539
0.0269006
0.000453523
0.000454578
0.0274082
0.0285849
0.017053
0.000460568
0.0300992
0.000459005
0.000460005
0.00705434
0.000460173
0.0309269
0.0276309
0.000460047
0.000458914
0.000457701
0.0148243
0.00332821
0.0201293
0.000462491
0.00235002
0.000458678
0.00619409
0.000460158
0.000737863
0.0260885
0.00328826
0.000460781
0.00399113
0.00826978
0.0261687
0.00273913
0.000460277
0.000456178
0.00162251
0.00920715
0.000983702
0.000456132
0.000585747
0.0231698
0.000466334
0.000457468
0.0303182
0.0117632
0.000501737
0.00292262
0.00523734
0.00045485
0.000466255
0.00708037
0.000463229
0.00046137
0.026855
0.000691997
0.022223
0.000460197
0.00257604
0.000461452
0.00046087
0.000548716
0.000712331
0.0303991
0.00833923
0.0117641
0.000462319
0.00068179
0.00046636
0.000459479
0.0211164
0.0259607
0.000679027
0.00381404
0.0228116
0.000458628
0.000472376
0.00458461
0.00077756
0.000527856
0.000465683
0.00332156
0.00405512
0.00328659
0.000470565
0.000481459
0.000477886
0.00288978
0.000469056
0.000470119
0.000653843
0.000461549
0.000456949
0.000468801
0.0345174
0.0355995
0.00245169
0.000468617
0.000466044
0.0241142
0.00184833
0.000479147
0.000626382
0.000463937
0.0229188
0.000456012
0.000639331
0.000456513
0.000913181
0.000485639
0.000461156
0.000495363
0.000735683
0.000535
0.000462567
0.000484553
0.000461133
0.000466969
0.00765763
0.0136751
0.0229692
0.000453752
0.000460343
0.000492412
0.000475445
0.00265656
0.000454932
0.000454432
0.00496685
0.035868
0.000456914
0.000462744
0.00952716
0.000464604
0.000711112
0.0139549
0.000462751
0.000597992
0.0337719
0.0309947
0.000569671
0.000471915
0.0303451
0.00175772
0.000458984
0.00847571
0.00458863
0.000458914
0.0314177
0.000457028
0.000633423
0.010275
0.0253256
0.000514112
0.000460298
0.000461116
0.0265658
0.0022825
0.0227189
0.000455903
0.000572659
0.000472039
0.00983862
0.0370394
0.000460314
0.00813311
0.000454039
0.000460853
0.000458147
0.00206083
0.0297314
0.00045393
0.000537683
0.000486681
0.0266402
0.00212954
0.000461466
0.00046072
0.0257948
0.00313363
0.000591667
0.0006974
0.0243489
0.000468836
0.0106463
0.000531084
0.00447434
0.000762262
0.00563008
0.0181544
0.0331935
0.00229192
0.00045903
0.000635743
0.0186097
0.00760659
0.0315374
0.00083597
0.0227512
0.000459146
0.0192093
0.0053116
0.000457606
0.00131031
0.000453737
0.00683368
0.000456362
0.000455866
0.00238986
0.000799048
0.00046028
0.000455161
0.000580328
0.000458742
0.000461087
0.00065449
0.000460617
0.000557893
0.00482139
0.000457345