/*--------------------------------*- C++ -*----------------------------------*\
| =========                 |                                                 |
| \\      /  F ield         | OpenFOAM: The Open Source CFD Toolbox           |
|  \\    /   O peration     | Version:  v2012                                 |
|   \\  /    A nd           | Website:  www.openfoam.com                      |
|    \\/     M anipulation  |                                                 |
\*---------------------------------------------------------------------------*/
FoamFile
{
    version     2.0;
    format      ascii;
    class       volScalarField;
    location    "100";
    object      omega_0;
}
// * * * * * * * * * * * * * * * * * * * * * * * * * * * * * * * * * * * * * //

dimensions      [0 0 -1 0 0 0 0];


internalField   nonuniform List<scalar> 
14315
(
13.864
2.566
0.0259307
0.0528162
0.0986364
0.0268083
1.95055
0.0278141
0.0379702
0.0230224
0.0789287
5.20824
14.8038
0.0217483
3.8246
0.0219607
0.0271892
0.0220587
0.0507279
0.0469549
0.022037
3.71332
0.0467389
4.56689
0.0762232
2.48019
0.02209
1.98425
0.0447177
0.127034
0.035892
0.0220659
0.0217772
4.41298
2.19293
3.99893
0.704755
0.0269687
0.206311
0.0841897
18.1998
2.09344
0.0238146
0.0222283
0.0419148
0.0669662
0.0492666
4.9068
3.77338
0.0220652
5.19946
0.0540182
3.90653
4.69468
0.0331777
4.19626
3.72271
0.0383169
0.0220624
0.0250203
0.192487
3.51152
4.00791
0.0220353
0.155386
0.847008
16.632
0.0221823
0.0220298
0.0336677
4.12185
0.03752
2.29342
3.63904
0.0221061
11.32
0.0287618
5.49015
0.0396482
0.0224466
0.0218711
8.4812
0.0376142
5.61433
0.0220255
0.024077
15.2429
5.95927
4.72871
0.0745558
0.0373472
0.0591975
0.0218727
0.0241139
3.9613
1.96121
0.023659
2.08939
1.85784
0.100318
0.0221898
3.96633
3.86584
0.0218923
0.0973443
0.183656
2.35474
1.9417
0.0380554
0.112899
2.01128
0.022305
2.43029
0.0220728
0.0222519
5.75275
0.0220892
4.9278
2.48794
19.7967
0.277977
0.0309845
0.0218808
6.39158
0.0417601
0.0219344
0.211216
0.0218702
0.022307
0.0577285
1.87493
2.86512
0.312633
1.87851
0.146081
0.0221049
0.022312
2.76474
0.0225838
0.0221111
2.70595
5.78146
0.0223285
2.0563
0.110987
1.78454
0.142426
6.10897
0.0280974
0.0399504
0.0243083
13.1856
0.0229932
0.0276425
0.0924156
4.27193
0.0237152
0.0219639
0.0266264
2.71405
0.0220561
3.51981
6.14417
4.29525
0.0239015
1.91817
4.14603
0.0686665
4.23766
2.57791
6.75089
0.0220094
3.97607
0.0230679
0.0451992
0.754711
0.0222823
3.84626
2.8904
1.93015
0.204185
0.0281074
0.0218755
3.94059
0.0397662
0.0259629
0.071613
0.245539
2.3746
4.02639
0.0463062
0.0743132
1.99361
1.9316
0.021842
2.75302
0.216871
0.0222826
0.0219525
0.064733
4.26945
0.028453
6.03286
1.92659
0.0224681
0.366966
0.137123
0.0351159
0.0219654
1.98351
0.189202
0.0224066
4.08135
0.0778023
1.73791
2.60218
6.39822
1.90582
1.72052
0.0842746
0.028828
0.0376
0.0778039
0.025209
3.45522
0.0242032
0.0231859
3.48517
2.2695
27.2588
0.0227867
0.0235601
0.0396979
0.0222381
0.022294
0.123226
0.0411147
0.0370847
2.23093
1.9716
0.0239873
0.0317474
2.90138
5.76837
0.681581
0.0764858
3.93958
0.0221812
2.02055
6.03578
0.0219066
0.0218861
4.07058
0.555014
0.0228821
2.46101
0.0331099
0.580391
2.21565
0.153034
0.292811
0.0312627
4.30945
5.83024
3.47985
0.0322467
0.0468217
0.0320831
0.0241332
2.00706
2.65286
0.0255424
4.28217
4.06036
0.0337549
3.62115
15.1773
0.0410052
2.15064
0.217186
0.0359643
0.0256775
1.95859
8.72196
0.0221585
4.01385
3.69869
2.36063
1.93789
9.5771
0.0451994
3.12401
1.97089
2.17345
0.152906
0.0597318
1.94381
0.0779437
0.0220806
0.0219532
0.0386684
4.02302
5.86447
2.43852
0.0258244
0.0220259
1.90216
3.57334
0.0220212
0.0219356
4.35581
0.0218445
2.49284
1.9517
0.0516302
0.265665
0.0222624
0.0318598
0.0239795
0.022021
5.06104
0.871049
1.92287
0.0355647
6.62928
0.0218661
1.9218
0.177002
0.071208
0.0219146
0.0317017
2.00593
0.0222255
2.17052
3.39281
0.0220734
1.90932
4.26594
4.31031
2.10078
0.0222811
6.37975
0.0219547
0.0221925
4.71943
0.0220123
0.0219167
13.0453
0.135628
1.98015
0.0222713
0.0225488
2.09686
5.77796
1.3926
0.0221447
0.022585
0.0222934
0.0220173
1.98135
0.0472644
3.41984
6.13942
3.47159
4.29341
2.30377
0.021874
4.29184
1.9329
0.0363689
0.347211
0.0228369
0.0222722
3.73556
1.94308
0.0465392
0.0239713
0.022076
0.0221276
3.23162
5.80277
0.0368133
0.0220096
6.79673
0.0634977
2.24714
0.0825085
2.39223
2.33383
3.34538
0.0236705
5.00986
4.659
4.39889
2.00624
2.1308
0.0381179
0.0222636
0.0378132
1.67601
0.0235053
0.027914
0.0221965
5.34133
2.30087
0.297255
1.88906
0.877514
3.41715
0.882849
0.0219542
1.81331
3.09056
0.0616691
0.0222349
0.0218334
0.155179
2.12464
0.0220209
0.533215
0.025463
8.99325
0.161604
0.0281745
0.0222311
2.08345
2.42504
0.0692903
0.042233
0.033061
2.375
2.66959
0.022263
0.0364064
3.019
0.0255584
0.0855045
1.93367
0.0914772
0.0220762
0.624484
0.0221396
1.91381
0.0220361
0.0270564
0.18348
0.0596315
2.05322
0.0220896
0.0250141
9.077
6.52592
0.0221895
0.0487698
0.0261354
2.84032
0.85998
2.07081
1.82954
0.108196
0.0222884
2.98355
3.89646
0.0817829
2.38022
4.8417
4.49585
0.10076
0.0494269
1.95187
0.0288974
0.108543
2.04259
0.0447741
5.99114
0.025407
0.0217817
0.0243478
1.97558
4.89067
0.0759511
10.1941
0.107102
6.484
2.12624
0.193067
0.0222865
2.04063
0.0253777
0.0782906
0.0219558
0.55124
0.0225561
0.0568998
1.21371
1.81706
0.0221879
0.0324515
9.01336
2.76769
0.0760814
2.55105
5.6883
0.0239144
0.0222857
0.0222845
5.22589
0.138522
0.0326502
0.0222417
2.87474
0.022972
0.0236284
0.0237535
0.568443
4.04799
0.0688227
2.06566
4.89113
0.0839778
4.11298
0.0253317
0.0257969
0.0396709
0.643157
2.02959
0.0231824
0.0221803
0.086131
0.0225792
0.0221411
0.0777679
0.0220309
0.0219106
4.93768
5.42652
0.0229596
5.48727
0.0990773
0.0222293
2.17396
0.0250638
1.85127
2.71665
0.0235583
0.0586247
0.0253979
0.120119
0.0637721
4.0367
0.0236613
0.0235124
1.91249
2.63396
2.8685
5.96673
0.0388339
0.0221441
0.022251
0.037343
1.99812
2.3535
1.99169
0.134937
0.208851
0.179726
0.0220907
0.0222351
0.044683
0.0228514
5.54884
0.0218461
4.59281
0.203252
1.98391
0.0254811
0.0448352
0.0220671
14.1287
0.0217511
3.6085
0.0588801
0.0220939
6.68607
0.0220232
0.025117
0.0232907
0.0323314
0.122871
0.0234383
4.57261
0.0220392
0.113471
0.075239
0.106095
0.0220206
4.55691
0.0297687
2.5586
2.08276
0.0615761
3.84339
2.3065
14.8938
0.0237124
0.0221785
4.27763
0.0226014
0.0306282
3.54777
5.67928
0.181979
1.84934
0.0217596
0.130115
0.0285833
0.105333
0.153055
0.0221946
0.0219377
0.196424
0.502497
0.023199
0.171492
1.94143
0.0220453
0.02237
2.41589
0.151271
1.91087
0.02174
0.071294
0.0220684
0.0217715
1.93143
0.0221836
1.84092
0.0427936
4.1388
0.0221659
0.0222287
0.0579861
0.0340252
2.2143
3.04646
4.15197
0.0246308
0.0475388
0.0222734
0.0346981
0.703023
6.73347
2.00155
0.0781046
0.164534
13.8733
0.0388585
0.0306633
0.091932
1.97282
0.022805
0.0307522
3.52885
4.77289
0.216216
8.47982
0.021916
0.0268314
1.98441
0.0238226
5.63429
0.0223459
0.116467
0.0222312
0.0461054
0.0224359
0.829833
2.04788
0.0221159
13.6531
0.0221078
0.0222819
0.909079
2.09849
0.0384518
1.98252
3.17188
6.64839
3.32614
0.0223948
0.0233158
0.0225463
0.0228485
0.0589297
0.0228553
7.59394
3.84242
0.0404708
0.0316504
0.022598
0.0225968
2.08235
0.0220233
0.0629695
0.070296
0.0329792
4.05766
0.117529
0.140382
2.56
0.0314885
11.4323
0.0447696
0.0217702
0.0220714
0.0224951
0.0397984
0.02419
0.0483598
0.0248012
0.0267146
4.60164
0.0217563
0.0250458
0.0874623
0.0243159
0.0308892
0.0872854
0.0232019
9.15983
0.0218692
0.0222523
3.82236
2.44763
2.03672
0.537162
0.0221039
1.93955
0.0343183
0.0220849
17.6699
0.0220689
0.0220655
0.0591467
0.0220833
4.05115
0.0255573
2.48085
0.0251112
3.73611
0.313848
0.0840787
0.0310094
5.26396
5.34379
2.01106
0.0222895
3.70611
0.034977
2.26946
0.0222766
1.96033
3.26868
0.431888
6.71544
0.0220892
15.8864
0.0310819
0.0601408
0.656445
1.93693
0.0236882
0.022503
0.695172
4.58672
11.4205
0.0219546
0.443831
2.96421
2.72879
3.61971
0.0248628
1.14796
3.49931
1.90367
0.0495115
8.76591
0.0333893
0.0219387
0.0306635
0.0220988
0.0341653
0.205444
4.07596
0.0221069
0.0242206
0.0380072
4.76158
0.0494231
0.0263992
0.252868
1.88386
6.45302
0.024097
2.61662
0.0222655
0.027876
0.0390474
0.129549
3.80798
0.0219614
1.92113
0.184987
2.19416
0.180238
0.0592401
2.10817
0.0373351
2.6142
0.0222074
0.0250706
0.0353826
0.0857747
0.0267023
0.0224487
0.033691
0.0496839
7.81596
0.0224704
0.0227545
3.25374
2.72891
3.48889
0.0534582
0.0248669
1.97298
0.0255682
0.0219355
5.98643
0.0281708
1.92691
2
1.95988
5.63456
2.24129
0.160709
15.7023
2.74528
0.0310512
0.0221524
0.0220254
0.110431
3.5388
0.126375
4.59392
0.0324109
2.91209
0.260304
0.0307462
17.118
0.0402126
2.3415
0.0286502
0.0253252
0.0304433
0.0222435
0.180396
0.0271759
0.241203
0.0392034
0.0222506
0.0225032
5.61511
0.0220829
0.0226004
0.0219263
0.171504
0.029873
0.0384408
0.0447504
3.98757
0.0232926
0.0218497
0.0223841
0.201265
0.0234592
9.09935
0.0221159
2.35877
0.0219513
1.88601
5.9827
0.0222593
28.1879
2.78286
4.04516
1.91521
0.0348171
0.134197
3.51805
4.04144
0.0217616
0.0476398
0.252347
0.0233542
9.27398
0.024738
5.44928
1.94796
4.08703
0.0396915
4.39492
2.95174
0.0223826
9.52972
0.0220866
0.0237525
1.89414
3.00048
0.0220922
0.0624941
3.30504
0.0252984
2.11804
0.0220859
0.187354
0.0221581
6.12546
4.70782
2.19703
0.0224234
0.0222676
3.43332
0.050445
3.34278
0.0319004
0.0220429
0.209207
2.36306
2.34368
2.82505
0.0219474
3.55437
0.0227789
0.0224515
3.4555
5.78462
1.9938
2.06923
5.21717
0.173094
16.9532
4.42854
8.36141
0.193528
4.14819
0.0241981
0.0218902
0.0220306
0.0846605
14.0929
3.62001
0.022266
2.53997
3.81882
0.0221461
4.68509
0.0327792
0.422069
0.075722
0.154666
3.68361
6.42281
0.0220449
3.09983
0.0222115
0.023548
0.0358932
0.0224485
0.449928
0.041257
0.0219506
4.00857
0.0217556
10.7927
0.0238038
1.93489
0.163527
0.0220474
2.14691
3.51755
4.19096
3.88937
1.94439
0.220029
3.31715
4.62281
0.0641211
0.0272295
3.89006
0.0270815
5.04754
0.0710786
0.0239517
3.45075
0.0388452
1.95719
0.022241
0.0350076
3.09075
2.62223
2.01062
0.0425375
1.98798
0.116
0.0555894
2.35099
1.99641
0.125841
0.0960449
0.0346276
0.0220881
0.0312485
3.14108
2.27662
0.0220065
2.29591
2.05222
0.0220581
0.0463717
3.33104
0.0220264
3.95822
3.56876
0.0218835
0.0233132
3.45382
0.0307641
0.645842
1.76923
0.0219194
4.18461
0.272225
0.022109
0.0222864
0.0248283
0.0371071
0.0221025
6.1815
3.4152
0.0270274
0.0691954
1.92359
0.0237832
0.0221097
0.051009
0.0221044
0.0308202
4.05382
0.0277827
0.0786523
2.22141
0.0221104
2.50287
1.91882
0.0561754
0.0221995
0.0478422
5.09665
0.0215985
0.037429
4.65073
1.96515
0.086383
5.80151
2.32533
3.00266
0.0740886
4.82115
0.092364
1.90181
0.382487
0.0226649
3.32494
0.0503576
14.9526
0.0827967
5.3005
0.0262324
4.41286
0.211768
0.0222382
0.0283891
0.0222292
0.566665
0.0388222
2.0822
11.4264
3.50786
0.0220854
5.05983
6.08015
0.0220656
2.07746
0.0578858
2.96026
5.43068
0.0484661
1.87818
2.53293
0.0223807
4.29654
0.0223148
2.0045
0.0227816
0.340496
5.66201
0.0239765
2.18588
0.0288583
0.052513
0.148229
0.0500694
0.526091
5.80137
0.0704967
0.088934
0.127054
0.0586012
7.55997
0.0342824
3.89975
2.44357
0.0255566
3.01632
0.187868
1.96316
0.022152
0.025589
8.82953
0.125692
0.0271072
1.73132
6.70701
0.138672
3.14298
0.04713
5.34333
0.0222688
1.16228
1.93837
0.0223624
0.288009
0.0221832
1.85885
0.109217
0.0219124
8.89076
0.0575303
0.021709
0.165107
9.9504
0.0553823
0.0300653
0.173233
1.73283
0.0306555
0.156575
0.0606026
0.0216444
0.0221146
0.0223442
4.75964
0.0224722
1.94566
0.022676
0.84823
0.0309449
2.29694
0.332327
0.0256442
0.022106
0.0391141
0.0488478
3.06489
0.0224808
2.00122
0.0869514
0.0219618
2.31578
5.93696
3.4796
6.15725
0.0222519
3.14836
2.09752
0.266242
5.05058
3.67165
0.0222138
0.127044
0.0232891
0.0678284
0.0810237
0.0217732
0.0619234
0.0249816
0.0220955
1.70655
6.69268
2.19505
0.0877317
2.43352
10.1324
0.0219641
0.0277432
2.36386
0.0613651
0.0235882
2.03635
2.07379
5.60924
1.91332
2.49254
0.0226303
0.318447
0.0230954
7.18391
0.0219538
0.110575
0.423463
0.226394
0.031831
0.0220771
1.99139
0.0313727
1.68415
0.0346608
8.65208
1.69451
5.71988
1.87708
0.0761963
0.147431
0.0270616
1.95136
1.78007
0.185256
2.41059
0.0219227
0.136831
0.0220304
0.294192
0.0242585
5.0607
0.021949
3.25747
9.96942
1.04181
1.9419
0.0246362
0.0220908
11.9628
0.0221817
3.13116
0.0236068
3.31108
0.0220879
3.57487
38.9513
0.090389
0.0299115
0.282947
2.36433
0.0219453
0.0774224
0.0229442
1.89952
0.0243298
0.30062
2.33402
1.99743
1.86292
1.97499
0.0770146
0.0255383
5.12534
0.0674584
0.0513448
0.233176
0.0221755
0.0393742
0.0216491
0.109288
0.0221766
5.07179
6.64291
0.0928791
0.0254986
0.0219023
13.7074
1.953
3.03315
0.0219713
0.0222442
2.96241
0.125856
0.0216959
0.494027
0.0512356
0.0232579
0.0221015
0.14146
0.0217778
3.02786
0.143437
0.0338737
0.0220832
0.351651
2.84775
4.34746
20.6815
0.0218192
0.0218861
0.69623
0.0403299
10.0459
0.0427497
0.0220315
0.023322
0.277639
0.0221531
0.0414496
0.0219245
0.022119
0.0222656
4.27969
1.83993
14.677
8.82704
2.05463
8.96565
0.0887712
0.066574
0.022252
0.110587
0.0571305
0.0507256
0.0413153
2.51361
0.370235
0.0311379
0.0251736
8.66386
0.196607
0.0721914
3.77656
2.949
1.87948
0.022064
0.0236584
0.029396
0.022152
2.09293
7.60771
1.98174
0.324457
0.0468094
2.07878
4.61047
0.0259841
0.3163
0.0292334
0.0219337
0.173722
0.0258656
0.0278884
2.25088
5.21232
10.5162
8.56618
1.98279
0.0221272
0.0222003
4.69439
0.0846787
0.0221483
3.13555
5.25721
0.0220237
0.024305
0.0341979
0.0221324
0.508516
0.0270856
0.0321485
0.118305
0.0596381
0.103592
0.0461983
0.0220817
0.934338
0.843997
0.0220037
0.0636782
0.19994
0.468238
2.20558
0.0221894
3.12701
0.0667082
0.0233526
1.72084
0.0222513
0.0228286
0.0221638
3.45871
5.40958
4.76986
1.96898
5.13373
0.680541
0.395833
0.0413351
0.0220396
0.321594
0.0260685
0.022734
3.28048
0.0221276
8.91711
0.0635256
0.0221014
0.0243041
0.078264
1.93033
0.114126
0.0217262
0.0220941
3.46454
0.0593912
0.0246501
0.0333834
2.73099
0.0253131
5.27492
2.0218
0.0217669
3.34315
0.0230273
0.0219121
0.0298187
0.0250653
0.023363
2.06766
2.09919
2.02038
3.5471
0.0360877
2.21865
0.0578543
1.88718
7.24122
0.0300873
34.5325
0.0355636
0.0832997
0.0220858
0.0246893
0.0219197
1.87487
1.98573
2.00511
8.57097
0.0218621
0.115634
7.64116
4.51405
4.53527
1.68158
0.0219966
0.0220181
0.118231
0.0398187
0.0221029
0.0221693
9.74084
0.022129
0.0561814
4.5199
0.0291101
0.0222437
22.2102
0.0620943
2.24491
0.0219925
0.702718
8.76683
1.67134
21.7972
0.0244464
1.88905
0.128194
0.0826552
0.0219192
2.08068
0.0219968
0.022273
5.3724
0.0222573
4.89633
0.0219534
3.73499
0.065128
0.324943
0.022154
2.56216
0.0218095
0.0222514
0.0307271
0.0357457
0.0394587
9.87476
0.278933
1.99643
0.357202
0.0853951
0.0386754
0.0304138
3.91424
0.0264237
0.0369485
5.51954
0.0327076
4.50043
5.30486
10.151
0.0748153
0.0225314
1.9293
6.02385
0.021859
0.0218284
2.03785
0.579346
1.78621
0.0390567
0.025766
0.0219199
1.99134
2.88014
0.02302
4.32199
8.22756
0.0221483
0.0221997
0.022849
0.0360371
0.0243855
0.0230325
1.79095
1.91311
4.01008
0.0220372
0.0283006
0.298493
1.28157
0.0221331
2.10711
0.0317862
0.0220612
0.0349292
0.0217171
0.028278
0.342712
0.0221802
1.69181
4.66387
0.0218649
0.100434
3.60877
0.0521985
0.0320803
9.81344
0.0331746
0.0322743
0.0404689
0.0221577
1.90753
4.17907
0.053888
0.0222773
2.66587
3.53829
0.0361496
0.0506795
2.52441
8.19746
2.37708
2.05344
3.4878
0.0310107
0.0236815
0.0219681
1.54868
0.0270282
1.89821
1.91719
0.399209
0.0221197
7.06955
2.24157
0.0221006
0.0470191
0.0263006
4.10704
0.0220084
2.6924
0.0292645
2.15312
0.0219393
4.18376
6.79313
10.2872
0.0220776
3.55041
0.0220813
0.0319777
2.35712
0.0219377
0.0222272
0.027149
0.0221249
1.14342
0.0218289
3.14957
0.0221189
2.10986
6.39752
0.0473273
0.152636
0.0294295
0.0463045
1.94383
12.9734
2.56548
2.0423
3.078
0.608279
25.5015
1.89149
0.0220191
0.0251568
0.021709
0.0219931
0.0477106
4.28815
5.59088
0.0253894
0.022104
0.0602069
2.08571
0.0282511
0.0228071
2.07423
0.0320436
0.201454
0.022184
0.0435261
0.0222863
13.6652
0.0223085
0.15952
0.152197
0.0221141
0.0219257
0.02351
0.0378789
0.0268512
2.00714
7.33286
0.0221571
2.04063
5.95449
0.0221062
0.042386
2.87206
0.114647
2.99127
0.0220175
0.407591
0.0451536
1.89017
0.0218929
0.310559
0.0675963
0.0647302
0.0222348
4.0262
15.6647
2.02697
0.0221779
6.69809
3.33819
6.57638
0.0221151
0.0233518
6.18714
2.08592
0.0279947
20.9045
0.0244936
2.2014
6.00081
2.01848
0.0275442
0.0248871
2.00099
6.22
2.66254
0.0257895
0.0220511
0.0289252
0.0220622
0.0230398
0.111399
0.0276252
0.021878
3.28634
2.35562
3.05492
0.0225919
0.022447
3.20838
5.79016
0.0273535
2.58908
2.19953
0.0217668
2.41964
9.96416
2.68801
1.95103
0.0612649
2.15984
0.081412
0.078515
0.0603309
0.0254531
2.02448
1.97352
10.257
0.158615
0.0221898
1.95965
0.0546372
0.0221954
1.51828
0.022586
0.186382
0.0268417
0.0326618
2.05326
0.0221335
0.121633
0.0223323
1.96138
0.105817
0.0228977
0.035274
0.0556156
0.0220765
5.12288
0.0289382
0.0220071
0.0233004
3.52832
0.211046
5.04253
3.98006
0.022278
0.0219908
0.0220002
0.0965278
0.0262975
1.93533
3.83745
0.0220027
0.0694522
0.0399495
0.0380452
0.0220712
0.0220884
2.68736
0.0409913
0.0477395
12.7197
0.0221278
0.02955
17.7733
0.0268137
5.25909
2.9214
2.33096
9.69212
0.28294
6.99022
5.66223
0.021822
3.30645
0.0360162
0.0221181
0.0327482
2.21204
0.0310094
0.0217919
11.5954
2.986
4.72912
0.0337697
0.028361
0.0250177
0.0218929
0.174015
0.0222681
0.024098
2.1924
1.94635
3.69196
2.41668
2.34827
0.204687
0.0225687
0.0590247
5.99803
0.0220205
0.0366078
3.46315
0.030612
0.0306544
0.0223044
0.0221075
0.0221103
0.0230311
5.05835
4.25416
0.0221797
0.10448
0.125312
1.87416
0.0317883
0.0231141
0.0296904
0.0221956
5.20508
0.0235559
0.0220033
0.0715317
2.11627
0.0221549
0.0282396
3.79013
0.0353161
0.0471515
0.0441921
0.0219452
0.0225677
0.0216364
0.0221969
0.025956
0.0384338
0.10009
0.0220711
4.8808
0.04321
1.86503
0.0367287
0.0255265
0.0235707
0.0528321
0.0264862
0.355242
3.88441
0.0223095
3.63028
0.0284011
4.83316
0.0231362
0.0264056
0.0220374
2.05762
3.60315
2.57621
3.1997
0.0271866
0.0233206
5.69834
0.199776
0.112261
0.0303268
0.0256769
0.128902
0.0492664
0.0297964
0.450629
4.171
0.0220431
4.56938
4.42378
1.96465
0.0222666
4.95386
2.90072
0.02193
0.0253101
0.0220229
0.035053
4.31035
0.0251818
0.301628
3.57313
2.32643
3.29466
0.1018
0.0411247
0.322859
3.14195
0.0949631
0.179615
0.0218212
0.41509
0.0665555
3.94607
1.12958
0.0237072
0.0218446
0.0221728
2.98878
0.0229599
0.0511113
6.86438
0.0224463
2.88822
0.0289984
0.0233277
0.103789
0.0324177
2.16239
0.0221518
12.7305
0.0244963
2.02052
0.25823
4.28988
0.032584
0.0216399
0.0232521
0.0219826
0.0218626
0.596976
0.287126
5.92728
3.28419
0.919033
0.421577
0.0560553
0.0217986
0.0220856
0.0231549
0.0257436
3.11242
0.035142
2.03155
0.0223325
11.6039
2.11168
0.0423023
0.0297487
0.123826
5.33619
0.0308569
0.0231588
0.040806
14.0989
2.81295
2.93624
0.601427
0.0218791
1.57336
0.0217484
1.95057
2.20006
0.023233
0.0359856
0.0217231
4.60324
3.56458
0.031813
3.51384
4.42424
0.121111
1.97551
0.0244207
1.73187
0.434421
9.85434
0.0801994
11.3753
0.117464
2.23732
0.0331581
0.0333098
9.52863
1.62287
3.41112
0.0266605
4.57961
3.34692
0.0243737
0.0221215
0.036032
0.0222186
0.022939
0.0220601
0.0305245
0.0282614
2.83097
3.40715
0.0220717
4.77457
3.66317
5.31714
0.0248139
0.0235959
0.0281902
3.08166
2.06104
2.00521
2.40353
0.0892028
0.241994
1.52027
0.0657401
0.0223195
0.0222456
1.8923
0.0492201
5.31373
0.103853
17.5937
1.21143
2.37111
2.61559
0.035484
0.134162
2.56927
2.21661
2.36308
2.73523
0.0238266
2.91458
1.98273
1.98587
0.354365
2.51271
0.134267
0.0469372
0.621627
3.99766
0.0219889
0.0265577
1.59219
0.16293
0.0248225
5.43814
15.0227
4.39925
9.86954
1.79604
3.78113
4.30764
0.0221738
2.32197
4.59491
4.20186
2.81492
2.39155
0.205816
3.57706
3.93511
0.031816
0.0354318
0.0226112
0.234707
1.00844
3.04322
1.93537
3.96867
0.0974303
2.6976
0.23452
0.0227186
2.73791
0.0255982
2.73636
0.0222086
0.7556
2.0564
0.0225316
0.0233169
0.0269569
0.0220579
0.0511581
0.0323924
0.64864
0.0239323
0.16832
1.89357
0.0333021
5.36143
0.0260003
5.15384
0.249028
0.0339911
2.76073
0.0271717
0.0650261
5.85916
2.98393
2.90576
1.35984
0.0637658
0.0374732
0.471209
0.378885
2.75428
0.0233929
2.09568
0.0221082
2.0231
3.30499
0.0237661
0.27788
0.0266735
0.0219289
2.63675
0.0221009
0.0474831
2.71793
0.0283837
3.129
0.0452495
1.85542
6.47042
0.0452825
1.89021
0.0222131
0.210899
0.0505815
2.98527
0.0220998
5.46139
0.0320297
0.0217468
0.187679
0.0348496
0.0223497
0.0219838
0.0653935
8.82551
0.0279297
25.8101
3.99768
0.142907
7.59327
3.27477
0.104935
0.0273164
0.564954
1.87691
9.10074
0.0295315
0.0221192
0.0256505
0.0224197
0.0290201
3.91188
3.4902
0.113262
6.14443
0.115476
2.01438
0.044425
0.08995
0.249844
0.0263338
3.15694
0.072025
3.50871
1.4065
40.9668
0.0238164
1.82209
0.030847
0.0218466
3.18061
0.0221037
0.0539509
0.0219676
0.0240382
1.84718
0.0220366
0.0718366
0.0219633
1.81489
0.0230714
0.0272182
0.0260449
0.134735
0.366078
0.101912
0.0569378
0.323083
0.0356628
0.0768104
0.025834
0.0604599
1.00631
0.0292093
0.0876692
0.197827
0.0286883
4.26972
3.48653
0.0221785
0.19996
1.83874
13.5993
0.650006
0.157004
0.0957845
0.0403408
0.0221636
0.0231589
2.15564
2.04007
2.15832
0.028945
0.0413023
1.94778
0.0431218
1.86314
0.022987
1.8337
0.0412334
1.90969
0.0269822
1.18984
2.23435
0.0220806
0.0362812
0.0222424
0.0234785
0.241297
2.19188
1.8124
0.0744207
0.0221187
3.43961
2.24858
0.0232293
2.14539
1.94689
0.104113
0.0275727
5.01773
0.107855
0.0218283
1.77184
8.67971
6.96796
3.73134
5.51508
0.228327
2.7605
0.0410731
0.0221725
0.0313921
0.0365462
0.0310739
1.96063
4.09154
0.0230322
0.720988
2.99398
1.90626
1.88307
4.31232
1.98884
0.0250115
2.60544
2.30396
0.0241619
0.0728353
0.042584
1.89121
2.79058
0.0219706
0.0549025
2.81424
0.022776
0.022457
0.0225364
0.0219483
2.72485
0.0247918
2.66014
0.0222719
2.67818
0.0587287
0.734774
2.96109
2.04017
0.0220263
0.176811
3.06945
0.021882
2.67325
1.91458
2.142
0.49226
30.9191
0.100015
0.0260481
0.0222465
0.02218
2.17313
0.275859
1.89203
0.0398352
0.205069
0.0225216
2.57681
0.0355177
32.0548
3.05193
0.0421475
3.06433
0.0220514
0.0428931
0.0391002
0.0267865
0.0229722
0.0219579
0.023979
0.0723983
0.0557245
1.4027
0.0352195
0.0221265
0.291016
0.233148
0.0220306
0.0432193
0.022399
9.38485
12.4385
0.0220902
0.0631244
0.865133
0.0538418
0.0218041
10.79
2.81392
1.93289
0.0331578
0.0776635
0.0234538
4.10876
0.181001
0.036562
2.719
0.0226123
0.035341
0.0284593
3.65911
0.0217405
0.0221209
2.1177
3.25758
2.10132
0.0230827
2.94619
0.0219309
0.0219339
8.89398
0.0250945
2.07654
3.59224
0.0227664
0.0235565
0.0232987
2.21013
0.491485
5.34658
0.024207
0.335914
0.0229639
4.43548
0.0219533
0.102388
3.56733
0.39442
0.0221428
5.45219
1.59271
2.55952
0.424367
0.0219886
0.0235324
0.255452
2.29953
0.175695
0.0219878
0.077347
4.41838
0.0290071
0.0219397
2.49403
3.25031
0.0455276
0.379897
5.8643
0.0220785
0.0221695
0.915423
0.0220525
0.0221548
1.98041
0.0662368
2.02396
0.022224
0.329642
0.0220119
0.0220141
0.044569
0.0900658
1.95107
7.5722
3.04023
0.0262891
0.0785952
0.0221772
0.0243783
2.4773
1.80204
0.0934929
8.55931
3.56824
0.0222561
0.0304998
7.46442
0.0828343
0.0588157
0.0221688
3.19761
0.610627
0.273565
0.0292791
0.0368101
0.0337481
3.31123
0.027655
0.0296965
0.101076
0.0220261
0.0234474
0.0302869
1.84462
2.73074
0.384829
0.0222658
0.0269531
1.89072
0.297618
0.0349888
0.059208
0.0220973
4.46708
0.0219672
0.0614426
0.0220512
0.24995
0.0395379
0.0234298
0.0390705
0.125574
0.0548913
0.0220716
0.0321611
0.0236958
0.027232
2.24306
3.52846
4.20071
0.0218661
0.023603
0.0413894
0.0337393
0.33261
0.0220449
0.0218258
0.598653
2.69221
0.0221211
0.0243882
11.8925
0.0267328
0.105389
2.6742
0.0220852
0.0577361
1.73464
2.77889
0.0521044
0.0313878
1.86929
0.244305
0.0243452
1.80592
24.7237
0.0245255
2.77389
0.021898
0.0597188
3.15833
2.53144
0.0525598
0.0219655
0.0221277
3.81875
0.327152
3.46825
0.0235293
0.0539348
0.0296312
2.55854
1.90332
0.0222778
1.85934
0.0221684
0.0221653
0.0219007
0.267847
3.44857
0.0222231
0.0442498
0.0391294
1.81
0.323112
0.0221299
0.0223618
1.86131
3.13705
0.0540028
0.0760819
3.48264
0.0222725
2.41108
0.0592014
19.5023
0.0666224
4.13783
4.55795
1.91426
0.331555
0.0221029
0.0593721
2.05117
0.793623
1.9078
0.102062
1.98361
0.0247637
4.75282
21.2111
0.0233009
1.49049
0.0218431
0.816836
0.0218113
0.0232772
0.355092
0.0877127
0.0235948
0.0223251
0.0621246
0.0234637
0.0221734
0.0789472
0.0230011
0.0521278
9.12092
0.0223381
1.87695
24.9315
0.0228034
1.08994
0.0221225
1.75609
0.0217811
0.0262362
0.0500193
3.96003
0.0274253
1.78532
0.122587
0.0222843
0.0346472
26.6038
2.89065
0.0409222
1.6814
6.307
9.58835
0.0419446
0.0709953
2.2465
0.0220843
0.464771
3.90747
0.0220946
0.0223512
0.111812
0.250036
0.0220825
0.0222476
3.14128
4.44267
0.0304325
0.056706
1.80062
0.0311896
6.20499
5.32581
2.95093
0.022242
0.0222877
1.97855
1.83114
2.16153
0.0246068
0.0222
27.6514
2.92892
2.58373
2.20373
0.0250155
0.027941
1.9985
0.0260358
0.021841
3.24654
0.021908
0.0221666
2.90391
0.273076
2.00248
0.0239773
0.102717
10.4653
3.53941
0.0307905
0.0387413
8.50343
0.026237
0.0234244
0.0625867
0.347391
1.89288
0.0221866
0.0220919
2.08652
0.182505
14.1312
3.6379
1.93278
0.055138
0.0241444
3.2896
2.14213
0.0221711
1.52013
0.0743869
4.50404
0.0220136
0.0344171
0.0311185
0.0460038
0.163254
0.027098
0.0648784
0.0719581
0.0220945
0.0223213
0.0365425
0.057074
0.0241019
0.0303716
0.0262543
1.37993
0.351033
2.68465
17.3179
1.73888
18.8089
1.88571
0.0221222
0.038554
0.0255321
2.51942
3.37745
0.207146
11.2371
0.0219556
3.26339
0.0219566
1.99285
0.0221291
0.0526448
0.105294
0.0219039
0.02206
0.0222725
0.0362384
0.462836
0.0221124
18.8048
2.84719
0.0221012
0.0454992
1.69555
0.0220094
0.0317673
2.93894
0.0740409
0.114158
0.0357849
0.0568017
0.022138
0.032599
1.80136
0.0220084
2.33897
0.0222737
0.0235685
0.0221852
1.82976
0.0230563
3.92135
0.0221356
0.0245148
2.76308
0.736183
1.92753
1.75948
0.0278138
4.21463
1.83112
6.19591
0.0221095
0.174734
0.124851
0.323232
0.0236782
8.67826
0.0220907
0.0220336
0.0221783
0.0386986
2.61176
9.59141
4.33859
0.0233576
0.0922805
1.8521
0.0262712
2.26412
1.4582
9.08862
0.107894
0.0275498
3.38566
0.0932669
2.40301
0.0377655
0.0221233
0.0224141
0.633956
0.0532382
0.0545625
0.0219418
2.80618
0.0239231
0.0214876
0.0217407
1.78686
1.98079
0.691148
0.0220877
0.227764
0.0580926
1.89283
0.210338
0.535372
2.31936
0.346842
0.0546672
0.105811
0.0221387
0.159871
0.0217312
0.0220115
1.21365
0.216944
1.23537
2.57817
16.3894
5.71921
0.0530597
0.0221072
5.51085
4.90721
1.87328
0.0218656
0.0253326
0.0220946
0.0436895
0.82735
0.115399
0.0230991
0.0295969
0.0220949
2.00343
5.21959
0.340815
1.89508
0.291521
0.0341243
0.0243128
0.576385
3.87924
3.2278
0.0264373
0.0373336
2.19316
0.0277502
5.8101
2.0861
0.0241441
29.2191
0.0221066
0.374071
0.0222669
0.0218961
11.8653
0.0235313
0.0258253
0.0221378
0.021808
0.217528
0.0221724
0.0885069
1.93437
5.29254
3.90593
0.194527
2.76231
0.0250996
1.80112
0.0232848
1.92006
0.0227148
1.84486
21.3356
0.0366029
3.52715
0.0503617
2.1946
0.0253039
0.024414
2.99874
3.13768
2.30539
0.0255831
0.119932
0.0269274
0.0220913
0.0222069
0.0237874
0.0238459
2.85047
0.0494402
0.0330442
0.417693
2.03746
0.121138
0.118197
0.0250831
0.991768
0.0270058
0.0610701
0.047877
0.112961
0.0279138
5.84612
0.0297784
0.0221275
12.2567
4.17245
0.0220386
0.119378
3.13471
5.26969
0.0240598
0.0320711
2.76073
0.0339359
3.75042
0.0221329
0.0767246
0.0220843
1.82948
3.00153
0.084857
0.0303419
13.4123
1.82526
4.94157
5.04514
0.0241356
0.0220818
0.0334629
0.437511
0.021836
0.0320027
23.5439
0.0298745
0.0586988
19.9018
15.1987
1.96759
0.0225695
0.0508819
0.0221838
14.1054
2.62343
5.07194
2.36636
0.0317496
0.0218959
0.0221567
0.0295641
2.87743
0.0845156
0.0266179
0.031107
0.0924041
0.0220277
18.1658
0.0232372
0.693343
0.0220067
0.0236918
1.85389
4.75909
0.0572387
0.03089
0.0221003
5.56962
0.6111
1.54008
1.42491
3.53572
0.0221675
5.34986
13.2597
0.0339544
0.049226
0.149787
0.0298808
0.022321
0.028355
6.14124
0.0352481
0.0252293
0.0221806
0.0273624
2.76936
0.0563437
0.0217149
0.313619
2.4124
0.0971409
0.0385546
1.85984
0.0374626
3.58977
0.022903
0.0222861
0.532826
0.0323211
0.994419
3.20544
0.0220043
0.128472
2.81089
0.210846
0.0292909
0.0222837
0.0233703
0.0241376
4.1787
0.0223053
0.024635
0.142907
0.334877
0.022126
10.4034
0.0291359
0.0218574
0.0309679
0.0959468
0.06025
0.0256102
0.0246134
4.38018
11.3876
2.3961
0.0230036
0.258077
0.0224063
0.0220423
0.0304014
0.0303773
0.0284166
0.0261619
1.52829
0.0227673
0.0658104
0.0221271
0.0226639
0.0246548
0.0232309
0.0222859
0.0319539
9.04534
0.0229864
0.0226488
0.0222866
3.09722
5.95126
0.0232462
0.0231698
0.420234
0.0269561
0.021757
0.0335542
2.98756
0.0221826
3.20092
0.0230185
0.226161
0.0698717
7.82109
2.87248
4.95657
0.0220239
7.14423
5.09211
0.0226307
5.27411
9.4356
0.0237701
0.027439
0.0579496
0.0271492
0.123026
0.353766
1.89532
0.0219893
5.67193
0.458938
0.280521
9.45577
1.89034
1.07564
0.0341338
0.022509
0.0256727
6.20642
0.486543
0.0228708
0.0218944
11.7897
0.0298569
0.0217635
0.026011
0.238409
0.0220057
0.0233748
0.0312611
3.24075
2.23
0.0292783
0.322841
0.0473088
0.0288507
0.0246774
0.180146
0.0747746
0.0250816
0.0229726
0.100134
0.120242
0.0318693
2.8556
0.0246534
0.0350356
5.25754
2.1274
0.0307375
0.0238036
0.0219978
0.222076
0.0514393
0.119869
0.560838
0.186218
0.462662
0.110492
3.11116
0.0714737
3.62118
0.0240707
0.0289403
0.024931
0.023564
0.0220012
0.0612029
0.0269231
0.0220014
0.5619
0.0236646
2.76379
0.179515
0.0288523
2.25137
1.42178
3.68732
0.0256138
0.0397723
5.11859
0.0256025
0.0244517
1.50494
4.33149
0.0248315
0.222494
3.95142
0.0250008
0.054838
0.0301539
0.0361215
0.0497832
1.97214
0.0229395
0.255768
0.0970134
2.04221
0.181946
0.0990588
0.0228634
7.10371
0.0219982
0.257849
0.0220805
0.0317938
0.0503583
1.02212
0.022533
0.0409919
1.84261
0.0309164
3.05889
0.0623025
2.01697
2.54765
2.08697
0.0236479
0.0224653
4.84221
0.0221699
2.21963
0.022268
2.26513
2.58195
2.65524
2.42465
1.71687
0.0229883
9.42079
0.0318875
0.0300809
3.28775
3.99318
1.99949
0.0318439
20.2003
0.0429605
0.0231746
2.09727
0.0228417
2.95611
0.523149
5.8459
0.0219585
3.30363
0.0561118
0.0221522
0.0378053
0.0255679
0.0573752
0.0220888
0.0538281
0.0219911
2.28877
2.00344