/*--------------------------------*- C++ -*----------------------------------*\
| =========                 |                                                 |
| \\      /  F ield         | OpenFOAM: The Open Source CFD Toolbox           |
|  \\    /   O peration     | Version:  v2012                                 |
|   \\  /    A nd           | Website:  www.openfoam.com                      |
|    \\/     M anipulation  |                                                 |
\*---------------------------------------------------------------------------*/
FoamFile
{
    version     2.0;
    format      ascii;
    class       volScalarField;
    location    "50";
    object      nut;
}
// * * * * * * * * * * * * * * * * * * * * * * * * * * * * * * * * * * * * * //

dimensions      [0 2 -1 0 0 0 0];


internalField   nonuniform List<scalar> 
13308
(
0.000457301
0.00046504
0.000513437
0.00397967
0.00290201
0.000780089
0.00125681
0.00051302
0.00227246
0.00672323
0.000527188
0.000467641
0.000376934
0.00161642
0.00220187
0.0022319
0.00176766
0.00510947
0.000377457
0.00043173
0.00674335
0.00672335
0.00672219
0.00018728
0.000484446
0.00234509
0.000388977
0.00672324
0.00035053
0.006717
0.000292947
9.90664e-05
0.000361547
0.000760693
0.000318154
0.00312674
0.00672285
0.00395021
0.00269974
0.00098662
0.00114851
0.00140183
0.000745443
0.00119569
4.22353e-05
0.000366126
0.00274133
0.00672797
0.00090035
0.00672706
0.000126092
0.000338263
0.00671553
4.52401e-05
0.000558514
0.00178327
0.000816007
0.00672542
0.00672309
0.000640464
0.00218826
0.00672537
0.000884815
0.00138785
0.00261052
0.00127225
0.000485255
0.000704005
0.000666243
0.00507679
0.00672419
0.000892865
0.00597256
0.00088063
0.0013755
0.0067286
0.000749597
0.000715507
0.000456342
0.000835337
0.00672128
0.000786185
0.00212075
0.00673297
6.51747e-05
0.00104345
0.00672355
0.000730618
0.000493151
0.00474131
0.00672265
0.000832782
0.000578142
0.000318051
0.000755465
0.000616699
0.00672012
0.00048943
0.00100452
0.000339812
0.000378466
0.00672873
0.00394294
0.00257798
0.00523393
0.0067255
0.000213806
0.000371243
0.000521963
0.000342898
0.00125147
0.000121694
0.006723
6.8563e-05
0.000547311
0.000278753
0.000514595
0.000771217
0.00108207
0.00109331
0.00121925
0.00672942
0.00673259
0.00123925
0.00151101
0.0012342
4.93667e-05
0.00301567
0.00672755
0.000126612
0.00048716
0.000583771
0.00190223
0.000516089
0.00673232
0.000935681
0.00237076
0.00287006
0.000310422
0.00151304
0.000143005
0.00073982
0.000813003
0.000958216
0.000643218
8.37124e-05
0.000537386
0.00673382
0.00673225
0.000843575
4.05057e-05
0.00204391
0.000457988
0.00325471
0.00671422
0.000675404
0.00672515
0.00120858
0.00135074
0.000857224
0.00113553
9.60834e-05
0.00100078
0.00233473
0.0067247
0.000118223
0.000724569
0.000204352
0.000476717
0.00019927
0.000919155
0.000404055
3.52812e-05
0.000306658
0.0007058
0.00672561
0.000574694
0.00061234
0.003097
0.00355339
0.00179636
0.00181076
0.0020646
0.000235567
0.000817015
0.00201411
0.00673304
0.00116234
0.0067533
0.00101306
0.000632993
0.000514794
5.71723e-05
8.35331e-05
0.000217268
0.000538735
0.000556852
0.00463461
0.00262905
0.000666059
0.000233643
0.000660122
0.000811882
0.00138906
0.000370311
0.000509309
0.000775834
0.00122999
0.00673088
0.000749732
0.000315082
0.000151078
0.00672438
0.000110126
0.00119134
0.000759003
0.00639914
4.10915e-05
0.00520381
0.00609249
0.00228898
0.00672681
0.00276518
0.000671575
0.00672285
0.000398062
0.000972618
0.00672626
0.000120885
0.000994512
0.000954428
0.00672783
0.00672853
0.00109851
0.000465967
0.00178206
0.0067683
0.00670833
0.000650805
0.0067338
0.00161459
0.000290736
0.00672934
0.000618367
0.000238209
0.000798685
0.000210671
0.00111992
0.00673368
0.000763664
0.000506713
0.00672203
9.83953e-05
0.0067237
0.00672541
0.00106854
0.00671513
0.00562959
0.00375278
0.000808629
0.000586931
0.00643372
0.00224327
0.00131752
0.00048714
0.00305324
0.000356136
0.00300798
4.70181e-05
0.000571566
0.00671079
0.000666528
0.0014276
0.00102811
0.00129468
0.000441943
0.00670799
0.000416394
0.000457475
0.000854463
0.00128999
0.00381058
0.000448345
0.000270688
0.000268556
0.00672685
0.00672735
0.000289257
0.00347943
0.000497036
0.000681039
0.000487231
0.000305726
0.000643333
0.000894285
0.00672271
0.00169513
0.00270363
4.66642e-05
0.00290986
0.000684705
0.000613367
0.000546216
0.00671553
0.000767842
0.00673205
0.000235581
0.000541845
0.0014279
0.0067202
0.00040532
0.000262808
0.000187434
0.00163323
0.0010588
0.000442364
0.000751324
0.000477249
0.00104338
0.000727155
0.00164416
0.000877258
0.00066296
0.00335618
0.00025829
0.00173625
0.00165764
0.00672968
0.000317946
0.00242593
0.000353158
0.000505292
0.00051161
0.00109895
0.000878376
2.96493e-05
0.000900843
0.000877857
0.00268972
0.000492879
0.000237824
0.0067272
0.000862437
0.00068929
0.000437639
0.00672787
0.00115147
0.0025248
0.00297527
7.89045e-05
0.000829627
0.00127708
0.000439539
0.000907857
0.000205073
0.00252074
0.000831863
0.000760458
0.000426413
0.00542319
0.000252625
0.00045463
0.000436086
0.00154368
0.000359102
0.0012327
0.000300879
0.000421188
0.00672623
0.000624613
0.000420328
0.000402954
0.000324827
5.29502e-05
0.00122594
0.000969344
0.000145709
0.00186923
0.000106482
0.00119393
0.0044046
0.000966099
0.00339826
0.000112945
0.000419054
0.00599226
0.000801659
0.000472387
0.00209605
6.22692e-05
0.000803931
0.000989336
0.0012442
0.000490496
0.000749702
0.000237943
0.00672875
0.00111149
0.000174512
0.000424531
0.000331617
0.00128596
0.00434935
0.000851976
0.000754636
0.00671712
0.00156704
0.00672527
0.000923725
0.000437017
0.0001007
0.000687853
0.000525457
0.00258012
6.88686e-05
0.000767791
0.000280836
0.00673027
0.00672369
0.000717473
0.000652992
0.00672822
0.000207733
0.000833465
0.000142343
0.000273932
0.000936126
8.41984e-05
0.00046967
0.000390134
0.00215166
5.74242e-05
0.000660377
0.00127292
0.00672884
0.000484507
0.00418999
0.00199843
0.000695779
0.000949482
0.00672423
0.00672701
0.00372619
0.000367885
0.00296906
0.000850755
0.000810248
0.00672568
0.000816952
0.000548283
0.000264866
0.00273516
0.000947041
0.000691198
0.00124315
0.000491467
0.00289419
0.00157741
0.000579015
0.000413337
0.001389
0.000549095
0.00056637
0.00672385
0.00143829
0.000652978
0.00322147
0.000115572
0.000686236
0.00210815
0.00029741
0.00122766
0.000268201
0.00145153
0.00672398
0.00672576
0.00106097
0.00672601
0.000712924
0.00672632
0.00151275
0.0067262
0.00112412
0.000201983
0.00554885
0.000118983
0.00154241
0.000122622
0.00671152
0.00124405
0.000345998
0.000446203
0.00321507
0.000485009
0.00135344
0.00036984
0.000269768
0.00673369
0.00121121
0.0027024
0.00117335
0.000685411
0.000595005
7.19019e-05
0.000479537
0.000422691
0.00673396
0.000385966
0.000330588
6.75025e-05
0.00149339
0.000515263
0.000191218
0.000303855
0.00119928
0.000220102
0.000734717
0.00672882
0.00050417
0.00163243
0.000184424
0.00047288
0.00168155
0.000248775
8.4342e-05
8.03139e-05
0.000272446
0.00169001
0.000174971
0.000394254
0.00672539
0.00672734
2.42296e-05
0.000364429
0.000934958
0.000918332
0.00136937
0.00144185
0.000588741
0.00672744
0.000482858
0.000721777
0.000741869
0.000980816
0.0067254
0.000555896
0.00672712
0.000698721
0.000429124
0.000364153
0.00672387
0.00672851
0.000153685
0.00672424
0.000313861
0.0067114
0.000196158
0.00318741
0.000260928
0.00672078
0.00556563
0.00672821
0.000498383
0.00126887
0.00672811
0.000574852
0.000607591
0.000307691
0.00672562
0.0067262
5.439e-05
0.00672366
0.00272779
4.07714e-05
0.00672406
0.000576205
0.00101867
0.0067274
0.000236284
0.000873834
0.000970281
0.00105688
0.000847622
0.00192276
0.000384189
0.00672394
0.000417174
0.00573227
0.00086324
0.00153042
0.00171994
0.00668214
0.00130449
0.000205982
0.00113529
0.000854531
0.00114017
0.000556221
0.000748463
0.000650958
8.5976e-05
0.00672529
0.00672359
0.00372016
0.001969
0.00119796
0.000105955
0.00016962
0.000215165
0.00117536
0.00672405
0.00671975
0.000200745
4.72059e-05
0.000802618
0.000260431
0.0017439
0.00672419
0.000179731
0.000270826
0.000253607
0.000247521
0.00031983
4.63522e-05
0.000646829
0.00672629
0.000444299
0.000487858
0.00042479
0.000427551
0.000769762
0.00152126
0.00672393
0.00671985
0.00100256
0.00375296
0.00273913
0.00233217
0.00103615
0.000791353
0.000536648
8.88487e-05
9.49716e-05
0.00672446
0.00311028
0.00365679
0.00087412
0.00672557
0.00672451
0.000845261
0.000710635
0.00294073
9.70397e-05
0.00671114
0.000104653
0.00120013
0.00109184
0.00318437
0.00671931
0.000523581
0.000928385
0.000880307
0.00222935
0.000632841
0.000502457
0.00672536
0.000574056
0.0050982
0.00673131
0.00348472
4.1477e-05
0.00110886
0.000425604
0.00111034
0.00460903
0.000387215
0.000838949
0.00671882
0.000568586
7.63864e-05
0.000433434
0.000527681
6.43994e-05
0.00672347
0.000670359
0.000615659
0.00672705
0.00114401
0.000696744
0.00519284
0.00130493
0.0012164
0.000505899
0.00672704
0.00133109
0.000708582
0.000417738
0.00671327
0.00672483
0.000749004
0.00672807
0.000894688
0.000756736
0.000388369
0.00672054
0.000356541
0.000440973
0.000570767
0.00672962
0.000316287
0.000653377
0.000395756
0.000977958
0.00672385
0.00672069
0.00189847
0.00672535
0.000304609
0.00137062
0.00084084
0.00672709
0.000842715
0.000847287
0.00404057
0.00672265
0.000573679
9.7383e-05
0.000187558
0.000982873
0.00672044
0.00672868
6.7052e-05
0.00672581
0.00672735
0.00257888
0.000449868
0.00104802
0.000108139
0.00673022
0.000253275
0.000723229
0.00671871
0.000941271
0.000753281
0.00672753
0.00672674
0.0011249
0.000693364
0.000333604
0.00127274
0.000620337
0.00353129
2.23121e-05
0.00675123
0.000363456
0.000859176
0.00672751
0.000427993
0.000760772
0.00672684
0.00088065
0.000328233
0.00559738
0.00475139
0.00293261
0.00673069
0.00138459
0.00337484
0.000158308
0.000481383
0.000535762
0.00672777
0.000641777
0.000179766
0.000541184
0.000978893
0.000105965
9.95594e-05
0.00672628
0.000127456
0.001171
0.00521683
0.00643467
0.000787464
0.00672336
0.0012808
0.000403636
0.000364257
0.000691938
0.000559941
0.0067243
0.00240329
0.00412026
0.000791132
0.000104636
0.00672318
0.000781169
0.00025852
0.00054897
0.0067248
0.0067247
0.00672635
0.00672073
0.00362081
0.00551075
0.00016198
0.00672468
0.00145871
0.00672421
0.000612833
0.00116765
6.20324e-05
0.00112953
8.45275e-05
0.00136146
0.00178546
0.00129768
0.000761278
0.00672385
0.000831123
0.00162879
0.00133692
0.000831559
0.000743552
0.000464068
0.00353808
0.00269484
0.000634545
0.00674657
0.000216282
0.00673256
0.00023648
0.001714
0.000549529
0.00223055
0.00139538
0.00671922
0.00111687
0.0067368
0.000465727
0.0008218
0.000856273
0.000589311
0.000271514
0.0067212
0.0006274
0.00629452
0.000965005
0.0067007
0.00182713
0.000980306
0.000632277
0.000179339
0.00109841
0.00497612
0.00468929
0.00672667
0.00671113
0.000307347
0.00121213
0.0067248
0.0023257
0.0067269
0.000611602
0.000100908
0.000545077
0.00119496
3.7281e-05
0.00672912
0.0012988
0.00672757
0.000447834
0.000800148
0.00250658
0.00672686
0.00113211
0.000213754
0.000727071
0.000460193
0.00185692
0.000126057
0.000387897
0.00672379
0.00209283
0.00157488
0.00672493
0.000265068
0.0012243
0.00039491
0.000253762
0.000434563
0.000558499
0.00118578
0.000205213
0.000785725
0.0003003
0.000279798
0.00672392
0.000523949
0.00150056
0.00428031
0.000513615
7.1051e-05
0.00105426
0.00672609
0.00326364
0.00146279
0.000371913
6.18325e-05
0.0067266
0.000496018
0.00164189
0.00117534
0.000664486
0.00219686
0.00293601
0.000263525
0.0025766
0.00205682
0.00672342
0.00041593
0.00672678
0.00053777
0.000111812
0.000852129
0.000635537
0.000684427
0.000976529
0.00104493
0.00672081
0.00191374
0.000689021
0.00672488
0.000113109
0.00672439
0.000711895
0.00672424
0.000575437
0.000240769
0.000678751
0.000807786
0.00662744
0.000317756
0.000290891
0.000124914
0.00672389
0.000422543
0.000878313
0.00671982
0.000930255
0.0005852
0.000205668
0.00363083
0.00672703
0.00140307
5.17839e-05
0.000767512
0.000803536
0.000362312
0.00672459
0.00490546
0.000405043
0.00672641
0.000754694
0.0015681
0.00671389
0.00672688
0.00673677
0.00673232
0.00109276
0.0067273
0.000256861
0.00673153
0.00317794
0.0067247
0.000718485
0.0067203
0.000545121
0.00477267
0.000416207
0.00064676
0.000443132
0.00207058
0.000469903
0.000574297
0.00118388
0.000454737
0.00112104
0.000692432
0.00042828
0.000897546
0.00113673
0.00067881
0.000258302
0.00672532
0.00152538
0.006596
0.000311165
0.00129377
0.00671957
0.00382433
0.00672019
0.000761988
0.00202576
0.00374038
0.000664444
0.000672356
0.000215741
0.00128197
0.000724674
0.000887701
0.000743331
0.000239536
0.000175476
0.00672628
0.000500837
0.00672584
0.00168497
0.000267555
0.00104798
0.00675692
0.000641812
0.00672919
0.000322356
0.00119832
0.00261934
0.000582968
0.000153775
0.000560982
0.000431813
0.000638834
0.000543881
9.4982e-05
0.00173222
0.000280368
0.00672779
5.81537e-05
0.00671584
0.000606344
0.000524692
0.000606461
0.00673346
0.00204519
0.000564828
0.00068745
0.000624139
0.00172804
0.00111787
0.00676439
0.00672615
0.00672614
0.00175999
0.00056614
0.000360858
0.00167953
0.00109984
0.0067361
0.0010795
0.0067277
0.001086
0.000180235
0.00187452
0.00023192
0.00109199
0.00672031
0.000150254
0.0067282
9.46434e-05
0.00672421
0.000491148
0.00672618
0.00203116
0.00133823
0.00672326
0.00128375
0.000519288
0.00672481
0.00569825
0.000506136
0.00527742
0.000289376
0.000550432
0.00123485
0.00152724
0.00120589
0.000440416
0.00672386
0.00148402
0.000681192
0.000600324
0.000518129
0.000521535
0.000742486
0.00672883
0.000512883
0.00672471
0.00116228
9.529e-05
0.00675404
0.00672591
0.000282211
0.00097074
0.00340487
0.000688821
0.00486511
0.000751615
0.000726587
0.000475487
0.00152221
0.00114347
0.00672335
0.0016624
0.000510634
0.00672905
0.000836636
0.00508199
0.00266205
0.000493993
0.00102497
0.00564653
0.000590522
0.00672613
7.28833e-05
0.000341258
0.00174936
0.00127824
2.90015e-05
0.00202268
0.000657872
0.00671631
0.000759659
0.000771944
0.000408771
7.24029e-05
0.000551784
0.0067528
0.00549576
0.00116132
0.006727
0.00153772
0.00113535
0.00019962
0.000723838
0.00100896
0.00532191
0.000430156
0.00670898
0.00672467
0.00390465
0.000427542
0.00174258
0.0067267
0.00672867
0.000541611
0.00167152
0.00111369
0.00672515
0.00352105
7.70604e-05
0.000767827
0.000552931
0.00130946
0.000726366
0.000620816
0.00672579
0.00164709
0.00671947
0.00115055
0.00671166
0.000897222
0.000359937
0.00672811
0.000963201
0.00122574
0.00126422
9.27283e-05
0.000270261
0.00334066
0.000204415
0.00672615
0.000811919
0.000593302
0.000570832
0.00672348
0.0060609
0.00343585
0.00162283
0.00670903
0.00672709
0.000146121
0.000403941
0.00109556
0.0066824
0.00665569
0.00672443
0.0067273
0.000147529
0.00676452
0.000690231
0.000547808
0.000614096
0.000485082
0.00671949
0.000762765
0.00633754
0.00251448
0.000209196
0.000404859
0.00177968
0.000386917
0.000222878
0.000709993
0.00672648
0.000901191
0.00676001
0.000587756
0.000891088
0.000388566
0.000282176
0.000328581
0.000118137
0.00246917
0.000591255
0.00672417
0.000792581
0.000405252
0.00225283
0.00012498
0.00120444
0.00382717
0.000346709
0.000667001
0.00541105
0.000887857
0.00671995
0.00671926
0.00671978
0.00119071
0.000142085
0.000769212
0.00017067
0.000627305
0.00497868
0.000636479
0.00123336
0.00672432
0.000515468
0.000261173
0.00193274
0.00291448
0.000212568
0.00151846
0.00273685
0.00672448
0.000954936
0.000879346
0.000999588
0.000355454
0.00672695
0.00672682
0.00145638
0.000796868
0.00671741
0.000171209
0.00672758
0.0012898
0.00672809
0.000837607
0.000313084
0.00672472
0.000731337
0.000400833
0.00454233
0.00107186
0.00124395
0.00672712
0.000800646
0.00129889
0.00672713
0.000344036
0.00672488
0.000843281
0.000275677
0.0056072
0.00045491
0.000665865
0.000358047
0.000774856
0.00068466
0.0067213
0.00672789
0.000413093
7.68588e-05
0.0067596
0.00672459
2.5677e-05
0.000795732
0.00303645
0.000936944
4.12763e-05
0.000474489
0.000570116
0.00156731
0.00672602
0.00131243
0.00119592
0.0010908
0.00672828
0.000630091
0.00671496
0.000924493
0.000435228
0.000502474
0.000616411
0.000439859
0.00109373
0.00096023
0.00119576
0.00219786
0.00112845
0.000428416
0.0011749
0.000699616
0.00672514
0.00672494
0.000426659
0.00116285
0.000793825
0.000589795
0.00672461
0.00674679
0.000395124
0.00385465
0.00671415
0.000237729
0.00672379
0.000562765
0.0020796
0.00243218
0.00672662
0.000439108
0.00662176
0.00670824
0.00270394
0.000542103
0.0067231
0.000610882
0.00104936
0.000142631
0.000166233
0.000595965
0.000127957
0.000826175
0.00160134
0.000356905
0.000594168
0.0012051
0.00672609
0.000470814
0.00225731
0.000824614
0.000833345
0.000465713
0.00672427
0.000420014
0.000115694
0.00659169
0.000361446
9.53616e-05
0.000892949
0.00539485
0.00038172
0.000913188
0.000798371
0.000764835
0.000566946
0.000392188
0.00672337
0.00673231
0.0067224
0.0015853
0.000866081
0.000438995
0.00362004
7.33181e-05
0.000920146
0.000668903
0.000107518
0.000419291
0.000232248
0.00671482
0.00671915
0.00393831
0.000289799
0.000268981
0.00123095
0.00186452
0.000323205
0.00673465
0.00672841
0.00134528
0.00674594
0.00109211
0.0023061
0.00213541
0.000813766
0.000439303
0.00270241
0.00673653
0.00133966
0.00103395
0.000858089
0.00059601
0.00349946
0.000408974
0.000422958
0.000269958
0.000480895
0.000345599
0.000772921
0.000554559
0.000598036
0.000512335
0.000757871
0.00587014
0.000593849
0.00130609
0.005768
0.000382831
0.000442707
0.000303271
0.0004515
0.000517743
0.000412535
0.000387136
0.0017408
0.00671181
0.00671903
0.000369706
0.00672742
0.002426
0.000260256
0.00672728
9.16338e-05
0.00286567
0.00672635
0.00673385
0.000653781
8.06995e-05
0.00143652
0.0067352
0.000973139
0.000548897
0.00388002
0.000272619
0.000674015
0.000700928
0.00101019
0.00330416
0.00090547
0.000969847
0.000114465
0.00114697
0.000343484
0.00127103
0.00672297
0.00672795
0.00672545
0.000449706
0.00102238
0.000835467
0.00123157
0.00672242
0.00513521
7.25964e-05
0.00199837
0.00151105
0.00148112
0.00672607
7.59195e-05
0.00672208
8.66065e-05
0.00423266
0.00018254
0.00672549
0.000813242
0.000551246
0.000358577
0.00264795
0.00458437
0.00389259
0.00374018
0.000913986
0.00032964
0.00112732
0.000566919
0.00164905
0.000785409
0.00173415
0.00672591
0.000620294
0.000372822
0.000994065
0.00327938
0.00455481
0.000123396
0.000943345
0.000165085
0.000293233
0.00223562
0.00672348
0.000592166
0.000837426
0.000373121
0.00672563
0.000787031
0.00393395
0.00227536
0.00102496
0.0010231
0.000377305
0.000340911
0.000862742
0.000164858
0.000698293
0.00673484
0.000442297
0.0067246
0.0067261
0.00261602
0.000602415
0.000293894
0.000111407
0.00672928
0.00128524
0.00147192
0.00608896
0.000634277
0.00672153
0.00452354
0.00337316
0.00111317
0.000774588
0.000704477
0.000525088
0.00415587
0.00138434
0.00285815
0.00201674
0.000685077
0.00107222
0.00018675
0.00214394
0.00232051
0.000250228
0.00671494
0.00672378
0.000386654
0.000604565
0.000518477
0.000312862
0.0020837
0.000754272
0.000374687
0.000309098
0.00089213
0.00178819
0.000449241
0.000743714
0.00673575
0.00100059
0.000397903
0.00140488
0.00357367
0.00672524
0.00046909
0.00672532
0.000575047
0.00179327
0.00527216
0.00637015
0.000642298
0.00497372
0.00133216
0.00659209
0.00130719
0.00672681
0.00672291
0.00627225
0.00121016
0.00671224
0.00672773
0.00505721
0.00016594
9.74982e-05
0.000786736
0.00131946
0.000278389
0.000685241
0.00170187
0.00102528
0.00672557
0.00454483
0.000792284
0.000452807
0.000304094
0.00211882
0.00120019
0.00169504
0.00099166
0.00061697
0.000553172
0.000749542
0.000392857
0.001184
0.000194879
0.000193571
0.000728523
0.000734855
0.00163501
0.0010312
0.00320324
0.000314906
0.00672539
0.000214763
0.00570016
0.000292667
0.00672505
0.00672605
0.00131118
0.000154377
0.000842354
0.000712995
0.00672618
0.000574566
0.00672061
0.000132551
0.00672245
0.00445796
0.00672735
0.00036646
0.00671844
0.000656974
0.000733055
0.00670821
0.0017019
0.000535586
0.00490265
0.00672652
0.000730077
0.000461289
0.00229854
0.000762842
0.000814563
0.00672448
0.00154604
0.00672074
0.000541926
0.00169042
0.00111884
0.000952901
0.000709112
0.00133511
0.00672236
0.000298478
0.000592169
0.00270609
0.00672314
0.000190321
0.000258802
0.00669326
0.000894283
0.000847429
0.000175505
0.000456132
0.000690271
0.00525993
0.00672797
0.000645955
0.000409524
0.00212031
0.00063962
0.00143601
0.00120027
0.000376295
0.00145701
0.000557551
0.00089905
0.00190826
0.00671416
0.000658499
0.00258464
0.000936525
0.000101504
0.000738834
0.000952622
0.00117535
0.000927663
0.000458262
0.00183505
0.00672996
0.0004318
0.000831621
0.00427544
0.00672092
0.000491078
0.00672618
0.000317605
0.000263951
0.00673744
0.000822914
0.00039554
0.00119659
0.00149435
9.9288e-05
0.000495528
0.000542043
0.000163944
0.00215687
0.00135355
0.000642191
0.00544203
0.00072207
0.000750567
0.000945118
0.000978628
2.96797e-05
0.00284124
0.00105861
0.000532615
0.00672539
0.000327661
0.00128034
0.000876882
0.000340392
0.000108386
0.000585726
0.00672791
0.00672431
0.00138532
0.000405058
0.000643645
0.000140463
0.000274222
0.00142304
0.000284097
0.00215538
0.000258388
0.000847273
0.00239156
0.000410875
0.00672411
0.00054766
0.000472496
0.000161488
0.00672788
0.00065561
0.00103352
0.00161366
0.00251032
0.00106051
0.00370513
0.000323746
0.000850442
0.000728939
0.000683437
0.00048572
0.000890457
0.0067218
0.000637334
0.00670714
0.00164953
0.001241
0.000774433
0.00672466
0.000491277
0.00672754
0.000365304
0.000225626
0.00239627
0.000396011
0.00543029
0.000977814
0.000374815
0.00167356
0.000140073
0.000397006
0.000983006
0.00632605
0.00672538
0.00556795
0.000385985
0.000431175
0.000841718
0.00671831
0.0011473
0.00133282
0.00170454
0.000348851
0.000210344
0.00114404
0.00027288
0.000492773
0.00633162
0.000253812
0.00049917
0.000904053
0.000492842
0.00101152
0.000299709
0.000719731
0.000578331
0.00202656
0.0004935
0.000226911
0.000225787
0.000439118
0.00177868
0.00392569
0.00139672
0.00672898
0.000560038
0.000726561
0.000255595
0.000597191
0.000506312
0.000484515
0.00673023
0.000109186
0.00128089
0.000444126
0.00130307
0.00100787
0.000396467
0.000259432
0.00453814
0.000597167
0.000859546
0.00152599
0.00674991
0.000217463
0.000505653
0.000896572
0.000439588
0.000425537
0.000799241
0.000507293
0.00672298
0.000503014
0.000103947
0.00215429
0.000427092
0.00672836
0.00671645
0.000373456
0.00560132
0.000889801
0.00672837
0.00103641
0.00134106
0.000599194
0.000677059
0.00151354
0.00673001
0.00130072
0.00486066
0.00110463
0.000974985
0.00269212
0.000573772
0.000570819
0.00672558
0.000109446
0.00674507
0.000119992
0.000284252
0.00010943
0.00474784
0.000876685
0.000442404
0.00103066
0.00046923
0.000800525
0.00673319
0.0067296
0.000747449
0.00145074
0.000847529
0.00089588
0.000741396
0.00672968
0.00094792
0.0067232
0.00672553
0.00672787
0.00108889
0.000569178
0.00672452
0.000544677
0.00672463
0.000106471
0.000441703
0.00493307
0.00672338
0.000790587
0.00672063
0.00672688
0.00168285
0.00672105
0.000354733
0.00110298
0.0025439
0.00101187
0.00672566
0.00672544
0.000463698
0.000688301
0.00060209
0.00672518
0.00116268
0.000537389
0.00671986
0.00111906
0.00103822
0.000482291
0.0017805
0.000945498
0.0003562
0.000997972
0.00148729
0.000462094
0.000326795
0.0048385
0.000150404
0.000125504
0.00136892
0.00160917
0.000639632
0.000376721
0.000718597
0.00678912
0.00106155
0.000797952
0.00673018
0.00189692
7.58216e-05
0.00132296
0.000296578
0.00149009
0.00672563
0.00673141
0.000269607
0.000815539
0.000463292
0.00416045
0.000341536
0.00583649
0.00672782
0.000226237
0.000830471
0.00152764
0.000202513
0.00132712
0.00293887
0.00115616
0.000588963
0.00672188
0.0005616
0.00144834
0.000549098
0.0067265
0.00671667
0.00672468
0.00113889
0.000707041
0.000565195
0.00672528
0.000369856
0.000422829
0.00160887
0.00672443
0.000543513
0.000215416
0.000383574
0.00672506
0.000472087
0.000612813
0.000547911
0.000555239
0.000319293
0.000134109
0.000428121
0.000245374
0.00223775
0.000574674
0.00084049
0.000334466
0.00162368
0.000421775
0.00672459
0.00053004
0.000536725
0.0044417
0.00672501
0.00672977
0.00347862
0.000529659
0.00016084
0.000645155
0.000474293
0.000950059
0.00672449
0.00107534
0.0055886
0.00133604
0.00181392
0.00104054
0.000309131
0.00445264
0.00110281
0.00399285
0.00120442
0.00137112
0.00671565
0.000495887
0.00113302
0.000185619
0.00541031
0.000582679
0.00125179
0.00494603
0.000660358
0.00123739
0.00284592
0.000831156
0.00672909
0.00127494
7.20059e-05
0.0067326
0.00672445
9.56213e-05
0.000236472
0.000357895
0.000544474
0.000432938
0.0061467
0.00672512
0.00114355
5.62888e-05
0.000766454
0.000393797
0.000774827
0.006735
0.000528959
0.000166405
0.00137619
0.00672532
0.00206225
0.00672491
0.000281983
0.000164756
0.00189602
0.00223722
8.40267e-05
9.61212e-05
0.000384122
0.00187502
0.000179555
0.00100031
0.000258027
0.000701746
0.000759009
0.00225651
0.00201845
0.000643036
0.000836969
0.000642432
0.000708238
0.00652002
0.00320252
0.00117043
0.000239535
0.000431014
0.00339895
0.00672422
0.0012971
0.00136144
0.00673535
0.00153072
0.000387927
0.00119289
0.00134447
0.001199
0.00107826
0.00672236
0.00673474
0.000131273
0.000248843
0.000640282
0.000646188
0.00672271
0.000739729
0.00317723
0.000276143
0.000116709
0.00155106
0.000631979
0.000287103
0.0011423
0.000587961
0.000179551
0.00197021
0.0014146
0.00672213
0.000729846
0.00140332
0.00672825
0.000805725
0.000758822
0.00080082
0.00057119
0.0013031
0.000789265
0.000743676
0.00672671
0.000287097
0.00460291
0.00672979
0.00211712
0.000251028
0.000449307
0.000111191
0.000631415
0.0052597
0.000129503
4.30293e-05
0.000221045
0.000301813
0.000369445
0.00114173
0.00057881
0.0007736
0.000164016
0.00141558
0.00672477
0.00102016
0.000522507
0.0012728
0.000595162
0.00450675
0.000460181
0.000754591
0.00028081
0.0067378
0.00271384
0.000259584
0.000393028
0.000647483
0.00103223
0.00155993
0.000612211
0.000288185
0.000656547
0.0019033
0.00672296
0.00459158
0.00672824
0.00161824
0.00418746
0.000589483
0.000375509
0.000356799
0.000595153
0.000335443
0.00672634
0.000376572
0.00481266
0.00205967
0.000659012
0.000286496
0.000732697
0.00417525
0.00672658
0.000126357
0.00185939
0.00672798
0.00605031
0.00672943
0.00122407
0.00672675
0.000560407
0.00672764
0.00672786
0.00015812
0.000681173
0.00585251
0.000693218
0.000277393
0.000304
0.000103558
0.000613516
0.00672711
0.00372707
0.000211432
0.00572916
0.000406592
0.00176956
0.00129776
0.00672551
0.00672479
0.00168579
0.00135571
0.00168336
0.00173914
0.000268916
0.00371702
0.00217502
0.00078216
0.00672501
0.00266383
0.00672007
5.91824e-05
0.00672633
0.000696724
0.000384226
0.00671883
0.00532424
0.000295304
0.000489935
0.0011577
0.000155045
0.000330356
0.000610579
0.00208164
0.00240071
0.00099524
0.000561773
0.00672656
0.000354014
0.00028513
0.000540875
0.00251168
0.000388734
0.000377272
0.00105739
0.000178781
0.00030258
0.000215746
0.000977348
0.000519036
0.000618154
0.00115804
0.00294214
0.0032794
6.84275e-05
0.00282538
0.00672309
0.00674043
0.000179057
0.000568288
0.000607025
0.00672776
0.00154466
0.000444699
0.00109427
0.000408651
0.000735314
0.000540287
0.000562314
0.00655749
0.000528498
0.000106185
0.00124868
0.0029645
0.000704729
0.000689578
0.000369268
0.000539343
0.00672503
0.00188252
0.000635148
0.00243208
0.000843108
0.00079247
0.0028169
0.0067264
0.000648039
0.000268331
0.000524336
0.00072563
0.00672618
0.00143665
0.000255076
0.00121712
7.02493e-05
0.00047416
0.00672747
0.000253708
0.00671716
0.00053982
0.000497856
0.000801809
0.00673842
0.000150074
0.00672655
0.00617209
0.000858556
0.00672637
0.000510344
0.00460036
0.000182496
0.000465466
0.00173246
0.000752939
0.000707233
0.000542163
0.00331251
0.00672457
0.000385609
0.00193913
0.00102439
0.00672649
0.0058586
0.00039958
0.000225776
0.00246176
0.000357883
0.00671946
0.000104002
0.00239966
0.00670987
0.000918049
0.000589454
0.000622479
0.000247847
0.00142322
0.00331776
0.00100286
0.000647753
0.00671786
0.00124425
0.000669053
0.000107574
0.00035054
0.000758404
0.00251283
0.000510696
0.000563868
0.000589411
0.0067229
0.00035728
0.000506507
0.00107568
0.000135583
0.00115627
0.00113522
0.0011266
0.00672657
0.000316773
0.00631757
0.000699102
0.000711275
0.00672805
0.000352813
0.000127173
0.000652754
0.000609606
0.000528692
0.000557397
0.00267144
0.000502273
0.00051833
0.00673084
0.000618525
0.000416234
0.00513515
0.00672317
0.000392004
0.00672332
0.000909515
0.00672235
0.000805232
0.000439155
7.91586e-05
0.000987214
0.000434618
0.00225019
0.00508803
0.000216368
0.0041894
0.00672104
0.000125099
0.00055592
0.00212579
0.00136988
0.00187685
0.00102839
0.000666576
0.000815633
0.00673352
0.00106822
0.000258024
0.000122826
0.00224284
0.000110214
0.00664184
0.00343499
0.00080473
0.00672627
0.00603505
0.000110594
0.00672449
0.000906982
0.00104682
0.0067275
0.0067249
0.00147785
0.000449467
0.000865688
0.000588659
0.000299955
0.000426467
0.00328027
0.000500131
0.000273055
0.000860916
0.000202262
0.000239967
0.000766118
0.000561096
0.000313561
0.000672296
0.000595807
0.000282533
0.000301058
0.00103153
0.000246175
0.000704676
0.00104943
0.000668217
0.000313227
0.000638419
0.000462678
0.00027305
0.0014162
0.00488911
0.00672665
0.000883818
0.00148243
0.000619198
0.000616081
0.00671735
0.00518538
0.000936234
0.00428505
0.000357723
0.000755942
0.00195372
0.00122615
0.00146119
0.00082977
0.000463495
0.0011052
0.00130305
0.000208446
0.000709906
0.00091392
0.000224968
0.000983798
0.000403517
0.00206961
0.00154149
0.00672458
0.000612042
0.00675899
0.00671493
0.0005602
0.000762847
0.00672688
0.000157351
0.000301703
0.000413857
0.00673048
0.000685818
0.00128511
0.00111708
0.000287276
0.000678643
0.00274923
0.00670912
0.0067649
0.000167099
0.000292176
0.00671078
0.00201882
0.00171975
0.000139794
0.000654655
0.000379707
0.000149243
0.00097113
0.000669327
0.000874143
0.00061732
0.000528835
0.000749372
0.00114253
0.0011874
0.00672471
0.00672658
0.000254784
0.000379638
0.000654384
0.0012369
0.00151373
0.000541216
0.00672703
0.000619423
0.00672459
0.001014
9.89538e-05
0.000429887
0.00146725
0.00673824
0.000524639
0.00169564
0.000204772
0.00635503
0.000721606
0.000205662
0.000737064
0.000568997
0.00673419
0.000763373
0.00672079
0.000982267
0.000531892
0.00020869
0.000536917
0.000336734
0.000549604
0.000614091
0.000262409
0.00012486
0.0067288
0.00055423
0.000281934
0.00568468
0.00672638
0.000747025
0.00171297
0.000984824
0.00672145
0.000337036