/*--------------------------------*- C++ -*----------------------------------*\
| =========                 |                                                 |
| \\      /  F ield         | OpenFOAM: The Open Source CFD Toolbox           |
|  \\    /   O peration     | Version:  v2012                                 |
|   \\  /    A nd           | Website:  www.openfoam.com                      |
|    \\/     M anipulation  |                                                 |
\*---------------------------------------------------------------------------*/
FoamFile
{
    version     2.0;
    format      ascii;
    class       volScalarField;
    location    "100";
    object      epsilon;
}
// * * * * * * * * * * * * * * * * * * * * * * * * * * * * * * * * * * * * * //

dimensions      [0 2 -3 0 0 0 0];


internalField   nonuniform List<scalar> 
13917
(
0.00574678
1.40548e-06
1.71886e-05
1.51062e-06
1.10802e-06
1.38615e-06
1.59291e-06
2.52619e-06
1.6762e-06
0.00418553
2.14468e-06
1.39634e-06
1.74951e-06
0.00166109
1.24561e-06
0.00702159
6.74805e-07
1.86119e-06
3.36745e-06
0.00775049
1.45502e-06
1.09187e-06
1.77636e-06
1.08899e-06
1.44825e-06
1.46219e-06
0.00496328
0.00545312
1.55298e-06
4.23076e-07
0.00415859
2.12674e-06
1.44734e-06
0.00459591
8.36863e-07
1.46883e-06
1.33577e-06
1.19062e-06
1.5976e-06
1.55418e-06
7.38843e-07
6.91202e-07
1.65969e-06
3.15523e-06
3.14332e-06
0.000118915
1.44134e-06
0.01658
0.00239015
8.42965e-07
1.3959e-06
3.4379e-06
0.0137645
1.26412e-06
1.2863e-06
3.44973e-06
0.00251191
1.77291e-06
6.86153e-07
9.06054e-05
0.00420242
9.0613e-07
4.59287e-07
1.45045e-06
0.00432147
1.68581e-06
1.60828e-06
7.00798e-06
2.05069e-06
0.00630719
0.00332024
0.00458316
1.57301e-06
6.86042e-07
1.4688e-06
1.41178e-06
1.09556e-06
6.81652e-07
1.41201e-06
1.44527e-06
1.2086e-06
7.08168e-07
1.58109e-06
0.00363007
1.22341e-06
2.59569e-06
2.07977e-06
1.22823e-06
1.54178e-06
6.60668e-07
6.17755e-07
1.66404e-06
0.0021965
8.04151e-07
1.27532e-06
1.60839e-06
0.0012762
8.10174e-07
1.23096e-06
2.40464e-06
5.38242e-07
5.30412e-07
1.21582e-06
8.03132e-07
1.08952e-06
0.00425356
0.00411562
9.07117e-07
6.91904e-07
0.00647652
1.63216e-06
0.00459686
1.55466e-06
0.0129228
0.00429238
1.40318e-06
3.09083e-06
5.64084e-07
7.68055e-06
1.61886e-06
7.07442e-07
6.87797e-07
1.68315e-06
2.69176e-06
0.00626226
0.00406127
1.45659e-06
1.48398e-06
9.18328e-07
2.70729e-06
1.70655e-06
2.73526e-05
0.00643307
1.39898e-06
2.35983e-06
0.00626471
0.00503991
0.00656838
1.47806e-06
1.29671e-06
0.00132045
6.81971e-07
0.00410419
1.08354e-06
1.55161e-06
6.98458e-07
0.0032764
0.000509343
0.0175502
1.27194e-06
1.51497e-06
5.05372e-07
1.55198e-06
1.63297e-06
0.00199896
1.03979e-06
7.99977e-07
0.00658095
5.76654e-07
5.70948e-07
1.16379e-06
0.00384861
1.31805e-06
0.00126332
0.00336705
3.74907e-05
0.019656
0.00663987
4.12305e-07
1.49913e-06
1.07646e-06
0.00598284
1.68204e-06
0.00376142
2.06746e-06
5.53805e-07
1.51732e-06
4.07908e-06
1.70217e-06
1.32156e-06
1.64514e-06
1.07201e-06
1.3829e-06
1.16525e-05
7.77056e-06
4.04084e-05
1.38129e-06
2.95586e-06
4.25124e-07
3.06317e-06
2.05814e-06
2.86064e-06
4.78558e-06
0.00562196
8.09482e-07
0.0060799
1.49179e-06
0.00641693
8.3392e-07
1.04078e-06
1.42413e-06
0.0060919
0.00754886
1.30037e-06
0.00523779
1.41168e-06
1.52544e-06
6.87546e-07
3.93457e-06
1.20176e-06
8.92523e-07
1.17585e-06
1.20118e-06
0.0175135
2.30537e-06
1.47822e-06
0.00439187
1.09906e-06
6.15229e-07
6.12045e-07
0.00959896
5.13349e-06
8.22798e-05
1.49439e-06
4.99764e-07
0.00629463
0.00673828
6.14097e-07
6.1308e-07
7.87065e-07
6.10223e-07
6.07734e-07
0.00459956
0.00936258
1.14975e-06
4.1588e-07
2.21285e-06
0.00475502
6.17344e-07
1.48381e-06
0.0058867
0.00429781
2.87675e-06
0.00443278
2.69744e-06
1.09267e-06
0.00429483
2.2581e-06
1.52059e-06
2.26502e-06
1.2997e-06
0.0121681
1.60657e-06
1.62868e-06
1.94591e-06
1.14209e-06
8.44205e-07
1.45756e-06
1.06236e-06
7.93793e-07
0.00525555
0.00202298
7.10502e-07
6.2013e-07
1.0464e-06
6.22152e-07
1.6162e-06
1.63333e-06
1.64845e-06
7.10174e-07
0.00602313
0.00402843
1.33765e-06
1.06063e-06
0.000549805
5.62964e-07
2.71839e-06
0.0051442
5.6533e-07
0.00525644
7.89272e-07
0.00374363
5.60393e-07
1.22531e-06
1.13989e-06
1.05662e-06
5.15852e-06
9.67872e-07
0.00044273
1.49203e-06
0.0015817
7.10382e-07
0.00254344
0.0068633
5.84144e-07
1.83017e-06
1.08009e-06
1.39357e-06
1.09925e-06
1.41981e-06
7.97366e-07
9.4381e-07
4.01098e-06
1.00472e-06
1.61937e-06
1.41867e-06
1.45941e-06
0.00655977
0.00781921
8.94064e-07
4.4498e-07
1.39931e-06
0.000653283
3.86602e-06
0.00411341
0.00357149
1.37178e-06
9.78609e-07
1.05263e-06
0.00324963
0.00088377
1.8773e-05
1.66341e-06
1.23858e-06
0.00474522
1.06854e-06
1.44229e-06
2.85078e-06
6.57232e-07
0.00592951
1.22286e-06
1.82847e-06
5.31999e-07
0.0160071
9.1873e-07
1.60341e-06
1.42585e-06
1.06323e-06
6.33485e-07
2.27484e-06
0.00360305
1.28391e-06
1.06204e-06
0.00471238
0.00377548
0.00306795
0.00175854
5.66856e-07
1.17286e-06
0.00451859
3.22609e-06
5.70841e-07
1.09163e-06
1.32898e-06
1.6742e-06
1.61559e-06
3.32854e-06
2.5723e-06
2.74773e-06
1.80471e-06
0.00443413
9.2297e-07
1.29055e-06
1.11904e-06
6.40876e-06
6.32686e-07
0.00642195
1.80653e-06
9.44095e-05
1.2795e-06
3.85309e-06
4.30585e-07
0.00205978
6.7275e-07
0.000100954
0.000460453
1.45001e-06
1.33829e-06
0.00177592
5.27888e-07
0.00334825
5.51048e-06
6.68522e-07
0.00224663
1.13653e-06
5.80253e-05
7.66883e-07
0.00680143
7.8897e-05
1.34719e-06
0.00656356
2.27231e-06
1.29269e-06
0.00336498
1.07011e-05
1.35675e-06
5.51598e-06
1.19022e-06
2.26249e-06
1.51417e-05
1.22467e-06
1.62516e-06
1.42691e-06
1.06841e-06
1.01972e-06
9.36945e-07
0.00602413
4.55967e-05
1.28795e-06
9.2872e-07
1.08363e-06
1.79332e-06
2.29855e-06
5.44196e-07
4.1512e-07
3.81817e-06
3.78541e-06
1.06126e-06
1.34956e-06
0.00327811
0.00180124
6.34914e-06
3.60157e-06
0.00260994
6.09465e-07
5.48258e-07
1.41215e-06
1.01557e-06
5.46963e-07
1.15095e-06
5.51393e-07
6.06817e-07
0.00586151
1.19642e-06
1.58621e-06
0.00585643
1.81767e-06
8.96324e-07
1.54463e-06
0.00341823
1.41818e-06
0.00707603
5.35883e-07
1.4084e-06
5.30956e-07
6.04648e-07
1.32857e-06
1.12881e-06
0.00318089
5.32114e-07
0.00456341
1.40358e-06
1.70285e-06
4.86778e-07
1.1938e-06
2.67497e-06
0.0030829
1.33084e-06
0.00279778
9.08512e-07
1.00662e-06
1.07835e-06
1.14361e-06
8.8236e-07
1.17695e-06
0.00647287
0.00384423
8.76862e-07
0.00294976
3.72461e-06
1.51497e-06
1.88089e-06
2.28801e-06
0.00343322
1.63969e-06
0.0043145
0.000132912
0.000118318
1.13544e-06
1.29653e-06
4.29808e-07
1.29279e-06
0.00218751
6.23611e-07
1.26685e-06
1.28239e-06
1.64325e-06
1.46658e-06
6.17414e-06
1.89353e-06
7.06824e-07
1.06473e-06
1.83516e-06
1.73778e-06
1.28391e-06
0.00252252
1.66365e-06
1.49735e-06
0.00331848
1.22492e-06
1.7771e-06
4.89553e-06
9.52687e-07
0.00640396
1.01462e-06
6.02886e-07
1.80994e-06
5.38864e-07
1.08075e-06
3.836e-06
0.00702073
0.00471543
1.16778e-06
1.56793e-06
7.22012e-07
0.00175555
0.00203722
1.27106e-06
1.27992e-06
1.16375e-06
1.87763e-06
0.000366967
9.03932e-07
6.28195e-07
1.03413e-06
1.07387e-06
9.30751e-07
1.54566e-06
6.19842e-07
1.89859e-06
9.49935e-07
1.09816e-06
1.42576e-06
0.00421947
6.77976e-07
1.58509e-06
7.99771e-07
1.69421e-06
2.04264e-06
1.71977e-06
1.98695e-06
1.34141e-06
1.40708e-06
1.69155e-06
0.00627703
0.00614295
0.00578829
8.70578e-07
1.0643e-06
7.27989e-07
1.37958e-06
0.00445579
5.60899e-07
0.000598235
1.49565e-06
0.00547495
3.16887e-06
1.6499e-06
0.0105276
8.70202e-07
2.09289e-06
7.97315e-07
7.72302e-07
0.00565362
5.3995e-07
1.20556e-05
5.07488e-07
1.56655e-06
1.0694e-06
5.60805e-06
9.30068e-07
6.28661e-07
3.19492e-06
1.86698e-06
0.00011926
0.00281932
0.00672133
0.00340355
6.79021e-07
0.00677371
4.54482e-07
0.00447489
0.000601428
7.74502e-07
4.09235e-07
5.16329e-07
1.65674e-06
1.64675e-06
5.42931e-07
8.08933e-07
1.57673e-06
0.00234913
1.19613e-06
2.02326e-06
1.25948e-06
6.25974e-07
5.69726e-07
1.8608e-06
0.00314932
0.0182198
2.16276e-06
1.54916e-06
0.00107359
0.00475255
7.66432e-07
0.00270854
1.60878e-06
2.91204e-06
1.3685e-06
0.00155407
1.06538e-06
9.43887e-07
1.56175e-06
0.000203456
1.65952e-06
0.00442552
6.47131e-07
1.63726e-06
8.7064e-07
6.01685e-07
0.0043731
1.16737e-05
8.64888e-07
3.80502e-06
1.46618e-06
7.5724e-07
5.27475e-07
0.00440143
1.1983e-06
1.07305e-06
5.587e-07
8.63702e-07
6.44646e-06
5.23234e-07
3.42226e-06
7.42234e-07
9.3346e-07
0.00461525
2.05381e-06
1.26787e-06
0.0158486
8.39721e-06
2.54609e-05
5.08333e-06
8.64905e-07
1.25184e-06
0.00421091
1.28471e-05
1.40253e-06
1.34128e-06
9.46371e-07
7.41608e-07
9.6255e-07
4.09752e-06
2.1391e-06
1.45879e-06
0.00351374
1.67058e-06
0.000900102
0.00236258
1.07329e-06
1.60237e-06
4.54367e-06
0.00499327
8.02676e-07
1.03074e-06
3.91195e-06
9.40197e-07
6.81162e-07
5.59548e-07
7.23681e-07
1.12136e-06
0.00649715
1.75458e-06
8.3913e-07
2.63868e-06
6.50198e-07
0.004145
7.83735e-07
9.10676e-07
0.00688027
1.98081e-06
0.00015347
1.54148e-06
5.08757e-07
8.79806e-07
1.56181e-06
1.60654e-06
1.0326e-06
0.00683656
1.50905e-06
0.000310726
0.000163003
1.02981e-06
0.00678304
1.56023e-06
8.25385e-07
8.66607e-07
0.00512215
0.00560881
1.49086e-06
0.00660741
0.000636455
9.24559e-07
8.98649e-07
1.32166e-06
0.00401207
0.000102846
1.65914e-06
1.55527e-06
1.58199e-06
2.97848e-06
1.0511e-06
3.33198e-06
1.75339e-06
1.26807e-06
1.44306e-06
8.34601e-07
1.60145e-06
1.05694e-06
1.97522e-05
1.38827e-06
7.54505e-07
0.00658851
4.52189e-07
0.000656517
1.3411e-06
1.34329e-06
1.51702e-06
1.09933e-05
6.9019e-07
2.0403e-06
0.00303386
0.000104926
1.39725e-06
1.39453e-06
1.16822e-06
1.35353e-06
1.57475e-06
1.20262e-06
4.86413e-07
1.84787e-06
3.41697e-06
8.52841e-07
7.86765e-05
1.67183e-06
1.64034e-06
3.93646e-06
1.17239e-06
2.08901e-06
0.00124105
6.43651e-07
1.98706e-06
2.34656e-06
1.74456e-06
9.43723e-07
8.94932e-07
9.57049e-07
0.00718395
1.43961e-06
7.77949e-07
1.81585e-06
1.03816e-06
9.00983e-07
3.20505e-06
0.00048232
1.25266e-06
0.00229787
1.62759e-06
0.00469152
1.58581e-06
1.09984e-06
0.000709855
7.69397e-07
6.15679e-07
6.44797e-07
6.90708e-07
1.51426e-06
1.38345e-06
1.75488e-06
9.41518e-07
1.59021e-05
1.00653e-06
0.000592821
1.34739e-06
1.64434e-06
5.35048e-07
2.27704e-06
1.2333e-06
0.00346615
1.26231e-06
6.56648e-07
0.00416426
1.43394e-06
0.00529964
1.65609e-06
1.49359e-06
1.05788e-06
8.47582e-07
1.39908e-06
0.00561614
1.5906e-06
1.45793e-05
0.00169079
1.35254e-06
1.74429e-06
4.14023e-07
8.38238e-07
0.000278505
4.14228e-07
0.00457464
1.59741e-06
1.5453e-06
3.02709e-06
0.000280495
6.63176e-07
7.19674e-07
2.87648e-06
8.57828e-07
1.24889e-06
1.36392e-06
1.05044e-06
1.81496e-06
6.60807e-07
2.8848e-06
1.26056e-06
0.00599732
0.00542072
0.000202251
0.00479498
0.00312822
0.00723617
0.000740998
8.84794e-07
7.47759e-07
1.43595e-06
1.3961e-06
1.15965e-06
1.59701e-06
1.18173e-06
3.62648e-05
1.25567e-06
0.00159278
1.44064e-06
1.72413e-06
2.49522e-06
8.5659e-07
1.57481e-06
1.43092e-06
7.87917e-07
1.54782e-06
5.24754e-07
0.00709105
2.24787e-06
6.29982e-06
8.86765e-07
1.61692e-06
1.06908e-06
1.01233e-06
0.00330532
8.97213e-07
1.96583e-05
1.06624e-06
0.000141344
1.20415e-06
1.11754e-06
2.06635e-06
9.24936e-07
9.02582e-07
0.000144405
0.00253207
1.28637e-06
2.27842e-06
8.37785e-07
1.47549e-06
5.17772e-07
1.02022e-06
0.00459885
7.32257e-07
1.50749e-06
2.61776e-06
0.0047854
5.19213e-07
0.00101383
0.00127412
6.82201e-07
1.09909e-06
1.05558e-06
0.00222975
1.59255e-06
3.52164e-06
1.42386e-06
0.00653586
1.21864e-06
0.00410025
9.34652e-07
5.03045e-07
0.000102287
1.19829e-06
4.42622e-07
0.00612106
1.32191e-06
9.99987e-07
0.00122823
6.7737e-07
7.43072e-07
2.13331e-06
1.35012e-06
0.00451126
1.5691e-06
2.2761e-06
5.05454e-06
1.57272e-06
0.00624137
1.2664e-06
2.04929e-06
1.44568e-06
0.00554355
0.000138512
1.56571e-06
5.20985e-07
7.82215e-07
1.2798e-06
5.21062e-07
6.48935e-07
7.2504e-07
1.41285e-06
1.54067e-06
6.41983e-07
1.3222e-06
2.20104e-06
0.00360933
0.00356884
2.43619e-06
1.076e-06
9.80831e-05
1.16909e-06
0.000581114
0.000337279
0.0199577
5.88251e-07
8.89686e-07
1.34736e-06
1.19378e-06
5.82264e-07
5.34104e-07
1.24493e-06
1.61335e-06
1.00699e-06
0.0169867
0.00115415
9.8048e-07
0.00556977
1.45119e-06
9.4368e-07
8.86979e-07
0.00440376
1.79563e-06
5.42393e-07
0.000149018
8.39612e-07
9.22598e-07
0.000269781
7.52668e-07
0.00151898
1.51359e-06
1.71251e-06
9.05055e-07
7.00948e-07
1.43094e-06
4.66767e-05
1.40953e-06
0.00476359
9.28414e-07
1.01291e-06
1.0995e-06
1.60297e-06
8.89051e-07
2.63459e-06
1.75694e-06
1.45255e-06
0.00521118
0.0119235
2.59957e-05
2.79263e-06
7.15964e-07
0.00543931
6.9238e-07
0.0036963
1.93159e-06
1.63051e-06
1.40143e-06
0.00544533
0.0040785
0.00212199
5.252e-07
0.000539074
5.2435e-07
1.18838e-06
1.76731e-06
1.2537e-06
1.41717e-06
0.000407676
0.00506703
6.9666e-07
1.69937e-06
0.00482952
5.05952e-07
5.77552e-07
0.000519717
0.00412548
1.39559e-06
4.56291e-07
1.58774e-06
1.52552e-06
9.10239e-07
1.20045e-06
1.28984e-06
1.4453e-06
0.000251396
5.25495e-07
3.65576e-06
0.000338728
9.25082e-07
0.00538162
1.54768e-06
1.43334e-06
6.74046e-07
0.00477894
3.21626e-05
3.93967e-07
1.42296e-06
1.62194e-06
1.51027e-06
5.15214e-07
0.00342832
7.60593e-07
1.05444e-06
1.87695e-06
1.07247e-06
0.000103008
2.23495e-06
3.37629e-06
2.03353e-06
0.000416724
6.17481e-05
0.00290532
0.00538868
1.17872e-06
0.000390787
5.79492e-07
1.85614e-06
2.21593e-06
0.00021718
1.53617e-06
7.77102e-07
1.49916e-06
0.000624094
1.30008e-06
0.00331316
1.61523e-06
2.41177e-06
0.00335427
6.88047e-07
2.87724e-06
1.35759e-06
1.20008e-06
9.20228e-07
1.94122e-06
5.07727e-07
8.29961e-07
1.40551e-06
0.00297593
9.90358e-07
1.31435e-06
1.6546e-06
1.27353e-06
1.31212e-06
2.51283e-06
2.1843e-06
1.06095e-06
8.75209e-07
2.45664e-06
5.29532e-07
1.35444e-06
0.00637447
1.50016e-06
1.53556e-06
0.00469425
7.83253e-07
1.31447e-06
0.00541006
0.00540087
1.16262e-06
1.84836e-06
1.33638e-06
0.00795823
7.20539e-06
1.45548e-06
0.00293179
8.98193e-07
2.26563e-06
0.0034479
8.13975e-06
0.000306115
0.00184703
6.01449e-07
1.09298e-06
1.54465e-06
1.31659e-06
1.09474e-06
2.12637e-05
7.18515e-07
1.71821e-06
7.28343e-07
1.99653e-06
0.00346603
1.34275e-06
0.00192572
0.00236672
1.5192e-06
2.29775e-06
1.28632e-06
1.34423e-06
1.34366e-06
0.00556364
2.14189e-06
0.00477037
1.44446e-06
0.00466001
2.35658e-06
5.12758e-07
0.00016267
1.62685e-06
5.23278e-07
1.10873e-06
4.88872e-05
1.35293e-06
1.39003e-06
1.4645e-06
1.2854e-06
1.62904e-06
1.90838e-06
0.00367382
1.16769e-06
2.86249e-06
1.62821e-06
1.24083e-06
1.15308e-06
6.9661e-07
0.00198929
0.000534143
8.25254e-07
1.71856e-06
1.68343e-07
0.000478376
0.00761328
1.41784e-06
9.72621e-07
5.99601e-07
1.61357e-06
1.3628e-06
1.3146e-06
0.00228862
1.0263e-06
1.57276e-06
1.32535e-06
1.67404e-07
2.42469e-06
0.00411452
0.00413863
1.558e-06
9.16496e-07
9.74536e-07
1.31587e-06
2.18735e-06
0.00699321
7.32961e-06
2.53975e-06
1.4091e-06
1.84437e-06
1.64018e-06
5.83428e-08
1.37624e-06
3.09061e-06
8.21322e-07
2.25435e-06
2.12329e-07
7.93162e-07
1.5727e-06
0.00494155
1.76065e-06
9.18114e-07
0.0035014
3.7236e-06
8.86193e-07
0.000339147
1.13726e-06
1.29615e-06
0.00295121
0.000267638
8.19952e-07
1.15635e-06
2.98468e-06
1.49207e-06
1.45526e-06
6.54841e-07
1.15638e-06
8.84054e-07
1.37071e-06
1.54736e-06
1.68913e-06
0.00583088
1.50289e-06
1.54577e-06
1.68094e-06
2.31111e-06
8.63759e-07
1.4598e-06
5.61212e-05
9.63704e-06
0.00405116
1.27014e-06
6.46784e-07
0.00553933
9.90868e-07
1.14439e-05
1.47704e-06
1.58486e-06
1.33134e-06
9.93073e-07
0.000315944
1.51843e-06
1.25109e-06
1.6152e-06
0.0102584
0.000677097
0.00481993
1.00672e-06
1.1079e-06
0.0020256
5.6456e-07
6.15371e-07
3.7602e-06
0.000314229
1.44689e-06
1.64254e-06
1.45639e-06
0.00284348
1.32221e-06
1.15662e-06
1.63868e-06
6.44959e-07
9.57365e-06
1.30792e-06
8.7998e-07
0.000694932
1.97941e-06
0.00786636
1.12968e-05
1.26715e-06
1.6228e-06
9.07052e-07
8.74726e-07
1.09098e-06
1.37327e-06
1.32704e-06
7.42264e-06
1.41167e-06
2.09861e-06
9.13582e-07
7.01856e-07
1.53287e-06
5.25709e-07
9.31117e-07
0.00578202
5.17448e-07
0.000687976
2.12636e-06
1.39866e-06
1.87153e-06
1.64461e-06
1.62309e-06
1.27192e-06
8.43442e-07
9.57728e-07
7.87747e-07
4.66197e-05
1.35849e-06
7.78509e-07
7.91939e-07
8.47667e-07
5.59553e-07
1.8492e-06
1.08258e-06
0.0043018
1.72936e-06
7.05521e-07
1.41794e-06
7.43296e-07
1.7182e-06
2.94223e-07
0.00409151
5.96858e-07
9.65553e-05
6.97903e-07
2.6126e-06
1.22323e-06
0.00348498
7.25593e-07
5.14741e-07
1.4411e-06
1.35395e-05
7.52251e-07
0.00480924
1.18535e-06
8.12062e-07
3.85304e-06
6.99808e-05
0.00826233
1.2876e-05
1.51081e-06
1.57506e-06
6.74742e-07
6.4084e-07
0.00357988
1.46674e-06
5.47854e-07
0.00246495
7.25842e-07
0.00486457
4.47655e-06
1.05959e-06
1.41063e-06
6.46096e-07
0.00659447
5.47803e-07
6.52722e-07
2.2281e-06
1.26699e-06
8.9531e-07
5.13229e-07
6.26543e-07
1.80787e-06
1.49162e-06
1.05877e-06
8.60312e-07
0.00307852
3.12183e-07
8.72495e-07
8.76954e-07
1.39111e-06
1.39605e-06
1.59344e-06
1.02859e-06
7.73582e-07
1.50855e-06
1.20939e-06
1.31623e-06
1.34969e-06
1.73489e-06
7.37943e-07
2.27834e-06
1.08446e-06
1.49251e-06
8.143e-07
1.33065e-06
1.04755e-06
5.26809e-07
1.51189e-06
1.21096e-06
1.64504e-06
0.00816909
3.20951e-07
0.00638345
0.00422395
2.29623e-06
0.0050013
1.10819e-06
1.34871e-06
0.00166562
0.00360847
5.62159e-07
0.00488165
7.72508e-07
3.43852e-06
0.000609242
1.57009e-06
2.32408e-06
0.00109067
0.00574121
7.27565e-07
1.82861e-06
9.85573e-07
1.79829e-06
1.56787e-06
0.00532613
0.00671931
1.355e-06
6.36369e-07
0.000786876
6.74084e-07
0.0015876
4.16225e-05
1.36409e-06
1.04228e-06
3.34483e-06
0.00525888
6.38211e-07
1.6898e-06
1.19578e-06
0.000687542
4.02554e-06
1.2622e-06
8.19477e-07
0.0016606
8.63058e-07
1.53123e-06
1.51301e-06
8.34672e-07
0.00107717
1.21524e-06
1.58595e-06
0.00546015
1.37556e-06
1.68962e-06
1.59188e-06
4.18888e-06
1.80782e-06
2.93146e-06
8.0369e-07
1.60105e-06
5.15269e-07
8.03553e-07
1.66186e-06
1.26495e-06
0.00205421
1.34468e-06
8.44682e-07
1.18085e-06
9.96543e-06
1.03035e-06
0.000114679
0.00270294
0.00080796
1.01967e-06
8.41408e-07
1.3053e-06
0.0010238
1.25714e-06
0.00346115
7.30644e-07
0.000891916
1.33616e-06
7.82504e-07
0.000198134
1.23374e-06
6.69374e-07
0.00521872
3.04234e-06
0.00473839
7.82432e-07
0.00539774
0.00134768
1.17889e-06
0.00487844
1.19026e-06
1.21487e-06
0.00371312
1.22997e-06
1.45305e-06
0.00474405
1.35242e-06
2.06445e-06
1.54966e-06
0.00238943
1.48703e-06
0.000119298
1.31938e-06
0.00521001
1.51265e-06
1.57464e-06
1.05105e-06
0.000523908
8.5239e-07
3.5118e-07
1.83207e-06
0.00165409
1.25986e-06
1.40177e-06
0.00584921
2.62905e-05
0.00109376
2.19061e-06
8.08804e-07
3.01368e-06
0.000606475
1.27878e-06
0.00123259
5.05618e-07
4.39558e-06
0.00648483
8.51844e-07
0.00747932
1.42738e-06
0.00505571
0.000782027
1.39699e-06
1.09258e-06
0.000164143
0.000608331
1.60105e-06
1.47133e-06
8.33318e-07
1.2186e-06
0.00422053
1.93621e-06
0.000143666
9.88792e-07
1.49539e-06
0.00496131
7.90897e-07
0.000797498
0.00182597
1.22591e-06
1.46994e-06
7.29352e-06
0.00337796
0.0028928
0.000635922
7.64244e-06
1.52262e-06
1.40245e-06
0.00552677
0.00333844
0.000327818
1.03609e-06
2.2529e-06
1.70619e-06
2.02198e-06
1.31326e-06
1.65505e-06
1.84806e-06
2.02378e-06
0.000747997
6.87205e-07
2.74793e-05
0.00532715
1.4961e-06
1.53298e-06
1.52647e-06
1.00711e-05
8.34253e-07
0.00667613
1.49313e-06
5.62072e-07
2.25426e-06
4.87159e-07
8.64289e-07
1.62565e-06
1.61753e-06
1.32983e-06
0.00648334
7.37873e-07
0.00692711
7.81962e-07
0.00477258
0.000472167
7.69444e-06
5.23421e-07
1.42945e-06
1.36065e-06
1.54964e-06
3.08149e-06
2.10196e-06
0.00424821
0.000160846
4.13933e-07
1.45512e-06
7.87896e-07
3.52981e-06
0.00690878
4.91327e-07
8.48326e-07
1.39451e-06
0.00056931
1.68448e-06
7.98861e-07
1.67264e-06
2.04309e-06
1.01034e-06
8.58108e-07
1.30752e-06
0.00679816
1.20767e-06
0.000151422
0.00367677
1.57937e-06
1.28521e-06
0.00119305
1.14064e-06
1.52659e-06
0.00412805
1.65485e-06
2.23267e-06
1.73089e-06
1.96527e-06
0.00324463
0.00524514
1.53013e-06
0.00130214
8.685e-05
7.30889e-07
3.80999e-06
2.0219e-06
2.97063e-06
0.00184589
0.00102866
0.000658765
2.89514e-06
0.00395109
1.45203e-06
2.1297e-06
4.32261e-07
1.54301e-06
1.32816e-06
9.58642e-07
0.000222761
2.37174e-06
5.10889e-07
1.46346e-06
6.06893e-06
1.13704e-06
0.000313957
0.0044254
4.21908e-07
1.25297e-06
4.4443e-07
1.26478e-06
1.80816e-06
1.48476e-06
0.00466861
1.61264e-06
2.05321e-06
1.27711e-06
1.99341e-06
1.35742e-06
1.30687e-06
9.41123e-05
1.31958e-06
1.27175e-06
5.05082e-07
7.94575e-07
0.00579568
2.7077e-06
1.39372e-06
0.00433818
9.93713e-07
1.19472e-06
1.37096e-06
7.82912e-07
7.20096e-07
2.02116e-06
1.51032e-06
0.00450341
0.00924202
0.00400963
1.6184e-06
0.00715953
1.26688e-06
0.000454914
8.51789e-07
4.24494e-06
0.00482925
1.0454e-06
0.000343745
0.00490279
1.42952e-06
1.19153e-06
5.59624e-07
1.42424e-06
0.00289697
8.23402e-07
1.50262e-06
9.69469e-07
1.21828e-06
7.29474e-06
1.44191e-06
1.49424e-06
1.18946e-06
8.76447e-07
0.00128027
1.60526e-06
1.15508e-06
3.55475e-06
1.28451e-05
0.00540126
0.00124557
1.18653e-06
1.21331e-06
0.00419138
1.30148e-06
2.03744e-06
1.58748e-06
0.00430361
8.98563e-07
1.03357e-06
1.1272e-06
0.003613
1.48723e-06
7.98127e-07
7.18705e-07
4.41403e-06
0.0119691
3.21885e-06
1.62611e-06
1.23016e-06
9.96481e-07
0.00557977
5.08219e-07
0.00203111
1.96163e-06
1.0018e-06
1.99079e-05
1.32705e-06
1.58951e-05
1.64403e-06
6.16744e-07
1.50524e-06
1.46043e-06
3.832e-06
1.49849e-06
1.24822e-06
8.92713e-07
0.00450622
1.03895e-06
1.4779e-06
0.00510644
1.3289e-06
7.81995e-07
1.52445e-06
9.06104e-07
7.95695e-07
0.000536587
1.64206e-06
0.00125245
2.78195e-05
5.05754e-07
0.00074618
1.33838e-06
2.86872e-06
1.686e-06
1.43366e-06
5.29583e-07
5.00011e-07
1.46679e-06
0.00164596
1.84229e-06
0.00586272
0.00395622
9.63405e-07
5.42573e-07
1.52574e-06
0.0013839
1.4269e-06
0.000156456
0.00533899
0.0038039
8.47447e-07
1.46377e-06
1.4341e-06
0.000497552
0.00569232
5.59671e-07
1.57197e-06
1.61408e-06
0.00611938
1.49605e-06
1.4772e-06
1.25123e-06
3.37556e-06
0.000969194
7.40069e-07
0.00355281
1.22236e-06
1.52246e-06
0.0025027
1.9495e-06
0.00105636
0.00145991
1.44166e-06
1.22175e-06
1.50886e-06
1.33224e-06
1.24612e-06
1.79724e-06
1.5809e-06
7.79032e-07
1.53512e-06
3.19198e-05
0.00643141
8.18695e-07
2.94853e-06
0.00716481
0.00193988
7.72865e-07
1.40804e-06
3.37797e-05
0.00277957
9.22499e-07
1.01501e-06
0.0106161
2.12972e-06
5.10447e-07
0.00575871
1.43842e-06
1.1662e-06
4.63894e-05
1.04227e-06
8.90712e-07
8.3031e-07
4.90703e-07
1.02606e-06
7.16102e-07
0.0042746
5.20729e-07
1.12444e-06
2.22576e-06
1.63922e-06
1.27246e-06
3.95115e-06
1.24624e-06
1.61516e-06
1.35802e-06
1.33847e-06
9.52226e-05
0.000103346
0.000805493
0.0013169
1.257e-06
0.000173033
1.19458e-06
0.00418633
0.00865556
0.00415705
9.14464e-07
1.34496e-06
1.44725e-06
1.17093e-06
7.87833e-07
7.62465e-07
7.14181e-06
2.00791e-06
1.4808e-06
1.12148e-06
1.48097e-06
1.98141e-06
1.46679e-06
1.22588e-06
1.22049e-06
0.00591429
1.50261e-06
0.00766581
1.62602e-06
4.70583e-05
1.25499e-06
1.01998e-06
1.13163e-06
1.79124e-06
1.05059e-06
2.37589e-06
0.00453191
1.5357e-06
0.00546862
0.000627741
1.22303e-06
1.50021e-06
6.87326e-05
3.12708e-06
5.29067e-07
7.77567e-07
5.02601e-07
0.00404992
4.81703e-07
2.28532e-06
8.45201e-07
2.20074e-06
0.000543054
0.00112526
2.04944e-06
0.00666834
6.28759e-07
7.10383e-07
3.19903e-06
0.00302023
1.3149e-06
1.56137e-06
0.00146467
1.03751e-06
1.81987e-06
1.32464e-06
4.74349e-07
1.36981e-06
1.45945e-06
2.0921e-06
0.00434056
0.00450168
1.53047e-06
8.4101e-07
2.08241e-06
1.41453e-06
2.14871e-06
9.53953e-07
4.09268e-06
2.61071e-06
1.23368e-06
1.15992e-06
5.14291e-07
3.86342e-06
1.31104e-06
7.60049e-06
0.00123848
1.49076e-06
0.00344124
2.22267e-06
3.1322e-06
0.00472329
1.27817e-06
0.00393447
1.40464e-06
0.00598114
0.000272068
0.00385124
0.00439281
7.06063e-07
1.79216e-06
3.59263e-06
1.02105e-06
0.00486026
1.23884e-06
1.40602e-06
1.61379e-06
1.46463e-06
1.65473e-06
7.77419e-05
0.00140017
0.00359905
1.50562e-06
1.52021e-06
1.33844e-06
9.93381e-07
1.57163e-06
3.93551e-06
2.46055e-06
0.00392698
1.64262e-06
5.16795e-07
8.46183e-07
1.12294e-06
1.01008e-05
1.29324e-06
1.1091e-06
1.43517e-06
2.27558e-06
1.6604e-06
1.47628e-06
1.2831e-06
0.00402013
1.48414e-06
1.66487e-06
1.43751e-06
1.62095e-06
0.000328115
1.79248e-05
1.56408e-06
7.77327e-07
0.00263462
1.59806e-06
1.00895e-06
1.76163e-06
0.00466977
0.000221063
1.4475e-06
1.03434e-06
0.00328684
1.24043e-06
1.01802e-06
5.19531e-07
0.00324521
0.0014757
1.0744e-06
0.00178087
0.00369015
1.48729e-06
1.28093e-06
1.86318e-06
0.00689555
1.49557e-06
0.00555572
1.22476e-06
2.7824e-07
7.16401e-07
0.0059051
1.63164e-06
7.73999e-07
0.00511314
1.36463e-06
1.33265e-06
0.0017855
0.00327621
9.94065e-07
0.000548474
1.61833e-06
1.47075e-06
0.00229388
1.02419e-06
1.25359e-06
1.56613e-06
1.70561e-06
1.41632e-06
1.30214e-06
1.63929e-06
0.000147388
0.00177727
1.49514e-06
0.00494251
1.52155e-06
0.00493342
0.00529893
1.52217e-06
1.46957e-06
1.605e-06
0.000179697
7.13836e-06
2.00626e-06
0.00464322
0.00355128
6.97032e-05
8.47663e-07
0.0027776
0.00429618
1.28226e-06
0.00142431
1.22557e-06
1.02327e-06
1.61455e-06
1.24401e-06
1.29573e-06
1.67411e-06
0.00463065
1.25059e-06
1.65709e-05
0.0112732
0.00246862
0.00395041
0.00547977
1.2061e-06
0.00612668
2.95124e-06
2.22911e-06
8.36633e-07
1.03512e-06
2.09389e-06
0.00551484
1.05312e-06
0.00337112
0.00523786
9.16013e-07
1.47763e-06
7.77104e-07
2.34323e-06
1.23913e-06
2.11555e-06
0.00403409
8.07529e-07
1.55445e-06
9.20599e-07
1.40585e-06
2.78798e-06
0.00452509
1.44576e-06
0.00340139
3.04602e-06
1.18285e-06
9.01633e-05
3.88035e-06
6.46506e-07
0.00065144
0.00151457
0.00382035
0.0015655
0.00495282
1.0285e-06
0.00254746
0.00471888
4.33989e-06
0.00353762
7.99532e-07
1.30746e-06
1.39085e-06
1.59451e-06
0.00442105
1.98864e-06
1.4534e-06
1.48956e-06
6.4508e-05
0.00488337
8.42321e-07
5.31301e-07
0.00666259
0.00537287
1.53847e-06
1.41847e-06
2.85586e-06
1.40337e-06
1.52923e-06
0.00503287
1.12508e-06
1.75703e-05
7.38928e-05
0.00474777
1.0445e-06
1.98539e-06
4.49092e-06
9.95594e-07
5.03357e-07
0.0110052
0.00260353
9.98983e-07
1.30172e-06
5.13916e-06
8.96626e-06
0.00602767
0.0014598
1.4443e-06
0.000111042
0.000149323
1.57012e-06
1.19434e-06
1.99739e-06
6.9962e-07
5.11494e-07
0.00456656
1.50887e-06
2.56277e-06
1.5411e-06
9.97108e-07
8.40688e-07
6.79771e-07
1.48811e-06
1.48331e-06
0.00234597
1.54108e-06
0.000952865
0.00713646
1.62909e-06
2.12666e-06
0.00297486
0.00557624
0.00248905
5.14928e-07
1.54716e-06
1.58054e-06
1.43697e-06
2.48935e-06
0.000170549
1.50358e-06
0.000914978
0.00518849
1.42323e-06
2.61442e-06
2.20842e-06
2.84586e-06
3.12892e-06
1.48345e-06
3.58255e-06
4.08763e-06
4.80038e-06
5.75266e-06
3.27247e-06
2.34351e-06
1.07467e-06
1.12272e-06
1.62246e-06
2.58786e-06
1.07491e-06
0.000329851
0.00643618
1.71084e-06
0.00488226
5.06878e-07
7.6075e-07
7.80058e-07
0.00339195
1.4858e-06
1.29233e-06
2.103e-06
0.00500898
0.00136151
1.25587e-06
1.32857e-06
1.50348e-06
0.00769435
0.00011105
1.61751e-06
0.000508504
0.00482645
2.83992e-06
0.00538035
2.60092e-06
0.000178504
0.00626511
4.12713e-07
0.00625938
0.00535455
1.32432e-06
2.02362e-06
2.63935e-06
1.20746e-06
8.3641e-07
0.000305138
0.00151047
6.87925e-07
6.91953e-07
0.0035064
0.000974606
2.1852e-06
1.3121e-06
3.18617e-05
3.81227e-06
0.00523495
0.00565613
1.48237e-06
1.47627e-06
1.4786e-06
1.09415e-06
0.00526193
0.00165775
0.0042867
2.4454e-06
0.000237371
0.00030824
1.03849e-06
1.03656e-06
0.00494152
7.88645e-07
0.00582553
4.72586e-07
0.00547404
1.48088e-06
1.23712e-06
0.000597477
1.05428e-06
3.18487e-06
9.33047e-05
1.74139e-06
1.23739e-06
1.48009e-06
6.73656e-06
0.00468762
4.28411e-06
0.00507959
1.26326e-06
9.09626e-07
1.59068e-06
2.14401e-06
0.00680259
0.00407483
2.60294e-06
1.13905e-05
3.64036e-06
0.00275616
4.41241e-07
7.67529e-07
8.12317e-07
8.39685e-07
0.000192393
1.79831e-06
9.86843e-05
1.53852e-06
4.84183e-06
1.03454e-06
0.000105238
1.95768e-06
0.00772961
1.61187e-06
1.46321e-06
4.93402e-07
0.00489044
4.571e-07
0.000362061
0.000148675
3.52155e-06
0.000158954
5.08353e-07
1.69227e-06
4.28737e-06
0.000248594
0.000891948
1.3646e-06
4.066e-06
1.18736e-06
9.11108e-07
2.67429e-06
0.00121161
0.00117324
1.1657e-06
2.32753e-06
2.83115e-05
0.00435987
0.00604365
0.00516837
0.00492534
8.82279e-07
1.90755e-06
9.75875e-07
4.27115e-06
8.20345e-07
3.02697e-06
1.17545e-06
1.77251e-06
6.88173e-05
0.000112868
1.31712e-06
2.77096e-06
0.00530083
3.42683e-06
1.20291e-06
0.00186195
3.09942e-06
8.01528e-07
9.41509e-07
0.00458487
1.53489e-06
3.83538e-06
0.000633419
0.000175613
0.00495286
1.09718e-06
0.00385921
0.00447053
0.00161772
0.000308544
1.5918e-06
3.08575e-06
2.76974e-06
0.00493262
1.81939e-06
1.47978e-06
0.00144337
1.4136e-06
0.000297643
1.40484e-06
0.00375942
0.000599723
0.00185693
1.65139e-06
0.00192865
1.38999e-06
0.00444444
4.29237e-06
0.00192324
0.00769085
1.03401e-06
4.84285e-07
0.00482017
0.00608181
9.09936e-07
1.45844e-06
1.55319e-06
1.24574e-06
0.0037743
1.95278e-06
0.00540623
1.42721e-06
0.00551833
3.68321e-06
0.00168085
1.47341e-06
5.09517e-05
0.00351553
1.37687e-06
2.47754e-06
5.13881e-07
1.52337e-06
1.4973e-06
0.00011028
1.1297e-06
1.58161e-06
0.00612086
0.00293315
8.25132e-07
0.00647051
1.41996e-06
1.04192e-06
1.31709e-06
8.29754e-07
1.52516e-06
0.00072218
0.00611484
7.47229e-07
0.000591921
2.11042e-06
1.85635e-06
0.00140497
2.4882e-06
1.432e-06
1.70485e-06
1.40455e-06
9.46381e-05
1.31894e-06
0.00661549
1.41435e-06
0.00392475
0.00109646
2.07625e-06
0.00169136
0.00564503
9.12182e-07
0.00505745
1.83889e-06
2.04867e-06
1.22919e-06
1.04599e-06
9.86436e-07
7.39304e-06
1.49199e-06
1.11381e-06
1.56233e-06
0.00489002
4.68432e-06
0.00293244
6.56548e-06
6.10074e-06
0.00597024
1.30439e-06
8.14728e-07
2.04386e-06
1.38566e-06
1.47837e-06
1.48612e-06
1.42095e-06
1.0215e-06
1.26189e-06
1.38098e-06
1.53648e-06
1.39112e-06
1.39046e-06
1.25755e-06
1.26057e-06
2.91318e-06
1.39758e-06
0.00522879
1.41232e-06
1.27121e-06
2.68541e-06
1.80324e-06
1.13092e-06
9.97732e-07
0.000381939
1.64914e-06
0.00493868
1.63302e-06
3.23294e-06
1.36163e-06
1.0073e-06
2.72139e-06
0.00656306
2.17618e-06
1.45098e-06
5.73942e-07
0.00531506
1.50765e-06
1.22199e-06
2.30528e-06
1.55852e-06
4.64132e-06
0.00524878
2.7987e-06
9.78365e-07
1.55516e-06
0.00508225
1.11789e-06
1.39681e-06
1.90726e-06
0.00011166
1.99614e-06
2.79543e-06
0.00330699
1.41118e-06
1.39122e-06
1.58506e-06
2.79e-05
2.00397e-06
1.50092e-06