/*--------------------------------*- C++ -*----------------------------------*\
| =========                 |                                                 |
| \\      /  F ield         | OpenFOAM: The Open Source CFD Toolbox           |
|  \\    /   O peration     | Version:  v2012                                 |
|   \\  /    A nd           | Website:  www.openfoam.com                      |
|    \\/     M anipulation  |                                                 |
\*---------------------------------------------------------------------------*/
FoamFile
{
    version     2.0;
    format      ascii;
    class       volScalarField;
    location    "100";
    object      nut;
}
// * * * * * * * * * * * * * * * * * * * * * * * * * * * * * * * * * * * * * //

dimensions      [0 2 -1 0 0 0 0];


internalField   nonuniform List<scalar> 
13917
(
0.00341228
0.0004711
0.00162348
0.000450652
0.00045461
0.000470049
0.000455963
0.000559357
0.00045554
0.000657324
0.000593966
0.00044874
0.000471929
0.0116887
0.000453396
0.00218105
0.00043875
0.000530409
0.00062473
0.00192857
0.000462806
0.000444601
0.000475959
0.000444549
0.000451438
0.000465521
0.0140972
0.000252594
0.000482969
0.000427238
0.000291532
0.00050795
0.000449993
0.00942381
0.000440276
0.00115458
0.000450726
0.00045944
0.000456142
0.000468055
0.000430657
0.000436819
0.000453911
0.000603726
0.000602639
0.00187658
0.000460882
0.00430506
0.0205258
0.000440055
0.000448796
0.000646534
0.000543177
0.000447021
0.000447435
0.000640441
0.000165067
0.000476165
0.000436591
0.00195224
0.0120418
0.000452815
0.000426696
0.000451021
0.0116436
0.000505615
0.000490934
0.000226287
0.000521161
0.00300362
0.00965972
0.00834392
0.00045124
0.000436602
0.000464173
0.000451405
0.000447985
0.000436318
0.000451048
0.000450149
0.000447057
0.000440005
0.00045074
0.00969798
0.00044561
0.000909281
0.000503598
0.000446381
0.000467513
0.000437707
0.000434115
0.000454219
0.0196753
0.000438565
0.000447797
0.0004912
0.00826425
0.000441937
0.000446614
0.000749566
0.000429055
0.000428829
0.000447148
0.000439589
0.000447795
0.00961452
0.00774763
0.000448657
0.000437513
0.0152041
0.000451194
0.00994229
0.000482903
0.00583509
0.0114652
0.000451545
0.000601768
0.000432563
0.000938547
0.000451176
0.000438649
0.000436102
0.000504301
0.000570463
0.00370677
0.0104242
0.000450873
0.000466081
0.000440909
0.000572063
0.000462543
0.00128913
0.0130579
0.000451319
0.000530863
0.0148709
0.014589
0.00398732
0.000468896
0.000468918
0.0177674
0.000436174
0.00931752
0.000443699
0.000450121
0.000437736
0.00950025
0.0140611
0.00365119
0.000447091
0.000463999
0.000428758
0.000450512
0.000451373
0.00981023
0.00044459
0.000439318
0.0131216
0.000434859
0.000433077
0.000444852
0.0117297
0.000452644
0.0181367
0.00925508
0.0015759
0.000340716
0.00422533
0.000426006
0.000472614
0.000444594
0.0129378
0.000455444
0.0124797
0.000518284
0.000430058
0.00045076
0.000675163
0.000461739
0.000453425
0.000453694
0.000444292
0.000448557
0.00146348
0.000978526
0.00163923
0.000448568
0.00382202
0.000427283
0.000526536
0.000517678
0.000579154
0.00071638
0.0034822
0.000438732
0.00387948
0.000454223
0.0129715
0.000439699
0.000444415
0.000458134
0.00304754
0.00284815
0.000449957
0.0143306
0.000465585
0.000465043
0.000436246
0.000678614
0.000446922
0.000440131
0.000466783
0.000497806
0.00372954
0.000526135
0.000468442
0.0121139
0.000447628
0.000433329
0.000433212
0.00358438
0.000855761
0.00190302
0.000449318
0.000423476
0.015215
0.00283272
0.000433176
0.00043319
0.000430672
0.000433209
0.000433119
0.00750563
0.00338727
0.000445739
0.000426098
0.000528709
0.00735149
0.000434937
0.000449272
0.0150954
0.00950874
0.00159447
0.0120628
0.000583644
0.0004439
0.00620063
0.000533871
0.000477121
0.000526582
0.000449686
0.00294145
0.000451089
0.000471388
0.000504189
0.000445746
0.000433286
0.000451095
0.000449665
0.000439216
0.00663068
0.0200616
0.000436546
0.00043334
0.000444928
0.000433407
0.00045145
0.000463117
0.000466562
0.000436757
0.00582759
0.00865733
0.000447658
0.000447789
0.00433174
0.000431778
0.000587507
0.00817904
0.000431875
0.00487179
0.000438847
0.0116129
0.000429632
0.000451571
0.00044595
0.000443229
0.000782627
0.000446185
0.00404083
0.000456659
0.018235
0.000429567
0.0106465
0.00376244
0.000433571
0.000484847
0.000451154
0.000451737
0.000453075
0.000451021
0.000438455
0.000444472
0.000666383
0.000523948
0.000470269
0.000450928
0.000448864
0.0131007
0.00189061
0.000440404
0.000429429
0.000451922
0.0101016
0.000654738
0.00943958
0.0123256
0.000497866
0.00438761
0.000447564
0.00909147
0.013251
0.00146504
0.000463292
0.000452763
0.0135965
0.000444805
0.000475763
0.000577637
0.000437192
0.0129031
0.000445793
0.000471582
0.000431083
0.000456075
0.000440404
0.000467746
0.000466824
0.000467738
0.000436503
0.000526616
0.00890624
0.000447776
0.000444789
0.010875
0.00906011
0.0108703
0.0119326
0.000431854
0.000445908
0.00969894
0.00157095
0.000432008
0.000452123
0.000447762
0.000489886
0.000469112
0.000631144
0.000574715
0.000565736
0.000471177
0.00762222
0.000440981
0.000447882
0.000453834
0.00104298
0.00043585
0.00260856
0.000471091
0.00899736
0.000447465
0.000638296
0.000425813
0.018119
0.000436612
0.00182823
0.00356757
0.000470503
0.000447745
0.00700383
0.000431331
0.00929013
0.000763436
0.000436428
0.0191037
0.0004463
0.00599412
0.000437262
0.00240596
0.00795078
0.000450433
0.0165384
0.000539781
0.000449097
0.0112941
0.00114842
0.000449993
0.00076497
0.000446056
0.00054581
0.00147372
0.000445837
0.000455751
0.000450926
0.000443422
0.000442207
0.000441334
0.015295
0.00137708
0.000447653
0.00044119
0.000444327
0.000483704
0.000865799
0.00043135
0.000426228
0.000651819
0.000632561
0.000443299
0.000450238
0.0117956
0.00977786
0.00123647
0.000645793
0.00803092
0.000433839
0.000431409
0.000459186
0.000442096
0.000431434
0.000445856
0.000431551
0.000433639
0.00457539
0.000446272
0.000471693
0.00681497
0.000484326
0.000440044
0.000450428
0.0113214
0.000458581
0.00267264
0.000431212
0.000448194
0.000431572
0.000433089
0.00045056
0.00044645
0.0116056
0.000491238
0.00995434
0.000448157
0.000464913
0.000427571
0.00044671
0.000578601
0.0110041
0.000447759
0.0121204
0.000440322
0.000442842
0.000444105
0.000446367
0.000439694
0.000447106
0.013082
0.0121729
0.000439732
0.011673
0.000644242
0.000450078
0.00049159
0.000517354
0.0107693
0.000456799
0.0097968
0.0102864
0.00925155
0.0004464
0.000451721
0.000353085
0.000449219
0.00854151
0.000434171
0.00044683
0.00044788
0.000455847
0.000461778
0.000827533
0.000487193
0.000445619
0.000448592
0.000525166
0.000489078
0.0004476
0.0150513
0.000465728
0.000456757
0.0101807
0.000445694
0.000492989
0.000695232
0.000440927
0.0126016
0.000443136
0.00043303
0.0004845
0.000431361
0.000446393
0.000674336
0.0132373
0.016224
0.000444801
0.000451559
0.00045149
0.00763483
0.00901507
0.000447384
0.000447343
0.000444738
0.000496091
0.0139557
0.000440705
0.000435724
0.000444037
0.000443537
0.00044722
0.000457486
0.000434739
0.000488196
0.000440929
0.000444568
0.000450857
0.00953562
0.000434951
0.00045312
0.000439194
0.000463811
0.000508719
0.000500034
0.000509052
0.00104193
0.000450383
0.000503266
0.012838
0.00448141
0.00837639
0.000439964
0.00044373
0.000417808
0.000448078
0.0116592
0.000431834
0.0137988
0.000454003
0.0121265
0.000640974
0.000453897
0.00347121
0.000439483
0.000500311
0.000442228
0.000439265
0.0124407
0.000431276
0.00112655
0.000424929
0.000454687
0.000443944
0.000779168
0.000446503
0.000433442
0.000606188
0.000489878
0.00505961
0.00868307
0.0131386
0.0103695
0.000434994
0.00292959
0.000428038
0.0135226
0.014983
0.00044208
0.000401051
0.000429862
0.000464948
0.000453712
0.000431403
0.00044231
0.00046287
0.00778335
0.000445333
0.000496534
0.000446778
0.000433429
0.000433935
0.00771751
0.0104128
0.00192104
0.000516395
0.000457141
0.00542066
0.00797937
0.000437488
0.00990156
0.000465159
0.00057244
0.000448015
0.00639828
0.000443348
0.00044707
0.000449972
0.00782638
0.000466949
0.0119962
0.000435273
0.000464678
0.000440428
0.000423575
0.00835504
0.00178024
0.00044063
0.000664274
0.000448865
0.000438801
0.0004264
0.00956419
0.000445196
0.000449748
0.00043167
0.000440646
0.00105173
0.000426771
0.000635874
0.000441016
0.000440598
0.0129473
0.000499627
0.000447216
0.000505238
0.00106262
0.000924373
0.000700566
0.000439521
0.000454231
0.00838946
0.00132461
0.000457855
0.000450785
0.000447857
0.000439888
0.000441874
0.00077777
0.000519759
0.000453009
0.00893512
0.000467182
0.00808945
0.00966932
0.000498133
0.000465418
0.000716496
0.00578903
0.000438654
0.000449179
0.00073476
0.000440807
0.000436564
0.000434
0.000440399
0.000446549
0.0031074
0.000464704
0.000439704
0.000559759
0.000435405
0.0102814
0.000438728
0.000440763
0.0130833
0.000501529
0.00917185
0.000450522
0.000432949
0.000440185
0.000451033
0.000457409
0.000442914
0.00318933
0.000458895
0.0117958
0.00957609
0.000445896
0.0131352
0.000451462
0.000441584
0.000440802
0.00892813
0.0164934
0.000454573
0.003354
0.0152929
0.000440467
0.000440492
0.000450517
0.00948312
0.0061274
0.000466996
0.000450904
0.000452976
0.000580351
0.000446913
0.000629927
0.000464811
0.000447708
0.00045
0.000442082
0.000457214
0.000448338
0.00132394
0.000452193
0.000478423
0.00325236
0.000438896
0.0155269
0.000450426
0.000462234
0.000454308
0.00119672
0.000438293
0.000494246
0.0100457
0.0105131
0.00044841
0.000452313
0.000451574
0.000447637
0.000450812
0.000458996
0.000451132
0.0059049
0.000636361
0.000439234
0.00172923
0.000455359
0.000455642
0.000672709
0.000445965
0.000500053
0.00764944
0.000433809
0.000501795
0.000546951
0.000464633
0.000441146
0.000439953
0.00044175
0.00219822
0.000449889
0.000438885
0.00047118
0.000442939
0.000440241
0.000624819
0.00460489
0.000469319
0.0106577
0.000484496
0.00981836
0.000450646
0.000448515
0.00452747
0.000441851
0.000576348
0.000437123
0.000436864
0.000450082
0.000452634
0.000503979
0.000441111
0.00212431
0.000443434
0.0147637
0.000450515
0.000456662
0.000431376
0.000528584
0.000451974
0.0113745
0.000477128
0.000438586
0.00928183
0.000449999
0.00593494
0.000453627
0.000526467
0.000446186
0.000439408
0.000448365
0.0128096
0.000456993
0.00114155
0.0100957
0.000447578
0.000464826
0.00042601
0.000443358
0.00998506
0.000426086
0.00580367
0.000453343
0.000513616
0.000596087
0.00488706
0.000434595
0.000437362
0.00060747
0.00043926
0.000446741
0.000449896
0.00044351
0.000471125
0.000434545
0.000557205
0.000447599
0.00303579
0.00573194
0.00391982
0.0101289
0.0119085
0.0021653
0.0115743
0.000439708
0.000438996
0.000448808
0.000449706
0.000444768
0.000457277
0.000445233
0.000194353
0.000446809
0.00618617
0.000449796
0.000460743
0.000568134
0.000439619
0.000471569
0.000450015
0.000440321
0.000455056
0.000431226
0.013178
0.000530339
0.0010283
0.000440208
0.000450724
0.000444603
0.000443728
0.010087
0.000439958
0.0012517
0.000443265
0.0104516
0.000450783
0.000444265
0.000496461
0.000451792
0.000440033
0.00921124
0.00940706
0.000450048
0.00052779
0.000438795
0.00109026
0.000430952
0.000443724
0.00616256
0.000438618
0.000450748
0.000556845
0.00534131
0.000430444
0.0166835
0.00580605
0.000437022
0.000446398
0.000443637
0.00734622
0.000450676
0.000631492
0.000448832
0.0127802
0.000451386
0.013935
0.000441373
0.000430024
0.00938272
0.000449449
0.000433846
0.0125234
0.000449156
0.000441923
0.0183003
0.000436706
0.000439514
0.000517843
0.000449683
0.0118298
0.000468765
0.000517046
0.000593091
0.000452875
0.0126896
0.000447944
0.000509027
0.000448693
0.00712026
0.0102668
0.000450774
0.000431302
0.000439585
0.000447471
0.000431848
0.000434765
0.000437042
0.000448456
0.000457763
0.000433899
0.000448998
0.000516439
0.0082075
0.0114924
0.000541601
0.000444656
0.00881124
0.000444926
0.00378557
0.0125068
0.000305615
0.000432644
0.000439758
0.00044838
0.000445847
0.000432446
0.000431718
0.00044603
0.000466927
0.000442048
0.00105189
0.0175838
0.00044172
0.0127243
0.000448897
0.000441525
0.000447085
0.0100642
0.000497246
0.000433321
0.00885882
0.000439295
0.000441058
0.00246411
0.000439622
0.00872222
0.000450959
0.000638184
0.000440429
0.000436473
0.000458928
0.00102113
0.000450288
0.00923063
0.000480492
0.000446717
0.000446561
0.000450743
0.000439957
0.000555302
0.000463845
0.00045273
0.0100682
0.00155655
0.000599676
0.000567291
0.000436757
0.00938455
0.000436224
0.0127763
0.00050233
0.00045606
0.000450102
0.0162824
0.016772
0.00654449
0.000430207
0.0138918
0.000431738
0.000445348
0.000465029
0.000447461
0.000448733
0.0038761
0.00495191
0.000436397
0.000457399
0.00715755
0.000424729
0.000432223
0.0119152
0.0113182
0.00044957
0.00042792
0.000455611
0.000449834
0.000440843
0.000459162
0.000451193
0.000448981
0.00880893
0.000428146
0.000393733
0.0121919
0.000468008
0.00743834
0.00045059
0.000449641
0.000167077
0.00523478
0.0036955
0.00039754
0.000460358
0.000451464
0.000450887
0.000431547
0.0113787
0.000377782
0.000444843
0.000484741
0.000443477
0.0103664
0.000524095
0.000618301
0.000492964
0.00368166
0.00418414
0.0108273
0.0123838
0.000459045
0.00303631
0.000432259
0.000493658
0.000530525
0.00812803
0.000453322
0.00043932
0.000453686
0.0053435
0.000449069
0.0108421
0.00046374
0.000554002
0.0118338
0.000436619
0.000570723
0.000450159
0.000445995
0.000445086
0.000306136
0.000430088
0.000438648
0.000450176
0.00775392
0.000441796
0.000449135
0.000453682
0.000448015
0.000447257
0.000568367
0.00050863
0.000444866
0.000439982
0.000534284
0.000330305
0.000465129
0.0129324
0.000449959
0.000449913
0.0147766
0.000438906
0.000449319
0.0125336
0.00807532
0.000453887
0.000493972
0.000453035
0.00204606
0.00178622
0.000460316
0.00895484
0.000440607
0.000533719
0.00944096
0.00100818
0.0114708
0.0166131
0.000433489
0.000444443
0.000463558
0.000447495
0.000444545
0.00146934
0.000438176
0.000474844
0.000436082
0.000489513
0.011212
0.000449638
0.00813702
0.0114075
0.000449703
0.000519885
0.000451754
0.000449233
0.00044757
0.00903711
0.000514229
0.00595915
0.000455065
0.00635092
0.000550024
0.000431357
0.00333965
0.000464047
0.000496157
0.000444087
0.00131636
0.000447665
0.000452751
0.000465185
0.000451264
0.000451559
0.000487825
0.0137683
0.000444761
0.00241838
0.000664517
0.000446621
0.000444632
0.000437405
0.00616573
0.00406453
0.00043882
0.000460102
0.000337591
0.00801087
0.00274692
0.000448788
0.000441635
0.000433377
0.000450822
0.000464575
0.000450289
0.00673128
0.000444057
0.000453311
0.000302366
0.000340235
0.000539737
0.0115545
0.00787665
0.000450682
0.000441935
0.000441614
0.000448767
0.000508629
0.0129516
0.00111413
0.000572892
0.000457508
0.000480661
0.000453441
0.000811146
0.000452223
0.000597341
0.000439054
0.00101929
0.000305878
0.000438022
0.000450802
0.0118106
0.000479582
0.000337594
0.00825198
0.000658734
0.000440338
0.0031345
0.00045104
0.000446704
0.0105132
0.0098027
0.000439001
0.0004545
0.000593625
0.000461638
0.000450117
0.000434338
0.000444689
0.000439774
0.000447823
0.000458255
0.000482342
0.00505363
0.000462518
0.000454489
0.000460818
0.00054463
0.000439692
0.000462186
0.00157493
0.0010857
0.0079738
0.000448457
0.000434113
0.00769551
0.000442189
0.00177095
0.00045097
0.00047158
0.00044807
0.000442233
0.00312683
0.000454445
0.000448283
0.000450929
0.018587
0.00420209
0.00775448
0.000443336
0.000444542
0.0173403
0.000432848
0.000433979
0.000608598
0.0118844
0.000454362
0.000462671
0.000450021
0.00779581
0.000447065
0.000448755
0.000451733
0.000434108
0.00105218
0.000446888
0.000439869
0.0054381
0.000491367
0.0174838
0.00110314
0.000446279
0.000459117
0.000440455
0.000440148
0.000446529
0.000451353
0.0004477
0.00087674
0.00044876
0.000517455
0.000445338
0.000501759
0.000449914
0.000463024
0.000441205
0.00915584
0.000430474
0.00571478
0.000509395
0.000451742
0.000483496
0.000462442
0.000459401
0.000446673
0.000444382
0.00044136
0.000437766
0.0072248
0.000464366
0.000338544
0.000438948
0.00043981
0.000432876
0.000538919
0.000443695
0.011978
0.00047523
0.000436732
0.000448427
0.000436765
0.000474957
0.000218443
0.0144067
0.000601837
0.0103566
0.000475199
0.000574455
0.000448687
0.0111229
0.000436085
0.000430481
0.000452452
0.00156523
0.000437017
0.011226
0.00044562
0.000439709
0.00063602
0.00190503
0.00203369
0.00181251
0.000453932
0.00263616
0.000152709
0.000434521
0.0112891
0.000449106
0.000429937
0.0106831
0.000436211
0.0118062
0.000695734
0.000443217
0.000448543
0.000434711
0.0130132
0.000434981
0.000434324
0.000519412
0.000446251
0.000440277
0.000430066
0.000434179
0.000474918
0.000450013
0.000446984
0.000439218
0.0121631
0.000149098
0.000439471
0.00043951
0.000449368
0.000448177
0.000453256
0.000443735
0.000438413
0.000449901
0.000446152
0.000448597
0.000447831
0.000504114
0.000436531
0.000529768
0.000444409
0.00048217
0.000438558
0.00044769
0.000443073
0.000431006
0.000464643
0.000450975
0.000454634
0.0177904
0.000474456
0.0129922
0.0115895
0.000528808
0.0102738
0.000444605
0.000447713
0.00868152
0.0127246
0.000433077
0.00760541
0.0004375
0.000621344
0.0146883
0.000452735
0.000534511
0.00995233
0.0191132
0.000437738
0.000476956
0.000441671
0.011131
0.000453074
0.0125294
0.00246278
0.000448228
0.00028815
0.00535218
0.000438177
0.00727872
0.00530785
0.000450071
0.000442637
0.00076499
0.0084786
0.000434483
0.000461371
0.000446334
0.00563698
0.000659208
0.000446666
0.000438523
0.00594145
0.000439871
0.00044984
0.000450597
0.000438699
0.00590366
0.000453314
0.000457138
0.0100289
0.000447911
0.000493465
0.000451024
0.000818846
0.000488377
0.00476991
0.000438311
0.000456408
0.000430258
0.00044047
0.000453891
0.000446707
0.00835863
0.000449117
0.000439055
0.000445134
0.00423666
0.00044237
0.0057344
0.0103952
0.0175112
0.000443302
0.000439165
0.000446915
0.0161619
0.000447044
0.00842326
0.000438023
0.00688706
0.000449405
0.000439829
0.00220899
0.000446605
0.000437803
0.00797051
0.000598388
0.0112355
0.000439239
0.0119223
0.0090715
0.000445536
0.00894208
0.000445932
0.00045036
0.00773451
0.000448642
0.000471681
0.00583313
0.000456541
0.00050662
0.000450168
0.00710427
0.000449386
0.00551114
0.000447043
0.00476343
0.000449652
0.000450641
0.000445706
0.0136657
0.000439387
0.000472714
0.000502089
0.0130931
0.000446282
0.000456283
0.012762
0.00066014
0.00638225
0.000527386
0.000438295
0.000601901
0.00539132
0.000449784
0.00594047
0.000430081
0.000713777
0.00271942
0.000439558
0.00283668
0.000448423
0.0113743
0.00481403
0.0004509
0.000446707
0.00635139
0.013961
0.000450638
0.000450751
0.000438797
0.000446396
0.0107182
0.000504158
0.00238178
0.000442892
0.000455263
0.0120308
0.000243091
0.0130463
0.00595578
0.000445572
0.000449045
0.000884474
0.0121135
0.0113223
0.0144914
0.000885825
0.000466966
0.000456397
0.0125501
0.01038
0.0129766
0.000442594
0.000531448
0.000474579
0.0005154
0.000447375
0.000455987
0.000495045
0.00108835
0.0171548
0.000437162
0.00213234
0.00973714
0.000472799
0.000449872
0.00044977
0.00141491
0.000439091
0.0131483
0.000455917
0.000429658
0.00369995
6.78214e-05
0.000439251
0.000464324
0.000458614
0.000447624
0.0127393
0.000419802
0.0131207
0.000438021
0.00982301
0.00336582
0.00094529
0.000430696
0.000453874
0.000457583
0.00339397
0.000623708
0.000506938
0.0108219
0.00248586
0.000426095
0.000453474
0.00043994
0.00064341
0.00274029
0.000429581
0.000438933
0.000450028
0.00450239
0.00298527
0.000438589
0.000480812
0.00392759
0.000442098
0.000107735
0.000450137
0.0130717
0.000451637
0.0103108
0.00861757
0.000456866
0.000450172
0.00562228
0.000444402
0.000477095
0.00813325
0.000474655
0.0005294
0.000461289
0.00049079
0.0118285
0.0118406
0.000450076
0.0173947
0.00182364
0.00043637
0.000652517
0.000506634
0.000622178
0.00777546
0.00679157
0.0156476
0.000596301
0.00882766
0.000454525
0.000503965
0.000426456
0.00045054
0.000447583
0.000441228
0.0022956
0.000990227
0.000430471
0.000478852
0.000798915
0.000444376
0.011563
0.0118908
0.000427127
0.000446937
0.000425552
0.000448198
0.000474234
0.000449361
0.00597164
0.000458353
0.000512594
0.000451422
0.000512097
0.000472196
0.00045922
0.00400435
0.000447389
0.000448354
0.000430209
0.000438355
0.01262
0.00055832
0.000455751
0.00877717
0.000442998
0.000446549
0.000458999
0.000437771
0.000436904
0.000522946
0.000453708
0.00755099
0.0181921
0.0131073
0.000450718
0.0170891
0.000446374
0.00312472
0.000438954
0.000687768
0.015465
0.000443696
0.00320717
0.00697049
0.000459856
0.000448005
0.000432536
0.000455125
0.0105808
0.000438462
0.000449925
0.000445805
0.00046049
0.00087038
0.000452492
0.000453779
0.000445198
0.000443663
0.00604451
0.000462747
0.000448187
0.000644445
0.000693374
0.0126966
0.0144919
0.000450022
0.000447259
0.00797801
0.000447168
0.000504149
0.000450785
0.0106345
0.00044178
0.000443938
0.000453924
0.0114987
0.000449261
0.000438038
0.000435802
0.000684206
0.0012312
0.000632548
0.000450951
0.000448851
0.000441903
0.00972492
0.000422031
0.00721134
0.0004898
0.000443157
0.00143059
0.00046025
0.00212338
0.000451861
0.00043403
0.000457919
0.000471206
0.000622518
0.000449808
0.00044712
0.000441596
0.0109056
0.00044406
0.000451668
0.0117592
0.000449364
0.000279165
0.000453191
0.000440695
0.000438763
0.0144468
0.000453341
0.0105448
0.00653979
0.000429791
0.00611548
0.000448169
0.000594621
0.000478961
0.000452554
0.000430953
0.000429535
0.000449169
0.0182616
0.000477606
0.00892409
0.0101497
0.000441362
0.000520309
0.000466383
0.00565737
0.000448711
0.00992408
0.0120728
0.0098506
0.000439754
0.000450945
0.000449561
0.0081277
0.0126067
0.000431511
0.000450569
0.000459251
0.0044833
0.000449867
0.00045107
0.000448425
0.000612987
0.00511631
0.000436425
0.0114193
0.000453335
0.000449719
0.00946974
0.000489443
0.00790608
0.0149191
0.000459542
0.000450624
0.000451788
0.00045309
0.000447325
0.000523523
0.000477266
0.000438577
0.000452953
0.00170936
0.0170008
0.00043839
0.000609445
0.0173395
0.0098
0.000438577
0.000448649
0.0054337
0.00822177
6.63557e-05
0.000442573
0.0181859
0.000504545
0.000429943
0.00497025
0.000454811
0.000445606
0.00135238
0.000443439
0.000497378
0.000438843
0.000429067
0.000443378
0.000435852
0.011571
0.000430718
0.000444483
0.000526041
0.000454467
0.000449934
0.000670004
0.00044653
0.000450853
0.000449573
0.00044878
0.00987282
0.0105342
0.00446499
0.0169143
0.000462606
0.0072117
0.000404014
0.0118868
0.0181675
0.0116725
0.000440541
0.00045654
0.000448979
0.000445386
0.000438262
0.000439493
0.000859287
0.000492617
0.000466462
0.000444138
0.000449186
0.000488053
0.00044968
0.000446677
0.000446253
0.0103062
0.000458907
0.00185949
0.000451127
0.00710868
0.000447278
0.000443646
0.000445874
0.000472089
0.000442941
0.000543941
0.0100643
0.000469823
0.00727783
0.0155292
0.000467961
0.000455377
0.00441744
0.00061569
0.000431119
0.000438
0.000429637
0.0100892
0.000428773
0.000111922
0.000686962
0.000526728
0.00666422
0.00890802
0.000502087
0.0128355
0.000434279
0.000435714
0.000430334
0.00796648
0.000447309
0.000450327
0.0126928
0.000442661
0.00363935
0.000451422
0.000424457
0.000452215
0.000449304
0.00051545
0.0100614
0.00820895
0.000453291
0.000440163
0.000531236
0.000450072
0.000529365
0.00044124
0.000674661
0.000550708
0.000446807
0.000445504
0.000430081
0.00060319
0.000486402
0.00090255
0.00633531
0.000457394
0.00929407
0.0005177
0.000596116
0.0111357
0.000446595
0.0106182
0.000449554
0.0101236
0.00297734
0.010195
0.0111993
0.00044018
0.000486701
0.000447031
0.000443055
0.00562697
0.000446522
0.000448595
0.000455364
0.000450005
0.000459793
0.00189935
0.00535564
0.00936398
0.000454054
0.000468229
0.000448874
0.00044315
0.000450129
0.000649227
0.000543034
0.0134885
0.000473662
0.000430674
0.000438972
0.000445498
0.00112237
0.000450195
0.00044568
0.000452495
0.000544871
0.000460471
0.000472289
0.000455761
0.0113133
0.000457015
0.000461923
0.000448863
0.000455359
0.00310804
0.00424269
0.000476794
0.000437517
0.00983382
0.00046139
0.000442433
0.000479415
0.0112578
0.0128066
0.000460728
0.000442796
0.0108672
0.00044697
0.000442239
0.000430605
0.0122768
0.00649591
0.000455768
0.00784318
0.0105226
0.00046416
0.000460597
0.000495575
0.0131512
0.000458278
0.0125463
0.000446866
0.0631671
0.000424462
0.0122555
0.000462309
0.000437836
0.0120268
0.000448577
0.000448543
0.0112278
0.00824984
0.000668033
0.0043654
0.000453838
0.000450694
0.00779129
0.00044268
0.000446136
0.000450455
0.000474626
0.000448477
0.000456821
0.000475212
0.00954374
0.00628321
0.000450335
0.00573156
0.000463424
0.0111452
0.00767393
0.000450109
0.000449583
0.000454607
0.00253169
0.000858428
0.00050667
0.0109043
0.0109697
0.00178866
0.000441441
0.00752985
0.00682706
0.00048444
0.00602025
0.000446441
0.000442966
0.0004512
0.000447838
0.000447036
0.00046221
0.00822289
0.000456114
0.0039111
0.00321684
0.0069269
0.013327
0.0127342
0.00045262
0.0127476
0.000597662
0.000518576
0.000438648
0.000443403
0.000507863
0.00588531
0.000445016
0.0111128
0.0125107
0.000440616
0.000449435
0.000439052
0.000556352
0.000447145
0.000518231
0.0105765
0.000438096
0.000449891
0.000440567
0.00044947
0.000570038
0.00947181
0.00046427
0.00870835
0.000611331
0.000444965
0.00995323
0.000642292
0.000436307
0.00384938
0.0058729
0.0134249
0.00769274
0.00726627
0.000443159
0.00775671
0.00992084
0.00079599
0.00936941
0.000438398
0.000449359
0.000451037
0.000452767
0.0107053
0.000505723
0.000449378
0.000454995
0.00527013
0.0095776
0.000441221
0.000472678
0.0131294
0.012693
0.000450253
0.000455119
0.00059549
0.000448185
0.000449763
0.0161431
0.000444154
0.00128293
0.00872152
0.0109717
0.000442908
0.000520822
0.000706822
0.000442179
0.000429938
0.0192401
0.0104209
0.0004434
0.000459365
0.000799026
0.00101977
0.0129228
0.00700996
0.000453271
0.0111347
0.00853944
0.000462861
0.000445096
0.000619302
0.00043545
0.000430279
0.00732348
0.000465518
0.000565368
0.000452969
0.000447284
0.000439317
0.000435059
0.00045025
0.000450431
0.00920278
0.000452714
0.00556034
0.00318123
0.000473295
0.000514548
0.0108295
0.0120499
0.00959104
0.000430784
0.000453465
0.000463394
0.000452891
0.00243855
0.0104327
0.00045045
0.0052124
0.00874692
0.000453784
0.00055537
0.000522547
0.000575552
0.000599222
0.000450927
0.000635155
0.00067285
0.000717458
0.000779053
0.000608373
0.000537779
0.000449152
0.000444257
0.000461584
0.000553922
0.000443349
0.00335055
0.0129282
0.00526652
0.0120217
0.000429922
0.000437252
0.0237013
0.0100156
0.000450369
0.000449794
0.000500292
0.010758
0.0124005
0.000446454
0.000457177
0.000453454
0.00539317
0.00791014
0.000453551
0.00352128
0.00969143
0.000579587
0.0126246
0.000567706
0.0111906
0.0128941
0.000425953
0.0124696
0.010335
0.00044865
0.000514782
0.000578999
0.000450107
0.000439143
0.00357341
0.0181548
0.000435884
0.000436004
0.0125054
0.00481996
0.00053182
0.00044759
0.00149541
0.000665512
0.0123966
0.00713124
0.00044971
0.000449187
0.000450289
0.000448161
0.0122672
0.0139098
0.0120327
0.000539892
0.00284823
0.0116853
0.000447652
0.000442869
0.00943807
0.000438145
0.0125769
0.00042624
0.0126991
0.00045055
0.00044752
0.0118156
0.000444178
0.000607427
0.00473242
0.000463175
0.000448645
0.000450667
0.000835141
0.00745658
0.00078783
0.0117739
0.00046112
0.000445305
0.000456496
0.000527496
0.0127485
0.0100289
0.00057646
0.00114643
0.000643587
0.00874942
0.00043483
0.000437712
0.000438205
0.000438657
0.00249803
0.000529422
0.00876174
0.000469308
0.000723912
0.000442885
0.00924279
0.00808406
0.00455212
0.000450782
0.000450838
0.000429134
0.0107318
0.000522399
0.0108863
0.0022184
0.000635597
0.00208327
0.00042989
0.000466215
0.000734644
0.00283209
0.00465645
0.000448499
0.000673912
0.000446329
0.000441765
0.000598546
0.0155982
0.00673983
0.00044572
0.000548645
0.00119842
0.0142054
0.00377126
0.0119413
0.0111073
0.000440191
0.000497253
0.000442665
0.000690371
0.00043896
0.000620488
0.000447298
0.000479722
0.0091924
0.00472818
0.000471696
0.000555396
0.0104762
0.000616168
0.000448137
0.0110008
0.000590282
0.000442033
0.000442719
0.0108463
0.000457193
0.000648332
0.0041506
0.010944
0.00501689
0.000456819
0.0109855
0.0100704
0.0162904
0.00340098
0.000460165
0.000599279
0.000572737
0.0116148
0.000304291
0.000450156
0.00597116
0.000483897
0.00264319
0.000454598
0.00747033
0.00470328
0.00658996
0.000455846
0.0126889
0.000451177
0.00829112
0.000776134
0.00709416
0.00231033
0.000442427
0.00042883
0.00907308
0.0123665
0.000485859
0.000449892
0.000470938
0.000454963
0.0104949
0.000601865
0.010191
0.000453274
0.0098794
0.000643597
0.0191751
0.000450118
0.00173387
0.0103028
0.000473883
0.000540105
0.000430121
0.000452835
0.000449804
0.0109944
0.000444454
0.000450819
0.0128226
0.00839325
0.000438387
0.0126136
0.000449696
0.000443535
0.000447104
0.000439007
0.000450359
0.00401949
0.0129729
0.000436795
0.00550616
0.000508676
0.000478442
0.00608209
0.000544678
0.000452952
0.000461565
0.000448205
0.0102493
0.000456259
0.0126518
0.000464412
0.00992013
0.00519567
0.000516049
0.00577371
0.0095208
0.000440197
0.00640539
0.000489707
0.000505882
0.000460847
0.000443137
0.000571551
0.000872482
0.000449771
0.0105036
0.000450057
0.0112583
0.000711613
0.0109619
0.000825119
0.000793701
0.0127564
0.000447443
0.00043869
0.000500524
0.000450026
0.000449703
0.000449787
0.000454423
0.000442629
0.00044626
0.000449761
0.000472271
0.000450433
0.000454113
0.000450016
0.000458479
0.000576583
0.000450786
0.0114971
0.00045064
0.000446388
0.000562204
0.000472504
0.000448901
0.000442178
0.00411432
0.000453457
0.00877708
0.000453462
0.00062168
0.000447739
0.000442716
0.000528661
0.0130444
0.000514877
0.000463228
0.000431931
0.0123955
0.000450058
0.000445711
0.000527659
0.00045272
0.000706815
0.0106088
0.00057674
0.011066
0.000470416
0.00491576
0.00044457
0.000448708
0.000502794
0.0111065
0.000495435
0.0005864
0.0107493
0.000454785
0.000448428
0.000456619
0.00153933
0.000491668
0.000449854
0.000583257
0.00056891
0.000505418
0.000450643
0.00045071
0.00211806
0.000503783
0.00612793
0.00893562
0.000448338
0.000515644
0.000449932
0.000474907
0.00760648
0.000447466
0.000841378
0.000434824
0.000543442
0.0188116
0.000449575
0.00044378
0.000447281
0.0126737
0.00111879
0.000449917
0.000537596
0.000608946
0.000449918
0.000443672
0.00163985
0.012623
0.00478682
0.00990881
0.00337018
0.000460168
0.00430719
0.000641637
0.000459663
0.00762971
0.000550317
0.00873365
0.00044824
0.000569837
0.000680254
0.000449113
0.00414195
0.000468136
0.000546477
0.000454518
0.000727673