/*--------------------------------*- C++ -*----------------------------------*\
| =========                 |                                                 |
| \\      /  F ield         | OpenFOAM: The Open Source CFD Toolbox           |
|  \\    /   O peration     | Version:  v2012                                 |
|   \\  /    A nd           | Website:  www.openfoam.com                      |
|    \\/     M anipulation  |                                                 |
\*---------------------------------------------------------------------------*/
FoamFile
{
    version     2.0;
    format      ascii;
    class       volScalarField;
    location    "100";
    object      p;
}
// * * * * * * * * * * * * * * * * * * * * * * * * * * * * * * * * * * * * * //

dimensions      [0 2 -2 0 0 0 0];


internalField   nonuniform List<scalar> 
13917
(
-0.0890917
0.00438311
-0.0707745
-0.0173572
0.00317144
0.00355932
-0.0273701
0.0150315
-0.0343794
-0.10628
0.0131037
-0.0114926
-0.00876953
0.0181382
0.000777456
-0.0873779
0.000569329
0.0104065
-0.0564498
-0.0905617
-0.00430658
-0.00119859
-0.0371782
-0.00108238
-0.0150098
-0.00242536
-0.0106737
-0.107381
0.00354453
0.000121813
-0.105938
-0.0521573
-0.0143487
-0.085523
0.00100498
0.0166003
-0.00608611
-0.00198129
-0.0281591
-0.0093287
0.000943848
0.00116595
-0.0305929
-0.0586405
-0.0578746
-0.00892858
-0.00483097
-0.141787
-0.000624239
0.000974462
-0.0112799
-0.025722
-0.0794586
-0.00639122
-0.0070918
-0.0283906
-0.101734
-0.0361814
0.00112452
-0.00389694
-0.0411392
0.00210344
8.38843e-05
-0.0149742
-0.0852266
0.00026946
0.00556802
0.0171635
0.011901
-0.0811723
-0.0817264
-0.0847044
-0.0160479
0.00109771
-0.00460975
-0.0119677
0.00157572
0.00106744
-0.0120426
-0.014526
-0.00319458
0.000501207
-0.0158234
-0.0783893
-0.00617367
0.00906867
-0.0514569
-0.00599642
-0.00900896
0.000569548
0.000659306
-0.0313273
-0.00270731
0.000853015
-0.00568616
0.00456734
-0.0257294
6.88692e-05
-0.00612427
-0.00903548
0.000354865
0.000324012
-0.00326544
-0.000121611
0.00149833
-0.0708125
-0.10308
0.0018801
0.00117989
-0.0123514
-0.00884708
-0.0862039
0.00258576
-0.14606
-0.0860511
-0.0106065
-0.0554109
0.000638773
-0.0677141
-0.0150401
0.000521328
0.00100821
0.00655533
-0.042495
-0.0764251
-0.0784527
-0.0153978
-0.00417835
8.98752e-05
-0.044282
-0.0398335
0.0138756
-0.0749989
-0.0101585
-0.0546973
-0.0192738
-0.0181872
-0.0730662
-0.00118812
-0.00199392
0.0101889
0.00104935
-0.0718638
-0.00275438
-0.0148021
0.00131282
-0.0813159
-0.00678578
-0.138391
-0.00651369
-0.00924667
0.000329538
-0.014578
-0.0151771
-0.0286359
0.000565393
-8.90906e-05
-0.0753888
0.000549249
0.000611981
-0.00498055
-0.0985876
-0.00264335
0.00377121
-0.110267
-0.012094
-0.080271
-0.144398
4.07265e-05
-0.000568067
-0.000757081
-0.0787818
-0.0344848
-0.0293653
-0.0176728
0.00050407
-0.0178123
-0.0230994
-0.0394402
-0.00221559
-0.0296293
-0.000894142
-0.0109549
-0.0435557
-0.0681064
0.015224
-0.0107361
-0.0408216
0.000146057
0.00818946
-0.0161243
-0.0566328
-0.0440986
-0.0913224
0.000826049
-0.0777299
-0.0168974
-0.0748874
0.000952021
0.000364819
-0.00577892
-0.0826296
-0.0733637
-0.00482064
0.00748103
0.00168547
-0.00953294
0.00103706
-0.025495
-0.00287933
-0.000323078
0.00432862
0.00485281
-0.142254
-0.0542921
-0.00194384
-0.0968531
-0.00342037
0.000786757
0.000789651
-0.157257
-0.0436566
-0.0396624
-0.00919518
-2.979e-05
-0.0201865
-0.0789746
0.000769611
0.000759165
0.000530732
0.000805728
0.000808379
-0.0852672
-0.135631
-0.0022094
6.42502e-05
-0.0287913
-0.0822838
0.000650012
-0.00908862
0.00134131
-0.0721713
-0.0454413
-0.0964139
-0.0125263
-0.00288301
-0.128949
-0.0300745
0.00194045
-0.047771
-0.00513852
-0.135674
-0.0153022
-0.0154205
-0.0192065
-0.00179533
0.000855313
-0.0154513
0.00226391
0.00112085
-0.077076
0.00950346
0.000996523
0.000745277
0.000668159
0.000744032
-0.0154158
-0.00898907
-0.026452
0.00103307
-0.0719345
-0.104252
-0.00911365
0.00193717
0.00231165
0.000771613
-0.0067043
-0.0771221
0.000775655
-0.0815232
0.00106903
-0.0952808
0.000448211
0.00021169
-0.00164342
-0.00221338
-0.0578591
-0.00129329
-0.0155813
-0.0145956
0.00392651
0.00140609
0.00677629
-0.071653
0.000657299
-0.0330253
0.00253552
-0.00948179
0.00268379
-0.0126222
0.000932732
-0.00129814
-0.0176873
0.00435877
-0.0154873
-0.0126962
-0.00893528
-0.0741338
-0.0824177
0.000181013
0.000539017
-0.00994735
0.00154962
-0.0635891
-0.0989117
-0.0328823
6.56931e-05
0.00936091
0.00174966
-0.0790224
0.00451733
-0.0705687
-0.00836646
0.000653016
-0.00842759
-0.000131909
0.00537111
-0.0557289
0.000526844
-0.0799181
-0.00604151
-0.0488836
0.000794377
-0.0855586
-0.0011946
-0.0165463
0.00168647
0.000464228
0.000672524
-0.0492822
-0.0738959
-0.00623667
-2.83516e-06
-0.0857942
-0.0746065
-0.0564944
0.0224124
0.000758848
-0.00293712
-0.0718945
0.00813025
0.000762476
0.00276583
-0.00877666
-0.00324029
-0.0164199
-0.0411353
-0.00423893
-0.00729661
-0.0469274
-0.0891659
0.000120225
-0.00656477
0.00372586
-0.0648768
0.000603236
-0.0905236
-0.0468648
-0.00580146
-0.00697547
0.00246304
0.000715594
-0.0155339
0.00110492
-0.0429701
-0.00176034
0.0028351
-0.00912212
-0.0793078
0.000807573
-0.107536
-0.045546
0.0011131
-0.00990947
-0.000853739
0.00384389
0.000558194
-0.0940237
0.00230622
-0.00779523
-0.0122926
-0.00619606
-0.00527347
-0.0893429
-0.0686244
-0.00866703
-0.0580753
-0.0036829
-0.00678374
-0.0699093
-0.00615938
-0.0306587
-0.0132126
-0.0025406
-0.00267084
8.58774e-05
-0.0213205
-0.0102396
-0.00674733
0.000293321
-0.00141035
-0.0274823
0.0155181
0.000768977
4.12839e-05
-0.0630503
0.00260892
-0.00220083
-0.00793373
-0.0245687
-0.0305149
0.000749165
-0.0577267
-0.0775897
0.000945501
0.000756991
-0.00381062
-0.00269062
0.000776295
-0.00204596
0.000765026
0.000927746
-0.143464
-0.00376422
-0.0100053
-0.0721142
-0.031714
-0.000320333
-0.014188
-0.0909614
-0.00517589
-0.0752798
0.000782655
-0.00932246
0.000835237
0.000830386
-0.00603087
-0.000429932
-0.0148541
0.00103287
-0.0721781
-0.00916273
-0.0375568
0.00106158
-0.00287606
-0.014817
-0.0520971
-0.00889184
-0.0331221
-0.000378487
-0.00247072
-0.00143184
-0.00102833
-0.000325632
-0.00493556
-0.0744239
-0.0413404
-0.000330048
0.0103602
-0.0627256
-0.00884247
-0.0319614
-0.0582105
-0.106145
-0.032608
-0.076727
0.0022788
0.0040193
-0.000580247
0.000317206
0.00127709
-0.00499211
-0.058181
0.000626336
-0.00656478
-0.00603538
-0.0322559
-0.0064793
-0.0661406
-0.0427769
0.00137682
0.00210126
0.00920613
-0.0085716
-0.00652337
0.0146974
-0.0300465
-0.0152367
-0.0882383
-0.00624306
-0.0080794
-0.0224924
-0.00180429
-0.0739336
-0.00258985
0.000828296
-0.0283951
0.000782902
-0.00321098
-0.0151557
-0.0725157
-0.0191421
-0.0050679
-0.0208836
0.00128349
-0.0438632
0.0208116
-0.00640352
-0.00686933
-0.00500742
-0.0211637
-0.0211655
0.000362907
0.000590131
0.00028701
-0.00270204
0.00243056
-0.0210191
0.0006499
-0.0423027
-0.00181664
-0.00163672
-0.0133449
-0.0943238
0.000530004
-0.0253634
0.00110259
-0.0369915
-0.035505
0.0002552
-0.0192577
-0.00813328
-0.0120453
0.0076981
-0.0748108
-0.143532
-0.0723033
0.000264315
-0.00126681
0.00147758
-0.00973024
-0.085281
0.000785243
-0.00489673
-0.0174654
-0.077819
-0.00796898
-0.0302836
-0.103344
-0.000250183
-0.0549982
5.49419e-05
0.00134156
-0.0777668
0.000771342
-0.069591
0.000149442
-0.00886115
-0.00124349
-0.06533
0.00247879
0.000698078
-0.059659
-0.0310025
-0.0103217
-0.0803
-0.074971
-0.106202
0.000510365
-0.0779913
0.000207878
-0.0252419
0.000598405
0.00135977
0.000667592
0.000466874
-0.0295824
-0.0292503
0.000775357
0.000109397
-0.00722542
-0.0803081
-0.0055782
-0.0508052
-0.00638433
0.000691984
0.000606112
-0.0128244
-0.0809743
-0.0971247
-0.0466404
-0.021601
-0.0713211
-0.0816122
0.000599288
-0.0584185
-0.00827909
-0.0619046
-0.0095259
-0.0783208
-0.00265103
0.00240342
-0.0151548
-0.0089943
-0.027967
-0.0897921
0.000599603
-0.026429
0.000823183
0.000403041
-0.0899079
-0.0138013
0.00100369
-0.0419833
-0.009039
0.0012194
0.000269671
-0.089763
-0.00573117
0.00245184
0.000776832
0.000936343
-0.0638613
0.000245923
-0.0458515
0.00045096
-0.00139685
-0.0342921
-0.0515132
-0.00631981
-0.071779
-0.0691022
0.00877034
-0.0197301
-0.000250335
0.00105532
-0.0938266
-0.0690325
-0.00434131
-0.00649796
0.00256358
0.000495551
-0.000289093
0.000371827
-0.034882
-0.0145329
-0.0921553
-0.0287292
0.013998
0.0180097
0.00443118
-0.019132
-0.0458293
-0.0821051
0.000920642
0.00321517
0.000403663
-0.0014951
0.000533573
0.000548704
0.00132716
-0.00388263
-0.0800992
-0.044136
-0.000450508
-0.0546503
0.000594295
-0.0991754
0.00108899
0.000173091
-0.0730856
-0.0361669
-0.00545918
-0.0160993
0.00077765
0.000418879
-0.0191107
-0.0288176
-0.00175774
-0.0734625
-0.0144333
-0.00862172
-0.00267319
0.00345866
-0.0728583
-0.0206663
-0.000122849
0.00089351
-0.0774864
-0.0103579
-0.0167824
-0.0743071
-0.0152051
-0.00121876
0.000213541
-0.0054676
-0.0732209
0.00036745
-0.0271927
-0.0186771
-0.0251207
-0.0624207
0.00157921
-0.0426779
-0.043846
-0.00560013
-0.0142912
-0.000232868
-0.0281891
0.00212247
-0.0690082
-0.008635
0.00117903
-0.0741038
0.00021268
-0.00956329
-0.00681414
0.00256095
-0.0197918
-0.0687231
0.000499936
-0.0545816
-0.0797314
-0.00128909
-0.0102053
-0.00914718
-0.00396884
-0.00895042
-0.015077
0.00308453
0.000962476
-0.0125924
-0.0449436
-0.000174871
-0.0695382
-0.0337526
-0.0321372
-0.044727
-0.00274686
-0.0545813
-0.0247514
0.00063269
-0.037049
-0.0123594
-0.0429273
-0.000517916
-0.000411201
-0.000228157
-0.0817574
-0.0138492
0.00115056
-0.0479355
-0.00176167
-0.000206062
-0.0297335
-0.0182559
0.00463164
-0.0320319
-0.00331812
-0.0715622
-0.0153636
0.00189332
-0.0732698
0.00136133
0.00180088
0.000617591
0.000495522
-0.0152742
-0.0077704
-0.000333374
-0.000475933
-4.24152e-05
0.000392064
0.00431155
-0.00722735
-0.0329522
0.000789677
-0.047648
0.000314886
-0.0869964
0.00472273
0.000757335
-0.0966861
-0.013847
-0.0775165
-0.0290338
0.0059744
0.00131233
0.0003362
-0.0101424
-0.0820534
-0.0270483
0.011632
-0.0258694
-0.00887348
-0.0428643
4.82755e-05
0.00189532
-0.0220165
5.58094e-05
-0.132915
-0.0264323
0.00534955
-0.0539218
-0.00608265
0.000716172
0.000385653
-0.00215553
-0.000174489
-0.00590888
-0.00934122
-0.00111868
-0.0477682
0.0007137
0.00278732
-0.00522971
-0.0856009
-0.0765356
0.0088956
-0.0717776
-0.0346075
-0.0858989
-0.000425441
-0.000794804
0.00119411
-0.0120544
-0.0115603
-0.00491834
-0.0277604
-0.00498284
0.0176604
-0.00604199
-0.0762801
-0.0138604
-0.0418258
-0.00312461
0.000468281
-0.00901957
-0.0135064
0.00141534
-0.0230197
0.000810962
-0.0726624
-0.035279
0.000725299
0.000252811
-0.0111885
-0.00033604
0.000455271
-0.0934503
-0.000906654
-0.0123118
-0.00277078
0.000951774
0.000484379
-0.00347727
-0.0551728
0.00179427
-0.000925232
-0.00327903
-0.0606559
-0.00356027
-0.0490505
2.21477e-05
-0.00990982
0.000817756
0.000344697
-0.089299
0.000350017
-0.0175565
-0.0536679
-0.0882722
0.000810489
-0.00834922
-0.0760552
0.00114448
0.00050125
-0.00109359
-0.0774271
-0.0108595
-0.0606806
-0.0120701
-0.0729982
0.000402481
0.0328636
0.000219102
0.00066682
-0.000614831
-0.00501794
0.000200449
-0.0745884
-0.00700371
-0.00216713
0.00450448
0.00115488
0.00117435
-0.0360242
-0.00836471
-0.0861336
-0.0103858
-0.0576532
-0.0175093
-0.0244154
-0.0745819
-0.00507265
-0.0364962
-0.0100295
-0.0735621
0.00221201
-0.0170744
0.000812336
0.00129429
-0.00664198
0.000816218
0.000933494
0.00100512
-0.0102608
-0.0198111
0.000631129
-0.00723538
-0.0515053
-0.123293
-0.0928909
-0.0525236
-0.000479018
-0.000431965
-0.00494869
-0.0732116
-0.0233602
-0.0716415
0.000811113
-0.00081019
-0.00757427
-0.00424527
0.000807582
0.00083344
-0.00671131
-0.0190117
-0.00227778
-0.0979806
0.0013108
-0.00158598
-0.0817767
-0.0102172
1.69861e-05
0.00189976
-0.0904203
-0.00737639
0.000565855
-0.0049514
0.00081119
0.000243029
-0.0702422
0.00121646
-0.0295703
-0.0180128
0.0078315
-0.000409542
0.0010226
-0.00626534
-0.00152527
-0.0122468
-0.081708
0.00113697
-0.0019911
0.000748332
-0.0114477
-0.000412016
-0.0585322
-0.0446325
-0.0141284
-0.0774381
-0.0984292
-0.00140171
-0.0593631
0.000992467
-0.0744332
0.00100727
-0.0130666
-0.0208824
-0.031331
-0.0116639
0.031269
-0.012896
-0.0716755
0.000739016
-0.00440427
0.000813967
-0.00518128
-0.0453102
-0.00513209
-0.011765
0.0179154
-0.0827608
0.00102797
-0.0381102
-0.08107
0.000139169
0.000783315
-0.00516139
-0.101487
-0.0116865
0.000181255
-0.0271172
-0.0136636
0.000286207
0.0033574
-0.00212918
-0.0119119
-0.00873562
0.00078214
-8.33643e-05
-0.0225527
0.00146924
-0.0745394
-0.0165063
-0.0134447
0.00138698
-0.090744
0.00116888
0.00061263
-0.00400954
-0.0198131
-0.0181209
0.000807497
-0.0859424
0.00119768
0.000344193
-0.0436801
-0.00261278
0.00203919
-0.0452385
-0.0619151
-0.0547455
-0.0369555
-0.000959081
-0.016235
-0.0809858
-0.00209601
-0.0405794
0.000793567
-0.0199471
-0.0272164
-0.0205376
-0.0219062
0.00133019
-0.0181535
0.0163215
-0.00570023
-0.0936549
-0.0238949
-0.0129803
-0.0424517
0.000494424
-0.0615142
-0.00849278
-0.00433543
0.00223672
0.00106051
0.000704904
-4.24537e-05
-0.0120091
-0.0723518
-0.00195026
-0.00655157
-0.0295701
-0.005418
-0.00831609
-0.00430564
-0.0568856
0.000220535
0.000292084
0.00202198
0.00156801
0.00327923
-0.0747524
-0.0153484
-0.0108422
-0.0242339
0.00114189
-0.00629865
-0.0818341
-0.0742547
0.0028054
-0.0177735
-0.00359267
-0.0724937
-0.0119993
-0.00691422
-0.0829633
0.000322501
-0.0319377
-0.118015
-0.0686641
-0.0162448
-0.0256815
0.000900756
-0.00161086
-0.00779794
-0.00838085
-0.0014772
-0.0691115
0.000466091
-0.0274438
0.000436474
-0.0540841
-0.0984097
-0.00789556
-0.0387261
-0.0327948
-0.010963
-0.0582017
-0.00138257
-0.00837026
-0.00863117
-0.0734023
-0.0452317
-0.0829724
-0.0109247
-0.104965
-0.0103801
0.000793713
0.00822029
-0.0255333
0.000754841
-0.00336718
0.00233547
-0.0088268
-0.00829041
-0.00315745
-0.0023162
-0.0202867
-0.0443439
0.0343983
-0.00508583
0.00067346
0.00611682
-0.0055933
-0.00466588
0.00137729
-0.0712278
-0.068529
0.000400812
-0.0412272
0.000413078
-0.00508397
-0.0721823
-0.0116142
-0.00217182
0.000898399
-0.0114446
-0.00447477
-0.00535506
-0.0714288
0.000411554
-0.0250862
0.000744143
0.000643113
-0.0513955
-0.101807
-0.088251
-0.0166834
-0.00126477
-0.00217467
-0.00703038
-0.0575382
-0.07252
0.000761359
-0.00252296
-0.00500363
-0.0434484
-0.0283989
0.000351659
-0.00761262
-0.0587041
0.000762639
-0.00886626
0.000612274
0.000479185
-0.016459
-0.084929
-0.0274915
0.00141727
-0.122389
-0.0106444
0.000353318
0.00233698
-0.00321226
-0.00724587
-0.0609505
-0.00736745
0.000792903
0.00303593
-0.0519141
-0.00930314
-0.0147744
0.000708646
-0.00476164
-0.00023392
-0.00891236
-0.0204191
-0.00988521
-0.0738206
-0.00966193
-0.0227916
-0.0372641
-0.00988781
0.00032415
-0.00582661
-0.0363996
-0.068526
-0.107145
-0.00466018
0.000736966
-0.0733399
-0.00226324
0.00240856
-0.0167435
-0.00933563
-0.00874168
-0.00238143
-0.0722602
-0.0197659
-0.00389444
-0.0110091
0.0382027
-0.074837
-0.0808337
0.000218325
-0.0020505
-0.021513
0.000633255
0.000928521
0.00301339
-0.012965
-0.0118743
-0.0302386
-0.0146927
-0.0734287
-0.00776341
0.000362301
-0.0204647
0.00072822
-0.0682912
-0.00759696
-0.000238626
0.0212724
-0.0504564
0.0393057
-0.0689366
-0.00689779
-0.0304131
-0.000279853
0.000386434
0.000917318
-0.0075912
-0.00869687
-0.0677821
-0.0113473
-0.0288294
0.00205464
0.00130911
-0.0140379
0.000758253
3.09939e-05
-0.0726242
0.000725956
0.0101931
-0.0507038
-0.00771476
-0.0441064
-0.0309235
-0.030384
-0.00694414
0.00173849
-0.00122177
0.000514965
0.00193407
0.0030318
0.00133321
-3.84837e-05
0.00084662
0.000889712
0.00802182
-0.00280166
-0.0968161
-0.0284425
0.00104548
-0.00865917
0.000584295
-0.0265208
0.000132447
-0.024185
0.00184544
0.00116567
0.00132523
-0.0115585
-0.00164434
-0.0878114
0.000460922
0.00071025
-0.0132739
0.00160313
0.000562297
-0.085223
-0.00398108
-0.000153389
0.0047445
-0.000797354
-0.073747
-9.97355e-05
-0.0192435
0.00736087
0.000577802
0.000931071
-0.0894732
-0.0103945
0.000427864
0.030833
0.000575354
-0.086216
-0.00011818
-0.00271932
-0.0103323
0.000938308
-0.073568
0.000681986
0.000721436
-0.0524942
-0.00695926
-0.000224964
0.000786715
0.000922394
-0.0444303
-0.0142338
0.00150128
-0.000582596
0.0079008
8.31179e-05
-0.000687094
-0.000702409
-0.0113782
-0.00842657
-0.0260764
3.66077e-05
0.00105446
-0.0148605
-0.00580907
-0.00724427
-0.00941347
0.00665065
0.000602147
-0.0464373
-0.00122287
0.00619175
0.000429141
-0.00884039
-0.00206915
0.000750803
-0.00855006
0.000321815
-0.0316088
0.0386024
0.00129599
-0.0748087
-0.0998311
-0.0504106
-0.0722419
-0.00186421
-0.00938876
-0.0182337
-0.00846055
0.000895564
-0.0797575
0.000523785
-0.0627363
-0.0230073
-0.0242405
-0.0431776
0.00407134
0.0200306
0.000339069
-0.0450006
-0.0016037
0.00305881
-0.0245501
-0.0821048
-0.0910302
-0.00975753
0.000801938
0.0016635
0.000592188
-0.0333292
0.00270219
-0.00914972
-0.00309225
0.0010059
-0.0757652
0.000925524
-0.0380866
-0.00356271
-0.0144074
-0.0118332
-0.0065273
0.000446544
-0.0726468
0.000411
-0.011016
-0.0169033
-4.40697e-05
-0.0330391
0.00126283
-0.0264659
-0.0748604
-0.00909287
-0.0026127
-0.0160627
0.00194415
-0.0204581
0.00314092
0.000457225
-0.0288251
0.000521853
-7.6619e-05
-0.0302855
-0.00677399
-0.0489404
-0.0085652
-4.00048e-05
-0.00529538
0.00296171
-0.00277858
-0.0131588
-0.0100669
-0.0038433
-0.000400373
0.000387913
-0.00760103
-0.0054948
-0.00597388
-0.0719927
0.000335939
-0.0242478
-0.00766667
0.00143416
-0.0722633
-0.00547734
0.000598366
-0.0756533
-0.0535049
-0.0864132
0.00125699
-0.0768625
-0.0223667
-0.00390277
-0.0798063
-0.00387651
-0.000198393
-0.10759
-0.00221644
0.00363233
-0.0878579
-0.00112732
-0.0445591
-0.013947
-0.0731175
-0.010836
-0.0159914
-0.00776791
-0.083159
-0.0111292
-0.00892881
0.00117499
-0.00104634
0.000359792
0.00129154
-0.00683603
-0.00314391
-0.00689
-0.00546321
-0.0769593
0.0127004
0.0192078
-0.0256537
0.00047302
-0.0446114
-0.0209294
-0.0034705
-0.0710994
0.000681449
-0.0410284
-0.0835353
0.00043957
-0.0725835
-0.00878953
-0.0762949
-0.0283455
-0.0107169
0.00113058
-0.0187429
-0.00887468
-0.0106656
-0.0162814
1.74525e-05
-0.00506824
-0.0798937
-0.0177056
-0.0712242
0.00021696
-0.0162669
-0.0853943
0.0011761
-0.0110119
-0.071473
-0.00627791
-0.0100193
-0.0677683
-0.00811443
0.0312462
-0.0129005
-0.067726
-0.00741413
0.00517575
-0.0807224
-0.103963
-0.0193649
-0.0030015
-0.0342854
-0.0254813
-0.0140099
-0.00833107
-0.0333392
-0.016373
-0.0101514
-0.00841355
0.00119454
0.0242225
-0.0758344
0.000324872
-0.0104726
-0.0106257
0.00698163
0.000508797
-0.0744513
-0.015472
0.000878936
-0.000676095
0.00156583
-0.000598624
-0.0247282
-0.029727
-0.00879752
-0.072658
0.00118256
-0.072476
0.000832568
-0.082371
-0.0743283
-0.0681722
0.000743368
-0.010773
-0.00109806
0.000348904
-0.00841203
-0.0496972
-0.0829054
-0.0173956
4.42843e-05
-0.0137481
0.00137828
-0.0478215
-0.0768184
0.000399597
-0.000481726
-0.0113544
0.0151619
0.00215114
0.000806837
-0.00966607
0.00452508
-0.00237165
0.000844159
-0.00489225
-0.073266
0.00078995
0.00392982
-0.0716965
-0.0257201
-0.00327015
-0.0735983
-0.00444259
0.00101679
-0.0998923
-0.00760608
-0.00572588
-0.0426863
-0.0493194
-0.00273372
-0.0771665
-0.0134521
-0.016159
-0.0139598
0.000555293
-0.0633691
-0.0341225
1.23114e-05
-0.0518275
0.00564555
-0.0186309
-0.0284867
-0.109064
-0.0123895
-0.0562889
1.53681e-05
-0.0159067
-0.00880348
-0.00131979
-0.0724172
-0.00974835
0.000709314
0.00537899
-0.0669269
-0.00434817
-0.0126987
-0.0886609
0.000103465
-0.00583878
-1.64952e-05
-0.00483128
-0.0447602
-0.0107748
-0.116208
-0.0290409
-0.0274604
-0.00151001
-0.0133375
0.0055333
0.00188787
0.025743
-0.00851277
-0.00492875
0.000689974
0.000715062
-0.0751702
-0.0608792
-0.00523314
-0.0756556
0.000268267
-0.00311992
-0.00048811
0.000501065
0.00100884
-0.0055306
-0.0192915
-0.0877147
0.0394183
-0.0240454
-0.0146865
0.00482516
-0.00710783
-0.0721283
-0.000498916
-0.0612116
0.0305699
-0.0030236
0.0157544
-0.0802555
-0.00469732
-0.00514059
0.000602976
-0.00892081
-0.0480282
1.69727e-05
-0.0152006
-0.00133731
-0.00237005
-0.0679053
-0.00814257
-0.0175923
-0.00559128
-0.000505767
-0.0729717
-0.0238775
9.81978e-05
-0.0488164
0.00393322
-0.0818111
-0.0302541
-0.00441646
-0.00309823
-0.095632
-0.00796023
-0.0432686
-0.0152994
-0.0783009
0.00126053
9.74995e-05
0.00367743
-0.0929829
-0.00997724
0.000495417
0.000467082
-0.0654567
-0.0960046
-0.0168257
-0.0104184
-0.0019093
-0.00207073
-0.0736704
5.64698e-05
-0.0785011
-0.0495804
0.000161473
-0.020476
0.00208917
0.00121761
-0.0209225
0.000926172
-0.0147396
0.0023696
0.00385864
-0.0146292
-0.00526442
0.00117714
-0.0901595
-0.00294648
-0.00889118
-0.0785703
-0.00722224
0.0011879
-0.0208536
0.000135862
0.000995433
-0.000432187
-0.0279546
-0.00158003
0.0037224
0.000622456
-0.0162256
-0.00907657
-0.0261991
-0.0134402
-0.00807636
0.000772773
0.000598601
-0.0105713
-0.0165607
-0.0462271
-0.0719271
-0.106248
-0.00123711
0.000778345
-0.00808851
-0.0755927
-0.0103575
0.000498898
-0.0780702
-0.0785115
-0.000508042
-0.0158577
-0.0134201
-0.00312738
-0.0804929
0.000896908
-0.00896575
-0.0289381
-0.134627
-0.0140831
-0.0167775
-0.0036457
-0.0626381
-0.0759089
0.000379766
-0.0977883
0.0011492
-0.0102807
-0.049592
-0.0483825
-0.0201593
-0.030977
-0.00620201
-0.000116358
-0.00851159
-0.00313077
-0.00479693
0.0100083
-0.00497118
0.00104175
-0.0218435
-0.0710893
0.0371044
1.92769e-05
-0.00759377
0.011646
-0.0333419
0.0011021
-0.011221
0.000718335
-0.0769235
0.0095881
-0.00132089
0.0114914
-0.0558523
0.000658413
-0.0749515
-0.0107088
-0.0030717
-0.00464311
-0.000969156
0.00131362
0.000420402
0.000537271
-0.000360259
0.000487162
-0.0887919
0.00073048
-0.00449277
-0.0425239
-0.0308765
-0.00273147
-0.0604634
-0.0060771
-0.0106353
-0.00907097
-0.00847606
0.00373655
0.00282417
-0.0743739
-0.0210394
0.0016253
-0.0192006
0.00427598
-0.0989828
0.0349719
-0.0897764
-0.000588676
-0.00060061
-0.0107717
-0.0036559
0.000804793
0.00126833
-0.0674737
-0.0525049
-0.00348133
-0.00406849
-0.010097
-0.0532905
-0.0139824
-0.00452289
-0.0052296
-0.0726513
-0.0137183
-0.0817038
-0.0143672
0.00289429
-0.00536432
0.00016415
-0.0012044
-0.0441542
-0.00255224
-0.033527
-0.0873307
-0.00637235
-0.0740303
0.00142785
-0.000543975
-0.0168541
0.00395522
-0.0148993
0.000784989
0.000803276
0.000612498
-0.10164
0.00050382
0.00668214
0.0010144
-0.0328241
0.0226827
0.0273927
-0.0489504
-0.0746714
0.000915866
0.000401858
0.00231464
-0.0732061
-0.00838469
-0.0140643
-0.0302323
-0.00308251
-0.021289
-0.00682556
3.65174e-05
-0.00706869
-0.0119841
-0.0301489
-0.0916718
-0.0870004
-0.0214188
-0.0004496
-0.004891
-0.0125006
-0.0111746
-0.0013003
-0.0633373
-0.0584611
-0.00482794
-0.00302991
0.000657474
0.0034587
0.00633294
-0.0677761
-0.0429849
-0.013723
-0.0781575
-0.0523131
-0.0619364
-0.0776351
-0.00729038
-0.107082
-0.012119
-0.072039
-0.0727619
-0.110093
-0.0816177
0.000497371
-0.0195919
0.00202854
-0.000556102
-0.087211
-0.00592582
-0.0108372
-0.0295373
-0.0149815
-0.0343516
-0.0697254
-0.0722918
-0.0841056
-0.018655
-0.00608484
-0.0083022
0.00042921
-0.0153404
-0.0075513
-0.0537651
-0.003253
-0.0137005
0.000734186
-0.000107009
-0.00126051
-0.0685937
-0.004017
-0.000391212
-0.0127183
-0.00633836
-0.0347555
0.00130696
0.00166157
-0.104218
-0.0133786
-0.0347739
-0.0105119
-0.0302372
0.0109503
-0.00123441
-0.00385765
0.000535669
-0.0456642
-0.0245827
-0.00131952
-0.0284767
-0.0878306
0.00277654
-0.00551752
-0.00298904
-0.0896488
-0.00492914
-0.00250916
0.000751344
0.0330939
-0.0763749
-0.00053245
-0.0285075
-0.0838983
-0.0067776
0.0017689
-0.0185004
-0.0722095
-0.0133941
-0.07968
-0.00430954
0.000273765
0.00145426
-0.0749671
-0.0290897
0.000727563
-0.083159
-0.00775626
-0.00824583
-0.0218575
-0.0722991
6.88343e-05
0.00823884
-0.0286173
-0.0162335
-0.0797522
-0.00160345
-0.0066721
-0.0137982
-0.0245211
-0.010102
0.00125302
-0.00735561
-0.00111857
-0.074432
-0.0165788
-0.0830023
-0.00749775
-0.0827444
-0.0751199
-0.0131137
-0.0138607
-0.028232
-0.0171559
-0.0677029
-0.0302329
-0.0872166
-0.108402
-0.0129358
0.00141768
-0.0728353
-0.0960325
0.00598629
-0.0772371
-0.00517753
-0.000871113
-0.0139757
-0.00406918
-0.00711599
-0.0356615
-0.0835547
0.00141721
0.00295734
-0.138072
-0.0710184
-0.0162356
-0.0813662
0.00124826
-0.075616
-0.0416999
-0.0529615
-0.000388222
-0.000659133
-0.0478449
-0.0747921
0.000552356
-0.0823856
-0.0833397
-0.000445675
-0.0131517
0.00119213
-0.00353129
-0.0047039
-0.0319491
-0.103569
7.71558e-05
-0.00925791
-0.000607426
-0.0122032
-0.058726
-0.0866292
-0.00209182
-0.074177
-0.0110197
-0.00537917
0.0043393
0.0052147
0.000625042
-0.0739388
-0.0754744
0.00364367
0.0234388
-0.0791068
-0.000853026
-0.0766022
-0.0831988
-0.00704612
-0.0771641
0.000744547
-0.00586028
-0.010282
-0.0250781
-0.0776463
-0.0275397
-0.01323
-0.015932
0.00197345
-0.080401
0.00139731
0.000672943
-0.0732538
-0.0824419
-0.0155072
-0.00832089
-0.0241636
-0.00905261
-0.0101411
0.0316021
-0.00415083
-0.0690042
0.00320291
-0.0763889
-0.00250464
-0.00576708
-0.0585053
-0.00118614
0.00065993
0.0314577
0.0246832
0.000490034
0.00202169
-0.0375696
-0.0682081
-0.0765425
-0.0229386
-0.0127674
0.00365213
-0.00106731
-0.0179125
-0.00571208
0.0135917
0.000523307
0.000701202
-0.0874185
-0.00716688
-0.0229448
-0.0223446
0.00194313
0.000461824
0.000704009
-0.0161249
-0.0163752
-0.039326
-0.022245
-0.023539
-0.0734418
-0.0133522
-0.0427188
-0.0419293
-0.0763072
-0.0345683
0.000796367
-0.0229148
-0.0185385
-0.0124824
-0.0184978
0.00185822
-0.016744
-0.0373823
-0.0764622
-0.0101738
-0.0558409
-0.0433271
-0.0576889
-0.0595935
-0.0170144
-0.0613919
-0.0631557
-0.0648116
-0.0663909
-0.061158
-0.0424481
0.00239238
-0.00442834
-0.0282909
-0.0547228
-0.00306036
-0.0285032
-0.0754242
-0.0057387
-0.086678
0.000657661
0.000627159
0.000114427
-0.0843085
-0.0163069
-0.00435591
-0.055855
-0.0572188
-0.0326565
-0.00649267
0.000698211
-0.0187654
-0.111218
0.00119358
-0.0282339
-0.0708922
-0.0813809
-0.0544603
-0.0806912
-0.0267709
0.000263779
-0.0754719
5.02232e-05
-0.0739868
-0.0762783
-0.00765681
-0.0156107
-0.00931421
1.37847e-06
0.000366644
-0.0190619
0.00204299
0.000958404
0.00097595
0.00312333
-0.0741313
-0.0135528
-0.00811858
-0.0707019
-0.040272
-0.0829104
-0.0732881
-0.0129985
-0.00978714
-0.015866
-0.00324179
-0.0809545
-0.0283689
-0.0938177
-0.0539463
-0.0726526
-0.0188489
-0.00236997
-0.00305882
-0.0795289
0.000748848
-0.0767714
6.17955e-05
-0.079587
-0.0165132
-0.00400068
-0.0267111
-0.00313872
-0.0583042
-0.00978945
-0.00885874
-0.00249359
-0.0165996
-0.0673171
-0.0832523
-0.00209659
-0.0826364
-0.0033107
-0.000728037
-0.0273178
-0.0129748
-0.0726774
-0.064066
-0.00654828
-0.0696366
-0.0602889
-0.0818921
0.000171575
0.000799689
7.40789e-05
-0.000406367
-0.0707312
0.0110459
0.00400519
-0.00697566
-0.0639126
-0.00189434
-0.00220227
0.00473848
-0.107077
-0.0102565
-0.015828
0.000550988
-0.0823095
0.00114042
0.000904719
-0.0684225
-0.0592808
-0.0722872
0.000636598
-0.0344734
-0.00542415
-0.0721409
-0.074244
-0.00774486
-0.0615768
-0.00307163
0.00106629
-0.00285806
-0.0253894
0.0240278
-0.00287359
-0.00790643
0.0115364
-0.0101259
-0.0794565
-0.0784607
-0.0760031
0.000220125
-0.0262122
0.000267947
-0.0627825
0.000849997
-0.00515511
-0.00105089
-0.0300204
-0.00147522
-0.0130233
-0.00187814
-0.00826632
-0.0769301
-0.0630271
-0.00148044
-0.0272449
-0.0618194
0.000106437
0.00118551
-0.0770885
-0.0198464
-0.00353788
-0.0751605
0.00231282
-0.0870042
-0.000733672
-0.0878253
-0.0890454
-0.02797
-0.0178938
-0.0251654
-0.0571563
-0.0531739
-0.0792638
0.00163441
-0.0157734
-0.0772879
0.00129785
-0.0330841
-0.00746066
-0.114557
0.019825
-0.0755153
-0.0330644
0.0275563
-0.0100645
-0.0885165
-0.0103292
-0.0792634
-0.073705
-0.00289398
0.000518316
-0.080827
-0.0745331
0.00153565
-0.0145516
-0.00723533
0.0012267
-0.0819693
0.0114957
-0.0754859
-0.0110762
-0.0742356
-0.00647643
-0.00398863
-0.0153229
-0.032745
-0.0710678
-0.00247079
-0.0576547
0.000664086
-0.0207955
-0.0137103
0.00213237
-0.00379457
-0.014471
-0.0760925
-0.0764502
-0.000299317
-0.0739185
-0.0129594
-0.000799298
-0.0080963
0.000487863
-0.0154872
-0.0739654
-0.0765759
0.000589439
-0.0196829
-0.0493319
-0.0470982
-0.0773849
-0.0549435
-0.0119209
-0.0398062
-0.00855595
0.00177762
0.00042311
-0.0729897
-0.00546729
-0.0772653
-0.076646
-0.025929
-0.0717779
-0.0734345
-0.00109683
-0.0788186
-0.0251753
-0.0426784
0.00546029
-0.00192369
0.00159559
-0.0675858
-0.0131798
0.00606582
-0.00916843
-0.0769825
-0.0643479
-0.00383104
-0.0671523
-0.0667956
-0.076384
-0.00790737
0.000866041
-0.0492074
-0.0107647
-0.0141157
-0.0145238
-0.00925913
-0.00172335
-0.00680447
-0.010605
-0.0049994
-0.0108986
-0.00667226
-0.00575101
0.00198022
-0.0615668
-0.0109596
-0.0758105
-0.01223
-0.00714569
-0.0568028
-0.045622
-0.0035977
-0.0013094
-0.016276
-0.0282315
-0.0791392
-0.0281082
-0.0238605
-0.00863678
-0.000458551
-0.00753991
-0.0745579
-0.0501068
-0.00368003
0.000731921
-0.0814832
-0.0140999
-0.00610345
-0.0519662
-0.0234725
-0.038964
-0.0777791
-0.05282
-0.0103654
-0.00783923
-0.0832295
-0.0024448
-0.0111027
-0.0142422
0.00315136
-0.0484853
-0.0224467
-0.0760842
-0.00806461
-0.0107315
-0.0268331
-0.0706851
-0.0527435
-0.0135367
-0.0586082
-0.0605096
-0.0315163
-0.0160901
-0.0148556
-0.038121
-0.0261055
-0.0723149
-0.022261
-0.00143762
-0.0447322
-0.0152958
-0.0459944
-0.0173906
-0.0075992
-0.0396543
0.000575145
-0.0217284
-0.00331176
-0.0126673
-0.00180028
-0.0079247
-0.0765124
-0.0691484
-0.00708474
-0.0075429
-0.0604588
-0.0148905
-0.00145002
0.0118358
-0.0748006
-0.0353418
-0.076439
0.00758454
-0.0384336
-0.074789
-0.0621893
-0.0359838
0.00697665
-0.0577963
0.00758683
-0.0104255
-0.0610046
-0.0638718
-0.00972651
-0.0138704
-0.0111015
0.00306632
-0.00982284
-0.0654386
-0.00186942
-0.0731111
-0.0297242
-0.00139592
0.000884575
-0.000242027
-0.00899543
-0.0104252
0.000261012
-0.0285576
-0.00753451
-0.00905243
-5.68908e-05
-0.0530475
-0.0168654
-0.0288276
-0.0134631
0.000738536
0.000713068
-0.0432506
0.00231382
-0.0768206
-0.0130094
-0.0138573
-0.0117521
0.0116099
-0.0107787
-0.0104467
-0.0123274
-0.027382
-0.00874345
-0.0287825
6.64852e-05
-0.10653
-0.0274767
-0.0109602
-0.00538994
-0.0728872
-0.000637977
-0.0250248
0.000961557
-0.0307198
0.000906688