/*--------------------------------*- C++ -*----------------------------------*\
| =========                 |                                                 |
| \\      /  F ield         | OpenFOAM: The Open Source CFD Toolbox           |
|  \\    /   O peration     | Version:  v2012                                 |
|   \\  /    A nd           | Website:  www.openfoam.com                      |
|    \\/     M anipulation  |                                                 |
\*---------------------------------------------------------------------------*/
FoamFile
{
    version     2.0;
    format      ascii;
    class       surfaceScalarField;
    location    "100";
    object      phi_0;
}
// * * * * * * * * * * * * * * * * * * * * * * * * * * * * * * * * * * * * * //

dimensions      [0 3 -1 0 0 0 0];
oriented        oriented;


internalField   nonuniform List<scalar> 
20642
(
-0.0278056
0.033387
-0.00558145
0.301838
-0.0731923
-0.228645
-0.111214
0.0989792
0.012235
-0.351255
0.138602
0.212652
0.379516
0.0331754
-0.412691
-0.0335245
0.335362
-0.225603
0.0257645
0.199839
0.00285504
0.215792
-0.218647
-0.243331
0.222903
0.020428
0.00465182
0.0018462
-0.237943
0.240798
0.230926
0.132816
-0.363742
0.599042
-0.599042
0.199998
0.0176333
-0.217631
0.302285
0.0368597
-0.339145
-0.0332647
0.00545915
0.58726
-0.592366
0.0051058
0.0489704
-0.266091
0.217121
-0.0298581
-0.084282
0.11414
-0.00435496
0.0343516
-0.0299966
-0.0824387
-0.192346
0.274785
0.63641
-0.376219
-0.260191
0.203658
-0.14507
-0.0585889
0.346432
0.289978
-0.0500852
-0.187586
0.237671
0.0665614
-0.263559
0.196998
-0.0030718
-0.165596
0.168668
0.00465182
0.0945344
-0.283978
0.189444
-0.682562
0.39647
0.286092
0.00257396
0.00207786
0.0270365
-0.108814
0.081777
0.0422999
0.255572
-0.297872
-0.00211785
0.0376182
-0.0355003
-0.663728
0.482312
0.181415
0.362275
-0.146484
0.268725
-0.364043
0.0953177
0.62135
-0.100897
-0.520453
-0.0259731
-0.19963
0.234054
-0.00668819
-0.227366
-0.772855
0.604676
0.168179
0.411043
0.135478
-0.546522
-0.138672
0.250706
-0.112033
0.130201
-0.111059
-0.0191421
0.0181551
0.112046
0.176234
-0.0806448
-0.0955892
0.227796
-0.310235
-0.00583555
-0.0294757
0.0353113
0.272318
-0.244296
-0.028022
-0.410671
-0.253057
0.348556
-0.11763
-0.153831
0.047938
0.105893
0.0223529
-0.000546507
-0.0218064
-0.312719
-0.0905668
0.403286
0.0125362
0.363142
-0.375679
-0.0831917
-0.0706389
0.00257396
0.166437
0.0372217
-0.151243
0.562286
0.0588256
0.117408
-0.0455069
0.0808305
-0.0353236
0.55605
-0.505191
-0.0508582
0.474023
-0.617466
0.143443
-0.262525
0.21244
-0.0694785
0.0662834
0.00319511
0.124874
0.451957
-0.576832
-0.281261
0.0819895
0.199271
0.174069
0.188207
-0.188972
-0.00259742
0.0269796
-0.0243822
-0.106931
0.0714974
0.0354332
0.0247265
-0.0268443
-0.2552
-0.144455
0.399655
0.389375
-0.540618
0.0767789
-0.269125
-0.0517249
-0.182916
0.23464
0.424028
-0.106582
-0.317445
-0.160566
0.549941
-0.259772
0.208047
0.234158
-0.191858
-0.379608
0.443003
-0.0633946
-0.608135
0.580424
0.0277109
-0.41938
0.16418
0.0136984
0.0658706
-0.0795689
-0.23066
-0.301525
0.532185
-0.0132517
-0.206975
0.220226
-0.0929957
0.120032
-0.640078
0.605814
0.0342636
-0.0256673
0.259721
0.484734
0.102526
-0.582299
0.407291
0.175008
0.113049
0.259772
0.0125461
-0.617546
0.206875
0.410671
-0.413405
0.287489
0.125915
-0.186727
-0.0163421
-0.185924
0.202266
0.591748
-0.591713
-3.53397e-05
-0.138316
-0.501762
-0.170775
-0.0901622
0.260937
0.529406
-0.534396
0.00498952
0.545301
-0.0158947
0.00111781
-0.380726
0.520999
-0.594773
0.0737741
-0.00685555
0.430883
-0.0759592
0.0758726
8.66321e-05
0.0486391
-0.059162
0.0105228
0.417397
0.138653
0.540621
-0.405143
0.13973
-0.142801
0.532348
0.0721007
-0.0034371
0.0410553
-0.107924
-0.176054
-0.0607154
-0.0087631
0.388262
-0.182359
-0.205903
0.102331
-0.132189
0.420787
0.162004
-0.582791
0.110297
-0.0937985
-0.016499
-0.466713
0.275951
0.190762
-0.09505
-0.513085
0.167096
-0.577688
0.410592
0.264371
-0.182382
-0.134685
0.140371
-0.00568634
-0.0264041
-0.00153741
0.0279415
0.0492292
-0.0355308
0.0744176
-0.269363
0.194945
0.260677
-0.183898
-0.424703
0.555351
-0.130647
-0.0997766
-0.034908
-0.0541579
0.156803
-0.102645
0.184618
-0.0520551
-0.132563
-0.00815453
-0.0392394
0.0473939
0.168758
0.219504
-0.0668905
0.12458
-0.0576892
-0.00927956
0.149009
0.0355317
-0.0791596
0.0436279
0.0270954
-0.0263539
-0.000741543
0.0512667
-0.249165
0.197898
0.62135
0.246112
0.0188865
-0.264999
-0.560094
0.399528
-0.0641086
-0.0118506
-0.542992
0.257239
0.285753
-0.150492
-0.233943
0.384435
-0.389543
0.582848
-0.193305
-0.0532823
-0.0536484
-0.108767
0.0398738
-0.0251321
-0.0147417
-0.460007
0.147288
-0.199964
-0.0276779
0.227642
0.571542
-0.699501
0.127959
0.248505
-0.398997
-0.162602
0.14626
-0.137002
-0.334817
0.471819
0.543886
-0.0228866
0.03531
-0.0440381
0.00872813
-0.616222
0.608904
0.00731813
0.570904
-0.150117
-0.175391
-0.330678
0.506069
0.0885841
-0.0633936
-0.0251905
0.061927
-0.309556
0.247629
0.293979
0.0783173
-0.0536698
-0.0246476
0.0185323
-0.21135
0.192817
0.0223529
-0.0393635
-0.0241119
0.0634754
-0.376231
-0.225697
0.601928
0.244496
-0.193229
0.0613915
0.310141
-0.371533
0.0570803
-0.048332
-0.00874826
-0.0671701
-0.0600561
-0.0231664
0.0832225
0.188806
-0.0981661
-0.0906401
0.602491
-0.106659
-0.495832
-0.145756
-0.205499
-0.152964
0.0210965
0.131868
-0.192805
0.138647
-0.23323
0.295157
-0.167579
-0.0813431
0.248922
0.407824
0.25135
0.0972061
0.150802
-0.0730108
-0.0777908
0.106647
0.00365068
0.169012
0.0156058
-0.102772
0.354122
0.0499843
0.100817
-0.388562
-0.294
0.217362
-0.230614
0.140514
0.0482922
0.130327
-0.112172
0.0128814
-0.116614
0.103733
-0.0318612
0.00266039
0.0292008
-0.26534
-0.352206
0.0298111
-0.00296007
-0.026851
-0.272165
0.106193
0.165972
0.0426145
-0.050769
0.508468
-0.0261556
0.357809
-0.494811
0.283331
-0.239709
-0.0436224
0.0235674
-0.0268041
0.00323665
0.0284244
-0.00132892
-0.0836875
-0.235684
0.319371
0.150734
-0.00983958
-0.140894
-0.269039
0.304084
-0.0350455
-0.225632
-0.392998
-0.105026
0.309875
0.133128
-0.428371
-0.118357
0.546728
-0.0532011
0.344394
-0.291192
0.275423
-0.328624
0.0103981
0.0528909
-0.119781
-0.182603
-0.0660537
0.0602409
0.00581283
0.636923
-0.252582
-0.384342
0.725571
-0.412879
-0.312693
0.344999
0.380572
-0.0567228
-0.016221
-0.107448
0.123669
-0.144685
0.0443311
0.100354
0.369872
0.18016
-0.550032
0.560064
-0.0860414
-0.134579
0.125299
0.0292646
0.125425
0.323357
-0.448782
-0.374717
0.500142
-0.315013
-0.457842
0.729826
-0.384827
0.312847
0.41698
-0.0126944
0.0374208
-0.0490989
0.0490491
4.98226e-05
0.0863785
0.300431
-0.386809
0.479085
0.0874366
-0.566521
-0.115579
0.149233
-0.0336537
-0.0318237
0.00200189
0.0298218
0.0129396
-0.515459
0.502519
0.526919
-0.157047
0.167116
-0.016382
0.0724944
-0.061663
-0.0108314
-0.0892317
-0.0539552
-0.0120986
-0.150987
0.131574
0.0194131
-0.342982
-0.20001
-0.0746949
0.050583
-0.162302
0.0467221
-0.251735
0.143811
0.00969892
0.114752
-0.124451
0.234146
-0.317833
-0.0387009
-0.468743
0.220482
0.24826
0.0607593
0.0940613
-0.154821
-0.047177
-0.132092
0.179269
-0.0159673
-0.34026
0.356228
0.604676
-0.188107
-0.334678
-0.114086
0.448764
0.377242
-0.560918
0.183677
-0.00354907
0.0303224
-0.0267734
0.0470594
-0.178319
0.131259
0.172323
-0.571454
0.399131
-0.667289
0.292572
-0.46625
0.131433
-0.280835
-0.386454
-0.192791
0.0622432
0.536799
-0.0183974
-0.164113
0.18251
0.586912
-0.414589
0.00241257
0.0245883
0.0522149
-0.00357576
0.0781191
-0.403175
0.325056
0.314943
0.119654
-0.434597
-0.158705
0.122468
0.0362364
-0.740951
0.306612
0.434339
0.285159
-0.110711
-0.174448
0.0284378
-0.0319869
-0.345292
-0.395659
0.0250078
-0.0276052
0.575568
-0.198326
0.00355354
0.0850305
0.605284
-0.00279308
-0.307443
0.39019
-0.0827463
0.282814
-0.298781
-0.332041
0.520763
-0.188723
0.111373
-0.00729319
-0.10408
0.549278
-0.589395
0.0401172
0.198132
-0.179599
-0.277081
0.0900434
0.187038
-0.543906
0.154363
-0.206767
0.181592
0.0251754
0.0261442
-0.439882
0.452822
0.16105
-0.0209264
-0.140123
-0.344811
0.466148
-0.121337
-0.356273
0.155051
0.201221
0.493344
-0.113828
-0.0729016
-0.18687
-0.597916
0.21202
0.385896
0.0493801
0.499898
0.158091
-0.00620442
-0.151887
-0.517377
0.181637
0.33574
-0.131075
0.191835
-0.247921
0.175019
-0.362734
-0.169053
0.531786
0.0458151
-0.0105051
0.028725
-0.00515755
-0.425861
0.556643
-0.130782
-0.655188
0.195528
0.45966
-0.187514
-0.339593
0.433724
-0.094131
0.100526
0.0121413
-0.112668
0.0253811
-0.0551957
0.0298145
-0.0755109
0.0154548
0.502275
-0.588384
0.0861091
-0.203857
0.151802
-0.118576
0.433519
-0.0112044
0.077075
0.0970921
-0.436685
-0.0733575
-0.0378568
-0.205826
-0.393216
-0.0507501
0.353035
0.00151994
0.517277
-0.163311
-0.353966
-0.256402
0.183209
0.0172286
0.113099
-0.490862
0.572583
-0.0817216
0.0163279
0.0407524
-0.359792
-0.251446
0.611238
0.133304
0.0251277
-0.648145
0.448542
0.199603
0.0198858
-0.0242408
-0.396679
0.559218
-0.162539
-0.00616017
0.156705
-0.150545
-0.0251547
-0.243884
0.649479
-0.147204
0.188908
-0.679769
0.127186
-0.116203
-0.0109838
-0.0627549
-0.00781734
0.0705722
-0.489374
0.194756
0.294619
0.186227
0.331049
-0.0404915
0.0370544
-0.0560632
0.0716125
-0.0155493
0.118121
-0.0650766
-0.0530443
-0.0267259
0.226724
-0.703324
0.358032
0.100121
0.298752
-0.398873
0.0712512
-0.0615619
-0.00968926
-0.0983537
-0.105504
-0.327463
-0.375861
0.148533
-0.188125
-0.191356
0.379481
-0.0138886
0.220869
-0.20698
-0.137235
0.0226934
-0.132433
0.10974
-0.00050409
0.158948
-0.158444
0.0683987
0.21676
-0.143503
0.155892
-0.012389
0.0338435
0.000887371
-0.0347309
0.104295
-0.528998
-0.277855
-0.211519
0.30849
-0.275315
0.124456
-0.0955267
-0.0289297
0.617365
-0.0560816
-0.561284
0.00152579
-0.144783
0.00127984
-0.341945
0.0303241
0.293695
-0.281159
0.182846
-0.036887
-0.145959
-0.46158
-0.193608
-0.286141
0.256701
0.0294396
0.540294
-0.402055
-0.13824
-0.0947005
-0.099879
0.266769
-0.291924
0.364643
-0.286524
-0.0922272
0.0807584
0.0114688
-0.430221
0.628219
-0.197998
0.0526669
0.0256505
-0.0945669
0.128758
0.411536
-0.026369
-0.489626
0.217573
0.272053
0.306956
0.24118
-0.548136
0.134917
-0.555733
0.420817
0.0359833
-0.00163172
-0.16215
0.469106
-0.000921345
0.228081
-0.227159
-0.0312277
-0.103351
0.248175
-0.253103
0.00492877
0.100454
-0.344187
0.243733
-0.0959892
0.0317669
0.0642223
0.0103022
0.0787502
0.238516
0.0523862
-0.290902
0.0113676
0.100006
-0.306251
-0.0878377
0.394089
0.214477
0.0336979
-0.0027074
0.101687
-0.498108
-0.198827
0.025267
0.17356
-0.0906222
-0.157299
-0.118096
-0.447679
0.565775
0.123141
0.336034
-0.459175
0.222997
-0.590016
0.367019
-0.0289663
-0.182383
0.454777
-0.126925
-0.327852
-0.573824
0.434784
0.139041
0.363957
-0.482206
0.118249
-0.138944
-0.0264255
0.165369
-0.32275
0.10611
0.216639
-0.756803
0.325893
0.43091
-0.672404
0.296173
0.107282
-0.00675558
0.00578405
0.177062
-0.494101
0.16206
-0.274144
0.273223
0.0838237
-0.081931
-0.00189262
-0.180525
0.206536
-0.026011
-0.41492
0.539794
0.0418802
-0.126162
0.0641305
-0.0753349
0.265736
-0.514206
0.248469
0.333969
-0.702544
0.368575
-0.0706376
-0.211646
0.282284
-0.345542
0.468683
-0.422833
-0.253882
-0.359218
-0.343327
0.513877
-0.248141
-0.0649897
0.0484728
0.0165169
0.0878143
-0.394065
-0.0300311
0.208201
-0.17817
-0.00397382
0.0285621
-0.0161785
0.177228
-0.550834
0.122463
0.395903
-0.147398
-0.0216138
-0.0743754
0.21581
0.067521
-0.0284702
0.00206607
-0.706697
0.268194
0.438502
0.52903
-0.208302
-0.320728
-0.597229
0.167009
0.660738
-0.347891
0.327468
-0.0587426
-0.488791
0.197505
0.291287
-0.0162387
0.100062
-0.440141
0.562932
-0.12279
0.00838581
0.189723
0.339307
0.00737549
-0.137941
0.130565
-0.413753
0.587763
-0.17401
-0.0960512
0.405926
-0.125212
-0.0257744
0.0770297
0.0410913
0.17041
-0.358535
-0.152613
0.138111
0.014502
0.348235
0.210141
-0.558376
-0.632504
0.200528
0.431976
0.481069
-0.117112
-0.297293
-0.192332
0.428291
-0.555583
0.127292
0.441101
-0.622283
0.181182
0.00657572
-0.0686733
0.573365
-0.145074
-0.147516
-0.0592514
-0.0156121
-0.0883821
0.103994
0.362768
0.209314
-0.572082
0.153799
0.0241201
-0.177919
0.122539
0.00653107
0.0607484
0.0010428
-0.0617912
-0.213188
0.191654
0.0215339
0.0198094
-0.23925
-0.234702
0.473952
-0.498731
0.259481
-0.271218
-0.136427
0.150491
-0.564244
0.3346
0.0113206
0.0845369
-0.0958575
-0.416026
-0.166273
0.303088
-0.393655
-0.218649
0.206283
-0.176308
-0.0299752
-0.0828304
0.256294
-0.173463
-0.0781842
-0.0268647
0.105049
0.131023
-0.0165616
-0.114462
0.0898978
0.363558
-0.453456
0.43598
-0.316326
-0.0573539
-0.208737
-0.0140155
-0.169767
0.183782
0.111397
0.34338
-0.140454
0.158087
0.0832771
-0.161641
0.0783639
-0.0926506
-0.18443
0.0270403
-0.0792012
0.0521609
-0.482106
0.140436
-0.154451
0.131891
-0.110794
0.138986
0.330361
-0.469346
-0.0419927
0.0392926
0.00270014
-0.273784
-0.35872
0.39601
0.264728
0.0266529
-0.165597
-0.30767
-0.399027
0.507415
0.129508
0.160918
-0.00282711
0.00834175
0.0330323
-0.0679586
-0.0631969
0.131156
0.306864
-0.482255
0.279331
-0.0797627
-0.199569
0.12215
0.373163
-0.495313
0.114591
-0.0944535
-0.0201377
-0.103351
0.110661
-0.00730959
0.259377
-0.405092
0.145715
-0.0968645
0.153375
0.325716
-0.479091
-0.0051781
0.155806
-0.150628
0.451557
-0.376943
-0.0746138
-0.547196
0.410019
0.137178
0.0790871
0.538278
0.469075
-0.111266
0.373936
-0.492032
0.466385
-0.440244
-0.0261412
-0.199975
0.172229
0.027746
0.596199
0.0140472
0.116976
-0.345935
0.484921
0.392837
0.030931
-0.423768
0.16484
-0.255462
-0.00108725
0.0408985
-0.0398113
-0.505222
-0.0191862
0.524408
0.265026
-0.19539
-0.0696369
-0.169569
-0.391349
0.157179
-0.149803
0.0463287
-0.180897
0.134568
-0.179702
-0.0814118
0.261113
-0.145343
-0.199741
-0.165228
-0.170821
0.336049
0.207017
-0.00808697
0.0507015
-0.0455752
-0.0194145
0.0269235
-0.0308974
-0.436765
0.567271
-0.130507
-0.36282
0.482547
-0.119728
-0.35353
0.443427
0.415698
-0.133472
-0.282226
0.0715161
-0.0149074
-0.0566088
0.647076
-0.340464
-0.315935
0.326526
-0.0105911
-0.063782
-0.208383
0.00229613
-0.0550205
0.0527244
-0.200873
0.0831268
0.00469266
0.00079184
-0.0054845
0.427538
0.145827
0.148749
-0.0827273
-0.0660214
0.524946
0.0668027
0.145914
-0.586507
0.440594
-0.0332079
0.035504
-0.740343
0.432673
-0.0574827
-0.0286088
0.0860916
0.620835
-0.565762
-0.0550731
0.495699
-0.132931
0.118249
0.0324534
-0.110638
-0.00186862
0.468254
0.426107
-0.512437
0.0863292
0.00712676
0.101026
-0.108153
0.14557
0.00822925
0.424739
-0.380284
0.0142385
-0.0675208
-0.0536086
0.0377299
0.0158787
-0.0148433
0.0755918
-0.521096
0.0158735
0.0345743
-0.022728
-0.0118463
0.589675
-0.482821
-0.106854
-0.0478675
-0.0312921
-0.406309
0.297542
0.547105
-0.401191
0.612706
-0.187822
-0.424885
0.315374
0.229927
-0.0875251
0.170802
-0.242639
0.161296
-0.41445
-0.210867
-0.380846
-0.760713
0.291062
0.469651
0.0795125
-0.065274
-0.423888
0.433191
-0.00930326
-0.00396135
0.116671
-0.11271
-0.104033
0.407121
0.522386
-0.0962788
-0.492987
-0.123235
0.0355541
-0.116199
-0.064885
-0.0236936
0.0885786
-0.0118782
0.0165708
0.1369
-0.127201
-0.16181
-0.0381646
0.00183836
0.0869394
-0.0887778
-0.00472617
-0.0270975
0.544205
-0.409288
-0.0843046
-0.0118953
0.0961998
-0.447859
-0.312854
-0.0965194
-0.0143299
0.110849
0.124145
0.291553
-0.0196073
-0.0726199
-0.129884
0.50382
-0.18824
-0.252004
-0.363832
0.129889
0.0511529
-0.169426
0.181488
-0.0120618
-0.0728144
0.0603171
0.0124974
-0.626681
0.0886827
0.537999
0.157581
-0.175978
0.108418
0.338954
-0.447372
0.485009
-0.169635
-0.00182023
0.0356637
-0.243022
0.22304
0.0199815
-0.0596757
-0.359774
0.41945
-0.103884
0.126577
0.164185
0.568058
-0.427516
-0.140542
-0.0145514
0.586093
0.0365379
-0.0383581
-0.076307
-0.347581
0.13147
0.378504
0.268572
-0.413816
0.35414
0.091393
0.0330634
-0.389641
-0.30986
0.132686
-0.0247018
-0.107984
-0.582734
0.552872
0.0298618
-0.598425
0.45376
0.144665
0.032963
-0.096957
0.406665
0.0189563
-0.000824814
-0.0181315
0.0198392
-0.0773219
-0.264359
0.32514
-0.0607807
0.108038
0.0238526
0.550863
-0.123325
0.301336
-0.264476
-0.0342587
0.0331715
0.0384811
0.0383409
-0.076822
-0.281885
0.211248
-0.164356
-0.199687
-0.393848
0.205607
-0.210626
-0.372108
0.568374
-0.315902
-0.252472
0.509612
-0.423503
0.0323037
-0.155982
0.123678
0.190868
0.029262
-0.22013
-0.0466704
0.0737107
0.0196473
-0.189073
-0.313686
0.256577
0.0571084
-0.11108
0.00772827
-0.271354
-0.246023
0.00767226
0.158791
-0.166463
-0.0196179
-0.0969964
0.0270096
-0.39104
0.532486
-0.322907
-0.209579
-0.0766265
0.586238
-0.223286
-0.375138
-0.440335
0.345285
0.503555
0.105349
0.467117
-0.344967
0.408796
-0.596487
0.187691
0.0156002
0.0189742
0.174753
-0.0374173
-0.137335
-0.635079
0.45744
0.177639
0.125242
-0.108013
-0.229397
-0.397284
0.0522948
-0.0269137
0.173284
0.402284
0.143806
0.411545
-0.0303072
0.0386489
-0.175151
0.0623297
0.112821
0.296385
-0.492505
-0.213225
-0.12014
0.333366
-0.609379
0.184378
0.425001
-0.556736
0.418077
0.138658
0.181032
0.0907892
-0.271821
0.176528
-0.0106666
-0.165861
-0.374373
0.504967
-0.130593
-0.00211218
0.0241684
-0.0220562
-0.0823925
0.219607
-0.137214
-0.393795
0.423243
-0.0294475
0.482042
-0.185657
0.225964
0.306523
-0.034016
-0.0195926
0.0835661
0.195765
-0.655992
0.269909
0.386083
-0.305398
-0.0049109
0.0333487
-0.0991864
0.233639
-0.127446
-0.0213313
-0.00713885
-0.35134
0.0293476
0.321992
-0.563578
0.166899
0.131562
-0.557422
0.246576
0.080892
0.00885759
-0.53944
0.211492
0.327948
0.0173747
-0.104204
0.285235
0.19482
0.0702069
0.0174742
-0.439145
0.320569
-0.109917
-0.0225169
0.152313
0.0224399
0.396956
-0.109467
0.27569
-0.0415328
-0.368193
-0.287799
0.203724
-0.0271963
0.321894
0.0700411
-0.337256
0.120772
0.216484
0.12781
0.355984
-0.483794
0.0220471
0.0021408
-0.0241879
0.496586
0.0767954
-0.573382
-0.319242
-0.0320978
-0.380028
0.215672
0.0563813
0.244711
-0.301093
0.0498498
0.167675
-0.217525
-0.0375402
0.0760213
0.497012
0.0834121
0.00517443
-0.11953
0.114356
-0.0858958
0.0210108
0.244608
0.293224
-0.537832
-0.135228
-0.292993
0.428221
-0.182204
0.517824
-0.109028
0.101307
0.267671
-0.368977
-0.405748
0.199652
0.206096
0.393069
-0.100357
-0.292712
0.147621
-0.0807074
0.116261
0.0227692
-0.401217
0.560262
-0.159044
-0.00954921
0.0794494
-0.0699001
0.0675638
0.155339
0.205406
0.000877538
-0.123502
0.39257
-0.292449
0.0757424
0.0730063
-0.000337416
-0.185587
0.399091
0.131495
-0.530586
-0.127077
-0.0480735
-0.133724
0.166408
-0.0326837
0.154948
-0.00263529
0.554273
-0.395752
-0.158521
0.413394
-0.531751
0.346982
0.221393
0.000175582
-0.0955659
0.351138
-0.603924
0.382431
0.221493
0.16052
-0.0272162
-0.530017
0.155644
-0.566861
0.420912
0.145949
0.0160199
-0.0992117
0.197794
-0.28537
0.391471
-0.106101
0.0335533
-0.214078
0.21625
-0.230138
0.0665706
-0.291894
-0.113854
-0.309153
0.20257
0.0122195
-0.0974507
0.0852312
0.409093
0.138012
-0.583978
0.174713
0.409265
-0.377034
-0.302735
0.527465
-0.533036
0.00557052
0.242908
-0.343153
0.100245
-0.306769
0.199953
0.106815
0.0629094
-0.242611
0.392086
0.162186
0.624388
-0.198216
-0.426172
-0.356263
-0.129933
0.486196
-0.35989
-0.0464191
-0.151948
-0.161888
-0.0512994
-0.379951
0.130077
-0.0153252
-0.358193
-0.0681154
0.0860166
-0.0179012
0.0896804
-0.37505
-0.479016
0.101982
-0.0132864
-0.0419092
0.282082
-0.093631
-0.188451
0.0273624
0.093004
0.169912
-0.343657
-0.0177893
0.361447
0.124219
0.317492
-0.441711
0.551161
-0.417277
-0.133884
-0.418167
0.282939
0.0227539
-0.0435187
0.0207648
-0.178834
0.199436
-0.0206013
0.0583258
-0.322685
0.171828
0.0347076
-0.297528
0.398834
0.0176219
0.137326
0.668163
-0.189079
-0.407376
0.498087
-0.0907109
-0.497075
0.178425
0.31865
0.48326
-0.395823
-0.0262221
0.2622
-0.0951448
-0.167055
-0.00944116
-0.334216
0.115623
-0.0132924
-0.0880584
-0.353832
0.44189
0.292753
-0.517007
0.224254
0.324885
-0.519313
0.194429
0.155932
-0.156436
0.149645
-0.302056
0.411944
-0.109888
0.0731296
0.230519
-0.303649
-0.362625
0.501059
-0.138434
0.0157373
0.492554
-0.1998
-0.0606388
-0.190118
0.250757
0.283331
0.113626
0.0299094
-0.00207579
-0.0278336
-0.0283108
-0.415285
0.27118
0.144105
0.00958815
-0.127937
-0.0246755
-0.00335532
0.070265
0.363459
-0.41516
0.566604
-0.151444
0.548291
-0.446727
-0.101563
-0.0999059
0.378558
-0.278652
-0.0706605
-0.245804
0.316464
0.460239
0.0248898
-0.507177
0.361767
0.14541
-0.185096
-0.137654
0.101229
0.0115207
-0.0799472
0.0684264
0.228503
-0.324069
-0.0274555
-0.152972
0.180427
-0.16654
-0.0103999
0.176939
-0.554789
0.414677
0.140113
-0.19326
0.186572
0.261718
0.0203642
0.555916
-0.17803
-0.377886
-0.00398759
-0.179612
0.1836
0.180066
0.448153
-0.00723791
0.0481723
0.145396
-0.113093
-0.601188
0.178391
0.422797
0.151498
0.405145
0.23265
0.231666
-0.5334
0.370089
-0.471214
0.114951
-0.0265343
-0.400617
0.561403
-0.160786
-0.0502045
0.365275
-0.49516
-0.216258
0.511289
-0.295031
-0.416926
0.135172
0.281754
0.104454
0.334235
-0.43869
-0.0775529
-0.381192
-0.124
0.157396
-0.558013
0.344318
-0.072984
0.304048
0.0188791
-0.322927
0.00273578
-0.56003
0.414467
0.145563
0.210733
0.219381
-0.662136
0.442754
-0.353098
-0.118116
-0.0270605
0.0279478
0.486201
-0.161316
-0.150397
0.288999
-0.00167587
0.126917
-0.0326419
0.654577
-0.435196
-0.423063
0.347734
0.0753286
0.0979244
-0.085705
0.560566
-0.409241
-0.151324
0.0895257
0.305021
-0.394547
0.119922
0.0756512
-0.161808
-0.306107
0.467916
-0.0919498
0.0990765
0.290802
-0.349029
0.0582264
-0.0320156
-0.0099771
0.29242
0.0977699
0.0946667
0.0104068
-0.105074
-0.350827
-0.458519
-0.116897
0.575416
-0.604439
0.442289
-0.0985363
0.539638
0.652051
-0.155465
0.046446
-0.054533
-0.0872321
0.329871
-0.242639
-0.61268
0.237419
0.375261
0.317602
-0.358368
0.0407659
0.158511
0.126729
0.421561
-0.109653
0.306856
-0.0683395
0.0108007
-0.208329
0.178298
-0.119048
-0.0015228
0.120571
0.101834
0.230721
-0.035902
-0.0061954
0.0342031
-0.0280077
-0.382099
0.116533
0.265565
-0.118567
-0.249281
0.413757
-0.164476
-0.0288879
0.00455031
0.0243376
-0.450959
0.203417
0.113716
-0.317133
-0.220361
-0.441775
-0.20292
-0.354349
0.55727
-0.629118
0.408758
0.602941
-0.178686
-0.424255
0.567283
-0.440529
-0.126754
0.125802
0.297355
-0.423156
-0.174593
-0.0289086
0.203502
0.541382
-0.142291
0.247396
-0.334629
-0.011154
-0.115709
0.126863
-0.0404469
0.0798918
-0.039445
-0.074551
0.00643552
0.127561
-0.129236
-0.223259
-0.408228
-0.196211
0.478127
-0.339306
-0.138822
-0.0140153
-0.0834354
0.353026
0.0985311
0.0189563
0.142205
-0.417971
0.275766
0.146244
-0.00781585
0.51255
-0.504734
-0.305046
0.416989
-0.111943
-0.284492
0.426698
-0.419884
-0.177346
-0.373395
-0.133783
0.507178
-0.15152
0.159192
-0.243478
-0.369202
0.0278631
-0.0275307
-0.000332456
0.414694
-0.374763
0.527646
-0.152883
-0.0272252
0.0499791
-0.42143
0.172149
-0.280058
-0.309958
-0.102129
0.519526
-0.00180218
0.0383401
-0.0596019
0.200038
-0.204343
0.582238
-0.377895
-0.207721
-0.468218
-0.152811
0.621029
0.539078
-0.0150208
0.0763368
-0.061316
0.121331
-0.0128501
-0.208113
0.220963
0.18404
-0.334437
-0.361137
0.351696
-0.202599
0.590432
-0.44682
-0.143612
-0.0677633
-0.171945
0.358206
-0.446265
0.0662736
-0.231502
0.0309034
-0.0356296
0.297872
-0.439687
0.141816
-0.435081
0.334185
0.376978
-0.287452
-0.510586
0.354885
0.155701
-0.142189
0.00331597
-0.106457
0.103141
0.0236047
0.139088
0.225795
-0.0349267
-0.0351105
0.0301996
0.032583
-0.00471986
-0.109106
0.467313
-0.101993
0.105309
-0.419508
-0.151946
0.00407701
0.0293176
-0.0333946
-0.453215
-0.124473
0.063353
0.0284111
-0.0917642
-0.137271
0.00740974
-0.206237
-0.287577
0.306937
-0.0193602
-0.10612
0.0737528
0.0323673
0.0101472
-0.075692
0.0655447
-0.643549
0.228467
0.415082
0.132196
-0.394387
-0.449052
-0.310107
-0.19707
0.165262
0.384374
-0.101043
-0.0751439
0.365946
-0.147435
-0.00749073
0.154926
-0.0238623
-0.00127392
0.0251362
0.137218
0.191756
-0.0313616
0.00426408
0.524447
0.0963884
-0.176376
0.464416
-0.28804
-0.290117
0.051579
-0.0576259
0.00604687
0.220501
-0.291162
0.0199143
0.569761
-0.135459
0.161223
-0.26046
-0.138149
0.398609
-0.403391
0.271721
0.121347
0.057256
0.183165
-0.240421
0.302582
-0.402487
0.0329884
-0.426119
-0.21743
0.415121
0.160845
-0.575966
-0.144049
-0.128338
0.42621
-0.0295164
0.00218005
0.0273364
-0.328744
0.115518
-0.10229
0.330794
-0.425762
0.554757
-0.128995
0.0306082
-0.388252
0.629432
0.151127
-0.295317
0.0836706
-0.194693
-0.116197
0.31089
0.217739
-0.0336992
0.442617
0.211961
0.0644028
0.474177
-0.346366
-0.48848
0.138651
0.349829
0.0125135
-0.127504
0.11499
-0.439674
-0.00800523
0.544553
-0.299945
-0.101786
-0.028378
0.130164
0.0849677
-0.10058
-0.0140686
-0.105462
-0.128325
0.0257338
0.102591
-0.244011
-0.295429
0.08328
-0.0995187
0.0414523
0.00588606
-0.0473383
0.530619
0.0907303
-0.083994
0.248236
-0.424611
-0.00693582
0.162742
0.135458
0.0137752
0.46818
-0.289755
-0.0614793
0.227379
-0.1659
-0.402908
-0.183599
0.240185
-0.178662
-0.0615224
-0.207575
-0.25218
-0.0920068
-0.0509442
0.082711
-0.157939
-0.0188463
0.176785
0.0281592
-0.161884
-0.084185
0.0586435
0.0255415
0.0871302
-0.00640588
0.106438
-0.100032
-0.221758
-0.411434
0.106388
0.36258
0.095938
-0.458518
0.570623
-0.155502
-0.592456
0.448495
0.143961
-0.402764
0.54501
-0.142246
-0.221304
-0.0640214
0.0741686
-0.596188
0.433166
0.163022
0.0793051
0.250566
-0.149635
-0.256183
-0.119224
-0.228437
0.347661
0.16802
-0.00907245
-0.136879
0.0414491
0.0954304
-0.302253
0.111879
-0.548643
-0.226485
0.165846
0.054238
-0.48
-0.298784
0.265259
0.0303658
-0.0365612
-0.102204
-0.222246
0.324451
0.147919
0.314451
-0.46237
0.113498
0.0176571
-0.43064
0.327902
-0.248596
0.0464794
-0.00502714
-0.0254394
0.390442
-0.10162
-0.288821
0.178758
-0.167378
-0.0113805
0.311437
-0.0865518
-0.224885
-0.0263798
0.00504845
-0.01356
0.2366
-0.239078
0.156248
-0.00946752
0.0809649
0.54158
-0.0636196
-0.098682
-0.0552902
-0.0965059
-0.402952
0.368213
-0.300681
0.252098
0.0485826
0.520548
-0.00667029
-0.0893686
-0.0118734
0.520505
-0.508632
0.238908
-0.358132
-0.345288
0.0604919
0.275575
-0.147659
0.161638
-0.0139791
0.588515
-0.179993
-0.408523
0.116386
-0.0733326
0.254847
0.0520085
0.0905931
0.0239981
0.171664
-0.444567
0.125609
0.318958
0.00349058
0.239433
0.123592
-0.363025
-0.078718
0.318882
-0.240164
-0.498557
0.323743
0.174814
0.00450929
0.0275472
-0.0320565
-0.0119773
0.148877
-0.0365567
0.19875
-0.266162
0.0674121
0.0404152
-0.0677792
0.151262
0.0151465
-0.166763
-0.275328
-0.139958
0.176906
-0.0193252
0.388154
-0.575975
0.40406
-0.299606
-0.133827
-0.00875751
0.142584
-0.230886
-0.185997
-0.185758
-0.0778015
-0.196368
0.253624
-0.310652
0.115959
-0.121139
0.133653
-0.00749182
0.102159
-0.472261
0.141583
-0.134435
0.14903
-0.0145951
-0.0958613
-0.265275
0.301036
0.110908
-0.354193
0.490042
-0.135849
0.180374
0.402474
0.0763516
-0.0644364
-0.0119152
0.100964
-0.099126
0.58146
-0.435026
-0.146434
0.155848
-0.62067
0.189873
0.430797
0.0891319
-0.442964
0.0253194
0.357409
-0.432553
-0.160746
-0.338889
0.499635
0.0251157
0.495432
-0.277936
0.0346736
-0.499862
0.465188
0.322486
-0.0759097
0.0647324
0.0116192
0.115977
0.169764
-0.225996
0.0562318
0.414344
0.15628
-0.425142
0.00057681
0.126984
-0.00948868
0.0610677
0.0692248
-0.0288095
-0.125326
-0.500291
0.549671
0.34021
-0.500955
-0.0907291
0.338126
0.0429046
-0.433385
-0.167803
0.00148089
-0.0660753
0.00674094
0.129137
-0.135877
-0.0905717
0.251868
-0.600468
0.185323
0.415145
0.299087
-0.0991335
-0.0100325
0.455412
-0.393096
-0.0623166
-0.212818
0.235753
-0.022935
-0.410595
0.55921
-0.423978
-0.135231
-0.364371
0.219916
0.00373561
0.0383221
-0.0420577
-0.178186
0.15176
-0.146885
0.561228
-0.129165
0.148304
-0.0191386
-0.405238
-0.00898341
0.131452
-0.465452
0.21287
0.401088
0.165428
-0.566516
-0.0769719
-0.360807
0.0790216
0.376391
0.270425
0.120017
-0.101604
-0.0143574
0.115962
-0.18818
0.245585
-0.0574056
-0.0901174
-0.207754
0.487372
0.00518176
0.123934
0.431566
0.115162
-0.543461
0.245933
-0.207119
0.0325259
0.176508
-0.00167339
-0.174835
0.0216713
-0.0237834
-0.215858
0.193466
-0.197454
-0.147038
0.159464
-0.0124264
-0.0117687
0.16303
0.162403
0.404868
0.168494
0.0877998
0.128908
-0.0285544
-0.0869303
0.0728849
0.0140453
0.0465304
0.0056845
-0.115267
0.362519
-0.247252
0.281966
-0.497733
0.215766
-0.0243786
-0.6287
0.28981
-0.500113
0.111861
0.196176
0.0781215
-0.274298
0.0149404
-0.351668
0.128705
0.222962
-0.428172
0.0779205
0.0179925
-0.095913
0.206327
-0.156477
0.0943094
-0.355369
0.26106
-0.182574
0.414239
0.0030439
0.0793001
-0.082344
0.0754862
-0.0843443
0.00885808
-0.0277149
-0.00364674
0.360881
-0.490814
0.103193
-0.429209
0.326015
-0.0439792
0.457518
0.113386
-0.494509
-0.0196966
-0.159191
0.172317
-0.0131262
0.0412279
0.382015
-0.269554
0.0839354
0.185619
-0.198014
0.157786
0.0402275
-0.314933
0.224816
0.0630941
-0.0709115
0.130133
0.363555
-0.493688
-0.122279
0.38423
-0.261951
-0.132189
-0.178463
-0.22504
0.507007
-0.0117823
-0.075148
0.112214
-0.474492
0.362278
0.558857
-0.158714
0.0112785
0.110451
-0.122697
0.0122462
-0.0911573
0.0976481
-0.0064908
-0.0107089
0.0889436
-0.0782347
-0.15798
-0.274268
0.432248
0.103065
0.0842689
-0.187334
-0.35672
0.529956
0.061314
0.315664
-0.530833
0.523017
-0.190376
0.360786
0.0811149
-0.0928972
0.0360072
0.321402
0.13697
-0.170623
0.449275
-0.0866957
-0.573283
0.414407
0.158876
0.135443
-0.444562
-0.14036
0.584923
-0.161979
-0.00492976
0.0318533
0.443604
-0.592406
0.148802
0.314903
0.112275
-0.123429
-0.542707
-0.120763
-0.0864513
-0.111562
-0.0730764
0.176142
0.290798
0.114289
-0.405087
-0.509505
-0.154287
-0.370958
0.525245
0.41531
0.1439
-0.556876
0.38086
0.176016
-0.242403
-0.137204
0.490316
-0.353112
0.326404
0.217482
0.0433902
-0.511608
-0.409909
-0.111855
0.521765
-0.087927
0.278829
-0.190902
-0.182434
0.00434475
0.0558962
0.0109053
-0.158564
0.140092
-0.358305
0.528294
-0.169989
0.553068
-0.447943
-0.105125
0.148532
0.0131056
-0.565199
0.163254
0.401944
0.125402
-0.305304
-0.278674
-0.260559
-0.29038
-0.39291
0.159733
-0.369475
0.258223
0.111252
-0.088736
0.0650424
0.442501
0.146014
0.587406
-0.143803
0.249046
-0.0582335
-0.190813
-0.61637
0.189791
0.426579
0.625556
-0.190429
-0.435127
-0.0367559
0.315033
0.101956
-0.324864
0.00397158
-0.163162
-0.14281
-0.00433269
0.191003
-0.0568058
0.224481
0.167606
-0.163634
-0.157219