/*--------------------------------*- C++ -*----------------------------------*\
| =========                 |                                                 |
| \\      /  F ield         | OpenFOAM: The Open Source CFD Toolbox           |
|  \\    /   O peration     | Version:  v2012                                 |
|   \\  /    A nd           | Website:  www.openfoam.com                      |
|    \\/     M anipulation  |                                                 |
\*---------------------------------------------------------------------------*/
FoamFile
{
    version     2.0;
    format      ascii;
    class       volScalarField;
    location    "100";
    object      ddt0(k);
}
// * * * * * * * * * * * * * * * * * * * * * * * * * * * * * * * * * * * * * //

dimensions      [0 2 -3 0 0 0 0];


internalField   nonuniform List<scalar> 
13749
(
0.00193543
-4.30621e-07
-2.01589e-07
3.94397e-08
-0.00293444
6.90937e-08
-0.0004626
1.74275e-07
7.31086e-07
-1.42271e-07
6.12772e-08
-5.92283e-07
5.69791e-07
0.00668976
1.81539e-07
0.00443521
-1.99542e-05
-2.79032e-08
0.000386127
-6.0967e-08
0.000497225
-0.000798515
0.00015241
1.20123e-06
-1.89018e-06
6.4898e-09
-1.59042e-07
-1.76353e-06
-0.000228335
0.000347197
0.000768389
-5.43813e-06
1.07608e-06
2.07694e-07
-0.0024657
1.42969e-05
0.00260612
5.37658e-07
-0.00262172
-0.000554112
4.54833e-08
-6.43995e-06
6.21693e-09
-0.000586639
-1.4151e-05
5.47445e-08
-1.80428e-06
1.89872e-07
3.61928e-07
-5.71395e-07
3.32811e-06
-4.97906e-06
-3.79749e-05
1.52711e-07
1.6328e-08
-0.000505027
-0.000379411
-4.10982e-06
-6.32098e-06
-3.60311e-08
-2.38936e-06
-0.000517356
2.29127e-05
8.30505e-05
1.0255e-06
0.00176926
2.66016e-06
0.00414943
-0.000148778
0.00156863
-2.69141e-06
0.00420168
-8.76231e-07
-0.0025859
-1.15621e-07
0.00227353
-2.68388e-08
6.47389e-08
-0.000593954
-4.86415e-07
0.00103096
-2.37571e-06
4.02316e-06
-7.36238e-08
0.00200306
-1.27089e-08
0.0121322
1.64971e-06
0.000774194
-3.22019e-07
1.04441e-06
0.00289341
5.03073e-08
-0.000141546
5.1621e-08
0.000289826
-0.000387455
5.86129e-06
-0.000253851
-7.65563e-08
-1.23733e-06
0.00371125
-2.91779e-07
-3.19201e-06
5.64653e-08
-1.68962e-08
8.90195e-07
-0.00116773
5.75625e-08
0.000251232
6.74618e-08
-0.00213469
5.20963e-05
5.58673e-07
-3.99337e-07
0.0031113
-1.99503e-08
-7.62839e-07
2.81913e-06
-6.44907e-07
-1.0054e-07
5.04307e-06
3.10153e-08
1.39854e-08
-1.389e-07
-0.000100706
-4.93998e-05
8.55183e-09
9.11849e-09
0.000943767
-1.92119e-06
0.0147609
-1.85813e-06
-0.000176026
-4.394e-06
-0.000598978
-0.000114187
-3.79236e-06
1.11365e-07
-8.19947e-10
0.000232797
6.82896e-08
-9.15328e-08
-0.000166673
2.70229e-07
9.05405e-08
0.000605171
1.56879e-05
-0.00311701
-0.000433672
6.1776e-08
0.000173725
1.49892e-08
0.00149001
0.000255828
-1.87575e-08
0.0031995
0.000131967
7.35506e-05
-2.69678e-07
-2.14762e-08
3.50305e-08
0.000228467
-6.51545e-07
0.000421938
-1.83057e-06
-1.72435e-07
-3.24212e-08
-0.000567329
0.000281234
-2.87201e-07
3.04992e-08
-0.000201566
0.000546869
0.00260968
-1.3361e-06
1.14414e-05
0.00261436
-5.91696e-07
0.00129565
2.54098e-06
-1.19405e-06
3.62518e-06
-0.000269778
9.29312e-07
1.9023e-09
1.02444e-07
-6.1967e-08
0.000295065
1.97089e-05
-0.0029982
-2.88162e-05
1.3116e-06
-3.83699e-07
-9.78865e-09
-1.08644e-08
1.57161e-06
-2.0998e-08
-1.03781e-06
0.0056325
0.000163045
9.86632e-07
0.000410856
0.000553371
-2.83969e-08
0.00601986
-4.52901e-06
0.00265338
1.44462e-07
-1.88955e-07
-1.59002e-07
0.00654916
-1.9501e-06
-2.47034e-07
0.000914564
-0.000172026
-1.00781e-07
0.000523954
9.93609e-10
-9.20748e-08
8.88266e-08
0.000379684
-5.11854e-06
2.01075e-06
0.00176124
-0.000262704
-0.000309366
-2.09661e-05
0.00650125
-2.12425e-08
0.00188088
0.000149837
-8.71913e-08
4.07167e-09
-6.48357e-08
1.12784e-07
-0.000581018
1.91137e-05
-0.000147417
1.40621e-06
0.00163594
0.000530088
1.71111e-07
-0.000182029
1.07319e-07
-1.18461e-08
2.50111e-08
-2.03668e-07
-0.00049624
-0.00151725
7.5713e-08
1.52676e-08
0.00132889
-0.00364978
0.000129515
4.76479e-08
0.000490458
1.56841e-06
3.89067e-08
2.11297e-08
0.000932078
0.00198896
5.33818e-07
-1.43698e-07
9.63912e-08
1.18763e-07
1.15107e-07
-0.00259369
-0.000789745
5.27706e-09
-3.65555e-06
-1.36666e-06
0.000646275
-0.000396627
-9.16655e-06
-0.000528899
0.00143864
-1.58554e-06
-0.000810767
5.11293e-07
-0.000724823
0.000231204
-0.000614814
4.88608e-07
0.00861003
6.22755e-09
-2.07975e-05
-0.00297282
1.46918e-08
0.000464902
0.000409539
1.57061e-06
-1.35861e-06
-2.24807e-06
0.00208855
0.0024208
-3.96608e-08
-2.0553e-07
0.00198679
7.75071e-09
0.00240465
9.89892e-05
0.00232877
9.95006e-07
9.48433e-07
0.00211656
-0.000884627
-2.04654e-07
-0.000736464
-3.46827e-08
-1.74757e-08
8.55066e-08
-0.0150139
-1.2555e-06
2.33237e-07
3.84689e-08
-0.000743675
-3.4823e-09
4.6252e-06
-3.37502e-07
-3.16535e-08
-9.28423e-08
3.01252e-07
0.00222775
-6.27287e-07
3.37133e-07
-0.000330114
3.58479e-08
-3.69501e-09
0.0031749
-6.0349e-06
-1.0059e-06
5.42903e-09
-0.00032256
8.43914e-07
-3.2891e-08
3.0932e-06
6.60466e-08
7.09751e-05
-0.0119899
8.53197e-08
0.0029362
-0.000322402
-2.24921e-07
6.00988e-08
-2.76833e-07
1.14292e-07
7.32914e-07
2.52168e-08
-0.00148106
-9.90608e-07
0.000584165
-5.03146e-07
-3.27887e-05
1.90111e-06
-7.28469e-07
1.14899e-08
-3.37046e-05
1.50397e-06
0.000390135
-1.03285e-08
6.58476e-06
1.11696e-06
-0.00410526
5.26174e-08
0.000453173
1.24673e-08
2.16821e-06
4.71303e-08
-2.19839e-07
0.00343038
1.55601e-08
-6.14743e-08
-0.000302437
-9.90399e-08
-4.40593e-08
-3.76831e-07
1.76982e-07
0.00157199
4.48225e-05
1.13852e-08
-1.60289e-09
-1.91115e-08
0.00627355
1.50402e-06
0.00156906
0.00220303
2.49067e-05
0.000856982
0.00395018
-8.73922e-09
3.3187e-08
6.89784e-07
-0.00223731
-0.000354874
-9.0766e-10
-1.28793e-07
-3.16397e-07
0.00111275
-9.25459e-07
-8.26499e-07
-2.69197e-08
-2.93314e-05
-0.000103053
0.00044477
-0.00022195
-0.00011244
1.82026e-08
0.00387738
0.015568
6.99123e-08
0.00438585
5.28602e-07
-0.00110243
7.12206e-08
-0.000313605
0.00197851
5.25854e-07
-1.47174e-05
2.78287e-05
-2.65947e-08
-1.17596e-06
0.0020559
1.01725e-06
8.70659e-07
8.96019e-07
-5.00955e-08
7.04302e-07
-8.66338e-08
-4.27416e-07
-3.72734e-06
-1.4152e-06
-1.95611e-07
-3.10969e-08
-5.7342e-07
-4.21881e-07
-1.69222e-07
0.000143509
5.43964e-06
0.000480689
-0.0159574
-0.000508525
2.77692e-06
0.00636133
0.000109504
-0.000582399
-2.07483e-06
1.57344e-07
0.000408986
-0.0011665
-4.61202e-07
-3.54856e-05
8.55787e-08
-5.17165e-07
-3.0704e-08
-1.17718e-06
-1.3403e-08
0.00303871
0.000359485
-4.69844e-05
-2.74706e-07
-6.0377e-08
0.000490114
-1.77469e-07
-0.000357095
0.00348684
-1.00202e-06
-3.33048e-07
-1.45429e-06
0.000526665
-2.03607e-06
0.000396979
2.21093e-08
3.79539e-07
-3.37458e-07
0.00266992
0.000888601
-5.22014e-05
-1.70969e-06
-0.00881496
-2.1272e-08
4.6185e-07
8.0557e-09
-3.33398e-08
-1.0643e-08
2.16437e-07
-2.37053e-07
5.52188e-09
-1.99985e-06
0.00031245
4.25354e-09
-0.0012608
-0.00012152
-6.3055e-08
0.000822303
-0.00037835
0.00210281
8.30955e-07
0.000464091
-1.93003e-06
-0.00555192
2.51435e-05
-1.26144e-06
-5.13646e-08
0.000479199
-6.47901e-08
-7.86597e-08
0.000451183
0.0038485
-3.77395e-09
-0.00219577
0.00206605
-1.41389e-06
0.00330985
0.0143765
-1.33538e-08
0.00172672
-3.0384e-08
-0.00084133
0.000571319
-7.15704e-08
-1.56217e-07
-0.000100698
-3.84243e-07
2.35233e-08
-0.0114947
2.32831e-05
0.00240818
3.19843e-06
-0.00494339
-1.43772e-07
-9.49498e-07
0.000467278
-0.000422408
-2.35079e-06
-0.0113453
0.00288331
-8.97362e-07
0.0030329
-1.59099e-06
-4.34751e-09
-0.00358774
0.000193075
1.38951e-06
1.29583e-07
-0.000135202
1.33773e-06
2.86327e-08
-0.000241662
0.00309719
0.00118892
-1.62087e-07
0.00292511
-1.54469e-06
0.000327494
-8.31176e-08
-0.000166759
0.000778647
8.59394e-07
8.10714e-07
-2.49776e-07
0.000178505
-0.00317585
7.29495e-08
0.00279523
-2.70618e-07
0.00280157
0.00146808
2.83303e-06
-8.56501e-07
4.98082e-09
-5.81012e-07
-0.000371292
-1.41603e-06
-2.3637e-06
0.000436865
-2.28831e-06
-0.00194523
8.70626e-07
-2.17814e-08
0.0144677
3.04615e-06
-1.44067e-08
-0.000402107
-1.08802e-06
-0.000269191
-0.00049245
1.58615e-07
6.87678e-05
-5.67178e-08
0.000628225
8.50778e-06
0.00212307
0.00269165
-7.5497e-05
-0.000266132
-4.34194e-05
0.000834606
0.00329535
5.7321e-07
-0.000320758
-1.01012e-08
0.00176872
0.00346812
0.000462156
-0.000208953
-6.46634e-08
-5.3246e-08
-1.03849e-07
-0.00107526
-1.07974e-07
1.24996e-06
-3.51664e-08
-0.00394021
1.40117e-06
-0.00113044
7.94346e-07
7.03033e-07
0.000462262
7.60814e-07
-2.11338e-07
-0.0155885
0.000149531
-1.72406e-08
-9.61457e-05
2.32041e-06
-0.000965894
-1.4094e-08
5.53892e-05
7.76865e-08
7.77503e-07
-0.00269358
-0.000304366
-1.62236e-07
3.0544e-07
-0.000381692
5.76366e-08
7.35757e-07
-8.02368e-08
-0.000376347
-0.000370469
0.000642428
0.000183708
0.000444197
8.98486e-08
9.71626e-06
-1.5341e-07
0.000787879
-2.37365e-08
-2.63427e-06
0.00140604
-0.00762251
-0.000248279
4.16473e-06
4.40916e-07
-1.17686e-06
-2.44994e-08
5.04023e-05
-0.000242201
-0.000216617
3.99816e-07
0.00155788
0.00304922
0.000267979
-0.000546572
0.000120828
0.00253513
-0.00326363
-6.20028e-09
-1.59363e-06
1.10968e-06
7.7161e-07
3.69038e-05
-5.69077e-10
-2.0813e-08
-1.36977e-05
-0.00687118
3.53953e-06
-0.000386883
-0.000267179
2.68537e-09
2.05989e-08
-0.000122055
0.00334081
0.0136791
-1.52454e-07
-0.000332794
-6.0317e-09
-4.02277e-09
-0.00336817
2.09973e-06
0.00105003
1.07275e-07
9.25369e-08
0.000764037
-1.00197e-06
-0.000492411
2.71062e-08
6.69278e-05
-6.1371e-07
2.04807e-06
-2.46246e-08
-8.72365e-05
1.4277e-08
-0.000441657
-8.89119e-07
-0.00269139
-0.000908009
-5.49764e-07
3.87984e-09
-0.00348571
0.0052494
-3.09015e-08
0.00574387
3.51298e-09
1.02042e-05
2.60521e-06
-0.00851393
-0.00116398
-0.000592857
-6.96064e-09
1.45231e-07
-5.34187e-06
6.57694e-08
1.96031e-08
4.20314e-05
3.07837e-08
0.00626582
-2.61113e-08
0.00319316
-0.00368479
-2.46384e-05
0.00225096
-0.00117138
2.19897e-06
-2.92604e-07
-0.0109315
1.42981e-05
0.00412028
-1.68884e-06
-0.000270147
0.00263886
-9.55299e-08
-4.28397e-06
-3.0138e-08
-0.00052027
-1.31246e-05
8.27456e-08
2.66521e-07
7.2934e-07
0.00270137
3.2855e-07
4.25915e-06
2.48362e-06
-0.000257667
-1.3897e-08
-8.06364e-09
-7.88527e-07
-0.000616133
-1.27117e-08
3.04679e-09
-1.55542e-08
-8.51155e-05
7.54309e-06
-0.000240799
-1.37178e-05
-0.000562702
-0.000531316
0.00247518
0.00120035
6.20646e-08
0.000857803
-6.33186e-05
3.94365e-07
-3.0891e-08
8.67474e-05
0.00168328
0.000774161
-0.00229384
-0.000700639
-1.2375e-05
0.00358158
0.000219357
5.52282e-08
8.33234e-08
-1.13559e-07
9.04205e-07
-4.46045e-08
-2.30852e-08
-0.000429702
-7.53366e-08
-1.57528e-07
-2.9366e-08
-2.29203e-08
-1.46439e-06
-0.000324574
-0.000333405
-0.00050055
-0.0175006
0.000276195
0.00123155
0.000235631
-1.26693e-08
0.00055962
7.83218e-10
0.000375542
-3.16428e-08
8.28276e-09
0.00236186
2.71108e-05
-3.11736e-05
-1.12332e-07
0.00206676
-0.0185835
1.0819e-07
-0.000298239
-5.93922e-09
-0.000156068
0.00346307
-8.86386e-07
-5.91326e-09
3.3742e-08
-6.20306e-07
7.66859e-06
0.000244286
1.10231e-07
-7.97452e-11
1.1432e-07
3.31949e-07
0.0045003
-7.08169e-07
0.000662099
0.000258287
3.0342e-06
-9.27384e-05
1.27556e-07
1.85742e-05
7.78405e-08
-2.77712e-08
-5.07746e-07
-0.000635397
-1.07395e-06
3.48885e-05
-3.16942e-06
9.7378e-08
-1.36041e-06
2.89369e-10
-0.00148624
0.0020959
3.91024e-07
-1.18085e-08
0.00134543
-0.00174069
-1.62531e-05
3.27884e-08
-8.73679e-08
2.3664e-08
-9.60678e-09
-0.00066114
-1.22638e-08
1.54951e-06
-0.000489665
0.00247356
-0.000201722
1.88857e-06
0.00919553
-9.54468e-06
0.0129769
0.000765137
5.81654e-09
-2.46861e-06
0.00211553
6.15813e-09
-9.38808e-08
-9.77714e-06
-2.78325e-07
0.000729807
-3.72325e-07
-5.58865e-07
-0.000622952
-2.17933e-07
-1.20316e-07
8.50926e-07
9.05307e-09
-8.28048e-09
-0.000380606
-4.60074e-07
7.45859e-07
0.0105433
0.00143301
8.2874e-09
0.00414463
-0.000540683
1.18821e-07
-1.22344e-07
2.43562e-07
-2.36944e-06
-0.000783171
9.20034e-08
-4.79965e-06
-4.67137e-07
-4.28739e-07
-2.74661e-06
-1.50329e-08
-4.80048e-08
-2.64323e-06
-1.12633e-05
-1.52719e-09
-1.44137e-06
-8.85039e-09
1.70759e-07
-1.51326e-06
1.56053e-06
8.21956e-08
-9.84966e-08
-1.09282e-06
6.63683e-08
0.00298483
1.73725e-07
-1.9827e-07
-0.00114378
1.5384e-06
-1.20879e-06
-2.35525e-07
3.47125e-07
9.60612e-08
-1.81862e-05
0.00159983
7.34414e-08
-4.10748e-09
-0.00675121
6.45029e-05
-0.00175283
-1.89992e-10
0.000898071
-7.98461e-09
-0.000607075
-1.66731e-07
0.0022569
6.5544e-05
1.34412e-06
-6.41276e-08
2.63872e-07
0.000272269
-0.000490981
1.03978e-07
-0.000300801
0.000364584
-3.1987e-06
-8.97178e-09
-0.000108931
1.19891e-05
1.04124e-08
2.74119e-06
-2.55062e-05
2.83508e-08
9.31977e-08
-0.000265657
0.00105061
5.55299e-07
0.00574508
-2.15758e-07
-7.87742e-05
-2.43986e-06
-4.75321e-08
7.54207e-08
9.41025e-07
0.000282957
8.75031e-08
-1.3163e-07
1.53561e-06
0.000107272
-6.66791e-07
0.00222717
-4.71737e-08
6.90541e-09
3.98284e-06
0.00468907
1.1806e-07
0.00283934
0.0016362
1.06676e-07
1.2507e-07
1.06639e-07
-6.62376e-09
-1.00018e-07
-0.000410118
-1.80228e-05
-0.00228247
8.36815e-08
-0.000387751
-2.50974e-06
-1.32063e-06
-2.83815e-06
2.89385e-06
1.69014e-09
-1.28866e-07
-0.000154922
-1.28789e-08
0.00178976
9.53447e-09
3.96683e-09
3.19062e-07
5.82508e-05
-1.37105e-07
3.16994e-07
9.11266e-08
0.00529386
3.20789e-06
-0.000464661
0.000639674
-1.38517e-07
6.9007e-05
-0.00289226
-0.00174965
0.0020385
1.98548e-07
8.82238e-08
-0.00308093
-5.2065e-05
0.000741296
-0.000609066
6.29948e-08
-8.61017e-06
6.732e-05
-1.04991e-07
2.50302e-06
-6.4556e-06
-4.9192e-10
-5.88882e-05
-0.000327491
-2.18792e-07
-3.4611e-08
8.46266e-05
-0.00030989
0.0101787
0.000392875
9.26511e-08
6.06812e-05
1.68149e-07
1.94904e-08
0.00244751
1.50624e-07
0.00244937
1.09358e-06
-0.00175022
-1.25364e-07
-3.01535e-07
0.00152285
1.468e-06
-0.000334386
0.00292815
1.64386e-09
-8.38138e-08
-1.48804e-08
-0.000505523
0.00196693
1.21777e-06
5.59754e-08
-6.46103e-07
0.00363572
3.24553e-07
-1.5607e-07
-6.30802e-07
-2.69361e-07
-3.7294e-08
4.72628e-09
-6.36123e-06
-2.74552e-05
-8.26039e-08
-0.00136385
-8.52795e-07
0.000951733
5.81445e-07
3.00003e-06
-0.000543848
-5.77386e-10
0.000517372
3.34916e-09
0.000199167
-8.44115e-08
2.31571e-08
3.65312e-07
-0.000205139
-6.61697e-08
6.91283e-08
0.000182324
2.6801e-06
-1.86605e-05
-0.00124287
-2.04857e-07
-4.71635e-07
0.00763651
1.23203e-08
-6.29688e-08
1.44198e-09
-3.94326e-07
6.4879e-07
6.69531e-08
0.00608379
-0.000286859
-0.000114783
1.23229e-06
1.48767e-07
-1.75719e-07
0.00837429
0.00471459
-4.38651e-08
-0.000178432
0.000115621
0.0025789
6.55587e-06
1.07381e-07
7.47535e-06
-0.000577624
-7.17489e-07
-6.75649e-07
-0.000253781
1.22327e-07
-1.44408e-06
0.000134885
1.24674e-07
-2.10171e-07
1.65637e-06
0.00338013
0.00156845
0.00344501
-0.000525537
-1.54863e-05
2.67056e-08
-2.36269e-07
1.61142e-08
-0.000966111
0.00289157
-2.40284e-07
0.000592238
-8.71656e-08
0.000643711
-1.90626e-07
7.67446e-06
-2.09387e-07
-1.94097e-06
-2.28003e-05
-0.000580292
-6.09299e-06
1.7285e-08
4.24348e-06
1.01201e-07
-0.000219808
2.2237e-07
2.73275e-06
-2.57274e-05
-3.80038e-05
0.000420361
1.27356e-08
-1.93817e-07
-0.000331756
4.82843e-07
-0.000398526
2.06497e-06
1.09215e-07
0.00352241
-0.000226369
1.13183e-07
-1.63993e-08
6.53577e-08
0.000324661
-3.11914e-07
-5.36678e-05
-7.30851e-05
-1.47593e-06
-1.16692e-07
-5.02502e-07
-0.000347734
4.88491e-08
0.0102263
0.000250407
-9.50553e-07
-2.77318e-06
8.9183e-05
0.000159687
0.00152381
1.92307e-07
0.00234585
0.000252267
-1.04684e-06
1.18486e-07
1.54722e-08
6.65614e-06
-4.63079e-05
1.42759e-07
-7.48876e-10
3.51226e-07
1.105e-07
-0.000182692
8.98143e-08
1.14709e-05
0.000533294
1.9643e-07
-4.96612e-05
0.0020403
-3.67156e-09
-1.14369e-07
-6.45805e-09
6.9443e-06
2.24179e-07
-1.31664e-06
-4.32004e-06
-0.000288526
-6.18598e-06
0.00120749
0.00210073
-0.00045611
0.000386067
6.06406e-08
0.000307438
-0.000260307
-2.27945e-05
-1.02195e-06
1.81964e-05
-5.66314e-08
0.000134682
2.01858e-06
0.0130857
0.000134855
-7.60672e-08
-0.000568306
-2.41337e-08
-7.74562e-08
-5.82194e-07
-0.000224145
-0.000414267
0.00365049
-0.00164353
0.00020446
1.15848e-07
-0.000171194
1.08545e-06
9.21667e-08
-8.58264e-07
1.36411e-06
0.0105335
-3.85562e-05
0.000544313
-2.7821e-06
-0.000159079
7.37418e-08
-0.00201474
-0.000530622
1.60687e-05
3.90322e-08
2.2452e-08
1.08794e-06
7.14996e-08
2.42441e-07
-5.5972e-05
-0.000404562
-8.90978e-09
6.00068e-08
-7.3316e-09
1.48016e-07
1.40669e-06
2.32664e-08
0.000215537
-2.1878e-05
0.00256098
3.86243e-07
-0.000133395
6.39184e-07
6.67225e-09
0.00278901
6.28866e-07
-0.000963609
1.61457e-08
-1.53704e-06
-2.84511e-07
-2.96908e-06
1.92442e-08
1.91959e-06
5.96907e-07
6.37424e-05
1.55727e-06
-2.1301e-05
8.03289e-05
-3.96693e-07
-2.87193e-06
-0.00179861
3.39353e-07
-2.50522e-07
-5.58124e-07
-0.000283039
4.83909e-08
-4.84225e-08
-0.000498762
-3.09493e-07
-0.00229621
-0.000353341
2.34264e-08
-1.20053e-07
-0.000219654
1.24769e-08
-2.23161e-06
3.12034e-05
6.69193e-05
-8.48359e-07
0.00196502
-6.08589e-09
-6.18498e-09
-0.00129763
-6.53013e-07
0.00460869
-5.47575e-05
-1.75887e-06
0.00203673
-9.84817e-10
0.0104368
2.62279e-07
-3.94136e-06
1.00711e-05
9.61066e-07
3.13095e-08
0.000414684
2.78154e-07
-4.82033e-05
-2.50907e-05
3.99846e-07
-1.48607e-06
1.90155e-05
-1.88097e-07
-0.00231786
8.73432e-08
-0.000179718
-0.000274671
2.11612e-06
7.31849e-08
0.00413842
-1.0138e-07
-0.000478925
-5.53704e-05
-0.000568505
-6.40624e-06
1.26565e-07
5.46011e-06
4.73106e-08
1.79105e-07
0.0010627
-1.29986e-07
0.00249963
3.60278e-07
1.09604e-06
1.78516e-08
2.30064e-08
0.00221688
-1.05605e-08
5.52581e-08
0.00878719
-0.00258975
1.51785e-07
0.000257097
1.32355e-06
-0.000376979
-1.42748e-07
9.71907e-08
-4.50301e-08
0.00960068
-7.58932e-07
0.00038923
1.71465e-07
-0.000458641
-0.00314306
-7.65193e-05
-8.91619e-08
-0.000332507
-0.000637522
-9.15882e-06
6.34898e-07
0.000256233
4.40433e-06
-1.26641e-08
-4.25199e-08
1.33973e-06
-0.000566275
0.000523651
1.60568e-08
-0.000194857
-0.000610478
-0.000479209
1.63635e-06
0.000181328
-4.31361e-07
-9.28704e-07
0.000131151
-0.000300291
8.20376e-08
-1.68932e-07
1.8972e-06
4.28264e-07
-3.62545e-07
8.8676e-08
1.0593e-07
-0.0111346
8.10404e-08
-1.96963e-06
0.0022606
1.07437e-08
9.57946e-08
-0.000683264
6.28189e-08
-0.000133865
-3.42045e-08
-3.86801e-09
-3.32017e-07
-5.27626e-05
-0.000718295
-4.89218e-08
-3.37376e-07
-4.05702e-08
-0.00175455
5.76051e-08
-6.80036e-09
-4.10427e-07
-6.65358e-08
7.22896e-05
1.16103e-07
0.000229703
-9.64804e-07
0.000203124
-0.000250378
0.00603928
0.000419445
1.63749e-06
-1.57809e-08
-9.6493e-07
0.00028708
-2.86756e-05
-0.000347093
1.88133e-08
-1.55983e-06
1.46657e-06
-7.50679e-08
-0.014477
2.34475e-06
-3.37246e-11
5.18743e-08
-0.00108594
0.000494218
8.24981e-07
-0.000100902
-6.25767e-06
-2.24193e-06
-2.44558e-07
-6.17347e-05
-1.16886e-08
8.52598e-08
-4.25753e-08
3.25951e-06
-4.07966e-07
-2.24218e-06
-1.59403e-05
-1.45494e-08
-0.00066558
-2.0536e-07
0.000152066
-0.000825309
-1.02652e-06
-0.00132399
3.84403e-05
6.89978e-08
2.18433e-08
-4.24466e-08
-2.84626e-07
0.00624838
1.56961e-07
-1.11871e-08
-0.000231813
0.00782757
-6.59422e-06
-1.26773e-05
-1.92726e-06
-6.64549e-08
-5.99754e-06
0.00440396
1.93106e-08
-0.00113559
-8.04551e-09
-1.32232e-08
0.000715387
-0.000411074
0.00205276
4.16543e-07
-1.99955e-08
-4.07623e-07
-3.97636e-07
1.64595e-07
-0.000701888
-5.27858e-08
-1.35708e-06
0.000801474
-2.23146e-07
-7.42854e-06
7.77851e-07
-0.000555589
-1.18174e-06
-2.60748e-05
-0.0164931
-1.01369e-06
-7.84391e-08
6.1592e-07
-1.23377e-08
6.64323e-08
-0.00112929
-1.86111e-07
-5.29019e-06
-6.81838e-05
-2.76883e-08
-0.000165002
-0.000135612
-2.08859e-05
-0.00500017
-7.75084e-05
0.000203083
0.000132283
2.14198e-06
1.40529e-08
0.000360146
-7.39578e-07
5.5389e-06
-1.45253e-08
-4.81543e-08
2.79096e-08
0.000384315
-0.00022171
0.00122221
7.60251e-09
0.00182668
-0.000640859
-0.00592126
-5.48761e-06
-0.000269146
9.04014e-05
0.000187005
0.00390999
5.16773e-06
-7.10081e-06
8.06732e-07
8.55025e-05
0.00440193
0.0060741
0.00155098
1.31909e-06
-0.000354622
-1.84176e-07
0.00277856
-0.000370482
4.03179e-08
5.78942e-06
-4.19479e-06
-0.000891195
-5.92648e-07
-1.85524e-08
-2.96821e-08
5.82395e-08
-1.46898e-06
0.00362982
1.22686e-07
0.00952011
-2.01547e-08
-1.38577e-08
-2.97486e-06
-0.00068159
-0.000404105
-7.88105e-09
2.48102e-07
8.2545e-08
-0.000131628
-0.000187572
1.5195e-08
-6.01001e-08
0.00226375
2.48083e-07
4.65251e-09
-1.3684e-06
-0.00075367
1.69875e-07
-7.02991e-09
0.000330882
3.97555e-08
7.93871e-07
2.88747e-05
-0.000582995
-2.46592e-08
-1.00118e-08
7.18022e-08
0.000541757
-5.16933e-08
-0.0027029
0.00198441
1.42749e-08
0.00351426
-0.000598265
1.84812e-06
-1.80829e-08
-3.62258e-05
0.000464507
-3.32806e-05
-2.74512e-05
-4.85686e-08
1.54579e-07
5.01425e-06
-1.04523e-07
-0.000348962
6.17273e-08
-0.0011177
-0.00104418
0.000781612
-1.13388e-06
9.26838e-10
-0.00099579
-1.78093e-08
0.000410432
0.000448036
3.63808e-08
-6.41617e-08
1.30367e-07
4.2728e-06
-9.84791e-07
-0.000221929
-0.000187739
-2.12506e-06
-8.77324e-08
-3.08059e-06
1.32861e-07
-0.0010665
-1.43929e-06
-0.00200497
2.72215e-06
-0.000272037
-0.000631109
-2.67086e-06
-0.000353023
0.00954853
0.00257532
0.00115498
-1.42542e-07
-1.14275e-05
4.23602e-08
-0.00126108
-0.000265755
-3.02756e-09
0.000349454
-0.000290963
-0.00463314
-0.000583229
8.02377e-06
0.00369223
-6.73527e-08
-4.52543e-06
3.03011e-06
-3.37361e-07
-0.0049674
-0.00029407
1.6423e-07
-8.28574e-09
-0.00599777
-7.43862e-09
6.77784e-05
-1.01497e-08
0.00363931
0.000128503
-2.58482e-07
-2.72034e-06
-0.000256819
2.15433e-08
-6.44515e-09
-9.61918e-05
-0.00220979
2.72942e-06
-1.46718e-07
0.000678865
-8.62522e-06
6.5964e-09
2.31467e-06
2.68908e-06
0.00741321
0.00568048
-0.000161342
-0.000378764
1.0399e-06
-4.65653e-09
6.82363e-06
0.00258102
2.49216e-06
-6.75033e-07
8.96825e-08
-3.36697e-07
-1.74133e-08
-2.47157e-10
-8.66048e-06
0.00251341
-0.000108943
-0.00340202
0.00421528
1.17308e-06
-1.22797e-05
-1.94931e-08
0.00355927
-0.000135619
0.000342471
0.00112096
0.000177475
4.37724e-06
2.36399e-07
-1.08803e-08
-0.00950464
8.03931e-08
9.28387e-09
-2.76112e-06
7.63452e-07
-0.000142644
-0.00162194
-0.00034006
9.49082e-08
0.00387217
-0.000717609
3.15034e-07
5.8708e-09
-1.59235e-06
0.0014226
-7.70492e-07
-9.92778e-07
-0.00114101
-1.32566e-08
1.45922e-06
-8.29881e-07
-1.38717e-08
-1.52005e-08
2.19231e-07
-4.35577e-09
-0.0104314
-5.02922e-08
4.52338e-08
-2.56706e-06
-0.000371221
4.39315e-07
0.00204762
4.56607e-06
4.40373e-07
-2.33502e-06
2.67782e-06
-7.26333e-05
2.79109e-06
-0.000270282
-0.00178398
0.00246547
-0.000168587
-9.36366e-08
-0.000848496
9.2485e-06
-2.80421e-05
0.00334448
-0.000295673
0.00893852
4.18907e-07
2.87759e-07
-0.00155751
0.00508522
1.30066e-07
5.08357e-07
-2.87854e-08
9.4698e-07
0.00231213
8.08531e-09
-5.84e-08
0.00282489
9.38101e-09
0.00385928
1.13444e-08
-1.76819e-08
-7.62123e-07
-2.02319e-08
-0.000243266
0.00363184
-8.41075e-06
0.00354907
9.73002e-07
-2.15978e-08
-9.13139e-09
-3.80266e-06
-2.17732e-08
-8.58761e-09
-3.31915e-07
8.46697e-05
-0.000261053
-1.76916e-08
-0.000287754
0.00934134
-0.00156611
-0.000199083
3.5993e-06
-1.20334e-06
-1.07428e-06
-0.000311469
-0.000217859
1.00055e-06
-0.000640529
-0.000317943
-0.000340107
8.07641e-08
-0.000345473
-1.31244e-07
3.656e-09
-4.77264e-07
-2.30295e-08
-5.34927e-06
0.00227282
-0.000482397
-2.14308e-05
3.49559e-05
-0.00150045
-4.37995e-08
-0.000221387
3.48289e-07
4.26221e-07
3.32832e-07
-1.61084e-08
-0.000286459
-0.000346688
1.11887e-06
-0.000352294
0.00444773
0.000106466
4.33114e-07
2.38575e-06
-0.000202123
2.50973e-06
-0.00692015
4.19176e-06
7.47413e-05
-7.77301e-07
-0.000656096
-0.0133295
-0.000348796
-0.000313309
-5.3924e-07
-1.73165e-06
3.95999e-08
-5.99283e-08
-2.17547e-06
-0.000100647
4.9068e-09
3.25869e-06
1.90947e-06
-7.33538e-08
0.000317447
0.000226743
-7.91289e-07
0.000447467
1.2982e-06
0.000114817
-0.000596544
1.65422e-06
-0.00425667
0.00833412
-7.34768e-08
2.8908e-07
7.01949e-06
0.000585259
2.66548e-06
-0.000646272
-1.54747e-06
0.000803076
-5.35396e-06
-0.0003359
-8.12011e-07
-0.00021178
-1.36277e-07
9.66465e-06
-0.000286986
5.14358e-07
1.69502e-08
-0.000609309
-0.000331219
6.86834e-08
0.000220814
3.78831e-07
-5.93978e-05
-1.41482e-05
-0.000292325
1.19192e-05
-0.00389693
3.33788e-06
-0.00108919
1.67396e-07
-0.000395888
-1.63348e-06
-0.000816253
5.9607e-08
-4.46734e-06
9.57187e-07
-1.2524e-07
0.000438017
-5.44141e-05
3.39862e-06
0.00057917
0.00332802
-3.12368e-08
0.00018406
0.00169074
4.73512e-08
-0.0012147
-1.51138e-06
0.000783759
-4.57347e-07
-0.00145045
0.00713993
1.86598e-07
0.0031027
1.02277e-06
-7.96145e-09
-0.0105851
3.46129e-07
1.57108e-07
-4.84744e-07
-6.7206e-08
-3.12493e-05
0.00174106
4.84185e-05
-1.40861e-07
8.9938e-05
0.000101657
-0.000105161
0.000249574
1.80273e-08
-0.000118758
-3.7983e-05
4.37092e-09
-5.12417e-08
-1.49642e-08
-0.00283425
1.05511e-06
-7.36845e-08
-0.000461556
-0.000307906
-0.000167442
2.09782e-08
2.3529e-06
-0.0203422
0.00951587
1.31391e-08
-0.00343231
2.20035e-07
-0.000391151
4.10542e-08
-3.69281e-05
-2.6908e-08
-0.000245474
2.31134e-07
-0.000394763
8.89338e-09
-6.65027e-09
0.00993485
-0.000732911
0.00251128
-1.28412e-07
-5.06083e-06
-5.73261e-08
-1.09102e-08
1.05247e-05
-2.61515e-07
-1.56748e-08
-0.000287168
-0.000314086
0.0048621
-4.8421e-06
-6.78442e-06
9.11449e-07
-9.88146e-07
0.0031903
-3.15701e-06
-0.000107861
1.37343e-09
-1.00714e-06
-3.61232e-07
-0.000299214
-0.000162217
6.67695e-08
1.09708e-07
-0.00475444
-2.56975e-07
-0.000291514
0.0137823
6.33146e-05
-1.88415e-08
-1.79293e-07
-9.00692e-09
-4.64869e-08
-5.21152e-08
0.00302725
-0.000415555
-1.51106e-06
1.1804e-06
1.92133e-08
-0.000323369
0.00376392
0.00273769
1.42137e-08
1.32932e-08
-4.20865e-07
-1.81092e-05
-1.87755e-07
-7.57983e-07
-3.03957e-09
2.12063e-08
-7.36554e-09
2.24437e-08
-9.94725e-06
7.71626e-08
0.000426567
8.68187e-09
-6.05042e-07
7.55231e-07
0.00188237
-0.000263735
-8.28445e-07
-0.000342453
-1.36998e-05
-6.61929e-06
3.98235e-07
2.51784e-06
6.76291e-07
-0.00158354
-0.00804566
0.00546567
0.00338365
4.87426e-08
0.000623627
1.51773e-07
-0.000375736
2.09796e-08
0.00152449
6.82363e-09
4.13103e-07
7.64971e-07
2.21244e-07
5.57061e-07
-0.000264294
-0.0215706
1.0697e-06
-6.18157e-07
0.0036514
-0.000405581
0.000385167
-9.18417e-07
-2.32133e-08
5.6178e-08
-0.000209888
0.000349861
-7.44529e-05
-1.61562e-08
-0.0016574
2.03332e-08
-1.95772e-08
0.00641287
-0.000635838
-5.38023e-07
0.000358425
-0.000220576
2.74299e-05
2.34024e-08
-3.3743e-08
-4.4833e-06
-8.69928e-09
-6.72451e-09
-5.99849e-09
-2.01433e-06
6.71605e-06
-1.49837e-07
6.79906e-07
-4.13667e-05
-0.000311063
-0.000663392
0.00162966
1.19114e-07
-0.000201177
-1.71152e-08
1.48766e-07
0.00226718
0.00527758
-4.70799e-07
8.78555e-08
0.00252148
3.80674e-05
5.7657e-06
-1.57132e-07
2.8956e-07
0.00442376
1.86502e-06
-0.0167287
-0.00139727
-2.45597e-06
5.97824e-08
0.000487538
0.00151035
-0.000247235
-9.03168e-07
0.000858029
5.88443e-08
5.38992e-08
0.00385156
0.00406019
2.55039e-06
-1.12206e-06
6.71962e-08
2.59723e-08
-0.000319239
-0.000205019
0.000220826
-2.60605e-05
1.79996e-06
-1.08714e-07
-0.00302166
0.00493762
3.60501e-08
-6.55037e-07
-1.35245e-06
0.00230821
5.84629e-08
-1.02669e-07
-0.000632964
-7.16317e-06
0.000656763
9.59443e-05
3.23207e-07
2.95223e-06
-2.0239e-08
-1.14144e-08
-0.000686202
-4.37462e-06
-6.10028e-08
0.000244752
-1.6265e-08
-9.56138e-06
5.97721e-08
0.000992152
3.44368e-07
-2.26452e-08
0.000151737
2.5252e-05
-0.00104444
-0.00020961
-1.28362e-05
1.50808e-09
0.000418586
0.00135143
-8.68403e-05
-9.45022e-07
-3.76257e-09
-0.000404206
0.00262007
4.38367e-05
0.0152078
-0.000508031
-9.91709e-07
-2.34493e-06
0.000801801
-0.000319034
4.26726e-06
-1.3916e-07
-0.000661464
-0.0104041
9.52275e-09
3.8477e-07
-0.000444369
0.000256708
-0.000165566
1.76804e-08
-4.52964e-08
0.00090061
0.00108888
0.00338075
2.20767e-05
0.00236976
-2.07411e-05
4.68699e-07
0.000325899
0.000501537
-0.00145401
5.53032e-08
-2.78795e-08
0.000650546
-0.000187558
-2.16382e-08
-0.000490402
-0.000194804
-0.000428413
-3.8745e-06
5.21753e-08
-1.41737e-08
-2.80895e-06
-0.00152053
1.09054e-07
1.34605e-07
2.58302e-07
-0.000400808
-2.45346e-08
0.000231481
-5.64753e-09
0.00422853
2.26625e-07
0.00104436
-2.38993e-07
4.8602e-06
1.15481e-07
2.06655e-08
-0.000352577
0.00349647
2.58365e-06
3.58272e-09
0.00447409
-0.000466282
-3.80039e-06
-0.00066138
-1.66154e-05
0.00132085
-0.00055602
-8.33883e-09
-8.34567e-05
0.000176237
-4.08292e-05
-2.28658e-08
4.37143e-06
0.00265167
-0.0013097
0.00213667
-0.000317581
6.51417e-08
-0.000169644
-9.79845e-05
2.54861e-06
-8.57549e-08
-3.9987e-05
-9.21258e-09
6.65582e-05
-0.000332758
0.000774732
2.3902e-08
-4.68993e-07
-3.8077e-06
-2.954e-06
-0.000266029
-0.000149243
6.68049e-05
-3.2632e-07
-2.0104e-06
0.00731805
-0.0028935
0.00279054
0.00482991
-0.000612541
0.000577523
-1.83612e-08
1.73314e-05
0.00181858
-0.00183403
-0.000511276
0.000794
-1.45749e-08
3.27092e-06
2.10347e-06
0.00419709
6.45075e-07
2.8082e-06
1.36958e-06
-6.37493e-06
-5.10919e-06
-0.00526091
2.19554e-06
-0.0012866
0.000727443
0.000810017
-9.21564e-09
0.000142369
-2.94876e-07
-0.000118985
-1.21929e-07
-1.63992e-06
6.99661e-06
0.00313133
1.60938e-06
6.10665e-08
1.87061e-07
0.00339834
-2.01182e-08
1.8609e-06
-5.02041e-07
1.49831e-06
-9.55263e-08
0.000323882
-1.04157e-06
5.12618e-07
2.4399e-07
-1.19527e-07
-0.000449915
-3.0124e-08
-0.000134107
-0.00343271
0.00345385
2.25197e-06
-2.14289e-06
-2.40108e-08
-0.00149794
0.00290962
6.80993e-07
9.00129e-07
-6.83746e-08
1.4375e-08
2.09988e-09
-0.000190598
0.0030139
0.00202367
-1.423e-08
0.00185505
-0.00128031
-2.77746e-06
-1.3204e-05
0.000474326
5.85983e-09
1.62983e-07
0.00315478
0.00269977
6.96953e-07
-0.000220544
-7.94767e-09
1.48686e-05
8.49758e-08
0.00252173
-0.000584198
2.55944e-08
1.13566e-06
-2.78123e-08
-0.000297557
0.00116881
0.000262961
6.75202e-08
1.8558e-08
-0.00034608
8.46048e-08
7.65412e-07
5.88896e-06
-0.000264277
0.000518847
-0.000346493
0.00335032
-1.35046e-08
4.00427e-07
0.00165184
-0.000550342
-1.3061e-08
0.00345817
-6.61149e-07
-1.35506e-06
-3.25731e-06
5.5645e-07
3.81478e-08
-6.82642e-06
-1.52986e-07
0.000271318
5.0875e-07
-0.000208214
-8.99333e-06
0.00316315
-0.00107283
3.8926e-07
-0.00043708
-1.78364e-07
-1.07485e-06
1.29297e-06
-0.000623246
0.00263125
7.88919e-07
0.000487634
-0.000287706
2.63475e-07
9.3417e-08