/*--------------------------------*- C++ -*----------------------------------*\
| =========                 |                                                 |
| \\      /  F ield         | OpenFOAM: The Open Source CFD Toolbox           |
|  \\    /   O peration     | Version:  v2012                                 |
|   \\  /    A nd           | Website:  www.openfoam.com                      |
|    \\/     M anipulation  |                                                 |
\*---------------------------------------------------------------------------*/
FoamFile
{
    version     2.0;
    format      ascii;
    class       volScalarField;
    location    "650";
    object      ddt0(k);
}
// * * * * * * * * * * * * * * * * * * * * * * * * * * * * * * * * * * * * * //

dimensions      [0 2 -3 0 0 0 0];


internalField   nonuniform List<scalar> 
14479
(
0.0237236
0.0113477
4.34508e-05
-1.07635e-07
8.56538e-07
6.91539e-07
-5.03209e-07
8.81267e-06
3.46907e-06
4.66512e-05
-3.26077e-07
1.49249e-06
-2.79764e-06
-0.00767349
-0.00107034
1.17263e-06
-6.23101e-07
-0.0018948
-1.22669e-07
1.7703e-05
7.35015e-07
3.79925e-06
0.00108629
-0.0133449
4.4147e-08
-2.22701e-07
0.000100779
4.87032e-06
-3.75951e-07
0.000331507
-4.86016e-05
-0.0138873
1.31862e-05
8.0152e-06
0.00122842
2.86123e-07
-6.091e-07
2.92731e-07
0.00258968
8.38452e-07
5.73493e-07
4.16554e-07
-0.00700766
-0.00618665
8.63981e-08
3.77062e-07
-7.29531e-08
-0.0161564
-0.000108415
5.30373e-07
0.000857023
3.08221e-06
-1.21657e-07
0.000907006
2.75363e-05
6.93124e-07
7.26911e-07
-2.60367e-07
0.000188532
-1.10446e-07
-1.63165e-07
-1.13944e-07
-0.00411047
-1.10026e-07
-3.24078e-07
-4.56486e-05
-0.0183686
0.00245505
-8.96137e-08
-4.09314e-07
0.00888597
-4.09187e-08
0.000257855
1.11158e-06
-1.70494e-07
-6.88374e-08
-5.47241e-06
-0.00619316
1.51634e-07
0.000345496
-1.75139e-07
-3.61158e-07
0.00733591
0.000815697
-0.00180166
5.30988e-07
9.6544e-08
-4.17428e-07
3.46436e-06
-6.09703e-07
4.55571e-06
-0.00078894
0.000413888
-9.97223e-08
0.00108479
-5.34221e-08
1.86582e-07
8.93533e-08
-8.13533e-08
-0.00625116
-0.0333385
-7.35757e-08
-0.00015864
0.000523975
0.00373189
-3.77961e-06
-0.0163925
1.21908e-05
-0.000388921
-0.00529434
-0.0221062
-0.000635156
-6.22023e-05
1.93908e-06
-8.775e-06
4.42169e-06
1.13851e-07
-0.000600546
-6.44812e-08
-1.64274e-07
1.14864e-07
-0.0188921
-0.000720974
-6.71161e-08
0.000118275
-8.72094e-05
-6.0135e-07
0.00320229
1.39816e-06
-0.00153586
-0.000106734
-0.00165604
-0.000403715
-0.0226153
0.00155304
-8.04881e-07
3.88392e-06
1.35267e-06
0.0246626
-8.86783e-05
-0.00688524
0.00153147
-5.76029e-07
-0.00988862
-2.08469e-07
-0.00516352
0.00825858
6.01775e-06
-7.48137e-05
6.70022e-07
-0.0122703
1.55407e-07
0.00177832
2.44079e-07
-2.32647e-07
-3.09246e-07
0.0070235
0.0110021
-0.00519537
6.7143e-07
9.66729e-07
-8.55252e-08
1.32535e-07
-1.38486e-06
0.000341761
-4.12551e-07
2.51516e-07
4.84003e-06
-1.14467e-05
-0.00392247
0.000311596
2.62794e-07
-1.76172e-06
-2.60329e-06
-1.53753e-07
-3.79991e-05
-2.74723e-07
7.16697e-08
-4.13543e-05
-0.0404151
7.64945e-06
-3.97416e-06
-0.00644954
7.23461e-05
-0.00278023
-4.31887e-05
-0.000249566
0.0192664
-4.78514e-07
0.00376972
-0.0178838
0.00232001
-5.63641e-05
-0.0010169
-3.22963e-07
4.33864e-07
9.74024e-07
-8.36587e-05
7.3167e-07
1.00676e-07
-3.12772e-06
-3.5657e-06
5.84937e-07
2.65812e-07
1.1109e-06
2.83461e-06
-0.00331255
-1.39566e-06
-7.67686e-07
4.52393e-07
5.06585e-07
-3.91779e-07
1.37042e-06
5.74842e-07
-0.00108239
-0.0011899
7.80473e-05
0.000110949
-0.0020414
-0.00019691
0.000904813
-0.000528776
5.04109e-09
0.000108182
0.0029435
-1.96242e-07
0.00041256
1.06478e-07
3.7596e-06
4.47194e-05
-1.07915e-07
7.66762e-05
-0.000362775
2.88713e-06
4.03083e-07
0.0169404
2.24186e-07
3.20106e-06
0.0190651
-9.83766e-08
-6.30742e-07
9.7499e-08
3.71687e-07
1.71932e-06
-3.66657e-05
-1.11091e-06
-0.0038052
5.74576e-05
-1.25156e-07
-2.22224e-07
0.000733165
5.79181e-06
9.51547e-05
3.07525e-05
-0.000774063
-8.57924e-08
8.84029e-07
-8.57337e-07
1.21103e-05
-2.03098e-07
1.21596e-07
5.23155e-07
-1.90817e-07
6.10736e-08
-9.06856e-08
1.20344e-06
3.02229e-07
-2.44924e-07
-0.00899528
3.71312e-06
7.84526e-06
2.3025e-06
-0.0160222
1.30092e-06
2.48696e-06
0.00516966
6.50015e-06
-7.75972e-07
7.15864e-07
-5.68917e-07
-1.1158e-06
-2.13017e-07
-6.33763e-07
-6.64628e-08
3.95191e-06
0.000280098
4.58803e-06
-0.000276253
1.43885e-07
0.0207031
-3.48533e-06
-7.02801e-08
6.65345e-06
-0.000247643
4.31131e-07
0.003582
0.0279289
-6.9929e-07
2.95647e-06
0.00698339
-0.0192141
-3.24772e-05
-8.24431e-08
6.79689e-07
1.46967e-06
0.0057531
-5.51319e-07
0.0047574
-6.4791e-07
-6.96955e-06
9.70881e-07
-0.00438097
-2.37643e-07
6.303e-06
9.64668e-07
-0.00133088
-0.00123944
3.08765e-07
7.59462e-07
-7.28869e-08
0.0210465
-4.08491e-06
-0.0169651
-0.00251052
-1.78843e-07
0.0112831
0.0146659
0.0075695
-1.04769e-06
-6.97032e-07
0.00339658
9.22105e-07
1.70539e-05
7.18522e-06
-4.80237e-08
-6.22557e-07
0.0083792
8.83914e-07
5.47151e-07
-1.80028e-08
-4.7123e-07
5.90721e-07
-4.44816e-07
-3.18047e-06
0.00855305
9.8221e-07
0.000781815
8.70255e-07
6.62417e-06
0.000132988
-1.55733e-07
-0.000153618
-0.000170349
0.00011309
-6.37819e-07
0.00918344
0.00177848
-0.0105601
-2.44632e-07
0.0223504
-3.56496e-06
-6.82343e-05
0.00237292
0.00526723
-1.7675e-07
-3.83635e-06
-6.28198e-07
-3.95214e-06
-2.10968e-06
-7.04183e-07
-6.39685e-07
0.00287257
-5.78707e-07
-3.19149e-06
0.00500894
2.68766e-05
-1.39364e-07
2.91838e-07
-8.04771e-07
-5.94029e-07
2.02741e-06
2.0813e-06
-1.37573e-07
-4.87704e-06
0.000309259
7.46136e-06
-0.0044105
-4.78012e-07
-0.00183981
-1.95479e-06
3.35255e-06
-8.8937e-05
-2.36547e-07
-0.0392607
0.0093521
2.51816e-05
3.18581e-06
0.0138372
2.64711e-05
1.18141e-05
1.81758e-06
2.092e-06
2.18822e-06
-5.52331e-05
2.42869e-06
-1.20548e-06
-1.28043e-06
1.06772e-06
0.00053338
4.82573e-07
0.0083277
-4.40923e-05
1.63114e-06
1.16998e-05
-4.90559e-07
0.0239426
-5.43334e-07
-7.93841e-07
-0.000181218
1.8758e-06
-0.00620091
0.0212337
-0.0025896
0.0260623
0.00205211
-6.80369e-07
-1.25737e-07
6.44202e-07
-2.71828e-06
1.46828e-06
5.77059e-07
2.35671e-06
6.79208e-06
-0.0102632
0.0111505
-1.39683e-06
0.0194129
-0.000157579
1.17647e-06
-3.63092e-07
0.0201145
-7.17072e-07
3.36021e-06
-0.023207
1.79722e-07
5.2723e-08
2.61041e-07
0.0103805
-1.09592e-06
6.53725e-07
3.72199e-06
-1.11107e-07
-0.000854108
1.16172e-06
-0.00160264
-8.02871e-09
-1.54455e-07
0.000264534
-0.00147816
-0.000135235
-1.31524e-05
-5.23401e-07
-9.48191e-07
1.65786e-06
-0.000170103
6.51655e-08
2.00696e-06
0.000301408
0.0200921
-1.62742e-07
1.23387e-07
3.67191e-06
-1.88936e-06
2.03952e-06
0.0548461
-4.74501e-05
4.7174e-06
-0.0196257
4.87989e-07
-4.95089e-08
-2.31985e-06
-6.56243e-08
-0.00157724
0.000990256
2.5745e-06
-7.29652e-07
-2.28191e-06
5.22663e-07
-0.0155613
2.12175e-05
-3.2225e-07
-1.20585e-07
-6.29143e-06
-4.47988e-07
-9.40607e-07
3.74721e-07
-2.75375e-09
5.58679e-06
-3.20414e-07
2.25428e-07
-1.39914e-07
8.58538e-05
-2.08184e-06
1.18979e-06
0.0271339
1.75852e-05
2.94833e-05
7.58297e-06
-6.20167e-06
-5.02666e-07
3.28446e-07
-3.96172e-07
-9.72197e-08
-1.303e-06
-5.28309e-07
0.000177375
-0.00146312
-2.90852e-07
-0.0168097
-8.62701e-06
0.0498441
-1.66628e-06
1.13692e-07
9.13776e-07
2.9862e-07
-1.34381e-07
-1.18601e-07
2.45421e-06
0.000860166
-1.11317e-06
0.00308711
-4.91538e-05
3.27412e-07
-3.41561e-07
-8.25469e-08
3.40853e-06
-2.10898e-07
-7.9127e-08
2.62379e-06
5.11907e-07
2.66989e-07
0.00334433
1.67068e-06
-2.22083e-07
0.00542018
-3.95462e-07
-0.000355941
-0.00195268
-0.00188809
-1.17274e-05
9.76707e-08
3.27946e-05
9.51985e-06
-4.13164e-08
5.18785e-07
-0.0057842
-0.032378
7.90437e-06
-5.94866e-08
0.0143417
1.09354e-06
-5.93713e-07
1.05e-07
-0.0074581
-9.48593e-06
9.94025e-07
-2.99961e-06
-0.0046598
1.10598e-06
-3.38791e-07
-8.23575e-05
-5.46919e-07
2.50884e-07
-3.09412e-06
6.24754e-07
1.58973e-05
0.00861453
-3.81363e-07
4.41313e-06
0.0236953
-0.000119446
-6.92103e-07
1.30048e-07
0.0115315
-1.28437e-07
0.000513093
2.75609e-07
-9.71189e-07
-0.00444726
1.77828e-07
7.04257e-07
8.51437e-07
-0.00983876
-0.0243942
-6.87712e-06
0.0146696
-0.00206478
5.40264e-08
-0.000960376
2.10311e-06
-4.3488e-07
-1.09106e-06
-2.46094e-06
6.58223e-07
2.49772e-07
5.80446e-06
-9.43753e-05
1.47773e-06
1.95177e-07
-1.12098e-06
4.57875e-07
0.004552
-0.00217728
3.18722e-07
0.0132113
0.0249528
5.35459e-07
-0.00142035
6.93357e-07
0.00184652
-0.00117936
0.022319
9.49647e-07
0.000608746
-3.95543e-07
7.82366e-07
7.98586e-05
-0.0231675
3.55605e-07
9.44886e-07
-9.41976e-06
-8.4558e-08
0.000286858
-6.43071e-07
-4.13087e-06
0.00696893
-8.55912e-08
-1.62578e-06
0.00476288
-5.18702e-08
3.38615e-07
-3.87599e-07
0.0184598
-0.000183365
-5.28294e-06
-0.034671
-6.21771e-06
2.11682e-05
-1.86656e-06
1.0416e-06
-1.25721e-07
-2.60342e-07
-7.5365e-07
0.0255647
-6.59382e-06
-3.25043e-05
-0.00159417
7.07847e-07
0.00568983
-9.76478e-08
-0.00593566
0.0153555
-0.00179773
-1.92364e-06
1.95349e-06
0.0114579
-1.47924e-05
-2.68528e-06
1.20412e-06
6.85911e-08
6.34205e-05
-4.98662e-07
-1.79733e-07
-3.82502e-07
-1.90565e-07
-7.70987e-07
-8.86337e-07
1.58693e-07
2.44477e-06
-0.000495428
-5.20662e-07
-1.13134e-06
6.62591e-07
-0.000167084
0.037384
3.9043e-08
0.0040997
-3.19531e-06
-0.00845117
-0.001194
-0.00248034
3.82796e-06
-1.74622e-07
-9.89047e-08
-4.33687e-07
1.48716e-07
-6.82842e-06
-3.32121e-07
6.23535e-06
3.66817e-07
-2.06176e-05
-2.46409e-06
1.60701e-06
-1.53193e-07
-7.01665e-07
5.25571e-06
8.80769e-07
0.00017698
-0.00704801
0.00035718
0.0199188
-0.00214049
0.0189304
-0.0037434
1.47528e-07
0.000550045
-4.68535e-06
3.39243e-05
4.64701e-07
-1.32408e-07
0.00230417
-0.000964798
4.33953e-07
2.4462e-07
0.0438606
-0.034912
9.9424e-07
0.000406086
-0.00139125
-1.53781e-06
-3.79281e-07
-1.15956e-07
-5.62955e-06
0.000486776
0.00158281
-2.08075e-07
8.06179e-07
-3.81408e-08
7.74763e-07
-0.00173365
-1.65984e-07
2.97511e-07
-4.18369e-07
1.87233e-06
3.03953e-07
-4.79047e-07
3.44861e-05
9.1105e-08
3.02949e-06
3.51861e-05
-0.00306704
-5.55584e-07
-7.60654e-06
0.000500814
0.0204622
6.22886e-07
0.00195273
-0.000769298
1.18231e-05
1.80662e-06
-0.00145814
6.83048e-06
5.99274e-06
-0.00594787
-2.63434e-07
0.000968632
-1.95588e-05
9.13787e-07
-3.79226e-06
-3.23991e-07
9.98906e-07
-2.3965e-06
-1.65478e-07
6.36188e-06
1.04987e-06
-0.0144211
0.000521632
-0.0474437
-3.91271e-07
5.02778e-05
1.62854e-07
-6.67737e-07
1.40132e-07
2.78333e-07
-0.00452742
2.73911e-07
-3.60417e-07
-1.49093e-05
3.45671e-07
-4.1577e-05
8.95953e-06
1.19439e-06
-7.23603e-07
-0.00229592
4.2011e-05
-2.27819e-07
6.19783e-05
2.91094e-06
-2.10363e-07
-0.0105353
-2.7545e-07
7.78007e-08
-2.54589e-07
-6.44169e-07
0.000153502
-1.05573e-06
6.54043e-05
1.17005e-06
0.000253162
4.04833e-06
-6.22232e-05
-0.000271241
-1.69145e-07
-2.84432e-05
-2.96054e-06
9.3439e-07
5.62002e-07
-3.98524e-05
-2.62975e-07
-3.72135e-07
-0.0053649
-9.92003e-08
0.0117853
0.00336732
4.47068e-06
-0.0054699
2.60061e-07
-7.74701e-08
0.000291147
4.07728e-06
1.08544e-06
-2.67147e-07
-4.68502e-06
-0.0101696
0.00143187
0.000106771
0.0214798
3.2427e-06
0.017119
6.75664e-06
6.75226e-08
1.24653e-06
-4.59355e-07
4.89196e-07
-0.00169127
2.52153e-07
-6.70998e-07
0.000378316
-1.51069e-07
1.07594e-07
-4.70932e-05
0.0344428
-0.000175475
-0.000273079
0.000399405
0.00517688
0.000830012
-1.61238e-06
7.70937e-05
-1.39562e-07
0.00195629
5.17313e-06
-0.0155797
-1.01512e-07
-0.000238281
-1.86483e-07
1.61327e-07
0.00194151
-6.04944e-05
-0.0100214
6.31203e-06
4.38666e-08
5.38773e-07
-2.57648e-06
-3.3282e-07
-3.33635e-07
-5.27421e-06
1.78173e-06
0.00010897
-4.04381e-07
1.75793e-06
-2.81435e-07
-0.000469022
-0.000137398
-5.44669e-05
-5.55822e-08
-0.027648
-6.37233e-06
-1.29236e-07
7.48401e-07
-1.41283e-05
-0.0511583
-5.29533e-07
-0.0204255
3.03476e-07
5.6844e-07
-4.92572e-07
0.0404287
1.55075e-06
-1.05741e-07
1.28644e-06
-9.53076e-06
-0.00110343
3.52551e-07
-6.35751e-05
0.0113953
-0.000939529
4.37254e-07
-2.06325e-06
-5.91597e-08
6.60891e-07
-2.38391e-06
7.80926e-06
-0.0315453
-0.0188067
2.69511e-08
1.06106e-06
9.84378e-07
3.95035e-06
4.36444e-06
0.00521997
-4.64566e-08
-1.23327e-06
0.015781
-0.00119576
-0.0261291
-2.53032e-05
5.5292e-07
-1.71918e-07
-6.64598e-06
-6.31876e-07
-4.95779e-07
1.12594e-05
2.65179e-06
-9.93235e-08
-0.000148927
0.0217406
7.90579e-07
-0.0275648
2.91195e-07
-0.00264198
2.34262e-05
0.00397456
-0.0201839
-0.000146017
0.0198194
0.000158536
4.87232e-05
0.00395991
-9.63786e-08
-0.000934759
-0.00268353
4.05928e-07
9.54648e-07
-3.10529e-07
-0.00014468
0.00517692
-0.00134476
0.020698
-2.1474e-07
-3.568e-07
-0.000116742
-4.30111e-07
-1.57603e-07
-3.75847e-07
7.6694e-06
9.64538e-08
-2.59895e-07
9.83916e-07
-4.0524e-06
2.76533e-06
6.17344e-06
0.00746423
-3.95112e-07
-5.01879e-07
-0.00222716
1.27447e-07
8.52557e-06
-0.00220336
-0.00484695
1.1424e-06
8.19997e-07
-4.06255e-05
4.24963e-06
0.000696198
0.00147348
0.000308523
-3.18305e-05
-6.36208e-06
1.04652e-06
-1.65839e-06
-8.65308e-05
-0.000261035
6.36482e-07
1.22957e-06
-6.39181e-08
8.61248e-07
-4.48956e-07
0.00046105
-9.11828e-05
1.12391e-07
0.000477371
-3.03036e-06
-0.00189316
-0.0200467
-0.000328417
8.20386e-08
-1.29158e-07
-0.00917807
-4.85268e-07
0.0158058
0.000287574
-4.51315e-07
0.00297797
-1.0845e-07
2.57459e-06
-0.000395238
-5.70684e-07
0.00128322
4.56054e-07
-3.08693e-06
0.0153882
-0.0184554
-1.59049e-06
-1.10546e-06
0.000209649
5.00104e-07
1.11241e-06
-2.88923e-07
-0.000655482
7.37314e-07
6.49964e-07
-4.35902e-06
2.08848e-05
3.43017e-05
0.0172785
2.39841e-06
-0.00274974
-2.4967e-07
0.00538845
-8.30024e-08
2.68182e-06
-3.17548e-07
-3.10659e-07
4.13297e-06
-2.76155e-07
-9.2241e-05
-1.08118e-06
1.74553e-05
2.48146e-06
3.86049e-08
3.3358e-06
-0.000181624
6.6916e-07
2.78359e-06
-2.15364e-07
-0.000613598
-3.75613e-07
-6.18789e-08
7.19587e-05
-1.86826e-06
-4.55137e-07
-0.0257632
-7.39625e-07
5.79473e-06
-4.207e-05
-5.82246e-07
-4.73178e-07
-0.00735025
0.00579094
-0.00198051
-0.0213729
3.08277e-07
-0.00108249
0.0249972
1.53431e-06
-8.25826e-08
8.04891e-08
0.0100309
-2.80953e-06
-0.00563053
-0.000422086
-2.54475e-07
0.0157834
-9.3306e-07
-4.23234e-07
0.0186146
1.38265e-06
0.0153415
-0.000158115
7.35574e-06
0.00141966
-1.702e-06
9.44244e-08
-0.000907839
0.00105974
0.00237935
0.0129195
0.00011884
-0.00137501
2.11034e-06
-1.43813e-05
2.41401e-06
-2.35422e-07
7.93967e-07
1.74531e-07
7.52551e-06
1.23239e-06
4.30238e-07
2.08919e-06
3.75054e-05
7.15179e-07
-8.35165e-07
0.000127981
4.89468e-07
1.05562e-06
5.36031e-07
-1.54054e-05
-0.000673913
-0.0129383
-3.44439e-07
0.00752955
8.73855e-06
3.73713e-06
-0.000177973
1.14792e-06
0.0023755
0.00196512
1.67901e-06
3.42237e-08
0.00580239
-0.00449743
-0.000353871
-0.000133936
-5.15516e-07
-8.5629e-07
-5.46968e-06
4.47746e-05
6.50348e-06
5.09296e-07
-3.37835e-06
6.86449e-06
0.00598782
5.42895e-07
-0.00163121
7.77665e-06
1.29956e-06
-1.57043e-06
-9.962e-08
3.36631e-07
1.59149e-07
9.84847e-07
4.26745e-07
-1.72284e-05
-2.39909e-05
-0.00155385
0.0145101
-0.0143569
9.63414e-07
-0.0129679
1.46742e-06
2.81079e-07
3.38559e-06
0.000184208
2.29267e-06
-3.31509e-06
0.000350023
-4.69856e-07
0.00107996
5.92462e-07
5.46278e-07
-1.12125e-05
1.21282e-06
-7.11447e-06
-0.0173479
2.73811e-07
-8.20076e-05
0.00120005
2.85338e-08
0.00945384
-0.00032156
-5.89102e-07
8.36604e-05
2.78219e-07
-2.0947e-06
-6.18299e-06
8.75455e-07
-0.00642234
2.93302e-06
-4.17229e-07
2.58617e-06
1.0682e-06
-0.00689143
1.06669e-06
-1.52767e-07
1.9792e-06
-1.85972e-07
-0.00985097
0.00138492
-1.9705e-05
0.000270057
0.000561345
-1.74995e-06
1.83699e-07
-0.00021551
8.95682e-07
3.24036e-07
-4.97543e-06
-2.17726e-06
0.000194577
1.16696e-06
-0.000925782
-8.47539e-07
0.00105096
7.30223e-07
-0.00343133
-1.77047e-07
9.74519e-06
-1.81876e-06
1.50282e-06
1.24127e-06
-5.8606e-07
2.89769e-06
-1.81732e-06
-1.85466e-07
1.69856e-06
2.24611e-06
5.88758e-05
-0.000186343
0.0537369
-0.0371863
4.34843e-05
0.0108685
-0.00161297
0.000681317
4.11005e-07
-5.46198e-07
1.83882e-06
-1.75296e-07
-9.47079e-08
2.36006e-06
-0.00571174
-5.05388e-06
-2.14717e-07
-0.000162404
-0.00203983
1.41036e-06
-1.50822e-07
-4.88871e-06
0.0471274
-0.015097
4.40002e-05
2.78432e-06
-0.0110288
-1.3563e-06
-5.11347e-05
-4.05674e-07
-0.00337239
7.48431e-07
2.08067e-07
-0.000163841
-7.21379e-08
1.18813e-06
9.99139e-07
0.00121555
0.0198728
-0.000127904
3.07985e-06
-0.00199803
-0.0052478
2.56648e-05
6.45189e-07
0.0441585
-0.00351682
-8.31412e-08
0.00129172
6.87936e-05
-1.87917e-06
0.00195472
-0.0159644
2.3994e-07
-3.10529e-07
6.71456e-07
0.00558265
1.23746e-06
3.12212e-05
0.000745858
-9.84225e-06
6.94046e-07
1.75084e-06
2.31479e-07
-1.48905e-06
0.0269228
-0.0216059
-3.1267e-06
-5.78265e-07
1.57906e-06
-4.85584e-06
0.000326139
-3.66348e-08
-8.65783e-07
5.46663e-06
-1.68752e-06
-0.000405359
4.03352e-07
0.0106281
3.90912e-09
-3.28295e-07
5.2287e-07
-0.000207325
-0.0325437
-4.88226e-07
0.0466159
9.72762e-05
-1.99832e-06
-8.48381e-05
-7.25414e-08
-2.18506e-05
9.65179e-08
3.55232e-07
3.24968e-06
4.98712e-07
-2.57513e-06
-3.10801e-07
-3.1733e-08
1.54752e-07
0.0139824
1.86087e-07
2.10327e-06
-1.38294e-06
6.23997e-07
1.49544e-07
-3.76801e-08
2.73225e-06
0.000351499
-0.00606617
-1.07629e-07
7.87972e-07
-3.9228e-07
-0.00231439
5.13816e-07
0.000488184
0.0139102
0.000954892
1.56262e-06
0.0305894
1.32977e-07
-4.80037e-05
-0.00240421
0.00140192
9.42156e-07
0.000100271
-0.00268065
-0.000171676
1.70501e-05
3.03626e-07
1.5778e-07
2.13488e-06
1.95554e-06
3.63807e-08
-3.81763e-07
-0.0162487
0.000823257
-9.89312e-08
3.19875e-06
6.17662e-07
0.0034581
2.63918e-07
1.50274e-07
-2.10714e-07
-6.27576e-08
0.020129
4.77211e-06
-0.00431876
-3.7752e-07
3.40198e-06
3.34565e-07
1.72712e-07
7.72869e-07
1.46618e-06
3.18333e-05
2.17684e-05
-7.85391e-07
-0.0006395
0.000425804
-1.76866e-07
-2.68081e-05
-2.66491e-08
0.00977839
-1.93353e-07
6.77559e-07
-0.024669
-9.48954e-05
-1.74033e-05
0.00306661
-1.00252e-06
-3.14446e-07
1.61229e-06
0.00223221
0.00245288
3.76627e-07
-4.80182e-08
0.0446546
0.00126557
-8.24901e-08
-7.28662e-07
0.00126612
1.88521e-06
-3.95928e-06
0.0149496
-2.84102e-08
5.23053e-07
1.70143e-08
2.25405e-07
0.0030308
0.000575532
-3.9407e-05
-0.0017755
4.31053e-06
-4.45185e-08
-1.22112e-07
-3.62065e-08
1.813e-06
1.69809e-06
0.00720302
8.24794e-07
2.44466e-06
8.19111e-06
-0.00312762
2.14024e-07
-2.32228e-07
0.00057716
-1.90958e-06
0.017338
3.2557e-07
5.59924e-06
-5.09467e-06
-0.000950473
-0.00113012
1.96223e-06
2.29105e-06
0.010998
6.89599e-08
-1.14282e-05
-7.45091e-05
3.46966e-06
-0.000364508
0.0259009
-5.05047e-05
-1.21963e-06
1.20936e-05
-2.62589e-06
0.00144493
-0.0135759
0.000151083
2.62529e-07
0.000100897
-1.52969e-06
-3.15119e-07
2.84715e-05
9.90078e-07
-4.09122e-06
-3.12882e-07
1.29825e-07
0.012626
1.34442e-06
2.60217e-07
0.00439124
-4.42874e-05
0.000217823
0.0179877
-0.00650114
-3.15369e-08
2.21891e-07
0.0168951
-2.94142e-09
-1.18629e-07
-9.79454e-07
9.79933e-08
1.94669e-05
1.19181e-05
-1.77024e-07
4.80624e-07
2.55826e-06
-0.0077468
0.0165985
-2.07301e-05
1.88817e-08
1.84666e-05
-4.4078e-06
-6.66202e-06
-1.22986e-07
0.00896248
0.000830143
-2.30445e-07
-1.57858e-05
0.0113597
-8.17891e-07
-0.0115826
-4.70941e-06
1.13897e-05
-3.38765e-07
-4.19535e-07
0.00407061
8.23999e-07
-0.0136195
1.52969e-07
-0.000240148
0.00185725
-1.14628e-07
6.6272e-08
6.10938e-06
-0.00105034
-0.000536594
-3.57315e-06
5.46515e-06
5.71351e-06
0.0019925
5.76216e-07
0.000828548
-2.99827e-07
-9.25344e-06
0.00714606
2.48445e-05
-0.00279671
-0.0209381
7.97979e-05
-0.0164461
-1.26011e-06
-0.00512759
-0.000115845
0.00362713
-2.40861e-05
1.04448e-06
-5.4453e-08
-1.17424e-07
-2.8204e-07
-4.18896e-08
1.47917e-06
1.40381e-07
6.76432e-08
0.000503648
-0.0035472
1.38708e-05
0.000331101
-0.00180743
-4.1275e-08
-0.0186365
2.17821e-05
1.26607e-06
0.00210436
-1.65781e-06
3.74224e-05
2.39161e-05
-0.000136534
3.31889e-07
-0.000324641
6.45508e-07
-0.00135151
2.22649e-06
0.000177662
2.95842e-06
-0.000170277
-1.01883e-07
-0.00306778
9.70265e-06
0.0229973
2.86599e-06
0.000267196
0.00247531
-6.47315e-07
1.42511e-07
2.04631e-06
1.12638e-06
8.07353e-07
-7.58177e-06
-0.00528189
0.0199712
0.000223635
-1.29559e-07
-3.2054e-05
3.67091e-07
0.0274468
-0.000839146
1.91407e-05
-0.00237638
1.0378e-05
3.93335e-07
2.43359e-06
9.15239e-07
-4.37704e-07
-6.96749e-09
0.00925076
4.66444e-07
-5.87338e-08
1.29299e-06
-1.29917e-07
1.19429e-07
-0.00174409
5.56012e-07
-6.469e-06
-8.63019e-07
0.0259593
0.00208277
1.95369e-06
0.00054759
-0.0114873
3.73588e-06
-0.00675566
-7.96193e-07
3.123e-07
-1.3646e-07
2.27665e-06
0.00165871
-2.06724e-06
1.08654e-06
-4.77936e-06
-1.42214e-06
6.35972e-06
-0.000221779
0.000185122
-1.44092e-06
-0.00012356
-5.34416e-07
1.50818e-06
0.000584273
-3.67142e-06
-1.24779e-07
-0.0311307
-4.24156e-07
1.44114e-07
0.020817
-3.31213e-07
-0.00606589
0.00415264
2.27776e-05
-2.1016e-07
0.000863635
2.16785e-07
0.00371607
4.87543e-06
1.97873e-06
-5.91328e-06
-0.000206041
-1.07045e-07
5.65939e-05
5.08498e-07
0.000571715
0.000731218
0.00132201
4.40596e-06
6.40931e-06
-2.36397e-07
1.11792e-06
-3.19107e-07
-5.18306e-06
0.0026619
-6.32181e-06
-5.07842e-05
0.000170081
-1.03654e-07
6.89276e-08
-0.000308127
0.0183669
2.78623e-05
0.000593153
1.51222e-08
1.62187e-06
3.699e-06
-0.00930694
-0.00991979
-9.36837e-07
3.83719e-06
-0.00446428
1.14905e-06
0.000190851
-1.36415e-07
-1.92244e-07
0.00714328
0.0240475
0.0219961
-1.07004e-07
-1.78839e-08
1.04688e-08
-7.45842e-07
0.00680131
0.00326877
6.05501e-07
-8.64065e-06
-1.57075e-07
-0.00252445
-0.000140546
-0.00296055
-0.0136456
1.17619e-06
-6.25516e-07
-9.62458e-05
-0.0094207
0.0238199
-5.09309e-07
0.00180006
0.00243946
-0.00012801
0.0212397
0.000625335
7.75662e-08
1.71028e-06
1.53008e-07
4.00292e-06
2.7768e-06
-6.44182e-08
-7.78471e-06
-3.76195e-07
0.000377417
0.00208829
1.44854e-06
1.96357e-06
-0.00160982
-3.52924e-07
0.00238973
-1.25097e-06
-6.92608e-07
1.17776e-05
-1.32814e-07
2.26925e-07
-1.85588e-06
9.65092e-06
1.94344e-07
0.00312146
1.75335e-07
-0.00012404
4.22832e-07
-4.75277e-07
1.08749e-06
-4.70578e-07
7.99759e-07
-6.26701e-07
-7.70004e-07
-0.024345
7.29217e-07
-1.60478e-06
0.00692089
-0.00189569
6.20916e-07
5.23414e-08
1.60794e-05
2.57163e-06
5.41076e-06
1.38962e-07
0.00230324
-4.63631e-07
0.000395835
4.45133e-06
2.89453e-06
-0.000265865
0.00877653
1.70069e-07
2.47042e-07
0.0179225
-0.000203656
-1.49963e-05
2.07236e-06
6.24137e-06
-1.05343e-06
3.0976e-06
-3.68023e-07
-1.48945e-06
7.74887e-08
-1.71684e-06
2.55683e-06
4.95476e-06
-2.81499e-07
1.33452e-05
2.45765e-07
0.00676916
0.00422189
-8.46102e-08
-3.42862e-06
-0.000683283
-8.42376e-06
-2.22314e-07
-0.00898427
-8.88679e-06
-7.37274e-06
1.83515e-06
-9.30127e-07
4.25821e-06
1.4369e-06
3.31744e-06
-4.4231e-05
4.89251e-06
4.24765e-06
4.68106e-07
2.2095e-05
-0.0217477
-0.00875303
-1.24535e-06
-2.33608e-07
7.22492e-08
-0.0174249
-1.11797e-06
1.89792e-07
-5.78959e-07
-4.1466e-06
-0.00386979
1.12579e-05
-7.54389e-07
-3.47782e-07
4.97922e-05
-6.08543e-07
-0.00648868
2.5277e-06
0.00873602
8.45297e-07
-1.73901e-07
-5.85557e-06
0.0104392
-0.00156363
-3.18658e-07
3.37395e-06
0.0174994
1.68829e-07
-3.50269e-07
1.39783e-06
3.20667e-05
-0.00106595
8.60611e-07
2.91244e-06
-0.0109625
0.000199619
7.32498e-06
-9.28863e-07
7.60459e-07
-3.59359e-05
1.07472e-06
5.26502e-08
-1.94936e-07
-4.83538e-05
8.70217e-07
0.0267842
1.45542e-07
-3.83188e-07
-2.82885e-07
-3.3766e-07
-0.00273806
5.10795e-06
-7.75119e-06
1.30585e-05
0.00943801
0.0404007
-0.00725621
0.00290299
1.41995e-08
4.45937e-07
0.0104546
1.27662e-06
0.0032476
-0.00823934
-0.0115228
0.0184439
1.13836e-06
5.13381e-07
-5.52774e-08
4.65088e-07
5.42229e-07
-0.00770336
-0.000137132
-3.82509e-06
1.75478e-07
2.29829e-06
-1.87732e-07
-0.00209632
-1.91506e-07
1.74419e-07
-0.00301036
-1.37773e-05
-0.0035819
-0.0113505
1.04197e-06
-0.0148099
-1.30165e-07
8.6374e-07
0.0305749
-6.88261e-07
-3.33006e-05
-9.17727e-07
0.000730349
-1.12038e-06
8.69796e-08
4.18519e-06
1.46206e-07
4.09983e-07
-1.67094e-05
-5.50781e-06
0.0301356
-9.88725e-08
-2.04556e-06
1.51939e-07
1.65237e-06
0.0116697
-4.30725e-07
-1.97743e-08
9.34683e-07
-0.00131917
1.8771e-05
2.80432e-07
-0.011791
0.0269664
0.0026617
3.19476e-07
4.761e-07
-0.000236355
-0.000802397
-1.85106e-06
1.10561e-06
1.36099e-07
-4.10067e-07
1.80495e-06
-1.96095e-07
-8.72067e-07
0.0420031
-1.01842e-07
-4.41303e-07
7.85498e-08
0.00440485
-1.51227e-06
0.0146324
-7.34204e-07
-1.03415e-07
-1.90226e-07
-2.21119e-07
-1.17514e-06
4.25904e-05
-1.43011e-07
1.18221e-07
-6.20955e-08
5.56075e-07
2.02992e-06
-0.000117904
0.0337859
-0.00439631
0.000631745
-1.22607e-05
9.50075e-08
3.99177e-05
1.60799e-06
1.49854e-06
-1.06615e-07
-3.69002e-07
-1.41021e-07
0.000441945
1.45413e-06
-0.000509499
-6.50663e-05
-0.00586427
-2.15597e-06
1.66199e-06
4.67333e-07
1.32045e-06
-2.19507e-06
-2.49996e-05
-9.74447e-08
0.0135969
-1.89091e-06
-0.0069338
0.0167659
1.03435e-06
0.0225871
1.20298e-08
-6.77802e-07
2.05008e-06
-3.76095e-06
1.7269e-06
-0.012252
-1.69213e-05
-2.41916e-06
-4.21468e-07
-3.74274e-07
-0.00575989
0.0137527
1.06873e-06
2.64474e-06
1.5916e-06
-1.12692e-05
-9.99267e-07
2.03969e-07
-5.52546e-07
0.0187785
-1.46961e-06
-4.1233e-06
1.3994e-06
1.70724e-06
0.000477503
-2.68449e-06
8.43271e-06
9.3187e-07
0.0203468
-0.00420403
-3.0143e-07
-0.00815632
1.56445e-07
0.0235661
-3.41886e-07
-2.19016e-08
-5.85357e-07
-0.00133374
-6.30823e-06
-1.06126e-07
-6.59553e-07
0.0110578
-1.39516e-05
-9.40878e-06
0.0199836
2.42908e-05
-1.76349e-08
0.000146782
1.48917e-06
-1.32221e-06
-5.39697e-07
0.000518674
0.00260329
1.1036e-06
8.18393e-07
2.97253e-06
0.000581636
-3.29073e-06
3.59083e-06
-1.40298e-06
-0.0185965
-0.000923809
1.30175e-06
-2.89395e-06
-2.58941e-06
-7.12295e-08
-2.05115e-07
-1.72614e-07
-2.06869e-05
0.0100134
2.39315e-06
-8.82326e-08
6.95735e-05
-0.0132618
-5.13276e-07
2.41112e-06
-0.00228357
-4.45694e-07
0.0329487
-5.70781e-06
-8.56153e-05
-3.62356e-08
0.00697965
0.0224096
-2.70462e-07
0.0123952
0.00295747
1.24766e-06
4.39288e-07
-1.37647e-05
5.61979e-07
0.00256181
0.000249516
-1.00394e-06
-7.00037e-07
0.00360806
-7.2446e-07
-1.24315e-07
-7.29135e-06
3.77575e-06
-4.63218e-08
-0.000148812
0.0158708
2.70884e-08
0.0174157
0.0110183
-3.75244e-07
-4.53211e-08
0.00746855
-4.02478e-07
1.1339e-07
4.6428e-09
-6.96323e-07
-0.0099374
-0.00200357
-0.0123457
8.21668e-07
0.0310342
8.28162e-07
0.00779983
0.000234577
-9.59626e-07
-1.8423e-08
-7.31411e-06
1.27248e-06
-7.87487e-08
-0.00101553
-0.00151575
6.37289e-06
4.05194e-07
0.00908444
-0.000115036
6.58519e-07
0.000533982
-4.88551e-07
1.44293e-07
8.55747e-07
-0.0151176
-4.99826e-06
0.0021148
-9.97957e-07
-9.10664e-07
0.0123752
-2.99184e-07
-8.01665e-07
-1.04834e-05
1.48349e-07
-3.72224e-07
-1.23939e-07
0.000634253
-1.63141e-07
-0.00102933
0.0134955
8.00131e-06
7.78247e-07
-2.04207e-07
-0.0282903
0.00850332
-1.62634e-05
-7.7647e-08
0.00332487
1.43532e-05
0.0134728
2.18999e-08
0.0161079
2.84288e-07
2.0808e-07
1.34298e-05
0.0192641
0.000232641
-0.000491692
4.50222e-06
1.35958e-05
5.313e-07
-1.15155e-06
1.60992e-07
-0.000204596
-8.47254e-08
-5.04341e-05
3.55496e-06
-9.21685e-07
-0.0106006
2.95572e-06
0.00142097
7.0187e-06
-5.43631e-07
-0.000956869
-0.00472329
-4.0581e-07
0.0213812
-0.000305679
0.000456285
3.94768e-05
-4.00254e-06
-1.91997e-07
-8.7145e-07
4.22701e-06
-0.000137452
1.6006e-06
-4.30193e-05
-0.000180649
0.0124678
0.000282133
5.38124e-08
-1.4894e-07
-6.03194e-07
-0.0166345
-1.32805e-06
-2.24466e-06
3.06225e-05
-4.93264e-07
-1.27134e-07
-6.50162e-08
-0.000891283
0.0164108
7.02704e-08
2.60565e-05
-3.45524e-07
0.0175777
-1.5719e-05
0.0140923
0.00351608
1.61702e-05
-7.23307e-08
0.0219687
0.00045384
0.000495091
-0.00659854
1.28261e-05
-6.73413e-08
-1.63211e-07
-0.0122669
3.44417e-07
-0.00535032
-0.000535756
3.34969e-07
-0.000126925
4.08955e-07
7.84868e-08
-5.12607e-06
5.65731e-07
2.1835e-06
-1.09172e-07
0.02603
2.06902e-07
4.63057e-05
7.5369e-06
-0.00142222
-7.97171e-07
-0.00226656
0.0183267
-0.000165151
-6.03736e-05
4.25882e-07
-5.83141e-07
3.57488e-05
0.0223547
9.55265e-07
6.748e-06
2.90935e-07
0.000359686
-6.6841e-07
-1.51175e-06
3.09988e-05
-2.25858e-07
0.00731084
-1.10969e-05
0.00355325
-7.67674e-08
-2.3786e-07
9.34968e-06
3.10177e-07
-3.06654e-08
1.01522e-06
0.00104907
-1.64935e-07
-2.59734e-06
0.0203919
-0.00405843
4.00211e-07
-2.66947e-07
-2.57466e-07
0.00860128
-0.00235104
-0.00163511
9.11273e-08
-6.065e-06
2.63035e-06
-5.52038e-07
-3.63004e-05
-5.91814e-07
-2.27625e-06
7.80722e-08
-2.73362e-07
1.15065e-07
-1.19612e-06
3.22705e-06
3.92978e-07
-1.05769e-06
-1.38076e-07
0.0239972
-0.0252875
5.81408e-07
6.58813e-07
-0.0021568
1.62471e-07
-0.00996897
0.000168851
-6.26926e-06
0.000126341
-0.000646599
0.000101288
0.0282473
4.92694e-06
9.30058e-06
-2.50469e-06
-1.68198e-07
9.27799e-07
-7.82565e-07
-0.000149761
0.00795007
-0.0117922
-4.75374e-07
-6.87125e-07
-1.5195e-07
-0.000253942
7.18253e-06
-0.000359183
3.75624e-05
0.00151292
-6.82097e-05
-0.00097633
1.16247e-06
0.0131811
0.0021868
-4.79836e-05
1.95937e-06
4.51136e-08
3.04112e-07
-0.000429397
3.18317e-07
-0.00064675
6.96306e-07
1.04294e-06
5.27857e-06
-2.55909e-07
8.81627e-07
3.05175e-05
-0.000638133
-2.76269e-07
0.00027531
5.10258e-06
0.000137947
-0.000131126
-0.000171992
-9.55895e-08
0.0085306
6.99504e-08
-9.00818e-05
4.65348e-06
2.18202e-06
2.22198e-06
0.000226089
0.000463072
-2.64143e-07
0.0117484
-0.0164681
-4.21739e-07
-4.66704e-07
3.52709e-06
4.38231e-08
1.77685e-06
1.32376e-07
-0.0216059
7.00844e-07
0.00632819
-0.00409114
6.28631e-06
0.0220471
-6.37983e-07
-8.15834e-06
0.00082252
0.000298235
8.13218e-07
9.53147e-06
-1.05639e-07
-1.8908e-07
4.23715e-07
-5.30942e-06
7.94275e-07
0.00220207
-1.80524e-06
0.0148968
-0.00103634
-2.48575e-06
9.05948e-08
2.88052e-07
0.000762313
-4.29915e-08
3.64996e-07
-6.53868e-06
-1.71233e-07
0.0401854
1.38384e-06
-2.4607e-06
8.3127e-07
1.47888e-06
-4.88062e-06
-1.30355e-05
-6.13707e-07
4.54757e-06
-0.000318594
-3.754e-07
7.11015e-06
3.22447e-06
3.33082e-05
-0.000454472
-0.0129944
1.13663e-06
-5.72936e-07
1.5173e-06
-0.000594054
0.00059393
-2.40717e-06
0.00184555
-4.25029e-07
-4.96463e-07
2.09171e-06
0.0252773
2.12548e-06
-7.70496e-06
1.61707e-06
2.3459e-07
-0.00283622
0.0105014
-2.19027e-07
2.11577e-05
2.20763e-06
-0.00353374
1.48737e-06
0.00147799
-2.74255e-06
-1.6065e-07
-1.92246e-06
2.012e-06
1.1149e-06
-3.69387e-06
-0.00123839
-7.45458e-06
0.00140539