/*--------------------------------*- C++ -*----------------------------------*\
| =========                 |                                                 |
| \\      /  F ield         | OpenFOAM: The Open Source CFD Toolbox           |
|  \\    /   O peration     | Version:  v2012                                 |
|   \\  /    A nd           | Website:  www.openfoam.com                      |
|    \\/     M anipulation  |                                                 |
\*---------------------------------------------------------------------------*/
FoamFile
{
    version     2.0;
    format      ascii;
    class       volScalarField;
    location    "650";
    object      k;
}
// * * * * * * * * * * * * * * * * * * * * * * * * * * * * * * * * * * * * * //

dimensions      [0 2 -2 0 0 0 0];


internalField   nonuniform List<scalar> 
14479
(
0.0266388
0.00619496
0.000751856
0.000145621
0.000196788
0.000151015
0.000138906
0.000212544
0.000205567
0.000222205
0.000144672
0.000166721
0.000191629
0.0116285
0.0185292
0.000153955
0.000139098
0.0199875
0.000145317
0.000217168
0.000185043
0.000196375
0.000194386
0.0242011
0.000144847
0.000145215
4.25522e-05
0.00020293
0.00014755
6.53524e-05
0.000553073
0.0255116
0.000226364
0.000224914
0.00101959
0.000182503
0.000146246
0.000150261
0.0154579
0.000177651
0.000158306
0.000144287
0.00610249
0.00484403
0.000146245
0.000154348
0.000143777
0.00719853
0.000213628
0.000144124
0.00514456
0.000202485
0.000145035
0.00520674
0.00013584
0.000168007
0.000186938
0.000150007
0.0143174
0.000149942
0.000147246
0.000149504
0.0394138
0.00014424
0.000138894
0.00039543
0.0100889
0.0314719
0.000145026
0.000147699
0.00389081
0.00014414
0.00437865
0.000179284
0.000149954
0.000143371
0.000186983
0.0369859
0.000142451
0.000263856
0.000145525
0.000202741
0.0126467
0.000414891
0.000556458
0.000153236
0.000153337
0.00013904
0.000211662
0.000150844
0.000204825
0.000584727
0.000444196
0.000144149
0.0120068
0.0001445
0.000142682
0.000142207
0.000140546
0.0121478
0.0142072
0.000160555
0.00515255
0.00177586
0.0261294
0.000227198
0.0415411
0.000239586
0.000265133
0.011362
0.0404713
0.0184911
0.000350407
0.00016917
0.000211969
0.000188193
0.000146222
0.00027727
0.000168763
0.000150526
0.000147127
0.0542193
0.00525662
0.000140484
0.0098876
0.000307343
0.000150653
0.00181827
0.000163834
0.000986947
0.000195538
0.0351566
8.44003e-05
0.00479832
0.00098606
0.000169524
0.000225701
0.000203929
0.021894
8.84549e-05
0.00260803
0.000430778
0.000145544
0.00457302
0.000145524
0.00144367
0.000976409
0.000153315
0.000215789
0.000207048
0.0170339
0.00014382
0.0146211
0.000155182
0.000145236
0.000144586
0.025284
0.0478559
0.0124735
0.000170063
0.000181389
0.000136498
0.000143901
0.000186916
0.0141203
0.000135371
0.000144192
0.000197323
0.000202345
0.0116939
0.000338656
0.000175524
0.000155338
0.000189741
0.000139492
0.0001969
0.000169902
0.000141353
0.000256284
0.0231893
0.000187434
0.000135374
0.0107495
0.000294447
0.0171811
0.000176975
0.000104213
0.0406204
0.000149368
0.00804662
0.0246385
0.000397591
0.000325542
0.0201969
0.000161855
0.000175208
0.000142728
0.000272411
0.00016692
0.000143803
0.000208352
0.000159876
0.00018819
0.000144374
0.00016475
0.000200434
0.0165712
0.000167746
0.000138909
0.000166054
0.000167181
0.000147617
0.000164116
0.00016327
0.000183078
0.0190393
0.000195425
0.000220659
0.018843
0.000156341
0.0185309
0.00490265
0.000152286
0.000267567
0.00780242
0.000152802
0.0323306
0.00014259
0.00019871
0.000209762
0.000149862
0.000204586
0.0137678
0.000149236
0.000145825
0.00661684
0.00015764
0.000204372
0.0307298
0.000145335
0.000157553
0.000143898
0.000202855
0.000157787
0.000172863
0.000209963
0.0443765
0.0185584
0.000149809
0.000145372
0.0138435
0.0002194
9.24998e-05
0.000232048
0.0139829
0.000140175
0.000161678
0.000139209
0.00020249
0.000145092
0.000142506
0.000158803
0.000145063
0.000141495
0.000141287
0.000163784
0.000188874
0.000145389
0.0442073
0.000179642
0.000197788
0.000192166
0.0553415
0.00017484
0.000197263
0.0166112
0.000204278
0.000140151
0.000168347
0.000154288
0.000205011
0.000162807
0.000150792
0.000152897
0.0002204
0.000634073
0.000196159
0.000436481
0.000172394
0.0119808
0.000223963
0.00014971
0.000197978
0.0122075
0.000155209
0.0168149
0.00963965
0.000149852
0.000174793
0.0153347
0.0268556
0.000212417
0.00014121
0.000148728
0.000177069
0.0383969
0.000135577
0.00177435
0.000138584
0.000212462
0.000177363
0.00071245
0.000153642
0.000157689
0.000177567
0.00562253
0.000291091
0.000159255
0.000176973
0.000137816
0.0278825
0.000204681
0.025321
0.0127499
0.000147537
0.00345511
0.0523235
0.00465164
0.000189726
0.000154356
0.00101466
0.000142171
0.000195994
0.000189993
0.000153949
0.00015061
0.0264316
0.000162599
0.000156079
0.000150902
0.000147716
0.000189126
0.00013842
0.000182057
0.0113203
0.000168316
0.000225983
0.000176674
0.000199397
0.000185174
0.000144836
0.000310458
0.00478942
0.000413922
0.000162872
0.0373263
4.85774e-05
0.0335385
0.000147455
0.0234794
0.000148898
0.000227694
0.00542267
0.0317885
0.000153397
0.000150875
0.000136933
0.000180747
0.00019214
0.000136977
0.000156152
0.0164038
0.000155491
0.000206218
0.015061
0.000229603
0.000149009
0.000213968
0.000166045
0.000149334
0.000177789
0.000195925
0.000144765
0.000162464
0.00521413
0.000256273
0.0199181
0.000147683
0.00147002
0.000181066
0.000212943
0.000192596
0.000154219
0.0111354
0.00974453
0.000279538
0.000159992
0.0187574
0.000226082
0.000219682
0.000187839
0.000201161
0.000175085
0.000233054
0.000179545
0.000155676
0.000192874
0.000177339
0.00465481
0.000186016
0.00307576
0.000264368
0.000164647
0.000226067
0.000146795
0.0128056
0.000147895
0.000150948
0.0322018
0.000207417
0.00745968
0.013952
0.0196981
0.0179383
0.00049761
0.000149773
0.000154627
0.00016242
0.00013941
0.000147163
0.000149358
0.000179907
0.000249858
0.0209435
0.0512714
0.00018262
0.00909522
0.000152031
0.000191844
0.000147572
0.0291867
0.000139642
0.000148196
0.0496398
0.000148703
0.000141078
0.000154109
0.0239091
0.000162244
0.000151113
0.000152235
0.000148729
0.00415321
0.000163388
0.00629664
0.000187425
0.000147546
0.000154623
0.00022378
0.000272969
0.000228969
0.000147749
0.000157994
0.000166926
0.0204208
0.000141365
0.000177984
0.00523407
0.0270641
0.000146925
0.00014238
0.000201141
0.000161456
0.000146641
0.0252195
0.000347978
0.000198362
0.00988053
0.000183491
0.000148261
0.000183285
0.000180995
0.00095925
0.020192
0.000180684
0.000148512
0.000135356
0.000155076
0.00691393
0.000256969
0.000138288
0.000137692
0.000224768
0.000147121
0.000167097
0.000151423
0.0001402
0.000229672
0.000141325
0.000218919
0.000171283
0.000203852
0.000321881
0.000180791
0.0128996
0.000206635
0.000229386
0.00051293
0.000205738
0.000144974
0.000148855
0.00015466
0.000153379
0.000211625
0.000149208
0.000332449
3.23091e-05
0.000154052
0.0283232
0.000203421
0.0149085
0.000182673
0.000142397
0.000162714
0.000150566
0.000200808
0.000166007
0.000167816
0.0147219
0.000164743
0.00130078
0.00516854
0.000157951
0.000138211
0.000144684
0.000154408
0.000157427
0.000169231
0.000185526
0.00016794
0.000173289
0.0274316
0.000164361
0.000145473
0.00524845
0.000166698
0.000141636
0.000485189
0.0323518
0.000210977
0.000158185
0.00023945
0.000264624
0.000166688
0.000164598
0.00336847
0.0148141
0.00018717
0.000154774
0.00393658
0.00019763
0.000149438
0.000148847
0.0212744
0.000208879
0.000152515
0.000153131
0.0138302
0.000179205
0.00013226
0.0179599
0.000155689
0.0001587
0.000164645
0.000173153
0.000208255
0.0286477
0.000151302
0.000239033
0.0280065
0.000258439
0.000155574
0.000157991
0.0210204
0.000153677
0.0138771
0.00015898
0.000170252
0.0143894
0.000154438
0.00017717
0.000143015
0.0263403
0.0362744
0.000221019
0.016194
0.000496298
0.000137526
0.000234981
0.000221841
0.000146671
0.000170287
0.000164058
0.000158353
0.000154735
0.000197472
0.000309029
0.000187424
0.000196143
0.00019289
0.000167197
0.00227159
0.0329312
0.000159858
0.0534514
0.0184795
0.000150906
0.00027177
0.000145416
0.0145557
0.000629218
0.0160587
0.000171427
0.000535838
0.000147405
0.000198179
0.00021647
0.0392333
0.000155265
0.0001615
0.00019344
0.00014055
0.00520033
0.000153658
0.000150366
0.00433429
0.000152857
0.000197409
0.00466997
0.000144379
0.000161269
0.000147355
0.0414949
0.000413044
0.000226652
0.0196055
0.000222614
0.000232828
0.000200984
0.000165362
0.000145187
0.000148406
0.000154268
0.0114368
0.000216163
0.000200742
0.00601789
0.000162871
0.00323489
0.000150273
0.00111852
0.00532909
0.000128581
0.000151486
0.000183612
0.0524993
0.0001978
0.000138505
0.000166796
0.000141538
0.000120801
0.000157138
0.000136633
0.000138114
0.000141294
0.000139851
0.000182899
0.000176009
0.000149427
0.000252734
0.000150318
0.000155357
0.000168763
0.00023643
0.0750903
0.000136204
0.0259536
0.000147593
0.0229183
0.000595471
0.00105651
0.000208679
0.000152812
0.000155426
0.000166319
0.000330705
0.000144584
0.000148269
0.000160566
0.000154463
0.000217369
0.000157281
0.000174968
0.00015302
0.000139612
0.00018661
0.000183504
0.000258857
0.00166784
8.72004e-05
0.00926551
0.00851889
0.028094
0.00703978
0.00015199
0.000216785
0.000182994
0.000239359
0.000160836
0.000141298
0.00360452
0.00134925
0.000152875
0.00015936
0.0733579
0.0310096
0.000210391
0.00154591
0.00364806
0.000168213
0.000138034
0.000145601
0.000225739
0.00278836
0.0186778
0.000141298
0.000179365
0.000158575
0.000176763
0.0100809
0.000184054
0.000143238
0.000148954
0.000195536
0.000143408
0.000147052
0.000275209
0.000175541
0.000157968
0.000278139
0.00141785
0.000150403
0.000210521
0.0188691
0.0398049
0.000182807
0.0022373
0.000208705
0.000200204
0.000177604
0.0142077
0.000207095
0.000251657
0.0247819
0.000134065
0.0303589
0.000269326
0.000160266
0.000417432
0.000148809
0.000175913
0.00016106
0.00014135
0.000160062
0.000149946
0.0016575
0.0142096
0.00963773
0.000146373
0.00030075
0.000159153
0.000153384
0.000224004
0.000143682
0.026161
0.000185446
0.000178348
0.000322834
0.000157898
0.000248404
0.000252998
0.000172669
0.000153263
0.00115993
0.000273245
0.000335166
0.000254305
0.000226898
0.000139856
0.0152156
0.000152526
0.000165288
0.000155238
0.000182002
0.000203366
0.000195737
5.52492e-05
0.000198281
0.000242957
0.000149009
0.000221023
0.0184
0.000146393
0.000253145
0.000143841
0.000176018
0.000198209
0.000224272
0.000153728
0.000148642
0.0137429
0.000144264
0.0503083
0.0452175
0.00018492
0.0148216
0.000176008
0.000144129
5.58727e-05
0.000201203
0.000184125
0.000146244
0.0001847
0.0217131
0.000942542
0.00025073
0.0126477
0.000150002
0.0302127
0.000205723
0.000152726
0.000170629
0.000176228
0.000184412
0.0552951
0.000159224
0.000143793
0.000344928
0.000152343
0.000154082
0.000231708
0.0719858
0.000223094
0.000161263
0.00020328
0.000734493
0.0143985
0.000149459
0.00021749
0.000154697
0.0168283
0.000206998
0.064173
0.000144299
0.000310336
0.00014957
0.00015021
0.0145798
0.00475091
0.0153905
0.000197837
0.000155759
0.000175842
0.000158521
0.00019024
0.000132051
0.000159177
0.000166401
4.63696e-05
0.000148755
0.000140065
0.000149647
0.000202508
0.000287641
0.000345709
0.000170314
0.0298388
0.000183082
0.000144751
0.000207843
0.000200313
0.0202402
0.000147582
0.0320981
0.000143612
0.000183035
0.00014888
0.0400819
0.000138952
0.00013773
0.000157309
0.000156111
0.00126871
0.000193718
0.000323174
0.00880492
0.0147553
0.000144487
0.000207866
0.000144691
0.000140277
0.000169315
0.00018074
0.0200121
0.050927
0.000152551
0.00017801
0.000187708
0.000163089
0.000199323
0.0461916
0.000193133
0.000190089
0.0542648
0.00142159
0.00368974
0.000232568
0.000139891
0.00014654
0.000223727
0.000155442
0.000197648
0.000249452
0.000146162
0.00014425
2.45173e-05
0.0136438
0.000168233
0.0332132
0.000156511
0.010052
0.000300791
0.0237667
0.0527225
0.000264765
0.0179879
0.000266125
0.000218569
0.0003433
0.000144403
0.000335657
0.00858502
0.000160302
0.000159111
0.00013794
0.000290549
0.029605
0.000731239
0.00776381
0.00013788
0.000146535
0.000214927
0.000146508
0.000146879
0.000134105
0.000189236
0.000159968
0.000144913
0.000161269
0.000179086
0.000159904
0.000181239
0.0274078
0.000146236
0.000186672
0.0169965
0.000154694
0.000185488
0.0168878
0.0164558
0.000159082
0.000150343
0.000203019
0.00019648
0.000163641
0.000432834
0.000316904
0.000203102
0.000234544
0.000167294
0.000217187
5.40334e-05
0.000258399
0.000158066
0.000199355
0.000144661
0.000173958
0.00014487
0.00347066
0.00035183
0.000153743
0.000371746
0.000192838
0.0332014
0.0359051
0.000237632
0.000204851
0.000146399
0.0165686
0.000164206
0.0456477
0.000142755
0.000147679
0.000703636
0.000145142
0.000185487
0.00559664
0.000148745
0.00447302
0.000160333
0.000161979
0.00673925
0.0375487
0.000184346
0.000177014
0.00126048
0.000159669
0.000157539
0.00015648
0.0224217
0.000149279
0.000150978
0.000246087
0.000261776
0.000199118
0.0074559
0.000186156
0.00899372
0.000141133
0.046863
0.000137862
0.000187188
0.000174658
0.00014822
0.00019191
0.000187953
0.00024996
0.000176148
0.000214984
0.000177682
0.000144446
0.000198057
0.0164388
0.000150378
0.000168248
0.000141057
0.000232768
0.000148328
0.000146202
0.000231419
0.000151734
0.000146743
0.00303679
0.000163813
0.000244545
0.000205177
0.000147674
0.000152851
0.0188389
0.0297885
0.0194435
0.0406362
0.000181515
0.00235323
0.017409
0.000169741
0.000155179
0.000142487
0.00382641
0.000249303
0.0266008
0.0223835
0.00015618
0.0389334
0.000141755
0.000146516
0.0103007
0.000209557
0.027444
6.89337e-05
0.000217218
0.0139589
0.000142392
0.000155668
0.00679873
0.0139131
0.000128849
0.0105678
0.00490587
0.0144618
0.000163158
0.000212016
0.000186578
0.000146032
0.000172054
0.000158874
0.000200874
0.000198043
0.00018603
0.000193928
0.000335105
0.000165789
0.000153699
0.00713027
0.000139712
0.000175208
0.000165433
0.000321334
0.00674585
0.0302188
0.000156324
0.00509627
0.000252798
0.000229956
0.000208253
0.000143665
0.0186318
0.000594903
0.000193727
0.000140919
0.03885
0.00734255
0.000488622
0.00511653
0.000217642
0.000168889
0.000216945
0.000222998
0.000209738
0.000160222
0.00022096
0.000195342
0.00319449
0.000139884
0.022626
0.000205337
0.00016556
0.000162589
0.000141321
0.000176443
0.000153829
0.000144687
0.000185354
0.00033682
0.000208297
0.000295724
0.0558011
0.0389244
0.000159983
0.0273623
0.000176146
0.000143922
0.000169804
0.000109821
0.000192367
0.000167341
0.00216455
0.000177777
0.000465624
0.000172272
0.000159639
3.82687e-05
0.000218534
0.000169629
0.0313682
0.000154171
0.000194305
0.0129814
0.00014356
0.0092308
0.000430348
0.00015435
0.000164395
0.000157084
0.000160261
0.000194091
0.000174134
0.00692223
0.000165552
0.000146634
0.000207931
0.000182125
0.0263186
0.000181318
0.000164554
0.000184437
0.000150344
0.00182874
0.0129696
0.000232739
0.00528998
0.000369475
0.000204022
0.000174578
0.0034888
0.000176561
0.000151851
0.000192014
0.000184984
9.4944e-05
0.000165767
0.0185688
0.000176616
0.0106411
0.000150497
0.00102903
0.000163628
0.00020997
0.000152999
0.000196854
0.000161279
0.000149761
0.000166508
0.000220022
0.000152497
0.000183888
0.000143055
0.000223062
0.000220964
0.0406353
0.0276227
2.67268e-05
0.0505103
0.000186513
0.0272711
0.000158235
0.000154225
0.000141546
0.000152721
0.000144326
0.000198271
0.0399469
0.00023016
0.000142567
0.000542825
0.000169994
0.000194422
0.000164724
0.000222315
0.0716299
0.0344223
0.000233706
0.000195058
0.0196666
0.000201164
0.000187847
0.000165425
0.00329718
0.000164965
0.000144155
8.62381e-05
0.000144253
0.00017468
0.000151005
0.014354
0.0182812
0.000157928
0.000189889
0.041359
0.0254143
5.61179e-05
0.000177785
0.0609367
0.000122374
0.000146905
0.0141511
0.000238335
0.000168918
0.0139049
0.01455
0.00015654
0.000146207
0.000157643
0.0129983
0.000199927
0.000342744
0.010624
0.000238558
0.000163979
0.000177401
0.000157238
0.000166788
0.0171501
0.02864
0.000208723
0.000157532
0.000182169
0.000164718
0.000431567
0.00016211
0.000197466
0.000213099
0.000168094
0.0451781
0.000196796
0.0156329
0.000161167
0.00014804
0.000163725
0.000219948
0.0199804
0.000147824
0.0368943
0.000124737
0.00020088
0.000228332
0.000141177
0.000231923
0.000152263
0.000141035
0.000191989
0.000139789
0.000209928
0.000165919
0.000150139
0.000169845
0.0522639
0.000173758
0.000172903
0.000152158
0.000173279
0.000178241
0.000144303
0.000176481
0.00512252
0.0413793
0.000145588
0.000169902
0.00015266
0.0374058
0.000139701
0.0149152
0.0535614
0.0148131
0.000161611
0.018849
0.000142369
0.000222616
0.000683815
0.0141486
0.000166528
0.000238325
0.0223801
0.000110692
0.000264641
0.000154572
0.000157373
0.000184141
0.000183716
0.0001435
0.000149044
0.0407088
0.0144749
0.000163015
0.000212661
0.000183128
0.00144832
0.000160907
0.000154347
0.000154822
0.000144647
0.0445882
0.000191713
0.00568196
0.000148041
0.000202895
0.000146464
0.000161043
0.000147948
0.000205653
0.00544126
0.000200207
0.000144428
0.0350054
0.000552188
0.000145076
0.000226647
0.000152049
0.0059145
0.000326443
0.000158907
0.0274814
0.000300588
0.000223434
0.0177962
0.000139849
0.000148829
0.000194438
0.0149343
0.0065166
0.000183255
0.000141186
0.0434811
0.0154223
0.000151228
0.000156687
0.000949566
0.00017815
0.000163968
0.00545328
0.000142254
0.000153936
0.000144118
0.000142765
0.00702036
0.000816993
0.000215455
0.0190951
0.000203958
0.000144473
0.000148367
0.000143629
0.000164125
0.000199079
0.00734809
0.000190238
0.00018229
0.000199752
0.0466651
0.000193795
0.000152873
0.0145588
0.000202417
0.0300072
0.000151688
0.00028826
0.00021885
0.000233664
0.000541323
0.000198374
0.000161964
0.0185172
0.000138439
0.000161444
0.000266222
0.000190011
0.00201341
0.0256417
0.00520564
0.000193017
0.000256223
0.000167342
0.0149557
0.0159495
0.0218414
0.000143985
0.000387873
0.0001534
0.000170707
0.000220074
0.000173131
0.000217966
0.000132975
0.000178117
0.0167878
0.000198718
0.000194289
0.00049916
6.94617e-05
0.00360505
0.0298754
0.024321
0.000137621
0.000142664
0.0493078
0.000145954
0.000137593
0.000157912
0.000155108
0.000236464
0.000191254
0.000151317
0.000161322
0.000193608
0.0098749
0.0207453
0.000239124
0.000213861
0.000256587
0.000243116
0.000206894
0.000145439
0.00858114
0.0152503
0.000178599
0.000280544
0.0417969
0.000157197
0.0641291
0.000236945
0.000212266
0.00014857
0.000189358
0.0144288
0.000183709
0.0122678
0.000179943
9.62992e-05
0.000829745
0.00015455
0.000143597
0.000215665
0.0269012
0.00510137
0.000168587
0.000242739
0.000236707
0.00047229
0.000166926
0.00448546
0.000179248
0.000277641
0.0319799
0.000220505
0.000429517
0.0357728
0.000215244
0.0185494
0.00015244
0.0337256
0.000198847
0.0143515
3.74256e-05
0.000184896
0.00014702
0.000148669
0.000196546
0.000161149
0.000157
0.000183343
0.000142945
0.000862045
0.00146456
0.000199091
0.0138828
0.0176674
0.000143649
0.0164215
0.000328237
0.000183135
0.00038564
0.000289248
0.000243764
0.000254294
0.000257268
0.000169534
0.000230913
0.000148759
0.0219426
0.00018024
0.000352947
0.000256624
0.000391123
0.000143744
0.0210361
0.000200586
0.0203959
0.000164438
0.0182907
0.0152644
0.00018367
0.000185639
0.00016002
0.000150166
0.000188006
0.000206398
4.23599e-05
0.0146201
0.00482545
0.000147576
0.000232355
0.000161077
0.0217516
0.0182543
0.000214177
0.0231822
0.000200326
0.00017285
0.000170841
0.000147768
0.000151364
0.000157192
0.0550139
0.000172614
0.00014364
0.0001648
0.000145957
0.000154255
0.000512387
0.000139904
0.00020479
0.000164117
0.0101039
0.0149547
0.000184608
0.00246511
0.0129626
0.000178838
0.0140073
0.000167229
0.000140458
0.000142628
0.000177635
0.0183012
0.000182046
0.000176424
0.000205748
0.000217191
0.000234931
0.0004774
7.21886e-05
0.000143545
0.000215177
0.000156299
0.000183283
0.000537591
0.000241877
0.000147883
0.0148656
0.000142704
0.00015511
0.0124
0.000142995
0.00258731
0.00318749
0.000200401
0.000149091
0.000349569
0.000188535
0.00647725
0.000205597
0.000204336
0.000191871
0.000252891
0.00014619
0.000269962
0.000152648
0.000551908
0.0188356
0.0198744
0.00021538
8.68312e-05
0.000156988
0.00017002
0.000157243
0.000219754
0.0191163
0.000175353
0.000275027
2.39454e-05
0.00014238
0.000143721
0.0265477
0.0092567
0.000229853
0.000908059
0.000143231
0.000177529
0.000175844
0.017042
0.0244905
0.000179831
0.000190802
0.0017591
0.000170157
0.00406471
0.000144945
0.000161802
0.0372647
0.0437727
0.0152861
0.000146482
0.000157073
0.000143624
0.000150602
0.0233728
0.0294255
0.000174496
0.000179862
0.000148313
0.00164503
0.000263135
0.000714905
0.0120597
0.000215068
0.000158716
0.00432806
0.001717
0.0205134
0.000147601
0.00154585
0.0192981
0.000297629
0.0186938
0.0163156
0.000142839
0.000179131
0.000167538
0.000187967
0.000193285
0.000143687
0.000200719
0.000146315
0.000171188
0.0185076
0.000186848
0.000168486
0.00028233
0.000146098
0.0175849
0.000159112
0.000152588
0.000245655
0.000181213
0.000157916
0.000178712
0.000204875
0.000142427
0.0520681
0.000155122
0.000177286
0.000158876
0.000147368
0.000180188
0.000152426
0.00016447
0.000171248
0.000167969
0.041313
0.000149045
0.000169982
0.0432386
0.000448784
0.000161373
0.000164806
0.000245494
0.00018117
0.000197231
0.000142299
0.0177321
0.000132488
0.00527433
0.000163421
0.000180868
0.00129664
0.0120014
0.00016998
0.000174781
0.0266984
0.000234359
0.000310458
0.000163119
0.000205371
0.000145344
0.000169724
0.000146018
0.000163071
0.00015667
0.000152394
0.000195932
0.000263326
0.000150389
0.000204603
0.000139342
0.0490289
0.00249356
0.000142458
0.000225544
0.0148421
0.000202125
0.000150086
0.0112343
0.000283223
0.0001385
0.000184637
0.000156125
0.000200559
0.000192824
0.000192714
0.00023953
0.000151745
0.000196007
0.000153817
0.000560042
0.0830417
0.0272882
0.00019369
0.000171456
0.000178896
0.0222462
0.000179901
0.00015682
0.000150296
0.000200227
0.00240338
0.000200096
0.000150774
0.000146076
0.000205534
0.000150125
0.0107501
0.000175566
0.0387892
0.000163892
0.000138362
0.000184152
0.0405091
0.0321461
0.000145901
0.000193795
0.0431195
0.000154418
0.000146382
0.000190394
0.000267435
0.000574439
0.000176932
0.000182665
0.00219551
0.00451171
0.000268604
0.000169198
0.000165436
0.000276812
0.000187927
0.000143023
0.000138267
0.000284747
0.000175427
0.0504521
0.000156748
0.000167857
0.000160129
0.000148707
0.000822035
0.000170441
0.000197951
0.00021142
0.00636724
0.000465398
0.014547
0.000758012
0.000159717
0.000158452
0.00492813
0.000155456
0.00156675
0.0155373
0.0211537
0.0232693
0.000141332
0.00015769
0.00014429
0.000160172
0.000175647
0.0394975
0.000219042
0.000196208
0.000145861
0.000177162
0.000183343
3.68391e-05
0.000145351
0.000171282
0.00259035
0.0002968
0.00125146
0.0041986
0.000219744
0.0455122
0.000144836
0.000180865
0.0223869
0.000160987
0.000264613
0.000182452
0.0492928
0.000202907
0.000150852
0.000196052
0.000153784
0.00013492
0.00038057
0.000208129
0.0381436
0.000152388
0.000157828
0.000150361
0.000170229
0.033335
0.000142222
0.000143722
0.000140135
0.000363554
0.000239514
0.000281129
0.00267268
0.0436604
0.0463318
0.000165693
0.000158512
0.00519327
0.046012
0.000166298
0.000167245
0.000153668
0.00015433
0.000190263
0.000151781
0.00015117
0.0490059
0.000144162
0.000147378
0.000141581
0.0119774
0.000228275
0.00388821
0.000163312
0.000141091
0.000142089
0.00017073
0.000154536
0.00023232
0.000156801
0.000146146
0.000159405
0.000154611
0.000145959
0.000266355
0.00680103
0.0713565
0.000227649
0.000216004
0.000141781
6.14998e-05
0.000181991
0.000193859
0.000152756
0.000145913
0.000164135
0.000424968
0.000170873
0.000247127
0.000252784
0.00607831
0.000168122
0.000163732
0.000157571
0.000168182
0.000203396
0.00023709
0.000141172
0.0193406
0.000178595
0.0142542
0.00934193
0.000182741
0.0258551
0.000153571
0.000160858
0.000184353
0.000191823
0.000171849
0.0377742
0.000196688
0.000213405
0.000142905
0.000155741
0.0319429
0.0391524
0.000184159
0.000199642
0.000177601
0.00025621
0.000160413
0.000153883
0.000155811
0.0334937
0.000201804
0.000199768
0.000183342
0.000183665
0.0136335
0.000219681
0.000215639
0.000190754
0.0297261
0.000793109
0.000143006
0.0190369
0.000158299
0.0725663
0.000158808
0.000164037
0.000238483
0.00312324
0.000185119
0.000157413
0.000210121
0.0443017
0.000245113
0.000194328
0.0376596
0.000210241
0.000153303
0.000240969
0.000181334
0.000157241
0.000139021
0.0137706
0.0181817
0.000139216
0.00016373
0.000215797
0.0177154
0.000190853
0.000191112
0.000205932
0.0503205
0.000428754
0.000181688
0.000186452
0.000195986
0.000144594
0.00014114
0.000140826
0.000273835
0.0148287
0.000189339
0.000175318
0.000313398
0.0236742
0.000147909
0.000191593
0.0230308
0.000142366
0.00710497
0.000165795
0.000251669
0.000154878
0.0416632
0.0465555
0.000155254
0.0421248
0.0165964
0.000165965
0.000168644
0.000284911
0.000157961
0.0158816
0.000237237
0.000140137
0.00018843
0.0300162
0.000160992
0.000142254
0.000223736
0.000188312
0.000143811
0.0148521
0.0495394
0.000156293
0.0404746
0.0358723
0.000176696
0.000144246
0.0386605
0.000138834
0.000142129
0.000153122
0.000152128
0.00242824
0.0644694
0.00901699
0.00019155
0.0469101
0.000149041
0.0505694
0.0045108
0.000139264
0.000143629
0.000201819
0.000184564
0.000141054
0.0042838
0.0423935
0.000208255
0.000140631
0.0426858
0.000197927
0.000164903
0.000684583
0.00014015
0.000150899
0.000182671
0.0424635
0.000247133
0.00208287
0.000207079
0.00015507
0.0197587
0.000208909
0.000142685
6.02279e-05
0.000182993
0.000143511
0.000144959
0.0167397
0.000162346
0.00462335
0.0073825
0.000196493
0.000169161
0.00015208
0.0117622
0.0406042
0.000286924
0.000144631
0.00324268
0.000245019
0.0368754
0.000154569
0.00493744
0.000150613
0.000150873
0.00021278
0.0278828
0.000205702
0.0147601
0.000188341
0.000212291
0.00016115
0.000177633
0.000142547
0.00471185
0.000154823
0.000195698
0.000233925
0.000143153
0.0096117
0.000195588
0.0330644
0.000228536
0.000141442
0.00020274
0.00850006
0.000147153
0.0222975
0.000159203
0.0113291
0.000381924
0.000176767
0.000162586
0.000156483
0.00019605
0.000231341
0.000206158
0.000218142
8.76923e-05
0.0125148
0.0152592
0.000144947
0.000151874
0.0001618
0.015638
0.000163833
0.000148836
0.000309618
0.000147683
0.000145963
0.00014122
0.0221527
0.0023023
0.000141505
0.000202779
0.000145759
0.0298044
0.000203982
0.0438011
0.00118853
0.000214078
0.000149634
0.0437395
0.013652
0.0141525
0.002461
0.000232392
0.000147196
0.000140745
0.0460361
0.000139149
0.00626767
0.00874683
0.000151418
0.000239288
0.000166065
0.000143523
0.000249196
0.000164005
0.000179423
0.000151301
0.0514463
0.000142549
0.000234934
0.000198319
7.59719e-05
0.000154603
0.0375785
0.013619
0.000122951
0.000417904
0.000187915
0.000139469
0.000219137
0.00711751
0.00018069
0.000196984
0.000142013
0.000102726
0.000150266
0.00020985
0.000233811
0.000152459
0.0166671
0.00019616
0.0427957
0.000186861
0.000141161
0.000205675
0.000136746
0.000151129
0.000164836
0.0137141
0.000158412
0.000311709
0.0337504
2.8628e-06
0.000180983
0.000156657
0.000165094
0.0446351
0.000238852
0.0142891
0.000148523
0.000196634
0.000205319
0.000159635
0.00027172
0.000150189
0.000155693
0.000165196
0.000148286
0.000150899
0.000208532
0.000202023
0.000167718
0.000149387
0.000153705
0.0613073
0.0313355
0.000166554
0.000165017
0.000414464
0.000152691
0.00622441
0.000350719
0.000193844
0.000238059
0.000208927
0.000209767
0.0479824
0.000236314
0.000237172
0.00021325
0.000145793
0.000180959
0.000196375
6.80373e-05
0.0496446
0.0413422
0.000161453
0.000151989
0.000152272
0.000468005
0.000226296
0.00106412
0.000271154
0.000305819
0.000220664
0.00432107
0.000193038
0.00933176
0.0442273
0.0002286
0.000181683
0.000147317
0.000181278
0.000101214
0.000141804
0.000508788
0.000172089
0.000179582
0.000209292
0.000152149
0.000138617
0.000131254
0.00214745
0.000182049
0.000207922
0.000196528
0.000155341
0.000236127
0.0204738
0.000154435
0.00785164
0.000140885
0.000210476
0.00021455
0.000176477
0.000189942
0.000343015
0.00157913
0.000138464
0.00341734
0.00939772
0.00014731
0.000147524
0.000194701
0.000149293
0.000182594
0.000138262
0.0335452
0.00017806
0.0285189
0.0588372
0.000192512
0.0234278
0.000152448
0.000180015
9.03427e-05
0.000136388
0.00019012
0.000205028
0.000144828
0.000146289
0.000184096
0.000193559
0.000140656
0.021483
0.000210498
0.025041
0.0146532
0.000213905
0.000150937
0.000150387
0.000548784
0.000144616
0.000139723
0.000203674
0.000138204
0.0102247
0.000184695
0.000177781
0.000174127
0.000163107
0.000222549
0.000292201
0.000179823
0.000193836
0.00458386
0.000146707
0.00024615
0.000166507
0.000235424
0.0148666
0.00324776
0.000140307
0.000162608
0.000164108
0.000169887
0.00373038
0.000191082
0.000274163
0.00014761
0.000159306
0.000201293
0.0611243
0.000143075
0.000214091
0.000200781
0.000170399
0.000938229
0.0238119
0.000171826
7.38353e-05
0.000145361
0.00428457
0.000171309
0.00568017
0.000208459
0.000164365
0.000181147
0.000190713
0.000164877
0.000202248
0.000246871
0.000269411
0.00197194
0.000152688
0.049201
9.82326e-05
0.00726918
0.000134665
0.00016787
0.000115126
0.000164347
0.000203643
0.000190516
0.000143527
0.0215661
5.92685e-05
0.0622746
0.000146643
0.000199738
0.000191054
2.67622e-05
0.000148853
0.000143419
0.000304121
0.000172951
0.0001901
0.00298872
0.000143363
0.00019653
0.000163898
0.000188937
0.000198085
0.000199831
0.000162556
0.000172823
4.39177e-05
0.00543972
0.016081
0.000360635
0.00563113
0.000143609
8.37109e-05
0.00476649
0.000206668
0.000198647
0.000202508
0.000141655
0.000152419
0.00221011
0.000197217
0.00256055
0.000137343
0.00100913
0.000203131
0.000263305
0.00014707
0.000188132
0.0453074
0.00013473
0.000139656
0.00342137
0.000198538
0.0519603
0.000199415
0.000246121
0.0198639
0.000221198
0.000209163
0.00014275
0.000159792
0.00319432
0.00397552
0.00352757
0.00015882
0.000200116
0.000554057
0.0549869
0.000279194
0.0376762
0.0002183
0.000226506
0.000182379
0.0516144
0.000229736
0.000265806
0.0196687
0.000160149
0.000181334
0.000201367
4.18409e-05
0.000152018
0.000150204
0.000173612
0.00131167
0.000218808
0.0539921
0.000170362
0.000140372
0.000169814
0.000250039
0.00020262
0.00581654
0.00382183
5.19676e-05
0.000163205
0.000204725
0.000182338
0.000153807
0.000192174
0.000143388
0.000149433
0.000200525
0.000148571
0.000199938
0.000192272
0.0359994
0.000153828
0.000144299
0.000253986
0.000243113
0.000140103
7.39678e-05
0.000192748
0.000433911
0.000146516
0.0138624