/*--------------------------------*- C++ -*----------------------------------*\
| =========                 |                                                 |
| \\      /  F ield         | OpenFOAM: The Open Source CFD Toolbox           |
|  \\    /   O peration     | Version:  v2012                                 |
|   \\  /    A nd           | Website:  www.openfoam.com                      |
|    \\/     M anipulation  |                                                 |
\*---------------------------------------------------------------------------*/
FoamFile
{
    version     2.0;
    format      ascii;
    class       volVectorField;
    location    "300";
    object      U_0;
}
// * * * * * * * * * * * * * * * * * * * * * * * * * * * * * * * * * * * * * //

dimensions      [0 1 -1 0 0 0 0];


internalField   nonuniform List<vector> 
14033
(
(1.02301 -3.70204e-05 7.57507e-21)
(0.676696 -0.727854 -7.42883e-21)
(1.01307 -0.00101 2.69643e-21)
(1.05025 -0.13242 1.83594e-20)
(1.03214 -0.321161 -1.50125e-20)
(0.887483 -0.0433268 -3.01775e-20)
(1.10715 -0.0329483 0)
(-0.275262 -0.00521766 -1.37451e-19)
(1.00635 -0.046071 0)
(1.02797 -0.00785472 -1.87915e-21)
(1.16511 0.065787 5.75136e-20)
(0.189239 0.0133847 -2.35129e-21)
(0.678946 -0.0337261 -6.41056e-20)
(1.01627 -0.00850574 -7.083e-21)
(1.04461 -0.0900581 1.08311e-22)
(1.02725 -0.00796043 2.33021e-22)
(1.01907 -0.0036172 -1.23628e-20)
(1.23955 -0.0339852 -2.00568e-20)
(0.0389847 -0.0506622 7.06845e-20)
(1.00004 -0.0015523 0)
(1.06905 0.0127568 0)
(-0.0612571 0.00549262 1.88484e-19)
(0.474635 0.0541821 1.85619e-20)
(1.07136 -0.121983 0)
(0.0292985 0.0271867 0)
(1.09428 -0.0387149 1.10253e-20)
(1.11777 0.0530317 3.61071e-20)
(1.02008 -0.0180728 -4.77126e-21)
(0.302282 0.0171558 2.51265e-20)
(0.769182 0.0745502 5.27818e-20)
(1.02299 5.37914e-05 7.7037e-21)
(1.0096 -0.00926899 0)
(1.05846 -0.068874 -2.58299e-22)
(0.121917 -0.0634024 6.88683e-20)
(1.04695 -0.00521183 0)
(1.00786 -0.0436791 -2.18931e-22)
(1.09626 -0.0405339 0)
(1.00006 -0.00204153 -5.94093e-23)
(1.07382 -0.0273198 -6.19212e-21)
(1.06946 -0.0526443 0)
(1.13906 -0.106098 0)
(0.949382 -0.0404339 -2.7911e-20)
(0.0911213 0.0142152 0)
(0.207715 0.00305535 0)
(0.998731 -0.0298932 3.47073e-21)
(-0.0179343 0.0242187 0)
(1.06764 0.0121997 1.2322e-20)
(0.946518 -0.0398954 2.65213e-20)
(1.11036 0.0554736 0)
(-0.125726 0.00545172 1.77623e-20)
(0.817272 -0.339174 -6.0848e-21)
(1.20459 -0.114086 4.49512e-20)
(0.16269 0.0254883 4.2323e-22)
(0.101506 0.0334654 -9.30054e-20)
(1.15735 -0.00966889 1.3025e-20)
(1.07183 -0.0525867 -2.08389e-21)
(0.452096 0.0476574 -4.19864e-20)
(1.02046 -0.0189399 -2.91101e-21)
(1.11308 -0.010397 1.84623e-20)
(0.980148 -0.0200402 5.21037e-21)
(1.11128 0.0564409 2.33062e-20)
(0.976294 -0.0240152 -2.2414e-20)
(0.359708 0.546517 -5.90997e-20)
(1.02957 -0.0551755 0)
(1.0809 0.0035336 7.94109e-24)
(1.0751 -0.488648 -3.93592e-20)
(1.06163 0.0693979 5.23386e-20)
(1.23499 -0.0319498 6.86243e-20)
(1.00816 -0.00824357 -4.1342e-21)
(1.04748 -0.00605614 0)
(1.11424 -0.031867 4.23368e-20)
(1.02889 -0.0327979 9.56696e-21)
(0.506748 0.0562597 0)
(0.320299 0.0452345 9.15818e-20)
(1.08312 0.0694127 -2.19694e-20)
(1.00771 -0.0419481 1.57306e-21)
(0.824171 -0.320953 0)
(1.00901 -0.039788 0)
(1.00271 -0.0251122 0)
(1.11752 0.0543754 -5.76182e-20)
(1.12646 0.0341201 -1.77091e-20)
(-0.0263266 0.0184754 -5.25146e-20)
(0.0756085 0.0105061 -2.42059e-20)
(-0.0823892 -0.0187629 0)
(1.01362 -0.04422 4.65059e-22)
(0.97694 -0.025396 7.54609e-21)
(1.04287 -0.0927583 -8.92904e-21)
(1.01902 -0.00322056 0)
(1.16644 -0.15571 -6.39401e-20)
(-0.0341714 0.00679673 -8.95577e-21)
(1.06296 -0.0302391 0)
(1.05009 -0.0177451 2.09812e-20)
(0.804574 -0.0103864 -4.01526e-20)
(0.1918 0.00887322 0)
(-0.257859 -0.0157467 -1.04624e-19)
(1.03434 -0.224111 0)
(1.08205 0.0024626 1.60933e-20)
(1.10528 -0.506017 2.89126e-20)
(0.302641 0.0164197 -6.05772e-21)
(0.998043 -0.00742999 -5.01602e-21)
(1.12583 0.0260218 0)
(0.157853 0.0056907 7.95118e-20)
(0.978037 -0.0342568 0)
(1.0135 -0.00135736 -6.17714e-21)
(0.0234453 0.00968196 -5.10324e-20)
(1.23608 0.0379137 0)
(1.1433 -0.0740411 4.86113e-20)
(0.476138 -0.329028 -5.76775e-20)
(1.17198 -0.1592 0)
(0.327126 0.0465921 2.31728e-20)
(1.035 -0.00419315 -1.65355e-20)
(1.00958 -0.0109406 -5.65517e-22)
(1.00122 -0.00763929 0)
(0.183886 0.0299217 0)
(1.00125 -0.00734313 1.61735e-21)
(-0.148086 -0.0142634 1.24467e-19)
(0.238832 0.0154101 -2.94124e-20)
(0.978837 -0.0324424 2.05335e-20)
(1.17945 -0.00705037 2.22876e-20)
(0.361971 0.0279989 2.25257e-21)
(1.05765 -0.0240691 -1.57425e-20)
(0.554633 0.626141 7.74451e-20)
(1.0637 -0.0545958 0)
(1.00903 -0.0103948 2.52508e-21)
(0.35053 0.0451622 -7.92238e-20)
(1.10926 -0.0316029 0)
(0.413093 0.0627002 0)
(1.1709 0.0413622 6.53439e-20)
(1.01692 -0.0088124 8.00192e-21)
(1.12757 0.0252167 -3.21289e-20)
(0.574503 0.0608938 -5.94679e-20)
(1.19034 -0.019974 -3.6002e-20)
(1.11243 0.0563671 0)
(-0.196047 0.0029183 -1.02551e-19)
(1.27731 -0.0876592 8.57178e-20)
(1.01609 -0.00776972 7.46064e-21)
(-0.253652 -0.00349974 2.33204e-19)
(0.0752885 0.0297367 1.04578e-19)
(1.09648 -0.145652 0)
(1.16762 0.0441207 1.93764e-20)
(1.29165 -0.424201 0)
(0.295869 0.0557521 -7.43402e-21)
(1.10162 0.0297868 1.93735e-20)
(0.509409 -0.316437 1.55504e-19)
(1.00284 -0.0241096 0)
(1.02338 1.11063e-05 2.62632e-22)
(0.118124 0.0344232 0)
(1.17124 -0.305428 2.88856e-20)
(1.02283 -0.000102719 2.69997e-21)
(0.854532 -0.098317 -4.82412e-20)
(0.999896 -0.0027948 -1.3847e-20)
(1.18216 -0.00834875 3.02381e-21)
(1.07589 -0.026958 -1.37487e-20)
(0.493006 0.635506 -5.49085e-20)
(1.1332 0.0601392 1.81079e-20)
(1.02781 -0.0321393 -9.29088e-21)
(0.0621751 0.0134426 -5.36131e-20)
(1.00806 -0.0110016 4.33463e-21)
(1.05621 -0.0625185 1.72531e-20)
(1.08661 0.0687841 0)
(-0.259254 -0.00392465 -9.28549e-22)
(1.18417 0.0414271 -2.64234e-20)
(1.03614 -0.0774566 7.60094e-21)
(1.06694 -0.124489 1.13124e-20)
(-0.0977923 0.0159725 0)
(1.0673 -0.0120339 1.69713e-20)
(0.371303 0.0505086 -3.82564e-20)
(1.10613 0.0225021 -3.76508e-20)
(0.22758 0.0141503 -1.43108e-20)
(0.99623 -0.0317605 -2.20133e-21)
(1.28373 -0.0918627 -1.16646e-19)
(0.967103 -0.0204261 5.42063e-21)
(0.858603 -0.0907942 8.22173e-20)
(1.03254 -0.233576 8.60804e-21)
(1.14049 -0.0715266 -2.03386e-20)
(1.12382 0.049548 1.08054e-20)
(1.00012 -0.00404227 2.01981e-21)
(1.02581 -0.00731687 0)
(1.01545 -0.00745536 -9.01212e-21)
(0.307318 0.0173157 -4.24832e-20)
(0.989953 0.0735867 -5.40177e-20)
(1.16682 0.0457182 1.03243e-20)
(1.00563 -0.0305114 -2.85821e-21)
(0.37394 0.0303824 1.79684e-20)
(1.02124 -0.000600149 -4.04354e-21)
(1.06479 -0.029802 -1.12889e-20)
(1.01299 -0.0455085 8.43269e-24)
(0.999103 -0.0142415 0)
(0.141099 0.0384736 -1.94567e-20)
(1.11857 0.0313444 -4.64282e-22)
(0.823811 -0.0113888 1.00919e-19)
(1.0576 -0.0253368 3.03105e-20)
(0.10864 0.440781 0)
(1.04893 -0.0167943 -2.0364e-20)
(1.05582 -0.0639668 -2.02496e-20)
(0.811921 -0.0172861 4.32073e-20)
(1.0377 -0.0244741 6.65942e-21)
(0.546392 -0.0176343 1.32759e-19)
(1.30814 -0.0564405 5.70582e-20)
(1.00023 -0.0194868 0)
(0.359968 0.0597451 0)
(1.04539 0.000830256 2.28646e-20)
(1.13119 0.0637294 0)
(1.00762 -0.0472643 0)
(0.348818 0.0604459 8.1064e-20)
(0.791122 0.0749854 -5.54859e-20)
(1.00911 -0.0413434 0)
(1.04787 0.00243533 0)
(0.312633 0.0557955 0)
(0.590968 0.0626403 2.67284e-20)
(1.10033 0.0288946 -5.04303e-20)
(0.997119 -0.0271091 -7.46568e-21)
(1.07604 -0.459555 2.50769e-20)
(0.99816 -0.0312404 1.66504e-21)
(1.05819 -0.0589707 0)
(1.03841 -0.0255298 -1.7393e-20)
(0.840232 -0.0124575 -8.89589e-20)
(1.23513 0.0353987 0)
(1.12336 0.0657129 -1.57666e-20)
(1.08146 -0.00295796 -1.80271e-20)
(-0.142803 0.00289459 4.2855e-20)
(0.0629553 0.0294579 0)
(0.997711 -0.0078585 -6.59835e-21)
(0.937335 -0.0744392 1.72614e-20)
(1.00011 -0.00265584 2.31478e-21)
(1.10887 0.07444 0)
(1.01871 -0.107785 -4.82553e-20)
(1.0807 -0.00175871 3.02526e-20)
(-0.216393 0.000741178 1.07895e-19)
(0.979248 -0.0264219 -6.25865e-21)
(1.02193 -0.0297071 7.5308e-21)
(1.03142 -0.0554555 -7.51902e-21)
(1.28186 -0.415976 0)
(0.466108 0.0698721 0)
(1.06854 -0.0116009 -2.1446e-20)
(1.02775 -0.00259077 -1.8361e-21)
(0.493165 0.0493289 0)
(1.02091 -0.0294061 0)
(1.01832 -0.0463452 -1.64429e-21)
(1.11141 -0.0249493 0)
(1.03454 -0.0119305 2.17804e-20)
(1.16277 -0.295862 -5.30073e-20)
(1.10415 0.0394947 -2.44567e-20)
(-0.239846 -0.000991819 -2.02566e-19)
(0.966903 -0.01907 6.81369e-21)
(1.02721 0.0704496 3.6973e-20)
(1.00514 -0.0297178 -2.5864e-21)
(0.232124 0.0206463 0)
(1.17047 0.0435651 -6.77987e-20)
(1.05367 -0.0682205 3.16675e-20)
(1.12913 0.0617536 0)
(1.0667 0.0693009 -2.38719e-20)
(1.02227 -0.0101315 -9.19281e-22)
(0.846397 -0.0176252 8.23098e-20)
(1.08017 -0.0135343 0)
(1.13223 0.0592514 1.50939e-20)
(1.01212 -0.00089848 -2.87254e-21)
(1.12941 0.063402 0)
(1.00267 -0.000621057 0)
(0.557676 0.0443125 -4.12622e-20)
(0.99935 -0.0136426 4.58718e-22)
(0.204658 0.0162172 -3.20203e-20)
(1.00034 -0.00151342 -1.91694e-22)
(0.989233 -0.025405 -2.48326e-20)
(1.0086 -0.00877438 4.31451e-21)
(1.02537 -0.0280094 0)
(1.11723 0.0305977 0)
(1.15995 0.0359316 -5.375e-21)
(0.967929 -0.0158749 2.91238e-20)
(1.14318 -0.108727 -3.92473e-20)
(1.05229 -0.0273485 1.36817e-20)
(1.00039 -0.018712 4.57201e-22)
(1.18539 0.0438596 2.94506e-20)
(1.21551 -0.0150556 -1.79577e-20)
(1.30496 -0.0607539 -5.47222e-20)
(1.0211 -0.00834481 0)
(1.01404 -0.00139817 0)
(1.01633 -0.00980735 1.03457e-21)
(0.218148 0.0324888 4.12576e-20)
(0.831015 -0.0178786 -1.66313e-19)
(1.00006 -0.00204148 4.53398e-21)
(0.996604 -0.0175226 4.10526e-21)
(0.50198 0.0505812 0)
(-0.118206 0.0119588 -2.69963e-21)
(1.02434 -0.00805903 0)
(0.443007 0.0446549 0)
(1.114 -0.0243573 -2.48969e-20)
(1.05218 -0.128252 1.71857e-20)
(1.05102 -0.00273472 1.11049e-20)
(0.963568 -0.097789 -1.146e-21)
(1.00003 -0.00160582 -6.66977e-21)
(1.20408 -0.108366 -1.2926e-19)
(1.02189 -0.00853185 0)
(0.536268 0.0670104 -8.94077e-21)
(1.06913 -0.102709 -2.13321e-20)
(0.783124 -0.0541748 0)
(1.21178 -0.0139842 2.33171e-20)
(1.09092 -0.143877 1.94031e-20)
(0.711481 0.00909985 0)
(1.02861 0.0759705 0)
(0.965908 -0.267967 -8.5076e-21)
(0.162797 0.0358712 -8.00625e-20)
(1.10802 0.0229251 4.25652e-20)
(1.03122 -0.0794966 -7.862e-22)
(0.457766 0.0462853 1.56272e-20)
(1.01816 -0.00875932 -8.48407e-21)
(0.941299 -0.0739163 -3.41301e-20)
(1.12459 0.0289598 0)
(1.15268 -0.00198886 0)
(1.03417 -0.00445476 3.0489e-20)
(1.20601 -0.159577 0)
(1.1856 0.0390235 7.2529e-21)
(1.01571 -0.00939037 0)
(0.112847 -0.252927 1.25568e-19)
(-0.0219772 0.0218633 5.71641e-20)
(0.753238 -0.0334834 7.30878e-21)
(1.15085 -0.00368373 0)
(0.999961 -0.00138204 -3.31203e-21)
(-0.218847 -0.0208435 -2.29716e-21)
(0.937451 -0.0154373 0)
(0.977982 -0.0279849 1.51441e-20)
(1.12681 0.0156009 -3.11532e-20)
(0.968861 -0.0145254 -2.07952e-20)
(1.01286 -0.018467 -5.61535e-22)
(1.05995 -0.0576848 -9.96696e-21)
(1.07901 0.00322733 2.72794e-20)
(1.13364 -0.00337244 3.11204e-20)
(1.02484 -0.00442856 1.15791e-20)
(1.02105 -0.0159181 2.81426e-21)
(0.39434 0.0646719 -2.46907e-20)
(0.305598 0.0479489 -8.70208e-20)
(1.04743 0.00161103 0)
(1.01163 -0.00120391 0)
(0.305996 0.0224613 -2.10099e-20)
(1.05948 -0.0223317 -9.27826e-21)
(1.02123 -0.000659866 3.02357e-21)
(1.01629 -0.000986012 0)
(1.00426 -0.072581 3.13242e-21)
(0.769805 0.0715302 1.32234e-21)
(1.03363 -0.0118573 -1.09147e-20)
(0.285692 0.0206958 -5.08646e-20)
(-0.0264665 0.00903242 0)
(1.06565 -0.0535505 1.44629e-20)
(0.0115739 0.0237533 0)
(1.07821 0.00431102 -1.35844e-20)
(0.889047 -0.0389822 0)
(1.13396 -0.108821 -4.21819e-21)
(1.09494 -0.0363493 -1.07638e-20)
(0.405672 -1.15268 7.79978e-20)
(1.02186 -0.0096149 6.62199e-22)
(-0.0226422 0.0229596 0)
(1.12193 0.0528612 4.12595e-20)
(1.00345 -0.0239821 -1.60411e-21)
(1.04766 -0.212178 1.77969e-20)
(1.05152 -0.0175278 -2.27921e-20)
(1.07857 -0.0139936 1.52082e-20)
(0.994583 -0.0271038 0)
(1.16344 0.0634283 5.1331e-20)
(0.308001 0.0219843 0)
(0.524085 0.0556734 3.29234e-20)
(0.998855 -0.0256234 -8.9965e-21)
(0.647069 0.0428569 -7.74721e-20)
(1.06888 -0.0102944 1.65558e-20)
(1.17309 0.0602611 -8.00026e-20)
(1.00044 -0.00173051 1.84261e-22)
(0.997605 -0.00871742 0)
(1.04198 -0.206429 -2.48608e-20)
(0.999834 -0.00175268 -2.84623e-22)
(0.201613 0.0289965 -6.46794e-20)
(0.791111 0.00816455 0)
(0.410772 -0.315386 -6.03696e-22)
(0.997033 -0.0171378 -4.07694e-21)
(1.07221 -0.02607 -1.26258e-20)
(0.963137 -0.101204 1.45027e-21)
(1.01285 -0.0191294 6.08423e-22)
(1.00957 0.070614 -5.69598e-20)
(1.06967 -0.312887 0)
(0.981517 -0.0304678 -2.03275e-20)
(0.00458541 0.025905 0)
(1.13532 -0.00189681 0)
(0.997702 -0.00886441 0)
(1.00792 -0.0113957 -1.51882e-21)
(1.05622 -0.0698472 -2.29858e-20)
(1.05043 -0.044324 6.77149e-21)
(0.144893 0.0324514 7.53235e-20)
(1.2952 -0.0614228 1.13604e-20)
(1.12261 0.0646842 2.69883e-20)
(1.11935 0.059089 -2.31962e-20)
(1.00791 -0.0198501 0)
(0.487426 0.244927 1.99517e-19)
(0.155095 0.0395687 0)
(1.07121 0.00552676 -2.65359e-20)
(1.06999 0.07012 -3.44741e-20)
(1.01454 -0.00912139 -1.90031e-21)
(0.979754 -0.151875 0)
(0.952206 -0.559586 3.15311e-22)
(-0.0733093 0.0154812 2.39905e-21)
(1.19806 0.00790264 -2.56023e-20)
(0.490981 -0.2028 1.30591e-20)
(1.00635 -0.0443512 2.37194e-22)
(1.02438 -0.00400382 0)
(0.0486491 0.0104554 5.62681e-20)
(1.00078 -0.00139096 0)
(1.08815 0.0697648 5.84374e-20)
(0.379602 -0.158227 1.2605e-19)
(1.27651 -0.460857 -2.06052e-19)
(1.04409 -0.00833528 0)
(1.13324 -0.00817123 2.96045e-20)
(0.496038 0.0517932 3.26935e-20)
(-0.10768 -0.0197721 8.62453e-20)
(0.990301 -0.0250273 6.69354e-21)
(1.12632 0.0284001 -9.41022e-21)
(1.06826 -0.00910917 2.5749e-22)
(1.12038 0.0715579 1.86278e-20)
(0.999987 -0.00153063 -2.20013e-22)
(0.297911 0.0148003 2.60786e-20)
(0.369429 0.0633685 -9.05761e-22)
(1.05385 -0.027564 -9.74075e-21)
(1.06593 -0.0144727 0)
(1.17335 0.0589706 7.55475e-20)
(0.925826 -0.0492511 3.59618e-20)
(0.983216 -0.0216352 1.85339e-20)
(0.128521 0.0108201 -8.2359e-20)
(0.0311274 0.00976488 0)
(0.974169 -0.0127517 1.40521e-22)
(0.261804 0.0311553 0)
(-0.133036 0.00505805 -3.83432e-20)
(1.073 0.0738245 -5.16055e-20)
(1.06234 -0.0317714 0)
(1.01839 -0.00290811 8.02926e-21)
(1.00099 -0.017987 0)
(1.03343 -0.00539699 -1.05542e-20)
(0.492327 -0.328805 0)
(1.07517 -0.0506534 0)
(1.01253 -0.0012866 7.88763e-21)
(0.134731 0.385281 1.18587e-19)
(0.788432 0.0710095 0)
(1.1225 0.0486631 -1.04233e-20)
(1.12874 0.0604856 0)
(0.980395 -0.0446987 2.90482e-21)
(0.402175 0.0586897 3.13152e-22)
(0.729094 -0.566358 -3.94033e-21)
(1.01595 -0.000732967 0)
(-0.00639045 0.0247936 -5.88702e-20)
(0.931711 -0.183443 -2.62105e-20)
(0.231667 0.0252256 0)
(1.26974 -0.0156258 -1.2063e-20)
(1.3099 -0.0698005 1.03195e-20)
(1.01758 -0.044558 1.54965e-21)
(0.185993 -0.0601638 0)
(0.98187 -0.0216086 -1.80085e-20)
(0.352478 0.061171 3.00277e-20)
(1.08731 0.0160302 4.14798e-20)
(0.0440723 0.0122199 -3.04905e-21)
(0.796666 0.0732983 0)
(1.0001 -0.00231418 -2.17501e-21)
(0.340486 0.0492078 2.06086e-20)
(0.979076 -0.0208557 0)
(0.696017 -0.670539 6.8139e-21)
(-0.270939 -0.00846633 0)
(0.524531 -0.915865 0)
(0.264852 0.0140752 -3.21049e-20)
(0.794632 -0.057279 -7.21999e-20)
(0.494641 0.0489029 2.96578e-20)
(0.240405 0.0270617 0)
(1.11667 0.071291 -6.46914e-21)
(1.04608 0.00155344 -1.93382e-20)
(0.309616 0.02944 -4.21749e-20)
(0.446643 -0.30273 -6.34622e-20)
(1.12199 0.0514927 -2.12445e-20)
(1.02169 -0.00281865 8.77244e-21)
(1.27588 -0.0165169 3.02085e-20)
(1.06992 -0.0350106 1.53038e-20)
(0.978536 -0.0456204 0)
(0.945723 -0.0843459 5.53428e-20)
(1.11999 0.0580862 2.50386e-20)
(1.07005 0.00602026 1.90145e-20)
(1.11944 -0.0823141 -6.47931e-21)
(0.926065 0.0744675 2.42385e-20)
(1.0872 0.0693771 2.1087e-20)
(0.595328 0.055197 -2.97048e-20)
(1.10301 0.0384907 0)
(0.515377 0.0658326 0)
(0.464888 0.0487933 0)
(1.00482 -0.0701157 7.01809e-22)
(0.271789 0.0182017 0)
(1.02625 -0.010555 -1.13546e-20)
(1.02187 -0.00257207 -6.30961e-23)
(1.11992 0.0718163 0)
(1.01833 -0.00256542 -8.10447e-21)
(1.23991 -0.0204005 -7.48575e-20)
(1.09494 -0.232029 3.27576e-20)
(1.00012 -0.00178941 -1.3093e-21)
(1.04446 -0.00773535 -3.26093e-21)
(1.07182 -0.100404 2.55964e-20)
(1.02254 -0.598286 -1.04998e-20)
(1.0009 -0.0187777 1.389e-21)
(1.13637 0.00515084 -3.84438e-20)
(1.02724 -0.0107633 1.09975e-20)
(1.02226 -0.0282026 0)
(1.03545 -0.0111076 -9.09368e-21)
(1.03023 -0.00323824 0)
(1.04345 -0.312215 8.24522e-21)
(1.00911 -0.00874302 1.05268e-21)
(0.928375 -0.566347 1.93651e-20)
(0.690524 -0.208003 0)
(0.881661 -0.0473015 -1.5831e-20)
(1.02855 -0.00282286 -1.28934e-20)
(-0.0909563 0.0031498 -2.57665e-19)
(0.327699 0.0591542 5.69756e-20)
(0.506617 0.0501161 -2.76777e-20)
(1.03004 -0.00353095 1.2618e-22)
(1.18126 -0.0702151 0)
(1.17965 -0.0664302 0)
(1.02335 0.000127011 2.68356e-21)
(1.02751 -0.0306004 4.42481e-21)
(1.00038 -0.0410545 0)
(0.515258 0.0734065 4.54625e-20)
(1.1309 0.0609362 0)
(0.289516 0.0139349 2.81059e-20)
(0.990464 -0.051094 0)
(1.11508 -0.0092296 -5.55145e-20)
(-0.0483446 0.00585783 -7.20265e-20)
(0.926614 -0.052867 2.00957e-20)
(0.857796 -0.0758242 -1.02552e-19)
(1.26376 -0.463401 1.82574e-19)
(1.00958 -0.00982423 -4.31946e-21)
(1.34447 -0.260465 0)
(-0.131293 0.0093586 0)
(0.938748 -0.0325558 1.64482e-21)
(0.832515 -0.223715 3.71851e-20)
(1.16168 0.0470978 1.00391e-20)
(0.135446 0.0128664 7.46077e-20)
(1.03536 -0.0117153 0)
(1.12433 0.015186 2.65332e-20)
(1.15895 0.0611688 6.40778e-21)
(1.06911 -0.298145 0)
(0.978984 -0.0665211 -4.73173e-21)
(0.329991 0.0324696 -1.81275e-20)
(-0.0395563 -0.0199341 0)
(0.999023 -0.10917 -4.86232e-21)
(1.00015 -0.00226449 1.13658e-21)
(0.914434 -0.255894 0)
(0.58402 0.0536081 0)
(0.452886 0.0700294 1.1683e-20)
(0.00373311 0.0162984 5.54787e-20)
(1.02556 -0.00778988 0)
(1.08662 0.0147596 -3.5753e-20)
(0.597469 0.0599412 2.50738e-22)
(0.941805 -0.0334879 0)
(1.00093 -0.00151642 -5.9123e-23)
(0.736937 -0.128124 -6.99217e-20)
(1.02381 5.93532e-05 0)
(1.0881 0.0133734 -4.95413e-20)
(-0.096619 0.00635818 -7.18287e-20)
(1.16416 0.0475341 1.02329e-20)
(1.13033 0.0619256 0)
(1.00102 -0.0056666 -7.23677e-22)
(-0.272092 -0.00979169 0)
(1.09155 0.0281062 0)
(1.06825 -0.0344085 0)
(1.02905 -0.0025517 1.67665e-20)
(1.04297 -0.00845095 4.08549e-21)
(-0.0881826 0.0062142 3.73042e-20)
(1.11475 0.0699329 -1.73771e-20)
(0.730573 -0.14302 0)
(1.05206 -0.045102 -9.07333e-21)
(0.525414 0.251903 -1.83067e-19)
(0.999962 -0.00133335 0)
(0.522435 0.0534515 -3.06077e-20)
(1.11391 -0.0293379 1.48959e-20)
(0.119342 0.0329597 -1.1964e-19)
(0.349274 0.0276188 0)
(0.978694 -0.0293438 0)
(0.579406 0.0738158 4.18635e-20)
(1.06961 0.0696919 -4.20428e-20)
(0.981491 -0.0202919 0)
(-0.0847693 -0.0420607 -2.63766e-19)
(0.513251 0.0517274 0)
(1.01772 -0.00221325 0)
(-0.134279 0.0123461 0)
(1.02965 -0.110661 3.15792e-21)
(0.301207 0.0553415 -6.28855e-20)
(0.948908 -0.0141049 -4.96631e-20)
(1.0492 -0.00165875 -4.50555e-21)
(0.38055 0.0568005 -5.94484e-21)
(1.15566 -0.00705786 -1.21773e-20)
(1.02808 -0.0377416 0)
(1.21227 -0.164539 -1.06832e-21)
(0.337808 0.0596143 0)
(0.716233 -0.765939 9.09291e-21)
(0.999928 -0.0017266 2.08462e-21)
(1.02926 -0.0375004 6.45283e-21)
(1.22014 -0.0692955 -3.49455e-20)
(1.17742 -0.0743147 0)
(0.436307 0.0463368 4.24808e-20)
(0.980723 -0.0321992 -5.19088e-22)
(1.1114 0.0606975 2.41547e-21)
(1.16056 0.0492604 -9.07826e-21)
(1.16177 -0.272316 5.52794e-20)
(1.24044 -0.0381041 -2.22371e-20)
(0.981078 -0.0353298 1.16653e-20)
(-0.204644 -0.000379737 0)
(0.798033 0.0101197 -4.08582e-20)
(0.985275 -0.148612 5.02071e-21)
(0.464684 0.0659862 2.82773e-20)
(1.00285 -0.00871904 -3.10113e-23)
(1.1428 0.0231017 -3.81217e-20)
(1.08745 0.0121344 3.6629e-20)
(1.21772 -0.0737777 3.89643e-21)
(1.02764 -0.0102771 -3.67956e-21)
(0.215253 0.0176735 0)
(1.05697 -0.0346033 8.9802e-21)
(1.07626 -0.12389 0)
(1.00026 -0.0042395 0)
(1.00414 -0.0295653 -1.78785e-21)
(1.00107 -0.00601597 1.85728e-21)
(0.887532 -0.0246057 0)
(0.531367 0.0575247 0)
(0.889663 -0.02757 1.114e-21)
(1.06743 -0.0139485 8.64582e-21)
(1.28333 -0.115944 0)
(0.874704 0.0702937 0)
(0.556571 0.0562403 3.01952e-20)
(-0.150732 0.00169729 1.46004e-21)
(-0.0398859 0.00810917 6.82059e-20)
(1.0311 -0.072464 0)
(0.423325 0.0669574 0)
(0.556347 0.0727146 -4.3216e-20)
(0.488708 0.0488594 0)
(1.12712 -0.0691865 5.33883e-20)
(-0.112669 0.00438178 0)
(1.00719 -0.00867828 0)
(1.08966 0.0275195 -2.55943e-20)
(1.02737 -0.0175532 9.06681e-21)
(0.295286 0.020919 -2.25156e-20)
(1.09406 -0.081183 0)
(-0.00760938 0.00460505 1.00474e-19)
(1.02253 -0.0180966 -6.20933e-21)
(0.812285 -0.523486 -3.1328e-20)
(0.128724 0.0132849 0)
(0.615429 0.0381061 0)
(0.990638 -0.0236476 1.57861e-20)
(0.875428 0.0711277 1.37314e-20)
(1.02636 -0.0171107 -1.14313e-20)
(0.996559 -0.0331814 0)
(1.03873 -0.0779727 -3.5586e-21)
(1.00001 -0.00197792 -2.82828e-21)
(1.05919 0.00142102 -1.75143e-20)
(1.00329 -0.00879665 6.14298e-23)
(1.025 -0.0108913 -1.68354e-20)
(0.999915 -0.00237713 6.81113e-21)
(1.00801 -0.066242 8.21091e-22)
(0.612149 -0.903416 1.73486e-20)
(1.23903 -0.242255 1.01183e-20)
(1.05059 -0.00184951 0)
(1.18974 0.0297767 -3.08689e-20)
(0.336692 0.025424 0)
(0.99939 -0.567348 0)
(1.02568 -0.00880077 6.73304e-21)
(1.13207 0.0426883 5.69526e-20)
(1.09949 0.00723722 0)
(1.12817 -0.0327868 0)
(0.310771 0.0569683 0)
(1.28768 -0.0679161 0)
(0.98204 -0.0363426 -1.18105e-20)
(1.00352 -0.0298938 -6.37408e-21)
(1.00278 -0.00895478 0)
(1.15848 0.0491099 0)
(1.00675 -0.00188022 -6.62244e-21)
(1.07617 0.0740027 -5.63638e-20)
(1.01977 -0.0325409 -2.34969e-21)
(1.00612 -0.0647151 2.79256e-21)
(1.08662 -0.127046 0)
(1.125 0.0348009 -4.11513e-20)
(1.00854 -0.0203311 0)
(1.02649 -0.0300994 -2.76575e-21)
(0.322115 0.0257846 1.8147e-20)
(0.278532 0.0170935 1.56295e-20)
(0.109009 -0.230053 2.50388e-19)
(0.131971 0.0366732 2.32358e-20)
(0.876079 -0.585461 8.70447e-20)
(1.03939 -0.0679723 -3.21153e-21)
(0.980971 -0.0647469 7.25216e-21)
(1.01217 -0.0255237 0)
(0.182942 0.012012 0)
(1.00012 -0.00437599 -6.72484e-21)
(1.07641 -0.0529252 -1.75028e-20)
(1.04986 -0.0283527 1.38387e-20)
(0.739086 -0.516421 1.2915e-20)
(1.01805 -0.00188954 -4.02211e-21)
(0.32778 0.0450884 4.80706e-20)
(1.12805 0.0638879 0)
(1.0118 -0.0245451 3.59602e-23)
(1.18753 -0.0174913 5.64337e-20)
(1.00218 -0.0254497 0)
(1.02594 -0.0110896 3.74598e-21)
(0.227594 0.01388 3.45427e-20)
(1.00994 0.0705494 2.18473e-20)
(1.01744 -0.047411 0)
(0.852991 -0.0829242 1.13177e-19)
(0.951413 -0.014474 8.11506e-21)
(1.15562 -0.012228 4.71542e-22)
(1.00345 -0.0229634 2.99979e-21)
(1.05351 -0.442906 1.67342e-20)
(1.01964 -0.0229666 5.92735e-21)
(0.696101 -0.194049 9.24955e-20)
(1.13208 0.0612247 5.53658e-21)
(1.14769 -0.00914381 2.26224e-20)
(0.967755 -0.0464238 -1.15949e-20)
(0.564575 0.0613641 -1.92648e-21)
(1.00187 -0.000604844 0)
(0.295388 0.0153876 -2.3788e-20)
(0.902316 -0.250119 0)
(1.13114 -0.0786385 -3.00309e-20)
(0.948611 -0.121261 -8.54423e-21)
(1.1236 0.0509434 0)
(0.421398 0.0662992 -3.42821e-21)
(1.11186 -0.0330781 -2.89228e-20)
(1.18168 -0.00130635 5.70391e-20)
(1.17969 -0.0780225 5.15995e-22)
(1.15313 0.0346488 3.06416e-20)
(0.0103795 0.0080796 -2.97296e-20)
(1.00199 -0.111995 2.829e-21)
(0.273836 0.0110392 0)
(0.997425 -0.028392 -7.98082e-21)
(1.03331 -0.248815 -4.07263e-20)
(1.02079 -0.00774167 0)
(1.03232 -0.132176 -1.1401e-21)
(0.0425981 0.0148674 2.19698e-20)
(0.302009 0.0287273 0)
(1.16062 0.0631884 -5.99975e-20)
(1.14495 0.0224749 8.79703e-20)
(1.01512 -0.00959952 -2.11438e-21)
(1.02252 -0.0291208 -7.34524e-21)
(1.04203 0.000147144 0)
(-0.226936 -0.00209298 0)
(1.05794 -0.0362083 -9.69616e-21)
(0.607933 0.0396777 7.82992e-20)
(0.844907 0.0705526 0)
(1.02638 -0.0285738 3.24389e-21)
(1.1415 0.0566937 3.96912e-22)
(0.902737 -0.00571177 1.61013e-20)
(1.29472 -0.0716274 -8.63698e-20)
(1.0076 -0.0693842 -1.66766e-21)
(0.941933 -0.136012 -9.50466e-21)
(0.300638 0.0448332 -3.66813e-20)
(1.04823 -0.0895865 5.26977e-21)
(-0.248358 -0.0018744 0)
(0.99181 -0.0494875 4.021e-21)
(1.02547 -0.00442733 -1.23732e-20)
(1.04752 -0.0171234 2.17883e-20)
(1.17112 -0.0933549 -2.8726e-20)
(0.939688 -0.180983 1.87792e-20)
(1.1695 -0.283621 -3.20611e-20)
(1.05151 -0.0692867 -2.1869e-20)
(1.02468 -0.00761626 0)
(1.00238 -0.00074101 0)
(0.565347 0.0569197 2.65577e-20)
(0.234781 0.0150589 3.24433e-20)
(1.12325 0.0344415 0)
(0.937335 0.076378 -3.37946e-23)
(1.03259 0.00161585 0)
(1.00393 -0.000818881 -2.95406e-21)
(1.00931 -0.00127464 -2.20866e-21)
(0.991574 -0.0232333 -6.31847e-21)
(1.11677 -0.261077 3.05249e-20)
(1.12512 -0.0314644 0)
(0.230489 0.0142277 4.90285e-21)
(0.274573 0.0125852 -1.63749e-20)
(1.00035 -0.00317993 -6.6032e-22)
(0.0073999 0.000420815 -7.79022e-20)
(-0.284357 -0.00686099 1.4246e-19)
(0.865145 -0.20396 -3.02436e-20)
(1.12975 0.0640812 -4.6525e-21)
(1.09725 0.00722006 -2.42769e-20)
(1.27768 -0.0475608 -1.01295e-19)
(0.356966 0.0439881 9.24113e-20)
(1.06639 0.0701167 -1.41e-20)
(0.529674 0.0567926 -2.94521e-20)
(1.00322 -0.00909713 -4.08081e-23)
(-0.069612 0.0194825 -1.75875e-20)
(0.434983 0.0476469 -1.68409e-20)
(1.04186 -0.00794969 0)
(0.362916 0.0529364 1.07743e-19)
(1.25028 0.0111677 0)
(1.12822 -0.0760682 2.68258e-20)
(1.00604 -0.110619 -2.2007e-21)
(0.113647 -0.00131475 0)
(0.552118 0.0561505 -1.79553e-22)
(1.12645 0.0322499 -1.61809e-20)
(0.962625 -0.256175 0)
(-0.0116919 0.0133986 -5.78447e-20)
(-0.229176 -0.00854523 0)
(0.452132 0.046324 -3.85159e-21)
(0.960759 -0.0244483 1.48509e-20)
(0.957579 -0.278457 4.49977e-21)
(0.513296 0.0517322 -3.09327e-20)
(0.998444 -0.0265344 7.52555e-21)
(1.05546 -0.00908194 -2.72078e-22)
(0.843547 0.069505 -3.05731e-20)
(1.0223 -0.00916075 0)
(1.00008 -0.000960561 0)
(1.19257 0.0298325 0)
(0.575777 0.0749434 0)
(0.859697 -0.0175315 6.58713e-20)
(0.99895 -0.00926748 -1.10805e-20)
(0.978737 -0.0252097 -8.22519e-21)
(0.445223 0.0648957 -4.69855e-20)
(0.352334 0.0517473 0)
(0.620656 -0.843362 -1.31944e-20)
(1.17208 -0.00602406 -3.42764e-20)
(0.289919 0.0215739 5.23258e-20)
(1.22881 -0.234417 5.75229e-20)
(0.434664 0.043504 -9.33949e-21)
(1.00252 -0.00305374 9.1331e-22)
(0.357126 -0.187733 -1.58263e-19)
(1.01969 -0.058479 4.2255e-22)
(1.0184 -0.00939176 0)
(1.02074 -0.0177552 -5.88721e-21)
(1.01438 -0.003191 0)
(1.00372 -0.000623084 2.75809e-21)
(1.01821 -0.0332917 -9.51872e-23)
(0.990685 -0.0275068 -8.77235e-21)
(1.26482 -0.00947607 -5.04918e-20)
(0.90593 -0.0984922 -5.99141e-20)
(0.391504 0.0591174 4.86945e-20)
(0.371098 0.0593371 3.97089e-20)
(1.0189 -0.022259 -5.75107e-21)
(1.00274 -0.00344717 -1.01676e-21)
(1.05114 -0.0396295 0)
(-0.227827 -0.00759494 1.20592e-19)
(0.962075 0.0765078 -1.96937e-20)
(0.071221 -0.134013 -8.31774e-20)
(0.997343 -0.143527 0)
(1.34368 -0.246262 7.6761e-20)
(1.11912 0.052673 -2.15551e-20)
(1.25454 0.0146557 1.28019e-19)
(1.13821 0.00344233 2.10282e-20)
(1.14662 -0.453577 5.66511e-20)
(0.998408 -0.0394624 0)
(1.03205 -0.07479 -6.57637e-22)
(1.02476 -0.00860498 -1.07902e-20)
(1.15722 0.0196584 -3.57348e-20)
(1.05576 -0.00846004 0)
(1.00005 -3.2192e-05 0)
(1.00679 -0.0622623 -2.21333e-21)
(0.524273 0.0528267 2.81475e-20)
(0.999098 -0.0412764 0)
(1.05843 -0.0661287 5.73408e-21)
(1.01992 -0.0192896 -2.37367e-21)
(1.1089 0.0558952 6.8447e-20)
(0.444938 0.0448959 -1.5671e-20)
(0.856505 -0.214785 0)
(0.736414 0.0148477 0)
(0.570692 0.075108 2.59276e-21)
(1.18162 0.00194371 -3.89274e-20)
(0.981721 0.0761205 -3.05915e-22)
(1.02086 -0.0327119 2.82252e-21)
(1.02611 -0.00938917 -3.65666e-21)
(1.0604 -0.031796 -9.59892e-21)
(0.55352 0.0734459 -1.24022e-21)
(0.437763 0.0680427 0)
(1.13093 0.0437326 1.80989e-21)
(0.356989 0.0574922 -2.55766e-20)
(1.00383 -0.0137001 0)
(1.13191 0.0413382 -4.47604e-20)
(1.0189 -0.0110736 2.68557e-21)
(1.08567 -0.0815564 -2.67101e-20)
(0.21059 -0.0300983 -3.46919e-22)
(0.998344 -0.0287186 -3.70853e-21)
(1.11009 0.0608214 -1.86687e-20)
(1.02128 -0.0166826 -3.00107e-21)
(0.999183 -0.0091416 1.20122e-20)
(0.988831 -0.0268358 3.66562e-21)
(1.13029 -0.00774638 -1.50718e-20)
(0.926297 -0.247289 -1.18464e-20)
(0.991074 -0.0531945 8.6718e-21)
(1.04486 -0.0117047 0)
(0.881818 -0.607377 -8.78924e-21)
(1.28783 -0.110005 -5.1036e-20)
(1.08305 -0.130989 0)
(1.10779 0.0548702 -3.20504e-20)
(1.04128 -0.00101336 2.29672e-20)
(0.781699 0.0754222 2.89195e-20)
(0.994512 -0.0258484 -9.63488e-21)
(0.971688 -0.234772 -1.48244e-20)
(1.05933 -0.0236447 1.0215e-20)
(-0.257656 -0.0123968 0)
(0.713203 -0.0506451 -8.00068e-20)
(1.0001 -0.000931931 0)
(1.11094 -0.00944913 0)
(-0.151069 0.00580834 0)
(1.01932 -0.0335811 4.67947e-21)
(1.05445 -0.0910551 -1.304e-20)
(0.38177 0.030883 0)
(1.04891 -0.000813037 1.60503e-20)
(0.501311 0.0442771 -4.37873e-20)
(0.440412 0.0454485 0)
(0.997244 -0.0396336 0)
(1.17512 -0.0847755 0)
(1.09561 -0.031349 3.60687e-20)
(0.319196 -0.0171764 -1.08063e-20)
(0.944121 -0.124699 -8.72898e-21)
(1.12724 -0.460625 0)
(0.281876 0.0182478 -1.40327e-20)
(1.10225 -0.027716 1.62374e-20)
(0.500666 0.0503967 -9.14124e-22)
(1.05506 -0.0878812 0)
(1.01445 -0.0171842 0)
(1.05795 0.00135653 -9.16128e-21)
(1.04138 0.000452627 3.56416e-21)
(0.520689 0.068826 5.41527e-20)
(0.784674 -0.00523129 6.11553e-21)
(1.10019 -0.0290462 -1.99137e-22)
(0.0906501 -0.162532 7.79991e-20)
(0.996963 -0.0309067 -1.68993e-21)
(0.337462 -0.13481 0)
(1.15345 -0.0615261 8.61821e-20)
(1.00676 -0.00808764 -2.33055e-21)
(0.931105 -0.0543539 -9.367e-21)
(1.06925 -0.00664898 2.40081e-20)
(-0.144109 0.00276036 1.08767e-20)
(1.07316 -0.190814 0)
(1.2093 -0.103254 8.6443e-20)
(0.784379 0.0703061 -4.57861e-20)
(1.0002 -0.00108229 0)
(1.13491 -0.00632018 -2.06082e-21)
(0.443234 0.0181432 -1.18816e-19)
(0.996572 -0.0366367 6.32393e-21)
(1.1635 -0.0354042 5.67161e-20)
(1.00026 -0.00384055 1.59921e-21)
(0.429671 0.0441507 8.63287e-21)
(0.59947 0.0597451 0)
(1.1556 0.0340222 -3.28316e-20)
(-0.217191 0.00160134 0)
(1.07974 -0.0825276 1.16426e-20)
(1.0487 -0.045277 1.70055e-20)
(1.12127 0.0648404 -5.87835e-20)
(0.999933 -0.000801909 8.99842e-21)
(1.0238 -0.00402929 5.22869e-24)
(0.366827 0.0556934 -4.33812e-20)
(0.174382 -0.00803212 0)
(1.00013 -0.000937466 0)
(0.983701 -0.0228647 1.20425e-20)
(1.15772 0.0222011 -3.21286e-20)
(1.01367 -0.0178525 0)
(1.00934 -0.112852 1.72709e-21)