/*--------------------------------*- C++ -*----------------------------------*\
| =========                 |                                                 |
| \\      /  F ield         | OpenFOAM: The Open Source CFD Toolbox           |
|  \\    /   O peration     | Version:  v2012                                 |
|   \\  /    A nd           | Website:  www.openfoam.com                      |
|    \\/     M anipulation  |                                                 |
\*---------------------------------------------------------------------------*/
FoamFile
{
    version     2.0;
    format      ascii;
    class       volScalarField;
    location    "350";
    object      ddt0(k);
}
// * * * * * * * * * * * * * * * * * * * * * * * * * * * * * * * * * * * * * //

dimensions      [0 2 -3 0 0 0 0];


internalField   nonuniform List<scalar> 
14033
(
0.000301323
-0.000910652
-1.67726e-10
-6.10693e-09
-5.66732e-09
-6.96607e-08
-7.64197e-05
1.30722e-07
-1.30141e-08
0.00118661
-6.41447e-07
5.36042e-08
2.83117e-08
-2.19192e-09
-1.40015e-09
-3.43365e-08
-5.3678e-08
-0.00117574
3.44288e-08
5.96583e-08
2.63155e-08
7.83388e-08
-8.83771e-08
-7.44012e-10
-3.04981e-07
-1.72046e-09
8.45986e-07
-1.8913e-07
0.000289233
1.03293e-05
-4.31511e-09
1.06535e-06
-3.82744e-07
-2.69949e-09
0.00178581
-2.93192e-11
-4.23236e-05
0.00149673
-3.3103e-09
3.19288e-10
-0.00149278
2.28588e-08
-4.52471e-08
-6.5404e-10
-1.51168e-07
-2.08295e-08
-0.00150862
-7.73848e-08
3.06517e-07
-0.000606993
8.40493e-09
-9.47197e-10
0.00160883
0.000730979
-4.47102e-08
2.75655e-08
0.00101111
0.00244369
-5.99525e-08
-2.49706e-08
-5.12671e-07
-0.000476685
1.18028e-07
-9.48628e-09
7.24499e-10
-4.87161e-08
0.000121394
4.38577e-08
2.72106e-08
-1.12048e-08
-1.09733e-09
-1.00814e-08
-0.00151136
3.43755e-08
6.12186e-09
5.77292e-09
-7.51938e-08
-2.97478e-09
0.000846349
-5.17386e-06
9.59372e-08
0.00121694
0.00150004
-1.12774e-08
2.79223e-10
-3.83565e-09
-2.77941e-08
0.000899199
-0.00125013
3.29723e-08
6.05729e-09
1.03226e-07
4.12413e-08
0.0010019
3.82275e-09
-4.14678e-05
3.38638e-08
2.09103e-10
0.000805726
-6.42944e-09
-3.24015e-08
-4.6607e-08
-2.03577e-08
-1.39887e-08
-0.00148273
-2.30646e-07
-0.00109779
-3.50758e-09
4.92499e-08
-8.9017e-10
-0.00145371
-9.40819e-10
1.51696e-10
-0.000230686
-1.19392e-09
-4.04292e-08
0.000109207
2.64441e-09
0.00160797
-1.1377e-06
4.59515e-09
-7.84514e-08
5.85158e-06
-3.2817e-08
0.00029491
-8.88015e-08
-8.88069e-09
8.6743e-07
-0.00111103
9.30741e-09
-0.00150615
6.08369e-10
-3.24197e-10
-0.00114379
-0.00147921
-1.09952e-08
1.40228e-06
2.13127e-09
5.96044e-09
3.503e-07
-6.24812e-08
0.00130486
-1.71464e-07
-1.08441e-07
0.000230913
1.28351e-07
-1.91415e-09
-3.58695e-08
-0.000214744
-0.00142533
-9.28261e-05
-3.15443e-08
-1.01238e-10
3.50953e-06
1.45019e-09
-0.000227535
-7.60067e-08
-2.25939e-08
5.77292e-08
-2.61389e-09
-2.8659e-08
-1.75067e-06
-0.00108968
1.59827e-08
-3.41381e-08
-9.3402e-09
1.67902e-08
-1.14005e-08
0.000790757
6.35326e-09
-5.24512e-08
1.9978e-06
9.89797e-08
-2.16843e-05
2.81822e-09
1.89236e-09
-2.09626e-06
-0.00104003
5.39842e-08
-8.68526e-08
-0.00047538
-0.000983781
2.44069e-08
-6.15467e-08
-6.82939e-10
-0.00135584
-0.000412717
6.65383e-08
0.000310159
-0.00142209
0.000525316
-4.87982e-10
7.29111e-07
9.2298e-09
6.67027e-06
-0.000906219
8.19922e-08
-0.00142688
-2.81496e-08
-2.11071e-10
-7.95863e-10
4.59706e-08
7.20374e-10
-0.00117693
-1.09272e-08
1.547e-09
-8.00394e-08
0.000964488
3.38084e-08
0.000195122
-0.000973105
0.00134145
0.00127119
0.000209022
2.38078e-09
-8.55277e-08
-1.49179e-09
-0.000619466
-1.24974e-09
-4.93258e-07
2.90678e-08
7.16072e-09
1.98335e-08
-3.48938e-08
-1.98447e-08
-1.18279e-07
-3.04378e-07
7.41554e-08
5.6539e-10
-4.15232e-08
1.44247e-09
-7.36524e-07
2.21663e-08
1.93338e-09
-0.000544354
-0.00042914
3.01475e-07
1.6551e-08
1.8766e-09
-3.03594e-09
3.83692e-06
-1.36918e-08
6.55931e-09
2.75727e-10
5.89527e-08
1.50038e-08
-0.000282019
-2.65504e-05
6.27425e-09
2.84468e-09
9.64416e-09
-0.00111915
3.52237e-09
0.00130707
6.70148e-09
0.000753107
-1.91045e-08
-3.19488e-08
3.55021e-09
-0.00412044
-8.39366e-08
-0.00234032
-0.000432771
-6.39249e-07
1.29996e-07
-0.000150767
1.99789e-08
1.24739e-05
-0.000166811
-0.00148065
2.95581e-08
-0.000707724
-8.73213e-09
-5.09035e-08
0.000753848
-1.61157e-08
1.54467e-09
-2.18456e-07
3.7609e-08
-0.00227364
-3.14899e-08
2.04753e-08
-0.000322158
7.57282e-09
0.00029739
-0.00104124
-0.00152199
5.72216e-09
0.00197854
0.00058656
4.15785e-07
2.78386e-08
-1.35405e-07
0.00170804
-5.20967e-08
-1.19801e-08
2.20728e-08
1.09344e-08
6.4442e-09
-2.70766e-08
-2.38082e-09
0.000931859
0.00065083
6.48066e-08
-5.94624e-07
-2.74223e-05
9.99168e-09
-6.30759e-09
-0.000230202
-1.72718e-08
-3.44275e-07
-2.53217e-08
-2.67441e-06
-2.03013e-07
0.000196988
-2.68613e-05
-2.99134e-09
-4.41442e-08
1.37774e-07
-0.0011292
-0.000659307
-4.32268e-07
-1.14418e-07
-3.9054e-08
-1.04261e-05
0.00108542
5.32702e-08
-3.43016e-08
-0.00139431
1.20613e-08
1.20833e-07
-0.00038022
0.00153618
-3.52435e-08
1.60842e-10
-0.0010831
1.17713e-06
-2.43843e-08
-0.000942819
9.90265e-09
-0.00124242
-1.98324e-07
-2.10515e-08
1.05416e-08
1.99811e-05
-1.8055e-07
4.38589e-08
-1.49347e-08
-0.00115428
-0.00014376
-3.31429e-09
-2.46778e-08
-0.00128362
4.93984e-08
5.43174e-08
-1.4395e-11
3.31027e-08
0.000533315
-1.03159e-07
4.18248e-08
1.84566e-09
4.55321e-07
6.95489e-06
-1.06794e-08
9.09563e-10
1.2979e-05
-6.21937e-07
-4.20397e-08
2.94453e-08
-2.06979e-08
-1.00714e-07
-2.1082e-09
2.52401e-09
1.39639e-08
-2.85003e-07
-0.000389599
1.75503e-08
7.65225e-09
0.000427994
-2.09196e-09
-4.07685e-08
2.62546e-05
-1.57609e-08
1.21154e-05
0.0011365
1.00519e-08
-0.00142542
2.15362e-08
-5.93686e-09
-1.55262e-08
-3.44374e-09
-0.00135707
-1.74676e-08
-6.63653e-08
-0.000282821
-0.000364832
0.000671191
-0.000154895
-3.40363e-06
2.15602e-08
-0.000750146
-7.09865e-08
-1.22911e-08
3.80439e-08
6.84133e-06
5.85844e-09
-7.92197e-08
3.43676e-09
1.90109e-08
-0.000584729
-0.000320716
5.84866e-05
3.0329e-10
0.00140933
-5.99587e-08
-5.84225e-09
-1.65524e-07
-1.90529e-08
-1.87963e-08
1.71847e-06
-3.52873e-08
-7.18919e-05
-1.59344e-08
-1.51604e-08
1.20076e-08
9.33239e-09
-1.77214e-07
-1.13444e-09
-4.59057e-10
-1.54786e-08
-3.91871e-07
2.64004e-09
6.67406e-08
5.69017e-08
-2.05383e-07
1.07156e-09
-3.53862e-08
1.57057e-08
5.58418e-05
-5.36418e-05
-0.00268896
4.65579e-09
-3.21797e-08
4.51442e-08
-5.3991e-08
1.30661e-10
-3.54269e-08
-0.00110138
-1.66929e-05
-2.80108e-08
-4.1771e-05
3.89927e-08
-8.60395e-11
0.000104901
1.17014e-09
0.000188981
9.75689e-05
-3.4324e-08
-1.68032e-09
4.17215e-09
-3.86546e-08
-0.00147514
-0.00241841
0.00135923
1.87966e-09
1.38241e-08
0.00123303
-1.15777e-09
-2.39724e-08
-0.00361996
3.52043e-09
-2.2166e-09
4.66372e-08
4.40022e-09
-8.07286e-07
-0.00010477
4.63856e-08
0.0010381
-6.60345e-08
-0.000980275
-3.50254e-08
-0.00063567
1.50367e-08
-0.00121515
-0.00139629
2.94422e-08
0.00168604
-1.08985e-09
-2.29601e-07
-9.5062e-09
3.47138e-08
0.00188127
0.00161566
4.08025e-08
2.51649e-08
-1.53164e-08
-1.30379e-06
0.0025259
-1.91204e-08
-3.50237e-05
3.46915e-08
-4.43282e-07
0.000215283
0.000150187
9.82642e-07
2.11485e-09
-8.83859e-09
-3.39487e-05
-3.45511e-08
-4.81844e-07
1.1996e-09
1.17553e-09
-0.000489391
-2.90854e-08
3.60853e-08
3.67135e-09
-8.80506e-08
-4.66686e-09
0.00109206
0.00122833
-2.53105e-08
-8.86453e-06
-4.16414e-08
-6.4605e-08
-7.84389e-09
5.1656e-08
2.36609e-08
-3.77543e-08
8.2474e-08
4.87455e-08
-3.87562e-09
-2.92978e-08
0.000534516
6.86828e-09
4.701e-10
-2.41368e-08
-3.70481e-08
-3.80009e-10
-9.70059e-09
-1.05065e-06
1.15354e-06
-0.00130802
4.58939e-10
3.02817e-08
-6.82743e-05
1.05001e-07
-1.53112e-05
1.68751e-08
0.000891024
1.59799e-07
2.9839e-08
-0.00119265
-2.52902e-09
1.66232e-08
1.62161e-06
-1.33637e-06
9.50337e-09
7.31431e-08
2.50492e-08
-0.00072292
-4.06755e-08
-0.00135244
-9.15739e-09
-7.02436e-08
1.85557e-10
-4.0589e-08
0.000444724
-6.73724e-09
-7.5715e-09
-4.28538e-08
0.00134322
-0.000148633
-0.00137606
-7.70985e-09
0.00119617
4.79059e-09
0.000846068
-0.00118633
2.36665e-08
-0.000870879
-1.10588e-08
1.0009e-07
-2.84929e-08
8.13464e-09
-6.61723e-09
5.72839e-06
6.77625e-09
8.82807e-07
1.85733e-09
3.20378e-08
-0.00107449
-2.87313e-08
2.21807e-12
6.21246e-06
4.08669e-08
2.62822e-08
1.29187e-09
0.000868764
3.87906e-10
9.23763e-09
-3.24884e-08
2.86171e-08
1.15585e-07
0.000649693
3.85187e-08
-0.000407258
0.00115767
-0.00108145
-1.19348e-07
-9.38717e-05
9.73395e-07
7.59883e-07
-4.14776e-08
-3.82944e-08
9.66381e-05
-7.30766e-09
2.66676e-08
-1.89494e-08
0.000662296
-0.00110743
-0.00108854
1.51245e-10
-3.558e-08
2.18465e-08
5.13906e-08
-7.43262e-08
-4.26726e-05
-1.5485e-07
1.02131e-06
1.50579e-07
-1.71071e-10
4.67523e-08
-7.20893e-10
-3.90615e-05
5.58004e-08
-0.00108399
-3.00404e-09
8.68177e-08
-2.44641e-06
-2.23685e-09
-1.30338e-06
4.81668e-08
-3.39925e-07
0.00159536
1.48244e-07
-0.00140499
-1.58875e-07
-4.7007e-09
2.12643e-08
-3.21896e-08
6.35903e-08
-2.6413e-08
4.59298e-08
4.01969e-08
2.98092e-08
6.3727e-06
-1.5864e-10
-1.12751e-08
0.0016417
-1.29307e-09
4.98913e-09
-1.89208e-08
-0.00135909
7.43125e-06
2.67717e-08
-0.000235434
6.98361e-07
0.0017496
1.1149e-08
-1.84294e-08
2.42558e-07
-0.000675349
0.000474358
4.95026e-08
-1.82244e-08
-2.61585e-08
-6.63118e-10
0.000782791
5.43922e-06
-7.1549e-08
0.000569222
-0.000302521
-3.32995e-09
0.000135943
-0.00240137
-4.3488e-08
7.47884e-08
0.000988727
5.62734e-07
-4.79518e-09
-0.000201191
6.2426e-07
-0.0011695
-5.55394e-08
2.96364e-06
-0.000987567
-0.00111972
0.000366152
-9.9555e-09
2.16269e-09
0.000119948
2.38382e-07
-1.95061e-07
9.83356e-08
8.23819e-08
7.50172e-09
-5.98255e-10
-0.00107443
-2.56839e-07
5.65677e-08
0.000424394
4.33095e-09
-3.76514e-10
1.37018e-09
-0.000169678
-6.29301e-08
-1.02309e-07
1.32925e-08
-2.16398e-09
2.12504e-08
-7.55616e-08
-0.000383317
1.12734e-07
2.99661e-09
0.00115624
-5.88275e-10
-0.000980961
-1.72912e-08
5.59904e-08
-1.8982e-08
6.32835e-09
-1.38516e-06
4.58471e-08
-1.76032e-07
-6.49484e-08
6.42589e-09
-0.00113658
6.06769e-09
0.000698052
3.08135e-07
0.000506297
-1.28852e-07
-1.64518e-09
0.00103778
-0.000627726
-6.96425e-08
-6.63695e-09
1.3091e-09
-0.00135629
0.00157292
7.04603e-07
3.80615e-08
1.03547e-08
-8.33215e-08
1.78559e-07
-0.00101368
4.12402e-11
-2.09402e-06
-0.000463023
-0.000583709
-2.60634e-08
-6.69708e-06
-3.92227e-05
1.49544e-07
9.45987e-09
1.61221e-08
-0.0011822
-2.34861e-09
5.11831e-08
-1.05602e-07
-5.24549e-08
-4.46255e-08
6.24901e-09
0.00018332
-1.99043e-09
4.19812e-08
4.57163e-05
0.000637013
-8.3365e-07
1.74318e-08
9.16606e-08
-3.18942e-08
-0.000525355
1.98084e-09
-2.67654e-09
-4.22925e-10
-0.0010679
3.26892e-08
5.76881e-07
-1.97901e-09
0.00100524
0.000439305
-3.28455e-08
0.000128226
0.000751618
-5.78668e-08
-1.54507e-07
-0.000613884
-2.23873e-05
-4.34669e-05
-1.86055e-07
-0.00118789
6.04779e-08
-0.000644231
2.69025e-05
-0.000500638
3.77439e-08
-0.000119632
-1.37927e-07
-7.70044e-08
3.72746e-08
-1.1367e-08
-1.99156e-09
-1.4323e-07
-5.30641e-08
3.7061e-08
4.18992e-08
8.00891e-07
-0.000349002
6.77653e-09
9.95916e-09
3.51992e-10
1.98777e-08
4.17244e-08
-0.000126501
-2.24289e-07
-7.30244e-09
-2.45443e-08
-6.35589e-08
0.000274318
-6.19766e-09
7.3428e-07
0.00160717
7.80221e-09
-1.55384e-08
1.27447e-05
1.32622e-05
2.16665e-08
-0.00120095
-9.76238e-10
1.85435e-08
2.36675e-09
1.61173e-09
0.0013785
-1.51883e-07
2.50747e-08
-6.04949e-08
1.13679e-10
3.25608e-08
-9.71841e-11
2.68586e-08
-5.54829e-10
-2.65049e-08
2.87116e-06
-1.32046e-10
-9.59264e-08
1.66486e-08
-1.57317e-08
3.35242e-10
1.76462e-08
3.14973e-08
-0.000752168
2.99373e-08
-4.67059e-07
-7.46416e-08
-2.63796e-06
-2.75889e-08
6.47234e-07
7.36143e-09
0.00118064
-1.31541e-07
5.14184e-10
1.67948e-08
3.14466e-05
-3.2193e-08
-5.0159e-08
5.99948e-06
1.22572e-05
0.000918745
0.000310948
2.37915e-08
-5.57536e-08
-0.00100567
-2.7853e-08
1.52153e-08
-0.000966823
1.33751e-07
4.02358e-09
-2.97689e-09
2.75455e-08
3.18643e-08
-1.25143e-08
1.87016e-09
5.8361e-08
-6.82305e-08
6.53327e-09
3.97337e-08
-1.90286e-08
-0.000266113
1.91318e-09
-3.53246e-08
-0.000607996
-0.000704006
1.92293e-07
-5.68204e-09
-1.6283e-09
0.00192649
-0.000910984
4.32197e-08
4.53567e-08
8.86193e-09
1.73157e-08
3.70894e-05
4.22183e-08
-8.75592e-08
-2.08439e-08
1.75447e-07
2.76322e-08
0.000861438
2.28859e-08
-1.17873e-09
0.00152883
-4.71083e-06
-3.40446e-08
0.000770112
6.66307e-06
9.11479e-07
1.95731e-09
6.08747e-07
1.04538e-06
-5.38931e-10
2.36363e-08
0.00166222
-2.19186e-08
-2.88008e-05
1.61356e-09
9.78453e-09
-1.96374e-10
-2.13638e-08
-5.3262e-09
-1.79291e-06
-2.56861e-07
-0.0011504
4.37782e-08
8.53043e-08
0.00163614
-3.736e-08
9.45584e-08
-2.65793e-05
1.78214e-07
0.000772497
-7.53099e-08
-1.71617e-08
-3.59151e-08
-4.54869e-09
-0.000778425
-8.40791e-08
5.3975e-08
0.00127289
-2.89337e-08
-0.00105746
-1.96609e-09
9.52001e-10
5.43763e-10
-3.90601e-09
-0.000405302
-0.000984685
-2.79998e-08
5.38748e-09
6.04493e-08
3.37566e-08
-3.5653e-09
-2.32855e-08
-7.05882e-09
4.19836e-08
-0.00118179
0.00198911
-1.2103e-05
-0.000595297
-0.00128754
4.73919e-08
3.56191e-08
-2.01438e-09
6.71945e-09
2.09984e-08
-5.50717e-08
1.25097e-07
-9.83527e-09
-2.85245e-08
-0.000927412
-7.16934e-08
9.64781e-09
-3.44594e-08
4.49764e-08
-1.0105e-06
1.01423e-08
-3.79777e-09
-0.0011747
3.7828e-08
3.96224e-08
2.82027e-10
9.7003e-10
-9.32599e-08
-2.40364e-09
6.79315e-08
-0.000558329
0.000559126
-1.76795e-09
-4.55364e-08
-0.000537416
2.86038e-05
-7.2122e-05
-1.21765e-07
8.03979e-08
-1.72605e-08
4.23333e-08
-6.89071e-10
-3.53256e-08
-1.31429e-05
-1.33283e-10
-6.50433e-09
9.44173e-08
-7.13775e-07
-0.000971875
0.00219352
9.3146e-08
-4.69544e-08
1.09133e-09
1.39563e-07
0.00107737
-4.11322e-05
-1.60009e-08
-4.50127e-06
4.63789e-08
-2.24274e-08
-0.00109888
-0.000598775
2.39253e-09
7.23689e-08
-6.53588e-10
-5.47748e-07
2.62424e-08
2.64578e-08
-1.23613e-09
4.3719e-08
3.97836e-05
4.73945e-08
0.00164167
-4.26896e-08
7.87233e-09
1.24194e-09
2.41454e-08
-0.000121746
0.000232269
-1.05467e-07
6.05658e-07
1.22558e-05
0.000655562
-5.47312e-08
-0.000889742
1.73162e-06
1.02151e-08
-5.99832e-08
-7.61132e-08
3.58414e-09
-6.07498e-10
1.6577e-09
-2.55285e-08
-0.000837159
-0.00144373
-0.00126856
-1.43366e-08
-1.16192e-08
-0.000734732
3.24027e-08
8.17117e-08
5.07408e-09
-6.19335e-10
-1.03775e-07
5.05898e-08
-1.02084e-08
-9.97038e-08
9.84305e-09
0.000687685
-5.91382e-08
1.02411e-07
1.053e-07
1.1525e-08
-2.10811e-05
1.03639e-07
2.57972e-08
-3.97493e-10
-7.34148e-09
-3.646e-07
-1.34231e-08
-4.49718e-07
-5.11977e-09
1.32418e-08
-0.00113769
8.42608e-08
1.37309e-08
-1.51358e-11
-0.000733079
-1.53954e-11
-1.26933e-06
0.000626887
1.56809e-08
-1.03678e-07
-3.67142e-08
6.8793e-07
1.1946e-07
0.000920956
9.4003e-06
1.03107e-05
-7.39063e-08
-0.000694306
1.14299e-06
0.00141706
-2.89652e-08
-8.02539e-08
-3.43839e-08
8.39504e-05
-2.25178e-06
1.29226e-09
-3.68489e-08
-5.36374e-10
-1.82653e-09
-0.00148304
-3.48859e-08
5.71961e-05
9.84108e-06
-2.36517e-09
7.3106e-06
-9.95059e-09
-4.258e-08
-0.00135769
4.36518e-08
-7.11707e-09
2.27639e-08
-0.000243521
1.57494e-08
8.93893e-09
-0.00079086
-4.0674e-09
1.13544e-06
1.96923e-05
1.59023e-05
-1.5918e-08
1.56824e-08
-5.85506e-09
5.01075e-09
-9.03334e-09
-1.24412e-08
-0.000736168
-2.44574e-08
2.67989e-09
1.1508e-05
-8.78697e-09
-0.000776037
4.64685e-09
4.80801e-10
7.13456e-09
3.11851e-09
-1.41235e-08
-0.000530205
-2.09242e-09
-2.8613e-09
2.21988e-09
0.000854788
0.000604695
-1.08658e-09
4.49724e-09
-4.48206e-09
0.00166706
2.44054e-07
-1.27794e-08
5.89924e-09
-0.000442428
-0.000617311
-2.64761e-05
-5.50804e-08
-6.76724e-08
-8.8529e-08
2.06179e-08
1.07806e-08
1.885e-09
7.20151e-05
-2.09043e-09
-6.95894e-07
-6.91411e-05
-5.3385e-08
1.24686e-09
-9.43636e-08
1.67346e-07
-2.20489e-08
-6.73605e-08
2.10422e-08
0.00136866
-4.22195e-07
-4.32447e-10
-0.000361241
-4.49572e-08
2.36616e-05
-1.6897e-08
-0.00143582
1.3949e-09
0.000587726
-1.20998e-05
-2.81358e-09
1.47394e-09
-0.00044364
3.04018e-09
0.000429458
-1.27545e-08
-1.13579e-09
0.000611612
4.51584e-09
-2.43339e-08
1.34004e-08
4.27687e-08
-0.000585432
-6.30127e-06
0.000545064
-3.09179e-08
-1.21967e-07
-5.31042e-08
-1.61763e-05
-0.000189846
0.0012304
0.00223379
1.27532e-07
-0.00186073
-5.94632e-08
3.68612e-08
2.78757e-09
3.17838e-06
3.58978e-10
-7.58843e-08
-7.89266e-05
-0.000696617
-9.49185e-08
2.62411e-08
3.66062e-08
7.67302e-08
-2.87536e-07
-2.10315e-10
-3.85757e-10
-9.24713e-09
-1.38895e-08
1.0921e-07
2.68884e-08
-0.00024013
4.16958e-09
6.51172e-08
-1.14313e-06
2.57272e-08
-7.76721e-08
-1.94084e-08
7.1251e-09
0.000333574
5.21763e-09
-0.000717742
0.00247374
-1.48591e-07
2.09767e-07
-1.96089e-05
1.03419e-08
-0.000757311
-0.000589857
-3.84508e-06
3.80838e-05
4.77638e-08
-5.34543e-07
0.00142628
-6.40035e-08
-8.53075e-10
-3.47821e-08
1.82855e-08
0.000271098
0.00129216
6.52815e-09
2.12745e-08
-3.52742e-08
1.45729e-09
1.81643e-09
-4.99073e-08
-0.000691002
4.8745e-09
1.56168e-09
7.00769e-05
7.30652e-09
1.4041e-07
5.83589e-06
-1.44863e-07
0.000471998
1.68643e-10
0.000833195
-3.73344e-08
0.000359285
0.00136455
0.000620281
-2.56635e-06
-1.09081e-07
-0.000874077
-1.89913e-08
-7.30277e-07
-0.000894853
-1.62544e-08
0.000236667
1.59935e-08
-9.13438e-05
-2.73846e-05
-1.94407e-08
5.1271e-05
3.2654e-05
-8.40753e-08
-0.000893313
1.92836e-08
2.86107e-09
-4.80505e-09
-0.00204749
2.50345e-08
-3.49387e-09
3.08185e-06
-6.59213e-08
-0.00062665
-8.54485e-07
6.6162e-05
1.64688e-07
-1.16754e-07
-3.66509e-07
6.5102e-09
-1.81979e-08
-9.26144e-08
1.2224e-05
-1.12094e-08
3.3942e-08
0.00188515
7.11174e-09
-2.00894e-06
-0.00123307
-3.95228e-08
3.46528e-05
1.59248e-07
-1.77698e-05
-1.6085e-09
1.51915e-09
-5.99749e-10
-0.00203918
3.28013e-11
-3.24035e-08
4.39481e-06
-0.000761805
1.42553e-07
-0.000424315
1.88854e-06
-9.01135e-07
-2.04835e-07
7.9152e-08
-5.50052e-08
-7.15753e-05
0.00118056
-5.03222e-08
-0.000735665
-5.04269e-10
-2.27496e-06
-0.000252863
-4.57997e-05
2.90044e-08
1.01927e-07
1.95121e-08
6.69796e-08
4.10036e-09
-0.000448656
4.68863e-08
3.08164e-09
-0.0001154
3.96244e-08
-1.28366e-08
5.90586e-09
1.90873e-08
2.17614e-08
2.85389e-06
-0.000970402
0.00102981
0.00146768
-1.08942e-07
3.53493e-08
1.69907e-08
-1.72845e-09
3.3489e-05
-8.74175e-09
8.20197e-08
1.2111e-08
1.62389e-08
3.40933e-08
1.47307e-09
3.83334e-09
5.48891e-08
-8.0298e-09
6.8652e-08
1.515e-06
0.00158227
-1.8425e-08
0.000218403
2.62506e-06
0.00023177
-1.99283e-07
0.000290617
-1.86642e-11
0.00176056
-1.07793e-07
0.000674873
-2.40634e-09
-1.62162e-09
2.28943e-11
-3.08976e-09
1.94513e-08
-1.77751e-09
0.00142386
9.56374e-08
-0.0020239
0.00119501
6.77824e-07
6.10057e-08
-0.000648305
-9.34417e-10
5.84169e-06
-3.3862e-07
-0.000232253
-1.382e-08
-3.99155e-09
-6.67331e-08
-2.12465e-06
2.01125e-08
3.27608e-07
-2.73358e-09
0.00028661
-1.3406e-10
-0.000136237
-0.000480916
1.06895e-07
4.5491e-06
0.00146282
-6.36702e-08
0.000166497
-1.26993e-07
-2.53448e-08
4.15334e-08
-1.99108e-07
2.55906e-09
-0.000600175
0.000447956
7.67562e-08
0.000130416
-2.59921e-07
1.64136e-08
-5.07617e-07
1.02603e-08
4.76102e-06
2.73257e-09
-0.00171451
3.51649e-08
7.72766e-08
2.05806e-09
-1.03273e-09
1.17951e-06
0.000407917
-0.00137921
-2.02123e-10
1.04124e-09
-0.000920816
-0.00496994
1.93086e-08
-0.00102138
8.58144e-08
0.0010407
0.00122145
-7.07514e-07
-0.00113625
-3.41045e-09
-6.95122e-08
-1.11173e-07
5.40697e-08
-0.00114246
0.00128338
9.71805e-08
-0.000842293
-2.51691e-10
-3.34192e-08
-0.000798927
2.6022e-09
3.75076e-08
8.49435e-08
3.84247e-05
-0.00140459
-1.26016e-07
9.2971e-08
-0.00085761
0.00180247
-4.74713e-08
-4.12863e-07
1.72593e-08
-9.408e-10
-1.49885e-07
1.26071e-07
1.19884e-07
-1.99275e-05
-9.08972e-08
-3.73227e-07
-6.9376e-08
-5.36583e-08
-6.73084e-06
-9.65819e-08
-8.71476e-08
-0.00132357
-2.06992e-06
2.44655e-06
1.20441e-08
8.46371e-07
-5.10989e-06
4.88677e-08
-5.49246e-08
-7.54877e-09
4.37949e-08
1.69341e-07
-3.45761e-08
4.97125e-06
-2.75271e-09
-1.72617e-08
-6.03823e-09
-0.00129612
-1.69814e-10
-2.80846e-08
1.65544e-07
-4.82259e-10
1.87291e-09
-3.18897e-06
1.26542e-07
0.000158028
8.17009e-08
-1.82564e-07
3.13071e-08
-0.000482981
-0.00112094
-1.85652e-09
-0.0012975
8.89023e-08
-4.19326e-08
-3.15771e-05
-1.97537e-08
0.000472281
-3.37253e-05
-1.63722e-08
-0.000279995
-9.84602e-08
-5.0701e-08
-2.13674e-09
-3.70927e-09
-1.06758e-08
4.22594e-08
-8.86539e-11
1.22403e-05
4.71108e-08
-0.00151676
2.47872e-09
7.41901e-05
-4.46588e-06
-1.2126e-06
-2.4609e-08
0.000174061
8.37412e-09
-0.00146605
0.00176215
-8.71627e-08
-0.00131554
-4.7775e-09
-0.000296972
-0.000267757
1.41337e-07
1.82584e-06
3.06461e-08
4.13954e-06
-3.30992e-08
-0.00095848
-6.87032e-09
-5.73169e-08
-0.00424409
-1.48532e-08
-2.89617e-09
-0.00119924
-6.27073e-10
7.31648e-09
-1.87527e-08
2.35421e-09
-6.55005e-07
-1.07595e-07
9.16041e-08
0.000212451
-4.78782e-08
-0.0012259
0.00139787
1.56298e-09
-0.000214125
1.13818e-08
1.77815e-05
0.000722678
-3.74685e-09
7.25685e-08
-0.00151472
-0.00110824
-0.00144459
0.00147034
6.36571e-09
8.1861e-09
7.23935e-09
-2.25118e-05
-1.46727e-08
1.87161e-05
-4.21538e-09
-5.89395e-08
1.33858e-08
-0.000850566
2.02644e-08
0.00166331
4.70732e-08
0.00116182
-1.8694e-08
-1.6668e-07
2.99037e-09
-7.1161e-08
1.91289e-09
-0.00110611
-5.37347e-08
-2.09949e-08
0.000236554
1.97899e-08
-4.44892e-08
-3.38641e-09
-8.80044e-08
0.00114701
0.000481349
-9.73572e-09
-0.000595539
-6.20325e-08
-7.82527e-09
5.46577e-08
-1.40206e-08
0.000567539
-0.00013856
-1.95672e-08
0.00176579
1.05319e-05
2.77146e-08
0.000284288
0.000968343
0.00119852
9.31154e-08
4.65241e-08
-1.1754e-07
-4.03837e-09
1.22426e-09
-0.000813197
0.00157685
3.71721e-08
-1.02841e-07
1.12961e-09
-4.91837e-07
-0.000937706
4.67331e-09
-0.000558885
0.000957925
4.61574e-08
-0.000419607
-4.80914e-10
0.000525149
5.59124e-08
-1.88962e-07
0.00157409
7.61322e-05
-7.36246e-09
0.000439471
4.65225e-09
0.000173911
-3.58784e-08
-4.47312e-08
2.19095e-05
-9.24668e-09
1.17526e-06
-0.000508572
2.51852e-06
4.92542e-09
-8.20954e-08
0.00119379
-0.000660237
1.62342e-07
8.32237e-08
1.31721e-05
-3.88427e-07
-1.52321e-07
-4.59304e-09
4.85798e-06
-8.82046e-07
7.68706e-09
-8.92573e-09
-2.97192e-06
0.000121678
4.29885e-08
1.38199e-06
-3.35718e-08
-3.04195e-08
-0.000228373
-2.73765e-09
1.18083e-07
-0.000641037
0.00127016
2.69889e-08
9.42745e-05
0.000313949
2.30404e-05
-2.07576e-08
-3.31226e-10
-9.15076e-08
-4.85922e-08
1.23146e-06
-1.33006e-08
-0.00142113
9.90829e-08
-7.45605e-09
-1.86402e-08
2.32747e-09
2.46885e-05
1.00465e-07
1.19839e-07
-0.000208644
-6.78518e-08
-1.47563e-08
0.000113803
3.22127e-09
-2.78048e-10
4.48174e-05
3.12238e-08
-0.000802785
3.56303e-08
-5.62914e-08
-7.64682e-09
1.12479e-08
3.39764e-07
1.9428e-09
-4.15695e-05
-1.04415e-06
-0.00126328
-8.6691e-10
-1.99951e-07
-0.00104433
-8.64177e-09
1.22608e-07
3.11155e-11
1.81804e-09
-6.88012e-08
-3.8381e-08
-1.55018e-08
0.000808562
-0.00029576
-0.000721608
-1.49763e-08
-2.52894e-08
-4.58277e-05
-1.45977e-08
-3.30438e-09
-3.77656e-08
4.5421e-08
-7.24602e-09
1.88661e-09
6.50868e-08
-3.79052e-08
-0.000781063
2.01186e-08
2.07865e-06
-1.69318e-07
-0.00128626
9.36284e-06
-0.000451381
-8.57429e-08
9.55262e-10
-1.27261e-08
0.00124658
2.89443e-08
-0.00093068
4.614e-07
-7.19109e-09
-3.98526e-08
-2.01734e-09
-1.18355e-08
9.67356e-09
5.05984e-05
0.000182484
-2.18915e-09
-0.0011397
8.3913e-09
-0.00149996
-1.25706e-08
0.000804655
0.000342961
1.30404e-07
2.65942e-09
5.53497e-08
0.00147835
8.14592e-09
1.14565e-08
-1.34352e-09
-2.8598e-08
-1.18386e-05
8.64399e-08
-0.000512765
-6.83194e-07
-3.51795e-09
-4.16585e-08
4.23499e-08
0.00137513
8.33844e-07
-2.19386e-08
-0.000598503
-9.6251e-08
-7.23416e-08
0.00019805
-2.72034e-08
-1.95486e-08
6.37421e-08
2.10215e-08
-2.6298e-06
-1.72169e-08
-0.000419345
-2.1713e-07
6.37496e-08
0.0010035
-0.000610187
3.9164e-08
-9.54403e-08
-3.31174e-08
-2.96735e-08
3.80732e-08
7.96259e-09
-0.000107918
2.67429e-05
3.7584e-08
5.82926e-08
4.36679e-09
-7.37706e-05
5.22822e-05
0.00180518
6.60677e-08
-0.00131848
-9.7224e-06
5.41664e-06
-4.52322e-11
-1.3254e-06
0.000977323
2.68028e-05
-1.5821e-07
-1.42421e-08
-3.4405e-07
1.518e-09
2.0215e-08
-8.95749e-08
0.00137846
-0.000165409
3.13985e-08
4.91095e-05
1.97735e-08
-1.30216e-08
-3.26875e-08
-4.47666e-08
8.17725e-10
-9.05505e-08
-0.00129161
1.97972e-08
1.16307e-07
1.46095e-08
-3.97117e-09
1.66472e-08
0.000458838
2.51377e-10
2.22347e-08
-1.02157e-08
9.60296e-08
5.936e-08
1.93131e-09
-2.25004e-09
-0.000658869
2.06491e-08
-2.27358e-08
-2.06946e-10
6.50055e-11
4.84472e-06
-4.23555e-08
-6.36556e-09
9.42528e-06
-8.44372e-08
-1.88646e-09
2.22331e-09
-0.000746182
8.05694e-06
-2.63816e-09
-0.00125771
-6.49234e-08
-4.23872e-06
-5.26167e-08
8.83864e-09
4.36557e-08
2.82794e-09
2.62986e-08
8.55068e-08
-0.000558773
7.85406e-06
8.36255e-09
-1.61291e-08
3.79446e-05
-8.10083e-08
1.14578e-07
-1.03517e-10
-2.53628e-07
-9.25138e-05
-3.42578e-08
-1.85274e-06
-6.78072e-08
-3.00853e-08
8.10938e-08
2.48477e-08
-1.44865e-05
2.3899e-09
-4.03504e-07
-0.00122107
4.26514e-05
-4.02697e-08
-6.72852e-09
-6.61912e-09
-4.42044e-09
7.20197e-09
8.67241e-09
4.92983e-09
0.000489642
-9.10497e-09
1.16185e-08
9.59532e-09
-1.46184e-09
-1.20536e-07
-0.00147178
-0.00115966
1.22081e-06
-0.00126797
-0.000246866
1.26399e-08
0.00154456
-1.74844e-09
7.41847e-08
-0.00121998
-0.00117402
-2.94572e-08
-0.00136309
-0.000561462
1.41258e-05
2.30466e-05
-3.43625e-05
3.10928e-08
-1.40224e-05
-5.2797e-09
1.87074e-06
7.40708e-06
-0.00063405
1.94281e-08
-6.987e-09
-0.000835362
-0.000260652
-2.10036e-08
-2.45392e-08
4.16942e-09
-5.69326e-08
1.39504e-07
-0.000229971
0.000987524
-4.32389e-07
-3.27752e-09
-0.000365397
2.46667e-09
-0.000717113
-2.8659e-07
0.000800964
2.28064e-08
9.90714e-06
3.5829e-08
9.77389e-05
1.5681e-08
1.39025e-09
4.53431e-10
3.29834e-07
-2.2568e-05
8.19837e-09
3.14521e-08
-5.3738e-08
-8.45925e-08
-1.10816e-08
-6.18006e-08
8.18393e-09
3.0252e-08
-0.000190177
-2.11421e-05
-8.48802e-05
1.05341e-06
1.0048e-07
-1.82952e-08
2.91153e-08
-8.90787e-07
2.14143e-10
1.02358e-05
7.45425e-09
1.15826e-07
5.59092e-09
-2.23965e-09
-0.000836191
-4.43929e-08
8.44451e-09
1.01651e-08
3.63701e-08
-5.01163e-09
-1.13452e-08
8.51722e-08
-4.27915e-10
-5.1392e-09
8.0948e-08
2.23977e-08
0.000326304
-0.00113464
-2.94417e-08
0.0012426
1.83365e-06
-2.62835e-09
-1.78847e-08
0.0014593
2.99274e-08
-0.00119101
-4.95887e-07
-9.75148e-05
1.26704e-07
0.000802529
-1.72954e-07
-5.26986e-07
-0.00131393
-5.32602e-09
0.000946578
3.88062e-09
-1.85292e-08
-1.84689e-08
-7.5891e-08
5.90773e-08
0.000429446
2.62408e-08
-1.50066e-07
0.000760039
1.86274e-08
2.3248e-09
1.38025e-07
-6.71397e-06
-2.22023e-08
7.24863e-08
-2.37184e-06
-4.04046e-05
-1.01274e-07
1.31247e-11
0.0012684
-7.70993e-08
-0.00129395
3.06073e-06
-7.04789e-07
5.54112e-08
-1.17605e-07
2.25112e-08
-2.43472e-08
-8.90408e-06
4.57063e-06
-4.11103e-09
3.23133e-08
0.000242289
-7.23217e-08
3.02861e-08
-5.62237e-09
-7.15559e-09
-3.86802e-09
2.76843e-06
-7.98474e-05
6.91947e-09
8.33174e-05
6.71084e-08
6.61035e-10
-0.000227984
-3.41046e-08
0.000981928
6.2713e-08
-0.00130451
6.39063e-09
-0.000569765
9.63944e-08
-8.65738e-08
-0.000422544
2.24847e-08
-9.74033e-05
-8.16775e-09
3.53007e-06
-0.000204705
5.31159e-08
-2.8514e-10
-0.00425483
3.06698e-08
6.59833e-08
-4.25233e-08
0.00243502
0.000826477
0.000937205
7.59745e-09
-4.11978e-05
-8.20872e-09
-2.92358e-08
-7.33295e-09
-9.43534e-09
-8.15523e-09
-1.03268e-07
0.00115267
3.21048e-08
3.27479e-08
-0.00136762
-0.00126153
4.5945e-09
2.42961e-08
2.54449e-09
2.55875e-05
-0.000576565
-4.62391e-08
0.00160193
0.00139556
-9.11431e-08
-7.37088e-08
6.05694e-09
2.13167e-09
-4.94336e-07
-0.00114864
5.02887e-08
-3.2745e-07
-2.62675e-07
1.64608e-06
2.19189e-08
6.4244e-09
-5.1064e-09
2.49593e-06
0.000409991
0.00117451
1.27821e-08
-1.66416e-09
-0.00130595
-1.43497e-08
-1.01315e-08
1.22262e-07
3.3686e-08
0.000865706
3.75801e-08
-0.00125319
6.11762e-08
-2.31692e-08
-0.00419335
5.6769e-08
2.96438e-10
-5.91838e-08
-3.91746e-08
4.22547e-08
2.279e-06
-0.00134468
-0.000969319
6.98129e-08
9.30201e-08
-0.00128077
-2.28285e-06
7.96063e-08
-3.00264e-08
0.00115223
2.10864e-07
-0.00136125
4.63526e-08
1.66576e-08
3.54848e-08
6.00365e-08
-0.000179179
0.000997928
-3.22076e-08
-0.000559214
9.53449e-05
-0.000839031
0.00145664
-1.95941e-08
-8.59756e-09
-5.58001e-08
-6.07675e-09
2.49346e-08
-1.50678e-09
-1.03366e-07
-0.00110632
0.00104104
1.33417e-07
-1.69326e-07
-1.55128e-07
-0.00126116
-2.14464e-07
-0.00124919
3.29058e-08
-2.27822e-08
2.68854e-06
-0.000308128
9.38709e-05
-1.95392e-07
-1.52793e-08
-2.43255e-08
-0.00121072
-1.57497e-07
-0.00131698
1.66311e-08
0.000134157
1.08828e-07
2.49497e-09
4.67951e-08
-2.08939e-08
1.01953e-08
-0.000751254
2.36054e-09
1.04786e-07
0.000115107
-0.000102044
1.40688e-07
8.93472e-10
-7.10801e-08
-0.000176367
4.88571e-09
1.10637e-07
0.000157095
1.29237e-08
0.000896827
-1.24796e-06
0.000753878
-0.000122386
-0.000969666
-3.81123e-09
-4.90704e-06
5.77317e-09
-0.00119942
-2.01812e-07
1.68263e-05
-0.000661285
0.00113131
-2.6325e-07
-0.00105026
-0.00143449
9.93198e-06
-0.00144225
4.15467e-08
-5.08772e-08
0.000566115
1.17827e-06
-7.03313e-08
-2.68526e-08
-7.00033e-08
-3.89006e-08
9.43285e-08
-2.76531e-07
-0.00119618
0.000632283
-1.24289e-08
6.87546e-08
-1.81851e-09
-4.65925e-10
3.96232e-09
4.74023e-09
3.20049e-08
3.5512e-08
-1.16335e-06
4.02264e-09
-4.16634e-07
2.44534e-09
-9.6002e-09
9.24855e-08
-6.2754e-08
0.00172994
-1.35969e-06
-0.00132811
1.65949e-08
-0.00128213
-0.000843141
-5.97361e-08
0.00100876
-7.06636e-06
0.000233235
-1.6984e-08
-0.00080736
-4.04094e-08
-7.36804e-08
-0.00104997
-2.60117e-08
-2.00828e-07
0.000243006
-3.23316e-09
0.00151412
9.38251e-08
-1.9927e-08
-2.04493e-07
1.45572e-08
5.17614e-05
-1.55089e-09
-3.59589e-08
0.00199489
-1.72917e-08
-0.00133685
-1.66615e-07
-0.00141656
-1.44208e-05
0.00116668
-7.83292e-06
-1.85885e-08
3.86856e-09
-2.64068e-08
-1.9086e-08
2.89066e-09
-1.49943e-07
-3.44313e-08
-0.000920675
-4.56647e-08
-9.76208e-08
-1.65618e-08
-2.54464e-08
9.16161e-08
-2.15397e-08
0.00171078
2.74431e-05
-2.34206e-08
9.31094e-08
0.00137738
3.53169e-08
-4.0058e-08
-1.49967e-07
-0.00147091
-0.000836672
0.00152816
9.97425e-09
1.36587e-08
1.66047e-08
-0.001166
-9.46723e-09
-0.000540629
-2.03675e-09
-2.67184e-07
-1.21097e-07
-5.98904e-08
3.57002e-09
-7.75714e-08
-1.62672e-06
3.17695e-08
1.60615e-08
3.45886e-08
-1.54233e-05
-0.00154689
-1.77787e-06