/*--------------------------------*- C++ -*----------------------------------*\
| =========                 |                                                 |
| \\      /  F ield         | OpenFOAM: The Open Source CFD Toolbox           |
|  \\    /   O peration     | Version:  v2012                                 |
|   \\  /    A nd           | Website:  www.openfoam.com                      |
|    \\/     M anipulation  |                                                 |
\*---------------------------------------------------------------------------*/
FoamFile
{
    version     2.0;
    format      ascii;
    class       volVectorField;
    location    "350";
    object      ddt0(U);
}
// * * * * * * * * * * * * * * * * * * * * * * * * * * * * * * * * * * * * * //

dimensions      [0 1 -2 0 0 0 0];


internalField   nonuniform List<vector> 
14033
(
(-0.00240096 -0.000537169 0)
(-0.00472737 -0.00135526 -5.10647e-22)
(2.66072e-06 3.52428e-07 0)
(-1.53069e-06 1.44628e-06 -1.16845e-22)
(8.18244e-06 -3.45672e-06 0)
(-4.65001e-07 3.35474e-07 -2.56535e-22)
(-0.000643014 -0.0049934 -6.57816e-22)
(-0.00133751 0.0006906 3.56494e-23)
(-1.42007e-06 1.31002e-06 2.48819e-22)
(-0.00105665 0.00309725 -7.19106e-22)
(-0.000447242 0.000473849 0)
(-4.92777e-05 -9.98112e-05 0)
(1.04156e-05 9.01343e-06 -1.24433e-22)
(1.08222e-05 7.65452e-06 -2.00203e-22)
(6.46713e-06 -2.98409e-06 -7.24159e-25)
(-4.51097e-05 -1.36763e-05 0)
(-4.29483e-06 3.74977e-06 7.57207e-23)
(-0.0051357 -0.000132098 0)
(-1.12641e-05 -1.11486e-05 0)
(-7.3695e-06 -2.20969e-07 -1.18733e-22)
(-3.13688e-05 -4.46924e-06 -7.79208e-23)
(-4.57001e-05 -9.61171e-05 -6.04242e-23)
(-0.000669576 0.000346342 1.96211e-22)
(8.35505e-06 -3.60613e-06 -2.9467e-24)
(-0.000276568 0.000666817 0)
(-1.19108e-05 -8.78701e-06 0)
(-0.00026558 -0.000152615 2.95885e-24)
(0.000101962 -0.000152614 1.06088e-22)
(0.000626617 -0.00302239 -5.51803e-23)
(0.00243269 -0.00132458 0)
(-5.17121e-07 2.31736e-05 8.44248e-23)
(-0.00107732 0.000708429 2.03142e-23)
(-3.08953e-05 -1.13157e-05 0)
(0.000162037 3.64704e-05 -1.2873e-22)
(-0.00948354 0.000368527 -2.95737e-22)
(-1.05729e-07 1.62046e-07 7.1553e-23)
(-0.00460831 -0.000310281 -1.0123e-22)
(-0.00171283 0.00265692 9.01461e-22)
(8.14719e-06 -4.43124e-06 2.25907e-22)
(5.65347e-08 5.40912e-06 -3.81459e-22)
(0.000393224 0.00266348 -8.31429e-22)
(-2.97319e-05 -4.63275e-06 1.17647e-22)
(1.7894e-05 -5.28984e-05 0)
(6.44094e-06 1.34692e-06 2.01153e-22)
(-8.63779e-05 -0.000373862 5.6334e-22)
(3.93208e-06 -5.74776e-05 0)
(0.00261194 0.000786161 4.78308e-23)
(-3.22954e-07 3.20012e-07 1.14907e-22)
(-0.000420393 -0.000581965 -5.62924e-23)
(-0.00212471 0.000878586 1.32992e-22)
(7.54567e-07 1.52698e-06 -2.13198e-22)
(-8.78599e-07 1.70102e-07 0)
(-0.000309865 0.00168658 -3.63115e-22)
(-0.00427542 -0.00264408 2.95519e-22)
(-4.65227e-06 3.52108e-06 -9.39455e-23)
(9.14354e-06 9.47798e-06 0)
(-0.00154773 -0.00301708 1.34544e-21)
(-0.00713811 0.00691791 1.71479e-22)
(0.000169021 3.38331e-05 1.28319e-22)
(3.05045e-07 2.14683e-05 8.38198e-23)
(0.000327487 0.000626461 8.99106e-25)
(-0.00316279 0.000427809 -3.58006e-22)
(-0.000127785 0.000313028 -7.00852e-23)
(1.97225e-05 -2.81538e-05 -6.65775e-23)
(1.53666e-08 2.87214e-07 0)
(-7.74216e-06 -6.95459e-07 -6.37558e-22)
(-0.00246784 -0.000251914 0)
(-0.00015005 -0.000258563 1.76124e-22)
(0.000172692 0.00026521 -5.27297e-22)
(3.46689e-06 4.32558e-06 1.34477e-22)
(-7.38868e-07 2.78438e-07 1.87622e-23)
(-6.04751e-07 -6.30521e-08 -2.58926e-26)
(0.00222861 0.000580441 -4.66589e-23)
(-5.60047e-06 -3.85361e-07 0)
(-2.47405e-05 -1.75314e-05 1.35305e-22)
(-4.82015e-07 5.82939e-06 2.66005e-22)
(-9.08962e-07 -3.69638e-07 5.86927e-23)
(3.45231e-06 1.61725e-06 3.20249e-22)
(-0.00152016 0.00665773 0)
(0.000782835 -0.00143738 7.75318e-23)
(-3.17533e-05 -0.000103112 -4.88614e-22)
(-0.00193792 0.00666062 -3.70826e-22)
(-0.000611873 0.00170703 -4.68199e-22)
(5.02254e-06 3.8599e-06 -1.32407e-22)
(2.3075e-06 7.43333e-07 0)
(-6.52561e-07 -5.30797e-08 -5.74648e-23)
(-5.76454e-05 -0.000127894 0)
(-0.00386366 -0.00285338 -1.90449e-22)
(0.00510031 0.00091536 -1.98453e-23)
(-7.06891e-06 -2.94509e-07 2.30291e-22)
(-1.38651e-06 -1.87131e-07 2.88274e-22)
(-5.05105e-06 -9.65269e-05 0)
(0.000271094 -0.000137286 0)
(-0.00437965 -0.000526153 -3.78955e-23)
(0.000256873 0.000220041 1.07104e-21)
(0.00360919 0.00293809 0)
(7.8546e-07 1.64187e-06 0)
(2.61129e-06 2.70851e-07 3.0368e-22)
(-0.00194466 0.000210752 0)
(-1.44551e-06 1.55558e-07 1.84751e-22)
(-7.62157e-06 -1.67526e-06 8.49618e-22)
(-4.5748e-07 2.43784e-07 -6.78354e-23)
(0.000256856 0.000134848 -3.2741e-22)
(-7.5553e-05 2.46844e-07 0)
(0.00304046 0.000728044 4.24007e-23)
(-0.000440018 -0.000237602 6.6484e-23)
(0.00597299 0.00106957 0)
(5.64452e-06 5.31696e-06 0)
(-0.000135314 -0.000244317 1.7557e-24)
(2.85171e-07 1.2844e-07 -1.84767e-22)
(0.00169732 0.000770074 0)
(5.19848e-07 4.1977e-09 0)
(2.30148e-06 6.03774e-07 -4.84206e-22)
(0.0013063 0.00377532 0)
(3.18499e-07 2.01424e-08 0)
(-9.17907e-07 -3.98317e-07 5.63642e-23)
(-5.17086e-05 -0.000548917 -3.43999e-22)
(7.23576e-06 -1.23432e-07 -1.89974e-22)
(-0.00751311 -0.000975341 1.26692e-21)
(1.35078e-05 -8.06472e-05 0)
(-1.41685e-06 -7.20104e-07 0)
(-0.000106897 -5.09635e-05 -3.46042e-23)
(8.66488e-05 0.000377244 8.40521e-23)
(-7.62134e-06 -0.000104677 -7.06779e-22)
(0.00188062 0.00132719 1.91854e-22)
(0.000222677 -0.000195612 0)
(-3.11823e-06 6.48113e-07 -4.57807e-22)
(0.00073516 0.0028794 3.80653e-22)
(4.52749e-05 -0.000117109 -1.58522e-22)
(-4.9438e-07 2.58113e-07 0)
(0.00188425 0.000584209 4.32734e-23)
(1.0372e-06 5.7636e-07 1.85703e-22)
(9.79839e-06 -1.77412e-06 2.4862e-24)
(0.000554283 0.00235166 -2.81046e-23)
(0.00215911 0.000754478 0)
(4.79868e-06 7.18434e-06 1.61983e-22)
(0.000102981 -0.000245497 -8.79938e-23)
(9.12743e-08 1.98576e-07 0)
(-5.90975e-07 8.99115e-08 -2.20784e-22)
(0.000194899 -0.000364508 -1.0406e-23)
(3.71848e-05 5.26686e-05 0)
(-0.00824882 -5.25647e-05 -2.98412e-22)
(-0.000202277 -0.000108359 4.30122e-23)
(-5.43539e-05 -7.61015e-06 0)
(-0.00268926 -0.00231414 -1.32112e-22)
(-0.000208194 -0.000323596 -1.1663e-21)
(-1.47643e-06 -6.80365e-07 -7.99012e-23)
(-0.000207432 1.06448e-05 0)
(-0.00436092 -2.94122e-05 4.14996e-22)
(0.00611479 0.00429463 6.65564e-23)
(0.00435493 0.00376004 8.6225e-22)
(3.41485e-05 4.77275e-05 -8.64582e-23)
(-6.46562e-07 2.13916e-07 -1.53414e-22)
(-0.000894896 0.00103392 1.31249e-22)
(-3.66992e-07 1.46495e-07 1.31472e-22)
(-0.00152298 -9.6627e-05 1.42601e-22)
(-0.000158814 6.46737e-05 3.20674e-23)
(7.88002e-06 4.26539e-06 3.99754e-22)
(-0.000116404 5.68635e-05 -1.36604e-22)
(7.10402e-06 -3.21281e-06 0)
(0.000191777 3.45251e-05 0)
(-0.000257095 -0.000188424 5.19188e-23)
(0.000582643 0.00256299 5.64188e-23)
(-4.45009e-06 1.14498e-06 0)
(-5.00076e-05 2.22708e-05 -4.43208e-23)
(-1.00308e-06 -1.34708e-07 0)
(3.4013e-05 3.50608e-05 -8.92537e-23)
(-6.15167e-05 -4.03714e-05 0)
(0.00442173 0.00241369 1.13627e-21)
(3.34645e-07 -8.13955e-06 -2.22165e-22)
(-4.74048e-05 -1.31464e-05 -5.80266e-24)
(0.000104346 -0.000275082 1.14891e-22)
(-5.59553e-05 -0.000101116 6.66314e-23)
(0.000773439 0.000170296 -1.79246e-23)
(1.94789e-07 6.26697e-06 -2.70156e-22)
(-3.01212e-08 -7.52692e-06 2.03736e-22)
(-0.000796022 -7.85487e-05 -4.28787e-23)
(0.000879521 -0.000172865 -1.79088e-23)
(-6.02682e-05 -9.66498e-05 0)
(-5.26449e-05 -1.04293e-05 8.228e-23)
(-0.000480607 0.00261771 3.3456e-24)
(0.000562646 -0.000161126 6.89821e-24)
(-4.20552e-06 1.85731e-05 -1.3676e-22)
(-8.80582e-05 6.02568e-05 5.79892e-22)
(2.44281e-07 1.74239e-07 -1.51117e-22)
(0.00476777 0.00100311 -8.69718e-24)
(-0.00369163 0.000608371 0)
(-7.78358e-07 -9.59387e-08 0)
(0.00473681 0.00169867 0)
(0.00379642 0.00106181 -1.33388e-23)
(-0.000802347 0.00119593 4.87754e-23)
(2.50371e-05 3.07462e-05 -1.68984e-22)
(-0.000642585 0.00100189 -9.14708e-23)
(-8.34941e-07 -2.51775e-07 -1.32884e-22)
(0.00291568 0.00231596 0)
(0.00106075 0.00528836 1.59485e-21)
(-0.000139689 0.000272763 0)
(0.000581286 -0.00020249 1.1195e-22)
(-1.31113e-06 8.96592e-07 -2.24687e-22)
(4.52743e-07 1.59644e-07 5.14176e-22)
(-3.90756e-05 2.62736e-06 -1.00678e-22)
(1.96905e-05 3.01362e-05 4.03376e-25)
(2.16101e-07 2.73368e-07 -3.85526e-22)
(-8.65008e-05 0.00281723 0)
(3.79405e-05 4.01994e-05 -9.42223e-23)
(1.49142e-07 2.05285e-07 2.95646e-22)
(-0.000106594 -4.42967e-05 -3.44318e-23)
(-0.00258043 -0.00319548 -1.40658e-21)
(-2.9122e-05 -6.49603e-06 -6.56603e-23)
(0.000339374 -0.00340989 0)
(-0.00057597 -7.19822e-05 3.12797e-22)
(-0.000911151 -0.00340875 0)
(-0.0052054 -0.00061586 0)
(0.000535259 0.00223018 0)
(9.17797e-06 -3.26373e-06 -3.11087e-23)
(0.000181931 8.89792e-06 1.25704e-23)
(-1.369e-06 9.92107e-08 3.70271e-22)
(0.00042163 0.00016476 5.104e-22)
(-2.15832e-07 1.16863e-07 3.8896e-22)
(0.000204788 8.30591e-05 5.1723e-23)
(-2.70655e-05 -6.63068e-06 -1.26919e-22)
(-3.92231e-05 -2.45874e-05 0)
(-2.11214e-05 -2.01765e-05 -4.57627e-22)
(-2.62544e-05 -0.000103659 4.29326e-23)
(-8.02595e-07 -2.56772e-08 -2.01201e-22)
(0.000540041 -3.2676e-05 0)
(-0.000566356 0.000339017 3.55286e-23)
(1.25511e-05 3.3774e-05 1.63502e-22)
(-1.40601e-06 5.28566e-07 2.28805e-22)
(-0.000168271 9.24997e-05 -1.69679e-22)
(2.52627e-07 3.96996e-07 -4.10347e-22)
(-0.000363261 -0.000210482 -7.33026e-23)
(-8.99905e-07 -3.4094e-07 0)
(6.0314e-06 6.88277e-07 -1.08652e-22)
(0.000618347 -0.000770489 -1.26303e-21)
(-0.00389564 0.000631231 1.27149e-22)
(-0.000318313 -0.000522548 -3.1638e-23)
(-0.00012057 1.4276e-05 1.96118e-22)
(-1.0237e-06 -4.95456e-07 6.80051e-23)
(-3.37478e-06 -2.69124e-06 -1.12766e-23)
(0.000111718 0.00043619 4.45374e-23)
(5.67117e-06 5.70952e-06 -3.43383e-22)
(-1.66946e-06 3.85945e-08 -2.11607e-22)
(9.02376e-07 6.21759e-07 -1.98725e-22)
(1.71884e-05 3.46517e-05 0)
(-0.000118517 3.94034e-05 -1.00533e-21)
(0.00460866 -0.000316035 2.86434e-22)
(0.00118711 2.91714e-05 4.85937e-23)
(-6.18942e-05 -6.8761e-05 -2.73943e-22)
(-0.000127271 0.00036266 1.03992e-21)
(-7.17943e-07 1.08811e-07 1.35278e-22)
(-0.000430667 -0.000110713 -1.45999e-23)
(-7.78345e-05 0.000132457 1.04572e-21)
(-0.00621303 -0.000590674 3.66811e-22)
(-1.4034e-06 -1.03977e-07 -2.49372e-22)
(-0.00257893 0.0083623 -9.26521e-23)
(-4.02337e-06 -2.96686e-06 -3.05205e-22)
(1.19002e-06 -1.42158e-05 0)
(-1.58652e-05 0.000147291 0)
(0.0156811 0.00146397 0)
(5.92018e-06 -2.22025e-07 2.09233e-23)
(-0.00166057 0.00111988 0)
(0.005154 0.00675158 -2.40935e-23)
(0.000235919 0.000109223 4.90062e-23)
(-1.04864e-05 1.51438e-05 -5.56687e-23)
(-0.000405791 0.000274533 8.6639e-22)
(-8.50152e-07 -3.46773e-07 -2.56321e-23)
(0.000793777 -0.00115616 0)
(-0.000722097 0.00092381 -6.42316e-22)
(0.000768657 -0.000202823 -1.21081e-22)
(-5.62892e-06 -3.78063e-07 7.48271e-23)
(-0.00294994 0.00120936 2.13585e-22)
(6.67764e-06 1.35238e-06 0)
(-8.45464e-05 0.000131826 5.27994e-25)
(0.00583704 0.00089751 1.04924e-23)
(-1.11197e-06 -6.19087e-07 0)
(2.04445e-07 3.26539e-07 4.47981e-22)
(0.000106975 -0.000185384 -2.76777e-22)
(-7.83553e-05 -5.89053e-05 -1.20935e-22)
(0.0111766 0.0011973 0)
(-0.000598002 -0.000216956 -3.37603e-23)
(-4.29948e-06 -2.48237e-08 -1.62986e-22)
(-0.00211822 0.00254842 6.91787e-22)
(-3.51617e-05 -1.3854e-05 0)
(0.00562888 0.00068385 8.60395e-22)
(0.00531199 0.00487771 0)
(0.00254229 0.00058489 -1.6879e-22)
(-4.67373e-05 0.000162928 0)
(-0.00625734 0.00766021 0)
(-0.00217104 0.00138549 -1.79686e-23)
(0.000282662 -0.00030041 -1.65925e-22)
(-7.21617e-05 -9.47033e-05 -1.69697e-22)
(-0.000192928 -0.000100836 1.35159e-22)
(-0.0102716 -0.000626412 2.18676e-23)
(3.84671e-07 -6.1033e-06 0)
(-8.50931e-05 3.60005e-05 6.31515e-22)
(-4.37782e-05 -6.28131e-06 0)
(-1.19029e-06 -1.54175e-07 2.43467e-22)
(-5.72145e-05 3.68376e-05 0)
(-0.000102156 6.76591e-05 0)
(-4.27028e-05 -9.73434e-06 0)
(-0.00573917 -0.00205282 0)
(-0.00101346 0.00698241 0)
(-8.22092e-06 8.29368e-07 0)
(0.000387392 -0.000223178 -7.2931e-23)
(-0.00286298 0.000240281 -2.15565e-22)
(-1.50233e-06 -2.89791e-08 0)
(-4.20883e-05 4.10575e-05 0)
(0.00494501 -0.000445933 -1.94771e-22)
(-2.13738e-06 2.9828e-06 -1.58625e-22)
(4.70291e-05 -0.000260796 -1.06749e-22)
(-4.31979e-06 -2.31952e-06 1.4764e-22)
(-0.000841307 -0.000488245 -7.18997e-23)
(-0.000199875 -0.00012262 1.57896e-23)
(-0.000919444 -0.00369768 -1.07042e-22)
(-0.00289725 0.00066186 0)
(-1.4182e-06 -1.80066e-07 -3.39693e-22)
(6.2332e-05 -0.000114873 3.55483e-22)
(2.11681e-06 0.000166858 -4.58496e-22)
(-0.000256709 -0.000164709 0)
(-0.00541546 0.000318356 1.48307e-21)
(-0.00029164 -0.000225261 -1.4632e-22)
(2.46693e-05 8.10456e-06 -2.36958e-22)
(0.000109808 0.000595304 1.05e-21)
(-0.000200907 0.0048863 0)
(-0.00198991 -0.0025578 0)
(-8.61356e-06 7.35854e-07 -8.81786e-23)
(0.000303131 6.05642e-05 -6.53066e-22)
(0.0043717 0.00117452 1.8102e-23)
(-0.000226131 0.000198968 0)
(-2.62569e-05 0.000153893 2.73748e-22)
(0.00350923 -0.00360504 -5.02203e-22)
(0.000637266 0.000438472 5.34086e-22)
(-4.87896e-05 1.88755e-05 1.39756e-23)
(8.88243e-06 -5.01928e-07 -3.69705e-23)
(9.28557e-05 0.00233348 -1.87884e-23)
(0.000118499 -0.000228085 1.24199e-22)
(-8.91294e-05 8.62449e-05 -9.81975e-23)
(-0.00162574 0.0014712 0)
(-4.99004e-06 1.82888e-06 2.34187e-22)
(3.50493e-05 -0.000111197 2.39931e-22)
(-0.000285471 -8.02941e-05 -5.93689e-23)
(-5.02128e-06 -2.01618e-06 0)
(-4.60071e-06 1.76226e-06 -2.17689e-22)
(0.0040971 -0.00175274 4.63753e-22)
(-0.000162189 0.000598483 3.51235e-22)
(-5.69009e-05 -5.22308e-05 -1.55563e-22)
(-4.5271e-07 1.27296e-07 7.36285e-23)
(0.000278816 0.00304362 0)
(-0.000679573 -0.00507503 4.01381e-22)
(-3.39623e-05 1.26778e-05 0)
(2.13118e-06 1.51136e-06 0)
(0.00487957 0.000825513 -4.51672e-24)
(-0.000247004 0.00023072 -1.22472e-22)
(-2.60361e-05 7.06436e-06 1.44983e-22)
(8.81037e-06 -3.94797e-06 0)
(-1.52652e-06 -5.3817e-08 0)
(-0.00240519 0.000582942 0)
(0.000487941 9.29674e-05 -3.06112e-22)
(-0.000114423 -2.4109e-06 1.54891e-22)
(-2.93488e-05 4.38219e-06 0)
(-0.00229046 0.000414734 -8.0819e-22)
(0.000108245 0.000406036 3.79127e-23)
(-0.000298057 -0.000152829 -1.12805e-22)
(-7.9643e-07 1.00269e-08 1.13884e-22)
(-0.00113267 -0.000232228 4.54759e-22)
(-0.00199434 0.000692227 4.92535e-22)
(-1.46257e-05 0.000107943 0)
(-1.60591e-06 8.1255e-06 0)
(-4.74291e-05 -1.3477e-06 0)
(0.000438335 -0.000240495 4.02906e-22)
(-3.3193e-05 3.28163e-06 -6.05113e-22)
(1.23101e-06 5.49275e-08 3.59484e-22)
(-3.36179e-07 4.76758e-07 0)
(1.6323e-05 -0.000260282 1.06216e-22)
(0.00455532 -0.00358309 5.18404e-22)
(-3.64018e-06 7.98193e-06 -1.21157e-22)
(-1.18552e-05 -5.52056e-06 0)
(-0.00352937 0.000658656 -4.02768e-22)
(7.52433e-06 2.34777e-06 -1.01421e-22)
(-0.000163794 0.000200669 0)
(-0.00117929 0.002648 -9.04649e-22)
(2.41185e-06 -1.32466e-05 1.33689e-22)
(0.00423332 -0.00126919 -3.63291e-22)
(-0.00126278 -0.00280612 -1.99314e-22)
(-1.83523e-06 -1.32838e-06 -3.58071e-23)
(0.00244571 0.00109833 0)
(-9.1474e-05 7.63037e-06 7.3427e-22)
(-3.81252e-05 -1.42053e-05 3.45181e-23)
(-7.83095e-05 -0.000190355 7.95271e-23)
(-5.05215e-05 2.38011e-05 -5.06958e-22)
(0.000402985 -0.000142599 0)
(-1.21625e-05 -3.17936e-06 -9.74685e-23)
(0.000198142 -3.16606e-05 -4.0947e-22)
(0.00528403 0.00640692 0)
(0.00227989 -0.00562351 0)
(0.000598944 -0.00226092 1.0431e-22)
(0.00100388 -0.000217682 7.30943e-23)
(-0.00111212 0.000652362 1.63897e-22)
(-9.60746e-07 -4.01164e-07 0)
(0.00021848 0.00762011 0)
(1.80123e-06 -1.62933e-05 0)
(-4.2158e-06 1.39105e-06 -5.0235e-22)
(0.000238045 0.000216021 3.57766e-22)
(-0.000881425 0.00204128 9.33888e-22)
(-7.57049e-07 3.3174e-08 1.13015e-22)
(-3.10069e-05 -0.000171076 4.78454e-23)
(7.69017e-06 -4.10104e-06 -2.08055e-22)
(4.13849e-06 -1.36319e-05 -3.87956e-22)
(0.00611139 0.00215253 2.21876e-24)
(-0.002025 6.70592e-05 -2.63637e-24)
(-0.000459415 0.000216384 1.44718e-22)
(5.29202e-07 -1.12022e-09 6.9776e-22)
(-0.00691112 0.00744998 7.46296e-23)
(0.000426694 -0.000118734 0)
(7.24615e-06 -4.50863e-07 -1.40394e-22)
(-0.00087985 0.000617719 -7.96403e-22)
(-1.6825e-06 -2.90932e-07 -2.21964e-23)
(6.01053e-07 -6.63206e-06 0)
(6.93132e-05 0.00041922 -1.72397e-22)
(5.2453e-05 6.04853e-05 9.55233e-23)
(-0.00352272 0.00227174 0)
(-8.67601e-05 -3.49001e-05 -5.43147e-23)
(-6.11142e-07 -1.0534e-07 0)
(-1.64175e-06 2.21187e-08 1.75667e-22)
(-9.36579e-07 -3.36995e-07 0)
(-4.87157e-06 -0.00019727 5.33643e-23)
(6.62237e-06 -2.83974e-06 6.18214e-24)
(-6.77775e-05 0.000161923 0)
(-3.24959e-05 -0.000127324 0)
(-0.000352544 0.00115989 6.66415e-23)
(-9.84297e-08 4.87663e-06 -6.99152e-23)
(1.17527e-05 2.38982e-05 -1.50961e-22)
(1.09842e-06 -7.41888e-07 -4.94807e-23)
(-0.000649316 0.000701962 6.97196e-22)
(-1.92585e-05 6.8953e-06 0)
(3.49064e-06 1.16026e-05 1.48211e-22)
(-6.77445e-07 -5.35048e-08 0)
(0.000276656 -0.00157332 -2.39654e-22)
(-0.00134372 -0.00198007 4.94988e-22)
(0.0111053 -0.000950419 -3.30597e-22)
(-8.99604e-05 -1.38917e-05 8.56427e-22)
(2.04305e-06 1.18468e-06 0)
(4.96856e-06 3.8867e-07 0)
(-0.000364285 -0.000189068 -1.49465e-22)
(-9.2044e-07 2.45848e-07 2.74012e-22)
(-5.46462e-05 -5.00108e-05 5.36485e-23)
(0.00188775 0.00284846 0)
(-0.0014346 -0.000888811 5.01606e-22)
(-1.4608e-06 5.21007e-06 1.48579e-22)
(0.00437696 -0.000424288 0)
(0.000155156 -0.000225126 -7.6004e-22)
(4.32743e-07 1.35463e-07 -2.17145e-22)
(-0.00815069 -0.000629873 1.97678e-21)
(1.0114e-06 5.75877e-08 3.41364e-22)
(0.00172223 0.000538604 0)
(-0.00996995 -0.00281726 -1.02589e-21)
(-2.23536e-06 -2.09012e-06 1.83156e-22)
(5.90858e-06 -2.99295e-06 0)
(-9.14744e-05 4.16201e-05 1.8627e-22)
(4.66552e-07 5.82656e-06 3.02398e-22)
(0.00158747 0.000603538 -2.86976e-23)
(0.0113023 0.00126251 0)
(0.000946621 -0.00317848 8.32531e-22)
(7.656e-06 2.07669e-06 2.96303e-22)
(-1.8856e-06 -1.13228e-06 0)
(-0.00687316 -0.000787134 5.40209e-22)
(-9.47024e-07 1.41189e-07 -8.67498e-23)
(-0.000112328 0.000137973 -9.47109e-22)
(0.0147545 0.00171475 0)
(4.26919e-06 1.18652e-05 0)
(-6.59291e-05 0.000176025 1.51362e-22)
(9.29588e-06 -4.11045e-06 -3.46475e-22)
(-7.18708e-07 -4.14143e-07 4.81249e-23)
(-0.000589691 0.000467025 0)
(0.000942432 -0.000282818 0)
(-0.000115571 -5.41086e-05 0)
(0.00177866 -0.00268679 -1.14368e-21)
(0.000181543 -5.1065e-05 -2.41831e-24)
(0.00282166 -0.000305351 0)
(5.67348e-05 -6.49142e-05 9.54841e-23)
(0.00575785 -0.000274788 -5.52722e-23)
(-7.91575e-07 -3.96116e-07 0)
(0.00115225 0.00490719 -1.71962e-21)
(0.00408195 0.000947419 -9.87457e-24)
(2.23925e-05 -1.53407e-05 3.12184e-22)
(0.000411884 0.00210108 -7.14352e-23)
(-1.38489e-07 2.62236e-07 -8.09565e-22)
(-0.000152229 -0.000223382 -4.44051e-23)
(-4.75462e-06 1.6111e-06 1.13466e-22)
(-2.26881e-06 8.2701e-07 -3.09074e-22)
(0.00134546 0.00226043 1.03922e-21)
(0.00353133 -0.00121685 9.75024e-22)
(-6.77099e-05 -9.93674e-05 1.89603e-22)
(7.15671e-06 -5.43268e-06 -8.31847e-23)
(-3.96621e-06 7.38384e-06 0)
(0.000119667 -0.000195854 6.09974e-23)
(0.000612831 0.00242902 -7.48355e-22)
(-3.30907e-06 2.00208e-05 0)
(0.00141986 0.00535629 8.38086e-22)
(-1.62693e-06 -1.74109e-07 0)
(-0.000171484 0.00104938 -1.80382e-22)
(0.000945365 0.000866731 0)
(0.000417482 0.00206839 6.28563e-21)
(-0.00091313 0.00063622 0)
(-3.29034e-06 2.16126e-07 3.03566e-22)
(-1.37183e-06 1.18947e-07 1.11022e-22)
(-0.00188742 0.000252972 -7.66973e-22)
(-2.24538e-06 -1.99222e-06 0)
(-0.000348871 -0.000161754 -9.30409e-23)
(-2.24379e-06 9.04259e-07 0)
(-1.4969e-06 -7.94551e-09 4.06331e-22)
(0.0053762 -0.000436485 0)
(-0.000176111 5.3606e-05 1.76851e-21)
(-9.69285e-05 -7.23736e-05 2.48088e-22)
(5.57068e-06 8.91194e-06 0)
(-0.000223919 5.73941e-06 0)
(1.37427e-06 5.73407e-06 -2.70692e-22)
(0.00267294 0.00582806 1.0328e-22)
(0.00219905 -0.00616592 -1.06607e-22)
(-1.11548e-05 -4.3397e-06 5.81152e-22)
(0.00728457 0.00481246 0)
(-9.66084e-06 -2.55925e-06 -5.4278e-22)
(-1.85843e-07 -1.72373e-05 1.30305e-22)
(1.41355e-05 -7.98382e-05 0)
(-1.27227e-06 7.97525e-06 0)
(-7.03165e-06 4.91155e-06 0)
(-9.1234e-07 -4.45435e-07 0)
(-2.37567e-06 6.57844e-07 2.10575e-22)
(7.19216e-06 -1.07589e-05 0)
(3.22295e-05 2.42421e-05 0)
(-6.80657e-05 -0.000105124 6.94485e-23)
(-0.00219325 0.000627108 0)
(5.88461e-06 -3.92771e-06 -1.58464e-22)
(5.32391e-07 1.58911e-08 -6.60549e-22)
(1.23765e-05 -2.2878e-05 -4.41345e-23)
(8.44587e-06 -1.94234e-05 2.54227e-22)
(-8.69281e-07 -1.04531e-07 -2.67129e-22)
(-9.23988e-07 -1.57278e-07 -1.69614e-22)
(-0.000886099 -0.00017988 1.40516e-22)
(0.000323593 0.000142487 8.19096e-23)
(0.00988704 0.00148953 1.06369e-22)
(8.86041e-06 -2.93161e-07 0)
(1.15921e-05 -0.000113467 0)
(0.00655415 0.00393859 0)
(-1.17411e-05 1.41167e-05 0)
(0.00469459 0.00055963 0)
(-2.27717e-05 -1.68351e-06 -7.26107e-23)
(-0.00614133 0.000181385 1.23434e-22)
(-5.00436e-06 0.000211891 4.35875e-22)
(0.000281151 7.62777e-05 0)
(0.000496675 -0.000133804 1.73881e-22)
(9.23889e-06 -2.3854e-06 -2.73958e-23)
(-2.60526e-05 -4.46988e-06 6.67572e-22)
(0.000819215 0.000813942 0)
(-0.000708386 -0.000600137 1.18346e-22)
(4.93053e-06 -3.36494e-06 -2.44482e-24)
(1.32614e-05 2.68249e-05 0)
(-8.16389e-05 -3.2752e-05 0)
(-0.00287209 0.00127555 -4.02636e-22)
(0.000134912 1.14105e-06 -2.04308e-22)
(0.004502 0.000837629 3.70017e-24)
(-6.5976e-05 3.67409e-05 9.02792e-23)
(-5.39133e-06 -1.18741e-06 1.39928e-22)
(-4.18179e-05 1.25078e-05 0)
(-5.56165e-07 6.86563e-08 -7.34156e-23)
(0.00103553 -0.00173109 2.32385e-22)
(5.98502e-06 7.94303e-06 0)
(-6.63089e-07 -6.78274e-08 1.17083e-22)
(-1.15336e-06 4.49541e-06 -3.02806e-22)
(-0.00805179 -0.000486622 0)
(0.0055651 -2.44068e-05 0)
(0.00811327 0.00262675 4.40364e-24)
(-8.77898e-07 -1.26398e-07 3.33696e-22)
(0.00581619 -0.00175868 -8.51545e-22)
(-3.37549e-06 3.47948e-06 -1.66665e-22)
(0.00507722 0.00180056 -1.09718e-21)
(0.00122796 -0.000125558 0)
(-1.1339e-05 -4.68552e-06 0)
(-0.00216411 0.00153571 2.18052e-22)
(-4.19245e-05 9.72098e-06 0)
(3.26026e-06 1.08419e-05 2.52233e-22)
(-5.28838e-05 1.43744e-05 5.58296e-22)
(-3.7816e-06 1.57334e-06 6.77663e-22)
(-2.02285e-06 6.9444e-06 0)
(-0.00104759 -0.00160744 4.71757e-23)
(5.18948e-06 9.56482e-06 0)
(-0.000344695 -0.000382107 -2.10556e-23)
(-8.0212e-07 4.30606e-06 2.33687e-22)
(-0.000164461 -3.73184e-05 0)
(-0.0040755 -0.000984786 0)
(-1.2385e-05 -2.29939e-06 0)
(2.11857e-06 2.98318e-07 0)
(0.00131535 -0.000315396 -2.50448e-23)
(1.66828e-05 -1.85531e-05 0)
(-3.00031e-06 3.76373e-06 1.46633e-22)
(8.19991e-06 1.59187e-07 8.09731e-24)
(-0.00275133 -0.0038243 0)
(1.90474e-06 1.61652e-07 0)
(-7.84802e-06 8.32928e-06 -1.52287e-22)
(-8.3151e-07 -1.37604e-07 0)
(-5.41895e-05 1.37934e-05 3.74449e-23)
(3.36449e-05 0.000232092 0)
(0.00493361 0.00135123 -8.73945e-23)
(-2.45295e-05 -8.28958e-06 1.22694e-22)
(0.00210643 -0.000476545 -2.78618e-23)
(0.000697487 -0.00328122 2.49884e-22)
(-0.00078144 0.000445824 -5.49087e-22)
(-0.000159408 -0.000190736 0)
(0.00697318 0.00240006 -6.72956e-23)
(0.000794976 0.000637719 -4.07469e-23)
(0.000624483 0.00125518 0)
(5.18214e-06 9.00226e-06 0)
(1.26409e-05 -1.70405e-05 -3.15886e-22)
(0.00510898 -0.00136936 -6.41619e-23)
(-3.33593e-06 9.95981e-07 0)
(0.000246706 0.00014765 0)
(-1.00821e-05 -7.42559e-06 2.12763e-22)
(-0.00135236 0.00061905 1.66293e-23)
(4.08276e-05 -7.464e-05 1.11904e-22)
(0.00077598 -0.00016913 2.58892e-24)
(-1.32867e-06 1.19034e-08 0)
(-3.30373e-06 -8.84916e-05 4.93564e-22)
(-2.65195e-05 -8.33147e-06 -6.41244e-23)
(-3.52587e-05 -0.000272616 -4.39672e-22)
(-5.85202e-05 -3.72806e-05 2.07588e-22)
(0.00571168 0.00215445 1.68739e-22)
(0.000326663 0.000161794 0)
(0.000400885 0.000140088 -8.2161e-25)
(-5.34889e-05 -6.63972e-05 -2.63531e-22)
(4.57967e-06 1.39576e-06 -3.16859e-22)
(0.000143115 0.000346877 0)
(4.38896e-06 1.29737e-06 0)
(0.000201819 -0.00120408 -7.77868e-23)
(3.61881e-06 1.0414e-05 1.29325e-22)
(0.000898713 -0.00842568 0)
(9.7162e-06 -1.63672e-06 4.20083e-24)
(3.38067e-06 1.08731e-05 7.85375e-25)
(-0.00040124 -0.000349691 1.018e-22)
(-1.22888e-06 6.89696e-06 -1.19638e-22)
(-0.000347109 -0.000138453 1.19829e-22)
(1.08011e-06 -3.2446e-07 1.73544e-22)
(0.000329815 0.000491064 -3.40744e-22)
(-0.00846242 -0.0057195 2.31209e-22)
(5.14594e-05 -0.000411702 -6.01304e-23)
(0.00262263 0.00126639 0)
(-0.000147458 -0.00020702 4.63091e-23)
(-1.51109e-06 1.32248e-07 -2.02278e-22)
(-4.70225e-06 4.2133e-07 9.90308e-23)
(9.86491e-05 -0.000414385 -3.9593e-22)
(-2.80076e-05 -1.79256e-05 7.34605e-23)
(0.000470245 -0.000298871 6.15095e-23)
(-5.22296e-06 -2.6436e-07 0)
(-0.000145842 -6.67323e-05 0)
(9.08675e-05 0.000316784 -2.70268e-22)
(0.00473915 -0.000217253 1.46012e-21)
(4.25228e-06 6.72078e-07 -3.01173e-22)
(-9.11631e-07 -6.76839e-07 9.04489e-25)
(0.000241926 0.000884981 -9.08661e-22)
(-1.54602e-05 -3.33315e-06 -5.37723e-22)
(8.9516e-06 -3.43038e-06 7.85662e-23)
(3.5487e-05 0.000107294 1.54306e-21)
(0.00118839 -0.00732468 0)
(0.000157373 0.000468519 0)
(-5.61851e-06 -7.36104e-07 1.14961e-22)
(0.00384281 0.0032157 0)
(-0.000799677 -0.000244709 1.0085e-21)
(-0.00885766 0.00114789 -3.80334e-23)
(0.000213716 -0.000147729 0)
(3.44682e-05 8.40415e-05 -5.08236e-24)
(-0.000668882 -0.000102905 -5.12231e-22)
(-0.00537814 0.000766628 0)
(-0.000311396 -0.000214251 -2.0143e-22)
(3.50515e-06 1.02198e-05 -1.06801e-22)
(-2.19606e-05 5.15963e-06 -1.47471e-22)
(-8.33388e-07 -1.10937e-07 -1.0309e-22)
(-3.19964e-06 2.65312e-06 1.35067e-22)
(-0.00529829 -0.00201478 -9.5782e-23)
(0.000974855 -0.000173843 4.29176e-23)
(-1.89842e-06 -3.82747e-07 -2.01985e-23)
(-0.00033132 0.00121571 -5.47112e-22)
(-0.00243571 0.00133564 -4.04435e-22)
(7.44196e-06 -3.27515e-06 0)
(0.00149069 -0.00300219 0)
(0.00917615 0.000300907 4.48995e-22)
(-0.000198421 0.000140352 0)
(-1.86291e-06 -2.72613e-07 2.59359e-22)
(-0.00401603 -0.00422663 0)
(-4.3994e-05 -0.000375855 5.88623e-23)
(-1.87251e-05 -6.04448e-06 0)
(0.00439984 -0.000324263 0)
(-0.000328751 0.000556116 1.82041e-22)
(0.00136655 0.00268607 -6.39085e-23)
(-6.98242e-05 0.000124073 5.45903e-23)
(-0.00171604 -0.00229998 0)
(-0.000322194 0.00223955 2.66715e-22)
(0.000409514 -0.000110777 1.53564e-22)
(0.000515131 -0.0012581 0)
(1.9373e-06 3.03613e-06 -6.12983e-22)
(-3.63087e-07 4.97631e-06 0)
(0.00154737 0.00184497 1.99583e-23)
(-0.000448826 -0.000387583 -2.04335e-22)
(-0.000150535 -0.000177523 8.49092e-23)
(-7.76581e-07 5.24592e-06 1.55365e-22)
(-1.87035e-05 -9.50101e-07 1.27713e-22)
(5.02244e-06 2.62816e-06 -4.30554e-23)
(-7.34168e-07 1.06447e-08 2.13501e-22)
(0.00548506 -0.00874648 -1.19595e-22)
(-7.87982e-05 6.57681e-05 2.61905e-22)
(0.000134419 0.000270616 0)
(-0.00298582 0.00165524 -3.12677e-22)
(-7.50074e-07 7.16638e-08 -2.2986e-22)
(-1.27555e-06 6.8164e-08 -2.65589e-22)
(1.98056e-06 1.66464e-06 1.02149e-22)
(0.00153794 0.00310802 0)
(4.82536e-05 6.89737e-05 3.1353e-22)
(2.08731e-05 1.11133e-05 0)
(-1.27026e-06 -1.57667e-07 2.0183e-23)
(-7.74522e-07 2.77339e-07 -7.43728e-22)
(-3.24687e-05 -2.9407e-06 0)
(-0.000226508 0.000397225 -1.39414e-21)
(0.00140109 0.00373319 -2.0223e-22)
(-5.56662e-05 -6.316e-05 1.43902e-22)
(1.67791e-06 1.67424e-06 0)
(-0.000178213 -0.00354408 -2.4617e-22)
(3.86137e-07 -4.36446e-08 3.59331e-22)
(0.000908143 0.00477958 0)
(-6.02699e-05 -4.47154e-05 -5.3347e-23)
(9.83648e-05 -0.000279133 -3.98917e-22)
(-7.2997e-07 1.43226e-07 0)
(-1.29861e-06 7.28564e-08 -3.42263e-25)
(-0.000180703 -0.00137437 3.72965e-23)
(-0.000354734 -0.000253494 1.48755e-21)
(3.08366e-05 -0.000264812 -2.82962e-23)
(-5.89277e-06 -1.34376e-06 -7.14022e-23)
(3.36851e-05 -0.00013252 0)
(0.00278076 -0.00791988 -1.82239e-23)
(-1.5673e-06 -1.75572e-06 1.43121e-22)
(-0.00155635 0.000679373 0)
(0.000401191 -0.000133612 0)
(-0.00324185 0.000186423 2.78648e-23)
(-1.68053e-05 9.85215e-06 0)
(-2.63128e-05 0.00041256 -3.4729e-22)
(-0.00469171 -0.00381531 0)
(0.000787642 -0.00016342 -1.13704e-22)
(3.21356e-06 -2.39327e-05 -2.78887e-22)
(0.000172857 -0.000363034 1.65389e-23)
(2.09306e-06 1.65179e-06 2.21011e-22)
(0.000584547 -0.000233251 -1.7481e-23)
(-0.0082849 -0.00382887 2.62849e-22)
(0.00041322 3.65875e-05 -6.17347e-23)
(0.000107589 1.91975e-05 -1.26873e-24)
(-1.65966e-06 -1.59243e-06 -3.28642e-23)
(1.65163e-06 6.38e-06 -2.55546e-23)
(0.000279763 0.000202207 0)
(7.20231e-05 -0.00014545 -6.13851e-23)
(1.01403e-06 4.1938e-07 1.86963e-22)
(-0.000885069 -0.00191398 4.45086e-22)
(0.00501832 -0.000366812 -3.64582e-23)
(-0.00353127 0.000950307 3.50067e-22)
(-6.41709e-06 -1.66132e-08 1.39764e-22)
(0.00245653 -0.000155178 0)
(0.0023974 0.0037498 -8.66277e-22)
(-2.5082e-05 -6.24704e-06 4.88984e-22)
(9.38685e-05 7.04992e-06 -3.91234e-22)
(-7.65783e-07 -3.77852e-07 0)
(-0.00033358 0.000437731 1.63464e-22)
(-1.4074e-06 1.1114e-07 1.19974e-22)
(-3.11322e-07 5.62007e-06 8.36007e-23)
(-0.000253198 -6.3963e-05 0)
(-4.89565e-07 3.90204e-06 -1.346e-22)
(1.60815e-05 0.000143766 4.48875e-22)
(2.66916e-05 2.54325e-05 0)
(0.00264129 -0.00142852 1.16524e-22)
(-3.50144e-07 7.55281e-08 3.15593e-22)
(-5.51912e-05 4.68909e-05 -3.31164e-22)
(0.00235534 -0.00288055 1.12505e-22)
(-0.000916553 -0.000700848 -6.55148e-22)
(-0.000825817 0.000320929 -1.63283e-21)
(-4.67749e-05 4.04744e-06 1.09844e-22)
(-1.87382e-05 -2.03246e-06 1.30566e-22)
(-2.19151e-06 2.57257e-06 6.55406e-23)
(0.000842977 -0.00016784 6.05457e-23)
(2.16272e-06 1.07427e-07 4.59621e-23)
(-3.34361e-06 2.90725e-06 3.49918e-22)
(-3.30383e-06 2.51379e-06 0)
(-0.000840931 0.00173953 0)
(1.16357e-06 -7.13135e-06 2.34741e-22)
(0.000628446 0.00105085 0)
(-3.68249e-07 8.19303e-08 4.37589e-23)
(-0.000947388 0.000668087 0)
(0.00274976 -0.00224356 0)
(-0.000208374 -0.000248192 -9.45502e-22)
(0.00149168 -0.00262666 -2.91069e-22)
(-0.00207344 -0.000132664 2.50008e-22)
(4.00425e-05 1.25924e-05 0)
(-0.000621496 -0.000122654 1.12125e-22)
(0.00055091 -0.000704638 0)
(-0.000572033 3.31301e-05 7.66303e-23)
(-0.000317194 -0.00205144 -3.11639e-24)
(-0.000301095 -8.15836e-05 3.6597e-23)
(7.31463e-05 -0.0001992 0)
(-2.33871e-05 -6.93692e-06 -1.20763e-22)
(0.000743521 -0.000992473 0)
(-0.000469223 -0.000827995 1.98667e-22)
(0.00163553 -0.000601206 0)
(-1.06535e-06 -1.12325e-06 -1.21328e-22)
(-0.00119684 -0.000144665 0)
(-8.04042e-05 8.98374e-05 -1.27791e-22)
(1.84216e-06 6.01421e-06 0)
(-3.31695e-06 8.66922e-06 -9.86777e-25)
(1.36431e-05 -1.9426e-05 -1.26973e-22)
(-7.29727e-06 -7.67132e-06 -3.30745e-22)
(-0.000211624 -6.74483e-05 -1.48553e-22)