/*--------------------------------*- C++ -*----------------------------------*\
| =========                 |                                                 |
| \\      /  F ield         | OpenFOAM: The Open Source CFD Toolbox           |
|  \\    /   O peration     | Version:  v2012                                 |
|   \\  /    A nd           | Website:  www.openfoam.com                      |
|    \\/     M anipulation  |                                                 |
\*---------------------------------------------------------------------------*/
FoamFile
{
    version     2.0;
    format      ascii;
    class       volScalarField;
    location    "350";
    object      k;
}
// * * * * * * * * * * * * * * * * * * * * * * * * * * * * * * * * * * * * * //

dimensions      [0 2 -2 0 0 0 0];


internalField   nonuniform List<scalar> 
14033
(
0.00167153
0.0237349
5.55804e-05
7.18301e-05
4.45482e-05
8.21268e-05
0.00651658
7.81368e-05
7.17055e-05
0.0148986
5.57398e-05
9.64876e-05
8.1201e-05
8.11294e-05
4.43834e-05
9.06297e-05
8.64859e-05
0.0370184
7.6045e-05
8.89085e-05
8.98749e-05
9.65456e-05
0.000105387
4.44667e-05
5.62578e-05
7.58239e-05
0.000118299
0.000116514
0.000148235
0.000187727
8.62942e-05
7.73658e-05
0.000136306
8.99729e-05
0.0017844
6.59871e-05
0.0146696
0.0170519
4.54956e-05
8.41381e-05
0.0145383
8.99685e-05
5.5703e-05
4.91384e-05
5.61444e-05
5.55511e-05
0.0176328
8.17915e-05
0.000128878
0.0131232
8.25969e-05
6.75841e-05
0.0142679
0.0114672
8.66604e-05
8.14575e-05
0.00067299
0.026136
9.05332e-05
8.61314e-05
5.44904e-05
0.0134629
9.41413e-05
5.60407e-05
6.10346e-05
5.51914e-05
0.00141445
0.000109766
5.28021e-05
8.38201e-05
6.3361e-05
8.67042e-05
0.017477
8.91125e-05
9.14319e-05
5.35156e-05
8.51274e-05
8.39428e-05
0.0318966
0.000161275
5.53723e-05
0.0321384
0.0144037
7.0884e-05
5.27801e-05
8.63467e-05
7.66312e-05
0.0118795
0.018111
8.91057e-05
7.8755e-05
5.552e-05
7.17273e-05
0.00500342
5.25303e-05
8.65901e-05
8.27823e-05
5.73314e-05
0.014566
7.26563e-05
5.53511e-05
8.1612e-05
5.24646e-05
6.90525e-05
0.0176682
0.000123844
0.0180808
7.09362e-05
0.00010801
6.33043e-05
0.0175104
7.38579e-05
5.33049e-05
2.67013e-05
8.32586e-05
8.54308e-05
0.000199025
4.48414e-05
0.00338585
0.000136304
7.75159e-05
9.3183e-05
0.00985857
7.70307e-05
0.0056293
7.1459e-05
5.54541e-05
3.83825e-05
0.01274
8.29451e-05
0.0174291
5.42436e-05
4.44876e-05
0.0157955
0.0175655
8.39426e-05
0.000120799
6.21405e-05
8.3129e-05
7.15155e-05
8.70751e-05
0.00296282
9.95286e-05
9.04555e-05
0.000172025
5.59913e-05
7.74098e-05
9.45821e-05
0.0144876
0.0053369
0.000170549
8.69179e-05
6.36588e-05
7.67298e-05
8.12872e-05
0.0145119
6.8881e-05
6.05632e-05
6.8941e-05
4.44161e-05
7.9781e-05
0.000118771
0.0148827
6.47553e-05
8.92643e-05
7.95586e-05
8.64906e-05
9.22691e-05
0.0384072
7.79859e-05
9.06379e-05
0.000120968
9.64171e-05
0.00837176
5.33359e-05
7.81258e-05
0.000137431
0.0115186
9.60049e-05
9.05356e-05
0.000688147
0.0108047
8.62928e-05
5.7612e-05
6.37821e-05
0.0179776
0.016208
8.39253e-05
0.0402581
0.0178658
0.000554191
8.62335e-05
7.59827e-05
8.41359e-05
0.00525714
0.0119796
9.36906e-05
0.0131993
7.13192e-05
6.39116e-05
7.48056e-05
8.62189e-05
6.12485e-05
0.000793793
8.66783e-05
6.14918e-05
9.29183e-05
0.000728817
9.01554e-05
0.00050357
0.0110831
0.000698148
0.00150146
0.00407249
4.5602e-05
7.95775e-05
6.81927e-05
0.00223169
6.81693e-05
9.41402e-05
9.01683e-05
5.82728e-05
5.82354e-05
7.6828e-05
8.25207e-05
5.23203e-05
0.000102838
8.64436e-05
7.12047e-05
4.94882e-05
5.52843e-05
0.000120858
8.6428e-05
4.48159e-05
0.00262228
0.0161074
0.000129284
4.97901e-05
7.02736e-05
6.6294e-05
0.0115464
8.40286e-05
7.39007e-05
5.419e-05
8.64425e-05
4.96566e-05
0.0190874
0.00799582
7.61281e-05
5.35469e-05
8.18446e-05
0.0105702
4.90876e-05
0.00183328
7.07854e-05
0.0170125
6.59938e-05
7.77435e-05
4.87871e-05
0.000981118
4.62029e-05
0.029003
0.000827881
9.44959e-05
8.69899e-05
0.000450563
8.61829e-05
0.000157097
0.000494854
0.0137682
8.90339e-05
0.0161318
4.8942e-05
9.07091e-05
0.00172403
7.01316e-05
5.55875e-05
0.000116494
7.58707e-05
0.00494415
0.00012937
6.52069e-05
0.000273338
9.08013e-05
0.0387869
0.00723882
0.017496
4.89048e-05
0.030403
0.000665422
7.17824e-05
9.56677e-05
9.81101e-05
0.00112029
7.84802e-05
5.40473e-05
5.806e-05
7.06555e-05
5.40457e-05
7.43344e-05
5.79951e-05
0.00379458
0.0170578
8.85545e-05
9.16543e-05
5.96774e-05
8.69167e-05
5.7624e-05
0.0190537
8.55101e-05
0.00011446
6.58701e-05
0.000126555
9.99893e-05
0.000197745
6.60009e-05
8.00527e-05
8.6463e-05
8.17065e-05
0.0102219
0.024468
0.000116704
8.53201e-05
5.44666e-05
8.32397e-05
0.0127521
8.86607e-05
5.22385e-05
0.0179079
9.44976e-05
8.20031e-05
0.0285857
0.0138687
8.92756e-05
4.62655e-05
0.0154705
0.000122089
7.41329e-05
0.0165033
8.7576e-05
0.0115759
0.000102339
6.55898e-05
8.74045e-05
0.000132669
5.50273e-05
9.29243e-05
8.11518e-05
0.0133629
0.00654692
5.78032e-05
8.15889e-05
0.0180888
9.51964e-05
7.4466e-05
4.55273e-05
8.71453e-05
0.0143859
5.26776e-05
6.9187e-05
7.46845e-05
3.95212e-05
0.0108855
7.61421e-05
8.68349e-05
9.59274e-05
3.95279e-05
4.48039e-05
8.50828e-05
5.44807e-05
5.1834e-05
5.44222e-05
8.17723e-05
8.28026e-05
0.000114179
0.0281419
8.5629e-05
9.07026e-05
0.00688464
4.82256e-05
4.9352e-05
9.87244e-05
7.79694e-05
0.000179565
0.0128556
7.65139e-05
0.0175868
4.98247e-05
9.07499e-05
0.000103635
5.78344e-05
0.0116973
8.99401e-05
7.93386e-05
0.000862682
0.0280663
0.000307047
0.0104894
0.000114361
8.59203e-05
0.00047759
7.76967e-05
5.49607e-05
4.80975e-05
9.7498e-05
8.2406e-05
8.62203e-05
4.53604e-05
7.81937e-05
0.00790889
0.0152789
0.000192755
6.13348e-05
0.0258674
5.21388e-05
8.04494e-05
5.68231e-05
8.76262e-05
7.84477e-05
0.00987321
8.75399e-05
8.80448e-05
9.22124e-05
8.73393e-05
7.40711e-05
8.59404e-05
8.66452e-05
4.4504e-05
9.08531e-05
7.68286e-05
7.5755e-05
8.41917e-05
8.59216e-05
8.04563e-05
5.65388e-05
7.42917e-05
8.45462e-05
8.09743e-05
0.000128825
0.00651269
0.000715095
4.99818e-05
8.13859e-05
5.64419e-05
7.63172e-05
6.43331e-05
9.2878e-05
0.0134242
0.00650509
7.20129e-05
0.0193247
5.15196e-05
6.40547e-05
8.7392e-05
8.06853e-05
0.000330126
6.99996e-05
7.64183e-05
4.4199e-05
9.03828e-05
8.40278e-05
0.0174392
0.00403049
0.000657967
4.82008e-05
7.64298e-05
0.00493271
7.02444e-05
4.92013e-05
0.0039158
8.45865e-05
9.09731e-05
6.74865e-05
8.85813e-05
5.63091e-05
0.0106364
7.56598e-05
0.000578462
7.91003e-05
0.0072495
6.63071e-05
0.0187117
8.86262e-05
0.013243
0.0179396
5.61241e-05
0.0211129
6.1452e-05
0.000106647
6.46177e-05
8.69017e-05
0.0250615
0.0220922
9.59905e-05
6.74946e-05
8.58066e-05
0.000121493
0.0130199
8.62904e-05
8.04705e-05
8.74708e-05
7.5324e-05
0.000352214
0.00306728
0.000110203
5.56112e-05
7.2194e-05
0.00876894
7.64952e-05
0.000109018
5.04565e-05
6.95166e-05
0.0188677
4.96287e-05
7.59053e-05
8.40875e-05
9.53267e-05
5.30175e-05
0.0128993
0.0050691
5.51351e-05
0.000334381
5.51085e-05
7.74904e-05
7.02381e-05
8.50046e-05
8.33137e-05
8.79726e-05
8.67267e-05
7.88141e-05
8.60356e-05
7.6391e-05
0.0140741
6.94875e-05
6.47604e-05
7.8168e-05
6.65162e-05
7.98149e-05
7.91172e-05
0.000141093
9.57458e-05
0.00186507
4.63455e-05
7.0286e-05
0.000257814
8.71565e-05
0.00014035
5.46575e-05
0.00197669
8.20202e-05
4.78219e-05
0.0135662
4.46155e-05
5.46959e-05
7.44249e-05
0.000127329
6.93051e-05
8.60731e-05
9.20505e-05
0.0157958
8.82321e-05
0.0179935
8.96002e-05
9.02915e-05
8.93258e-05
9.01487e-05
0.000228929
8.41303e-05
8.69679e-05
7.18538e-05
0.00352056
0.0143262
0.00828198
7.97169e-05
0.0270721
7.30054e-05
0.037489
0.0148861
9.04791e-05
0.0160031
8.93666e-05
8.33121e-05
5.42294e-05
5.48505e-05
5.37649e-05
0.000156519
8.22996e-05
0.000123149
5.3746e-05
7.54609e-05
0.0216158
8.98652e-05
5.74698e-05
0.000102294
7.85793e-05
7.27139e-05
4.47788e-05
0.0127369
5.9293e-05
8.31056e-05
8.29884e-05
5.42976e-05
8.17561e-05
0.0116442
9.03955e-05
0.01283
0.0129941
0.016806
0.000103979
0.000273938
7.43184e-05
7.5371e-05
8.24568e-05
6.67308e-05
0.0123267
5.52881e-05
4.80227e-05
7.58483e-05
0.0130459
0.0103397
0.0113099
7.09239e-05
7.70339e-05
9.04013e-05
5.09818e-05
9.20873e-05
0.000211744
9.50724e-05
9.54145e-05
9.39073e-05
5.0081e-05
5.28722e-05
5.02914e-05
0.000159376
8.35599e-05
0.00647
4.59634e-05
8.31021e-05
0.000119584
5.36153e-05
0.000107701
8.07022e-05
5.39103e-05
0.00618499
0.000123403
0.0175077
0.000105105
7.3143e-05
6.50768e-05
5.10848e-05
9.12139e-05
9.31848e-05
8.87529e-05
7.57024e-05
8.195e-05
0.000135269
5.21063e-05
7.94183e-05
0.0145626
5.48751e-05
4.54921e-05
5.28623e-05
0.00517693
0.0128534
8.93025e-05
0.00502646
5.10642e-05
0.00127478
4.72883e-05
5.29002e-05
5.06072e-05
0.038248
0.000243701
8.33643e-05
7.44784e-05
8.28866e-05
7.32306e-05
0.00295916
0.000100821
8.91299e-05
0.0043784
0.000250609
4.4487e-05
0.000356854
0.00467922
4.94789e-05
8.90277e-05
0.0114789
0.000121203
5.49313e-05
0.019202
8.58504e-05
0.0150816
9.03641e-05
8.39398e-05
0.0146873
0.0106799
0.000253346
6.09469e-05
5.35888e-05
0.0277677
8.92216e-05
0.000102374
8.45952e-05
8.94023e-05
8.13402e-05
8.25169e-05
0.0103884
8.27048e-05
8.15346e-05
0.000713319
8.20332e-05
6.69226e-05
6.03521e-05
0.00390784
8.77204e-05
8.52302e-05
7.97888e-05
6.36993e-05
8.98557e-05
5.36171e-05
0.000208981
9.37186e-05
6.04446e-05
0.012704
6.19952e-05
0.000226849
9.25233e-05
5.13242e-05
8.44566e-05
7.14181e-05
0.000184571
5.05817e-05
8.76464e-05
9.02705e-05
8.63722e-05
0.0118728
7.69462e-05
0.0130607
9.22397e-05
0.0150614
8.79904e-05
5.32446e-05
0.0120799
0.011501
7.76306e-05
5.13687e-05
5.22871e-05
0.0121412
0.00541835
9.39648e-05
5.21547e-05
7.69739e-05
8.3524e-05
9.42711e-05
0.0103596
5.50547e-05
8.41615e-05
0.0189362
0.0159091
5.52426e-05
0.00010702
8.72877e-05
8.34595e-05
5.2011e-05
8.82858e-05
0.0169143
7.21775e-05
8.44613e-05
9.88857e-05
7.15541e-05
4.48061e-05
8.60491e-05
0.000539336
7.80334e-05
8.92374e-05
0.000235684
0.000351165
5.15522e-05
7.47794e-05
8.96044e-05
8.55437e-05
0.0105905
7.19845e-05
7.2991e-05
5.44676e-05
0.0163948
5.83238e-05
7.51493e-05
7.98953e-05
0.0139704
0.000238524
5.0454e-05
0.000150584
0.0145758
7.99602e-05
0.000130828
0.0414912
0.000153581
0.000182001
0.000102268
0.0107391
9.03204e-05
0.000325407
0.000120064
0.013647
7.8733e-05
0.0138726
8.26623e-05
8.33646e-05
8.56262e-05
7.84286e-05
7.61397e-05
9.74266e-05
8.19425e-05
5.08302e-05
7.86061e-05
9.82475e-05
0.0102777
0.000104605
6.4128e-05
5.58627e-05
5.98515e-05
8.42636e-05
7.24278e-05
8.73024e-05
8.95095e-05
5.53435e-05
8.4676e-05
0.000194082
5.27287e-05
8.663e-05
0.0273019
6.59011e-05
5.54769e-05
9.43293e-05
0.00798497
4.77369e-05
0.0156147
4.56289e-05
7.62811e-05
4.50874e-05
7.25219e-05
0.0133826
9.77835e-05
8.93985e-05
8.61041e-05
5.90104e-05
7.59211e-05
5.28741e-05
8.54299e-05
6.14573e-05
7.63216e-05
0.00925591
4.58274e-05
7.97832e-05
8.11577e-05
8.19902e-05
5.06875e-05
0.000107787
7.83993e-05
0.000530054
9.01139e-05
0.000105941
7.80186e-05
0.00413351
8.02751e-05
0.000110228
8.51003e-05
0.0136317
8.62651e-05
5.56647e-05
8.75054e-05
0.0131674
8.98252e-05
8.77152e-05
0.000156456
0.0154609
0.0108529
8.99332e-05
7.84083e-05
9.01054e-05
0.0165789
9.4237e-05
9.08115e-05
0.0103142
8.37468e-05
4.52505e-05
5.31833e-05
8.95793e-05
8.3097e-05
8.94948e-05
8.36684e-05
8.12195e-05
9.09078e-05
8.12676e-05
7.67787e-05
8.3877e-05
0.0160502
4.7987e-05
7.25523e-05
0.0187925
0.0107633
5.03039e-05
8.63771e-05
4.45821e-05
0.0114317
0.0182259
8.42707e-05
8.78992e-05
8.12822e-05
5.06568e-05
0.00254953
8.34055e-05
8.54927e-05
8.95322e-05
5.20104e-05
6.7184e-05
0.0139462
7.83106e-05
5.1877e-05
0.00142084
8.53563e-05
8.595e-05
0.00598699
0.000183337
9.7185e-05
4.69127e-05
5.13682e-05
8.866e-05
6.85456e-05
8.5393e-05
0.0224084
7.24384e-05
0.000155698
6.60915e-05
4.71868e-05
5.18699e-05
4.47058e-05
6.65627e-05
0.000127656
0.000112531
0.0113391
9.03463e-05
8.63053e-05
0.00353662
5.60272e-05
8.33429e-05
0.00010805
8.36677e-05
0.000366344
9.30147e-05
6.08679e-05
8.3956e-05
4.49337e-05
0.00998931
7.76548e-05
5.08081e-05
0.0134185
6.05544e-05
0.0105542
5.2074e-05
7.21239e-05
7.06211e-05
4.86159e-05
0.0185258
0.0152699
8.56517e-05
6.63975e-05
0.000106755
6.51037e-05
4.8486e-05
6.23724e-05
5.20824e-05
7.23822e-05
0.013879
0.00701111
8.18626e-05
0.0391141
0.00830724
8.63986e-05
9.05815e-05
5.54322e-05
7.93244e-05
8.82289e-05
8.59084e-05
9.53636e-05
8.80755e-05
8.28347e-05
0.00556875
7.56045e-05
6.58823e-05
6.65522e-05
6.56699e-05
4.76532e-05
7.61334e-05
0.000101846
0.0104107
7.46053e-05
4.94313e-05
6.21855e-05
7.13848e-05
7.88242e-05
5.00304e-05
8.21493e-05
0.0118545
0.00773526
6.99243e-05
4.60232e-05
0.000544436
0.000163218
0.000183183
9.74834e-05
8.31426e-05
6.05412e-05
8.89028e-05
4.98338e-05
8.04057e-05
0.0254204
6.21006e-05
8.94489e-05
0.000118239
0.000112561
0.0180558
0.0147201
8.50561e-05
4.45843e-05
9.06417e-05
8.6229e-05
0.000471347
0.000188608
6.67587e-05
0.000138348
7.2652e-05
6.066e-05
0.00913834
0.0116775
5.16792e-05
8.79933e-05
8.65854e-05
0.00011118
5.59556e-05
8.56038e-05
4.7463e-05
8.55286e-05
0.000133044
9.12473e-05
0.00514074
9.0916e-05
7.09249e-05
5.52921e-05
7.83417e-05
0.0123178
0.000186877
8.97007e-05
0.000124494
0.000157215
8.73163e-05
9.0893e-05
0.000592716
2.26536e-05
7.58936e-05
8.22944e-05
8.18928e-05
8.53759e-05
5.80242e-05
4.79457e-05
8.13016e-05
0.0114571
0.0176217
0.014507
8.13359e-05
6.54239e-05
0.0411431
9.01953e-05
8.59881e-05
8.64626e-05
8.37706e-05
8.55022e-05
9.08815e-05
0.000100265
7.98188e-05
0.000101931
0.0147748
9.07937e-05
8.05727e-05
8.4896e-05
8.06839e-05
0.000114577
8.69173e-05
7.65489e-05
6.77869e-05
9.06137e-05
0.000107401
8.08474e-05
5.1317e-05
5.10626e-05
7.60192e-05
0.0170899
8.3374e-05
7.44054e-05
4.49555e-05
0.00861182
5.76883e-05
0.000126517
0.0148489
8.00687e-05
7.9565e-05
7.44253e-05
0.00010802
5.21317e-05
0.00130326
9.32848e-05
0.000112703
9.05192e-05
0.000591249
0.000112247
0.00275535
8.87888e-05
7.58284e-05
8.65895e-05
0.00703349
4.5536e-05
8.38391e-05
7.13982e-05
4.6233e-05
4.45422e-05
0.00470968
5.17319e-05
0.012974
2.06643e-05
5.28534e-05
0.0156656
5.76388e-05
7.42062e-05
0.0171926
8.1852e-05
5.29563e-05
8.62775e-05
0.0159948
7.36915e-05
5.10054e-05
0.00760253
5.28759e-05
0.000119106
0.000128782
0.0124004
8.98265e-05
8.56636e-05
5.93575e-05
9.027e-05
4.76233e-05
4.48792e-05
0.0115549
5.91948e-05
5.46169e-05
0.000103344
7.25085e-05
0.00989984
4.499e-05
7.27328e-05
5.05872e-05
7.44753e-05
7.90172e-05
0.0131927
4.65665e-05
5.09154e-05
6.37801e-05
0.00858855
0.0064818
5.59393e-05
9.03894e-05
6.36649e-05
0.00167724
9.08779e-05
5.77016e-05
4.49975e-05
0.000563127
0.0127013
0.000103652
8.85005e-05
9.19724e-05
9.33287e-05
6.50516e-05
6.52029e-05
5.07372e-05
0.000208515
6.06921e-05
9.50372e-05
7.91514e-05
9.11531e-05
6.25524e-05
8.56385e-05
9.34256e-05
5.05413e-05
6.78169e-05
7.55225e-05
0.0048867
6.52481e-05
5.98459e-05
0.0181515
7.87502e-05
0.0002397
4.92094e-05
0.0177296
4.47613e-05
0.0146553
3.59302e-05
6.08355e-05
7.605e-05
0.013646
6.47931e-05
0.0020197
6.6801e-05
6.8317e-05
0.0178187
5.75221e-05
5.05215e-05
7.5711e-05
9.83411e-05
0.000579884
7.29214e-05
0.00542313
8.30274e-05
8.52881e-05
9.05212e-05
0.0116008
0.010097
0.00899882
0.00810856
8.08066e-05
0.0409826
7.74172e-05
6.54041e-05
5.47442e-05
8.62444e-05
7.20287e-05
8.4679e-05
0.000159101
0.0275465
8.49427e-05
6.2787e-05
5.16527e-05
8.28842e-05
8.66848e-05
6.77408e-05
4.66671e-05
5.056e-05
5.89855e-05
9.18465e-05
6.29705e-05
0.015885
5.75813e-05
8.01641e-05
4.81492e-05
8.51334e-05
8.78268e-05
5.88709e-05
8.62518e-05
0.0138351
5.15414e-05
0.0102806
0.0105622
8.61642e-05
7.95087e-05
3.8123e-05
8.1014e-05
0.0172337
0.0140015
6.69726e-05
0.000245691
9.05424e-05
8.98716e-05
0.017256
8.25829e-05
7.64419e-05
9.90027e-05
6.47349e-05
0.0138591
0.000898448
8.33338e-05
8.79728e-05
4.93644e-05
5.13586e-05
5.88869e-05
9.64368e-05
0.0276145
5.81993e-05
8.01524e-05
0.00609692
5.88039e-05
9.35083e-05
0.000128431
8.80486e-05
0.000936647
5.23115e-05
0.0103621
8.02523e-05
0.000361135
0.0132868
0.0143971
0.000134673
8.27018e-05
0.00871698
6.48039e-05
4.57287e-05
0.000673119
9.31784e-05
0.025995
6.00497e-05
0.0305292
6.7567e-05
7.85269e-05
0.000185547
0.000111325
9.60268e-05
0.00033078
4.7074e-05
5.81387e-05
4.45318e-05
0.00506975
5.58402e-05
8.96025e-05
4.73937e-05
4.46125e-05
0.0107611
0.00012823
0.00010113
8.97614e-05
8.60473e-05
5.49748e-05
5.18199e-05
7.87977e-05
9.24494e-05
0.000105377
5.52029e-05
8.3364e-05
0.00859528
5.74013e-05
0.013179
0.017206
8.07434e-05
0.01417
8.35677e-05
0.000275414
5.53448e-05
4.64795e-05
8.2361e-05
0.0237364
5.29303e-05
5.41964e-05
9.04058e-05
0.00366258
8.86819e-05
0.0153214
4.68332e-05
0.00010751
0.00010276
9.33077e-05
8.64118e-05
0.000339397
0.00404543
8.90027e-05
0.017853
4.83022e-05
7.21371e-05
0.0385846
0.011084
9.12072e-05
0.000103687
4.53776e-05
8.82308e-05
5.21353e-05
0.00196978
4.59225e-05
5.08489e-05
0.0139427
8.25038e-05
7.80986e-05
6.63728e-05
8.04908e-05
8.26719e-05
4.62163e-05
0.0162199
0.0127264
0.00245734
9.23868e-05
8.90164e-05
7.58232e-05
6.16468e-05
0.000190249
5.11966e-05
8.66921e-05
6.539e-05
5.9902e-05
5.85295e-05
8.23848e-05
8.39999e-05
8.87447e-05
4.87318e-05
0.000104809
9.05536e-05
0.00929021
9.08187e-05
0.013159
0.000123452
0.000333063
0.000100042
0.00885697
4.73026e-05
0.00277255
9.21249e-05
0.000670653
5.23384e-05
8.06062e-05
5.85343e-05
5.15063e-05
7.38187e-05
4.8616e-05
0.0219594
5.14061e-05
0.0230238
0.014522
0.000117701
9.18455e-05
0.00981729
6.83961e-05
0.000190918
0.000102183
0.00163386
6.54485e-05
8.55499e-05
7.51423e-05
0.000138859
5.98869e-05
0.000158641
5.36695e-05
0.000585392
5.25094e-05
0.00126019
0.0179064
8.75129e-05
2.02763e-05
0.0136777
8.92474e-05
0.0400229
9.86274e-05
8.64465e-05
8.23241e-05
8.312e-05
4.44941e-05
0.0176619
0.0131621
4.89218e-05
0.00988028
8.75838e-05
7.46093e-05
6.50859e-05
8.11044e-05
2.3946e-05
8.34113e-05
0.0188162
8.26848e-05
8.78689e-05
6.56216e-05
6.99592e-05
9.62788e-05
0.0140621
0.0128956
8.36696e-05
6.13111e-05
0.0130571
0.0012604
8.71372e-05
0.0182247
9.19889e-05
0.0123481
0.00212665
9.64797e-05
0.00856388
5.01886e-05
7.86334e-05
8.51174e-05
8.44651e-05
0.0170701
0.0101595
8.81664e-05
0.0108688
5.05491e-05
8.11538e-05
0.00769287
6.96249e-05
9.05851e-05
8.35541e-05
0.0103322
0.0013084
8.98429e-05
8.64421e-05
0.0150696
0.0201935
8.86693e-05
0.000102551
6.15266e-05
5.59509e-05
9.57131e-05
8.76886e-05
8.0802e-05
0.000120593
8.78642e-05
0.000128311
7.8789e-05
8.47727e-05
0.00013461
8.21355e-05
8.83824e-05
0.0435405
7.25868e-05
0.000133743
7.00426e-05
7.16618e-05
0.000147088
8.07258e-05
8.69203e-05
4.49148e-05
8.76275e-05
8.86415e-05
8.0162e-05
2.40717e-05
5.38711e-05
7.23487e-05
6.88492e-05
0.0115373
5.01063e-05
8.93077e-05
9.68917e-05
5.0054e-05
4.5244e-05
0.000140777
8.88882e-05
0.000299112
9.0255e-05
0.000100017
8.57046e-05
0.0117967
0.0113866
5.04902e-05
0.0143889
8.3499e-05
8.64455e-05
0.0187139
6.99731e-05
0.00418196
0.000178553
7.43584e-05
0.000694679
9.36252e-05
7.49296e-05
6.16675e-05
4.71947e-05
5.77298e-05
8.91243e-05
7.0215e-05
0.000158293
7.86794e-05
0.0166219
8.17288e-05
0.00615803
0.000135925
7.16195e-05
8.70336e-05
0.000302845
4.75489e-05
0.0140495
0.0214678
7.89732e-05
0.0176493
6.94755e-05
0.0185023
0.014514
9.46696e-05
7.34288e-05
8.41258e-05
4.80167e-05
8.01117e-05
0.0128369
8.58136e-05
6.47826e-05
0.00104175
7.82587e-05
5.74599e-05
0.0179149
5.39143e-05
5.19219e-05
7.20304e-05
7.80556e-05
8.65727e-05
8.39908e-05
8.71205e-05
0.00613683
7.75305e-05
0.0155093
0.00839172
7.18481e-05
0.00276761
8.61458e-05
0.000189732
0.0135731
6.86716e-05
8.77664e-05
0.0137767
0.0153893
0.0177869
0.0192225
4.83269e-05
4.59061e-05
7.68266e-05
0.000103456
7.78757e-05
0.000160048
8.03575e-05
8.502e-05
4.84639e-05
0.0152441
8.9125e-05
0.0152066
9.09495e-05
0.0117783
7.13478e-05
9.61645e-05
8.62014e-05
8.69942e-05
4.52546e-05
0.0166747
7.77329e-05
7.62998e-05
0.0148259
9.03044e-05
8.45054e-05
5.12984e-05
9.0415e-05
0.00858394
0.00945984
6.69616e-05
0.013286
8.17335e-05
8.27395e-05
8.35469e-05
7.04012e-05
0.0314524
0.000360484
7.10778e-05
0.00373361
0.000258441
9.06407e-05
0.015062
0.00193717
0.0130489
9.29864e-05
6.82375e-05
7.77767e-05
5.07012e-05
6.31998e-05
0.0105009
0.00615248
8.97332e-05
0.000115259
8.69749e-05
5.54248e-05
0.014642
8.26469e-05
0.00404264
0.00708193
6.7057e-05
0.0284538
6.15166e-05
0.0125839
8.58339e-05
9.7296e-05
0.00663748
0.0181967
6.46121e-05
0.00194404
5.33252e-05
0.000151118
9.55504e-05
8.36117e-05
0.0117183
8.00951e-05
8.82607e-05
0.00458623
9.70479e-05
5.30502e-05
9.77994e-05
0.000754167
0.00403441
9.70031e-05
8.34932e-05
4.01269e-05
0.000115085
9.6861e-05
9.01103e-05
0.000150143
0.000114297
0.000100264
4.77633e-05
0.00013888
0.000278701
8.61954e-05
0.000133551
6.65266e-05
6.61341e-05
0.0123974
7.28351e-05
9.00054e-05
0.00978921
0.010852
4.54745e-05
0.00896378
0.0127259
0.0102331
6.07412e-05
7.41305e-05
9.30857e-05
6.56452e-05
4.91364e-05
6.51775e-05
0.017825
8.1643e-05
4.74909e-05
8.61267e-05
8.72854e-05
0.0111827
6.27988e-05
9.4057e-05
0.00535176
9.8656e-05
7.83237e-05
0.0296252
7.82845e-05
7.55655e-05
0.0192945
6.70412e-05
0.00264151
7.8434e-05
8.79573e-05
5.78164e-05
6.49381e-05
5.60843e-05
6.50098e-05
0.00016907
0.000104646
0.015318
5.97968e-05
9.66928e-05
0.0164615
4.67585e-05
8.84145e-05
5.65816e-05
8.77012e-05
8.57867e-05
8.33385e-05
8.37325e-05
0.00756566
0.00524063
0.0107549
6.95334e-05
8.82989e-05
6.32658e-05
7.2573e-05
6.96364e-05
8.64127e-05
8.26067e-05
6.97751e-05
5.49308e-05
8.74106e-05
7.81396e-05
0.0163515
6.41477e-05
8.82416e-05
5.50823e-05
0.0129527
0.00934546
0.000694907
8.17997e-05
6.21408e-05
8.68849e-05
0.00762147
7.35998e-05
0.0113738
4.92651e-05
8.35522e-05
8.17461e-05
7.22909e-05
5.04023e-05
7.41022e-05
0.0125178
0.000149339
6.37937e-05
0.0108531
8.29333e-05
0.0171003
4.48514e-05
0.0319289
0.0105652
9.03727e-05
5.45941e-05
8.44287e-05
0.00444782
6.23769e-05
8.96056e-05
5.62611e-05
8.17993e-05
5.48131e-05
8.78597e-05
0.0182936
5.61535e-05
5.44423e-05
8.27928e-05
8.42726e-05
0.00247346
7.34353e-05
8.70668e-05
0.00158886
9.58615e-05
8.14787e-05
0.00855422
9.01318e-05
9.51924e-05
8.37131e-05
8.3695e-05
4.44912e-05
6.62799e-05
1.14993e-05
7.92508e-05
9.48719e-05
0.0191706
0.00695074
8.86352e-05
9.01412e-05
8.95554e-05
8.95639e-05
4.92118e-05
5.19912e-05
0.00541556
0.000184731
4.88824e-05
8.57035e-05
4.99619e-05
0.00542225
0.0134038
0.0258983
7.7779e-05
0.0155988
5.61437e-05
0.000109975
5.72064e-05
0.000168151
0.0118663
7.33698e-05
7.87377e-05
7.34846e-05
0.000111076
4.94626e-05
4.93789e-05
5.1406e-05
0.00784338
0.000127458
6.45618e-05
0.00954298
8.91131e-05
7.09632e-05
9.02468e-05
8.87304e-05
6.60658e-05
9.40964e-05
0.0150136
8.55543e-05
9.57679e-05
7.97852e-05
5.76648e-05
4.72115e-05
0.0108893
5.70657e-05
6.59178e-05
7.25043e-05
4.92123e-05
8.22588e-05
4.98592e-05
7.81743e-05
0.000259252
6.84185e-05
8.03711e-05
5.22273e-05
5.08966e-05
9.1243e-05
8.02155e-05
7.59424e-05
0.000148535
8.25771e-05
6.83693e-05
8.28192e-05
0.0158919
2.46141e-05
6.97632e-05
0.015088
9.25886e-05
0.00520666
9.47259e-05
4.69316e-05
8.23226e-05
8.79071e-05
8.77978e-05
8.29031e-05
0.0147842
0.000100853
9.27299e-05
8.96026e-05
0.000141001
7.91688e-05
8.80575e-05
7.36223e-05
8.30159e-05
0.0111237
4.66789e-05
0.000134467
8.48438e-05
6.19347e-05
6.26926e-05
6.6062e-05
0.00528646
8.15084e-05
5.01448e-05
0.0139149
0.0135432
6.78381e-05
9.0332e-05
7.04696e-05
5.13683e-05
4.68776e-05
4.96639e-05
6.81784e-05
0.000148758
7.84884e-05
6.63747e-05
4.60142e-05
4.74703e-05
9.66346e-05
0.0151759
0.0127376
4.86335e-05
0.016984
0.00116205
6.22005e-05
0.0142462
4.45723e-05
0.000102343
0.0127438
0.0141599
8.13986e-05
0.0142688
0.0185748
0.000190254
0.00934014
3.16168e-05
8.9049e-05
7.57549e-05
7.30014e-05
5.94466e-05
0.0190285
0.0180828
7.85964e-05
4.85579e-05
0.0123616
0.0405776
5.23559e-05
8.58515e-05
8.17211e-05
8.56076e-05
8.49487e-05
0.00621956
0.000842557
0.000115357
9.26428e-05
0.0128816
8.60233e-05
0.014905
0.000102153
0.000544164
9.28521e-05
0.00014734
8.76844e-05
0.0142063
8.77846e-05
6.60439e-05
6.80448e-05
4.74775e-05
0.000182795
6.66319e-05
8.42948e-05
8.53423e-05
8.88638e-05
7.76265e-05
8.72572e-05
6.26456e-05
8.1502e-05
0.000246174
0.000113995
0.0286981
5.4893e-05
8.32428e-05
8.58407e-05
8.53072e-05
6.91928e-05
6.04767e-05
0.000147505
5.71641e-05
8.6944e-05
7.7469e-05
5.99837e-05
0.0164582
8.15226e-05
7.7237e-05
4.70233e-05
8.25992e-05
8.30015e-05
7.23068e-05
8.53655e-05
5.14622e-05
8.51883e-05
8.68151e-05
8.67273e-05
0.00544005
0.0109486
8.2077e-05
0.0114287
3.46588e-05
7.86161e-05
0.000116054
0.00270579
7.72173e-05
0.00824337
5.00518e-05
0.00652818
8.58437e-05
0.0120165
5.20748e-05
7.30681e-05
0.0110774
6.52163e-05
0.000645446
4.53041e-05
7.2267e-05
9.01517e-05
8.53374e-05
7.40096e-05
0.0134807
8.64243e-05
9.5998e-05
0.0143349
6.47388e-05
7.52277e-05
8.47983e-05
1.78533e-05
7.83511e-05
9.68199e-05
9.12153e-05
0.00011436
7.93822e-05
5.39974e-05
0.0238781
7.93656e-05
0.00815402
0.000172234
5.15952e-05
8.50197e-05
9.70942e-05
8.79643e-05
8.02787e-05
0.000124635
0.000131592
4.45477e-05
8.08864e-05
0.00604031
9.21194e-05
8.35397e-05
5.03583e-05
4.53418e-05
8.91474e-05
4.78923e-05
0.0133774
7.42884e-05
0.0240829
8.42864e-05
7.98788e-05
0.0187537
6.93968e-05
0.0126171
9.16531e-05
0.0113029
7.33721e-05
0.0408408
8.65005e-05
7.95488e-05
0.0157093
8.08551e-05
0.01577
7.89742e-05
0.00010626
0.0181315
7.79852e-05
7.93485e-05
0.000609931
8.94934e-05
4.49329e-05
9.04219e-05
0.0160922
0.0104016
0.0124498
6.24651e-05
0.000118576
8.91845e-05
7.59719e-05
8.33581e-05
8.54264e-05
7.20279e-05
8.23051e-05
0.0122496
8.10007e-05
8.60316e-05
0.010226
0.0165765
5.7343e-05
8.61338e-05
8.99199e-05
0.000148428
0.0156032
8.46221e-05
0.015391
0.0162335
8.48704e-05
8.59026e-05
6.57479e-05
8.96283e-05
5.26049e-05
0.0133542
7.56538e-05
0.000105478
9.82605e-05
9.97025e-05
8.2512e-05
8.26954e-05
8.67647e-05
8.65266e-05
0.0090202
0.00564361
7.11224e-05
4.9315e-05
0.0114335
4.48238e-05
6.23561e-05
8.48566e-05
7.96948e-05
0.0140113
7.81459e-05
0.0130453
5.13728e-05
7.96646e-05
0.00101765
7.41153e-05
8.54625e-05
8.50799e-05
8.51809e-05
8.93175e-05
6.88548e-05
0.0170043
0.0103832
8.40481e-05
0.000102585
0.0149264
3.7071e-05
8.90325e-05
9.23739e-05
0.0123878
9.66931e-05
0.0173712
7.99515e-05
8.05819e-05
8.6559e-05
7.36889e-05
0.0175271
0.014268
8.84756e-05
0.0123913
6.45147e-05
0.010906
0.00643323
7.10711e-05
4.58321e-05
8.49234e-05
4.48354e-05
7.09741e-05
7.14578e-05
8.81306e-05
0.0135717
0.0131566
8.50293e-05
0.000112694
8.3597e-05
0.0133639
9.9559e-05
0.0155275
7.971e-05
9.12972e-05
7.17939e-05
0.00793221
0.000148189
9.02815e-05
4.58134e-05
5.46421e-05
0.00137238
0.000102717
0.0161677
8.40982e-05
0.00620808
8.86684e-05
5.20926e-05
8.94634e-05
7.5839e-05
7.57158e-05
0.0103815
4.94669e-05
7.39717e-05
0.0158077
0.0190202
8.65729e-05
7.00498e-05
8.8149e-05
0.00823362
9.08483e-05
9.06563e-05
0.00625851
8.03426e-05
0.0119557
0.000124847
0.0140525
0.0119304
0.0262688
7.08196e-05
0.00021181
7.56583e-05
0.0167378
9.60628e-05
0.000153293
0.0147787
0.00125736
0.000104978
0.0134032
0.0177263
0.000106025
0.0176914
8.5496e-05
8.01056e-05
0.000809173
9.91061e-05
9.54791e-05
8.94388e-05
7.91528e-05
7.53657e-05
9.10934e-05
5.21427e-05
0.0149426
0.000539552
5.27209e-05
9.50667e-05
5.14676e-05
6.68391e-05
7.73698e-05
8.54854e-05
8.58973e-05
8.54566e-05
5.87915e-05
5.17779e-05
0.000111563
6.87973e-05
7.32054e-05
8.96898e-05
9.60929e-05
0.00123776
0.000103053
0.0166808
6.78802e-05
0.0173581
0.00938551
9.09688e-05
0.00440697
0.000138007
0.000241987
7.56526e-05
0.014529
8.14269e-05
0.000108092
0.016994
7.36679e-05
5.4767e-05
0.00592943
7.52001e-05
0.00712057
8.839e-05
8.08615e-05
0.000119792
6.66511e-05
0.000607309
7.97967e-05
9.5356e-05
0.0306978
8.57055e-05
0.0172719
0.000100616
0.0125522
0.000106776
0.00186185
0.000105826
7.18218e-05
5.11601e-05
6.5744e-05
8.57457e-05
8.03775e-05
9.70104e-05
7.71562e-05
0.0266791
9.23608e-05
8.95027e-05
6.44914e-05
8.64716e-05
8.90543e-05
6.92684e-05
0.00216682
0.000130208
8.35459e-05
0.000104493
0.0091492
8.87297e-05
8.46842e-05
0.000106779
0.0146255
0.0373685
0.00293827
6.13678e-05
8.47645e-05
8.90186e-05
0.0177011
7.59685e-05
0.0147107
6.22122e-05
9.85614e-05
8.49891e-05
8.72595e-05
6.88928e-05
9.00562e-05
0.000114568
7.94717e-05
7.10851e-05
6.79312e-05
0.000104856
0.00604613
0.000103639
6.42541e-05
0.0174926
0.000120464
6.33348e-05
4.87543e-05
0.000104994
0.0106973
0.00864855
8.09569e-05
0.0276535
0.000132415
0.000125974
4.9682e-05
8.31694e-05
0.000102946
8.67013e-05
8.01546e-05
4.93074e-05
0.0056994
6.98002e-05
7.51137e-05
0.000460434
0.0088714
0.000114594
0.0109141
6.76009e-05
7.096e-05
8.85314e-05
5.75485e-05
0.000130374
8.38361e-05
0.0171868
5.84822e-05
0.00279314
7.57876e-05
6.92948e-05
8.26741e-05
8.86013e-05
0.0148063
0.000102751
0.0216591
0.0117932
8.95969e-05
9.30843e-05
0.00610094
0.0179178
3.98804e-05
0.000154354
8.9504e-05
0.0154694
0.011271
0.000110486
8.55846e-05
0.0121299
0.00728263
0.0329833
5.87631e-05
8.53919e-05
0.00011715
0.0113321
9.14021e-05
5.52305e-05
0.0139163
0.000103114
0.0173507
8.09507e-05
0.000123105
5.72321e-05
0.000144446
7.64577e-05
0.000286106
0.017194
0.0143957
8.65465e-05
0.000183984
8.00891e-05
8.73795e-05
8.55403e-05
8.56546e-05
8.50113e-05
0.000105952
0.000112974
0.000108866
0.000117752
0.000123098
0.000131707
8.9801e-05
0.000111162
0.000808444
0.000100879
0.0152807
0.0002493
8.83684e-05
6.69339e-05
8.901e-05
8.54259e-05
8.29215e-05
0.0120506
0.0162929
0.00011124
4.11068e-05
0.0173909
0.000109387
0.00010109
0.00154848
0.0115596
0.000117481
0.0147391
7.56863e-05
8.63606e-05
8.54445e-05
8.64712e-05
0.00648638
9.02657e-05
6.07892e-05
9.33579e-05
8.63689e-05
0.000119337
7.80265e-05
0.00847693
0.0173957
0.0176049
8.31695e-05
9.064e-05
0.00557524
8.6573e-05
7.23859e-05
8.165e-05
9.28402e-05
8.51944e-05
0.0168365
0.0135459
8.53859e-05
0.000158604
7.7444e-05
6.85305e-05
0.000144431
8.63456e-05
0.0144917
8.84852e-05
0.000108113
8.56184e-05
0.000111508
6.3568e-05
0.00010314
0.00581374
0.0183415
0.0143951
5.65018e-05
0.00014723
0.0175319
0.000112038
0.000126987
0.0166101
0.0157504
0.0133608
0.000103425
8.11439e-05
0.016788
0.000100468
9.63382e-05
0.0175005
4.74279e-05
0.0116395
0.0108421
0.0178707
0.00695488
8.95888e-05
0.00100333
0.00935504
0.0134665
4.91192e-05
0.000866236