/*--------------------------------*- C++ -*----------------------------------*\
| =========                 |                                                 |
| \\      /  F ield         | OpenFOAM: The Open Source CFD Toolbox           |
|  \\    /   O peration     | Version:  v2012                                 |
|   \\  /    A nd           | Website:  www.openfoam.com                      |
|    \\/     M anipulation  |                                                 |
\*---------------------------------------------------------------------------*/
FoamFile
{
    version     2.0;
    format      ascii;
    class       surfaceScalarField;
    location    "350";
    object      phi;
}
// * * * * * * * * * * * * * * * * * * * * * * * * * * * * * * * * * * * * * //

dimensions      [0 3 -1 0 0 0 0];
oriented        oriented;


internalField   nonuniform List<scalar> 
20823
(
0.129793
0.0265549
-0.156347
0.25386
-0.155899
-0.0979615
0.668195
-0.0930146
-0.57518
0.602523
-0.119589
-0.482934
0.614226
-0.0529877
-0.561238
0.506646
-0.377152
-0.129494
-0.47663
0.325782
0.285849
0.102958
-0.388807
0.550716
0.0518067
0.150262
-0.0104514
-0.13981
0.633642
-0.565977
-0.0676654
-0.1482
0.149946
-0.00174618
0.209441
-0.340801
0.13136
-0.133153
0.342594
-0.7284
0.423372
0.305028
0.139713
-0.215888
0.0761755
-0.319556
0.204155
0.115402
-0.0273396
0.0798039
-0.0524643
0.356278
0.00305695
-0.359335
-0.188469
0.312437
-0.123969
-0.107513
0.196035
-0.0885224
-0.00999938
-0.1382
-0.0205768
0.134842
-0.114266
0.039652
0.574574
0.488372
0.145271
-0.0931854
0.449464
0.118657
-0.119011
0.000353873
0.119314
0.107824
-0.127355
0.0195311
0.016902
0.0881141
0.14916
-0.199766
0.0506061
0.392867
-0.107019
0.125866
-0.094711
-0.0311554
-0.0204261
0.156816
-0.13639
-0.135175
0.201104
-0.0659287
-0.539206
-0.0721759
0.611382
-0.0876278
0.0677625
0.0198653
0.162386
-0.0121248
-0.250443
0.694225
-0.443782
-0.0493034
0.30198
-0.252677
0.0856156
-0.133054
0.0474384
-0.224807
0.117295
0.791989
-0.407096
-0.384893
0.700929
-0.261885
-0.439044
0.752263
-0.337033
-0.41523
0.356003
0.435987
0.0508085
-0.0472727
-0.00353583
0.409678
0.096968
-0.154256
0.0909409
0.0633156
0.115119
-0.0703824
-0.0447368
-0.13719
-0.220744
0.357934
-0.00406735
-0.527578
0.531645
-0.0901695
0.0293511
0.0608184
0.127275
-0.0886989
-0.0385757
-0.19442
-0.125136
-0.239391
-0.10141
0.0631589
-0.0946731
0.0315142
0.0767159
-0.151295
0.0745791
0.127055
-0.147481
-0.0559925
0.205152
-0.627695
0.496771
0.130925
0.0313151
0.0838041
-0.107544
-0.0402414
0.147786
-0.408594
-0.179434
0.588028
0.403789
-0.650043
0.246254
-0.474973
-0.0959527
0.570926
-0.0373126
0.167105
-0.0543175
0.103014
-0.0486964
0.601376
-0.491971
-0.109405
0.0418842
-0.241197
0.199313
0.461731
-0.667065
0.205334
-0.637175
0.274305
0.362871
0.0526756
-0.00186704
0.16663
0.167971
-0.3346
0.179431
0.0335822
0.608692
-0.172072
-0.436621
-0.0889692
-0.277572
0.366541
0.217309
-0.175424
-0.0889696
0.116051
-0.0904245
0.0986923
-0.00826778
-0.771595
0.357855
0.413741
-0.106409
0.0174396
-0.0482389
-0.0419306
-0.336134
-0.151874
0.488009
0.040799
-0.534364
0.493565
0.464257
-0.66767
0.203413
-0.441134
0.334805
0.106329
0.0391642
0.0881104
-0.00638186
0.046057
-0.0396751
0.0677958
-0.256265
0.492906
-0.622305
0.129399
-0.415593
0.578768
-0.302378
-0.27639
0.0106269
0.0554344
-0.0660613
0.463333
0.138043
0.0896579
-0.327786
0.238128
-0.304554
0.167364
-0.0120477
0.680243
0.00617887
0.0712136
-0.0773925
-0.135216
-0.383616
0.518831
0.0719453
-0.546919
0.49276
-0.083082
0.670931
-0.207598
0.0869334
0.349823
-0.436756
-0.00726176
0.052728
-0.0454662
0.0867352
0.0324512
-0.119186
-0.049943
0.0435611
-0.467252
0.131118
0.0710395
-0.125357
-0.70893
0.506131
0.202799
-0.00431542
-0.04492
0.0492354
-0.594512
0.0375366
0.556975
-0.404708
0.445507
0.179539
0.309788
-0.489327
-0.594512
-0.374126
0.285156
0.0955403
-0.0216053
-0.073935
-0.124663
0.555836
-0.431173
-0.0771184
0.0877454
0.0250268
0.10084
0.618198
-0.507386
-0.110812
0.118425
-0.1477
0.0292753
-0.00261417
-0.00163158
0.00424575
0.425521
-0.260517
-0.165004
-0.000605988
0.0771877
-0.0765817
0.228658
0.35011
-0.51774
0.654223
-0.136483
0.475046
-0.295507
0.00335692
0.0296336
-0.0329906
-0.491741
0.298591
0.19315
0.0409026
0.0117729
-0.481371
-0.106823
0.588193
-0.329267
-0.262761
0.592028
0.0559109
0.0184481
-0.074359
0.0504227
-0.00952008
0.0647705
-0.245701
0.180931
0.115258
-0.102616
-0.0126422
0.571409
-0.16762
-0.317518
-0.174224
-0.490637
0.171884
0.318753
0.0730793
0.101082
-0.174161
-0.0098103
0.0768279
-0.0670176
-0.0118997
-0.115947
0.127847
-0.223084
0.168495
0.0545889
0.132699
-0.0248751
0.326343
0.42592
0.611696
0.00650194
0.0113308
0.126027
-0.137357
-0.0563126
-0.110706
0.194445
-0.0837391
0.325632
-0.235974
0.208573
-0.135494
0.577533
-0.115802
0.29199
0.100877
0.355497
0.137263
0.0036851
0.0379822
-0.0416673
0.0167643
0.321874
-0.338638
-0.275904
-0.353752
0.629657
-0.389271
0.406035
-0.335149
-0.275078
0.610227
0.239671
0.0874442
-0.327115
0.113663
0.00499423
-0.0644158
0.0715566
-0.00714087
0.521652
-0.482392
-0.0392598
-0.16381
-0.0341251
0.197935
-0.256217
-0.333071
0.589289
-0.0873027
-0.123223
0.210525
-0.0230431
-0.127864
0.150907
0.0268932
0.00355454
-0.0304477
-0.034478
-0.314081
0.348559
0.170974
-0.0312613
0.0970901
0.0181679
0.111079
0.0388667
0.0308701
-0.00635492
-0.0245152
0.436614
0.172079
-0.361796
0.327318
-0.0775071
-0.0208385
0.0983456
-0.0319522
0.000339627
0.0316126
0.137408
-0.0263289
-0.0745536
-0.14853
-0.125271
-0.0513321
0.176603
-0.0336841
0.00173189
0.0470927
-0.214647
0.167554
-0.0873261
-0.396578
0.483904
-0.510739
-0.19819
0.052528
-0.0481462
-0.00438181
0.0681966
-0.0112173
-0.0569793
-0.490088
0.330104
0.159984
0.0312666
-0.0298264
-0.00144013
-0.0513925
0.0441308
-0.0923352
0.0046362
0.087699
-0.135758
0.235389
-0.0996301
0.386167
-0.0941769
-0.186859
-0.30323
0.0753618
-0.0843404
0.00897866
-0.0820572
-0.0673699
0.149427
0.0491492
-0.156694
0.0390847
-0.00203685
-0.0370479
0.32605
0.224665
-0.634501
0.132207
0.502294
0.0521684
0.340745
-0.392914
-0.226652
0.090893
-0.477529
0.497228
-0.0196991
-0.162583
0.121271
0.0938793
0.144406
-0.0259812
-0.0060765
0.0692354
-0.128669
-0.0961387
0.392231
-0.540653
0.148421
-0.0273167
0.0306736
-0.0448176
-0.0498555
-0.0731382
0.078545
-0.00540681
0.0826686
-0.00730688
0.598122
-0.205395
-0.392727
0.324794
-0.0851231
-0.258217
0.638325
-0.380108
-0.54315
0.0602999
0.48285
-0.621368
0.0821616
0.177967
-0.0338579
-0.14411
-0.216815
0.088146
-0.0513193
0.437238
-0.385918
0.427599
-0.478918
0.19911
0.226411
0.151855
-0.474048
0.322193
-0.676059
0.471174
0.204885
-0.13441
0.113833
0.142715
0.0776194
-0.220334
0.509513
-0.183462
-0.750815
0.285598
0.465218
-0.639873
0.476793
0.16308
-0.0156016
0.102337
0.309461
0.122125
-0.431586
-0.506327
0.381664
-0.158137
-0.385013
-0.00259186
0.0707885
-0.073385
-0.0808715
0.738562
-0.319019
-0.419543
0.387828
-0.505789
0.117961
0.551274
-0.533327
-0.0179465
0.00389495
-0.176427
0.42978
0.186546
-0.616326
0.15413
-0.6355
-0.083937
0.330663
0.407899
0.0389782
-0.0509603
0.0119822
0.00952494
0.0213452
0.412735
-0.309434
-0.103301
-0.487112
0.621912
-0.1348
-0.0578604
-0.366886
0.424747
-0.0331948
0.0334133
-0.000218559
0.637701
-0.492304
-0.145397
0.0052799
-0.0784181
0.360995
0.148518
-0.231159
0.242666
-0.0115071
0.504627
0.0466461
-0.431029
0.138316
0.292713
-0.547977
0.672811
-0.124833
-0.130771
0.023826
0.106945
0.571262
-0.513991
-0.0572703
0.0720761
-0.0994157
0.477536
0.0493824
-0.526918
0.00493152
0.173036
-0.241381
0.0569923
0.184389
0.610498
-0.550198
-0.147138
0.456599
-0.0887164
-0.0017081
0.0609711
0.549527
0.00465563
0.0344291
-0.0686555
0.235285
0.0625267
-0.0650861
0.00255935
0.18561
0.515319
0.0810187
0.0920547
-0.173073
0.116266
-0.0452492
-0.0710166
0.512855
-0.125027
-0.30304
-0.336833
0.021663
0.0976515
0.126154
0.286581
-0.116483
0.0247167
0.091766
0.108202
-0.0757509
0.578307
-0.442873
-0.135435
0.307838
-0.197868
-0.10997
0.131036
-0.22095
0.089914
-0.00651277
0.0377793
0.0695634
-0.180269
0.0054553
0.0897234
0.115191
-0.038475
-0.0918877
-0.000447552
-0.261978
-0.116107
-0.0163762
0.132483
0.11745
-0.12935
-0.170094
0.0349193
0.0919939
-0.383384
0.291391
-0.0560298
-0.432474
0.488504
-0.0250144
0.434498
-0.409484
-0.144794
-0.453751
0.397722
0.413917
-0.2416
-0.172317
0.412223
0.109964
0.014326
-0.12429
-0.207058
-0.1686
-0.0971548
0.265754
0.163267
-0.250791
0.0875241
0.615302
-0.554331
-0.265692
0.385762
-0.12007
-0.465428
0.378102
0.0477421
-0.00876395
-0.107654
-0.199511
0.307165
0.106814
0.0126802
-0.119494
0.632848
-0.128221
-0.130262
-0.00601399
0.136276
-0.138903
0.0229558
-0.0832572
-0.0440974
0.0523333
0.562969
0.568964
-0.0760579
0.261522
-0.175167
-0.086355
-0.324803
0.146157
0.178646
-0.0305643
0.0362259
-0.00566156
0.09823
0.15563
0.0911576
-0.106759
-0.0520845
-0.180902
0.232987
-0.140647
-0.487048
0.318276
-0.0586403
-0.259636
0.117676
-0.0785121
-0.254186
0.0855868
0.191556
0.479375
-0.0445999
-0.00679257
0.105831
-0.178124
0.0722932
-0.200554
-0.124249
-0.0742956
0.119912
-0.0709747
-0.00385973
0.0748344
-0.00903215
-0.154778
-0.53883
-0.0120137
0.550844
-0.0671788
0.00276307
-0.110618
0.00800184
0.248146
0.165771
-0.0678069
0.0630519
0.004755
0.174634
-0.269788
0.0951539
-0.0322067
-0.000988022
0.120518
-0.1104
-0.0101177
0.146242
0.486606
-0.113023
0.287657
-0.393294
0.517964
-0.12467
-0.136867
0.625238
-0.0563652
-0.059564
0.115929
0.335639
0.114825
-0.450464
0.138023
-0.0524071
-0.10277
-0.373861
0.0485891
0.385909
0.320712
0.0232871
-0.343999
0.0418281
0.00422892
0.170722
-0.0648915
-0.336104
-0.0690384
0.405142
-0.614177
0.363734
-0.386609
0.120918
-0.0581633
-0.00486267
0.063026
-0.484503
-0.302338
0.0619523
-0.398056
0.585623
-0.53329
0.00128078
0.109306
0.235958
-0.345264
0.551437
-0.0871796
0.131799
0.129251
-0.26105
0.0485137
0.537109
0.085149
0.515825
-0.600974
0.239488
-0.0360203
-0.203468
-0.0568374
0.454225
-0.397388
-0.604609
0.466709
0.137899
-0.458075
0.401238
0.578438
-0.578438
-0.0174921
0.316083
0.101086
0.00572834
-0.13162
0.0573244
-0.00319992
0.177674
-0.174475
0.135204
0.149845
-0.0771675
-0.0792587
0.156426
0.417875
0.203305
-0.62118
-0.690014
0.523816
0.166197
-0.199241
0.281548
-0.082307
-0.309437
-0.121593
0.135609
-0.528903
0.0341716
0.0835047
0.2935
-0.42581
0.132309
0.0453578
-0.0496732
-0.674111
0.355092
0.204556
-0.0735197
-0.0846511
-0.0320611
0.116712
-0.416839
-0.0328063
0.00224197
0.267847
-0.220747
-0.0470995
0.190725
0.13407
0.491582
-0.0140462
-0.072364
0.20458
-0.11383
-0.0907496
0.0452446
-0.0357196
-0.0216001
0.132432
-0.110832
0.104581
-0.405781
0.301201
-0.480393
0.363257
0.117136
0.417453
-0.279137
0.450764
-0.612033
0.161269
0.469964
-0.621552
0.151588
0.0551145
-0.254355
0.437855
-0.286
-0.194731
0.26525
-0.0705186
0.554371
0.139854
-0.445026
0.135589
-0.0645668
0.0639608
-0.0480823
0.0517674
0.0942013
0.00133903
0.523444
0.12359
-0.647034
-0.0878393
-0.0634557
-0.133435
0.250424
-0.390598
0.140174
0.614331
-0.565817
0.331876
-0.0341288
-0.297747
-0.269802
0.00418367
-0.235269
0.109936
0.125332
-0.38166
-0.103921
0.485582
-0.0629578
-0.0826506
0.145608
-0.310677
-0.326498
0.535436
-0.105656
-0.269545
0.0300434
-0.224774
-0.304969
-0.423431
0.0553274
-0.166961
0.111634
-0.242025
0.265157
0.121011
0.261827
-0.31113
-0.0844348
-0.13874
0.223175
-0.439463
0.310273
0.12919
0.0362402
0.57809
-0.337164
0.431333
-0.0941687
0.0491027
-0.224576
0.175473
0.432477
-0.096838
-0.0935084
0.175295
-0.0817871
0.589951
-0.340602
-0.249349
-0.0814745
-0.0492969
-0.401573
-0.272538
0.405006
-0.0842942
-0.59976
0.570875
0.0288851
0.368437
-0.259131
0.546108
-0.550176
-0.167179
0.110814
0.0038824
-0.0702249
0.0663425
0.318784
0.271166
0.338278
0.151529
-0.489807
0.048069
-0.00243528
0.63476
-0.489012
-0.145748
-0.420634
-0.213866
-0.341014
0.489752
-0.148738
-0.630742
0.630742
-0.0934464
0.0931916
0.00025481
0.110621
-0.451635
0.083167
0.258564
-0.341731
-0.18669
-0.00699808
0.165256
-0.158258
0.279447
0.0225333
0.00550275
-0.12543
0.137465
-0.0120344
-0.071349
0.0635833
0.00776563
0.548313
-0.130438
0.444907
-0.151407
0.0810259
-0.158193
-0.601319
0.0737418
0.106313
-0.598617
-0.0926567
-0.17829
0.227393
0.135358
-0.0800303
-0.0770322
0.441238
-0.364206
0.262962
-0.456009
0.193047
-0.529737
0.00861866
0.0366259
-0.423011
0.127384
0.295627
0.00123498
-0.072584
0.283402
-0.0926776
0.112255
-0.0875379
-0.576821
0.432991
0.14383
-0.0442299
-0.0055402
0.0497701
0.464022
-0.201059
0.0559655
0.00792805
0.134641
-0.543235
0.063207
-0.0338559
0.395037
-0.467213
-0.0348221
0.105862
0.507938
0.0137134
0.219612
0.123784
-0.343395
0.0550124
0.00819463
0.0633869
-0.052029
-0.0113579
0.0213016
0.366543
-0.443575
0.219784
-0.222983
-0.0889546
0.286874
-0.0383149
-0.248559
0.212422
-0.165329
0.247986
0.0702905
-0.0547335
-0.122818
0.387975
-0.0888102
-0.38536
0.578632
-0.193272
0.100972
-0.122572
-0.537583
0.0198427
-0.467719
0.332504
0.0632056
-0.142464
0.378707
-0.29554
-0.0781894
-0.0457922
0.123982
-0.444566
-0.123084
0.567649
-0.565183
0.372112
0.193071
-0.0410453
0.0488387
-0.00779348
-0.420153
-0.296857
0.0725493
-0.233936
0.161386
-0.123231
0.134561
-0.621187
0.200857
0.42033
-0.252864
0.329873
-0.0770096
-0.318947
0.418324
-0.0993765
-0.0706508
0.469495
-0.398844
0.423062
-0.596924
0.173862
-0.487112
0.416461
0.156171
0.261281
0.095205
-0.442565
0.34736
-0.0177098
0.257198
0.237081
0.00315519
-0.240236
-0.167118
-0.290268
0.457387
0.343904
-0.124292
0.389428
-0.157543
-0.231885
-0.134056
-0.086098
0.220154
-0.0694456
0.404251
-0.000913957
-0.0572494
0.333932
-0.461719
0.127787
-0.0758559
0.5993
-0.384108
0.265415
0.118692
-0.401582
-0.109452
0.511035
0.614278
-0.589905
-0.0243733
-0.537378
0.28116
0.0157956
-0.0933027
0.236294
-0.160679
-0.0756146
0.0244534
0.0918123
-0.611997
0.0731667
-0.348363
0.443568
0.554297
-0.131236
-0.053301
-0.18808
0.315624
-0.228579
-0.0870452
0.0411443
-0.46188
0.420736
-0.0813127
0.0715024
0.361232
-0.215075
-0.600906
0.474681
0.126225
-0.00429387
0.0339275
0.240182
-0.569449
-0.416931
0.276673
-0.388894
0.112222
-0.104114
-0.0261481
-0.126024
0.459956
-0.221746
0.137311
-0.159386
0.0964281
0.0677023
-0.00517559
0.109305
-0.216457
0.107152
-0.00631814
-0.00601594
0.164083
-0.158067
0.0949439
0.192247
-0.28719
-0.198904
0.0415876
0.157316
0.175444
0.339209
0.111586
0.0929934
-0.173152
-0.393365
0.500684
-0.162406
0.0718385
0.00498932
-0.00306812
-0.0491095
0.0521776
0.0958826
-0.0691626
-0.02672
0.0769003
0.0117707
0.0516162
0.550777
-0.32504
-0.225736
-0.00293326
0.0321659
-0.0364598
-0.125385
0.260589
-0.00638107
-0.058705
-0.171162
-0.027742
0.190285
-0.305932
0.115647
0.0122021
0.442023
0.585222
-0.134458
0.440013
0.132715
-0.572727
0.0149632
-0.115587
0.100624
-0.0500208
0.265583
-0.215562
0.0261756
-0.0995606
0.670369
-0.507886
-0.162483
-0.40897
0.131324
0.277646
-0.190649
0.0347505
0.18109
0.0867566
-0.324846
-0.261471
0.586318
-0.164049
-0.0529171
0.216966
0.27953
0.0604306
-0.33996
0.245635
0.305142
0.537322
0.0185138
0.0466926
-0.0630393
0.0163467
0.193588
-0.518434
-0.0598304
0.296911
0.16278
-0.496071
0.33329
-0.441549
0.133829
0.227404
0.356467
-0.0866423
-0.269824
0.129131
0.0923937
-0.221525
-0.0194425
-0.00599922
0.0254418
0.08512
-0.103918
0.0187975
0.0403868
0.00419811
-0.0445849
-0.0709042
-0.034476
0.10538
0.409989
0.144309
0.361624
-0.0849516
0.324515
0.0716171
-0.396132
0.221702
-0.271723
-0.543845
0.142263
0.279158
0.0773086
0.20905
0.445173
-0.130942
-0.39373
0.300545
0.0619555
-0.0525092
-0.0094463
-0.00418573
-0.0228342
0.02702
-0.0255842
-0.0080999
-0.638512
0.47986
0.158652
-0.274781
0.0142642
-0.0876837
0.45524
0.142566
-0.597806
-0.152427
0.129384
0.572993
-0.163004
-0.147024
-0.0384533
0.185477
0.153397
0.0828969
0.0980119
-0.138744
0.0407319
-0.63288
0.174176
0.458704
0.12172
-0.613691
-0.415914
-0.216966
0.0395448
0.0591475
0.240005
0.0119134
-0.251918
0.167726
0.0434018
-0.211127
0.46365
0.0523122
-0.515963
0.297219
-0.106934
0.117907
-0.0917319
-0.152224
0.592237
0.0466468
-0.124836
-0.20178
-0.237682
0.618491
0.0590305
0.00825794
-0.0672884
0.0516469
0.0454387
-0.0970856
-0.00546441
0.0508222
-0.105726
-0.500037
0.116421
0.0959156
-0.659843
0.174057
0.485785
-0.0450089
0.184019
-0.13901
-0.0638918
0.227159
-0.131783
0.299754
-0.281586
0.233967
-0.333288
0.0993208
0.241755
0.0738697
-0.591595
0.551721
0.0398748
0.150039
-0.484848
0.334808
-0.0741422
0.00316747
0.0277462
0.441749
0.39044
0.207682
-0.149784
0.522086
-0.372302
-0.0740101
0.241736
0.00316711
-0.00375292
-0.199901
-0.134699
0.0764407
0.00622799
0.451878
-0.63518
0.183303
0.103845
0.0972585
0.476419
-0.617247
0.140828
-0.511174
0.361389
0.618609
-0.166732
0.00862643
0.0711775
-0.212265
0.109113
0.103152
-0.0750598
0.315064
-0.406203
-0.311268
0.0110245
0.408623
-0.419647
-0.0263056
0.13627
0.0605713
-0.224621
-0.0313617
0.27506
-0.243698
-0.00715274
0.138338
0.1695
-0.58227
0.247121
0.52784
-0.0110226
-0.114408
-0.404416
-0.281061
0.249699
-0.0155105
0.0622031
-0.04512
0.0967669
-0.434134
-0.00289132
-0.215633
0.260099
-0.0444655
-0.011268
-0.0980885
0.179107
-0.121697
0.356604
-0.234907
-0.0651756
0.069058
0.0326177
-0.00326761
-0.0293501
-0.084271
0.0626657
0.286932
-0.60386
0.316928
0.498297
0.000944957
0.000976632
-0.00192159
0.300852
-0.109018
-0.191834
0.0824857
-0.116962
0.339027
-0.246005
-0.0930215
-0.225252
0.0940091
0.131243
0.373655
-0.196395
-0.17726
0.495786
-0.188138
-0.307648
-0.378357
0.282032
0.0963252
0.246122
-0.199015
-0.0471076
0.321785
-0.0878176
0.00469453
0.0843344
-0.0890289
0.379995
-0.638792
0.460049
0.178743
-0.297816
0.639613
-0.341797
-0.00841606
0.0848567
-0.0688586
-0.16641
0.182014
-0.234099
-0.347973
-0.274332
-0.312206
-0.354859
0.190046
0.00598875
-0.623978
-0.104484
-0.0710562
0.17554
-0.0202588
0.118271
0.162629
-0.460445
0.105516
-0.0203963
0.575889
-0.538352
-0.155816
0.0286027
-0.156467
0.196868
0.437892
0.422118
-0.17667
-0.245448
-0.256684
-0.381829
0.0962436
-0.0877106
-0.00853293
0.174978
-0.62124
0.446262
0.210533
-0.200212
-0.0103211
0.285195
-0.190251
0.178134
0.0833873
-0.170655
0.214057
0.195932
-0.41099
0.215057
0.0610415
-0.134551
-0.116241
0.0711115
-0.0131427
-0.0579688
-0.156214
0.25414
-0.0979265
0.481264
0.00182013
0.0576667
0.0332384
-0.0346024
0.00136398
-0.156264
-0.239177
0.395441
-0.462974
0.129462
-0.560282
0.43082
-0.0313449
0.0271592
-0.110031
0.124357
0.271345
-0.117949
0.184758
0.289606
-0.474364
-0.229877
0.192455
0.088697
-0.281152
0.0180812
-0.165105
0.0302276
0.00239015
-0.600206
0.493384
-0.338468
0.216771
0.00669685
0.0651104
-0.528836
0.432883
-0.158522
0.244541
-0.0860194
-0.0798003
-0.306304
0.100289
0.206015
0.457433
-0.272675
0.304544
-0.471663
-0.00295471
0.0471464
-0.0441917
0.359824
0.159008
0.08635
-0.121477
0.0117765
0.109701
0.361491
0.139194
-0.530388
0.615537
0.101333
-0.16003
-0.380623
-0.745967
0.29277
0.453197
-0.0852426
0.195844
-0.110601
0.018506
-0.101763
-0.100679
-0.610196
0.185696
0.424501
0.356195
-0.304026
-0.0880215
-0.13723
0.204342
-0.311996
-0.000713457
0.0339519
0.0460618
0.532377
-0.314016
-0.42932
-0.195331
0.624651
-0.0493588
0.443154
-0.585878
0.142724
-0.0643795
-0.438431
-0.307536
0.0670204
-0.0608415
-0.00853433
-0.105296
-0.634842
0.189564
0.445278
-0.170222
0.0767134
-0.00393733
0.0751509
0.343854
-0.274903
-0.0689512
0.0873637
-0.00603583
0.0156762
-0.00964038
-0.0761341
-0.00855257
0.0846867
0.110855
-0.0958917
0.111818
0.00869931
0.0241836
0.0120423
-0.132375
0.224769
0.0918833
0.101373
0.073922
-0.00292249
-0.0165201
0.477312
-0.158004
-0.319308
-0.0119862
0.0499683
0.204307
0.041815
-0.0933761
0.285831
0.287013
-0.109339
-0.104578
0.100956
-0.391988
0.291031
0.12518
-0.0116715
-0.113508
-0.0136969
0.211097
-0.1974
0.590871
-0.13563
0.275625
0.113802
-0.1313
0.194815
-0.0635153
-0.149957
0.0825869
-0.127593
0.0429416
0.138569
-0.508498
0.369929
0.368625
-0.654598
0.285973
-0.415293
0.56982
-0.154527
0.289852
0.132267
0.0823078
-0.463968
0.240577
0.131847
-0.137863
-0.415167
0.0457855
0.194913
-0.240699
0.130673
-0.139207
-0.40694
0.59841
-0.19147
0.0448437
-0.260477
-0.0585418
-0.421671
0.545335
-0.123664
-0.215782
-0.383978
0.295131
-0.163332
0.00383134
0.000911021
-0.00474236
0.607356
-0.132676
-0.0369036
-0.0374554
0.361703
-0.567098
-0.379531
0.287114
0.0924172
-0.572793
0.0597161
0.513077
0.45721
-0.097386
0.0745997
-0.0784594
0.127269
-0.00981843
-0.20011
0.114868
0.195645
-0.320865
0.12522
-0.127018
0.522099
-0.395081
0.268968
-0.265911
-0.584009
0.177068
0.167266
0.119747
-0.255006
-0.37888
0.0025521
-0.0552839
0.518934
0.242346
0.101508
0.236661
0.136994
0.227762
-0.241459
-0.602544
0.462208
0.140335
-0.066098
0.097862
-0.031764
-0.169401
-0.118707
-0.361686
0.506716
-0.331272
0.127494
0.0073485
0.370183
-0.104767
-0.553862
0.286885
-0.112039
0.362463
-0.164153
0.0767146
0.087438
0.145943
-0.181964
-0.0112803
0.0783006
0.237734
-0.279699
0.041965
-0.511499
0.208459
-0.471639
0.314631
0.157008
-0.000387218
-0.00245207
0.00283929
0.296596
-0.110553
-0.186042
0.0997308
0.0910561
-0.190787
-0.0272195
-0.0883679
0.0525667
-0.0654061
0.0128393
-0.0111848
-0.0501504
0.0613352
-0.11086
-0.017234
0.128094
0.145229
0.332083
0.0831956
-0.181284
0.0460377
-0.00565088
0.156646
-0.0306193
-0.108501
-0.107387
-0.0315784
0.00599417
0.303444
0.0266598
-0.0184219
-0.184573
0.0966947
0.0988253
-0.287553
0.188728
0.206981
-0.062063
-0.144918
0.58975
-0.22841
-0.36134
0.227093
-0.360245
-0.0749068
0.28998
-0.399583
0.109603
0.27816
0.0844519
-0.362611
0.419743
-0.129892
0.0331033
-0.0443207
0.442794
0.105519
0.473126
-0.0310886
-0.442037
0.00460886
0.0234287
0.00495495
-0.0283837
0.180438
0.438172
-0.254473
0.402773
-0.148301
0.521716
-0.0333424
-0.488373
0.224846
-0.30182
0.0769731
-0.00781999
0.0499046
-0.0420846
-0.0769585
-0.156977
-0.167094
0.0231921
0.219804
-0.242996
-0.472981
-0.161861
-0.614404
0.229044
0.191443
-0.188288
-0.25226
0.0713578
0.227301
-0.0704841
-0.583604
0.440163
0.143441
0.474953
-0.0337147
0.0496763
-0.30254
0.0720217
0.227801
-0.299822
0.137762
-0.555876
0.418115
-0.0765713
-0.00776182
0.0843331
0.36672
-0.24326
-0.12346
0.304644
-0.108999
-0.145005
-0.313743
0.458748
0.0129591
0.0832845
-0.157204
0.217776
0.605592
-0.171876
-0.433715
-0.460203
0.130095
0.170757
0.205317
-0.463534
0.115961
-0.32857
0.212609
0.069626
-0.176636
0.10701
0.100146
0.37298
-0.0831906
0.00705648
-0.531321
0.10965
-0.122219
0.598638
-0.432203
0.569965
0.635667
-0.119842
0.399699
-0.509151
0.122309
-0.0972819
0.132238
-0.00665469
-0.125584
0.0343237
-0.031798
-0.00252569
-0.223553
0.091178
-0.144126
0.162838
-0.0818122
-0.464531
0.285097
-0.269395
0.0814247
0.187971
-0.0846384
0.16586
-0.0812215
-0.171595
-0.134709
-0.0814178
0.0361687
-0.117411
-0.0271331
0.144545
-0.161924
0.448856
-0.0942379
0.356065
0.115916
0.439203
-0.555119
-0.0968627
0.0816724
0.0151902
0.2087
-0.364964
-0.431676
-0.0595191
0.119283
0.392914
-0.512197
0.00211699
0.123231
-0.550715
0.427485
-0.437154
0.0402555
0.590486
0.62794
-0.225514
-0.402426
0.0441638
-0.049704
0.105133
-0.266807
-0.26652
0.045987
-0.112085
0.0998451
-0.521151
0.421306
0.190045
0.437895
-0.398643
-0.11649
0.515132
-0.432646
-0.528602
0.368329
0.160273
-0.0153629
-0.155292
0.0753926
-0.39434
0.126883
0.239837
-0.00876602
0.0491512
0.0467313
-0.283657
0.175106
-0.021834
-0.507002
0.493782
-0.343743
-0.212632
-0.0765776
0.28921
-0.25855
0.401325
-0.142775
-0.00080453
0.125545
-0.124741
0.173753
-0.218748
0.289029
-0.0702814
0.11513
0.0793149
-0.371632
0.114612
0.257021
0.388964
-0.514804
0.12584
-0.572526
0.208809
0.363716
0.513883
-0.124919
0.617573
-0.464794
-0.152779
-0.292774
-0.131772
0.0997105
-0.033896
0.00108974
0.402697
0.220523
-0.482407
0.608824
-0.0164128
-0.592411
-0.590486
0.286755
0.107746
-0.394501
0.574655
-0.421683
-0.152972
-0.199459
0.0746123
-0.0325163
-0.042096
-0.126803
0.105978
0.0208248
-0.392221
-0.172962
0.0251024
0.546159
0.445565
-0.000342847
-0.0883735
0.0947866
-0.0182243
-0.0765623
0.0124555
0.112724
-0.205729
-0.390197
0.50948
0.189859
-0.321642
0.138149
0.436506
-0.272448
0.295903
-0.0234542
0.00397052
0.448216
0.160608
0.153777
0.0532042
-0.118201
0.112187
0.00852386
0.110866
-0.11939
-0.0440306
-0.00591236
0.221931
0.064943
0.244784
-0.262494
0.562455
-0.515906
-0.0465488
0.147863
-0.154862
-0.219819
-0.127744
0.347563
0.1126
-0.20335
0.00707599
-0.231623
-0.340902
0.0822183
0.0207234
-0.102942
-0.282967
0.182923
-0.458828
-0.0803517
-0.0165109
0.0496077
0.0250046
-0.445563
0.590156
-0.144593
-0.093274
0.198031
-0.104757
-0.0932206
0.456091
-0.0910665
-0.0730861
0.58962
-0.454979
0.150804
-0.176544
0.0257407
-0.462483
-0.154764
0.23766
-0.0868562
0.127894
-0.391043
0.263149
0.134423
-0.009801
0.0688315
-0.120483
-0.0443059
0.164789
-0.367295
-0.12018
0.487475
0.578263
-0.101469
-0.243241
0.315263
0.0477532
-0.0391345
0.205899
-0.0967856
-0.199184
0.154699
0.0444845
-0.0131727
-0.0992132
0.0809889
0.0218387
-0.000815049
-0.119668
-0.0723913
-0.011674
0.0840653
-0.577957
0.151534
0.426422
-0.349157
-0.109548
0.458705
-0.0428015
-0.33435
-0.216348
-0.0560152
0.272363
0.320304
-0.419282
0.552891
-0.133609
0.499618
-0.0568244
-0.221382
0.244575
-0.00179953
0.0344937
-0.0326942
0.0525513
-0.0146385
-0.0379129
-0.0766365
-0.0564175
0.0910953
0.230689
0.127259
0.413811
-0.541069
0.0112462
0.225831
-0.104991
-0.12084
0.0850414
-0.223781
-0.222853
0.305871
0.113872
-0.219007
0.161351
0.0576558
0.0658745
-0.174404
0.108529
0.0126333
-0.117391
0.104758
-0.275932
-0.0320477
0.307979
-0.119138
0.0615825
0.00952903
0.134244
-0.135059
0.0482766
-0.279998
0.231722
-0.0426258
0.28741
-0.180374
-0.210224
0.383734
-0.290067
-0.0936675
0.179882
-0.122889
-0.101372
0.160389
0.477937
-0.209092
0.0888994
0.120193
-0.168507
0.0774403
0.233171
0.109423
-0.429758
-0.448905
0.595777
-0.146871
0.0957506
0.0529142
-0.0487161
0.255022
-0.0635792
-0.310881
0.424919
-0.114037
-0.00900212
-0.547911
0.556913
-0.122497
-0.255861
-0.496451
-0.0283116
0.524763
0.00666226
0.115647
-0.01581
-0.0755396
-0.197725
0.273264
0.330814
-0.0884681
0.412268
-0.1572
-0.255068
-0.067535
-0.409547
-0.0797844
0.0844789
-0.11043
0.239681
0.198269
-0.0968955
-0.122466
0.198642
0.0862019
-0.0720866
-0.0141154
0.0864463
0.188087
-0.0842415
-0.122309
0.231614
-0.257596
-0.114037
0.131289
-0.0270948
-0.0997079
0.453336
0.161108
-0.614444
0.0335759
-0.493664
0.460088
0.48374
-0.122249
0.553067
-0.56508
-0.580047
0.11037
-0.116412
0.583122
-0.0536221
0.0505539
0.470715
-0.615141
0.144426
0.121482
0.435219
-0.556701
-0.00987142
0.0624381
-0.127796
-0.435423
0.563219
0.133933
0.278335
0.0473026
-0.052767
0.00318418
-0.203738
-0.409282
0.610139
-0.440173
0.293034
0.0609171
0.144585
0.372115
-0.5167
0.628351
-0.0679956
0.0769743
-0.439463
0.560945
-0.112349
0.409292
0.108672
0.00277989
0.185883
-0.102687
0.227994
-0.0916759
-0.136319
0.413691
0.151263
-0.564954
0.176887
-0.0116309
-0.471645
0.614869
-0.143224
0.509394
-0.393478
0.0350587
-0.0332883
-0.00177044
0.572989
-0.159298
0.155902
0.517472
-0.10818
-0.169645
0.436439
-0.266794
0.0761679
0.232923
-0.309091
0.284967
-0.520377
0.235409
-0.524427
0.221463
0.302964
0.121622
-0.566188
-0.0191316
0.375326
0.5037
-0.22041
-0.283291
-0.0470847
0.0547868
-0.00770218
-0.652825
0.263587
0.389238
0.596828
-0.421483
-0.175345
-0.444181
-0.109585
0.553766
-0.308602
0.226186
0.0824157
0.126821
-0.0208431
0.43295
0.0761827
-0.509132
0.0642083
0.353215
-0.208729
0.564473
-0.355744
0.00197372
-0.168887
0.238881
-0.0699944
0.426024
-0.553819
-0.22136
0.37747
-0.476455
0.0989845
0.0378728
-0.0370442
-0.000828689
-0.155695
-0.110309
-0.106148
0.0268527
0.131438
-0.158291
0.0239276
-0.141339
0.526417
-0.426571
-0.389509
0.511749
-0.12224
0.44758
0.149248
-0.383975
0.29121
0.0927653
-0.345919
-0.0904923
0.436412
-0.221096
-0.118845
-0.467768
0.586613
0.0861541
-0.13046
-0.512617
0.113974
-0.15813
-0.0608772
0.136795
-0.137803
-0.305709
0.443512
-0.157801
0.481894
-0.324093
-0.250711
0.382034
0.295827
-0.577332
0.230675
0.346657
-0.519654
0.392636
0.0516518
-0.00748794
-0.352118
0.252599
0.0995188
-0.0101558
-0.098702
0.108858
0.63013
0.0462332
-0.528357
0.519355
0.0746367
-0.078574
-0.59104
0.472195
0.0819455
-0.427865
0.404848
-0.117733
0.0591259
-0.0353157
-0.0238102
0.487157
-0.0122038
0.0793197
-0.0671159
-0.574875
0.343251
-0.328598
-0.251202
0.0683611
0.182841
-0.135792
0.561815
-0.424594
0.286791
-0.178172
0.562856
-0.384684
-0.0108607
0.113419
-0.102558
0.488091
0.345501
-0.454657
0.109156
-0.243693
0.322201
-0.078508
-0.278578
-0.0780777
0.239429
0.0820899
-0.0422272
0.0362279
-0.0867512
-0.0673838
0.056199
-0.083755
0.069944
0.20874
-0.278684
-0.0214833
-0.0331468
0.0546302
0.364871
0.124374
-0.468655
0.614013
-0.145358
-0.119493
-0.397994
0.517487
-0.43149
-0.0907393
0.522229
-0.17879
0.0970527
-0.14244
0.0786021
-0.183021
0.23929
-0.056269
-0.353506
-0.159111
-0.605425
0.0956499
0.201569
-0.214992
0.288857
-0.0738651
-0.344645
-0.294147
-0.291855
-0.360969
-0.436133
0.572665
-0.136532
0.43014
0.142848
-0.188712
0.0568856
0.131826
0.152035
-0.505541
-0.00429764
0.0652147
0.424189
-0.559981
0.184323
-0.259862
0.4274
0.190173
0.135024
-0.390883
0.255859
-0.079991
0.179722
-0.134337
0.509708
-0.375371
0.124427
-0.237613
0.287289
0.562793
-0.422095
-0.140698
0.293614
-0.0798889
0.254542
-0.016808
0.0662136
0.246756
-0.31297
0.371045
-0.0971746
0.324267
0.0890733
-0.095954
0.0068807
0.0120413
-0.58563
0.417247
0.168383
-0.0123919
-0.0943248
0.106717
0.185221
-0.119347
-0.235896
0.0670088
-0.186259
-0.216842
0.269958
-0.0531155
0.289751
0.109219
-0.39897
0.0140326
0.104605
-0.118638
-0.135307
-0.426736
0.562043
0.00894855
0.0803604
-0.089309
0.0755375
-0.0832993
-0.265881
0.0857083
0.180173
-0.480438
0.313343
-0.133399
0.439078
0.123715
-0.505732
0.371395
-0.128797
0.117126
-0.0729636
0.128821
-0.548103
-0.720791
0.270071
0.45072
0.413393
-0.364635
0.590781
-0.16064
0.0729374
0.0849577
-0.157895
-0.0177063
-0.108811
0.126517
-0.224379
0.0681646
0.101556
-0.457188
0.355632
-0.421253
-0.00629096
-0.0512908
0.0575817
0.259181
-0.37122
0.00619978
0.0745334
-0.0807332
0.0800649
-0.00546529
0.0835852
-0.0209363
0.103155