/*--------------------------------*- C++ -*----------------------------------*\
| =========                 |                                                 |
| \\      /  F ield         | OpenFOAM: The Open Source CFD Toolbox           |
|  \\    /   O peration     | Version:  v2012                                 |
|   \\  /    A nd           | Website:  www.openfoam.com                      |
|    \\/     M anipulation  |                                                 |
\*---------------------------------------------------------------------------*/
FoamFile
{
    version     2.0;
    format      ascii;
    class       surfaceScalarField;
    location    "350";
    object      phi_0;
}
// * * * * * * * * * * * * * * * * * * * * * * * * * * * * * * * * * * * * * //

dimensions      [0 3 -1 0 0 0 0];
oriented        oriented;


internalField   nonuniform List<scalar> 
20823
(
0.129797
0.0265518
-0.156349
0.253888
-0.155908
-0.0979805
0.668195
-0.0930146
-0.57518
0.602523
-0.119589
-0.482934
0.614226
-0.0529877
-0.561238
0.506646
-0.377152
-0.129494
-0.476616
0.325816
0.285849
0.102966
-0.388815
0.550716
0.0518067
0.150274
-0.010462
-0.139812
0.633647
-0.565978
-0.067669
-0.1482
0.149946
-0.00174639
0.209441
-0.340801
0.13136
-0.133153
0.342594
-0.7284
0.423372
0.305028
0.139713
-0.215888
0.0761756
-0.319556
0.204155
0.115402
-0.0273426
0.0798178
-0.0524752
0.356278
0.00305687
-0.359335
-0.188469
0.312437
-0.123969
-0.107513
0.196035
-0.0885224
-0.00999918
-0.138201
-0.0205778
0.134844
-0.114266
0.039652
0.574574
0.488369
0.145278
-0.0931854
0.449464
0.118657
-0.119011
0.000354121
0.119314
0.107828
-0.127355
0.0195264
0.0169
0.0881119
0.149159
-0.199766
0.0506062
0.392873
-0.107024
0.125866
-0.0947111
-0.0311554
-0.0204259
0.156816
-0.13639
-0.135194
0.201132
-0.0659377
-0.539206
-0.0721759
0.611382
-0.0876342
0.0677681
0.0198661
0.16239
-0.0121158
-0.250443
0.694225
-0.443782
-0.0493034
0.30198
-0.252677
0.0856078
-0.133054
0.0474458
-0.224807
0.117295
0.791989
-0.407096
-0.384893
0.700928
-0.261885
-0.439044
0.752264
-0.337031
-0.415233
0.356002
0.435987
0.0508067
-0.0472701
-0.00353661
0.409678
0.096968
-0.154257
0.0909422
0.063315
0.115124
-0.0703852
-0.044739
-0.13719
-0.220744
0.357934
-0.00406735
-0.527578
0.531645
-0.0901709
0.0293538
0.060817
0.127282
-0.0887078
-0.0385738
-0.19442
-0.125136
-0.239391
-0.10141
0.0631574
-0.0946747
0.0315173
0.0767494
-0.151322
0.0745724
0.127054
-0.14748
-0.0559926
0.205152
-0.627695
0.496765
0.13093
0.0313172
0.083807
-0.107545
-0.0402406
0.147786
-0.408594
-0.179434
0.588028
0.403789
-0.650043
0.246254
-0.474973
-0.0959528
0.570926
-0.0373164
0.167113
-0.0543171
0.103014
-0.0486969
0.601375
-0.491968
-0.109407
0.0418842
-0.241197
0.199313
0.461731
-0.667065
0.205334
-0.637175
0.274305
0.362871
0.0526733
-0.00186665
0.16663
0.167971
-0.334601
0.179431
0.0335822
0.608692
-0.172072
-0.43662
-0.0889692
-0.277572
0.366541
0.217309
-0.175424
-0.0889974
0.116055
-0.0904222
0.0986923
-0.00827003
-0.771595
0.357854
0.413741
-0.106419
0.0174214
-0.0482408
-0.04193
-0.336134
-0.151874
0.488009
0.040799
-0.534364
0.493565
0.464257
-0.66767
0.203413
-0.441135
0.334806
0.106328
0.0391613
0.0881203
-0.00638218
0.0460532
-0.039671
0.0677958
-0.256265
0.492906
-0.622305
0.129399
-0.415593
0.578765
-0.302377
-0.276388
0.0106288
0.0554365
-0.0660653
0.46333
0.138045
0.0896702
-0.327778
0.238108
-0.304554
0.167364
-0.0120477
0.680243
0.00617963
0.0712163
-0.077396
-0.135216
-0.383616
0.518831
0.0719453
-0.546919
0.49276
-0.083082
0.670928
-0.207598
0.0869335
0.349823
-0.436756
-0.00726212
0.0527255
-0.0454633
0.086736
0.032451
-0.119187
-0.0499377
0.0435555
-0.467252
0.131118
0.0710399
-0.125357
-0.70893
0.506131
0.202799
-0.00431625
-0.0449179
0.0492342
-0.594512
0.0375366
0.556975
-0.404708
0.445507
0.179505
0.3098
-0.489305
-0.594512
-0.374126
0.285156
0.0955409
-0.0216068
-0.0739341
-0.124663
0.555836
-0.431173
-0.0771272
0.087756
0.025027
0.100839
0.618198
-0.507386
-0.110812
0.118425
-0.147701
0.0292752
-0.00261416
-0.00163131
0.00424547
0.425521
-0.260517
-0.165004
-0.000603207
0.0771858
-0.0765826
0.228656
0.35011
-0.51774
0.654223
-0.136483
0.475029
-0.295524
0.00335687
0.0296335
-0.0329904
-0.491741
0.298591
0.19315
0.0409004
0.0117729
-0.481371
-0.106823
0.588193
-0.329267
-0.262761
0.592028
0.0559074
0.0184503
-0.0743577
0.0504209
-0.00952055
0.0647705
-0.245701
0.180931
0.115258
-0.102616
-0.0126418
0.571409
-0.16762
-0.317518
-0.174224
-0.490634
0.17188
0.318754
0.0730791
0.101082
-0.174161
-0.00981161
0.0768371
-0.0670255
-0.0118995
-0.115948
0.127848
-0.223084
0.168495
0.0545889
0.1327
-0.0248721
0.326341
0.425923
0.611696
0.00650194
0.0113309
0.126027
-0.137358
-0.056317
-0.110683
0.194427
-0.0837441
0.325614
-0.235944
0.208573
-0.135494
0.577533
-0.115802
0.291987
0.100886
0.355497
0.137263
0.00368526
0.0379831
-0.0416684
0.0167638
0.321875
-0.338639
-0.275904
-0.353752
0.629657
-0.389272
0.406036
-0.335149
-0.275078
0.610227
0.23967
0.0874441
-0.327115
0.113663
0.00499392
-0.0644132
0.0715578
-0.00714467
0.521652
-0.482392
-0.0392598
-0.16381
-0.0341251
0.197935
-0.256217
-0.333071
0.589289
-0.0873025
-0.123223
0.210525
-0.023043
-0.127864
0.150907
0.0268847
0.00355881
-0.0304435
-0.034478
-0.314081
0.348559
0.170974
-0.0312614
0.0970902
0.0181674
0.11108
0.0388665
0.0308691
-0.00635462
-0.0245145
0.436614
0.172079
-0.361796
0.327318
-0.0775082
-0.0208385
0.0983468
-0.0319518
0.000339843
0.031612
0.137408
-0.0263287
-0.0745537
-0.14853
-0.125264
-0.0513416
0.176606
-0.0336836
0.00173177
0.0470927
-0.214647
0.167554
-0.0873266
-0.396578
0.483905
-0.510739
-0.19819
0.0525239
-0.0481415
-0.00438246
0.0682008
-0.0112175
-0.0569833
-0.490088
0.330104
0.159984
0.0312561
-0.029821
-0.00143507
-0.051389
0.0441269
-0.0923363
0.00463449
0.0877018
-0.135759
0.235389
-0.09963
0.38617
-0.0941826
-0.186859
-0.30323
0.0753582
-0.0843395
0.00898137
-0.0820422
-0.0673811
0.149423
0.0491487
-0.156694
0.0390842
-0.00203699
-0.0370472
0.32605
0.224665
-0.634501
0.132207
0.502294
0.0521685
0.340745
-0.392914
-0.226651
0.0908929
-0.477529
0.497228
-0.0196991
-0.16258
0.121271
0.0938793
0.144406
-0.0259812
-0.00608067
0.0692381
-0.128669
-0.0961388
0.392246
-0.540636
0.148389
-0.0273173
0.0306741
-0.0448219
-0.0498528
-0.0731446
0.0785513
-0.00540665
0.0826674
-0.0073092
0.598122
-0.205395
-0.392727
0.324793
-0.0851229
-0.258217
0.638325
-0.380108
-0.543148
0.0602969
0.482851
-0.621368
0.0821616
0.177967
-0.033858
-0.144109
-0.216815
0.0881461
-0.0513191
0.437238
-0.385919
0.427599
-0.478918
0.199109
0.226411
0.151855
-0.474048
0.322193
-0.676054
0.471171
0.204882
-0.134411
0.113834
0.142715
0.0776193
-0.220334
0.509513
-0.183462
-0.750817
0.285599
0.465218
-0.639873
0.476793
0.16308
-0.0156013
0.102337
0.309461
0.122125
-0.431586
-0.506327
0.381664
-0.158145
-0.385003
-0.00259301
0.0707938
-0.0733847
-0.0808725
0.738564
-0.31902
-0.419544
0.387828
-0.505789
0.117961
0.551274
-0.533327
-0.0179465
0.00389459
-0.176426
0.42978
0.186546
-0.616326
0.15413
-0.6355
-0.0839368
0.330664
0.4079
0.0389751
-0.050956
0.0119809
0.00952483
0.0213443
0.412736
-0.309435
-0.103301
-0.48711
0.621914
-0.134803
-0.0578604
-0.366886
0.424747
-0.0331949
0.0334135
-0.000218614
0.637702
-0.492303
-0.145398
0.00527962
-0.0784243
0.360995
0.148518
-0.231137
0.242693
-0.0115552
0.504628
0.0466461
-0.431029
0.138316
0.292713
-0.547976
0.672811
-0.124835
-0.130747
0.0238244
0.106922
0.571262
-0.513991
-0.0572703
0.0720738
-0.0994163
0.477455
0.049439
-0.526894
0.00493191
0.173035
-0.241381
0.0569924
0.184389
0.6105
-0.550203
-0.147138
0.456599
-0.0887157
-0.0017065
0.0609679
0.549532
0.00465567
0.0344286
-0.0686555
0.235285
0.0625289
-0.0650896
0.00256072
0.18561
0.515319
0.0810185
0.0920552
-0.173074
0.116254
-0.0452482
-0.0710055
0.512855
-0.125027
-0.30304
-0.336833
0.0216627
0.0976515
0.126154
0.286582
-0.116461
0.0247155
0.0917456
0.108203
-0.075752
0.578307
-0.442873
-0.135435
0.307848
-0.197882
-0.109966
0.131036
-0.22095
0.0899141
-0.00651391
0.03777
0.069572
-0.180255
0.00545541
0.0897253
0.115208
-0.0384589
-0.0918909
-0.000445344
-0.261978
-0.116107
-0.0163761
0.132483
0.117451
-0.12935
-0.170121
0.0349265
0.0919939
-0.383384
0.291391
-0.0560303
-0.432475
0.488505
-0.0250144
0.434499
-0.409484
-0.144794
-0.453752
0.397722
0.413918
-0.2416
-0.172317
0.412223
0.109975
0.0143202
-0.124296
-0.207074
-0.1686
-0.0971548
0.265755
0.163265
-0.25079
0.0875243
0.615325
-0.554358
-0.265692
0.385762
-0.12007
-0.465429
0.378102
0.0477375
-0.00876244
-0.107654
-0.199511
0.307165
0.106814
0.0126798
-0.119494
0.632849
-0.128221
-0.130264
-0.00601321
0.136277
-0.138904
0.0229556
-0.0832503
-0.0441044
0.0523311
0.562994
0.568964
-0.0760579
0.261521
-0.175166
-0.0863553
-0.324803
0.146158
0.178646
-0.0305642
0.036226
-0.00566174
0.0982421
0.155646
0.0911582
-0.10676
-0.0520845
-0.180902
0.232986
-0.140652
-0.487043
0.318287
-0.0586564
-0.259631
0.117678
-0.0785166
-0.254187
0.0855868
0.191555
0.479373
-0.0445957
-0.00679323
0.105831
-0.178125
0.072293
-0.200554
-0.124249
-0.0742768
0.119898
-0.0709732
-0.00386035
0.0748336
-0.0090322
-0.154778
-0.53883
-0.0120137
0.550843
-0.0671785
0.0027653
-0.110617
0.00800149
0.248146
0.165772
-0.0678089
0.0630524
0.00475645
0.174634
-0.269788
0.0951539
-0.032207
-0.000987894
0.120518
-0.110401
-0.0101175
0.146242
0.486606
-0.113023
0.287657
-0.393279
0.517931
-0.124652
-0.136871
0.62524
-0.0563651
-0.0595642
0.115929
0.335639
0.114825
-0.450464
0.13802
-0.0524122
-0.102731
-0.373886
0.0485893
0.385909
0.320712
0.0232871
-0.343999
0.0418243
0.00422894
0.170723
-0.0648913
-0.336104
-0.0690384
0.405142
-0.614177
0.363734
-0.386609
0.120918
-0.0581655
-0.00486346
0.063029
-0.484498
-0.302338
0.0619524
-0.398056
0.585638
-0.533307
0.00128042
0.109305
0.23596
-0.345265
0.551437
-0.0871796
0.131801
0.129254
-0.261055
0.0485093
0.537129
0.0851503
0.515824
-0.600975
0.239488
-0.0360203
-0.203468
-0.0568374
0.454226
-0.397388
-0.604604
0.466708
0.137896
-0.458075
0.401238
0.578438
-0.578438
-0.0174921
0.316083
0.101085
0.00572873
-0.131606
0.0573293
-0.00319996
0.177674
-0.174474
0.135204
0.149845
-0.077173
-0.0792614
0.156434
0.417875
0.203305
-0.62118
-0.690016
0.523816
0.1662
-0.199253
0.281552
-0.0822984
-0.309437
-0.121593
0.135586
-0.528865
0.0341669
0.083511
0.2935
-0.42581
0.132309
0.0453549
-0.0496711
-0.674112
0.355092
0.204556
-0.0735198
-0.0846515
-0.0320608
0.116712
-0.41684
-0.0328063
0.00224206
0.267847
-0.220748
-0.0470995
0.190724
0.134069
0.491541
-0.0140858
-0.0723398
0.204579
-0.113822
-0.0907562
0.0452436
-0.0357188
-0.021602
0.132435
-0.110833
0.104581
-0.405781
0.301201
-0.480411
0.363222
0.11719
0.417453
-0.279137
0.450764
-0.612033
0.161269
0.469961
-0.621551
0.15159
0.0551063
-0.25436
0.437855
-0.286
-0.194732
0.26525
-0.0705181
0.554371
0.139854
-0.445026
0.135589
-0.0645594
0.0639562
-0.0480842
0.0517695
0.0942023
0.00133864
0.523444
0.12359
-0.647034
-0.0878392
-0.0634826
-0.133433
0.250424
-0.390598
0.140174
0.614334
-0.565824
0.331876
-0.0341288
-0.297747
-0.269802
0.00418331
-0.235268
0.109936
0.125333
-0.381666
-0.103942
0.485609
-0.0629578
-0.0826507
0.145609
-0.310677
-0.326498
0.535436
-0.105656
-0.269545
0.0300426
-0.224774
-0.304969
-0.423431
0.0553279
-0.166962
0.111634
-0.242025
0.26515
0.12102
0.261827
-0.31113
-0.0844347
-0.13874
0.223175
-0.439463
0.310273
0.12919
0.0362354
0.578098
-0.337165
0.431333
-0.0941688
0.0491027
-0.224576
0.175473
0.432477
-0.096838
-0.0935118
0.175295
-0.0817833
0.58997
-0.340601
-0.249369
-0.0814571
-0.0492894
-0.401574
-0.272538
0.405006
-0.0842942
-0.59976
0.570875
0.0288851
0.368439
-0.259134
0.546108
-0.550176
-0.16718
0.110814
0.00388576
-0.0702234
0.0663376
0.31879
0.27118
0.338278
0.151529
-0.489807
0.0480646
-0.00243443
0.634759
-0.489012
-0.145746
-0.420634
-0.213866
-0.341068
0.489813
-0.148745
-0.630742
0.630742
-0.093444
0.0931896
0.000254367
0.110626
-0.451694
0.0831671
0.258564
-0.341731
-0.18669
-0.00699797
0.165256
-0.158258
0.279447
0.0225333
0.005503
-0.12541
0.137447
-0.0120373
-0.0713453
0.0635837
0.00776161
0.548313
-0.130438
0.444907
-0.151407
0.081039
-0.158212
-0.601319
0.0737418
0.106315
-0.598619
-0.0926367
-0.17829
0.227393
0.135358
-0.0800301
-0.0770321
0.441238
-0.364206
0.262962
-0.456009
0.193047
-0.529743
0.00861882
0.0366248
-0.423012
0.127384
0.295628
0.00123825
-0.0725836
0.283402
-0.0926772
0.112252
-0.0875362
-0.57682
0.432991
0.143829
-0.0442256
-0.00553907
0.0497647
0.464022
-0.201059
0.0559778
0.00792818
0.134641
-0.543235
0.0632069
-0.033853
0.395037
-0.467213
-0.0348217
0.105862
0.507938
0.0137134
0.219612
0.123784
-0.343395
0.0550088
0.00819807
0.0633782
-0.0520233
-0.0113549
0.0213014
0.366543
-0.443575
0.219784
-0.222984
-0.0889546
0.286871
-0.0383236
-0.248547
0.212422
-0.165329
0.247966
0.0703217
-0.0547335
-0.122824
0.387974
-0.0888095
-0.385377
0.578629
-0.193252
0.100972
-0.122574
-0.537583
0.0198427
-0.467719
0.332504
0.0632089
-0.14247
0.378707
-0.29554
-0.0781895
-0.0457927
0.123982
-0.444566
-0.123084
0.567649
-0.565183
0.372112
0.193071
-0.0410417
0.0488337
-0.00779208
-0.420154
-0.296858
0.0725493
-0.233936
0.161386
-0.123231
0.134562
-0.621187
0.200857
0.42033
-0.252823
0.329862
-0.077039
-0.318954
0.41829
-0.0993363
-0.0706508
0.469495
-0.398844
0.422982
-0.596865
0.173883
-0.487112
0.416461
0.156171
0.261282
0.0952043
-0.442565
0.347361
-0.0177098
0.257198
0.237081
0.0031552
-0.240236
-0.167118
-0.290268
0.457387
0.343904
-0.124292
0.389427
-0.157543
-0.231885
-0.134056
-0.0860979
0.220154
-0.0694451
0.404251
-0.000913217
-0.0572523
0.333932
-0.461719
0.127787
-0.0758559
0.5993
-0.384108
0.265416
0.118692
-0.401582
-0.109452
0.511035
0.614278
-0.589905
-0.0243733
-0.537378
0.28116
0.0157955
-0.0933037
0.236292
-0.160678
-0.0756145
0.0244538
0.0917998
-0.611996
0.0731667
-0.348364
0.443568
0.55424
-0.131258
-0.0533011
-0.18808
0.315602
-0.228558
-0.0870437
0.0411442
-0.46188
0.420736
-0.0813196
0.071508
0.361232
-0.215075
-0.600904
0.474678
0.126226
-0.00429365
0.0339272
0.240182
-0.569449
-0.416931
0.276665
-0.38889
0.112225
-0.104114
-0.0261496
-0.126024
0.459956
-0.221746
0.137311
-0.159386
0.0964282
0.0677066
-0.00517774
0.109305
-0.216456
0.107152
-0.00631718
-0.00601606
0.164084
-0.158067
0.0949439
0.192247
-0.28719
-0.198904
0.0415877
0.157316
0.175444
0.339209
0.111583
0.0929954
-0.173152
-0.393365
0.500684
-0.162406
0.0718475
0.00498953
-0.00306731
-0.0491052
0.0521725
0.0958695
-0.0691555
-0.026714
0.0769003
0.0117672
0.0516109
0.550777
-0.32504
-0.225736
-0.00293632
0.032165
-0.0364587
-0.125385
0.260589
-0.00638346
-0.0587062
-0.171162
-0.0277421
0.190285
-0.305932
0.115647
0.0122023
0.442024
0.585222
-0.134458
0.440013
0.132715
-0.572727
0.0149598
-0.115587
0.100628
-0.0500209
0.265583
-0.215562
0.0261766
-0.0995613
0.670369
-0.507886
-0.162483
-0.408971
0.131324
0.277647
-0.190661
0.0347539
0.18109
0.0867566
-0.324846
-0.261471
0.586318
-0.164046
-0.0529165
0.216962
0.27953
0.0604304
-0.33996
0.245635
0.305142
0.537322
0.0185138
0.0466992
-0.0630432
0.016344
0.193588
-0.518434
-0.0598305
0.296912
0.16278
-0.496071
0.33329
-0.44155
0.13383
0.227403
0.356432
-0.0866415
-0.26979
0.129131
0.0923938
-0.221525
-0.0194414
-0.00599827
0.0254397
0.0851235
-0.103914
0.0187909
0.0403877
0.00419761
-0.0445853
-0.0709046
-0.0344757
0.10538
0.409932
0.144308
0.361619
-0.0849544
0.324505
0.0716246
-0.39613
0.221702
-0.271723
-0.543845
0.142263
0.279139
0.0772924
0.209051
0.445173
-0.130943
-0.393731
0.300545
0.0619569
-0.052511
-0.00944584
-0.00418555
-0.0228345
0.02702
-0.0255841
-0.00809955
-0.638512
0.47986
0.158652
-0.274781
0.0142647
-0.0876838
0.455242
0.142563
-0.597806
-0.152427
0.129384
0.572945
-0.163013
-0.147023
-0.0384526
0.185476
0.153396
0.082897
0.0980121
-0.138744
0.0407318
-0.63288
0.174176
0.458704
0.121723
-0.613691
-0.415914
-0.216966
0.039546
0.0591463
0.240004
0.0119134
-0.251918
0.16775
0.0433722
-0.211123
0.46365
0.0523122
-0.515963
0.297219
-0.106934
0.117909
-0.091732
-0.152224
0.592237
0.0466472
-0.124837
-0.20178
-0.237682
0.618488
0.0590421
0.00825236
-0.0672945
0.0516476
0.0454381
-0.0970857
-0.00546562
0.0508205
-0.105726
-0.500037
0.116421
0.0959156
-0.65984
0.174053
0.485787
-0.0450088
0.184019
-0.13901
-0.0638921
0.227157
-0.131783
0.299754
-0.281587
0.233966
-0.333288
0.0993222
0.241738
0.0738634
-0.591595
0.551721
0.0398748
0.150039
-0.484848
0.334808
-0.0741425
0.00316926
0.0277462
0.441749
0.39044
0.207682
-0.149785
0.522086
-0.372301
-0.0739825
0.241733
0.00316668
-0.0037529
-0.199901
-0.134699
0.0764352
0.00623218
0.451884
-0.635187
0.183303
0.103863
0.097269
0.476418
-0.617245
0.140826
-0.511174
0.361389
0.618616
-0.166732
0.00862791
0.0711899
-0.212267
0.109113
0.103154
-0.0750599
0.315064
-0.406203
-0.311268
0.0110245
0.408623
-0.419648
-0.026305
0.13628
0.0605713
-0.224617
-0.0313617
0.27506
-0.243698
-0.00715376
0.138348
0.1695
-0.58227
0.247121
0.527833
-0.0110225
-0.114387
-0.404417
-0.281061
0.249699
-0.0155062
0.0622054
-0.0451196
0.0967672
-0.434134
-0.00289135
-0.215633
0.260101
-0.0444679
-0.0112711
-0.0980889
0.179107
-0.121688
0.356611
-0.234923
-0.0651744
0.0690601
0.0326175
-0.00326744
-0.0293501
-0.0842706
0.0626638
0.286932
-0.60386
0.316928
0.498297
0.000947622
0.000973963
-0.00192159
0.300854
-0.10902
-0.191834
0.0824861
-0.116962
0.339027
-0.246005
-0.0930215
-0.225252
0.0940091
0.131243
0.373655
-0.196394
-0.17726
0.495786
-0.188138
-0.307648
-0.378301
0.282045
0.0962556
0.246123
-0.199015
-0.0471079
0.321784
-0.0878185
0.00469768
0.0843359
-0.0890336
0.379995
-0.638792
0.460049
0.178743
-0.297816
0.639613
-0.341797
-0.00841952
0.0848547
-0.0688584
-0.16641
0.182014
-0.234099
-0.347973
-0.274332
-0.312206
-0.354859
0.190046
0.00598875
-0.623982
-0.104472
-0.0710639
0.175535
-0.0202587
0.118271
0.162629
-0.460445
0.105514
-0.0203901
0.575889
-0.538352
-0.155813
0.0286026
-0.156467
0.196865
0.437893
0.422118
-0.17667
-0.245448
-0.256684
-0.381829
0.0962429
-0.0877118
-0.00853107
0.174976
-0.621242
0.446266
0.210534
-0.200212
-0.0103221
0.285195
-0.190251
0.178135
0.0833868
-0.170666
0.214038
0.195932
-0.41099
0.215057
0.0610436
-0.13455
-0.11624
0.0711155
-0.0131435
-0.0579719
-0.156214
0.254141
-0.0979265
0.481262
0.00182527
0.0576675
0.0332378
-0.0346019
0.0013641
-0.156264
-0.239177
0.395441
-0.462975
0.129462
-0.560282
0.43082
-0.0313445
0.0271589
-0.110049
0.124369
0.271344
-0.117948
0.184758
0.289606
-0.474363
-0.229877
0.192455
0.088697
-0.281152
0.0180807
-0.165104
0.0302274
0.00239012
-0.600206
0.493384
-0.338469
0.216781
0.0066959
0.0651136
-0.528836
0.432883
-0.158517
0.244532
-0.086015
-0.0798127
-0.306304
0.100289
0.206015
0.457432
-0.272675
0.304544
-0.471663
-0.00295532
0.0471471
-0.0441917
0.359824
0.159008
0.08635
-0.121478
0.0117764
0.109701
0.361491
0.139194
-0.530387
0.615537
0.101333
-0.160017
-0.380619
-0.745967
0.29277
0.453197
-0.0852425
0.195844
-0.110602
0.0185106
-0.101761
-0.100684
-0.610205
0.185702
0.424503
0.356195
-0.304027
-0.0880215
-0.13723
0.204342
-0.311996
-0.0007136
0.0339514
0.0460618
0.532377
-0.314016
-0.42932
-0.195331
0.624651
-0.0493586
0.443154
-0.585878
0.142724
-0.0643848
-0.438431
-0.307536
0.0670218
-0.0608422
-0.00852754
-0.105295
-0.634843
0.189562
0.445281
-0.170217
0.0767049
-0.00393668
0.075153
0.343854
-0.274903
-0.0689512
0.0873646
-0.00603695
0.0156759
-0.00963891
-0.0761349
-0.00855254
0.0846874
0.110853
-0.0958931
0.111819
0.00869917
0.0241835
0.0120424
-0.132375
0.224769
0.0918815
0.101376
0.0739191
-0.00292262
-0.0165188
0.477312
-0.158004
-0.319308
-0.0119865
0.0499696
0.204307
0.0418154
-0.0933761
0.285831
0.287013
-0.109339
-0.104578
0.100956
-0.391988
0.291031
0.12518
-0.0116714
-0.113509
-0.0136969
0.211097
-0.1974
0.590871
-0.135629
0.275625
0.113802
-0.1313
0.194814
-0.0635143
-0.149959
0.0825781
-0.127593
0.0429412
0.138577
-0.508497
0.369921
0.368625
-0.654598
0.285973
-0.415293
0.56982
-0.154527
0.289852
0.132267
0.0823433
-0.464009
0.240577
0.131847
-0.137863
-0.415167
0.0457855
0.194913
-0.240699
0.130674
-0.139202
-0.40694
0.59841
-0.19147
0.0448462
-0.260479
-0.0585372
-0.421671
0.545335
-0.123664
-0.215782
-0.383978
0.295137
-0.163336
0.00383108
0.000911027
-0.0047421
0.607354
-0.132676
-0.0369015
-0.0374562
0.361703
-0.567098
-0.379532
0.287116
0.0924164
-0.572793
0.0597161
0.513077
0.45721
-0.097386
0.0745972
-0.0784576
0.127269
-0.00981827
-0.20011
0.114868
0.195645
-0.320865
0.12522
-0.127018
0.522099
-0.395081
0.268968
-0.265911
-0.584009
0.177069
0.167266
0.119747
-0.255006
-0.37888
0.00255201
-0.0552839
0.518934
0.242346
0.101508
0.236661
0.136994
0.227762
-0.241459
-0.602544
0.462208
0.140335
-0.0660977
0.097862
-0.0317644
-0.169401
-0.118749
-0.361662
0.506716
-0.331272
0.127495
0.00734935
0.370183
-0.104767
-0.55387
0.286894
-0.112039
0.362463
-0.164154
0.0767125
0.0874417
0.145943
-0.181964
-0.0112782
0.0783
0.237734
-0.279699
0.041965
-0.511499
0.208459
-0.471639
0.314631
0.157008
-0.00038683
-0.00245209
0.00283892
0.296596
-0.110553
-0.186042
0.099731
0.0910559
-0.190787
-0.0272174
-0.0883699
0.0525697
-0.0654101
0.0128404
-0.0111802
-0.0501562
0.0613364
-0.110864
-0.0172334
0.128098
0.145229
0.332083
0.0831954
-0.181284
0.0460385
-0.00565082
0.156646
-0.0306194
-0.108501
-0.107387
-0.0315782
0.00599413
0.303444
0.0266598
-0.0184219
-0.184573
0.0966947
0.0988253
-0.287553
0.188728
0.206982
-0.062063
-0.144918
0.58975
-0.22841
-0.36134
0.227092
-0.360245
-0.0749066
0.28998
-0.399583
0.109603
0.278161
0.0844506
-0.362612
0.419743
-0.129892
0.0331057
-0.0443232
0.442793
0.105519
0.473126
-0.0310884
-0.442037
0.00460813
0.0234294
0.00495506
-0.0283844
0.180441
0.438176
-0.254473
0.402773
-0.148301
0.521716
-0.0333424
-0.488373
0.224854
-0.301796
0.0769422
-0.00781952
0.049899
-0.0420795
-0.0769585
-0.156977
-0.167094
0.0231921
0.219804
-0.242996
-0.472984
-0.161859
-0.6144
0.229024
0.191443
-0.188288
-0.25226
0.0713578
0.2273
-0.070484
-0.583602
0.440167
0.143435
0.474953
-0.0337148
0.0497285
-0.302551
0.0720215
0.227801
-0.299822
0.137762
-0.555876
0.418115
-0.0765787
-0.00776167
0.0843403
0.366728
-0.243282
-0.123446
0.304644
-0.108999
-0.145062
-0.313718
0.45878
0.0129575
0.0832854
-0.157202
0.217773
0.605591
-0.171875
-0.433716
-0.46021
0.130095
0.170759
0.205317
-0.463534
0.115961
-0.32857
0.212609
0.0696866
-0.176664
0.106977
0.100145
0.37298
-0.0831913
0.00705646
-0.531321
0.10965
-0.122218
0.598636
-0.432203
0.569965
0.635667
-0.119843
0.399699
-0.509151
0.122309
-0.0972821
0.132239
-0.00665507
-0.125584
0.034324
-0.0317984
-0.00252557
-0.223553
0.091178
-0.144126
0.162861
-0.0818223
-0.464531
0.285097
-0.269395
0.0814247
0.187971
-0.0846289
0.165853
-0.0812241
-0.171595
-0.134709
-0.0814199
0.0361717
-0.117412
-0.0271331
0.144545
-0.161924
0.448856
-0.0942379
0.356065
0.115916
0.439203
-0.555119
-0.096859
0.081668
0.015191
0.2087
-0.364964
-0.43168
-0.059519
0.119283
0.392914
-0.512197
0.00211703
0.123231
-0.550715
0.427485
-0.437154
0.0402555
0.590486
0.627939
-0.225515
-0.402424
0.0441595
-0.0496986
0.105133
-0.266807
-0.26652
0.0459872
-0.112085
0.0998451
-0.521151
0.421306
0.190047
0.437893
-0.398642
-0.11649
0.515132
-0.432646
-0.528602
0.368329
0.160273
-0.0153887
-0.155277
0.0753598
-0.394314
0.126871
0.239857
-0.00876877
0.0491486
0.0467209
-0.283657
0.175106
-0.021834
-0.507002
0.493782
-0.343743
-0.212632
-0.0765777
0.28921
-0.25855
0.401325
-0.142775
-0.000803686
0.125545
-0.124742
0.173753
-0.218748
0.289029
-0.0702815
0.115109
0.0793178
-0.371634
0.114613
0.257022
0.388965
-0.514803
0.125839
-0.572525
0.208809
0.363716
0.513883
-0.124919
0.617574
-0.464792
-0.152782
-0.292774
-0.131772
0.0997109
-0.033896
0.00108969
0.402698
0.220523
-0.482407
0.608824
-0.0164128
-0.592411
-0.590486
0.286755
0.107746
-0.394501
0.574655
-0.421683
-0.152972
-0.199458
0.074605
-0.0325111
-0.0420939
-0.126808
0.105988
0.0208194
-0.392221
-0.172962
0.0251024
0.546159
0.445565
-0.000344848
-0.0883709
0.0947862
-0.0182223
-0.0765638
0.0124554
0.112725
-0.205729
-0.390197
0.509479
0.189859
-0.321642
0.138149
0.436506
-0.272448
0.295902
-0.023454
0.00397133
0.448216
0.160608
0.153777
0.0532042
-0.118202
0.112189
0.00852337
0.110867
-0.11939
-0.0440252
-0.00591251
0.221923
0.064948
0.244784
-0.262494
0.562454
-0.515907
-0.046547
0.147864
-0.154862
-0.219819
-0.127744
0.347563
0.112605
-0.203361
0.00707436
-0.231623
-0.340902
0.0822188
0.0207222
-0.102941
-0.282967
0.182923
-0.458828
-0.0803461
-0.016513
0.0496042
0.0250008
-0.445563
0.590156
-0.144593
-0.0932738
0.198031
-0.104757
-0.0932206
0.456091
-0.0910695
-0.0730848
0.58962
-0.454979
0.150804
-0.176544
0.0257407
-0.462481
-0.154763
0.23766
-0.0868561
0.127891
-0.391069
0.263178
0.134423
-0.00979522
0.0688374
-0.120483
-0.0443059
0.164789
-0.367295
-0.12018
0.487475
0.578263
-0.101469
-0.243241
0.315263
0.0477535
-0.0391347
0.205899
-0.0967858
-0.199184
0.1547
0.0444845
-0.0131719
-0.099212
0.0809897
0.0218363
-0.000815067
-0.119668
-0.0723937
-0.0116748
0.0840685
-0.57797
0.15154
0.42643
-0.349157
-0.109548
0.458705
-0.0428015
-0.33435
-0.216348
-0.0560156
0.272363
0.320304
-0.419282
0.552891
-0.133609
0.499618
-0.0568244
-0.221382
0.244575
-0.00179934
0.034493
-0.0326937
0.0525475
-0.0146373
-0.0379102
-0.0766382
-0.0564155
0.0910965
0.230688
0.127259
0.413811
-0.541069
0.0112488
0.22583
-0.104991
-0.120839
0.0850413
-0.223781
-0.222853
0.305871
0.113872
-0.219007
0.161351
0.0576557
0.065874
-0.174404
0.10853
0.012633
-0.117391
0.104758
-0.275928
-0.0320524
0.30798
-0.119139
0.0615855
0.00953
0.134244
-0.135059
0.0482767
-0.279998
0.231721
-0.0426258
0.28741
-0.180374
-0.210224
0.383757
-0.290094
-0.0936629
0.179882
-0.122889
-0.101371
0.160389
0.477937
-0.209092
0.0888994
0.120193
-0.168509
0.0774392
0.233171
0.109423
-0.429764
-0.448905
0.595777
-0.146871
0.0957506
0.0529143
-0.0487167
0.255022
-0.0635793
-0.310881
0.424919
-0.114037
-0.00900213
-0.547911
0.556913
-0.122439
-0.255861
-0.496451
-0.0283116
0.524763
0.00666251
0.115647
-0.0158105
-0.0755392
-0.197725
0.273264
0.330814
-0.0884681
0.412269
-0.157201
-0.255068
-0.0675368
-0.409549
-0.0797882
0.0844858
-0.110431
0.239685
0.198271
-0.0968955
-0.122466
0.198642
0.0862055
-0.0720901
-0.0141154
0.0864466
0.188102
-0.0842387
-0.122309
0.231614
-0.257597
-0.114037
0.131289
-0.0270911
-0.0997166
0.453345
0.161101
-0.614445
0.0335759
-0.493664
0.460088
0.48374
-0.122249
0.553067
-0.56508
-0.580047
0.110356
-0.116409
0.583118
-0.0536188
0.0505515
0.470727
-0.615165
0.144439
0.121482
0.435219
-0.556701
-0.0098726
0.0624423
-0.127796
-0.435423
0.563219
0.133935
0.278335
0.0472983
-0.052764
0.00318358
-0.203738
-0.409282
0.610139
-0.440173
0.293034
0.0609212
0.144585
0.372115
-0.5167
0.628351
-0.067985
0.0769664
-0.439463
0.560945
-0.112349
0.409294
0.108637
0.00277985
0.185883
-0.102688
0.227994
-0.0916758
-0.136319
0.413691
0.151263
-0.564954
0.176887
-0.011631
-0.471643
0.614867
-0.143224
0.509394
-0.393478
0.035058
-0.0332878
-0.00177027
0.572989
-0.159298
0.155902
0.517449
-0.108155
-0.169646
0.436439
-0.266793
0.0761105
0.23297
-0.30908
0.284967
-0.520377
0.235409
-0.524427
0.221463
0.302964
0.121622
-0.566188
-0.0191315
0.375327
0.5037
-0.22041
-0.283291
-0.0470778
0.0547818
-0.00770398
-0.652825
0.263587
0.389238
0.596828
-0.421483
-0.175345
-0.444181
-0.109585
0.553766
-0.308561
0.226203
0.0823581
0.126829
-0.0208403
0.43295
0.0761827
-0.509132
0.0642083
0.353215
-0.208729
0.564473
-0.355744
0.00197263
-0.168885
0.23888
-0.0699953
0.426024
-0.553819
-0.22136
0.377486
-0.476468
0.0989823
0.0378729
-0.0370441
-0.000828837
-0.155693
-0.110309
-0.106148
0.0268526
0.131438
-0.158291
0.0239276
-0.141339
0.526417
-0.426571
-0.38951
0.511749
-0.122239
0.44758
0.149248
-0.384011
0.291258
0.0927534
-0.345919
-0.0904922
0.436412
-0.221094
-0.118873
-0.467738
0.586611
0.0861543
-0.13046
-0.512617
0.113974
-0.158129
-0.0608772
0.136794
-0.137804
-0.305709
0.443513
-0.157801
0.481894
-0.324093
-0.250712
0.382036
0.295851
-0.577335
0.230684
0.346651
-0.519654
0.392636
0.0516458
-0.00748625
-0.352117
0.252599
0.0995175
-0.0101507
-0.0986992
0.10885
0.630131
0.0462303
-0.528357
0.519355
0.074642
-0.0785787
-0.591049
0.472176
0.0819455
-0.427865
0.404849
-0.117733
0.0591199
-0.03531
-0.0238099
0.487157
-0.012206
0.079327
-0.067121
-0.574875
0.343251
-0.328598
-0.251177
0.0683505
0.182826
-0.135792
0.561815
-0.424594
0.28679
-0.178172
0.562856
-0.384684
-0.0108617
0.11342
-0.102558
0.488112
0.345497
-0.454666
0.109169
-0.24368
0.322187
-0.0785068
-0.278578
-0.0780776
0.239429
0.08209
-0.0422258
0.0362276
-0.0867503
-0.067389
0.0562087
-0.0837071
0.0699441
0.20874
-0.278684
-0.0215018
-0.0331349
0.0546367
0.364871
0.124373
-0.468655
0.614013
-0.145358
-0.119473
-0.398004
0.517477
-0.43149
-0.0907393
0.522229
-0.17879
0.0970557
-0.142419
0.0786189
-0.183021
0.23929
-0.0562689
-0.353506
-0.159111
-0.605422
0.0956499
0.201569
-0.214989
0.288859
-0.0738696
-0.344645
-0.294147
-0.291855
-0.360969
-0.436133
0.572665
-0.136532
0.43014
0.142848
-0.188712
0.0568855
0.131826
0.152035
-0.505541
-0.00429857
0.0652198
0.424189
-0.559981
0.184323
-0.259862
0.427397
0.190177
0.135024
-0.390883
0.255859
-0.0799908
0.179722
-0.134336
0.509707
-0.375371
0.124427
-0.237573
0.287301
0.562793
-0.422095
-0.140698
0.293611
-0.0798729
0.254542
-0.016808
0.0662099
0.246757
-0.312967
0.371064
-0.0971746
0.324267
0.0890802
-0.0959491
0.00686892
0.0120421
-0.585629
0.417234
0.168395
-0.0123875
-0.094321
0.106709
0.185221
-0.119347
-0.235895
0.0670096
-0.186229
-0.216842
0.269958
-0.0531155
0.289751
0.109219
-0.39897
0.0140324
0.104606
-0.118638
-0.135307
-0.426736
0.562043
0.00894706
0.0803679
-0.089315
0.0755398
-0.0833015
-0.265881
0.0857084
0.180173
-0.480438
0.313343
-0.1334
0.439078
0.123715
-0.505732
0.371396
-0.128797
0.117126
-0.0729277
0.128821
-0.548102
-0.720791
0.270071
0.45072
0.413368
-0.364637
0.59078
-0.16064
0.0729365
0.0849583
-0.157895
-0.0177094
-0.108813
0.126522
-0.224379
0.0681646
0.101529
-0.457164
0.355635
-0.421253
-0.00628616
-0.0512957
0.0575818
0.259181
-0.37122
0.00619707
0.0745325
-0.0807296
0.0800616
-0.00546437
0.0835891
-0.0209355