/*--------------------------------*- C++ -*----------------------------------*\
| =========                 |                                                 |
| \\      /  F ield         | OpenFOAM: The Open Source CFD Toolbox           |
|  \\    /   O peration     | Version:  v2012                                 |
|   \\  /    A nd           | Website:  www.openfoam.com                      |
|    \\/     M anipulation  |                                                 |
\*---------------------------------------------------------------------------*/
FoamFile
{
    version     2.0;
    format      ascii;
    class       volScalarField;
    location    "100";
    object      epsilon;
}
// * * * * * * * * * * * * * * * * * * * * * * * * * * * * * * * * * * * * * //

dimensions      [0 2 -3 0 0 0 0];


internalField   nonuniform List<scalar> 
14315
(
0.0900875
0.0195983
2.29521e-06
3.58728e-06
5.6931e-06
1.98762e-06
0.0159005
2.4061e-06
2.44451e-06
2.33384e-06
6.9408e-06
0.0110948
0.102438
1.8682e-06
0.0106153
2.77071e-06
2.40094e-06
2.95112e-06
2.7885e-06
2.70968e-06
2.84183e-06
0.0381093
2.53123e-06
0.0108421
4.38338e-06
0.0190505
3.1007e-06
0.016427
3.16977e-06
8.39706e-06
1.98417e-06
2.87797e-06
1.84369e-06
0.0338297
0.0221788
0.0409437
0.000411144
2.38135e-06
1.69102e-05
6.20855e-06
0.0312738
0.00970878
2.43462e-06
2.22144e-06
2.34072e-06
3.93932e-06
3.46605e-06
0.0105739
0.0100611
3.00158e-06
0.0108566
3.57935e-06
0.0107956
0.0103202
1.88701e-06
0.0422327
0.0218072
2.4672e-06
2.72996e-06
2.29748e-06
1.46848e-05
0.0239289
0.0406757
2.74988e-06
9.32687e-06
0.00120098
0.122144
3.65567e-06
2.78625e-06
1.8876e-06
0.0102419
2.42399e-06
0.0238401
0.0325139
2.63889e-06
0.0921994
2.1269e-06
0.0533174
2.32918e-06
1.67969e-06
2.2702e-06
0.0392428
2.39935e-06
0.0542424
2.8132e-06
1.72877e-06
0.127944
0.0109951
0.0114822
6.51476e-06
2.12582e-06
4.32998e-06
2.25022e-06
1.78041e-06
0.0105216
0.0107012
2.44354e-06
0.0122493
0.0153422
9.53945e-06
3.68462e-06
0.0102478
0.0397146
2.2201e-06
1.03631e-05
1.32942e-05
0.0184954
0.0119619
2.08306e-06
4.73001e-06
0.0104099
2.65451e-06
0.0201017
2.97767e-06
2.4235e-06
0.0109387
2.99458e-06
0.0118305
0.0196725
0.0310948
0.000146228
1.90495e-06
2.21484e-06
0.0124762
3.03296e-06
2.24212e-06
4.77169e-05
2.33772e-06
1.87733e-06
4.20276e-06
0.00795531
0.0296791
0.0001568
0.00959617
9.0934e-06
2.7216e-06
2.583e-06
0.0216661
1.69742e-06
2.67399e-06
0.0214878
0.0124455
2.6615e-06
0.0129522
4.65136e-06
0.00809751
6.87905e-06
0.0367565
1.91625e-06
2.89323e-06
2.27833e-06
0.0222521
2.41022e-06
1.91703e-06
5.30156e-06
0.0108804
2.4313e-06
2.76872e-06
1.97887e-06
0.0211574
2.70604e-06
0.0103296
0.0446692
0.0107271
2.22127e-06
0.0124703
0.00875748
5.77442e-06
0.0176546
0.0261522
0.0265169
2.95287e-06
0.00966524
2.33057e-06
2.33887e-06
0.000905045
4.20288e-06
0.0392948
0.0312035
0.00785097
2.17944e-05
2.11645e-06
2.22662e-06
0.00322163
2.37072e-06
2.38311e-06
5.50525e-06
2.43708e-05
0.0249857
0.0030424
2.50483e-06
6.12678e-06
0.0094199
0.00760597
1.74335e-06
0.0211081
1.76506e-05
2.24669e-06
2.38395e-06
5.84683e-06
0.0108168
2.2155e-06
0.0120249
0.00966923
2.04375e-06
2.56511e-05
8.21877e-06
2.31148e-06
2.74267e-06
0.00996033
1.9336e-05
1.86657e-06
0.0104199
3.40052e-06
0.0116065
0.0211929
0.0598599
0.0164903
0.0109854
3.89572e-06
2.20732e-06
2.0654e-06
3.06488e-06
2.34483e-06
0.0243952
2.2747e-06
2.48601e-06
0.00280601
0.023366
0.215094
2.46095e-06
2.23491e-06
2.82784e-06
3.93647e-06
4.27241e-06
1.74569e-05
2.32123e-06
2.33448e-06
0.0227883
0.018081
1.77211e-06
2.06973e-06
0.0169741
0.0118277
0.00213036
5.89503e-06
0.033911
3.68981e-06
0.0191416
0.0170871
1.91808e-06
2.20737e-06
0.040108
0.000595098
2.50658e-06
0.0242966
2.142e-06
3.83377e-05
0.0169442
6.91982e-06
9.73843e-05
1.90371e-06
0.0106008
0.0129198
0.0127458
2.13789e-06
2.88995e-06
2.07842e-06
1.74022e-06
0.0121692
0.0205651
2.0382e-06
0.00509658
0.0097381
2.51111e-06
0.032126
0.0211113
2.33516e-06
0.0147505
2.22829e-05
1.98522e-06
1.93437e-06
0.0178681
0.0379548
2.44931e-06
0.0105542
0.0383182
0.0191951
0.0092562
0.0304273
2.35743e-06
0.0107484
0.00961397
0.0161578
1.0777e-05
2.7709e-06
0.0118234
3.50042e-06
2.85465e-06
2.40679e-06
2.13137e-06
0.0101213
0.0401788
0.0192848
2.38551e-06
2.7955e-06
0.00783202
0.0372103
2.83695e-06
1.87011e-06
0.0447883
2.13369e-06
0.0190373
0.0110605
4.00369e-06
3.12269e-05
1.87285e-06
2.14145e-06
2.25208e-06
2.99827e-06
0.0116775
0.00268677
0.0103558
2.12916e-06
0.0379193
1.74885e-06
0.0122242
1.48247e-05
6.48185e-06
1.89418e-06
2.13815e-06
0.0083781
3.87063e-06
0.0216898
0.0285803
3.06223e-06
0.00994833
0.0419288
0.0423131
0.0194433
2.23979e-06
0.0336682
2.61703e-06
3.72633e-06
0.0370405
2.95512e-06
1.9267e-06
0.146752
6.29127e-06
0.0104581
4.14577e-06
2.56675e-06
0.00748424
0.011841
0.00482521
2.69577e-06
2.0286e-06
4.27488e-06
2.80663e-06
0.0127233
3.2993e-06
0.0145002
0.0378825
0.0146449
0.0375718
0.0176939
2.33889e-06
0.0106469
0.0171934
1.99515e-06
0.000170704
2.42221e-06
4.14755e-06
0.0325918
0.00849957
2.82718e-06
2.26072e-06
3.09387e-06
2.71419e-06
0.0178191
0.0114077
2.3906e-06
2.92099e-06
0.0293299
4.7019e-06
0.0207242
3.21391e-06
0.0236908
0.0216326
0.00157569
2.24271e-06
0.0115791
0.0456169
0.0346976
0.0106241
0.0199676
2.69648e-06
4.09662e-06
2.07976e-06
0.00971718
2.24584e-06
2.41135e-06
1.85261e-06
0.0108469
0.0215299
2.44429e-05
0.0101594
0.00267172
0.0133546
0.000912815
2.52464e-06
0.0138367
0.00996389
2.85256e-06
1.91486e-06
2.13859e-06
7.73799e-06
0.0150288
2.87099e-06
0.000528914
2.0297e-06
0.0813338
1.20335e-05
2.41903e-06
3.88999e-06
0.012173
0.0180308
3.15794e-06
2.30751e-06
1.87438e-06
0.0129275
0.0210626
4.09578e-06
2.40937e-06
0.000722967
1.82769e-06
3.93242e-06
0.0101626
5.01144e-06
2.88492e-06
0.000507621
2.69458e-06
0.00867565
2.81682e-06
2.37729e-06
9.78458e-06
4.15171e-06
0.0127421
3.14882e-06
2.35097e-06
0.103827
0.0123802
3.63508e-06
2.37536e-06
1.9426e-06
0.00965339
0.00464737
0.0132249
0.0144802
4.66783e-06
2.54873e-06
0.0218306
0.0107212
3.79438e-06
0.0223527
0.023322
0.0103445
4.57732e-06
2.38895e-06
0.00776028
1.90129e-06
4.82877e-06
0.0101933
2.34881e-06
0.0122637
2.35997e-06
1.91133e-06
2.10465e-06
0.0105504
0.0107174
3.14133e-06
0.0590982
4.69357e-06
0.0106817
0.0141204
1.87773e-05
4.22344e-06
0.0185346
2.41027e-06
3.63028e-06
2.55489e-06
0.00312606
2.27243e-06
3.80695e-06
9.22647e-05
0.00800432
3.6742e-06
2.35529e-06
0.0639254
0.0219393
6.44527e-06
0.0173846
0.0118018
2.22532e-06
4.21456e-06
1.92213e-06
0.0440989
9.16853e-06
2.46962e-06
1.85645e-06
0.0215991
2.34968e-06
1.95093e-06
2.05558e-06
3.72568e-05
0.042018
5.33187e-06
0.0190063
0.0337646
4.32745e-06
0.0106333
1.83803e-06
1.82192e-06
2.9331e-06
0.00332715
0.0102799
2.31964e-06
3.64404e-06
3.73653e-06
1.70591e-06
2.68083e-06
3.08651e-06
2.9061e-06
1.85503e-06
0.00710864
0.0118803
2.49794e-06
0.0121783
4.58952e-06
3.88484e-06
0.0153093
1.83876e-06
0.0099784
0.000620502
1.95482e-06
2.5172e-06
2.15264e-06
5.93606e-06
3.08795e-06
0.010393
1.9393e-06
2.22452e-06
0.0145284
0.0146767
0.0224787
0.01767
2.86474e-06
2.76044e-06
2.5769e-06
2.36143e-06
0.00844245
0.0242951
0.00766662
9.26661e-06
1.94026e-05
9.94621e-06
3.0819e-06
3.92472e-06
2.15221e-06
1.9115e-06
0.0406662
2.25556e-06
0.0109908
1.20391e-05
0.0130762
2.2985e-06
2.33567e-06
2.87193e-06
0.208542
1.85836e-06
0.0315801
3.65274e-06
3.13475e-06
0.0180457
2.85201e-06
2.16272e-06
1.74015e-06
1.85977e-06
8.62565e-06
2.28448e-06
0.00948582
2.82373e-06
5.66352e-06
3.24883e-06
5.72254e-06
2.79501e-06
0.0310516
2.43254e-06
0.0199631
0.00897674
2.50623e-06
0.00235316
0.0184813
0.145258
1.92776e-06
3.63673e-06
0.0366555
2.51393e-06
2.36994e-06
0.0462486
0.0102048
9.94283e-06
0.0100925
1.88872e-06
1.53447e-05
2.41922e-06
5.61473e-06
2.31856e-05
3.69585e-06
2.52701e-06
1.05638e-05
3.44317e-05
2.31398e-06
9.33084e-06
0.0080027
1.66392e-06
1.76523e-06
0.0228511
2.32845e-05
0.0105377
1.76134e-06
3.22953e-06
2.97156e-06
1.83215e-06
0.00772343
3.67571e-06
0.00784068
2.32873e-06
0.0370861
2.25404e-06
2.69424e-06
2.52458e-06
2.11282e-06
0.0131913
0.0231902
0.00907719
2.28128e-06
2.3655e-06
4.16045e-06
1.98825e-06
0.000852687
0.0215674
0.0178489
3.20267e-06
8.43347e-06
0.0925412
2.35447e-06
2.00424e-06
4.28247e-06
0.0152853
1.91893e-06
2.01616e-06
0.00133854
0.0468943
1.23996e-05
0.0782373
2.60076e-06
2.31913e-06
0.00989491
2.42566e-06
0.012155
1.75755e-06
8.13976e-06
2.59905e-06
2.36286e-06
1.88149e-06
0.00118198
0.0196325
3.3229e-06
0.153851
3.2939e-06
4.17593e-06
0.00378591
0.0122915
2.17454e-06
0.0125182
0.00121822
0.0545552
0.0194565
1.84795e-06
2.45666e-06
1.70306e-06
1.86684e-06
2.4354e-06
1.88375e-06
0.0471856
0.0332604
2.29542e-06
2.07231e-06
2.50324e-06
1.8207e-06
0.0074637
2.48673e-06
3.52915e-06
3.16692e-06
2.37677e-06
0.0106233
1.58447e-05
5.81066e-06
0.0240956
2.39362e-06
0.0190313
2.7208e-06
1.86129e-06
3.00075e-06
2.5526e-06
2.49529e-06
2.11572e-06
2.46074e-06
2.1657e-06
2.31542e-06
0.0108981
1.75238e-06
2.36446e-06
4.72024e-06
1.77682e-06
2.40422e-06
3.99954e-06
2.43844e-06
0.0949163
2.2324e-06
4.04582e-06
0.0335138
0.0259494
0.00786231
0.000247966
2.70914e-06
0.00980739
2.65437e-06
2.72822e-06
0.143497
3.20689e-06
2.9107e-06
2.51319e-06
3.11482e-06
0.00929128
2.14042e-06
0.0138331
2.3546e-06
0.0328118
5.42198e-05
4.34255e-06
2.42722e-06
0.01064
0.0422156
0.0122597
2.56641e-06
0.00760581
2.65271e-06
0.0172221
4.16915e-06
0.00841073
0.00988453
0.000319592
0.0602345
3.20036e-06
0.0245743
1.89842e-06
2.51756e-06
0.00051479
0.0173644
2.27699e-06
2.51314e-06
0.000350982
0.0102363
0.0823339
2.62825e-06
0.00163859
0.0300666
0.0274719
0.0118982
2.17671e-06
0.00269
0.0259624
0.0165275
2.38881e-06
0.0439418
2.61115e-06
1.84626e-06
2.40318e-06
3.1799e-06
2.40695e-06
1.1388e-05
0.0334578
3.21215e-06
2.4201e-06
2.13418e-06
0.0479142
3.61084e-06
2.38469e-06
5.31403e-05
0.00976931
0.0113642
1.90019e-06
0.0264511
4.10706e-06
1.95128e-06
2.18382e-06
1.32988e-05
0.0101436
2.71759e-06
0.0127882
1.0438e-05
0.0221932
1.73194e-05
4.08621e-06
0.0180558
2.70828e-06
0.0126199
3.77886e-06
1.73109e-06
2.64325e-06
3.84962e-06
1.76289e-06
2.56398e-06
2.38814e-06
2.37689e-06
0.0725147
1.82882e-06
2.28153e-06
0.0343224
0.00854371
0.0104814
3.66746e-06
2.29319e-06
0.00760801
2.15164e-06
2.52209e-06
0.0104496
2.42296e-06
0.0119715
0.0177963
0.0101589
0.0125032
0.0203317
8.97396e-06
0.109752
0.0280616
2.38422e-06
3.50231e-06
2.82308e-06
1.33459e-05
0.0315256
8.79084e-06
0.0103763
2.3485e-06
0.0129418
4.81458e-05
1.99631e-06
0.124012
2.8102e-06
0.00844701
2.43139e-06
2.3706e-06
2.05641e-06
4e-06
1.03205e-05
2.28692e-06
0.000127249
2.43603e-06
4.0152e-06
2.52373e-06
0.0510663
2.86582e-06
1.75275e-06
2.61286e-06
9.41353e-06
1.92418e-06
2.74727e-06
2.17598e-06
0.0104325
2.44167e-06
2.25925e-06
2.41772e-06
3.12481e-05
1.79186e-06
0.0156787
3.299e-06
0.0186552
2.1872e-06
0.00983427
0.0112118
4.10447e-06
0.222017
0.0210875
0.021447
0.0167565
2.12981e-06
7.09376e-06
0.0136209
0.00985268
1.77625e-06
2.38551e-06
7.70959e-05
2.29739e-06
0.05406
2.13802e-06
0.0111788
0.0112157
0.00894994
2.46022e-06
0.0387946
0.0317309
1.8862e-06
0.0163533
2.71894e-06
1.77637e-06
0.00882958
0.0195885
2.84913e-06
3.78501e-06
0.0163027
2.37474e-06
0.0208952
2.83576e-06
1.1074e-05
3.53634e-06
0.0435804
0.0288461
0.0340371
1.85894e-06
4.12853e-06
0.026048
2.21803e-06
0.00139611
2.52729e-06
1.97948e-06
3.17802e-05
0.000439153
0.0143011
0.000791317
2.16839e-06
0.0124253
2.38414e-06
2.53331e-06
0.00530516
0.023056
0.01847
0.00868915
0.00933572
9.24727e-06
0.175264
0.0445118
0.0130795
1.14514e-05
0.0431869
2.27996e-06
2.3284e-06
2.83354e-06
3.64899e-06
0.0233541
0.0108505
4.10524e-06
0.0267625
0.00440938
3.45219e-06
0.0234465
2.39071e-06
0.000405116
5.33818e-06
8.72684e-06
0.0115029
0.0417284
3.0559e-06
0.0331874
3.77793e-06
2.38522e-06
2.14217e-06
1.83945e-06
0.000212418
2.02968e-06
2.58921e-06
0.0375318
1.7998e-06
0.0521285
1.91323e-06
0.0115958
1.09938e-05
1.99883e-06
0.0213199
0.00857751
0.0107347
0.0103621
0.0120616
3.40083e-05
0.0145299
0.0105863
5.13023e-06
2.33018e-06
0.0102313
2.28579e-06
0.00883481
3.59579e-06
1.89981e-06
0.0360596
2.82651e-06
0.00859803
3.96995e-06
2.26741e-06
0.00890895
0.00955701
0.0120517
2.32182e-06
0.0133503
1.1929e-05
4.03632e-06
0.0151581
0.0107573
7.25867e-06
4.49238e-06
1.99877e-06
3.11216e-06
2.43253e-06
0.00895821
0.020859
1.65948e-06
0.0233193
0.012515
2.71401e-06
2.61773e-06
0.0102944
2.88569e-06
0.0335
0.0137149
1.98744e-06
1.83669e-06
0.0017498
2.33665e-06
0.00339535
0.0125653
2.60454e-06
0.0384402
4.16192e-05
3.21445e-06
4.22138e-06
2.40741e-06
2.70625e-06
3.19338e-06
0.0113201
0.00415138
2.09367e-06
5.52146e-06
0.0130666
1.928e-06
3.19934e-06
3.66349e-06
2.27215e-06
2.35166e-06
0.0107034
2.10498e-06
3.57938e-06
0.0203406
3.18476e-06
0.0163924
0.0169177
4.12706e-06
3.74164e-06
2.64459e-06
0.0391471
1.74097e-06
2.12581e-06
0.0395623
0.00988895
5.85985e-06
0.0186522
0.0241433
0.021641
3.5119e-06
0.0218668
1.03048e-05
0.0107065
0.000312181
2.3917e-06
0.0279627
2.5886e-06
0.0934422
3.20384e-06
0.0585826
2.39656e-06
0.0103591
2.33217e-05
1.90455e-06
1.88898e-06
3.90051e-06
0.00187843
2.68614e-06
0.0202549
0.0172242
0.0308088
2.86739e-06
0.00996831
0.012157
2.7377e-06
0.013609
2.49667e-06
0.0173174
0.0110879
2.17028e-06
0.0159688
0.0254202
1.90296e-06
0.00998862
1.74175e-06
0.0126132
2.49293e-06
0.000119898
0.0104915
2.04876e-06
0.00313064
2.42351e-06
3.64431e-06
2.70379e-05
2.5849e-06
0.000178701
0.0121175
2.97271e-06
4.99424e-06
5.67382e-06
2.55519e-06
0.0114764
2.1465e-06
0.038453
0.00357601
2.35581e-06
0.0181788
1.03871e-05
0.00888267
2.76636e-06
2.12948e-06
0.0734163
1.13521e-05
1.77286e-06
0.0109006
0.0423594
1.21242e-05
0.0094677
3.29999e-06
0.0579163
4.11861e-06
0.00180189
0.0123985
2.22501e-06
7.84913e-05
3.67696e-06
0.00873819
1.79307e-05
2.41616e-06
0.0720898
3.03511e-06
1.95531e-06
9.38181e-06
0.0714405
4.03826e-06
1.91489e-06
9.70464e-06
0.0110228
1.91453e-06
1.23673e-05
3.10944e-06
1.76576e-06
3.24742e-06
1.86626e-06
0.0110512
2.52346e-06
0.0103154
1.69066e-06
0.00440711
2.32664e-06
0.0234725
0.000150454
2.12954e-06
3.22195e-06
2.07745e-06
3.57852e-06
0.000858891
1.78495e-06
0.00964744
4.62017e-06
2.4307e-06
0.00958549
0.0551208
0.00168117
0.0122744
4.04896e-06
0.0232236
0.0142291
7.45045e-05
0.00979119
0.00609159
2.71767e-06
1.79418e-05
1.85068e-06
5.63634e-06
5.96157e-06
1.89351e-06
4.5531e-06
2.29055e-06
3.23093e-06
0.0107641
0.0402053
0.0190006
3.26811e-06
0.0114266
0.0894227
2.37225e-06
1.95262e-06
0.0215453
4.68761e-06
2.04986e-06
0.00472042
0.0163007
0.0116896
0.00815957
0.0252067
1.81123e-06
0.000136598
1.85139e-06
0.0108899
2.44486e-06
4.71545e-06
0.000228872
1.9168e-05
1.87146e-06
2.90598e-06
0.00799663
1.89862e-06
0.0100995
2.60869e-06
0.0651361
0.0103429
0.221002
0.0158948
3.1186e-06
6.49194e-06
1.97716e-06
0.0100105
0.0128946
3.04548e-05
0.0252656
2.54709e-06
5.73758e-06
2.87682e-06
0.000118979
2.26245e-06
0.0269813
2.72334e-06
0.0341875
0.0134237
0.00165627
0.0113956
2.37823e-06
2.26522e-06
0.0912448
3.67105e-06
0.0248183
2.43954e-06
0.0101253
3.02874e-06
0.0361208
0.257911
5.19084e-06
2.424e-06
6.76844e-05
0.0244272
2.55882e-06
3.00696e-06
2.43822e-06
0.0163461
2.29082e-06
0.000189472
0.0166627
0.00980366
0.0155432
0.00753666
5.94122e-06
2.39666e-06
0.0459208
5.07565e-06
2.41752e-06
3.09616e-05
3.63289e-06
2.06258e-06
1.75186e-06
5.18228e-06
3.63358e-06
0.00852253
0.0319185
5.01607e-06
2.3942e-06
2.37708e-06
0.0922932
0.011595
0.024089
2.76353e-06
4.00155e-06
0.0176228
6.76443e-06
1.97749e-06
0.000226694
3.69236e-06
2.4327e-06
2.695e-06
7.64234e-06
1.92363e-06
0.000994187
1.14633e-05
2.25246e-06
3.16514e-06
0.00119905
0.0216783
0.028627
0.0297859
2.1782e-06
2.30778e-06
5.27931e-05
2.06941e-06
0.0649506
3.14631e-06
3.01508e-06
2.45574e-06
4.94802e-05
2.24779e-06
2.76635e-06
2.48695e-06
3.32553e-06
4.11151e-06
0.0105343
0.0148208
0.110116
0.0812965
0.016619
0.0700404
3.80534e-06
3.43603e-06
4.04856e-06
4.92885e-06
2.51181e-06
2.24818e-06
2.65813e-06
0.000821363
0.000774531
2.00772e-06
2.40715e-06
0.0740839
1.06525e-05
5.93433e-06
0.0108277
0.00870828
0.016018
2.72591e-06
2.27831e-06
2.04908e-06
3.49072e-06
0.0127094
0.0676242
0.00976952
2.26849e-05
3.29556e-06
0.0173732
0.0104599
1.81012e-06
0.000475439
2.42646e-06
2.53843e-06
1.26976e-05
2.02677e-06
2.17575e-06
0.0196434
0.010566
0.0647829
0.0451329
0.0178453
3.3666e-06
3.79977e-06
0.025066
3.75794e-06
3.49625e-06
0.0315532
0.0515633
2.99438e-06
2.23285e-06
2.31074e-06
2.74703e-06
0.000352096
2.34987e-06
2.45964e-06
4.74133e-06
4.23871e-06
4.7927e-06
2.47652e-06
3.23332e-06
0.00261008
6.00423e-05
2.46976e-06
4.84568e-06
1.0783e-05
0.000209423
0.0143636
3.7471e-06
0.018325
3.56835e-06
2.03904e-06
0.00944852
4.04271e-06
1.89866e-06
2.44264e-06
0.00856183
0.0109296
0.0101424
0.0154547
0.04293
0.00101632
2.71108e-05
2.03434e-06
2.87726e-06
0.000131859
1.82226e-06
2.35291e-06
0.0227205
2.70345e-06
0.083354
3.72591e-06
3.29971e-06
2.38339e-06
3.7054e-06
0.0117824
4.39914e-06
1.73855e-06
3.17754e-06
0.030795
4.25728e-06
1.86323e-06
2.21641e-06
0.0223707
2.2461e-06
0.010821
0.0190099
1.92096e-06
0.0103983
2.34203e-06
2.39489e-06
2.09498e-06
2.24209e-06
2.20874e-06
0.0188581
0.019593
0.00906978
0.00288001
2.30104e-06
0.0112868
2.39733e-06
0.0160124
0.0271701
1.92455e-06
0.20798
2.27015e-06
4.50565e-06
2.84815e-06
2.41206e-06
2.46232e-06
0.0156625
0.0109093
0.0183133
0.0558008
2.20963e-06
5.88029e-06
0.0644302
0.0448576
0.0109958
0.00983718
2.83462e-06
2.31346e-06
8.89256e-06
2.84807e-06
3.21597e-06
1.86074e-06
0.118414
3.39189e-06
3.4876e-06
0.0104415
2.1549e-06
4.00556e-06
0.191305
2.74583e-06
0.00849192
2.47713e-06
0.00108842
0.0719329
0.0133829
0.176514
2.17744e-06
0.0162801
5.08356e-06
3.1733e-06
1.67046e-06
0.00939773
2.61996e-06
4.16265e-06
0.0456029
4.06272e-06
0.032165
2.2258e-06
0.00263628
5.08493e-06
0.000311975
3.52591e-06
0.0138959
1.78132e-06
4.05059e-06
2.34045e-06
2.61345e-06
2.05114e-06
0.0889828
5.29478e-05
0.00920119
7.24897e-05
4.67664e-06
2.50169e-06
1.85493e-06
0.0276363
2.32852e-06
2.74953e-06
0.0532648
2.24671e-06
0.0390328
0.0418645
0.0700542
6.44199e-06
2.4489e-06
0.0285447
0.0158321
1.89507e-06
2.18402e-06
0.0187933
0.0006246
0.0130172
2.67655e-06
1.92518e-06
2.43944e-06
0.0159027
0.00114354
1.86697e-06
0.00579226
0.0699329
2.46559e-06
2.69694e-06
1.88432e-06
2.03589e-06
1.8581e-06
1.98478e-06
0.0133064
0.0168936
0.0104054
3.02325e-06
2.15055e-06
0.000151331
0.000292176
2.72703e-06
0.013533
2.01272e-06
3.01499e-06
2.31371e-06
1.72603e-06
1.8534e-06
9.00404e-05
2.49688e-06
0.00646234
0.0381862
1.98269e-06
4.63888e-06
0.00509499
3.74193e-06
1.8585e-06
0.107581
2.22813e-06
2.08127e-06
2.83318e-06
2.46028e-06
0.00946807
0.0103791
4.13623e-06
4.16402e-06
0.0250106
0.0269206
2.26342e-06
3.13443e-06
0.0262838
0.0604104
0.0173356
0.0196246
0.026453
1.8686e-06
1.78816e-06
2.21135e-06
0.00688886
2.35307e-06
0.0102349
0.0164557
0.000129282
2.79064e-06
0.0625515
0.0224863
3.30523e-06
2.44165e-06
1.79038e-06
0.00971305
2.82292e-06
0.00857059
1.86871e-06
0.0181769
2.54984e-06
0.033261
0.0112827
0.0190162
2.91759e-06
0.0263287
2.89074e-06
2.50735e-06
0.024495
2.64472e-06
2.47954e-06
1.97101e-06
3.35847e-06
0.00364534
1.90156e-06
0.00119466
2.26263e-06
0.0145806
0.0356785
2.50955e-06
3.2812e-05
1.89957e-06
2.81663e-06
0.0172908
0.0848362
0.0273165
0.0084659
0.0273047
0.000166245
0.220416
0.00963649
2.86562e-06
2.36821e-06
1.73897e-06
2.87938e-06
2.45125e-06
0.0336204
0.0449298
2.18267e-06
3.23585e-06
3.02768e-06
0.020227
2.17338e-06
1.81083e-06
0.0167871
1.87688e-06
1.21754e-05
2.48508e-06
3.29468e-06
4.22181e-06
0.0190117
1.73877e-06
3.26806e-05
1.42982e-05
2.78939e-06
2.51171e-06
2.03354e-06
2.13189e-06
2.33734e-06
0.0182054
0.0264675
3.52327e-06
0.0101418
0.0217884
3.28302e-06
3.18366e-06
0.0229927
6.64032e-06
0.0241045
2.32144e-06
0.000146369
2.76434e-06
0.00828047
2.53546e-06
6.99755e-05
3.46458e-06
2.7922e-06
3.93288e-06
0.0205442
0.231593
0.0083175
3.67641e-06
0.0188648
0.00892442
0.0608385
2.77661e-06
2.40048e-06
0.0117245
0.0119817
2.41363e-06
0.164397
2.10025e-06
0.00970749
0.0582383
0.00968993
2.11439e-06
2.41448e-06
0.0155284
0.0265886
0.00547303
2.01897e-06
3.09204e-06
1.86455e-06
2.98364e-06
1.8612e-06
4.57642e-06
2.41208e-06
2.29733e-06
0.00923711
0.0174207
0.00627163
2.42469e-06
2.05651e-06
0.023297
0.0169822
2.40452e-06
0.0273159
0.021805
1.77741e-06
0.0236942
0.0431487
0.0133388
0.0160348
2.55349e-06
0.0176487
4.37734e-06
6.21791e-06
3.8826e-06
2.39379e-06
0.0136533
0.0110933
0.115533
9.21112e-06
2.67655e-06
0.0114231
4.10231e-06
3.7254e-06
0.00577321
2.43785e-06
8.5686e-06
2.08467e-06
2.54161e-06
0.00950432
2.1616e-06
5.74011e-06
2.59772e-06
0.0172762
6.39679e-06
2.44991e-06
2.29179e-06
2.71014e-06
2.99203e-06
0.0412537
2.41412e-06
2.90042e-06
2.19395e-06
0.00175495
2.49279e-05
0.0101672
0.026041
2.31916e-06
2.85033e-06
2.65093e-06
4.39227e-06
2.39725e-06
0.0174008
0.0283946
2.88232e-06
6.40267e-06
2.81194e-06
2.46631e-06
2.89675e-06
3.08476e-06
0.0222902
2.29595e-06
2.32638e-06
0.079651
3.34923e-06
2.08759e-06
0.266743
2.39951e-06
0.0515333
0.0212381
0.0219409
0.110986
8.12724e-05
0.0128647
0.0109752
2.07974e-06
0.00920103
2.72118e-06
3.33634e-06
2.09703e-06
0.0396462
1.8421e-06
1.77534e-06
0.120904
0.0231651
0.0466231
1.88819e-06
2.40131e-06
1.80239e-06
2.47493e-06
1.45807e-05
2.6436e-06
2.10208e-06
0.0139482
0.00892497
0.0311964
0.0251772
0.00842135
1.21064e-05
1.80287e-06
3.07761e-06
0.0220161
2.30559e-06
2.62827e-06
0.0281306
1.83824e-06
2.4404e-06
1.89223e-06
3.21978e-06
3.34321e-06
1.78637e-06
0.0489642
0.0100365
3.66646e-06
7.63991e-06
6.22245e-06
0.00996115
2.31774e-06
2.43502e-06
2.13094e-06
2.30247e-06
0.0234585
1.73731e-06
2.31288e-06
3.31234e-06
0.0138373
2.49049e-06
2.41155e-06
0.010334
2.03428e-06
3.49518e-06
2.7844e-06
1.66367e-06
1.79321e-06
1.71307e-06
2.29717e-06
2.35578e-06
2.53217e-06
1.10749e-05
3.18916e-06
0.0470334
2.44948e-06
0.0108051
2.31254e-06
2.23177e-06
1.89905e-06
3.34825e-06
2.29769e-06
0.000133898
0.0319115
2.6307e-06
0.0133292
2.41288e-06
0.0428055
1.98896e-06
2.26334e-06
2.85229e-06
0.0148211
0.0267405
0.0151459
0.0273743
1.9261e-06
1.80706e-06
0.011017
2.87963e-05
1.06311e-05
2.40377e-06
2.39002e-06
7.95622e-06
3.63291e-06
1.82326e-06
0.000422627
0.0339851
2.11653e-06
0.039613
0.00949762
0.0112722
4.10696e-06
0.0109222
0.0207753
2.57971e-06
1.80999e-06
3.00393e-06
2.09064e-06
0.0303162
2.2268e-06
6.73057e-05
0.0319674
0.0138357
0.01053
6.12038e-06
2.60384e-06
0.000828809
0.0324872
4.27702e-06
2.07411e-05
1.88351e-06
0.000231323
2.79495e-06
0.0101113
0.00222667
1.74306e-06
1.90757e-06
1.8359e-06
0.0272594
2.36104e-06
3.65444e-06
0.0229402
1.77508e-06
0.00987982
1.91609e-06
1.82171e-06
5.35959e-06
1.86689e-06
0.011918
3.50006e-06
0.0742937
2.3963e-06
0.0138583
4.73059e-05
0.036635
2.22511e-06
1.71647e-06
2.30492e-06
2.84051e-06
2.30903e-06
0.00032897
0.000509094
0.0570276
0.0222187
0.0023358
0.000138499
2.74535e-06
2.10402e-06
1.92793e-06
1.78859e-06
2.37124e-06
0.022484
2.62601e-06
0.00960124
2.62325e-06
0.0662658
0.0109318
2.12241e-06
2.415e-06
5.41986e-06
0.0521958
2.43856e-06
2.47143e-06
2.59945e-06
0.0939316
0.0246294
0.00988075
0.00216978
1.66738e-06
0.00698279
1.92735e-06
0.0151622
0.0199523
2.4708e-06
2.29434e-06
1.75809e-06
0.0108967
0.00733734
2.29011e-06
0.0246033
0.0105015
7.19214e-06
0.00878522
2.09004e-06
0.0111663
0.000129358
0.0569296
3.50523e-06
0.0387238
1.22085e-05
0.016781
2.56248e-06
2.09839e-06
0.0497292
0.00959822
0.00184063
1.98859e-06
0.0399685
0.0190485
2.01752e-06
1.92971e-06
2.02601e-06
3.83752e-06
2.31499e-06
3.14663e-06
2.12701e-06
2.24925e-06
0.0204522
0.00548203
3.13433e-06
0.0111264
0.0271274
0.0116316
2.39106e-06
2.21114e-06
2.40908e-06
0.0214849
0.0175543
0.0108145
0.0209454
4.11192e-06
6.16978e-05
0.00507068
3.19719e-06
2.63017e-06
3.99658e-06
0.0162606
3.02953e-06
0.0348363
1.54419e-05
0.0306065
0.00347084
0.0207032
0.0205189
2.34508e-06
5.4151e-06
0.0261291
0.0180283
0.0231926
0.0215852
2.43511e-06
0.0100545
0.0123095
0.010372
0.000480806
0.014658
5.40237e-06
2.33142e-06
0.000375687
0.0303151
2.63405e-06
1.91456e-06
0.0087584
8.55398e-06
1.85195e-06
0.0274743
0.120452
0.0140066
0.0580397
0.0109842
0.0317733
0.0314086
3.63018e-06
0.0197831
0.0452485
0.0304307
0.0280478
0.025323
1.58608e-05
0.0369694
0.0409819
2.48317e-06
2.29892e-06
2.37348e-06
2.29324e-05
0.000207702
0.0223118
0.0143778
0.0247337
5.51539e-06
0.0273903
5.23021e-05
2.27706e-06
0.00900834
2.33296e-06
0.010297
2.68397e-06
0.00159116
0.0191826
2.21526e-06
1.78665e-06
1.91496e-06
2.99074e-06
2.4147e-06
2.492e-06
0.00155149
2.43035e-06
1.08896e-05
0.0129941
2.58667e-06
0.00893633
1.77303e-06
0.0489767
2.7831e-05
2.58785e-06
0.0296223
2.37456e-06
4.8709e-06
0.0307947
0.0207615
0.0092443
0.00387385
4.81951e-06
2.50981e-06
0.000958048
0.000749168
0.0102054
2.05033e-06
0.0156913
3.33661e-06
0.018699
0.00599231
2.43044e-06
9.53636e-05
2.07719e-06
2.6013e-06
0.00799359
3.15097e-06
2.1468e-06
0.0284501
2.41568e-06
0.0273753
2.37776e-06
0.00773423
0.0567844
2.36906e-06
0.011868
3.86234e-06
1.36265e-05
2.37721e-06
0.0100197
2.25572e-06
0.029169
2.50223e-06
1.93995e-06
1.28814e-05
2.56598e-06
2.41372e-06
2.02764e-06
4.99761e-06
0.0392709
1.84269e-06
0.174175
0.0310078
9.80746e-06
0.0681862
0.0350504
5.68036e-06
2.10249e-06
0.000400032
0.00915313
0.0536366
1.85116e-06
2.72065e-06
1.76659e-06
1.7918e-06
2.44018e-06
0.0301489
0.00482335
1.13089e-05
0.0122584
4.53625e-06
0.0117431
2.0824e-06
6.49398e-06
1.95839e-05
1.90613e-06
0.00978085
2.88192e-06
0.00379902
0.00498787
0.243597
1.73864e-06
0.0098809
2.27259e-06
1.95686e-06
0.0221269
3.18066e-06
3.74775e-06
2.49112e-06
1.91422e-06
0.00948473
2.86883e-06
3.21773e-06
2.01949e-06
0.0101354
2.17416e-06
2.40149e-06
1.79979e-06
1.06293e-05
0.000186276
4.47004e-06
2.39598e-06
0.000109238
2.25616e-06
3.19101e-06
2.33281e-06
3.56938e-06
0.00613787
2.0729e-06
7.66146e-06
1.65076e-05
2.06234e-06
0.0379736
0.0278076
3.66343e-06
1.35422e-05
0.0148093
0.128681
0.000967326
1.4327e-05
1.26258e-05
2.35507e-06
3.55527e-06
2.46499e-06
0.0215495
0.0196368
0.0206548
2.03595e-06
2.98191e-06
0.0134378
3.19103e-06
0.0155407
2.16705e-06
0.0104033
2.27369e-06
0.00793348
2.09322e-06
0.00258633
0.0229593
3.12143e-06
2.10053e-06
2.36707e-06
2.19055e-06
3.03287e-05
0.018119
0.0139794
2.9041e-06
3.28616e-06
0.00970858
0.0110775
1.81924e-06
0.0215115
0.0174382
1.17384e-05
2.34458e-06
0.0428634
6.10572e-06
2.09791e-06
0.012538
0.0310839
0.0377265
0.0257421
0.0200907
2.61038e-05
0.0100144
2.03727e-06
3.59269e-06
2.37039e-06
2.3259e-06
1.9932e-06
0.0179874
0.0283493
2.4813e-06
0.000593019
0.00994527
0.0109819
0.0104467
0.0275681
0.0183768
2.39995e-06
0.00987043
0.019705
1.87211e-06
6.10709e-06
2.04592e-06
0.0125093
0.0098062
2.66851e-06
2.42251e-06
0.00974246
2.46177e-06
1.99623e-06
2.46329e-06
2.68383e-06
0.0256767
1.81449e-06
0.0196528
4.14505e-06
0.0139623
2.98596e-06
0.000109718
0.0308515
0.0194184
2.80836e-06
1.21786e-05
0.00877952
1.9199e-06
0.00983852
0.015767
0.0116567
8.64135e-05
0.197527
1.38724e-05
2.26252e-06
3.98949e-06
3.63964e-06
0.0027708
0.000120313
0.0157632
2.60325e-06
1.99079e-05
2.01415e-06
0.0251794
2.61908e-06
0.298093
0.0327919
2.93459e-06
0.00995972
2.12687e-06
2.30794e-06
2.31443e-06
2.08674e-06
2.50484e-06
2.67913e-06
1.86888e-06
3.5129e-06
3.27746e-06
0.00436652
2.60196e-06
1.83314e-06
6.15746e-05
3.27441e-05
2.00545e-06
2.31375e-06
2.26257e-06
0.0744582
0.0754503
3.26842e-06
3.10082e-06
0.00126071
2.70088e-06
2.11147e-06
0.0201674
0.0172296
0.015032
2.58193e-06
3.68101e-06
1.92342e-06
0.0406851
8.6517e-06
1.9956e-06
0.0267349
2.41185e-06
2.24005e-06
2.0515e-06
0.0369143
1.83478e-06
1.85727e-06
0.020807
0.0334205
0.0133026
2.48164e-06
0.0304276
2.49597e-06
2.63275e-06
0.0350828
1.94871e-06
0.0202689
0.0273462
2.41847e-06
2.06719e-06
1.9157e-06
0.0115642
0.000291725
0.0510059
2.40087e-06
0.000169705
2.1389e-06
0.011106
2.65678e-06
6.55721e-06
0.0248683
0.000198148
2.68063e-06
0.0111432
0.0090899
0.0275753
0.000155911
2.65797e-06
1.72194e-06
3.98032e-05
0.0162304
1.19747e-05
2.0809e-06
3.46263e-06
0.0361385
1.83781e-06
2.25997e-06
0.026326
0.0083566
2.48752e-06
0.000212208
0.0117529
1.9101e-06
3.58796e-06
0.00548612
3.11321e-06
2.73724e-06
0.0177346
6.45404e-06
0.00869625
2.69122e-06
0.000421322
2.82879e-06
2.74587e-06
3.09174e-06
8.78356e-06
0.0177708
0.0649889
0.00967104
1.80045e-06
6.50922e-06
3.66168e-06
2.01562e-06
0.0246447
0.00792974
5.29193e-06
0.0859046
0.0208845
2.32233e-06
2.12036e-06
0.0126816
8.08192e-06
2.43396e-06
3.57866e-06
0.0010609
0.000282923
0.000348164
2.32389e-06
2.08562e-06
2.00339e-06
0.0015108
2.41089e-06
2.02024e-06
4.38626e-06
2.84567e-06
1.80387e-06
1.8921e-06
0.0146359
0.02013
0.000333068
4.11288e-06
2.37117e-06
0.0114849
9.47247e-05
2.1058e-06
4.71609e-06
3.22112e-06
0.0447433
2.07352e-06
4.88026e-06
2.11085e-06
2.27211e-05
2.00568e-06
2.46698e-06
2.59377e-06
5.18356e-06
2.88613e-06
2.93854e-06
2.54773e-06
2.44398e-06
2.40231e-06
0.0118176
0.00890383
0.0313324
1.82216e-06
2.29421e-06
2.10276e-06
2.24076e-06
0.000547755
1.90803e-06
1.93174e-06
0.000653435
0.0201265
2.14772e-06
2.38863e-06
0.104288
2.17689e-06
5.75173e-06
0.00953552
3.08965e-06
4.12915e-06
0.0114784
0.0286377
3.6517e-06
2.14182e-06
0.0157115
6.40035e-05
1.84498e-06
0.00751178
0.187613
1.81504e-06
0.0282603
2.2023e-06
4.70357e-06
0.026544
0.026996
2.37728e-06
2.65737e-06
2.7339e-06
0.0304436
0.000110947
0.0368802
1.70886e-06
3.71851e-06
2.35265e-06
0.0223556
0.014514
2.60602e-06
0.0116422
1.76896e-06
2.71469e-06
2.36169e-06
9.17658e-05
0.0273048
1.77229e-06
3.30351e-06
2.18464e-06
0.00860207
0.000169775
2.78304e-06
2.60195e-06
0.00912997
0.00104635
4.12143e-06
6.86902e-06
0.0213264
4.1616e-06
0.0188887
2.52389e-06
0.145601
5.75807e-06
0.0104959
0.026215
0.0165705
0.000110641
2.42838e-06
4.776e-06
0.0123597
0.00486218
0.0167039
7.41105e-06
0.00947621
1.80198e-06
0.0326132
0.171977
1.97249e-06
0.00019358
1.8167e-06
0.00258086
2.1663e-06
1.76963e-06
0.000106624
1.00419e-05
2.30855e-06
1.90662e-06
3.76131e-06
2.07217e-06
2.70014e-06
6.79186e-06
2.49472e-06
3.47251e-06
0.0795247
2.13563e-06
0.00897541
0.115541
2.178e-06
0.0131704
3.31235e-06