/*--------------------------------*- C++ -*----------------------------------*\
| =========                 |                                                 |
| \\      /  F ield         | OpenFOAM: The Open Source CFD Toolbox           |
|  \\    /   O peration     | Version:  v2012                                 |
|   \\  /    A nd           | Website:  www.openfoam.com                      |
|    \\/     M anipulation  |                                                 |
\*---------------------------------------------------------------------------*/
FoamFile
{
    version     2.0;
    format      ascii;
    class       volScalarField;
    location    "100";
    object      epsilon_0;
}
// * * * * * * * * * * * * * * * * * * * * * * * * * * * * * * * * * * * * * //

dimensions      [0 2 -3 0 0 0 0];


internalField   nonuniform List<scalar> 
14315
(
0.0900629
0.0195975
2.29521e-06
3.58724e-06
5.69286e-06
1.98762e-06
0.0158996
2.40608e-06
2.44451e-06
2.33383e-06
6.94074e-06
0.0110941
0.102422
1.8682e-06
0.0106146
2.77071e-06
2.40094e-06
2.95108e-06
2.7885e-06
2.70968e-06
2.84187e-06
0.0381081
2.5312e-06
0.0108414
4.38323e-06
0.0190497
3.10073e-06
0.016426
3.1794e-06
8.39045e-06
1.98417e-06
2.87799e-06
1.84369e-06
0.0338292
0.0221777
0.0409434
0.000412114
2.38134e-06
1.69242e-05
6.20843e-06
0.0312722
0.00970358
2.43462e-06
2.22144e-06
2.34072e-06
3.93921e-06
3.46647e-06
0.0105736
0.0100608
3.00154e-06
0.0108558
3.57931e-06
0.0107949
0.0103196
1.88702e-06
0.0422324
0.0217804
2.4672e-06
2.72996e-06
2.29748e-06
1.4616e-05
0.0239287
0.0406751
2.74988e-06
9.33008e-06
0.00120447
0.122135
3.65565e-06
2.78625e-06
1.8876e-06
0.0102413
2.42399e-06
0.0238391
0.0325029
2.63889e-06
0.0922149
2.1269e-06
0.0533193
2.32918e-06
1.67969e-06
2.27019e-06
0.0392405
2.39935e-06
0.0542437
2.81325e-06
1.72877e-06
0.127952
0.0109945
0.0114816
6.4861e-06
2.1258e-06
4.32994e-06
2.25021e-06
1.78041e-06
0.0105209
0.0107004
2.44353e-06
0.0122488
0.0153412
9.5503e-06
3.68472e-06
0.0102473
0.0397139
2.22011e-06
1.03241e-05
1.33328e-05
0.018493
0.0119611
2.08305e-06
4.73009e-06
0.0104092
2.65447e-06
0.0200989
2.97765e-06
2.42351e-06
0.010938
2.99459e-06
0.0118299
0.0196691
0.0310931
0.000144647
1.90494e-06
2.21484e-06
0.0124754
3.03229e-06
2.24211e-06
4.79203e-05
2.33771e-06
1.87733e-06
4.20255e-06
0.00795474
0.0296793
0.000156673
0.00959545
9.07978e-06
2.72161e-06
2.58301e-06
0.0216653
1.69742e-06
2.67399e-06
0.021487
0.0124447
2.66153e-06
0.0129517
4.65166e-06
0.00809694
6.87942e-06
0.0367577
1.91625e-06
2.89217e-06
2.27833e-06
0.0222501
2.41023e-06
1.91703e-06
5.30135e-06
0.0108797
2.43131e-06
2.76873e-06
1.97888e-06
0.0211567
2.70605e-06
0.0103289
0.0446666
0.0107264
2.22127e-06
0.0124695
0.00875699
5.78501e-06
0.0176525
0.0261523
0.0265109
2.95287e-06
0.00966466
2.33056e-06
2.33885e-06
0.000907831
4.20289e-06
0.0392938
0.0312022
0.00785042
2.18509e-05
2.11645e-06
2.22662e-06
0.00322259
2.37071e-06
2.3831e-06
5.5052e-06
2.45603e-05
0.0249848
0.00304218
2.5048e-06
6.12648e-06
0.0094192
0.00760525
1.74335e-06
0.0211099
1.73864e-05
2.24667e-06
2.38396e-06
5.85412e-06
0.0108161
2.21548e-06
0.0120241
0.0096685
2.04374e-06
2.56624e-05
8.20866e-06
2.31148e-06
2.74266e-06
0.00995959
1.93385e-05
1.86656e-06
0.0104192
3.40048e-06
0.0116057
0.0211895
0.0598662
0.0164892
0.0109846
3.89579e-06
2.20731e-06
2.06539e-06
3.06488e-06
2.34483e-06
0.0243949
2.2747e-06
2.48601e-06
0.00280513
0.023365
0.215063
2.46095e-06
2.23492e-06
2.82758e-06
3.93647e-06
4.27241e-06
1.75664e-05
2.32123e-06
2.33447e-06
0.0227872
0.0180799
1.77211e-06
2.06973e-06
0.0169577
0.011827
0.00212769
5.88729e-06
0.03391
3.68981e-06
0.0191405
0.0170752
1.91808e-06
2.20737e-06
0.0401066
0.000595856
2.50657e-06
0.0242953
2.14199e-06
3.83671e-05
0.0169434
6.9198e-06
9.7535e-05
1.9037e-06
0.0106001
0.0129122
0.0127468
2.13787e-06
2.88993e-06
2.07842e-06
1.74022e-06
0.0121685
0.0205643
2.0382e-06
0.00509641
0.00973747
2.51111e-06
0.0321249
0.0211102
2.33516e-06
0.01475
2.22901e-05
1.98522e-06
1.93437e-06
0.0178671
0.0379518
2.44934e-06
0.0105536
0.0383173
0.019193
0.0092555
0.0304212
2.35742e-06
0.0107477
0.00961324
0.0161572
1.06983e-05
2.77085e-06
0.0118226
3.50041e-06
2.85467e-06
2.40679e-06
2.13135e-06
0.0101203
0.0401812
0.019284
2.3855e-06
2.79555e-06
0.00783147
0.0372091
2.83695e-06
1.87011e-06
0.0447882
2.13369e-06
0.0190346
0.0110598
4.00359e-06
3.12699e-05
1.87286e-06
2.14144e-06
2.25209e-06
2.99827e-06
0.0116768
0.00269505
0.010355
2.12916e-06
0.0378951
1.74885e-06
0.0122234
1.48383e-05
6.43103e-06
1.89418e-06
2.13813e-06
0.00837748
3.87066e-06
0.0216888
0.0285846
3.06222e-06
0.00994758
0.0419283
0.0423096
0.0194421
2.23977e-06
0.0336654
2.61704e-06
3.72633e-06
0.0370399
2.95512e-06
1.92671e-06
0.146672
6.29174e-06
0.0104573
4.14573e-06
2.56668e-06
0.00748374
0.0118402
0.00482697
2.69576e-06
2.0286e-06
4.27488e-06
2.80662e-06
0.0127226
3.29728e-06
0.014501
0.0378821
0.0146457
0.0375709
0.017692
2.33888e-06
0.0106462
0.0171923
1.99515e-06
0.000170884
2.42222e-06
4.14758e-06
0.0325908
0.00849894
2.82716e-06
2.26072e-06
3.09389e-06
2.71417e-06
0.0177923
0.0114073
2.3906e-06
2.92099e-06
0.0293255
4.70182e-06
0.0207231
3.21386e-06
0.0236895
0.0216314
0.00157594
2.24272e-06
0.0115784
0.0456137
0.034697
0.0106233
0.0199664
2.69646e-06
4.09653e-06
2.07975e-06
0.00971649
2.24585e-06
2.41136e-06
1.85261e-06
0.0108465
0.0215287
2.44405e-05
0.0101587
0.00267289
0.0133555
0.000914668
2.52464e-06
0.0138357
0.00996327
2.85252e-06
1.91487e-06
2.13859e-06
7.73892e-06
0.0150284
2.871e-06
0.000528698
2.0297e-06
0.0813259
1.20676e-05
2.41905e-06
3.89002e-06
0.0121725
0.0180281
3.15792e-06
2.3075e-06
1.87438e-06
0.0129261
0.0210618
4.09581e-06
2.40937e-06
0.00072289
1.82769e-06
3.93235e-06
0.0101619
5.01133e-06
2.88494e-06
0.000507585
2.69455e-06
0.008675
2.81685e-06
2.37728e-06
9.78807e-06
4.15165e-06
0.0127416
3.14889e-06
2.35097e-06
0.103774
0.0123794
3.63506e-06
2.37534e-06
1.94259e-06
0.00965272
0.00456644
0.0132245
0.0144792
4.66814e-06
2.54873e-06
0.02183
0.0107205
3.79433e-06
0.0223515
0.0233231
0.010344
4.57718e-06
2.38893e-06
0.00775974
1.90129e-06
4.82873e-06
0.0101925
2.34878e-06
0.012263
2.35997e-06
1.91133e-06
2.10464e-06
0.0105496
0.0107167
3.14129e-06
0.0591429
4.69351e-06
0.0106812
0.01412
1.88024e-05
4.22348e-06
0.0185335
2.41024e-06
3.63018e-06
2.55488e-06
0.0031121
2.27244e-06
3.80687e-06
9.23258e-05
0.00800376
3.67431e-06
2.3553e-06
0.0639729
0.0219384
6.44419e-06
0.0173847
0.0118011
2.22532e-06
4.21455e-06
1.92214e-06
0.0441155
9.16504e-06
2.46961e-06
1.85645e-06
0.0215985
2.34967e-06
1.95094e-06
2.05559e-06
3.72703e-05
0.0420179
5.32897e-06
0.0190052
0.0337641
4.32752e-06
0.0106327
1.83802e-06
1.82192e-06
2.93013e-06
0.00332432
0.0102792
2.31963e-06
3.64406e-06
3.73657e-06
1.7059e-06
2.6808e-06
3.08646e-06
2.9061e-06
1.85504e-06
0.00710754
0.0118796
2.49793e-06
0.0121776
4.59325e-06
3.88477e-06
0.0153086
1.83875e-06
0.00997766
0.000620341
1.95482e-06
2.51719e-06
2.15264e-06
5.93484e-06
3.08789e-06
0.0103923
1.93931e-06
2.22451e-06
0.0145275
0.0146576
0.0224779
0.017667
2.8674e-06
2.76041e-06
2.57691e-06
2.36143e-06
0.00844182
0.0242944
0.00766609
9.26672e-06
1.94047e-05
9.93932e-06
3.08195e-06
3.92467e-06
2.1522e-06
1.91149e-06
0.040669
2.25556e-06
0.0109901
1.20318e-05
0.0130755
2.2985e-06
2.33565e-06
2.87195e-06
0.208469
1.85836e-06
0.0315792
3.65274e-06
3.13475e-06
0.0180425
2.852e-06
2.16271e-06
1.74015e-06
1.85977e-06
8.62754e-06
2.28448e-06
0.00948529
2.82376e-06
5.6628e-06
3.24884e-06
5.72324e-06
2.79501e-06
0.0310515
2.4326e-06
0.0199623
0.00897606
2.50621e-06
0.00235357
0.0184797
0.145195
1.92777e-06
3.63679e-06
0.0366653
2.51392e-06
2.36992e-06
0.0462346
0.0102043
9.94749e-06
0.0100917
1.88871e-06
1.54419e-05
2.41925e-06
5.61398e-06
2.31857e-05
3.69584e-06
2.52701e-06
1.05587e-05
3.44307e-05
2.31397e-06
9.32449e-06
0.00800212
1.66392e-06
1.76524e-06
0.0228499
2.32649e-05
0.0105369
1.76134e-06
3.22959e-06
2.97155e-06
1.83215e-06
0.00772289
3.67568e-06
0.00784014
2.32873e-06
0.0370851
2.25402e-06
2.69426e-06
2.52457e-06
2.11281e-06
0.0131905
0.0231896
0.0090767
2.28128e-06
2.36547e-06
4.16044e-06
1.98825e-06
0.000854646
0.0215543
0.0178478
3.20268e-06
8.43498e-06
0.0925373
2.35446e-06
2.00424e-06
4.28123e-06
0.0152844
1.91893e-06
2.01616e-06
0.00133885
0.0468945
1.23979e-05
0.0782254
2.60076e-06
2.31913e-06
0.00989417
2.42567e-06
0.0121543
1.75755e-06
8.15611e-06
2.59906e-06
2.36284e-06
1.88149e-06
0.00118509
0.0196314
3.32285e-06
0.153794
3.29389e-06
4.17597e-06
0.00378117
0.012291
2.17452e-06
0.0125174
0.00121811
0.0545779
0.0194339
1.84794e-06
2.45665e-06
1.70306e-06
1.86684e-06
2.4354e-06
1.88375e-06
0.0471643
0.0332594
2.29542e-06
2.07231e-06
2.50323e-06
1.8207e-06
0.0074632
2.48673e-06
3.52915e-06
3.16696e-06
2.37677e-06
0.0106227
1.58262e-05
5.81068e-06
0.0240943
2.39363e-06
0.0190303
2.7208e-06
1.86129e-06
3.00073e-06
2.5526e-06
2.49528e-06
2.11572e-06
2.46071e-06
2.16569e-06
2.31542e-06
0.0108977
1.75238e-06
2.36445e-06
4.71987e-06
1.77682e-06
2.40423e-06
3.99872e-06
2.43845e-06
0.0948884
2.23239e-06
4.04583e-06
0.0335127
0.0259485
0.00786176
0.000248068
2.70916e-06
0.00980665
2.65489e-06
2.72824e-06
0.143467
3.20689e-06
2.91072e-06
2.51319e-06
3.1149e-06
0.00929074
2.14042e-06
0.0138205
2.35459e-06
0.0328107
5.8824e-05
4.3428e-06
2.42722e-06
0.0106397
0.0422175
0.012259
2.56642e-06
0.00760661
2.65269e-06
0.0172206
4.1692e-06
0.00841011
0.00988407
0.000319346
0.0602406
3.20037e-06
0.024573
1.89842e-06
2.51755e-06
0.000515321
0.0173634
2.27699e-06
2.51314e-06
0.000351143
0.0102356
0.0822955
2.62825e-06
0.00164438
0.0300673
0.0274723
0.0118989
2.1767e-06
0.00269456
0.0259619
0.0165265
2.38879e-06
0.0439417
2.61127e-06
1.84626e-06
2.40319e-06
3.1799e-06
2.40694e-06
1.13871e-05
0.033457
3.21208e-06
2.42013e-06
2.13417e-06
0.0479141
3.61914e-06
2.38468e-06
5.30694e-05
0.00976858
0.0113635
1.90019e-06
0.0264498
4.10706e-06
1.95127e-06
2.1838e-06
1.331e-05
0.0101433
2.71759e-06
0.0127874
1.04342e-05
0.0221921
1.73719e-05
4.08613e-06
0.0180548
2.70827e-06
0.0126057
3.77882e-06
1.73108e-06
2.64329e-06
3.84973e-06
1.7629e-06
2.56399e-06
2.38812e-06
2.37688e-06
0.0725062
1.82882e-06
2.28154e-06
0.034321
0.00854311
0.0104809
3.66905e-06
2.29318e-06
0.00760748
2.15163e-06
2.52209e-06
0.0104491
2.42286e-06
0.0119707
0.0177952
0.0101582
0.0125059
0.0203306
8.9906e-06
0.109722
0.0280619
2.38423e-06
3.5023e-06
2.82307e-06
1.33521e-05
0.0315245
8.81574e-06
0.0103758
2.3485e-06
0.0129426
4.84967e-05
1.99631e-06
0.124015
2.80957e-06
0.00844639
2.43145e-06
2.3706e-06
2.0564e-06
4e-06
1.03236e-05
2.28692e-06
0.000125937
2.43603e-06
4.01521e-06
2.52372e-06
0.0510852
2.86581e-06
1.75275e-06
2.61287e-06
9.41688e-06
1.92416e-06
2.74723e-06
2.17597e-06
0.0104322
2.44168e-06
2.25925e-06
2.41773e-06
3.11265e-05
1.79186e-06
0.0156776
3.299e-06
0.0186544
2.18721e-06
0.00983353
0.0112111
4.10447e-06
0.222002
0.0210868
0.0214474
0.0167554
2.1298e-06
7.09721e-06
0.0136218
0.00985205
1.77625e-06
2.38548e-06
7.61971e-05
2.29738e-06
0.0540809
2.13802e-06
0.0111785
0.011215
0.00894944
2.46022e-06
0.0387936
0.0317296
1.8862e-06
0.0163519
2.71893e-06
1.77636e-06
0.00882892
0.0195624
2.8492e-06
3.78507e-06
0.0163035
2.37474e-06
0.0208941
2.83577e-06
1.10745e-05
3.53632e-06
0.0435787
0.0288465
0.0340215
1.85894e-06
4.12853e-06
0.0260474
2.218e-06
0.0013956
2.52729e-06
1.97948e-06
3.16104e-05
0.000439268
0.0142993
0.000791365
2.16839e-06
0.0124261
2.38415e-06
2.5333e-06
0.00530604
0.02306
0.0184689
0.0086885
0.00933765
9.24531e-06
0.175196
0.0445119
0.0130787
1.14463e-05
0.0431694
2.27996e-06
2.32841e-06
2.83355e-06
3.64877e-06
0.0233527
0.0108506
4.10527e-06
0.0267612
0.00441016
3.45219e-06
0.0234468
2.3907e-06
0.000405539
5.33744e-06
8.71803e-06
0.0115036
0.0417238
3.0559e-06
0.0331862
3.7779e-06
2.38522e-06
2.14216e-06
1.83945e-06
0.000213257
2.02967e-06
2.58922e-06
0.0375305
1.7998e-06
0.0521546
1.91324e-06
0.011595
1.09304e-05
1.99883e-06
0.0213189
0.00857697
0.0107343
0.0103618
0.0120608
3.39965e-05
0.0145308
0.0105857
5.13007e-06
2.33019e-06
0.0102309
2.28579e-06
0.0088403
3.59547e-06
1.89981e-06
0.0360583
2.8265e-06
0.00859739
3.97003e-06
2.2674e-06
0.00890834
0.00955634
0.0120509
2.32182e-06
0.0133496
1.19354e-05
4.02681e-06
0.0151446
0.0107566
7.25861e-06
4.49203e-06
1.99876e-06
3.11217e-06
2.43253e-06
0.0089576
0.0208579
1.65948e-06
0.0233187
0.0125144
2.71404e-06
2.61772e-06
0.0102937
2.88568e-06
0.0335094
0.0137156
1.98744e-06
1.83669e-06
0.00175066
2.33663e-06
0.00344543
0.0125644
2.60454e-06
0.0384391
4.09652e-05
3.21443e-06
4.22132e-06
2.4074e-06
2.70625e-06
3.19333e-06
0.0113194
0.00415226
2.09367e-06
5.52195e-06
0.0130657
1.92801e-06
3.19936e-06
3.66344e-06
2.27215e-06
2.35164e-06
0.0107027
2.10498e-06
3.57945e-06
0.0203395
3.18476e-06
0.0163687
0.0169167
4.12699e-06
3.74163e-06
2.64458e-06
0.0391178
1.74097e-06
2.1258e-06
0.0395762
0.00988821
5.85976e-06
0.0186564
0.0241424
0.0216406
3.51185e-06
0.0218677
1.02848e-05
0.0107057
0.000312837
2.39171e-06
0.0279617
2.58858e-06
0.0934075
3.20382e-06
0.0585428
2.39658e-06
0.0103583
2.3311e-05
1.90456e-06
1.88899e-06
3.9005e-06
0.00187823
2.68625e-06
0.0202537
0.0172233
0.0308078
2.86735e-06
0.00996775
0.0121563
2.73767e-06
0.0136086
2.49665e-06
0.0172934
0.0110872
2.17026e-06
0.0159677
0.0254203
1.90297e-06
0.00998799
1.74176e-06
0.0126125
2.49293e-06
0.000123932
0.0104843
2.04876e-06
0.00313414
2.42355e-06
3.64426e-06
2.69979e-05
2.58488e-06
0.000178343
0.0121172
2.97268e-06
4.99414e-06
5.67393e-06
2.55519e-06
0.0114758
2.14649e-06
0.0384537
0.00357633
2.3558e-06
0.0181565
1.03781e-05
0.008882
2.76637e-06
2.12948e-06
0.0734046
1.13175e-05
1.77287e-06
0.0108998
0.0423554
1.21223e-05
0.00946705
3.28752e-06
0.0578931
4.11862e-06
0.0018026
0.0123977
2.225e-06
7.92686e-05
3.67693e-06
0.00873754
1.78581e-05
2.41617e-06
0.0720798
3.03509e-06
1.95531e-06
9.39076e-06
0.0714319
4.0303e-06
1.91488e-06
9.70464e-06
0.011022
1.91452e-06
1.23641e-05
3.10936e-06
1.76576e-06
3.24744e-06
1.86626e-06
0.0110505
2.52345e-06
0.0103147
1.69066e-06
0.00439753
2.32664e-06
0.0234718
0.000145816
2.12954e-06
3.22195e-06
2.07744e-06
3.58018e-06
0.000858424
1.78496e-06
0.00964672
4.61447e-06
2.4307e-06
0.0095848
0.0551208
0.00168091
0.0122736
4.04896e-06
0.0232231
0.0142288
7.4502e-05
0.00979062
0.00609231
2.71768e-06
1.79429e-05
1.85069e-06
5.62699e-06
5.96142e-06
1.89351e-06
4.55294e-06
2.29055e-06
3.23094e-06
0.0107634
0.0402001
0.0189995
3.26809e-06
0.0114147
0.089416
2.37225e-06
1.95261e-06
0.0215442
4.70584e-06
2.04987e-06
0.00471271
0.0162997
0.0116889
0.00815898
0.0252055
1.81123e-06
0.000136577
1.85139e-06
0.0108885
2.44486e-06
4.71539e-06
0.000228696
1.91636e-05
1.87146e-06
2.90599e-06
0.00799606
1.89862e-06
0.0100988
2.60878e-06
0.0651558
0.0103421
0.220776
0.0158938
3.11859e-06
6.49192e-06
1.97716e-06
0.0100098
0.0128937
3.03604e-05
0.0252643
2.54707e-06
5.73758e-06
2.87681e-06
0.000118702
2.26245e-06
0.0269812
2.72334e-06
0.0341861
0.013422
0.00166029
0.0113948
2.37824e-06
2.26523e-06
0.0912283
3.67107e-06
0.0248038
2.4395e-06
0.0101249
3.02875e-06
0.0361224
0.257822
5.19067e-06
2.42398e-06
7.0753e-05
0.024426
2.55882e-06
3.00695e-06
2.43822e-06
0.0163451
2.29082e-06
0.000186788
0.0166603
0.00980293
0.0155422
0.00753615
5.93701e-06
2.39667e-06
0.0458988
5.07736e-06
2.4175e-06
3.10219e-05
3.63285e-06
2.06258e-06
1.75186e-06
5.18086e-06
3.63357e-06
0.0085191
0.0319123
5.01893e-06
2.39421e-06
2.37708e-06
0.0922683
0.0115942
0.0240882
2.76352e-06
4.00155e-06
0.0176003
6.76796e-06
1.97749e-06
0.000226228
3.6923e-06
2.43274e-06
2.69501e-06
7.64174e-06
1.92364e-06
0.000994086
1.14491e-05
2.25246e-06
3.16514e-06
0.00121432
0.0216776
0.0285887
0.0297844
2.17819e-06
2.30778e-06
5.28437e-05
2.06941e-06
0.0649055
3.15306e-06
3.01508e-06
2.45574e-06
4.98822e-05
2.24778e-06
2.76633e-06
2.48696e-06
3.32559e-06
4.11151e-06
0.0105339
0.0148198
0.110123
0.081349
0.016618
0.0700609
3.8052e-06
3.43602e-06
4.04856e-06
4.92884e-06
2.5118e-06
2.24816e-06
2.65813e-06
0.000821045
0.000769919
2.00772e-06
2.40715e-06
0.0741358
1.06528e-05
5.93147e-06
0.010827
0.00870767
0.016017
2.72593e-06
2.2783e-06
2.04908e-06
3.49065e-06
0.012709
0.0676228
0.00976879
2.26897e-05
3.29132e-06
0.0173722
0.0104595
1.81012e-06
0.000476142
2.42644e-06
2.53843e-06
1.26471e-05
2.02677e-06
2.17575e-06
0.0196423
0.0105654
0.064787
0.0451349
0.0178442
3.36663e-06
3.79977e-06
0.0250664
3.75777e-06
3.4962e-06
0.0315542
0.0515553
2.99438e-06
2.23285e-06
2.31072e-06
2.747e-06
0.000352003
2.34987e-06
2.45964e-06
4.74121e-06
4.23848e-06
4.79136e-06
2.47649e-06
3.23332e-06
0.00260877
6.00802e-05
2.46977e-06
4.84601e-06
1.07879e-05
0.000209481
0.0143627
3.7471e-06
0.0183254
3.56829e-06
2.03904e-06
0.00944186
4.04271e-06
1.89865e-06
2.44267e-06
0.00856284
0.0109293
0.0101418
0.0154538
0.0429299
0.00101802
2.71163e-05
2.03433e-06
2.87724e-06
0.00013194
1.82225e-06
2.35289e-06
0.0227203
2.70343e-06
0.0833219
3.72583e-06
3.2997e-06
2.3834e-06
3.70546e-06
0.0117815
4.39909e-06
1.73855e-06
3.1775e-06
0.030794
4.25734e-06
1.86322e-06
2.21642e-06
0.0223698
2.2461e-06
0.0108236
0.0190088
1.92096e-06
0.0103995
2.34202e-06
2.39489e-06
2.09497e-06
2.2421e-06
2.20872e-06
0.018857
0.0195918
0.0090691
0.00288072
2.30104e-06
0.0112864
2.39729e-06
0.0160113
0.0271725
1.92454e-06
0.207946
2.27015e-06
4.50597e-06
2.8481e-06
2.41202e-06
2.46233e-06
0.0156615
0.0109085
0.0183122
0.0558109
2.20962e-06
5.88067e-06
0.0644337
0.0448585
0.0109951
0.00983648
2.83458e-06
2.31346e-06
8.89156e-06
2.84806e-06
3.21599e-06
1.86075e-06
0.118364
3.39178e-06
3.48756e-06
0.0104408
2.15491e-06
4.00556e-06
0.191321
2.74581e-06
0.00849129
2.47714e-06
0.0010879
0.0719764
0.0133824
0.176498
2.17744e-06
0.016279
5.08364e-06
3.17327e-06
1.67046e-06
0.00939703
2.61995e-06
4.16265e-06
0.045605
4.06273e-06
0.0321649
2.2258e-06
0.00263472
5.0859e-06
0.000317854
3.52589e-06
0.0138789
1.78131e-06
4.05059e-06
2.34043e-06
2.61345e-06
2.05114e-06
0.0889745
5.29115e-05
0.0092005
7.24143e-05
4.6776e-06
2.50169e-06
1.85493e-06
0.0276361
2.32853e-06
2.74856e-06
0.0532646
2.24671e-06
0.0390319
0.0418654
0.0700502
6.42858e-06
2.44889e-06
0.0285386
0.0158324
1.89507e-06
2.18402e-06
0.0187922
0.000626487
0.0130163
2.67654e-06
1.92518e-06
2.43945e-06
0.0159018
0.0011426
1.86697e-06
0.00578369
0.0699275
2.4656e-06
2.69693e-06
1.88431e-06
2.03588e-06
1.85809e-06
1.98478e-06
0.0133055
0.0168925
0.0104051
3.02324e-06
2.15056e-06
0.000150993
0.000291689
2.727e-06
0.0135326
2.01272e-06
3.01503e-06
2.3137e-06
1.72604e-06
1.85339e-06
9.00877e-05
2.4969e-06
0.0065404
0.0381854
1.98269e-06
4.63832e-06
0.00510048
3.74186e-06
1.85851e-06
0.107654
2.22814e-06
2.08126e-06
2.83317e-06
2.46031e-06
0.00946736
0.0103784
4.13611e-06
4.16398e-06
0.0250094
0.02692
2.26344e-06
3.13442e-06
0.0262826
0.0604094
0.0173329
0.0196236
0.0264524
1.86861e-06
1.78816e-06
2.21135e-06
0.00688704
2.35306e-06
0.0102308
0.0164547
0.000128689
2.7906e-06
0.0625577
0.0224855
3.30525e-06
2.44163e-06
1.79039e-06
0.00971246
2.82292e-06
0.00856998
1.86871e-06
0.0181759
2.54983e-06
0.0332603
0.0112821
0.0190151
2.91759e-06
0.0263282
2.89071e-06
2.50735e-06
0.0244938
2.6447e-06
2.47956e-06
1.97101e-06
3.35848e-06
0.00365054
1.90157e-06
0.00119484
2.26262e-06
0.0145803
0.0356744
2.50952e-06
3.27612e-05
1.89957e-06
2.81662e-06
0.0172897
0.084811
0.0273158
0.00846061
0.0273035
0.00016628
0.220404
0.00963577
2.86562e-06
2.36821e-06
1.73897e-06
2.87938e-06
2.45122e-06
0.0336197
0.0449322
2.18268e-06
3.23586e-06
3.02721e-06
0.0202259
2.17338e-06
1.81083e-06
0.0167861
1.87689e-06
1.2181e-05
2.48509e-06
3.29637e-06
4.22181e-06
0.0190108
1.73877e-06
3.26252e-05
1.43246e-05
2.78939e-06
2.51172e-06
2.03353e-06
2.13187e-06
2.33734e-06
0.0182043
0.026471
3.52326e-06
0.0101411
0.0217927
3.28302e-06
3.18279e-06
0.0229918
6.63668e-06
0.0241036
2.32142e-06
0.000146145
2.76433e-06
0.00827986
2.53546e-06
7.10544e-05
3.46457e-06
2.79218e-06
3.9329e-06
0.0205446
0.231408
0.00831689
3.67641e-06
0.0188695
0.0089256
0.060845
2.77655e-06
2.40047e-06
0.0117241
0.0119812
2.41362e-06
0.164389
2.10024e-06
0.00970679
0.0582234
0.00968921
2.1144e-06
2.41445e-06
0.0155275
0.0265892
0.00546253
2.01897e-06
3.09203e-06
1.86456e-06
2.98359e-06
1.8612e-06
4.57646e-06
2.4121e-06
2.29733e-06
0.00923844
0.017418
0.00626034
2.42469e-06
2.0565e-06
0.0232965
0.016987
2.40451e-06
0.0273146
0.0218041
1.77741e-06
0.023693
0.0431537
0.0133229
0.0160338
2.55348e-06
0.0176477
4.37739e-06
6.21742e-06
3.88262e-06
2.39379e-06
0.0136518
0.0110926
0.115569
9.21049e-06
2.67657e-06
0.0114223
4.10245e-06
3.72511e-06
0.00577819
2.43784e-06
8.5681e-06
2.08467e-06
2.54158e-06
0.00950361
2.16159e-06
5.73876e-06
2.59778e-06
0.0172751
6.39514e-06
2.44991e-06
2.29178e-06
2.71012e-06
2.99203e-06
0.0412532
2.41412e-06
2.90042e-06
2.19394e-06
0.00175573
2.49266e-05
0.0101666
0.0260387
2.31917e-06
2.85034e-06
2.65093e-06
4.39194e-06
2.39727e-06
0.0173998
0.0283942
2.88231e-06
6.39687e-06
2.81192e-06
2.46631e-06
2.89675e-06
3.08477e-06
0.0222892
2.29594e-06
2.32636e-06
0.0796027
3.3492e-06
2.08758e-06
0.266564
2.39949e-06
0.0515212
0.0212224
0.0219397
0.111061
8.11469e-05
0.0128639
0.0109745
2.07975e-06
0.00920039
2.7204e-06
3.3363e-06
2.09703e-06
0.0396312
1.84209e-06
1.77534e-06
0.120955
0.0231644
0.046623
1.88819e-06
2.40133e-06
1.8024e-06
2.47493e-06
1.45438e-05
2.64359e-06
2.10207e-06
0.0139474
0.0089243
0.0312001
0.0251759
0.00842074
1.21054e-05
1.80287e-06
3.07783e-06
0.0220192
2.30558e-06
2.62825e-06
0.0281297
1.83824e-06
2.4404e-06
1.89223e-06
3.2198e-06
3.3432e-06
1.78637e-06
0.0489638
0.0100358
3.66647e-06
7.6392e-06
6.22244e-06
0.00996041
2.31774e-06
2.43502e-06
2.13093e-06
2.30247e-06
0.0234581
1.73731e-06
2.31287e-06
3.31223e-06
0.0138369
2.49052e-06
2.41158e-06
0.0103337
2.03427e-06
3.49562e-06
2.78439e-06
1.66367e-06
1.79322e-06
1.71307e-06
2.29717e-06
2.35577e-06
2.53216e-06
1.109e-05
3.18917e-06
0.0470339
2.44945e-06
0.0108043
2.31252e-06
2.23177e-06
1.89905e-06
3.34821e-06
2.29768e-06
0.00013394
0.0319108
2.6307e-06
0.0133299
2.41288e-06
0.0428138
1.98896e-06
2.26335e-06
2.85229e-06
0.0148207
0.02674
0.0150806
0.0273733
1.92609e-06
1.80706e-06
0.0110163
2.87851e-05
1.06281e-05
2.40377e-06
2.39003e-06
7.95351e-06
3.63284e-06
1.82325e-06
0.000425106
0.0339843
2.11652e-06
0.039612
0.00949708
0.0112714
4.10703e-06
0.0109216
0.0207748
2.57971e-06
1.80999e-06
3.00393e-06
2.09064e-06
0.0303158
2.2268e-06
6.70549e-05
0.0319645
0.013834
0.0105313
6.11942e-06
2.60382e-06
0.000826419
0.0324877
4.2767e-06
2.11981e-05
1.8835e-06
0.000233779
2.79491e-06
0.0101107
0.00223049
1.74305e-06
1.90756e-06
1.8359e-06
0.0272537
2.36103e-06
3.65442e-06
0.0229378
1.7751e-06
0.00987919
1.91608e-06
1.82171e-06
5.35968e-06
1.8669e-06
0.0119175
3.5001e-06
0.0742779
2.39631e-06
0.0138578
4.65958e-05
0.0366342
2.22512e-06
1.71647e-06
2.30491e-06
2.84051e-06
2.30902e-06
0.000329534
0.000508595
0.0570324
0.0222186
0.00234083
0.000139103
2.74533e-06
2.10402e-06
1.92793e-06
1.7886e-06
2.37123e-06
0.0224836
2.62599e-06
0.00960053
2.62326e-06
0.0662628
0.0109311
2.12241e-06
2.415e-06
5.4198e-06
0.0521963
2.43856e-06
2.47143e-06
2.59943e-06
0.0939341
0.0246246
0.00988012
0.00218689
1.66739e-06
0.00698143
1.92735e-06
0.0151613
0.0199512
2.47083e-06
2.29433e-06
1.75809e-06
0.010896
0.00733824
2.29011e-06
0.024603
0.0105011
7.19227e-06
0.00878456
2.09003e-06
0.0111655
0.000129982
0.0569216
3.50508e-06
0.0387224
1.21745e-05
0.0167798
2.56236e-06
2.09839e-06
0.0496953
0.009637
0.00184138
1.98859e-06
0.0399674
0.0190208
2.01752e-06
1.9297e-06
2.026e-06
3.83761e-06
2.315e-06
3.14663e-06
2.127e-06
2.24925e-06
0.0204516
0.00548307
3.13433e-06
0.0111257
0.027127
0.0116309
2.39106e-06
2.21112e-06
2.40906e-06
0.0214846
0.0175533
0.010805
0.0209439
4.11178e-06
6.15008e-05
0.00507275
3.19713e-06
2.63017e-06
3.99658e-06
0.0162595
3.0295e-06
0.034836
1.55388e-05
0.0306052
0.00347749
0.0207021
0.0205181
2.34509e-06
5.41524e-06
0.0261279
0.0180279
0.0231913
0.0215849
2.43508e-06
0.0100541
0.0123088
0.0103712
0.000480792
0.0146466
5.40251e-06
2.33142e-06
0.000376231
0.0303146
2.63405e-06
1.91456e-06
0.00876326
8.55398e-06
1.85193e-06
0.0274742
0.120481
0.014021
0.058036
0.0109834
0.0317725
0.0314081
3.63018e-06
0.0197822
0.045243
0.0304303
0.0280465
0.0253219
1.57831e-05
0.0369704
0.0409817
2.48317e-06
2.2989e-06
2.37348e-06
2.299e-05
0.000207937
0.0223113
0.014377
0.0247338
5.51391e-06
0.0273891
5.22189e-05
2.27706e-06
0.00900769
2.33297e-06
0.0102964
2.68396e-06
0.0015806
0.0191814
2.21526e-06
1.78665e-06
1.91496e-06
2.99071e-06
2.41469e-06
2.49176e-06
0.00155383
2.43038e-06
1.08965e-05
0.0129932
2.58667e-06
0.00893808
1.77304e-06
0.0489769
2.78189e-05
2.58777e-06
0.0296217
2.37455e-06
4.8708e-06
0.0307559
0.0207612
0.00924364
0.00387591
4.82098e-06
2.50979e-06
0.000959736
0.000744329
0.0102049
2.05034e-06
0.0156909
3.33661e-06
0.0186979
0.0059933
2.43045e-06
9.50731e-05
2.07719e-06
2.6013e-06
0.00799306
3.15095e-06
2.14679e-06
0.0284488
2.41565e-06
0.0273741
2.37773e-06
0.0077337
0.056761
2.36903e-06
0.0118672
3.86234e-06
1.36295e-05
2.3772e-06
0.0100193
2.25572e-06
0.0291695
2.5023e-06
1.93995e-06
1.28818e-05
2.56595e-06
2.41374e-06
2.02765e-06
5.00047e-06
0.0392725
1.84268e-06
0.174198
0.0310073
9.87546e-06
0.0681843
0.0350502
5.68214e-06
2.10249e-06
0.000400605
0.00915244
0.0536241
1.85116e-06
2.72065e-06
1.76659e-06
1.7918e-06
2.44019e-06
0.0301484
0.00482473
1.12353e-05
0.0122577
4.53624e-06
0.0117424
2.0824e-06
6.44886e-06
1.97177e-05
1.90614e-06
0.00978019
2.88188e-06
0.00379965
0.00499025
0.243552
1.73864e-06
0.00988016
2.27259e-06
1.95686e-06
0.0221266
3.18069e-06
3.74773e-06
2.49111e-06
1.91423e-06
0.00948402
2.86881e-06
3.21771e-06
2.01949e-06
0.0101346
2.17415e-06
2.40147e-06
1.7998e-06
1.06274e-05
0.000186172
4.47008e-06
2.39598e-06
0.000109287
2.25614e-06
3.191e-06
2.33283e-06
3.5694e-06
0.00613898
2.07289e-06
7.69852e-06
1.69169e-05
2.06233e-06
0.0379726
0.0278068
3.66342e-06
1.35533e-05
0.0148083
0.128639
0.000969048
1.4281e-05
1.24305e-05
2.35506e-06
3.55528e-06
2.46488e-06
0.0215484
0.0196357
0.0206536
2.03595e-06
2.98191e-06
0.013437
3.19135e-06
0.0155397
2.16703e-06
0.0104025
2.27369e-06
0.00793291
2.09321e-06
0.00258952
0.0229581
3.12138e-06
2.10053e-06
2.36707e-06
2.19054e-06
2.99066e-05
0.0181181
0.0139785
2.90404e-06
3.28609e-06
0.00970792
0.0110665
1.81924e-06
0.0215103
0.0174371
1.1735e-05
2.34458e-06
0.0428627
6.10676e-06
2.09791e-06
0.0125371
0.0310782
0.0377236
0.0257419
0.0200913
2.70318e-05
0.0100138
2.03727e-06
3.59268e-06
2.37039e-06
2.32589e-06
1.9932e-06
0.0179863
0.028349
2.48133e-06
0.000594516
0.00994466
0.0109811
0.010446
0.0275678
0.0183757
2.39996e-06
0.00986978
0.019704
1.8721e-06
6.11501e-06
2.04592e-06
0.0125084
0.00980554
2.66852e-06
2.4225e-06
0.00974181
2.46178e-06
1.99623e-06
2.46328e-06
2.68382e-06
0.0256754
1.81451e-06
0.0196521
4.14505e-06
0.013948
2.98553e-06
0.000109715
0.0308517
0.0194173
2.80839e-06
1.21527e-05
0.00877892
1.91989e-06
0.00983786
0.015766
0.0116546
8.65276e-05
0.197482
1.38999e-05
2.26252e-06
3.9895e-06
3.63957e-06
0.00277552
0.000120394
0.0157622
2.60324e-06
1.99425e-05
2.01415e-06
0.0251781
2.61908e-06
0.298086
0.0327915
2.93665e-06
0.00995932
2.12687e-06
2.30791e-06
2.31442e-06
2.08673e-06
2.50484e-06
2.67913e-06
1.86887e-06
3.51295e-06
3.27743e-06
0.00436888
2.60195e-06
1.83314e-06
6.16605e-05
3.26549e-05
2.00546e-06
2.31371e-06
2.26256e-06
0.0744465
0.0754267
3.26841e-06
3.10222e-06
0.00126305
2.70086e-06
2.11147e-06
0.0201665
0.0172043
0.0150311
2.58143e-06
3.68225e-06
1.92343e-06
0.040684
8.65121e-06
1.9956e-06
0.0267336
2.41185e-06
2.24004e-06
2.05149e-06
0.0369129
1.83478e-06
1.85727e-06
0.020806
0.0334191
0.0133022
2.48166e-06
0.0304262
2.49598e-06
2.63275e-06
0.0351055
1.9487e-06
0.0202677
0.0273456
2.41847e-06
2.0672e-06
1.9157e-06
0.0115638
0.000291245
0.0510049
2.40088e-06
0.000166357
2.13889e-06
0.0111053
2.65678e-06
6.55868e-06
0.024868
0.000197447
2.68063e-06
0.0111429
0.00908392
0.0275743
0.000156219
2.65798e-06
1.72195e-06
3.87873e-05
0.0162188
1.19658e-05
2.0809e-06
3.46244e-06
0.0361379
1.8378e-06
2.25997e-06
0.0263247
0.00835607
2.48749e-06
0.000212689
0.0117521
1.91009e-06
3.58792e-06
0.00547793
3.11321e-06
2.7372e-06
0.0177337
6.45568e-06
0.0086956
2.69124e-06
0.000417962
2.82879e-06
2.74587e-06
3.09263e-06
8.78104e-06
0.0177697
0.0650156
0.00967038
1.80046e-06
6.51448e-06
3.66167e-06
2.01562e-06
0.0246447
0.00792918
5.29386e-06
0.0858735
0.0208847
2.32233e-06
2.12035e-06
0.0126808
8.08672e-06
2.4339e-06
3.57866e-06
0.00106145
0.000283587
0.000348416
2.32388e-06
2.0856e-06
2.00338e-06
0.00151361
2.41095e-06
2.02024e-06
4.38621e-06
2.84565e-06
1.80387e-06
1.8921e-06
0.014635
0.0201294
0.000332857
4.11288e-06
2.37116e-06
0.0114841
9.43633e-05
2.1058e-06
4.72162e-06
3.22112e-06
0.0447435
2.07352e-06
4.88049e-06
2.11084e-06
2.27262e-05
2.00568e-06
2.46696e-06
2.59376e-06
5.18351e-06
2.88618e-06
2.93857e-06
2.54844e-06
2.44396e-06
2.40232e-06
0.0118051
0.00890479
0.0313319
1.82217e-06
2.2942e-06
2.10276e-06
2.24076e-06
0.000546869
1.90802e-06
1.93174e-06
0.000654309
0.0201258
2.14771e-06
2.38863e-06
0.1043
2.17688e-06
5.74859e-06
0.00953485
3.08965e-06
4.1291e-06
0.0114776
0.0286364
3.65166e-06
2.14181e-06
0.0157104
6.39662e-05
1.84497e-06
0.00750941
0.187604
1.81505e-06
0.028259
2.2023e-06
4.70309e-06
0.0265446
0.0269952
2.37727e-06
2.65736e-06
2.7339e-06
0.030443
0.000111207
0.03688
1.70886e-06
3.71848e-06
2.35265e-06
0.0223421
0.0145131
2.60614e-06
0.011631
1.76896e-06
2.7147e-06
2.36169e-06
9.16972e-05
0.027304
1.77229e-06
3.30163e-06
2.18463e-06
0.00860144
0.00017228
2.78297e-06
2.60196e-06
0.00912929
0.00104698
4.12157e-06
6.87313e-06
0.0213265
4.1616e-06
0.0188795
2.52389e-06
0.145591
5.76517e-06
0.0104956
0.026215
0.0165694
0.000110847
2.42837e-06
4.7941e-06
0.0123591
0.00485332
0.0167029
7.4175e-06
0.0094755
1.80199e-06
0.0326135
0.171968
1.97248e-06
0.000193493
1.81671e-06
0.00257413
2.1663e-06
1.76962e-06
0.000106702
1.00671e-05
2.30853e-06
1.90663e-06
3.76122e-06
2.07219e-06
2.70014e-06
6.76313e-06
2.49473e-06
3.47246e-06
0.0794965
2.13563e-06
0.00897473
0.115514
2.17799e-06
0.0131558
3.31232e-06
0.00826815
2.144e-06
2.38318e-06