/*--------------------------------*- C++ -*----------------------------------*\
| =========                 |                                                 |
| \\      /  F ield         | OpenFOAM: The Open Source CFD Toolbox           |
|  \\    /   O peration     | Version:  v2012                                 |
|   \\  /    A nd           | Website:  www.openfoam.com                      |
|    \\/     M anipulation  |                                                 |
\*---------------------------------------------------------------------------*/
FoamFile
{
    version     2.0;
    format      ascii;
    class       volScalarField;
    location    "100";
    object      k;
}
// * * * * * * * * * * * * * * * * * * * * * * * * * * * * * * * * * * * * * //

dimensions      [0 2 -2 0 0 0 0];


internalField   nonuniform List<scalar> 
14315
(
0.0771254
0.0887008
0.000108775
0.000150689
0.00020848
0.000101169
0.0797032
0.000111829
0.000115128
0.000109197
0.000236166
0.0280988
0.088305
9.70669e-05
0.029299
0.000119124
0.000111657
0.000123146
0.000126717
0.000124103
0.000120681
0.103804
0.000119379
0.0287246
0.000173052
0.0879711
0.00012635
0.0810954
0.000136077
0.000279138
0.00010265
0.000121511
9.64117e-05
0.0902842
0.0805854
0.104223
0.00471367
0.000111003
0.000436892
0.000220406
0.0125967
0.0315464
0.000111796
0.000106331
0.000113478
0.00016064
0.000146021
0.0232884
0.0259827
0.00012425
0.0211609
0.000150495
0.0285055
0.0268975
9.95752e-05
0.105284
0.0370917
0.000116013
0.000118265
0.000108747
0.000410511
0.082356
0.104769
0.000118675
0.00030022
0.00947711
0.0939197
0.000137594
0.000119481
9.97116e-05
0.0274312
0.000114681
0.0835991
0.037564
0.000116168
0.0817336
0.000105117
0.105995
0.000112987
9.20045e-05
0.000107405
0.048611
0.000113791
0.106431
0.000120056
9.3741e-05
0.0946037
0.0257162
0.0259541
0.000226333
0.000106803
0.000170948
0.000106932
9.51011e-05
0.0309707
0.0512772
0.000111925
0.0485263
0.0736271
0.000303193
0.00013819
0.0255271
0.103797
0.000106176
0.000311567
0.000388647
0.0536144
0.0541631
0.000105891
0.000188515
0.0493915
0.00011658
0.0566604
0.00012369
0.000111181
0.0263971
0.000124032
0.0250876
0.0514627
0.0126734
0.00145921
9.96916e-05
0.000106045
0.0263497
0.000133424
0.000106747
0.000934052
0.000109079
9.74105e-05
0.000167204
0.046285
0.0836385
0.00210276
0.0516493
0.000295654
0.000118052
0.000114942
0.0914891
9.25383e-05
0.000116965
0.0916
0.0262488
0.000116741
0.0510858
0.000186081
0.0486545
0.000245984
0.0761889
9.94889e-05
0.000128632
0.000108188
0.00997213
0.000111015
9.94489e-05
0.000198237
0.0282621
0.000111658
0.000119083
0.000101001
0.0909047
0.000117709
0.02548
0.0886636
0.0291661
0.000106653
0.0563745
0.0288258
0.000211567
0.0251943
0.0785969
0.0547153
0.000123132
0.0291356
0.000109101
0.000113602
0.00809483
0.000148024
0.104246
0.0969748
0.0448465
0.000549979
0.000104814
0.000106337
0.0124063
0.000113991
0.00011092
0.000202821
0.000514962
0.0845942
0.0129192
0.000118371
0.00021836
0.0483623
0.027523
9.36636e-05
0.0465031
0.000465645
0.000106923
0.000110181
0.000206931
0.0301605
0.00010733
0.025102
0.0504925
0.000101859
0.000507925
0.000272221
0.000110853
0.000118515
0.0496048
0.000449951
9.7151e-05
0.030071
0.000147586
0.0662369
0.0523636
0.106332
0.0770269
0.0635742
0.00016281
0.000107138
0.000105308
0.00013987
0.000109857
0.0852486
0.000107923
0.000113543
0.0111433
0.0818162
0.101597
0.000112474
0.000106883
0.000126375
0.000143028
0.000149266
0.000508242
0.000112608
0.000111647
0.0823148
0.0751794
9.48438e-05
0.000104258
0.042504
0.0261393
0.012296
0.000224055
0.0994823
0.000138303
0.0776159
0.0347164
9.84297e-05
0.00010586
0.0867212
0.00596719
0.000113279
0.0942722
0.000106404
0.000608455
0.0547529
0.000249347
0.00156275
9.96777e-05
0.0303314
0.0289805
0.0486755
0.000106243
0.000129242
0.000104645
9.40299e-05
0.0519558
0.0901544
0.000102304
0.0189168
0.0296965
0.000116256
0.100872
0.0159251
0.000113166
0.0510112
0.000543794
0.000102789
9.9657e-05
0.0755792
0.0495259
0.000111775
0.0297593
0.103205
0.0561616
0.0492552
0.037159
0.000114224
0.0258588
0.049432
0.0539389
0.000327861
0.000128967
0.0539546
0.000150618
0.000120972
0.000110732
0.000107103
0.0206789
0.0842068
0.0885764
0.000110919
0.000119666
0.0453531
0.102762
0.000120626
9.71561e-05
0.102732
0.000103979
0.0487269
0.052467
0.000162526
0.000576734
9.72859e-05
0.000106242
0.000107382
0.000124124
0.0274251
0.01065
0.0520274
0.00010621
0.0455271
9.38222e-05
0.0557737
0.000403089
0.000227108
9.77974e-05
0.000106101
0.0452957
0.000141748
0.0799633
0.0548697
0.000125495
0.0517161
0.0891997
0.0875401
0.0857607
0.000106758
0.0691513
0.000115665
0.000138999
0.0921057
0.000123202
9.86512e-05
0.0547755
0.000230852
0.0503207
0.000146952
0.000114584
0.0409265
0.0261497
0.0219451
0.000117536
0.000101474
0.000149286
0.000119941
0.0541989
0.000141949
0.055109
0.0782708
0.0547749
0.100795
0.0531342
0.000109088
0.0294855
0.0736741
0.000103032
0.00170588
0.000111289
0.000147006
0.100001
0.046958
0.000127138
0.000107583
0.000126135
0.000117961
0.0332307
0.0219836
0.000113578
0.000122453
0.0593224
0.000181072
0.0896384
0.000144655
0.0930651
0.0914195
0.00791704
0.00010712
0.0263795
0.0910624
0.0926021
0.0501506
0.0866854
0.000122162
0.00014615
0.000105707
0.0592541
0.000107193
0.000112163
9.67364e-05
0.0219433
0.0908593
0.000491333
0.0527674
0.0103142
0.051209
0.00813367
0.000113512
0.0682436
0.0335503
0.000131657
9.84054e-05
0.000104126
0.000266991
0.0531698
0.000121369
0.0056435
0.000102057
0.100129
0.000362009
0.000112402
0.000142153
0.0487112
0.0483439
0.000139556
0.000112039
9.92976e-05
0.0396632
0.0910087
0.000146006
0.000113982
0.00443555
9.66889e-05
0.000164501
0.051266
0.000190638
0.000121665
0.00512697
0.000117467
0.0481957
0.000120148
0.000110914
0.000314259
0.000166098
0.0508668
0.000127288
0.000109931
0.0591332
0.0246867
0.000137232
0.000115544
9.99397e-05
0.0360802
0.0151387
0.0512479
0.0702924
0.000186499
0.00011415
0.0891392
0.0286416
0.000160314
0.0924072
0.0626828
0.0258708
0.00018375
0.000116103
0.0441772
9.93113e-05
0.000191516
0.0484136
0.00011437
0.026363
0.0001102
9.82202e-05
0.000103731
0.0506489
0.0289713
0.000141088
0.0571521
0.00018778
0.0240817
0.0506659
0.000484695
0.000148529
0.0836933
0.000111367
0.000154851
0.000114214
0.0128843
0.00010765
0.000157096
0.00103595
0.0476021
0.000137939
0.000112002
0.0636164
0.0921035
0.000227146
0.04221
0.0255172
0.00010653
0.000148289
9.85921e-05
0.064452
0.000293718
0.000114848
9.6832e-05
0.0902479
0.000109545
9.96178e-05
0.000102381
0.000607525
0.100618
0.00019765
0.0845622
0.0833959
0.000172981
0.0293276
9.69445e-05
9.6613e-05
0.000128919
0.0170078
0.0487903
0.000108879
0.000137383
0.000158469
9.27718e-05
0.000117157
0.000139398
0.00012213
9.67439e-05
0.0215077
0.0245378
0.000113084
0.0258311
0.00018225
0.000142094
0.0516105
9.6945e-05
0.0534731
0.00383051
9.96984e-05
0.000121625
0.000105146
0.000218623
0.000137271
0.0296931
9.93058e-05
0.000106613
0.0770529
0.0345779
0.092312
0.0423449
0.000127622
0.000118984
0.000114793
0.000112588
0.0458416
0.081138
0.043232
0.000295354
0.000491134
0.000314033
0.000125931
0.000142875
0.000108965
9.84449e-05
0.0878381
0.000107063
0.0285473
0.000354269
0.0548831
0.000111991
0.000113633
0.00012139
0.0803864
9.68051e-05
0.100073
0.000153235
0.000127054
0.0375558
0.000120959
0.000105359
9.41072e-05
9.87482e-05
0.000282887
0.000108066
0.0271782
0.000120291
0.000211484
0.000145414
0.000212866
0.000119685
0.0821389
0.000112885
0.0894648
0.0457206
0.000121519
0.0108567
0.0558785
0.0830665
9.90364e-05
0.000137256
0.061054
0.000113374
0.000112008
0.0790379
0.0253168
0.000317117
0.0538322
9.76269e-05
0.000409992
0.000112409
0.0002099
0.000551794
0.00013842
0.000113568
0.000326772
0.000593566
0.00010876
0.000302045
0.0453789
9.14617e-05
9.43618e-05
0.0931196
0.000552724
0.0527449
9.41442e-05
0.000141832
0.000123619
9.60929e-05
0.0444027
0.000138028
0.0464159
0.000112838
0.102217
0.000107089
0.00011746
0.000121891
0.000105633
0.0452698
0.0915984
0.0279154
0.000108334
0.000115078
0.000147201
0.000102669
0.00730636
0.0421436
0.0822365
0.000143923
0.000283821
0.0871112
0.000113348
0.000102268
0.000174207
0.0793175
9.86209e-05
0.000102671
0.00725809
0.106415
0.000360762
0.100228
0.000115278
0.000109526
0.0493226
0.00011154
0.0249791
9.41445e-05
0.000270546
0.000115312
0.000114539
9.75635e-05
0.00977631
0.0782856
0.00013099
0.0951211
0.00013037
0.000147515
0.0184499
0.0484283
0.000108305
0.0538348
0.00669041
0.0690473
0.0402425
9.66622e-05
0.000112174
9.28251e-05
9.72671e-05
0.000119134
9.77222e-05
0.0506673
0.0998213
0.000111522
0.000104224
0.000113135
9.59303e-05
0.0409859
0.000112618
0.000149309
0.000139901
0.000112735
0.0294002
0.000435388
0.000220049
0.095191
0.000112442
0.0162701
0.000124405
9.68824e-05
0.000124237
0.000114231
0.000116925
0.000103977
0.000118058
0.000105421
0.000109447
0.0183209
9.38887e-05
0.000110257
0.000183433
9.50354e-05
0.000112732
0.000165587
0.000111798
0.111734
0.000106485
0.000145017
0.10065
0.0856561
0.0433296
0.00294345
0.000117788
0.0505617
0.000120554
0.000118236
0.0906252
0.000128539
0.000122228
0.000121311
0.000126498
0.02914
0.000104889
0.0388793
0.00011002
0.100802
0.000963402
0.000173225
0.000113321
0.0222791
0.0927785
0.0521108
0.000114548
0.0305706
0.000120734
0.0531221
0.000147349
0.0463969
0.030317
0.00371826
0.104891
0.000128414
0.0128022
9.95642e-05
0.000121578
0.00527851
0.0746853
0.000107979
0.000113366
0.00448989
0.0285812
0.0752982
0.000115926
0.00967219
0.0818334
0.0786255
0.0446582
0.000105659
0.0159643
0.089025
0.0731571
0.000115961
0.053348
0.000118757
9.65115e-05
0.000112709
0.000128062
0.000113466
0.000342089
0.0957943
0.00012867
0.000111509
0.00010692
0.104896
0.000148944
0.000111035
0.000781877
0.0519601
0.02533
9.83727e-05
0.0966862
0.000146169
0.00010046
0.000108753
0.000381813
0.0257798
0.000117944
0.0570791
0.000325847
0.0816847
0.000486508
0.000164358
0.0851646
0.000122727
0.0341148
0.000140061
9.39126e-05
0.000120669
0.000161879
9.50561e-05
0.000114501
0.000112759
0.000116024
0.0957821
9.6136e-05
0.000107887
0.101052
0.0366086
0.0222332
0.000151033
0.000108463
0.0432578
0.000105126
0.000113448
0.0246812
0.00011243
0.0550906
0.0821809
0.050572
0.0305946
0.0892626
0.000294172
0.0832319
0.0802795
0.000112127
0.000134631
0.000120305
0.000373312
0.100822
0.000289015
0.022668
0.000111847
0.0276018
0.000981937
0.000102113
0.0979497
0.00012578
0.0406062
0.000112876
0.000110487
0.000103685
0.000144232
0.000322843
0.00010868
0.00134588
0.000114959
0.00014454
0.000113602
0.0650202
0.000121224
9.44259e-05
0.000115549
0.000304441
0.000100082
0.000123684
0.000109716
0.0260051
0.000111882
0.000107138
0.00011104
0.000651605
9.53098e-05
0.0125165
0.00013051
0.0874908
0.000105373
0.0520511
0.0257394
0.000146195
0.0954537
0.0901849
0.0663689
0.0728895
0.000106109
0.000246481
0.0513086
0.0292088
9.45506e-05
0.000115711
0.00106244
0.000108392
0.0584625
0.000106267
0.0230109
0.0529401
0.0278469
0.000115673
0.101346
0.0979951
9.76487e-05
0.0122177
0.000118066
9.492e-05
0.0491458
0.033613
0.000120841
0.000157159
0.0623703
0.00011054
0.0800747
0.000120576
0.000334201
0.000135305
0.0866702
0.0753832
0.0626862
9.69849e-05
0.000146621
0.0909741
0.000111413
0.00726308
0.000116549
0.000100063
0.000686185
0.00297215
0.0424436
0.0045564
0.000104904
0.046659
0.000110367
0.000113815
0.0241585
0.0547835
0.0757366
0.0452093
0.0263718
0.000302009
0.0652867
0.10557
0.0237602
0.000341672
0.0698443
0.000108203
0.000108822
0.000120533
0.000155737
0.010171
0.0214346
0.000146161
0.0947001
0.0193264
0.000133629
0.0641636
0.000112795
0.00439868
0.000200948
0.000289781
0.0428166
0.0813119
0.000125371
0.0991695
0.000140024
0.000110518
0.000106636
9.64546e-05
0.00275649
0.000104911
0.000115018
0.104344
9.52023e-05
0.0495507
9.86762e-05
0.0540984
0.000338252
0.000100583
0.0796976
0.0314626
0.0254776
0.0256676
0.0544024
0.000728417
0.0563969
0.0225879
0.000192911
0.000109798
0.0266152
0.000108528
0.0234208
0.000153246
9.8329e-05
0.102215
0.000126625
0.0470995
0.000143593
0.000109962
0.0335812
0.0380051
0.0518739
0.000112487
0.05533
0.000357192
0.000164281
0.0418214
0.0506631
0.000249349
0.000181185
0.000103031
0.000126529
0.000113516
0.033605
0.0901455
9.13413e-05
0.0790845
0.0505305
0.000117829
0.00012151
0.0320035
0.000121687
0.0572408
0.0508178
0.000100263
9.64538e-05
0.0093785
0.000110842
0.0129187
0.0672637
0.000115349
0.103935
0.000791874
0.000128765
0.000148326
0.000111336
0.000122593
0.000128298
0.0257686
0.0197474
0.000104101
0.000207509
0.0576787
9.90402e-05
0.000128377
0.000151997
0.000107506
0.000111408
0.0297891
0.000104476
0.00015353
0.0889824
0.00012807
0.0350226
0.0738751
0.000165089
0.000139271
0.000122385
0.0643595
9.35605e-05
0.000106543
0.0599722
0.0499675
0.000213584
0.0456205
0.0827844
0.088216
0.000151308
0.0595078
0.000313922
0.0533649
0.00368116
0.000110528
0.0974218
0.000121585
0.0787629
0.000144129
0.0750613
0.00011139
0.0223674
0.000559134
9.81197e-05
9.88718e-05
0.000142382
0.0108986
0.00012179
0.079192
0.0117183
0.0999923
0.000121272
0.0266453
0.0259765
0.000118474
0.0518473
0.000121066
0.0334845
0.0285047
0.000109784
0.0736517
0.0766128
9.81092e-05
0.0288102
9.36992e-05
0.0529839
0.000112955
0.00167153
0.0287923
0.000102253
0.0112328
0.000112536
0.00015164
0.00061861
0.00012147
0.00244487
0.0227354
0.000135929
0.000190313
0.000214689
0.000123028
0.0233009
0.000106666
0.0870733
0.0123233
0.000110138
0.037017
0.000324048
0.0476224
0.000119087
0.00010467
0.102184
0.000370961
9.53988e-05
0.0619703
0.0804585
0.000352485
0.0343168
0.000141364
0.0678106
0.000146477
0.00791056
0.055361
0.000106396
0.00129145
0.000138074
0.0495843
0.000522899
0.000110954
0.101016
0.000135498
9.93602e-05
0.00030343
0.0933702
0.000165481
9.99045e-05
0.000307524
0.0624148
9.9894e-05
0.000357825
0.000137913
9.42378e-05
0.00012945
9.71463e-05
0.0277371
0.000113593
0.0512322
9.23565e-05
0.0183032
0.000111131
0.0803668
0.00164158
0.000104573
0.000128913
0.000105811
0.000148056
0.0049469
9.49254e-05
0.048662
0.000183468
0.000111303
0.0423132
0.105859
0.00816412
0.0257849
0.000145147
0.0898088
0.0524286
0.00096734
0.0270192
0.0257883
0.000117999
0.000444687
9.68605e-05
0.00020532
0.00021556
9.77425e-05
0.000177651
0.000108427
0.000129065
0.0635947
0.0769566
0.0873421
0.000146151
0.0329394
0.103824
0.000109915
0.00010047
0.0916528
0.000179433
0.000102217
0.0145454
0.0822111
0.0265053
0.0463511
0.0948055
9.56514e-05
0.00194849
9.68481e-05
0.0125536
0.000111644
0.000188552
0.0026206
0.000467974
9.88699e-05
0.00012213
0.0443288
9.9646e-05
0.0610223
0.000118923
0.0707728
0.0617605
0.0924025
0.0744162
0.000140554
0.000239153
0.000100955
0.0505569
0.0698072
0.000653995
0.0923309
0.000114035
0.00021818
0.000121503
0.00119952
0.000107667
0.068199
0.000118057
0.101201
0.0124404
0.0118425
0.0534909
0.000110547
0.000107333
0.0733758
0.00013791
0.0568132
0.000111887
0.0261856
0.000124771
0.0881091
0.111197
0.000195501
0.000112491
0.00108007
0.0917796
0.000114317
0.000137436
0.000111676
0.0721257
0.00010852
0.00197613
0.0481123
0.0489635
0.0722373
0.0428937
0.000229292
0.000111254
0.0644797
0.000191341
0.000117387
0.000706127
0.00013722
0.00010533
9.38677e-05
0.000198014
0.000137199
0.024271
0.0648368
0.000192864
0.000111188
0.000109985
0.078447
0.0532965
0.0937092
0.000118983
0.000144269
0.0352605
0.000238457
9.9959e-05
0.00290614
0.000153712
0.000111734
0.000117432
0.000258653
9.85422e-05
0.00563993
0.000341172
0.00010901
0.000127684
0.00726324
0.0907537
0.044131
0.0110865
0.000105136
0.000108333
0.000743149
0.000105805
0.060769
0.000134646
0.000124494
0.000112181
0.000800266
0.000106951
0.000125053
0.000112624
0.000131102
0.000146341
0.0258307
0.0710965
0.101142
0.0795608
0.0824759
0.074955
0.000160411
0.000146596
0.000145125
0.000194521
0.000121136
0.000112473
0.00012234
0.00449
0.00506752
0.000102496
0.000111261
0.0736193
0.00032961
0.000210551
0.0296881
0.0348175
0.0730899
0.000118107
0.000107976
0.000103349
0.00013433
0.0493341
0.105154
0.0493497
0.000499373
0.000142162
0.0838787
0.0226024
9.6316e-05
0.00476989
0.000112839
0.000113843
0.000378859
0.000102033
0.000106168
0.0886543
0.0258368
0.0823919
0.0523423
0.0811856
0.000131969
0.000140405
0.0678146
0.000158838
0.000134387
0.0826746
0.0940221
0.000124052
0.000108657
0.00011134
0.000118665
0.00394059
0.000110289
0.000114534
0.000189632
0.000168399
0.000187383
0.000117306
0.000129085
0.0109047
0.000797433
0.000112231
0.000184933
0.000331572
0.00257926
0.0478841
0.000139394
0.0731543
0.000149933
0.00010189
0.0304839
0.000145038
9.81022e-05
0.000111613
0.0354656
0.0221611
0.0274674
0.0794603
0.0972999
0.00537257
0.000536557
0.000105172
0.000121512
0.00188468
9.66054e-05
0.000109618
0.0845687
0.000117648
0.0630242
0.000154558
0.000130486
0.000110631
0.000157145
0.0546066
0.000179812
9.35034e-05
0.000127977
0.100431
0.000168988
9.75317e-05
0.000107953
0.0930528
0.000107651
0.0266469
0.0765758
9.84931e-05
0.0425817
0.000109382
0.000110444
0.000104676
0.000107463
0.000106216
0.0846549
0.0856645
0.0470817
0.0143768
0.000110613
0.04345
0.000117843
0.0715268
0.0514636
0.000100121
0.101745
0.000109631
0.000178128
0.000120864
0.000111326
0.000112053
0.070843
0.0511996
0.0820834
0.0641695
0.000105909
0.000217499
0.102362
0.093073
0.0281795
0.059644
0.000120555
0.000108496
0.000284159
0.000127258
0.000128748
9.69294e-05
0.0630025
0.000132363
0.000147835
0.0288894
0.000105899
0.000144351
0.112461
0.000127452
0.0419588
0.000112405
0.00915151
0.0729954
0.0396024
0.100653
0.000106918
0.0742023
0.000200061
0.000142678
9.16123e-05
0.0465105
0.000115735
0.000147255
0.0986335
0.000145392
0.0799417
0.000106332
0.0108964
0.000191252
0.00295728
0.000135
0.0342263
9.47061e-05
0.000145181
0.000110863
0.000119587
0.00010516
0.104356
0.00101199
0.047881
0.000951572
0.000182629
0.000117291
9.82166e-05
0.0842721
0.000109657
0.000123904
0.106865
0.000109027
0.0999354
0.0928734
0.0908685
0.000224639
0.000111853
0.0602869
0.0393946
9.78086e-05
0.000105263
0.0834371
0.00616189
0.0703747
0.000122194
9.94242e-05
0.000111507
0.080504
0.0059611
9.72823e-05
0.0181341
0.103417
0.000112185
0.000117509
9.77316e-05
0.000104294
9.7329e-05
0.000100442
0.0700241
0.07547
0.0256981
0.000124673
0.000105684
0.00205948
0.00217627
0.000118226
0.050245
0.000102862
0.000124468
0.000111193
9.31665e-05
9.7835e-05
0.00155004
0.000112889
0.0181072
0.0952769
0.000100141
0.000185588
0.015967
0.000154645
9.85839e-05
0.0928881
0.000108411
0.000104637
0.000126906
0.000112026
0.0505557
0.0294781
0.000165864
0.000147312
0.0964491
0.0908801
0.000109832
0.00013734
0.0949329
0.093726
0.0482708
0.0775271
0.0907891
9.86902e-05
9.52587e-05
0.000105978
0.0276031
0.000110419
0.0352523
0.078247
0.00199845
0.00011964
0.104703
0.0782288
0.000130565
0.000117265
9.5803e-05
0.0287052
0.000120298
0.0366383
9.8402e-05
0.0858331
0.000114098
0.0931534
0.0242296
0.0176206
0.000122408
0.0887876
0.000121764
0.000115886
0.0912603
0.000116303
0.000112477
0.000100852
0.00013169
0.018469
9.79726e-05
0.00630519
0.000107292
0.0527294
0.0726379
0.000118522
0.000831981
9.92907e-05
0.000126836
0.07909
0.0680419
0.0860345
0.0290815
0.0984962
0.001502
0.0905945
0.0514028
0.000121246
0.000110365
9.35227e-05
0.000121548
0.000117727
0.0920282
0.0944552
0.000108146
0.000129155
0.000134989
0.078377
0.000106156
9.6169e-05
0.0829701
9.90817e-05
0.000357299
0.000112644
0.000140941
0.000148337
0.0163494
9.36168e-05
0.000699577
0.000393562
0.000119619
0.00011321
0.0001018
0.000106976
0.000109994
0.0822696
0.0510103
0.000135046
0.048299
0.0516256
0.000130138
0.000137249
0.0932026
0.000233394
0.0942094
0.000108708
0.00203772
0.000125227
0.0472643
0.00011376
0.00114192
0.000147278
0.000128926
0.000142889
0.0640658
0.104775
0.0449421
0.000138052
0.0395453
0.0375349
0.106168
0.000119387
0.000110854
0.0218804
0.0484095
0.000112207
0.0980498
0.000103636
0.0443046
0.0967944
0.0483453
0.000104634
0.000111411
0.0801101
0.0586425
0.0160628
0.000101843
0.000126141
9.81782e-05
0.000123886
9.74779e-05
0.000186168
0.000111984
0.00010806
0.0390301
0.0498917
0.0176478
0.00011132
0.000102192
0.0884079
0.0419697
0.000111687
0.0952727
0.077543
9.45849e-05
0.0934939
0.0458743
0.0346789
0.0798859
0.000123104
0.0851138
0.000174049
0.000220604
0.000159763
0.000111128
0.0398327
0.0518514
0.0802023
0.000299097
0.000117089
0.0528302
0.000164484
0.000139173
0.0236781
0.00011163
0.000288775
0.000103853
0.000116608
0.0472552
0.000104782
0.000213735
0.00011527
0.0804038
0.000229248
0.000111959
0.000110422
0.000125988
0.000124
0.0943404
0.000112676
0.000122001
0.000105843
0.00926603
0.000617582
0.0269204
0.0584697
0.00010866
0.00012092
0.000116441
0.000177814
0.000111367
0.0759022
0.0879829
0.000121612
0.000223842
0.000126257
0.000116111
0.000121948
0.00012597
0.0930834
0.000112007
0.000114042
0.0656701
0.000131566
0.000104357
0.104027
0.000111531
0.0923106
0.0516646
0.0915188
0.0937796
0.000994905
0.0242965
0.02597
0.000102623
0.033674
0.000122993
0.000131315
0.000105244
0.0671954
9.80315e-05
9.45316e-05
0.0982921
0.0922511
0.106092
9.97835e-05
0.000111878
9.58125e-05
0.000112339
0.000412019
0.000116359
0.000103622
0.0475737
0.0482551
0.0585157
0.0926564
0.0405074
0.000356159
9.54327e-05
0.000136434
0.0514321
0.000108321
0.000119948
0.0956626
9.77547e-05
0.000113566
9.78163e-05
0.000128864
0.000131389
9.50978e-05
0.106517
0.028442
0.000137839
0.00025727
0.000226439
0.0527518
0.000110947
0.000112066
0.000105338
0.00010826
0.0596298
9.3831e-05
0.000108508
0.000145026
0.050499
0.000112734
0.000112183
0.0258177
0.000104141
0.000145826
0.0001257
9.14356e-05
9.51398e-05
9.27722e-05
0.00010815
0.00011028
0.000117807
0.000332878
0.00012819
0.106509
0.000116277
0.0549236
0.000111893
0.000107223
9.86996e-05
0.000143131
0.000108928
0.00196615
0.0959528
0.000116032
0.0489487
0.000112186
0.0684185
0.00010055
0.000108228
0.000120962
0.0558403
0.088671
0.0293569
0.0976859
9.9655e-05
9.56941e-05
0.0258824
0.000647579
0.000320967
0.000112462
0.000111059
0.000266299
0.00015158
9.7312e-05
0.00355807
0.0951388
0.000103619
0.0998206
0.0279594
0.0524277
0.000146251
0.0269439
0.0877324
0.000114792
9.60817e-05
0.000124267
0.000105231
0.0840242
0.000107016
0.00110284
0.063114
0.0422426
0.0434416
0.000221623
0.000120244
0.00487601
0.0868062
0.000174501
0.00051157
9.74908e-05
0.00247187
0.000130039
0.0212404
0.0146544
9.39826e-05
9.81311e-05
9.62618e-05
0.0651826
0.000109813
0.000151566
0.0480105
9.46304e-05
0.0354984
9.97031e-05
9.60672e-05
0.00020333
9.88677e-05
0.0456574
0.000134595
0.0722059
0.000110947
0.0548446
0.000820357
0.0989908
0.000108185
9.28601e-05
0.000108521
0.00012069
0.000108362
0.0041156
0.00348028
0.106711
0.0828018
0.0139476
0.0013358
0.000127165
0.000103248
9.87414e-05
9.5159e-05
0.000110624
0.0883391
0.000119649
0.047863
0.000115881
0.0696473
0.0474072
0.000107743
0.000112647
0.000207665
0.106236
0.000113577
0.000112531
0.000120051
0.0891271
0.0582829
0.0352203
0.0093246
9.15381e-05
0.0264611
9.86566e-05
0.0787384
0.0883496
0.000112481
0.000111285
9.40604e-05
0.029087
0.0304307
0.000110089
0.0845258
0.0238296
0.000248653
0.0473285
0.000103404
0.0634763
0.00191218
0.077873
0.000151466
0.0405721
0.000356327
0.053137
0.000117787
0.000105186
0.0545716
0.0237377
0.0097691
0.000101194
0.100343
0.0324534
0.000101485
9.87907e-05
0.000103982
0.000141133
0.000108679
0.000127294
0.00010537
0.000108135
0.0881037
0.025119
0.00012702
0.0277156
0.0883885
0.0277546
0.000110873
0.000106293
0.000112032
0.0858569
0.0838604
0.0325662
0.0611007
0.000170424
0.000960431
0.0233121
0.000141032
0.000116054
0.000144187
0.0756607
0.000133994
0.080503
0.00040794
0.0114243
0.0191552
0.0907413
0.0902788
0.000111889
0.000210228
0.0959828
0.0588387
0.0924395
0.0489977
0.000111753
0.0313296
0.0534399
0.0500741
0.00337867
0.0391602
0.000209831
0.00011447
0.0042157
0.0895955
0.00011606
9.91817e-05
0.0311232
0.000286858
9.72713e-05
0.0655353
0.0960835
0.0278303
0.0790263
0.0583694
0.0977691
0.086697
0.000137123
0.0601522
0.0892573
0.0860649
0.0989377
0.086827
0.000421237
0.0920414
0.100162
0.000115075
0.00011102
0.000110074
0.000565519
0.00172687
0.0892923
0.0772304
0.0756448
0.000205378
0.0977363
0.00078187
0.000107751
0.0372478
0.000109633
0.0313237
0.000117232
0.0076544
0.0840762
0.000106214
9.51673e-05
9.9236e-05
0.000123982
0.000117398
0.000115529
0.0110143
0.000111643
0.000336411
0.0590789
0.000118497
0.0239425
9.52267e-05
0.106084
0.000636118
0.000118335
0.089051
0.000110902
0.000185962
0.0416047
0.0859218
0.0361216
0.0207348
0.000182979
0.000117038
0.00848876
0.00538796
0.0313698
0.000102179
0.0567461
0.000131237
0.0827291
0.027492
0.000111692
0.00135063
0.000103612
0.000115281
0.0366051
0.000127404
0.000109037
0.0975469
0.000112293
0.0982858
0.000115312
0.0457434
0.0578553
0.000114885
0.0563283
0.000141607
0.000377626
0.00011615
0.0310102
0.000107118
0.0687865
0.000115726
9.8982e-05
0.000366112
0.000117862
0.000110937
0.000101315
0.000192211
0.0587828
9.75301e-05
0.104714
0.0914103
0.000314856
0.10524
0.0944723
0.000211623
0.000104223
0.00451771
0.0505446
0.0793635
9.79659e-05
0.000118014
9.49593e-05
9.50969e-05
0.00011326
0.0910432
0.015511
0.000376191
0.0248738
0.00018455
0.0513177
0.000106621
0.000225007
0.000456246
9.88519e-05
0.0344417
0.000132869
0.0181129
0.0228982
0.109584
9.3911e-05
0.0541178
0.000109473
9.94437e-05
0.0853699
0.000127993
0.000154467
0.000112751
9.8705e-05
0.0522197
0.000121332
0.000141829
0.0001011
0.0550739
0.00010526
0.000111652
9.60416e-05
0.000321612
0.00234622
0.000182206
0.000117967
0.00165258
0.000110043
0.000143373
0.000109714
0.000150661
0.0262067
0.000103841
0.000245974
0.000443241
0.000103541
0.101964
0.094398
0.000137791
0.000384245
0.0718495
0.0683561
0.00811612
0.000400287
0.00037074
0.000113466
0.000135654
0.000112384
0.0809185
0.0798007
0.0874644
0.000102932
0.000130806
0.057499
0.000137663
0.072712
0.000105085
0.0552531
0.000110882
0.0455755
0.000104001
0.0154432
0.0842665
0.000126787
0.000105653
0.000109862
0.000105784
0.00063199
0.0860687
0.0712808
0.000135085
0.000130265
0.0328082
0.0333061
9.59876e-05
0.0824326
0.0789642
0.00034653
0.000110186
0.0985804
0.000220426
0.000103101
0.0692497
0.0410889
0.0712854
0.0827632
0.0506539
0.000617657
0.0356762
0.000104918
0.000136423
0.000111754
0.000111491
0.000102237
0.0770675
0.0829492
0.000112738
0.00640714
0.0340145
0.0536586
0.0535202
0.0777632
0.0807214
0.000111199
0.0388492
0.0890629
9.76596e-05
0.000216617
0.000105322
0.057949
0.0364261
0.000116836
0.000118116
0.0358864
0.000112217
0.000100609
0.000112195
0.000117177
0.0972018
9.61225e-05
0.0884313
0.00014695
0.0371489
0.000133883
0.00118234
0.085729
0.0825519
0.000119944
0.000363183
0.0341891
9.84752e-05
0.0380758
0.0784583
0.0358185
0.00104714
0.101811
0.000383952
0.000108145
0.000143946
0.000137398
0.0106723
0.00174068
0.0771196
0.000120567
0.000515593
0.000101086
0.0959625
0.000119718
0.100367
0.0933358
0.000130179
0.0308986
0.000103881
0.000112811
0.000112116
0.000103758
0.000113228
0.00011706
9.75245e-05
0.00015063
0.000141481
0.0205868
0.000118982
9.62005e-05
0.00087653
0.000653731
0.000100727
0.000113156
0.000107339
0.100365
0.0723203
0.000129851
0.00013734
0.0101223
0.000125596
0.000103436
0.0155614
0.0356899
0.0781621
0.000118286
0.000155812
9.88603e-05
0.105383
0.000289474
0.000103259
0.0977799
0.000110993
0.000109092
0.000103213
0.104298
9.61585e-05
9.68384e-05
0.0791203
0.102258
0.0501367
0.000112723
0.100147
0.000112833
0.000116021
0.0516046
9.98004e-05
0.0829704
0.0907283
0.000111195
0.000102616
9.86575e-05
0.0436231
0.00351382
0.106473
0.000110998
0.00200656
0.000104433
0.0275762
0.000116596
0.000230918
0.0840245
0.00252859
0.000117159
0.0222946
0.0300307
0.0890164
0.00216997
0.000116591
9.34176e-05
0.000785562
0.0421935
0.000358573
0.000102713
0.000149633
0.0954654
9.75771e-05
0.000107171
0.0935468
0.0328775
0.000117648
0.00262616
0.0260543
9.82579e-05
0.000136363
0.0213817
0.000126588
0.000118409
0.0723325
0.000222923
0.0460982
0.000117394
0.00355668
0.000120431
0.000118568
0.000136093
0.000283103
0.0770519
0.0772944
0.0354646
9.60952e-05
0.000225596
0.000137745
0.000101442
0.0758998
0.047568
0.000199092
0.0626245
0.0719036
0.000108751
0.000105467
0.0253499
0.000264857
0.000119216
0.000136175
0.00609527
0.00353376
0.00370698
0.000110254
0.000105528
0.000103063
0.0070288
0.00011207
0.000102638
0.000177934
0.000120811
9.56637e-05
9.91757e-05
0.0744446
0.0886674
0.00308223
0.000146343
0.000110832
0.0552584
0.00113181
0.000105721
0.000180497
0.000128849
0.106271
0.000102511
0.000185394
0.000103476
0.000481459
0.0001038
0.000112405
0.00011936
0.000204257
0.000130691
0.000122832
0.000117372
0.000111916
0.000111591
0.0330994
0.0361267
0.0883367
9.58416e-05
0.000108337
0.00010704
0.000108712
0.00382615
9.82104e-05
9.8771e-05
0.00606229
0.0889807
0.000104426
0.00011074
0.104423
0.000106033
0.000211976
0.0383538
0.000126123
0.000165238
0.0652349
0.0986115
0.000151828
0.000105906
0.0724062
0.00111039
9.69935e-05
0.0274203
0.0991056
9.61387e-05
0.0986262
0.000105734
0.000180719
0.0547262
0.0866929
0.000116261
0.000116598
0.000118299
0.0938342
0.00169224
0.0961892
9.30211e-05
0.000153527
0.000111033
0.0512704
0.0768115
0.000115445
0.0336902
9.44535e-05
0.00011793
0.000109623
0.0014616
0.0941352
9.45426e-05
0.000141779
0.000108521
0.050176
0.00201516
0.000119415
0.000115401
0.0508722
0.00589102
0.000164682
0.000236152
0.0751632
0.000147249
0.0493467
0.000121661
0.0862052
0.000210387
0.0256732
0.0717245
0.0777141
0.00167895
0.000111319
0.000183323
0.0503623
0.0208438
0.0760881
0.00026462
0.0487249
9.58047e-05
0.0825963
0.101734
0.000100149
0.00168007
9.56839e-05
0.0143874
0.000104827
9.46676e-05
0.00168068
0.000288652
0.000108663
9.81766e-05
0.000155501
0.000102693
0.000117593
0.000233052
0.000113009
0.000146609
0.0655614
0.000104172
0.0500058
0.0828203
0.000105296
0.0353174
0.000130732
0.0289858
0.000104277
0.000110925
0.000149707
0.0915295
0.000111905
0.0495581
0.000445401
0.000148236
0.000118832
0.102047
0.0992026
0.000126623
0.0300098
0.0495084
0.0323443
0.000128347
0.00017164
0.0419194
0.000103646
0.00230115
0.0927229
0.000127841
0.000107536
0.000179847
0.000668136
0.000122152
0.000144257
0.0679072
0.0600817