/*--------------------------------*- C++ -*----------------------------------*\
| =========                 |                                                 |
| \\      /  F ield         | OpenFOAM: The Open Source CFD Toolbox           |
|  \\    /   O peration     | Version:  v2012                                 |
|   \\  /    A nd           | Website:  www.openfoam.com                      |
|    \\/     M anipulation  |                                                 |
\*---------------------------------------------------------------------------*/
FoamFile
{
    version     2.0;
    format      ascii;
    class       volScalarField;
    location    "100";
    object      k_0;
}
// * * * * * * * * * * * * * * * * * * * * * * * * * * * * * * * * * * * * * //

dimensions      [0 2 -2 0 0 0 0];


internalField   nonuniform List<scalar> 
14315
(
0.0770964
0.0886999
0.000108775
0.000150688
0.00020847
0.00010117
0.0797012
0.000111828
0.000115127
0.000109197
0.000236142
0.0280978
0.0882829
9.70669e-05
0.0292981
0.000119124
0.000111655
0.000123145
0.000126717
0.000124102
0.000120682
0.103803
0.000119379
0.0287236
0.000173045
0.08797
0.00012635
0.0810934
0.000136207
0.000278819
0.000102649
0.000121513
9.64116e-05
0.0902837
0.0805835
0.104223
0.00473092
0.000111004
0.000438994
0.000220396
0.0125963
0.0315522
0.000111796
0.000106331
0.000113477
0.000160634
0.000146006
0.0232877
0.025982
0.000124252
0.0211595
0.000150494
0.0285045
0.0268967
9.95744e-05
0.105284
0.0370678
0.000116012
0.000118264
0.000108747
0.00041138
0.0823557
0.104768
0.000118677
0.000299682
0.00950138
0.093902
0.000137594
0.000119482
9.97114e-05
0.0274304
0.000114681
0.0835972
0.0375583
0.000116169
0.0817401
0.000105118
0.105997
0.000112985
9.20037e-05
0.000107405
0.0486193
0.000113791
0.106432
0.000120055
9.37412e-05
0.0946052
0.0257152
0.0259533
0.000225661
0.000106804
0.000170958
0.000106932
9.51009e-05
0.0309695
0.0512753
0.000111925
0.0485255
0.0736247
0.000302041
0.000138189
0.0255258
0.103796
0.000106175
0.000309377
0.00038933
0.0536102
0.0541613
0.000105891
0.000188517
0.0493897
0.00011658
0.0566558
0.000123692
0.000111181
0.0263961
0.000124033
0.0250868
0.0514581
0.0126729
0.00143265
9.96909e-05
0.000106044
0.0263487
0.000133391
0.000106747
0.00094464
0.000109079
9.74112e-05
0.0001672
0.0462834
0.0836387
0.0020951
0.0516474
0.000295253
0.000118052
0.000114942
0.0914881
9.25375e-05
0.000116965
0.0915989
0.0262479
0.000116743
0.051085
0.000186099
0.048653
0.000245993
0.0761867
9.94877e-05
0.000128586
0.000108187
0.00997151
0.000111014
9.94477e-05
0.00019823
0.0282612
0.00011166
0.000119083
0.000101002
0.0909037
0.000117708
0.0254784
0.0886576
0.0291651
0.000106654
0.0563726
0.0288249
0.000211968
0.0251927
0.0785969
0.0547071
0.000123132
0.0291345
0.000109101
0.000113602
0.00811555
0.000148023
0.104245
0.0969727
0.044845
0.00054964
0.000104814
0.000106336
0.0124019
0.00011399
0.00011092
0.00020282
0.000515204
0.0845925
0.0129179
0.00011837
0.000218141
0.0483605
0.0275386
9.36635e-05
0.0465053
0.00046314
0.000106923
0.000110182
0.000207191
0.0301594
0.000107329
0.0251011
0.0504907
0.000101858
0.00050823
0.000271504
0.000110854
0.000118514
0.0496029
0.000449768
9.71516e-05
0.03007
0.000147584
0.0662348
0.0523597
0.106337
0.0770245
0.0635721
0.000162811
0.000107138
0.000105308
0.000139869
0.000109857
0.085248
0.000107923
0.000113543
0.011133
0.0818144
0.101573
0.000112474
0.000106882
0.000126324
0.000143028
0.000149266
0.000509764
0.000112607
0.000111648
0.0823128
0.075177
9.48441e-05
0.000104256
0.042489
0.0261384
0.0122845
0.000223875
0.0994807
0.000138303
0.0776135
0.0346934
9.84302e-05
0.00010586
0.0867182
0.00596977
0.000113277
0.0942697
0.000106404
0.000608943
0.0547513
0.000249342
0.00155909
9.96771e-05
0.0303303
0.0289538
0.048677
0.000106243
0.000129244
0.000104644
9.40301e-05
0.0519543
0.0901535
0.000102303
0.0189165
0.0296954
0.000116255
0.10087
0.0159244
0.000113165
0.0510102
0.000544046
0.000102787
9.96564e-05
0.0755768
0.0495355
0.000111775
0.0297582
0.103204
0.0561579
0.0492534
0.0371609
0.000114224
0.0258586
0.0494302
0.0539377
0.000326697
0.000128966
0.0539527
0.000150615
0.000120972
0.000110732
0.000107103
0.0206786
0.0842072
0.0885752
0.000110919
0.000119667
0.0453516
0.10276
0.000120626
9.71562e-05
0.102732
0.000103979
0.0487236
0.0524651
0.000162521
0.000573526
9.7286e-05
0.000106243
0.000107381
0.000124124
0.0274242
0.0106498
0.0520255
0.000106208
0.0454911
9.38222e-05
0.0557717
0.000403612
0.00022626
9.77977e-05
0.000106102
0.0452941
0.000141748
0.0799613
0.054874
0.000125498
0.0517142
0.0891975
0.0875344
0.0857583
0.000106758
0.0691425
0.000115664
0.000138999
0.0921049
0.000123202
9.86513e-05
0.0547669
0.000230869
0.0503188
0.000146957
0.000114582
0.0409252
0.0261487
0.0219636
0.000117535
0.000101473
0.000149286
0.000119941
0.0541973
0.000141873
0.0551104
0.0782662
0.0547763
0.100794
0.0531307
0.000109089
0.0294844
0.0736717
0.000103031
0.00169768
0.000111289
0.000147004
0.0999993
0.0469563
0.00012714
0.000107582
0.000126138
0.000117961
0.0332055
0.0219832
0.000113579
0.000122452
0.059318
0.000181071
0.0896361
0.000144655
0.0930626
0.0914172
0.00791627
0.000107119
0.0263786
0.0910571
0.0926016
0.0501487
0.0866829
0.000122163
0.000146152
0.000105707
0.0592523
0.000107192
0.000112162
9.67364e-05
0.0219423
0.0908569
0.00049109
0.0527655
0.0103167
0.0512105
0.00814262
0.000113512
0.0682413
0.0335492
0.000131657
9.84055e-05
0.000104126
0.000267003
0.0531691
0.000121369
0.00564544
0.000102056
0.100128
0.000363134
0.000112403
0.000142152
0.0487103
0.04834
0.000139554
0.000112038
9.92975e-05
0.0396603
0.0910076
0.000146004
0.000113982
0.00443339
9.66878e-05
0.000164497
0.0512641
0.000190634
0.000121664
0.00512525
0.000117465
0.0481939
0.000120149
0.000110916
0.000314293
0.000166096
0.0508658
0.000127285
0.00010993
0.0591268
0.0246858
0.000137232
0.000115544
9.99396e-05
0.0360789
0.0151821
0.0512471
0.0702901
0.000186516
0.000114151
0.0891388
0.0286407
0.000160311
0.0924049
0.0626857
0.0258703
0.000183736
0.000116103
0.0441758
9.93106e-05
0.000191512
0.0484118
0.000114371
0.0263621
0.0001102
9.82204e-05
0.000103732
0.050647
0.0289703
0.000141085
0.0571788
0.000187776
0.024081
0.0506652
0.000485157
0.000148531
0.0836909
0.000111369
0.000154848
0.000114214
0.0128935
0.00010765
0.000157092
0.00103684
0.0476006
0.000137941
0.000112001
0.0636448
0.0921024
0.000226195
0.0422102
0.0255163
0.00010653
0.00014829
9.85923e-05
0.0644625
0.000293798
0.000114846
9.68328e-05
0.0902473
0.000109545
9.96171e-05
0.000102381
0.000607333
0.100618
0.000197664
0.0845597
0.083395
0.000172984
0.0293266
9.69435e-05
9.66121e-05
0.000128887
0.0169983
0.0487885
0.000108879
0.000137386
0.000158471
9.27711e-05
0.000117158
0.000139398
0.00012213
9.67434e-05
0.0214981
0.024537
0.000113082
0.0258302
0.000182143
0.000142089
0.0516092
9.6944e-05
0.0534712
0.00382943
9.96972e-05
0.000121625
0.000105146
0.000218602
0.000137268
0.029692
9.93055e-05
0.000106613
0.077051
0.0345578
0.0923109
0.042333
0.000127615
0.000118983
0.000114792
0.000112589
0.0458399
0.0811368
0.0432306
0.000295723
0.000491129
0.000314104
0.000125931
0.000142876
0.000108965
9.8445e-05
0.0878422
0.000107063
0.0285462
0.000354338
0.0548816
0.000111991
0.000113633
0.000121389
0.0803913
9.6805e-05
0.100071
0.000153235
0.000127053
0.0375512
0.000120959
0.000105358
9.41072e-05
9.87478e-05
0.000282884
0.000108066
0.0271773
0.000120291
0.000211478
0.000145413
0.000212855
0.000119684
0.0821393
0.000112883
0.0894638
0.0457189
0.000121518
0.0108578
0.0558756
0.0830421
9.90369e-05
0.000137256
0.0610618
0.000113374
0.000112007
0.0790587
0.025316
0.00031701
0.0538303
9.76271e-05
0.000410565
0.000112411
0.000209887
0.000551092
0.000138419
0.000113568
0.000326835
0.000593143
0.000108761
0.000302119
0.0453773
9.14621e-05
9.43618e-05
0.0931172
0.000551457
0.0527429
9.41443e-05
0.000141824
0.000123618
9.60925e-05
0.0444013
0.000138028
0.0464144
0.000112837
0.102216
0.00010709
0.000117458
0.00012189
0.000105632
0.0452683
0.0915976
0.0279145
0.000108333
0.000115079
0.000147201
0.000102668
0.00731986
0.0421283
0.0822342
0.000143923
0.000283845
0.0871034
0.000113346
0.000102268
0.000174149
0.0793156
9.8621e-05
0.000102671
0.00725758
0.106415
0.000360798
0.100226
0.000115278
0.000109526
0.0493208
0.000111542
0.0249783
9.41446e-05
0.00027041
0.000115312
0.00011454
9.7564e-05
0.00979867
0.0782833
0.000130988
0.0951221
0.000130369
0.000147514
0.0184416
0.0484275
0.000108305
0.0538332
0.00668823
0.0690593
0.040219
9.66614e-05
0.000112174
9.28252e-05
9.72666e-05
0.000119134
9.77218e-05
0.0506382
0.0998197
0.000111521
0.000104222
0.000113135
9.59297e-05
0.0409847
0.000112618
0.000149308
0.000139902
0.000112734
0.0293991
0.000434123
0.000220053
0.0951887
0.00011244
0.0162696
0.000124405
9.68824e-05
0.000124238
0.000114231
0.000116924
0.000103978
0.00011806
0.000105421
0.000109448
0.0183216
9.38887e-05
0.000110257
0.000183447
9.50356e-05
0.00011273
0.000165584
0.000111797
0.111744
0.000106484
0.000145019
0.100648
0.0856546
0.0433281
0.00294778
0.000117787
0.0505598
0.000120656
0.000118237
0.0906095
0.000128539
0.000122229
0.00012131
0.000126501
0.029139
0.000104888
0.0388693
0.00011002
0.1008
0.000957538
0.000173227
0.000113319
0.0222786
0.0927811
0.0521093
0.000114549
0.0305729
0.000120732
0.0531192
0.000147342
0.0463952
0.0303164
0.00371398
0.104897
0.000128414
0.0128017
9.95632e-05
0.000121577
0.00528169
0.0746829
0.000107979
0.000113366
0.00449137
0.0285801
0.0752776
0.000115926
0.00968214
0.0818341
0.0786259
0.04466
0.00010566
0.0159888
0.0890242
0.0731547
0.000115962
0.0533544
0.000118736
9.65114e-05
0.000112707
0.000128062
0.000113466
0.000342115
0.095793
0.000128669
0.000111511
0.00010692
0.104895
0.000149035
0.000111036
0.000773709
0.0519583
0.0253291
9.8374e-05
0.0966838
0.000146168
0.00010046
0.000108753
0.00038107
0.0257792
0.000117944
0.0570772
0.000325882
0.0816825
0.000485749
0.000164355
0.0851626
0.000122728
0.0341012
0.00014006
9.39125e-05
0.000120627
0.00016188
9.50574e-05
0.000114501
0.000112759
0.000116023
0.0957802
9.61348e-05
0.000107886
0.10105
0.0366072
0.0222337
0.000151311
0.000108462
0.0432564
0.000105125
0.000113448
0.0246804
0.000112434
0.0550887
0.0821786
0.0505701
0.0306041
0.0892605
0.00029402
0.0832013
0.0802799
0.000112126
0.000134632
0.000120304
0.000373654
0.10082
0.000289651
0.0226668
0.000111846
0.0276031
0.000991445
0.000102113
0.0979384
0.000125799
0.0406047
0.00011288
0.000110487
0.000103684
0.000144232
0.000322747
0.00010868
0.00132787
0.000114959
0.000144537
0.000113602
0.0650301
0.000121221
9.44259e-05
0.000115549
0.000304462
0.000100082
0.000123685
0.000109717
0.0260047
0.000111881
0.000107137
0.00011104
0.000649093
9.531e-05
0.0125158
0.000130509
0.0874895
0.000105374
0.0520492
0.0257385
0.000146195
0.0954345
0.0901842
0.0663696
0.0728871
0.000106108
0.000246706
0.05131
0.0292078
9.45506e-05
0.000115712
0.00104215
0.000108392
0.0584788
0.000106267
0.0230106
0.0529382
0.027846
0.000115672
0.101345
0.0979929
9.76497e-05
0.0122169
0.000118066
9.49202e-05
0.049144
0.0335896
0.000120842
0.000157159
0.0623717
0.00011054
0.0800724
0.000120577
0.000334199
0.000135306
0.0866649
0.0753847
0.0626763
9.69846e-05
0.000146621
0.0909731
0.000111414
0.00725781
0.000116549
0.000100064
0.000683105
0.00297459
0.0424404
0.0045582
0.000104905
0.0466605
0.000110367
0.000113815
0.0241606
0.0547923
0.0757342
0.0452077
0.026368
0.000301921
0.065282
0.10557
0.0237593
0.000341755
0.0698338
0.000108202
0.000108823
0.000120531
0.000155732
0.0101706
0.0214357
0.000146159
0.0946976
0.019329
0.00013363
0.0641651
0.000112794
0.00440424
0.000200625
0.000289976
0.0428186
0.0813037
0.000125371
0.0991675
0.000140026
0.000110518
0.000106635
9.64536e-05
0.00276488
0.000104912
0.000115017
0.104342
9.52022e-05
0.0495621
9.86773e-05
0.0540964
0.000337155
0.000100583
0.0796955
0.0314615
0.0254771
0.0256671
0.0544006
0.00072815
0.0563986
0.0225865
0.000192905
0.000109799
0.0266147
0.000108527
0.0234364
0.000153242
9.83301e-05
0.102214
0.000126626
0.0470978
0.000143594
0.000109959
0.03358
0.0380037
0.0518723
0.000112486
0.0553286
0.000356408
0.000163649
0.0418104
0.0506613
0.000249291
0.000181201
0.00010303
0.000126528
0.000113514
0.0336038
0.0901433
9.13414e-05
0.0790834
0.0505294
0.00011783
0.00012151
0.0320023
0.000121687
0.0572482
0.0508193
0.000100263
9.64536e-05
0.009383
0.000110841
0.0129062
0.0672616
0.000115349
0.103934
0.000803445
0.000128766
0.000148327
0.000111337
0.000122594
0.000128298
0.0257676
0.01975
0.000104102
0.000207774
0.0576768
9.90409e-05
0.000128377
0.000151995
0.000107507
0.000111408
0.029788
0.000104477
0.000153527
0.0889802
0.000128071
0.0349991
0.0738727
0.000165081
0.000139271
0.000122385
0.064359
9.35605e-05
0.000106543
0.0599813
0.0499657
0.000213583
0.0456299
0.0827827
0.0882158
0.000151305
0.0595109
0.000313074
0.053363
0.00368998
0.000110528
0.0974201
0.000121583
0.0787429
0.000144129
0.0750635
0.00011139
0.0223659
0.000558989
9.81201e-05
9.88716e-05
0.000142381
0.0108998
0.00012179
0.0791897
0.0117177
0.0999907
0.000121273
0.0266444
0.0259756
0.000118474
0.0518466
0.000121066
0.0334618
0.0285036
0.000109785
0.0736493
0.0766128
9.81101e-05
0.0288092
9.36994e-05
0.0529824
0.000112953
0.00170583
0.0287707
0.000102253
0.0112537
0.000112542
0.000151637
0.000612573
0.000121467
0.00243575
0.0227351
0.000135927
0.000190308
0.000214699
0.000123027
0.0233001
0.000106665
0.0870731
0.0123443
0.000110138
0.0369942
0.000324045
0.0476206
0.000119087
0.000104669
0.102171
0.000371573
9.53988e-05
0.0619682
0.0804536
0.000352629
0.0343155
0.000141526
0.0677999
0.000146477
0.00792555
0.0553591
0.000106395
0.00131073
0.000138073
0.0495825
0.000518438
0.000110955
0.101002
0.000135497
9.93603e-05
0.000303352
0.0933618
0.00016518
9.99041e-05
0.000307572
0.0624127
9.98936e-05
0.00035776
0.000137911
9.42378e-05
0.00012945
9.7147e-05
0.0277361
0.000113594
0.0512303
9.23556e-05
0.0182897
0.000111131
0.0803655
0.00164543
0.000104572
0.000128914
0.00010581
0.000148088
0.00494055
9.49251e-05
0.0486602
0.00018323
0.000111303
0.0423116
0.105859
0.00815744
0.0257839
0.000145147
0.0898081
0.052428
0.000964028
0.0270183
0.0257911
0.000117997
0.000446364
9.68601e-05
0.000205226
0.000215557
9.7743e-05
0.000177645
0.000108426
0.000129065
0.0635928
0.0769494
0.0873402
0.000146152
0.0329291
0.103827
0.000109915
0.00010047
0.0916506
0.000179851
0.000102219
0.0145395
0.0822094
0.0265043
0.0463495
0.094803
9.56511e-05
0.00195227
9.68477e-05
0.0125526
0.000111643
0.000188563
0.0026235
0.000464804
9.88693e-05
0.000122129
0.0443272
9.96449e-05
0.0610204
0.000118929
0.0707862
0.0617586
0.092329
0.0744138
0.000140552
0.000239148
0.000100956
0.0505551
0.0698051
0.000653144
0.0923284
0.000114035
0.00021818
0.000121502
0.00119325
0.000107667
0.0681978
0.000118057
0.101198
0.0124395
0.0118638
0.0534889
0.000110546
0.000107334
0.0733671
0.000137912
0.056805
0.000111885
0.0261845
0.000124771
0.0881107
0.111185
0.000195496
0.000112492
0.0010804
0.0917771
0.000114317
0.000137435
0.000111676
0.0721233
0.000108519
0.00201778
0.0481082
0.0489617
0.0722348
0.0428924
0.000229618
0.000111254
0.0644668
0.000191449
0.000117386
0.000705628
0.00013722
0.000105329
9.38677e-05
0.000197963
0.000137197
0.0242599
0.0648269
0.000192662
0.000111186
0.000109985
0.0784181
0.0532946
0.0937078
0.000118983
0.000144269
0.0352376
0.000238305
9.9959e-05
0.00290422
0.000153709
0.000111734
0.000117432
0.00025855
9.85421e-05
0.00563971
0.0003411
0.00010901
0.000127685
0.00725951
0.090753
0.0441108
0.0110861
0.000105136
0.000108334
0.000744051
0.000105804
0.0607358
0.000134699
0.000124494
0.000112181
0.000825885
0.000106951
0.000125055
0.000112625
0.000131101
0.000146341
0.0258303
0.0710942
0.101144
0.0795795
0.0824741
0.0749648
0.000160407
0.000146595
0.000145124
0.000194528
0.000121135
0.000112474
0.000122339
0.00448218
0.00506982
0.000102496
0.000111264
0.0736442
0.000329585
0.000210369
0.029687
0.0348162
0.0730875
0.000118108
0.000107976
0.000103349
0.000134331
0.0493333
0.10515
0.0493479
0.000499565
0.000141957
0.0838768
0.0226015
9.63151e-05
0.00478003
0.000112836
0.000113843
0.00037541
0.000102032
0.000106167
0.0886524
0.0258359
0.0823995
0.0523484
0.0811832
0.000131972
0.000140405
0.0678163
0.000158834
0.000134388
0.0826756
0.0940116
0.000124051
0.000108657
0.000111341
0.000118666
0.00393856
0.00011029
0.000114532
0.000189637
0.000168399
0.000187372
0.000117306
0.000129085
0.010903
0.000797868
0.00011223
0.000185043
0.000331556
0.00258436
0.0478823
0.000139394
0.073156
0.000149929
0.000101892
0.0304824
0.000145038
9.81019e-05
0.000111614
0.0354677
0.0221607
0.0274664
0.0794583
0.0973009
0.00540594
0.000536387
0.000105173
0.00012151
0.00188828
9.66043e-05
0.000109618
0.0845684
0.000117649
0.063004
0.000154553
0.000130486
0.000110631
0.000157141
0.0546047
0.000179809
9.35034e-05
0.00012798
0.100429
0.000168999
9.75317e-05
0.000107952
0.0930514
0.000107652
0.0266432
0.0765734
9.84928e-05
0.0425838
0.000109381
0.000110444
0.000104676
0.000107463
0.000106217
0.0846525
0.085662
0.0470799
0.0143796
0.000110614
0.0434493
0.000117842
0.0715244
0.0514665
0.000100121
0.101731
0.000109631
0.000178116
0.000120865
0.000111327
0.000112054
0.0708406
0.0511977
0.0820809
0.0641817
0.000105908
0.000217484
0.102361
0.0930727
0.0281785
0.0596422
0.000120555
0.000108495
0.000284133
0.000127259
0.000128753
9.69298e-05
0.0629938
0.000132363
0.000147834
0.0288884
0.000105898
0.000144351
0.112426
0.000127453
0.0419573
0.000112405
0.00915021
0.0730193
0.0396077
0.100634
0.000106918
0.0741999
0.000200062
0.000142676
9.16122e-05
0.0465088
0.000115735
0.000147256
0.0986356
0.000145392
0.0799414
0.000106331
0.0108845
0.000191292
0.00295867
0.000134999
0.0342089
9.47061e-05
0.000145181
0.000110863
0.000119588
0.000105159
0.104357
0.00101143
0.0478792
0.000949769
0.000182629
0.000117291
9.82165e-05
0.0842719
0.000109657
0.000123879
0.106864
0.000109027
0.0999342
0.0928758
0.0908658
0.000224013
0.000111854
0.060288
0.0393903
9.78086e-05
0.000105263
0.0834346
0.00618397
0.0703726
0.000122196
9.9423e-05
0.000111508
0.0805021
0.00595328
9.72817e-05
0.0180859
0.103406
0.000112183
0.000117511
9.77312e-05
0.000104294
9.73283e-05
0.000100442
0.0700219
0.0754675
0.0256977
0.000124673
0.000105683
0.00205728
0.00217016
0.000118227
0.0502444
0.000102863
0.00012447
0.000111194
9.31664e-05
9.78364e-05
0.00155094
0.000112887
0.0180964
0.0952758
0.000100141
0.000185572
0.0159832
0.00015464
9.85837e-05
0.0928803
0.000108411
0.000104635
0.000126907
0.000112027
0.0505539
0.029477
0.000165859
0.000147316
0.0964468
0.0908792
0.000109831
0.000137339
0.0949304
0.0937194
0.0482666
0.0775248
0.0907881
9.86899e-05
9.52591e-05
0.000105978
0.0276119
0.000110421
0.0352594
0.0782446
0.00199222
0.000119641
0.104707
0.0782274
0.000130565
0.000117266
9.58023e-05
0.0287042
0.000120298
0.0366369
9.8402e-05
0.0858313
0.000114097
0.0931522
0.0242288
0.0176199
0.000122408
0.0887868
0.000121765
0.000115887
0.0912577
0.000116302
0.000112476
0.000100853
0.000131689
0.0184929
9.79733e-05
0.00630687
0.000107293
0.0527288
0.0726287
0.000118522
0.000836439
9.92899e-05
0.000126837
0.0790876
0.0680071
0.0860335
0.0290832
0.0984941
0.00150094
0.090577
0.0514009
0.000121246
0.000110365
9.35226e-05
0.000121548
0.000117729
0.0920272
0.0944571
0.000108146
0.000129154
0.000134999
0.0783748
0.000106155
9.61691e-05
0.0829683
9.90809e-05
0.000357305
0.000112643
0.000140901
0.000148338
0.0163488
9.36173e-05
0.00069549
0.000393745
0.000119619
0.00011321
0.000101802
0.000106976
0.000109994
0.0822671
0.0510159
0.000135046
0.0482972
0.0516307
0.000130139
0.000137325
0.0932013
0.000233447
0.0942079
0.000108707
0.00203439
0.000125228
0.0472627
0.00011376
0.00114153
0.000147278
0.000128926
0.000142889
0.0640667
0.104704
0.0449405
0.000138052
0.0395546
0.037537
0.106173
0.000119386
0.000110854
0.02188
0.0484085
0.000112206
0.0980282
0.000103636
0.0443029
0.0967802
0.0483436
0.000104634
0.000111413
0.0801083
0.0586383
0.0160324
0.000101843
0.000126141
9.81788e-05
0.000123885
9.7478e-05
0.000186169
0.000111985
0.000108061
0.0390325
0.0498874
0.0176208
0.00011132
0.000102192
0.0884073
0.0419767
0.000111687
0.0952702
0.0775415
9.4585e-05
0.0934915
0.0458778
0.0346635
0.0798838
0.000123104
0.0851121
0.000174051
0.00022058
0.000159763
0.000111128
0.0398511
0.0518495
0.0801908
0.000299122
0.000117088
0.0528283
0.000164468
0.000139171
0.0237013
0.00011163
0.000288795
0.000103854
0.000116605
0.0472534
0.00010478
0.000213691
0.000115273
0.0804014
0.00022924
0.000111959
0.000110423
0.000125987
0.000124001
0.0943411
0.000112674
0.000122001
0.000105843
0.00926856
0.00060966
0.0269195
0.0584939
0.000108661
0.00012092
0.000116442
0.000177801
0.000111367
0.0758998
0.0879825
0.000121611
0.000223547
0.000126258
0.00011611
0.000121949
0.00012597
0.093082
0.000112007
0.000114041
0.0656289
0.000131562
0.000104357
0.103972
0.00011153
0.092299
0.0516536
0.0915165
0.0937791
0.000986901
0.0242957
0.0259691
0.000102623
0.0336727
0.000122999
0.000131312
0.000105242
0.0671912
9.80316e-05
9.45317e-05
0.0982568
0.09225
0.106091
9.97835e-05
0.000111877
9.58125e-05
0.000112339
0.000411505
0.000116359
0.000103622
0.0475722
0.0482533
0.0585196
0.0926538
0.0405059
0.00035615
9.54321e-05
0.000136428
0.0514358
0.000108319
0.000119948
0.0956612
9.77546e-05
0.000113566
9.78171e-05
0.000128863
0.000131389
9.50983e-05
0.106516
0.028441
0.000137838
0.000257245
0.000226399
0.0527499
0.000110947
0.000112066
0.000105338
0.000108261
0.0596271
9.38308e-05
0.000108507
0.000145025
0.0504984
0.000112735
0.000112182
0.0258172
0.000104141
0.000145808
0.000125701
9.14356e-05
9.51396e-05
9.2772e-05
0.000108151
0.000110281
0.000117808
0.000332121
0.00012819
0.106509
0.000116278
0.0549216
0.000111892
0.000107224
9.86996e-05
0.000143128
0.000108929
0.0019664
0.0959517
0.000116033
0.0489503
0.000112185
0.0684255
0.00010055
0.000108229
0.000120961
0.0558396
0.0886703
0.029401
0.097684
9.96539e-05
9.56943e-05
0.0258815
0.000647413
0.000320843
0.000112459
0.000111059
0.000266286
0.000151575
9.7312e-05
0.00359318
0.0951375
0.000103619
0.0998191
0.0279584
0.0524258
0.000146255
0.0269429
0.0877323
0.000114792
9.60807e-05
0.000124267
0.000105231
0.0840235
0.000107017
0.00110112
0.0631123
0.0422394
0.0434439
0.000221619
0.000120244
0.00489062
0.0868068
0.000174491
0.000511416
9.74908e-05
0.0025217
0.000130038
0.0212405
0.014676
9.39822e-05
9.81314e-05
9.62622e-05
0.0651751
0.000109814
0.000151566
0.0480106
9.46303e-05
0.0354973
9.97021e-05
9.60673e-05
0.000203367
9.88671e-05
0.0456567
0.000134596
0.0721863
0.000110946
0.0548436
0.00083576
0.0989898
0.000108184
9.28602e-05
0.000108521
0.00012069
0.000108362
0.00411815
0.00345345
0.106715
0.0828017
0.0139713
0.00134557
0.000127164
0.000103248
9.87413e-05
9.51594e-05
0.000110626
0.0883387
0.00011965
0.0478612
0.000115882
0.0696413
0.0474056
0.000107742
0.000112647
0.000207655
0.106236
0.000113575
0.000112532
0.000120051
0.0891289
0.0582774
0.0352191
0.00933701
9.15383e-05
0.0264686
9.86565e-05
0.0787364
0.0883474
0.000112481
0.000111285
9.40604e-05
0.029086
0.0304322
0.000110089
0.0845254
0.0238287
0.000248642
0.0473268
0.000103405
0.0634742
0.00192443
0.0778644
0.000151465
0.0405739
0.00035493
0.0531348
0.000117784
0.000105185
0.0545415
0.0236771
0.00977342
0.000101195
0.100342
0.0324286
0.000101486
9.87904e-05
0.000103981
0.000141133
0.000108678
0.000127294
0.000105371
0.000108135
0.0881034
0.0251217
0.00012702
0.0277147
0.0883879
0.0277536
0.000110872
0.000106293
0.00011203
0.085857
0.0838584
0.03256
0.061098
0.000170423
0.000952557
0.0233297
0.000141035
0.000116054
0.000144186
0.0756583
0.000133994
0.0805032
0.000408869
0.011424
0.0191798
0.0907395
0.0902777
0.000111889
0.000210227
0.0959804
0.0588379
0.092437
0.0489978
0.000111754
0.0313287
0.0534382
0.0500722
0.00347915
0.0391626
0.000209836
0.000114468
0.00421947
0.0895948
0.00011606
9.91802e-05
0.0311491
0.000286833
9.72708e-05
0.0655359
0.0960896
0.0278722
0.0790223
0.0583673
0.0977677
0.0866962
0.000137124
0.0601504
0.0892494
0.086064
0.0989354
0.086825
0.000418747
0.0920423
0.100161
0.000115075
0.000111021
0.000110075
0.000566182
0.00172988
0.0892918
0.0772285
0.0756451
0.000205421
0.0977339
0.000780302
0.000107749
0.0372464
0.000109632
0.0313222
0.000117231
0.00763312
0.0840737
0.000106216
9.51676e-05
9.92346e-05
0.000123981
0.000117396
0.000115544
0.0110267
0.000111646
0.000336208
0.0590769
0.000118497
0.023947
9.52275e-05
0.106084
0.000636043
0.000118269
0.0890502
0.000110904
0.000185961
0.04151
0.085922
0.0361203
0.0207467
0.000183117
0.000117038
0.00850652
0.00537563
0.0313686
0.00010218
0.0567455
0.000131236
0.0827266
0.0274937
0.000111692
0.00133131
0.000103613
0.000115281
0.0366038
0.000127404
0.000109037
0.0975445
0.000112292
0.0982838
0.000115313
0.0457419
0.0578363
0.000114886
0.0563263
0.000141607
0.000377703
0.000116148
0.0310095
0.000107119
0.0687886
0.000115728
9.89821e-05
0.00036599
0.000117862
0.000110937
0.000101315
0.000192233
0.0587824
9.75311e-05
0.104685
0.0914093
0.000317186
0.105235
0.0944717
0.00021162
0.000104223
0.00452275
0.0505428
0.0793446
9.79663e-05
0.000118014
9.49603e-05
9.50965e-05
0.000113259
0.0910425
0.0155315
0.000375265
0.0248729
0.000184539
0.0513161
0.000106621
0.000224775
0.000455687
9.8851e-05
0.0344405
0.000132868
0.0181144
0.0229138
0.109578
9.39109e-05
0.0541159
0.000109474
9.94433e-05
0.0853697
0.000127994
0.000154458
0.000112751
9.87064e-05
0.0522179
0.00012133
0.000141827
0.0001011
0.055072
0.000105261
0.000111651
9.60406e-05
0.000321583
0.00234992
0.000182207
0.00011797
0.0016551
0.000110043
0.000143371
0.000109714
0.000150661
0.0262215
0.000103841
0.000247009
0.000448102
0.00010354
0.101963
0.0943967
0.00013779
0.000383652
0.0718472
0.0683415
0.0081237
0.000399829
0.000364382
0.000113465
0.000135652
0.000112384
0.0809163
0.0797983
0.0874619
0.000102931
0.000130839
0.0574973
0.000137734
0.0727096
0.000105085
0.0552512
0.000110882
0.045574
0.000104001
0.0154597
0.0842643
0.000126787
0.000105652
0.000109863
0.000105784
0.000616783
0.086067
0.0712786
0.000135085
0.000130265
0.032807
0.0332976
9.59877e-05
0.0824302
0.0789617
0.000346204
0.000110187
0.0985803
0.00022053
0.000103101
0.0692477
0.0410938
0.0712831
0.0827632
0.0506569
0.000631614
0.0356752
0.000104918
0.000136422
0.000111753
0.000111492
0.000102237
0.0770651
0.0829487
0.00011274
0.0064203
0.0340134
0.0536566
0.0535183
0.0777625
0.0807189
0.000111199
0.0388478
0.0890612
9.76597e-05
0.000216605
0.000105322
0.0579469
0.0364248
0.000116837
0.000118116
0.0358851
0.000112216
0.000100609
0.000112195
0.000117177
0.0971995
9.61217e-05
0.0884306
0.000146951
0.0371409
0.000133877
0.00118061
0.0857291
0.0825494
0.000119943
0.00036253
0.0341879
9.84753e-05
0.0380745
0.0784562
0.0358361
0.00104881
0.101807
0.000383613
0.000108145
0.000143943
0.000137399
0.0106938
0.0017448
0.0771174
0.000120566
0.000514709
0.000101085
0.0959601
0.000119719
0.100356
0.0933351
0.000130262
0.0308981
0.000103881
0.000112811
0.000112114
0.000103759
0.000113227
0.00011706
9.75246e-05
0.000150636
0.000141479
0.0206015
0.000118982
9.62009e-05
0.000878885
0.000649511
0.000100728
0.000113157
0.000107339
0.100353
0.0722947
0.000129851
0.000137311
0.0101381
0.000125594
0.000103437
0.015561
0.0356652
0.0781602
0.000118193
0.000155764
9.88603e-05
0.105382
0.000289515
0.000103258
0.0977775
0.000110993
0.000109095
0.000103213
0.104296
9.61585e-05
9.68385e-05
0.0791182
0.102256
0.050136
0.000112723
0.100144
0.000112834
0.00011602
0.0516328
9.97993e-05
0.0829679
0.0907274
0.000111195
0.000102616
9.86579e-05
0.0436225
0.0035118
0.106471
0.000110997
0.00203641
0.000104431
0.0275753
0.000116596
0.000230925
0.0840241
0.00252357
0.000117158
0.0222942
0.03003
0.0890148
0.00217573
0.000116591
9.34173e-05
0.000803296
0.0421971
0.000358222
0.000102713
0.000149632
0.0954649
9.75781e-05
0.00010717
0.0935443
0.0328764
0.000117648
0.00263382
0.0260533
9.82578e-05
0.000136361
0.0213584
0.000126588
0.000118408
0.0723304
0.000223263
0.0460966
0.000117396
0.00352866
0.000120431
0.000118568
0.000136072
0.000283425
0.0770494
0.0773085
0.0354633
9.60939e-05
0.000224895
0.000137744
0.000101443
0.0758997
0.0475665
0.000199091
0.0626057
0.071904
0.000108751
0.000105467
0.025349
0.000265035
0.000119218
0.000136179
0.00609826
0.00353979
0.00370933
0.000110254
0.000105529
0.000103063
0.00705118
0.000112071
0.000102638
0.000177928
0.00012081
9.56639e-05
9.91751e-05
0.0744425
0.0886668
0.00305855
0.000146343
0.000110834
0.0552563
0.001116
0.000105719
0.000180601
0.000128848
0.106271
0.000102511
0.000185473
0.000103476
0.000481889
0.0001038
0.000112405
0.000119361
0.000204263
0.000130689
0.000122833
0.000117402
0.000111916
0.000111591
0.0330881
0.0361281
0.0883357
9.58416e-05
0.000108337
0.000107039
0.000108712
0.00375123
9.82098e-05
9.8771e-05
0.0060752
0.08898
0.000104425
0.00011074
0.104432
0.000106032
0.000211938
0.0383523
0.000126124
0.000165236
0.0652328
0.0986091
0.000151825
0.000105907
0.0724037
0.00110607
9.69924e-05
0.0274255
0.0990853
9.61381e-05
0.0986238
0.000105735
0.000180743
0.0547274
0.0866917
0.000116259
0.000116598
0.000118299
0.0938332
0.00169537
0.0961886
9.30209e-05
0.000153524
0.000111033
0.0512645
0.0768095
0.000115449
0.0336819
9.44528e-05
0.00011793
0.000109623
0.00145897
0.0941339
9.4542e-05
0.000141623
0.00010852
0.0501743
0.00205088
0.000119414
0.0001154
0.0508704
0.00589383
0.000164674
0.000236979
0.0751634
0.000147249
0.0493462
0.00012166
0.0861783
0.000210227
0.0256728
0.0717249
0.0777117
0.00168093
0.000111319
0.00018422
0.0503612
0.020817
0.0760857
0.000263141
0.0487231
9.58047e-05
0.0825969
0.101718
0.000100148
0.00167909
9.5684e-05
0.0143655
0.000104826
9.4668e-05
0.00168205
0.000290229
0.000108663
9.81775e-05
0.000155496
0.000102693
0.000117593
0.000233607
0.000113008
0.000146607
0.0655501
0.000104172
0.0500039
0.0828021
0.000105296
0.0352915
0.00013073
0.0289881
0.000104277
0.00011093
0.000149705
0.0915316
0.000111907
0.0495565
0.000446528
0.000148235
0.000118833
0.102026
0.0992002
0.000126492
0.0300116
0.0494781
0.0323459
0.000128347
0.000171643
0.0419178
0.000103645
0.00229487
0.092722
0.000127836
0.000107536
0.000179845
0.000669107
0.000122152
0.000144255