/*--------------------------------*- C++ -*----------------------------------*\
| =========                 |                                                 |
| \\      /  F ield         | OpenFOAM: The Open Source CFD Toolbox           |
|  \\    /   O peration     | Version:  v2012                                 |
|   \\  /    A nd           | Website:  www.openfoam.com                      |
|    \\/     M anipulation  |                                                 |
\*---------------------------------------------------------------------------*/
FoamFile
{
    version     2.0;
    format      ascii;
    class       volVectorField;
    location    "100";
    object      U;
}
// * * * * * * * * * * * * * * * * * * * * * * * * * * * * * * * * * * * * * //

dimensions      [0 1 -1 0 0 0 0];


internalField   nonuniform List<vector> 
14315
(
(0.95467 -0.310034 2.4124e-19)
(0.396385 0.0736991 0)
(1.02813 -0.118561 -1.89811e-21)
(1.10753 -0.246967 3.53566e-20)
(1.12401 -0.300572 3.40602e-20)
(1.11513 -0.0405599 -5.24815e-20)
(0.135854 0.0419729 9.41558e-20)
(0.923108 -0.092569 0)
(1.09722 -0.163609 -4.19296e-20)
(1.02621 -0.0777347 4.86183e-21)
(0.677018 -0.162619 -8.83803e-20)
(-0.265805 -0.0228501 -5.5529e-20)
(0.844734 -0.258848 -1.46415e-19)
(1.03715 -0.00602299 1.0667e-20)
(-0.277319 -0.0231223 -2.04144e-19)
(1.01019 -0.00279968 7.62606e-21)
(0.927026 -0.0953766 -2.8686e-20)
(1.00501 -0.0249184 1.68837e-21)
(1.1347 -0.181069 0)
(1.1285 -0.178795 0)
(1.00845 -0.0275494 1.66484e-22)
(0.330611 0.0180641 0)
(1.17257 -0.103182 -1.14005e-20)
(-0.266494 -0.0213009 5.58042e-20)
(1.04729 -0.298304 -3.28875e-20)
(0.371459 0.0735559 1.65976e-20)
(0.994122 -0.020568 0)
(0.146479 0.0433888 -9.51443e-20)
(0.786885 -0.0943168 8.29859e-20)
(1.2634 -0.118332 1.62432e-19)
(1.13757 0.0071014 3.61161e-20)
(1.005 -0.0300344 -3.63865e-21)
(1.0398 -0.0066677 2.32165e-20)
(0.754772 0.0433965 1.04019e-19)
(0.012935 0.00721072 -1.95009e-19)
(0.343033 0.00948013 -1.81459e-19)
(0.363376 -0.207869 -1.46984e-19)
(0.960199 -0.116455 1.99096e-20)
(1.28182 -0.0761035 1.74937e-19)
(0.976943 -0.350199 -3.59861e-21)
(-0.211429 -0.0170164 -1.79179e-19)
(0.193559 0.115212 -1.84016e-19)
(0.962518 -0.0733016 7.22136e-23)
(1.02412 -0.00147899 1.79336e-20)
(1.17066 -0.0625567 8.37631e-21)
(1.04333 -0.288323 2.37549e-20)
(0.778062 0.0556669 -5.48429e-20)
(-0.285157 -0.0265836 0)
(-0.277196 -0.0249828 0)
(1.00506 -0.0240363 -1.22631e-21)
(-0.278607 -0.0244704 -1.43459e-19)
(1.11659 -0.244135 -1.95492e-20)
(-0.274495 -0.022025 0)
(-0.28354 -0.0261951 0)
(1.12441 0.0170442 8.17656e-22)
(0.377 0.0120696 2.45795e-19)
(0.142605 -0.527001 -1.76342e-19)
(1.11202 -0.162501 1.15087e-20)
(1.00797 -0.0360805 4.6811e-22)
(1.02615 -0.114812 5.3322e-21)
(1.27855 -0.141755 1.31036e-19)
(0.736485 0.0796992 -7.14047e-20)
(0.358783 0.0135357 0)
(1.00972 -0.0309808 7.61822e-22)
(1.26659 -0.13753 6.67158e-22)
(0.384008 -0.386881 -1.08618e-19)
(0.74634 -0.259543 3.47863e-20)
(1.0012 -0.00850316 6.67148e-22)
(1.00969 -0.0296163 1.2929e-21)
(1.12559 0.0185731 -1.51622e-20)
(-0.284006 -0.0242816 1.28997e-19)
(1.11417 -0.152552 0)
(0.0372985 0.00647583 1.94284e-19)
(-0.121204 -0.0462316 1.59499e-19)
(1.00545 -0.0445102 0)
(0.128946 -0.0775894 0)
(1.11399 -0.0826151 3.4495e-20)
(0.4409 -0.0166296 -2.14883e-20)
(1.16769 -0.0646767 7.42702e-21)
(1.06332 0.00127503 -2.66568e-20)
(1.02524 -0.0131354 0)
(0.35393 0.0109687 -9.85975e-21)
(1.11274 -0.147745 -4.34909e-20)
(0.474078 -0.0186323 -1.87516e-20)
(1.0098 -0.0261425 0)
(1.08596 0.00377601 -2.3763e-20)
(0.241683 -0.122449 0)
(-0.135808 -0.00820232 0)
(-0.284394 -0.0253048 2.21953e-19)
(0.688009 -0.148799 2.78412e-21)
(1.15449 -0.0234664 -5.16354e-20)
(0.900201 -0.293444 2.20386e-20)
(1.02613 -0.0137077 0)
(1.08783 -0.00457268 1.41754e-20)
(-0.230594 -0.0167351 1.22911e-19)
(-0.166704 -0.005516 5.24311e-20)
(0.965869 -0.0737409 0)
(-0.19597 -0.0177435 0)
(0.0026425 0.0222888 4.14629e-20)
(0.712611 0.157291 -8.01315e-20)
(1.00093 -0.0080042 -6.16992e-22)
(-0.27126 -0.0267055 0)
(0.331398 0.0134276 -8.55412e-20)
(1.02954 -0.0166796 -7.74281e-21)
(0.708639 0.176242 0)
(1.27837 -0.0783757 -1.91115e-19)
(-0.126488 -0.0246376 0)
(-0.166151 -0.00739467 3.67642e-21)
(1.15086 -0.00199433 0)
(1.21724 0.0186105 1.59528e-20)
(-0.17501 -0.00740977 -2.81455e-20)
(0.974721 -0.0308927 -4.97503e-22)
(-0.111199 -0.0242805 0)
(0.993152 -0.0252498 -6.0405e-21)
(1.02168 -0.0537661 0)
(-0.159031 -0.0109087 -1.26255e-19)
(0.992948 -0.0243397 7.74847e-21)
(-0.282873 -0.0239656 -2.16407e-19)
(-0.126073 -0.0274242 -1.23671e-19)
(-0.1421 -0.0121912 -8.15867e-20)
(1.3039 -0.0622714 -7.14909e-22)
(1.12563 -0.000134375 0)
(1.02884 -0.0150326 -5.47925e-21)
(-0.246256 -0.0183173 0)
(0.797815 -0.0972386 -3.90225e-20)
(1.02346 -0.00177044 -1.01844e-20)
(0.490253 -0.0943776 -2.00437e-19)
(1.02127 -0.00893771 -7.30905e-21)
(1.05966 -0.0162999 -2.44523e-20)
(0.893142 -0.282547 3.62308e-20)
(-0.0360011 0.0113345 1.61354e-20)
(0.0563481 -0.00902977 6.03627e-20)
(0.730733 -0.538179 -7.03945e-20)
(-0.098544 0.00584488 0)
(1.26775 -0.113804 -1.1139e-19)
(1.00514 -0.040177 -3.03908e-21)
(0.96412 -0.0257722 -1.17438e-20)
(0.432413 0.0740954 -1.6182e-20)
(1.06617 0.000400863 2.27955e-22)
(1.00576 -0.0432482 0)
(0.411772 0.0725625 -8.90137e-21)
(-0.231747 -0.0179149 1.99178e-19)
(0.974464 -0.0298456 0)
(-0.184277 -0.0161767 3.6055e-20)
(1.21669 0.015371 0)
(-0.0152287 0.0150228 -6.07074e-20)
(1.22429 0.0275249 -8.73226e-20)
(0.941175 -0.0187857 1.71312e-19)
(1.11898 -0.0176248 5.5999e-20)
(0.800946 0.00996184 0)
(1.03463 -0.108457 -1.10372e-20)
(-0.216937 -0.0196588 -1.93755e-20)
(1.00421 -0.0780932 -1.26398e-21)
(1.11723 -0.0192619 -7.23772e-20)
(1.12231 -0.291724 1.62232e-21)
(-0.275504 -0.0220935 2.02512e-19)
(0.95625 -0.0722868 3.06136e-20)
(1.01019 -0.00329127 0)
(1.11454 -0.0382187 4.87659e-20)
(0.424797 0.0727847 -3.2805e-20)
(1.00884 -0.0372879 3.84511e-22)
(-0.266573 -0.0245665 1.26946e-19)
(0.831868 -0.0199627 0)
(-0.255953 -0.0213455 1.28996e-19)
(1.0488 -0.0872912 0)
(-0.155693 -0.00549696 0)
(-0.0877245 -0.0024663 8.22777e-20)
(0.794398 -0.272678 0)
(-0.187884 -0.0312488 1.7713e-19)
(0.0101746 -0.00982054 0)
(1.09261 -0.053635 6.67168e-20)
(1.00729 -0.00218387 -1.83946e-22)
(-0.128159 -0.00651239 1.44177e-20)
(1.02486 -0.0797969 -4.36731e-21)
(1.17239 -0.0498672 -6.16077e-20)
(0.338845 -0.235987 1.33329e-19)
(1.00009 -0.00139678 1.45895e-21)
(0.342827 0.0155668 0)
(0.19509 0.0183121 4.45197e-20)
(-0.0427616 0.00956567 -4.76712e-21)
(1.24632 -0.280133 4.57644e-20)
(1.11152 -0.0801843 0)
(1.02788 -0.014886 9.99161e-21)
(1.26449 -0.0122678 5.10637e-20)
(1.1606 -0.0930781 -8.29547e-21)
(0.958599 -0.107492 -2.86423e-21)
(0.97111 -0.337552 -1.5191e-21)
(1.27813 -0.0373925 -7.5748e-20)
(0.046206 0.00648024 -2.42871e-20)
(1.23379 0.0307207 0)
(1.1684 -0.104369 -2.94573e-20)
(0.819094 -0.295637 -4.36372e-20)
(-0.129772 0.000161057 1.21287e-19)
(0.228177 0.143571 1.95974e-19)
(1.04634 -0.00396316 8.26825e-21)
(-0.131147 -0.0308904 0)
(1.28478 -0.143381 -7.81117e-20)
(1.04053 -0.0449204 1.62922e-20)
(1.02526 -0.0253815 5.65455e-21)
(0.692273 -0.116789 -9.02528e-20)
(-0.228714 -0.017099 4.0562e-20)
(1.08377 -0.115226 2.79653e-20)
(-0.261693 -0.0222965 -2.41502e-19)
(-0.12048 0.00291555 -1.00858e-19)
(1.06027 -0.0356492 7.20246e-21)
(1.19119 0.0808152 -8.36832e-21)
(1.26046 -0.134502 0)
(1.10809 -0.133113 0)
(1.01118 -0.00773886 3.15398e-21)
(-0.151708 -0.00222913 1.0096e-19)
(1.19753 0.0753521 -1.3195e-19)
(1.06319 -0.0165327 1.22151e-20)
(-0.224377 -0.0161186 -1.63154e-19)
(1.21847 -0.0688372 8.91121e-20)
(0.0544694 0.0310521 0)
(-0.11443 -0.0294902 0)
(0.543357 -0.0378451 1.27254e-20)
(0.0288715 0.0255428 0)
(0.0365846 0.0279158 -5.67995e-20)
(1.22812 -0.0577228 8.89645e-20)
(1.08583 -0.11234 -3.31399e-20)
(1.14858 -0.000261544 4.51276e-20)
(1.17681 0.0404601 -3.30009e-20)
(0.99498 -0.109397 -1.57196e-21)
(0.695385 0.0804086 6.05881e-20)
(1.03527 -0.0956284 1.24247e-21)
(1.01343 -0.000591679 0)
(1.27778 -0.0121103 -5.30802e-20)
(0.0212112 0.00569231 -3.33643e-20)
(0.443048 -0.274139 1.8733e-19)
(1.01935 -0.00077907 0)
(1.04844 -0.0851899 1.47523e-20)
(0.811241 0.00934951 7.27382e-20)
(1.00027 -0.000444205 6.35741e-21)
(1.00003 -0.000580638 0)
(0.563531 -0.0713215 -1.95338e-20)
(1.16476 -0.0708132 7.73983e-21)
(1.10961 -0.138119 0)
(0.0252199 0.00827947 -9.5309e-20)
(-0.0277995 0.0104151 0)
(1.08576 -0.0040519 -2.00209e-20)
(1.1383 -0.0453186 1.10507e-20)
(0.27438 -0.625863 6.09979e-20)
(-0.211195 -0.0152976 1.08415e-20)
(1.10599 -0.584056 -6.85764e-21)
(0.776674 -0.272064 1.26074e-21)
(0.585034 0.0511841 1.05584e-19)
(1.00113 -0.00104279 6.09301e-21)
(-0.0108422 0.0107486 0)
(1.21721 -0.127692 6.74677e-20)
(1.04406 -0.0124504 0)
(1.02957 -0.0161253 7.60954e-21)
(0.118303 -0.026553 -1.89659e-19)
(0.352229 0.112762 -8.89546e-20)
(0.964505 -0.0524868 -2.57269e-20)
(0.213139 0.0412546 0)
(1.14153 -0.0655258 5.73533e-20)
(1.19083 0.0828584 -1.49034e-22)
(-0.140808 -0.0198999 -4.40169e-20)
(1.17827 0.0743205 7.27332e-20)
(0.718636 -0.506923 2.88553e-20)
(1.12691 0.00155529 -1.64756e-20)
(-0.237237 -0.0173321 2.67936e-21)
(1.24423 -0.12981 0)
(0.978205 0.0917175 -1.07251e-19)
(1.13832 -0.0660148 -7.99187e-20)
(1.05358 -0.231038 -2.17541e-20)
(1.14087 -0.0437727 1.14932e-20)
(1.08724 0.00255817 2.70934e-20)
(-0.183217 -0.0115603 0)
(0.413004 0.0732605 -3.2858e-20)
(1.10094 -0.0571111 0)
(1.19803 0.0358996 0)
(-0.151711 -0.00900905 1.49993e-19)
(0.984236 -0.183603 0)
(0.506239 0.056092 0)
(-0.185811 -0.0121709 8.10603e-20)
(1.16828 -0.069438 0)
(-0.166296 -0.0192492 0)
(1.20442 -0.337018 3.54339e-20)
(1.13818 0.00938568 3.00948e-20)
(1.10829 -0.0290704 -4.3294e-20)
(-0.0209236 0.0104807 0)
(0.370867 0.0112125 -9.4259e-21)
(1.02109 -0.0518338 0)
(-0.257492 -0.0204139 0)
(0.313251 0.0146159 0)
(-0.118796 -0.0221931 2.17165e-22)
(-0.107602 0.00402306 0)
(0.382335 0.0220745 0)
(1.17409 -0.0531271 4.40603e-20)
(-0.234604 -0.0251084 -1.296e-19)
(-0.130993 0.00160114 1.08692e-19)
(-0.149375 -0.0196091 -1.80758e-20)
(1.27181 -0.133782 5.47851e-22)
(1.19295 -0.00849489 2.53998e-20)
(-0.167582 -0.0072257 -3.19582e-20)
(1.22092 -0.0728302 -7.89222e-20)
(0.995408 -0.0332568 -1.57234e-20)
(1.02453 -0.0245677 0)
(1.15638 -0.0213495 -1.62127e-20)
(-0.255172 -0.0243505 -8.70988e-20)
(0.866616 -0.0111096 -1.51237e-19)
(0.346546 0.0677051 -1.90176e-20)
(0.961512 -0.105175 8.57583e-21)
(1.0102 -0.0269309 3.26689e-22)
(-0.0362043 0.0107918 0)
(0.301971 0.0167574 1.10934e-20)
(1.01011 -0.0207199 4.8924e-21)
(1.04631 -0.011662 1.20052e-22)
(0.296488 -0.00704806 0)
(1.02982 -0.0119666 0)
(-0.132576 -0.028204 9.9787e-20)
(-0.165042 -0.00568963 3.38363e-20)
(1.09752 -0.27175 1.29618e-20)
(1.28266 -0.0354996 -5.37212e-20)
(1.05829 -0.0153925 -1.16139e-20)
(1.13764 -0.0704233 4.96081e-23)
(1.04269 -0.0930794 0)
(1.00677 -0.00242892 0)
(-0.236604 -0.0188498 -2.07875e-19)
(1.33696 -0.214257 8.4923e-21)
(-0.142987 -0.00116602 -9.08758e-20)
(1.14555 -0.0548445 -6.06923e-20)
(1.17721 -0.450554 1.10782e-19)
(1.04723 -0.00434263 -1.73715e-20)
(-0.157694 -0.00581959 5.59949e-20)
(1.28034 -0.0845272 0)
(0.67994 -0.128961 -3.63473e-21)
(1.04509 -0.0115791 -1.5743e-20)
(1.13421 -0.0710675 -1.97603e-20)
(-0.0819148 0.00538686 -9.81598e-21)
(1.00009 -0.0063681 1.24904e-20)
(0.0087484 0.00663283 1.04292e-19)
(-0.0778078 -0.0349256 0)
(1.00459 -0.0218439 0)
(-0.12236 0.00280382 -8.08889e-20)
(0.140477 -0.0276679 1.29092e-19)
(0.134938 -0.0285901 8.69908e-21)
(0.126867 0.0379419 6.3881e-20)
(1.04077 -0.0435251 1.51073e-20)
(0.992234 -0.0286816 -3.18373e-20)
(1.01545 -0.0165119 1.0023e-20)
(1.00094 -0.000825051 -3.7897e-21)
(0.757556 0.0316252 1.292e-19)
(1.00733 -0.00360179 6.37877e-21)
(1.04399 -0.0129493 8.55963e-21)
(0.467389 -1.01148 0)
(1.22431 0.0238835 4.47812e-20)
(-0.167161 -0.00495429 -5.82925e-20)
(0.999914 -0.00164347 -1.52842e-20)
(0.962796 -0.0247348 -7.16593e-21)
(-0.0433871 0.00760867 0)
(-0.189131 -0.0130616 -7.79235e-20)
(0.317479 -0.434186 -1.35485e-19)
(0.993882 -0.0438625 0)
(1.06235 -0.0362912 0)
(1.00002 -0.000545067 0)
(1.01024 -0.0223881 2.45122e-21)
(-0.173237 -0.00994132 3.24278e-20)
(0.784104 0.0440506 4.81782e-20)
(0.934038 0.0907556 0)
(0.917252 -0.0194038 1.63816e-22)
(0.944372 0.0891073 1.41486e-19)
(0.60325 0.0383324 3.08823e-20)
(-0.136525 -0.0230878 -9.15686e-20)
(1.02144 -0.00979053 -7.5627e-21)
(-0.203548 -0.0133422 1.86405e-20)
(-0.0343867 0.00860285 4.63266e-20)
(1.13959 0.00537923 1.22336e-22)
(1.30828 -0.191837 9.68035e-20)
(1.00424 -0.0755659 0)
(0.99992 -0.00177205 1.2392e-20)
(0.543624 0.0534032 0)
(-0.074929 0.0072313 -1.86895e-20)
(1.05382 -0.225355 1.09764e-21)
(1.03979 -0.0926632 0)
(1.00423 -0.0208306 0)
(0.993896 -0.0419791 0)
(0.0836785 -0.157855 7.95176e-20)
(-0.293091 -0.0266258 -1.38017e-19)
(1.11729 -0.144172 0)
(1.00738 -0.00415422 -6.65476e-21)
(1.06252 -0.0526352 -1.03932e-19)
(0.937946 -0.312416 0)
(0.199566 0.0476251 0)
(1.17873 0.0424204 -6.28619e-20)
(0.194543 0.0395232 4.23444e-21)
(0.223319 0.0483025 -2.26639e-20)
(1.2104 0.065155 -3.76663e-20)
(1.04672 -0.0898838 7.02023e-21)
(-0.263975 -0.0223205 0)
(0.166246 -0.029335 -1.62222e-20)
(0.726944 0.0423789 -1.11764e-19)
(-0.174658 -0.00654448 1.45586e-20)
(0.13197 0.0377313 -6.45683e-20)
(0.892859 -0.173313 1.40131e-20)
(0.999923 -0.00219804 9.21277e-21)
(1.15108 -0.00417733 1.0212e-19)
(0.0467138 0.0276399 2.7523e-20)
(1.04404 -0.0894474 -1.86366e-20)
(0.909041 -0.0902177 3.58827e-20)
(1.05732 -0.0133533 -1.19945e-20)
(-0.283585 -0.026874 -4.13553e-21)
(0.208633 0.0473561 -1.07251e-19)
(1.19471 0.0782453 0)
(-0.120331 0.0033998 2.57264e-20)
(1.33845 -0.209606 0)
(0.958179 0.0917015 0)
(0.325119 0.0160469 0)
(1.01826 -0.0206668 -7.38495e-21)
(-0.0402343 0.0160462 -1.02218e-22)
(-0.260552 -0.0199481 -2.00751e-19)
(1.19658 -0.00832893 -3.16427e-20)
(1.05751 -0.0190169 0)
(1.02937 -0.0112213 0)
(1.22732 0.029083 9.37912e-20)
(-0.159042 -0.0200144 -7.8845e-20)
(1.00941 -0.0194206 0)
(1.07996 -0.568182 3.92789e-20)
(1.10123 -0.0547784 0)
(0.355804 -0.0798508 3.83304e-20)
(1.27709 -0.0872628 0)
(0.906297 -0.0946666 -4.85135e-20)
(0.999978 -0.0057368 -2.81445e-23)
(-0.197513 -0.0171825 1.21888e-19)
(-0.142994 -0.0274562 1.05687e-19)
(1.20526 -0.108413 1.02782e-19)
(1.161 -0.0765224 -5.76482e-20)
(1.12234 0.0218048 4.31258e-20)
(-0.201205 -0.0246158 1.271e-19)
(0.405446 0.0712394 0)
(0.9998 -0.00228732 -1.18837e-20)
(1.09751 -0.158776 -3.63864e-20)
(1.23059 0.061403 0)
(1.10109 -0.00755227 -2.62548e-20)
(1.22406 -0.0222619 4.00539e-20)
(-0.143253 -0.000783498 -7.26065e-20)
(1.13033 -0.278641 3.95642e-20)
(0.995271 -0.0316752 1.70937e-20)
(0.358924 0.0778155 1.49446e-19)
(0.99632 -0.0434712 0)
(-0.0741725 0.00759536 0)
(1.00874 -0.0285514 -3.21596e-22)
(0.964309 -0.11623 3.40454e-20)
(1.23357 0.0287349 1.53172e-19)
(0.937075 -0.297459 0)
(-0.186586 -0.016084 -1.42517e-19)
(1.00341 -0.0195552 0)
(0.997992 -0.107597 1.30314e-21)
(0.651437 -1.00885 0)
(-0.2285 -0.0185688 4.9712e-20)
(0.999579 -0.00921957 -1.63091e-22)
(1.17621 -0.0205355 -5.08783e-20)
(1.11045 -0.030198 5.28721e-20)
(-0.217824 -0.0140069 -1.41277e-19)
(1.32283 -0.307229 0)
(-0.180755 -0.0173068 0)
(-0.0276836 0.017628 2.27205e-20)
(1.21985 0.0127977 0)
(0.998501 -0.0567173 -5.65489e-21)
(0.537861 0.081748 -9.55825e-20)
(-0.276262 -0.0241423 -5.10308e-20)
(1.22182 -0.0252345 -3.60262e-20)
(0.229633 0.0491091 1.42205e-19)
(0.984986 0.0338765 -5.0345e-20)
(-0.286129 -0.0268963 0)
(1.21896 0.0101576 1.80533e-20)
(1.17778 -0.0179556 8.29078e-20)
(-0.0426454 0.00933292 0)
(1.12178 -0.0065058 -2.91061e-20)
(1.21195 0.0285731 0)
(-0.17667 -0.00650446 6.50779e-20)
(1.17543 -0.0318702 4.09453e-20)
(-0.235245 -0.0187069 2.41735e-20)
(0.985771 -0.111455 -8.6963e-21)
(1.03718 -0.00779649 0)
(1.07788 -0.0669679 1.48174e-20)
(-0.167799 -0.00515176 -5.47466e-20)
(-0.223548 -0.0177246 0)
(1.20097 0.00113879 -3.48025e-20)
(0.18952 -0.00596619 3.60289e-20)
(1.2111 0.0263458 0)
(-0.103223 -0.00718131 1.8131e-20)
(-0.171332 -0.0212209 0)
(1.24116 -0.272284 -1.1018e-19)
(1.00003 -0.00102902 0)
(0.107724 0.036156 -8.42432e-20)
(0.937892 -0.0722915 -5.60157e-20)
(1.22325 -0.057624 0)
(1.01774 -0.0200249 -1.35034e-22)
(1.32416 -0.312465 -3.69707e-20)
(1.03846 -0.0718608 8.84951e-21)
(1.09175 -0.265586 0)
(1.20701 0.077107 0)
(-0.0221971 0.0136195 1.59196e-20)
(1.00109 -0.00724899 3.29789e-22)
(1.09142 -0.149738 0)
(0.209461 -0.00973384 0)
(0.421181 0.0734418 0)
(0.801057 -0.294836 1.13761e-20)
(-0.158145 -0.0284214 2.72472e-20)
(-0.25924 -0.0210209 1.57328e-19)
(1.05176 -0.0841825 -2.13685e-20)
(1.00002 -0.00123561 8.62484e-22)
(1.05867 -0.0199108 0)
(-0.000551093 -0.0472113 0)
(1.25046 -0.189531 1.06243e-21)
(0.983326 -0.177158 0)
(1.05868 -0.0141978 3.79501e-20)
(0.488051 0.0784428 -6.51293e-20)
(1.02515 -0.0750448 0)
(1.08377 -0.0337693 1.53831e-20)
(1.07968 -0.0543036 0)
(1.19484 0.0806261 1.02447e-20)
(0.263785 -0.00158284 1.52271e-20)
(0.769495 -0.237274 0)
(0.111088 0.0358948 6.80481e-20)
(0.840237 0.028721 -5.28424e-20)
(1.19219 -0.203862 1.79941e-19)
(-0.25321 -0.0195045 5.82696e-20)
(1.10152 -0.0101363 -1.04604e-20)
(1.10285 -0.00679404 3.8564e-20)
(0.805443 -0.0859647 -3.61192e-20)
(1.24025 -0.480369 7.25745e-20)
(-0.176901 -0.00680669 -5.99202e-20)
(1.02631 -0.0830662 4.49798e-21)
(1.00111 -0.00782275 -7.90162e-23)
(1.2222 -0.0325144 0)
(1.06528 -0.000529608 0)
(0.997309 -0.0443449 -2.96675e-21)
(1.19857 0.00340599 0)
(1.00856 -0.0210423 -6.28049e-21)
(1.04636 -0.00997161 2.48721e-20)
(1.24631 -0.0382968 -8.31857e-20)
(-0.283841 -0.0251369 -3.20301e-20)
(0.962028 -0.0526744 2.09616e-20)
(-0.26079 -0.0211283 1.21949e-20)
(1.23753 -0.0944124 -5.46075e-20)
(1.00041 -0.0053239 -2.04348e-21)
(-0.161974 -0.0198886 0)
(1.09977 -0.0110089 -8.63915e-21)
(-0.0973579 0.00640933 -4.55717e-20)
(1.2382 0.0578595 1.64484e-20)
(1.08162 -0.0337785 -3.97765e-20)
(1.1664 0.0299528 -5.25794e-20)
(1.07465 -0.0856765 2.35038e-20)
(1.25201 -0.0612857 0)
(1.20087 -0.109946 -5.955e-20)
(-0.181051 -0.0114407 -8.64781e-20)
(1.08458 -0.0314907 -2.63966e-20)
(1.05168 -0.0813627 -1.09128e-20)
(0.15759 0.0471578 0)
(0.114268 -0.156207 -2.06378e-19)
(0.450237 0.0723015 0)
(1.14504 -0.0339424 0)
(0.815111 -0.0897788 -5.53647e-20)
(0.984907 -0.0324112 2.47874e-20)
(0.998688 -0.053291 0)
(1.11526 -0.139137 -4.83877e-20)
(-0.081806 0.00603926 0)
(0.0182872 0.00163495 1.02778e-19)
(-0.0427871 0.00887907 0)
(1.25017 -0.195594 6.78274e-20)
(1.20169 -0.325748 -6.64407e-20)
(1.24393 0.0128081 1.45855e-20)
(0.993497 -0.0209919 -3.3453e-21)
(1.00031 -0.00477726 0)
(1.1501 0.0216478 -1.2697e-20)
(1.07181 -0.0240562 0)
(0.82852 0.00171213 -1.38068e-19)
(1.02359 -0.00822925 -1.63271e-20)
(-0.252054 -0.019584 -1.72727e-19)
(1.22551 0.0440967 0)
(-0.168692 -0.0108003 4.10746e-21)
(1.02126 -0.000269483 -1.63692e-22)
(1.17367 -0.0436946 4.33443e-20)
(1.00445 -0.0302755 0)
(0.565749 0.932406 7.49918e-20)
(1.03807 -0.00600121 0)
(0.523052 0.0574211 -1.53104e-19)
(1.15418 -0.220264 0)
(0.994432 -0.0194314 0)
(1.19656 -0.112462 -1.32363e-19)
(1.00976 -0.0212836 -2.4031e-21)
(1.07281 -0.0874544 -3.68401e-20)
(1.03736 5.55313e-05 1.65115e-20)
(1.12035 0.0206509 1.41233e-20)
(1.24199 -0.206476 1.29105e-19)
(1.03351 -0.0863499 8.00171e-21)
(-0.0991764 -0.00583138 3.20165e-20)
(1.00903 -0.0272395 -4.92274e-22)
(1.24866 -0.0632231 -4.67347e-20)
(1.18683 0.0338277 1.37161e-20)
(1.25033 -0.0717372 -7.06073e-21)
(1.01104 -0.0229828 0)
(0.835051 0.041834 -4.94182e-20)
(0.880642 -0.0448189 1.79264e-20)
(0.38612 0.0713718 0)
(-0.128165 -0.000132165 5.14681e-20)
(1.16057 0.0389307 -3.12532e-20)
(1.21329 0.052537 0)
(-0.12559 -0.0211995 9.00465e-20)
(0.13991 -0.142013 0)
(1.08673 -0.0314859 -1.52108e-20)
(1.00118 -0.00737357 6.00476e-22)
(-0.0332855 -0.040442 -1.055e-19)
(0.9842 -0.0628103 1.15108e-20)
(1.04737 -0.162136 -5.43625e-21)
(0.343145 0.635172 2.35836e-20)
(-0.0925577 -0.00421921 -9.66838e-20)
(1.23015 0.0340775 -4.59827e-20)
(-0.0990916 0.00635966 4.33888e-20)
(1.03685 -0.0065379 1.16796e-20)
(0.655042 -0.289092 3.22105e-20)
(0.899649 -0.0811937 -3.06782e-20)
(1.24735 -0.0692589 -6.54241e-21)
(0.564719 -0.18582 1.43514e-19)
(0.999713 -0.0089868 -1.16044e-20)
(1.01809 -0.0173967 -6.49224e-21)
(1.22234 0.044832 -4.50482e-20)
(1.19803 0.0779538 6.73539e-20)
(1.0251 -0.0856243 -3.7094e-21)
(1.24301 0.01046 -2.53756e-20)
(-0.0525919 0.00915025 -2.11347e-21)
(1.0537 0.000453768 3.42407e-20)
(1.06292 -0.00697269 3.49731e-21)
(0.234287 0.0483225 0)
(0.562074 -0.168814 0)
(-0.142534 -0.000900513 0)
(1.04105 -0.0038443 1.23247e-20)
(1.20995 -0.101447 -8.47949e-20)
(1.00318 -0.0265661 -6.60956e-21)
(1.04009 -0.00616382 1.02592e-21)
(-0.0361947 0.01017 1.68276e-20)
(1.00109 -0.00682213 -9.36051e-22)
(-0.0233708 0.0128696 5.64818e-20)
(1.16493 -0.0751749 7.02326e-20)
(0.554091 0.0413075 3.17052e-20)
(1.03901 -0.0418846 -1.7367e-20)
(0.978885 -0.0333852 -2.62678e-20)
(1.16694 0.0318394 9.24449e-20)
(1.14196 -0.0534955 5.88923e-20)
(-0.192995 -0.0214117 0)
(0.523709 0.0783627 -1.01182e-20)
(-0.0856187 -0.0029223 -4.03426e-20)
(1.03241 -0.111227 -1.5027e-20)
(1.17615 -0.026167 9.34584e-21)
(0.999903 -0.00181621 0)
(1.13834 0.00249345 -3.95849e-20)
(0.42062 -0.411489 -8.90022e-20)
(1.1715 -0.113451 0)
(0.0976841 0.0359734 0)
(1.18412 0.034261 1.23933e-20)
(1.2305 0.0272002 0)
(0.867264 -0.235651 1.20178e-19)
(1.15678 -0.0948033 0)
(1.13283 -0.0310626 0)
(1.23367 -0.0969969 5.52116e-20)
(0.181622 0.0498863 4.15253e-20)
(1.07004 -0.0242134 0)
(1.13433 -0.0332331 -5.83413e-21)
(1.23852 0.0484969 -4.10754e-20)
(0.437631 0.00149057 0)
(1.2035 0.0676245 -1.28266e-19)
(0.33729 -0.0769115 1.22948e-19)
(1.0136 -0.00177907 -2.07318e-20)
(1.01651 -0.128618 0)
(-0.151649 -0.00287229 -2.92314e-20)
(0.957314 -0.0748719 -5.27392e-20)
(-0.282265 -0.02275 0)
(1.06279 -0.00616408 1.27021e-20)
(1.24203 -0.199989 -1.89814e-19)
(0.997804 -0.0517012 0)
(1.17542 -0.0469209 1.04368e-20)
(1.06313 -0.0177583 -2.90608e-20)
(0.452372 -0.492471 6.64405e-20)
(-0.00577641 0.0105602 -2.3133e-20)
(1.0031 -0.012586 1.19134e-21)
(0.709793 0.774138 -5.53903e-20)
(1.00347 -0.0133571 -1.96041e-21)
(1.00009 -0.00130807 0)
(1.10577 -0.610929 7.7188e-21)
(-0.194911 -0.0172387 0)
(1.15861 -0.0325948 7.37397e-20)
(-0.174456 -0.00990272 -7.17625e-20)
(1.22283 0.0608185 1.70619e-20)
(0.0395556 -0.0616903 4.71123e-20)
(0.182894 -0.556879 1.65906e-19)
(1.06507 -0.0148086 -4.23381e-20)
(0.967628 -0.0697494 -1.12167e-20)
(1.03752 4.67105e-05 0)
(1.07524 -0.0198275 5.86768e-20)
(1.15836 0.0368749 -3.14475e-20)
(1.07541 -0.0212287 -6.22203e-20)
(1.15474 -0.458308 -1.17989e-19)
(0.566316 0.0527629 -1.04197e-19)
(1.15696 -0.0819919 0)
(1.13562 -0.0500763 0)
(0.985825 -0.0641303 0)
(1.06817 -0.0124003 -1.74157e-20)
(-0.0411715 0.0080422 -1.98766e-20)
(1.01591 -0.00155594 -1.03987e-20)
(1.14731 -0.217921 0)
(1.2058 -0.102358 9.70736e-20)
(1.09151 -0.155182 0)
(-0.201149 -0.0134995 -1.64838e-19)
(0.581403 -0.0308225 7.99134e-20)
(1.19734 0.0540507 -6.95057e-20)
(0.276544 0.0517443 -5.8554e-20)
(1.01041 -0.164886 1.4818e-21)
(-0.276792 -0.0259747 -6.61864e-20)
(1.12313 -0.183978 -4.00443e-20)
(1.03881 -0.00664232 -1.63604e-20)
(1.00275 -0.0258526 6.45926e-21)
(0.981106 -0.0547152 -1.63675e-20)
(1.10797 -0.166474 2.33855e-22)
(1.07662 -0.0687789 0)
(1.18284 -0.0386037 4.44817e-20)
(1.06956 -0.0861396 -2.97551e-20)
(1.02031 -0.13012 -8.176e-22)
(-0.254635 -0.0245598 0)
(1.04182 -0.00417306 -4.09731e-20)
(0.98462 -0.107158 0)
(1.18655 -0.222677 1.21417e-19)
(1.08928 -0.00336712 0)
(1.00141 -0.163041 -8.49921e-23)
(1.23007 -0.0613466 8.99385e-20)
(0.970653 -0.0755083 1.32877e-20)
(0.474122 0.714538 0)
(1.02706 -0.0137111 0)
(0.999755 -0.00236254 -6.86122e-21)
(0.543357 0.0513934 -8.72832e-20)
(0.0578527 0.00651705 2.76833e-20)
(-0.058929 0.00752992 8.98455e-21)
(0.39825 -0.219959 1.28963e-19)
(1.00619 -0.040156 0)
(-0.129332 0.00176121 -1.4075e-20)
(0.843164 -0.0950854 0)
(1.00626 -0.0382238 2.13282e-21)
(0.212725 -0.130445 0)
(1.00444 -0.00128909 3.62455e-21)
(1.00505 -0.0286303 2.32718e-21)
(1.16876 0.0256674 -1.74549e-20)
(1.00375 -0.0206505 -1.11037e-21)
(-0.10377 -0.00418781 -2.93828e-20)
(1.08013 -0.0849279 -8.86067e-21)
(0.280282 -0.581114 -7.28612e-20)
(0.991714 -0.107572 0)
(0.524929 0.0525343 1.45007e-19)
(1.29652 -0.19356 -9.07866e-20)
(1.18735 -0.208848 -3.77657e-20)
(0.976602 -0.161711 0)
(-0.287514 -0.0252176 -1.67116e-20)
(0.768169 0.00720162 1.96178e-19)
(-0.182218 -0.0111166 -3.4146e-20)
(0.997748 -0.0551793 3.06818e-21)
(1.09214 0.0807305 -1.55899e-20)
(0.865547 -0.132026 1.33067e-20)
(-0.141456 -0.0214882 2.42737e-20)
(1.00003 -0.00193932 0)
(-0.0732061 0.00677987 -5.54832e-20)
(-0.273517 -0.0236444 -1.37748e-20)
(1.08059 -0.537748 0)
(0.612021 -0.0403444 5.60158e-20)
(1.00457 -0.0134913 1.30467e-21)
(-0.284776 -0.0200302 7.07889e-20)
(1.12558 0.00423271 0)
(1.16906 0.0277727 0)
(0.492768 -0.469506 1.30918e-21)
(-0.0257614 0.0111365 -5.30131e-22)
(1.03384 -0.0924031 8.55841e-21)
(0.987934 -0.0630825 -9.9047e-21)
(0.358645 -0.00146513 0)
(-0.173452 -0.0119918 -5.60534e-20)
(1.03896 0.477603 0)
(1.01523 -0.0172075 -2.76511e-21)
(1.31448 -0.326334 -1.54205e-19)
(0.0464035 -0.0127324 -1.26764e-19)
(0.0175473 -0.0122023 1.0992e-19)
(1.01132 0.0849288 1.48923e-20)
(1.06786 -0.0879516 4.09871e-20)
(0.341096 -0.394863 1.30668e-19)
(0.662081 0.076049 4.37414e-20)
(-0.033311 0.0121548 -7.62016e-20)
(1.1783 -0.023778 -1.01666e-20)
(0.322087 0.00379125 -7.61732e-21)
(0.847182 -0.0876868 0)
(1.04742 -0.0105516 -8.87383e-21)
(1.00585 -0.165296 -2.38647e-21)
(0.996217 -0.019572 3.91167e-21)
(1.06041 -0.169255 -2.47131e-20)
(1.20089 0.066986 8.21246e-20)
(0.656357 0.0513104 -5.46085e-20)
(0.995487 -0.0173604 6.72211e-21)
(0.95232 -0.0717184 0)
(1.15496 -0.0318164 -1.4334e-20)
(0.35479 -0.0083548 1.32056e-19)
(0.784027 0.0646685 -1.75989e-20)
(0.958192 -0.112123 -2.21528e-20)
(1.28756 -0.0380305 -2.9764e-20)
(-0.106193 0.0047333 -6.10983e-20)
(-0.17787 -0.0134498 0)
(1.09083 -0.0260671 5.00309e-20)
(0.234585 0.0398963 8.22841e-22)
(0.999864 -0.00172397 6.28112e-21)
(1.12179 -0.0249611 0)
(1.16087 -0.0300153 -5.31545e-20)
(0.657675 0.155136 0)
(-0.278713 -0.0247469 0)
(1.01189 -0.00791635 1.1753e-21)
(-0.152769 -0.00626105 0)
(1.22716 0.0387927 0)
(0.0204797 0.00844232 -1.06019e-19)
(0.560475 -0.0481304 2.21387e-20)
(0.948717 -0.290469 6.14644e-21)
(0.190172 0.049904 -5.22273e-20)
(0.942901 -0.206393 4.20414e-21)
(0.138119 -0.128185 1.1121e-19)
(0.999727 -0.00772595 -3.68472e-21)
(1.09077 0.00730069 -1.44346e-20)
(0.859929 -0.126507 -1.52672e-20)
(1.22437 -0.0293589 3.78772e-20)
(1.10076 0.0098291 0)
(0.980707 -0.053215 1.36657e-20)
(1.057 -0.165511 3.01087e-20)
(1.17379 -0.00156764 7.7786e-20)
(0.26877 -0.0732662 -5.13732e-20)
(1.06654 -0.0129762 -1.75459e-22)
(1.03878 -0.0696135 1.11207e-21)
(0.26692 0.0218723 0)
(-0.133318 -0.00444153 0)
(-0.242724 -0.02457 0)
(0.75773 0.0216981 -6.58817e-20)
(1.02807 -0.100887 -2.8298e-21)
(-0.0364967 0.00955395 0)
(1.0782 -0.0869227 9.26434e-21)
(1.01804 -0.0164774 0)
(-0.090156 -0.00467122 -1.58292e-20)
(0.892184 -0.0625817 0)
(-0.159808 -0.0056912 0)
(0.100671 0.0351916 -7.53759e-20)
(-0.15176 -0.00234191 -3.59134e-21)
(1.22301 -0.079853 5.6509e-20)
(0.206925 0.0489418 5.53792e-20)
(1.24502 0.00418149 0)
(0.908494 -0.330353 0)
(0.0291968 -0.0126758 -1.25337e-19)
(1.01345 -0.161761 5.15865e-22)
(0.997313 -0.00933485 0)
(1.01023 -0.0240318 -1.26158e-21)
(0.612303 0.052842 -1.64378e-19)
(0.496039 0.0558262 1.049e-19)
(1.26489 -0.124011 -5.46805e-20)
(-0.279649 -0.0267658 0)
(1.09647 -0.147189 0)
(-0.210669 -0.0269383 1.36898e-19)
(0.494919 -0.124871 -4.10519e-21)
(1.13389 -0.0266897 3.66785e-20)
(0.751614 -0.25174 0)
(0.817747 0.0190774 -7.94272e-20)
(-0.123832 -0.00180267 9.85605e-20)
(0.888397 -0.0665191 -4.16215e-20)
(0.973674 -0.108981 0)
(1.13247 -0.0484421 0)
(1.00022 -0.000326437 -8.54058e-21)
(1.23928 0.021463 -1.52098e-19)
(1.03494 -0.122423 2.08722e-21)
(1.30211 -0.0587346 -1.14491e-19)
(1.10965 -0.156993 3.12217e-20)
(1.00017 -0.00344122 9.94605e-23)
(0.988824 -0.0613699 0)
(0.0163284 -0.0583048 0)
(0.984131 -0.0185931 -2.09776e-20)
(1.03753 -7.6676e-05 -1.90085e-20)
(1.01325 -0.00389995 7.4738e-21)
(1.23659 0.0232032 2.61469e-20)
(1.12642 -0.00868369 0)
(0.900425 -0.178433 -8.74524e-20)
(1.15255 0.0204714 2.81987e-20)
(-0.284119 -0.0259254 -1.41655e-19)
(0.971727 -0.0735167 -2.50078e-20)
(1.02375 -0.00901465 -8.48944e-21)
(1.02328 -0.0546882 -4.45619e-21)
(0.528615 -0.134551 -9.14593e-20)
(1.08319 -0.00791618 -1.50278e-22)
(-0.298358 -0.02791 0)
(0.995272 -0.0123622 -2.42669e-21)
(0.322999 0.0659715 5.91826e-20)
(1.03455 -0.0224758 -2.31266e-20)
(-0.108264 0.00446699 2.64648e-20)
(-0.154665 -0.0101856 -1.74964e-20)
(1.00015 -0.000187789 2.3403e-21)
(0.701005 -0.4412 -1.67044e-19)
(0.457477 0.0768142 9.78586e-20)
(0.918667 0.065579 7.91573e-20)
(-0.0396779 0.00920978 9.84422e-20)
(1.14251 -0.059961 2.29997e-20)
(1.25506 -0.138106 0)
(0.958229 0.0884198 -1.57035e-20)
(-0.14967 -0.00875913 -6.41905e-20)
(1.04104 -0.00499452 1.62057e-20)
(1.1778 -0.0293088 -8.47519e-20)
(1.2984 -0.0660624 0)
(1.03073 -0.0863592 -1.22233e-20)
(0.247806 -0.00363967 -2.60647e-20)
(1.03183 -0.000168005 -1.50848e-20)
(-0.292164 -0.0266862 1.44016e-19)
(-0.164346 -0.00563326 0)
(-0.0915129 -0.00276687 -3.85302e-20)
(1.10234 -0.165678 4.20524e-20)
(0.601313 0.0335349 1.31278e-19)
(0.210836 0.0192265 -1.46688e-19)
(1.06136 -0.0182885 -2.87875e-20)
(-0.300872 -0.0262349 1.33153e-19)
(1.00711 -0.0380699 -2.51524e-22)
(1.08424 -0.00511775 0)
(-0.0742328 0.0083335 -9.32045e-21)
(0.108698 -0.3844 1.1302e-19)
(0.983318 -0.0182872 2.82774e-20)
(1.16596 -0.214129 -3.24435e-20)
(0.876177 0.0930371 6.58343e-20)
(0.972535 -0.104758 1.40283e-20)
(0.00766304 0.00980845 -5.30896e-20)
(0.99466 -0.0342199 1.07158e-20)
(1.23021 0.0365209 0)
(0.997654 -0.00918286 2.4228e-21)
(0.858975 -0.0206922 3.64936e-20)
(0.897188 0.0369246 5.04068e-20)
(0.951736 0.575785 1.6586e-20)
(1.06513 -0.0160372 3.07265e-20)
(1.00008 -0.000173478 -3.92926e-21)
(0.623802 0.0758538 0)
(1.15101 0.0296759 0)