/*--------------------------------*- C++ -*----------------------------------*\
| =========                 |                                                 |
| \\      /  F ield         | OpenFOAM: The Open Source CFD Toolbox           |
|  \\    /   O peration     | Version:  v2012                                 |
|   \\  /    A nd           | Website:  www.openfoam.com                      |
|    \\/     M anipulation  |                                                 |
\*---------------------------------------------------------------------------*/
FoamFile
{
    version     2.0;
    format      ascii;
    class       volScalarField;
    location    "350";
    object      ddt0(omega);
}
// * * * * * * * * * * * * * * * * * * * * * * * * * * * * * * * * * * * * * //

dimensions      [0 0 -2 0 0 0 0];


internalField   nonuniform List<scalar> 
13308
(
-0.00533245
-3.92804
0.0111718
1.93726e-06
0.00131767
-1.65415e-05
-0.00563792
0.000465343
-0.00975324
-0.286521
-0.568509
0.668572
-1.22104e-05
-3.33735e-05
-9.29041e-06
0.370665
-0.00428253
-3.71934
0.836579
0.381141
-0.000943998
0.576346
0.190761
-0.00119647
0.362615
-0.358117
0.00120478
-0.517668
0.00515866
-0.00435719
-1.64589
-0.00624463
0.0357646
-0.00177695
0.220775
-0.00108416
-0.00871361
0.187899
-0.000424519
0.125853
4.94459e-06
0.000173595
0.384849
-4.27195e-06
0.0017371
-0.0436341
-7.18023e-06
2.10205e-06
-0.00211206
-0.429309
-0.000585872
-8.79555e-05
0.125304
-0.249342
-1.18285
-0.497504
-4.16584e-06
0.000191156
-0.00034847
-0.00120737
-0.0551643
0.111772
0.000200855
-7.99887e-07
-3.01704e-05
0.0547168
-2.59752e-05
-0.0933427
-9.09475e-06
-0.0148582
0.708165
0.00124573
0.00484385
-0.0160124
0.0975688
-0.000259174
-1.65034e-05
-0.360041
-2.85648e-06
-0.0784993
0.000428509
-2.45534e-05
-0.000206258
-0.001044
0.0614768
-0.000723241
-4.26706
-0.039377
0.0639439
-0.0516964
0.000343604
1.07537e-05
-0.00860443
-0.00115444
0.000248514
0.000273538
-0.000922441
-0.0679489
0.527078
-0.00857788
0.000301062
-1.67487e-06
9.32685e-05
-0.00133631
-0.514072
-3.1906
0.0803998
-5.10315e-06
-0.160665
-0.361727
-0.000731751
0.00813749
0.000156894
-1.85166e-05
0.00110208
0.731809
-0.0884924
0.0249154
-0.00555592
-0.000156652
-0.00181223
-0.00103456
6.10565e-05
0.0139426
0.040071
-0.0189103
0.227615
-0.0344839
0.00294756
-0.702398
0.662815
-9.0069e-06
1.3188e-06
0.000757818
-0.00232182
0.00361321
-1.53984e-05
0.0412237
0.00962149
-0.0025195
-0.364457
0.000995873
4.96127e-06
-0.000373835
-0.00241741
-0.000262186
-0.0688539
-0.0565349
2.96442e-05
0.00112828
-4.51045
-2.1159e-05
1.15363
0.430616
0.173111
0.0978804
1.17801e-05
-7.44697e-06
8.24987e-06
-0.0760809
0.0914836
0.000201014
5.95124e-06
0.157607
0.170321
-0.00133063
0.556952
3.6956e-06
-0.0782852
-0.00358107
0.00471167
-0.0208213
-6.35606e-05
-0.983729
-1.65077
0.360105
0.759692
-0.240993
0.00852527
-3.00142e-05
0.129923
-0.140228
1.16995e-05
0.283533
0.304326
-2.06703e-05
-0.508601
-0.758878
-0.0125044
-0.257182
-0.46427
0.496976
-0.00270462
0.762158
0.00210673
0.228212
0.00408596
-0.0456225
0.00795529
0.00100345
0.465733
-0.0196423
0.0266469
-0.00574774
-0.326815
-0.016511
-0.0649145
0.089122
-0.0800576
-0.661612
0.03673
-0.0100903
-0.00469366
-0.388268
0.0556772
-0.00144431
2.95823e-05
-0.0492331
-0.0744
0.0908995
-0.358482
3.26275e-05
0.164424
6.81414e-06
-0.00139659
0.340354
-0.00399364
-0.435818
-0.408096
-0.0178337
-0.690015
-0.0011771
-0.20886
0.129007
-0.0234152
-7.27693e-05
-0.443992
0.00156567
0.165324
-0.00170666
-0.00123584
-0.0321768
-0.000945268
-9.27506e-06
-0.0105421
0.211487
-0.00025836
-0.109322
7.12449e-06
0.303744
0.0972545
-0.0139307
3.14003e-07
0.0922632
-0.0207968
-0.00155514
0.573861
1.41689e-05
0.178629
-0.4658
0.00149166
-0.0347558
-0.00372289
0.000267965
0.187246
-0.000679712
0.299444
4.63178e-06
-0.266495
0.371039
-0.0481561
-0.00299856
-3.64681e-07
0.0359928
-6.8604e-07
-3.56789e-05
0.00075441
-0.0430863
-0.000307499
-0.00116921
0.102361
-1.56084e-05
0.18406
-0.0018956
-0.294978
-1.44233
0.00025066
-0.0118139
-0.100934
-0.372375
-0.0103445
2.13622e-05
0.0813745
-0.0117935
-8.55639e-05
0.118451
0.000647426
0.00286238
-0.0135096
0.325849
-0.00581301
0.00190598
-0.356845
0.271026
0.431657
-0.000226696
-0.0103234
-0.920624
-0.123644
-2.4191e-05
0.0782021
1.02636
-0.0117649
-0.167681
0.168625
-1.71554
8.6132e-06
-7.75551e-05
-2.74288e-05
0.0226837
-1.64412e-05
-2.22847e-05
-0.967809
-1.10354e-05
0.886336
-0.000494852
-0.00141749
9.10019e-05
0.00207272
-0.000805976
-0.122036
8.05535e-05
0.0336142
3.04667e-05
6.21663e-06
-0.0671531
0.43139
2.50881e-05
0.000148196
-0.0888606
0.000276927
9.40279e-05
-5.10426e-06
-0.00576236
-0.0422417
-0.267783
-0.044669
0.015732
-7.34066e-06
-0.00128799
-0.00414397
1.09264
-0.0354493
1.80979e-05
-0.0055453
-0.00025703
-0.812893
-0.000750139
0.00565585
-0.0187818
0.695367
-0.00827355
-0.00442585
-0.049301
0.0683591
-0.0407259
-1.67034e-05
4.3818e-07
-0.000137031
0.00146189
0.490362
4.46929
-0.0266383
-0.000400432
-0.000334221
0.0103832
0.164381
-0.071833
0.00038044
-0.0208796
0.000792548
4.38033e-05
-0.00720224
-0.00375297
-3.05356e-05
0.0913989
0.0109479
-0.00109253
-2.59563e-05
-0.396748
-0.00117458
-0.0435384
-0.00107653
0.437592
0.0270565
-0.0071496
-0.00560939
1.83366e-05
-0.0531053
-0.000271817
-0.0248542
-4.9048e-05
-0.0104761
-0.0911588
1.70314e-05
0.186521
5.39919e-06
5.74748e-05
0.552337
-0.367802
0.000985455
-0.00169592
-0.506795
1.5424e-05
-3.53788e-07
0.199924
-0.000148764
2.00244e-06
-0.000404969
0.00609245
-0.0926947
-0.000310377
9.20241e-05
0.000536465
0.0018955
0.193015
-0.0624864
0.00165229
-0.261722
-0.0177325
-1.46931
2.39066e-05
-0.0024904
0.227595
0.000151002
-1.46959e-05
0.200877
-1.67768e-06
-0.00634696
-0.0491624
-0.142165
0.96189
-0.345111
-0.000161375
1.03078
0.00095437
0.048158
0.197959
-7.194e-06
0.277887
-0.00350521
0.302149
-0.290239
-0.00427755
-0.00106915
-0.00367
-0.000759411
-0.769463
0.167846
-0.00592733
-0.0335575
-0.163255
6.98108e-05
0.674089
-0.000237783
-0.563637
3.07865e-05
0.000190779
-4.79713e-05
0.425453
-0.185201
3.449e-06
0.17466
0.000139433
-0.754173
-0.0643573
0.0338436
-0.00425133
0.026799
8.24477e-06
0.00150735
-1.18488e-05
0.00970098
0.000164596
-0.00820911
0.000783179
-0.00165056
0.0350132
-0.00320675
-3.2443e-06
2.87731e-06
-0.00919666
0.0465565
-1.44084e-05
1.82689e-05
0.000389122
-8.26802e-06
-0.134419
0.75275
0.219496
0.183208
-0.340881
0.149247
-0.0737353
-0.000236949
0.000215258
-0.00623672
-0.404143
2.71083e-05
-0.00199971
0.0121365
-0.00111924
-0.000331795
-0.000119694
-0.00109558
0.00939271
-0.00809091
-3.9296e-05
-0.00533939
-0.110936
0.316465
-0.078273
0.280508
-0.0359609
-3.42279e-06
0.0847244
1.34645e-05
-1.47942e-05
0.0294838
-0.0133527
-0.00521664
0.00787243
0.187552
0.115976
-2.15799e-05
-0.111443
-0.0148248
-0.81519
-1.7845e-05
0.0791175
-3.1624e-05
-0.00806279
-1.4614e-07
-0.280873
0.000600159
0.361806
0.722008
0.0915148
-7.04463e-06
0.000178279
0.169585
0.223955
0.883228
0.369941
-0.330524
0.023133
1.02049
-0.111149
0.302201
1.057
0.00105581
-2.16501e-06
0.000201136
0.0961382
-6.115e-05
0.0604247
0.301511
-3.7674e-05
0.251014
0.259687
0.750463
-1.79602e-05
-8.97829e-05
-1.07405e-05
0.0935558
-0.00360422
1.91417e-05
-2.32205e-06
0.382358
9.17817e-05
0.391278
0.103496
6.52984e-05
-0.00416022
2.51628e-06
-3.32779e-05
3.7231e-05
-0.00139718
-0.000735032
1.28084e-05
-0.262709
1.51768e-05
-0.000425067
7.32723e-06
2.80516e-05
-0.378785
-0.118853
1.64344e-05
-0.561074
0.00135313
-2.62444e-05
2.92084e-06
0.0027554
0.000636876
-0.00117479
-0.00502469
2.69189e-05
-0.0267395
0.000682118
-1.68219
-0.740292
-0.00261298
0.00229245
-5.73133e-06
0.163627
0.0708559
-0.00725836
-6.37941e-06
-0.0044951
-0.0854287
-0.00639383
2.69297e-05
-0.00725159
-0.057306
0.0900015
-0.607223
7.56683e-05
2.6728e-05
-0.0102374
-0.390557
-0.00336898
1.10268
-0.0361375
-0.351722
0.443177
0.032561
-0.00174768
0.00106845
-1.5607
-0.0147613
0.000443087
-5.8263e-05
0.17995
0.0843893
0.00896075
-0.0110438
0.000535256
-0.000135943
6.36089e-06
-0.0158579
0.306368
8.30918e-05
0.115948
-0.00019885
0.473968
-6.98857e-06
-2.07166e-05
0.134928
-0.0444972
-0.0049612
0.0320868
-0.790939
-0.00141195
-0.148706
-0.00287173
0.0781939
-0.605626
1.89365e-06
0.127451
-0.191703
0.13832
4.0891e-05
-0.0592207
-5.0472e-06
4.20035e-06
-0.282144
0.0712359
-0.0394682
0.475203
-0.22227
-0.00185198
-0.00355069
-0.00156572
4.63739e-06
0.00217337
-1.14926e-06
-0.37357
-0.211633
0.007413
0.298329
2.39767e-05
0.477518
-0.00324933
-0.0284385
-0.017846
-1.70044e-06
1.17585e-05
0.000163418
1.76865e-05
0.225388
6.69007e-05
0.974912
-0.0272721
-0.0139568
-0.00101552
0.000191217
1.35924
-0.0436458
0.210559
-4.35269e-05
6.49979e-05
-1.449e-05
0.173621
4.21284e-05
-0.000937006
-0.001558
5.70644e-05
-2.48427e-05
2.35283e-06
1.51028e-05
-0.000366375
-0.00117857
-0.0428963
0.169658
-0.00990748
-1.52468e-05
0.00327739
-0.697157
0.00751412
0.0507695
0.00115775
0.000239309
0.00138499
0.000177732
-0.37293
-0.00161223
0.256702
-0.214529
-0.0204935
-0.00138823
-4.89659e-07
0.757136
0.000165765
0.128838
-9.82779e-06
0.00021897
0.300157
-0.000207887
-1.14433e-05
-0.00700048
-0.0144435
0.0904575
-0.359812
-0.0414839
0.129316
6.26155e-06
1.37117e-05
0.000171079
0.12769
-0.000875381
-0.000127823
-5.04911e-05
-0.136266
-0.338209
-0.000117715
-1.50848e-05
0.029198
0.11562
0.00253323
9.74238e-05
-1.37248e-05
5.23909e-05
3.46507e-05
0.00156174
-1.1871e-05
0.000170002
-0.000227576
0.0975963
-1.33771e-05
-0.00635498
-0.0227502
0.910646
0.00692066
-4.3621e-05
-4.04599e-05
0.0602221
-0.00842253
0.128133
-0.0622761
0.368766
0.2074
0.000130373
-0.408411
-0.000175478
0.478487
2.80282e-05
-0.0561145
-3.88769e-06
-0.00140758
-0.0858034
0.095815
-1.09558e-05
8.80777e-06
0.00236277
-1.38243e-06
0.382031
0.464773
-0.0469036
-0.000109783
-0.000105137
-0.283038
-0.000727627
-4.59308e-06
-0.00462498
1.07282
0.247774
0.0992292
-0.691518
0.00149493
-0.0318842
-0.0303183
7.79178e-06
-0.000454803
0.315497
0.000762459
0.000283887
-0.028577
0.20706
-5.67233e-06
-0.141253
8.69897e-06
-0.00312567
-0.0237543
0.044379
0.0140862
0.00317498
2.12317e-06
-0.00311265
-0.00203769
-0.0555379
0.457926
-3.05496e-05
-1.17867
-0.513198
0.0011061
-1.2888e-05
0.000196839
0.152065
-0.000183682
0.000785264
0.0278506
-0.233341
0.000102437
-0.0147394
0.464773
-0.186113
0.0971343
-0.00364048
0.000185257
1.00179e-05
0.000300095
-0.00147267
-0.345565
0.102607
-0.00228198
-0.0738624
0.211632
-0.289869
-0.312437
-3.66199e-07
-0.968621
-0.00104977
-0.132425
-0.00422031
-0.000197874
-0.00781509
-0.000493156
-0.0926473
0.616611
-0.00712472
0.492974
0.271844
0.367338
0.199023
0.00294734
0.00120361
0.000112801
-0.123847
4.9822e-06
0.0120747
-5.65351e-05
5.3929e-06
-1.59595e-05
-0.000753636
-0.33614
5.98645e-06
-0.0142103
0.00680423
0.130335
-0.00205128
-2.37142e-05
0.20598
-0.000175135
-0.000227825
0.14223
-1.34852e-05
3.54773e-05
-0.00890613
-0.00312713
8.27783e-07
0.0316207
0.0895731
-0.218861
0.130745
2.41805e-06
-7.36387e-05
-0.00303093
0.0200542
-0.162686
8.28248e-06
-0.0182613
-0.000184922
0.000851902
1.24379
-1.74991e-05
6.3421e-06
-0.00246593
-3.53297e-05
-1.54021e-05
-0.000280838
0.0020928
-0.044697
-4.72788e-05
0.00413242
0.185376
0.00273813
0.000778234
0.000189021
-8.14276e-06
0.000326107
0.00139625
-0.0107058
0.418152
0.152741
-0.00948381
-6.70041e-05
-0.00130006
-0.72449
0.000469971
0.000820829
0.000131483
-0.316882
0.0154994
-0.000266089
-4.6386
0.0325863
-3.28342e-06
0.000363001
1.18321e-05
0.00921334
0.0520187
-0.0105738
-0.00189243
-0.0566972
0.00321708
0.000342284
-0.00270893
-0.000233069
0.583526
-0.000210865
-0.00105401
-0.000420587
-0.000392993
-0.00477501
-1.66897e-05
-3.94849e-06
-0.340131
1.75024e-05
0.0802288
-0.00180701
0.00156082
-0.0238697
0.729238
-9.93323e-05
-1.75318e-05
-0.00581161
-0.336138
0.000239723
-1.3167e-05
-0.583176
-0.0371843
-0.00456514
0.00798958
-0.33776
-1.42127e-05
-4.87677e-05
0.142282
0.148228
-0.601389
0.000511879
0.00660937
9.07998e-06
-0.0041332
-2.15978
-0.00116681
2.72873e-06
0.00640488
-0.99924
-0.000111301
2.7979e-05
0.00190695
0.00140932
-0.114202
-1.66844e-05
-0.145532
-0.000560002
0.109793
0.702492
-0.000268135
0.0857585
0.00143298
0.334775
-0.104129
0.0351338
-3.9761e-06
0.436032
0.00387564
-0.010054
-0.00209563
0.00143429
-0.0844675
-0.000161534
0.000137816
1.45646e-06
-0.00585835
0.0623303
-0.0718502
0.777652
-0.00931407
0.281619
0.000176386
0.487496
7.07383e-05
-3.45275e-06
9.63818e-05
0.000306884
0.0055193
0.647828
-1.91887e-05
0.107091
0.0239119
0.195481
0.318437
0.408751
8.33371e-05
-1.19999e-06
-0.00623405
-7.56291e-06
8.88256e-05
-1.87665e-05
0.778473
0.00174318
-0.253895
-0.028493
0.00342525
0.025379
6.98507e-06
-0.32196
-0.000327039
-0.00517052
-0.149473
-0.322491
-0.000814825
-0.109662
0.0264292
-0.667962
-0.101754
0.000109857
0.741378
-0.00165204
-0.0202598
0.00102898
5.17024e-06
8.55507e-05
0.399772
-0.0146794
-4.11848
0.652359
0.48439
0.86543
-9.40468e-06
-1.31534
0.00381339
-0.000881068
-0.511767
-0.770927
-1.74099e-05
0.147657
-0.00888249
5.70269e-06
0.264785
-1.91251e-06
-2.47946e-05
-0.346801
-0.000306693
-0.00389821
0.339284
-0.00986007
-0.201627
1.89994e-05
3.28355e-06
0.00199366
0.106345
0.00137937
-0.00013059
-0.00702283
5.95296e-05
-2.66818e-05
-0.00285236
0.0221133
-1.58217e-05
0.13056
-0.000265667
-0.01745
0.233135
0.00139698
0.196535
-7.40358e-06
0.00145783
-0.214517
2.0072e-05
-0.00503967
0.632808
-0.84797
0.608649
0.00171027
0.0248092
-0.00166109
-0.0274633
0.00303984
0.000221887
-0.0336871
-0.0236855
-3.95883
0.820252
-2.69256e-05
-0.0137241
-0.00860182
-2.9428e-05
-0.00263525
-0.0138776
4.27291e-06
-9.8821e-08
-0.000265084
0.000910812
9.13654e-06
8.08191e-06
8.18141e-05
0.00116901
0.148608
-0.00181795
2.55935e-05
-0.150512
0.00171886
-0.175409
0.0126701
0.112546
-4.97136e-06
0.135124
9.09316e-05
1.29422
0.00437436
-0.0169686
-0.0337008
0.19303
0.206207
7.90149e-05
0.00020828
-7.96751e-05
-0.00066948
0.00319303
-0.115347
-2.60702e-05
0.0209434
-0.0333327
0.117013
-0.00688256
-0.453866
-0.806118
-0.00791823
-0.000298856
0.000338364
-0.0498552
-0.000300628
-0.00611968
0.25847
-0.00189657
0.000119023
2.53379e-06
1.03069e-05
-0.017964
0.0943041
-0.105181
0.00220419
0.00180357
-2.21304e-06
1.722e-06
-0.000105207
-0.12118
0.00108125
-2.42209e-05
-0.000212907
-0.080049
-0.391666
1.41289e-05
-2.0623e-05
0.000547005
0.00205768
0.00010181
-0.000563178
-0.000949409
0.238933
-0.194367
0.485508
0.0050258
0.0169734
-0.00525572
0.309073
0.00357225
-0.46997
1.7857e-05
2.54621
0.21896
0.216371
-0.00014139
-0.111774
-0.0011338
-0.0519954
-0.398299
-0.0193882
0.456647
0.350364
0.00489847
-0.00357249
0.193003
0.0872312
0.345442
-0.00414114
-0.690888
0.198707
0.702366
-0.197128
-0.623625
0.000168841
0.289076
-0.0015703
-0.549586
0.000432925
-0.0112157
0.24032
0.0106124
0.120506
-0.00337964
0.0136517
-0.00128442
-0.0470643
0.381387
0.000361482
-0.00218207
0.457341
-0.000248986
-0.0380122
-6.88019e-05
0.0241855
0.000538121
-0.000192583
-0.809249
0.194385
6.86882e-05
0.203127
0.0858195
-2.20151e-05
0.550996
-0.183995
-0.623614
-0.0918693
0.000142572
0.000182978
0.0390685
5.99116e-05
0.168105
-0.277149
0.129061
-0.0529086
-0.00136023
0.000165115
0.000372533
-2.20677
0.0220027
-0.481776
-0.00245359
5.84663e-05
-1.13712
-0.0228397
-0.00217895
0.347117
1.40402e-05
0.0364372
5.05824e-05
-0.000641091
0.00177225
2.9829e-05
0.000752089
0.0108697
0.036349
0.390911
-2.17891e-05
-2.398e-05
1.55148
-0.0494445
0.013575
0.000628444
0.330242
-8.46861e-06
0.508042
0.310614
0.133702
5.84601e-05
-3.2598e-06
-0.306138
-0.154215
-0.00290648
-1.6563e-05
0.0114496
9.05879e-07
0.0140462
-0.716449
2.21362e-05
-0.0501825
0.000112665
-0.00125944
0.00851895
6.31748e-05
-0.00126788
0.60943
-8.82384e-06
0.0889683
4.4294e-05
-5.65818e-05
-0.0144224
-0.000584969
-0.00797606
-0.0799329
0.000194442
-0.137721
0.014353
2.23412e-05
0.18535
0.19533
8.00053e-05
1.3894
-0.0788617
3.72966
0.000373166
0.694274
8.73853e-06
6.07282e-06
0.0123349
-0.0486042
0.0599958
-1.62868e-05
-0.0200046
-2.98411e-05
-0.00609167
4.88127e-05
-0.405873
-0.220072
-1.70811
-0.000300471
0.00445384
-0.00264356
-0.864621
0.216544
2.2754e-05
-0.984854
0.000342349
1.77064e-05
4.04278e-05
-0.00542931
0.00117837
-0.00538271
1.07107
7.1524e-06
-0.00753177
-0.0512825
-0.0175791
-0.00831757
0.000260685
-0.000197048
0.03398
-0.114298
6.76318e-05
-7.54048e-05
0.042494
-0.00969719
-0.169358
-0.468998
-0.114443
2.33841e-05
-0.221894
0.284672
-0.00140289
-6.0888e-06
0.519956
0.00764238
-6.37767e-05
-0.00179443
0.308263
0.00681614
9.87459e-07
-0.0378429
0.00100676
-2.01653e-05
0.231552
0.0354165
0.219728
0.14059
-0.00799848
-0.067336
-0.390436
0.000593664
0.0199716
-0.00124507
-0.0159462
-0.00125591
2.94476e-05
0.000245817
0.135761
4.42317e-05
0.161822
-0.00359936
-0.00889074
-0.170098
6.50762e-05
1.15444
-0.00044828
0.11835
-0.392573
0.024167
0.002998
-9.1238e-06
0.173728
-9.9174e-07
0.193956
-2.14215
-0.000873479
-0.0600651
-5.78478e-06
-1.15977
-7.7149e-05
-0.00425791
0.0013087
-0.149545
4.41287e-06
2.58553
1.70189e-05
0.227005
0.000906811
0.121536
-0.00403859
0.00558263
-0.00142623
0.0069593
0.001986
-0.283397
1.53371e-05
0.599124
-0.0159834
3.04421e-06
0.0213018
-9.44165e-06
0.000321977
0.0747981
-0.292108
0.0602018
-5.02544e-05
-0.432524
0.145742
-0.364892
-0.000376691
-4.97854e-06
0.297657
-0.257495
-0.00363607
0.016476
0.000922469
0.248284
0.000737221
2.49893e-05
0.0502477
0.217666
-0.0052856
-0.00391904
5.52226e-06
-0.00402297
-0.000681811
-0.00096683
-0.0217854
-0.0503913
0.00729126
-1.91964e-05
-0.11179
-0.000239634
-0.0160189
-7.95267e-05
-1.10736
-0.0191939
-0.0729689
-0.00149687
-2.39047e-05
-3.06362e-06
0.217224
0.2674
-0.0887863
-0.0089365
0.0205544
-0.00375879
0.127539
-0.00322741
-0.00935809
0.000119798
-8.33941e-05
-6.84379e-05
-0.910984
3.04171e-05
0.00238167
0.329262
0.446357
0.111269
-0.0432246
8.70498e-06
-1.77394
0.00485294
-0.115712
1.43641e-05
0.0291983
-1.00349e-05
-0.000717911
0.129033
0.0261898
0.000305962
5.37831e-07
3.901e-05
0.0102497
-0.00351604
-0.399271
-0.00511223
0.0536601
-1.17707
0.186399
0.391699
-0.000104315
-0.785576
0.41581
0.00754231
-0.000884739
-0.0020209
1.74387e-05
0.000212739
4.81895e-06
1.72827e-05
0.000439861
-0.000196868
-5.82503e-06
-0.242011
0.248413
-0.463277
-0.000208609
0.000150837
0.100137
-5.86767e-06
0.354749
3.49066e-06
0.00258823
0.261703
0.4351
-0.000971485
-0.0339936
-0.0519211
-0.0222275
0.027669
-0.0038881
0.490834
0.178196
-0.0623516
0.000779544
-0.0391845
0.000669668
-6.90436e-05
-0.00444856
-2.06963e-06
0.00148778
-0.00015991
-0.126575
0.000760501
-2.23114e-05
0.254939
-5.5223e-06
-0.00232806
-0.367722
-2.44163e-05
-0.0866488
-5.66891e-05
-2.1892e-05
0.000703643
0.0117607
3.21175e-06
0.572555
-0.038374
5.18544e-05
-0.00182815
0.000586358
0.212072
0.764248
-0.000129956
-3.68288e-06
-8.385e-05
6.33302e-05
-4.9861e-05
8.96064e-05
-1.81938e-05
-0.007243
4.99918e-06
0.347915
-0.0651948
-0.0092492
-0.000207345
-0.00019026
2.5294e-06
-0.00736255
0.0377145
0.218729
0.0227489
8.7357e-06
0.326346
0.201819
0.000152829
-0.352446
-0.239171
9.39808e-05
5.76724e-05
0.620022
0.000841018
4.95909e-05
-0.00805335
-0.0153431
0.391489
0.00836682
0.308754
4.34761e-06
-3.68361
-0.66914
0.0011364
-4.29719e-05
0.00205192
-6.69297e-05
0.00411194
2.59214
2.06004e-06
-0.180834
1.02133
0.808882
-0.00115991
-0.00021454
0.412786
-0.000268757
0.266292
0.279309
1.18484e-06
-0.000148023
0.848966
5.22938e-06
0.331089
0.000122161
-0.542969
0.291012
-0.0604796
1.63228e-05
-0.340855
0.0675473
-0.113212
0.00286454
-0.468539
0.0526621
0.431754
0.0828278
0.00937752
0.0886781
0.155706
-0.00803015
0.656633
-0.802497
-0.308377
-0.957183
0.117101
0.467188
-0.502341
-2.79848e-06
-0.643331
0.261818
-0.169641
-0.00862735
-7.98432e-06
0.302016
0.00146651
0.380084
-0.380567
0.680915
-0.558112
0.109275
4.19294e-06
5.57279e-05
0.305976
0.214168
0.537337
-0.000261551
0.181108
0.000320086
-0.11449
-0.0119725
0.0713807
0.014288
7.3157e-05
0.0252437
3.45642e-05
1.11617
-0.00104424
0.000210439
0.152386
-2.07257e-06
-0.052617
-0.118809
0.325216
-0.173932
0.000141137
-5.32724e-05
-0.114871
-0.0089492
-4.13665e-05
-0.040451
0.17467
-0.00126445
-0.111144
3.04764e-05
6.34195e-05
1.76829e-05
-0.00397044
5.01801e-05
0.247804
0.000276906
-1.80793e-05
-0.0435343
-0.408432
-1.68129e-05
0.110129
-0.744248
0.443481
0.21347
-0.00048357
0.387763
-1.55344e-05
0.000217312
0.283191
-0.000228413
0.207867
3.50986e-05
0.242749
-0.00305715
0.135113
-0.0168334
0.0909292
-0.00535485
-0.128287
0.0778881
-0.00870807
-0.00807599
0.315423
-1.86816e-06
0.474833
0.271426
-0.157463
-0.000918184
3.89577e-06
-2.88923e-05
0.0383119
0.0133135
0.000259632
0.207314
0.186964
0.0496545
-0.0107588
-0.00913009
0.00568112
0.0161957
-6.57508e-05
-0.239019
0.275529
0.000977769
0.676835
4.67798e-05
0.000195668
0.00128492
-0.150465
0.161665
4.58968e-05
-0.000155317
-5.31804e-05
-0.0215487
0.960097
-0.0387329
0.26979
0.0639566
-1.3831
0.000599037
0.00493178
-0.272682
0.0125913
1.84351e-05
-1.65484e-05
-0.00223964
-9.86313e-06
0.381523
0.00320047
0.191289
1.98088e-05
0.000198517
1.09779e-05
0.0394336
-0.0192539
-0.949912
-0.220628
-0.0142847
-0.00597029
-0.00211524
-7.21719e-06
-0.000236285
-0.0120512
7.71323
5.24317e-05
-0.0121996
-0.00435352
0.15466
-0.0633204
0.33212
-0.0186365
0.00174135
-0.0445039
0.000149737
0.424677
-0.192082
0.000305658
-0.360605
0.111558
0.00399499
-0.154653
0.344472
-0.227792
0.000379819
0.534576
4.14104e-05
3.00331e-05
0.598837
0.0336111
-0.183491
0.00397451
0.316845
0.199755
0.391503
0.241847
-3.44279e-05
0.157153
-0.00539016
0.0206245
0.526261
-1.31539e-05
-1.34506
0.0075684
-0.869194
0.0128432
-0.231884
-2.04531e-05
-0.00227062
-0.138353
0.0961049
-0.0545102
0.0749148
0.335146
-0.000109823
-0.284063
0.0301772
8.91008e-05
-9.58726e-06
0.473993
-0.0165907
-0.402517
-0.0015734
-0.00270936
-0.37575
-1.57658e-05
0.0555067
8.31743e-06
0.187152
0.000565619
4.60062e-05
-0.159886
0.000276181
0.989779
2.34518e-06
-2.44489e-05
0.574812
3.90542e-05
-0.000816452
1.22811e-05
-0.508083
-0.0486971
0.00205477
-0.131834
0.245918
0.469129
-0.00516147
4.75741e-05
-0.0445366
-0.00244886
0.00562387
0.00020207
-0.00538142
0.00580159
-0.00194678
-0.000947993
0.00270555
-0.00112016
-0.00127891
0.363399
-0.433131
-0.000598712
2.32783
-0.00419043
0.344658
-1.14609
2.74228e-06
-8.09199e-05
-5.05776e-06
0.987717
10.2589
-0.261902
1.5774
0.686867
0.483138
0.0122477
-0.0529077
2.85239e-06
0.222003
0.168304
2.24712e-05
0.346974
-0.00950917
-0.000286958
0.1613
0.496622
-0.0120586
0.109643
-0.00272025
-0.00537206
-2.85883
0.0629637
-0.0283733
-0.916852
-0.0125908
0.460095
2.06685
0.147151
0.0162278
0.316966
0.645886
-6.89286e-05
0.184784
-0.00159278
-0.000306364
0.0921177
1.52217e-05
2.09946e-05
0.201516
-2.76285e-05
0.000259518
0.020611
0.000228206
8.69984e-06
-0.313417
0.420167
-0.0395052
0.000635646
-0.737906
-0.000206962
-0.00335981
0.280664
0.477698
-0.257424
5.48293e-05
-1.3298
0.00013147
0.0872254
0.001604
0.000197025
-0.000649925
0.122149
8.41072e-05
-0.00391884
0.242536
0.000228839
-0.412398
-0.682788
0.431118
0.0103489
-3.52074e-06
0.0234821
-0.838731
-0.167978
5.34851e-05
-0.259274
-0.341286
0.0400683
-0.0307199
-0.00634696
0.214398
0.0989087
0.0200604
0.0270579
0.529614
4.36808e-05
-1.40852
2.62857e-06
0.0109766
-9.5874e-05
-0.124319
0.101723
0.373478
0.0281961
-0.000169175
0.00125274
0.0140665
0.00028834
0.226748
0.000856722
0.15086
0.0101775
-1.01968
-1.12177
-0.185405
0.056416
0.00341237
0.21705
0.000107036
-0.0430352
-0.000594978
0.0237871
0.02531
0.000956992
0.122589
-0.410699
-0.23134
-0.0526354
0.493613
-0.0815402
0.741483
0.13737
-0.000136324
0.000263249
-0.033628
-3.87108e-05
0.000460154
-0.103392
0.0925242
0.315574
-5.14832e-06
-0.112726
0.000837357
0.00573473
0.131385
-0.846542
-2.60278e-06
0.253694
-0.00999895
-1.50365
-0.00146695
0.233663
0.960292
-0.0574198
0.234375
-0.000124074
-0.0545408
0.22646
0.179843
-5.06208
-2.17555
0.188473
-0.0127509
-0.394465
0.000499429
-0.179298
-0.00339681
-0.0258421
4.71198e-05
0.319208
0.323597
0.00114739
-1.89552e-05
-0.0324692
0.000543297
0.000289159
-1.48644
-1.5871
2.72875e-05
-0.336483
0.0774572
-5.87565
0.709693
0.0126548
0.0215809
0.107888
0.434516
0.023233
0.000373176
0.299097
0.322661
0.000764121
-0.212016
0.014983
-0.0858579
-0.0773741
-0.00700294
0.000378095
7.71806e-05
-1.40113
0.571133
-0.00366373
-0.339654
-2.43087
-0.363137
0.193203
-0.0289111
0.0123835
-0.876336
-0.00237653
-0.394681
-4.91238e-06
0.252588
-5.71295e-06
0.320122
5.23618e-06
0.175318
-0.127065
6.72847e-08
0.302409
-0.0193245
0.0399848
-0.126611
-0.00554466
0.0683766
-3.33963
4.53358e-06
-0.124442
5.20677
-7.93894e-05
-1.39463
0.000102166
-0.370235
7.46589e-05
-0.000120971
-3.19753e-05
-0.67706
0.283134
0.221532
0.52798
0.0145924
-0.118364
0.18883
2.70433e-05
-0.000247827
-0.589613
-0.193015
0.000611661
0.374515
0.746128
0.202963
0.294657
0.0240578
-0.197975
-0.00385692
-0.0960854
-0.000414277
0.0187662
0.000297735
-0.00031052
0.47018
0.0794707
0.126258
0.0992203
-4.15517e-05
-2.0276e-05
-4.83892e-05
-0.000103286
0.187614
0.711504
2.14093e-05
0.0103484
-0.0693811
-0.00203564
-0.00988963
0.278927
-3.28312e-05
-0.0106785
-0.000185013
0.155507
0.00109193
0.00170902
2.20905e-05
-0.000405789
0.00364774
-1.18328e-05
0.0225774
-1.50946
-0.196124
-0.00216494
-0.00407143
-0.306975
0.18879
-0.553665
0.000950893
-0.238092
-0.0430304
8.38026e-06
-0.0455287
0.147297
0.223595
0.0169106
-0.00653538
0.251987
0.436053
0.000503659
-0.0106727
-0.39705
0.384922
-0.106767
-0.0151116
-0.164247
0.124088
-0.00857058
0.216421
-8.36616e-05
0.0700047
0.333947
0.0595791
0.773457
0.163594
3.67691e-05
1.14812
-0.00125271
8.09173e-06
-0.017584
-0.00335741
-0.000382671
0.000242505
-0.0183102
0.307869
0.382657
0.374518
0.400671
-0.115918
-0.00672843
0.332594
-0.214146
-4.30229e-05
0.293543
-0.000993605
1.21721
7.02998
0.227127
0.0331452
0.580156
0.232124
-1.05072
-0.00529743
-0.394936
-0.711465
0.334234
0.0202543
0.195225
-0.0106052
0.333063
-0.617773
-0.290009
0.302194
0.0139735
-0.0137762
0.182351
-0.00205579
-0.174484
3.61108e-05
-0.164402
-0.425723
0.315412
0.0033835
0.000133276
0.0192542
0.338457
0.0196942
1.31523
-0.000770342
1.40794e-05
0.219237
7.08729e-05
-9.06305e-06
-0.190863
-0.00303097
-0.00427027
0.434809
-2.18006
0.289323
-2.09413e-05
0.302688
-2.5598
-2.75989e-06
-0.142936
-0.000127907
0.000175396
0.00310785
-0.000486288
0.00263667
-0.000669429
0.54113
0.0113289
0.323946
1.21675
-0.206705
0.0136206
0.311281
0.0121051
-0.0236276
-8.58861e-05
0.16698
-0.00644263
0.152353
0.0242368
-1.2204e-05
2.72641
-0.00615445
-0.147164
0.175735
1.20791e-05
-0.123834
0.978819
-0.0196617
-0.0161053
0.575239
0.0227161
-0.000402923
-0.0123414
-0.0134151
-0.000920995
0.00543533
1.10981
0.0181862
0.168266
-0.178196
0.0083897
0.0291142
0.0121996
0.434308
0.128709
0.000812261
-0.00406365
-0.0413301
0.00128292
0.482769
0.0542337
0.165045
0.0265691
-2.5327e-05
-0.122928
0.1669
0.000264562
0.144056
0.162485
0.540033
-0.00111421
3.73112e-06
-0.0588203
0.555833
0.00469769
8.47481e-05
-0.332944
4.90061e-05
-0.00621809
-0.000221952
0.00595298
0.160961
-0.0346963
0.0267577
0.224916
-0.666906
0.171755
0.0147556
0.237462
-0.000783167
-0.421916
-0.163262
-0.000894435
-0.00172708
-0.000501666
-0.0151481
0.000187997
-5.7995e-06
-0.00686038
-0.0305189
-0.121049
-0.000180575
-0.0053051
0.0613975
0.17259
-0.00425286
0.100946
1.33206
-0.114396
-9.04398e-05
-0.00764747
-0.395229
-1.37912e-05
-0.56592
-0.418461
-0.00410391
-0.00518361
-0.907335
-0.0502663
6.72912e-06
0.19301
5.7575e-05
9.34933e-07
-0.802423
-0.0099327
-0.00485103
-0.00410496
0.0115464
0.0203279
-0.163611
0.847226
-0.0565269
0.807842
-2.84973e-06
-0.00255042
0.268465
-0.931303
-0.229017
-0.00500548
0.000740763
1.37637
2.90162e-06
0.234919
-0.0324923
-6.89884e-05
-0.00429228
-0.00476786
0.229599
-0.0921147
0.0564912
2.92152e-05
-0.00274014
-0.025724
0.450943
0.350417
-0.00163748
4.60704e-05
2.6637e-05
0.588219
-0.274495
-0.0034291
0.173045
0.586289
0.0624812
-1.35287e-05
0.0310412
1.20526
-3.59119e-05
0.113487
0.000201756
-0.212189
3.67338e-05
0.000180448
0.000176627
0.0852895
0.331587
-0.124067
0.0422094
0.000548064
-0.00445265
-0.000384671
-0.0246398
0.0881619
0.0895701
-0.0327577
-4.70422e-06
1.93219e-05
-0.0211403
-0.00261749
0.00605198
-0.00547228
-0.000125006
0.0120068
-6.16581e-05
-0.486447
-0.00413333
3.11075e-05
0.0178017
-6.18529e-06
-1.18168e-05
0.428141
0.000316753
2.51125e-05
-1.5958e-05
-0.3538
0.329585
0.859182
-3.94362e-05
-2.52438e-05
-0.152829
-0.00596174
0.17223
0.336442
0.872321
0.26764
-0.00260788
3.75007e-05
0.231468
0.190576
0.0121511
0.00789952
-0.00454117
0.00111957
-8.70746e-05
0.00034063
0.0887758
-0.000109959
4.24405e-06
-1.53775
-0.000184132
-0.0805901
0.00101185
-0.0204195
-0.0257417
0.000102251
-1.1721e-05
0.558455
0.0114519
0.00186192
-0.0790869
-0.00112428
-1.42795e-05
-0.00617976
0.351672
-4.42948e-05
-0.00633328
0.2554
0.00206014
-0.00188441
0.0144137
-1.20644
-0.0215171
3.16003e-07
-0.0112553
-1.32747e-05
-0.0782752
0.0614691
-1.12159e-05
1.85753e-05
-0.00746069
0.121274
1.05783
-0.00114319
0.23547
-0.0154596
-7.03334e-05
-0.00881867
-4.27686e-06
0.455603
-0.114642
-3.7706e-05
0.645261
0.312912
-0.0254189
0.211387
0.0727336
-0.00103398
0.02617
-0.0334851
0.000195435
0.337622
0.000255266
-0.00019245
0.161683
-0.0680706
0.000137541
-0.0464874
-0.115589
1.22743e-06
-0.00132726
1.97146e-05
-0.00828693
0.000203658
-0.00112028
0.000148984
-0.000802862
-9.11315e-05
0.0794502
-1.67733e-05
0.111104
0.0830416
0.285266
0.385305
0.274029
0.000329142
0.252864
-0.0509818
0.000127045
-0.163019
-0.00116057
0.041664
0.0327135
-4.16677e-06
0.00116956
0.0337384
0.231573
1.40852e-05
-0.686947
0.00285853
-0.00931752
0.0420596
-1.11283e-05
-0.0357687
-2.86947
0.0733248
0.00147846
-0.00200278
-0.000205502
2.20897e-05
-4.42378e-06
-0.0715909
0.504438
0.216718
9.71889e-06
0.0279757
-0.450444
-0.0140799
-1.38259e-05
0.398523
0.185911
0.224821
0.501375
-0.00227481
0.000424444
-9.60437e-06
-0.0811434
0.652468
0.0909533
-0.00111494
-0.00868679
-0.000456547
0.154656
-0.117954
3.50308e-05
0.000776342
8.49715e-05
8.60006e-05
0.00158806
1.72094e-05
2.88366e-05
0.129678
0.098941
5.6442e-05
-2.81585
-0.00105741
-0.00106843
0.250792
-9.22578e-06