/*--------------------------------*- C++ -*----------------------------------*\
| =========                 |                                                 |
| \\      /  F ield         | OpenFOAM: The Open Source CFD Toolbox           |
|  \\    /   O peration     | Version:  v2012                                 |
|   \\  /    A nd           | Website:  www.openfoam.com                      |
|    \\/     M anipulation  |                                                 |
\*---------------------------------------------------------------------------*/
FoamFile
{
    version     2.0;
    format      ascii;
    class       surfaceScalarField;
    location    "350";
    object      ddtCorrDdt0(phi);
}
// * * * * * * * * * * * * * * * * * * * * * * * * * * * * * * * * * * * * * //

dimensions      [0 3 -2 0 0 0 0];
oriented        oriented;


internalField   nonuniform List<scalar> 
19737
(
0.00105485
-0.00370702
0.00265217
-0.00116929
-0.0360711
0.0372404
-0.00746989
-0.00065728
0.00812715
0.000203493
-1.56361e-05
-0.000187854
0.000399223
-0.00246486
0.00206567
-0.000267769
0.000174066
9.37009e-05
0.000741782
0.0120915
-0.0128333
-0.0014576
-0.000172211
0.00162986
0.0101398
0.000480219
-0.01062
-0.033258
-0.0138391
0.0470971
-0.0437423
0.0159662
0.027776
-0.0152883
0.0395167
-0.000164975
-0.000102797
0.000216535
-0.000522056
0.000305588
0.000278022
-0.000225845
-5.21659e-05
0.0132829
-0.00111015
-0.0121728
-0.00697324
0.00345095
0.00352231
0.0300062
-0.00597157
0.0349898
-0.0290181
0.0185476
0.0283099
-0.0468575
7.08513e-05
-0.00402783
0.00395698
0.0250623
-0.0282854
0.00322309
-0.00819461
-0.00832877
0.0165233
0.000835603
0.00238243
-0.00321805
0.00326862
0.0100143
-0.00960763
0.0036143
0.00599332
-0.00117151
-0.00328358
0.00445514
-0.0382843
-0.00545797
-0.00302721
0.00185571
-0.0121663
0.0104498
0.00171648
-0.0343374
0.0320433
0.00229397
-0.00119659
0.00454558
-0.00334896
-0.00468734
0.0148012
-0.0101138
-0.00142737
0.00407272
-0.00264534
0.0506324
-0.035661
-0.0149715
-0.00344571
-0.00352753
0.00779376
-0.00705203
0.0103239
-0.0185185
0.00405928
-0.0015409
-0.00251841
-0.00108138
0.0107504
-0.009669
-0.000522929
0.000342916
0.000180053
-0.000761256
0.000393918
0.000367362
0.0630946
-0.0533592
-0.00973541
-4.37743e-05
-0.000287167
0.000330895
-0.00183128
-0.000270526
0.00210181
-0.0204328
0.0112171
0.00921563
0.00027359
4.43629e-06
0.000203477
-0.00587792
0.00564917
0.000228765
0.00216859
-0.00520276
0.00303412
-0.00037035
0.000431483
-6.10965e-05
-7.22107e-05
0.000864139
-0.000791913
0.0291123
-0.0301801
0.00106778
-0.0359027
0.0762356
-0.0403329
0.00714149
-0.00770884
0.000567351
0.00533573
0.0005698
-0.00590553
0.000295693
-0.000339528
0.000395325
-0.000878643
0.00048333
0.00238514
-0.00094632
-0.00143885
-0.000823585
0.0032087
-0.048721
0.0438266
0.00489438
-0.007788
0.00972476
-0.00193678
0.000809708
-0.000414347
-0.000289284
-0.000220483
0.000509757
-0.000211189
0.000265018
-5.37996e-05
-0.0151983
0.010511
0.000356247
-0.000163364
-0.000192804
-0.00952662
-0.0109062
5.24775e-05
5.40098e-05
-0.000106501
0.00322684
0.0218016
-0.0250284
0.0649207
-0.051622
-0.0132986
0.001649
0.00241029
-0.00111133
0.00329621
-0.00218489
-0.00876532
0.00756875
0.0010935
-0.020443
0.0193496
0.00129966
-0.000961425
-0.000338222
-0.000211222
-3.33172e-05
0.000244544
0.000373402
0.00251867
-0.00289209
-0.000601024
0.000259721
0.000341318
-0.0133022
0.007686
0.00561617
-0.00149292
0.00139472
9.82024e-05
5.04943e-05
-0.00032569
0.000275191
0.000364234
0.00093541
-0.000936797
-0.00206771
0.00300451
-0.0121705
-0.00643167
0.0186022
-0.000363619
-0.00109396
-0.00203997
0.00414671
-0.00210674
0.0871256
-0.0557773
-0.0313483
0.0395284
-0.0013985
-0.03813
0.0449943
-0.0264467
0.000631765
0.000324762
-0.000956549
-0.000390734
0.000184199
0.000206592
-0.0031479
-0.00185135
0.00499931
0.000595568
-0.00449993
0.00390436
4.45198e-05
-0.000414898
-0.000565605
0.000201244
0.000364356
-0.000746569
-1.46773e-05
-0.00814159
-0.00516058
0.0397106
-0.0524958
0.0127852
-0.0169058
0.0201327
-0.00057407
0.00120579
0.000412611
-0.000213273
-0.000199341
0.000311007
-0.000254465
-5.65497e-05
0.00450227
-0.00390673
-0.0261969
0.0361353
-0.00993847
-0.0252711
-0.00906629
9.2959e-05
-0.00756288
0.000152984
-0.000100519
0.0102168
-0.00407001
-0.0061468
-0.00463333
-0.00497434
-0.000629676
0.000386066
0.000243707
-0.0031677
0.00406618
-0.000898482
-0.00301747
-0.00311462
0.00613207
-0.000470439
-0.000130611
0.00116543
-0.00418294
-0.0308677
0.0248961
0.0121123
-0.00089522
-0.0897594
0.00981953
0.0799397
-0.00643145
0.000993416
0.000516089
-0.00150953
-0.00412515
0.00138042
0.00274469
0.00353321
-0.00647199
0.00293883
-0.000242679
-5.0987e-05
0.000293679
-0.0121915
0.00893544
0.00325608
-0.00790577
0.0342787
-0.0263729
0.0366224
-0.0169379
-0.0196845
0.0225689
-0.00088283
-0.0216861
-0.00620388
0.0287727
0.00246675
-0.00357806
-0.00143305
-0.00633002
0.00776307
0.0581475
-0.0184369
0.0113236
-0.00939588
-0.00192781
-0.000619718
0.00033043
-0.000251858
-0.000313732
0.00772141
-0.000952594
-0.00676883
-0.00818329
-0.00400823
-0.000213434
0.000412597
-0.000199161
-0.0324931
0.0245874
-0.0421728
0.0251574
0.0170153
-0.00174186
0.00481828
-0.00205398
-0.0027643
-0.000197848
-0.000431793
0.000311961
0.000273767
-0.000585702
-0.0047238
-0.00443206
0.00915585
-0.000622219
0.00117644
-0.00055421
-0.0222912
-0.00693909
0.0292303
-0.00251899
0.0115424
-0.00902337
0.00808138
0.0369129
-0.00110998
-0.000382907
-0.0160803
0.00276322
0.0133171
-0.000276911
-0.00176307
-0.000228941
-0.000102078
0.000331025
-0.0346826
-0.0220846
0.0567671
-0.0455822
-0.00313872
-0.0114829
0.010807
0.000675854
-0.0403604
0.00798562
0.0323748
-0.00012553
9.55025e-05
3.00574e-05
0.00044121
-0.000348919
-9.22707e-05
-0.00032521
-0.000197707
0.165356
-0.114813
-0.050543
-0.0468598
0.0136017
0.000737515
-0.000419828
0.00073177
-0.0100709
0.00228286
-0.0019599
-0.0384005
-0.022914
0.0131227
0.00979129
0.025352
-0.000289662
7.39343e-05
0.000367297
0.00527889
0.00493789
-0.00140963
0.000509143
0.000900488
0.00130887
-0.00150665
-0.0825848
-0.00849281
0.0910775
-0.000319459
9.05274e-05
-0.00503725
0.00536851
-0.000331286
0.00746633
-0.000324847
-0.0141057
-0.000674088
0.0147799
-0.023897
-0.00438839
0.00715712
-0.00498854
0.00689452
-0.0229747
-0.000131877
0.000172975
-4.11039e-05
-0.0299445
-0.00431114
-0.0381962
0.0242978
0.0138984
-0.000146459
-0.000203885
0.000350361
0.0379511
-0.0517902
-0.00547899
0.00461358
0.000865383
0.000113859
-5.72875e-05
-5.65571e-05
-0.000552953
0.00588863
0.0260659
0.00597759
-0.00477294
-0.0073933
-0.0322755
0.0455474
-0.0132719
-0.0419676
0.00969213
-0.0132722
0.0415821
0.000904928
-0.00152716
-0.0364957
0.0212074
0.00109432
0.000491011
-0.00158527
-0.018776
0.00467031
-0.000702449
0.00201137
-0.00704832
0.00452934
0.0161696
-0.0485662
0.0323966
0.000459272
-6.53399e-05
-0.0174093
0.0177751
-0.000365837
0.00648972
0.0226225
-0.0193208
0.0222674
-0.00294668
0.00640189
0.00131957
0.0100387
-0.0114718
0.0120864
-0.00176184
-0.0103245
-0.0110805
0.00129367
0.00978688
0.0193567
-0.0182633
0.0395373
0.00601013
0.00683769
0.000628639
0.0523007
-0.0127635
0.0187968
-0.020521
0.00172419
-0.00165985
0.00202602
-0.000366107
0.00239291
0.00242537
-0.00165747
0.00593973
-0.00428222
0.00546999
0.000655808
-0.00612576
-0.000123456
-2.07192e-06
0.0501717
0.036954
0.0697468
0.0956096
-0.00157514
-0.0188678
0.00962515
-0.0479094
-0.000402189
0.000216811
0.000185404
-0.0226806
0.0207207
-0.000161951
0.000250315
-8.83754e-05
0.00654968
-0.00301643
-0.0201202
0.0100735
0.0100467
-0.0190773
0.018363
0.000714334
-0.0468502
0.0206534
-0.00407276
0.00444614
0.0115832
0.000503162
-0.0100658
0.00260143
0.00746438
0.00523218
-0.0069841
0.00175196
0.00649984
-0.0183744
0.00240706
0.00372319
-0.00613026
-0.00198935
0.00123128
0.000758027
-0.0213668
-0.00174149
0.0231082
-0.00953147
-0.0418719
0.00121701
-0.0127
0.00776458
-0.00253235
-0.00201045
0.00107366
-0.00643127
0.00883833
-0.00442905
0.000182973
5.95705e-05
-0.000242547
0.0170456
0.00129811
-0.0066589
0.00536083
0.0248504
-0.00605366
0.0256591
0.00442573
-0.0300848
5.13257e-05
-0.000213276
-0.00150311
-0.00397586
0.00503136
-0.00668875
-0.00350634
0.0131187
-0.00961228
0.000491593
-0.000203465
-0.000288113
0.00733144
0.00239324
-0.0502347
0.0409362
0.00929843
0.00656235
-0.00109233
-0.0309471
-0.00373559
-0.000264851
-0.000137325
0.128767
-0.154379
0.0256121
-0.00350297
0.00370563
0.00674417
-0.00317917
0.0288382
-0.000730725
-0.00125859
-0.00168491
0.00059003
0.00109485
0.00228284
-0.0249635
0.00611685
0.00520679
-0.0247209
-0.0117749
0.000426216
-0.000646681
0.0652251
-0.0556
-0.0212204
0.00600521
0.0152152
-0.0225614
0.0247893
-0.00222802
-0.0036506
-0.000474534
0.000418052
-0.000201494
-0.0341872
0.000374547
-0.000645993
0.000271447
3.37089e-05
-0.000244905
0.000679139
5.50108e-06
-0.000684619
-0.0140148
-0.0213176
0.0353323
-0.00138375
0.00178301
0.0110301
-0.0190091
0.00797902
-0.0113969
-0.00737913
5.0192e-06
0.000454685
-0.00045969
0.0160049
0.0235235
0.00488822
0.00167415
0.0325349
-0.00646914
0.0247509
0.0269347
-0.0516857
-0.000792996
-0.000891926
0.00477806
0.0244842
-0.0177739
-0.00671028
0.0671888
-0.0101101
-0.0570787
-0.0030429
-0.00311717
0.00616003
-0.00041929
0.000326783
9.25611e-05
-0.0054468
-0.00283318
0.00827985
-0.0317065
0.000829217
-0.000615433
-0.000213811
0.0431643
-0.0397546
-0.00340965
-0.00154861
0.00308511
-0.00153651
0.00928828
0.000575814
-0.00986416
-0.0133131
0.0243433
-0.0129636
-0.00715667
0.0112949
0.000486212
0.00563797
-0.00612419
0.00813323
-0.00451898
-0.0240822
0.00068186
0.0234003
-0.0244249
0.000342699
0.000335809
-0.00175377
0.00141797
-0.0034998
-0.0039592
0.007459
-0.00117561
-0.00386165
-0.0336321
0.00216452
0.0314676
5.88271e-05
5.50391e-05
-0.0849978
-0.00476162
0.016294
0.00991665
-0.0262107
-0.00489425
-0.0262429
0.00692218
0.00423162
0.0464008
0.000245761
0.00659192
-0.000105118
0.000156884
-5.17462e-05
0.000311893
0.000517353
0.000388303
-0.000383288
-0.00839972
0.000172597
0.000319009
0.000223532
-0.000173046
0.00385109
-0.0101811
0.000157275
7.76957e-05
-0.000234969
-0.013859
0.0163359
-0.00247692
-0.00783843
-0.00209587
-1.11141e-05
-0.000542659
0.000553785
-0.00018228
-0.00266613
-0.0202479
6.46377e-05
-0.0120381
0.0119735
0.000324124
-0.000257386
-6.67219e-05
-0.0292063
0.000765839
3.83132e-05
-0.00080418
0.000227962
-0.000153452
-7.45211e-05
0.013193
-0.044377
0.0311841
0.00727303
0.0123766
-0.0196497
0.000322374
0.000104009
-0.000426358
-0.0129938
-0.00608355
0.037759
-0.0296776
0.00180618
-0.000115119
-0.00169107
-0.000607728
0.000596623
-0.000370018
0.000391045
-2.10138e-05
0.00466358
-0.00609095
-0.0415874
0.0108204
0.030767
0.0663745
0.000814239
0.00174739
-0.0261894
0.024442
-0.0205438
0.000398499
-0.0003985
0.00595948
-0.00514587
-0.000813646
-0.00189582
0.000235983
-0.0111666
0.0423671
-0.0312006
-0.0333424
0.13029
-0.0969473
0.00033802
-8.62077e-05
-0.000251771
-0.00578651
-9.13926e-05
0.00183615
-0.000493768
-0.00134243
0.00679743
0.0250543
-0.0318518
0.00260591
0.000198808
-0.00280471
-0.00586203
-0.0203273
-0.0483091
-0.00192554
0.0238081
0.0392864
0.00918722
-0.00156147
0.000151836
0.00228897
0.0294257
-0.00819112
-0.0212346
0.00419134
0.00375365
-0.00794504
-0.000457932
8.79067e-05
-0.000120207
0.000303174
-0.000813863
-6.4789e-05
-0.000235932
0.000151819
-0.01474
-0.00266932
0.0213576
-0.00506359
0.0219913
-0.0251705
0.00028358
0.000147903
-0.00102116
0.000207306
0.00686843
-0.0153811
0.00851268
-0.00737708
-0.00269384
0.0102971
-0.00129762
-0.00899948
0.00190915
-0.000514424
0.0575342
-0.0715491
0.00140561
-0.00152899
0.000123305
0.00086751
-0.0001017
0.10137
0.0084449
-0.109815
0.00281254
-0.00116012
-0.00165239
0.000427266
0.0239748
0.00545082
0.000694228
-0.00386196
0.00119789
-0.00200177
0.000803885
0.000200425
0.000155881
-0.00819477
0.0461458
0.00300774
0.00295175
-0.00187553
-0.00574079
0.0076163
0.00962068
-0.0273141
0.0176934
-0.00668571
0.0139587
-0.0625446
0.0723641
0.0075509
0.00173734
-0.069316
-0.0370582
0.106374
7.16057e-05
0.000266464
-0.0349596
-0.00662787
0.00105288
-0.000896003
-0.000156862
0.159393
-0.0896458
2.96301e-05
-0.000161508
0.00255262
-0.0194584
-0.00265843
0.00684974
-7.18995e-05
2.24621e-05
4.94406e-05
0.00149078
-0.0371517
1.94766e-05
-0.000106458
8.69918e-05
2.0758e-05
-0.000263437
0.0395336
0.0186139
-0.0178985
-0.0289516
-0.00202728
0.0043428
-0.0023155
-0.00449724
0.0264886
-0.0315493
0.0263669
0.00518247
0.000327211
-0.000255618
0.00014486
0.000170528
-0.000315304
-0.00703126
0.0083294
0.0015363
-0.000130655
-0.000168176
0.000313055
-0.00280296
0.000215315
0.00258762
-0.0121407
0.0186222
-0.000820496
-0.000200706
0.000107051
0.00169912
0.00196708
-0.00145862
-0.000508509
0.00282536
-0.00165997
-0.00862273
0.00871571
0.0122274
0.0255316
0.000290145
0.000804196
-0.0602472
0.00245267
0.0989173
0.0536767
-0.0289259
-7.60116e-05
0.000129102
-5.30796e-05
0.0236271
-0.0140064
0.0292782
-0.0277236
-0.00155466
0.000908411
-0.000393261
-0.00051517
-0.000148894
-6.26851e-05
0.000211579
-0.00937554
0.00199841
-0.00026075
-0.000129994
0.00415926
-0.00727643
0.00723372
-0.00831508
0.00307333
-0.00173339
-0.00133995
-0.0335331
0.0234628
0.0100702
-0.00433924
0.00143131
0.00290784
-0.00101929
0.000198802
-0.0111378
0.0211928
-0.0100551
-0.000155463
-8.05344e-05
-0.0125723
-0.0700125
-0.0135655
-0.0166146
-0.000368609
0.000222185
0.00495925
-0.00261086
-0.0023484
-0.0031345
-0.000572534
0.0124527
0.0285182
-0.0409709
-0.0191755
-0.0123737
0.0135784
-0.0206347
0.00705629
0.00161456
-0.000778974
-0.000410891
-0.00510776
0.00551866
0.000561845
0.000376406
-0.000938338
0.0364314
-0.0100645
-0.00391902
0.0142429
-0.0149152
0.0174679
0.0547312
0.104661
-0.0278709
0.00650413
-0.000298969
0.000324887
-2.58505e-05
-0.0419128
-0.00494701
5.39629e-05
0.000939453
0.00113092
-0.000815827
-0.00031511
0.000295698
2.66807e-05
0.00129652
0.00067052
5.79384e-05
-0.000151136
9.31766e-05
-0.00586698
-0.0153535
-0.0178626
0.0115593
0.0063032
-0.0006635
7.84769e-05
0.000585009
0.0098645
-0.0137836
0.00108952
0.000128427
-0.00121799
-0.00553627
0.0104459
-0.00171718
-0.00872878
-0.00554761
-0.0140448
0.0195924
-0.000541111
-0.000473812
0.00101497
0.0319066
0.00412629
-0.0360329
0.000610819
-0.000219779
0.0104375
-0.0133096
0.00287214
0.000381445
1.7061e-05
0.0143166
-0.0038791
0.000532999
0.0003754
-0.0169789
0.0169941
-1.51232e-05
-0.000781254
-0.000677399
0.00321479
0.00243439
-0.0848097
0.0162191
0.0685906
-0.000155034
-0.000318595
0.000105147
0.000460218
-0.000177363
-0.000282881
0.00364827
-0.00714809
-0.0282011
-0.0566086
-0.000274506
6.32822e-05
-0.000181828
0.00010994
-0.00137255
0.000591268
-5.17686e-05
0.0807723
-0.00453671
-0.0476991
-0.00502914
0.0527282
-0.0316635
0.044116
0.000917542
0.00138149
-0.00229908
0.000861424
0.000269483
-0.0491276
0.00178236
-0.0265032
0.00142229
-0.000224421
-0.000942729
0.00206751
-0.00112474
-0.0264597
0.0138943
0.0125653
-0.00266993
-0.00166932
0.000147508
-1.46363e-05
-0.000132863
0.00258682
0.00635494
-0.00894173
0.00915614
-0.0147037
0.0319776
0.00464481
0.00211412
-0.0012388
-0.000875305
0.000912529
0.000131777
-0.00104435
0.00305093
-0.000668483
-0.00124715
-0.000150747
0.00139789
-0.00318692
0.000813803
0.00237308
-0.000494325
0.000488001
6.28858e-06
-0.0172855
0.00386359
0.0134219
0.00152622
0.00891969
-0.0403258
0.0590316
-0.0187058
-0.111536
0.0781933
0.00345614
-0.00830681
-8.1332e-05
0.000100819
-0.00864369
0.00581042
0.000285994
0.000324845
5.62185e-05
-0.000205094
-0.0916656
0.00839579
0.00935142
-0.0262894
-0.00356272
-0.0134162
-0.00160327
0.000356108
-0.00414866
-0.00318667
0.00733527
-0.0112065
-0.00553747
0.0167438
0.000126736
-6.79139e-05
-0.0300774
0.0432705
-0.0483662
0.0779092
-0.0295431
0.0220642
-0.0152668
-0.000204934
0.000171612
0.00149409
-0.000319105
0.000260742
5.83358e-05
0.0043288
-0.0249064
0.0205776
0.000209148
0.0312072
0.00492811
0.00110918
0.00100494
-0.0160453
0.00218627
-0.0609394
0.0132403
-0.0639478
0.000151858
0.00121749
-0.000990358
-0.000227096
0.00626039
-0.0104091
-0.0316618
-0.032286
0.0072514
0.0576693
0.0408153
-0.00600264
-0.0348127
0.00442406
-0.00905738
-0.000830038
0.0327366
-0.0248377
-0.00869539
0.00187397
-0.00342261
-0.0231718
0.00527208
0.0178997
-0.0365767
0.0117389
0.000351934
0.00406252
-0.00441443
9.73026e-05
-0.000310575
0.000354949
0.000862534
0.0330629
-0.00851209
-0.0245509
0.000138652
-0.000271785
0.000133123
-0.00621352
-0.0024302
0.00238725
-0.00167828
-0.000708999
-1.05609e-05
-0.000652916
-0.00226341
0.00579082
-0.00352745
0.00081226
-0.00307564
-0.0566511
-0.000270632
4.97002e-05
0.00022096
-1.60828e-05
0.000154746
-0.000274299
3.64717e-06
-0.00547006
-0.0216747
0.0271447
0.00562274
-0.00146349
0.000238637
-0.000324806
0.000907571
0.000145317
0.00761348
-0.0406876
0.033074
0.000198538
0.000112489
0.0183818
-0.0152592
0.017542
-0.0029067
0.00255752
0.000349163
0.00728286
-0.0102166
0.00293371
0.000526786
-0.000100557
-0.000352591
3.34538e-05
0.000205305
-0.000590163
0.000384869
0.00474601
0.00157616
-0.00632213
-0.00176491
-0.00103807
-1.09503e-05
0.0257046
0.0129728
-0.0386773
-4.94319e-05
0.000309682
-0.000260254
-0.000439981
0.00131563
-0.000875626
4.8863e-05
0.000201456
0.000401701
-0.000163611
-0.000238058
-0.0018742
0.00172073
0.000153486
0.00857995
-0.000291321
-0.000127955
0.00622899
-0.00678192
3.29083e-05
0.000674497
-0.000707385
0.000249169
0.000152533
0.00029687
0.000163344
-0.000940547
0.00607575
-0.00513515
-0.00521752
0.00570377
-0.00169033
0.000252557
0.00143784
-0.00232329
-0.000274521
0.0025978
-0.000393522
0.00010654
0.000287045
-0.0540641
0.035696
0.0183681
-0.00322782
0.00357976
0.0301348
-0.0407655
-0.0240789
0.0215298
0.00254908
0.00107099
-0.000594453
-0.00187039
-9.25904e-05
0.000100361
-7.76297e-06
0.034185
-0.0206066
0.0260831
-0.0315532
-0.00437009
0.000138317
-8.43063e-05
-0.0106474
-0.0395723
0.0502196
0.0146368
0.0442099
-0.0588467
0.0137944
-0.0161893
0.00239486
0.000372129
-0.000166801
-0.00512191
0.00198743
0.03965
0.00264368
-0.029304
0.00400442
-0.00309516
-0.000909266
0.000192151
-0.00130216
-0.00027793
-2.10382e-05
-0.0124481
0.0130259
-0.000577823
0.00199075
0.00201366
0.000699701
-0.00753177
0.00683207
-0.0261107
-0.010466
-0.0331749
-0.00836886
0.00831315
5.57087e-05
-0.092925
0.0153434
0.0775817
0.00931982
-0.00457381
-0.00207689
0.00180635
-0.020607
0.00786571
-0.00259165
0.000564382
-0.00035891
2.12955e-05
0.000337626
-0.000379639
0.00346472
0.0446551
-0.00376262
0.000885532
0.00287708
-0.0768787
0.0285126
-0.00153101
0.000935341
0.000595611
-0.000241951
-0.000576533
0.00081847
-0.000280079
8.76674e-05
0.000192412
0.0148317
-0.0841477
-0.031412
0.0339976
-0.00258562
-0.000290093
3.56031e-05
-0.0260051
0.0147986
-0.00172531
0.00117569
0.000549603
0.0385062
-0.0308927
-0.000315884
-0.000216986
0.000532865
-0.000323031
0.000239613
8.34712e-05
-0.00437744
0.0265545
-0.022177
-0.0172772
0.00589933
0.0113778
-0.0041493
0.00459496
-0.000445741
-0.0206102
-0.0723148
0.0113627
-0.0123545
0.00859092
-0.00130812
0.0145063
-0.00294698
0.00846432
0.0134264
-0.0178038
-0.0271113
0.00303239
-0.000132591
-8.03187e-05
0.000212914
0.0100174
0.000732955
0.00175552
0.00131782
-0.022244
-0.019787
0.0420309
-0.00165855
0.000188079
0.0014705
-0.0387329
0.0533697
-0.000223659
5.8692e-05
-0.000187488
0.000371719
0.00771425
-0.00362001
-0.00409423
-0.0243428
0.0405125
0.00497957
0.0303304
-0.0394144
0.00908398
0.0307108
0.0125142
-0.043225
0.000983227
-0.0112088
-0.0161052
-0.000832272
-0.00416263
0.00499488
-0.000231219
-0.00513023
0.00418969
0.000174075
-0.000189696
0.00535919
-0.00334796
-0.00201122
0.00364423
-0.0175288
0.0045824
0.0129463
0.0464554
-0.0442908
-0.00010478
2.87538e-05
-0.0114945
-0.0353629
0.0041345
-0.00496674
-0.00824905
0.0104468
-0.00219777
0.0517433
-0.0374529
-0.0142904
-0.000255045
-0.00265162
0.000161261
-0.000303582
0.000142277
-0.00158218
0.000639458
0.000248929
-8.76632e-05
0.0022265
0.0270517
0.000838761
2.86983e-05
-0.00839782
0.0235803
-0.0151824
0.0194128
0.0711224
-0.0905351
-0.00103465
-0.0114135
0.00165103
-0.00176612
0.00152349
-0.00104982
-0.000473669
-0.0288439
0.0204461
-0.0403318
0.00715681
-0.0207965
0.00269951
0.018097
-0.000503202
0.00020804
0.000116104
-2.64285e-05
0.00687478
-0.00698712
0.000112325
2.68541e-06
0.0005249
-0.000527573
0.00219301
0.00187321
-0.00182046
-0.00183017
0.000843307
-4.55641e-06
8.42075e-05
4.25384e-05
-0.00044533
0.000225486
0.000219847
0.00027777
0.00199694
0.000608993
-0.00118808
-0.000901998
0.0020901
-0.0119236
0.00618279
0.0119749
-0.0125492
-6.86052e-05
-0.000453436
0.0320321
-5.44663e-05
-0.0149561
-0.000526317
-0.00323629
-0.00677772
0.00682513
-4.74507e-05
0.00324028
0.000928834
-0.00416911
-0.0012777
-0.000447629
-0.00020543
0.000369041
0.00075
-0.00111904
-0.00695441
-0.00141444
0.000954669
0.000467639
0.0428615
0.00888181
-0.047976
0.00657385
-0.0553301
0.0487562
-0.00158454
0.00188948
2.13964e-05
-0.0433084
0.0321417
-0.000246829
0.000770674
-0.000523864
0.000802515
0.00612704
-0.00692948
0.000114504
0.000260053
-0.000782817
0.000440717
0.000342068
-0.0149802
0.045691
-0.00238782
0.00272364
-0.000345548
0.000182975
0.00016258
-0.00103678
0.0141304
-0.0130935
-0.00728144
0.00776171
0.00153079
0.00534399
0.0381241
-0.0432234
0.00509921
0.017199
0.0153359
-0.0676891
0.196456
0.000125276
0.000102694
1.79616e-05
-0.000123084
-0.00167032
0.00305072
0.00351662
-0.0243131
-0.00242221
-0.00650944
0.00893162
-0.0034136
0.00165984
0.00065925
-1.69523e-05
-0.000642302
-0.0112598
0.0238011
-0.0125412
-0.00105673
-0.000817466
-0.000661429
0.000221459
0.000269778
3.27382e-05
-0.0003025
-0.0025396
-0.0147377
0.00281987
-0.0109543
0.00813443
0.00335137
0.000721333
-0.000617652
0.000986723
-0.000117226
-0.000578365
-6.76477e-05
-0.000816345
0.000721703
9.4631e-05
-0.00228698
0.00022607
-0.000148373
0.000734996
-0.00130901
0.000858358
0.000977829
0.000851323
-0.00762904
-5.82654e-05
-0.000137708
0.000195975
0.000870529
0.0162365
-0.0171069
0.028036
-0.0528811
0.0248452
0.00245676
0.032533
-0.00254631
-0.0147393
0.000192876
0.000196842
-0.000389619
-6.88567e-05
0.000126801
0.0349608
-0.00763002
0.0417261
-0.0113956
-0.0433944
-0.000982679
-0.0414266
0.0383355
0.00309115
-0.00714672
-0.0326079
8.08006e-06
0.00031349
-0.000321588
0.00352595
-0.00281561
-0.000710298
0.00249279
-0.00153817
0.0193316
-0.018944
-0.000387577
-0.000352723
0.000148897
-0.00106313
0.000440714
-7.42049e-05
-0.000366495
-7.11678e-05
-0.00507476
0.000863548
0.0106788
-0.017196
0.0206597
-0.00346379
0.000367078
-0.00041931
0.000127987
-0.0012214
-0.000324922
0.0015464
-0.000196022
6.34331e-05
0.00213088
0.000256335
-0.00160122
0.0209328
-0.0736951
0.0338599
0.0398352
0.0134459
-0.0070849
-0.00636095
0.000297097
0.000191368
0.00984736
-0.000100986
-0.000244575
0.0644705
-0.00693631
0.0280293
0.0143378
0.0784839
-0.0558679
-0.0226161
-0.0110259
-0.00175267
-0.00157601
0.00140382
-0.000237953
-0.00681033
0.0542728
-0.047699
8.26018e-06
7.00528e-05
-7.83498e-05
-0.00178646
0.0173449
-0.0178691
0.000524298
0.00170046
-0.000829539
-0.000870929
-0.00182655
0.000341139
0.00148542
0.0368483
0.0222275
-0.0590758
-0.00073994
-0.00788284
0.000278482
-0.000241822
0.00994102
-0.0116826
6.6424e-05
-5.81642e-05
-0.00156934
0.00410395
-0.00253464
0.0290024
0.00302964
0.00339759
0.0308811
-0.0263406
0.0210093
0.00533124
-0.00872456
-0.00426921
4.43397e-05
-0.000197802
-0.00148701
-0.00565185
0.00713881
-0.000214451
0.0013909
0.0183324
0.00631851
-0.00746891
0.0011504
0.000843684
-0.000349676
-0.000494045
0.0256769
0.00658308
0.0372436
-0.00288919
0.00358341
0.000163383
-0.000249831
-0.0108541
0.0121478
-0.000102652
-0.00758111
0.0082231
-0.000642015
-0.0756827
0.0550725
0.0143455
-0.0321119
0.0177663
0.000565149
-0.000112682
-0.00045245
-0.0202731
0.0113399
0.0271663
-0.0269427
0.0187515
-0.0349809
0.0306697
0.0154899
0.00813715
0.000619854
-4.79372e-05
-0.000571911
-0.000187995
0.000239313
-0.00101616
0.00120835
-0.00428985
0.00421871
0.00283219
-0.000651376
-0.00218079
0.00917479
0.0128668
-0.0119963
-0.024573
0.089285
-0.0304712
-0.0588139
0.00611127
0.0041431
-0.0102543
0.00983516
-9.66786e-05
-0.000232525
0.000329239
0.0366662
-0.0116119
0.00117792
-0.00111619
-6.17298e-05
-0.0102362
0.0103009
-0.015952
-0.00204018
0.00347899
-0.00143881
-0.0144824
0.0188112
-0.00113796
-0.00282753
-0.00605376
0.00888127
-0.04312
0.0680716
-0.0249516
-0.00137074
-0.00375116
0.0164779
-0.00466567
-0.0118123
0.00172981
-0.0307301
0.0259162
0.00150657
-0.00332706
-0.00301999
-0.00456111
-0.000101125
0.000720986
0.00757724
-0.0277091
0.0201318
-0.000122436
-0.0724847
0.0324356
0.0400491
0.000313387
-0.000503533
0.00019016
0.000368191
-2.52613e-05
-0.000890174
0.000541453
0.0003487
-0.00121845
0.00132548
0.00109491
-0.000757348
-0.000337574
-0.00020297
-0.000242377
-0.143025
0.102728
0.0402966
0.0068713
0.00744529
0.0165168
0.0727682
-0.0136761
0.00751763
0.00615842
6.86178e-05
-0.000144802
7.62076e-05
-0.0030252
-0.00635032
-0.00205843
0.0011803
0.000878141
-0.00120007
0.00485822
-0.0162552
-0.00011327
0.000336929
-0.000223581
-0.000316392
0.00382406
0.0124919
-0.016316
-0.0016619
0.000135743
5.64734e-05
-0.000192208
-0.0594636
0.00583389
0.000496919
0.000597983
-0.0691316
-0.0852471
-0.000350841
-0.000349323
4.30212e-06
0.000345067
0.000969164
-0.00511844
0.00386325
-0.00332147
0.00158805
0.000315878
0.000277804
-0.000593692
-0.0172158
-0.00195916
0.00170415
-0.0021234
-0.00758767
0.000181462
0.000662272
-0.0015627
0.000823926
0.000738817
0.00128438
0.00254829
-0.00383259
-0.000153241
0.000158033
-4.7918e-06
-0.000317278
0.000203975
-1.57461e-06
-0.000950038
0.000951615
0.0158495
-0.00897822
-0.0397827
0.0620101
0.00017822
1.44463e-06
-0.000179678
-0.096535
0.111367
-0.000124059
0.00150561
-0.018279
0.0148126
0.00346649
-0.00137504
0.00320356
-0.00182853
0.00086681
0.000656698
0.000164553
-0.000523463
0.000107221
-0.00112339
0.0449175
-0.0555649
-0.00699159
-0.019468
-0.0215139
0.015647
0.0102533
0.0248983
0.000300031
1.3339e-05
0.00176158
-0.00189418
0.000132441
-0.00803125
0.00520367
-0.00119503
0.00103955
-0.00115116
0.000327551
0.000839198
-0.000104256
0.00347384
0.0361308
-0.0396046
-0.0234216
-0.00291893
0.00109295
-0.00109454
-0.0763222
-1.07493e-05
-8.18381e-05
-0.00136364
-0.000167439
-0.000588381
0.000168561
4.29388e-05
-0.00293216
0.00729715
-0.016398
0.00910086
-0.00941652
0.000150658
0.00161087
0.0388846
0.0330709
-0.0719554
0.0040325
0.0094134
0.000502188
-0.000469245
0.0181627
-0.0276942
0.00048481
-0.00194391
0.00145913
0.0159116
-0.00101154
-0.00637803
0.00738959
-0.000154037
0.00420437
-0.00569141
-0.00195868
-4.5643e-07
0.000489266
-0.000273337
0.000167135
-1.417e-05
-0.0147666
0.0572319
-0.0424653
0.000413724
-0.000369203
0.00419818
-0.0238326
0.0196345
-0.000726058
-0.00780504
0.00319657
0.00460843
-0.0294988
-0.000667377
0.0301662
-0.0452444
-0.000516197
0.000161809
0.000354347
0.000197845
-0.000141621
-0.00365875
0.0174532
-0.0394917
0.0429655
-0.000864481
-0.00031953
-7.89657e-05
-0.0513811
0.00700625
0.0443749
-0.0459842
0.080661
-0.0346767
0.0012953
-0.00107976
0.000602594
-0.00140052
0.000584678
-0.000770553
0.000194873
0.000575682
-0.000131316
-2.19304e-05
0.0039973
0.0101023
-0.0140997
-0.068481
-0.00927063
-0.0421104
0.000522896
0.000236595
-0.000759554
-0.00187688
0.0147437
-0.000130704
-6.80907e-06
0.000137544
0.0050244
-0.00743971
0.00241539
-0.00379851
-0.00391033
0.00148048
-0.000302518
-0.000456877
0.000253903
-0.0110282
0.0091513
-0.0191904
-0.0240329
-0.000264347
-0.00025185
-6.67282e-05
0.000806436
-0.00288335
-0.00287371
-0.00493132
-0.0058023
0.0121512
-0.00634888
-0.000721819
-4.8754e-05
0.0058702
-0.00399622
-0.00254386
-0.0170055
-0.00517409
0.0221796
0.0466268
0.0132466
-0.0598734
0.00252309
0.0025014
0.0236248
-0.02968
0.00605533
-0.000518484
0.00132487
0.0403345
-0.0118164
0.00553661
-0.0113389
-0.0568668
0.0286657
-0.000396263
-9.80779e-05
-0.0110894
0.014358
-0.00495386
0.0104918
-0.00553793
-0.00558795
-0.0126911
0.00191451
0.00198081
-0.0038953
0.00492662
-0.00373052
-0.00119608
-0.0110374
-0.00100065
0.00173931
-0.00125446
0.000277174
3.72406e-05
-0.000314433
9.28559e-05
5.46709e-05
-0.00499527
-0.0101947
0.01519
0.0183128
-0.0110156
0.0095048
-0.00797863
-0.0133144
0.00217648
-0.0972404
0.00070547
-0.0119642
0.000615677
0.000291911
-0.0136667
-0.00784732
-0.000341296
0.000141255
0.000200026
0.000210913
0.000291641
-0.000457523
-0.000119053
-0.0239024
0.0361298
-0.0336024
0.0574105
-0.000513754
0.000171591
0.000342157
0.0089435
-0.0249823
0.0160388
0.0129432
0.00536958
0.0103029
-0.0419664
-0.00815311
0.00251645
0.00563657
-0.0608503
0.0299826
9.28897e-05
-0.000350251
0.000181809
0.00318427
-8.46872e-05
-0.00309962
4.2737e-05
9.21082e-05
-0.00013485
0.000370066
0.000499281
-0.000763629
0.000264361
7.67983e-05
-0.0239738
0.00211453
0.00281209
-0.022303
0.0366485
0.00656942
-0.00262677
0.0080582
-0.0054314
-0.0120092
0.028968
-0.0169588
-0.000100903
0.000293815
0.00173918
0.000995199
9.42957e-05
-0.00587695
-0.0103124
0.0023436
-0.00157167
-0.00077195
0.0105353
-0.00271123
-0.0313477
0.0884635
-0.0571157
-0.0228127
0.0108035
-0.0295385
0.0129211
0.0166173
0.000815444
-0.000533297
-0.00104887
-0.0195162
0.0196693
-0.00015317
-0.00225202
0.00226602
-1.40099e-05
0.0317156
-0.0110126
-0.020703
0.000157991
-0.000471424
0.000313461
-5.62319e-05
-4.61364e-05
0.000102362
-0.000149896
0.000514155
-0.000364277
0.00717165
-0.000853142
-0.0171851
0.00308164
-0.00637318
0.00329152
-0.0431255
0.00173786
0.0221479
0.0043175
-0.0264654
0.000230102
0.000106778
-0.00400611
0.00794177
-0.00393574
-0.0109151
0.00219051
-0.000120715
0.00160115
0.0139695
-0.043508
0.0051825
0.0201104
-0.025293
0.000139579
-0.048443
0.0402483
-0.023696
0.0275202
-0.00022878
-0.00023064
0.000459461
0.00703695
-0.00674709
-0.000289889
0.000724981
-0.000612482
-0.000112529
0.000838078
-0.00033881
0.00259578
0.00023644
-1.2174e-05
0.00140353
-0.00139137
0.00495148
0.000671244
-0.0217205
-0.00145138
-0.00535206
0.00216514
-0.00473085
0.00616214
-0.000936958
0.000525396
0.000411603
0.000145293
-0.000265488
-0.00108498
-0.0151597