/*--------------------------------*- C++ -*----------------------------------*\
| =========                 |                                                 |
| \\      /  F ield         | OpenFOAM: The Open Source CFD Toolbox           |
|  \\    /   O peration     | Version:  v2012                                 |
|   \\  /    A nd           | Website:  www.openfoam.com                      |
|    \\/     M anipulation  |                                                 |
\*---------------------------------------------------------------------------*/
FoamFile
{
    version     2.0;
    format      ascii;
    class       surfaceScalarField;
    location    "350";
    object      phi_0;
}
// * * * * * * * * * * * * * * * * * * * * * * * * * * * * * * * * * * * * * //

dimensions      [0 3 -1 0 0 0 0];
oriented        oriented;


internalField   nonuniform List<scalar> 
19737
(
-0.277674
0.65668
-0.379006
-0.0569207
-0.0378125
0.0947332
0.00856389
0.0254832
-0.0340471
0.599128
-0.0612172
-0.537911
-0.36373
0.311391
0.0523397
-0.690906
0.4108
0.280106
-0.346203
0.272687
0.073516
-0.403628
0.334011
0.069617
-0.219111
0.315422
-0.0963106
-0.028939
-0.199408
0.228347
0.00687076
0.282331
-0.289201
0.38356
-0.480017
-0.460945
-0.229961
0.314904
-0.635083
0.320179
0.631147
-0.560347
-0.0708001
-0.0279053
0.0311977
-0.00329249
-0.377943
0.633889
-0.255947
0.0452484
-0.442062
0.426435
0.015627
0.0334811
0.271803
-0.305284
0.316483
-0.482782
0.166299
0.0653017
-0.0148592
-0.0504425
0.0218339
0.0246024
-0.0464363
-0.320111
0.368743
-0.048632
-0.0326438
0.00473858
0.0130364
0.00156404
-0.0146005
-0.326964
0.295512
0.0314517
0.298884
-0.292013
-0.0638699
-0.263094
-0.18079
0.320231
-0.13944
-0.0499507
0.104837
-0.0548862
0.226674
0.0822575
-0.308931
0.0238281
-0.0340154
0.0101873
0.276594
-0.304439
0.0278449
-0.146039
0.246526
-0.100487
-0.583003
0.20506
-0.146848
-0.199355
-0.0500476
0.0718815
0.477219
-0.08508
-0.392139
0.0287711
-0.0344777
0.00570663
-0.670546
0.311802
0.358744
-0.167581
0.433419
-0.265838
-0.210714
0.141677
0.0690369
0.191915
-0.543244
0.351329
-0.460177
0.150054
0.310124
0.2389
-0.284443
0.0455434
0.635833
-0.00468565
0.599128
-0.132566
-0.470154
0.60272
-0.0263571
0.0342105
-0.00785339
-0.571384
0.629977
-0.0585928
0.304605
-0.452688
0.148084
-0.0282451
-0.0192778
0.0475229
0.0886743
0.290257
-0.378932
0.00312497
-0.00680023
0.00367526
-0.000722357
0.00588882
-0.00516647
0.59963
-0.407715
-0.261859
0.451478
-0.189619
0.134684
0.199968
-0.334652
-0.26501
0.399694
-0.46068
0.376928
0.0837514
0.00326781
-0.0493569
0.0460891
-0.443042
0.181184
-0.0761026
-0.399503
0.475606
-0.420931
0.617782
-0.196851
0.0319857
-0.00815759
0.569208
-0.249866
-0.319342
0.285638
-0.0467381
0.125057
0.306497
-0.431554
-0.0407671
0.245038
-0.204271
0.0579012
-0.0212414
-0.0366599
0.366068
0.111151
0.526728
-0.546896
0.0201685
-0.12367
0.350344
-0.259653
0.243105
0.0165488
0.49603
-0.0242596
-0.471771
-0.483555
-0.0905779
0.574133
-0.0060709
0.00457532
0.00149558
0.143048
-0.505734
0.362685
0.594831
-0.081409
-0.513422
-0.316708
-0.104121
0.420829
0.0855561
-0.564194
0.478638
0.37487
0.121161
0.287159
-0.379718
0.0925597
0.296172
-0.267285
-0.028887
-0.346236
-0.0573913
0.00378467
0.00348356
-0.00726823
-0.109088
0.219719
-0.110631
0.574388
-0.586012
0.0116246
0.301243
-0.267762
0.198045
0.195866
-0.393911
-0.616601
0.278249
0.338352
-0.358119
0.299219
0.0589
0.285884
-0.465141
0.179257
-0.0486092
-0.522775
-0.353177
0.594706
-0.241529
-0.452863
0.285282
0.0802167
0.514614
-0.0208396
-0.0310777
0.0519173
-0.277547
0.23678
-0.283426
0.481471
0.692342
-0.516017
-0.176324
0.655125
-0.469629
-0.185496
0.446723
-0.160838
0.19973
-0.334279
0.134549
-0.0927864
0.0428358
-0.0255482
0.0341121
0.560147
-0.43509
-0.034522
0.0240142
0.0105079
0.00530932
0.00772709
-0.216596
0.372772
-0.156177
-0.0475759
-0.17171
0.219286
-0.592893
0.467198
0.125696
-0.360929
0.503977
-0.541986
-0.0509072
-0.390644
-0.0514181
-0.12151
-0.162933
0.380167
-0.237862
-0.142305
-0.0626066
0.18516
-0.49697
0.311809
-0.138808
0.375099
-0.236291
0.342071
-0.483922
0.141851
0.215528
-0.581053
0.365525
0.0258267
0.410381
-0.436207
-0.454098
-0.126028
0.580125
0.493789
-0.140332
-0.353456
-0.292466
0.29722
-0.00475463
-0.275834
-0.0166311
-0.124923
0.651651
-0.0184217
0.0235758
-0.00515415
0.0181525
-0.0389921
0.146385
0.292601
-0.438986
-0.44226
0.366157
0.270458
-0.623635
-0.228345
0.274084
-0.0457396
-0.386332
0.412159
-0.301851
0.658418
-0.356566
0.0937033
-0.547801
0.505579
-0.1962
-0.309379
-0.108289
0.00388957
0.0199817
-0.0238713
-0.345772
0.129176
0.1567
0.335991
-0.492692
-0.5769
0.431502
0.145398
0.334893
-0.0107005
-0.324193
0.362156
-0.270579
-0.0915769
-0.277805
-0.322112
0.599917
-0.0207469
0.32199
0.115969
-0.432677
0.329432
-0.486898
0.157467
0.0108815
-0.00709681
-0.412155
-0.178291
0.590446
-0.0493761
-0.184716
0.234093
-0.445163
-0.0155164
0.213109
-0.139423
-0.0736862
0.599936
-0.293234
-0.306702
-0.5852
0.50917
0.0760303
0.600913
-0.523124
-0.0777882
-0.483491
-0.187055
0.0038698
0.344167
-0.348037
-0.180415
0.151476
-0.138438
-0.36025
0.516951
0.0654047
-0.0621369
0.307326
0.29261
-0.510287
0.398293
0.111994
0.0123133
0.0529885
0.148372
0.452541
-0.02879
-0.00573205
0.249292
-0.257375
0.00808318
-0.247906
-0.0978663
0.443703
-0.171788
-0.271915
-0.542162
0.130008
0.0380334
-0.0341061
-0.00392725
0.00448591
-0.00136094
0.0186847
-0.0235768
0.00489214
-0.0502823
0.035423
-0.037038
0.0106809
0.502849
-0.173417
-0.417063
0.590568
-0.173505
0.490199
-0.179804
0.0273366
0.0426166
-0.0699532
-0.202384
-0.363557
0.565942
0.0650121
-0.26442
0.134918
0.00408587
-0.139004
0.652831
-0.457264
-0.195567
-0.0100537
0.00933131
0.0316521
0.0731847
0.108531
-0.289321
-0.276836
0.0357702
0.241066
-0.0780466
-0.19879
0.0272891
0.244514
0.438376
-0.103483
0.454503
-0.070943
0.41919
-0.307978
-0.111213
0.00101282
0.0176718
-0.352191
0.104285
0.272022
-0.549827
0.20673
0.0199158
-0.226646
0.166789
0.266631
-0.00826607
-0.0260543
0.0343204
-0.0629843
0.0347392
0.308342
-0.261764
-0.0465788
0.0736026
-0.301947
-0.0216999
0.00327818
-0.29115
0.180262
0.110887
0.0314197
-0.0278921
-0.00352762
-0.294259
0.0346054
0.224587
-0.188817
0.00179035
0.00269556
0.0190805
0.205507
-0.0365035
-0.220379
0.256883
0.190242
-0.291233
0.100991
0.0240441
-0.0201546
-0.01889
-0.00661207
0.0255021
0.279114
0.209795
-0.488909
-0.618746
0.0335459
-0.220469
0.111381
0.321411
-0.317541
0.232721
0.0103841
0.492202
-0.193318
-0.648509
0.347994
0.300515
0.589249
-0.281922
-0.152602
0.53736
-0.384758
0.451012
-0.108941
0.00976351
-0.0282731
0.0185096
0.0677668
-0.319612
0.251845
0.366738
-0.167008
-0.00484395
-0.00122695
-0.1472
-0.143949
0.0360039
-0.0292233
-0.00678053
0.231957
-0.454073
0.222116
-0.0115548
0.0203373
-0.319865
-0.295647
0.615512
0.305232
-0.132374
-0.172858
-0.124005
0.0694038
0.0546016
0.409164
-0.252393
0.0755415
0.137567
0.445133
-0.213176
-0.06863
0.355789
0.254285
-0.57415
-0.148658
0.513549
-0.00331377
-0.510235
0.358015
-0.00551899
0.125707
-0.120188
0.182427
-0.21893
-0.00279389
0.228273
-0.225479
0.444338
-0.59694
0.133791
0.00112751
-0.0234981
0.00460802
0.0255214
-0.034636
0.0091146
0.797924
-0.328886
-0.469038
-0.0023122
-0.0470447
-0.0250631
-0.183387
0.20845
0.454447
-0.175332
-0.223978
0.174602
-0.437084
-0.211425
0.159327
-0.180703
0.0213757
0.00104487
0.223529
0.0967015
-0.233797
0.231003
0.092172
0.21306
-0.0272832
0.392578
-0.365294
0.297657
0.291592
-0.312268
0.458653
0.366502
0.0880012
0.146072
-0.545575
0.192462
0.29974
-0.0110077
0.0409014
-0.0298936
0.0429312
0.14698
-0.189911
0.125589
-0.264397
0.498196
-0.183292
0.212345
0.549605
-0.392859
-0.156746
0.0989899
-0.519921
0.27749
-0.558996
0.281506
0.457754
-0.352152
-0.105602
-0.112296
-0.251434
-0.152843
0.395779
-0.242937
-0.0140862
0.0150991
-0.0396816
0.528579
-0.488897
0.0607213
0.513666
0.458672
-0.00422481
0.0902399
-0.0585878
0.0241768
0.169765
-0.193942
0.337489
-0.364772
-0.573321
-0.396253
0.14262
0.253633
0.144584
0.00574055
-0.150324
-0.351467
0.284227
0.0672402
-0.584178
0.415848
0.16833
-0.138813
0.167571
-0.0287575
-0.0356477
0.583027
-0.2262
-0.356828
-0.277218
0.180613
0.0966056
-0.00936438
0.00358882
0.00577556
0.225614
0.0710391
-0.296653
0.237148
-0.389991
-0.0192505
0.029014
-0.00849404
-0.375032
-0.108952
0.483984
-0.0121018
0.0136658
-0.214571
0.288408
-0.0738371
0.0631023
-0.277673
-0.241313
0.634142
-0.392829
0.234702
-0.324293
0.089591
0.0147522
0.0232812
-0.398292
0.195301
0.20299
0.214625
0.438206
0.270679
0.109488
0.00482849
0.0351518
-0.0399803
-0.0522486
0.282161
0.0261815
0.100484
-0.246522
-0.000832979
0.00262332
-0.415112
0.618685
-0.203573
0.359473
0.223554
0.411394
-0.451076
0.0305299
0.391167
0.406757
0.44434
-0.358784
0.00531517
0.0182607
0.393854
0.193631
-0.587485
-0.0172908
0.00463451
0.0126563
-0.109702
0.00459865
-0.28115
-0.132218
0.413369
-0.0941095
-0.444631
-0.0656562
-0.013765
0.0225554
-0.00879044
0.544994
-0.361695
-0.183299
-0.170019
0.305504
0.168898
-0.474402
0.666422
-0.482351
-0.18407
-0.214913
0.425147
-0.210234
0.0376586
-0.0365132
-0.00114539
0.568588
-0.165287
-0.403302
0.344242
-0.276475
0.288222
-0.308969
0.061758
-0.31496
0.253202
-0.435589
0.154438
-0.352951
0.499337
-0.146387
0.0177323
0.258861
0.369383
-0.0497724
-0.319611
0.135821
0.00876312
-0.285147
0.4035
-0.118353
0.0770085
0.680456
-0.680456
0.304836
0.09842
-0.403256
0.260856
-0.0706142
0.0356605
0.00525119
-0.0409117
-0.0201567
0.0959526
-0.0757959
0.560734
-0.220508
-0.340226
0.406581
-0.539147
0.502535
-0.387475
-0.115061
0.0251616
-0.0492197
0.0240582
0.204509
-0.624007
0.419498
0.27944
0.12406
0.14596
-0.171023
-0.133101
-0.0776124
0.0549731
-0.0176087
0.266901
0.225358
0.0453576
-0.0875464
0.0421888
0.00993989
-0.0204703
0.0105304
-0.508197
0.155246
-0.128648
0.642197
0.484846
-0.0333684
0.0925643
0.245188
0.0300902
-0.0383563
0.0427996
-0.0379712
-0.028951
-0.204846
0.432517
0.19746
0.399045
0.0858006
-0.150684
0.415108
-0.264424
0.00537247
0.0600323
-0.0329287
0.0251584
0.00777032
0.313005
-0.417125
0.326839
0.130915
0.408748
-0.350129
-0.0586193
0.469325
-0.163821
-0.499848
0.554251
-0.0544027
-0.257985
0.325541
-0.0675557
0.547949
-0.0239715
0.0693291
-0.252586
0.20501
0.106819
-0.389238
0.282419
0.326363
0.242845
-0.163565
0.228577
0.53902
-0.234184
0.347108
0.124218
-0.471326
0.0740403
-0.472306
0.398266
0.0341936
0.00346499
0.00914471
-0.247007
0.251016
-0.0254029
-0.124459
-0.215206
0.339666
0.233895
0.326839
0.330808
0.0385751
0.132069
-0.440135
0.308066
-0.0270852
0.348496
0.104899
-0.521962
-0.0585039
-0.219043
0.0223022
-0.0123623
0.522153
-0.576264
0.0541112
0.108584
0.137943
0.0556562
-0.531627
0.475971
0.561069
-0.345541
0.0410494
-0.0228969
0.238306
0.128431
0.167515
0.401779
-0.569294
-0.255687
0.226736
0.128168
0.113043
-0.241211
0.572021
-0.338126
0.256885
0.25374
-0.510625
0.106172
-0.111691
0.331532
0.0772168
-0.23591
0.492794
-0.383996
0.322643
0.0613527
0.245095
-0.116812
0.519739
-0.120694
0.333639
-0.271881
0.170454
-0.393889
0.223435
-0.154409
-0.387578
0.00834654
-0.0338948
0.0322503
0.255971
0.193156
0.226034
-0.298532
-0.515692
0.0158437
0.175776
-0.151599
-0.433065
-0.128511
0.561575
0.475343
-0.401303
-0.121674
0.00908383
0.11259
-0.273271
-0.275972
0.549243
-0.414595
-0.167231
0.581826
0.0775122
-0.0721397
-0.450237
-0.166364
0.316448
-0.0322212
-0.00195089
0.030722
-0.00363941
-0.0210312
0.0246706
-0.0229692
0.0353303
-0.0123611
0.0365563
-0.021552
-0.0150043
0.380433
0.139306
0.0381369
0.0587962
-0.0969331
0.327482
-0.234918
0.148069
0.295634
-0.0378467
0.018569
-0.570883
0.368498
-0.125863
-0.00397899
0.129842
0.455581
0.2011
0.0889997
-0.0985076
0.00950794
-0.160138
0.288306
0.0542106
-0.0870977
0.032887
-0.074307
-0.245804
0.252071
-0.325499
0.0734272
0.0319448
-0.273915
0.241971
-0.155677
0.26872
0.0091364
-0.059184
-0.284969
0.226465
0.303442
-0.330528
-0.0594844
-0.064521
-0.514526
0.572036
-0.0575098
-0.215964
0.0355485
0.445679
-0.260518
-0.00385661
0.00301022
0.000846391
0.413801
0.154788
0.389923
-0.21947
-0.164631
-0.321465
0.486096
-0.0432853
0.0322776
0.10687
0.183709
-0.290579
-0.130802
-0.358222
0.489024
-0.0668092
0.0759456
0.289873
0.130082
-0.419955
-0.233724
-0.0350189
0.0260825
0.00893635
0.546137
-0.263251
-0.282887
-0.423885
0.315188
0.108697
0.32576
-0.394818
0.0690579
0.309593
0.189745
-0.0345293
0.434666
-0.400137
0.547028
0.133428
-0.440877
0.406348
0.245396
-0.518667
-0.147827
0.260362
-0.112535
-0.428067
0.0341787
0.20061
-0.670763
0.156373
-0.368182
0.211809
-0.0511126
-0.529092
0.227241
0.633506
-0.201166
-0.43234
0.312841
-0.0781387
0.38375
-0.227377
-0.646618
0.163063
0.652356
-0.130203
-0.412775
-0.0152919
-0.149547
0.413845
-0.123587
0.00326629
-0.0376797
0.0344134
0.106021
-0.0170211
-0.00509468
0.170349
-0.165254
-0.00196313
-0.00189349
0.24216
-0.0999196
0.466421
0.367931
-0.261112
0.179342
-0.533556
0.354214
-0.313419
0.253645
0.0597736
0.0246636
0.0118928
0.57659
-0.00982164
-0.566769
0.0146275
-0.0283458
0.0137183
0.179467
0.36667
0.426028
0.0677609
0.402353
-0.0913952
-0.310958
0.628837
-0.264741
-0.364096
0.0922189
0.276524
0.280122
-0.065977
-0.214145
0.292123
-0.0989003
-0.193223
-0.637759
0.648516
-0.0107573
-0.543252
0.154014
0.389238
-0.024178
-0.0108408
-0.184716
-0.0139666
0.198683
-0.134754
0.114597
0.00792831
0.601393
-0.523955
0.579611
0.146463
0.0211077
-0.181228
0.49082
0.168346
-0.582941
0.0443193
-0.351387
0.215088
-0.35542
0.12924
-0.277067
0.282815
-0.00269256
0.0671012
-0.0330387
-0.0340626
-0.0651868
0.0432063
0.0219805
0.628834
-0.414209
0.157966
-0.372879
0.639588
-0.244357
-0.395231
-0.00548495
0.0306465
-0.449518
0.35894
-0.187388
-0.543748
0.395269
0.148479
0.11941
-0.469822
0.350412
0.363456
-0.194842
-0.139437
0.0724786
0.329874
0.00229385
-0.0195847
-0.0401835
0.0434498
0.48369
0.20818
-0.531649
0.127419
0.40423
0.00775929
0.059342
0.170127
0.313563
0.0417318
0.0161695
0.485413
0.0306612
-0.516074
-0.00667899
0.0119883
0.482883
-0.157123
-0.0334061
0.0104369
-0.0102444
0.000880029
0.0499524
0.0249645
-0.0749169
-0.0265928
-0.00681322
0.0839261
-0.386588
0.302662
0.0640344
-0.580052
-0.480328
-0.0513214
-0.152074
-0.114107
0.266181
0.479256
-0.325289
-0.153967
-0.0293378
0.175801
-0.00412063
-0.00734178
0.0114624
0.311318
-0.44212
0.0106332
-0.133177
0.122544
-0.141499
0.152132
-0.0589211
-0.555546
0.19632
0.359226
0.156343
0.322913
-0.379319
-0.176227
0.17181
-0.0279847
-0.143825
0.0583801
0.258068
0.289312
-0.50982
0.426418
-0.294349
-0.0767871
0.0781984
-0.00141127
0.338222
0.316903
0.00438814
0.579121
-0.281464
0.242539
-0.401761
0.159222
0.197891
-0.288439
0.0905478
0.502328
-0.356256
-0.505989
-0.0377588
0.26663
-0.492592
0.225963
0.342574
-0.0536412
-0.288933
-0.359165
-0.0248316
-0.0224572
0.354597
-0.468197
0.1136
-0.207493
0.564828
-0.357334
-0.271675
-0.34135
0.613025
-0.0876505
0.62501
0.649452
-0.281541
-0.367911
0.0209385
-0.0157657
-0.00517277
-0.00684623
-0.40718
-0.176998
0.00094765
-0.0110013
0.345081
0.0611301
-0.406211
0.383963
0.265489
0.420821
0.212685
0.0880637
-0.377526
0.289462
0.0982855
-0.473317
-0.411655
0.0946387
0.317016
-0.00635991
0.286165
-0.279805
-0.597284
0.255334
0.341951
0.0835837
-0.219318
0.135734
0.393377
-0.309451
-0.0102008
0.0579977
0.0404566
0.0175381
-0.0579948
-0.225431
0.260702
0.0506886
-0.546167
0.57305
-0.0268835
0.0686846
-0.0144739
-0.00447238
0.176282
-0.0722216
0.568548
-0.262051
0.500107
-0.324968
-0.175139
0.199392
-0.44337
0.243978
0.291296
-0.33872
0.0474242
0.469248
-0.202618
0.641196
-0.185615
-0.105999
0.478569
0.31587
-0.00102078
0.000742121
0.000278656
0.430339
-0.31437
-0.499999
-0.0145272
-0.339511
0.283796
0.0557153
-0.000668627
-0.00035215
-0.454525
0.0551916
0.399333
-0.0369487
0.0103559
-0.116565
0.0393577
-0.0159881
-0.0233696
0.0738335
-0.327154
0.25332
0.302308
0.0402657
-0.221148
0.371202
-0.0359868
-0.0141625
-0.379713
0.547228
-0.453213
0.110089
0.343124
0.00975103
-0.00616221
-0.168635
0.230916
-0.0294498
-0.201467
0.282589
0.356999
-0.131575
0.339707
-0.208133
0.341601
-0.413218
0.0716163
-0.523176
0.0250676
0.498108
0.187
-0.311459
-0.22226
-0.0758624
0.298122
-0.556128
0.0864994
-0.0237722
-0.0414145
-0.435355
0.0786359
0.356719
-0.0633608
-0.0134264
-0.139237
-0.365368
0.504604
-0.584853
0.404566
0.180287
-0.260034
-0.0276964
0.28773
-0.091673
0.0658899
0.0257832
-0.0375285
-0.229899
0.267427
0.341609
-0.267775
0.094883
-0.190747
0.258264
-0.0603727
-0.095746
0.279455
-0.00939191
-0.276985
0.0169518
-0.0113268
0.0517834
-0.335005
-0.23717
0.572175
-0.00529081
-0.0291869
-0.0233746
0.0197352
0.292788
-0.213276
-0.079512
-0.203183
0.60121
-0.398027
0.450616
-0.251224
-0.590442
0.129498
-0.311474
0.589724
-0.0338729
0.0223239
0.011549
0.25807
-0.0513397
0.189892
0.476497
-0.462291
-0.0142056
0.0925816
0.150308
-0.24289
-0.287499
-0.0900713
-0.382235
0.46652
-0.320243
-0.146277
-0.610826
0.38541
-0.297346
0.468779
-0.529996
-0.030292
0.0214122
0.00887975
-0.00985875
0.0445513
0.236166
-0.280717
0.375725
-0.180424
0.086077
-0.519142
-0.185233
-0.120051
0.327471
0.139048
0.27593
-0.195782
-0.0801484
0.134849
-0.236535
0.101686
-0.197262
0.439802
0.589843
-0.409217
-0.180625
0.518796
-0.339454
0.389675
0.200168
-0.0815172
-0.0401571
0.297322
0.172003
-0.083696
0.215187
-0.131491
0.377203
-0.389471
0.0122679
-0.102423
-0.237088
-0.329907
0.0149468
0.196791
-0.59447
0.39768
-0.240596
0.1569
-0.428548
0.311983
0.316833
-0.0556965
-0.261136
-0.116537
0.342361
0.202633
-0.147975
0.00299765
-0.00260504
-0.000392606
-0.0257829
0.532035
-0.506252
-0.222985
0.0512744
0.312292
-0.186703
0.437663
-0.140341
0.275538
0.353296
-0.571392
0.199481
0.371911
0.364527
-0.408585
0.613094
-0.410759
0.310895
0.0998645
0.521373
-0.397154
-0.165636
0.234443
-0.179039
-0.456044
0.464776
-0.0387484
-0.0284147
0.0144443
0.216472
-0.00601022
-0.0163412
0.0223514
0.400125
0.180282
-0.580407
-0.382623
-0.0527327
-0.182878
0.152723
0.278407
-0.43113
0.0234105
0.0159473
0.0916075
0.276323
0.203395
-0.0685458
0.396272
0.119064
-0.00216296
-0.116901
0.244621
0.106869
0.220311
0.00353957
0.032121
-0.141479
0.44406
-0.302581
0.0173852
-0.0221561
0.00477091
0.289191
0.260414
0.259938
0.164149
-0.424087
-0.13834
0.230922
0.372326
-0.61364
-0.522337
0.0243528
0.497984
0.0570808
0.227881
-0.284962
0.290645
0.0247769
0.000884506
0.00211314
0.108182
-0.0685571
-0.0396249
0.0266415
0.0635984
0.0252929
0.134034
0.365033
0.301389
0.101613
-0.516725
0.306692
0.0684067
-0.0224079
0.33924
-0.0096888
0.215725
-0.206036
0.423397
0.210744
0.400771
-0.318685
-0.0820858
0.157195
-0.381725
0.22453
0.0157959
0.00514258
0.353502
-0.625177
0.514656
0.0332044
-0.54786
-0.0565345
-0.0351385
0.0194205
0.0101217
-0.0295422
-0.119481
-0.184957
-0.295694
0.448417
-0.252764
0.0072581
-0.400118
-0.34898
-0.101817
0.450797
-0.10757
0.587826
-0.394195
0.145713
-0.429139
0.368298
0.134238
-0.0346548
0.0286446
-0.175451
-0.403989
0.57944
0.157705
-0.428372
0.270668
-0.256205
0.0967338
0.159471
0.0113639
0.415071
-0.152387
-0.390865
0.319742
0.343156
-0.662898
-0.485205
0.320574
0.190492
-0.163471
0.448179
0.0283177
0.214407
0.21074
-0.587812
0.482461
0.105351
-0.0920293
0.272642
-0.00106884
0.481711
-0.480643
-0.0269462
0.020004
0.00694218
0.37057
-0.278962
-0.0123483
-0.0131663
0.0255146
-0.586001
0.222443
0.0261289
0.354841
0.164634
-0.519475
0.52322
-0.4248
0.342174
-0.664287
-0.423754
0.550753
-0.126999
0.57869
-0.584099
0.176919
-0.411968
0.299808
0.11216
-0.478081
0.143076
0.0105165
-0.0146371
-0.0409191
0.0285708
0.104346
0.130051
-0.234397
-0.134049
-0.330511
0.46456
0.402638
-0.0202994
-0.00140052
-0.513655
-0.00868171
-0.162292
0.489131
0.0233666
-0.0181154
-0.252333
0.390771
-0.138438
0.302811
0.0200158
-0.0884159
0.422426
-0.317774
0.589796
-0.02961
0.148674
0.474131
-0.0052898
-0.468841
-0.0665949
0.0161743
0.00217193
-0.0183462
-0.638255
0.343974
0.294281
0.575241
-0.39132
-0.183922
-0.198256
0.119601
0.0786545
-0.0249807
0.0333273
0.467431
-0.142887
0.0954903
-0.0260865
0.437459
0.0366719
-0.330677
0.067883
0.262794
0.382822
0.081954
0.340639
-0.466666
0.360518
0.20826
-0.568778
0.0794682
0.264774
0.086229
-0.56858
0.25428
-0.323995
0.0697145
-0.281056
0.270356
-0.45815
0.00315105
-0.00664075
0.0034897
0.533734
-0.376636
-0.157098
-0.194007
-0.0332729
0.410201
-0.0177355
-0.23485
0.420595
0.505335
0.00141537
-0.0293075
-0.194168
0.269739
0.0423591
-0.312098
0.115653
0.225956
-0.117446
-0.359694
0.477141
-0.22267
0.535366
-0.312696
-0.110245
-0.0701719
0.00681113
-0.0231281
-0.0644183
0.190032
-0.369837
0.362619
0.112724
0.200087
0.393989
-0.594076
-0.249981
0.694319
0.110625
0.319714
0.0730613
0.450159
0.0019829
-0.0281719
0.026189
-0.00892527
-0.271801
0.429506
0.394343
-0.274045
-0.0642302
0.338275
-0.00488018
-0.00603711
0.0109173
-0.0311742
-0.369517
-0.12872
0.498237
-0.0398665
-0.00935323
0.402575
-0.14396
-0.258615
0.00917268
-0.0229377
-0.227888
0.260482
0.107513
-0.367996
-0.333859
0.453269
-0.0985338
0.17204
-0.0214195
-0.15062
-0.120379
-0.0383563
0.158735
0.120785
0.520411
0.000550915
-0.0336764
0.0331255
-0.146594
0.0661476
-0.244103
0.321744
-0.0094515
0.339696
-0.0699573
-0.39764
0.597727
-0.070218
0.0162762
0.0539418
-0.163278
0.154977
-0.269092
0.114114
0.202133
0.28135
-0.483482
0.507982
-0.19618
-0.423622
0.359507
0.064115
0.253859
0.0797798
-0.00200473
0.0028951
-0.000890377
-0.429345
-0.142047
0.0818628
0.131107
-0.212969
-0.651566
0.210688
0.0834128
-0.357457
-0.119542
0.462094
-0.342553
0.384592
-0.624381
0.239789
0.0737764
0.00373585
-0.519219
0.366888
0.152332
-0.150922
-0.0180063
0.00392008
-0.184015
0.578827
-0.394812
-0.156601
0.272068
-0.032089
-0.239979
-0.0955716
0.393187
0.182581
-0.575767
-0.252529
-0.00611287
0.0030448
-0.00504953
-0.076817
-0.103886
-0.56134
-0.551251
-0.0191569
0.570408
-0.24993
0.212402
0.154421
0.00518149
-0.0262127
0.355821
0.157491
-0.513312
-0.114672
0.188103
-0.385365
-0.101073
0.11899
0.376492
0.157242
-0.197136
0.596047
-0.398911
-0.289168
0.358976
-0.0698077
-0.481782
0.534075
-0.0522924
-0.542672
0.358657
0.526026
-0.338054
-0.187972
-0.382403
-0.269162
0.215338
-0.0957362
0.552775
-0.0131284
-0.539647
-0.0885206
0.275521
0.164287
0.0060616
0.0897648
0.197064
-0.286829
-0.146424
0.428849
-0.282426
-0.402661
0.599452
-0.114195
-0.339018
0.421181
-0.310556
0.296052
0.204054
-0.187285
-0.126133
-0.0106457
-0.0326397
0.0486976
-0.48726
-0.27022
0.472353
0.275896
0.0109564
-0.286852
0.167263
0.00477648
0.238008
0.0894741
-0.356097
0.0910876
0.438063
-0.292349
-0.0353541
0.460955
-0.425601
-0.0651976
0.425716
0.325646
0.20038
-0.282835
-0.0890061
-0.457161
0.168584
-0.300158
-0.513541
0.15329
-0.223064
0.205328
0.435943
-0.562794
0.126851
-0.107204
0.274683
0.0012133
0.182773
-0.465328
0.282555
-0.481686
0.347637
0.340658
0.0044236
0.295494
0.11367
0.165929
-0.512991
0.347062
-0.134346
0.4396
-0.427617
-0.0119826
-0.0801233
0.325318
-0.0710382
0.450416
-0.262313
-0.264345
-0.388533
0.600827
-0.0406795
0.0339628
0.326094
-0.360057
0.501466
-0.550075
-0.151036
0.157704
-0.00666775
-0.357798
0.533638
-0.169433
-0.364205
-0.416101
0.0544455
0.361656
0.0106541
-0.205322
-0.30965
0.514972
0.579871
-0.411525
0.00708111
0.284215
-0.459391
0.424037
-0.437173
-0.570804
-0.109652
-0.380762
0.0511967
0.329565
-0.0481456
-0.118253
0.166399
-0.199061
0.0239983
0.229522
0.00485433
-0.00184411
-0.473222
-0.0489232
0.522145
-0.45322
-0.0285621
-0.238288
0.0408723
0.197416
0.354092
-0.00459353
-0.376168
0.404157
-0.271686
-0.132471
0.138374
-0.410175
-0.521928
0.00130291
0.520625
0.304656
-0.293421
-0.011235
-0.00395485
-0.00284537
0.123949
0.278626
-0.516647
0.0873025
0.418256
-0.279882
-0.115759
0.0472015
-0.498282
0.29296
-0.181437
0.205212
-0.42636
0.180301
0.353337
0.588989
-0.310654
-0.278335
-0.549773
0.0765506
-0.000859412
-0.009385
0.213245
-0.0114261
0.139516
-0.12809
0.000888689
0.0451532
-0.0460419
0.163959
0.140697
-0.1173
0.0584193
0.058881
-0.139385
0.344597
-0.050542
-0.0479657
0.285518
0.303471
0.135354
0.248396
-0.497658
-0.140101
-0.00813928
-0.0245046
0.0729696
-0.355211
0.282241
0.299206
-0.209442
-0.258718
0.359756
-0.101038
-0.270112
-0.0678196
0.337932
0.00893459
0.0136208
0.485828
-0.319899
0.413239
0.101779
-0.515018
0.408737
0.167853
-0.130284
-0.328013
0.458297
0.586777
-0.150834
-0.0284038
0.00422576
-0.0503979
0.0885348
-0.274211
0.185691
0.0326131
0.127775
0.298643
0.0339429
-0.0445885
0.185841
0.338046
-0.523887
0.363092
0.431448
-0.387762
-0.0254556
-0.257471
0.289721
-0.0124714
-0.12063
-0.608696
0.233426
0.37527
0.0764999
-0.0224522
-0.0540477
0.44499
0.141787
0.0999741
0.00604675
0.00622409
0.0531698
-0.0593939
0.0280397
-0.418684
0.221668
-0.583363
0.097914
-0.225301
-0.0531217
0.278423
0.347615
0.201786
-0.5494
0.634907
0.313334
-0.486123
0.172789
-0.0437739
-0.00650842
-0.459041
0.188929
-0.468044
0.350598
-0.247371
0.0839674
-0.356109
0.272142
0.360446
-0.632349
0.271903
-0.171728
0.49147
-0.00796807
0.416353
-0.126481
-0.225581
-0.113138
0.00026663
0.00379319
-0.00405982
-0.0115592
-0.159197
-0.387397
0.0968757
0.290521
0.591381
-0.230935
0.374283
-0.0799396
-0.294343
-0.228963
0.174952
0.343844
-0.0024272
0.0342204
-0.0317932
0.156566
0.356252
-0.512818
-0.129501
-0.151102
0.280604
0.352725
-0.461529
0.108804
-0.354539
-0.211972
0.566511
0.538862
-0.210451
-0.328411
0.0046226
-0.00147156
-0.122584
0.0131406
0.00579484
-0.0189355
-0.433799
0.0306411
0.00570159
0.0365991
-0.0423007
0.371261
0.207567
0.175861
-0.173128
-0.00273246
0.336613
-0.257144
-0.277115
0.401064
0.261805
0.112478
-0.0742688
0.0262899
0.0479789
0.40442
-0.238403
0.0748384
0.041983
0.230085
-0.374092
-0.186818
0.560909
-0.00225335
0.0668265
-0.0645731
0.185859
-0.39027
0.204411
0.493989
-0.180656
-0.0240916
0.0260745
-0.372597
0.424338
-0.051741
0.327389
-0.269009
0.0728654
-0.022913
0.234534
0.0575896
0.0146241
-0.0361761
-0.4809
0.15145
0.329451
0.467302
-0.59595
-0.396394
0.00619198
0.015488
-0.02168
-0.129173
0.293132
-0.337767
0.0181551
-0.464143
-0.408687
-0.172366
0.597461
-0.212869
0.22144
-0.316827
0.0953869
0.127582
-0.257084
-0.413118
-0.166252
0.579371
-0.0880949
0.0057064
-0.378303
0.231718
0.0514672
-0.283185
-0.0284885
0.0706774
-0.390914
0.109458
0.281456
0.0349734
-0.024643
-0.0103304
-0.429037
0.425723
0.26591
-0.33373
-0.0153288
0.0258367
-0.119153
-0.329385
0.448538
-0.391041
-0.163401
0.554442
0.0213078
-0.023735
-0.0590601
0.0223128
0.0367472
0.0960821
-0.0693171
-0.0267651
-0.27085
-0.188191
0.254841
0.33654
-0.117509
-0.228728
-0.144117
0.095971
-0.196248
0.186559
-0.0239843
-0.0462432
0.277961
0.0176784
-0.00453777
-0.0341818
0.113784
-0.0796025
-0.601961
0.414085
0.187876
0.0255204
0.265124
0.00415928
-0.251823
0.247664
0.0899849
-0.527069
0.0970706
-0.327624
0.435712
-0.108088
0.133891
0.417369
-0.0165974
0.400078
0.30077
0.103387
-0.296434
0.482294
-0.509808
0.143352
0.366456
0.211213
0.327649
-0.106645
-0.225055
0.331701
-0.0372819
-0.201007
0.333431
-0.452972
-0.611768
-0.240551
0.102211
-0.163947
-0.367186
0.531134
-0.424978
0.0726615
0.352317
-0.653047
0.426339
0.226707
-0.248183
0.438215
-0.431813
0.113128
-0.114208
0.102781
-0.134558
0.56606
-0.0684609
-0.0488394
-0.515964
0.0147665
-0.00857452
-0.0151117
0.0142523
0.405243
-0.316563
0.140239
0.30382
-0.106984
0.383383
-0.276399
0.402169
0.199041
0.12284
-0.2668
-0.293559
0.0174629
0.010234
-0.0276969
-0.425351
-0.080383
-0.415601
0.540794
-0.125193
0.477567
-0.294794
0.187524
0.105264
0.134078
-0.230388
0.00232759
-0.00128272
-0.0415219
-0.252468
0.606839
-0.605865
0.195517
0.410348
0.256925
0.193691
-0.439373
0.117042
0.322331
-0.319651
0.0262307
0.10382
-0.0788557
-0.316988
0.253014
0.063974
-0.498642
0.283899
-0.477581
0.193683
-0.519928
0.0364376
-0.212415
0.00118648
0.211228
-0.149225
-0.00181114
-0.302853
-0.0845433
-0.307431
0.0919819
-0.395019
0.303037
0.16512
-0.578239
-0.510627
0.145259
-0.130984
-0.293052
0.424036
0.00900146
0.00576504
-0.440176
0.119933
0.383387
0.214074
-0.0494497
-0.311779
0.475358
-0.163579
-0.00553392
-0.398572
-0.0332417
-0.370854
-0.171819
0.464955
-0.172354
-0.288086
0.507657
-0.219571
0.324914
-0.314958
0.238834
0.0761237
0.205017
0.0558385
-0.0242498
0.124901
-0.100652
-0.406873
0.463448
-0.0565756
0.00107868
0.0202292
0.221108
-0.016091
0.243126
-0.646454
0.403327
-0.0982116
-0.0526747
0.0648913
-0.0122166
-0.28314
-0.0173232
-0.0569456
0.325637
-0.470135
0.144498
-0.0847315
-0.0375839
0.122315
0.108911
-0.104486
-0.00442487
0.0480114
0.286577
-0.417561
-0.465812
0.154033
-0.336112
-0.146671
-0.116123
0.0261067
-0.00610271
0.266358
0.0845645
-0.122921
-0.00835237
0.00943106
0.0758477
0.260765
-0.0575134
-0.216387
0.273901
0.00306787
0.00703118
-0.0100991
-0.131546
-0.431248
-0.527091
0.328167
-0.235862
-0.0923052
-0.0276014
-0.00879205
0.078877
-0.070085
0.0540279
-0.0483263
-0.111215
-0.0149241
0.00429525
0.0106288
0.278804
-0.385788
-0.00183202
-0.0605258
0.288407
0.000804543
-0.431419
-0.174446
0.0424999
0.229899
-0.272399
-0.0529681
0.0507148
0.214361
-0.157067
-0.0572946
0.079928
-0.107913
-0.0709018
-0.254597
-0.40992
-0.238763
0.369446
-0.130683
0.00604219
0.0747918
0.00340662
0.100919
0.295031
-0.39595
-0.139041
-0.0203964
0.505809
0.236236
0.180117
0.00519211
0.325764
-0.330956
-0.549178
0.565158
-0.0159803
-0.285146
0.027675
0.261264
-0.0250983
0.276858
0.0937113
0.0322305
0.143546
-0.00538084
0.00755277
0.50428
-0.329328
0.0630894
0.118811
-0.542565
-0.170707
0.575272
0.0586844
0.153609
-0.212293
0.00291894
0.00608252
-0.3825
0.377907
0.0226444
0.213233
0.33601
0.467943
-0.493726
-0.198252
-0.387761
-0.612269
0.243887
0.368381
-0.0521511
0.0787926
0.100999
0.365418
-0.466417
0.0531868
-0.075639
-0.0771758
0.151826
0.348318
-0.500145
-0.314994
-0.323261
-0.017688
0.0212367
-0.00354867
-0.0190721
-0.00122727
-0.0118562
0.3186
-0.00260767
-0.315992
-0.391615
-0.220654
-0.189538
0.00274281
0.186796
0.45192
-0.236832
0.0347312
0.513122
0.33404
0.13402
-0.46806
0.044794
-0.526259
0.117572
0.449644
-0.185905
-0.263739
0.281849
0.133259
-0.174551
0.574107
-0.399556
0.12044
0.322235
-0.442675
0.13167
-0.547271
0.346317
-0.210963
0.0159142
-0.0501071
0.0341929
0.649643
-0.374105
-0.397879