/*--------------------------------*- C++ -*----------------------------------*\
| =========                 |                                                 |
| \\      /  F ield         | OpenFOAM: The Open Source CFD Toolbox           |
|  \\    /   O peration     | Version:  v2012                                 |
|   \\  /    A nd           | Website:  www.openfoam.com                      |
|    \\/     M anipulation  |                                                 |
\*---------------------------------------------------------------------------*/
FoamFile
{
    version     2.0;
    format      ascii;
    class       volScalarField;
    location    "650";
    object      ddt0(k);
}
// * * * * * * * * * * * * * * * * * * * * * * * * * * * * * * * * * * * * * //

dimensions      [0 2 -3 0 0 0 0];


internalField   nonuniform List<scalar> 
14479
(
5.08556e-07
-6.34748e-07
1.52493e-07
-0.000868756
-9.70903e-06
-0.00304429
-3.343e-09
1.34949e-07
4.90209e-07
-0.00361214
-9.66447e-08
-0.000803687
-8.32088e-06
-1.05004e-05
0.000385321
0.00046809
0.00183983
-1.88639e-05
-0.00741985
-5.81874e-06
-1.54344e-07
-1.24088e-06
0.000601399
3.08268e-06
1.81375e-06
2.05828e-06
3.06526e-07
-0.00401444
0.0238093
0.00038905
0.00192968
-0.00250541
-0.00721142
4.62816e-08
-4.92844e-07
-1.82127e-07
-1.93691e-07
0.000109959
3.15524e-07
3.33151e-05
0.000406833
2.37825e-07
-4.31657e-07
-2.22471e-06
0.00151082
-4.26305e-06
-0.000150301
-0.00997172
1.41549e-06
2.01376e-07
-1.1149e-07
-0.00590845
5.48874e-05
1.45861e-07
1.22308e-06
2.1714e-07
7.44944e-06
0.00097829
-1.97426e-07
8.56222e-06
1.80276e-06
1.82584e-07
7.73551e-05
-2.39576e-05
-9.98455e-05
0.00105115
3.99477e-06
9.87569e-07
-0.00104111
-0.00411445
-0.00999508
-1.22384e-05
-0.000664275
0.000832623
-1.32206e-07
-3.89284e-07
-0.00817609
0.000152975
-0.00588568
-0.00917899
0.000389312
-2.15641e-09
-2.22353e-06
-1.84549e-05
1.28736e-07
2.01607e-06
6.51994e-05
3.4779e-07
-0.00836638
8.53038e-07
-0.00118225
0.00103042
0.00206802
0.000189746
9.14269e-07
-0.0080603
-4.83902e-07
-0.00127104
1.15016e-06
0.00159072
0.0017624
0.00110904
1.56047e-05
2.81869e-08
1.33829e-06
-1.74516e-07
-0.00116691
-0.00066617
1.60751e-05
0.000411814
-1.08935e-06
-1.47088e-06
7.18488e-05
-1.2768e-05
-6.90006e-08
2.02265e-06
-9.52705e-07
-3.33556e-05
9.93741e-07
3.0305e-05
-3.98003e-07
6.94944e-08
-0.00334384
6.27775e-07
-0.0041701
-1.51442e-07
7.11511e-09
2.88134e-07
-2.27717e-07
0.000984594
-2.57278e-07
0.0150459
0.000628956
-8.43895e-08
-1.89034e-05
-2.13685e-05
-9.51137e-05
6.13849e-07
-0.0055855
-0.00112379
1.23761e-07
-0.00120543
-1.90314e-06
-1.46077e-05
-1.6854e-05
5.24055e-07
-0.00126083
-4.84523e-08
2.42291e-07
6.41824e-07
-0.0076183
-1.15716e-06
-9.69679e-08
-8.27165e-05
0.00136741
-8.01911e-07
-0.00771269
-2.31802e-08
0.00695518
-0.00660894
-0.0076525
-0.00342583
-0.00716892
5.23722e-05
0.00169472
-0.0104389
-1.29939e-08
0.000557843
-2.45317e-07
-6.20109e-07
-3.60098e-07
9.74066e-06
8.7562e-09
3.59828e-05
2.0395e-07
1.6088e-05
-6.11613e-07
-8.78389e-07
1.35783e-06
5.44223e-07
7.44417e-06
-8.17685e-08
-8.15493e-08
0.00265278
-4.89779e-07
1.48359e-06
-1.02646e-07
6.99621e-07
-3.35949e-05
-5.25414e-05
-3.21233e-08
0.00213486
1.70914e-06
7.34613e-09
-0.00100386
-0.00649727
-3.67542e-05
0.00208719
-2.1713e-06
2.3443e-07
-5.1529e-07
0.00998816
0.00245898
1.81676e-05
-0.00133558
2.34507e-07
7.55688e-07
1.23868e-05
-8.47015e-07
2.77858e-06
-0.00368732
-0.000464306
3.95632e-08
1.0565e-06
1.08891e-07
-7.00266e-06
0.00107736
-0.000387228
-1.15442e-07
-6.24298e-06
-2.35752e-05
0.00313367
0.00168307
-2.16663e-06
-2.42087e-05
-0.00351396
9.26851e-07
4.63583e-07
-1.26504e-06
2.11622e-09
-7.32191e-07
-2.06718e-08
5.09941e-06
4.14285e-05
-1.04991e-07
-1.0758e-06
-5.17354e-06
-1.11556e-05
-1.87307e-07
3.28798e-06
-0.00358809
1.42338e-05
1.41825e-06
2.14421e-06
0.000306815
-0.00383492
1.36659e-07
1.05992e-06
0.000531448
-0.000873833
1.43024e-07
-1.37849e-06
-6.96402e-08
-1.87401e-07
-0.000968791
-0.000465626
-1.06965e-07
-0.0236941
1.93286e-06
7.55325e-05
-0.000443382
-0.00368563
-0.00103394
-1.20654e-05
1.15021e-07
-5.77395e-06
3.80231e-08
0.00170464
-0.000616436
-0.000717197
-0.00208097
-4.48192e-09
0.00138762
-2.64934e-07
9.64765e-07
0.00108369
-0.000541726
-4.85243e-07
0.00152825
0.0028645
0.00136298
0.00133284
-0.00675795
0.000886258
-8.43477e-08
-1.73414e-07
2.12354e-05
2.13373e-07
0.000152043
-0.00188557
-0.000336913
-0.000291162
-8.46245e-06
-0.00236929
3.14236e-08
-3.14407e-06
-5.62685e-09
-6.31414e-07
-6.00856e-08
-1.87476e-07
2.03544e-08
0.00444445
5.13249e-08
-4.5557e-06
-5.9199e-06
0.000205323
0.00255493
-1.77792e-05
-6.31407e-07
-1.17681e-07
0.00311362
-2.66321e-06
-3.64651e-06
-1.06303e-07
-4.82763e-07
-1.03528e-07
-0.00102882
1.79504e-06
-7.40231e-07
-6.77509e-09
2.30307e-07
-2.59236e-07
4.27404e-07
2.14933e-05
-0.0172209
0.00266823
-0.00701933
1.86837e-05
0.00245101
2.60687e-07
1.68571e-07
1.08934e-05
0.00220286
7.53506e-05
0.00624226
3.85301e-08
-2.57094e-06
4.32281e-06
2.84906e-05
-1.02134e-06
-0.00602185
3.31667e-06
-0.00247769
1.39628e-07
-0.000618118
-1.1711e-07
0.00108733
0.0021808
-1.57944e-07
-8.6192e-06
0.000206089
0.00137078
1.30774e-06
4.85811e-08
0.00123563
-1.75681e-08
-4.37407e-08
0.00284559
-5.33165e-07
-3.47418e-07
-1.05007e-06
-0.00191878
0.00551582
-1.08332e-06
0.00148103
1.70713e-06
5.44573e-06
0.000108264
0.00229519
-0.000843309
4.24354e-05
-0.00213724
-1.38789e-05
0.000938504
8.4659e-05
-0.00397805
-1.39932e-05
1.02606e-06
-0.00641848
2.9115e-07
-1.84008e-07
1.79085e-06
9.30267e-06
4.80904e-07
-0.00195711
4.04615e-06
-1.19058e-07
1.3496e-05
-2.91305e-07
1.31597e-05
-6.14614e-06
1.74021e-06
0.000188844
0.000264213
-0.0013923
0.000142671
0.000168825
-0.00179167
5.96831e-07
-7.3021e-09
-0.0036381
0.0013888
-0.000369683
4.34179e-07
0.000253154
-1.11543e-06
-0.000421635
0.00445786
-1.25734e-06
-2.05397e-08
-0.00245632
-0.0112849
-3.86861e-07
-9.63977e-09
-0.000620983
7.96026e-08
-0.00046775
3.00128e-05
-3.62088e-10
-4.22826e-06
-1.33707e-06
-5.83786e-07
0.0103361
2.40192e-05
-0.00690078
6.30903e-07
0.00294065
1.60927e-07
-4.77489e-06
-0.000268942
0.00168326
-5.81506e-06
3.21426e-05
1.79521e-06
1.81852e-07
0.00150474
-3.32576e-06
-0.0031282
-0.00264433
0.000199457
0.00136711
-0.00174493
-0.000218671
8.49267e-08
-1.4239e-05
-2.06612e-06
2.6719e-06
-0.000375096
-6.38065e-07
-3.95165e-08
-7.82593e-08
0.00019498
-1.49589e-05
-3.95269e-06
8.75687e-09
-1.88021e-08
1.1065e-07
-1.88816e-05
-0.000309132
-0.00395311
2.50937e-06
1.13438e-07
0.00380039
7.69718e-06
0.00649898
0.000339099
-1.79927e-06
-0.000542972
4.14416e-05
-2.45474e-07
-1.1918e-07
-5.34783e-08
0.000124642
-0.00526421
-0.00153246
-7.02788e-05
-0.00294513
0.000298011
1.96648e-06
-0.000296424
-5.34545e-07
0.000115912
-1.29887e-05
-9.013e-06
1.50887e-06
1.82284e-06
1.74898e-07
-0.00115287
0.000113348
0.000203856
0.000139881
-4.8762e-08
7.18076e-08
0.00139173
-0.000139895
-2.03486e-07
-3.24292e-06
-0.00175669
1.63312e-05
5.64014e-07
9.35781e-07
1.44854e-05
-1.50526e-06
1.79042e-07
-0.000239591
-0.000185904
-0.00811255
1.83559e-06
-4.02311e-07
0.000120711
3.86679e-06
-1.02712e-05
3.14563e-07
0.00160908
1.11993e-07
1.8134e-07
-3.63671e-08
-1.64164e-07
-0.00910097
1.95634e-05
0.00174193
-0.00459407
0.00238611
0.000227486
-0.000231522
0.00157655
3.28202e-08
2.01194e-06
-0.00347199
0.000119345
-2.94587e-07
5.37618e-06
0.00826648
-0.000231917
-3.56713e-06
4.44667e-06
-3.71785e-06
0.00129201
-0.00011986
-0.00136855
-0.00186417
-0.000390176
3.74131e-07
-0.0107229
-1.21715e-07
-2.42531e-07
-0.00647358
-8.11356e-08
2.10952e-06
1.76918e-06
-8.32667e-07
4.25009e-05
1.93216e-07
-7.96846e-08
-0.00161482
-5.59676e-08
-0.00370301
0.000221745
-0.0022357
0.000268939
-4.73033e-06
0.00268726
8.68103e-07
-0.00371218
1.17363e-07
-0.000341696
1.91986e-06
1.27559e-07
-2.19408e-07
4.79316e-07
7.30867e-07
1.47059e-07
-0.00541409
7.63741e-05
2.00124e-06
-0.00155484
0.000130701
2.55864e-07
-6.16207e-07
8.49442e-05
-0.00024661
-7.79459e-08
1.51219e-06
-2.03381e-06
-0.000287173
1.75204e-07
1.36379e-07
0.00203664
0.00220757
-0.0110401
8.09548e-07
-4.99271e-09
2.18295e-07
-0.000932954
-0.000152693
0.00626389
4.96393e-08
-1.68617e-07
2.55036e-07
-2.90826e-07
-0.0043361
-2.8763e-08
-0.000991208
0.000619987
0.00370286
-5.11136e-08
-0.000220805
0.00196657
-7.27834e-07
3.36273e-07
7.38642e-07
-0.00422739
1.04415e-06
-2.87975e-07
-4.25054e-07
-2.10683e-07
0.00224262
4.6253e-05
-0.00757659
4.58965e-07
1.03329e-07
3.32933e-06
-1.27302e-06
-2.69768e-07
-0.00407215
-0.00989379
1.58243e-07
-3.10912e-07
1.16325e-06
0.00223298
-1.08889e-05
-3.30362e-06
1.46638e-09
-0.00181311
1.53079e-06
-3.36557e-07
1.14978e-07
0.000149531
-0.00786199
-4.92823e-07
0.000252775
0.000299698
-4.01129e-07
-0.00416671
0.00154847
3.57842e-08
-2.39197e-06
6.31742e-07
-5.23216e-07
-0.000170696
-9.79105e-05
2.27001e-05
-1.1668e-07
-0.00409151
-0.0104498
-0.00026579
-0.00490611
7.87163e-07
-4.08901e-07
1.7979e-07
-0.000235674
2.7764e-08
-2.50196e-07
0.00165452
0.000191299
4.26508e-07
7.11206e-07
-4.09078e-05
-0.00444323
-2.58502e-09
3.22651e-08
2.41413e-06
0.00535419
0.000397971
-0.0109422
-2.00292e-05
-0.00455707
-6.55343e-07
0.00242482
2.82632e-07
3.7844e-07
-9.54225e-07
-0.000338007
-9.38785e-08
-0.000460516
4.64479e-07
0.00254115
-0.0078973
2.42419e-06
-0.00213005
1.69582e-07
1.5187e-06
-0.00152568
0.000129576
4.53189e-05
-0.00286568
-0.00453917
-0.00172449
-8.528e-06
1.04922e-05
0.00262373
-0.0015464
0.00686641
2.66918e-07
-0.00995104
-0.00649557
0.000251389
-0.00494823
-6.56994e-07
-0.00530219
9.94922e-08
-3.33435e-07
-0.0130562
-0.00174523
-0.00684769
-2.6849e-07
5.5444e-07
-0.0013803
0.00208821
3.38565e-05
3.62735e-05
-0.00237355
-1.46801e-06
-0.00380411
0.00255644
3.90522e-07
-0.00608075
-0.000931697
-0.00159408
2.55715e-08
3.18263e-07
4.61414e-05
-2.25431e-08
2.53482e-08
5.06103e-08
-3.93403e-07
-6.87415e-07
3.73127e-06
-2.80168e-07
-2.61872e-07
5.14765e-07
1.06814e-07
2.13207e-10
-2.53936e-08
-2.96762e-07
0.000255357
-0.000289466
0.000405328
-0.0037137
-0.00201136
-9.00454e-06
7.39833e-06
-8.40103e-07
9.06851e-07
-9.84461e-07
0.00297595
2.1631e-06
0.00264785
3.63496e-07
5.64197e-07
0.000159856
-8.2943e-07
0.00131958
0.00251766
1.78369e-07
-0.00144264
-1.98233e-07
0.0024762
-0.0071618
7.21521e-06
-5.81267e-06
0.00119967
0.00110358
4.31509e-06
8.54878e-07
0.00105494
0.000297411
-0.00259789
-1.17775e-06
-0.00253412
-0.00300163
2.90573e-07
0.00183646
-1.016e-05
8.45598e-08
9.75056e-07
0.000180405
1.27447e-05
1.05963e-06
-0.00361869
-9.62039e-08
0.00247511
0.00122038
-0.00554761
-0.00346158
0.0208543
0.000320416
9.03388e-05
-1.85268e-05
-7.5836e-06
-0.00769371
-1.02161e-06
-8.55291e-06
1.76795e-05
8.98851e-08
0.00150458
0.0116853
8.44762e-08
0.00112366
0.000156182
0.000277145
-0.00543095
-3.1477e-06
-1.23447e-06
-0.00320784
0.000707249
1.24784e-06
0.0003924
8.37645e-07
0.00188784
-7.82567e-07
-0.00298366
-6.68833e-07
-0.0056507
5.71515e-07
-0.000212907
2.5272e-05
-1.51298e-06
1.47702e-06
2.44709e-07
1.04676e-05
-0.00316391
0.0111506
-0.00356817
-0.00430312
-2.20424e-06
0.000284241
-8.47176e-07
0.00205987
-4.12506e-05
-0.00463988
-4.36511e-07
3.65232e-07
1.46802e-05
0.00121041
-1.93364e-06
-0.00216924
1.29032e-05
7.51204e-08
-1.53597e-05
7.04205e-05
1.78982e-05
-6.75765e-05
0.000339105
0.000112658
8.47131e-07
-0.00167989
-1.77835e-06
3.18678e-08
7.52195e-06
-6.16195e-08
1.24521e-06
8.82162e-07
-0.00561901
3.44063e-06
0.0018621
-3.21845e-07
4.40415e-08
-7.15599e-09
9.82552e-08
-9.98019e-05
0.00132654
0.00569905
0.000975895
0.00129654
-0.00428607
-5.8253e-06
-0.00807903
-0.000134271
0.00222666
0.00134466
0.00327353
0.00163725
1.47518e-06
1.24984e-07
3.81455e-07
3.35178e-07
-9.22937e-07
-7.0602e-06
-6.06146e-08
2.83677e-05
2.3111e-07
2.24523e-06
-0.00164122
1.77828e-07
-1.47943e-10
2.03927e-05
-0.00658568
-0.000733985
-1.8221e-07
0.000202358
-4.22106e-09
-7.37483e-06
8.13759e-07
1.81423e-06
-2.32931e-07
-1.85901e-06
2.11136e-06
0.0051463
-0.00197923
0.00162858
0.00840156
6.89553e-08
-2.52355e-06
0.000162989
-9.03559e-08
-1.15027e-07
-0.00124459
-0.00246732
0.00109646
1.80654e-07
-3.47351e-06
-0.00153746
-0.000843529
1.69366e-08
-2.22275e-07
-0.00025755
-0.00283399
-0.000254363
-5.59647e-07
0.00152284
0.000168293
2.0139e-05
-1.8064e-07
-4.51423e-05
0.00191391
0.00479064
-0.00569972
-0.000672328
1.24778e-05
3.8554e-07
0.00142816
1.23079e-10
1.15078e-06
2.50331e-08
1.4235e-06
-0.000634118
-0.000860294
-5.60588e-05
1.26419e-07
-0.00486976
1.94648e-06
0.00170843
-0.00789035
-9.3771e-06
-9.25706e-07
2.311e-07
-0.000968072
-1.54152e-08
4.24866e-07
-3.86755e-07
0.0082567
1.5172e-07
3.30854e-11
0.00424325
0.0010565
5.37601e-05
-1.37632e-05
3.0915e-08
3.25861e-08
0.00214328
0.00135634
0.00877745
-4.55261e-09
5.61511e-05
0.00194362
-1.76502e-06
1.46044e-07
5.41359e-07
-0.000927184
-1.7344e-05
0.00329455
1.44849e-06
0.000375149
-2.59472e-05
-1.13802e-06
-1.75657e-05
-2.14459e-05
-4.86306e-07
-8.06384e-05
1.21108e-07
1.69702e-06
0.00102496
0.00127426
3.74685e-07
-9.77476e-05
7.74772e-07
-2.73924e-06
3.43987e-07
1.36923e-06
0.00173792
1.9158e-07
-0.00475824
-2.81709e-06
-0.012953
-2.82109e-08
-1.48458e-05
8.75778e-05
3.45173e-08
-2.95937e-06
0.00190005
-5.55149e-05
-2.00168e-06
-0.000263898
1.38143e-06
0.00235611
-2.33133e-09
-9.3281e-06
-0.00497323
2.21167e-06
3.63778e-08
-5.22254e-08
-0.00671946
1.67925e-07
0.000243387
0.00123718
3.40195e-05
5.26811e-07
-0.000198359
-0.00115215
-0.00692579
2.13615e-07
3.4642e-06
-3.84772e-07
-1.59162e-06
5.98867e-08
-6.79038e-06
0.0130908
-1.72471e-05
4.86588e-05
2.17163e-07
-0.000272006
0.00600506
3.08585e-06
0.00129772
0.00171241
5.84203e-07
-9.17781e-06
-8.32846e-07
0.0131533
0.00156533
3.01745e-06
0.000183227
0.00177498
-9.45607e-06
-0.0379971
-5.42631e-05
-7.80846e-05
9.16281e-05
2.74834e-07
5.77477e-05
-3.447e-07
-6.2568e-07
-6.46442e-07
3.99085e-07
-0.00592411
0.00714855
0.00494467
0.00281347
-0.00537683
3.23265e-06
0.00333228
0.00923227
-3.84904e-07
-6.39484e-07
-0.000829231
0.00887573
-0.000960231
7.78278e-07
6.2487e-08
0.00104381
-1.64872e-06
4.19905e-07
2.46042e-08
-2.99291e-06
5.29003e-07
0.000225028
5.52311e-06
-3.82133e-06
5.31383e-07
-0.000847532
-2.2678e-05
3.82202e-05
4.98556e-10
1.33101e-07
1.20354e-05
-5.79006e-05
7.30158e-07
1.62355e-07
-2.67714e-06
1.12271e-05
-0.000848535
1.35204e-07
8.53127e-09
-1.02578e-05
0.000229092
-4.18789e-07
-6.10159e-06
0.00888503
0.00289232
0.000368259
6.51067e-06
-0.00285811
-7.86372e-08
-1.90317e-09
5.18475e-05
-5.9245e-06
3.40709e-05
-3.13503e-07
-1.35408e-06
0.0010046
0.00347202
0.0129228
1.40493e-08
-2.8298e-07
0.00108274
0.00182897
3.56485e-05
0.00274857
-5.82896e-06
-3.55587e-08
-1.48312e-06
-3.98835e-05
-2.10652e-08
0.0016692
1.10928e-05
7.47114e-07
-0.000232937
9.28653e-06
-0.0017324
-1.38509e-09
-5.09046e-06
0.00101108
6.58279e-07
0.00181728
0.000198301
0.000261713
6.07305e-06
-9.45743e-07
-7.34286e-07
0.000260449
-2.00105e-07
1.65423e-06
4.74761e-07
-1.08166e-07
-1.95679e-06
-7.89198e-07
-1.88449e-08
-0.000180412
-0.00906612
0.00533831
-0.000100125
3.64539e-05
5.60765e-07
-9.44766e-06
-1.04135e-07
1.21947e-06
1.04672e-07
-0.004127
-3.57485e-05
-2.83512e-06
4.46734e-06
-1.7229e-05
-0.000776946
8.3413e-06
1.63714e-07
0.000351717
0.000150425
0.00184168
9.6479e-08
3.19019e-07
7.31507e-07
-0.00120882
0.0118261
-0.00287197
1.39467e-05
0.00149541
2.15251e-05
1.59112e-07
1.74602e-06
2.96669e-06
-0.00174235
0.00542441
-0.000300381
-6.25593e-07
1.40617e-07
7.19348e-07
1.00826e-07
-2.91162e-07
2.53417e-07
7.8821e-08
3.78313e-05
9.62485e-05
-6.57155e-06
0.00204785
-0.000800996
-1.17932e-07
3.52352e-06
-3.74166e-06
-1.45367e-08
-8.86648e-07
6.18871e-05
-3.43632e-08
1.12254e-07
-1.02374e-06
0.00276954
-5.2994e-08
0.00612046
4.82536e-06
-9.95848e-08
-4.08134e-09
-0.00845869
0.00890186
9.75834e-05
-2.97156e-06
-2.25516e-07
-5.04319e-05
-1.28088e-06
3.80655e-08
1.63501e-05
7.82936e-08
0.00598231
1.39762e-06
-0.00276962
9.19738e-07
-0.00463384
1.82277e-08
-1.88087e-07
-8.64161e-05
-0.000757962
7.0231e-07
5.84249e-05
-8.79203e-07
1.26587e-06
-0.00770925
-6.44612e-07
-3.43923e-07
0.000213698
0.000354763
-0.000205765
-0.00419904
6.70093e-08
-7.27218e-06
5.83417e-05
0.000204333
-0.00455959
8.32969e-06
1.05282e-06
1.38555e-05
-7.60868e-07
-4.78974e-07
1.45192e-06
-6.44346e-08
-5.50025e-05
2.4922e-06
-2.51938e-07
6.29682e-05
-2.04021e-05
3.90582e-05
-9.87948e-05
2.21606e-06
6.67541e-09
-0.00107081
-3.14599e-06
0.00830783
3.35266e-06
-0.00424849
8.47288e-05
3.8028e-07
-7.64875e-06
-0.000946213
0.000825587
-3.94755e-06
0.00126072
-0.00281206
-7.98217e-05
1.40127e-07
-8.69325e-08
1.07186e-05
0.00167154
-0.000236913
-0.0108876
0.000377668
1.22787e-07
-7.46636e-09
-0.000369189
1.29533e-05
-0.0642907
0.0055956
1.00797e-06
-0.00229594
1.96844e-06
2.23757e-05
0.00124833
6.18662e-07
7.2386e-05
-5.88032e-06
-2.40955e-06
-2.74417e-06
-1.20298e-05
9.3614e-08
0.00137216
-0.00388168
0.00154275
4.1979e-06
-1.4905e-08
1.1835e-07
-1.44672e-06
0.000181088
5.56551e-07
1.10876e-07
1.77159e-06
-0.000401479
-2.29475e-07
3.05658e-05
5.17392e-06
-0.00017971
0.00152188
0.000178101
3.31039e-06
0.00160494
-5.23898e-05
6.32432e-08
-2.29387e-08
-0.000556341
8.09026e-07
-0.00493083
-0.00448497
-3.06717e-08
2.6288e-06
-2.98549e-08
3.92914e-08
-6.48478e-05
-5.24927e-06
-0.00206588
1.74607e-07
-1.83097e-05
-3.03807e-07
-0.00137008
-3.88707e-08
-1.01152e-06
-0.0075858
-2.5885e-07
0.00334576
5.96092e-05
4.09137e-06
0.0037018
-0.00358519
2.67803e-06
1.70823e-07
-0.00410224
-2.13588e-06
-0.000497773
-7.97502e-07
0.00142191
-4.2523e-09
-0.00480266
-0.00987206
-1.29061e-05
0.00420836
-0.00310459
-0.000942612
1.35468e-07
-0.00729257
0.00111709
-0.00438487
-1.19504e-07
-4.948e-07
-3.44011e-06
0.000398578
0.000201383
-5.2434e-06
-2.47939e-07
-8.42604e-06
1.46213e-07
3.15233e-07
0.00291088
9.32151e-07
-2.09522e-08
0.000405502
6.32926e-05
0.00030286
-3.20254e-07
1.42907e-05
2.47871e-06
0.00294649
-5.95651e-07
1.07957e-06
1.24299e-06
-7.08081e-05
1.25088e-06
0.000149275
-0.00596133
-4.09958e-05
-2.01778e-07
0.000584864
-0.00454155
-1.87964e-05
-3.79897e-08
-0.00130062
-0.000318864
2.91844e-07
2.10244e-07
0.00227178
0.00297954
-4.33703e-05
-8.55145e-05
-5.92922e-06
1.1446e-06
0.0039225
-0.000186189
0.00182636
-0.00912724
0.00110086
-0.00395888
-5.34606e-05
1.07019e-06
0.0126085
0.00177623
-1.68463e-06
-0.0052743
-1.65248e-09
-0.00535042
0.000341737
-0.0124641
-4.42894e-07
-3.22177e-07
2.45855e-06
3.35337e-07
0.00197228
3.35957e-06
-6.66324e-05
2.76923e-06
3.68891e-06
-0.000214445
-8.64153e-07
-5.82262e-08
1.31241e-07
1.2556e-07
-3.81811e-06
0.00119352
1.69832e-05
-9.97494e-07
-3.84248e-08
-1.92719e-06
-0.00284354
0.00123192
-0.000576602
-7.91429e-06
-1.85022e-07
6.08388e-08
0.0107646
-1.57743e-05
0.00187381
0.00358016
-6.98361e-08
2.37381e-05
-0.000182923
0.00087399
4.5472e-11
-1.05821e-07
-1.98606e-07
2.04556e-05
0.00112
-3.70015e-08
2.78472e-05
5.53503e-08
7.83233e-08
2.11593e-07
-0.00729024
-4.9387e-07
0.00126127
1.52881e-07
-1.47142e-06
-0.00345203
-4.87293e-08
0.00259214
0.000971194
-1.93611e-05
-0.00110502
-1.32005e-06
0.00119767
1.67443e-05
0.00151966
0.000371276
0.00417142
-0.00172133
-0.000189266
0.000406847
2.25553e-05
0.0029404
-1.92633e-05
0.000614131
2.71199e-05
1.03614e-05
0.00353031
-0.000609573
-0.000100585
1.9437e-05
0.00118847
-0.00594479
0.00319464
-0.000817047
0.000706129
0.00178428
1.75033e-07
3.50038e-05
1.21878e-07
-0.0117586
0.00229576
-1.0833e-06
0.00149704
-0.000778932
-1.55998e-06
-0.00460367
-3.51432e-08
5.76044e-06
0.000269837
1.72935e-07
-0.0168044
0.00247564
-2.20287e-05
0.00241623
4.55294e-07
2.75452e-06
3.89927e-05
-2.19998e-09
0.000109239
8.14678e-06
1.61427e-06
-0.000174118
2.7196e-05
0.00260539
-0.00586821
3.85904e-06
-0.0121701
-0.000401981
8.91732e-05
-0.00227972
-0.00464863
-2.10957e-06
-4.63924e-08
-8.7738e-08
0.00181402
5.00106e-05
-2.31176e-07
0.00197124
3.70472e-07
0.0347652
-0.000289529
-0.00464535
0.000197578
-1.93019e-06
5.97041e-05
-1.79413e-05
0.0035843
0.000847759
-0.00108051
1.40687e-06
0.000461312
3.20826e-06
1.43283e-06
-0.00161018
-2.45874e-07
-0.000310915
1.85446e-05
8.51114e-09
-0.0128907
0.00191099
-0.00364667
1.83616e-06
-1.62471e-06
-8.83554e-05
2.68741e-09
1.26488e-07
1.6065e-06
-2.48424e-08
0.00303002
-0.00284974
-1.74561e-07
-0.00071681
-0.00543971
-1.23351e-06
1.38486e-06
2.26262e-07
6.67293e-05
9.3415e-07
-3.21355e-07
-9.12445e-08
-0.00139386
-0.000174261
0.00111307
3.87503e-07
-0.00387958
0.00126405
0.00220345
-1.40646e-08
-2.24723e-08
1.03854e-07
-1.56509e-06
2.63593e-07
7.59996e-05
-1.17287e-06
7.84085e-08
2.33632e-05
2.87951e-07
-3.17927e-08
1.07627e-06
2.28469e-05
-1.95447e-06
0.00252616
-4.5971e-05
-1.30262e-08
0.00120777
2.29245e-06
5.51045e-06
-3.72894e-06
3.45336e-08
-1.37255e-06
0.00166234
-4.83388e-08
-5.94373e-09
0.00362601
-0.00186737
-4.10306e-06
-0.000324046
-1.68283e-06
-0.000294939
4.74122e-05
-0.000316382
0.00115178
1.5509e-08
-0.00214805
3.75432e-08
-4.73888e-08
0.00305188
0.00182725
-4.32817e-07
1.28161e-05
-0.00354046
-2.27278e-05
8.30312e-08
-2.32598e-05
4.47229e-05
-7.08929e-06
0.000334268
0.00269599
1.35133e-08
-0.00290382
6.25614e-07
0.00139923
0.00126811
-1.88395e-07
-8.09051e-05
-4.64869e-07
3.92064e-07
8.05425e-07
-3.53448e-07
1.21416e-05
-0.000293614
1.96305e-07
5.67392e-05
1.04036e-05
6.52662e-07
1.7226e-06
0.00337286
-1.53623e-08
-0.000349989
0.00158648
-6.22323e-07
2.34945e-06
-6.7471e-08
-0.00133803
-3.96072e-08
-1.58009e-05
9.77794e-07
0.00842132
-9.77531e-05
-0.000672904
5.91184e-07
-0.00501212
-0.000341594
-8.73603e-05
1.23336e-07
-0.00330244
2.28165e-05
-0.0122797
4.33933e-07
-0.000325326
0.00386742
-0.00209397
-1.7034e-05
1.37661e-07
-1.52388e-09
4.58533e-05
-1.93435e-06
-1.07954e-09
-0.000343368
4.32903e-07
0.00309415
5.59279e-07
0.00217208
4.35166e-07
-1.75768e-07
1.82447e-07
-0.0123542
-0.00470597
0.00120259
0.000188927
0.00130568
0.0017196
0.000354952
-4.05122e-06
2.08739e-07
-2.72326e-06
-4.67272e-07
-0.00475238
-0.000292608
-1.44113e-05
-5.71878e-06
-3.97875e-05
0.00230191
-4.65982e-05
-0.000633688
-0.00469702
-8.21824e-10
9.67453e-07
6.36737e-07
1.41285e-05
0.00132463
3.32538e-08
-0.0127872
-4.80605e-07
4.81207e-05
0.0023928
-3.40093e-08
-0.000392476
0.00603423
0.000236944
-0.00481619
5.03454e-07
2.03035e-06
-1.82709e-06
1.02825e-05
6.32657e-07
-0.000301684
9.16909e-05
-9.41647e-06
-3.89321e-07
-3.32787e-08
1.12517e-06
0.00135722
0.000130857
-1.24835e-05
-7.42302e-08
-2.82143e-07
4.58739e-07
-0.00190669
0.000193704
4.54565e-07
1.10266e-05
0.00123076
-0.00288921
3.57314e-07
0.00281329
0.00202777
-1.90887e-07
-0.00409973
-5.05202e-06
-6.63187e-09
2.21895e-07
1.40197e-06
-1.3611e-07
0.000864222
9.69055e-08
-9.2005e-07
6.85776e-07
-1.23829e-06
7.28657e-07
-1.44654e-06
0.000184819
-3.80813e-07
0.00145194
-0.00248254
6.01051e-07
-6.74115e-05
0.00357128
0.000998488
1.81376e-06
0.00185908
-0.000811112
0.00186198
0.00122865
4.87041e-10
3.08929e-05
-0.000222579
2.96829e-08
5.88996e-06
4.74263e-07
4.28853e-05
-9.77187e-06
-4.19238e-07
9.61947e-08
-0.000118314
-3.63573e-06
9.58642e-06
2.38545e-06
0.000179629
1.25098e-06
-0.000666448
-0.00264342
0.00197918
0.00161803
9.75661e-10
1.01535e-06
-6.18941e-08
0.00130844
1.59064e-07
2.83345e-05
-5.70964e-06
-0.000336079
-0.00261522
0.00351585
6.64673e-07
-0.00745501
-5.68007e-05
-2.65607e-06
0.000121422
4.35957e-05
2.33085e-05
0.00111282
2.26124e-07
3.62532e-07
0.023261
-0.000148211
0.0002408
-0.00170848
0.00123983
-4.19631e-07
0.00133972
0.0117007
0.0148131
-0.000603965
1.91743e-06
-2.97257e-07
5.87729e-06
-7.17053e-07
1.21324e-05
0.00104102
1.15704e-05
-1.22008e-07
-3.35969e-07
-0.00208675
-0.0205501
1.01427e-05
-0.00289164
3.60843e-06
0.00572564
-0.00365529
5.09225e-08
-0.0033452
0.00259602
0.00283176
9.03338e-06
0.00044038
2.29085e-07
2.33301e-07
-0.000206274
0.00325447
2.41232e-05
1.44693e-05
0.00473668
-0.00183011
0.00133367
-1.47025e-07
-0.008015
-0.000408422
-4.40775e-05
0.00141602
2.16278e-07
-0.00320599
3.89035e-08
-4.55986e-07
2.97052e-07
8.86884e-07
-5.11444e-06
2.78643e-06
3.33027e-06
-4.0958e-06
-5.51582e-07
-0.00420584
-5.20276e-07
1.87845e-07
-5.23155e-07
-3.94425e-07
-0.00143779
2.33571e-07
0.000360185
-0.00485806
5.87824e-06
1.1271e-06
0.000152668
-0.00394599
-5.5863e-08
1.8153e-06
1.4e-07
5.75882e-07
-2.83678e-06
-0.00141984
-0.00305205
-0.00702865
-0.00223748
-1.77497e-07
-0.000236186
-9.85284e-08
3.02213e-07
-0.0132217
7.56176e-05
3.67781e-07
-2.64889e-05
3.54189e-06
-1.59587e-07
4.40568e-05
7.92266e-08
-0.00527616
-1.00763e-06
-0.000576963
-0.00222987
3.0173e-06
-0.0074721
3.38849e-09
-1.19556e-07
0.000484446
-9.33653e-06
0.000393687
-0.00454706
-0.00764384
-5.34199e-08
-3.16512e-06
-3.15308e-07
-4.97429e-06
1.53979e-06
0.000486336
-1.27388e-06
-6.40665e-07
-3.56025e-06
-1.27034e-05
-0.000178676
-0.00264458
-9.40994e-07
2.38467e-07
0.000248946
0.0107996
4.22801e-07
-0.000156379
-1.73941e-07
9.11768e-08
-3.96456e-07
-3.96422e-07
1.2627e-06
3.72789e-07
-0.00028299
6.62556e-07
-0.00430131
-0.000760701
-0.000612273
0.000758399
-5.53674e-08
-3.3775e-07
-1.95094e-06
3.71603e-08
5.69614e-05
-0.00400219
-0.00042903
-2.0572e-06
-5.62445e-05
2.78457e-07
2.22882e-05
0.000398414
-0.00526182
0.00107879
-0.00038217
0.00140148
0.00289082
-5.13753e-07
2.35396e-07
6.79033e-05
2.09807e-06
-1.4864e-10
4.50883e-08
0.000180047
0.000206323
3.15919e-05
-0.00276167
-1.93755e-07
0.00214816
-7.43996e-07
0.00114496
-0.000804423
0.00191988
2.84928e-06
-4.38483e-06
-0.00550137
-2.58334e-06
5.51592e-05
-1.9676e-05
-7.19878e-06
-4.00849e-06
-7.11472e-07
0.00023365
0.0134238
-0.000123164
-4.13988e-07
-1.11293e-07
0.000634439
3.90437e-05
-0.000149967
1.67076e-07
-0.00349718
-0.0070816
0.003546
0.00298986
0.000984853
1.78577e-06
-0.000310403
-0.00381429
0.00053858
-2.50122e-07
-0.00284529
-2.13919e-07
-0.000244199
0.00534267
-0.0019375
-0.00265809
-5.09332e-08
2.05008e-07
-9.4932e-07
0.00220716
2.42958e-07
0.000217587
1.54313e-06
0.000155367
0.000297932
3.52422e-07
-1.026e-07
-2.06639e-05
4.97267e-07
3.68373e-07
-0.0029587
-0.00023458
-1.60137e-06
-1.90414e-07
0.00238822
-1.07335e-06
-3.60456e-07
-4.31141e-07
-0.00423062
0.00231444
-0.00476011
3.45095e-07
-0.00355023
-2.85582e-08
0.00303693
4.03471e-05
1.2208e-07
-1.97704e-06
1.06657e-06
-0.00905287
1.55369e-06
-1.38081e-06
0.000808845
2.59883e-06
-0.00250839
3.75166e-08
1.55773e-06
1.14036e-07
-3.89288e-07
-7.62544e-08
-8.98126e-07
-3.36008e-05
0.00129785
-1.28571e-05
-5.95684e-06
-5.12789e-06
-0.000150273
-0.000710464
0.00636311
0.000516602
3.98532e-07
-0.00241845
1.88628e-05
0.0164918
3.03318e-06
0.00465376
1.12115e-06
-5.43093e-06
1.9503e-06
0.00156474
-3.53143e-08
0.000358841
-0.00533974
1.29347e-07
1.63105e-06
0.00201819
-1.11787e-05
7.97744e-07
-2.08821e-07
-0.00420017
-9.02738e-07
4.04285e-05
1.41771e-07
5.56803e-07
-0.000237489
-0.00155659
-0.00879275
8.87935e-07
-1.53615e-06
-0.00388283
-5.36916e-07
8.41694e-08
0.000532348
-0.00524983
0.00407298
5.63068e-07
-8.9783e-07
-8.12101e-08
-0.00319701
-1.8248e-07
-2.90239e-07
0.00243588
-0.0370376
-2.01689e-06
-0.00743356
-5.00603e-06
1.23033e-07
-1.10839e-06
-4.81331e-10
0.00454289
-3.06048e-08
-5.56561e-07
1.71314e-10
-4.48752e-06
-1.0869e-08
-1.80574e-08
4.30796e-07
0.000838554
-2.6953e-07
1.60056e-06
-2.84655e-06
-1.3944e-05
-1.19092e-06
0.000410786
0.00190946
-9.54152e-07
2.49853e-08
2.36217e-07
5.61257e-06
-1.13087e-05
0.000213985
-0.000358039
5.13381e-07
-3.24373e-05
1.47998e-07
-0.00339089
0.000230614
-0.00077113
-7.75766e-07
-0.000128297
-2.70264e-07
-9.00735e-06
2.18601e-06
-9.45568e-06
1.98722e-06
-0.0121939
-2.16577e-07
-3.76071e-07
1.14222e-05
0.00160639
-1.61172e-05
3.55673e-06
0.00129129
8.10833e-07
6.92768e-06
1.08811e-06
6.0826e-05
1.30213e-07
-0.000909276
7.56287e-05
1.74681e-05
1.12748e-06
5.48193e-07
0.00420032
8.78072e-05
0.00709314
-5.38053e-07
3.51723e-06
0.00320227
4.60613e-07
-1.34679e-08
-3.4163e-06
4.2987e-08
-6.391e-07
-4.74448e-05
8.92412e-06
-0.00162064
0.00112829
3.22617e-05
-2.05283e-06
-0.00462247
-0.0103836
0.00378141
-0.00226877
8.24235e-07
-1.02465e-07
1.07469e-07
0.00183001
-2.53623e-05
6.94571e-07
-0.00167678
0.000174158
9.82841e-07
-5.0014e-06
0.00221853
0.00142776
7.62494e-07
0.000167873
-4.53166e-08
0.00147558
2.18311e-05
0.0184902
-1.21067e-07
3.94923e-06
-0.0105668
2.15505e-05
-7.62326e-06
0.00764062
-0.000576376
1.17508e-06
-2.31826e-06
9.47751e-07
-5.53513e-08
2.13595e-07
0.00138171
0.000352336
-4.52443e-08
-8.50639e-08
8.55196e-06
0.00021829
0.000205306
2.58631e-06
-0.00597154
1.89848e-06
0.0030951
8.36513e-06
-0.00339424
-1.35052e-08
7.74334e-08
-0.00354012
-0.00155428
0.00472141
-7.40459e-05
8.39624e-05
0.00154002
-0.00306374
-1.4775e-07
-0.00103436
4.28127e-07
-7.24777e-08
-6.12988e-08
9.51984e-05
9.26707e-06
-7.16692e-08
-1.56615e-07
-0.00350141
8.82979e-08
2.01337e-05
-3.64345e-08
1.65342e-07
-1.96591e-05
-6.26564e-05
8.36391e-08
-8.35542e-05
0.00133148
-2.51348e-08
-1.88534e-06
-3.14958e-05
-3.19593e-05
2.09682e-05
-0.00323722
-1.34695e-06
-3.89163e-05
-0.00137349
3.45781e-06
1.25206e-06
-0.000652981
3.39291e-06
8.53857e-06
6.91564e-07
-8.17833e-05
0.0220827
6.63272e-07
-1.42981e-05
-0.00840253
2.38479e-07
-2.56491e-07
-1.27878e-08
0.000653118
-0.00879989
0.0006835
8.94286e-06
-0.000131129
-0.00128393
-0.0102963
6.15459e-08
7.40997e-05
8.61118e-05
1.19276e-05
-0.000275956
4.31354e-05
-0.000252465
0.00101686
0.0266682
-4.49677e-08
-0.000312921
0.00266617
-0.000911897
-6.1795e-05
6.70746e-07
1.05466e-06
-1.88803e-09
0.000949404
0.00268686
-4.60756e-07
3.13942e-07
-0.00445537
-3.51218e-08
-0.00494486
0.000955985
-7.89524e-05
0.00291725
6.52117e-06
0.000100329
-0.00865262
1.84219e-07
-1.75101e-09
1.78761e-07
0.000503235
0.00130085
-0.00218651
-0.000103934
-0.00590907
1.96923e-06
0.00178733
0.00355206
0.00265436
-1.24004e-06
-6.26068e-06
0.000937898
0.000177683
4.53597e-07
-0.00397006
5.36364e-06
1.43446e-06
-6.24561e-08
-0.00779626
-0.00491047
-4.23683e-07
3.99076e-07
2.18554e-07
1.55044e-07
-8.86679e-05
-0.000492025
-8.37714e-07
0.00168996
-0.000142849
-5.9177e-07
0.000197728
-2.83754e-06
1.68452e-06
0.000295611
-3.22745e-07
4.20631e-07
3.56444e-06
1.11752e-05
-2.31865e-06
2.53212e-07
-1.97151e-07
-0.00308862
3.73228e-07
-0.0058149
0.000232389
0.00169932
0.00101078
-1.80725e-07
0.0122891
-2.80245e-07
0.000157351