/*--------------------------------*- C++ -*----------------------------------*\
| =========                 |                                                 |
| \\      /  F ield         | OpenFOAM: The Open Source CFD Toolbox           |
|  \\    /   O peration     | Version:  v2012                                 |
|   \\  /    A nd           | Website:  www.openfoam.com                      |
|    \\/     M anipulation  |                                                 |
\*---------------------------------------------------------------------------*/
FoamFile
{
    version     2.0;
    format      ascii;
    class       volScalarField;
    location    "650";
    object      omega_0;
}
// * * * * * * * * * * * * * * * * * * * * * * * * * * * * * * * * * * * * * //

dimensions      [0 0 -1 0 0 0 0];


internalField   nonuniform List<scalar> 
14479
(
0.0554799
0.0433718
0.0282255
1.33459
0.172951
2.29965
0.0222628
0.0218783
0.0226497
2.04349
0.144281
1.39402
2.84099
4.42195
1.31949
5.90401
3.04205
17.0509
2.75401
0.10108
0.0220793
0.0239002
4.78972
0.296352
0.0227041
0.0662096
0.062173
2.07163
2.53813
1.28781
17.1509
2.09379
2.62367
0.0219609
0.023518
0.022346
0.0221747
3.24548
0.0279715
0.191581
1.27518
0.027631
0.0310422
0.0270913
9.09577
0.0977754
7.46608
5.55336
0.0237697
0.0790652
0.0221597
3.67814
0.335315
0.149344
0.0236713
0.0224203
0.0911408
1.57838
0.0234279
0.14941
0.0281915
0.0224368
0.517762
0.16263
0.317267
1.90318
0.0368035
0.0294434
5.20215
4.22911
2.55203
0.115655
1.38354
6.79569
0.0220824
0.0226947
2.45364
1.48692
2.49432
2.57896
9.98383
0.022167
0.0344759
0.113197
0.0237668
0.0889245
0.146405
0.0221849
2.55568
0.0222948
1.79996
1.83474
5.0947
1.24263
0.0350133
2.67682
0.0234377
1.81438
0.0309164
1.78826
14.1265
1.57536
0.154094
0.0219727
0.0316698
0.0231987
0.228663
1.43742
0.0997992
1.30697
0.0313923
0.0243362
3.30757
0.159634
0.058761
0.0262388
0.0225376
0.458192
0.0242681
0.127579
0.023375
0.0221465
2.01192
0.0324612
1.50042
0.0221315
0.0274568
0.0223552
0.0220467
1.5729
0.0223911
5.05261
7.91065
0.0221831
0.096964
0.11235
0.492243
0.0227454
3.70528
1.30736
0.0228326
4.64614
0.0278194
0.408859
0.143907
0.0236431
1.68214
0.0225979
0.0511547
0.024442
2.57759
0.0285325
0.0220869
0.308231
1.70504
0.0402387
2.23879
0.0222685
3.52961
2.59556
2.25423
3.56649
2.6101
0.143924
1.70232
4.5691
0.0221314
5.11393
0.0221653
0.0235293
0.0226213
0.0863724
0.0223779
0.12395
0.0222911
0.239581
0.022182
0.0241402
0.11467
0.0236774
0.70118
0.0220764
0.02434
3.45392
0.0221282
0.0816468
0.0304574
0.026674
0.385925
0.45132
0.0221318
1.97836
0.0327578
0.0222709
4.35746
2.51587
0.370441
2.67371
0.0344573
0.0222943
0.0260626
4.00029
4.5857
0.362
3.01902
0.0252803
0.0226756
0.127518
0.0241721
0.0893569
1.47751
2.22087
0.0241321
0.0290459
0.0221584
0.179455
1.91876
2.17094
0.0221792
0.0498793
0.331055
1.52767
2.17697
0.0378776
1.89898
1.33893
0.0244735
0.0238887
0.0705405
0.0221794
0.0235662
0.0222403
0.0350045
4.27262
0.0264925
0.0251264
0.0870161
2.1843
0.0221652
0.0225879
1.33508
0.155169
0.0321087
0.0703119
2.11831
1.49512
0.0225991
0.0222608
20.7494
2.10583
0.0218073
0.139524
0.0221079
0.0220888
2.20404
0.381657
0.0222015
1.03803
0.0675855
0.29564
10.532
4.34749
3.22135
0.0974301
0.022189
0.0408566
0.0221907
2.09992
1.18949
4.9415
1.76199
0.0223666
2.88636
0.0230261
0.023813
6.52515
1.46169
0.0232859
1.79686
1.4657
3.35184
1.78595
2.23838
11.0712
0.0221902
0.0221658
2.90112
0.0227695
1.37224
3.03297
0.734204
8.57182
0.0975769
3.60594
0.0223622
0.0520373
0.0225569
0.0600163
0.0221817
0.033157
0.0221682
1.7503
0.0224926
0.0507202
0.0495373
3.52552
3.46629
0.346231
0.0255832
0.0272036
1.51178
0.140234
0.181076
0.0226937
0.0224889
0.0222608
1.35879
0.0553796
0.0221657
0.0220716
0.0240069
0.0221547
0.0235825
5.38005
0.746747
10.5238
2.80388
0.14994
1.82326
0.0222886
0.0410649
0.0556696
2.76143
3.11481
1.56943
0.0221476
0.0322332
0.170141
0.165146
0.0661825
2.77455
0.0364768
2.34689
0.021966
1.19209
0.022255
1.81429
2.03619
0.0222777
0.0711947
1.23486
1.84372
0.0281378
0.0221757
4.27957
0.0221025
0.0223112
1.52972
0.0274399
0.0223875
0.0224402
1.30852
2.07786
0.0225965
1.85767
0.0358854
0.0686588
3.18712
1.89899
3.30547
0.199889
2.07167
0.0917459
4.17327
3.65865
4.86132
0.103128
0.0524785
6.56379
0.0225393
0.0225943
0.0357958
0.149909
0.067454
1.97518
0.1341
0.0220979
0.339396
0.0221612
0.183458
0.0772691
0.0413296
1.57084
3.75959
4.28717
2.23198
1.06155
0.630923
0.0223087
0.0221745
3.93908
3.31941
1.19326
0.0387747
1.45562
0.0269265
2.08618
1.79849
0.0797491
0.0222511
1.95953
2.6424
0.0221355
0.0221655
3.06492
0.0219669
0.694156
0.351628
0.0221793
0.0398683
0.0308154
0.0427908
4.18147
0.165254
2.65286
0.0387037
1.51604
0.0221156
0.0314408
1.03183
14.8494
0.14158
1.74361
0.0245335
0.0393993
1.79577
0.0508133
2.39175
9.61442
0.364862
2.86545
1.93307
2.06434
0.0221088
0.160541
0.0346403
0.0697443
1.19444
0.0306774
0.0266935
0.0221589
1.34617
0.156935
0.149564
0.0222893
0.295489
0.022475
0.146696
3.02821
1.53872
0.0305164
0.0224303
3.63003
0.202668
4.08013
3.05294
0.0301186
1.40066
3.62324
0.0220846
0.0224269
0.0220256
2.37469
1.90195
3.9603
1.51958
1.62873
2.8335
0.0522596
0.366427
0.0244325
1.41537
0.060801
0.225225
0.0261069
0.0717528
0.0222824
4.62956
0.647409
2.15646
3.08232
0.0221714
0.0219718
1.79702
5.50621
0.0228022
0.0555417
1.28029
0.26002
0.0303736
0.0270231
0.283283
0.0319273
0.022315
1.6847
3.9324
2.64638
0.0417852
0.0234044
1.55096
0.0358398
0.0840216
0.0349685
3.54356
0.0222024
0.0221382
0.0221832
0.0222136
6.89055
0.166866
3.37138
1.55138
3.5183
1.5651
2.18399
1.78545
0.0224782
0.030314
4.42178
1.34805
0.0221714
0.179585
4.31242
2.74723
0.0500979
0.103895
0.24915
6.773
0.741699
2.25949
4.12479
1.86538
0.0424787
4.51893
0.0226794
0.0221591
2.86492
0.0221548
0.0244763
0.0424468
0.0413774
0.327231
0.0220335
0.0221756
2.75505
0.0225406
5.40923
3.00239
1.28455
2.65083
0.0439348
1.50953
0.0312548
2.38806
0.0225085
0.327497
0.0524852
0.0221763
0.0228446
0.0321235
0.0309226
0.0220464
2.34834
3.6684
0.0308985
1.45396
0.315556
0.0224743
0.0306984
0.207966
1.99502
0.0225472
0.0601365
0.02937
1.90654
0.0224448
0.0220276
2.01322
1.87163
4.20909
0.0654927
0.0221817
0.0222665
6.50489
5.4306
4.60463
0.0219895
0.0221682
0.0258783
0.0223417
2.37176
0.0221605
5.79001
3.19587
12.1204
0.0221405
3.01811
1.50325
0.0234968
0.0795331
0.0229434
1.39603
0.0496337
0.0221526
0.0221536
0.0222612
1.81657
0.315829
2.61304
0.0223245
0.0220468
0.0568013
0.0419383
0.0298039
2.29201
5.68463
0.0223185
0.0221251
0.0339895
2.01
0.0684769
0.0356171
0.0221845
0.462397
0.0480422
0.0221364
0.0219219
0.335099
12.7819
0.0222056
12.4629
0.284837
0.0221283
4.29066
4.56138
0.0224655
0.0262471
0.022777
0.0373281
1.78508
3.41999
0.14385
0.0221319
1.38255
2.6636
9.24264
1.79599
0.0530642
0.0222223
0.027015
10.3023
0.0219211
0.0227992
1.81337
1.2987
0.0257472
0.022804
0.361627
2.4446
0.0220825
0.0219873
0.0302612
2.04943
1.32311
2.99582
0.289783
1.74745
0.0345398
5.15524
0.0587886
0.0222873
0.0300069
2.07885
0.0221383
2.15794
0.0322663
1.4692
4.56908
0.0517594
4.52078
0.022803
0.048255
2.44178
0.312755
2.68986
2.86763
1.79878
2.78421
0.0314042
0.457089
1.48002
1.34365
3.47073
0.0221558
5.89128
2.70579
0.357311
2.56884
0.0267298
12.6606
0.0220991
0.026772
2.88856
2.14837
2.37957
0.0227811
0.0226852
2.20489
1.81468
0.195499
0.505008
4.02747
0.0256312
2.37769
5.06033
0.023822
3.53966
1.87316
2.36993
0.0220368
0.0225642
2.25726
0.0222695
0.0221327
0.0219068
0.0224619
0.0619279
0.0689002
0.0266689
0.0221273
0.0223327
0.0221423
0.0222803
0.0222746
0.0235151
1.49988
0.31513
1.2853
1.58986
1.30599
0.228529
0.0359114
0.0225094
0.0247119
0.0668282
3.60704
0.0275246
1.83227
0.0391393
0.0301
0.384886
0.0382066
4.87047
1.48647
0.0222495
4.13638
0.0221409
1.88841
2.47154
0.175846
0.0911833
1.79664
1.87418
0.0532032
0.0223256
6.82682
1.37419
1.31532
0.0241832
2.18756
3.17473
0.022318
25.2128
0.332164
0.0219772
0.0462906
1.39295
0.262312
0.0278634
1.91409
0.0220965
9.24992
4.5636
2.33806
3.94175
7.20443
1.28716
1.16674
0.320419
0.198086
2.54891
0.0611601
0.082343
0.13413
0.0224507
1.53592
4.14697
0.0219736
2.11283
2.73558
1.2757
2.52523
0.0226736
0.0362833
3.22391
1.94691
0.089862
2.73593
0.0622683
21.4303
0.0261708
2.97827
0.026741
2.57753
0.0385507
19.2757
0.171673
0.0238305
0.0613074
0.0222492
0.102792
2.65921
23.103
2.90279
1.49878
0.168324
1.41384
0.0257214
1.89575
0.640531
4.07485
0.0226384
0.0336858
0.131308
4.57353
0.0240823
3.09371
0.272939
0.0219768
0.0850286
4.79761
0.174237
0.487631
3.63316
1.39328
0.0226382
2.15305
0.0299187
0.0220295
0.0601197
0.022626
0.0292939
0.0246437
2.32058
0.0318975
1.85284
0.0228936
0.021979
0.0221281
0.0221901
2.11218
1.54079
3.68921
1.88665
1.5364
4.17903
0.0664354
2.63394
2.90469
2.68121
4.56702
0.650409
1.52299
0.0404803
0.0223137
0.022551
0.0223528
0.110985
0.101194
0.0223991
0.0628618
0.0625296
0.0850274
1.30622
0.0225418
0.0222469
0.0977092
6.13831
1.47305
0.0343365
1.2483
0.0220471
0.145266
0.022777
0.0247241
0.0221637
0.025641
0.0522263
4.66549
2.57058
1.79664
4.07703
0.0221202
0.121921
1.22895
0.0221968
0.0221667
10.7425
2.06913
6.97015
0.0266194
0.917244
1.90159
0.748081
0.0219596
0.0221535
2.12301
0.370536
1.46683
0.0318341
2.11409
0.328513
0.0997932
0.0220099
0.578754
1.52191
4.21568
3.78932
1.47988
0.301823
0.024882
21.4116
0.0222613
0.0338262
0.0219544
0.0278614
5.54786
2.05148
0.35754
0.0221381
3.9464
0.0302741
1.73889
2.62164
0.072882
0.0243526
0.0705664
2.1494
0.0221086
0.0236583
0.0225441
3.80946
0.0219981
0.0222734
3.9752
7.2361
0.271097
0.0661806
0.0223086
0.0223156
8.77226
5.38097
3.63745
0.022243
0.27498
1.51088
0.031539
0.0218539
0.0336208
24.8557
0.0982628
2.02192
0.0264967
1.31286
0.124743
0.0415491
0.317731
0.102168
0.0221889
0.268764
0.0223191
0.0302122
1.98914
2.05607
0.0221887
0.969922
0.0225726
0.031701
0.0223296
0.0246237
1.79844
0.0223515
1.73294
0.0380482
3.01127
0.0220413
0.0766015
2.05364
0.0220951
0.0324423
2.11726
2.27071
0.0667092
1.76557
0.0506873
21.539
0.0226034
0.0439167
1.78905
0.0686046
0.0221891
0.0224799
2.25996
0.0221181
3.83869
6.47376
0.119358
0.0520546
4.5674
7.80598
2.51725
0.0222368
0.0487617
0.0850657
0.036766
0.0221252
0.101628
4.84332
0.0836413
2.07408
0.0243988
1.62571
6.88879
0.264188
0.396776
2.96587
0.0222371
0.178464
0.0625059
3.77975
1.85035
0.0275489
1.84277
1.52075
0.0624756
1.70966
3.04283
4.75596
0.514353
0.0223918
0.36737
0.0222489
0.0222101
0.0281927
0.0221883
2.95049
3.47997
4.59515
1.83806
3.29163
2.32005
1.4907
3.43942
0.0772497
0.0442564
14.0009
3.50575
11.9759
0.0222159
0.022276
1.91454
0.0265775
0.0398602
0.0221512
0.103363
0.0227739
1.60223
0.0349634
0.204845
0.0329225
2.08335
0.30907
1.52926
0.0222511
0.0243287
0.1479
0.604857
0.0225692
0.0381468
0.0386648
0.230243
2.35569
0.0263902
0.0220335
0.0588327
3.52798
0.0222254
0.0565435
4.7032
4.50017
1.28559
0.0384329
8.54963
0.0219937
0.0222397
2.95729
0.189212
0.130934
0.0221763
0.107418
1.61593
1.50191
5.27968
0.0225232
0.0222192
2.85757
1.48219
0.114798
1.4961
0.0829601
0.0222336
0.0265977
2.14659
0.0229886
1.85247
0.276301
0.0246986
1.31362
0.332067
1.37972
0.0222571
0.0426876
0.776462
0.0326395
1.81599
1.49501
3.73073
0.0369375
0.0601527
0.0266796
0.298396
0.0221699
0.0366546
0.120315
0.0221026
0.206839
0.024593
0.0222624
0.620613
2.23849
3.40407
8.09039
1.01421
0.0308674
0.0719867
0.0221923
0.0294484
0.0219026
3.88892
0.186643
0.0400169
0.0400218
0.0642199
8.00423
0.167738
0.0220169
1.28567
2.14707
1.52668
0.0221752
0.022194
0.0238658
7.16373
1.19514
1.81516
0.319565
8.9558
0.115974
0.022776
0.035727
0.0303869
2.23798
2.4929
1.44693
0.0244653
0.0339776
0.0230426
0.021974
0.0221733
0.0220221
0.0220323
1.49669
0.328217
0.0548241
1.8796
1.19251
0.0271421
0.0361488
9.14664
0.0223137
0.0276846
1.79643
0.0221708
0.0220388
0.0375171
1.92939
0.0220831
5.83283
0.282184
0.0221697
0.0220889
3.62109
16.82
2.30458
0.0356132
0.022154
0.427362
0.0319625
0.0220366
1.70821
0.0223994
3.62689
0.142749
1.54511
0.0551009
3.19124
0.0386326
0.0218416
0.29961
1.39342
0.0230189
3.09338
0.0966857
0.0347863
2.53893
0.0232544
0.0221657
1.35714
4.52326
1.35159
2.63219
0.021918
0.0841287
0.595401
0.605092
3.9711
0.0335002
0.0285057
0.0944633
0.0371771
0.0386652
0.0304626
0.0222076
2.7965
0.0316298
0.0221739
2.79606
0.589829
0.405944
1.2066
0.0291172
0.0222622
3.41278
0.0535587
3.52109
0.157697
1.45065
0.498322
0.0225694
0.044379
3.82068
6.66838
0.0341367
1.79217
1.98819
2.8573
0.0219656
0.0220186
0.152735
1.71828
1.56953
3.03486
13.3625
0.0219235
0.0221603
2.22831
0.136577
2.36582
0.620857
0.0241235
3.23358
0.0709715
0.0935131
1.84549
0.0222797
0.28521
0.0403446
0.0648033
0.0655303
0.172902
0.0221009
1.52872
5.35831
2.1194
0.0662383
0.022429
0.0371232
0.0416262
1.62752
0.0231596
0.0221823
0.0383214
7.52366
0.0221236
0.43114
0.0523645
2.10763
1.53164
1.27455
0.882067
0.921699
1.34516
0.0226417
0.0220984
0.492882
0.0225418
2.43337
2.27028
0.0220827
0.0414361
0.0222549
0.0221653
1.95284
0.0988249
2.24205
0.023113
0.0924048
0.0221879
1.41283
0.0224707
0.0375427
2.53337
0.0234685
1.50749
0.294743
0.141356
4.1973
2.29927
0.0302912
0.0220749
3.89779
0.0540483
14.1651
0.0267163
3.42236
0.0221802
1.79513
3.58558
0.124558
1.78505
1.55923
0.637984
0.024003
2.52101
0.859549
1.55215
0.022132
0.0233551
0.0648586
0.439066
0.335445
0.162955
0.0246802
0.110338
0.0258233
0.0349685
1.46833
0.0501786
0.0224192
1.34152
0.292092
5.95022
0.065077
1.64188
0.0673694
1.74426
0.0528803
0.0337235
0.0287042
0.480157
0.0634499
20.0481
2.4083
0.130226
0.0221452
13.061
1.5008
0.0874362
0.0220986
1.3287
0.566572
0.0328603
0.0220379
2.06913
1.46951
0.196857
0.649023
0.0976567
0.0259771
1.7287
0.574461
2.09653
11.7526
1.58871
3.52619
11.5599
0.0311189
3.57916
3.51318
0.0581972
3.21332
0.0222569
3.03438
2.17144
2.87377
0.0221988
0.0255759
0.0614378
0.0236357
1.80342
0.0657491
0.555537
0.0332538
0.131722
1.20055
0.0243952
0.022424
0.0219613
0.0236319
0.0489019
4.98506
3.19102
0.0348414
0.0380734
0.0293096
5.00278
7.05182
1.90561
0.148334
0.0221426
0.0317134
3.6892
0.224962
2.69325
1.51902
0.0224926
0.223513
3.10931
1.92835
0.0222691
0.022193
0.0238237
0.0936383
1.55333
0.0220928
0.138326
0.024928
0.0220839
0.0226598
2.29911
0.0222194
1.97482
0.0225681
0.0259244
2.22432
0.0220709
5.37963
1.51591
0.154603
5.77289
0.0322931
1.84864
1.42365
1.52379
1.82798
1.73807
1.43574
2.13921
1.3049
0.149672
22.9224
0.106038
3.88048
0.221745
0.108987
5.17353
10.2658
2.01015
0.135749
1.61941
1.94772
14.0806
2.59435
11.9523
5.75601
0.0221857
0.523899
0.0225513
3.00195
1.47137
0.0254297
2.16327
0.67701
0.0255651
3.77523
0.0220762
0.0845767
1.25651
0.0226943
26.0664
23.2178
0.186771
2.89967
0.0228908
0.059667
2.16664
0.0222463
0.322702
0.114295
0.0230057
3.50603
0.186118
2.58564
5.83229
0.171949
3.2522
0.317862
0.223084
8.02377
3.2706
0.0564223
0.0221726
0.0237261
1.51739
2.63493
0.0277249
1.51457
0.0222703
4.54277
1.1959
2.53236
2.13677
0.0269285
2.79221
0.0594613
9.76195
0.800618
1.82291
0.0371884
2.03155
0.0319365
0.067534
3.23164
0.115225
2.39125
0.104827
0.0325443
3.16847
2.76128
12.596
0.0555657
0.0418513
1.78543
0.0222685
0.0223528
0.0301103
0.022396
11.8592
13.5688
0.0222978
1.20551
2.03001
0.064664
0.0283693
0.0244793
0.230939
0.0249095
0.0222012
0.0222879
0.290259
1.71746
1.5483
0.030681
1.455
4.26539
1.64533
0.0220718
0.0218331
0.0220548
0.0818249
0.0534532
2.47223
0.0650731
0.0304025
0.218765
0.0227997
0.0221669
0.0254384
0.132969
0.0737026
1.51148
0.918708
0.0221583
5.02592
0.0425822
0.0930344
0.107972
0.0421219
0.0266146
1.85378
0.0222765
0.0222506
3.79843
13.4944
0.054332
1.28473
0.0538719
1.35021
0.251222
1.7287
1.53531
0.0221416
2.51481
0.0219581
0.0222392
5.01954
2.9798
0.022237
1.86437
3.89618
0.134246
0.0222988
0.328154
2.21469
0.110887
1.23321
1.51263
0.0220492
1.34576
0.041372
1.53669
11.9566
0.0222339
5.9362
0.0325839
0.0222611
0.0245891
0.0221385
0.232957
1.01206
0.022257
0.204777
0.262801
0.0380688
0.0246715
1.519
0.021808
1.30343
10.7396
0.0419181
0.0519336
0.0220535
17.0238
0.0221658
0.0604376
0.0243602
4.41185
0.939895
1.78272
0.0514863
7.74413
16.0864
1.21726
0.0218178
4.70998
0.168262
3.11615
0.0235847
4.10956
3.02442
1.2948
0.136019
0.0221293
0.0222321
0.113228
1.3596
0.0222562
1.24572
0.022542
2.18307
0.0273293
1.50407
0.0780729
0.0220668
0.0228559
2.7568
4.05644
1.55342
3.07724
1.84443
2.08097
0.804618
0.0531352
0.0221354
0.0268474
0.0259761
12.3586
0.31091
0.072283
0.0281146
3.57697
1.50395
1.38618
3.69426
1.73093
0.0219142
0.0243599
0.04156
0.0899724
1.54606
0.0223893
2.66726
0.022184
2.20569
2.90799
0.02496
1.70558
4.30075
1.30108
1.47758
0.0342745
0.157947
0.0255449
0.0500895
0.112613
1.51267
0.291612
0.261508
0.022206
0.0220271
0.0405137
9.9728
3.9852
0.179912
0.0220724
0.0225996
0.0223207
5.5867
0.529659
0.0247145
0.114883
4.61672
4.70305
0.0400882
20.4602
3.50851
0.0222606
1.78997
0.109258
0.022148
0.0224553
0.0277383
0.0222373
3.29957
0.0230059
0.024791
0.0222914
0.0351094
0.0222683
0.0230305
1.71795
0.0237328
1.55311
1.99135
0.0243478
1.45837
1.48789
7.62087
0.0302589
1.52466
23.481
2.212
21.911
0.0222597
0.134162
1.57574
0.0221893
0.146639
0.0263246
0.28975
0.084891
0.0346556
0.0532253
7.96857
0.0894767
0.147478
0.0273446
0.316846
0.0389031
1.68759
1.26628
1.86909
17.095
0.0222697
0.028849
0.022274
4.35057
0.0223135
0.115677
0.0770946
19.5871
3.61257
1.49785
0.0242363
2.28722
21.2577
0.023022
1.76519
0.256852
2.27285
6.70259
0.0249318
0.0232991
5.02508
1.3344
2.40569
1.38287
1.71179
0.0221784
1.85955
3.61144
4.11126
1.79484
0.0266898
0.030379
0.0424604
0.0233228
0.154023
13.6594
0.167625
0.0305203
0.0221671
6.3416
3.15355
0.288016
2.27405
0.0441027
1.00689
5.82271
0.0222196
7.51065
1.52234
2.42689
0.0631025
18.6055
0.0222648
0.0483825
1.45613
1.53278
0.325984
0.118251
1.69122
7.59394
2.0678
0.0226615
19.0937
6.00884
0.411778
16.6536
0.0298464
1.0867
0.0224292
0.0287731
0.0224979
0.0620008
0.0233631
0.0475563
0.0985662
0.155574
0.0235853
1.91711
0.0311671
0.0221819
0.0244068
0.0448427
4.75252
0.0221221
1.25212
2.35423
0.143557
0.0286999
1.29504
1.44838
0.0222225
0.054203
0.0222037
0.0259282
2.66573
0.853971
1.91578
2.45291
1.97686
0.0222482
8.78972
0.0224127
0.0368999
3.04035
1.37349
0.023108
0.302389
0.0994213
0.0227395
0.198839
0.0223593
3.80013
0.0231499
8.40156
2.37218
0.0271849
3.52716
0.0222879
0.0221645
2.27443
0.0549283
1.4418
1.76331
2.36718
0.0220408
0.0599443
0.0576272
0.0410343
0.0322907
12.8411
0.0440251
0.0222516
0.0366198
0.0768882
1.41169
4.21515
0.0223079
0.0515468
1.29657
3.86177
0.0567548
1.66573
0.0236133
0.0294332
0.0579351
0.0221731
0.0308067
0.0223103
2.11426
0.0676634
2.48097
4.7702
1.75905
1.83906
0.0220404
0.0261813
0.0518724
0.0221884
0.334672
2.03512
1.41858
0.0262188
1.19787
0.0221336
0.223607
1.24991
1.58095
1.55108
1.59238
3.27265
16.4737
0.0255394
0.0221744
1.33398
0.0270638
0.0222434
0.0222024
3.35326
0.641009
0.103687
1.90484
0.0221713
1.50053
0.0570387
1.85034
3.43256
4.84444
0.0270436
0.061399
2.84229
0.0576807
0.27957
0.165978
0.0383315
0.127242
0.0297314
7.67976
4.11812
1.74641
0.0449201
0.022118
14.2067
2.1196
1.30202
0.0221962
1.42687
2.3934
1.48888
2.97354
1.88489
0.0296803
1.40244
2.31067
2.29431
0.0225996
4.32767
0.0234942
0.457153
1.97002
7.58572
2.08683
0.0222524
0.0351777
0.0775789
1.72325
0.0372071
1.55424
0.0245186
0.363359
4.71798
0.022424
0.0221989
0.131551
0.0248689
0.0231953
3.493
3.47324
0.0514486
0.0227608
1.49692
0.0234194
0.022178
0.023028
1.84995
1.51267
1.45641
0.0228132
5.92265
0.0222584
3.0883
3.09137
0.0222786
0.0426005
0.0270342
7.72519
0.0482822
0.0865564
7.35495
0.0229276
3.55245
0.0219702
0.0230881
0.0220894
0.0221648
0.0224082
0.0234597
0.829476
1.98121
0.295413
0.0393431
0.129389
10.4782
0.810789
4.698
7.96653
0.022251
2.5631
0.101113
4.97856
0.0279855
4.92663
0.0237976
0.0954756
0.0277136
5.20126
0.0221085
1.31218
17.769
0.0238771
0.0731725
4.81508
0.0506409
0.0332848
0.0223086
4.47542
0.0239617
0.394812
0.022237
0.0227839
1.25683
2.38079
2.36308
0.0223311
0.025589
2.93358
0.0221745
0.022073
12.2777
3.35724
1.66298
0.0223036
0.0373067
0.0221622
2.38703
0.0459065
0.0231074
2.75487
1.21823
0.0511485
2.33529
0.0918955
0.0221545
0.0280489
0.0222026
1.67985
0.0220925
0.0240268
0.0221909
0.214638
0.0221736
0.0221702
0.0233634
6.0609
0.036319
0.0250155
0.0577864
0.147128
0.0419266
1.38306
2.18426
0.0285196
0.022185
0.0581651
0.230071
0.113189
8.99029
1.25144
0.0230105
1.50247
0.0220962
2.21912
1.90717
1.7785
0.022928
1.88182
0.0221675
0.0312056
0.0490051
0.061325
0.0389166
3.13971
0.0236806
0.0252148
0.175227
2.71074
0.0494818
0.0773939
7.85266
0.0255911
0.696247
0.0328941
1.3594
0.0297774
0.717307
0.554744
0.216321
0.031568
0.0234276
1.96716
2.1662
3.43822
0.0234163
0.0746882
22.4532
0.0507298
0.0219623
0.0596831
0.0239432
0.0232161
0.14415
0.0806051
1.30938
2.32012
11.5612
0.024903
1.96059
2.45229
3.15105
2.08509
0.0234238
0.0221647
0.0224071
9.79977
0.495077
0.0339938
4.06307
1.74366
0.0236187
0.0529383
4.16722
1.70528
0.022603
15.3248
0.0220615
4.50867
0.245603
17.3357
0.0348023
0.055427
3.51194
0.268783
2.13438
3.45343
1.28375
0.0233024
0.026187
0.0577915
0.0222664
0.037217
3.26011
2.0851
0.0222598
0.0221058
0.180789
1.562
0.502885
0.0354133
2.22944
0.0243314
2.96429
0.235551
1.44748
0.0224461
0.0249547
1.80461
14.7451
3.45404
2.07767
0.308607
1.70734
4.11139
0.0220708
1.25713
0.0378946
0.0220819
0.0220399
1.05115
0.256871
0.0220021
0.0222239
3.49401
0.0230028
0.173313
0.0225443
0.0223189
0.31161
1.87333
0.0224879
2.14133
0.580842
0.0220538
0.0416029
0.253574
0.173793
0.109386
2.22065
0.024391
0.94148
1.3472
0.245115
0.023706
1.50276
0.0229657
0.10751
0.0234819
0.57445
4.2272
0.0223497
0.35866
2.8062
0.0308091
0.022136
0.0338773
14.9515
2.86699
1.77085
0.134101
0.406551
6.7226
4.37976
0.0225399
1.77644
0.706289
0.11297
1.73283
0.311674
0.496893
1.7331
4.88647
0.0390763
1.43951
14.2982
15.3068
1.89064
2.61456
0.0241411
0.040272
1.70771
2.89886
0.0222053
0.0223096
5.01562
0.0222602
1.52454
2.09315
3.45633
4.42531
0.029714
0.550296
2.91597
0.0219379
0.0222567
0.0476548
0.425754
1.83148
1.80269
1.28196
2.49285
0.0340296
1.71094
1.7471
1.89689
0.0607373
0.0541407
1.74917
5.54094
0.0229719
1.46126
0.174888
0.0481154
0.0222086
3.00484
2.36484
0.0222424
0.0221822
0.0228757
0.0223187
1.09642
1.77219
0.0337718
2.90419
0.411671
0.0222116
1.44675
0.0274905
0.0250986
15.8895
0.022182
0.0254507
1.3216
0.0550779
0.166005
0.0231252
0.0223949
1.91154
0.0538071
3.2336
1.27552
2.61714
1.60146
0.0218336
3.84426
0.023298
1.68089
0.0221831
15.4746
1.49831
0.024658
1.94739
2.11758
0.0248185
0.240939
0.0219367
6.86833
0.520385
0.0315761
0.0221508
0.0559923
0.0222708
1.75843
0.0480454
0.0221047
0.0222428
4.06141
0.3327
0.0389713
0.0219771
11.0018
0.0268745
1.43323
0.0237216
0.0259832
0.0255287
0.0506676
0.0222899
0.277813
0.0256338
2.23452
0.0248159
0.0244986
0.777346
2.75458
0.0233067
4.0822
0.0263059
0.0446007
0.0221844
2.15551
0.603256
0.205996
2.30474
0.0220765
0.161486
1.03735
3.70487
1.0765
0.0221918
2.05053
1.5987
0.0642009
2.69534
0.0306742
0.0583351
9.14087
0.0218538
0.0256925
1.04565
2.7203
0.0225718
0.0572967
1.28096
0.0234721
1.29531
1.98578
2.91498
1.73891
0.0245089
1.40513
0.0259686
0.0238068
0.487587
0.0979402
0.0602454
0.0230813
0.0403771
0.0499595
0.0223505
0.0223982
0.0273587
0.0359735
0.022163
0.0251942
0.0223076
0.511282
1.52573
0.0517253
0.0220231
0.0897505
1.64276
0.0366587
0.0227952
0.022189
0.884648
0.0218257
4.50551
0.0229038
0.0528829
0.0220266
0.093167
0.078665
0.0343949
0.0820104
0.0294028
1.82881
5.92283
0.0221439
0.0221657
0.0226804
1.45345
1.40898
1.59058
0.174632
0.243539
0.0219703
0.0231503
0.422536
2.75788
2.56571
0.052876
1.10188
0.0222001
0.383735
0.0220284
0.31261
0.0588489
2.30531
0.0234752
0.048623
0.0220762
0.220203
4.87589
0.0332736
1.36706
2.92528
1.77707
0.441261
0.0299831
0.030536
0.0221623
4.58202
0.0288065
0.140519
0.687396
0.0376055
0.0221903
0.0251516
0.0223609
4.2784
0.0260888
0.0226988
1.79747
0.0221182
0.0389605
0.10327
0.0254132
0.262649
0.0223326
0.0557561
0.0300651
0.104188
0.0222909
0.0222141
0.228296
0.220899
2.27262
0.684315
0.846218
1.98104
0.0221876
1.7509
0.194017
0.379889
0.342691
0.0244835
0.0607821
0.0275395
0.0229628
0.0226197
1.9074
0.219404
0.036976
2.07235
0.0258409
3.21203
0.0331567
0.0545507
0.0233467
7.24527
2.08967
2.93681
0.0256034
0.0220471
0.0371013
0.0240584
1.59296
0.170504
0.0311085
0.0222033
0.182244
0.119118
0.0228813
3.79469
3.74781
0.0518422
1.99915
0.0490691
1.32343
0.0278448
0.0601419
2.162
0.171928
0.0434771
0.513305
0.0995733
0.0257444
0.0221134
0.0221151
0.197351
1.86804
0.0359631
4.10886
1.27332
0.122564
0.0543637
0.0247285
0.0221927
0.0242038
0.109354
0.153645
0.0763918
1.69529
1.71801
0.0221844
0.022439
4.12903
0.0230278
0.0219227
0.0224692
0.285643
1.24089
0.0232601
0.358675
0.0219901
0.0242253
0.0591636
7.94276
1.52887
0.128021
7.01335
0.28444
3.45962
5.49243
1.41551
0.0220246
0.022186
0.0238353
0.0456764
2.55965
2.47064
1.27274
0.0357138
0.0226095
0.0229506
0.049563
4.79385
0.0221703
0.0551218
0.0952786
0.0361705
0.0223011
0.0365957
1.72457
0.0227898
0.0225113
0.0222668
0.0222242
0.0221704
2.29111
0.0479543
2.74699
0.0481028
0.263342
1.23037
3.93027
0.0229907
9.90984
0.992191
0.463464
0.120931
0.101794
0.0228516
0.0445071
6.63064
0.0224756
8.7459
0.058091
9.41492
0.0226179
1.84528
0.0266985
0.0808143
0.2765
0.0220776
0.0684496
2.32408
0.302842
0.381685
0.0243137
0.0221986
0.405555
0.0230295
3.10096
0.0242303
0.0584897
0.555623
0.348929
0.0221822
1.14745
0.309823
0.0224022
0.0708719
0.0895075
0.211998
0.0223936
3.93246
0.0278367
1.89237
0.0221057
0.024959
1.48922
0.264661
27.1324
0.0221928
1.38396
1.6441
2.54791
0.0283851
0.0369633
3.5651
3.85361
1.27521
0.0221744
0.120933
0.24002
0.0387502
0.0252354
23.2283
0.0953481
0.0220928
0.0266376
1.64944
0.0222368
0.0220343
0.15774
2.67543
0.0221855
0.0805463
0.0235799
2.79552
0.552935
3.03297
0.0572771
0.0221786
0.0444701
0.0429569
2.37539
0.0840957
4.56856
0.026686
0.0638787
0.0614393
4.90437
4.22104
0.0221693
0.0580787
2.01256
0.0546376
0.0291702
0.0262642
1.19109
0.11584
0.0242572
0.0316868
1.8474
0.0233885
0.0428832
0.0221679
0.0283907
0.0221752
0.0242776
0.399435
2.01462
0.028952
0.153412
2.69179
1.45356
0.0221866
0.040888
0.0220167
3.95069
0.049639
0.0551404
0.0218667
0.0248935
0.023905
1.64909
2.60006
0.0221044
0.967559
0.0230909
1.56719
1.5559
6.48873
2.45689
0.190896
4.19398
0.33519
0.0230604
0.0240669
0.0232067
12.8714
10.4202
0.0221688
4.44194
0.048567
0.0292169
9.02969
4.65147
0.0221225
0.297835
0.1022
3.96303
15.0303
4.70065
0.0222532
0.197532
1.30025
0.0555311
0.0219607
0.0278214
1.2089
10.2527
0.0221919
0.0362633
0.0232848
0.0236967
0.027778
0.127966
0.426209
0.505614
0.0329687
0.045504
1.3788
0.0422793
0.0865596
0.0249189
0.0230152
0.131949
4.44839
0.0235056
17.2718
0.748826
0.022275
0.0311371
0.0225698
0.0519793
0.0222526
0.0277227
0.0866962
1.48733
4.94181
14.0294
0.0586514
2.12301
1.84745
1.9206
0.0225996
1.47491
0.708171
0.120638
4.35788
1.27779
1.9299
0.0221522
0.116811
0.0495098
0.0232949
2.08787
4.35695
1.72394
10.657
0.0746749
2.08821
4.36815
0.282914
0.0222021
3.99221
1.86254
0.024744
0.024678
2.6497
5.5703
0.023652
0.0244284
0.0221451
0.0526507
0.0221921
2.53369
2.25364
0.0222947
1.68094
0.0413489
0.0259925
2.31787
0.112047
0.0274569
0.0331752
2.84583
1.89724
0.0222552
0.0225242
6.27141
0.0246259
0.496035
2.15696
2.01606
2.38917
1.64699
1.75814
0.0237969
0.0937893
0.0217802
0.0633419
0.0226111
12.494
11.5044
1.24112
5.13707
0.0316673
0.0905122
1.51267
0.0518558
2.37347
0.0255774
4.48417
1.51288
0.0227552
1.65846
0.521171
2.34467
0.0844548
2.37617
0.0259588
0.0233319
4.50548
3.39593
2.35841
0.0236572
9.37964
0.337943
1.82734
0.0671693
0.0227874
0.246474
0.0311014
3.79885
3.51511
1.52694
6.34851
5.49898
1.67336
0.0220297
0.0284483
0.489868
0.53038
0.0234483
0.0222205
0.0366894
2.05794
0.029574
0.0239068
5.33006
0.0332646
0.0237909
1.48648
8.03326
0.0258646
1.2388
0.0266094
2.28298
0.549353
1.14376
0.0222659
12.1981
0.0342371
0.0221844
0.0219806
10.0405
0.0518013
0.0221669
0.32901
0.345662
0.0531932
1.47385
0.0335185
0.0500621
2.50341
0.0257909
2.42618
0.0229988
0.0227453
5.96665
0.0235702
9.25565
0.0245868
1.64784
0.0405856
2.33931
4.58858
3.67356
0.0259507
0.151485
3.15126
0.282823
0.0223672
9.63739
0.0249227
0.0558161
0.0363099
0.0733294
11.2951
4.6506
0.886188
1.79199
0.0235058
0.0487261
0.023569
0.0436762
0.0274699
0.0321552
0.0221446
0.0261953
1.97784
2.00897
2.33792
0.0247327
13.8652
0.110274
0.022021
0.728255
0.0226038
0.0219714
0.270636
0.0946851
1.76416
0.0997617
0.119457
0.023258
0.0284224
0.0225621
0.0856272
1.44976
1.60538
0.0222501
0.0252926
2.95205
0.0235983
0.0226105
0.0222259
0.237898
0.0543721
10.8064
1.50124
0.76189
0.0221927
0.176516
0.0221824
0.0234461
0.146176
0.53559
1.36609
1.33696
2.02841
0.0356656
0.0381374
5.75584
0.0232324
2.57256
4.70896
0.0221953
10.4977
0.0221925
0.113885
0.0222724
0.0359518
1.35527
0.0499543
0.0251824
2.26101
0.0341185
2.53135
0.0257431
1.04231
0.0278366
1.90501
0.340573
0.0274711
0.0833841
0.0223361
0.0221931
7.67198
0.0304737
0.197595
0.0286885
2.80383
0.0991281
0.0362357
0.0224667
0.0273569
0.359581
0.023296
2.31887
0.702306
2.09983
0.307317
0.0221888
0.242682
0.678046
2.77877
2.58234
0.663517
2.60999
0.031525
1.18805
6.23883
15.6345
0.0928228
0.113967
2.10371
0.0264055
0.0296431
0.0285885
0.0222435
0.0234783
0.0222877
0.047839
0.0230525
2.1859
0.225046
1.57114
0.0367877
13.9357
0.0222879
0.0411972
7.04353
4.54671
0.0222807
6.69555
0.1983
0.0222887
0.16476
0.0301248
0.122967
0.200068
2.49278
0.0404114
0.0222881
0.537455
0.0357082
0.0222891
0.0221525
5.47129
0.0528486
0.02333
11.8974
1.56481
0.139895
0.0940663
0.0299582
2.36869
0.405055
3.50443
1.32061
0.0320917
4.13755
0.18321
1.72795
0.0704314
1.86329
1.70718
1.28389
1.45682
1.4965
0.148368
3.96141
0.175309
1.93246
0.022015
0.0287402
3.96614
0.207527
0.0230858
0.134856
1.83744
3.03102
1.64249
0.0298739
0.253782
0.0285889
7.25759
0.0352494
1.60871
0.0295636
4.19383
4.10921
0.0460811
0.0222649
0.0304213
1.87727
3.51693
9.86113
0.0221608
0.0288993
3.16213
0.0270871
3.3439
0.304615
0.0321959
14.4893
1.54524
1.98341
0.0441885
1.97606
0.0225957
2.78501
2.21744
1.76855