/*--------------------------------*- C++ -*----------------------------------*\
| =========                 |                                                 |
| \\      /  F ield         | OpenFOAM: The Open Source CFD Toolbox           |
|  \\    /   O peration     | Version:  v2012                                 |
|   \\  /    A nd           | Website:  www.openfoam.com                      |
|    \\/     M anipulation  |                                                 |
\*---------------------------------------------------------------------------*/
FoamFile
{
    version     2.0;
    format      ascii;
    class       volScalarField;
    location    "250";
    object      ddt0(k);
}
// * * * * * * * * * * * * * * * * * * * * * * * * * * * * * * * * * * * * * //

dimensions      [0 2 -3 0 0 0 0];


internalField   nonuniform List<scalar> 
14033
(
3.99003e-10
0.00659782
-1.28957e-11
-5.15387e-08
-2.12461e-06
-6.93023e-08
-1.61437e-09
0.00142201
-1.41709e-08
4.45241e-09
0.00131405
-0.000396995
-0.0018491
1.3128e-09
5.80466e-09
6.5131e-10
4.11951e-10
-1.38636e-05
-0.00135571
1.05943e-08
6.20594e-09
0.000446462
-0.000904059
-8.49506e-08
0.000664639
6.16269e-08
-2.74847e-06
2.82743e-08
0.000194076
-0.000903454
3.13913e-10
-3.68366e-09
1.12884e-07
-0.00119405
2.84033e-08
-2.02852e-08
-2.67685e-08
-3.95377e-08
8.13457e-09
2.42421e-08
-4.23376e-08
8.13515e-09
-0.000178172
-0.00201255
-2.33744e-08
0.000455999
-1.48307e-08
-1.43001e-08
-2.55447e-06
-0.000329828
3.57454e-07
-6.97637e-07
-0.000355991
-4.74526e-05
4.08634e-07
-4.00629e-08
-0.000699468
3.50646e-08
4.84856e-08
4.35366e-08
-2.69915e-06
3.18489e-09
-0.00957816
-9.27598e-08
-6.10122e-09
-0.00219078
0.00241213
7.67836e-06
-2.83444e-09
5.15608e-09
5.51236e-08
2.72487e-08
-0.000942516
0.000859518
0.00346567
-2.36121e-08
-1.63411e-06
-2.26817e-09
4.38438e-08
-2.77803e-06
-2.64328e-08
-0.000362197
-0.00017523
-0.00215354
4.57069e-09
5.47427e-08
2.62658e-08
-1.50529e-10
6.44407e-07
0.000313481
-3.56237e-09
-7.75943e-09
-1.66365e-06
7.93936e-05
-0.00167017
1.80911e-07
3.96802e-09
-0.00297585
0.000215329
-1.38897e-07
7.27589e-08
-0.00135296
6.39386e-08
1.8292e-10
0.000215974
0.00504211
6.04259e-09
0.00183538
1.42191e-06
0.000826232
-8.02337e-09
-3.5546e-09
-5.37654e-09
-0.000353926
-1.88124e-09
-0.00176799
-9.65408e-05
2.97538e-08
8.78245e-07
0.000265052
-2.18245e-08
-0.0135804
-8.61393e-09
1.77737e-09
0.00109723
-8.1018e-09
0.00124773
2.60649e-06
6.64544e-09
5.96849e-08
-0.000971194
5.44025e-07
-3.32995e-06
-0.000261442
-0.000701234
3.49248e-09
0.000720696
-6.55903e-05
-9.88667e-08
-1.12483e-06
-0.000928224
0.000970233
-1.02467e-07
-0.00101699
1.71296e-08
2.48363e-10
0.00074469
0.000109129
6.13915e-10
-7.75314e-07
9.4409e-08
6.48722e-07
5.12387e-09
-0.0132677
-0.000992273
3.24486e-08
6.14562e-06
-9.7146e-11
-5.55339e-08
0.002768
0.00154177
-4.79649e-06
-3.59904e-08
-7.43387e-08
0.000870687
-3.75239e-09
0.00114614
-4.62375e-08
-6.63858e-05
-3.58421e-08
-0.000525228
3.21688e-08
-1.56068e-06
3.402e-07
1.7746e-08
-4.42318e-07
4.61715e-09
-5.35277e-09
3.29574e-09
0.000205334
-0.00136493
-3.26773e-06
-7.66483e-08
0.000272254
-1.41267e-10
-4.36016e-08
7.98981e-09
-2.86875e-08
0.000790652
-1.31043e-07
1.81625e-07
-2.44009e-08
0.000464689
-3.11761e-08
-7.95106e-09
5.04064e-07
-5.97233e-08
-0.00268603
6.72501e-05
-2.29597e-08
0.0011906
3.1247e-08
0.00297902
9.7922e-09
0.000738857
-0.000903543
1.9022e-08
1.27708e-08
0.00104926
-0.000998288
-1.14194e-07
6.19131e-08
-0.000847733
-3.89225e-08
-1.67327e-08
-2.34956e-08
8.56857e-08
0.00276565
0.000274245
3.9877e-08
-0.00033614
0.000661069
-1.28477e-07
1.56322e-08
-7.19594e-10
0.00524397
0.00030117
2.46678e-08
-0.000218684
6.33622e-08
-3.9888e-08
-5.11357e-08
-0.00626195
7.15541e-05
-2.8056e-09
1.84416e-09
0.000135957
-6.2328e-09
-6.78675e-08
-7.99621e-08
-1.29984e-08
3.77346e-05
-2.32304e-07
0.000892767
4.77272e-08
-0.0018067
-9.12109e-08
-0.000482963
1.30002e-06
3.18769e-08
0.000750722
0.0020085
-1.55187e-09
9.44959e-08
-2.05269e-08
-0.000143665
7.50262e-11
0.00267488
2.36152e-10
0.000324758
-2.95858e-08
-0.000435925
6.7999e-10
8.1574e-08
-3.99262e-10
9.61183e-08
-1.5169e-07
2.7686e-06
1.48173e-08
-2.88838e-09
-1.64227e-09
-2.09011e-08
-9.1776e-05
-1.22118e-05
0.00101568
8.58808e-10
-7.37689e-11
-3.4668e-09
-0.000517341
-1.13947e-07
1.18021e-07
2.91536e-08
0.000100006
0.00141832
5.53335e-09
-0.000317946
-6.4483e-08
-4.47015e-08
-2.09577e-08
2.15061e-08
2.34126e-07
-1.21925e-06
-4.04724e-10
-0.000625895
-3.79103e-08
-3.39713e-06
-1.00564e-05
-1.25312e-07
-0.00495597
-0.00116221
-1.18695e-06
0.000173314
-3.99208e-08
-1.39809e-08
-0.000319352
-2.84545e-09
1.49285e-08
4.8486e-08
3.94472e-07
1.6172e-09
1.07958e-07
-5.91917e-06
-7.04391e-09
0.00199933
-0.000415521
-0.00158992
3.3577e-07
2.23605e-08
-0.001694
8.76673e-08
9.41966e-08
5.52221e-08
-1.77179e-08
2.86347e-09
1.01761e-08
-9.86024e-09
1.3671e-07
-2.82459e-11
-1.77955e-08
0.000821105
0.000261445
2.6024e-08
2.51891e-11
9.67461e-05
-8.7894e-09
-1.12976e-11
-1.48861e-10
-2.72104e-08
-0.000146424
-1.22912e-08
1.20643e-05
0.000378185
-8.13648e-09
-0.000502019
-1.58289e-08
-8.23749e-08
9.80972e-09
7.18838e-08
0.00625985
3.30343e-09
7.98912e-05
-2.37317e-06
-4.90773e-08
2.8564e-08
-1.5485e-08
-1.6042e-08
-2.07931e-08
0.000854665
0.000156252
0.00198913
1.54315e-09
-0.000149436
3.17577e-09
0.00166317
9.73001e-10
-5.7589e-08
2.77334e-08
4.12519e-09
-0.000508013
-0.00634221
-0.000519552
2.61256e-08
1.52851e-08
3.1863e-08
-3.88697e-08
-0.00165368
-1.12182e-06
1.56233e-08
-0.000506479
1.47458e-07
-6.24992e-08
-4.8372e-09
5.05708e-08
1.88951e-08
0.000167197
-0.00528988
-1.22888e-05
-4.46571e-06
1.0456e-07
0.0010789
0.000808856
1.79503e-08
-0.00166153
8.62625e-09
-4.31154e-08
0.000118118
0.00162768
-1.99843e-06
0.00369223
-2.64672e-08
1.09429e-09
2.52301e-05
-1.78353e-10
-0.000652986
0.000243766
0.00089092
-1.27243e-09
1.04851e-07
-0.000566975
-0.00041504
6.8592e-08
5.13336e-08
1.87885e-08
-1.43378e-05
-3.01841e-07
0.000201564
0.000475207
-1.24592e-08
5.92438e-09
0.0016925
2.86622e-08
-3.90983e-08
-0.000421823
0.000131476
1.0065e-07
-0.000668192
-0.000397135
-0.000928543
3.73967e-08
-2.19859e-10
-1.30921e-08
7.2825e-09
-0.00113946
-6.73355e-08
-3.43302e-10
-8.49309e-05
-2.89542e-05
-5.86745e-07
9.91072e-05
2.29718e-08
-0.000478875
0.00358462
-4.62876e-11
0.000281929
2.70079e-08
-0.000595865
0.00210862
-0.00131381
1.62362e-09
0.000732258
2.19665e-09
0.000396612
-2.3385e-08
0.000114914
-0.0002092
-1.68309e-09
0.000403709
6.22164e-08
0.00794424
0.000674064
0.00802948
0.000134348
-9.32529e-07
0.000214998
-0.000625583
0.000253481
4.34964e-08
-0.000377545
0.00214491
-1.58446e-06
4.38899e-10
0.000809584
-3.06016e-08
2.28873e-08
0.000682107
-5.4109e-06
2.51447e-08
2.52581e-08
-0.00125187
9.34204e-05
0.00293613
-1.82152e-07
-0.000656364
-0.000560774
-1.99055e-08
3.86819e-05
5.25892e-09
1.75437e-10
0.000227195
-1.9179e-10
4.35808e-05
-0.000796351
-5.45073e-10
-1.09196e-08
-4.57688e-08
-0.00660396
-5.49205e-08
2.17126e-07
8.33118e-09
-6.69521e-08
6.43803e-09
7.79251e-10
-7.44795e-06
-2.28351e-09
0.000595619
-2.89522e-05
-1.39867e-07
-3.12409e-09
0.000695701
0.000953624
0.000171685
-1.44807e-10
-6.8598e-07
-5.93732e-07
-7.97315e-11
1.08725e-07
5.18354e-08
3.78224e-05
0.000249593
0.000195909
-2.19675e-08
3.40862e-08
0.000296637
1.89709e-08
2.76598e-07
0.00225676
-5.97222e-09
0.00196059
-0.00056803
-1.24578e-08
-9.11462e-07
-4.72339e-06
-0.000440978
-1.43895e-08
2.38699e-08
0.000277409
-1.27741e-06
-2.86524e-08
-0.000433952
-0.00231874
2.29515e-08
-3.28256e-10
4.12939e-07
0.00295538
0.000227692
0.000495523
-1.26573e-08
-2.03322e-08
-0.000306289
-1.5694e-08
-9.90088e-11
9.89998e-06
1.3977e-10
-2.65233e-08
-1.17951e-05
2.80068e-07
0.000835647
1.29589e-09
0.000816568
-8.2287e-08
-4.74649e-08
-6.60993e-09
-6.40761e-09
7.34462e-05
8.98878e-06
4.80255e-05
7.97303e-09
0.00107843
-5.372e-09
-0.000471211
-4.41555e-09
0.000784862
0.000196458
5.77745e-08
-0.000619791
-0.00114322
2.2986e-08
-0.000571059
0.00219052
-3.58845e-10
0.000606338
8.01196e-08
0.000922374
-4.00926e-08
-3.58529e-08
-0.000451306
4.05192e-07
-5.54784e-08
6.12896e-06
0.000856449
0.00667608
-5.527e-08
3.64671e-08
-4.83897e-06
-5.06003e-07
-0.000655709
-3.89617e-08
-2.58033e-06
1.43074e-05
-2.12257e-05
-1.35003e-05
-2.3796e-08
0.00162978
-0.00505959
-3.27772e-08
0.00130676
5.26355e-10
5.62807e-07
1.51251e-09
-2.918e-06
3.6135e-09
-0.00043904
1.92982e-08
-8.65378e-08
2.5297e-09
-4.07316e-08
6.42044e-09
-1.33652e-08
-0.000936322
-8.41645e-08
-9.86114e-09
0.000994712
-0.000923509
-0.000445012
-0.000391549
0.00036423
-1.18219e-09
0.000779885
-0.000575514
-7.82731e-06
4.2003e-08
-7.59555e-05
2.48227e-09
-3.59613e-08
-2.03067e-08
9.21173e-05
-2.01469e-08
-0.000302137
-2.24755e-08
0.000225828
-0.00041098
-0.000691261
3.25311e-08
-0.00101109
-1.17573e-08
-4.27296e-08
-3.57293e-08
-4.85876e-08
-2.87941e-09
-1.2601e-10
-1.41615e-08
-2.64484e-09
1.06207e-09
0.00780463
-1.12779e-05
-4.07401e-08
8.93033e-06
0.000211582
7.14159e-05
3.15368e-09
8.62601e-07
-5.77549e-08
3.33795e-08
0.000845468
0.000730886
5.49316e-08
-7.48241e-09
-4.83583e-10
-6.61994e-06
-8.27007e-11
-0.0010755
-1.06296e-08
-3.77603e-08
-7.76315e-08
-7.37508e-08
4.82083e-08
7.87699e-08
6.42939e-05
0.000133288
0.00195853
0.000762644
0.00120524
6.39991e-08
-1.47042e-08
-4.418e-07
-0.000363021
1.14061e-08
-8.70474e-08
5.65183e-08
-0.000460298
-1.03425e-10
0.000871243
0.00204305
1.19066e-07
6.25454e-07
3.97689e-08
-2.13955e-08
-0.000103334
-0.00115058
-1.05856e-08
-4.00291e-06
-3.74945e-08
2.44126e-07
4.19587e-08
-0.000286345
1.01243e-08
-9.47145e-05
0.000186042
2.38093e-07
-1.49837e-08
-0.00100799
2.90869e-10
0.000207529
-4.51906e-06
4.07275e-08
4.56216e-08
-9.92232e-07
0.000283744
5.34034e-08
1.05599e-06
-6.17473e-07
2.32116e-06
0.000205672
3.25192e-08
0.000140635
6.00611e-08
-0.000556424
1.16205e-10
9.10518e-09
0.000247388
-0.000424942
0.000685565
6.43308e-07
-5.83604e-09
-1.10323e-07
-6.17109e-09
0.00163133
-9.88778e-09
-0.000470569
-0.00100433
4.45492e-08
-4.42778e-05
2.51755e-07
-0.000395594
-3.73118e-09
-2.97212e-08
0.000816184
7.99398e-09
0.00104945
-3.43327e-08
7.37527e-11
-1.2838e-08
-4.83293e-07
-1.01302e-07
-2.58156e-05
-4.6142e-08
2.58618e-09
1.92472e-10
-0.000266717
-0.000134957
-1.2102e-07
-0.00136032
1.09546e-09
1.93019e-11
2.44445e-10
2.19104e-09
-0.00123464
1.51833e-08
-4.98043e-05
0.000115814
-1.13283e-09
-0.000932159
0.00148203
1.43278e-06
0.00273108
-1.41235e-08
0.0011379
0.000462846
0.00313073
-0.000820689
-5.98886e-09
0.000908516
-0.000716203
4.70798e-09
0.000457752
-0.0109771
4.23029e-08
3.65817e-08
-0.00160716
-0.000208331
4.8275e-08
-4.03648e-07
0.000461754
7.32586e-05
-0.000360304
1.21012e-08
-9.30966e-06
-7.23872e-05
-2.22672e-08
7.88509e-09
-0.000980696
1.45868e-09
-1.29675e-09
1.54711e-05
-0.000602888
1.21649e-07
-4.05578e-08
5.43033e-08
0.00128288
0.000377907
0.00717657
8.81899e-07
-2.40285e-05
1.80826e-05
-0.000350649
6.91011e-10
0.000715517
-5.11686e-08
-1.09735e-08
1.8749e-08
-6.1636e-10
-4.54565e-10
-6.5584e-08
1.14039e-07
0.000126376
2.58652e-08
-0.000391938
-0.000189804
1.02804e-07
3.16719e-11
5.72719e-08
0.00015461
-0.000101026
0.00181746
-6.96024e-09
0.00302238
-2.35416e-06
-0.0147491
2.43715e-07
0.000891697
2.81031e-08
-4.35611e-08
8.86407e-09
9.92505e-07
2.80389e-09
1.10956e-11
-1.3438e-08
-0.0001389
7.78376e-08
3.88947e-08
-3.77048e-08
-2.11687e-06
-0.000408365
7.34426e-06
-0.00449552
-0.000539251
1.86004e-06
-1.7177e-05
-1.99501e-10
1.05779e-08
4.86825e-08
-0.000538434
0.000145838
8.48791e-07
-0.000234683
1.3108e-08
6.76747e-07
-2.24818e-09
-2.61683e-08
0.000202261
-2.08472e-10
-9.24758e-06
-1.30968e-08
-3.16656e-08
5.29985e-08
7.53189e-08
5.33435e-06
2.89962e-10
2.68379e-08
0.00582765
0.000543109
-9.01864e-08
-1.81927e-06
-4.00152e-09
-0.000940649
-9.38138e-09
2.64939e-07
-2.85796e-08
-0.00162208
-3.02096e-05
8.08315e-11
2.084e-08
-0.00057177
-1.25399e-07
9.71384e-09
0.000283295
-1.98949e-08
0.000423199
-0.000443824
-7.45857e-09
-5.60466e-07
-5.82714e-09
0.0017864
2.85541e-08
0.00101111
0.000113071
3.63279e-08
-0.000239224
1.93586e-08
1.23441e-08
1.07747e-08
1.78915e-10
0.0013378
-0.00772736
1.20857e-08
0.00188486
-2.24142e-08
0.00303943
-4.90798e-08
2.33927e-09
8.065e-09
2.04512e-08
-0.000473364
-6.30489e-10
-1.65422e-06
0.00025981
2.62737e-10
1.33292e-07
-0.00186699
-2.01866e-08
-1.8202e-08
-6.78743e-09
-0.000414824
-0.00029232
2.24617e-06
0.00124646
1.6837e-08
1.21253e-08
-5.93723e-05
1.8132e-07
1.97989e-10
-0.000372616
-0.00212153
6.67209e-11
-9.95913e-08
1.24101e-06
-2.5299e-09
4.3047e-08
-2.42264e-08
0.000134838
-1.58718e-06
6.4437e-08
1.84755e-08
-0.000412272
0.00329716
2.03225e-08
4.80512e-08
-4.57587e-08
-0.000127772
2.47552e-08
0.00137741
3.58738e-08
5.84142e-08
-2.8479e-05
1.54745e-05
-1.81156e-05
-9.91628e-08
1.00167e-08
4.47225e-06
-0.00123737
3.89217e-09
-4.11406e-08
-7.8394e-08
-1.65414e-07
6.7618e-08
-0.000183207
8.80889e-09
7.78846e-09
4.7007e-08
3.08641e-10
1.94678e-09
-2.87344e-05
4.35193e-08
2.63675e-09
-1.12541e-06
-8.11961e-09
5.51379e-09
0.00153888
0.00155559
0.00380446
-6.73603e-08
-9.0548e-12
3.74469e-08
6.09281e-05
0.000766064
0.000119827
-1.13899e-08
1.34585e-08
-5.16733e-08
-2.20831e-10
0.000158112
-4.33417e-08
0.000997709
-0.00101552
0.000131186
-4.95429e-09
-0.000312652
-0.00145445
-2.54919e-09
0.00123118
-1.48166e-08
9.17578e-08
-0.000101557
-1.21147e-08
0.00640229
0.00158839
-1.50313e-08
0.000105527
1.49465e-09
3.25611e-09
0.00173163
5.34176e-08
0.000560472
-4.91111e-08
4.39699e-08
-1.21193e-09
-2.07842e-08
0.000209861
6.20219e-08
-0.00058531
-3.46178e-08
1.18765e-10
2.91308e-09
1.05343e-10
-1.02513e-07
-2.87968e-06
-0.000315555
9.90178e-08
0.000643777
-3.07004e-08
-1.50717e-07
2.74369e-08
-2.13395e-11
1.59717e-09
0.00318871
4.67966e-06
-2.36745e-07
-3.87967e-06
1.26732e-07
2.73886e-05
7.71412e-05
-5.61078e-07
-0.000321518
0.00205875
-6.96078e-05
0.00347854
6.72503e-08
0.000274888
-0.000491882
-1.44571e-08
-3.469e-08
2.97061e-08
-0.000616406
0.00118007
0.00498197
0.000285689
0.00332833
-1.94671e-08
2.22289e-06
-0.00142428
2.84729e-07
0.000345241
-0.000332849
-0.00088376
2.01468e-08
-1.20936e-06
-3.82686e-08
-6.22551e-08
-0.00195661
4.78974e-05
-0.000444302
0.0018619
-0.000246932
0.00028139
2.76501e-06
-1.64402e-08
-0.000279202
-0.000757092
0.00163732
4.31462e-09
-2.64545e-07
-6.8655e-05
0.00153865
-2.62851e-08
7.41024e-08
7.6596e-09
-7.50712e-07
0.000759399
0.00138588
2.59412e-09
0.000869107
0.00323564
-2.08582e-08
6.81322e-05
-0.00157316
1.29751e-08
0.000652777
-2.67959e-06
-1.88341e-08
0.00106409
-8.81604e-11
-6.94882e-08
-3.06926e-08
-0.000689704
3.7261e-05
-0.000625241
3.67396e-07
0.000331572
-3.0189e-05
9.28087e-05
-1.79585e-08
3.35279e-08
-1.84217e-08
-9.4099e-08
1.55499e-08
-6.23849e-07
-6.67454e-09
-1.13106e-08
-0.00057563
-0.00158361
4.62507e-08
-1.50645e-10
-0.00108351
-6.49249e-09
-0.000373311
2.16388e-08
0.00120091
3.76524e-08
0.000374662
4.89963e-08
-0.00144433
-0.000315111
1.93276e-08
1.51991e-08
0.000957638
0.000431875
-0.00253637
-2.99871e-05
0.000283919
-2.93125e-08
1.13572e-08
-4.62186e-08
-8.44955e-09
-1.22478e-09
-0.000479429
3.71808e-09
-9.02712e-11
-1.34666e-08
0.00174276
-3.56495e-08
0.00174117
2.92e-06
-3.26555e-08
-0.000720508
-2.69064e-07
-0.000208216
-1.19085e-06
5.8744e-09
1.63838e-08
0.00151362
2.40823e-09
0.000887623
3.45267e-08
-9.88206e-08
-1.02213e-08
1.3685e-05
0.000334896
-5.01865e-08
1.00707e-09
-8.34315e-09
-7.15603e-08
-2.94386e-06
0.00852941
-2.60085e-10
1.71228e-08
-6.3839e-11
-0.000813404
0.00186663
-8.23636e-08
2.04527e-08
-5.42594e-06
3.54455e-09
-0.00211075
-3.48074e-06
-1.07557e-08
4.4394e-08
-0.00163035
-2.35824e-09
7.76442e-09
0.00125842
-3.3381e-05
-0.000317872
-0.000475402
-5.98584e-08
-3.72165e-08
0.000324212
0.000867979
1.27707e-08
4.51513e-10
-4.30603e-08
-3.86363e-06
-3.4675e-06
7.50547e-09
-6.42981e-09
0.000169734
-3.5385e-08
-6.21738e-05
-1.28569e-06
5.83018e-06
0.00127293
-1.95261e-09
-1.55351e-07
0.00491544
-1.16201e-08
-0.000492436
-0.000537658
-9.93714e-09
-2.22761e-05
-1.00161e-07
4.42097e-08
-1.8713e-08
2.01313e-07
6.24993e-08
-2.54163e-06
-4.55212e-10
1.32229e-08
0.00102552
-0.00442849
4.49863e-09
0.000890143
2.02761e-09
0.000107604
8.00084e-09
-0.000389147
1.72822e-09
0.000260084
-0.0108614
-6.76155e-08
-7.31248e-08
-0.00250622
-0.00135085
-0.00255084
3.51688e-05
0.00212017
-7.59815e-08
1.51639e-07
-6.1058e-08
-9.22058e-08
0.0016598
-1.52015e-07
1.11879e-08
2.87004e-09
2.68706e-09
0.000389886
-6.76206e-09
0.000297872
5.90515e-05
-3.30702e-06
-1.9314e-06
0.00289216
-1.54013e-07
-1.45735e-12
0.00166564
4.96357e-08
-3.03802e-08
0.000898924
-1.25442e-08
-0.00275601
-1.27455e-08
-0.000236864
-3.47519e-11
0.000161176
0.000362605
-0.00156558
-0.00182847
3.057e-08
1.77202e-09
8.07431e-10
-2.78642e-08
1.19583e-09
-0.000907506
-0.000124115
-0.000600357
-3.30335e-08
-0.000347105
0.000695488
0.000311816
1.57144e-08
-1.84315e-07
-0.000296936
-3.3131e-08
-2.55481e-09
4.52699e-08
-0.000276881
6.99248e-08
3.98286e-05
2.22231e-09
-0.000901722
-1.90944e-10
5.04619e-08
-5.32153e-08
-4.88562e-08
0.00192035
0.000201132
0.000903355
-0.00186787
3.77323e-09
-4.41399e-08
2.2689e-08
-2.40283e-08
0.00287076
4.70779e-05
-2.20776e-10
-6.59525e-08
0.000122157
3.0897e-08
0.00155473
3.90427e-08
-2.3769e-06
-5.67215e-08
-0.000565655
-0.000561863
-0.00354158
3.84319e-08
2.17096e-05
0.000173584
-0.00050234
-1.34438e-07
-1.0188e-07
-3.49167e-08
3.19369e-08
0.000106266
-8.2279e-05
-0.000201432
6.39738e-09
1.18696e-08
4.42622e-08
6.95316e-07
-0.00122564
0.000289074
-6.77741e-06
-0.000301646
-0.000442103
-2.43062e-06
-1.04755e-07
3.21921e-08
3.55532e-08
0.000438131
-2.93635e-08
-2.55861e-09
-1.59407e-08
-3.24593e-08
-0.00329673
2.74698e-08
0.00264963
-0.0106707
-3.34713e-08
-4.8263e-08
2.57865e-08
4.0774e-08
0.00677851
-0.00925616
5.86953e-09
4.5878e-07
-2.25395e-08
1.99275e-08
2.05613e-08
0.00118146
0.000276572
1.26204e-07
-1.65947e-08
-8.83652e-08
3.28302e-08
0.00454077
-0.00150088
-0.0106382
-2.19327e-07
-0.000519128
1.40998e-08
9.43937e-09
0.000902609
8.70077e-07
-0.000322319
7.08424e-08
0.00111892
5.54529e-07
1.27684e-06
-3.17598e-08
-3.48866e-08
0.00037483
0.000769593
-0.00035791
-2.90637e-08
1.92133e-08
3.54799e-05
-1.82317e-08
0.00198486
1.57636e-08
-2.80442e-08
8.23172e-09
4.73556e-10
4.20039e-08
-1.72311e-08
-0.000137229
-0.00092885
-2.28556e-09
3.30054e-10
-4.13961e-10
-3.01446e-08
-2.30905e-10
-9.59356e-08
1.8185e-08
-7.2873e-08
1.50044e-07
1.62683e-08
-2.9149e-06
-0.000428594
-0.000443439
-6.93555e-09
-8.17277e-09
-3.68751e-07
-3.65152e-06
-6.11588e-08
7.55679e-09
-0.00017021
-0.000409731
1.98731e-08
0.000293801
-0.00123277
-2.78496e-06
1.28704e-08
3.92641e-06
1.37935e-10
-0.000779723
-2.37857e-09
1.92059e-08
-1.57999e-08
-0.002406
0.000387731
0.000212052
-7.21651e-08
3.22827e-08
0.00142216
9.42429e-10
-7.68724e-09
0.000189601
-6.95925e-08
1.90216e-09
0.00135806
2.09215e-08
1.73596e-09
-0.000873104
-6.28547e-08
1.58555e-07
-3.06415e-11
5.85866e-09
-6.80885e-09
-0.000354628
0.000595352
2.68378e-08
0.000808075
-9.98937e-07
5.03074e-05
-0.00246294
5.96339e-09
1.1001e-09
0.00185723
2.0711e-07
0.000258561
-1.63123e-06
0.000375099
-1.03518e-09
0.00287852
-9.18427e-05
0.000174008
-5.51157e-08
-2.96114e-09
-0.000985351
-0.000358395
-1.87649e-06
2.55983e-08
-0.00068739
0.00110654
-1.61916e-09
9.75784e-08
-6.5508e-08
1.52875e-08
0.00187519
1.20322e-08
2.03861e-08
2.1465e-08
0.000168673
6.68098e-06
4.03317e-06
-0.00176554
0.000237766
1.52309e-08
2.02116e-08
8.13888e-09
3.91546e-07
5.00896e-08
-6.89891e-08
2.32745e-08
-0.000930019
0.000465795
8.5266e-07
0.000218498
0.000107459
-1.18248e-07
3.50732e-08
-0.000792705
-8.78225e-08
0.00124303
-5.80329e-08
-1.15126e-07
-0.0014496
-1.84379e-06
2.00127e-09
-2.35134e-09
0.00384727
-3.55239e-08
5.58235e-08
-1.16108e-07
0.000491126
3.354e-08
6.37637e-08
1.00747e-05
-0.00241142
0.000208259
-2.27874e-08
3.17673e-08
0.0011445
-3.34338e-07
-7.57404e-09
2.35796e-09
-1.04159e-07
0.000138212
3.31467e-08
-0.000116755
8.55446e-09
-1.4036e-08
-6.72764e-08
-7.41576e-08
-9.14537e-08
7.79476e-06
0.000605506
-0.000935192
-2.03679e-11
1.68072e-08
-1.56355e-09
-0.00315794
8.40788e-08
-5.56449e-11
3.67481e-08
-1.21156e-07
-1.11902e-06
4.47064e-06
8.31564e-05
-0.000875974
-0.00157248
0.00143683
4.59735e-08
0.000433734
-0.00116801
-0.00183111
4.99341e-10
0.00260469
-2.07994e-07
-4.62603e-08
0.000184595
1.00429e-09
3.63301e-05
-0.000277975
2.70478e-08
0.00113663
-0.00062739
0.00340951
0.00132854
-0.000543566
0.000125891
-1.05846e-05
-0.000907481
-0.000192427
-9.8993e-08
-6.78925e-07
2.92189e-08
-1.06831e-08
9.43725e-07
-1.22839e-07
2.37665e-08
-0.000231539
3.00571e-08
0.00187741
0.000218183
0.00136923
0.000117115
-0.00419007
-1.76081e-07
0.000353297
-2.57711e-09
-4.48856e-10
-1.98617e-07
1.09235e-11
-7.48248e-08
-4.46014e-09
-0.000104252
-7.86609e-08
0.00153896
0.00334285
-1.3348e-07
1.7957e-07
2.07673e-08
-1.67615e-08
0.00298874
-8.90984e-08
-1.5542e-08
4.93845e-08
-4.32449e-08
5.04586e-08
5.97628e-08
3.23115e-09
5.40436e-08
1.44371e-08
-0.000507251
8.67688e-09
-0.00190056
-0.00062622
-1.63966e-08
2.74975e-10
-0.00556263
0.00198521
-1.12138e-08
-1.20583e-07
1.85197e-10
-1.64635e-08
0.000676065
-0.000409114
1.78746e-08
-0.00100366
-0.0011239
3.9327e-09
-0.000189205
0.00174061
-4.17086e-09
1.28694e-08
-3.76109e-08
1.44072e-08
-6.5804e-10
-0.000358693
3.13255e-07
-0.000620819
-0.000211985
1.30874e-09
1.42723e-08
-0.000375803
9.04018e-09
5.88028e-08
9.35508e-09
2.11814e-08
-0.0014453
-0.00119601
1.21802e-06
-1.00698e-08
-0.00039997
0.00169988
-9.68333e-05
0.00327979
-3.43561e-08
-3.96724e-08
3.98072e-08
-0.000144601
-2.45371e-06
-0.000375407
-0.00226727
-3.9829e-08
-9.98893e-09
1.45266e-07
-3.02996e-09
-0.0116937
-2.78097e-08
6.68625e-11
0.00155111
-0.00430075
0.00104021
1.45508e-08
-0.00236593
-8.14718e-08
-0.000538228
1.16616e-07
-9.85336e-07
5.66349e-09
1.96954e-08
-1.67745e-08
-0.000461465
-0.000375603
-2.30694e-08
0.000483904
3.76037e-08
2.0568e-09
-1.52108e-07
4.02079e-08
0.00069005
9.20116e-09
-8.08299e-09
0.00030351
-4.94647e-09
4.19573e-09
-3.88658e-08
0.00164059
1.63322e-07
3.73361e-05
1.70816e-08
3.56462e-05
9.51268e-07
-3.53762e-08
7.56977e-09
-0.00505614
-6.3814e-08
-4.33894e-08
-0.00752326
0.00157935
-1.28877e-09
4.83949e-08
8.81509e-10
2.20941e-09
0.000556667
2.29342e-06
-0.000885875
-0.000489889
-3.72917e-10
0.00058872
2.91511e-06
-0.000982629
0.00024013
4.82581e-08
1.03144e-07
1.76155e-05
1.03195e-07
-3.61208e-08
0.000196113
-0.000507852
0.00102201
-0.000492376
-1.57498e-10
-0.000712648
0.000253843
0.00201482
4.04611e-08
-0.000104486
1.00261e-06
-1.18824e-07
-0.0107202
-0.00029753
4.64202e-05
0.00452254
5.12467e-08
-0.000550019
-5.60886e-08
-6.37297e-05
-5.07158e-08
-4.63829e-09
3.86282e-09
4.09309e-05
0.000330695
3.86197e-07
0.000544077
-0.000149009
-0.000302273
-3.18506e-08
-1.79143e-10
0.00225462
-0.000662161
1.18972e-07
-3.3746e-08
-8.64548e-05
-0.00046919
-0.000460065
3.87323e-08
-6.48376e-08
0.00209393
0.000103441
3.33979e-05
-1.92194e-07
1.27623e-08
-0.000281146
-0.000323819
-0.00129866
-1.45901e-07
6.35934e-08
2.11433e-08
-5.96284e-08
1.04217e-06
-1.93471e-09
-6.65817e-05
0.000126972
0.00117031
-5.56426e-08
-1.57475e-08
0.0014878
3.74794e-08
-3.2924e-05
-0.00189744
0.000275654
1.08272e-08
-2.4747e-05
-1.43755e-08
-0.000370751
0.000559907
2.30503e-08
8.15817e-10
-2.94663e-08
-0.000652398
5.69693e-09
8.13902e-09
-1.87814e-08
-1.18326e-07
-0.0087849
-7.59314e-06
0.00119742
6.30144e-06
-0.000531721
3.94966e-07
-0.000325002
-5.59673e-08
8.55708e-09
3.74241e-08
-0.000663065
-6.79818e-08
2.88933e-08
9.19741e-08
1.37168e-08
1.48699e-06
3.83737e-08
2.68437e-08
-2.98644e-08
-3.68119e-08
0.000655309
5.7294e-08
-0.000580275
1.36105e-08
6.50598e-07
1.22117e-09
1.47908e-08
0.00100859
7.20293e-06
8.48778e-07
1.82189e-08
-0.00139208
-4.30144e-08
2.20014e-08
1.57071e-06
1.49051e-08
-3.83364e-08
1.0008e-10
-0.000462263
-9.01373e-07
6.44009e-07
9.69379e-09
-4.50176e-08
-0.000768454
2.43356e-08
0.00431836
4.28491e-05
-7.81739e-10
-8.02993e-08
0.000260568
8.28377e-06
-0.00976142
0.000230481
-1.91957e-07
0.00169871
2.38613e-08
-1.16464e-07
-1.17009e-06
1.3045e-06
0.000109667
2.84353e-06
-0.0045966
0.000246072
0.000408706
0.000105343
0.00138178
-2.63562e-08
-1.7088e-08
6.35729e-11
0.00134551
-3.62276e-06
-0.000934212
-0.000877682
0.00157264
1.98031e-08
0.000642306
-6.62364e-09
6.86556e-08
-8.30088e-08
6.40315e-06
0.00425564
-3.02508e-09
1.59955e-08
0.00120271
0.000745816
-6.84119e-07
-0.00016819
2.08091e-09
-4.00273e-08
-3.72456e-08
-0.00033096
1.53208e-06
0.000513098
-7.9531e-08
-4.96534e-06
7.10463e-08
1.11686e-07
0.000286409
-1.34848e-10
1.03779e-06
4.92777e-07
-0.000191387
-0.000323901
0.00167716
-0.000285533
0.00106255
1.30085e-05
-0.000956577
-0.000122747
-1.68253e-08
-0.00224077
0.00097955
5.46543e-08
0.000564389
0.00025747
0.000582457
-1.46094e-07
-0.00120311
4.35837e-07
2.67211e-08
1.41628e-09
-0.000379972
2.57726e-05
8.8081e-09
-0.000975577
-0.00232821
2.20699e-09
2.63829e-08
0.00678823
-0.000555731
-2.86863e-08
-0.000598708
-1.44826e-08
-6.94983e-06
6.37085e-06
-3.09227e-08
-0.00152368
0.000702506
-1.38017e-09
3.22123e-06
0.00142874
8.61493e-07
5.21482e-06
0.00153647
-0.0021942
-5.45061e-09
-2.31006e-10
-0.000372514
0.00176428
-8.93863e-08
-0.000452136
3.91856e-09
-0.000884431
4.35232e-05
-0.000615873
1.20296e-09
2.14886e-08
4.23823e-08
2.94022e-07
-3.2796e-09
-0.000976597
0.000282731
-0.0135808
2.25852e-07
-4.88084e-09
-5.70695e-08
3.90527e-09
0.000872199
2.25305e-08
-0.00241506
0.00023354
-0.000135447
-1.03084e-09
-0.000324096
-1.22762e-07
-1.16404e-07
8.84423e-05
8.8417e-08
-7.6259e-08
1.49545e-05
6.58282e-08
-3.20865e-06
3.41188e-08
-0.000318201
0.000351234
3.49199e-08
-1.51275e-08
0.000211825
0.00124851
-4.05894e-08
-3.76359e-08
8.68652e-07
0.000874736
-6.14249e-07
-2.08295e-09
2.65436e-08
1.57451e-08
-0.00211536
3.9865e-08
0.000299312
-0.00100983
-5.86318e-09
0.000476643
-7.08526e-07
1.33959e-08
6.42657e-07
0.00052154
-3.48708e-05
-0.000104864
0.000833477
-0.000887636
-2.92413e-08
-0.000512578
0.00101673
-1.57814e-08
0.000157627
7.68357e-07
1.58006e-05
4.93893e-10
0.00157324
1.37019e-08
-0.00231985
3.13224e-08
-0.000507287
0.000973087
-1.83078e-06
1.12112e-07
1.0319e-06
-5.30188e-09
-4.05058e-08
8.18083e-09
-1.04805e-08
6.67334e-09
1.56026e-09
-0.000594454
0.00138402
8.54926e-09
-0.000517396
0.000235569
0.000143153
-0.000635783
-5.60817e-08
7.01021e-05
-9.38329e-10
-0.000200177
-3.23857e-07
0.000178801
-0.00226362
6.25649e-05
-2.5044e-08
-2.48692e-08
4.27402e-08
1.96293e-08
-8.14046e-09
-7.81149e-05
-1.309e-09
0.000104223
-0.000455178
7.54372e-08
-1.94638e-08
2.4435e-05
-6.28822e-08
-2.17729e-08
2.19749e-10
7.33599e-07
-1.75885e-06
0.000877228
0.000436878
3.0774e-08
-2.7945e-08
-0.000172609
-9.86916e-08
-0.000260752
-1.82165e-09
1.94986e-05
-0.00040641
-2.44288e-05
0.00166194
5.90799e-07
-0.0027504
-1.1157e-08
2.27418e-08
-0.000639132
-0.000133071
9.45195e-09
4.79664e-07
-0.000133767
0.00135542
-1.81712e-06
-0.000912023
1.15313e-07
-3.37957e-08
3.10381e-08
-0.000464359
-2.54586e-09
4.57009e-10
-8.60559e-09
-5.76514e-10
2.09695e-08
2.58588e-08
6.95159e-06
-7.44955e-08
-1.15215e-09
3.61012e-08
-0.00280336
-0.00075096
-4.75622e-07
-3.27599e-07
-1.62463e-06
-3.24029e-09
-0.000287275
-0.000345779
-1.42977e-08
-3.1484e-05
-3.24078e-09
0.00313036
-2.47541e-09
0.00143116
-0.000336756
1.65535e-08
-0.000547104
-0.00232352
5.16307e-07
-3.23929e-06
-2.34219e-08
7.54425e-08
0.000671242
-2.67436e-08
0.0002668
5.24927e-08
0.00145627
6.77218e-10
-1.59837e-07
-2.60116e-08
4.42518e-10
-0.000285605
-9.5335e-11
6.14909e-06
-0.000866085
-0.00107864
-2.41254e-05
2.1293e-08
0.000376254
2.24958e-08
-0.000387712
-1.19951e-06
1.16041e-06
2.23962e-08
4.22111e-08
0.000504882
0.00108991
-2.34234e-08
-0.000646098
-7.47984e-10
-0.000235475
-7.87089e-08
-0.000603978
-0.00601557
-0.000128704
0.000701331
-3.28905e-08
-4.41205e-08
-2.36067e-08
-0.000321134
-3.05923e-07
8.39471e-08
1.08767e-09
-8.73983e-07
0.00124953
-0.000883243
-0.000222387
0.000217681
0.000302294
1.76585e-06
0.000801117
6.04817e-06
-0.00056284
-0.000666853
4.24914e-09
4.47039e-05
-0.000529791
0.00170693
3.10209e-06
-5.67045e-08
2.63463e-06
0.00179092
2.04505e-09
0.00187044
-1.37503e-06
5.86186e-09
5.86144e-09
0.00292282
-0.00532741
-1.58591e-08
-2.37578e-06
-8.69875e-07
-0.000377422
-0.000892229
-1.17753e-07
0.000426836
-0.000867354
-3.37098e-08
-0.000252277
-7.61216e-05
0.000377093
3.93488e-08
-2.76087e-08
1.94764e-07
-3.01168e-06
0.00107471
-5.70432e-08
-2.6215e-08
3.32185e-09
-3.37658e-08
-8.8301e-08
1.33229e-06
-0.0175386
-4.06453e-08
-0.00321154
-3.82163e-07
-0.000367368
3.76988e-08
-1.41561e-08
8.56005e-05
5.27374e-07
2.92982e-08
-6.64416e-09
3.50947e-08
0.000327663
2.38449e-08
-1.532e-08
1.96801e-05
4.46891e-07
-0.000531654
0.000108696
-1.98874e-08
0.00116515
-3.3022e-08
6.20049e-07
4.53183e-09
-2.21422e-06
-2.52928e-05
1.99467e-06
2.53021e-08
-0.000360477
1.26871e-07
1.58498e-08
0.000739847
5.90137e-05
0.00344873
-0.000148883
-1.85201e-08
-1.65829e-07
-0.00701463
-1.15724e-07
0.000110964
-3.66735e-08
2.50026e-08
-0.00224473
-2.08847e-06
-0.00630303
0.00212486
1.47634e-07
-1.14454e-06
-2.22711e-08
4.05399e-08
6.66275e-10
2.32955e-08
-1.47787e-08
4.46799e-08
-0.000961061
-2.27646e-08
-0.000546685
0.00468903
-1.03418e-06
0.00350627
-2.45924e-08
2.04157e-07
0.00121159
3.20858e-07
4.20592e-08
2.72372e-09
0.000640161
-7.31566e-08
-0.000349588
0.00438236
-4.70116e-07
2.85508e-07
-2.56229e-08
-0.00443028
-0.00156368
-5.18266e-09
-5.54236e-06
-8.71868e-08
1.63679e-09
-0.000716572
5.46907e-10
-9.34344e-08
3.35067e-05
1.03359e-08
1.67495e-08
9.41433e-09
-2.08149e-08
0.000489716
5.08887e-10
-1.65912e-07
-5.41677e-08
0.000390587
-3.9575e-08
-0.000574645
0.00027473
-2.41044e-08
-6.86932e-07
4.40235e-05
-1.34202e-07
0.00186248
-2.16755e-08
4.2829e-08
-3.31437e-08
1.03365e-09
3.64356e-08
1.18955e-08
3.12694e-08
-1.59566e-07
-1.303e-08
1.79317e-09
-2.50801e-08
-3.9784e-09
3.24435e-10
-5.02549e-10
1.46878e-09
-0.000131604
0.00105153
0.000627602
6.80297e-09
-1.59801e-08
-5.27832e-08
-3.96703e-08
-9.7046e-08
-7.07498e-08
-3.33064e-08
0.000988918
-0.000530914
-1.52454e-08
0.00172742
-3.16607e-08
0.000293716
-4.51388e-08
0.000410544
1.25591e-08