/*--------------------------------*- C++ -*----------------------------------*\
| =========                 |                                                 |
| \\      /  F ield         | OpenFOAM: The Open Source CFD Toolbox           |
|  \\    /   O peration     | Version:  v2012                                 |
|   \\  /    A nd           | Website:  www.openfoam.com                      |
|    \\/     M anipulation  |                                                 |
\*---------------------------------------------------------------------------*/
FoamFile
{
    version     2.0;
    format      ascii;
    class       volScalarField;
    location    "250";
    object      epsilon;
}
// * * * * * * * * * * * * * * * * * * * * * * * * * * * * * * * * * * * * * //

dimensions      [0 2 -3 0 0 0 0];


internalField   nonuniform List<scalar> 
14033
(
1.67226e-06
0.00886993
2.36475e-06
2.32569e-06
6.72926e-06
2.42304e-06
2.05084e-06
0.0271852
2.4722e-06
1.951e-06
8.31851e-05
0.013048
0.0984813
2.31093e-06
2.2214e-06
1.96773e-06
2.06793e-06
1.51343e-05
0.104401
4.16248e-06
1.72028e-06
0.0480634
0.018329
2.30205e-06
0.0398904
2.02894e-06
3.84843e-06
2.33531e-06
0.0113964
0.0193789
1.65431e-06
2.65724e-06
2.1501e-06
0.126316
1.79693e-06
2.48519e-06
2.04121e-06
4.09227e-06
1.9641e-06
2.08453e-06
2.58797e-06
2.43019e-06
0.0144632
0.0797918
2.72759e-06
0.0355086
1.71971e-06
2.419e-06
3.49904e-06
0.0216777
1.09554e-05
4.81183e-06
0.0144039
0.0304445
2.76003e-06
2.08132e-06
0.0165259
2.32295e-06
2.03715e-06
2.68485e-06
3.66102e-06
2.61291e-06
0.0219197
2.2717e-06
1.82696e-06
8.57711e-05
0.00429151
1.40827e-05
2.744e-06
1.81127e-06
2.08112e-06
2.26365e-06
0.018945
0.0489993
0.00299547
2.49927e-06
8.39658e-06
2.51207e-06
2.7921e-06
3.96261e-06
2.68105e-06
0.0246291
0.0154931
0.0586804
2.43457e-06
2.62029e-06
2.22706e-06
2.05727e-06
3.67965e-06
0.0193317
1.9957e-06
1.94233e-06
2.93151e-06
0.0275243
0.0357982
3.15012e-06
1.83392e-06
0.00032341
0.0098011
3.45975e-06
2.46956e-06
0.0728635
2.56987e-06
2.34826e-06
0.0164144
0.00133319
2.45836e-06
0.000194613
3.91041e-06
0.048443
1.79279e-06
2.68022e-06
3.46075e-06
0.0151392
3.50659e-06
0.0467315
0.0113906
2.58685e-06
3.89424e-06
0.00879938
1.96024e-06
0.0179732
2.10333e-06
2.70851e-06
0.0511665
2.05706e-06
0.0354562
8.20813e-06
2.28454e-06
2.47265e-06
0.019536
4.28212e-06
3.84229e-06
0.0245356
4.98522e-05
2.29721e-06
0.0265589
0.0288268
2.52315e-06
8.41708e-06
0.0066716
0.0291362
2.02496e-06
0.000132084
2.83172e-06
1.67878e-06
0.0236956
1.42831e-05
1.67921e-06
2.65588e-06
4.00005e-06
3.95834e-06
1.95694e-06
0.0231629
1.35059e-05
2.27947e-06
0.0156173
2.7757e-06
2.14597e-06
0.00255971
0.0268032
1.28505e-05
2.22793e-06
2.31024e-06
0.0320809
1.86838e-06
0.0499439
2.03021e-06
0.0131638
2.68679e-06
5.27431e-05
2.53544e-06
2.6214e-06
3.29392e-06
2.41808e-06
3.80357e-06
3.87567e-06
1.97376e-06
2.31743e-06
0.0105791
0.010717
8.68849e-06
2.6673e-06
0.00891022
1.93182e-06
1.98823e-06
2.42369e-06
3.20068e-06
0.0249248
2.3799e-06
2.76345e-06
1.97587e-06
0.0339848
1.9359e-06
2.15112e-06
2.83506e-06
2.09786e-06
0.0992031
0.001493
2.98634e-06
0.0337892
1.71004e-06
3.41538e-05
2.4583e-06
0.0286469
0.0190143
2.48725e-06
1.69855e-06
0.0304378
0.019917
2.00732e-06
2.78126e-06
6.40548e-05
2.70838e-06
2.13285e-06
2.10012e-06
2.63606e-06
0.000670416
1.25989e-05
1.85167e-06
0.0241246
0.0422597
3.43876e-06
2.37407e-06
3.95446e-06
0.000172264
0.0699614
1.84169e-06
0.0267105
2.6338e-06
2.36622e-06
2.25833e-06
0.00340171
0.0280257
1.8564e-06
1.7819e-06
0.0115266
2.37264e-06
2.38051e-06
2.05169e-06
1.9447e-06
1.17333e-05
2.22965e-06
0.0256755
2.54493e-06
0.00577871
2.6766e-06
0.0116775
8.79291e-06
2.16128e-06
1.37808e-05
0.0037637
2.13386e-06
2.57139e-06
1.89194e-06
1.1092e-05
2.4183e-06
2.97593e-05
3.25664e-06
0.0596141
3.2288e-06
0.0119548
3.90676e-06
2.75279e-06
2.71614e-06
2.29772e-06
2.33223e-06
5.02013e-06
2.56455e-06
2.64229e-06
2.01329e-06
3.01603e-06
1.63798e-05
8.59731e-06
0.000623592
2.12061e-06
2.3174e-06
2.31225e-06
0.0151181
2.66922e-06
4.1003e-06
3.03249e-06
0.011827
0.0329824
2.02676e-06
0.0132279
2.06106e-06
2.3139e-06
1.76828e-06
2.3564e-06
4.13745e-06
4.79147e-06
2.10486e-06
0.0234613
2.23186e-06
3.28789e-06
8.15714e-06
2.47945e-06
0.076069
0.00839552
4.05424e-06
0.0183579
2.05985e-06
2.24712e-06
0.0134411
2.23354e-06
2.37329e-06
2.48821e-06
2.68231e-06
1.80766e-06
5.79461e-06
1.28757e-05
2.34867e-06
0.016538
0.025512
0.0924159
2.62786e-06
4.14311e-06
0.0401164
2.40655e-06
2.6145e-06
2.29263e-06
2.57286e-06
2.57423e-06
2.12394e-06
1.81606e-06
2.27986e-06
1.89874e-06
2.27992e-06
0.0302372
0.0421773
1.7088e-06
2.45976e-06
0.0095343
1.94417e-06
1.95299e-06
2.19787e-06
2.33489e-06
0.0127554
1.97066e-06
0.00987518
0.0182426
2.09484e-06
0.0290687
1.80546e-06
2.41727e-06
2.53904e-06
2.02155e-06
0.153392
2.1344e-06
0.0329627
4.19363e-06
2.82422e-06
3.00804e-06
1.92679e-06
1.89541e-06
2.77251e-06
3.55003e-05
0.00931839
0.0485092
2.82114e-06
0.0591836
1.85696e-06
4.5701e-05
3.85192e-06
3.36354e-06
2.89068e-06
4.09245e-06
0.0145968
0.0717643
0.000492579
3.05956e-06
1.95743e-06
2.35701e-06
2.56412e-06
0.00620776
6.87806e-06
2.62307e-06
0.0291834
2.297e-06
3.40225e-06
2.78947e-06
2.1609e-06
2.11847e-06
0.0176746
0.00591089
1.06499e-05
5.38001e-06
2.7661e-06
0.00015307
0.0249731
1.76835e-06
0.00306367
2.393e-06
2.43774e-06
0.0001939
0.0376342
7.356e-06
0.228873
2.48844e-06
1.89075e-06
0.0167372
3.69265e-06
0.00212664
0.000336117
0.00802214
1.83805e-06
2.25701e-06
0.016513
0.0966013
2.77694e-06
2.49629e-06
1.84246e-06
3.04995e-05
4.15014e-06
0.0105486
0.0276388
2.00199e-06
1.8839e-06
4.35097e-05
2.38408e-06
2.72026e-06
0.0150139
0.0170627
2.63458e-06
0.0138198
0.022568
0.00492222
2.00461e-06
2.077e-06
3.03628e-06
1.82997e-06
0.31492
2.06792e-06
2.40496e-06
0.0268987
0.0125819
3.58083e-06
1.09912e-05
2.51172e-06
0.0218939
0.000380499
2.24081e-06
0.0353419
2.72864e-06
0.0127357
0.000457629
0.00418975
2.39577e-06
0.00821229
2.70301e-06
0.0266685
1.82721e-06
0.0160202
0.0120936
4.03622e-06
0.043218
2.67455e-06
0.00321579
0.029197
0.0867045
0.0111495
3.07289e-06
0.011241
0.0131354
1.54096e-05
1.70222e-06
0.0116405
0.000225764
3.96752e-06
1.92358e-06
0.000611335
2.00507e-06
2.49182e-06
0.0771653
5.3143e-06
1.76453e-06
2.28625e-06
0.0138712
0.00225757
0.0486262
2.19034e-06
0.0229139
0.0158315
2.34933e-06
0.0101319
2.04933e-06
1.90292e-06
2.77988e-05
2.06511e-06
2.00236e-05
0.0713501
4.06348e-06
1.83486e-06
2.22569e-06
0.000724045
3.01437e-06
2.38945e-06
2.03295e-06
2.35374e-06
1.9236e-06
1.78767e-06
6.24299e-06
2.68558e-06
0.000210675
9.18299e-06
2.43683e-06
1.78445e-06
0.0439974
0.0296333
0.0115866
1.79373e-06
3.30733e-06
3.21262e-06
1.64897e-06
2.27207e-06
2.55687e-06
0.028907
1.4525e-05
0.0109303
2.47702e-06
2.04572e-06
0.0199202
2.38493e-06
2.59117e-06
0.00547252
2.66599e-06
0.00562337
0.0238106
2.40839e-06
4.35836e-06
8.20404e-06
0.0140435
1.94489e-06
2.25426e-06
1.81652e-05
6.04838e-06
2.38628e-06
0.0122877
0.0661083
2.31199e-06
3.99215e-06
3.83993e-06
0.0505212
0.0285304
0.0181026
1.99193e-06
1.82811e-06
0.0141466
2.41598e-06
3.66621e-06
4.93871e-06
1.6676e-06
1.83604e-06
0.0214019
8.58423e-06
1.60961e-05
3.58728e-06
0.0288064
1.89632e-06
2.0022e-06
1.77186e-06
1.85185e-06
0.0208256
1.05705e-05
5.13105e-06
2.10566e-06
0.000129489
4.16149e-06
0.0163371
2.07461e-06
0.0472557
0.00927572
2.60794e-06
0.0254861
0.00329928
2.71073e-06
0.092166
0.0505138
2.08521e-06
0.0287032
2.27458e-06
0.0287061
2.44162e-06
1.75217e-06
0.0214544
2.73286e-06
2.28199e-06
6.54248e-06
0.029164
0.013337
4.10495e-06
2.26585e-06
6.32832e-06
3.16943e-06
0.015934
2.60287e-06
4.61195e-06
8.40789e-06
8.85382e-06
1.54435e-05
2.58624e-06
0.0301496
0.0682623
2.43253e-06
0.0350757
3.24693e-06
2.88098e-06
1.83644e-06
5.85188e-06
2.01764e-06
0.0117236
2.03975e-06
2.32207e-06
3.86213e-06
2.68894e-06
3.55326e-06
2.42613e-06
0.0190505
2.41139e-06
1.87857e-06
4.76208e-05
0.0145064
0.0168131
0.0245455
0.0187706
2.25073e-06
0.0306192
0.0250414
0.0121927
2.28423e-06
0.022823
2.8176e-06
1.87765e-06
2.14981e-06
0.00959033
2.17918e-06
0.0560192
2.27073e-06
0.000112791
0.0143879
0.0626516
2.79888e-06
0.0140237
2.17428e-06
2.66975e-06
2.22627e-06
4.10103e-06
1.74504e-06
3.19281e-06
2.08262e-06
4.05025e-06
2.34951e-06
0.0646199
2.20415e-05
1.7584e-06
9.92106e-06
0.00906852
0.000273446
2.01758e-06
3.51012e-06
1.92535e-06
2.18879e-06
0.0284025
0.000143416
2.57805e-06
2.67767e-06
3.2478e-06
8.06538e-06
2.76921e-06
0.00501296
2.3978e-06
2.36414e-06
2.3541e-06
2.68213e-06
2.73903e-06
2.28195e-06
0.0097286
0.00997508
0.0167146
0.0239098
0.191479
2.21669e-06
2.40271e-06
2.58196e-06
0.014271
3.80161e-06
2.06768e-06
2.03209e-06
0.000150424
2.07515e-06
0.0530385
2.51007e-05
2.59827e-06
4.20191e-06
2.79979e-06
2.06667e-06
0.0126679
0.0070575
2.37968e-06
2.61481e-06
2.44864e-06
2.67894e-06
2.84546e-06
3.87742e-05
2.38738e-06
8.57441e-06
1.72332e-05
2.51677e-06
2.45944e-06
0.0199712
3.41704e-06
0.009892
3.87983e-06
2.35197e-06
2.39601e-06
4.04044e-06
0.0279708
2.07281e-06
4.28183e-06
3.29282e-06
4.28507e-06
0.0174469
2.30945e-06
0.0191419
2.75744e-06
0.0910119
2.11641e-06
2.31959e-06
0.0158168
0.0118262
3.26271e-05
2.96385e-06
2.37029e-06
2.33479e-06
1.71015e-06
0.0287407
2.04455e-06
0.061638
0.0152852
2.28223e-06
8.85292e-06
2.3817e-06
0.000167031
2.34267e-06
2.4592e-06
0.050903
2.21466e-06
0.025941
2.49215e-06
1.87424e-06
1.94567e-06
3.09952e-06
2.72789e-06
1.0326e-05
2.17452e-06
2.00592e-06
3.31985e-06
0.0138317
0.0116076
2.56053e-06
0.0134461
1.64242e-06
3.07745e-06
2.58656e-06
2.82273e-06
0.0688418
2.16371e-06
0.0124845
0.0209368
3.8717e-06
0.058473
0.0278937
3.40047e-06
2.85775e-05
1.90886e-06
0.000141285
0.0586492
0.00380586
0.0182359
3.20119e-06
0.034242
0.0163493
1.84541e-06
0.0416361
0.00041956
2.32256e-06
2.3045e-06
0.0722064
0.0134685
2.63683e-06
3.73649e-06
0.0180301
0.0319419
0.0136655
2.50109e-06
4.31461e-06
0.0126718
2.79979e-06
1.83802e-06
0.0152857
2.10734e-06
4.09433e-06
1.06539e-05
0.0261433
2.50491e-06
3.46554e-06
2.64368e-06
0.0357433
0.0424025
0.0336357
3.42511e-06
0.00994169
1.60285e-05
0.0133251
3.29344e-06
0.000608304
2.32664e-06
2.22507e-06
2.31357e-06
2.29086e-06
3.11266e-06
2.42138e-06
2.74228e-06
0.000399652
2.43818e-06
0.0221964
0.023096
2.40101e-06
3.25316e-06
2.09317e-06
0.0320762
0.00704722
0.0196811
2.39074e-06
0.00658952
3.86486e-06
0.000879734
2.41139e-06
0.00010135
2.58091e-06
2.24588e-06
2.03293e-06
3.42497e-06
1.83529e-06
4.0815e-06
2.36976e-06
0.0130318
2.55818e-06
2.14769e-06
2.35219e-06
3.40566e-06
0.0139791
3.75763e-06
0.0719811
0.0268103
4.37186e-06
0.00644272
2.38042e-06
2.02467e-06
2.01041e-06
0.025639
0.0276997
3.58765e-06
0.0222759
3.06281e-06
3.38586e-06
2.26217e-06
2.16917e-06
0.00644924
2.75265e-06
4.55467e-06
2.28756e-06
3.47758e-06
2.73262e-06
2.21964e-06
3.68015e-06
2.46446e-06
1.88957e-06
0.000647203
5.71539e-05
2.37239e-06
3.25857e-06
1.72813e-06
0.0198632
2.79575e-06
3.24058e-06
1.95921e-06
0.0331013
4.9293e-06
4.0933e-06
2.02241e-06
0.0235529
2.40544e-06
2.20591e-06
0.00883163
1.7425e-06
0.0599651
0.0142414
2.56359e-06
3.16694e-06
2.00385e-06
0.000939591
2.41976e-06
0.0001264
0.00983513
2.01427e-06
0.0133905
2.20119e-06
2.50653e-06
1.74495e-06
1.69943e-06
0.0359061
0.0754199
2.00861e-06
0.0178632
2.71254e-06
0.205921
2.56133e-06
2.8482e-06
2.3894e-06
1.82965e-06
0.0227048
2.83909e-06
4.97289e-06
0.013302
4.01821e-06
2.27903e-06
0.0798195
2.60031e-06
2.75134e-06
3.90553e-06
0.0137861
0.0150556
4.33309e-06
0.0265427
2.16803e-06
2.13165e-06
9.53518e-06
4.15688e-06
1.90701e-06
0.0215441
0.0801623
4.05191e-06
2.71416e-06
3.62607e-06
2.53858e-06
2.302e-06
2.25016e-06
0.012947
7.35827e-06
2.54107e-06
2.22938e-06
0.0241458
0.00637053
2.10037e-06
2.66424e-06
1.78757e-06
0.0568128
2.01484e-06
3.25421e-05
2.80122e-06
2.89649e-06
0.0103961
2.02417e-05
4.61699e-06
2.39856e-06
2.43892e-06
8.8102e-06
0.0886538
3.93478e-06
2.62523e-06
2.10535e-06
4.04704e-06
3.53578e-06
3.63254e-05
2.53167e-06
2.4473e-06
2.02353e-06
2.56672e-06
2.7486e-06
1.66068e-05
2.39067e-06
2.41043e-06
5.26818e-06
2.03839e-06
1.85466e-06
0.0275465
0.000167171
0.000138143
2.51295e-06
3.39033e-06
2.4901e-06
1.01811e-05
0.0005298
0.0033039
2.52594e-06
2.1997e-06
2.23499e-06
3.89494e-06
0.0160751
3.93687e-06
0.0395702
0.0203683
0.00940788
1.76689e-06
4.3247e-05
0.0387199
2.26032e-06
9.25836e-05
2.63016e-06
3.54526e-06
0.0288557
2.0827e-06
0.00201827
0.0483848
1.80515e-06
0.0135127
1.64191e-06
2.73061e-06
2.96763e-05
2.0254e-06
7.75079e-05
3.89375e-06
2.26091e-06
2.4112e-06
2.07453e-06
2.15125e-05
2.27677e-06
0.023526
3.9454e-06
1.69615e-06
3.10032e-06
2.81834e-06
2.53115e-06
5.23482e-06
0.0157758
2.62962e-06
0.0225775
1.99581e-06
3.99341e-06
2.63707e-06
2.06012e-06
1.73821e-06
0.00567726
6.07628e-06
4.17251e-06
4.47433e-06
2.54839e-06
8.88344e-06
1.09951e-05
3.15782e-06
0.0147679
0.019984
0.0101519
0.0470687
2.2711e-06
0.00872803
0.0151127
2.20599e-06
3.24846e-06
2.84081e-06
0.0160662
0.0403043
0.000107684
0.00922002
0.0508238
1.97636e-06
4.85964e-06
0.0319316
2.5828e-06
0.040715
0.0681308
0.0189231
2.23606e-06
0.0227123
2.36518e-06
1.9165e-06
0.0152498
5.01829e-06
0.0135229
0.0193433
0.0135535
0.041485
4.85214e-06
2.47941e-06
0.0226542
0.016844
0.00670674
2.11701e-06
2.22137e-06
5.38463e-06
0.00475388
2.39123e-06
2.27902e-06
1.66121e-06
4.39203e-06
0.0349719
4.82388e-05
1.81331e-06
0.0500811
0.00412109
1.90489e-06
1.26749e-05
0.270855
1.71368e-06
0.000104868
0.0112129
2.39192e-06
0.0352007
3.28744e-06
2.43878e-06
2.30786e-06
0.0141194
0.000511705
0.0157183
6.91301e-06
0.0167192
0.000196208
0.0356069
1.73635e-06
2.35988e-06
2.0639e-06
2.64775e-06
1.88264e-06
3.21455e-06
1.9599e-06
2.32938e-06
0.0240937
0.065834
2.09876e-06
1.73913e-06
0.000147388
1.81706e-06
0.0134934
4.16035e-06
0.0491114
2.41274e-06
0.0181847
2.30951e-06
0.00582112
0.014103
1.99831e-06
2.77247e-06
0.0357763
0.0592146
0.0865376
0.0105773
0.0196285
1.79237e-06
1.74901e-06
2.45711e-06
1.6565e-06
1.98536e-06
0.0144202
2.50741e-06
2.08724e-06
2.25244e-06
0.0406516
3.28163e-06
0.0492438
3.84934e-06
2.17615e-06
0.0171588
4.0157e-06
5.21431e-06
4.84839e-06
4.00255e-06
3.02038e-06
0.000686659
1.73234e-06
0.0502365
2.30334e-06
2.81029e-06
2.66736e-06
0.0109882
0.0190804
2.44893e-06
3.92827e-06
1.71813e-06
3.24734e-06
5.47993e-06
0.00100441
2.18624e-06
2.22067e-06
2.32579e-06
0.042639
0.0171909
2.34434e-06
2.13731e-06
8.21116e-06
2.38614e-06
8.77303e-05
5.6862e-06
2.92873e-06
2.18559e-06
0.23964
3.19784e-06
1.91311e-06
0.0234924
9.24413e-06
0.0144596
0.0124667
1.92784e-06
2.37715e-06
0.0170108
0.0317964
1.72012e-06
1.97139e-06
2.63914e-06
8.04271e-06
3.85114e-06
1.72676e-06
2.47765e-06
0.0251601
2.58913e-06
0.0112151
3.219e-06
1.65593e-05
0.034768
2.92947e-06
2.59026e-06
0.0191082
2.47068e-06
0.0262551
0.0146381
2.04568e-06
0.0131727
2.50845e-06
2.11036e-06
2.13472e-06
3.12639e-06
2.53063e-06
4.53031e-06
1.92583e-06
2.20382e-06
0.0523575
0.0704763
1.94102e-06
0.0480798
4.03695e-06
0.0176011
1.96074e-06
4.48226e-05
1.7999e-06
1.47115e-05
0.000420471
2.4493e-06
2.05935e-06
0.0113852
0.0781819
0.0106751
4.88703e-06
0.0128614
2.52882e-06
3.29572e-06
1.91601e-06
2.39005e-06
0.0283526
2.41384e-06
2.11829e-06
4.92572e-06
2.44711e-06
0.00787692
1.90608e-06
0.01087
0.0158767
5.10537e-06
4.88473e-06
0.011536
2.4078e-06
1.99577e-06
0.0299447
2.04442e-06
3.06006e-06
0.00944577
2.40398e-06
0.088664
2.43624e-06
0.0126996
2.27549e-06
0.0175126
0.322856
0.242997
0.118424
1.96272e-06
1.74174e-06
3.83334e-06
2.18593e-06
2.63201e-06
0.0190921
6.3197e-05
0.0149711
2.31567e-06
0.0257476
0.0245501
0.0263718
1.67579e-06
2.26461e-06
0.0168174
2.69624e-06
3.23231e-06
2.00955e-06
0.0215934
2.32291e-06
0.0181268
1.81442e-06
0.0529285
4.16281e-06
1.96767e-06
2.73137e-06
2.8557e-06
0.00247271
0.0263994
0.0348028
0.0663045
2.81806e-06
3.01198e-06
2.38053e-06
2.81609e-06
0.194653
9.84256e-06
2.27428e-06
2.75361e-06
5.30763e-05
1.84313e-06
4.72661e-05
2.66953e-06
3.36292e-06
4.2253e-06
0.0123454
0.0150774
0.00940912
1.9585e-06
0.00996213
0.0094608
0.0232253
2.3911e-06
2.36313e-06
2.05761e-06
2.50387e-06
0.0182494
0.000166093
0.0133214
2.61963e-06
2.39348e-06
2.57152e-06
3.63173e-06
0.139099
0.00666378
7.3388e-06
0.0141261
1.71586e-05
4.22796e-06
3.22274e-06
2.53806e-06
1.69869e-06
0.0294848
2.89973e-06
2.79048e-06
1.94059e-06
2.68066e-06
0.00401201
2.29488e-06
0.0878876
0.000780701
3.02935e-06
3.57618e-06
3.89636e-06
2.74242e-06
0.000552609
0.00167168
2.50991e-06
2.99983e-06
2.17467e-06
1.88066e-06
1.95507e-06
0.0419201
0.0201907
2.25193e-06
2.24112e-06
2.28481e-06
2.03117e-06
0.0449471
0.0280765
0.0659
2.29467e-06
0.0118943
2.45626e-06
2.90712e-06
0.00626498
3.11581e-06
0.0217843
2.48741e-06
0.033197
2.9309e-06
3.68712e-06
2.57831e-06
2.2432e-06
0.0185462
2.32812e-05
0.0146875
3.12647e-06
2.02548e-06
2.21771e-05
2.29074e-06
0.0190874
2.84294e-06
2.84655e-06
2.3445e-06
2.09359e-06
2.64661e-06
2.13579e-06
0.0128235
0.0184933
2.64828e-06
3.56465e-06
3.22927e-06
1.86348e-06
2.3186e-06
2.63846e-06
1.97875e-06
1.90502e-06
2.28684e-06
2.28393e-06
5.04734e-06
0.0274613
0.0126039
1.90126e-06
2.25754e-06
3.55827e-06
3.44663e-06
2.36882e-06
2.39005e-06
0.0118244
0.0154894
1.70433e-06
0.00938553
0.000204898
3.62905e-06
2.26745e-06
5.73746e-06
1.81115e-06
0.0177077
2.23998e-06
2.13803e-06
2.51297e-06
0.255025
2.49671e-05
2.69633e-05
3.01585e-06
2.49999e-06
0.0394555
3.75964e-06
2.17586e-06
0.0109643
2.42087e-06
1.9696e-06
0.000118299
2.58965e-06
2.39794e-06
0.0202205
2.14277e-06
2.40609e-06
3.13633e-06
1.82409e-06
1.74482e-06
0.0498343
0.000119742
2.16349e-06
0.0554108
3.48856e-06
1.08096e-05
0.0858794
2.35339e-06
2.74517e-06
0.0128135
3.21849e-06
0.0165566
3.19429e-06
0.182962
2.77453e-06
0.00437438
0.021406
0.02024
1.97671e-06
2.14303e-06
0.0198392
0.0113632
1.01403e-05
2.07638e-06
0.0140188
0.00340115
2.70126e-06
2.38626e-06
2.0727e-06
1.75295e-06
0.0238703
1.96302e-06
2.1193e-06
2.43589e-06
0.00950566
1.41157e-05
3.12651e-06
0.0364517
4.62796e-05
2.30487e-06
1.77533e-06
1.97331e-06
3.09603e-06
2.0364e-06
2.46011e-06
2.10374e-06
0.0151625
0.0177442
3.49976e-06
0.00952823
0.0218823
2.27943e-06
2.20125e-06
0.015121
2.74157e-06
0.0334551
2.38285e-06
2.39164e-06
0.0375443
4.48171e-06
2.29604e-06
1.73173e-06
0.0488923
2.36152e-06
2.38928e-06
2.38425e-06
0.00686251
1.8422e-06
3.09003e-06
1.42153e-05
0.0608681
0.021151
1.88993e-06
1.84947e-06
0.0345577
3.93794e-06
2.26719e-06
2.1935e-06
2.80209e-06
0.0018091
2.26038e-06
0.0103785
2.60797e-06
2.25631e-06
2.68167e-06
2.65499e-06
2.37594e-06
1.07075e-05
0.0281483
8.24544e-05
2.27459e-06
2.72695e-06
2.97865e-06
0.0142551
2.06796e-06
1.81544e-06
2.16206e-06
2.75199e-06
0.0331552
3.81884e-06
0.0169908
0.0187213
0.0642057
0.0120133
2.33301e-06
0.00680112
0.0761382
0.0400546
1.82999e-06
3.49328e-05
3.62977e-06
2.47552e-06
2.2901e-05
2.90162e-06
4.46467e-06
0.028139
1.93765e-06
0.000514365
0.0146137
0.00494019
0.0413505
0.00839514
0.0218394
3.56914e-06
0.158827
0.0131796
4.00062e-06
5.19025e-06
1.90967e-06
2.1585e-06
3.5414e-06
2.38384e-06
1.82985e-06
7.84462e-06
2.76508e-06
0.00229336
1.84523e-05
0.000142334
0.0208551
0.0649018
3.89999e-06
3.00257e-05
1.83337e-06
3.80496e-06
4.48496e-06
2.6309e-06
2.49885e-06
1.98497e-06
0.0489686
2.38425e-06
0.000558462
0.187653
3.55337e-06
2.32693e-06
2.1367e-06
2.30505e-06
0.000247724
2.34341e-06
2.04134e-06
2.02166e-06
2.08957e-06
2.24846e-06
2.38407e-06
2.21258e-06
4.04513e-06
2.19567e-06
0.0162112
2.48335e-06
0.045251
0.0133268
2.71964e-06
2.24112e-06
0.00542846
2.58168e-05
3.07482e-06
1.99475e-06
2.28016e-06
2.49886e-06
0.0219251
0.0269078
1.68218e-06
0.0169994
0.0163827
2.14235e-06
0.0216407
0.0466572
2.81883e-06
2.07749e-06
2.01165e-06
2.22373e-06
2.27716e-06
0.0150829
5.04691e-06
6.45041e-05
0.0346746
2.30906e-06
1.94958e-06
0.0115379
2.02885e-06
2.76949e-06
2.09541e-06
2.38466e-06
0.00442856
0.0496344
3.9479e-06
2.67898e-06
0.0168208
0.031978
0.0234093
0.0132268
2.45636e-06
2.39919e-06
2.19575e-06
2.70709e-05
4.90068e-06
0.0140482
0.0845681
2.07113e-06
2.12695e-06
3.55733e-06
1.64399e-06
0.000465343
2.32306e-06
2.09002e-06
0.00878393
0.085878
4.86809e-05
2.73828e-06
0.085726
2.32948e-06
0.0119626
3.12198e-06
3.32227e-06
1.89277e-06
2.29281e-06
2.30818e-06
0.0267526
0.0114533
2.05528e-06
0.00432064
2.86306e-06
3.17002e-06
4.11232e-06
2.00693e-06
0.0323952
2.52393e-06
1.81826e-06
0.0172468
1.98277e-06
2.36578e-06
3.54425e-06
0.0404738
2.37386e-06
1.42143e-05
2.58063e-06
1.43259e-05
3.6759e-06
2.21305e-06
2.31586e-06
0.00191795
2.33296e-06
2.4344e-06
0.00038503
2.26971e-05
4.11197e-06
2.6799e-06
2.10742e-06
3.93424e-06
0.031337
8.71522e-06
0.0176651
0.0272591
1.72167e-06
0.00122831
4.37139e-06
0.0203874
0.0294799
2.36924e-06
2.87714e-06
1.1813e-05
3.31711e-06
2.15365e-06
0.0377331
0.0233181
0.0326299
0.0117147
3.5154e-06
0.0228191
0.00833034
0.0145627
2.20027e-06
0.0130154
5.56371e-06
4.14606e-06
0.00233937
0.0138034
0.0102832
0.0118076
2.35974e-06
0.0123695
2.83373e-06
0.00039023
2.3377e-06
2.00712e-06
2.13229e-06
1.5337e-05
0.00187092
2.89084e-06
0.000113792
0.0361911
0.0147481
2.35861e-06
2.74172e-06
0.00358187
0.0238158
4.10669e-06
2.56108e-06
9.33171e-06
0.0115997
0.0245161
2.3901e-06
2.39883e-06
0.0576104
0.00970209
2.00246e-05
5.20623e-06
2.27584e-06
0.0138413
0.00301995
0.0628447
1.97026e-06
3.51092e-06
1.70172e-06
2.43459e-06
7.0194e-06
2.34676e-06
1.04416e-05
0.009457
0.0419983
1.96732e-06
2.78028e-06
0.0380329
2.13966e-06
0.0127289
0.0604474
0.0573961
2.27471e-06
1.06179e-05
2.34273e-06
0.0153983
0.00335863
2.63553e-06
1.71489e-06
2.5544e-06
0.00157651
4.15586e-06
1.85199e-06
1.73093e-06
2.12602e-06
0.000374178
9.93897e-06
0.030591
1.48603e-05
0.0166627
3.26325e-06
0.0142238
2.07862e-06
2.38021e-06
2.50667e-06
0.0136384
2.59107e-06
1.8452e-06
3.63313e-06
2.2715e-06
3.00382e-06
2.33427e-06
3.6595e-06
1.80255e-06
2.3824e-06
0.0218578
2.37195e-06
0.0175563
2.21092e-06
3.31029e-06
2.29796e-06
2.42367e-06
0.034347
8.29099e-06
3.39196e-06
2.34087e-06
0.0599502
2.53599e-06
2.19485e-06
3.21651e-06
1.95021e-06
2.45646e-06
1.72442e-06
0.0361758
4.33462e-06
2.99817e-06
4.16371e-06
1.79949e-06
0.0182773
2.37978e-06
0.0266053
8.62684e-06
2.23371e-06
2.60059e-06
0.0333551
8.50479e-06
0.00296084
0.00843147
3.66385e-06
0.0469179
1.83072e-06
2.92702e-06
3.068e-06
1.07431e-05
7.0435e-06
5.83939e-06
0.00876895
0.0182667
0.0570656
1.07903e-05
0.0365677
2.35096e-06
1.7154e-06
2.28361e-06
0.0417211
6.75153e-06
0.0208297
0.0435149
0.0410929
4.21311e-06
0.0210554
1.94982e-06
2.26989e-06
2.64715e-06
4.65388e-06
0.0128321
1.9244e-06
1.68481e-06
0.000618531
0.0279755
3.3677e-06
0.0214014
2.88303e-06
2.42461e-06
3.0485e-06
0.0125531
5.49165e-06
0.0271468
2.40005e-06
8.58396e-06
2.24991e-06
2.3999e-06
0.0168765
2.36193e-06
3.2532e-06
3.45008e-06
0.0132777
0.0150902
0.0301514
0.0275391
0.0328007
1.06022e-05
0.019109
0.0155887
4.10525e-06
0.000479935
0.00622603
2.03063e-06
0.173962
2.76213e-05
0.0311194
2.44362e-06
0.00012182
4.89728e-06
2.48925e-06
2.13849e-06
0.0155072
1.40601e-05
1.7938e-06
0.136803
0.094097
3.02735e-06
2.15912e-06
0.0335988
0.0124404
2.31226e-06
0.0127204
1.80778e-06
8.17656e-06
1.1237e-05
1.79748e-06
0.00620941
0.0578912
1.9652e-06
7.15272e-06
0.0425257
3.2334e-06
6.75002e-06
0.00241551
0.0781743
1.93143e-06
3.39761e-06
0.0314861
0.0365072
3.53417e-06
0.0187137
2.17716e-06
0.000319588
5.32558e-06
0.0159614
3.51178e-06
3.27995e-06
2.73963e-06
3.10986e-06
2.30952e-06
0.0619023
0.0289253
0.00139135
8.73647e-06
3.20422e-06
2.4084e-06
2.20986e-06
0.000224337
2.11093e-06
0.000651408
0.0278618
0.0282112
2.41151e-06
0.0144129
3.47465e-06
2.23585e-06
0.0194873
2.19859e-06
2.41177e-06
2.20751e-05
1.96153e-06
4.20406e-06
2.88226e-06
0.015792
6.32511e-05
2.38548e-06
1.79366e-06
0.00966474
0.00520768
2.43582e-06
2.41906e-06
6.51162e-06
0.0266565
4.17194e-06
3.64991e-06
2.75716e-06
1.96403e-06
0.0605363
3.50359e-06
1.24059e-05
0.0204199
2.17834e-06
0.0302916
3.28437e-06
1.93111e-06
2.98928e-06
0.0420594
8.47875e-06
0.0246627
0.0325239
0.00793556
1.79107e-06
0.0155757
0.000539028
2.26668e-06
6.79901e-06
5.33786e-06
0.0098267
2.24199e-06
0.00155231
1.94557e-06
0.0997347
1.84066e-06
0.0161753
0.0561546
4.7119e-06
2.23192e-06
3.37224e-06
1.77536e-06
2.81017e-06
2.10972e-06
2.29158e-06
2.17763e-06
3.43499e-06
0.017848
0.0304786
2.14621e-06
0.0120747
0.019872
0.00989089
0.0118491
1.9307e-06
0.0048606
3.08256e-06
0.024685
3.4359e-06
0.00500564
0.000622066
0.0101348
2.57975e-06
2.31272e-06
1.99908e-06
2.15777e-06
3.08952e-06
0.0105529
1.76031e-06
0.00959396
0.0115139
2.34136e-06
2.84577e-06
1.35977e-05
2.41998e-06
2.14947e-06
2.22643e-06
3.28778e-06
1.14169e-05
0.0475832
0.0190868
2.10065e-06
2.33226e-06
0.0108433
2.38436e-06
0.0137838
1.70552e-06
8.61893e-06
0.012463
0.0101071
0.247233
2.88441e-06
0.0163303
2.18075e-06
1.68083e-06
0.0153984
0.0290642
1.86141e-06
2.78413e-06
0.0105675
0.0366323
5.29574e-06
0.0213869
2.42757e-06
2.88521e-06
2.37236e-06
0.0229248
4.16501e-06
1.74461e-06
1.89663e-06
2.89468e-06
2.20289e-06
2.60643e-06
7.10189e-06
2.87803e-06
2.98528e-06
2.77173e-06
0.00283705
0.000125089
2.63814e-06
3.38241e-06
4.43781e-06
2.96313e-06
5.81878e-05
7.06906e-05
2.4975e-06
0.0156806
2.37247e-06
0.232088
2.68726e-06
0.00319879
0.0344665
2.20629e-06
6.23038e-05
0.00255346
3.7882e-06
5.49715e-06
2.78511e-06
2.11286e-06
0.0315021
2.32304e-06
0.00932967
2.16183e-06
0.0473934
3.93454e-06
1.9668e-06
1.73713e-06
1.86445e-06
0.0623748
2.53011e-06
6.95056e-06
0.0155341
0.042898
0.0100231
1.9034e-06
0.0198785
2.34952e-06
0.0340442
3.10316e-06
6.93333e-06
2.3015e-06
2.50514e-06
0.0397553
0.0338055
2.5309e-06
0.0134239
3.6871e-06
0.00018318
2.40844e-06
0.0131275
0.0762556
0.0147207
0.000198741
1.79045e-06
2.85386e-06
1.75524e-06
0.0340278
3.01257e-06
2.53301e-06
1.9584e-06
4.8871e-06
0.000931052
0.0186333
9.80036e-05
0.00731865
0.0295934
6.97061e-06
0.0023485
7.02181e-06
0.0123866
0.0140701
3.14479e-06
0.0117544
0.0129279
0.000909376
5.86609e-06
1.92595e-06
9.94777e-06
0.00227298
2.78725e-06
0.00765008
3.04566e-06
1.89825e-06
2.21903e-06
0.0138106
0.0109291
2.1588e-06
3.41163e-06
2.97813e-06
0.0150107
0.0183628
3.52886e-06
0.0185372
0.0186564
2.43072e-06
4.48517e-05
0.0334461
4.85375e-05
2.49509e-06
1.93923e-06
5.88408e-06
0.168589
0.037139
2.23253e-06
1.89471e-06
1.96086e-06
2.29011e-06
2.4732e-06
3.71757e-06
0.00122141
5.85431e-06
0.00122748
2.56378e-06
0.0166329
2.05484e-06
1.9382e-06
0.000253229
2.86021e-06
2.11622e-06
1.90314e-06
2.25423e-06
8.61093e-06
2.26157e-06
1.87852e-06
0.0102549
3.1955e-06
0.0240988
2.84475e-05
1.78267e-06
0.0392065
2.05269e-06
3.33574e-06
2.58187e-06
4.9698e-06
1.33925e-05
6.55805e-06
2.46284e-06
0.000261014
3.58107e-06
1.7402e-06
0.0236935
0.251981
0.00946653
0.0144471
2.40033e-06
3.65784e-06
0.00085825
2.0563e-06
0.00012358
2.13396e-06
3.53799e-06
0.00961304
6.84551e-06
0.062009
0.00203125
2.8629e-06
5.74895e-06
2.36144e-06
2.26715e-06
2.2558e-06
2.13012e-06
1.99801e-06
2.39465e-06
0.020282
2.03394e-06
0.0225282
0.000601931
0.0441857
0.0317429
2.83595e-06
2.85408e-06
0.218672
3.38e-06
1.90968e-06
3.51339e-06
0.0110277
2.79366e-06
0.0141709
0.00807771
2.63624e-06
3.5781e-06
3.53973e-06
0.0047451
0.000145043
2.14367e-06
7.67108e-05
2.54551e-06
2.19565e-06
0.0268653
4.16086e-06
2.76153e-06
4.68347e-06
2.4666e-06
2.86678e-06
1.77354e-06
2.93354e-06
0.0192759
1.87789e-06
2.45212e-06
2.78629e-06
9.05697e-05
2.61131e-06
0.0145613
0.0251774
4.04452e-06
3.22155e-06
0.017519
3.57342e-06
0.00187639
1.95703e-06
2.69875e-06
2.58419e-06
2.13413e-06
2.21412e-06
1.91107e-06
1.84431e-06
3.08631e-06
1.87982e-06
1.8669e-06
1.8078e-06
1.97594e-06
2.95238e-06
2.98712e-06
1.70634e-06
5.54283e-06
0.00660878
0.0214811
2.17634e-06
2.50055e-06
2.71719e-06
2.38539e-06
2.35552e-06
2.30363e-06
2.04474e-06
6.71467e-05
0.0104079
2.06551e-06
0.015519
1.91152e-06
0.000178612
2.20835e-06
0.0468165
2.2426e-06
0.0248161
3.24312e-06
2.35171e-05
2.25823e-06
0.0122847
0.035083
2.41139e-06
2.24301e-06
2.31473e-06
2.43793e-06
2.84883e-06
2.18984e-06
2.96381e-06
0.0233687
0.0208145
2.16029e-06
0.000124426
0.00891205
0.00786184
0.0135792
1.74796e-06
3.55678e-06
2.11549e-06
1.71003e-05
2.13633e-06
1.93957e-06
1.04812e-05
2.04352e-06
2.30469e-06
0.0721295
1.98059e-06
6.66527e-06
1.77077e-06
2.01539e-06
4.13389e-06
0.00165909
0.0238478
0.00183866
3.29342e-05
0.0884025
0.0563419
0.0155679
2.69188e-06
3.02403e-06
3.0358e-06
0.0158589
1.72092e-06
2.41683e-06
2.41265e-06
2.37332e-06
0.00473505
1.83185e-06
2.7308e-06
0.000103979
3.50327e-06
1.99886e-06
2.36945e-06
0.0265026
1.95182e-06
1.87682e-06
2.41083e-06
1.92753e-06
0.00707797
1.81489e-06
2.18521e-06
2.51928e-06
2.90745e-06
2.22671e-06
1.89787e-06
2.48911e-06
9.03691e-06
0.0470126
0.0793278
0.0415571
2.008e-06
0.0278095
2.46696e-06
3.32462e-06
2.45845e-06
2.52452e-06
2.60335e-06
2.41282e-06
2.86557e-06
0.0289542
2.07479e-06
2.16961e-06
1.73079e-06
0.0272318
2.42104e-06
1.85922e-06
2.61535e-06
0.00950378
0.0356182
0.000158321
0.0214479
2.70559e-05
3.01377e-06
0.0122986
2.35452e-06
2.34663e-06
1.90129e-06
2.30883e-06
4.2251e-06
0.0230113
0.000142295
0.0039025
2.38934e-06
2.16753e-06
0.00040804
2.00711e-06
3.71437e-06
1.92574e-06
1.72325e-06
2.8743e-06
0.0565854
3.38604e-06
2.64266e-06
2.53596e-06
2.39815e-06
0.0171858
3.31649e-06
0.000882389
4.09523e-06
0.012574
1.83519e-06
2.47845e-06
0.102538
2.51872e-05
0.182414
3.03001e-05
1.85874e-06
1.04773e-05
0.000227535
0.00164356
0.11037
2.3881e-06
2.38429e-06
4.41243e-05
0.0170465
2.15133e-06
0.0593552
1.70512e-06
2.19177e-06
0.00569254
0.0184857
2.72538e-06
0.044824
2.90228e-06
0.000140141
2.1117e-06
0.000446399
0.000114901
2.29642e-06
4.71545e-05
0.0159668
1.71604e-06
0.108877
1.91809e-06
2.10538e-06
2.48129e-06
2.4138e-06
1.85001e-06
0.0137369
7.24874e-05
0.0129996
0.00600582
3.07655e-06
0.033226
2.19954e-06
2.77491e-06
1.52035e-05
2.56875e-06
2.84705e-06
5.20226e-06
0.0355722
1.76934e-06
9.46571e-06
0.0711966
2.04157e-06
1.68506e-06
1.79064e-06
0.00508962
2.32697e-06
3.02534e-05
2.56606e-06
2.38911e-06
2.5491e-06
0.0852405
2.80725e-06
6.68363e-05
2.20028e-06
1.79415e-06
2.38646e-06
0.0927986
0.0173085
1.09009e-05
5.56562e-06
0.193959
2.19406e-06
0.0619841
3.4752e-06
3.03742e-06
2.38968e-06
4.59587e-05