/*--------------------------------*- C++ -*----------------------------------*\
| =========                 |                                                 |
| \\      /  F ield         | OpenFOAM: The Open Source CFD Toolbox           |
|  \\    /   O peration     | Version:  v2012                                 |
|   \\  /    A nd           | Website:  www.openfoam.com                      |
|    \\/     M anipulation  |                                                 |
\*---------------------------------------------------------------------------*/
FoamFile
{
    version     2.0;
    format      ascii;
    class       volScalarField;
    location    "250";
    object      k_0;
}
// * * * * * * * * * * * * * * * * * * * * * * * * * * * * * * * * * * * * * //

dimensions      [0 2 -2 0 0 0 0];


internalField   nonuniform List<scalar> 
14033
(
9.16207e-05
0.0330113
0.000109698
0.000110657
0.000232552
0.000112655
0.000103235
0.0408458
0.00011235
9.92559e-05
0.0012162
0.030358
0.118979
0.000108401
0.000106804
9.96959e-05
0.000102294
0.000423905
0.0949276
0.000147221
9.35427e-05
0.0894348
0.0681112
0.000110125
0.0907348
0.000102246
0.000162746
0.000109006
0.0235738
0.0631912
9.10824e-05
0.000116571
0.000104886
0.106158
9.51983e-05
0.000112648
0.00010259
0.000146025
0.000100006
0.000103159
0.000120541
0.00011154
0.0396436
0.118195
0.00011818
0.083775
9.34518e-05
0.000111315
0.000153746
0.0465352
0.000325487
0.000185864
0.0494287
0.0835454
0.000127997
0.000103104
0.0643633
0.000108706
0.000103481
0.000117227
0.00015876
0.00011558
0.0537159
0.000107587
9.66012e-05
0.00157903
0.0187608
0.000399025
0.000118515
9.55928e-05
0.000104404
0.000107287
0.0692745
0.107305
0.0141921
0.000112958
0.000271483
0.000113253
0.000119608
0.000166111
0.00012619
0.0680064
0.0339489
0.08393
0.000111424
0.000115735
0.00010697
0.000102021
0.00015375
0.0366409
0.000100655
9.91231e-05
0.000129931
0.0116497
0.0410569
0.00013706
9.68029e-05
0.00352153
0.0273025
0.00013376
0.000119056
0.114265
0.000114641
0.000109308
0.0381718
0.010195
0.000116686
0.0026457
0.00016039
0.106976
9.5019e-05
0.000117085
0.000133737
0.0536809
0.000134664
0.0727546
0.0297107
0.000115041
0.000163242
0.0376841
9.96736e-05
0.0493349
0.00010358
0.000117719
0.109178
0.000103513
0.0938459
0.00028395
0.000107748
0.000119189
0.0697309
0.000174102
0.000163806
0.0473662
0.000918216
0.000108071
0.0403027
0.0801496
0.000117806
0.000288792
0.0231663
0.0853229
0.000104386
0.00206616
0.0001205
9.19292e-05
0.0728103
0.00039595
9.17933e-05
0.00012086
0.000144389
0.000165267
9.9863e-05
0.0591623
0.00047286
0.000107672
0.0392648
0.000119246
0.000104672
0.0125317
0.046527
0.000381171
0.000106732
0.000110313
0.0746317
9.73308e-05
0.108229
0.000104247
0.0253028
0.000117247
0.000963206
0.000113859
0.00011967
0.000141398
0.000115329
0.000160463
0.0001419
9.98492e-05
0.000108567
0.0247047
0.0365396
0.000295733
0.000116824
0.0394017
9.88934e-05
0.000100495
0.000111172
0.000128422
0.0758369
0.000116374
0.00012424
0.000100091
0.0508165
9.89425e-05
0.000104804
0.000126383
0.000103152
0.124928
0.00678704
0.000123858
0.0920071
9.27716e-05
0.00128441
0.000112011
0.0848695
0.0613691
0.000112678
9.24686e-05
0.087379
0.0700284
0.000103765
0.000119382
0.00117415
0.000117736
0.000104323
0.000103177
0.000119996
0.00670973
0.00035797
9.7208e-05
0.0406928
0.0945343
0.000133353
0.000110711
0.000143369
0.00240505
0.0817388
9.69595e-05
0.0406552
0.000116115
0.000109743
0.000107268
0.0142418
0.083464
9.70311e-05
9.46833e-05
0.0524114
0.000109895
0.000110144
0.000103505
9.91195e-05
0.00034449
0.000111898
0.046013
0.000114074
0.0242405
0.000117027
0.0411764
0.000297773
0.00010513
0.000552669
0.0169507
0.00010397
0.000117872
9.82067e-05
0.000347808
0.000110994
0.00103396
0.000129587
0.112279
0.000129007
0.0352841
0.000142471
0.000118754
0.000117902
0.000108107
0.0001147
0.000197997
0.000114525
0.000122363
0.000101019
0.000124496
0.000485828
0.000282867
0.00438651
0.000103646
0.000108548
0.000108423
0.0550735
0.000121092
0.000145954
0.000124869
0.0533877
0.0739732
0.000101245
0.0564396
0.000103922
0.000110224
9.44186e-05
0.000110316
0.000146895
0.00018549
0.00010326
0.0761638
0.00010771
0.000139897
0.0002718
0.000116246
0.112425
0.0301671
0.000163185
0.062425
0.000105265
0.000107181
0.057186
0.000106502
0.000110613
0.000119757
0.000125636
9.5424e-05
0.00021141
0.000384985
0.00010931
0.0347752
0.0699936
0.112169
0.000123823
0.000146906
0.0489104
0.000111067
0.000115662
0.000112899
0.000114716
0.000114673
0.00010409
9.62174e-05
0.00011205
9.78664e-05
0.000107655
0.0870694
0.101442
9.27518e-05
0.000112005
0.0366469
9.92659e-05
9.93549e-05
0.000105634
0.000109227
0.0525075
9.98019e-05
0.0358049
0.041057
0.000103391
0.0775583
9.59469e-05
0.000112506
0.000118884
0.000102036
0.0570013
0.000104009
0.0804482
0.000171975
0.00012032
0.000132779
9.87223e-05
9.82565e-05
0.000119184
0.000809986
0.034872
0.105083
0.000120263
0.108742
9.70474e-05
0.00115097
0.000141426
0.000131842
0.000129044
0.000145901
0.0524623
0.105116
0.00526185
0.000125423
9.98058e-05
0.000110377
0.000114397
0.0264147
0.000237775
0.000115857
0.0776251
0.000112643
0.000132542
0.000119558
0.000105132
0.000103791
0.0598675
0.0162991
0.000327847
0.000206717
0.00011904
0.00211564
0.0762924
9.4778e-05
0.0146436
0.000110381
0.000113778
0.00254005
0.0821419
0.00025815
0.125422
0.000112711
9.76534e-05
0.0353159
0.000138355
0.0105685
0.00424969
0.0251008
9.62919e-05
0.000111112
0.0645361
0.0252016
0.000119318
0.000120046
9.66598e-05
0.00101322
0.000146991
0.0248919
0.0833705
0.000100756
9.7731e-05
0.00114418
0.000110853
0.000118044
0.030485
0.0349012
0.000116114
0.0528576
0.0454041
0.0205405
0.000100905
0.000102524
0.000124936
9.60341e-05
0.108064
0.000102816
0.000110695
0.0489779
0.0514145
0.000153961
0.000344607
0.000113324
0.0742786
0.00441173
0.000106716
0.0843252
0.000123367
0.0469523
0.00193919
0.0129967
0.000110498
0.02848
0.000117655
0.0818707
9.71589e-05
0.0386635
0.0502604
0.000144919
0.102579
0.000116981
0.0185686
0.0484181
0.0882505
0.0255652
0.00013405
0.0516474
0.0493067
0.000521187
9.25602e-05
0.0475139
0.00286146
0.0001653
9.85238e-05
0.00276657
0.000101023
0.000112849
0.0900081
0.000203287
9.46541e-05
0.00011055
0.0454748
0.0111427
0.103046
0.000110505
0.075666
0.0629321
0.000109545
0.0323926
0.000101842
9.7954e-05
0.000962897
0.000102235
0.000512388
0.0724854
0.000145436
9.62106e-05
0.000107565
0.0073349
0.00012447
0.000115954
0.000101417
0.000109437
9.85586e-05
9.48396e-05
0.000221596
0.000117195
0.00275047
0.000298829
0.000113212
9.47515e-05
0.084032
0.0862764
0.0527927
9.50047e-05
0.000143791
0.00014096
9.09835e-05
0.000107484
0.000114298
0.0839061
0.000594284
0.0241156
0.000112514
0.000103791
0.0373012
0.000110867
0.000117768
0.0209755
0.000116747
0.0191463
0.0563364
0.000111108
0.000170689
0.00028507
0.0341804
9.91296e-05
0.000111576
0.000524674
0.000216717
0.000110466
0.0507991
0.091133
0.000109278
0.000144076
0.000157642
0.105048
0.0842835
0.0517694
0.000100333
9.71172e-05
0.0590782
0.000111254
0.000137837
0.000188085
9.15849e-05
9.73201e-05
0.0442487
0.00029335
0.000641956
0.000136272
0.0476652
0.000100011
0.000100932
9.44064e-05
9.66635e-05
0.0452204
0.000347594
0.000194824
0.000103487
0.00185932
0.00014722
0.0641689
0.000104215
0.101004
0.0397744
0.000115532
0.0780983
0.0153072
0.00011781
0.0600561
0.107111
0.000102734
0.0669709
0.000108437
0.0847654
0.000111759
9.3969e-05
0.0733651
0.000127232
0.00010776
0.000230022
0.0856264
0.040113
0.000146281
0.00010736
0.000226249
0.000139491
0.0628722
0.000115397
0.000187092
0.000288694
0.000282698
0.000427565
0.000115069
0.0618839
0.103893
0.000113695
0.0927443
0.000129404
0.000132534
9.72957e-05
0.000213837
0.000101018
0.0371415
0.000101798
0.000110854
0.000141636
0.000117293
0.000135612
0.000112856
0.0693557
0.000112253
9.76099e-05
0.000901855
0.0502411
0.0649928
0.0391603
0.0418395
0.00010718
0.0873972
0.0780431
0.0542635
0.00011072
0.0389073
0.000120165
9.93612e-05
0.000104412
0.0350632
0.000106564
0.0977956
0.000107419
0.00170535
0.0341818
0.111504
0.000119822
0.0496547
0.000105028
0.000116869
0.000106705
0.000146271
9.3886e-05
0.00012828
0.000102685
0.000145074
0.000109519
0.0835991
0.000545528
9.41451e-05
0.000322364
0.0370826
0.00348351
0.000100996
0.000151753
0.000100095
0.000108194
0.0843818
0.00178526
0.000114875
0.000117046
0.000129399
0.000280331
0.000119091
0.0205858
0.000110536
0.000109866
0.000112113
0.000126253
0.000118417
0.000107726
0.0399165
0.0298398
0.0346568
0.0736888
0.0896736
0.000106366
0.00011082
0.0001148
0.0271038
0.000140443
0.000102938
0.00010151
0.00216702
0.000102518
0.1104
0.000783913
0.00011521
0.00017173
0.000119801
0.000102286
0.0267263
0.02798
0.000110127
0.000119693
0.000111912
0.000125351
0.000120771
0.00077384
0.000110245
0.000281464
0.000706303
0.000119957
0.000112098
0.0705325
0.000132883
0.0269148
0.000158651
0.000112965
0.000112011
0.000167157
0.0837639
0.000104025
0.000174872
0.000143183
0.000176121
0.0352089
0.000109257
0.0153849
0.000118835
0.0828401
0.000103556
0.000110198
0.0443409
0.0478757
0.000701856
0.000135231
0.000109829
0.00010897
9.27477e-05
0.0567897
0.000101913
0.111557
0.0532943
0.000107712
0.000292728
0.000111085
0.00203582
0.000109382
0.000114268
0.108612
0.000106671
0.0448653
0.000112864
9.72061e-05
9.91879e-05
0.000136956
0.000123378
0.000314276
0.000105438
0.000100693
0.000130897
0.0585789
0.0299147
0.000122337
0.0440569
9.07747e-05
0.000125838
0.000114941
0.000120352
0.0690676
0.00010731
0.0258249
0.0128287
0.000141817
0.0986558
0.0405248
0.000144278
0.000991917
9.95714e-05
0.00154869
0.113933
0.0171074
0.0678999
0.000128436
0.0791668
0.0637788
9.64844e-05
0.10103
0.0030449
0.000111942
0.000109099
0.111191
0.0577697
0.000124708
0.000154024
0.0485472
0.0580003
0.0576841
0.000113065
0.000170733
0.0557226
0.000119795
9.63655e-05
0.0536317
0.000103314
0.000146017
0.000339197
0.078996
0.000115633
0.000133894
0.000116301
0.0938288
0.101796
0.0660041
0.000149227
0.0374449
0.000439905
0.0565604
0.000130341
0.00657857
0.000108919
0.000106269
0.000108471
0.000107887
0.000126564
0.000111093
0.000118525
0.0016358
0.000113275
0.0747421
0.0761689
0.000110587
0.00012953
0.000103142
0.0586256
0.0315964
0.0329386
0.00011224
0.0209038
0.000162763
0.00541626
0.000116652
0.00179714
0.000114886
0.000107098
0.000101397
0.00014994
9.62932e-05
0.000145761
0.000109966
0.0566781
0.00011433
0.000104797
0.000109413
0.000151286
0.0583954
0.000154672
0.109398
0.0799906
0.000177928
0.0290189
0.000110131
0.000101184
0.000101036
0.0788676
0.0832595
0.000153912
0.0746447
0.000125515
0.000148092
0.00010719
0.000106063
0.0251431
0.000118732
0.000186107
0.00010784
0.00013407
0.000118294
0.000109821
0.000152807
0.000112244
9.76971e-05
0.00595527
0.000983287
0.000112673
0.000146614
9.3243e-05
0.063118
0.000119712
0.000139571
9.9676e-05
0.0467779
0.000184991
0.000145759
0.000102956
0.0511537
0.0001107
0.000106535
0.0394761
9.37045e-05
0.113731
0.0589752
0.000114457
0.000139243
0.000101597
0.00882554
0.000112849
0.00190689
0.0315512
0.000102093
0.0574396
0.0001064
0.000113077
9.38768e-05
9.24457e-05
0.0927272
0.106679
0.000101848
0.0342329
0.00011782
0.120982
0.000120359
0.000120839
0.000110869
9.63185e-05
0.0446342
0.000127663
0.000190288
0.0531037
0.000144568
0.000111971
0.122393
0.000115294
0.000127101
0.000142454
0.0576838
0.0610072
0.000177612
0.0542268
0.000105875
0.000104127
0.000307157
0.000147112
9.80904e-05
0.0734167
0.116247
0.000145197
0.000117907
0.000156179
0.000113836
0.000109072
0.000107129
0.0522746
0.000256658
0.000113888
0.000109194
0.0388204
0.020236
0.000103142
0.000116761
9.52124e-05
0.104731
0.000101937
0.000938692
0.000119837
0.000121921
0.0447535
0.000505597
0.000179994
0.000111775
0.000111502
0.000294437
0.0834772
0.000142999
0.000115923
0.0001036
0.000145166
0.000148423
0.00103386
0.000113706
0.000111702
0.000102184
0.000114477
0.000118637
0.000440548
0.000111895
0.000114665
0.000198383
0.000101768
9.67278e-05
0.0468196
0.00183072
0.00232903
0.000113345
0.000132328
0.000112813
0.000320683
0.00560541
0.0152123
0.000113577
0.000105692
0.000106848
0.000142279
0.038122
0.000143094
0.0886171
0.0708731
0.0365627
9.42661e-05
0.00121848
0.0509008
0.000107149
0.0014035
0.000116007
0.000135433
0.0831804
0.000103866
0.0121403
0.106051
9.59419e-05
0.0542093
9.07226e-05
0.000118279
0.00100229
0.00010135
0.00128011
0.000142335
0.000107404
0.000113035
0.000103531
0.000526176
0.000108351
0.076484
0.000143132
9.23613e-05
0.000126317
0.000120191
0.000121361
0.000198768
0.0562016
0.000115959
0.0691445
0.000101381
0.000144093
0.00011613
0.0001021
9.34688e-05
0.0241827
0.00021743
0.000170663
0.000174554
0.000117075
0.000293673
0.000349008
0.000138887
0.0605103
0.034493
0.040821
0.0998306
0.000108187
0.0379078
0.0612682
0.000105844
0.000129452
0.000120689
0.0633984
0.0956175
0.00191455
0.0422974
0.103938
0.000100798
0.000193168
0.0405118
0.0001222
0.100083
0.0612938
0.061899
0.000109344
0.0399743
0.000110035
0.000100034
0.0312702
0.000188017
0.0397739
0.0329059
0.0579205
0.100826
0.000192776
0.0001169
0.0754658
0.0649543
0.0247256
0.00010357
0.000111988
0.000196205
0.0197604
0.000110435
0.000108621
9.13255e-05
0.000172174
0.081217
0.00106514
9.55664e-05
0.103894
0.0201862
9.85094e-05
0.00036445
0.113478
9.30048e-05
0.00151231
0.0275398
0.000110363
0.0938084
0.000130222
0.000111679
0.000108464
0.0544319
0.00219342
0.0624396
0.000246574
0.0529219
0.00255994
0.0857034
9.35242e-05
0.000111137
0.000102374
0.000116329
9.75009e-05
0.000140693
9.98222e-05
0.000108979
0.0770538
0.103994
0.000103261
9.36091e-05
0.0020726
9.59885e-05
0.0569369
0.000147186
0.107503
0.000111197
0.0599675
0.000111584
0.0237929
0.0587661
0.000100526
0.000125445
0.0944883
0.114394
0.123157
0.0460637
0.0415831
9.53587e-05
9.38212e-05
0.000114193
9.1227e-05
0.000100186
0.0593118
0.00011316
0.000102809
0.000107284
0.0861379
0.000130122
0.106763
0.000157045
0.000106217
0.065849
0.000161942
0.000191606
0.000186444
0.000144285
0.000133141
0.00706491
9.33082e-05
0.108235
0.000111172
0.00012
0.000116831
0.0279485
0.0417915
0.000111883
0.000142869
9.297e-05
0.000129383
0.000205242
0.00862745
0.00010533
0.000106195
0.000108808
0.0443791
0.0343117
0.000111343
0.000104246
0.00027527
0.000110846
0.00148055
0.000209292
0.000130514
0.000108619
0.110306
0.000128369
9.8486e-05
0.0437217
0.000294399
0.059795
0.0511167
0.000100387
0.000110276
0.0549582
0.0883649
9.30631e-05
9.99326e-05
0.000116189
0.000270036
0.000164996
9.32558e-05
0.000112384
0.0727274
0.000121153
0.0468156
0.000144566
0.000448008
0.0928531
0.000122622
0.000123368
0.0479836
0.000112355
0.0798233
0.0532605
0.000101923
0.0534348
0.000113225
0.000103806
0.000104171
0.00013691
0.000113661
0.000178696
9.85934e-05
0.000105771
0.110017
0.0903003
9.89962e-05
0.106734
0.000144925
0.0600873
9.95125e-05
0.000842626
9.51913e-05
0.000402829
0.00245397
0.000111909
0.000103885
0.0346225
0.122169
0.0269927
0.000180232
0.0387571
0.000113694
0.000130386
9.99107e-05
0.000111321
0.0569974
0.000110977
0.000104013
0.000191393
0.000111723
0.0297079
9.85009e-05
0.0435795
0.0386379
0.000195095
0.00019037
0.0267389
0.000110878
0.000100503
0.0641839
0.000103954
0.000125453
0.0269039
0.000110795
0.124343
0.000111668
0.0524663
0.000107664
0.0334332
0.104361
0.110125
0.107735
0.000100659
9.36211e-05
0.000141072
0.000106004
0.000116009
0.0689116
0.00109556
0.0554931
0.000108634
0.071249
0.0742569
0.0764186
9.17692e-05
0.000112726
0.0601353
0.000117483
0.000129088
0.000101664
0.0437011
0.000113949
0.0625445
9.55995e-05
0.0968814
0.000147268
9.97738e-05
0.000118276
0.000127951
0.0127367
0.0759405
0.0931857
0.102355
0.000120184
0.000133146
0.000111845
0.000129166
0.111148
0.000308272
0.000107508
0.00011878
0.000972906
9.66785e-05
0.00130256
0.000116829
0.000149444
0.00014843
0.047195
0.0554351
0.0257034
9.95354e-05
0.0416998
0.0409746
0.0764841
0.000111418
0.000112066
0.000102238
0.000113171
0.062497
0.00230844
0.0573664
0.000115701
0.000111803
0.000114683
0.000155382
0.0850063
0.0295833
0.000248221
0.0592594
0.000685885
0.000170131
0.000128902
0.000113853
9.25611e-05
0.0383214
0.000121994
0.000119572
9.92472e-05
0.000122461
0.0124068
0.000108029
0.070131
0.00579358
0.000124812
0.00013607
0.000142234
0.000118513
0.00581875
0.0112712
0.000113161
0.000136396
0.000106463
9.74675e-05
9.9817e-05
0.0975684
0.0375937
0.000111158
0.00010709
0.000112987
0.000101673
0.0946382
0.0422465
0.0928661
0.000113759
0.0434089
0.00011624
0.000129753
0.0246784
0.000139958
0.0737798
0.000112774
0.0886415
0.000134158
0.00015803
0.00011477
0.000107003
0.0412512
0.000793573
0.0605668
0.000135761
0.000101543
0.000541876
0.00010791
0.0360267
0.000120753
0.000120874
0.000109346
0.000102964
0.000116338
0.000104044
0.0266014
0.0682956
0.000116351
0.000135849
0.00012902
9.87427e-05
0.000108587
0.000124886
0.000100944
0.000100348
0.000112376
0.000108495
0.0001925
0.0810257
0.0523823
9.92301e-05
0.000107107
0.000150402
0.000145255
0.000109881
0.000110697
0.0296262
0.0305292
9.26918e-05
0.0435003
0.0026534
0.000158209
0.000107597
0.000209198
9.55425e-05
0.0669673
0.000106676
0.000106371
0.000113276
0.0992192
0.000426527
0.000614756
0.000132812
0.00011307
0.0920527
0.000139664
0.000106331
0.0238556
0.000112624
9.98882e-05
0.0017749
0.00011507
0.000110846
0.0648608
0.000104346
0.000111076
0.000127095
9.58767e-05
9.41987e-05
0.0406243
0.00181382
0.000108334
0.109471
0.000151522
0.000344581
0.103989
0.000109447
0.000118585
0.0388343
0.000139832
0.0390155
0.000144868
0.126905
0.000119216
0.0135804
0.0425563
0.0399447
0.000103171
0.000105695
0.0708359
0.0455909
0.000331654
0.000103463
0.0544413
0.0155981
0.000117565
0.000110367
0.00010591
9.43446e-05
0.0382721
0.000100767
0.000103923
0.000113238
0.0314152
0.00041652
0.000139691
0.0456792
0.000913005
0.000108349
9.46062e-05
0.000100004
0.000136064
0.000102784
0.000115799
0.000103371
0.0521403
0.0483445
0.000151752
0.0276977
0.0364186
0.000107742
0.00010863
0.0548243
0.000118539
0.0759488
0.000110706
0.000111442
0.0404936
0.000179506
0.000108146
9.38438e-05
0.0991036
0.000109625
0.000110439
0.000110997
0.0215495
9.71453e-05
0.000126085
0.000404693
0.102426
0.0370532
9.81602e-05
9.65849e-05
0.0929956
0.000143109
0.000107342
0.000106229
0.000119847
0.0077683
0.000109882
0.0424782
0.000115467
0.000107051
0.000117156
0.000116552
0.000110746
0.000342188
0.0841272
0.00138542
0.00010755
0.000118165
0.000123699
0.0304246
0.00010323
9.56955e-05
0.000105095
0.000118764
0.0811868
0.000156575
0.03486
0.0686855
0.109768
0.0331875
0.000108954
0.0298636
0.121632
0.0590822
9.59951e-05
0.00130707
0.000137105
0.000115
0.000549655
0.000122034
0.000176242
0.0820973
9.90536e-05
0.00274108
0.0538056
0.0179797
0.0573154
0.0345818
0.0347313
0.000149032
0.121705
0.0569413
0.000144158
0.000195847
9.84218e-05
0.000104637
0.000152864
0.000110928
9.63273e-05
0.00025332
0.000119026
0.0093344
0.00058542
0.0021216
0.0405647
0.10161
0.000142515
0.000465351
9.60843e-05
0.000140509
0.000177109
0.000115963
0.00011586
0.000101027
0.0887155
0.000111012
0.00317945
0.123089
0.000135602
0.000113791
0.000104363
0.000108573
0.00314821
0.000111601
0.000102686
0.000101339
0.000102912
0.000106978
0.000110833
0.000106257
0.000145007
0.000105824
0.0639092
0.000112629
0.0664942
0.0496809
0.000118006
0.000106684
0.0195079
0.000762871
0.000125761
0.000103294
0.00010765
0.000118254
0.0694949
0.0808104
9.21012e-05
0.0550106
0.052809
0.000105686
0.0416963
0.0941331
0.00012022
0.000102627
0.000100961
0.00010698
0.000107841
0.0614229
0.000191857
0.00113341
0.0858269
0.000108363
9.93787e-05
0.0348778
0.00010133
0.000119143
0.000103184
0.000110942
0.0203293
0.0844582
0.000165178
0.000124716
0.0648422
0.0691798
0.0766369
0.0371276
0.00011189
0.000110891
0.000109453
0.000629348
0.00018857
0.0467281
0.11784
0.000102856
0.000103853
0.00013569
9.07978e-05
0.00257696
0.000108766
0.000102916
0.0293599
0.122155
0.000961961
0.000118421
0.116608
0.000111247
0.0346231
0.000126789
0.000146541
9.77689e-05
0.000108226
0.000108599
0.036603
0.0457969
0.000103584
0.0179065
0.000121179
0.00012778
0.000146323
0.000101501
0.0761273
0.000113501
9.6503e-05
0.0382943
0.000100093
0.000113055
0.000135405
0.0869313
0.000109997
0.000452633
0.000114851
0.00042233
0.000156727
0.000107757
0.000108752
0.010075
0.000109047
0.000113576
0.00161324
0.00061267
0.000146324
0.000117124
0.000103325
0.000142994
0.0385576
0.000291415
0.0663738
0.0736299
9.30204e-05
0.00506235
0.000177762
0.0716832
0.046856
0.00010993
0.000121513
0.000349493
0.000130859
0.000104636
0.0229258
0.0437983
0.0891006
0.0431409
0.000134865
0.0750489
0.0333576
0.0429034
0.000105962
0.0566273
0.0002055
0.000146923
0.0119754
0.0580358
0.0412425
0.0380757
0.000109715
0.0419097
0.00012054
0.00155766
0.000109483
0.000100735
0.000103974
0.00041502
0.010382
0.000132852
0.00169526
0.066966
0.0602359
0.000109856
0.000118474
0.0168244
0.0758321
0.000146257
0.000114381
0.000315422
0.0433526
0.0394814
0.000111772
0.000111738
0.0609027
0.0413079
0.000497861
0.000196102
0.000107572
0.0583537
0.0148022
0.109261
0.000102563
0.000134776
9.26487e-05
0.000114984
0.000251618
0.000109283
0.000343562
0.034993
0.0916884
0.000102838
0.000119341
0.0837516
0.000104187
0.0559737
0.0945963
0.0177264
0.000107672
0.000346751
0.00010956
0.062123
0.017896
0.000116092
9.30833e-05
0.000114222
0.00622051
0.000147136
9.6868e-05
9.34778e-05
0.00010818
0.00347553
0.000314323
0.0695383
0.000428392
0.0648562
0.000144547
0.0595283
0.000106028
0.00011365
0.000113115
0.0525685
0.000119532
9.66763e-05
0.000137209
0.000107465
0.000131492
0.000109027
0.00013774
9.55698e-05
0.000110141
0.0697453
0.000111848
0.0664034
0.00011007
0.000145836
0.00010809
0.000113032
0.0926576
0.000280489
0.000148249
0.000109207
0.0979927
0.0001138
0.000108503
0.000139668
0.000100276
0.000115837
9.3109e-05
0.064634
0.000175318
0.000136319
0.000147281
9.54748e-05
0.0678627
0.00011017
0.0547709
0.000279753
0.000106746
0.000115391
0.0803911
0.000287173
0.0143563
0.0300521
0.000153533
0.0954324
9.60672e-05
0.000122575
0.000139844
0.000322911
0.00025698
0.000220873
0.0302877
0.0348741
0.101717
0.000335032
0.0910805
0.000109724
9.30564e-05
0.000108008
0.0904487
0.000238724
0.0724378
0.0769184
0.0941893
0.000148221
0.0668651
0.000100467
0.000108295
0.000120941
0.000180991
0.038056
9.86189e-05
9.21843e-05
0.00693675
0.083778
0.000147742
0.0420061
0.000121615
0.000111433
0.000125236
0.0297333
0.000203702
0.0825842
0.000110919
0.000275062
0.000107015
0.000110969
0.0389409
0.000109655
0.000144381
0.00014998
0.0569952
0.0612576
0.0631688
0.0818155
0.0872252
0.000322918
0.069532
0.0342596
0.000146159
0.00537852
0.0245491
0.000103466
0.12119
0.000639072
0.0866859
0.000111843
0.00193242
0.000190093
0.000115299
0.000104246
0.0556394
0.000399618
9.50114e-05
0.0781467
0.124209
0.00012476
0.000107701
0.064466
0.0488595
0.000109126
0.0490849
9.62342e-05
0.000279283
0.000336809
9.59799e-05
0.0264463
0.113493
9.97987e-05
0.000253837
0.0593139
0.000143322
0.000243235
0.0125862
0.11296
9.9002e-05
0.000132496
0.0799898
0.077417
0.000135256
0.0432184
0.000108009
0.00339244
0.000199678
0.0592194
0.000134777
0.000144748
0.000124234
0.00013974
0.000108376
0.102662
0.081801
0.00848056
0.000278801
0.000128495
0.000112165
0.000106225
0.00301348
0.000103598
0.0045196
0.0661766
0.0828425
0.000111009
0.059904
0.000147878
0.000111302
0.0666165
0.000109383
0.000111129
0.000534411
9.96115e-05
0.000173003
0.000121595
0.0627729
0.00131836
0.000110924
9.56493e-05
0.0435725
0.0206189
0.000111651
0.00011458
0.00023608
0.0397704
0.000168283
0.000137522
0.000118822
0.000100823
0.0796903
0.000134617
0.000386851
0.0713107
0.000105137
0.0861056
0.00014335
9.92094e-05
0.000136005
0.0950801
0.000279605
0.0788384
0.0455739
0.0327023
9.5726e-05
0.0624063
0.00515892
0.000107534
0.000252561
0.000199513
0.0374027
0.000106806
0.00885483
9.92934e-05
0.123609
9.70794e-05
0.0591758
0.112612
0.000184243
0.000110531
0.000147706
9.48763e-05
0.000120023
0.000103403
0.000107938
0.000108919
0.000133263
0.0664898
0.0462803
0.000107813
0.0470508
0.0669571
0.0439186
0.0414398
0.000100376
0.0226641
0.00012595
0.0352232
0.000145562
0.023082
0.0059627
0.0443149
0.000114807
0.000109078
0.000101229
0.000105577
0.000126088
0.0451112
9.42881e-05
0.0397284
0.0411907
0.000110762
0.000120798
0.000387241
0.000111129
0.000104499
0.000106612
0.000144903
0.000355042
0.106395
0.0628055
0.000103335
0.000109146
0.0456663
0.000110678
0.058498
9.2571e-05
0.000277564
0.0521759
0.0420343
0.122581
0.000132365
0.0421777
0.000105284
9.20923e-05
0.056286
0.0820755
9.7136e-05
0.000129352
0.0346767
0.092951
0.000200724
0.07293
0.000111266
0.000121689
0.000110584
0.0760733
0.000147304
9.4192e-05
9.80116e-05
0.000121856
0.000108905
0.000115435
0.00025291
0.000121555
0.000123847
0.000119178
0.0154947
0.00174593
0.00012508
0.000145065
0.000175924
0.000123343
0.00105366
0.00119267
0.000112998
0.0380012
0.000109904
0.122632
0.000117243
0.017734
0.0867875
0.000105922
0.00111728
0.0130013
0.00015991
0.000205324
0.00012558
0.000103487
0.0859389
0.000108957
0.0424971
0.000106583
0.0978544
0.000142991
0.000102296
9.36135e-05
9.8659e-05
0.105964
0.000113672
0.000247749
0.0518945
0.0742863
0.0406397
9.80206e-05
0.0569037
0.000110262
0.0872565
0.000140119
0.000249606
0.000108391
0.000113054
0.0913863
0.092002
0.000113654
0.052587
0.000138224
0.0023877
0.000111067
0.0522437
0.111247
0.0470306
0.00264802
9.57161e-05
0.000121033
9.40958e-05
0.088402
0.000133375
0.000113794
9.95873e-05
0.000189991
0.00878702
0.0686587
0.00151374
0.0322947
0.0709602
0.000252432
0.0144556
0.00025281
0.0433444
0.0534135
0.000127259
0.0264632
0.0415466
0.00829779
0.000220514
0.000100155
0.000304854
0.0120357
0.000119477
0.0276134
0.000140051
9.7887e-05
0.000106126
0.036684
0.0346523
0.000108335
0.000150562
0.000136206
0.0612935
0.067684
0.000135156
0.0489871
0.0681901
0.000111323
0.000866247
0.088919
0.000928544
0.000112915
0.000100136
0.000219987
0.0860594
0.0959636
0.000107865
9.79627e-05
9.95258e-05
0.00010805
0.000112356
0.000158588
0.00686443
0.000218485
0.008518
0.000122611
0.0599024
0.000102018
9.89679e-05
0.00356
0.000131563
0.000103704
9.92075e-05
0.000107655
0.000272274
0.000109726
9.73478e-05
0.0444784
0.000141864
0.0433641
0.000635983
9.538e-05
0.0872404
0.000103748
0.00014626
0.000114848
0.000190693
0.000380141
0.000239827
0.000112089
0.00342345
0.000136321
9.39324e-05
0.0742884
0.120041
0.0315331
0.0419948
0.000114051
0.00013758
0.00665905
0.00010284
0.00088124
0.000104044
0.000135266
0.0313455
0.000242309
0.0815689
0.0140137
0.000129575
0.000213994
0.000109871
0.000110027
0.000107041
0.000105998
0.000101527
0.000111492
0.0716029
0.000103054
0.0754141
0.00542155
0.0144327
0.0485926
0.00012765
0.000127147
0.111851
0.000147344
9.84576e-05
0.000134824
0.0358195
0.000119656
0.0593145
0.0305294
0.0001201
0.000149335
0.00013533
0.0215026
0.00205597
0.000104267
0.00122103
0.000114058
0.000105541
0.0785786
0.000147329
0.000118931
0.000175088
0.000112308
0.000121268
9.4676e-05
0.000122735
0.0628913
9.75673e-05
0.000112015
0.000119473
0.00151161
0.000119245
0.0534696
0.0733702
0.000145088
0.000143327
0.0602882
0.000136019
0.0100573
9.97515e-05
0.000122134
0.000114901
0.000104272
0.000109139
9.95422e-05
9.71576e-05
0.000134869
9.73868e-05
9.6991e-05
9.6258e-05
9.99201e-05
0.000123135
0.000123888
9.25898e-05
0.000197587
0.02568
0.0661891
0.000106073
0.000115692
0.000125835
0.000110756
0.000109776
0.000108352
0.000102672
0.00109507
0.0321557
0.000103054
0.0316739
9.82741e-05
0.00260017
0.000107727
0.0616189
0.000109167
0.0776447
0.000129306
0.000563933
0.000107869
0.0381112
0.0728914
0.0001112
0.000111367
0.000108612
0.000111535
0.000120836
0.000105496
0.000132769
0.0364331
0.0675532
0.000106035
0.00183056
0.0310342
0.0287467
0.0342321
9.39341e-05
0.000135708
0.000103546
0.000458271
0.000104199
9.89257e-05
0.000324297
0.000102569
0.000113576
0.0658012
0.000101439
0.000231109
9.47461e-05
0.000101062
0.000173737
0.0123561
0.0729161
0.0117701
0.0011247
0.121993
0.0881528
0.0621895
0.000117329
0.000136945
0.000124943
0.0321548
9.31542e-05
0.000110968
0.000113238
0.000111222
0.0218124
9.60957e-05
0.000118269
0.00164427
0.000134626
0.000100622
0.000112976
0.0446495
0.000100451
9.91702e-05
0.000112038
9.88355e-05
0.0259989
9.59164e-05
0.000105888
0.000120883
0.000129409
0.00010774
9.80913e-05
0.000112809
0.000299054
0.101453
0.0745214
0.0600859
0.000100879
0.075305
0.000112147
0.000142023
0.00011202
0.000113528
0.000118866
0.000110919
0.000128125
0.0685947
0.000102584
0.000105805
9.36785e-05
0.0460635
0.000111335
9.68089e-05
0.00012357
0.0437724
0.0914294
0.00213566
0.0735248
0.000613944
0.000124482
0.0298991
0.00011021
0.000110029
9.97605e-05
0.000109123
0.000148408
0.0362731
0.00212061
0.0198279
0.000110735
0.000104862
0.00507717
0.000102363
0.00015328
9.88342e-05
9.35e-05
0.000131401
0.0964666
0.000143409
0.000123379
0.000116912
0.000114145
0.0656263
0.000130829
0.00682084
0.000146142
0.048951
9.6185e-05
0.000112571
0.0981859
0.000589618
0.121568
0.000671455
9.69131e-05
0.000331845
0.00281369
0.0120438
0.0857401
0.000116355
0.000110814
0.000922829
0.06482
0.000106755
0.0896715
9.30048e-05
0.00010557
0.0249992
0.0584723
0.000123708
0.0526991
0.00013287
0.00218222
0.000104055
0.00336985
0.000772821
0.000109333
0.000906241
0.0574895
9.30414e-05
0.075962
0.00010029
0.000103317
0.00011659
0.000111242
9.70638e-05
0.0542003
0.00116898
0.0351633
0.0241388
0.000125796
0.091263
0.00010577
0.000126796
0.000413425
0.000114573
0.000131397
0.000194885
0.0887175
9.43856e-05
0.000307713
0.085471
0.000102176
9.1976e-05
9.61332e-05
0.0202755
0.000109011
0.000664249
0.000117512
0.000111291
0.000114121
0.0727327
0.000126401
0.00117733
0.000105926
9.5049e-05
0.000110836
0.0718819
0.0450608
0.000336765
0.000212841
0.0979339
0.000105863
0.115418
0.000134068
0.000124939
0.000110784
0.000898915
0.000136804
0.0747924
0.0417171
0.0317283
0.000122272
0.000130066
9.53647e-05
0.0507789
9.4946e-05
0.0349425
0.0671869
0.000137584
0.000104308
0.000266389
0.000108565
0.00105354
0.000727508
0.0961162
0.00117822
0.000318778
0.0248099
0.00117035
0.0311386
9.68077e-05
9.86426e-05
9.58597e-05
9.39538e-05
0.000117652
9.50703e-05
0.0671628