/*--------------------------------*- C++ -*----------------------------------*\
| =========                 |                                                 |
| \\      /  F ield         | OpenFOAM: The Open Source CFD Toolbox           |
|  \\    /   O peration     | Version:  v2012                                 |
|   \\  /    A nd           | Website:  www.openfoam.com                      |
|    \\/     M anipulation  |                                                 |
\*---------------------------------------------------------------------------*/
FoamFile
{
    version     2.0;
    format      ascii;
    class       volScalarField;
    location    "600";
    object      k;
}
// * * * * * * * * * * * * * * * * * * * * * * * * * * * * * * * * * * * * * //

dimensions      [0 2 -2 0 0 0 0];


internalField   nonuniform List<scalar> 
13308
(
0.000202404
0.0183954
0.0705511
0.00016048
0.000195575
0.000152772
0.000208226
0.000166843
0.000219355
0.0643702
0.0113127
0.0275886
0.000152599
0.000149469
0.000153362
0.0852409
0.000271533
0.0182262
0.0165653
0.0573767
0.000185051
0.109144
0.0928096
0.000182667
0.0878023
0.0724704
0.000199393
0.0138719
0.00020027
0.000204737
0.0192022
0.000199929
0.0840899
0.000220941
0.00138646
0.000240987
0.000208917
0.0868195
0.000174984
0.0781426
0.000147399
0.000163693
0.00942099
0.000152943
0.000175364
0.000368498
0.000153978
0.000157429
0.00021502
0.0665859
0.00016262
0.000171499
0.0959878
0.0368915
0.0721477
0.0546711
0.00015204
0.000173098
0.000179256
0.000178284
0.0297067
0.0747939
0.000172485
0.000155757
0.000160167
0.0878375
0.000147858
0.000380775
0.00015268
0.000266746
0.00574376
0.000175103
0.000217943
0.000202094
0.00141062
0.000165453
0.000143644
0.0474546
0.000162903
0.000557614
0.000172198
0.000147797
0.000165243
0.000181234
0.000184056
0.000167214
0.0758403
0.0427022
0.00918692
0.0417455
0.000165982
0.000149099
0.000197515
0.000191075
0.000155616
0.000173535
0.000164297
0.000564561
0.000649879
0.00025843
0.000165375
0.000148666
0.00015284
0.000197644
0.0127174
0.0184996
0.0692134
0.000159097
0.0657737
0.073719
0.000169716
0.000270276
0.000252952
0.000162238
0.000240361
0.013037
0.000366834
0.0148261
0.000199576
0.000172495
0.000190795
0.000202498
0.000159339
0.000706468
0.00301925
0.0205924
0.000721632
0.000316305
0.000225148
0.0954169
0.00194421
0.000271094
0.000156308
0.000178445
0.000220616
0.000527619
0.000148858
0.00109157
0.00104612
0.000164278
0.0556584
0.000169094
0.00015566
0.000230096
0.000169715
0.000316788
0.000493953
0.0358213
0.000171128
0.000158216
0.0846227
0.000162117
0.0698236
0.0263766
0.00817998
0.000734145
0.000157231
0.000156778
0.000148085
0.00056137
0.0655013
0.000172563
0.000154758
0.0727492
0.000110186
0.00461495
0.107062
0.000156601
0.0658104
0.000189327
0.000168309
0.0208078
0.000166002
0.0660684
0.0608938
0.0876094
0.109409
0.0674702
0.000510716
0.000157652
0.022974
0.0825654
0.000148223
0.0652541
0.0232906
0.000151835
0.0568554
0.0188024
0.000204865
0.000436138
0.000418285
0.062905
0.000170402
0.0271313
0.000168653
0.0851543
0.000167497
0.000391325
0.103341
0.000163619
0.0853299
0.0924213
0.0216414
0.000218357
0.0958127
0.000358927
0.0850871
0.0045818
0.00043934
0.0649922
0.000504767
0.000303751
0.000203861
0.0555149
0.0823645
0.00019915
0.000160579
0.0543413
0.00054282
0.00947537
0.0114567
0.000160459
0.000386529
0.000143057
0.000207051
0.0995677
0.000277334
0.0150659
0.0508225
0.000357636
0.0780088
0.000219984
0.0697155
0.000541001
0.000273085
0.000202202
0.00827352
0.0150387
0.0068661
0.00022766
0.000182226
0.000296643
0.000190873
0.000140359
0.0212602
0.00819087
0.000310127
0.000793514
0.000143948
0.015034
0.0834296
0.080387
0.000150821
0.0764755
0.115685
0.000204624
0.0661579
0.000160277
0.0108525
0.0512598
0.000204594
0.000346644
0.000201147
0.000174913
0.000106829
0.000250044
0.0268646
0.000155221
0.00775706
0.0944654
0.000333302
0.000191471
0.00015134
0.000406665
0.000163369
0.000163922
0.000197928
0.0191214
0.000195206
0.000334844
0.0851199
0.000154906
0.00965835
0.000211207
0.0184919
0.000239582
0.00017376
0.000215733
0.000364703
0.0051791
0.000196835
0.000155682
0.000837379
0.0890393
0.000158881
0.0132938
0.0474875
0.000205506
0.000343126
0.0980697
0.0830382
0.000242791
0.0715308
0.00920742
0.016029
0.000178666
0.000194193
0.0643313
0.0162648
0.000151441
0.0175834
0.128038
0.000197443
0.0222789
0.0012455
0.0555457
0.000158925
0.000158896
0.000150155
9.64208e-05
0.000148778
0.000146905
0.0933525
0.00014272
0.125263
0.000214891
0.000212795
0.000159207
0.000175731
0.00614444
0.0800533
0.000149374
0.0155756
0.000165079
0.000157286
0.013551
0.0907074
0.000158683
0.00026891
0.0142594
0.000187364
0.000158777
0.000154316
0.000217013
0.00634041
0.0057494
0.000336457
0.000318008
0.00017047
0.000190407
0.000205661
0.0127842
0.00321442
0.00015351
0.000235429
0.00016683
0.0126665
0.000195751
0.000334382
0.117448
0.00416005
0.000216295
0.000190649
0.00032459
0.0882604
0.0792176
0.00015367
0.000140196
0.000173622
0.000180684
0.08434
0.125386
0.00027788
0.000159389
0.000172523
0.000312544
0.0696644
0.0772382
0.00017321
0.0173902
0.00017171
0.000165794
0.00257096
0.000197879
0.000189432
0.086258
0.000258991
0.000181667
0.000147575
0.0612296
0.000186555
0.000384304
0.0146635
0.0902858
0.0111729
0.000206566
0.0209712
0.000153333
0.00719926
0.000161725
0.000764287
0.000160889
0.00024753
0.0784281
0.000151713
0.00221021
0.000158361
0.000158561
0.00136192
0.0130352
0.000204772
0.00025222
0.000370068
0.000152465
0.000151707
0.0197365
0.000171486
0.000152105
0.000180478
0.000330977
0.000366115
0.000173368
0.000185545
0.000170497
0.0002529
0.0702824
0.0105272
0.000168767
0.0387766
0.00288627
0.000363784
0.000154376
0.00935815
0.121813
0.000167798
0.000140907
0.0655204
0.000149273
0.000197907
0.0772939
0.0510752
0.121947
0.0635574
0.000172524
0.0242746
0.000179384
0.023007
0.0969229
0.00014762
0.0101789
0.0002054
0.0252581
0.000367446
0.0108199
0.000181752
0.000193463
0.000191693
0.000396605
0.0799457
0.00024154
0.000580863
0.0102139
0.000153441
0.0665586
0.000171113
0.0211674
0.000158812
0.000171295
0.00016184
0.0932966
0.000477916
0.000157833
0.0738814
0.000167543
0.000404763
0.0771628
0.000269921
0.000170329
0.00859728
0.000154185
0.000724932
0.000169479
0.000229595
0.000168778
0.000264079
0.000169949
0.000212364
0.0100429
0.000170499
0.000149438
0.0001545
0.00019484
0.00927813
0.00014316
0.000152221
0.00017001
0.000154566
0.032568
0.0016694
0.0379162
0.000188888
0.0268607
0.00615636
0.0258676
0.000180737
0.000176475
0.000289967
0.0620801
0.000162648
0.0680728
0.00011156
0.0211576
0.000172176
0.000159486
0.000182599
0.000212588
0.000221445
0.000158247
0.00496929
0.0773031
0.000534102
0.00619171
0.0168269
0.000354522
0.000151532
0.000145716
0.000154995
0.000140604
0.00408202
0.0188441
0.000258009
0.00021539
0.0772126
0.102996
0.000150244
0.0163052
0.00292487
0.0117741
0.000144567
0.00108695
0.000152523
0.00801582
0.00014805
0.0151797
0.000172328
0.119535
0.000558764
0.0257343
0.000148695
0.000171309
0.0760425
0.0266877
0.00411942
0.0120953
0.0744063
0.0115766
0.123176
0.049057
0.122095
0.120178
0.000207486
0.000148594
0.000172019
0.00221598
0.000162489
0.000213424
0.0446526
0.000158151
0.00700081
0.000545531
0.00402913
0.000152404
0.000162314
0.000152609
0.122311
0.000197997
0.000154403
0.000161323
0.0669348
0.000152854
0.0934471
0.000395343
0.000185252
0.000219266
0.000154547
0.000152916
0.000156361
0.000207998
0.000180722
0.000161939
0.0244569
0.000151303
0.000159387
0.000142557
0.000159962
0.0642455
0.0772868
0.000155935
0.0596312
0.000163962
0.000158382
0.000154344
0.000227802
0.000228807
0.000173277
0.000194079
0.000156445
0.0867942
0.000201325
0.0180983
0.0743962
0.00019
0.000196596
0.000161521
0.0092115
0.120449
0.000194176
0.00015002
0.0150441
0.0143403
0.00023559
0.000156884
0.000247385
0.0194127
0.000120434
0.0361849
0.000170281
0.000150505
0.000216725
0.0400911
0.000234252
0.120453
0.0188629
0.074255
0.0275337
0.00466922
0.000208544
0.000174163
0.093962
0.0670419
0.000194845
0.000159525
0.047754
0.00813823
0.000236501
0.00348405
0.000177115
0.000161229
0.000140975
0.0193726
0.0131761
0.000155979
0.103412
0.000166715
0.0594566
0.000153861
0.00015143
0.000319086
0.0322565
0.000210133
0.00424716
0.0450174
0.000218473
0.000294118
0.000233932
0.00246356
0.0811224
0.000158296
0.080736
0.0520056
0.0980649
0.000167087
0.0144274
0.000155433
0.000148406
0.0645062
0.0978702
0.000383779
0.0185528
0.0611671
0.000181393
0.0160313
0.00024785
0.000141246
0.000220178
0.000159182
0.0635234
0.0644025
0.000332539
0.0396498
0.000153882
0.0604951
0.000245106
0.000353914
0.000429525
0.000183639
0.000155196
0.000173955
0.000155088
0.129317
0.00016602
0.0575225
0.00219498
0.000212762
0.000187589
0.000172625
0.0539177
0.0167129
0.0345381
0.000173237
0.000149237
0.000153202
0.0559967
0.000154762
0.000277877
0.000193066
0.000166586
0.000149972
0.000150061
0.000152249
0.00018281
0.000170953
0.00041048
0.000522488
0.00036893
0.000149635
0.0223376
0.0467269
0.000240098
0.0804817
0.000206543
0.00016663
0.000238542
0.000165936
0.0726495
0.000181036
0.000331376
0.01464
0.00690281
0.000167026
0.000151854
0.0146103
0.000164182
0.08495
0.000163626
0.000171191
0.054348
0.000188093
0.000151901
0.000229891
0.000215734
0.0580476
0.013359
0.0171413
0.00727887
0.000158341
0.000162506
0.000190891
0.0320691
0.000317651
0.000180308
0.000157143
0.000433587
0.0651388
0.000157466
0.000154287
0.0218363
0.0703214
0.000219269
0.000165507
0.000143534
0.000162934
0.000167293
0.000167334
0.000141904
0.000164991
0.000166842
0.08062
0.0001416
0.000364771
0.107576
0.0217322
0.00556692
0.00015042
0.000162534
0.0421713
0.112857
0.0179276
0.0153789
0.00768325
0.00980519
0.00018393
0.0628091
0.000179949
0.106662
0.000148582
0.0824952
0.00015331
0.000198444
0.000614647
0.00646436
0.000151723
0.000155008
0.000171481
0.00016132
0.0465878
0.103636
0.0715051
0.000247869
0.000159443
0.0987881
0.000193875
0.000152266
0.0156573
0.0206832
0.00585559
0.0225929
0.0758264
0.00016726
0.000319096
0.0126245
0.000149825
0.000181621
0.0953664
0.000175606
0.000176517
0.0623144
0.0692919
0.000149931
0.00722506
0.000149462
0.000190886
0.0219991
0.00519031
0.00230417
0.000268218
0.000161505
0.000186581
0.00016931
0.0197609
0.0674979
0.000148864
0.0491527
0.0325659
0.000255203
0.000141538
0.000169984
0.0859482
0.000164832
0.00021479
0.00691876
0.00875006
0.000165732
0.112037
0.079085
0.0835603
0.022557
0.00726887
0.000160775
0.000144762
0.000170181
0.000200433
0.0547998
0.0692031
0.000331521
0.000397736
0.0107593
0.0751489
0.0789542
0.000150105
0.00880716
0.000167669
0.0786316
0.000233513
0.000175728
0.00404996
0.000161648
0.000356703
0.000568432
0.000254063
0.0802856
0.00150108
0.02066
0.00318107
0.000195217
0.000214967
0.000158875
0.0854081
0.000155243
0.0758492
0.000167162
0.000149887
0.000158969
0.000185334
0.029312
0.00015014
0.00206543
0.00160506
0.0115269
0.000250579
0.000147419
0.0608408
0.000167961
0.000167715
0.0879972
0.000152491
0.000156259
0.000283832
0.000171212
0.000144686
0.00637611
0.0837187
0.035711
0.0104765
0.000147779
0.000165397
0.000214372
0.000359078
0.0516636
0.000153328
0.0689285
0.000180951
0.000171808
0.0188267
0.000148641
0.000160265
0.000184988
0.000154149
0.000153431
0.000169039
0.00180079
0.0735698
0.000160766
0.0120588
0.000220757
0.000319154
0.000182956
0.000167211
0.000159609
0.000169336
0.0125936
0.000283077
0.0950319
0.0105451
0.016536
0.000166291
0.000179813
0.000214821
0.000179374
0.000177041
0.000164292
0.0153668
0.00167179
0.000168739
0.0186851
0.00384524
0.000157991
0.000177917
0.000153912
0.000246461
0.00331155
0.0104495
0.000179937
0.0117116
0.000258775
0.000164316
0.0165087
0.000169539
0.00057915
0.000207023
0.000172872
0.000187748
0.000179444
0.000197517
0.000151637
0.000160768
0.022785
0.000150833
0.0818634
0.00018384
0.000246698
0.0218089
0.0017447
0.000158968
0.000140666
0.00023847
0.0179338
0.000164705
0.000166763
0.0336209
0.0154552
0.000204793
0.000203254
0.0232302
0.000158153
0.000152515
0.000431299
0.0158433
0.0336236
0.000161935
0.000308274
0.00016149
0.000194036
0.0717922
0.000167815
0.000149683
0.000288015
0.0150391
0.000159641
0.00015657
0.000173549
0.000244548
0.000537783
0.000157855
0.0518823
0.000198275
0.111305
0.000173773
0.000195381
0.0134465
0.000172937
0.0330219
0.00052643
0.0128709
0.00015329
0.0888648
0.000248357
0.000310406
0.000183409
0.000201562
0.0810801
0.000168946
0.000163206
0.000160794
0.000898826
0.00439964
0.0777954
0.0355902
0.0104417
0.0842297
0.000161325
0.0941957
0.000159386
0.000154547
0.000166715
0.000161147
0.00328156
0.000683672
0.000147818
0.0960263
0.00406427
0.0249858
0.0884473
0.00760158
0.000151026
0.000149848
0.0002132
0.000143765
0.000158558
0.000163226
0.112285
0.000205423
0.00997709
0.000346923
0.000237008
0.000693109
0.000154754
0.0632032
0.000168813
0.000229887
0.0421618
0.0742384
0.00017991
0.000946974
0.0032949
0.00737964
0.0144536
0.000172742
0.109003
0.000199126
0.000583557
0.000162934
0.000150339
0.000164447
0.0631361
0.0938414
0.0808106
0.0228618
0.0813221
0.117278
0.000152316
0.000207389
0.000259681
0.000167056
0.00516805
0.0430757
0.000140342
0.0603413
0.000288199
0.00014902
0.0771704
0.000160493
0.000163721
0.0553336
0.000166454
0.000196545
0.129917
0.000219115
0.0643567
0.000159574
0.000139945
0.00016814
0.0802554
0.00019656
0.000277609
0.00220744
0.000159439
0.000148156
0.000190048
0.000574496
0.000154812
0.063706
0.000166216
0.000226952
0.0953267
0.000172437
0.102425
0.000141753
0.000197393
0.0670371
0.000160386
0.000263287
0.108286
0.0664411
0.000747204
0.000204465
0.00487519
0.000166634
0.00784352
0.00035166
0.000192074
0.027892
0.000226895
0.0787436
0.0178366
0.000159307
0.000216547
0.000196097
0.0001657
0.00018221
0.0230973
0.000150032
0.000157242
0.000165973
0.000161891
0.000160205
0.000151708
0.000164091
0.000171569
0.00154737
0.000260472
0.000172105
0.0496583
0.00129627
0.0130617
0.00366926
0.0217852
0.000156541
0.123374
0.000190539
0.0155851
0.000249278
0.0800698
0.0533027
0.00609484
0.00613813
0.000164416
0.000171723
0.000166275
0.000168105
0.000229824
0.0517062
0.000163221
0.0013675
0.0137279
0.101205
0.000224315
0.0474716
0.0652361
0.000290094
0.000224469
0.000169004
0.015227
0.000172293
0.000192801
0.112587
0.000186119
0.000166694
0.000152369
0.000147816
0.000294877
0.0830485
0.00143958
0.000254158
0.000177238
0.000153961
0.000153156
0.000163932
0.0780613
0.000234122
0.000147919
0.000172364
0.0182692
0.0622916
0.000156517
0.000153637
0.000254785
0.011676
0.000165384
0.000180479
0.000206836
0.0767122
0.00780903
0.103517
0.000207989
0.00450197
0.000191053
0.0850984
0.000238861
0.0346759
0.000163491
0.0174504
0.0280444
0.0979152
0.000164288
0.0205277
0.000187938
0.0582313
0.0615031
0.0643695
0.000694868
0.101848
0.000258619
0.000208834
0.0662623
0.00371785
0.00745718
0.000288534
0.0808768
0.0803258
0.115467
0.0229462
0.0673524
0.000170627
0.0920944
0.000231283
0.0183149
0.000170604
0.000242535
0.0793417
0.000291762
0.130411
0.000193939
0.00306705
0.000197941
0.0437266
0.0510663
0.000180034
0.079232
0.0143515
0.000169149
0.0129241
0.000161549
0.000531407
0.000327138
0.000179952
0.000154076
0.0937488
0.000170644
0.0878689
0.00609708
0.00015204
0.0763365
0.0780122
0.0345484
0.0509788
0.000167299
0.000150677
0.00714609
0.000158281
0.0149353
0.0116803
0.099438
0.0884077
0.000183427
0.000212919
0.000176911
0.0849535
0.0992655
0.0685635
0.000195263
0.000158608
0.000314132
0.0175973
0.00019283
0.00990123
0.000162941
0.103955
0.000158645
0.000165478
0.000324208
0.000155982
0.00018819
0.000520222
0.0117347
0.0987016
0.000148909
0.000148309
0.0180749
0.0676743
0.000332682
0.000189245
0.0863244
0.000142726
0.081915
0.0529689
0.132418
0.000167053
0.000167203
0.0141113
0.0637276
0.00819138
0.000153977
0.00274629
0.000142931
0.0126428
0.0607566
0.000155455
0.0408305
0.0021759
0.000211809
0.000219529
0.000157411
0.000173825
0.10634
0.000215762
0.00454101
0.000162198
0.000157399
0.000304922
0.000161772
0.000281601
0.0491638
0.000164078
0.000378407
0.00909077
0.000150377
0.0214448
0.00496926
0.000163554
0.0166725
0.00283423
0.0175275
0.000169159
0.0013728
0.000165237
0.000140159
0.00344133
0.0768331
0.0702451
0.000151357
0.000959683
0.000152132
0.000267325
0.000164229
0.003202
0.0191997
0.0682561
0.000213192
0.000250851
0.000198736
0.106894
0.100908
0.012193
0.0516038
0.000167763
0.000152927
0.00015068
0.000227318
0.000194916
0.000292824
0.107479
0.000152582
0.0118098
0.0798952
0.000338143
0.0450735
0.000175699
0.000166865
0.0771652
0.00700441
0.000163208
0.000163606
0.000424233
0.000302128
0.0768414
0.0327266
0.0766436
0.000174036
0.0152289
0.0121417
0.00017487
0.00015369
0.0847618
0.000290578
0.000158873
0.000198882
0.00791293
0.00226164
0.000142879
0.00201908
0.000189985
0.000162308
0.0365565
0.00662948
0.104504
0.104519
0.000230609
0.0120491
0.0611425
0.000166183
0.0781813
0.00297172
0.000294603
0.000186678
0.000160153
0.000172732
0.0357267
0.000159465
0.0643507
0.00025616
0.000256695
0.00842427
0.000162204
0.00491767
0.000183362
0.00478422
0.000475597
0.0144289
0.000222148
0.000158544
0.0820418
0.00016002
0.0575532
0.0911903
0.000281687
0.0236056
0.000144488
0.0532617
0.000162216
0.000191539
0.000176916
0.000375432
0.000149866
0.0297611
0.000158358
0.118312
0.000178099
0.0771244
0.0130979
0.000215744
0.000201318
0.000318303
0.0768013
0.00234535
0.000156199
0.0693221
0.000314367
0.000160804
0.00347294
0.000153103
0.000180924
0.0956789
0.0428996
0.000339538
0.000160703
0.0139021
0.000694615
0.00877562
0.000168586
0.000158665
0.0813446
0.0468252
0.000189088
0.00355148
0.000192581
0.0970792
0.000172544
0.00016385
0.000236807
0.0205387
0.000204764
0.000198931
0.000156217
0.000188915
0.000166093
0.000202068
0.00524869
0.00057736
0.000283402
0.000150639
0.077863
0.000165766
0.000332027
0.00016182
0.0001559
0.0509953
0.000996172
0.000184208
0.000148718
0.000152974
0.0767287
0.0119836
0.0780435
0.000237976
0.0804701
0.000382661
0.0850654
0.000190593
0.000292846
0.000166202
0.000164948
0.000161417
0.0171568
0.000163345
0.000280946
0.00434932
0.0878914
0.0734141
0.0151977
0.000154116
0.0930168
0.000257126
0.0119015
0.000150306
0.00105863
0.000142802
0.00019003
0.0212495
0.0125915
0.00016826
0.00015952
0.000147965
0.0107397
0.000196181
0.109869
0.00029481
0.106334
0.0159546
0.0624104
0.0909585
0.000162896
0.00902259
0.0110726
0.000277732
0.000190135
0.000169091
0.000154556
0.000166622
0.000148525
0.000151092
0.000166664
0.000167686
0.000163698
0.0106911
0.100637
0.0645997
0.000168667
0.000170212
0.0205479
0.000159043
0.0800073
0.000148846
0.00243229
0.0943194
0.0711068
0.00020068
0.000269023
0.000315029
0.000290386
0.000490303
0.000217498
0.086095
0.0305416
0.000798435
0.000174748
0.0890623
0.000163259
0.000162739
0.000211682
0.000159631
0.00018812
0.000169751
0.0147739
0.000188057
0.00014765
0.0907539
0.000167905
0.000187453
0.0183315
0.000148623
0.00218453
0.000173625
0.000196065
0.000194556
0.00624041
0.000148162
0.0635795
0.0944573
0.000159735
0.00333313
0.000184297
0.0731399
0.10272
0.000159618
0.00014804
0.000164756
0.00015863
0.000157382
0.000164351
0.000145204
0.000193154
0.000150948
0.000959025
0.0746941
0.000301867
0.000171802
0.000182723
0.00015809
0.00435896
0.000369201
0.00448621
0.00223859
0.000147809
0.0990381
0.0800248
0.000168908
0.0183026
0.0144783
0.000185391
0.000158218
0.00993996
0.000185668
0.000157361
0.000270495
0.0309476
0.105125
0.000744446
0.0251936
0.000160174
0.0765721
0.0248694
0.000198514
0.000154624
0.000172458
0.000159304
0.000202273
0.0299736
0.000152027
0.00556605
0.110601
0.00137024
0.00319136
0.000166215
0.00120788
0.000167639
0.073363
0.0815916
0.000149414
0.000159758
0.115667
0.000200203
0.0942153
0.000168063
0.0378962
0.0144763
0.000525392
0.000151644
0.0724271
0.126513
0.0569524
0.000252677
0.0193753
0.114758
0.133553
0.0301321
0.000322276
0.110283
0.0951396
0.0122895
0.119111
0.0207044
0.0612692
0.00829506
0.000308917
0.100202
0.0607531
0.000159046
0.0480959
0.00677888
0.0116222
0.00020581
0.000148866
0.0872679
0.000257612
0.0012013
0.0565514
0.000496499
0.0634614
0.000560361
0.000153205
0.000162605
0.119082
0.00121788
0.0864325
0.000178925
0.0363589
0.000165825
0.0471081
0.00136407
0.051493
0.00895328
0.000160259
0.0931115
0.000159791
0.00468764
0.000400556
0.000164646
0.0835065
0.000160038
0.000539312
0.0461664
0.00678207
0.0518347
0.000165835
0.000161166
0.0764322
0.0764011
0.000160586
0.0949091
0.00349794
0.000175777
0.016568
0.000160239
0.000151692
0.000180301
0.0171469
0.000160316
0.00299525
0.00016796
0.000150974
0.0210082
0.0652579
0.000152895
0.00288716
0.049065
0.0139421
0.104026
0.000165383
0.000561487
0.000143363
0.000209294
0.0918406
0.000169162
0.000180185
0.000160504
0.0974312
0.000195417
0.000251061
0.0159619
0.125991
0.0136973
0.000535851
0.00348356
0.112491
0.000300307
0.0782593
0.00015424
0.090457
0.109183
0.035323
0.000177636
0.000156087
0.000159992
0.103068
0.000322869
0.000166559
0.00464369
0.0878593
0.00332142
0.0186033
0.000289748
0.000336107
0.00546369
0.000154596
0.0230027
0.0704582
0.000181021
0.00363009
0.000158881
0.000165317
0.000183059
0.0795593
0.105494
0.000161767
0.000213431
0.000152744
0.0760134
0.0831067
0.0527643
0.119384
0.0120819
0.051821
0.000306389
0.00279395
0.112937
0.00032079
0.000156689
0.000147859
0.000231315
0.000152934
0.000857396
0.0779958
5.18277e-05
0.000152092
0.000187395
0.000154368
0.000226163
0.000283367
0.0105539
0.00187089
0.00231804
0.00027597
0.000178319
0.000149207
0.000165386
0.00256387
0.0188379
0.00015724
0.000211194
0.000192946
0.102038
0.036525
0.117926
0.000410908
0.000175828
0.0887321
0.000160943
0.0773067
0.0534255
0.000174772
0.00367422
0.0703641
0.0763449
0.000374482
0.119784
0.000550733
0.000181093
0.0913071
0.000160945
0.000155487
0.101399
0.0762592
0.000406007
0.000267141
0.0839018
0.0146649
0.0738248
0.0736992
0.000158837
0.0862252
0.0002647
0.000348987
0.0893859
0.000149233
7.2928e-05
0.000211356
0.0613956
0.0409034
0.0079414
0.000149181
0.000212984
0.000294089
0.0786106
0.00316502
0.00082165
0.0774593
0.000162283
0.012465
0.000335887
0.00016363
0.000163986
0.0118814
0.00030016
0.0571806
0.000189255
0.00022641
0.064633
0.000156293
0.000944171
0.000155771
0.0836182
0.000171679
0.000151362
0.108168
0.000177706
0.0074325
0.000148865
0.000162013
0.0981486
0.000163019
0.000168374
0.000151966
0.0608718
0.00400836
0.000248215
0.0624547
0.0695749
0.0889009
0.000191646
0.000156898
0.0216672
0.000170355
0.00262145
0.00017109
0.0178248
0.000266699
0.000174963
0.000209585
0.011301
0.000179302
0.000165891
0.10064
0.056825
0.000196358
0.0159345
0.000190728
0.000580179
0.00901002
0.000145352
0.000158751
0.000152932
0.0013308
0.119182
0.0755956
0.0992019
0.113653
0.0962107
0.0671549
0.0283335
0.000148374
0.0886135
0.0681341
0.00016218
0.00822968
0.000301872
0.000176264
0.0042649
0.110555
0.0822097
0.0824942
0.000177037
0.000197149
0.0688146
0.12636
0.000283837
0.00042226
0.000233024
0.077563
0.0982343
0.0331631
0.00655519
0.117351
0.11175
0.000160089
0.0729995
0.000247399
0.000173696
0.130446
0.000157139
0.000151619
0.107128
0.000160526
0.000206453
0.00176998
0.000262588
0.00016346
0.0725028
0.081123
0.0648557
0.000238633
0.0447331
0.000194818
0.000188249
0.0979082
0.00074817
0.0181884
0.000167835
0.0713886
0.00016456
0.108387
0.000197541
0.00023382
0.000219104
0.022142
0.000164042
0.000228866
0.096729
0.000161831
0.0554609
0.0636483
0.0761592
0.000344064
0.000152859
0.00504044
0.090985
0.00717299
0.000164646
0.0186196
0.00188631
0.0787357
0.00287714
0.000205163
0.0586017
0.0687741
0.00497782
0.000325765
0.113895
0.000155977
0.0867496
0.000148383
0.0134402
0.000168576
0.0160454
0.0720784
0.0761024
0.0747096
0.0126389
0.000249649
0.000459852
0.000132958
0.00508114
0.000179307
0.0648542
0.00028712
0.00894113
0.000464055
0.0547799
0.0155413
0.000202288
0.0888185
0.000191359
0.0838251
0.000180781
0.000343982
0.0557768
0.000255515
0.00046507
0.0558529
0.0767614
0.0174175
0.0757271
0.0818484
0.121875
0.0678477
0.000164772
0.00016726
0.00165763
0.00015831
0.000185149
0.00806605
0.0147046
0.104626
0.000156261
0.0773596
0.000253284
0.000272109
0.0674832
0.0511025
0.000148305
0.0823586
0.000296553
0.0612761
0.00018538
0.0995519
0.00805769
0.000362085
0.0764717
0.000161948
0.0171381
0.084686
0.0853588
0.0849547
0.0825266
0.0729998
0.00137215
0.0583723
0.000216892
0.0681741
0.000189922
0.000216287
0.00016319
0.0929409
0.0394905
0.00019527
0.000148622
0.00108302
0.000190174
0.000165601
0.000463561
0.0192907
0.000156086
0.0744808
0.0736699
0.0179862
0.102419
0.0107877
0.0757037
0.00138608
0.000982783
0.0760726
0.000200885
0.092896
0.00506673
0.000237008
0.0624425
0.0789318
0.000326657
0.0290325
0.000233453
0.000167598
0.000161443
0.0892341
0.0100734
0.000191748
0.0603023
0.0704092
0.0256776
0.0785234
0.0140504
0.00828166
0.0167748
0.000502224
0.0664388
0.000157877
0.0725249
0.000151108
0.133241
0.000159037
0.103845
0.00373237
0.000150427
0.0111688
0.000800785
0.0663854
0.0662233
0.000197632
0.0146647
0.074438
0.000144027
0.000167174
0.0180735
0.000159601
0.0666081
0.000160834
0.0680076
0.000163223
0.000161867
0.000150695
0.0190842
0.077443
0.000997072
0.104316
0.000277828
0.00533032
0.0145494
0.000162227
0.000166841
0.0630608
0.0764973
0.000179398
0.00881507
0.0184545
0.101695
0.0842007
0.078299
0.000880501
0.000189271
0.050233
0.000230862
0.0153072
0.000188203
0.000213199
0.100562
0.0939431
0.000188297
0.015434
0.000158947
0.000148439
0.000151346
0.000163924
0.0450848
0.12674
0.00016266
0.0109781
0.00108356
0.000188842
0.012461
0.0807277
0.000150418
0.000149877
0.000165641
0.0368129
0.000191756
0.000307495
0.000152345
0.000167882
0.000341118
0.000148607
0.000314099
0.0186879
0.055878
0.000184156
0.000190416
0.0548823
0.0710926
0.0593853
0.000177486
0.0210175
0.0796435
0.00014591
0.0780377
0.0178577
0.0695884
0.000295132
0.00679178
0.0843054
0.0458109
0.000243526
0.000284853
0.055617
0.0490214
0.0497642
0.0159558
0.0149006
0.102535
0.000420236
0.0858154
0.00016936
0.000469253
0.00376074
0.0796211
0.106123
0.00831335
0.00016116
0.0104348
0.000205575
0.00015063
0.000305423
0.000190785
0.000227195
0.000196195
0.00131427
0.088273
0.000796839
0.00104888
0.111409
0.000355489
0.0195643
0.0893022
0.00737997
0.000157434
0.102747
0.00018598
0.0120089
0.0182232
0.0647063
0.000344477
0.120118
0.000688947
0.000284301
0.000198937
0.0591466
0.0389755
0.0827815
0.000302056
0.00870619
0.0147115
0.07366
0.000394906
0.0540583
0.0911698
0.0794825
0.000320306
0.0647698
0.000188421
0.0144847
0.000158207
0.0016976
0.0659753
0.092764
0.000294567
0.000166465
0.00104534
0.0102574
0.000297664
0.00706128
0.00022086
0.000153004
0.102258
0.000156068
0.000159029
0.0758984
0.000201123
0.000169696
0.0651566
0.0581968
0.0916316
0.000147625
0.106582
0.0723005
0.000163587
0.00033791
0.000164188
0.000244997
0.000240812
0.000174602
0.000248666
0.00024723
0.111229
0.0124877
0.0916796
0.00793639
0.059021
0.000274124
0.0934749
0.000276186
0.00914032
0.000158687
0.0129238
0.000193682
0.0522974
0.000214534
0.000159438
0.0185724
0.000195902
0.000514056
0.0605142
0.000151648
0.0360813
0.017915
0.000305052
0.102184
0.0956646
0.000297957
0.00018622
0.000291401
0.000357467
0.00018091
0.000286145
0.00517211
0.0152052
0.106643
0.0716754
0.000320136
0.000453636
0.00101506
0.0911843
0.11146
0.00036733
0.000191053
0.0773941
0.000201454
0.000532143
0.119871
0.0358503
0.000240776
0.000156681
0.00354585
0.040232
0.000196558
0.0628053
0.100316
0.000565095
0.000278461
0.000144901
0.00323704
0.0920563
0.000265495
0.000170954
0.0531364
0.000163055
0.000209506
0.00360703
0.000284175
0.0947157
0.000237498
0.0718129
0.00841722
0.0188217
0.112381
0.000466335
0.00368797
0.000217103
0.0432507
0.0537476
0.00018713
0.00018948
0.000188248
0.000284237
0.000182451
0.000160487
0.000482914
0.0182999
0.0502564
0.000180167
0.000210999
0.0787844
0.0582121
0.0135072
0.0589058
0.0146517
0.0565218
0.000156111
0.000212884
0.0571393
0.000150003
0.103659
0.0647361
0.000244913
0.000194724
0.0108881
0.105249
0.000158695
0.0882564
0.000158433
0.000157587
0.0827218
0.0141945
0.000915084
0.000191484
0.000299961
0.0330455
0.0146289
0.128952
0.0651758
0.0853906
0.000152188
0.000226023
0.0906067
0.0629517
0.0168313
0.0133413
0.000208826
0.0155259
0.000172202
0.00031161
0.0122784
0.000163283
0.000200301
0.000192736
0.0956539
0.0188101
0.0779123
0.000159915
0.000277558
0.000338902
0.0798468
0.136039
0.000285798
0.000160381
0.000178403
0.0904441
0.0179556
0.000257391
0.0582443
0.0412964
0.0203534
0.000150002
0.0880312
0.0489222
0.000158154
0.00560246
0.000446104
0.000468449
0.000157673
0.000184005
0.000166451
0.10724
0.000712271
0.0146245
0.0326371
0.000182573
0.00201387
0.000188809
0.00502405
0.000335884
0.0116198
0.000402915
0.000155593
0.000169615
0.000276972
0.000187059
0.000268477
0.000193167
0.000155815
0.00355926
0.000157143
0.0566605
0.000193664
0.0001574
0.0158326
0.000147664
0.000153768
0.0837575
0.000196132
0.000182761
0.000159464
0.0742548
0.0783742
0.0034311
0.000150058
0.000169219
0.000938556
0.0388728
0.0858925
0.000593259
0.10097
0.0498517
0.000186302
0.000158377
0.101827
0.00349556
0.00027758
0.00709603
0.000188657
0.000216771
0.000177984
0.000188647
0.0894564
0.000161366
0.000155332
0.100954
0.000160831
0.0684616
0.000163065
0.00353211
0.000271541
0.000163369
0.000158528
0.0854333
0.0155032
0.000217152
0.0328044
0.000181264
0.000143642
0.0190205
0.0410553
0.00016281
0.0062249
0.124224
0.000187637
0.000181642
0.00665663
0.000403146
0.00022218
0.000148282
0.000251207
0.000159883
0.0828845
0.0292916
0.000149468
0.000160816
0.000194893
0.000582165
0.0741168
0.000207149
0.0140876
0.00119928
0.000160447
0.000279438
0.000149145
0.126411
0.0148612
0.00016285
0.000300042
0.096943
0.000285459
0.000218197
0.0738469
0.000192019
0.00343756
0.000258649
0.000186119
0.013021
0.000186641
0.000181374
0.00503531
0.0363941
0.000274234
0.0121622
0.00021881
0.000151091
0.000209548
0.000151876
0.0165676
0.000219127
0.00020056
0.000167781
0.000179164
0.000163399
0.0747791
0.000168212
0.101722
0.0986438
0.000895534
0.00051629
0.000699922
0.000186284
0.0381609
0.000454057
0.000184156
0.0793024
0.000204995
0.126038
0.112552
0.000171063
0.000209453