/*--------------------------------*- C++ -*----------------------------------*\
| =========                 |                                                 |
| \\      /  F ield         | OpenFOAM: The Open Source CFD Toolbox           |
|  \\    /   O peration     | Version:  v2012                                 |
|   \\  /    A nd           | Website:  www.openfoam.com                      |
|    \\/     M anipulation  |                                                 |
\*---------------------------------------------------------------------------*/
FoamFile
{
    version     2.0;
    format      ascii;
    class       volScalarField;
    location    "600";
    object      omega_0;
}
// * * * * * * * * * * * * * * * * * * * * * * * * * * * * * * * * * * * * * //

dimensions      [0 0 -1 0 0 0 0];


internalField   nonuniform List<scalar> 
13308
(
0.0304167
2.42578
2.18286
0.0243558
0.0553021
0.0233682
0.0806219
0.0270239
0.0860921
1.40002
1.14774
0.781989
0.0233016
0.0219329
0.0234976
2.47948
0.0385038
2.48316
0.73304
1.75272
0.0329489
2.80183
2.62128
0.0400133
2.56136
1.99205
0.0583544
1.19966
0.0598973
0.0632898
3.08223
0.0578256
2.40158
0.0850099
0.274289
0.0338704
0.0798414
2.6342
0.0310399
2.37538
0.0214056
0.0258593
0.860892
0.0217883
0.0310304
0.20065
0.0234636
0.0237419
0.0283042
2.19051
0.0262937
0.0261115
3.40366
0.808883
6.1233
3.75542
0.0217453
0.0266533
0.0354697
0.0345545
0.778784
2.72477
0.0264275
0.0222651
0.0255116
2.38726
0.0212717
0.218483
0.0236714
0.117494
3.00211
0.0309667
0.0297361
0.060162
0.735145
0.0249166
0.0204108
4.12386
0.0231176
0.0586941
0.0273379
0.0208173
0.0247995
0.0379805
0.149801
0.0273272
9.68013
1.67439
0.47001
1.70989
0.0258462
0.0213695
0.057168
0.0343173
0.024026
0.025814
0.0262496
0.0562546
1.00936
0.108238
0.0255142
0.0218071
0.0228709
0.0358153
0.944116
2.77955
2.10919
0.0247848
1.87899
2.04591
0.0295888
0.15223
0.0375182
0.0229378
0.0372918
0.697135
0.20803
0.734791
0.0594926
0.0268003
0.0491539
0.036502
0.0223925
0.105827
0.280825
0.817768
0.389313
0.238837
0.0301425
3.33648
1.61423
0.0548288
0.0223517
0.0265843
0.0858296
0.0804618
0.0213498
0.197416
0.166439
0.0263463
2.27712
0.0292644
0.0221383
0.0352552
0.0286718
0.0910111
0.0632064
1.68164
0.0269185
0.0551435
6.86231
0.026148
1.54248
0.771416
1.7193
0.163014
0.024718
0.0220117
0.0216316
0.160396
1.42692
0.0264978
0.0220656
2.83466
0.205966
0.479061
2.75848
0.0219534
1.88126
0.0494129
0.028957
0.805499
0.0275398
2.32265
11.7481
2.14727
2.7246
2.16133
0.121234
0.0248737
0.57492
3.71235
0.0213953
1.40761
2.91456
0.0213278
3.32316
3.20743
0.0651796
0.147577
0.144204
1.74064
0.0290435
0.791245
0.0282019
2.10317
0.0284007
0.0532812
2.25434
0.0257259
2.40342
3.52265
1.4436
0.0827121
3.16974
0.196549
2.641
0.906785
0.157686
7.78786
0.165621
0.109177
0.0700319
2.2072
2.45227
0.0350757
0.0251357
1.72823
0.143436
1.37859
1.09221
0.025195
0.144687
0.0202707
0.0379234
2.91951
0.0726108
0.963398
3.77154
0.196738
2.55362
0.0377856
2.21453
0.308638
0.0377508
0.0676121
3.49361
0.362246
1.84457
0.0393217
0.0389876
0.0396709
0.0346002
0.0205013
0.538941
2.38775
0.114904
0.918256
0.0203778
2.57037
2.5045
2.38753
0.0225472
2.66576
2.30084
0.0362478
1.554
0.0252463
1.07607
4.07283
0.0628418
0.505401
0.0662272
0.026136
0.16467
0.0493202
0.784319
0.0222026
0.949463
2.60656
0.122922
0.0502421
0.0226231
0.244253
0.0233147
0.0268387
0.0286073
0.549821
0.0551033
0.0875967
2.109
0.0238971
0.473088
0.0371263
3.6031
0.135759
0.0258159
0.0325819
0.0996332
0.929026
0.0569499
0.0218625
1.02091
3.56724
0.0227756
0.940915
3.35702
0.0615995
0.0930236
2.83985
2.35545
0.0405404
1.96979
1.48504
1.68043
0.0267093
0.0522509
2.2719
1.58593
0.0212816
0.783935
12.2522
0.0580206
1.45852
0.374423
11.5792
0.0252546
0.0227466
0.0222554
0.882743
0.0216014
0.0207365
3.3027
0.0203055
5.23778
0.0361942
0.0370527
0.0231572
0.0313654
0.5259
2.23021
0.021881
1.49832
0.0238467
0.0241044
0.893786
2.5195
0.022388
0.0687986
1.36673
0.0463198
0.0230336
0.021926
0.0809257
0.68978
0.917198
0.0952463
0.0896485
0.0299472
0.0339839
0.072248
2.4636
0.734244
0.0217114
0.0277446
0.0258212
3.47244
0.027623
0.0943761
2.33671
0.636677
0.0818865
0.0506018
0.120923
3.5133
2.42671
0.0218836
0.0203278
0.0268858
0.0413945
2.33741
7.77008
0.119691
0.0253891
0.0265056
0.0808442
2.88764
2.39523
0.0278984
0.538325
0.0284653
0.024076
0.362334
0.0587409
0.0277348
3.56741
0.140401
0.037008
0.0211556
1.37871
0.0328405
0.0426653
0.780106
2.54306
0.661404
0.0614296
0.787618
0.0216923
0.723245
0.0244008
0.167837
0.0256633
0.100416
2.36923
0.0213588
0.47995
0.0248645
0.0222272
1.33146
0.929911
0.0290703
0.132901
0.123643
0.0216368
0.0216461
2.82099
0.0282347
0.0216667
0.0362481
0.0868375
0.100715
0.0269002
0.0441878
0.0270204
0.0383548
2.09412
1.29454
0.028237
0.820653
0.379147
0.42574
0.0215841
0.648758
2.7992
0.0241158
0.0201367
2.98681
0.021394
0.0589221
2.4008
1.99842
3.0724
2.07971
0.0266451
3.47398
0.0396856
0.817846
3.34254
0.0211388
2.33152
0.0312017
2.11435
0.119363
3.85972
0.0391842
0.0514402
0.0525639
0.132911
2.65592
0.0930589
0.169952
3.58376
0.0231809
1.45182
0.0262948
10.2024
0.0224022
0.0273634
0.0228601
2.53619
0.283168
0.0228058
2.72717
0.0259382
0.137337
2.39814
0.0994609
0.0297887
0.343645
0.0219082
0.10079
0.0295775
0.111004
0.0243881
0.0899032
0.0268404
0.0293134
0.4168
0.0300509
0.0214356
0.0218061
0.0534034
0.409272
0.020358
0.0214549
0.0269556
0.0236065
0.795893
1.47807
2.20931
0.465093
6.82471
0.702437
0.790814
0.0360302
0.0264694
0.109654
2.06396
0.0261052
1.89031
0.0809091
0.820909
0.028972
0.0230431
0.0396661
0.07857
0.0876057
0.0251073
0.422858
2.35341
0.171114
0.949478
2.74004
0.0416674
0.0233149
0.968396
0.0219629
0.0201238
0.321815
0.800309
0.086281
0.0809888
2.84378
2.99876
0.0211803
0.959711
0.372868
3.49176
0.0205107
0.507089
0.0217759
0.619702
0.0215607
0.992117
0.0289673
4.49156
0.833559
0.812615
0.0213252
0.0250409
2.81633
0.806021
2.65999
0.485297
2.06668
0.362123
3.08273
3.39267
2.89676
3.18668
0.0401304
0.0217417
0.0252369
0.442689
0.0229981
0.62417
3.12934
0.022916
2.15094
1.42315
2.57039
0.0217496
0.0229461
0.0217667
2.68628
0.0585716
0.0217664
0.0241856
2.65046
0.022867
2.607
0.121497
0.0323013
0.0664829
0.0221289
0.0218058
0.0221916
0.0535879
0.0366726
0.0252912
0.777095
0.0215443
0.0229056
0.0202091
0.0250819
1.91845
2.34631
0.0218931
3.1682
0.0258451
0.0246454
0.0217878
0.0481159
0.0384524
0.0290788
0.054264
0.0219144
2.13153
0.0377945
2.83683
4.15526
0.0505192
0.055945
0.0251815
3.78577
2.61976
0.0526757
0.0230436
0.543638
0.905531
0.0749438
0.0222394
0.0339153
0.527391
0.122605
10.9832
0.0264558
0.0223381
0.0684453
7.54164
0.0401097
3.2021
0.444079
2.37994
0.789979
0.345354
0.0532949
0.0302409
4.39658
1.88922
0.0279022
0.0226337
3.12666
0.786622
0.105257
0.387769
0.0353484
0.0242476
0.0200411
0.787971
1.62474
0.0239048
3.02011
0.0260926
2.68366
0.0220586
0.0216912
0.452072
3.52327
0.0735823
0.338357
1.40146
0.0652613
0.315036
0.0401673
0.673189
4.03275
0.0242049
2.44854
1.96609
2.12828
0.0245861
0.895115
0.0237939
0.0212547
1.87814
2.19569
0.216491
0.512456
1.43784
0.0383141
0.795513
0.0420671
0.0200616
0.0451714
0.0243304
1.88272
1.87611
0.180665
1.7847
0.0215199
1.79853
0.0415971
0.191374
0.145204
0.0315164
0.0219343
0.0258521
0.0218812
2.84728
0.0240648
1.42033
0.458886
0.0661354
0.0468999
0.0249659
1.43355
0.421717
1.42145
0.0270229
0.0218001
0.0218127
5.97025
0.0238605
0.161374
0.0520822
0.0242478
0.0211501
0.0218101
0.0216197
0.0263331
0.0301142
0.0430939
0.17744
0.1853
0.0220082
0.813413
4.41492
0.108093
2.53622
0.0302192
0.0261469
0.0352601
0.0252109
2.35377
0.0359825
0.134424
0.935195
1.22615
0.0281661
0.0217316
2.2597
0.0243956
2.51627
0.0233204
0.0250717
1.42004
0.0282357
0.0213121
0.0828265
0.0831291
5.06772
3.41515
3.70766
0.987479
0.0243232
0.0263052
0.0489221
1.44986
0.173383
0.0268234
0.0226245
0.109618
1.93612
0.0225208
0.0231062
3.46921
1.91021
0.0836028
0.0249717
0.0203986
0.023215
0.0248777
0.0283961
0.0202118
0.0253019
0.025695
2.60498
0.0208632
0.0867626
2.25468
0.763463
0.443078
0.0222487
0.0230203
1.77894
2.30237
0.50989
0.923317
0.457358
0.84469
0.0331684
1.89078
0.0349897
3.82685
0.0215958
2.55962
0.0218699
0.0364307
0.0828301
0.477027
0.0229261
0.0218235
0.0304594
0.0246295
2.87654
3.79315
1.85506
0.0417102
0.0230119
3.3174
0.0277192
0.0213598
0.53259
2.64006
0.491402
0.568044
2.49312
0.0272587
0.0433591
1.40831
0.0211763
0.0372
2.28548
0.0250778
0.0264174
1.9687
2.03563
0.0218351
3.45891
0.0211435
0.0487688
0.815833
0.350643
0.216718
0.0673805
0.0247216
0.0417931
0.0283424
0.540534
4.86102
0.0216179
1.31547
0.784081
0.137409
0.020168
0.0247264
2.60237
0.0270008
0.0495561
0.381605
0.485527
0.0235486
2.30838
2.81356
3.59822
0.586607
0.59631
0.0231678
0.0204567
0.0263112
0.036952
2.00426
1.9046
0.0791711
0.102077
0.643366
2.06007
2.51047
0.0218374
3.36946
0.0272408
2.26383
0.0881982
0.0328276
0.435092
0.0244236
0.706898
0.211601
0.0334805
2.19499
1.14853
1.78431
0.56927
0.054123
0.0492913
0.0227621
3.7843
0.0218501
1.79403
0.0247733
0.0222083
0.0228966
0.0436661
7.31613
0.0218181
0.352342
0.1475
0.669317
0.0498525
0.0209378
3.02316
0.0260537
0.0261211
2.1584
0.0217353
0.0221902
0.0976455
0.0304018
0.0217826
0.374913
2.46278
5.22654
1.06996
0.0211617
0.0268069
0.0785913
0.191122
2.01877
0.0219713
2.04491
0.0304548
0.0307519
2.37215
0.021592
0.02312
0.0417181
0.0239438
0.0217849
0.0262285
0.171491
1.98633
0.0255533
0.71861
0.309636
0.101855
0.0355994
0.0242187
0.0226768
0.0258953
0.509376
0.107796
2.56522
3.59101
0.55051
0.0244678
0.0376291
0.698885
0.0394049
0.0336193
0.0249598
0.499039
0.193608
0.0262152
2.72489
0.317523
0.0248086
0.0362034
0.0220032
0.126192
0.3487
0.680839
0.0374637
0.835026
0.0440612
0.0260452
0.367768
0.0264804
0.187074
0.0628799
0.0290078
0.0428686
0.0296724
0.0581075
0.0217055
0.0247566
0.778694
0.0224012
2.56776
0.0406114
0.0406913
0.815073
1.57942
0.0226987
0.0203405
0.0749882
0.508578
0.0246401
0.0285906
0.796757
1.43332
0.0712809
0.0709127
7.40663
0.0227838
0.0234511
0.272514
0.753396
0.793944
0.0248166
0.0731662
0.025449
0.0464164
7.14661
0.027217
0.0217957
0.0673154
3.25788
0.0229006
0.0219369
0.02982
0.0404661
0.0656719
0.0226516
3.16997
0.0588402
2.68889
0.351253
0.0471191
3.34362
0.0293603
2.29278
0.0626002
0.441866
0.0233167
2.56441
0.0574226
0.0966857
0.0398604
0.0403077
2.27206
0.026053
0.0264026
0.0258012
0.178514
0.396083
2.4092
3.57008
0.694473
2.49641
0.0241383
2.50005
0.0223849
0.0221172
0.0276517
0.0242801
0.537872
0.338682
0.021313
3.34991
0.385911
2.0033
2.99186
0.626391
0.0224744
0.021825
0.0783705
0.0204837
0.0248738
0.0234243
2.80505
0.0424313
0.486128
0.0936382
0.0524098
0.194927
0.0235492
1.87773
0.026479
0.0720823
4.17603
2.03364
0.0360301
0.247734
0.295049
0.927799
0.908892
0.0256295
2.61282
0.0281785
0.170537
0.0252521
0.0230477
0.0232366
5.66633
2.20094
3.25659
0.765069
2.25493
2.94346
0.0217209
0.347227
0.0639165
0.0267328
0.743219
3.79224
0.0203276
1.39125
0.0974743
0.0219133
2.99749
0.0240319
0.023626
1.96246
0.0254893
0.0559311
2.95729
0.085107
2.04706
0.0230095
0.0200053
0.0278638
2.03152
0.0480706
0.0740348
0.320731
0.0224398
0.0209951
0.0441252
0.156815
0.021906
1.43027
0.0252299
0.101065
3.35974
0.0309857
2.58161
0.0210234
0.0385147
1.88806
0.0232035
0.0346585
2.5636
4.31731
0.181109
0.0422654
0.341168
0.0270687
1.26813
0.191859
0.0501173
0.791951
0.0966746
3.36545
2.84899
0.0228073
0.0855145
0.0557237
0.0268658
0.0386795
0.8052
0.0222488
0.0226302
0.0252668
0.0247249
0.0238816
0.0218242
0.0231688
0.0319294
0.441778
0.0537918
0.0254926
1.43636
0.198096
0.487209
0.29495
0.591402
0.0225209
2.77198
0.0378353
3.15771
0.0328759
2.03859
2.91051
0.582954
0.50944
0.0244223
0.0255281
0.0244386
0.0275466
0.0493867
2.09531
0.0231934
0.214511
0.860957
2.10582
0.0915187
4.9097
4.28062
0.102915
0.0312332
0.0243236
0.903945
0.027646
0.046071
2.82256
0.044138
0.0238068
0.0230167
0.0215481
0.157096
2.6149
0.324725
0.078396
0.0311671
0.021734
0.0220069
0.0248292
2.02494
0.0395765
0.0209734
0.0278067
0.768263
1.88298
0.0225397
0.0218056
0.0537299
0.506583
0.0234751
0.0401059
0.0731166
2.54954
0.349293
2.44838
0.0737238
0.313979
0.0449787
3.00466
0.0537435
3.68613
0.0235815
2.93892
2.98102
3.29544
0.0250528
0.769583
0.033651
1.78721
1.89102
1.73727
0.245506
2.4121
0.0623362
0.072702
3.88176
0.362428
0.451955
0.0871476
3.84119
2.71819
2.99718
0.782467
3.22447
0.0252478
2.22324
0.0812708
10.2343
0.0245145
0.119825
2.91476
0.158178
2.76838
0.0523641
0.270048
0.0470565
3.78535
2.52812
0.0328146
1.84995
0.495411
0.0265741
0.513134
0.0259474
0.209338
0.176449
0.0348139
0.346754
2.26521
0.0251082
2.66216
0.464652
0.0217197
1.63979
2.0543
0.794762
2.06433
0.0240034
0.0225108
0.452277
0.022511
3.89513
0.487931
3.28539
3.491
0.0268128
0.077669
0.0253127
3.0932
3.19505
3.41279
0.0515863
0.0225747
0.26232
0.782912
0.0526012
0.473684
0.0234619
2.18701
0.0222746
0.0263637
0.0797961
0.0221502
0.0332121
0.140552
0.432187
2.63775
0.0210675
0.0208713
2.81191
1.91703
0.10702
0.0391028
3.05785
0.0212131
2.20559
2.47901
2.78048
0.0243104
0.0257221
0.49333
1.99143
0.608004
0.0219115
0.292488
0.0204118
0.528089
2.91296
0.0218391
1.64121
0.326099
0.0551895
0.0858875
0.025142
0.0317359
3.46044
0.0534679
0.340984
0.0229626
0.0227081
0.205453
0.0232813
0.092513
2.01295
0.0248124
0.295598
0.36305
0.0223036
2.84917
0.423312
0.0229974
3.02826
0.310877
2.92139
0.0257476
1.28147
0.0243971
0.0200169
0.321326
1.92066
3.48237
0.0212747
0.180179
0.0218587
0.036712
0.0237815
0.554538
0.513745
2.96141
0.055299
0.0589336
0.0489405
4.78947
2.64899
0.530831
1.2913
0.0248942
0.0236384
0.0224452
0.09384
0.0398814
0.0872705
3.31707
0.0219756
0.502962
2.34536
0.0552035
1.48434
0.0262281
0.027234
2.56229
0.467615
0.0229619
0.024291
0.107922
0.161501
3.70702
0.786965
2.15109
0.0311303
0.962197
0.4859
0.0323128
0.023561
2.28034
0.163261
0.022918
0.0484835
0.565813
0.203104
0.0203806
0.594762
0.0279762
0.0236153
1.38187
0.478877
2.62232
2.95297
0.101358
0.834653
2.02002
0.0259432
2.18802
0.295919
0.0495096
0.0449791
0.0257773
0.0255072
2.06967
0.0229644
2.36489
0.0649273
0.137175
0.479649
0.0230154
2.54087
0.0395881
0.344392
0.159544
0.870379
0.088275
0.0225767
2.49054
0.0233312
3.01177
3.62296
0.155314
0.817264
0.02057
1.29253
0.0231379
0.0494636
0.0337247
0.0645073
0.0218123
1.5308
0.0223815
4.73468
0.0263198
2.71137
0.507909
0.0969588
0.0364214
0.172855
2.48184
0.427127
0.0220732
3.08333
0.167852
0.0233622
0.288881
0.0217605
0.0408658
2.56868
7.94498
0.112124
0.0226243
0.759254
0.615534
0.661546
0.0279678
0.0225869
3.02264
3.87638
0.0466659
0.282925
0.038243
3.30925
0.0328043
0.0234301
0.44646
2.83167
0.0569499
0.0557132
0.0221047
0.0472071
0.026245
0.0628177
0.467412
0.24663
0.0661074
0.0211418
2.35455
0.0250049
0.0533154
0.0230169
0.245139
2.15034
0.256905
0.0437925
0.0210492
0.0237205
2.91956
3.7794
2.34599
0.109483
2.45863
0.106004
2.47704
0.0480263
0.109736
0.0237088
0.0247037
0.0228696
2.97899
0.0232343
0.0811035
0.540219
2.49131
2.34171
0.732704
0.0220255
3.62303
0.043102
0.880867
0.0218004
0.15677
0.0213123
0.0278431
0.422546
0.529487
0.0253562
0.0230349
0.0214469
0.387196
0.0551713
4.41411
0.169645
2.53607
3.02756
2.97479
2.63046
0.0232578
3.34468
0.752458
0.0468519
0.0271591
0.0281414
0.0217856
0.0246442
0.0216858
0.021527
0.0256489
0.0250443
0.0265787
0.489786
2.94931
2.1504
0.0254061
0.0248249
0.591672
0.0224911
2.33313
0.0217062
0.294725
2.04293
1.62635
0.0486486
0.038117
0.041497
0.041985
0.275169
0.083324
2.35323
2.96655
0.0906859
0.0320023
1.97785
0.0254245
0.0233094
0.0765115
0.0231318
0.0428413
0.0268962
0.938051
0.0261962
0.0209574
2.64934
0.0245093
0.0454398
3.74271
0.0210273
0.267751
0.0251507
0.0289926
0.0279251
0.338969
0.0216554
2.9573
2.04049
0.0226156
0.345188
0.0367765
1.94299
2.51148
0.0230236
0.0213829
0.0241824
0.0222307
0.0222285
0.0231976
0.0205751
0.0502901
0.0218442
0.191571
2.32932
0.0410272
0.026274
0.0420104
0.0251794
0.278972
0.253046
0.435797
0.235564
0.0213411
2.69828
2.73764
0.0244316
0.785568
0.493384
0.0281323
0.0221568
3.81961
0.0320569
0.0220048
0.0877233
1.54887
2.48061
0.142513
0.806075
0.0242799
3.23618
3.63258
0.041222
0.0237726
0.0311577
0.0224623
0.0625797
1.52222
0.0218308
0.42793
3.29801
1.8317
0.932106
0.0254629
1.01578
0.0258296
3.04018
2.42017
0.0217531
0.0231189
2.81871
0.0629523
4.18905
0.0252131
3.81781
0.853724
0.166649
0.0227449
2.03412
2.63475
1.63821
0.0546796
0.774286
4.38414
3.04001
1.19293
0.071016
2.63848
3.37047
0.402451
2.80052
3.62551
1.97527
3.31493
0.251828
2.38172
3.34365
0.0251727
3.92248
3.40582
0.48961
0.077235
0.021256
2.95137
0.0650906
0.199423
1.94465
0.15668
3.19141
0.515804
0.0220176
0.0227987
2.86932
0.723813
2.29377
0.0320121
1.35742
0.0252238
1.57966
0.221062
2.33178
0.364426
0.0227549
1.95263
0.0257215
2.5664
0.0850353
0.0236969
2.63918
0.0254723
0.15391
1.60582
0.522716
1.46585
0.024319
0.0227515
1.99555
2.49173
0.0225944
2.12425
0.996004
0.0330003
3.48423
0.022344
0.022646
0.032418
0.7722
0.0229707
0.364509
0.025773
0.0211817
1.52346
1.89734
0.0215327
0.460333
1.27067
2.01757
2.8431
0.0258397
0.185763
0.0214025
0.0729386
2.72656
0.0265312
0.324199
0.0256332
2.72122
0.05107
0.0843063
3.93904
2.65584
0.385714
0.141092
0.52244
2.23825
0.162867
3.08919
0.0235645
2.4437
2.80656
1.20323
0.02603
0.0221646
0.0224685
2.47958
0.174692
0.0251186
1.99882
2.49845
0.741587
0.429481
0.149592
0.180807
0.384811
0.0220102
0.804079
2.02852
0.0354409
2.75669
0.0223491
0.0241254
0.0355282
2.08827
3.01061
0.0226292
0.0394474
0.0215325
3.7877
1.71271
2.28814
5.76477
3.87046
1.3138
0.0656992
0.29021
4.76589
0.0437667
0.0239315
0.0211928
0.0340856
0.0217441
0.799328
2.50497
0.236381
0.0215818
0.0377487
0.0217599
0.0952313
0.150764
3.17751
0.414792
0.261789
0.140321
0.0344028
0.0212863
0.0262129
0.276664
2.35472
0.0224427
0.0639635
0.0507611
3.13719
1.53207
2.77519
0.181703
0.0302715
2.05886
0.0239447
2.18821
1.93909
0.0258225
0.477312
2.68982
1.97971
0.10762
2.81669
0.23426
0.0356776
2.40502
0.0231409
0.0220487
2.423
2.52562
0.424827
0.0383426
2.08778
0.860935
2.07223
2.99066
0.0253411
2.52284
0.0829841
0.047116
2.37918
0.021292
0.419521
0.0763133
2.27388
3.69553
0.350014
0.0210674
0.0767176
0.244992
2.6476
0.328972
0.634665
2.26738
0.0230772
0.4908
0.219763
0.0245819
0.0236291
0.774801
0.157584
1.96246
0.028632
0.076205
3.37345
0.0219244
0.172202
0.0223799
2.72778
0.0303638
0.0231523
3.88324
0.0267118
0.625636
0.0217353
0.0243427
2.35791
0.0237789
0.0267468
0.0212944
3.76362
0.40322
0.0608341
3.79957
3.02842
2.43294
0.0497116
0.0219193
3.53421
0.0289927
0.278638
0.0250096
0.44066
0.511517
0.0325308
0.05051
0.493479
0.0351433
0.0266541
2.68236
2.00565
0.0533751
3.1243
0.0486346
0.575518
3.29845
0.0207161
0.0224635
0.0218823
0.223363
6.64562
2.03623
4.18767
2.9331
2.53594
2.06193
1.58171
0.0216699
2.72148
2.77664
0.0228877
0.637068
0.158878
0.0282604
0.393667
2.59271
2.07549
2.58998
0.0333471
0.052635
9.48545
2.60352
0.057058
0.153577
0.127695
2.12829
4.0645
2.85156
0.416587
4.32428
2.638
0.0226385
2.75688
0.0359387
0.0318216
2.69716
0.0222458
0.0215585
2.95357
0.0238253
0.0483383
0.590672
0.0470885
0.0236287
2.0395
2.32294
1.9735
0.0492989
4.00169
0.0282741
0.0480263
2.77861
0.225872
2.63817
0.0245225
3.26585
0.025736
3.67431
0.0285209
0.0332765
0.0307093
1.507
0.0242179
0.0732842
2.32529
0.0243408
2.08379
2.19031
2.12674
0.184284
0.0220142
0.423771
3.10383
0.465426
0.0236643
2.59069
0.642454
2.54931
0.339397
0.0565141
5.74658
2.64678
0.330975
0.199171
2.66349
0.0217865
3.02602
0.0216895
0.365982
0.0276491
3.65415
2.67221
2.19524
1.95538
0.518621
0.0532737
0.268967
0.0403429
2.0235
0.0266538
2.82662
0.0406582
3.27967
0.17013
4.99029
1.23908
0.0671359
2.73662
0.0288858
2.13395
0.0380937
0.087279
1.67453
0.0420074
0.0946563
3.13839
2.06621
1.38004
2.03669
2.09462
2.86621
2.78398
0.0243371
0.0254718
0.268664
0.0227184
0.0271097
1.26452
3.70441
2.78327
0.0223751
2.17516
0.157906
0.145378
1.9961
1.2737
0.0216997
2.90655
0.169182
1.36166
0.0410093
2.86514
3.43659
0.046645
2.28438
0.0229449
3.70876
2.77279
2.6421
5.97005
2.96364
2.89051
0.216085
1.94523
0.0362823
1.89562
0.0430848
0.1275
0.0245283
2.97095
2.83399
0.037199
0.0216054
0.214868
0.0437269
0.0239919
0.165926
3.28971
0.0221511
2.08837
2.62762
2.48839
2.53341
0.364811
2.53826
0.324673
0.934855
2.55135
0.0289963
2.76515
1.8497
0.0402241
1.9621
2.20911
0.0553759
4.82226
0.0773984
0.0273521
0.0225588
3.16376
3.68523
0.0499862
1.94884
2.87081
0.781294
2.76327
0.512121
0.370653
3.08419
0.120236
1.90413
0.0225897
2.14633
0.0216146
2.96799
0.0235277
3.17321
0.360337
0.0215657
3.82614
0.39389
2.0069
2.08454
0.0523889
3.82781
2.90449
0.0211825
0.625535
2.754
0.0236581
2.84284
0.0232036
3.73898
0.0261845
0.0256883
0.0212158
3.99624
3.03331
1.05625
3.51826
0.158207
0.416738
3.96151
0.0228609
0.0254455
3.9914
2.15365
0.0254856
2.3947
1.0999
3.18026
2.97662
2.4723
1.02057
0.0478206
1.97857
0.0402539
4.14459
0.0262657
0.0327243
2.62477
2.42209
0.0788837
0.500836
0.0254031
0.0210081
0.0212898
0.0247838
3.27774
2.9662
0.0230502
0.383039
1.09095
0.049897
0.682222
2.98953
0.0211833
0.0459627
0.0250808
2.93269
0.0419729
0.0709472
0.0216015
0.0264146
0.230189
0.0210046
0.191295
2.76214
2.78274
0.0441024
0.0475116
1.94675
2.79571
2.80176
0.0314558
0.794494
2.40171
0.0205781
2.18881
1.12597
2.98877
0.172747
0.274483
2.85957
2.78079
0.123273
0.148948
2.02966
2.76932
2.02
0.403718
0.760889
2.54994
0.192615
2.72929
0.0260047
0.491056
0.576818
2.22409
2.59488
3.69144
0.0224944
0.937626
0.0371755
0.0217653
0.162193
0.0496097
0.0347408
0.0375159
0.441284
2.95089
0.737321
0.720587
2.60901
0.0479297
0.4411
3.07584
0.463787
0.0222116
2.44972
0.0464011
0.965743
2.4071
3.03229
0.217758
2.7937
0.671803
0.183716
0.0551801
1.96546
11.261
3.09613
0.171076
2.40302
0.394794
2.1362
0.196713
2.11287
2.7142
2.50257
0.172606
2.83302
0.0414385
0.497505
0.0227835
0.376271
1.91446
2.87843
0.155921
0.0270083
0.19356
3.90114
0.166802
0.63301
0.0584393
0.0214549
3.22698
0.024234
0.0225168
2.13264
0.0543838
0.0292948
3.42665
1.33661
2.76554
0.0208053
2.79203
2.99676
0.0267987
0.0581074
0.0240805
0.0374789
0.0567472
0.0298119
0.0605287
0.036671
3.08101
0.373349
3.03395
2.94219
4.09708
0.145404
2.83615
0.15441
0.489267
0.0225463
0.826804
0.0522546
2.7984
0.313164
0.025024
2.43538
0.0540634
0.174649
2.86569
0.0215901
4.67467
2.60305
0.161942
2.06829
2.47744
0.178278
0.032613
0.151685
0.193689
0.0317095
0.148543
3.02627
0.767907
3.11889
2.04325
0.19891
0.260526
0.190201
2.21493
3.87906
0.251646
0.0480045
2.16935
0.042412
0.577385
2.55171
1.33186
0.28391
0.0249169
0.351373
3.44586
0.0320548
4.13945
3.19848
0.145467
0.152709
0.0215272
0.362384
3.02595
0.0594652
0.0258783
3.31451
0.0237558
0.0596215
0.418937
0.160406
2.31613
0.150134
1.91969
0.653992
3.64643
2.6779
0.262438
0.40623
0.0364013
5.60744
1.93948
0.0448631
0.0467151
0.0457101
0.146922
0.0313091
0.0225258
0.290979
2.53314
1.98214
0.0309162
0.0597832
2.2033
2.90267
0.549948
2.21887
3.26638
1.56864
0.0222689
0.0630345
2.89094
0.0217145
3.87359
1.90762
0.0745504
0.0540211
3.38898
2.16223
0.0233617
2.74767
0.0221858
0.0249003
4.2824
0.385157
0.178742
0.0488155
0.164005
1.54428
4.31411
3.11727
1.59713
1.7206
0.0219661
0.0669041
2.72353
2.81912
0.989774
0.382815
0.0346091
1.06306
0.030565
1.20222
3.82203
0.024483
0.0544748
0.0529909
2.65184
2.51219
2.51486
0.0222938
0.161497
0.120827
2.25277
2.9944
0.0824476
0.0230546
0.0322701
2.34553
3.46301
0.0544318
2.93421
2.76504
0.417064
0.0210933
2.22117
1.40379
0.0221469
1.34949
0.279572
0.314589
0.0247486
0.0426901
0.0250261
2.52027
0.663015
3.65506
4.0565
0.0415412
0.24437
0.0286042
0.448765
0.316058
3.68264
0.210357
0.0224001
0.0249348
0.143441
0.0451153
0.0605283
0.0514133
0.0222548
0.363945
0.0221215
2.11258
0.0501761
0.0222501
0.347604
0.0212463
0.0217901
2.39722
0.0296408
0.03312
0.0224313
2.07936
3.11433
0.643753
0.0210862
0.0250261
0.265916
1.58228
2.6025
0.568514
3.92173
2.87959
0.0442021
0.0223578
3.05251
0.388388
0.150529
1.31644
0.0459966
0.0532903
0.0382303
0.0463711
2.20896
0.0227935
0.0222983
4.78322
0.0240404
1.89129
0.0253917
0.378281
0.146995
0.0239624
0.0223122
2.23626
0.349534
0.0439291
1.6122
0.0405874
0.0214967
0.453636
2.65802
0.0232817
0.410399
2.8774
0.0416021
0.0412445
0.345732
0.2172
0.0886962
0.0216699
0.121585
0.0224359
2.1626
1.52432
0.021308
0.0259732
0.0536997
0.329839
1.56266
0.0310915
1.05158
0.50378
0.0225579
0.141044
0.0217852
3.04118
1.50485
0.0231091
0.430482
2.7063
0.145644
0.204965
2.64398
0.0508944
0.325708
0.14326
0.0278146
3.87899
0.040093
0.0329985
0.424444
1.3295
0.137228
0.851793
0.328072
0.021773
0.0294593
0.0215786
0.422781
0.0361359
0.0650981
0.024326
0.0311818
0.0242057
2.66159
0.0292494
2.01073
1.97187
0.712958
0.690453
0.71975
0.0469506
3.18196
0.0523861
0.0431006
2.13234
0.0505253
2.56089
2.48928
0.030152
0.0724313
0.23729
3.08709
0.0222932
1.37898
0.0717777
0.132964
1.89469
0.0216871
1.5097
10.3144
0.441663
0.0299167
0.028236
0.0355837
0.0243231
0.0221677
0.486001
2.14793
0.642637
0.0217381
1.90595
0.792632
0.0758662
0.0219572
0.707134
2.13295
3.32577
2.00935
0.067581
0.0404886
0.022075
0.159438
2.02443
2.0223
0.0254898
0.0736205
0.02442
0.907164
1.95685
0.0215687
0.0312555
0.0233345
0.0227137
0.0403311
0.0220855
0.032179
1.93366
0.641811
0.022823
3.24354
0.150403
0.0248788
3.09804
0.0229397
0.070911
0.0217629
0.0689587
0.025335
2.11969
0.192467
0.707119
0.54098
0.0394205
0.0237981
1.51813
0.0316739
0.0256388
0.367485
0.0760442
1.52055
0.0319119
5.00022
0.0253741
0.162571
1.54382
0.0323247
0.0459083
0.154557
2.84748
0.0304333
4.31606
0.0245103
2.00053
1.19084
0.0261285
1.92979
0.0228933
4.13585
0.0220494
2.82375
0.02158
1.50583
3.10491
0.154331
3.66144
0.13813
1.5968
0.186266
0.074001
0.891705
0.325797
2.07609
2.77531
0.0245961
3.13482
0.0209606
0.0787012
0.0387201
0.221408
2.07725
0.0323888
0.0348498
0.025872
0.027707
0.0259501
0.739179
0.25616
2.38942
0.0277223
0.0635778
0.0339359
0.0375815
0.0263087
0.0360372
2.11974
0.722386
0.0253479
0.146783
0.593886
0.0396844
0.0209394
0.0272737
1.45342
0.0267142
0.342817
0.0402182
0.959788
3.34145
0.0245699
0.0221656
0.0439224
0.0307264
1.46639
0.0223512
0.0250273
1.51149
0.133444
0.0227355
0.0225252
0.0320417
0.0638546
3.10325
0.0222452
0.0459073
0.0238804
1.23045
0.0234973
0.0256235
0.0209574
0.0475047
0.145327
0.0486767
0.0312007
0.0331041
0.021784
0.0510164
0.373562
0.0248477
0.0231603
0.023212
1.68105
0.0594177
1.3444
1.52163
0.0286854
0.162264
0.133717
0.0220448
1.58516
0.0280092
0.332598
0.106883
0.0331583
2.13199
0.0219879
0.0263046
0.265745
0.119915
0.797437
0.0438929
0.021701
1.59321
0.0217681
2.94522
0.136504
0.0222967
0.0255657
0.0303656
0.0271151
0.0318669
0.115544
0.0256712
0.0218882
3.09919
2.02373
0.0216876
0.0365687
0.073435
0.0252427
0.0251135
2.12078
0.110034
0.0224739
0.0332139
0.0223714
0.228689
1.91861
0.0337695
0.0265131
0.0354078
0.126092
0.0275172
0.0227939
0.0259873
2.59566
0.103326
0.02301
0.0362219
0.030064
0.0226028
0.0307569
1.46148
3.79701
0.294575
0.0569096
1.3073
0.0296866
0.796935
1.13981
0.0385988
0.0291588
1.37016
0.0288569
0.357498
0.0299893
0.188644
0.294351
0.0221165
0.049943
0.0222279
0.0262873
0.295641
0.0252272
0.893565
3.44742
0.0927112
0.0277045
0.0309329
2.15478
2.86511
1.13701
0.0341206
2.63997
0.142466
0.0960423
4.71582
0.261409
0.0273812
0.0220268
0.0223232
0.0228623
0.0210142
0.0223128
0.0276077
3.14809
0.0525662
0.0326762
0.142192
0.0545015
0.0730904
0.121484
0.0215433
2.21686
0.0227063
2.84222
0.0838264
0.0211386
0.0288466
3.16219
0.0292483
2.72853
0.129407
1.06363
0.324841
0.0276767
0.0245172
0.141857
2.24222
0.181313
1.35165
0.0244606
1.32201
0.0251413
0.0228013
0.0254616
0.021847
0.0310435
0.0238864
3.07797
1.9182
0.575497
0.0219799
0.230662
0.0216375
1.98388
0.0250947
0.0325025
0.0214987
2.83416
0.0529193
0.0237836
0.0574931
0.0253454
0.26595
0.0236474
0.0348238
0.343548
1.53008
1.07701
0.403513
2.81469
2.55151
0.164234
1.40118
0.0387697
0.0258258
0.0256748
0.0241183
0.178977
0.793787
0.135179
0.0267052
0.175593
0.460996
0.356843
0.0486099
0.025872
0.0234606
0.0340459
0.0247809
2.03896
0.0224391
0.024254
3.00835
1.92333
1.59308
0.0421287
0.0233773
0.0226821
0.0346382
3.0715
0.0214075
0.429063
0.0910843
0.0494225
4.84053
0.0227483
2.17871
3.50698
0.0208375
0.148805
0.0224409
0.0249125
0.0222936
0.0219758
0.0508734
0.0325693
0.536435
0.0264488
2.11008
0.154434
0.0326408
0.525483
0.0814783
2.75655
0.02396
0.0818854
0.021707
0.0254786
0.0288604
0.0216785
0.0364536
0.427867
1.63655
0.0246611
0.0250165
3.06265
0.440548
1.07194
0.0242903
0.0251985
0.0244501
4.95466
0.0267969
1.95412
0.0219521
0.023328
2.08312
0.0219313
0.0493244
1.09539
0.0243684
0.0749198
0.0261142
0.0249464
0.0828323
0.420352
0.585684
1.93203
1.67176
0.958428
0.0245767
0.029542
0.798458
0.0346977
0.0758161
2.80123
0.129339
0.025815
3.01534
0.0421217
0.191194
0.782673
2.93309
1.3174
0.0218167
1.14492
0.0241622
3.65489
0.782892
0.0277173
0.0223798
0.0226659
0.0254923
0.0733659
1.45822
3.37008
0.0202351
3.14893
0.51106
1.93559
3.41861
0.0234116
0.022101
0.0502592
0.0216744
2.20279
0.0224988
0.0225232
0.0680055
1.20951
0.0312624
0.0244758
0.0219394
0.151606
0.604171
0.152984
0.0227519
0.263241
4.90998
0.0217234
0.026101
1.41258
1.89713
0.335039
0.0493348
0.852776
1.34438
2.54033
0.026127
0.0250818
0.022044
0.482489
0.022578
1.34941
0.735749
0.738085
0.794246
0.0211181
0.238223
0.0220862
1.50621
0.0460797
1.14152
0.0696043
0.0216368
1.36142
0.0470614
0.696256
0.0257867
3.22942
0.0220245
0.022096
0.0303787
0.0220981
1.94676
0.023753
0.301856
0.63582
0.0216918
1.92422
2.22311
3.43533
0.781773
0.0219189
0.857022
0.0257479
0.133828
0.0221293
2.49658
0.0220087
2.85253
3.1347
0.791487
0.306228
3.85533
0.0297974
0.0326397
0.176668
0.0347581
0.63387
0.447501
0.0608505
0.0685839
1.50826
0.023663
0.0225443
1.12424
1.24774
0.0377403
2.5028
0.022711
0.0319054
0.0393433
2.61132
0.0217573
0.0373435
0.0255505
1.05127
1.32677
0.0222249
0.0308598
2.23904
0.95546
2.14609
0.0483398
0.0306056
1.37195
0.0238048
2.78
0.0220273
1.38051
1.05047
0.0259635
1.40812
0.0370953
2.06744
0.043887
4.74786
1.91725
0.0307526
1.98177
0.0341044
3.09108
0.0589369
0.0251126
0.113492
0.0242656
3.50376
0.0245201