/*--------------------------------*- C++ -*----------------------------------*\
| =========                 |                                                 |
| \\      /  F ield         | OpenFOAM: The Open Source CFD Toolbox           |
|  \\    /   O peration     | Version:  v2012                                 |
|   \\  /    A nd           | Website:  www.openfoam.com                      |
|    \\/     M anipulation  |                                                 |
\*---------------------------------------------------------------------------*/
FoamFile
{
    version     2.0;
    format      ascii;
    class       volScalarField;
    location    "600";
    object      p;
}
// * * * * * * * * * * * * * * * * * * * * * * * * * * * * * * * * * * * * * //

dimensions      [0 2 -2 0 0 0 0];


internalField   nonuniform List<scalar> 
13308
(
0.012177
-1.39515
-0.517817
0.00591651
-0.159449
0.00141619
-0.0648433
-0.093082
-0.0938214
-0.201917
-0.0646593
-0.164323
0.00167493
-0.0270093
0.00112061
-0.458612
0.0119135
-1.36566
-0.10181
-0.0978088
0.0155045
-0.483735
-0.248872
-0.117732
-0.447996
-0.558185
-0.118204
-0.0841543
-0.123772
-0.0546196
-1.17954
-0.062774
-0.378502
-0.16243
0.014752
0.0119314
-0.0704211
-0.231323
-0.0649022
-0.486491
-0.0472506
-0.100921
-0.0160556
-0.0134938
-0.0579407
-0.0628986
0.000892079
0.00564139
0.00892217
-0.531821
-0.017809
-0.00832646
-0.482275
-0.123795
-0.413398
-0.527601
-0.0134226
-0.00407768
-0.0902801
-0.0870221
-0.116202
-0.486875
-0.00552456
-0.0579457
0.00716257
-0.369924
-0.0020776
-0.0492861
0.0103298
-0.0515773
-0.437613
-0.0615771
0.000261646
-0.0603853
0.00906606
0.00560008
0.00417417
-0.540568
-0.0154746
0.0159302
-0.0276199
0.00458344
0.00588039
-0.103916
-0.00847766
-0.0967409
-0.348798
-0.0743023
-0.0223929
-0.0954964
-0.0681852
-0.00148074
-0.108852
0.0160858
-0.0188869
0.0148104
-0.10444
0.0160769
-0.226441
-0.0473291
-0.0659251
-0.0506182
0.0053389
0.0165782
0.0267365
-1.25993
-0.525297
0.0102716
-0.568396
-0.557365
-0.121675
-0.343871
0.020078
-0.0157798
0.0206259
-0.0965659
-0.0751265
-0.0501632
-0.113993
0.00226209
-0.128954
0.015783
0.0152565
0.0106657
0.0210809
-0.00832487
0.00303049
-0.00385764
-1.82637e-05
-0.395982
-0.256441
0.0233819
-0.059191
0.0150017
-0.106594
0.0105
-0.00372433
0.0206452
0.0415275
-0.106612
-0.561451
-0.11951
-0.045402
0.0197823
-0.0912597
0.0177186
-0.000692444
-0.101006
-0.0295559
0.0293863
-0.359817
0.00253697
-0.161604
-0.111934
-0.0762411
0.0395547
0.0125679
0.0147376
-0.0481332
-0.0386739
-0.195833
-0.00680162
-0.0443266
-0.480254
0.0382097
0.0163963
-0.483068
0.0146896
-0.560834
-0.174364
-0.122477
-0.092173
0.00212682
-0.534386
-0.415738
-0.492333
-0.476674
-0.528843
0.0292095
0.0131585
-0.0796543
-0.53728
0.000135591
-0.208319
-0.377945
0.0134249
-0.53065
-1.11191
-0.0550954
0.00680564
0.00441764
-0.099002
-0.0898302
-0.136046
-0.0972662
-0.498303
-0.120786
0.000608171
0.0186787
-0.0995104
-0.466029
-0.493388
-0.0966922
-0.112673
-0.394592
-0.120578
-0.452699
0.0119245
0.000101247
-0.429673
0.00238236
-0.0171051
-0.230816
-0.564757
-0.598797
0.0152147
0.0126529
-0.0746767
-0.0288646
0.0184045
-0.0888276
0.00136533
0.0363997
0.000673082
0.0165289
-0.405628
0.016105
0.0294733
-0.537417
-0.137587
-0.484252
0.015614
-0.51683
-0.000390717
0.0127077
-0.231953
-0.858683
0.0035449
-0.0490154
0.0163351
-0.102583
0.013133
0.0163744
0.00074021
-0.0991696
-0.190872
-0.0215836
-0.0457875
0.000715975
-0.355106
-0.605812
-0.414374
-0.0497144
-0.506591
0.0102546
0.0163105
-0.152879
0.000622789
-0.156283
-0.531208
-0.0531294
-0.0488117
-0.229176
0.0143191
0.0365325
0.0212126
-0.135031
-0.0578063
-0.0691786
-0.452562
-0.0241939
-0.133648
-0.0264941
0.0436299
-0.0197527
0.00686729
0.0151471
-0.0498829
-0.166899
0.0283494
-0.489289
-0.0424122
-0.0239806
0.0172011
-1.01363
-0.068765
0.0138853
0.0125304
0.0298102
-0.109595
-0.0991583
0.00338255
-0.513872
-0.521586
0.0154375
0.0124942
-0.552108
-0.0510744
0.0293934
-0.41658
-0.40515
0.0218472
-0.564083
-0.00624921
0.0016503
0.00939513
-0.0737824
-0.537035
-0.0641468
0.0132454
-0.047531
-0.42406
-0.10395
-0.0993936
0.00595071
-0.434069
0.0118945
0.0154166
-0.0425459
-0.508164
-0.0491734
0.00458626
-0.407786
0.00495206
-0.284205
0.0203759
0.0163723
-0.0673745
-0.060435
0.0187184
-0.466493
-0.0130711
-0.0582678
0.0072153
0.00787393
0.0379145
-0.452041
0.0152199
0.0143329
-0.0904995
-0.154031
-0.0670704
-0.0223892
-0.152739
0.0411358
-0.117692
0.023053
0.0197695
-0.0490711
0.0150916
-0.235357
-0.232736
-0.119227
0.00358784
0.00933707
0.00835786
-0.762668
0.00814175
0.025176
0.0209086
-0.0209041
-0.0997402
-0.172374
-0.0199151
-0.555528
-0.557331
-0.0231259
0.000532944
-0.00239647
-0.175355
-0.474055
-0.377432
-0.0424525
-0.0167579
-0.00172985
0.026811
-0.456427
-0.474934
-0.027699
-0.0528765
-0.0541057
0.0079265
-0.0163265
-0.180972
0.0148952
-0.560611
-0.331789
-0.076153
-0.0013006
-0.211765
0.0144098
0.0134614
0.00694948
-0.445768
-0.0389911
-0.0493929
-0.107929
0.00419981
0.0423971
-0.0812805
-0.0261652
0.0131309
-0.0461454
-0.548576
0.000591086
0.0163495
0.0124143
0.0150802
-0.228627
0.0317524
0.0116648
-0.0433525
0.00482065
0.00414784
-0.00154019
-0.203339
-0.0513421
-0.00109242
-0.081108
0.0296379
0.028544
-0.000283305
-0.149144
-0.0361076
0.0206477
-0.52221
-0.0925268
-0.0944155
-0.133805
-0.00599466
-0.0802166
0.0142836
0.00970693
0.037969
0.0123633
0.00447778
-0.446852
-0.00217595
-0.0944733
-0.489633
-0.590314
-0.424158
-0.54742
7.16358e-05
-0.745461
-0.169802
-0.0937713
-0.485143
3.18199e-05
-0.313942
0.011732
0.00473948
0.00832529
-0.702713
-0.120266
-0.0810048
-0.185715
0.00550887
-0.243097
-0.0446384
-0.0206641
-0.944306
-0.00595704
-0.190117
0.00133306
-0.562371
0.015209
-0.0351947
-0.0101994
-0.463351
-0.0226094
-0.0664071
-0.22299
-0.0484444
0.00372555
-0.503541
0.031336
-0.115331
0.00277358
-0.0210903
-0.000218825
-0.0485545
0.00159366
0.0126656
-0.025089
-0.0385729
0.00928274
-0.00549282
-0.119451
-0.00381081
0.000515376
-0.0705179
-0.00114589
0.00439677
0.000399494
-0.0412458
0.00130016
-0.116214
-0.299517
0.0176808
-0.267409
-0.559699
-0.00240928
-0.106925
-0.0749676
0.0170158
-0.0325701
-0.55273
0.011118
-0.551905
0.0290085
-0.0119811
-0.0625756
0.0156152
-0.112026
-0.22128
-0.207241
-0.039191
0.00605438
-0.518586
-0.00581505
-0.135085
-0.337745
0.0136091
0.0124129
-0.498935
-0.0202852
0.00468496
-0.0176318
-0.00935688
-0.0242502
-0.216553
-0.528164
-0.479115
0.0130998
0.038623
0.00165156
-0.752774
0.00423536
-0.00233103
-0.0153048
0.00448911
-0.050109
0.0234641
-0.0596387
-0.300974
-0.27695
-0.126285
-0.00293404
0.0147274
-0.517376
-0.131185
-0.364753
-0.0376648
-0.547595
0.00331167
-0.400394
-0.548345
-0.0662316
-0.405482
0.0126012
-0.0507295
0.0147274
0.0308364
-0.0132919
-0.477606
-0.561519
-0.0681328
-0.265748
-0.255231
-0.394219
-0.0106551
-0.0122326
-0.0115298
0.0587581
-0.0900301
0.00368666
-0.0789855
0.00365977
0.0058425
-0.444624
0.0337725
-0.00368057
-0.0373583
-0.0566252
-0.0162561
-0.0434852
-0.0345262
-0.0851661
0.0124981
-0.10519
0.00463765
0.000271193
0.000498474
-0.00500802
-0.59994
-0.492255
0.00290735
-0.526459
-0.0989668
-0.00426139
0.00103964
0.0151691
0.0209641
-0.047334
-0.17565
0.00457933
-0.000504093
0.0116079
-1.26336
-0.513802
-0.180987
-0.156904
0.0118394
-0.592258
0.0653574
-0.0776341
0.0102206
-0.0108109
0.0347587
-0.031911
-0.0434008
0.0116597
-0.0892107
0.0328365
-0.515601
-0.0294654
-0.00664124
-0.0442498
-0.521581
0.0171141
-0.385455
-0.0232437
-0.500918
-0.165682
-0.0158713
-0.0312567
-0.0570322
-0.431946
-0.556267
0.0119734
-0.0405982
-0.555802
0.0102868
-0.243756
-0.00470682
-0.129149
-0.0825839
0.000424043
-0.0921259
-0.0169019
0.00487632
-0.488964
-0.0626589
-0.0203368
-0.0545199
-0.00980392
0.00395065
-0.597032
-0.138364
-0.0135171
-0.154099
-0.0369776
-0.0301511
0.0166833
0.00789863
-0.49224
0.00719812
-0.473967
-0.593173
-0.0129835
0.00796993
0.0365313
0.00189068
-0.00142203
-0.5764
0.00860429
-0.0429893
-0.062838
-0.192953
-0.108388
0.00851449
0.0195846
0.000539251
0.0133475
0.00589375
-0.584412
-0.571747
-0.0539672
-0.0719031
0.0142349
-0.0877785
0.0201764
-0.0994264
-0.0475425
-0.00386368
0.0112904
0.0165978
0.0111316
0.0433606
0.00836164
-0.175191
-0.0856363
-0.0467373
-0.161147
0.0068221
-0.16972
-0.0260638
-0.240868
0.00157955
-0.0120864
-0.0144009
-0.486796
-0.036422
-0.359415
-0.132571
0.00896278
0.0129693
-0.0509145
0.00471467
0.007905
-0.112535
0.0143271
-0.00490314
-0.0434325
-0.0284135
-0.0189556
-0.543962
-0.238685
-0.558991
0.011652
-0.0654255
0.0118231
-0.0486305
-0.511072
-0.0711059
-0.0556504
0.035507
-0.0795877
-0.121158
-0.01247
-0.176163
-0.0473882
-0.620584
-0.0183108
0.0135064
-0.19152
0.00992032
0.00623496
-0.0442027
-0.0861288
-0.492784
-1.02749
-0.916631
-0.145172
0.00759458
0.0117304
-0.121701
-0.196534
-0.171503
0.00902358
-0.0642786
0.0342342
-0.603403
0.000515729
-0.0505059
-0.625636
-0.54257
-0.170725
-0.0474784
0.00474669
-0.0209162
-0.0231265
-0.123291
0.00485325
-0.0665927
0.00851176
-0.559377
0.00425027
0.0309305
0.00972968
-0.106803
0.00666113
-0.00162102
-0.00996082
-0.0793701
0.0235369
-0.0620628
0.0381125
-0.0184715
0.0205411
-0.0160869
-0.591405
-0.0692272
-0.377262
-0.000406379
-0.46498
-0.0251133
0.0166755
-7.29324e-05
0.00566997
-0.0503888
0.00219619
-0.110617
0.00730914
-0.563129
-0.394187
-0.0608095
0.0206877
0.0156764
-0.37936
0.00884204
0.00646758
-0.0395555
-0.232422
0.00631157
-0.0795058
-0.492196
-0.0931446
0.000645675
-0.0825105
0.013667
-0.0792572
-0.459247
7.57872e-05
0.0163644
-0.0113846
-0.527727
-0.0544063
-0.779268
0.0135597
-0.11351
-0.0193018
0.0173781
0.00179185
0.0155081
0.00808836
-0.0741913
-0.0905984
-0.0689004
-0.464273
-0.0399551
-0.177778
-0.117567
-0.334221
0.00455282
0.0133346
-0.451067
0.00159299
-0.00344907
-0.0116841
-0.0128069
0.0114554
0.018734
-0.0191139
-0.579774
-0.06494
0.00734132
0.00571157
0.000511694
-0.0273718
0.0173756
-0.579072
-0.545084
0.028524
0.0324507
-0.00921988
-0.532275
-0.481314
-0.05418
-0.818594
-0.0852969
-0.474108
-0.0448306
-0.0935517
0.00798077
-0.0830524
-0.436362
-0.0162568
0.0115413
-0.493611
-0.276079
-0.010222
0.0256521
-0.127135
-0.00343468
0.00559844
-0.491868
0.00172826
-0.0876445
-0.00149287
-0.0467115
-0.0586621
-0.144096
-0.553922
-0.0516679
-0.0525754
0.0048113
-0.0192599
0.0210415
0.0124296
-0.421055
0.00959855
0.00940505
-0.47847
-0.00731963
-0.0449497
-0.0175168
-0.1151
0.00485439
-0.00797374
-0.615899
-0.554684
-0.158236
-0.00215006
-0.00247027
-0.139847
-0.0861708
-0.58689
-0.0465355
-0.00206587
-0.00613276
-0.11369
-1.44386
-0.0390302
0.00678208
-0.103942
0.0127516
-0.00726541
0.00541993
0.00508983
-0.0203783
0.0132386
-0.0800304
-0.241269
0.00532768
-0.0445616
0.00674592
-0.0421815
-0.0270232
-0.0129968
-0.0342744
-0.46763
-0.936667
-0.0242808
-0.0019921
-0.130142
-0.427214
-0.166289
-0.0883253
-0.0647245
-0.0555386
0.00120717
0.00610914
-1.29757
-0.0190657
0.011958
-0.133544
-0.0448504
-0.322213
0.0161623
0.00420228
-0.124661
0.0301628
0.0214138
-0.0998819
0.00318969
0.010713
-0.0143615
0.0247874
-0.0496639
-0.0717196
-0.00649666
-0.182013
-0.0106277
0.0100673
-0.0652672
-0.0189593
0.054838
-0.105688
0.0228579
-0.0199815
-0.276254
0.0150488
0.0046076
-0.0280518
-0.0634481
-0.0485299
-0.0496934
-0.10322
-0.0965913
-0.235791
-0.240711
-0.564302
0.0121136
0.012701
-0.0219957
-0.0325285
-0.104801
-0.092254
0.0269355
0.0130516
-0.0524675
-0.399835
-0.0823331
-0.0517358
0.0252393
-1.11859
0.0152767
0.00410151
-0.0579684
0.0233691
0.0153848
0.0121864
-0.54545
-0.173617
0.0552944
-0.29037
-0.049396
-1.09959
-0.0565666
0.00548331
0.0160656
0.000822653
-0.0404532
-0.447456
0.0157955
0.00603273
-0.0967634
0.0014987
-0.446714
0.010111
-0.0142329
0.0113354
0.0128552
0.0149553
-0.527926
-0.692919
-0.075159
-0.460768
-0.0773117
-0.47399
0.0152125
-0.0556162
-0.0161698
-0.0849048
-0.0812651
-0.0170698
-0.0267563
-0.545377
0.0137457
0.0123247
-0.629995
-0.0883061
-0.0137803
-0.05394
-0.20284
0.0108776
-0.0134799
0.00468376
-0.470098
0.00058922
-0.0211513
0.0271683
0.0154632
0.0228015
-0.00142297
-0.579856
-0.0471792
-0.0361499
-0.550888
-0.54127
-0.0890601
-0.0440539
0.0231461
-0.0212363
0.0356992
0.0165772
-0.454633
0.0119567
0.030765
-0.0948715
0.0114549
0.0115131
-0.468056
0.00898392
-0.455399
-0.100334
-0.488741
-0.452008
-0.00651367
-0.360998
0.0141182
-0.0802095
-0.0187201
-0.646492
0.00433757
-0.209544
-0.0134789
-0.0456846
-0.552654
-0.0839592
0.00546488
-0.582223
0.00608564
-0.0899731
-0.0594141
-0.195921
-0.544299
-0.0569625
0.000618651
-0.0968844
-0.506845
-0.0473972
0.0137324
0.0106058
0.0153167
0.012408
-0.0615242
0.0291293
0.00474799
-0.200726
0.00515505
-0.0432125
-0.531559
-0.106925
-0.291531
0.00070107
-0.000566174
-0.568391
-0.0549002
0.000195093
-0.441901
-0.505722
-0.0409917
-0.00202958
0.0228244
-0.097973
-0.093992
-0.175204
-0.118089
-0.11287
-0.0442072
-0.460007
-1.29363
0.00455408
-0.0792667
-0.139285
-3.47391e-05
-0.0981549
-0.0574839
-0.046068
-0.0628205
0.00632149
-0.0907927
-0.0812398
-0.0370669
0.0118097
-0.141492
-0.0277288
0.021895
0.00827268
-0.186112
0.0137804
-0.0433678
0.015105
-0.0481539
-0.0642063
0.0548243
0.0193156
-1.17745
-1.8098e-06
-0.503849
-0.548169
-0.0898869
-0.00174174
-0.0453086
0.0120965
0.00750022
-0.0878204
0.0139715
-0.58141
-0.016529
0.0193683
0.0318282
-0.0181388
-0.0946584
-0.528899
-0.521425
-0.0195925
0.0116247
0.00547702
0.0351789
-0.0315352
-0.055554
-0.0470043
-0.137285
0.0117056
-0.0325333
-0.0484878
-0.238725
0.0508213
-0.0557311
0.0302877
-0.0418704
0.00499803
-0.0544407
-0.0674091
-0.511194
0.0190538
0.0122348
-0.0334218
-0.0548575
-0.587352
-0.0654391
-0.00804772
0.0240844
0.00873873
0.0117973
-0.163864
-0.231021
0.0258645
-0.0239691
-0.44265
-0.222359
0.0185358
-0.0595413
-0.611093
0.0142513
-0.688006
-0.0292441
-1.25869
-0.280733
-0.527986
-0.0693175
-0.0783635
0.0154956
-0.0580948
-0.592826
-0.0883993
-0.0269161
-0.430181
0.0160488
-0.198906
-0.490385
0.0177934
-0.0164752
0.00380892
-0.521811
-0.17056
-0.470762
-0.0884453
-0.502077
0.0114421
-0.472787
-0.0427126
-0.566502
0.00591349
-0.0418379
-0.55846
-0.260675
0.0604951
-0.0851957
0.0170625
-0.0397383
-0.552833
0.00188025
-0.0358825
-0.0752857
-0.0463912
-0.0446918
-0.0521927
0.012419
-0.0701431
-0.0496466
-0.0657792
-0.0782118
-0.450598
0.0162778
-0.1918
0.010111
-0.0089709
-0.144507
-0.50929
-0.114601
-0.584151
0.0127383
-0.0366296
-0.0141697
0.0101683
-0.809652
-0.0348583
-0.537331
-0.57152
0.0118102
-0.205334
0.000156832
-0.443741
-0.381997
-0.493602
-0.0645216
0.0103397
-0.33071
-0.0149006
-0.168599
-0.0237365
-0.032075
0.000540376
0.0151907
-0.0930545
0.0277754
0.0057691
0.00117147
0.0200584
0.00541084
-0.474957
0.012845
0.00484292
-1.3101
-0.0371382
0.00810965
-0.0351154
-0.628279
0.00469897
-0.4942
0.0138947
0.0643938
0.00937962
-0.0471192
-0.0513632
-0.549601
0.0153252
-0.0243714
0.0278738
0.00989286
-0.0482273
-0.52974
0.00439396
-0.0779223
-0.045274
-0.0286876
-0.224339
0.012944
-0.103218
-0.369982
-0.0176614
-0.000659177
-0.0197958
-0.0660253
-0.0183252
0.00027776
-0.0114515
-0.592781
-0.0622849
-0.0196908
0.00648959
-0.0249509
-0.153552
0.0188692
0.0096422
-1.22984
0.024187
-1.25875
-0.0250674
-0.323644
0.0150591
0.000416564
0.0283914
-0.0481319
-0.533956
0.0134823
0.0262624
-0.0383315
0.0118819
-0.0281067
-0.00129296
-0.067467
-0.506233
-0.0268056
0.0147383
-0.0415996
-0.329188
-0.241443
0.0220169
-0.202496
0.0150631
0.0131295
-0.032074
-0.214073
-0.0148798
0.00682381
-0.380207
-0.0552261
-0.0533639
-0.434546
0.0258306
-0.162673
0.0164294
-0.0101792
-0.510155
-0.00318546
0.0115279
0.0165838
0.0369096
-0.156542
-0.577892
-0.112583
-0.6147
-0.0412296
0.0346608
-0.0355151
-0.0986009
0.0005957
-0.484333
-0.290991
-0.060469
-0.0426552
0.00771439
0.00395167
0.0100414
-0.124159
0.01571
0.0069476
-0.308478
0.00387846
-0.277417
-0.492709
-0.266057
0.0320275
-0.5572
-0.0676762
-0.630158
0.0244912
0.0231211
-0.142934
-0.0350836
0.0139861
0.0169275
0.00635928
0.0343375
0.0156347
-0.0413226
-0.0120199
-0.020806
-0.30858
-0.0925273
-0.00481425
-0.0392569
0.0297696
-0.220783
0.0111679
0.0337295
0.0121362
-0.377932
-0.412424
-0.303873
-0.0236232
0.0108128
-0.212142
0.00188767
-0.0968427
-0.0925085
0.025613
-0.0525692
-0.261436
-0.0379071
-0.293028
0.0114462
-0.519202
-0.0479344
0.0280156
0.0164273
-0.038029
-0.435247
-0.000606322
0.0108984
-0.158018
-0.113811
-0.0560477
0.0222473
-0.00572306
-0.167873
0.0604613
-0.510028
0.0059424
-0.000997529
-0.03497
-0.0593108
-0.0272751
-0.0922587
0.0110424
-0.588712
-0.545444
-0.111843
0.0192486
-0.0152376
-0.51228
-0.145752
0.00623967
-0.452506
-0.25087
-0.0486223
-0.0621809
0.0110731
-0.131694
-0.0805323
-0.131745
-0.0320693
0.0056069
0.0255372
0.0054234
-0.541638
0.00448973
0.0252636
0.000336367
-0.351818
-0.578759
-0.0236537
-0.16609
0.0127042
0.0115486
-0.533623
-0.656593
-0.465417
-0.274881
-0.575033
0.0147068
-0.626527
-0.0954427
-0.0287248
0.0124063
0.0167513
9.19238e-05
-1.23444
0.00599171
0.0199241
-0.0380993
-0.455623
0.0329322
-0.0456876
-0.0462538
-0.404693
0.022458
0.0393712
-0.0480485
0.0224857
0.00440693
0.0139789
-0.0473799
-0.0411056
-0.0249572
-0.0583924
-0.0299892
0.0126164
-0.0858366
-0.32707
-0.311896
0.0631555
-1.19525
-0.405494
-0.43558
-0.00389357
-0.995652
0.0319409
0.0223558
0.0118475
-0.0879498
0.00314713
-0.0246587
-0.0497916
0.00512299
-0.0521117
-0.000191596
0.00851382
-0.0270053
-0.413688
-0.539205
0.000539032
0.0126269
-0.03859
-0.0385136
-0.481458
-0.0488036
0.0131239
-0.0333764
-0.138671
-0.037065
0.0133179
0.0138918
0.0209455
-0.446472
-0.210558
-0.476865
-0.135326
9.14415e-05
-0.0905802
-0.0474949
-0.0961517
0.00275957
-0.182989
0.0122084
-0.0679045
-0.0438409
0.0373626
0.00667095
0.0125771
-0.653187
0.015791
-0.127875
-0.980874
0.0121961
0.00897924
0.00723316
0.017021
0.0127469
0.0137678
-0.0499266
-0.11501
-0.0355074
-0.0375062
0.0107654
-0.0458259
-0.531791
-0.477499
0.0155359
-0.0279097
0.0154192
0.0150446
0.0148205
0.00989898
0.00443269
-0.0728976
-0.0488624
0.0017059
-0.499091
0.000277504
-0.00954951
-0.16048
0.0120639
-0.00300281
-0.00609797
0.0227938
0.00289615
-0.0287025
-0.469959
-0.137365
0.0122762
-0.0496788
-0.0508859
0.0170271
0.0149676
-0.565299
4.19787e-05
0.0148066
-0.014186
-0.100844
-0.411401
0.0200588
-0.0809386
0.0053688
-0.469137
-0.693884
-0.00984095
-0.0380918
-0.11031
0.0138787
-0.125246
-0.283949
-0.0325473
0.00188198
-0.400823
-0.182218
-0.092678
0.00740113
-0.153399
0.00569939
-0.534093
-0.473154
-0.0494478
0.0157461
-0.446215
0.025084
-0.422119
-0.0232071
-0.645786
0.0325928
0.000764236
-0.0256613
-0.599403
0.069132
-0.133207
0.0220168
-0.0441771
-0.311253
-0.0427048
-0.189044
0.0272714
0.0613754
-0.508683
-0.0115397
-0.394188
-0.697074
-0.561352
-0.965044
-0.198583
-0.455481
-0.519229
0.0131178
-0.604765
-0.516982
-0.0305029
-0.0634076
0.0112145
-0.623802
0.0107466
-0.0060485
-0.580904
-0.0328773
-0.514896
-0.0739398
-0.0553884
0.0109919
-0.0918113
-0.0801193
-0.486249
-0.0351466
-0.363102
-0.0511483
-0.143851
0.027542
-0.56988
0.00943622
-0.0381785
-0.0633762
-0.0414059
-0.279363
0.0162976
0.00536679
-0.593564
0.00757799
0.0293546
-0.133146
0.0140506
-0.180078
-0.0244315
-0.000805763
-0.520215
-0.467707
-0.000308551
-0.0106166
-0.050734
-0.0977882
-0.72441
0.00999517
-0.00513153
-0.0262467
-0.074953
0.00492306
0.0214342
-0.0367566
0.00557573
-0.078867
-0.586689
0.00490985
-0.0329129
-0.198996
-0.0139823
-0.48712
-0.0782746
0.000766116
0.00111447
-0.178945
-0.654955
0.010492
-0.222126
0.00984764
-0.142858
-0.061585
0.0146278
-0.858911
0.0592352
-0.0291433
0.0306027
0.0128932
0.00414209
-0.252074
-0.582447
0.00213015
-0.471751
-0.0972526
-0.193154
0.0115732
0.0048066
-0.000506437
0.0594233
-0.038657
-0.037469
-0.160105
-0.652076
-0.128377
-0.0417552
-0.156433
-0.0709603
0.0271875
0.000111603
-0.053975
-0.525931
-0.0604142
-0.414401
0.015278
-0.0257052
-0.0412514
-0.496987
-0.49957
0.0107448
0.023112
0.0040589
-0.566094
-0.131535
-0.568254
-0.280982
-0.717969
-0.19363
0.0169497
0.0275247
-0.312698
0.0189814
0.0035722
-0.000642455
0.0184712
-0.00498441
-0.118521
-0.527878
-0.0597885
0.00698565
-0.0347154
0.0113707
0.0388659
-0.0471153
-0.95327
0.0101885
0.023225
-0.222541
-0.0823557
0.011017
-0.0900279
0.0222796
-1.4626
0.00588789
-0.0475261
-0.0886139
-0.500253
-0.142701
-0.242002
-0.437032
-0.0415121
-0.0204954
-0.0754159
-0.499376
-0.599122
0.0111815
-0.0118145
0.0354023
-0.522202
0.0327588
-0.213126
-0.319158
-0.0637184
-0.480169
0.0104495
0.00542138
-0.464582
-0.411829
-0.092688
0.0186034
-0.0148373
0.030446
-0.515133
-0.525232
0.0132366
-0.629972
-0.0128267
0.0185903
-0.477595
0.0116725
-0.381223
-0.217897
-0.546443
-0.675075
-0.0240418
0.011981
-0.112431
-0.075288
-0.537646
0.0179846
-0.0651356
-0.493556
-0.0042195
-0.0387496
-0.371914
-0.0605622
0.00596402
0.0305575
-0.107211
-0.576194
0.0140758
-0.0424389
-0.50661
0.0146181
0.0320272
-0.0635785
-0.591772
-0.103686
0.0131116
-0.339104
0.0169122
-0.0374585
-0.0518687
-0.0758677
-0.474162
-0.0445726
-0.0598988
0.00718585
-0.626949
0.0295616
0.00938693
-0.503455
-0.502355
-0.467895
-0.11061
0.0147933
-0.743004
-0.0858489
0.025566
0.0143486
-0.0123231
-0.0913466
-0.102487
-0.0201469
-0.00539867
-0.0801923
-0.0966525
-0.480121
-0.573033
-0.0642284
-1.19114
-0.105413
-0.178086
-0.878453
0.0133803
0.0144033
-0.033047
-0.0294781
-0.387476
-0.525876
-0.412797
-0.477454
-0.477784
-0.535575
-0.0805836
-0.0490299
-0.12444
-0.239244
0.00496829
0.029621
-0.0770647
-0.00857765
0.0205721
-0.409966
-0.494599
-0.586313
-0.0802436
-0.0590816
-0.376044
0.0579525
0.0273818
-0.0412244
-0.0613084
-0.503906
-0.416131
-0.0298308
0.0278705
-0.309323
-0.427756
0.0141232
-0.187005
0.0183144
-0.106776
0.0616592
-0.0408806
0.00609474
-0.496023
-0.0764837
-0.0202283
-0.113329
0.0164052
-0.0309231
-0.604242
-0.479801
-0.548294
0.0196643
-0.597736
0.0137238
-0.17012
-0.4359
-0.0409614
-1.35986
0.00996432
-0.487504
-0.0873421
-0.341211
0.0155905
0.0196112
0.0176909
-0.103832
-0.0445456
-0.0390442
-0.433954
-0.0776576
-0.571141
-0.540632
-0.505057
-0.112018
-0.0575371
0.0110871
-0.416504
-0.00774604
-0.0173095
-1.37282
-0.0925232
-0.539942
0.0288472
-0.0450578
-0.480848
0.0421415
0.0219349
-0.358623
-0.391205
0.014653
-0.437535
-0.051783
0.00126366
-0.0116306
-0.92415
-0.373897
-0.50105
-0.528678
0.00322237
0.0220135
-0.426625
0.019977
-0.213557
0.0153208
-0.332051
0.018501
-0.887264
-0.0296118
-0.505757
-0.0383907
0.0263132
-0.0925141
0.0178045
-0.475577
-0.119059
0.0305792
-0.123954
0.0161875
0.00944872
-0.537433
-0.516371
-0.0624533
-0.0266541
-0.488178
-0.369306
-0.360588
0.00250485
-0.0381936
0.0304071
-0.0578281
0.0129029
-0.0660634
-0.815032
-0.486693
-0.0604154
-0.611733
-0.0216013
-0.289634
-0.537299
-0.216172
-0.0524935
-0.583549
-0.30671
-0.211373
-0.080651
-0.429681
-0.44014
0.0195799
-0.493645
-0.00529137
-0.922878
-0.599862
-0.610574
-0.376806
-0.456855
-0.496017
0.0258508
-0.574347
0.0180281
-0.564668
-0.0561892
-0.0624376
-0.0678192
-0.656701
-0.57533
-0.000446134
-0.0263652
0.0303126
0.0187095
0.00624411
-0.0396546
-1.13803
-0.0400916
-0.564726
-0.399998
-1.40535
-0.483495
0.00413861
-0.446716
-0.00976698
-0.140658
-0.481083
0.011877
-0.657523
-0.364424
0.018675
-0.558187
-0.628518
0.0246119
-0.567703
-0.0378893
-0.0904455
0.007829
-0.423495
-0.586959
-0.101818
-0.566642
-0.501733
-0.123638
-0.0790768
-0.0562975
0.014121
-1.1901
0.0118213
-0.584846
-0.0565501
-0.51164
-0.00409413
-0.0295298
-0.0806631
-0.519957
0.00759744
-0.00481653
-0.638901
-0.104022
-0.540243
-0.537114
-0.0561941
-0.805011
-0.487952
0.00999322
-0.327261
-1.31472
-0.0802726
-0.514496
-0.0497195
-0.614607
0.0129918
-0.00315289
0.0129615
-0.972462
-0.562267
-0.162015
-0.389426
-0.339665
-0.00170451
-0.776399
0.00546445
0.00496337
-0.57827
-0.602196
0.00652379
-0.390782
-0.0451537
-0.511774
-0.601761
-0.40258
-0.351198
-0.13787
-0.599785
0.0230275
-0.798449
0.0073787
0.0194448
-0.48306
0.0394096
0.0381519
-0.0536577
0.0123186
0.0120179
0.00373078
-0.0650896
-0.558301
-0.325557
0.00522906
0.010394
-0.464279
0.0220569
-0.0783028
-0.579089
0.0128152
0.0271183
0.00674553
-0.0473021
-0.0407429
0.0274379
0.00659304
-0.0585129
-0.393456
0.0114451
-0.361908
-1.32627
-0.545625
-0.171178
-0.0907726
-0.586385
-0.124218
-0.53629
-0.0441784
-0.0677073
-0.570247
0.000610938
-0.621379
-0.00485152
-0.486924
-0.331905
-0.0167832
-0.596272
-0.566397
-0.323386
-0.234467
-0.574353
-0.560833
-0.591493
-0.0390273
-0.0552713
0.0448519
-0.439057
-0.610026
0.0103773
-0.092438
0.0103115
-0.635222
-0.471214
-0.823176
0.0102158
-0.0642859
0.0159555
-0.0353481
-0.0925886
-0.141758
0.0199008
0.0184393
-0.00267237
-0.622525
-0.114743
-0.0757589
-0.370216
0.0203702
-0.0410478
-0.648299
-0.00653348
0.0148501
-0.396209
-0.176639
-0.0473791
-1.43551
-0.461491
-0.0159599
-0.347196
-0.0566214
-0.317717
-0.0596052
-0.568772
-0.503895
-0.614877
-0.0262024
-0.137835
-0.0342355
-0.510841
-0.235996
-0.573217
0.0233643
-0.557964
-0.142962
-0.171562
-0.0551542
-0.0497286
-0.0625257
0.00972003
-0.59198
-0.652806
-0.205417
-0.0069666
0.0222602
-0.575241
-0.274132
-0.0340379
-0.0207868
0.00734534
-0.370477
-0.0123052
-0.0399923
-0.606435
-0.0510186
-0.111715
-0.463371
-0.217239
-0.650663
0.00504485
0.0215028
-0.491705
-0.0220312
0.024715
0.00208799
0.0174702
0.00999605
-3.40836e-05
0.0111076
0.0171946
-0.0701841
0.00518642
-0.656223
-0.329045
-0.508358
-0.265347
-0.65923
-0.325286
-0.03915
0.014753
0.034303
-0.103003
-0.553568
-0.44793
0.0117101
-1.42621
-0.0665873
-0.0412379
-0.222529
0.00351866
-0.5581
-1.36499
-0.128494
-0.0357877
-0.48206
-0.34754
-0.0102948
-0.0878539
-0.148889
0.014582
-0.192362
-0.354466
-0.103396
-0.512711
-0.613635
-0.3797
-0.448476
0.018269
-0.484281
-0.325538
-0.410319
-0.083082
-0.624619
-0.00723273
-0.215548
0.0541238
-0.462781
-0.00180634
0.0131211
0.00415064
-0.503582
0.0167992
-0.49539
-0.504635
-0.0130325
-0.308401
0.0101043
0.0297113
-0.0725351
0.0237445
-0.00568662
-0.54058
-0.0426532
-0.0423365
0.0210388
-0.321725
-0.421741
-0.0164582
-0.541081
0.0279701
-1.04202
0.0471324
-0.468942
0.0172715
0.017684
-0.533052
-0.602454
-0.122041
-0.0985833
-0.114398
-0.0703596
-0.00715449
0.00156223
-0.423508
-1.38972
-0.59666
-0.00395564
-0.0408063
-0.636004
-0.270567
0.0234043
0.0282254
-1.12183
-0.153732
0.000408209
-0.0430571
-0.539942
-0.0349258
-0.354754
-0.59428
-0.0215994
-0.138326
-0.806685
-0.0105758
-0.0784845
-0.039881
0.0150505
-0.0475341
-0.456659
-0.0471995
0.0108886
-0.087477
-0.026081
-0.108905
-0.766027
-0.301821
-0.151887
-0.130993
-0.0565013
-0.0311841
-0.646298
-0.526143
0.0329545
-0.0447941
0.0177116
-0.0656151
-0.0461841
-0.206822
-0.78893
-0.0633098
-0.0533467
-0.177301
0.0338652
-1.38716
-0.376002
0.0103144
-0.366213
0.0344312
-0.488555
-0.0220237
0.00651935
0.0102902
-0.0328716
-0.485926
-1.02869
0.0144009
-0.317521
-0.119996
-0.0482123
0.00176481
-0.445028
-0.159469
0.0127718
-0.020024
-0.404679
-0.0313931
0.012756
-0.149524
-0.0354627
0.0453974
-0.150973
-0.88672
-0.56894
-0.155222
0.0204328
0.0179547
0.0269746
-0.428619
-0.749449
-0.417368
-0.06524
0.0163978
-0.055944
-0.135691
0.0234866
-0.0932175
0.000218862
-0.0422102
0.0140571
-0.565765
-0.0684289
-0.0358269
-0.013453
0.00764781
0.000222794
-0.467457
0.0186194
-0.0273279
-0.0252397
-0.573803
-0.591548
-0.0463229
0.00342099
0.0167587
-0.118005
-0.104028
-0.618414
-0.161489
-0.406345
-0.55736
-0.129956
-0.0364141
-0.414271
0.0256363
-0.283131
-0.0548028
-0.106705
-0.0148036
-0.167942
-0.119328
-0.456027
-0.00555071
-0.0629987
-0.347103
-0.0802115
-0.557456
-0.0966094
0.028054
-0.0356626
-0.0455837
-0.0249625
-0.492117
-0.00811292
0.0139448
-0.116243
-0.160229
0.000887342
-0.0135044
-0.577262
0.00333054
-0.0301934
-0.00741893
-0.0629288
-0.165015
0.0121393
-0.292079
-0.0462533
-0.0505374
-0.0427011
0.000140107
-0.470681
-0.112891
0.0114895
-0.0309212
-0.108198
-0.0556934
-0.166895
0.0180996
-0.00119934
-0.066404
-0.00676015
-0.113127
-0.0533594
-0.0403055
-0.0744054
-0.0177623
-0.285852
-0.446436
-0.132736
-0.180632
-0.437223
-0.147923
0.0283379
-0.0314823
0.0180795
-0.709277
-0.0575489
-0.0221126
0.0175418
-0.418973
-0.0934771
0.039519
-0.0820637
-0.0308145
0.00977322
0.00565784
-0.0199848
0.0183807
-0.216844
0.0105082
0.0142908
0.0165309
-0.473765
-0.0504152
-0.0523431
-0.0638591
-0.0860178
-0.161225
-0.0512824
-0.181557
-0.571006
0.0232568
-0.155024
-0.490755
-0.0312696
0.0619047
0.060425
-0.0474573
-0.17075
0.0178727
-0.410843
-0.0387028
-0.202449
-0.201167
-0.0764199
-0.0750462
-0.00419043
-0.0964644
-0.407569
-0.0870097
-0.0388904
-0.0838197
0.0177927
-0.0658328
-0.0610515
-0.127555
-0.500527
-0.137711
-0.0463508
-0.546724
-0.0868741
-0.099913
-0.00185787
-0.0644859
-0.110994
-0.568498
-0.0344887
-0.0247991
-0.0327617
-0.0593537
-0.0316558
-0.0274133
-0.0516695
-0.0992818
-0.105793
-0.0912645
-0.0387377
-0.60236
0.0143819
-0.0371429
0.0108295
0.00807043
-0.0612237
-0.052235
-0.0307528
-0.534177
-0.121357
-0.0649841
-1.16958
0.0197121
-0.0952541
-0.451701
0.00565262
-0.0205404
-0.00891284
-0.181692
-0.0805507
-0.510771
-0.0640804
-0.0286208
-0.00870962
-0.0747494
0.0056192
-0.106834
-0.0372487
-0.0850633
0.00170938
-0.166975
-0.111418
0.017022
-0.538359
-0.0941252
-0.0523773
-0.177906
-0.0117747
-0.0314224
-0.0246356
-0.416267
-0.0367567
-0.42231
-0.0229669
-0.51527
-0.0215242
-0.0979135
-0.542286
0.00448366
-0.439717
-0.00176134
-1.2905
-0.0490695
-0.124665
-0.490708
0.0203765
-0.521644
-0.190576
-0.157636
-0.0646653
-0.156402
0.0343907
-0.0877274
-0.516865
-0.579237
0.0166311
-1.01717
0.00338699
-0.0146134
-0.0571044
-0.362646
-0.509967
-0.0242241
0.0129006
-0.0924663
-0.0788892
-0.0592563
-0.0886144
-0.0310854
-0.444514
0.0177722
-0.0304459
-0.0335171
-0.031688
-0.0876445
-0.0293158
-0.52933
-0.0383366
-0.0448771
0.00907446
-0.173077
-0.0786065
0.0014822
-0.0903306
-0.201645
-0.0775377
-0.11234
-0.030128
-0.112161
-0.367089
-0.0741589
-0.0545336
-0.0278098
0.0191969
-0.114919
0.0110889
-0.0761432
-0.157224
-0.239136
-0.0622088
0.00823748
-0.0328407
0.0259379
-0.525275
-0.063092
-0.0329533
-0.0795115
-0.106669
0.0119688
0.00902119
0.00763648
-0.177143
-0.168513
-0.0760103
-0.139577
-0.135004
-0.0492251
-0.0145368
-0.117658
-0.0420992
-0.0325938