/*--------------------------------*- C++ -*----------------------------------*\
| =========                 |                                                 |
| \\      /  F ield         | OpenFOAM: The Open Source CFD Toolbox           |
|  \\    /   O peration     | Version:  v2012                                 |
|   \\  /    A nd           | Website:  www.openfoam.com                      |
|    \\/     M anipulation  |                                                 |
\*---------------------------------------------------------------------------*/
FoamFile
{
    version     2.0;
    format      ascii;
    class       surfaceScalarField;
    location    "600";
    object      phi_0;
}
// * * * * * * * * * * * * * * * * * * * * * * * * * * * * * * * * * * * * * //

dimensions      [0 3 -1 0 0 0 0];
oriented        oriented;


internalField   nonuniform List<scalar> 
19737
(
-0.262287
0.644009
-0.381722
-0.003356
-0.0471001
0.0504561
-0.0119831
0.0290107
-0.0170276
0.599459
-0.0612619
-0.538197
-0.354879
0.305058
0.0498212
-0.691059
0.410889
0.28017
-0.312555
0.272145
0.0404106
-0.404605
0.333128
0.0714768
-0.190654
0.291342
-0.100688
-0.171347
-0.0224952
0.193842
-0.00632334
0.154422
-0.148098
-0.0181216
-0.259891
-0.461083
-0.229976
0.315511
-0.636412
0.320901
0.631302
-0.560481
-0.0708212
-0.0054877
0.0259866
-0.0204989
-0.392663
0.652538
-0.259875
0.0681749
-0.140733
0.449083
-0.30835
0.138678
0.137587
-0.276265
0.301175
-0.480179
0.179005
0.0657705
-0.0704082
0.00463767
-0.0556145
0.0506687
0.00494572
-0.31483
0.366317
-0.051487
-0.0226934
0.0172057
-0.0265043
0.0199676
0.00653678
-0.316725
0.280419
0.0363056
0.159994
-0.166317
-0.065646
-0.251079
-0.211215
0.331825
-0.12061
-0.0630475
0.103811
-0.0407633
0.198944
0.105944
-0.304888
0.0495347
0.00170532
-0.0512401
0.256929
-0.288936
0.0320069
0.0109046
0.237239
-0.248144
-0.599253
0.20659
-0.116004
-0.196551
-0.0704032
0.0147888
0.484106
-0.0903698
-0.393736
0.028466
-0.0158115
-0.0126545
-0.671424
0.312332
0.359092
-0.168397
0.434048
-0.265651
-0.175037
-0.0775023
0.252539
0.191727
-0.543857
0.35213
-0.467792
0.156341
0.311451
0.184296
-0.222391
0.0380942
0.635983
-0.00468129
0.599459
-0.13199
-0.461864
0.593854
-0.029143
0.021507
0.00763597
-0.57234
0.631116
-0.0587762
0.307071
-0.451384
0.144314
0.0243278
-0.0546228
0.030295
-0.113723
0.455539
-0.341816
0.0232865
-0.0239134
0.000626821
-0.000529831
0.0269023
-0.0263724
0.600294
-0.408566
-0.264609
0.449578
-0.184969
0.141373
0.193527
-0.3349
-0.260462
0.401835
-0.244144
0.453744
-0.2096
-0.0454238
-0.0115514
0.0569753
-0.441371
0.176762
-0.0769785
-0.399608
0.476586
-0.421491
0.618569
-0.197078
0.00605737
0.0434774
0.569937
-0.250235
-0.319702
0.221798
-0.0375017
0.125136
0.306626
-0.431762
0.0325252
0.242189
-0.274715
0.172467
-0.10534
-0.0671267
0.367825
0.116281
0.535132
-0.543272
0.00813983
-0.1526
0.351544
-0.209262
0.175476
0.0337867
0.497361
-0.0276212
-0.46974
-0.484059
-0.0904433
0.574503
-0.0255281
0.0285108
-0.00298272
0.14161
-0.505482
0.363871
0.563521
-0.0365137
-0.527008
-0.320674
-0.102848
0.423522
0.0855278
-0.564706
0.479179
0.373118
0.124243
0.280445
-0.377486
0.0970417
0.210896
-0.227669
0.0167725
-0.345822
-0.0587828
-0.000635455
0.0155075
-0.014872
0.134511
-0.0137905
-0.12072
0.652695
-0.437364
-0.215331
0.37657
-0.237892
0.201469
0.194301
-0.395769
-0.617406
0.278695
0.338711
-0.347674
0.28155
0.0661248
0.266188
-0.463341
0.197152
-0.0485575
-0.523782
-0.35592
0.592614
-0.236694
-0.453176
0.284779
0.0415631
0.521958
0.0782684
-0.142381
0.0641125
-0.280769
0.313294
-0.282826
0.484295
0.693056
-0.516437
-0.17662
0.656037
-0.47027
-0.185767
0.443334
-0.177146
0.0627142
-0.231333
0.168619
-0.0784932
0.0154456
-0.0265865
0.0146034
0.560438
-0.435302
-8.09757e-05
0.0168492
-0.0167682
-0.0128892
-0.0136152
-0.215297
0.372074
-0.156778
-0.0684553
-0.164013
0.232468
-0.58284
0.448182
0.134658
-0.362417
0.504027
-0.522144
-0.0606957
-0.422113
0.28138
-0.0987481
-0.123643
0.272214
-0.447989
0.175774
-0.0672552
0.182864
-0.491503
0.30864
-0.138364
0.367483
-0.229119
0.334701
-0.494763
0.160062
0.215635
-0.582344
0.36671
0.0101896
0.445234
-0.455423
-0.57705
0.0378964
0.539153
0.551336
-0.281687
-0.269649
-0.191611
0.248274
-0.0566628
-0.233831
0.0422202
-0.111103
0.646235
-0.0249017
0.022798
0.00210367
0.13579
-0.0575219
0.16341
0.253319
-0.416729
-0.443295
0.366316
0.263979
-0.6199
-0.203785
0.253223
-0.0494376
-0.410364
0.420554
-0.302219
0.659207
-0.356988
-0.0360027
-0.541047
0.416351
-0.195053
-0.221299
-0.10874
0.00200586
0.0210587
-0.0230645
-0.345369
0.130072
0.157673
0.336193
-0.493866
-0.569821
0.411266
0.158555
0.332813
-0.00789598
-0.324917
0.351283
-0.311044
-0.0402389
-0.308485
-0.283747
0.592232
0.0741016
0.302469
0.115222
-0.435897
0.277889
-0.4436
0.165712
0.0161316
-0.0167671
-0.412665
-0.178605
0.59127
-0.190768
0.0564984
0.13427
-0.48712
0.242976
0.191354
-0.149016
-0.0423384
0.491737
-0.215401
-0.276336
-0.58565
0.509512
0.076138
0.60227
-0.523817
-0.0784532
-0.483993
-0.187431
0.204537
0.129251
-0.333788
-0.17609
0.00474336
-0.1343
-0.360526
0.518199
0.0283431
-0.0737669
0.244406
0.247331
-0.53806
0.351228
0.186832
0.0594947
0.00627585
0.149087
0.453184
-0.0149815
0.0149005
0.248138
-0.253598
0.00546028
-0.246845
-0.0985237
0.328464
-0.459269
0.130805
-0.542861
0.130196
0.0247171
-0.030311
0.0055939
0.0260194
-0.00273288
-0.0310435
-0.00320209
0.0342456
-0.0528725
-0.0175357
-0.022132
-0.00701104
0.462387
-0.184498
-0.41742
0.591103
-0.173683
0.378226
-0.408069
-0.0413925
0.0650286
-0.0236361
-0.202745
-0.363952
0.566697
0.184068
-0.206563
0.107731
0.0538463
-0.161578
0.65281
-0.457374
-0.195436
-0.0267431
0.0262132
0.0369957
0.0668151
0.0778233
-0.289039
-0.433982
0.145956
0.288026
-0.190709
-0.243274
-0.0877278
0.225315
0.439239
-0.106426
0.252808
-0.27093
0.419263
-0.306098
-0.113166
-0.0466019
0.0155585
-0.352075
0.105231
0.245276
-0.55376
0.184665
-0.0779103
-0.106755
0.167559
0.266489
-0.0318317
0.00547073
0.026361
-0.0295208
0.0538486
0.132473
-0.0369312
-0.0955421
0.0746206
-0.278406
-0.0152941
-0.00960757
-0.244059
0.141517
0.102542
0.0157401
-0.0263285
0.0105884
-0.221389
0.0121269
0.406227
-0.260271
0.0248178
0.00120159
0.140884
0.265343
-0.0389788
-0.277639
0.316618
0.197734
-0.291816
0.0940815
0.0225347
-0.0205289
-0.0319343
0.0164915
0.0154428
0.276931
0.22833
-0.50526
-0.6192
0.0335506
-0.0108766
0.145387
0.34887
-0.144333
0.192673
-0.0171978
0.320642
-0.160648
-0.649408
0.348497
0.300911
0.490714
-0.246308
-0.152552
0.537348
-0.384796
0.466526
-0.131825
-0.0161342
-0.00973514
0.0258694
0.0179577
-0.303356
0.285398
0.265546
-0.202832
-0.0279571
0.00242905
-0.136793
-0.107266
0.022831
-0.0299775
0.00714649
0.238464
-0.473727
0.235263
0.00687873
-0.022935
-0.296429
-0.300883
0.597312
0.30703
-0.137667
-0.169364
-0.0366006
-0.0744491
0.11105
0.420328
-0.394042
0.053239
0.138115
0.469238
-0.230774
-0.0739644
0.354409
0.262758
-0.559187
-0.162166
0.51361
-0.00327222
-0.510338
0.116052
0.0411903
0.111322
-0.152512
0.244376
-0.283355
0.129475
0.150277
-0.279752
0.444365
-0.596918
0.163607
-0.0558755
-0.0116637
-0.0202706
0.0438284
0.00050731
-0.0443357
0.79878
-0.329329
-0.469451
0.0401139
-0.0516653
-0.112903
-0.049724
0.162627
0.469856
-0.192925
-0.132695
-0.0580734
-0.437658
-0.21175
0.338958
-0.238204
-0.100754
-0.00105487
0.210855
0.120971
-0.179497
0.308972
0.0978613
0.209169
-0.032469
0.397797
-0.365328
0.252191
0.238522
-0.28803
0.45144
0.0352205
0.217587
0.14686
-0.546468
0.151134
0.169507
-0.0375758
0.0350054
0.0025704
0.0440533
0.210003
-0.254057
0.11952
-0.257885
0.499241
-0.18373
0.20095
0.550525
-0.394775
-0.15575
0.0991277
-0.520618
0.281105
-0.55395
0.272845
0.3663
-0.163566
-0.202734
-0.107078
-0.247801
-0.0884513
0.35557
-0.267119
-0.0233207
-0.0232812
-0.0398647
0.529526
-0.489662
0.262578
0.390117
0.485776
-0.0159194
0.109427
-0.072431
0.0331245
0.286575
-0.3197
0.336542
-0.369011
-0.56317
-0.357271
0.0718481
0.285422
0.242602
0.0598062
-0.302409
-0.342054
0.265277
0.0767775
-0.585308
0.416446
0.168862
-0.181874
0.185051
-0.00317706
-0.0709133
0.584057
-0.227826
-0.35623
-0.226921
0.00762707
0.219293
-0.0316208
0.0186462
0.0129746
0.261418
0.0479596
-0.309377
0.2624
-0.350851
-0.029909
0.0137748
0.0455337
-0.396181
-0.0823605
0.478541
0.0201573
-0.000189697
-0.232798
0.21688
0.0159181
-0.0266288
-0.20617
-0.236492
0.627142
-0.390651
0.215007
-0.324207
0.1092
0.000442521
0.0242746
-0.39197
0.103116
0.288854
0.214528
0.438281
-0.0556557
0.32787
0.00718311
0.0201208
-0.0273039
-0.0605048
0.096785
0.0356884
0.29062
-0.279715
0.000513556
0.0243043
-0.415392
0.619035
-0.203644
0.359064
0.224993
0.412019
-0.451883
0.00157666
0.391553
0.407227
0.44466
-0.359132
0.0125072
0.0102908
0.394258
0.193592
-0.58785
-0.0207318
0.00763707
0.0130947
-0.121639
0.0120484
-0.280935
-0.133297
0.414232
-0.099967
-0.398717
-0.139342
-0.0318497
-0.00800409
0.0398538
0.545728
-0.362344
-0.183384
-0.241693
0.305759
0.170834
-0.476593
0.666927
-0.482689
-0.184238
-0.109073
0.324129
-0.215056
0.0366183
-0.00755011
-0.0290682
0.570239
-0.166213
-0.404026
0.326327
-0.308369
0.398157
-0.324056
0.0603675
-0.310454
0.250087
-0.436378
0.155442
-0.354108
0.500393
-0.146284
0.0132338
0.243695
0.241578
0.051365
-0.292943
0.300408
-0.0578058
-0.320551
0.37475
-0.0541987
0.030732
0.681197
-0.681197
0.310721
0.084256
-0.394977
0.260782
-0.0630472
-0.0679204
0.0771452
-0.00922484
-0.221097
0.302831
-0.0817335
0.561711
-0.22111
-0.340601
0.395621
-0.527611
0.5052
-0.385313
-0.119888
0.102822
-0.0561668
-0.046655
0.204713
-0.61681
0.412097
0.310583
0.0641669
-0.0010055
-0.111898
-0.277756
0.102719
0.0625687
-0.0140632
0.262201
0.28843
0.0846371
-0.0583106
-0.0263265
0.0360352
-0.00823513
-0.0278
-0.509289
0.155181
-0.128724
0.642335
0.479288
-0.02971
0.091191
0.246675
-0.00100698
-0.0308247
0.0353097
-0.0281265
0.0772469
-0.256744
0.433189
0.197927
0.396912
0.0823761
-0.0969017
0.373621
-0.276719
-0.0448029
0.0731459
0.00202548
0.0387836
-0.0408091
0.317845
-0.420692
0.220981
0.145318
0.414304
-0.352784
-0.0615202
0.471753
-0.165994
-0.268114
0.483544
-0.21543
-0.256572
0.317925
-0.061353
0.545084
0.0412037
0.0434334
-0.267089
0.198634
0.115925
-0.394246
0.278321
0.326732
0.243205
-0.0232022
0.20727
0.532769
-0.222048
0.317836
0.143292
-0.461128
0.164633
-0.517427
0.352794
0.015798
0.0208203
-0.246814
-0.201175
0.26006
0.0013575
-0.0848946
-0.372084
0.456979
0.234426
0.327285
0.286795
-0.0452166
0.133288
-0.441016
0.307728
0.224535
0.124336
0.10501
-0.52243
-0.00344752
-0.277322
0.0165482
0.019487
0.522692
-0.575961
0.0532694
0.243509
-0.00626997
0.0557399
-0.532005
0.476265
0.561973
-0.346339
0.100946
0.034844
0.11103
0.154516
0.169751
0.411752
-0.581503
-0.214924
0.292171
0.0810439
0.20334
-0.284384
0.572965
-0.338539
0.256999
0.254213
-0.511212
0.131058
-0.0898673
0.334091
0.0802125
-0.236401
0.4934
-0.388909
0.319092
0.0698173
0.258668
-0.0466874
0.513977
-0.117065
0.329734
-0.269367
0.17273
-0.397779
0.225048
-0.142791
-0.379353
-0.0141076
-0.0124789
0.125097
0.273061
0.194795
0.224468
-0.387166
-0.421689
0.153575
0.318087
-0.284963
-0.433473
-0.12812
0.561593
0.53417
-0.369537
-0.0154418
-0.0150801
0.0305219
-0.271481
-0.27849
0.54997
-0.414965
-0.167145
0.58211
0.0441111
-0.0889139
-0.450723
-0.166683
0.309912
-0.0446349
0.0120454
0.0164205
-0.00127282
-0.0207599
0.0220327
-0.0873465
0.028366
0.0589804
0.0248506
-0.0258791
0.00102854
0.377603
0.136374
-0.0923772
0.113991
-0.0216138
0.326836
-0.235645
0.373494
-0.0450303
-0.0421404
-0.0124824
-0.571652
0.368907
-0.108609
-0.0530068
0.161616
0.45165
0.192359
0.0404801
0.0234034
-0.0638835
-0.238519
0.319563
-0.0461328
-0.0564863
0.102619
-0.0706771
-0.244153
0.236386
-0.324591
0.088205
0.0280854
-0.269954
0.241868
-0.108182
0.311522
-0.053273
-0.0171302
-0.288769
0.285321
0.337146
-0.112612
-0.118475
0.0818744
-0.515092
0.572713
-0.0576215
-0.0921983
-0.0838921
0.441944
-0.25908
-0.0237083
0.0255804
-0.00187219
0.414856
0.155383
0.394335
-0.221605
-0.163676
-0.322189
0.485866
-0.0342187
-0.00335717
0.0704984
0.150725
-0.221224
-0.131831
-0.358157
0.489988
-0.0792593
0.0259863
0.290869
0.132595
-0.423463
-0.298891
0.0041272
0.0328471
-0.0369743
0.481434
-0.238135
-0.243299
-0.423878
0.314428
0.109449
0.46245
-0.406823
-0.0556272
0.310711
0.189682
0.0523334
0.38121
-0.433543
0.54765
0.133546
-0.397978
0.450312
0.248672
-0.520152
-0.161476
0.306167
-0.144691
-0.43269
0.0349111
0.197902
-0.659766
-0.05864
-0.377271
0.43591
-0.0518034
-0.529702
0.227483
0.634507
-0.201707
-0.4328
0.308418
-0.0934107
0.350688
-0.409328
-0.647025
0.162966
0.651672
-0.128981
-0.41646
-0.0162298
-0.149592
0.465242
-0.00970275
-0.0724239
-0.0680014
0.140425
-0.0243312
0.0648114
0.0470236
0.139129
-0.186152
0.00141875
-0.025127
0.213118
-0.229417
0.264638
0.37331
-0.257385
0.173963
-0.529014
0.355051
-0.385993
0.330229
0.0557637
0.00898048
0.0158701
0.57701
-0.00987803
-0.567132
0.0269808
-0.00892061
-0.0180602
0.177762
0.303672
0.369853
0.181483
0.407179
-0.0957102
-0.311468
0.62928
-0.263382
-0.365897
0.0960199
0.270297
0.280007
-0.0737838
-0.206224
0.277444
-0.0838081
-0.193635
-0.638976
0.649674
-0.0106978
-0.6043
0.208017
0.396282
-0.0272503
0.0313775
-0.383634
0.117306
0.266328
-0.323402
0.102304
0.0549979
0.580594
-0.524253
0.579993
0.131801
0.0532497
-0.181055
0.491765
0.168284
-0.583249
-0.0465732
-0.399885
0.0683112
-0.349998
0.15783
-0.319306
0.271518
0.00848958
0.0659378
-0.060974
-0.00496385
-0.054538
0.0128744
0.0416636
0.628984
-0.414456
0.178319
-0.287392
0.455292
-0.0686822
-0.38661
0.0773599
0.0254619
-0.44978
0.359336
-0.150891
-0.544278
0.396126
0.148152
0.195984
-0.549403
0.353419
0.363727
-0.0375464
-0.193786
0.0754493
0.331729
-0.00407807
-0.0166537
-0.154653
0.0822291
0.263369
0.208484
-0.530302
0.123966
0.406336
0.0469712
0.0189666
0.333629
-0.0702596
0.0613026
0.111164
0.391201
0.208812
-0.600013
0.0136386
-0.0265277
0.506218
-0.0437682
-0.0233036
-0.0640429
-0.0244169
-0.00720391
0.0398584
-0.0315809
-0.00827752
-0.0871485
0.0638449
0.072664
-0.370608
0.297944
0.0641712
-0.580608
-0.482411
-0.0478913
-0.0158908
-0.224719
0.24061
0.479004
-0.326412
-0.152592
-0.0694139
0.201215
0.00112102
-0.0266719
0.0255509
0.311055
-0.442886
-0.04426
-0.114821
0.159081
-0.17727
0.13301
-0.173341
-0.55608
0.196199
0.359881
0.15523
0.323773
-0.380077
-0.176003
0.09481
-0.0260451
-0.068765
0.0708968
0.239015
0.289655
-0.510765
0.427342
-0.294054
0.00648235
-0.0365558
0.0300735
0.338694
0.317343
0.0274553
0.495273
-0.243081
0.232069
-0.399017
0.166948
0.236444
-0.313351
0.0769073
0.50321
-0.356351
-0.506947
-0.037331
0.266845
-0.493852
0.227008
0.36769
-0.0666782
-0.301012
-0.357475
-0.0314343
-0.0224932
0.147926
-0.282217
0.134291
-0.207903
0.565721
-0.357818
-0.274483
-0.337068
0.611552
-0.0876338
0.624982
0.650253
-0.281858
-0.368394
0.0116486
-0.015807
0.00415846
0.0348726
-0.407729
-0.177579
-0.00098329
-0.0257598
0.344589
0.0619932
-0.406582
0.384439
0.265813
0.421322
0.213185
0.0686051
-0.359514
0.290909
0.0780292
-0.47421
-0.41699
0.0972951
0.319695
-0.00199772
0.2799
-0.277903
-0.59847
0.256001
0.34247
-0.0653868
-0.0518707
0.117257
0.378675
-0.306011
-0.0196295
-0.0404872
-0.0041464
0.0502363
-0.0460899
-0.225513
0.253391
0.051667
-0.546447
0.573364
-0.0269167
0.0672725
-0.113405
0.0224349
0.0723751
-0.0878203
0.568829
-0.262204
0.403825
-0.210974
-0.192851
0.128764
-0.326613
0.197849
0.33851
-0.371711
0.0332011
0.470325
-0.203481
0.62431
-0.17266
-0.197499
0.384462
0.257137
0.024011
-0.0246744
0.000663397
0.432962
-0.317739
-0.500601
-0.0144911
-0.350857
0.324814
0.0260429
-0.000321638
0.0243327
-0.480568
0.0561285
0.42444
-0.0161102
-0.0710383
0.0395072
0.0272395
0.000342735
-0.0275823
-0.079386
-0.354204
0.43359
0.31998
0.0477101
-0.220122
0.376463
-0.0400845
0.0119994
-0.385812
0.555564
-0.454622
0.110716
0.343906
0.0233072
-0.00466101
0.0165884
0.2336
-0.0432525
-0.190348
0.0660342
0.389258
-0.131944
0.338481
-0.206536
0.341471
-0.414148
0.0726769
-0.523244
0.0251408
0.498103
0.338745
-0.423639
-0.242537
0.0172233
0.225313
-0.556939
0.0866693
-0.0617351
0.00719711
-0.438944
0.0815821
0.357362
0.0325362
-0.0260539
-0.139976
-0.365513
0.505488
-0.585443
0.405229
0.180214
-0.213975
0.0127999
0.201175
-0.0868139
-0.0181818
0.104996
-0.0352467
-0.216675
0.251922
0.35238
-0.431766
0.150323
-0.0220442
0.282141
-0.0456967
-0.0659213
0.216647
-0.0113305
-0.195675
-0.0183002
-0.0411089
0.0369625
-0.335305
-0.237374
0.572679
0.0112375
-0.027049
-0.0209371
0.0196643
0.148802
-0.191131
0.0423296
-0.202612
0.597689
-0.395077
0.336568
-0.207804
-0.590605
0.129522
-0.311798
0.590493
-0.00711026
0.0187092
-0.011599
0.135085
0.0495805
0.155877
0.575701
-0.354933
-0.220768
0.210008
0.0139084
-0.223916
-0.281466
-0.202343
-0.315084
0.480981
-0.342721
-0.138259
-0.610877
0.367837
-0.299232
0.469157
-0.530419
-0.0105473
0.0192453
-0.00869803
0.00973895
0.022952
0.199309
-0.222261
0.339769
-0.236653
0.0858058
-0.519279
-0.0777111
-0.198554
0.352982
0.127999
0.221729
-0.165188
-0.0565408
0.188665
-0.338181
0.149516
-0.203242
0.435311
0.591377
-0.410261
-0.181117
0.514544
-0.340581
0.390885
0.200493
-0.0130995
-0.00234234
0.298094
0.173659
-0.168584
0.092978
0.0756059
0.392426
-0.0962182
-0.296208
-0.0773174
-0.27354
-0.32691
0.0164551
0.19927
-0.59208
0.39281
-0.0789664
-0.0896175
-0.352126
0.391633
0.0569601
0.0246013
-0.0815614
-0.1139
0.342934
0.202794
-0.147731
0.0217968
-0.0266829
0.00488606
-0.0259687
0.533154
-0.507186
-0.231693
0.0676807
0.301818
-0.182298
0.440166
-0.142073
0.275541
0.353443
-0.572281
0.200106
0.372175
0.365062
-0.403924
0.608637
-0.410732
0.309717
0.101015
0.514771
-0.371479
-0.24275
0.178829
-0.179419
-0.456993
0.574673
-0.20482
-0.0651889
0.0288921
0.204708
-0.0421309
0.0126623
0.0294686
0.407549
0.187906
-0.595455
-0.383669
-0.0552755
-0.191704
0.155128
0.279168
-0.434296
0.00918062
0.0180589
0.100097
0.273213
0.31046
-0.121795
0.289348
0.0835234
-0.1201
0.036577
0.244556
0.106757
0.220216
-0.0790322
0.0111118
-0.143458
0.446744
-0.303286
0.025317
-0.00855444
-0.0167625
0.288599
0.261926
0.258274
0.167699
-0.425973
-0.0465129
0.256521
0.369027
-0.605519
-0.522418
0.0245683
0.49785
0.0122687
0.275863
-0.288131
0.252443
0.038899
-0.00405402
0.0258508
0.0313761
0.0650252
-0.0964013
0.0220452
0.0873815
0.151665
0.187293
0.365295
0.301632
0.101629
-0.51702
0.296052
0.0714309
-0.0600695
0.11703
0.0116967
0.179159
-0.190856
0.418908
0.208234
0.401748
-0.318778
-0.0829706
0.0820471
-0.336381
0.254334
0.0151948
-0.00354628
0.351115
-0.625599
0.515104
0.0332735
-0.548378
0.0220171
-0.108831
0.0266343
-0.0230136
-0.00362066
-0.118247
-0.170689
-0.296545
0.451673
-0.252767
0.00621887
-0.400994
-0.351767
-0.100072
0.451839
-0.107519
0.58816
-0.394568
0.148405
-0.431231
0.3667
0.1385
-0.0403092
-0.00182171
-0.175396
-0.404292
0.579689
0.112015
-0.375169
0.263154
-0.0965272
-0.0426139
0.139141
0.297498
0.151585
-0.225288
-0.379012
0.32017
0.343534
-0.663705
-0.484829
0.321153
0.262058
-0.127634
0.400377
0.175324
0.199809
0.12432
-0.645248
0.388355
0.256893
-0.215957
0.223584
-0.00101863
0.482451
-0.481433
-0.012399
0.0184047
-0.00600564
0.376539
-0.276443
0.0079822
-0.0257987
0.0178165
-0.58674
0.222788
0.0269776
0.355971
0.164642
-0.520614
0.505218
-0.420962
0.375767
-0.659514
-0.377726
0.607691
-0.229965
0.579276
-0.585146
0.177417
-0.412
0.298064
0.113935
-0.478503
0.143198
0.0264384
-0.0253174
-0.0283793
0.0363615
-0.100804
0.145846
-0.0450421
-0.117026
-0.351794
0.46882
0.401454
-0.0231405
0.0078464
-0.513437
-0.00898136
-0.173021
0.394003
0.0206291
0.0565161
-0.0623288
0.380141
-0.317812
0.0340899
0.0231738
-0.090684
0.423812
-0.340315
0.58559
0.1024
-0.0188769
0.474177
-0.00504533
-0.469132
-0.0751545
0.0356379
-0.0543652
0.0187273
-0.635372
0.3473
0.288072
0.571952
-0.394165
-0.177786
-0.02415
0.107548
-0.0833984
-0.0254349
0.0113273
0.467875
-0.143188
0.0475723
-0.122021
0.437702
0.0364753
-0.325264
0.0732055
0.252059
0.386756
0.187916
0.437175
-0.399279
0.286337
0.305269
-0.591606
0.0361548
0.290172
0.0863301
-0.569019
0.246703
-0.327933
0.0812302
-0.280831
0.272935
-0.361064
0.0239626
-0.0243857
0.0004231
0.534653
-0.377274
-0.157379
0.0196784
0.201881
0.251863
-0.0338409
-0.233248
0.421015
0.506946
-0.0145815
-0.011747
-0.194364
0.263975
0.0591843
-0.323159
-0.069843
0.422223
-0.140568
-0.430951
0.571519
-0.221636
0.536288
-0.314652
-0.0975327
0.0183472
0.014189
-0.0822413
0.0239307
-0.108038
-0.300031
0.344602
0.189568
0.20223
0.391806
-0.594036
-0.249833
0.694198
0.109321
0.32364
0.0572511
0.447967
-0.00199107
-0.0223243
0.0243154
0.0177137
-0.269876
0.381891
0.344447
-0.0364103
-0.283468
0.319878
0.0138835
0.0153543
-0.0292378
-0.0179321
-0.369706
-0.12905
0.498756
0.0430826
-0.0992494
0.404105
-0.146603
-0.257503
-0.0393895
0.00753975
-0.2765
0.255875
0.112075
-0.36795
-0.332095
0.528079
-0.0995449
0.203213
-0.0663445
-0.136869
-0.337486
0.0883648
0.249122
0.113967
0.510343
0.0268751
-0.0300998
0.00322475
-0.130246
-0.0256562
-0.231848
0.314878
-0.01306
0.349373
-0.0853979
-0.396046
0.598276
-0.0330386
-0.0269577
0.0599963
-0.163824
-0.0860794
-0.0687788
0.154858
0.200802
0.280267
-0.481069
0.508622
-0.19629
-0.425141
0.359847
0.0652938
0.250329
0.0794051
-0.00120403
0.0255428
-0.0243388
-0.429696
-0.142585
-0.101672
0.388622
-0.286951
-0.675204
0.277226
0.346758
-0.383168
-0.14563
0.45674
-0.311109
0.384835
-0.624682
0.239847
0.090833
-0.0467219
-0.523502
0.366393
0.157109
-0.156802
0.0223407
-0.0456615
-0.184031
0.579403
-0.395372
-0.15766
0.326745
-0.0363542
-0.290391
-0.0963035
0.393491
0.182609
-0.5761
-0.447114
0.0136533
0.0269258
-0.0281298
0.00262281
-0.240827
-0.562033
-0.551975
-0.0191689
0.571143
-0.232868
0.197621
0.12298
0.00337076
-0.0241306
0.356086
0.158314
-0.514401
-0.0895368
0.180029
-0.383271
-0.102282
-0.0212769
0.377023
0.15763
-0.19854
0.59514
-0.3966
-0.281352
0.35677
-0.0754173
-0.482099
0.534417
-0.0523181
-0.543154
0.359123
0.521642
-0.336537
-0.185105
-0.341138
-0.334066
0.034122
0.0734264
0.55323
-0.0131187
-0.540111
-0.11017
0.448915
0.179349
-0.0402205
0.0587657
0.264653
-0.323419
-0.154966
0.440727
-0.285761
-0.39914
0.598411
-0.114786
-0.339836
0.422941
-0.31362
0.248456
0.155369
-0.250692
-0.135301
-0.0398795
0.00566085
-0.0870988
-0.383996
-0.269736
0.470538
0.275155
0.00953107
-0.284686
0.155199
0.048014
0.238457
0.0883792
-0.356807
0.0963449
0.44028
-0.291875
-0.135076
0.572538
-0.437462
-0.163206
0.449543
0.325452
0.196191
-0.400777
-0.0890118
-0.457435
0.166596
-0.298541
-0.514712
0.154186
-0.235433
0.201592
0.396843
-0.570397
0.173554
-0.204801
0.272531
0.00262415
0.158236
-0.341392
0.183156
-0.493013
0.375987
0.341029
0.00356014
0.407994
0.0123343
0.17145
-0.518757
0.347306
-0.220181
0.40144
-0.411922
0.0104819
-0.0828984
0.3313
-0.084597
0.446647
-0.266618
-0.25857
-0.389244
0.601154
-0.0407164
0.0626459
0.446356
-0.509002
0.502463
-0.551021
-0.0991522
0.0928572
0.006295
-0.355317
0.522868
-0.177151
-0.345717
-0.530676
0.126792
0.403883
-0.0810782
-0.20587
-0.30876
0.51463
0.580136
-0.411852
0.0226583
0.315852
-0.564825
0.42975
-0.440003
-0.571372
-0.109825
-0.506262
0.180253
0.326008
-0.134733
0.115162
0.0195703
-0.193955
0.0193616
0.23239
0.0233059
0.00227456
-0.474784
-0.0499411
0.524725
-0.453502
-0.0285967
-0.187229
0.0338954
0.153333
0.291102
-0.179186
-0.327075
0.404706
-0.271336
-0.13337
0.104156
-0.374032
-0.52239
0.00130588
0.521084
0.311664
-0.313997
0.00233275
-0.01078
-0.0131334
0.12662
0.277485
-0.517371
0.0876754
0.382241
-0.278085
-0.018434
0.0834592
-0.497455
0.291586
-0.182025
0.210968
-0.431089
0.187011
0.335856
0.606639
-0.292511
-0.314128
-0.552202
0.0774174
0.00517193
-0.0295889
0.210847
-0.0062209
0.0781134
-0.0718925
0.0587208
0.109516
-0.168237
0.153974
0.15769
-0.0018577
-0.0816556
0.0835134
-0.137781
0.348748
0.0453612
-0.0219578
0.327829
0.27881
-0.0893931
0.440081
-0.498489
-0.140486
-0.0212687
-0.00142469
0.0416191
-0.334863
0.293244
0.32542
-0.266655
-0.252345
0.359079
-0.106734
-0.260991
-0.0847633
0.345754
-0.0427955
0.0347914
0.490885
-0.319435
0.413917
0.101873
-0.51579
0.408975
0.168035
-0.193353
-0.320474
0.513827
0.612877
-0.216034
0.011412
-0.0386623
-0.0959617
0.00358449
-0.434228
0.324057
0.0114051
0.129181
0.298161
-0.004498
-0.0353815
0.185196
0.338998
-0.524194
0.363235
0.43217
-0.388044
-0.0261039
-0.231914
0.35701
-0.25091
-0.0268467
-0.609993
0.233839
0.376155
0.0568934
-0.0784036
0.0215101
0.414867
0.198009
0.0490335
-0.0733648
-0.0145676
0.0602199
-0.0456524
-0.303968
-0.118145
0.221879
-0.584223
0.0981684
-0.224891
-0.0411179
0.266009
0.347784
0.201951
-0.549736
0.635796
0.313005
-0.487507
0.174502
0.0145798
-0.0674523
-0.465656
0.204665
-0.571235
0.430667
-0.279003
0.058575
-0.336258
0.277683
0.40488
-0.587429
0.182549
-0.17193
0.4921
0.00816198
0.419622
-0.128753
-0.267087
-0.104625
0.0142177
0.00936728
-0.023585
0.0275221
-0.163948
-0.321044
0.141911
0.179133
0.530842
-0.125962
0.21621
-0.0915911
-0.124619
-0.126804
0.170802
0.343742
-0.0602264
0.0406271
0.0195993
0.152705
0.365837
-0.518543
-0.0210825
-0.251936
0.273018
0.352413
-0.461958
0.109546
-0.354733
-0.212038
0.56677
0.539427
-0.209283
-0.330144
0.0251255
-0.00116291
-0.0944846
0.0250385
-0.00653417
-0.0185044
-0.189622
0.0258681
0.0673544
-0.0190043
-0.0483501
0.371726
0.207677
0.185983
-0.133551
-0.0524325
0.316406
-0.280252
-0.276022
0.402642
0.133903
0.0823073
-0.0579961
0.0823951
-0.024399
0.40474
-0.221027
0.197825
0.0368177
0.289928
-0.374441
-0.187269
0.56171
0.0304164
0.0471445
-0.0775609
0.186993
-0.390751
0.203758
0.495775
-0.18277
-0.0224381
0.020447
-0.369732
0.425066
-0.0553335
0.32378
-0.252883
0.0121221
0.0277363
0.230488
0.0469555
-0.00614596
-0.0197332
-0.482353
0.152722
0.329631
0.467298
-0.596023
-0.396782
-0.0359861
0.0216012
0.0143849
-0.147756
0.30173
-0.365163
0.0618072
-0.525448
-0.409749
-0.172595
0.597805
-0.21297
0.213314
-0.32425
0.110937
0.242718
-0.263801
-0.412889
-0.167625
0.580513
-0.207119
0.00841816
-0.37815
0.26676
-0.00998764
-0.256772
-0.0732192
0.0468927
-0.390883
0.11164
0.279243
-0.00189733
-0.0403352
0.0422326
-0.429106
0.425833
0.257324
-0.342088
-0.0191878
0.00241957
-0.120825
-0.329509
0.450334
-0.402495
-0.147532
0.550027
-0.0209872
-0.0392392
-0.0669302
0.0534935
0.0134368
0.0668518
-0.301176
0.234324
-0.263974
-0.201682
0.166269
0.364573
-0.11648
-0.229342
-0.0185379
-0.116195
-0.160244
0.17194
-0.0292122
0.00833978
0.25842
0.0203825
0.00465607
-0.0433989
-0.0136151
0.057014
-0.603374
0.413422
0.189953
0.00146099
0.250982
0.00566127
-0.24369
0.238029
0.0901266
-0.527785
0.102064
-0.0212719
0.263882
-0.24261
0.134181
0.417841
-0.0160927
0.397444
0.300487
0.104219
-0.296084
0.483077
-0.510805
0.143697
0.367108
0.210134
0.329293
-0.106526
-0.225292
0.331817
-0.0290586
-0.15817
0.296616
-0.442247
-0.606536
-0.268123
0.22161
-0.206368
-0.366895
0.573262
-0.541228
0.0994964
0.441732
-0.587689
0.383155
0.204534
-0.419654
0.311616
-0.432668
0.11389
-0.0484352
0.0422143
-0.15446
0.565726
0.0703027
-0.0721605
-0.513598
-0.0167224
-0.0192637
-0.0259218
0.0310937
0.0884583
-0.345797
0.141827
0.304917
-0.108398
0.387151
-0.278753
0.397917
0.199772
0.121326
-0.267928
-0.300939
0.017916
0.008511
-0.026427
-0.426352
-0.0791292
-0.380871
0.547714
-0.166843
0.357649
-0.199413
0.187518
-0.0387161
0.109005
-0.209693
0.0238555
-0.0249104
-0.016694
-0.313993
0.618341
-0.60559
0.198441
0.407149
0.188986
0.147583
-0.443248
0.116834
0.326414
-0.325773
0.0117766
0.0257027
-0.0572836
-0.312725
0.2484
0.0643248
-0.500125
0.284459
-0.478572
0.194113
-0.520583
0.0365901
-0.182862
-0.0220743
0.204936
-0.0982964
-0.000855869
-0.192344
-0.1287
-0.265838
0.0944627
-0.401897
0.307435
0.165981
-0.57887
-0.511432
0.145919
-0.132925
-0.29272
0.425645
-0.0365283
0.0198058
-0.454276
0.111554
0.383623
0.214182
-0.0489127
-0.181429
0.327154
-0.145724
0.00684627
-0.398941
-0.0337267
-0.371427
-0.171727
0.431765
-0.178446
-0.229659
0.418126
-0.188466
0.327004
-0.313751
0.239184
0.0745677
0.197159
0.0636229
-0.0419269
0.0320108
0.00991614
-0.472178
0.540975
-0.0687972
-0.0591371
0.0381499
0.219806
-0.0226469
0.198716
-0.57812
0.379404
-0.11246
-0.0316494
0.0688896
-0.0372402
-0.294639
-0.0885263
0.0305302
0.327559
-0.471925
0.144366
0.0522316
-0.056912
0.00468047
0.0871849
-0.134029
0.0468442
-0.0163257
0.286267
-0.419192
-0.29917
0.117741
-0.320646
-0.159533
-0.111681
0.0145941
0.00381054
0.0593078
0.320314
-0.231949
-0.0358489
-0.0232881
0.0386453
0.277761
-0.0466266
-0.218209
0.264836
-0.00241947
0.0289052
-0.0264857
-0.187414
-0.382983
-0.38267
0.352843
-0.285968
-0.0668751
0.03199
0.0520424
0.0244334
-0.0764758
0.0543792
0.0129752
-0.151244
-0.0233202
-0.00314714
0.0264673
0.28057
-0.388967
0.0579787
-0.0251664
0.301029
-0.00175914
-0.42813
-0.177459
-0.0363588
0.276183
-0.239824
-0.0318383
0.0622547
0.207013
-0.12861
-0.0784036
0.0192308
-0.0452759
-0.0850248
-0.239567
-0.388974
-0.254966
0.384273
-0.129308
0.0271924
-0.00343428
-0.0331215
0.102834
0.301661
-0.404495
0.0770677
-0.2069
0.598101
0.237447
0.182175
-0.0232268
0.442425
-0.419198
-0.549465
0.565483
-0.0160189
-0.333532
0.101619
0.204205
-0.00489598
0.275286
0.101254
0.038561
0.279526
-0.0306488
-0.0237164
0.500547
-0.329745
0.0668312
0.193617
-0.571343
-0.170615
0.575844
-0.152464
0.177552
-0.0250877
-0.0178603
-0.018668
-0.484039
0.304852
0.0212867
0.211548
0.338422
0.468767
-0.494735
-0.0137546
-0.423609
-0.612323
0.242925
0.369398
-0.0980274
0.120073
0.161465
0.41089
-0.572355
-0.0166628
-0.0617408
-0.0607312
0.146378
0.355432
-0.50181
-0.318877
-0.316495
-0.0243921
0.0159071
0.00848501
-0.0102623
-0.0128782
-0.0257397
0.329078
-0.0262602
-0.302818
-0.39269
-0.219633
-0.152198
-0.0433202
0.195518
0.38421
-0.315899
0.0320994
0.597167
0.335744
0.134185
-0.469929
-0.0560465
-0.527543
0.117793
0.45022
-0.187142
-0.263078
0.280673
0.0929479
-0.175862
0.574401
-0.398539
0.109624
0.325246
-0.43487
0.161952
-0.542824
0.267425
-0.356818
0.0451962
-0.0367178
-0.00847847
0.649897
-0.374356
-0.39822
-0.166486
0.00883268
0.124807
-0.0906853
-0.0541804
0.318834
0.100664
0.302964
-0.403628
0.0680662
-0.0826337
0.565892