/*--------------------------------*- C++ -*----------------------------------*\
| =========                 |                                                 |
| \\      /  F ield         | OpenFOAM: The Open Source CFD Toolbox           |
|  \\    /   O peration     | Version:  v2012                                 |
|   \\  /    A nd           | Website:  www.openfoam.com                      |
|    \\/     M anipulation  |                                                 |
\*---------------------------------------------------------------------------*/
FoamFile
{
    version     2.0;
    format      ascii;
    class       volVectorField;
    location    "600";
    object      U;
}
// * * * * * * * * * * * * * * * * * * * * * * * * * * * * * * * * * * * * * //

dimensions      [0 1 -1 0 0 0 0];


internalField   nonuniform List<vector> 
13308
(
(1.0035 -0.00629363 0)
(0.221231 -0.438052 2.698e-19)
(-0.331503 0.0873834 -4.62367e-20)
(1.00078 -0.000196593 -1.43845e-21)
(1.17751 0.098251 -1.22884e-20)
(1.00355 -0.000807676 -2.18116e-22)
(1.14322 0.092987 -3.90627e-20)
(1.11524 0.036727 0)
(1.13635 0.10794 0)
(0.778335 0.0535842 -6.98537e-20)
(0.47284 -0.228139 0)
(0.595601 0.25287 -6.71741e-20)
(1.00337 -0.000822678 0)
(1.02952 0.00501303 0)
(1.00445 -0.000684678 0)
(-0.308895 0.191427 0)
(1.02777 0.0111782 4.78052e-23)
(0.305579 -0.532738 1.2162e-19)
(0.912482 -0.389117 -2.06804e-20)
(1.10874 0.039753 1.86966e-20)
(1.03074 0.00829631 7.56282e-22)
(-0.294624 0.553208 5.03361e-20)
(0.14382 0.397664 7.39738e-20)
(1.14921 0.0758622 4.86147e-20)
(-0.30868 0.198476 0)
(-0.063162 0.217406 -1.20757e-19)
(1.15236 0.105222 -2.08849e-20)
(0.469558 -0.26864 3.58993e-21)
(1.15522 0.104725 -2.36388e-20)
(1.15057 0.111294 0)
(0.0733463 -0.657718 3.38539e-19)
(1.14337 0.10585 0)
(0.105464 0.405019 0)
(1.16775 0.1319 0)
(0.751325 0.31337 3.26331e-21)
(1.02847 0.00852269 -3.42189e-21)
(1.14236 0.0945007 3.29137e-20)
(0.210904 0.385903 -2.52061e-20)
(1.09873 0.0648558 -1.5903e-22)
(-0.339057 0.118904 2.40324e-20)
(1.04864 0.00272987 0)
(1.11925 0.017661 1.95429e-20)
(0.680423 0.394632 2.70025e-21)
(1.01935 0.0144649 -4.7728e-21)
(1.09304 0.0723898 0)
(1.0502 0.139248 0)
(1.00476 -0.000603999 3.50372e-24)
(1.00091 -0.000234482 7.63579e-23)
(1.01215 -0.0189263 1.13239e-21)
(-0.360961 0.0386418 5.07002e-20)
(1.01842 0.00321344 6.39395e-22)
(1.02561 0.041231 0)
(-0.247338 0.654848 2.73255e-19)
(0.936898 0.22368 2.86765e-20)
(-0.461706 -0.0391032 -1.66878e-19)
(-0.522451 -0.0804068 -4.52769e-20)
(1.01895 0.0129343 -2.16654e-21)
(1.02174 0.0395172 -1.19159e-21)
(1.12701 0.074098 1.82331e-20)
(1.1236 0.0717892 0)
(0.966941 -0.168198 1.45786e-20)
(0.330915 0.333354 -1.68582e-19)
(1.02308 0.0395894 1.96052e-21)
(1.06497 0.0113736 0)
(0.993395 0.000731693 1.04019e-21)
(0.0672883 0.415157 -2.52332e-20)
(1.00605 0.00423812 -2.72767e-22)
(1.04622 0.113723 0)
(0.99178 -0.000823251 -3.80937e-21)
(1.2262 0.162871 0)
(0.0300955 -1.00744 0)
(1.09542 0.0675444 9.94152e-21)
(1.01856 -0.00215381 -6.20347e-23)
(1.14648 0.108064 7.51673e-21)
(1.00769 0.0458446 6.07799e-21)
(1.01835 0.0203733 1.72542e-21)
(1.00283 -0.00371913 0)
(-0.534699 -0.0946941 2.74348e-20)
(1.02756 0.0293219 -3.05079e-21)
(0.988883 0.0232235 1.95365e-21)
(1.05026 0.057178 3.99228e-21)
(1.00468 -0.0048578 0)
(1.01803 0.0201339 -1.2804e-21)
(1.13829 0.0771096 0)
(1.09594 0.0303862 0)
(1.11823 0.033385 0)
(-0.385837 -0.0192293 1.07065e-20)
(0.440902 -0.433143 7.53125e-21)
(1.0406 -0.211124 3.84478e-21)
(1.19436 0.0806459 -1.85971e-20)
(1.0905 0.0437026 -3.23979e-20)
(1.00619 0.00628835 0)
(1.14892 0.104047 1.63328e-20)
(1.03593 0.00747653 -3.47788e-21)
(1.02067 0.00312908 5.48875e-21)
(1.0088 -0.0102646 -3.84235e-21)
(1.12371 0.0182063 5.15996e-22)
(0.985841 0.0147422 -4.55822e-21)
(-0.0484621 -0.821306 -1.40534e-20)
(1.2134 0.161762 0)
(1.0874 0.041615 2.35752e-22)
(1.05136 0.00163523 1.07017e-20)
(0.997047 0.00177584 -7.39191e-22)
(1.03977 0.00479858 0)
(0.636037 0.0507228 5.16657e-21)
(0.108536 -0.595051 1.8779e-20)
(-0.313456 0.0977426 4.85109e-20)
(0.992241 -0.000524099 3.2994e-21)
(-0.184679 0.125688 0)
(-0.0350796 0.224126 1.24962e-19)
(1.14236 0.0356725 -2.58989e-20)
(1.30618 0.179675 -3.00306e-20)
(1.01309 -0.0159999 3.30854e-21)
(1.02729 0.0273958 2.88305e-21)
(1.01083 -0.0174333 -3.76549e-21)
(0.90689 -0.412678 2.87583e-20)
(1.05426 0.148274 -3.1009e-20)
(0.732689 0.407887 1.08164e-20)
(1.15118 0.104568 5.93837e-20)
(1.01789 0.0313682 0)
(1.1591 0.0929343 -1.99307e-20)
(1.04857 0.0139113 0)
(0.998077 0.0012589 4.63426e-21)
(1.0397 0.032605 -3.85342e-22)
(0.880349 0.0848644 2.55529e-21)
(1.10566 -0.101647 0)
(1.11941 0.00664893 1.13616e-22)
(1.11461 0.0217008 -1.00348e-22)
(1.01761 -0.00535899 3.59985e-23)
(-0.364777 0.094128 0)
(-0.110906 -0.805911 0)
(1.01394 -0.0125232 -5.19595e-21)
(1.06648 0.0118387 -1.33745e-20)
(1.00836 -0.0110521 1.89974e-21)
(1.13858 0.114535 -5.31803e-21)
(1.03454 0.0254898 -6.50673e-21)
(1.0083 0.00646127 0)
(0.900677 0.100188 0)
(0.879363 0.0203119 0)
(1.12511 0.0157705 2.13739e-20)
(-0.422102 -0.0593761 1.91369e-20)
(1.14149 0.0306817 0)
(1.05222 0.0170253 0)
(1.01922 -0.018961 0)
(1.11731 0.047755 3.66557e-20)
(0.965416 0.164157 -1.03359e-20)
(1.00864 0.00293048 0)
(1.21775 0.108994 -3.73767e-20)
(1.05203 0.0546433 -8.29788e-21)
(0.995983 -0.0269435 8.50506e-21)
(-0.387067 -0.00214111 -2.3837e-19)
(0.99775 0.00100606 0)
(0.676792 -0.165837 8.97659e-20)
(0.976867 -0.230726 2.5934e-20)
(0.921104 0.232009 0)
(0.903148 0.0126201 -1.05982e-20)
(0.989199 -0.000363028 2.40182e-21)
(0.997466 0.0012871 -6.51982e-21)
(1.04937 0.00248862 0)
(0.80044 -0.343299 0)
(0.73006 -0.0213897 9.44279e-20)
(1.02433 0.0423814 1.39043e-21)
(1.05081 0.015208 -4.12608e-21)
(0.400283 0.34191 1.47366e-19)
(0.909884 -0.0120186 1.07775e-20)
(1.09368 -0.0538449 0)
(-0.287627 0.54221 1.04475e-19)
(0.997099 0.00117811 -1.88593e-23)
(-0.19623 0.130216 -7.99388e-20)
(1.19198 0.0786464 4.91278e-20)
(1.14315 0.0289574 7.6033e-20)
(0.694055 0.473117 -4.11925e-20)
(0.997279 0.00074948 3.37214e-22)
(-0.396401 0.00647511 -2.80266e-20)
(-0.476854 -0.0523953 -1.81174e-21)
(-0.15685 0.395183 -1.43668e-19)
(-0.278033 0.536681 1.51512e-19)
(-0.346315 0.05582 2.50834e-20)
(0.998291 -0.046977 -6.39777e-21)
(0.988483 -0.000301236 4.19427e-21)
(0.682653 0.229684 -1.25796e-20)
(-0.261391 0.758941 -6.03765e-21)
(1.00385 0.00351495 -1.33219e-23)
(0.822934 0.0751742 2.2185e-21)
(0.972703 0.413909 0)
(0.995246 -0.0019528 1.99046e-21)
(-0.509076 -0.0750402 4.26574e-20)
(-0.0133339 -0.647103 0)
(1.15331 0.107113 0)
(0.933436 0.323796 0)
(0.952746 0.325438 0)
(1.0862 0.0324822 0)
(1.11636 0.0492525 -1.62933e-20)
(0.57201 0.224222 -7.62229e-20)
(1.12115 0.0457851 -3.82882e-20)
(-0.136355 0.381834 1.17271e-19)
(1.14217 0.0256477 -5.62815e-20)
(1.01392 0.00755388 2.07292e-22)
(0.746327 -0.115382 -8.19702e-21)
(1.11813 0.0197813 2.4072e-20)
(-0.28483 0.243271 -3.66395e-20)
(-0.244624 0.686698 -4.0686e-19)
(0.33486 0.0354458 2.09911e-20)
(1.14128 0.120183 1.59604e-21)
(-0.350273 0.11748 0)
(1.08054 0.178805 -2.32422e-20)
(-0.353839 0.116903 2.51417e-20)
(0.984378 0.0711041 -2.69457e-21)
(0.921162 0.36633 4.85297e-22)
(-0.485245 -0.0522934 9.68485e-20)
(0.901901 0.361913 6.37092e-22)
(1.08684 0.258815 3.90921e-21)
(1.2339 0.0991021 1.41658e-20)
(-0.407074 -0.0543042 5.77731e-20)
(0.114377 0.182603 2.38752e-19)
(1.04744 0.0238092 0)
(0.989266 -0.000352865 -3.33004e-21)
(0.467648 -0.404575 1.42063e-20)
(0.806092 -0.335445 7.36851e-21)
(0.989864 0.0363402 -4.58771e-21)
(0.510319 -0.346516 9.03394e-21)
(1.00011 0.0015031 4.97827e-22)
(0.925373 -0.00608759 0)
(1.0069 -0.00422221 -1.24111e-22)
(1.0526 0.01653 0)
(-0.259147 0.346929 -9.92136e-20)
(0.983618 0.128454 0)
(0.678121 0.0340935 -1.0372e-20)
(-0.526935 -0.0892871 8.8533e-22)
(1.08819 0.199914 2.40034e-20)
(-0.38412 0.0618192 -2.52919e-20)
(1.04739 0.0382953 -4.193e-23)
(-0.349278 0.0665845 -1.1578e-20)
(1.09528 0.0250655 0)
(0.999892 -0.00833949 0)
(1.23668 0.089931 -6.97667e-20)
(-0.704299 0.703121 0)
(0.755705 0.175132 0)
(0.918526 0.220644 -1.06992e-20)
(1.04899 0.0450422 -3.32504e-21)
(1.13903 0.0779873 0)
(0.998597 -0.00454658 0)
(1.03316 0.00592087 -7.44357e-21)
(1.00384 -0.00237079 5.66082e-23)
(0.659216 0.0564024 4.66707e-21)
(0.921404 0.350975 -1.02794e-20)
(1.10027 0.264921 -5.3684e-21)
(1.26476 0.06141 1.74655e-20)
(1.00723 -0.00451339 0)
(1.00942 0.409214 1.03132e-20)
(0.13325 0.181003 -2.32312e-19)
(0.131142 0.385628 -7.2895e-20)
(1.04995 0.00125393 -3.32685e-21)
(0.29036 0.316563 2.87861e-21)
(0.630247 -0.167781 -5.66283e-21)
(1.04885 0.0277821 -2.23165e-21)
(0.625505 -0.234611 -3.49291e-20)
(1.00028 0.00144339 -7.12644e-23)
(0.804345 0.739252 0)
(-0.531344 -0.086571 9.96728e-20)
(1.15022 0.111828 0)
(1.26147 0.0716328 0)
(1.23483 0.0851389 0)
(1.00734 0.0187873 -5.64593e-21)
(0.930953 -0.0273719 1.08994e-20)
(1.01712 -0.00488099 3.87904e-22)
(0.562496 0.129674 8.26123e-20)
(1.06441 0.00981749 0)
(0.538545 -0.326691 0)
(-0.262852 0.372197 0)
(1.0961 0.301287 7.44333e-21)
(1.16161 0.0971033 6.8723e-20)
(1.02897 0.00454263 -4.66864e-21)
(0.882786 0.0119288 0)
(1.03251 0.0312309 -5.20545e-22)
(0.993086 0.00067995 -4.96878e-22)
(1.01088 -0.0139433 1.17931e-21)
(0.647193 -0.0492959 9.87624e-21)
(1.1837 0.0940022 -3.06495e-20)
(0.938759 0.0937504 1.37752e-20)
(-0.118084 0.385633 5.12303e-20)
(1.04319 0.00240033 1.47758e-20)
(1.06389 -0.173761 -3.85869e-21)
(1.04895 0.0290197 1.39459e-21)
(-0.101134 -0.734823 0)
(1.10871 0.45892 9.77385e-21)
(1.00682 0.0182166 2.88242e-21)
(1.00251 -0.00490773 0)
(0.925218 0.137926 1.15437e-22)
(1.07488 0.598853 3.46581e-20)
(1.14574 0.103858 1.63153e-20)
(1.00491 0.00968139 -1.77229e-21)
(1.4063 0.293457 7.82288e-20)
(-0.268451 0.722212 2.06694e-20)
(1.00179 0.00154006 0)
(0.672719 0.262929 1.39448e-21)
(-0.516594 -0.0994939 1.07666e-19)
(1.14673 0.117325 1.16489e-21)
(0.93114 0.107293 1.52711e-20)
(-0.264877 0.342071 2.15103e-20)
(0.0951283 0.396257 -3.61545e-20)
(0.995741 0.0390911 8.59917e-21)
(-0.0786002 0.197676 1.30517e-19)
(1.14215 -0.0174045 -7.82584e-22)
(1.111 -0.0215068 9.66753e-22)
(1.00817 -0.0120352 2.77904e-21)
(1.13975 0.100756 2.13284e-20)
(-0.391862 0.00292724 -5.5711e-20)
(1.25844 0.0594046 -1.26167e-20)
(0.995286 -0.00196372 0)
(0.693122 0.384466 2.35049e-21)
(0.121269 0.556054 -9.28099e-20)
(1.1478 0.102702 -3.64083e-20)
(0.344116 -0.0166342 3.27719e-21)
(0.741555 0.348602 0)
(-0.498497 -0.0630304 0)
(0.9889 8.65834e-05 1.70848e-21)
(1.00173 0.00155258 0)
(1.04399 0.00322351 1.35727e-20)
(1.41181 0.287941 3.15563e-20)
(1.04982 0.0014183 1.81594e-20)
(1.00403 -0.00455549 0)
(-0.375692 0.0827013 0)
(1.00127 -0.00321316 0)
(-0.0848553 0.258548 -4.83637e-20)
(1.01784 -0.0185431 1.94723e-21)
(1.04827 0.0351168 -4.18016e-22)
(1.07968 0.0188156 0)
(1.09593 0.0693859 -1.11719e-20)
(1.0805 -0.0636707 2.42881e-21)
(0.0482457 0.363461 8.91871e-20)
(1.01594 0.00463737 -2.40164e-21)
(1.24042 0.0565515 4.44761e-22)
(1.01271 0.0170603 0)
(0.995993 -0.000603367 -3.50384e-21)
(0.77981 0.00422988 -6.34989e-21)
(-0.270325 0.310478 0)
(0.99909 0.00141433 2.45386e-21)
(0.983515 0.115385 0)
(1.29485 0.146896 0)
(1.17541 0.0799427 2.44048e-20)
(1.0787 0.0161752 0)
(1.02874 0.0171563 9.18786e-21)
(1.16221 0.132462 -1.60206e-20)
(0.772107 0.0861894 0)
(1.06081 0.609775 4.61166e-20)
(0.94854 0.153133 -8.7574e-21)
(0.962493 0.156167 3.87572e-21)
(1.04571 4.795e-05 0)
(1.02212 0.00918363 4.60826e-21)
(1.23571 0.10385 -1.56746e-20)
(-0.53893 0.0315001 5.30716e-20)
(0.895285 0.713663 0)
(1.00347 0.00781368 0)
(1.01026 -0.0205789 -2.84279e-21)
(1.02079 0.0194828 9.77782e-22)
(-0.203762 1.03395 0)
(1.01172 -0.0155152 0)
(0.943912 0.147022 8.49387e-21)
(0.558257 -0.193109 -2.54796e-21)
(0.699353 0.431928 1.00728e-21)
(1.13914 0.112737 5.58531e-21)
(1.18974 0.0810098 0)
(1.09017 0.292721 -6.26039e-21)
(-0.338637 0.738572 -8.02895e-20)
(0.139155 0.251206 -3.23232e-20)
(1.02916 0.0161689 -8.75378e-21)
(1.00458 -0.00241125 -1.2104e-22)
(1.02031 0.037588 -1.01707e-21)
(1.19431 0.0433784 1.46368e-20)
(-0.274105 0.260397 0)
(0.0589786 0.604412 -6.97454e-20)
(1.23801 0.0678062 0)
(1.01792 0.00271914 5.43986e-21)
(1.01974 0.0371173 9.67903e-22)
(0.947273 0.0704094 0)
(0.444687 0.356846 -2.97275e-19)
(0.155805 0.340709 -2.1749e-20)
(1.05172 0.0594777 -4.03355e-21)
(0.647061 -0.127003 1.25466e-20)
(1.08366 0.0604241 5.66012e-21)
(1.01304 0.0172945 -2.1581e-22)
(0.840063 -0.324118 3.75414e-21)
(1.19318 0.099397 -5.50923e-20)
(1.01146 -0.012967 -4.64364e-21)
(-0.322148 0.748162 0)
(1.29929 0.162021 2.62305e-20)
(1.11934 0.0841078 0)
(1.00531 0.0044392 2.6753e-22)
(0.870046 0.158318 7.72222e-20)
(1.02385 0.0101152 -2.62548e-21)
(0.992875 -0.00349605 -4.8277e-21)
(1.11858 -0.0660739 -7.54934e-23)
(-0.278462 0.284626 4.62419e-20)
(0.75986 0.397788 1.21738e-20)
(1.14426 0.119342 -4.36406e-21)
(0.928209 0.429237 2.50076e-21)
(1.00262 0.00764067 0)
(0.771349 0.0797822 0)
(1.09736 0.0220832 -4.01549e-20)
(0.838034 -0.332469 0)
(0.98845 -0.000262207 -5.68469e-21)
(1.20404 0.14933 0)
(0.118161 0.254899 3.15615e-20)
(1.01216 -0.00669244 -2.13807e-23)
(0.738151 0.288287 -4.19869e-21)
(0.989444 -0.000362306 3.75402e-21)
(0.997335 0.000838323 -4.70591e-21)
(-0.128601 -0.737457 -5.81364e-20)
(0.684252 0.000631478 -4.59039e-21)
(1.0242 0.00258925 -3.53824e-21)
(1.22941 0.0760649 -2.32355e-20)
(0.984426 0.27021 0)
(1.00236 0.00692872 -6.55438e-22)
(1.0074 0.00838959 2.36821e-22)
(0.8212 0.362403 -6.78371e-21)
(1.08023 0.060613 8.30615e-23)
(1.00704 0.00844512 0)
(1.12184 0.0802536 1.70109e-20)
(0.938705 0.0849712 -4.77775e-21)
(0.927693 0.140656 -5.59063e-21)
(1.01895 0.0351753 0)
(1.17199 0.0733547 -4.2272e-20)
(1.06033 0.057149 0)
(1.00733 -0.0147388 -4.95117e-21)
(-0.298708 0.12128 -9.62936e-20)
(1.30108 0.158049 0)
(1.11933 0.0437204 -2.25546e-20)
(0.904225 0.192783 -3.07461e-20)
(0.830266 -0.27877 -3.43279e-21)
(1.12735 0.504334 0)
(0.994701 -0.000795145 -4.55757e-21)
(1.12721 -0.0438677 -1.77551e-21)
(0.110807 -0.0715327 -1.63216e-22)
(1.00467 0.0142778 4.06288e-21)
(1.0006 -0.0026498 1.25407e-21)
(0.52803 0.365669 1.45703e-19)
(1.00709 0.00643063 6.9575e-22)
(1.14537 0.101072 -2.61909e-20)
(-0.352976 0.0977882 -5.70894e-20)
(-0.3534 -0.0724605 -1.17981e-19)
(-0.330291 0.539493 0)
(-0.338221 0.0356804 1.02675e-19)
(1.01872 0.0346459 -2.09341e-22)
(-0.579275 0.859793 3.844e-19)
(1.18866 0.0431109 -2.95244e-20)
(0.657035 0.452208 -6.12724e-21)
(-0.262806 0.650717 0)
(1.00424 0.0045873 -1.11348e-23)
(1.0061 0.403245 0)
(1.00395 -0.00792403 0)
(-0.0161416 -0.332576 4.04201e-21)
(0.975017 0.26108 3.42544e-22)
(-0.774462 0.138297 0)
(1.15035 0.0755534 -3.13975e-20)
(1.14044 0.0996393 1.92691e-20)
(1.20001 0.0827414 1.91221e-20)
(0.954567 0.288491 1.02395e-21)
(0.27193 0.390068 0)
(1.19342 0.148817 0)
(0.845425 -0.332248 0)
(-0.71011 0.636793 2.35637e-20)
(1.00809 0.00341869 -2.14356e-21)
(0.71715 -0.0648127 0)
(1.0185 0.0289598 0)
(-0.542789 -0.113102 1.51567e-19)
(0.999128 0.00143883 -3.5685e-21)
(1.05999 0.0570777 0)
(1.02191 0.0244213 -4.73468e-21)
(-0.26215 0.37699 7.43787e-20)
(1.02115 0.0967581 1.9509e-20)
(1.07661 0.0138283 0)
(0.345793 0.384674 3.57279e-20)
(1.07139 0.0493897 -1.31253e-20)
(0.964189 0.312221 -1.99316e-21)
(0.150898 0.316015 2.16693e-20)
(0.963901 -0.0326322 -9.88761e-21)
(1.13788 0.0389127 0)
(0.812636 0.132911 -1.28866e-21)
(1.0274 0.016327 0)
(0.976313 0.00991401 3.72088e-23)
(1.04657 0.000744825 0)
(0.96422 0.0165756 0)
(1.00528 0.0150454 -6.47872e-21)
(1.11752 0.200039 -1.22614e-20)
(1.06305 0.056057 0)
(1.0096 -0.0156975 0)
(0.795531 0.251661 4.88898e-22)
(1.14181 0.0366898 2.69903e-20)
(1.00855 0.00739641 -1.01958e-21)
(1.00706 0.0098506 -1.34859e-22)
(1.14026 0.100898 -5.02523e-22)
(0.801555 0.233974 -5.52886e-22)
(1.00226 -0.00354824 2.55201e-23)
(1.01277 -0.00701979 6.20903e-23)
(1.06582 0.0544738 -1.51733e-21)
(1.00437 -0.000500357 0)
(0.933771 0.328273 4.72208e-20)
(0.135916 -0.955253 1.63101e-19)
(0.0533452 -0.322302 -3.49e-21)
(1.11059 0.360338 -1.57907e-20)
(-0.545985 -0.11265 0)
(0.6932 0.362697 1.79675e-21)
(0.556728 0.0968758 -5.56433e-21)
(1.11754 0.0778613 0)
(1.00033 0.011308 3.13875e-21)
(1.14333 0.247315 1.15011e-21)
(-0.3395 0.0249995 -1.26012e-19)
(0.98937 0.000285772 -3.18201e-21)
(-0.178152 0.16875 -1.83009e-20)
(0.975609 -0.0324014 0)
(1.12898 -0.0689706 7.11638e-21)
(1.0917 0.0582904 -2.04113e-20)
(1.00284 0.00136922 0)
(1.14506 0.0791699 2.27544e-22)
(1.22101 0.118292 0)
(1.20068 0.141469 6.25082e-22)
(1.03971 0.00254249 0)
(1.10957 -0.0102419 -2.53197e-21)
(0.127992 0.301012 -2.52842e-20)
(0.86793 0.405346 0)
(0.909174 0.711697 0)
(0.979934 0.414567 0)
(0.994177 -0.00843585 4.0606e-21)
(0.989337 -0.000580206 0)
(1.39288 0.309722 -2.05159e-20)
(1.02694 0.0175375 1.88639e-21)
(1 -0.00241517 -1.2639e-21)
(0.836133 0.292016 -2.74354e-21)
(1.08402 -0.129125 0)
(1.11525 0.195923 3.35975e-21)
(1.21585 0.120555 -4.64437e-20)
(0.386909 0.303966 -1.06475e-19)
(-0.293381 0.577911 2.05047e-19)
(0.994717 -0.00195919 -8.08793e-22)
(0.745608 0.0161472 3.25745e-21)
(0.894909 -0.269614 3.49397e-22)
(-0.211667 1.03323 9.09627e-20)
(1.00314 -0.00389996 1.69598e-21)
(0.995049 0.0806278 -1.50227e-21)
(1.02084 0.0144019 2.56083e-21)
(1.15931 0.000951405 5.18656e-22)
(1.05115 0.00171922 4.02509e-21)
(0.630673 0.0800685 -9.65966e-21)
(1.08887 0.0597263 2.7796e-20)
(-0.125488 0.278517 -9.21359e-20)
(0.190988 -0.959872 -8.83165e-21)
(0.645524 0.435052 5.12595e-20)
(1.00736 0.006482 -7.30837e-22)
(1.00279 0.0140847 -8.15881e-21)
(0.376818 0.313841 0)
(0.618889 0.380142 -3.18738e-20)
(-0.0593366 -0.945746 0)
(1.07694 -0.120142 0)
(-0.020587 0.245555 -1.27529e-19)
(0.799226 0.124903 4.47498e-22)
(-0.327072 0.523278 3.77126e-20)
(-0.517313 -0.0961493 -8.9928e-20)
(0.118029 0.248527 0)
(-0.375104 0.520794 -4.19685e-20)
(0.999784 0.0420658 0)
(1.05143 0.00137755 -7.67344e-21)
(1.00336 0.0151286 0)
(0.754362 0.204178 0)
(1.02517 0.0270076 2.88474e-21)
(1.37208 0.312806 5.82851e-20)
(-0.506009 -0.110596 1.02368e-19)
(1.07919 0.0135266 0)
(0.987303 0.385607 8.99203e-20)
(1.05652 0.372836 2.46201e-20)
(0.0865669 -1.03108 -8.02241e-20)
(1.01634 0.0130954 0)
(1.02389 0.0263414 -2.93497e-21)
(1.01736 0.0131683 0)
(0.433044 -0.00949823 9.1909e-21)
(1.14425 0.102067 4.95989e-20)
(1.00375 0.00852414 -5.845e-22)
(1.09477 0.0223133 1.333e-20)
(-0.0712455 -0.17713 1.01576e-21)
(0.996677 0.00173858 0)
(-0.267351 0.339371 4.71726e-21)
(0.945468 -0.0216673 9.25241e-21)
(1.02276 0.0585599 8.10583e-22)
(1.13514 0.143992 1.21344e-20)
(1.06265 0.00961401 0)
(1.02201 0.0144089 0)
(1.05091 0.0180353 0)
(1.0998 0.127716 -7.93966e-21)
(1.125 0.0765216 -2.21249e-20)
(0.989546 -0.000335388 -6.97121e-21)
(0.566122 -0.106468 -2.34018e-20)
(1.00131 0.00608011 -8.03632e-22)
(1.01597 -0.00770852 6.79423e-24)
(1.007 -0.00427882 0)
(1.00606 0.00210366 0)
(-0.194694 0.0313021 0)
(0.129468 0.325961 1.54737e-21)
(1.00554 0.00987684 5.76293e-22)
(-0.499419 -0.0663068 0)
(1.11829 0.024303 -1.04678e-20)
(1.00595 0.00212629 0)
(1.00656 0.0098259 0)
(0.991421 0.0586157 7.42819e-21)
(1.00077 0.038411 -1.06655e-20)
(1.07685 0.063165 0)
(1.19062 0.0914427 7.38155e-20)
(1.00405 0.00954999 1.57719e-21)
(0.427488 -0.311875 -2.72446e-22)
(1.0028 0.0406313 -3.33939e-21)
(0.0134392 0.630489 3.68144e-19)
(-0.155209 0.800067 2.50271e-19)
(1.19687 0.0765563 -5.91641e-20)
(1.17595 0.0971955 7.65208e-20)
(0.990473 -0.000443286 -3.65302e-21)
(-0.791423 0.130557 0)
(0.474152 -0.0335135 -3.21563e-20)
(1.14031 0.100215 0)
(0.991867 -0.00084452 5.6907e-21)
(0.684669 -0.121702 -2.99197e-21)
(0.772256 -0.0603217 -1.07009e-20)
(1.12844 0.167339 8.21143e-21)
(1.05095 0.0188872 0)
(1.00302 -0.0121404 -3.28829e-21)
(0.644493 -0.072188 1.86504e-20)
(0.953028 -0.0365795 9.0457e-21)
(-0.560734 -0.0941275 7.26802e-20)
(1.0506 0.0527554 1.2224e-20)
(1.00942 0.00337234 2.29767e-21)
(1.15061 0.132438 0)
(-0.558604 -0.0947461 1.3932e-19)
(1.04175 0.0508189 2.04863e-21)
(-0.373647 0.500627 0)
(0.824907 0.0866233 -2.58344e-21)
(-0.368234 0.0673276 -2.44923e-20)
(0.619424 0.338128 9.33694e-20)
(0.821593 0.301966 0)
(1.09385 0.128701 7.45892e-21)
(1.09114 0.066899 -1.05101e-20)
(0.028677 0.731241 0)
(-0.192325 0.152501 2.48238e-21)
(1.02078 0.0015798 -3.85298e-21)
(1.05055 0.0248252 5.35513e-21)
(-0.506969 -0.100835 0)
(0.689513 0.291187 -8.83679e-22)
(1.22706 0.152295 7.67846e-20)
(0.913493 -0.287709 3.62568e-22)
(1.15431 0.0580413 -7.35301e-20)
(1.09803 0.0188057 -6.68224e-21)
(1.00629 -0.00364282 0)
(0.948589 0.436684 3.36355e-21)
(1.16311 -0.0110817 0)
(0.997062 0.00166651 0)
(-0.301819 0.592233 -1.08377e-19)
(1.08628 0.0483786 -1.80683e-20)
(-0.142322 -0.151664 0)
(1.06006 0.00988726 0)
(1.01504 0.0114776 0)
(1.06341 0.0196451 0)
(-0.682021 0.611614 0)
(1.1572 0.122028 0)
(0.82613 0.294203 4.09323e-22)
(0.53302 -0.231895 7.23218e-20)
(1.13107 0.147213 -9.1275e-21)
(1.03432 0.0933031 -2.11299e-20)
(1.04444 0.0477282 0)
(1.04183 0.0365983 0)
(-0.144066 0.757876 -1.27506e-19)
(0.997127 -0.000599235 2.35444e-21)
(-0.339593 0.127044 -2.4986e-20)
(-0.336698 -0.0654036 -1.17624e-19)
(0.82125 -0.114633 -8.24202e-22)
(1.00984 -0.011689 3.55468e-21)
(0.806211 -0.0623319 0)
(1.00353 -0.000588223 -2.51179e-22)
(1.00604 0.00547912 0)
(-0.191404 0.0953533 0)
(0.798736 -0.108287 2.29383e-21)
(1.04653 0.113359 1.81854e-20)
(1.02701 -0.0824609 7.10452e-22)
(0.968156 0.179008 0)
(1.14174 0.0746581 -2.3648e-20)
(1.09489 -0.0869105 -9.9476e-22)
(1.02177 0.0545503 -1.01959e-20)
(1.00617 -0.00353233 0)
(0.995055 0.0522526 0)
(0.99848 -0.000537008 1.6467e-21)
(-0.199777 0.0670975 -1.77216e-19)
(-0.200671 0.100929 0)
(1.07126 0.107956 2.86511e-21)
(1.17826 0.0398904 1.38647e-20)
(0.994384 -0.000529768 4.76382e-21)
(1.0945 0.012043 -2.11208e-20)
(1.01806 0.0513978 0)
(1.07181 0.162063 -4.15723e-20)
(1.13553 0.358744 -2.46676e-20)
(1.02263 0.0555038 7.64746e-22)
(1.00262 -0.00378537 2.22752e-21)
(1.00032 0.0102671 3.18782e-21)
(1.00228 -0.00385329 0)
(0.125688 -0.0310487 -6.4654e-21)
(1.01232 0.0171334 -1.4368e-21)
(0.608012 -0.174875 0)
(0.860622 -0.470945 5.1939e-21)
(1.15082 0.128912 -3.27644e-21)
(1.18133 0.0758001 5.46775e-20)
(1.01302 -0.0135002 1.93676e-21)
(0.575046 -0.236927 0)
(0.833673 0.103289 -3.64672e-21)
(0.280778 0.0305035 -1.12486e-19)
(1.01789 0.0323266 2.31938e-22)
(1.01503 0.00461886 0)
(1.02045 0.0146213 -7.64698e-23)
(-0.527831 -0.0734876 -3.27879e-19)
(1.03775 0.00284842 -1.26628e-21)
(1.31884 0.177483 1.143e-20)
(1.16093 0.0984073 0)
(1.01238 0.0173699 -1.09926e-21)
(0.994694 -0.00196246 9.87659e-22)
(1.05382 0.00599077 0)
(1.00156 0.00681001 7.40691e-22)
(1.01187 -0.0143842 -1.10182e-21)
(1.13615 0.0441507 0)
(0.990274 -0.00572904 0)
(0.898288 0.394944 -1.21449e-21)
(1.06266 0.0954426 -2.01358e-20)
(1.03106 0.00504236 0)
(1.13659 -0.0573552 -9.83959e-21)
(-0.0205834 0.926736 0)
(1.22002 0.158997 -1.24328e-19)
(0.18783 0.251111 -1.35562e-19)
(1.03043 -0.00255127 -2.60465e-21)
(1.08906 0.0454992 -6.70264e-21)
(1.03198 0.00265692 4.08786e-21)
(1.06959 0.0448869 -1.32362e-20)
(-0.370421 0.0605716 6.99271e-20)
(1.11371 0.0813498 -5.51663e-23)
(1.13762 0.382691 0)
(0.719416 -0.00777323 5.78091e-21)
(0.366528 -0.554365 0)
(1.14187 0.0210105 1.51164e-20)
(1.01782 0.0130116 4.33551e-21)
(-0.4457 -0.072131 -4.50779e-20)
(1.06551 0.0400682 1.35013e-20)
(0.12517 0.155422 0)
(1.03106 0.0312947 5.10407e-21)
(1.00585 0.0166355 0)
(1.01316 0.253644 0)
(1.00737 -0.0115405 -2.80334e-21)
(1.00495 -0.00602724 0)
(1.17934 0.139003 -1.62735e-20)
(1.13562 0.104548 0)
(-0.524373 -0.070684 1.77275e-19)
(-0.654748 0.459755 -3.01613e-19)
(-0.143187 -0.731559 -2.49711e-19)
(0.789926 0.751623 9.72312e-21)
(0.995985 -0.000561752 -1.51135e-21)
(0.988754 6.06356e-05 0)
(1.15371 0.0951834 3.3945e-20)
(0.285955 0.00296146 8.97174e-20)
(1.12752 0.201628 0)
(1.00895 -0.0120797 0)
(1.07338 0.0120206 1.85146e-20)
(0.905159 0.108904 0)
(-0.189019 0.0261926 1.13619e-19)
(1.01532 -0.00728703 -1.28366e-22)
(1.0503 0.000636223 -2.03975e-21)
(-0.703711 0.610598 0)
(-0.174018 0.207414 -1.44894e-19)
(1.17419 0.135693 0)
(1.06776 0.0440917 0)
(1.00196 -0.00353163 -1.66931e-21)
(1.0334 0.0312236 8.0842e-22)
(1.04007 0.04296 -5.93326e-21)
(1.14362 0.0243388 -1.22127e-20)
(1.00085 -0.00299088 0)
(1.08677 0.0403253 3.07862e-20)
(1.02047 0.0194619 -9.7619e-22)
(0.221844 0.252924 2.13333e-19)
(0.999282 -0.00173015 -5.93244e-22)
(0.941624 0.0482593 5.17669e-21)
(0.504588 -0.245632 0)
(0.924892 -0.353274 -3.6854e-20)
(1.10763 -0.0194705 -5.81953e-22)
(1.00471 0.00299997 1.43821e-22)
(1.02218 0.025672 0)
(1.17685 0.0454206 -1.71104e-20)
(0.673731 -0.137354 1.08366e-20)
(1.04215 -0.0316187 -1.22414e-20)
(0.78699 -0.0170809 -1.30312e-22)
(1.09661 -0.120704 0)
(0.692907 0.230295 2.12643e-21)
(1.01366 0.000894945 4.86765e-21)
(-0.207613 0.0425224 0)
(1.11058 0.077409 1.54264e-20)
(-0.113635 0.531294 0)
(1.00398 0.00347295 0)
(-0.355149 0.109999 -2.56321e-20)
(1.03088 0.0158345 -4.75737e-21)
(1.02428 0.00580327 -4.48024e-21)
(1.00794 0.0158582 -4.14057e-24)
(1.09557 -0.071809 -2.88642e-21)
(1.05028 0.000781349 0)
(1.00576 0.00975921 2.24369e-23)
(1.13551 0.0487361 -2.57175e-20)
(0.997611 -0.000394512 0)
(-0.493724 -0.107203 -1.49889e-19)
(-0.116049 0.579169 0)
(0.509941 -0.347959 0)
(1.00809 0.0473072 -1.5347e-22)
(1.00282 0.00133064 5.0435e-21)
(-0.336857 0.1261 0)
(1.01054 -0.014875 0)
(1.00474 -0.00600439 3.78193e-23)
(0.654873 -0.147081 1.42075e-20)
(-0.525413 0.0354944 -3.84366e-20)
(0.806307 0.236416 -8.00338e-22)
(0.667998 0.164559 5.77717e-20)
(-0.384266 0.0555682 -2.95782e-20)
(1.11539 0.0373566 0)
(1.01299 0.000909331 -1.75612e-22)
(0.372331 -0.545654 -1.54004e-20)
(0.992895 -0.00079854 0)
(1.12218 0.08025 0)
(-0.142812 0.443815 -9.24276e-20)
(1.01716 -0.00825289 1.30153e-23)
(1.00132 0.015754 3.1231e-21)
(0.376756 -0.377987 2.23196e-21)
(-0.279823 0.131705 9.39867e-20)
(1.0569 0.0024625 1.20327e-20)
(-0.728605 0.697547 -1.51862e-19)
(0.992963 -0.000884938 0)
(1.15031 0.0953467 6.91467e-22)
(1.15562 -0.00545485 4.51454e-21)
(0.85723 0.115071 0)
(0.93752 0.0766063 -6.84338e-22)
(0.981731 0.10947 -5.53522e-21)
(0.996053 -0.000534563 3.10498e-21)
(1.1253 0.0924462 -1.00558e-20)
(1.11536 0.0479676 0)
(0.644501 -0.0293672 -9.80345e-21)
(-0.497579 -0.0500493 -9.6557e-20)
(1.04327 0.00829614 -4.3418e-21)
(0.589138 -0.0164107 3.48475e-20)
(0.975209 -0.127751 -3.18844e-20)
(1.30587 0.158591 0)
(1.00112 -0.00291099 0)
(1.00512 0.0158619 2.64733e-21)
(-0.337724 0.1434 0)
(0.998092 0.00100654 -4.59379e-22)
(1.03184 0.110884 0)
(0.809311 0.288507 4.11322e-21)
(1.09113 0.142213 0)
(1.0041 0.0131942 -1.04261e-21)
(0.50248 -0.222384 9.31086e-21)
(-0.12794 -0.0981396 -2.10217e-22)
(-0.364219 0.76317 7.5873e-20)
(0.689792 0.258895 -7.19794e-22)
(1.13895 -0.0261837 0)
(1.01288 -0.0104833 0)
(1.00796 -0.00487899 0)
(1.04805 0.0512575 -6.92441e-21)
(1.02624 0.00489011 0)
(-0.346818 -0.0389933 6.52694e-22)
(-0.186843 0.187437 2.07097e-19)
(0.950049 0.0429003 4.44897e-21)
(0.916973 0.0934026 -1.07002e-20)
(0.75177 0.281377 -1.00678e-21)
(-0.022579 0.278377 -1.58324e-19)
(-0.370054 0.0818048 0)
(1.0569 0.00360782 2.35528e-20)
(-0.248961 1.03761 2.61349e-19)
(1.10889 0.0426031 -1.66269e-20)
(0.078494 0.350172 7.05313e-20)
(1.18789 0.140761 1.87464e-21)
(1.12545 0.0660505 1.99606e-20)
(1.14688 0.0250649 0)
(1.09938 0.021302 0)
(1.30118 0.361062 -6.34227e-20)
(0.845453 0.449739 0)
(1.00335 -0.0144638 5.8822e-21)
(-0.260501 0.253074 7.79589e-20)
(1.08067 0.388373 8.36943e-20)
(1.13219 -0.0224916 2.49738e-22)
(0.739045 0.233574 -2.66122e-21)
(1.15828 0.0970144 4.06741e-20)
(1.02813 0.110728 6.85602e-23)
(1.01233 -0.0094705 0)
(-0.19959 0.726306 4.64313e-20)
(1.00632 0.00987068 3.57728e-22)
(0.57752 -0.305585 2.44692e-21)
(1.01945 0.0286021 0)
(1.04779 0.00267618 0)
(1.06983 0.0211268 -8.65182e-21)
(1.16786 0.0771112 6.92867e-20)
(-0.553111 -0.108753 0)
(1.05464 0.00547667 0)
(0.84265 0.442851 -1.51934e-20)
(0.960899 0.0290701 1.02086e-21)
(0.747447 0.321346 1.9299e-21)
(1.02984 -0.0134086 -1.81818e-22)
(0.993989 -0.00191847 0)
(0.573891 0.376657 0)
(1.02134 0.0193695 -2.16416e-21)
(1.02179 0.0193568 -2.16663e-21)
(-0.116234 0.404332 4.93267e-20)
(1.01336 0.011304 -3.35077e-21)
(1.05216 0.0172681 1.01225e-20)
(1.09108 0.229468 -7.29551e-22)
(1.13882 0.0420368 1.4908e-20)
(0.998161 -0.00144383 0)
(0.812679 0.271938 0)
(0.101196 0.157251 -3.33748e-20)
(-0.544359 -0.109023 0)
(0.838495 0.731197 -2.63023e-20)
(1.00631 0.00533085 2.05127e-22)
(1.00253 0.00169207 0)
(1.15623 0.128137 -1.83256e-21)
(1.06694 0.154077 -3.29912e-20)
(-0.360807 -0.0672857 0)
(1.05212 0.0128811 0)
(0.368025 -0.355664 -2.42428e-23)
(1.02515 0.056322 3.82644e-22)
(1.13811 0.0476955 1.34797e-20)
(0.16375 0.202985 -1.53875e-19)
(1.04216 0.00822859 1.33492e-20)
(1.01055 -0.0102484 -9.71605e-22)
(1.14163 0.0830757 0)
(0.988637 -2.4131e-05 1.09728e-21)
(1.01374 0.0127675 1.36889e-21)
(1.0186 0.0235535 0)
(0.961592 0.0370001 5.5826e-22)
(0.44012 -0.3512 -2.17094e-21)
(0.988403 -0.000261948 1.25028e-22)
(0.943105 0.464777 1.20485e-21)
(1.09035 0.343434 0)
(1.01076 0.221772 0)
(1.08668 0.0866045 0)
(1.01284 -0.0118594 0)
(1.0523 0.0252458 6.14656e-21)
(1.04654 0.0497322 -7.59642e-21)
(0.693156 -0.181447 0)
(1.15152 0.236591 -4.86163e-21)
(-0.261305 0.410709 -7.58778e-20)
(-0.73032 0.551797 3.71309e-19)
(0.663061 -0.109663 2.94538e-21)
(1.01955 0.0279791 1.9947e-22)
(1.15609 0.0655274 9.53967e-20)
(1.29176 0.362246 -4.28682e-21)
(1.1863 0.0435152 -2.83743e-20)
(1.12284 0.0704726 2.13785e-20)
(1.0842 0.0375583 1.93914e-20)
(1.06375 0.0975774 0)
(0.938851 0.0640504 0)
(1.01868 0.0231519 0)
(0.267236 -0.625496 0)
(0.836735 0.290267 -8.99955e-21)
(0.989956 -0.000429403 0)
(1.15806 0.0603781 4.05042e-20)
(1.05075 0.014745 -8.80592e-21)
(1.29865 0.143724 1.14088e-19)
(1.05677 -0.0456241 0)
(1.15007 -0.0143118 -5.30735e-22)
(1.15095 0.0676618 -8.24553e-20)
(0.811883 -0.113627 -8.96124e-21)
(1.00983 0.0526552 0)
(1.11912 0.0239864 0)
(0.749875 0.159496 2.46738e-22)
(1.02198 0.0198987 4.4898e-21)
(0.865858 0.428549 0)
(1.02432 -0.0316108 0)
(1.0797 0.0641265 1.06441e-20)
(1.12597 0.091986 0)
(1.02499 0.054468 -3.78489e-21)