/*--------------------------------*- C++ -*----------------------------------*\
| =========                 |                                                 |
| \\      /  F ield         | OpenFOAM: The Open Source CFD Toolbox           |
|  \\    /   O peration     | Version:  v2012                                 |
|   \\  /    A nd           | Website:  www.openfoam.com                      |
|    \\/     M anipulation  |                                                 |
\*---------------------------------------------------------------------------*/
FoamFile
{
    version     2.0;
    format      ascii;
    class       volVectorField;
    location    "600";
    object      U_0;
}
// * * * * * * * * * * * * * * * * * * * * * * * * * * * * * * * * * * * * * //

dimensions      [0 1 -1 0 0 0 0];


internalField   nonuniform List<vector> 
13308
(
(1.00348 -0.00631258 0)
(0.220919 -0.445374 2.69644e-19)
(-0.331273 0.087253 -4.62037e-20)
(1.00078 -0.000196715 -1.44135e-21)
(1.17759 0.0981669 -1.22868e-20)
(1.00356 -0.000807663 -2.18664e-22)
(1.14386 0.0932229 -3.92056e-20)
(1.11525 0.0367116 0)
(1.13695 0.107787 0)
(0.77954 0.0580067 -7.00576e-20)
(0.474842 -0.230549 0)
(0.595062 0.249195 -6.73058e-20)
(1.00337 -0.000823262 0)
(1.02952 0.00501503 0)
(1.00445 -0.000685335 0)
(-0.308777 0.19164 0)
(1.02766 0.0112479 5.0293e-23)
(0.305554 -0.539657 1.2152e-19)
(0.913141 -0.387297 -2.07646e-20)
(1.1106 0.0422902 1.88622e-20)
(1.03087 0.00834083 7.59684e-22)
(-0.29591 0.552893 5.03944e-20)
(0.143235 0.39542 7.36696e-20)
(1.14932 0.0758386 4.85898e-20)
(-0.308545 0.198764 0)
(-0.0628017 0.21702 -1.20475e-19)
(1.15264 0.105139 -2.08914e-20)
(0.471776 -0.271225 3.6388e-21)
(1.15548 0.10461 -2.3637e-20)
(1.15082 0.111728 0)
(0.073008 -0.664014 3.37866e-19)
(1.14365 0.106201 0)
(0.10531 0.403632 0)
(1.16797 0.131529 0)
(0.749854 0.312224 3.2673e-21)
(1.02836 0.00865262 -3.43009e-21)
(1.14297 0.0946458 3.30235e-20)
(0.210366 0.383637 -2.50988e-20)
(1.09875 0.0649023 -1.58943e-22)
(-0.338826 0.118939 2.40164e-20)
(1.04864 0.00272873 0)
(1.11924 0.0176508 1.9522e-20)
(0.678271 0.393776 2.72116e-21)
(1.01935 0.0144627 -4.75268e-21)
(1.09303 0.0724508 0)
(1.05141 0.138385 0)
(1.00477 -0.000604583 3.51195e-24)
(1.00091 -0.000234679 7.64678e-23)
(1.01222 -0.0189594 1.13562e-21)
(-0.36065 0.0384202 5.06499e-20)
(1.01842 0.0032126 6.37324e-22)
(1.02561 0.041204 0)
(-0.24817 0.656602 2.74952e-19)
(0.936994 0.228003 2.86752e-20)
(-0.460683 -0.0389079 -1.66672e-19)
(-0.521374 -0.0804793 -4.52278e-20)
(1.01895 0.0129315 -2.15734e-21)
(1.02174 0.0394738 -1.17904e-21)
(1.12708 0.0741335 1.82245e-20)
(1.12368 0.0718024 0)
(0.967231 -0.165685 1.46243e-20)
(0.330791 0.33255 -1.67942e-19)
(1.02307 0.0395583 1.94103e-21)
(1.06497 0.0113708 0)
(0.993393 0.000732521 1.04585e-21)
(0.0671827 0.41374 -2.51835e-20)
(1.00605 0.00423812 -2.64954e-22)
(1.04746 0.112812 0)
(0.991781 -0.000823446 -3.81508e-21)
(1.22601 0.164248 0)
(0.0326073 -1.00689 0)
(1.09544 0.0675847 9.93759e-21)
(1.01851 -0.002274 -7.10126e-23)
(1.14672 0.108426 7.53521e-21)
(1.00941 0.0451849 5.84144e-21)
(1.01838 0.0203841 1.74258e-21)
(1.00283 -0.00372092 0)
(-0.533446 -0.0947798 2.74016e-20)
(1.02756 0.0293104 -3.03996e-21)
(0.988691 0.0228425 1.95316e-21)
(1.05023 0.0571916 3.98366e-21)
(1.00468 -0.00485844 0)
(1.01806 0.0201465 -1.29067e-21)
(1.13839 0.0771077 0)
(1.09758 0.0304572 0)
(1.11825 0.0333765 0)
(-0.38463 -0.0189127 1.06925e-20)
(0.442057 -0.431291 7.61829e-21)
(1.04139 -0.210001 3.91165e-21)
(1.19611 0.0831485 -1.87377e-20)
(1.09051 0.0436961 -3.23667e-20)
(1.00619 0.00628898 0)
(1.14923 0.103921 1.63396e-20)
(1.03607 0.00753306 -3.48786e-21)
(1.02066 0.00312931 5.47224e-21)
(1.00885 -0.0102582 -3.845e-21)
(1.12372 0.018205 5.15611e-22)
(0.985707 0.0144781 -4.55931e-21)
(-0.0441286 -0.81933 -1.39032e-20)
(1.21327 0.16287 0)
(1.08741 0.0415966 2.36644e-22)
(1.05137 0.00163513 1.06847e-20)
(0.997046 0.00177659 -7.44971e-22)
(1.03994 0.00496554 0)
(0.635809 0.0483171 5.17062e-21)
(0.108751 -0.601164 1.89386e-20)
(-0.313254 0.0975819 4.84708e-20)
(0.992242 -0.000524457 3.30436e-21)
(-0.184412 0.1254 0)
(-0.0347208 0.223733 1.24645e-19)
(1.14238 0.035657 -2.58629e-20)
(1.30579 0.17927 -2.99837e-20)
(1.01323 -0.0159944 3.30873e-21)
(1.02729 0.0273866 2.87281e-21)
(1.011 -0.017413 -3.76557e-21)
(0.907807 -0.411005 2.88732e-20)
(1.05523 0.147275 -3.10308e-20)
(0.730948 0.407536 1.08725e-20)
(1.15148 0.104419 5.93925e-20)
(1.01793 0.0313224 0)
(1.15924 0.0928443 -1.99156e-20)
(1.04863 0.0140913 0)
(0.998067 0.0012642 4.6399e-21)
(1.0395 0.0326654 -3.86475e-22)
(0.879869 0.0842569 2.56423e-21)
(1.10685 -0.100227 0)
(1.12099 0.00692551 4.9803e-22)
(1.11637 0.0219374 -4.39884e-22)
(1.01758 -0.00546636 4.04405e-23)
(-0.364182 0.0945314 0)
(-0.107518 -0.804168 0)
(1.01424 -0.0124919 -5.1993e-21)
(1.06649 0.0118376 -1.33562e-20)
(1.0084 -0.0110569 1.9013e-21)
(1.1391 0.114379 -5.32249e-21)
(1.03433 0.0255654 -6.53156e-21)
(1.0083 0.00646081 0)
(0.900196 0.0994719 0)
(0.879497 0.0195997 0)
(1.12511 0.0157711 2.13533e-20)
(-0.421607 -0.0597558 1.91205e-20)
(1.14151 0.0306657 0)
(1.05222 0.0170309 0)
(1.01935 -0.0189796 0)
(1.11734 0.047752 3.66157e-20)
(0.964912 0.163778 -1.03961e-20)
(1.00855 0.00267105 0)
(1.2192 0.111488 -3.75665e-20)
(1.05201 0.0546563 -8.2812e-21)
(0.996422 -0.0271499 8.50802e-21)
(-0.385946 -0.00179917 -2.38099e-19)
(0.997751 0.00100664 0)
(0.678442 -0.161541 9.01798e-20)
(0.977329 -0.227905 2.6005e-20)
(0.920915 0.229926 0)
(0.903426 0.0117165 -1.05929e-20)
(0.989198 -0.000363135 2.40504e-21)
(0.997465 0.00129144 -6.52931e-21)
(1.04937 0.00248773 0)
(0.801672 -0.343951 0)
(0.731403 -0.0166485 9.46434e-20)
(1.02432 0.0423398 1.37915e-21)
(1.05081 0.0152105 -4.11916e-21)
(0.40006 0.341073 1.46774e-19)
(0.910143 -0.0130019 1.07717e-20)
(1.09431 -0.0535734 0)
(-0.288815 0.542058 1.04517e-19)
(0.997098 0.00118246 -1.87556e-23)
(-0.195982 0.129921 -7.98185e-20)
(1.19201 0.0785478 4.90849e-20)
(1.14316 0.0289202 7.59645e-20)
(0.692434 0.47236 -4.14265e-20)
(0.99728 0.000749382 3.43877e-22)
(-0.395977 0.00625191 -2.80061e-20)
(-0.475754 -0.0521934 -1.80952e-21)
(-0.157157 0.394776 -1.43466e-19)
(-0.27922 0.536198 1.51529e-19)
(-0.346039 0.0556183 2.50606e-20)
(0.998968 -0.0472106 -6.4006e-21)
(0.988482 -0.000300893 4.20045e-21)
(0.682044 0.227397 -1.25532e-20)
(-0.262646 0.761309 -6.06938e-21)
(1.00386 0.0035157 -2.07878e-23)
(0.824231 0.0796714 2.22209e-21)
(0.972501 0.412264 0)
(0.995248 -0.00195456 1.99261e-21)
(-0.508086 -0.0751624 4.26147e-20)
(-0.0134243 -0.653718 0)
(1.15362 0.107504 0)
(0.931997 0.323853 0)
(0.951537 0.325021 0)
(1.08817 0.0351625 0)
(1.1164 0.0492463 -1.62744e-20)
(0.571376 0.220672 -7.66813e-20)
(1.12117 0.0457994 -3.82541e-20)
(-0.136602 0.381362 1.17297e-19)
(1.14218 0.0255856 -5.62302e-20)
(1.01382 0.00739728 2.14429e-22)
(0.748417 -0.114927 -7.68789e-21)
(1.11814 0.0197941 2.40496e-20)
(-0.284838 0.243496 -3.66266e-20)
(-0.245549 0.68869 -4.09318e-19)
(0.334872 0.0315909 2.10759e-20)
(1.14177 0.119865 1.59657e-21)
(-0.34979 0.117772 0)
(1.08122 0.177768 -2.32191e-20)
(-0.353521 0.117063 2.51315e-20)
(0.986035 0.0701364 -2.53664e-21)
(0.919794 0.365815 4.53106e-22)
(-0.484209 -0.0521066 9.67658e-20)
(0.90078 0.360902 6.62906e-22)
(1.08605 0.259052 3.8719e-21)
(1.23383 0.0988742 1.41513e-20)
(-0.406647 -0.0546933 5.77184e-20)
(0.11447 0.182625 2.38048e-19)
(1.04742 0.0240501 0)
(0.989265 -0.000352918 -3.33452e-21)
(0.469027 -0.402505 1.44193e-20)
(0.807286 -0.336278 7.38543e-21)
(0.991332 0.035887 -4.41065e-21)
(0.512801 -0.348269 9.0451e-21)
(1.00011 0.00150347 5.14132e-22)
(0.925671 -0.00686327 0)
(1.0069 -0.00422421 -1.24476e-22)
(1.05265 0.0166977 0)
(-0.259122 0.347764 -9.93577e-20)
(0.983258 0.128201 0)
(0.677956 0.0324435 -1.03536e-20)
(-0.525777 -0.0893932 8.8132e-22)
(1.08881 0.198735 2.39796e-20)
(-0.383735 0.061839 -2.52722e-20)
(1.04727 0.0385422 -4.25277e-23)
(-0.349007 0.0664359 -1.15693e-20)
(1.09691 0.0251843 0)
(0.999865 -0.00840814 0)
(1.23654 0.0897181 -6.96703e-20)
(-0.705813 0.699315 0)
(0.755375 0.174783 0)
(0.918354 0.21889 -1.06398e-20)
(1.0488 0.0452787 -3.34335e-21)
(1.13916 0.0779771 0)
(0.998549 -0.00467452 0)
(1.0333 0.00599586 -7.45773e-21)
(1.00384 -0.00237158 5.6758e-23)
(0.658835 0.0539985 4.57332e-21)
(0.920136 0.349863 -1.02156e-20)
(1.09947 0.265415 -5.34481e-21)
(1.26571 0.0631348 1.77407e-20)
(1.00723 -0.00451587 0)
(1.00938 0.407509 1.02697e-20)
(0.133289 0.181082 -2.31637e-19)
(0.131243 0.384278 -7.26387e-20)
(1.04995 0.00125305 -3.32148e-21)
(0.290325 0.315899 2.86266e-21)
(0.632488 -0.167306 -5.15384e-21)
(1.04881 0.0279474 -2.24205e-21)
(0.62711 -0.230571 -3.50658e-20)
(1.00028 0.00144371 -8.07804e-23)
(0.803952 0.740879 0)
(-0.530182 -0.0866303 9.95597e-20)
(1.15046 0.112251 0)
(1.26223 0.0728721 0)
(1.23473 0.0848289 0)
(1.0073 0.0187823 -5.66658e-21)
(0.931307 -0.0282348 1.08879e-20)
(1.01737 -0.00496089 3.85118e-22)
(0.562127 0.126075 8.30908e-20)
(1.06441 0.0098158 0)
(0.541001 -0.328093 0)
(-0.263151 0.372702 0)
(1.09495 0.302042 7.39249e-21)
(1.16178 0.0970011 6.86935e-20)
(1.02897 0.00454303 -4.6577e-21)
(0.883019 0.0110968 0)
(1.0325 0.0312289 -5.19e-22)
(0.993085 0.00068064 -4.99823e-22)
(1.01094 -0.013945 1.18008e-21)
(0.647058 -0.0513269 9.93667e-21)
(1.18379 0.0939355 -3.06201e-20)
(0.938612 0.0931811 1.37988e-20)
(-0.118164 0.385093 5.12122e-20)
(1.04319 0.00239951 1.475e-20)
(1.06454 -0.172514 -3.92563e-21)
(1.04892 0.0292528 1.40094e-21)
(-0.101703 -0.741761 0)
(1.1066 0.458861 9.68843e-21)
(1.00679 0.0182107 2.89309e-21)
(1.00247 -0.00501977 0)
(0.924798 0.137281 1.17323e-22)
(1.07322 0.60068 3.43417e-20)
(1.14606 0.103815 1.63248e-20)
(1.00491 0.00968337 -1.79584e-21)
(1.40554 0.29315 7.81607e-20)
(-0.269878 0.724185 2.0804e-20)
(1.0018 0.00154918 0)
(0.671232 0.261508 1.37806e-21)
(-0.515435 -0.0997279 1.07589e-19)
(1.14686 0.117776 1.16783e-21)
(0.930915 0.106697 1.52969e-20)
(-0.264923 0.342848 2.15509e-20)
(0.0949822 0.394972 -3.60336e-20)
(0.995578 0.0390022 8.62818e-21)
(-0.078254 0.197327 1.3022e-19)
(1.14385 -0.0165078 -1.0418e-21)
(1.11275 -0.0208236 1.15059e-21)
(1.00819 -0.0120611 2.78581e-21)
(1.14001 0.100887 2.13545e-20)
(-0.391455 0.00266969 -5.56618e-20)
(1.25983 0.0611891 -1.27603e-20)
(0.995288 -0.00196572 0)
(0.691377 0.3838 2.37644e-21)
(0.124447 0.560025 -9.40777e-20)
(1.14811 0.102694 -3.64197e-20)
(0.344693 -0.0216115 3.27988e-21)
(0.739777 0.347772 0)
(-0.497394 -0.0628383 0)
(0.9889 8.62244e-05 1.71251e-21)
(1.00173 0.00156235 0)
(1.04399 0.00322437 1.35491e-20)
(1.41094 0.287737 3.14966e-20)
(1.04982 0.00141868 1.813e-20)
(1.00403 -0.00455667 0)
(-0.375089 0.0830527 0)
(1.00127 -0.00321415 0)
(-0.0832344 0.259657 -4.84932e-20)
(1.018 -0.0185293 1.94734e-21)
(1.04821 0.0353293 -4.20098e-22)
(1.07968 0.0188191 0)
(1.09595 0.0694927 -1.11678e-20)
(1.08132 -0.0632281 2.42254e-21)
(0.048376 0.362447 8.88758e-20)
(1.01594 0.00463598 -2.39185e-21)
(1.2418 0.0582939 4.54225e-22)
(1.01271 0.0170774 0)
(0.995994 -0.000603217 -3.51004e-21)
(0.779791 0.00294392 -6.33256e-21)
(-0.270455 0.310856 0)
(0.999086 0.00142146 2.45703e-21)
(0.983257 0.11509 0)
(1.29548 0.149028 0)
(1.17546 0.0798441 2.43844e-20)
(1.07871 0.0161779 0)
(1.02874 0.0171541 9.16381e-21)
(1.16246 0.132114 -1.60153e-20)
(0.771752 0.0853659 0)
(1.05908 0.611192 4.58104e-20)
(0.948104 0.152771 -8.79127e-21)
(0.962118 0.155807 3.89387e-21)
(1.04571 4.86389e-05 0)
(1.02227 0.00919899 4.62313e-21)
(1.23564 0.103642 -1.56554e-20)
(-0.537792 0.0266583 5.27496e-20)
(0.893079 0.714034 0)
(1.00347 0.00781723 0)
(1.01033 -0.0206214 -2.85046e-21)
(1.02083 0.0195141 9.84037e-22)
(-0.204853 1.03417 0)
(1.01176 -0.0155637 0)
(0.943457 0.146597 8.52671e-21)
(0.560447 -0.192735 -2.41467e-21)
(0.69725 0.431118 1.01481e-21)
(1.13969 0.112519 5.58996e-21)
(1.18977 0.0808744 0)
(1.0891 0.29304 -6.21926e-21)
(-0.34068 0.739849 -8.07364e-20)
(0.13936 0.250865 -3.22187e-20)
(1.02915 0.0161681 -8.73087e-21)
(1.00459 -0.00241194 -1.21354e-22)
(1.02031 0.0375344 -9.9258e-22)
(1.19428 0.0432456 1.46166e-20)
(-0.274142 0.260619 0)
(0.06052 0.608006 -7.04501e-20)
(1.23862 0.0692261 0)
(1.01792 0.00271826 5.4211e-21)
(1.01975 0.0370888 9.44634e-22)
(0.947178 0.0697891 0)
(0.444364 0.355836 -2.96069e-19)
(0.155928 0.339822 -2.16697e-20)
(1.05169 0.0595027 -4.02483e-21)
(0.646925 -0.129911 1.25591e-20)
(1.08365 0.0604668 5.65435e-21)
(1.01304 0.0173135 -2.1718e-22)
(0.841127 -0.325091 3.81434e-21)
(1.19326 0.098999 -5.50278e-20)
(1.01152 -0.0129598 -4.64689e-21)
(-0.324358 0.749608 0)
(1.29893 0.161615 2.61894e-20)
(1.11941 0.0842035 0)
(1.00531 0.00443932 2.59867e-22)
(0.871249 0.162564 7.73046e-20)
(1.02399 0.0101488 -2.63362e-21)
(0.99282 -0.00364981 -4.83294e-21)
(1.11956 -0.0651842 -7.90958e-23)
(-0.278529 0.285009 4.62271e-20)
(0.758217 0.39754 1.22156e-20)
(1.14437 0.119835 -4.37112e-21)
(0.927984 0.43182 2.52605e-21)
(1.00262 0.00764424 0)
(0.771043 0.078753 0)
(1.09737 0.0220854 -4.01143e-20)
(0.839002 -0.333508 0)
(0.988449 -0.00026193 -5.69299e-21)
(1.20412 0.150449 0)
(0.118413 0.254516 3.14579e-20)
(1.01216 -0.00670155 -2.15061e-23)
(0.736589 0.287214 -4.20211e-21)
(0.989443 -0.000362435 3.75906e-21)
(0.997326 0.000841884 -4.71162e-21)
(-0.124608 -0.7356 -5.7201e-20)
(0.684264 -0.00109104 -4.54861e-21)
(1.02413 0.00274659 -3.54736e-21)
(1.23015 0.0769912 -2.35127e-20)
(0.983411 0.270079 0)
(1.00236 0.00693172 -6.62003e-22)
(1.0074 0.00838891 2.28997e-22)
(0.819995 0.360217 -6.76238e-21)
(1.08022 0.060673 8.37492e-23)
(1.00704 0.0084457 0)
(1.12192 0.0803164 1.70053e-20)
(0.938573 0.0842978 -4.78514e-21)
(0.927287 0.140315 -5.6091e-21)
(1.01897 0.0351455 0)
(1.17205 0.0732968 -4.22383e-20)
(1.0603 0.0571734 0)
(1.00748 -0.0147643 -4.95484e-21)
(-0.298544 0.121143 -9.62108e-20)
(1.30141 0.159684 0)
(1.11935 0.0436956 -2.25368e-20)
(0.904508 0.197534 -3.06819e-20)
(0.831342 -0.280009 -3.4815e-21)
(1.12572 0.504067 0)
(0.9947 -0.000796912 -4.56273e-21)
(1.12792 -0.0429409 -1.78814e-21)
(0.111848 -0.0734511 -1.62409e-22)
(1.00466 0.014277 4.07812e-21)
(1.0006 -0.00265109 1.25694e-21)
(0.527633 0.364601 1.45089e-19)
(1.00709 0.00643088 6.82394e-22)
(1.14574 0.101054 -2.62189e-20)
(-0.352705 0.0978009 -5.70577e-20)
(-0.353301 -0.0727553 -1.17829e-19)
(-0.331778 0.537622 0)
(-0.337942 0.0353949 1.0257e-19)
(1.01873 0.0345928 -2.19253e-22)
(-0.583863 0.85717 3.86513e-19)
(1.18865 0.0430572 -2.94988e-20)
(0.655541 0.450798 -6.15734e-21)
(-0.263816 0.652307 0)
(1.00425 0.00458829 7.87536e-26)
(1.00614 0.401178 0)
(1.00394 -0.00806315 0)
(-0.0141888 -0.333761 3.93454e-21)
(0.974056 0.260922 3.61503e-22)
(-0.775111 0.133103 0)
(1.15044 0.0755252 -3.13816e-20)
(1.14069 0.0997727 1.92855e-20)
(1.20004 0.082591 1.91093e-20)
(0.953499 0.288253 1.09075e-21)
(0.27139 0.38787 0)
(1.19335 0.149653 0)
(0.846377 -0.333487 0)
(-0.711084 0.631654 2.36624e-20)
(1.0081 0.00341759 -2.12616e-21)
(0.718611 -0.0601254 0)
(1.01853 0.0289132 0)
(-0.540588 -0.113232 1.50892e-19)
(0.999123 0.00144574 -3.57302e-21)
(1.05996 0.0571039 0)
(1.02192 0.0244098 -4.71005e-21)
(-0.262493 0.37741 7.44312e-20)
(1.0226 0.0957107 1.97228e-20)
(1.07662 0.0138284 0)
(0.345258 0.382415 3.55806e-20)
(1.07137 0.0494402 -1.31071e-20)
(0.962974 0.311956 -2.0757e-21)
(0.151149 0.315234 2.15934e-20)
(0.964291 -0.0329523 -9.87858e-21)
(1.13791 0.0388922 0)
(0.812371 0.13234 -1.33462e-21)
(1.02739 0.016326 0)
(0.976138 0.00959273 -1.02059e-23)
(1.04657 0.00074421 0)
(0.964034 0.0162135 0)
(1.00526 0.0150449 -6.50302e-21)
(1.11699 0.200659 -1.22476e-20)
(1.06303 0.0560889 0)
(1.00965 -0.0157436 0)
(0.794912 0.251201 4.8218e-22)
(1.14184 0.0366479 2.69522e-20)
(1.00855 0.00739557 -1.00576e-21)
(1.00707 0.00985321 -1.59646e-22)
(1.14052 0.101091 -5.08358e-22)
(0.800933 0.233398 -5.38258e-22)
(1.00226 -0.00354979 2.55803e-23)
(1.01277 -0.00702759 6.26031e-23)
(1.06581 0.054498 -1.51507e-21)
(1.00438 -0.000500854 0)
(0.933713 0.331601 4.6864e-20)
(0.137262 -0.952957 1.61409e-19)
(0.0550203 -0.3233 -3.39727e-21)
(1.11048 0.358198 -1.57326e-20)
(-0.544073 -0.112741 0)
(0.691363 0.361598 1.82116e-21)
(0.556472 0.0934108 -5.55769e-21)
(1.1176 0.0779154 0)
(1.00033 0.0112578 3.14619e-21)
(1.14249 0.248132 1.14507e-21)
(-0.339216 0.0246878 -1.25899e-19)
(0.989369 0.000285212 -3.19047e-21)
(-0.177923 0.168458 -1.82714e-20)
(0.976128 -0.0323096 0)
(1.13003 -0.0674253 7.17861e-21)
(1.09171 0.0583353 -2.0389e-20)
(1.00285 0.00137865 0)
(1.14516 0.0791286 2.28363e-22)
(1.22097 0.118119 0)
(1.20071 0.14104 6.20537e-22)
(1.03971 0.00254231 0)
(1.10958 -0.0097309 -2.54028e-21)
(0.128247 0.300338 -2.52029e-20)
(0.86621 0.404842 0)
(0.908185 0.712832 0)
(0.979616 0.412647 0)
(0.994157 -0.00854525 4.06511e-21)
(0.989336 -0.000580694 0)
(1.39217 0.309374 -2.04994e-20)
(1.02694 0.0175368 1.88083e-21)
(1 -0.00241622 -1.26679e-21)
(0.835981 0.292718 -2.73725e-21)
(1.08522 -0.127757 0)
(1.11477 0.196411 3.34854e-21)
(1.21578 0.120293 -4.639e-20)
(0.386751 0.30353 -1.06097e-19)
(-0.294512 0.578608 2.0563e-19)
(0.994719 -0.00196097 -8.09729e-22)
(0.745564 0.0144173 3.25524e-21)
(0.895979 -0.27044 2.97124e-22)
(-0.210968 1.03425 9.15916e-20)
(1.00314 -0.00390136 1.70031e-21)
(0.996805 0.0796648 -1.72569e-21)
(1.02084 0.0143978 2.55123e-21)
(1.1597 0.002016 5.25373e-22)
(1.05116 0.00171754 4.01865e-21)
(0.630185 0.0789159 -9.67489e-21)
(1.08887 0.0597881 2.77656e-20)
(-0.1244 0.279747 -9.22868e-20)
(0.194561 -0.955529 -8.70803e-21)
(0.64431 0.432932 5.15555e-20)
(1.00736 0.00648142 -7.16807e-22)
(1.00277 0.0140723 -8.18411e-21)
(0.376663 0.31329 0)
(0.617812 0.377411 -3.20208e-20)
(-0.0570105 -0.94498 0)
(1.07731 -0.118666 0)
(-0.0202402 0.245119 -1.27205e-19)
(0.798937 0.124276 4.59962e-22)
(-0.328506 0.521276 3.76924e-20)
(-0.516164 -0.0963617 -8.98442e-20)
(0.118055 0.245877 0)
(-0.376692 0.51851 -4.19585e-20)
(0.999815 0.0419387 0)
(1.05143 0.00137718 -7.66128e-21)
(1.00333 0.0151166 0)
(0.753256 0.202995 0)
(1.02517 0.0270008 2.8724e-21)
(1.3712 0.312247 5.81386e-20)
(-0.504883 -0.110938 1.02298e-19)
(1.0792 0.0135255 0)
(0.987369 0.383409 8.95212e-20)
(1.05661 0.370657 2.45149e-20)
(0.0891131 -1.03053 -7.9412e-20)
(1.01634 0.0130925 0)
(1.02389 0.0263341 -2.92241e-21)
(1.01736 0.013166 0)
(0.434173 -0.0108804 9.10825e-21)
(1.1446 0.102176 4.96574e-20)
(1.00375 0.00852705 -5.92501e-22)
(1.09479 0.0223032 1.33165e-20)
(-0.0696098 -0.179144 9.90609e-22)
(0.996676 0.00173946 0)
(-0.26753 0.339876 4.71929e-21)
(0.945821 -0.0222517 9.25364e-21)
(1.0227 0.0585541 7.90277e-22)
(1.13506 0.144557 1.2166e-20)
(1.06265 0.00961154 0)
(1.02201 0.0144053 0)
(1.05091 0.0180414 0)
(1.0996 0.127919 -7.93804e-21)
(1.12509 0.0765643 -2.21176e-20)
(0.989545 -0.00033548 -6.98053e-21)
(0.566734 -0.110949 -2.39227e-20)
(1.00131 0.00608228 -8.10809e-22)
(1.01596 -0.00772592 6.86724e-24)
(1.00701 -0.00428102 0)
(1.00607 0.00210349 0)
(-0.194552 0.0311132 0)
(0.129609 0.325179 1.54223e-21)
(1.00554 0.00988014 5.84966e-22)
(-0.498505 -0.0664304 0)
(1.11829 0.024253 -1.04576e-20)
(1.00595 0.00212632 0)
(1.00656 0.00982808 0)
(0.991409 0.0583897 7.44459e-21)
(1.00062 0.0384435 -1.07011e-20)
(1.07684 0.0631901 0)
(1.19067 0.0912411 7.3749e-20)
(1.00405 0.00955445 1.5919e-21)
(0.429431 -0.311131 -8.00477e-22)
(1.00282 0.0405671 -3.35604e-21)
(0.0146393 0.624101 3.69826e-19)
(-0.156086 0.80388 2.52597e-19)
(1.19691 0.0764227 -5.91346e-20)
(1.17603 0.0970467 7.64679e-20)
(0.990473 -0.000443615 -3.65799e-21)
(-0.792459 0.124726 0)
(0.475511 -0.0346279 -3.18511e-20)
(1.14056 0.100411 0)
(0.991867 -0.000844552 5.69924e-21)
(0.684836 -0.123993 -3.02806e-21)
(0.772474 -0.0614353 -1.06878e-20)
(1.12818 0.167922 8.22824e-21)
(1.05095 0.0188896 0)
(1.00302 -0.0122789 -3.29935e-21)
(0.644559 -0.0744557 1.87496e-20)
(0.953491 -0.037008 9.03733e-21)
(-0.559362 -0.0940036 7.24904e-20)
(1.05057 0.0527692 1.21997e-20)
(1.00942 0.00337188 2.27902e-21)
(1.1507 0.132887 0)
(-0.557267 -0.094647 1.38976e-19)
(1.04157 0.0509599 2.05719e-21)
(-0.375154 0.498211 0)
(0.825317 0.0888573 -2.59752e-21)
(-0.367917 0.0672792 -2.44779e-20)
(0.618658 0.334865 9.376e-20)
(0.821149 0.302429 0)
(1.09373 0.128992 7.45523e-21)
(1.09114 0.0669178 -1.05017e-20)
(0.0291035 0.735125 0)
(-0.1921 0.152208 2.47886e-21)
(1.02071 0.00166957 -3.85846e-21)
(1.05055 0.0248202 5.34797e-21)
(-0.505879 -0.101119 0)
(0.687928 0.28991 -8.64182e-22)
(1.22695 0.15192 7.66842e-20)
(0.914566 -0.288303 4.14339e-22)
(1.15436 0.0579982 -7.34723e-20)
(1.09803 0.0188058 -6.67561e-21)
(1.00629 -0.00364427 0)
(0.94783 0.439653 3.33142e-21)
(1.16479 -0.00993153 0)
(0.997062 0.00166713 0)
(-0.303071 0.592837 -1.08626e-19)
(1.08629 0.0484096 -1.80514e-20)
(-0.140839 -0.154085 0)
(1.06006 0.00988713 0)
(1.01504 0.0114746 0)
(1.06524 0.0195632 0)
(-0.685205 0.608487 0)
(1.15751 0.12173 0)
(0.825671 0.29443 3.82975e-22)
(0.533507 -0.227202 7.20956e-20)
(1.13099 0.147581 -9.16901e-21)
(1.03576 0.0923878 -2.1323e-20)
(1.04425 0.047885 0)
(1.04376 0.036209 0)
(-0.144494 0.761314 -1.28712e-19)
(0.997127 -0.000599024 2.35884e-21)
(-0.33936 0.127126 -2.49758e-20)
(-0.336628 -0.0656718 -1.17461e-19)
(0.823496 -0.113547 -8.91289e-22)
(1.00987 -0.0117214 3.56465e-21)
(0.806454 -0.0633158 0)
(1.00353 -0.000588511 -2.51769e-22)
(1.00604 0.00547978 0)
(-0.191138 0.0950554 0)
(0.800886 -0.107594 2.30248e-21)
(1.0479 0.112576 1.83594e-20)
(1.02748 -0.0802702 7.1364e-22)
(0.969386 0.183202 0)
(1.14183 0.0746397 -2.36347e-20)
(1.09602 -0.0861367 -9.86977e-22)
(1.02155 0.0545875 -1.02412e-20)
(1.00617 -0.00353348 0)
(0.995048 0.0520053 0)
(0.99848 -0.000537013 1.64997e-21)
(-0.199541 0.0668099 -1.76907e-19)
(-0.200407 0.100628 0)
(1.07238 0.107373 2.84392e-21)
(1.18012 0.0421818 1.40234e-20)
(0.994383 -0.000530589 4.76922e-21)
(1.09649 0.0143607 -2.1307e-20)
(1.01786 0.0514199 0)
(1.0727 0.160789 -4.15728e-20)
(1.13418 0.359436 -2.45327e-20)
(1.0226 0.0553868 7.57939e-22)
(1.00261 -0.00378106 2.23089e-21)
(1.00032 0.0102008 3.19366e-21)
(1.00227 -0.00384833 0)
(0.126667 -0.0330229 -6.4594e-21)
(1.01231 0.0171533 -1.44564e-21)
(0.609228 -0.170282 0)
(0.861232 -0.470641 5.22424e-21)
(1.15086 0.129536 -3.28661e-21)
(1.18137 0.0756818 5.46246e-20)
(1.01305 -0.0134853 1.94274e-21)
(0.575939 -0.232769 0)
(0.834083 0.105478 -3.64442e-21)
(0.28113 0.0247966 -1.12557e-19)
(1.01792 0.0322844 2.42868e-22)
(1.01503 0.00461822 0)
(1.02045 0.0146184 -7.64776e-23)
(-0.526753 -0.0733787 -3.27492e-19)
(1.03775 0.00285047 -1.26391e-21)
(1.31838 0.177112 1.141e-20)
(1.16113 0.0983045 0)
(1.01237 0.0173894 -1.10557e-21)
(0.994696 -0.00196433 9.88802e-22)
(1.05383 0.00599089 0)
(1.00156 0.00681222 7.4811e-22)
(1.0119 -0.0144019 -1.10489e-21)
(1.13617 0.0441689 0)
(0.990246 -0.00599221 0)
(0.896624 0.394823 -1.20272e-21)
(1.06396 0.0946743 -2.02515e-20)
(1.03106 0.00504361 0)
(1.13759 -0.0554705 -9.88475e-21)
(-0.0217161 0.930949 0)
(1.21996 0.158566 -1.24168e-19)
(0.187961 0.250863 -1.3512e-19)
(1.03039 -0.00240933 -2.60808e-21)
(1.08906 0.0455217 -6.69473e-21)
(1.0319 0.00285997 4.09418e-21)
(1.06959 0.0449062 -1.32186e-20)
(-0.370092 0.0604776 6.9899e-20)
(1.11375 0.081456 -5.24504e-23)
(1.13607 0.383092 0)
(0.719479 -0.00926004 5.81574e-21)
(0.366236 -0.553703 0)
(1.1419 0.0209918 1.51011e-20)
(1.01782 0.013009 4.31676e-21)
(-0.44416 -0.0760123 -4.48062e-20)
(1.06552 0.0400758 1.34813e-20)
(0.125142 0.155625 0)
(1.03105 0.0312977 5.08821e-21)
(1.00583 0.0166313 0)
(1.01453 0.257143 0)
(1.0074 -0.0115866 -2.81019e-21)
(1.00495 -0.00602766 0)
(1.17933 0.139708 -1.63471e-20)
(1.13625 0.104469 0)
(-0.52332 -0.0706101 1.77069e-19)
(-0.654204 0.452639 -3.02364e-19)
(-0.144132 -0.738794 -2.48605e-19)
(0.789104 0.752938 9.65828e-21)
(0.995986 -0.000561677 -1.51408e-21)
(0.988754 6.02487e-05 0)
(1.15387 0.0951153 3.39388e-20)
(0.286155 -0.00189767 8.98424e-20)
(1.12785 0.200681 0)
(1.00898 -0.0121164 0)
(1.07339 0.0120181 1.849e-20)
(0.904898 0.108226 0)
(-0.188908 0.0260488 1.13393e-19)
(1.01532 -0.00731166 -1.30305e-22)
(1.0503 0.000635881 -2.03647e-21)
(-0.707002 0.607179 0)
(-0.173842 0.207136 -1.44676e-19)
(1.17435 0.135366 0)
(1.06776 0.0441177 0)
(1.00196 -0.00353323 -1.67335e-21)
(1.03339 0.0312202 8.0626e-22)
(1.04005 0.0429658 -5.91963e-21)
(1.14364 0.0242762 -1.21999e-20)
(1.00085 -0.0029921 0)
(1.08677 0.0403156 3.07573e-20)
(1.0205 0.0194917 -9.82434e-22)
(0.221899 0.252685 2.12614e-19)
(0.999284 -0.00173111 -5.94583e-22)
(0.941647 0.0477378 5.19262e-21)
(0.506708 -0.245061 0)
(0.926004 -0.349542 -3.69375e-20)
(1.10786 -0.0185371 -5.81737e-22)
(1.00471 0.00300017 1.40432e-22)
(1.02218 0.0256593 0)
(1.17875 0.0476545 -1.72758e-20)
(0.675884 -0.136995 1.02387e-20)
(1.04251 -0.0294085 -1.22285e-20)
(0.787096 -0.0182583 -1.38009e-22)
(1.09698 -0.11944 0)
(0.691611 0.228888 2.12146e-21)
(1.01366 0.000894997 4.85096e-21)
(-0.207417 0.0422597 0)
(1.11061 0.0775047 1.54202e-20)
(-0.112795 0.533506 0)
(1.00398 0.00347346 0)
(-0.354845 0.110107 -2.56199e-20)
(1.03087 0.0158356 -4.74574e-21)
(1.02445 0.00579829 -4.48994e-21)
(1.00778 0.0155392 -1.34325e-24)
(1.09623 -0.0705722 -2.86015e-21)
(1.05028 0.000781301 0)
(1.00576 0.00976245 2.23776e-23)
(1.13556 0.0486869 -2.56954e-20)
(0.997612 -0.000394519 0)
(-0.492736 -0.107572 -1.49781e-19)
(-0.115296 0.581357 0)
(0.511856 -0.345873 0)
(1.00788 0.0472009 -1.52847e-22)
(1.00283 0.00134042 5.05003e-21)
(-0.336257 0.126608 0)
(1.01059 -0.0149133 0)
(1.00474 -0.0060049 3.79115e-23)
(0.654897 -0.149477 1.4335e-20)
(-0.524398 0.0308464 -3.82616e-20)
(0.805111 0.235698 -8.45272e-22)
(0.667508 0.161902 5.75503e-20)
(-0.383895 0.0555526 -2.95666e-20)
(1.11542 0.0373364 0)
(1.01292 0.000701377 -1.81102e-22)
(0.372242 -0.5449 -1.55055e-20)
(0.992894 -0.00079909 0)
(1.12226 0.0803283 0)
(-0.143242 0.443064 -9.22796e-20)
(1.01715 -0.00829217 1.20711e-23)
(1.0013 0.0157218 3.13277e-21)
(0.378072 -0.377522 2.36621e-21)
(-0.279671 0.131537 9.38974e-20)
(1.05691 0.00246123 1.2014e-20)
(-0.731106 0.694236 -1.52219e-19)
(0.992963 -0.000885821 0)
(1.15051 0.095282 6.88465e-22)
(1.1564 -0.00345561 4.50548e-21)
(0.856687 0.114373 0)
(0.937196 0.076006 -6.9945e-22)
(0.981513 0.109256 -5.55562e-21)
(0.996053 -0.000534585 3.11042e-21)
(1.1254 0.0925679 -1.00591e-20)
(1.11539 0.0479764 0)
(0.644395 -0.0311223 -9.86224e-21)
(-0.496623 -0.0499236 -9.64467e-20)
(1.04327 0.00830206 -4.33402e-21)
(0.589742 -0.0109531 3.48192e-20)
(0.97559 -0.124513 -3.19036e-20)
(1.30555 0.158375 0)
(1.00112 -0.00291231 0)
(1.0051 0.0158611 2.65709e-21)
(-0.337469 0.1436 0)
(0.998093 0.00100669 -4.73416e-22)
(1.03164 0.110855 0)
(0.808773 0.288413 4.09264e-21)
(1.09067 0.143201 0)
(1.00408 0.0131986 -1.04672e-21)
(0.504606 -0.221984 8.90087e-21)
(-0.126721 -0.100652 -2.05206e-22)
(-0.366592 0.764474 7.62891e-20)
(0.689083 0.256938 -7.20236e-22)
(1.13948 -0.0252646 0)
(1.0129 -0.0104858 0)
(1.00797 -0.0048817 0)
(1.04802 0.0512672 -6.9097e-21)
(1.02641 0.0049184 0)
(-0.346594 -0.0393666 6.49429e-22)
(-0.186655 0.187165 2.068e-19)
(0.950064 0.0426125 4.4567e-21)
(0.916797 0.0926616 -1.0717e-20)
(0.750241 0.280696 -1.01082e-21)
(-0.0222666 0.277864 -1.5792e-19)
(-0.369719 0.0818496 0)
(1.05691 0.00360725 2.35162e-20)
(-0.252428 1.03605 2.63061e-19)
(1.10891 0.0426122 -1.6611e-20)
(0.0785995 0.349244 7.0289e-20)
(1.18804 0.141812 1.88444e-21)
(1.12552 0.0660435 1.99586e-20)
(1.14697 0.0257843 0)
(1.09938 0.0212997 0)
(1.30011 0.360251 -6.32285e-20)
(0.843483 0.449764 0)
(1.00336 -0.0145263 5.90181e-21)
(-0.260591 0.253145 7.79086e-20)
(1.0806 0.386383 8.33743e-20)
(1.13393 -0.0215517 2.83372e-22)
(0.737738 0.232413 -2.66262e-21)
(1.15848 0.0969203 4.06668e-20)
(1.02795 0.110632 6.63449e-23)
(1.01235 -0.00946888 0)
(-0.200471 0.728948 4.68065e-20)
(1.00632 0.00987307 3.66441e-22)
(0.579457 -0.302997 2.47385e-21)
(1.01947 0.0285932 0)
(1.04779 0.00267609 0)
(1.06984 0.0211302 -8.641e-21)
(1.16794 0.0769977 6.92382e-20)
(-0.551276 -0.108761 0)
(1.05464 0.00547549 0)
(0.841356 0.442792 -1.52392e-20)
(0.960644 0.0285554 1.00849e-21)
(0.745728 0.320865 1.92882e-21)
(1.03015 -0.0133199 -1.81361e-22)
(0.993989 -0.00191994 0)
(0.57339 0.375394 0)
(1.02136 0.0194125 -2.17645e-21)
(1.02181 0.0193933 -2.17836e-21)
(-0.116449 0.403703 4.9233e-20)
(1.01336 0.0113019 -3.32798e-21)
(1.05217 0.0172703 1.01059e-20)
(1.09027 0.229848 -7.43767e-22)
(1.13885 0.0420403 1.48976e-20)
(0.998162 -0.00144432 0)
(0.812092 0.271724 0)
(0.101223 0.157387 -3.32827e-20)
(-0.542745 -0.109145 0)
(0.837406 0.733356 -2.61083e-20)
(1.00631 0.00533073 2.01137e-22)
(1.00253 0.00169156 0)
(1.15659 0.127856 -1.82858e-21)
(1.0678 0.153356 -3.30505e-20)
(-0.360643 -0.0676304 0)
(1.05212 0.0128913 0)
(0.369626 -0.355088 -4.21463e-23)
(1.02513 0.056286 3.8394e-22)
(1.13816 0.04766 1.34665e-20)
(0.163706 0.197176 -1.54202e-19)
(1.04216 0.00822328 1.33251e-20)
(1.01057 -0.0102441 -9.7438e-22)
(1.14176 0.0830684 0)
(0.988638 -2.44444e-05 1.09933e-21)
(1.01375 0.0127643 1.35906e-21)
(1.01864 0.0235534 0)
(0.961361 0.0361082 6.3941e-22)
(0.441762 -0.350229 -2.30135e-21)
(0.988403 -0.000261797 1.25221e-22)
(0.942427 0.465989 1.13379e-21)
(1.09043 0.341584 0)
(1.01004 0.221698 0)
(1.0867 0.086731 0)
(1.01287 -0.0118464 0)
(1.05229 0.0252583 6.14412e-21)
(1.04652 0.0497316 -7.58077e-21)
(0.693373 -0.183406 0)
(1.15086 0.237204 -4.8735e-21)
(-0.261715 0.411172 -7.36866e-20)
(-0.731078 0.54607 3.72313e-19)
(0.663019 -0.11247 2.98212e-21)
(1.01957 0.0279645 1.93362e-22)
(1.15614 0.0654892 9.53297e-20)
(1.29093 0.361085 -4.27348e-21)
(1.1863 0.043479 -2.83495e-20)
(1.1229 0.070512 2.13671e-20)
(1.08421 0.0375476 1.93711e-20)
(1.06371 0.0998159 0)
(0.938514 0.0634658 0)
(1.01872 0.0231512 0)
(0.267044 -0.631862 0)
(0.836416 0.29103 -8.9504e-21)
(0.989955 -0.000429678 0)
(1.15811 0.0603343 4.04725e-20)
(1.05076 0.0147406 -8.79169e-21)
(1.29827 0.143545 1.13595e-19)
(1.05708 -0.0455559 0)
(1.15075 -0.0132523 -5.37537e-22)
(1.15102 0.067605 -8.23985e-20)
(0.812339 -0.114457 -8.94028e-21)
(1.00963 0.0525759 0)
(1.11914 0.0239375 0)
(0.749498 0.159003 2.51627e-22)
(1.02199 0.0199427 4.5121e-21)
(0.864249 0.427957 0)
(1.02473 -0.0316909 0)
(1.07969 0.064165 1.06301e-20)
(1.12608 0.0921133 0)