/*--------------------------------*- C++ -*----------------------------------*\
| =========                 |                                                 |
| \\      /  F ield         | OpenFOAM: The Open Source CFD Toolbox           |
|  \\    /   O peration     | Version:  v2012                                 |
|   \\  /    A nd           | Website:  www.openfoam.com                      |
|    \\/     M anipulation  |                                                 |
\*---------------------------------------------------------------------------*/
FoamFile
{
    version     2.0;
    format      ascii;
    class       volVectorField;
    location    "300";
    object      ddtCorrDdt0(U);
}
// * * * * * * * * * * * * * * * * * * * * * * * * * * * * * * * * * * * * * //

dimensions      [0 1 -2 0 0 0 0];


internalField   nonuniform List<vector> 
14315
(
(0.00701356 0.0220845 -9.04635e-20)
(0.000686673 -0.000217051 0)
(0.0025405 -0.018798 1.89312e-21)
(0.00222398 -0.0262244 -7.98537e-21)
(-0.00632337 0.0256212 -2.54675e-20)
(0.000349991 0.00337046 6.17069e-21)
(-0.000139263 0.000201127 -1.63357e-21)
(-0.00291818 -0.00565759 0)
(0.00493808 -0.00871714 6.47197e-21)
(-0.00313881 -0.000748833 -8.01927e-22)
(0.0761066 0.209023 1.87465e-21)
(-0.000411684 0.000208495 4.8561e-21)
(0.0029413 0.016253 -4.52623e-19)
(-8.64109e-05 2.50603e-06 -2.13387e-21)
(-0.00133686 -0.000266966 2.16243e-20)
(-3.36756e-06 -3.34129e-06 -2.94574e-21)
(-0.0023757 0.00242481 -4.85051e-21)
(-0.000106606 0.00021711 6.7142e-21)
(-0.00632634 -0.00398241 0)
(-0.00696785 -0.00152386 0)
(0.000216779 -0.000246446 -1.59062e-22)
(-0.000417132 0.00664594 0)
(-0.00262669 -0.00401314 6.82162e-22)
(-0.000550014 0.000208278 -4.95531e-21)
(-0.0336024 -0.0647779 4.04067e-21)
(0.000595335 -0.000248378 -3.74886e-22)
(-8.22995e-05 -9.16271e-08 0)
(-0.000168351 0.000212896 1.63591e-21)
(-0.00476056 -0.0110654 4.86668e-21)
(-0.00279735 0.00136391 -1.00665e-18)
(-3.40334e-05 -0.000437146 -3.16323e-21)
(0.000207812 0.000308753 -2.65834e-21)
(2.07797e-05 6.50869e-05 -4.48134e-21)
(-0.000573208 -0.00772096 -4.97541e-21)
(-0.00262414 0.00236994 1.45937e-20)
(-0.00540367 0.00409462 1.43745e-20)
(-0.0197394 -0.0232613 -2.52314e-20)
(-0.00314431 -0.0079732 1.78904e-20)
(0.000931237 -0.00290597 -1.99733e-18)
(-0.0381137 0.0540963 9.72782e-22)
(-0.00024767 0.000162434 1.27605e-20)
(0.00932376 0.00557316 -2.39852e-20)
(-0.00016607 -0.0011283 -1.77841e-22)
(-8.12037e-06 1.44182e-05 -4.56634e-21)
(0.00201039 -0.000560478 -1.34679e-21)
(-0.0534875 0.0389421 -4.786e-21)
(0.00379464 0.00160862 -1.25594e-20)
(-0.000733439 0.00020071 0)
(-0.000656329 0.000196309 0)
(-0.000335088 0.00067024 -4.90206e-21)
(-0.000444536 -0.000239637 3.03531e-20)
(-0.0114505 -0.00991526 -9.52949e-21)
(-0.00144102 -2.23282e-05 0)
(-0.000705358 -0.000366663 0)
(-0.000339773 -0.00304414 -8.85373e-23)
(-0.00464193 0.00505417 -1.90575e-20)
(0.0643756 0.0418302 -1.56011e-19)
(-0.000386099 0.00126084 -1.34784e-21)
(0.00037553 0.000795391 1.06374e-21)
(0.00319031 -0.00821413 -1.97777e-20)
(-0.00199729 0.0078504 -6.97347e-19)
(-0.000958135 -1.30734e-06 6.96286e-22)
(-0.00336557 0.00604263 0)
(1.61903e-05 0.001038 1.93177e-22)
(-0.00321117 -0.00418046 -1.10216e-21)
(0.0186972 0.0178884 1.29458e-19)
(0.0093786 0.0233183 -8.46532e-21)
(9.52767e-05 -1.89508e-05 2.40656e-21)
(-5.60025e-05 -0.000583598 -1.36881e-21)
(-0.000860823 -0.00340913 2.4967e-21)
(-0.000588094 -0.000373167 -1.60451e-20)
(-0.00194735 0.00964843 0)
(-0.00294248 0.00254563 -1.45453e-20)
(0.0136139 0.00938198 -4.69579e-20)
(-0.000133536 0.000456449 0)
(-0.00350412 -0.0295072 0)
(0.000935002 0.00190214 -6.75615e-21)
(0.00309942 -0.0095098 2.38994e-21)
(0.00317394 -0.00811239 -4.06553e-22)
(-9.18511e-05 0.00131218 1.53839e-21)
(3.34035e-06 -2.83066e-05 0)
(0.00214728 0.00204643 -1.32164e-20)
(0.00577763 0.00376046 4.63603e-21)
(0.00123948 -0.0105041 1.9274e-21)
(1.21176e-06 -0.000953464 0)
(0.000128043 0.0027406 3.12804e-21)
(-0.029336 -0.0279077 0)
(-0.000110821 8.0408e-06 0)
(-0.00135703 -0.000222522 -2.28158e-20)
(0.0444204 0.0908269 -3.58415e-21)
(-0.000600775 0.000258516 3.94247e-21)
(-0.00754039 -0.0360654 -1.92806e-20)
(1.41663e-05 8.73582e-06 0)
(0.000695436 -0.000848401 -1.60662e-21)
(0.000575851 -3.64889e-05 -6.79605e-21)
(0.000896008 1.73169e-05 -3.29537e-21)
(0.000487895 0.000746499 0)
(0.000769113 -0.000924421 0)
(-0.000205202 -0.000281261 -1.38404e-21)
(-0.000408625 -0.00697669 -3.74829e-19)
(4.44376e-05 -0.000143197 -2.64207e-21)
(-0.000813198 -0.000240951 0)
(-0.00423624 0.0053444 6.70599e-21)
(-3.68898e-05 2.5677e-05 1.93049e-21)
(0.0325721 -0.0516501 0)
(-0.0121626 0.0077982 -6.26222e-19)
(-0.00152834 -0.000153704 0)
(-0.000479287 0.00106292 -2.90369e-22)
(-0.00106871 -0.00197789 0)
(0.00230961 0.00940033 -7.78948e-21)
(0.000876118 6.10197e-05 1.85676e-21)
(3.51425e-05 6.08501e-05 -1.50771e-22)
(-0.00160196 -4.66445e-05 0)
(0.000354604 -0.000971945 1.23864e-21)
(-0.0013263 -0.00451125 0)
(-0.000183751 6.44839e-06 2.90539e-21)
(0.000148492 0.000194283 -6.10083e-22)
(-0.0013886 -8.49727e-05 2.16455e-20)
(5.10095e-05 -0.00136007 2.62764e-20)
(-0.000207077 -7.78765e-06 1.7455e-21)
(0.00284819 0.00790225 -5.68234e-21)
(-0.000624459 -0.00207414 0)
(1.526e-05 -2.65041e-05 1.38696e-21)
(0.000681962 1.15624e-05 0)
(0.00225803 0.00239059 -5.88929e-21)
(4.53219e-06 1.01136e-05 2.58162e-21)
(0.0132576 0.0245368 -3.02355e-20)
(9.48238e-05 3.86976e-05 2.14622e-21)
(-9.22454e-05 -0.000850959 4.05669e-21)
(-0.00105897 -0.0178595 7.81953e-20)
(-0.000109033 -0.000108016 -3.68258e-22)
(0.00312254 -0.00317545 -7.07491e-21)
(-0.107565 -0.00658187 -8.91888e-20)
(-0.000223002 -2.58879e-05 0)
(-0.00109551 0.0124082 4.19246e-20)
(0.000137057 -0.000541805 -2.59923e-21)
(-0.000600125 0.00163602 -1.71752e-21)
(0.000437618 0.000484732 2.09202e-22)
(-0.000286778 0.000367773 -2.42177e-23)
(-2.56085e-05 0.000480074 0)
(0.000369206 0.000473921 1.30951e-22)
(0.000374909 -4.87891e-05 -9.72935e-21)
(-4.84291e-05 0.000100502 0)
(0.000694222 -0.00110086 -4.47245e-21)
(-0.00154287 0.0264454 0)
(-0.000166723 -0.000174894 1.48741e-21)
(0.00897782 0.017352 1.38982e-20)
(0.00248145 0.0112214 -1.44764e-20)
(0.000121166 0.00457942 -1.57236e-20)
(0.0216664 -0.0115809 0)
(0.00397056 0.00848998 9.31894e-21)
(-0.000625911 -0.000122674 3.42353e-21)
(0.000133843 -0.000998547 -1.01844e-21)
(-0.00131431 0.0014702 -1.69877e-20)
(0.00484441 -0.031644 2.06386e-22)
(-0.00146004 -9.4085e-05 -2.02142e-20)
(0.000179617 -0.000749992 1.0388e-20)
(1.3898e-05 4.48359e-05 0)
(0.000391943 0.00114241 -5.83613e-21)
(0.000563994 0.00032255 4.57419e-22)
(0.000503905 0.000138808 8.49002e-23)
(-0.000540832 -0.00023776 -2.66086e-20)
(-0.00338349 0.00113564 0)
(0.000380256 0.000162305 -9.75022e-21)
(0.000731742 -0.00699431 0)
(-0.000346129 0.00116978 0)
(-0.00016313 -5.03031e-05 -2.01278e-21)
(0.00336573 -0.0512096 0)
(0.00949827 0.015154 5.64085e-22)
(0.0026876 -0.00282966 0)
(0.00036014 -0.000211482 -6.82803e-21)
(1.55515e-06 7.75306e-07 8.24872e-23)
(-0.00010071 5.30684e-06 -2.98109e-22)
(0.00117636 0.00108589 2.26051e-21)
(-0.00281897 0.00713016 7.67721e-21)
(-0.0429686 -0.0128131 3.87897e-20)
(-1.55708e-05 2.68197e-05 9.51677e-22)
(-0.00192837 0.00676408 0)
(-0.000356503 0.00466665 -3.50921e-21)
(-0.000103237 -9.4889e-05 1.08883e-22)
(0.0113857 0.0597544 -6.15228e-21)
(-0.00345068 0.00300315 0)
(-6.7659e-06 -6.46481e-05 -2.61731e-21)
(-0.00787397 -0.00226309 -5.20729e-21)
(0.00069719 -0.00750747 -3.23226e-20)
(0.000201042 -0.00542506 -1.79654e-20)
(-0.0529897 0.0217061 3.30178e-20)
(-0.00794773 -0.00567412 6.25676e-22)
(-0.00365449 0.00204172 1.6868e-21)
(-0.000871336 0.0013717 0)
(-0.0103319 -0.000677086 1.88535e-20)
(5.45322e-05 -0.0343517 1.72674e-20)
(-0.000173941 -8.64364e-05 -3.88604e-21)
(0.00633504 0.0365937 2.21951e-20)
(2.6669e-05 3.8595e-05 -1.39802e-21)
(-0.0011181 0.00478529 0)
(-0.000153797 0.00424997 -1.5481e-19)
(-0.000668776 0.00309846 -3.83194e-21)
(4.22303e-05 0.000193915 -1.65962e-21)
(-0.0089428 -0.0338722 -5.99305e-21)
(0.000506921 -5.02823e-05 -2.17943e-21)
(-0.000494095 0.000951608 -5.84849e-21)
(0.000403353 0.000135629 1.80789e-20)
(-0.000184688 -9.06322e-05 3.24302e-21)
(-0.000402532 0.000479369 -1.39984e-21)
(0.00035028 0.00272547 -8.24118e-22)
(-0.0027057 -0.00740476 0)
(-0.000217016 0.00652784 0)
(1.0266e-05 4.48156e-05 -1.2901e-21)
(0.000234919 -0.000254044 -4.49202e-21)
(-0.000757843 0.00257874 -8.50392e-21)
(-6.6006e-05 -0.000782495 -2.02754e-21)
(0.000359921 -6.3385e-05 8.12992e-21)
(-0.000479929 -0.000486343 -9.22339e-21)
(5.03049e-05 -3.34509e-06 0)
(0.000918334 -0.000986759 0)
(0.0076287 -0.00577445 -1.65534e-21)
(-0.000239534 -0.000291776 0)
(2.7618e-05 -8.76356e-06 1.06472e-21)
(-0.000429775 0.0166095 -9.1635e-21)
(0.00104734 0.00474035 7.23051e-21)
(0.000354517 0.00055823 -3.14145e-21)
(-0.00161041 -0.00115281 3.36596e-21)
(0.00268549 0.0033509 3.47866e-21)
(-0.00120808 0.000305451 -5.51552e-22)
(0.00285081 -0.00136352 -1.36301e-21)
(-4.25744e-05 5.10385e-05 0)
(-0.00695552 -0.00525978 1.45665e-21)
(-0.00336244 0.00205231 2.55276e-21)
(0.0315475 0.0299578 -8.42481e-20)
(-3.78973e-06 -2.79144e-05 0)
(0.000927304 -0.00322736 -2.57801e-21)
(0.00413677 0.00917315 8.77621e-21)
(8.98159e-07 1.84466e-06 -4.50899e-21)
(1.82257e-05 -0.000104378 0)
(0.0182559 0.0279271 -3.64988e-21)
(-0.00403002 -0.00251766 -8.65246e-22)
(0.00286937 0.0159923 0)
(-0.00198868 0.00299346 7.02738e-21)
(0.00133964 0.00111341 0)
(0.00096998 -0.00182395 2.26805e-21)
(-0.00285632 -0.00770427 -2.31174e-21)
(-0.0220848 -0.0135903 6.94611e-20)
(-2.59633e-05 -4.31934e-05 -4.21916e-22)
(-0.0330886 -0.00665244 -3.64787e-20)
(0.00693519 0.0382824 4.1576e-20)
(-0.00360045 -0.00205313 -3.64934e-21)
(1.9012e-06 -2.29076e-06 -4.04677e-21)
(0.00140455 0.00128298 0)
(-0.00845667 -0.00231331 -6.69054e-21)
(-6.42473e-06 4.09564e-06 0)
(-4.15226e-05 3.44688e-05 -1.9143e-21)
(-0.00169255 0.00445326 3.00429e-20)
(0.00540061 0.000482244 -1.21515e-20)
(0.000315455 0.000430751 -4.15036e-21)
(-0.000512543 -0.000409505 0)
(0.000848694 -0.00255618 -1.01883e-20)
(0.000741637 0.000218517 -4.16798e-24)
(-0.000578127 0.00150536 7.21686e-21)
(0.00173995 0.00198 8.58257e-21)
(0.0117529 0.0630011 -3.95846e-20)
(-0.000731649 -0.00203582 1.27012e-21)
(0.000676728 5.49977e-07 -1.58626e-22)
(-0.00575173 -0.0124448 0)
(-0.000729461 0.00168499 -5.47033e-22)
(-0.00051222 -0.00441835 1.43405e-20)
(-0.0121292 0.0088547 1.15349e-20)
(-0.00250786 -0.000323554 -4.28886e-21)
(-0.000522154 0.000559514 -3.54339e-21)
(-0.00194882 -0.000270749 0)
(0.000687259 0.000167782 5.01201e-22)
(-9.79505e-05 -0.00314118 0)
(-0.000751618 0.00235704 0)
(-0.000183886 3.22995e-06 -3.42271e-21)
(0.00268056 0.0108936 0)
(-0.00220766 -0.000302507 0)
(-0.000207015 -2.40988e-05 -1.82643e-21)
(-0.000502692 -0.0100205 0)
(0.000122787 0.00130536 0)
(-0.00069996 -0.00222525 -8.82247e-21)
(-0.000225827 -0.00206187 -2.73982e-21)
(-0.001105 -0.00329803 5.86232e-21)
(0.00160325 0.000379845 0)
(0.00136957 0.00179471 -1.38029e-20)
(0.000619253 -0.00136222 0)
(0.000212126 0.000173521 0)
(-0.00291991 0.0060605 0)
(-0.0018555 0.000287884 -2.64437e-22)
(-0.000221042 -1.98128e-05 0)
(-0.0021373 0.000613796 0)
(0.000375129 0.00880203 -5.59868e-21)
(-0.00469426 0.000910635 3.01325e-20)
(-0.000139564 -0.00011478 -3.81141e-21)
(-2.469e-06 0.00152974 2.8596e-21)
(-0.00678712 -0.000804391 3.04217e-21)
(-0.000139642 -0.00549451 -1.46546e-21)
(-0.000178648 0.00103319 2.55867e-21)
(-0.00182031 -0.00787682 7.07094e-21)
(-5.79246e-05 -0.000227425 -8.31498e-21)
(6.42697e-05 -0.000270521 0)
(-0.00102761 6.6511e-05 5.00735e-21)
(-0.00359749 -7.00082e-05 2.05337e-20)
(5.08972e-05 0.0123146 1.24989e-20)
(0.000478799 3.43059e-05 3.53879e-22)
(1.53105e-05 -0.00124013 -6.13777e-21)
(0.000112609 -0.00017446 -5.00722e-22)
(-0.000135702 -0.000124672 0)
(-0.00153959 0.00626601 -8.97731e-22)
(-2.38935e-05 5.03847e-05 -3.72358e-21)
(3.6264e-05 7.87184e-05 1.44968e-23)
(-0.00100635 -0.0070145 0)
(-2.18054e-05 1.07404e-05 0)
(0.00115622 -0.000493086 -2.24348e-20)
(0.0008988 0.000304918 -2.30617e-21)
(0.00190612 -0.0516858 2.73421e-21)
(-0.00848573 0.000227195 3.24751e-21)
(4.74497e-05 -0.000739472 1.93874e-21)
(-0.00370052 -0.00195459 -4.97245e-23)
(0.00133788 0.000751361 0)
(1.12448e-05 2.5608e-06 0)
(0.000537508 -1.59314e-05 1.11619e-20)
(-0.000226064 -0.00556773 -1.99838e-21)
(0.000264682 -0.000285711 4.10067e-21)
(-1.17195e-05 0.00126446 1.55007e-20)
(0.00919886 0.0125788 -4.27197e-20)
(4.0138e-05 3.78141e-05 2.96463e-21)
(-4.91819e-05 0.00109021 -4.34987e-21)
(-0.00685734 0.0145082 0)
(-0.0429811 -0.11603 -4.23427e-21)
(2.07912e-06 5.04388e-05 2.90838e-21)
(-0.00343106 -0.000754949 3.29681e-21)
(-0.000104355 3.19519e-05 1.97361e-22)
(6.4011e-05 0.000280872 -6.36611e-21)
(-0.00223731 0.00263773 -7.6877e-21)
(1.62836e-05 0.0057044 0)
(6.56256e-05 0.000269119 0)
(-0.000136265 -0.000130036 2.75584e-21)
(-0.00105341 0.00465579 -2.01406e-20)
(-0.00237872 0.00398655 -1.44572e-21)
(-0.000314746 -0.000129809 -1.7522e-21)
(-0.00103335 0.00317399 -3.83344e-21)
(0.00219713 0.00734543 2.87517e-21)
(1.15927e-05 6.96779e-05 -3.90645e-21)
(1.54152e-06 8.62833e-07 2.51219e-21)
(0.00780317 -0.005561 -1.00147e-20)
(3.06576e-06 -8.2088e-06 -2.94141e-21)
(7.22995e-07 -5.38686e-05 -1.647e-21)
(0.214445 -0.026866 0)
(0.000110014 0.0178531 -8.0667e-21)
(0.000808112 -0.000126887 3.4351e-21)
(-1.7327e-05 2.01195e-05 -2.1819e-21)
(0.00013284 -0.0017847 -8.92633e-22)
(-0.000224104 -0.000141223 0)
(-0.000197393 -2.55292e-05 2.37485e-21)
(0.0487596 -0.0160752 -1.38011e-18)
(0.000209703 0.00105426 0)
(-0.000296618 0.00145956 0)
(3.17712e-05 -1.03043e-05 0)
(-6.55191e-05 -5.68598e-05 -2.21861e-21)
(-0.00204185 -0.000195892 -3.08164e-21)
(0.000564267 0.000919731 1.07718e-20)
(-0.000905847 0.00164939 0)
(0.000493323 0.00863034 3.61163e-23)
(-0.000974886 0.00161877 7.27039e-22)
(0.00419947 -0.00543112 -2.04985e-21)
(-0.00159085 0.000207168 1.67934e-20)
(-0.000112895 9.77805e-06 2.08481e-21)
(-4.28306e-05 -5.63071e-05 -7.05974e-22)
(0.00151134 0.000445266 -3.0986e-21)
(0.00112014 0.00318209 -4.03926e-23)
(-0.00337389 -0.000805928 -2.05123e-20)
(0.000469125 0.00114215 0)
(4.70593e-06 -9.44333e-05 2.18022e-21)
(-0.00255417 -0.000174261 0)
(-9.72551e-05 3.6113e-05 3.73279e-22)
(-0.00192812 0.0134541 -1.04499e-20)
(0.000173637 0.00652032 0)
(-6.6542e-07 0.000324565 0)
(-1.88703e-05 0.000125316 0)
(0.00414262 -0.000669046 2.58104e-20)
(0.000782724 4.25226e-05 1.89597e-20)
(-0.00440681 0.00862837 0)
(5.6869e-06 -6.37303e-07 3.01581e-21)
(-0.00161245 -0.00239997 1.06055e-20)
(0.00191872 0.0433825 0)
(-0.000323017 -1.93919e-05 0)
(0.000527884 0.00397875 -1.72698e-19)
(-0.000473021 -0.000476199 -1.44103e-22)
(-0.000348743 -3.417e-05 5.15586e-22)
(-0.000505137 -0.000862878 5.11725e-22)
(-0.000609699 -0.00841177 -2.54618e-22)
(0.000279036 0.000130745 0)
(-0.00200405 0.00440119 2.63553e-21)
(0.000786989 -0.00768588 5.47247e-21)
(0.000874481 0.000221997 -9.84666e-22)
(-0.000329406 -0.000158353 1.81385e-21)
(0.0105315 0.00980172 -5.62103e-20)
(1.75304e-05 7.52569e-05 1.43765e-21)
(-0.00171217 -0.00341519 -8.64494e-21)
(-0.000117898 -0.000290902 -6.84578e-22)
(-0.000956342 0.00861377 2.04044e-21)
(0.000635537 -0.00580052 6.97703e-21)
(3.34895e-05 0.000367564 2.00933e-21)
(-0.000818641 -0.000125001 8.0528e-22)
(-0.000326586 -2.47114e-05 2.63334e-21)
(-0.000165083 0.00375464 0)
(-0.000111548 -0.000159314 -9.22532e-22)
(-0.00999716 -0.00493884 0)
(-0.00080175 0.00166972 0)
(0.00200972 0.0211306 0)
(1.6561e-05 -0.000210268 2.80828e-21)
(-0.000105242 -0.000332337 1.87388e-23)
(-0.00147267 -7.70863e-06 1.96965e-20)
(-0.000527983 -0.00320332 9.46587e-21)
(-0.000126891 0.000734993 0)
(2.98722e-05 8.60054e-05 0)
(0.00223536 -0.00439098 2.92648e-19)
(0.00106912 0.00108995 1.17334e-20)
(-1.12299e-05 -1.20671e-05 0)
(-0.0504443 -0.135061 -1.45848e-19)
(-0.000706775 -0.00238131 0)
(-0.000338317 -0.00718699 -9.32958e-21)
(0.00886819 -0.0104128 0)
(0.00329685 0.00819405 -7.53178e-21)
(0.00012086 -0.000574164 -1.09339e-21)
(0.000433399 -0.0010929 -1.51347e-20)
(0.000440642 -0.000962212 -2.24598e-20)
(-0.0033489 -0.00445791 7.90411e-21)
(-0.00551458 0.00446154 -1.93128e-20)
(0.000820454 -0.00328863 -5.8601e-21)
(-0.000503011 -0.000645658 -2.62816e-20)
(0.000487612 0.000370559 0)
(2.86867e-05 0.000176755 -1.45605e-21)
(-0.00280342 -0.0112115 1.11552e-20)
(-0.000924451 -0.00201165 0)
(0.000645098 0.00379892 -8.34623e-20)
(0.00419283 -0.0149542 -3.22464e-21)
(0.000163222 -0.000267847 3.10254e-21)
(-0.00961167 0.0253065 -8.07928e-21)
(2.61559e-05 0.000451958 7.85844e-21)
(0.00969457 0.0139923 1.64346e-20)
(0.000195545 0.000717735 0)
(-0.000112309 3.78785e-05 0)
(-0.000135972 -0.000296192 7.1123e-22)
(0.00696523 0.00468278 -4.97209e-21)
(0.000819816 0.00210386 -8.65984e-21)
(0.0171504 0.13278 0)
(0.000349055 -0.00129262 1.74815e-20)
(-5.31483e-05 0.000234134 0)
(0.000471968 -0.00363576 -3.88834e-22)
(-0.169362 -0.217735 0)
(0.000296651 -3.10492e-05 -2.3718e-21)
(-3.23089e-05 0.000754218 7.93831e-23)
(-0.000521664 0.00905531 3.44151e-21)
(-0.00143056 -0.00118189 -7.05322e-21)
(0.000644357 -5.65646e-05 8.08819e-21)
(0.00514477 0.0162486 0)
(0.00116254 -0.000754008 0)
(-0.000102992 -0.000372223 -8.11704e-22)
(-0.00088014 -0.00258654 0)
(-0.0001303 0.000828459 -1.26106e-21)
(0.000791946 0.000507864 1.25007e-21)
(-0.00142541 -0.000209618 5.17399e-21)
(0.00519409 -0.00366809 2.64889e-21)
(-0.000338877 -4.60457e-05 -3.5065e-21)
(-0.00072748 -0.0119885 2.14038e-21)
(0.000810867 7.48466e-05 0)
(0.00416289 -0.0167419 -4.97152e-22)
(0.000391777 0.000208303 -6.09343e-21)
(-0.000128498 -0.000109003 0)
(0.000371208 0.000452773 2.75387e-21)
(-0.0010611 0.00198843 0)
(0.000828126 -7.44686e-05 -4.01597e-21)
(0.000159554 -0.00471343 -3.60169e-21)
(0.000480113 -3.07243e-05 -1.24963e-21)
(0.00103424 0.00528824 -2.20156e-22)
(-4.74776e-05 -5.03877e-05 0)
(0.00106154 -0.000481454 -2.61438e-21)
(0.000876282 -6.53205e-05 3.3386e-21)
(0.000320096 -5.13266e-05 0)
(0.0019282 -0.0119857 1.90573e-21)
(0.00728505 -0.000506134 2.90264e-20)
(-0.00249273 -0.00500709 0)
(-0.000113275 -2.46893e-05 -4.15055e-22)
(0.000823465 0.0010262 0)
(-0.0117564 0.0717566 2.30938e-21)
(2.46789e-06 -0.000106595 0)
(-0.00030257 -0.00012112 2.30173e-21)
(-0.0011704 -0.0082626 2.29925e-20)
(0.00581617 0.0118844 0)
(4.79462e-07 1.6528e-06 -4.31094e-25)
(0.00825354 0.0392357 7.39286e-21)
(0.00137981 -0.00046848 -2.79224e-21)
(0.00586686 -0.0769622 0)
(2.22399e-05 -0.00184009 0)
(-0.000155121 -0.000157503 -3.8182e-22)
(-0.000146236 0.000106645 -1.62919e-21)
(-0.00186367 -0.00593139 0)
(0.0070626 -0.001313 0)
(0.000292946 0.000526021 0)
(0.0118947 0.0160543 7.41213e-21)
(-0.000816683 0.00306475 -6.14947e-21)
(0.000552158 0.000185673 -1.14185e-20)
(0.00281708 -0.00252898 4.16897e-21)
(4.21871e-05 5.31098e-06 -3.98309e-23)
(-3.69475e-05 0.000642622 0)
(-0.00648744 0.0109374 0)
(-0.0132805 -0.0139703 -2.33886e-21)
(0.000892552 -0.00236018 0)
(9.76118e-05 -0.000102711 -6.26188e-21)
(0.000815377 0.000382649 9.88317e-22)
(0.00128568 -0.000740459 0)
(0.000383532 -0.00178083 -2.49009e-21)
(0.000926886 -0.00144261 0)
(0.00115809 0.00383051 -2.26993e-23)
(-0.00129846 -0.00649479 -1.56788e-21)
(-0.0125428 -0.0862186 0)
(-0.00031137 -0.00014789 -1.93379e-21)
(0.00745233 -0.00619624 4.1159e-21)
(-0.0166089 -0.0952308 2.50866e-19)
(0.00052893 0.000220432 -4.27887e-21)
(0.00127909 -0.00506486 -4.06525e-20)
(-0.000855469 8.9127e-05 -3.22521e-21)
(0.00601053 0.00547685 -3.16278e-21)
(0.0176438 -0.0350237 2.97419e-20)
(0.000859107 3.83062e-06 3.81368e-21)
(0.000622214 -0.000481333 -2.35828e-21)
(-0.00013764 3.16273e-05 6.44313e-22)
(-0.00382085 0.0257905 0)
(5.48883e-05 -0.000251487 0)
(-5.42391e-05 -0.000215527 -8.2916e-22)
(0.00434282 -0.00211116 0)
(9.32979e-05 -1.95969e-05 6.51926e-21)
(-5.58572e-05 2.63191e-05 -4.49828e-21)
(0.00638154 0.0182845 7.2964e-21)
(-0.00141908 -0.00014927 3.23295e-21)
(-0.000328776 0.00038639 3.67523e-21)
(0.000457848 0.000217133 -8.90424e-22)
(-0.00414741 0.0109963 -1.54208e-19)
(-0.000120749 6.67932e-05 -3.14615e-21)
(-0.000302413 0.00134542 0)
(0.000727017 -0.00030063 2.26362e-21)
(-0.000218479 -5.42601e-05 1.27563e-21)
(0.00087842 -0.000122219 -7.00066e-22)
(0.000584833 -0.000850126 6.32368e-21)
(0.000866957 -0.0054611 -1.10984e-20)
(-0.00239621 -0.000731579 -4.5506e-21)
(0.00262244 0.00501868 0)
(-0.00246473 -0.00294696 4.87307e-21)
(-0.000197277 -3.44078e-05 2.53396e-21)
(-9.33177e-05 -0.00115628 4.18915e-21)
(0.00127997 -0.00565989 2.52275e-21)
(0.000193404 -8.38513e-05 0)
(0.00408452 0.00949741 -5.26846e-20)
(0.000177783 0.000611586 0)
(0.00817127 0.0148522 0)
(0.0117562 -0.0119652 -5.61424e-21)
(9.05916e-06 0.000107239 5.35221e-21)
(0.000205448 -0.00148218 0)
(0.00444626 0.00103519 6.09511e-21)
(-0.000111677 3.36753e-05 0)
(-0.0034016 -0.00135107 -8.98252e-21)
(-0.000153711 -0.000121564 0)
(-0.00728452 -0.0164557 -1.48078e-19)
(0.015605 0.00743589 2.6543e-20)
(0.00322593 0.00148464 -3.87202e-21)
(2.37978e-05 0.000246627 -5.35615e-22)
(-0.000324601 0.000176498 0)
(-0.000994465 0.00267504 9.32153e-22)
(-0.000108523 -0.000732524 0)
(-0.000248706 0.0151927 1.14381e-20)
(2.72597e-05 0.000104192 4.30143e-21)
(0.000592171 0.000214091 1.24782e-20)
(0.00559315 0.00229152 0)
(-0.00199779 -0.000549221 -4.07949e-22)
(-3.14757e-05 6.65101e-06 9.84857e-24)
(-0.00109899 0.000110813 -4.85013e-21)
(0.000445666 -0.000120658 0)
(-0.0410665 -0.537268 1.53718e-19)
(-9.35597e-05 6.69928e-05 0)
(-0.00168653 0.000296206 4.64487e-21)
(0.00270037 -0.0838705 0)
(-1.58391e-05 -0.000225891 0)
(-0.0142208 -0.0200787 1.47637e-20)
(-4.86659e-05 5.66353e-05 1.92178e-21)
(-0.0020332 -0.00656677 7.25073e-21)
(-2.51102e-05 -1.01636e-06 -3.33377e-21)
(0.000490353 0.000704169 -1.97175e-21)
(0.0108205 0.00369824 -3.4716e-19)
(-0.00235042 -0.00799462 -1.11731e-21)
(-0.000110021 -3.7023e-05 -7.34335e-22)
(0.000152284 -0.000953523 1.41608e-21)
(-0.00387576 0.00605734 4.8362e-21)
(-0.00538372 -0.00840528 4.05294e-22)
(-0.00303488 -0.000142755 1.84725e-22)
(4.5962e-06 8.95123e-05 0)
(-0.000340002 -0.0091807 1.99398e-21)
(0.000544498 -0.00735997 1.56405e-21)
(0.000626319 3.77345e-05 0)
(-0.000214182 -3.74817e-05 -1.46932e-21)
(0.00188269 0.00483545 4.7476e-21)
(0.000150964 0.00303992 0)
(-0.00163621 0.000976128 -1.59611e-20)
(0.0165058 0.0369054 0)
(-0.000305376 0.000409602 2.24399e-21)
(-7.60176e-05 -0.000268112 -1.63684e-21)
(-0.00128323 0.00922291 2.37503e-20)
(-0.000482883 -0.00118011 7.87662e-21)
(-0.00174259 -0.0038932 2.39391e-21)
(-0.0488864 -0.527464 -2.27039e-19)
(-0.000169954 -4.80341e-05 2.31359e-21)
(0.0022501 -0.00279571 2.87566e-21)
(-0.000210896 -7.02117e-05 -1.25329e-21)
(5.68655e-05 -2.05044e-05 -2.34213e-21)
(0.0108973 -0.263704 2.75094e-20)
(0.00120953 0.00314182 -3.87806e-21)
(-0.00300291 0.0078954 4.91866e-22)
(0.0123167 0.0257745 3.52904e-20)
(6.59473e-05 -0.000553737 -3.19165e-21)
(-1.20158e-05 -2.36312e-05 2.36602e-21)
(-1.21611e-05 0.00472842 8.95054e-21)
(-0.000906082 0.00337107 2.38959e-21)
(-0.00395614 0.000486012 -1.55105e-20)
(0.00312787 0.00219664 6.24273e-22)
(-7.02358e-05 -4.82107e-05 4.50755e-23)
(4.47636e-05 -9.22258e-05 -5.4051e-21)
(0.000102671 0.000538419 -5.13251e-22)
(-0.000350969 -9.17716e-05 0)
(0.00877347 0.0359835 0)
(0.000354542 -0.000306991 0)
(-3.11256e-05 -2.01895e-05 -2.25524e-21)
(-0.00645641 -0.017191 3.68065e-21)
(0.000146764 -5.88107e-05 -9.81199e-21)
(1.15715e-05 8.45594e-05 -1.68666e-22)
(-0.000164233 -0.000137902 -4.18808e-22)
(-1.86306e-05 -8.34347e-05 3.3065e-21)
(-0.000194014 -0.000172569 -1.38408e-21)
(-0.00477191 0.000298056 -7.00859e-21)
(0.00303768 -0.00479931 -1.87912e-21)
(-3.69895e-05 0.0012571 3.85127e-21)
(-0.000184013 0.000119932 -4.39566e-21)
(0.000111277 -0.00234894 1.26444e-20)
(0.000703912 -0.000691956 -2.5717e-20)
(-0.000794668 0.000845223 0)
(-2.26614e-05 0.000818237 1.01913e-22)
(-0.000198923 -4.63584e-05 9.98534e-22)
(0.00483054 -0.00746562 6.19575e-21)
(0.000232312 0.00141065 -7.89005e-22)
(7.59449e-05 0.000131109 0)
(0.000962686 0.00459539 3.49925e-21)
(0.0717723 -0.0422133 -1.97307e-20)
(-0.00839307 -0.0176082 0)
(-0.0002999 -9.45547e-05 0)
(-0.0031118 -0.0031088 -1.60347e-22)
(0.00153188 0.0100425 0)
(-0.0139967 -0.00808323 7.52535e-19)
(-0.00331759 -0.00668706 0)
(-0.000483405 -0.0028568 0)
(-0.00461379 0.0149192 3.07628e-19)
(0.000228837 -7.44851e-05 -8.23584e-22)
(-0.000473501 -0.000401847 0)
(0.00180267 0.00466164 5.28703e-22)
(-0.000800345 0.00371061 1.09604e-21)
(-0.00776283 -0.000455204 0)
(-0.00185466 -0.0027837 2.98321e-20)
(-0.00107919 -0.00669725 -2.84967e-20)
(-1.52811e-05 -1.97708e-06 7.12433e-21)
(0.00593582 0.0230489 0)
(0.000201151 -0.000249338 1.27926e-21)
(0.000372112 0.000587507 -1.75317e-20)
(-0.00142733 -5.12877e-05 0)
(0.000158153 0.00135131 -1.59922e-21)
(-0.00136168 -0.016844 4.09334e-19)
(-0.000662132 5.71452e-05 0)
(-0.00183749 0.00301172 -1.51586e-21)
(5.44769e-05 -0.000766834 4.72478e-21)
(-0.1127 0.0122264 7.4117e-20)
(0.00106727 0.00173836 1.66363e-21)
(2.83309e-05 0.000180946 -3.54149e-21)
(0.741764 -0.838248 -3.50437e-19)
(2.7419e-05 0.00017348 5.20025e-21)
(-7.34268e-05 0.000104685 0)
(-0.0151887 -0.13894 5.41389e-20)
(0.000955937 -0.000728341 0)
(0.000357024 -0.000791507 -5.78011e-21)
(-0.00200515 8.69894e-05 6.68984e-21)
(-0.000590875 -0.00207248 -2.93463e-22)
(-0.0130948 0.0103642 -1.01322e-20)
(0.0292789 0.0316575 2.00245e-19)
(6.12397e-05 0.00114295 6.08433e-21)
(-0.000382187 0.0011484 -2.88918e-21)
(-1.7864e-05 -3.10204e-06 0)
(-0.000379234 0.00101785 -4.06542e-21)
(-0.00123835 0.00333926 6.57217e-21)
(0.000122951 0.000622736 3.62926e-21)
(0.0187293 0.0178169 5.20684e-20)
(-0.00334427 -0.000893983 3.42677e-21)
(0.000383524 0.00167634 0)
(-0.000348387 -0.00340379 0)
(5.38386e-05 0.000487427 0)
(7.45648e-05 0.000474767 2.8035e-20)
(-0.000243286 -0.000149992 5.3419e-22)
(-7.19359e-05 3.39251e-06 3.28528e-21)
(0.0018862 -0.0575006 0)
(-0.00783861 -0.0210673 7.59274e-21)
(-0.00240655 -0.00253644 0)
(-7.43807e-05 -5.07511e-05 6.08468e-21)
(0.000707829 0.00956188 1.64557e-20)
(-0.00276501 -0.00423495 3.35982e-22)
(-0.00040858 -8.01973e-05 1.55179e-21)
(-0.00485416 -0.00134808 -1.20296e-20)
(-0.000125165 0.000153933 4.58876e-21)
(0.00414491 0.00855842 5.56818e-21)
(2.67725e-05 -3.06714e-05 3.11373e-21)
(0.000403108 -7.2408e-06 9.7901e-21)
(2.39287e-05 -0.000499603 -4.1241e-21)
(-3.62788e-05 0.0127559 -3.70463e-23)
(0.00062412 -0.000677216 0)
(0.00169697 -0.00952738 -5.44384e-21)
(0.00254187 -0.00260727 6.68834e-21)
(-0.00326208 0.0224162 -3.4859e-21)
(-0.00146154 -0.00237568 0)
(-7.24281e-05 -0.000141404 7.45909e-21)
(0.00112433 -0.00365776 0)
(-0.0361955 0.0446598 8.79453e-19)
(-0.000206442 -0.00241201 0)
(-0.00243127 -0.00638948 9.52446e-22)
(0.00425251 0.0163156 -1.01664e-20)
(-0.000290664 4.75768e-05 2.05417e-21)
(0.0663398 -0.0653424 0)
(-1.18143e-06 2.91791e-05 0)
(-1.456e-05 -5.43276e-05 -7.6839e-22)
(-0.00318939 -0.00165959 3.08351e-21)
(-0.0040329 0.00109097 -2.69593e-21)
(-7.91506e-05 -4.92247e-05 -1.97689e-22)
(-0.0212599 -0.00870856 4.47906e-19)
(0.000204667 -0.000282093 0)
(-0.000113594 -0.000132524 4.96024e-22)
(-0.0027324 0.00518496 0)
(2.09226e-05 -0.000791496 2.6085e-21)
(-0.00201132 -0.0373589 0)
(3.96631e-06 -2.10694e-06 -1.90825e-21)
(-5.57925e-05 0.000200303 1.34264e-21)
(-0.000920464 0.00535217 -3.84722e-22)
(5.23621e-05 -0.000122019 -2.67171e-21)
(-9.01947e-05 -2.9724e-05 6.54684e-22)
(-0.0015705 0.00414229 1.43535e-21)
(-0.0503887 -0.04495 -3.87663e-20)
(0.000666249 -0.00947656 0)
(-0.00296999 -0.000790824 -4.95324e-21)
(-0.0080776 -0.0110053 -1.00413e-19)
(-0.00596857 -0.0337318 1.6398e-22)
(-0.00675911 -0.0118778 0)
(-0.000490885 0.000264287 2.97149e-21)
(-0.0010142 0.014559 -1.6993e-20)
(-0.00195984 -0.000442553 3.34465e-21)
(0.000206606 -0.000492705 9.57947e-22)
(0.000424868 0.00040186 -5.60772e-23)
(-9.99809e-06 -0.00780334 5.58107e-21)
(-0.00157672 0.000598284 -4.62615e-21)
(-1.67751e-05 1.29733e-05 0)
(-8.66934e-05 2.99371e-05 1.11104e-21)
(0.000766173 -7.02082e-05 1.93206e-21)
(0.0185998 -0.0797355 0)
(0.00612652 -0.0069533 -6.89174e-21)
(-6.34736e-05 0.000134612 -1.72202e-21)
(-0.000327807 7.82667e-06 -5.15281e-21)
(-0.000604673 -0.00157144 0)
(-0.000391237 -0.00356685 0)
(-0.0133262 -0.0826843 7.27681e-22)
(0.00153883 6.07505e-05 1.44785e-22)
(-0.00738247 -0.00767408 3.06552e-20)
(0.000517455 -0.000525482 -8.62712e-22)
(0.00535261 0.0250187 0)
(-0.00021101 -2.44385e-05 1.54812e-21)
(-0.0143259 0.0661695 0)
(-5.53457e-06 -3.75925e-05 1.06072e-21)
(0.00404953 0.0177182 6.31151e-20)
(0.00360594 -0.000444913 1.67243e-20)
(0.00355179 -0.000928605 -1.44855e-20)
(-0.000229946 0.00101898 1.02027e-22)
(0.00699077 0.00272368 -7.18036e-21)
(-0.114655 0.000721905 9.87589e-19)
(-0.00061892 -0.00028413 -6.86433e-22)
(0.00128678 -0.000387705 4.32448e-21)
(-0.00143988 0.0124833 7.46566e-22)
(0.00500491 0.0024484 -8.01582e-21)
(-0.00397022 -0.011396 0)
(-7.96221e-05 -0.000142861 1.59383e-21)
(0.00687926 -0.00034284 2.92972e-20)
(-4.30402e-05 -5.09874e-05 9.84931e-22)
(-0.00596676 -0.00723856 2.02906e-20)
(-0.000601948 -0.00515202 2.31585e-21)
(-0.00445023 -0.00200003 1.72399e-21)
(3.28531e-05 -4.77163e-05 1.36111e-21)
(0.000217309 0.000690142 0)
(-0.000318746 -0.000312864 1.152e-21)
(-0.00132757 -0.00787565 -1.37594e-20)
(-0.00390516 0.00632504 -7.05415e-21)
(0.00322807 0.011063 -1.649e-19)
(-0.0111621 -0.00319287 7.01947e-21)
(-0.000211358 -5.88097e-05 1.77465e-21)
(-0.000211263 -2.13602e-05 0)
(-0.000306807 0.00070576 -7.89982e-21)
(-0.0002874 -0.00121137 -3.34189e-23)
(-1.45385e-05 -1.87469e-06 6.88955e-22)
(-0.000143752 -0.000585791 0)
(0.00160283 -0.0046501 4.11812e-21)
(0.0519263 -0.098987 0)
(-0.000457716 0.000276682 0)
(-6.52836e-06 -6.45635e-05 -4.69e-22)
(-0.000790079 0.00116591 0)
(0.00390615 0.00934731 0)
(-0.00123759 0.00303734 7.88389e-21)
(0.00703004 -0.0119614 3.84012e-21)
(0.00986046 0.0699349 4.86648e-20)
(-0.000224442 0.000244351 8.95966e-22)
(0.00662603 0.0149325 -2.46458e-21)
(0.00236291 0.00926658 2.74246e-20)
(-3.24187e-05 7.01865e-06 -2.68754e-21)
(8.92107e-05 -0.000432017 1.62395e-21)