/*--------------------------------*- C++ -*----------------------------------*\
| =========                 |                                                 |
| \\      /  F ield         | OpenFOAM: The Open Source CFD Toolbox           |
|  \\    /   O peration     | Version:  v2012                                 |
|   \\  /    A nd           | Website:  www.openfoam.com                      |
|    \\/     M anipulation  |                                                 |
\*---------------------------------------------------------------------------*/
FoamFile
{
    version     2.0;
    format      ascii;
    class       volScalarField;
    location    "300";
    object      k_0;
}
// * * * * * * * * * * * * * * * * * * * * * * * * * * * * * * * * * * * * * //

dimensions      [0 2 -2 0 0 0 0];


internalField   nonuniform List<scalar> 
14315
(
0.0229011
0.0759449
0.000155145
0.000169881
0.00017504
0.000159256
0.0581418
0.00015627
0.000163688
0.000152021
0.000168015
0.0129188
0.0342995
0.000147479
0.0132997
0.000147716
0.000155942
0.000148604
0.000169186
0.000168329
0.000148533
0.0707024
0.000172674
0.013321
0.000170126
0.0742943
0.00014877
0.0592746
0.000162264
0.000195495
0.000168665
0.000148812
0.000147982
0.079994
0.0462092
0.069908
0.000214381
0.00015592
0.000222917
0.000171221
0.00520917
0.000304691
0.000152716
0.000150005
0.000171381
0.000168978
0.000164552
0.00825527
0.00961898
0.000148659
0.00657207
0.000170251
0.0130482
0.0117332
0.00016705
0.0725659
0.000482876
0.000165396
0.000148945
0.000155273
0.000198346
0.0795063
0.0718691
0.000148715
0.000192695
0.000219148
0.0355081
0.000149246
0.000148625
0.000167808
0.0120284
0.000165133
0.0482383
0.00323717
0.000149397
0.0247359
0.000159783
0.0709639
0.000170723
0.00015263
0.00014775
0.0353688
0.00016459
0.0728358
0.000148449
0.000156391
0.0357966
0.0144324
0.0113343
0.00016718
0.000169177
0.000167493
0.000147836
0.000156091
0.0156884
0.0298106
0.000152635
0.0239932
0.0478758
0.000170744
0.00014927
0.00883346
0.0696968
0.000148195
0.000171207
0.000216809
0.0208731
0.0303583
0.000171055
0.000196957
0.0285319
0.000149727
0.0222419
0.000148807
0.000149895
0.0142221
0.00014894
0.0113145
0.0176402
0.00628201
0.00019089
0.000163916
0.000148055
0.0124401
0.000161737
0.000148382
0.000182618
0.000147532
0.000151329
0.000167085
0.0328437
0.0436985
0.000187274
0.0333868
0.000197409
0.000149086
0.000150097
0.0787102
0.000153068
0.000149331
0.0776575
0.0131432
0.000149803
0.0253971
0.000196703
0.0352084
0.000206082
0.0656822
0.000160504
0.000162206
0.000155144
0.0026719
0.000151494
0.000160059
0.000174783
0.0126463
0.000152733
0.000147764
0.000158912
0.078099
0.000148998
0.0084128
0.0723508
0.0136418
0.000153492
0.0317575
0.017724
0.000168337
0.0023056
0.0403756
0.0423947
0.000147993
0.0172502
0.000151925
0.000171671
0.000220248
0.000149882
0.0712021
0.0610567
0.0316015
0.000196687
0.000159379
0.000147931
0.0116798
0.000168652
0.00015537
0.000170367
0.00021828
0.0485808
0.0163985
0.000171342
0.000168554
0.0302363
0.000274406
0.000149265
0.0126255
0.000199813
0.000150346
0.000148515
0.000166487
0.0152597
0.000157954
0.0109074
0.0318568
0.000151205
0.000103628
0.000192605
0.000162725
0.000147814
0.0297853
0.000120816
0.000151783
0.0152855
0.000184375
0.0481502
0.0172567
0.0739299
0.0504384
0.0459569
0.000184005
0.000158006
0.000170696
0.000190693
0.000154324
0.0810662
0.000153263
0.000155647
0.00896372
0.0467469
0.0268016
0.000154486
0.000153336
0.000161693
0.000149549
0.000149964
0.000175494
0.000170182
0.000163115
0.0478303
0.0444941
0.000155849
0.000164026
0.000352097
0.0131577
0.00019696
0.000169297
0.0834594
0.000149142
0.0461587
0.016144
0.000149328
0.000148144
0.0410996
0.000200184
0.000151222
0.0658568
0.000164733
0.000702826
0.0235623
0.000219365
0.00018517
0.000164681
0.01535
0.0115065
0.0589618
0.000164623
0.000166546
0.000164703
0.000156488
0.0276809
0.0772569
0.00015701
0.024498
0.0168643
0.000161024
0.0826789
0.00651448
0.000171218
0.0225303
0.00019249
0.000169622
0.000158101
0.0454301
0.036332
0.000149767
0.0139409
0.0689443
0.0226112
0.0316255
0.030045
0.000171396
0.00623784
0.0307164
0.023657
0.000195804
0.000181689
0.0303221
0.000184358
0.000149028
0.000148472
0.000169768
0.00464756
0.0715899
0.0732964
0.000154955
0.000148457
0.0322309
0.0685142
0.000148375
0.000149718
0.0633912
0.000147791
0.0158024
0.0302495
0.00017028
0.000232359
0.000151198
0.000164316
0.000153721
0.000148067
0.0132788
0.000224608
0.0314461
0.000165156
0.00258076
0.00014955
0.0315227
0.000217128
0.00016715
0.000149488
0.000163646
0.0303464
0.000149504
0.0460687
0.0150481
0.000148696
0.0323682
0.0434527
0.0409935
0.0591204
0.000150359
0.0585406
0.000147965
0.00014922
0.0800917
0.000148029
0.000149417
0.000731365
0.00020457
0.0293802
0.000149791
0.000150404
0.0289256
0.0135943
0.000251578
0.000149453
0.000151645
0.000149956
0.000148361
0.0290409
0.000163911
0.063609
0.066066
0.0632582
0.0827322
0.0211421
0.000147569
0.015448
0.0440186
0.000168568
0.000222013
0.000151314
0.000149798
0.0834568
0.0316797
0.000165755
0.000153323
0.000148669
0.000149352
0.000447109
0.00824173
0.000164726
0.000147998
0.0464157
0.000168956
0.0646897
0.000191693
0.064135
0.0667234
0.0145918
0.000153873
0.0118474
0.0443947
0.080751
0.0287576
0.0595993
0.000161534
0.00014974
0.000170762
0.0440741
0.000153622
0.00015677
0.000151064
0.0073214
0.0655905
0.000120847
0.0329843
0.000211102
0.0608581
0.000220167
0.000148102
0.0435307
0.016286
0.000181988
0.000151006
0.000147653
0.000211163
0.0243919
0.00014833
0.000212788
0.000156919
0.0510635
0.000199201
0.000157054
0.000149534
0.0242707
0.0162833
0.000178916
0.000169062
0.000168585
0.0141727
0.0772397
0.000149738
0.000163567
0.00906311
0.000158177
0.000188242
0.0311492
0.000174611
0.000148973
0.000202113
0.000149357
0.032422
0.000148563
0.000155746
0.000218828
0.000167978
0.0255178
0.000148712
0.000154168
0.00107007
0.0112638
0.000149283
0.000175069
0.000158314
0.01953
5.78114e-05
0.0251002
0.0448967
0.000199783
0.000150043
0.0816871
0.0130391
0.00018671
0.0673139
0.0641288
0.0102763
0.000197686
0.000176267
0.0312048
0.000162792
0.000199113
0.0280055
0.000174112
0.0125746
0.000154732
0.000147791
0.000154203
0.0294891
0.0140483
0.000188407
0.0231567
0.000196514
0.0133199
0.0230667
0.000193506
0.000149914
0.0573738
0.000154247
0.000182964
0.000148116
0.000204869
0.000151624
0.000170111
0.00205276
0.0342539
0.00014925
0.000163273
0.0251906
0.0784513
0.000169178
0.0118494
0.0114059
0.000153095
0.000149906
0.000151186
0.0171725
0.000193011
0.000160506
0.000151207
0.0805621
0.000151491
0.000154176
0.000153797
0.000549723
0.0606831
0.000167961
0.057803
0.0759035
0.000179927
0.0138559
0.000158062
0.000158443
0.000161329
0.000271838
0.0281989
0.000152216
0.000149206
0.000187069
0.000153021
0.00014937
0.000188415
0.00014839
0.0001496
0.0145331
0.0103945
0.000151317
0.0121226
0.000187558
0.000149541
0.0224051
0.000157646
0.0344284
0.00653461
0.000154192
0.000183555
0.000155167
0.000195585
0.000177036
0.0161094
0.000154344
0.000152994
0.0584088
0.000372769
0.0799817
0.0341592
0.000160961
0.000149323
0.000149803
0.00016379
0.0305713
0.04478
0.0305335
0.000190161
0.000192201
0.000217475
0.000148822
0.00014958
0.000175792
0.00015285
0.0753785
0.000147445
0.0134995
0.000222462
0.0291323
0.000162133
0.000173126
0.000148802
0.000733863
0.000147607
0.0830997
0.000173237
0.000148766
0.0192714
0.000148385
0.000154851
0.000153688
0.000167872
0.000188475
0.000152892
0.0162415
0.000148552
0.000192891
0.000190845
0.000190428
0.000148421
0.0761589
0.000157078
0.0756622
0.0287207
0.000184808
0.0176289
0.0230345
0.0117734
0.000154476
0.000149171
0.0166645
0.000150767
0.000160541
0.000368907
0.0147441
0.00022123
0.0345368
0.000147543
0.000173153
0.000157011
0.000191958
0.000175191
0.000149301
0.000147949
0.000221955
0.000415289
0.000152529
0.000213151
0.0314957
0.000151209
0.000152027
0.0676948
0.000174023
0.0317811
0.000147857
0.000181352
0.000148725
0.000147941
0.0316059
0.000149196
0.0334691
0.000170196
0.0823975
0.000149891
0.00014965
0.000184031
0.000164207
0.0190551
0.0821146
0.0174351
0.00015504
0.000174469
0.000149813
0.000167352
0.000208503
0.0237132
0.0563469
0.000191694
0.000213038
0.0389076
0.000168003
0.00016293
0.000185715
0.0606864
0.000152621
0.000162441
0.0109619
0.0750928
0.000224081
0.0508566
0.000147661
0.000156186
0.0297404
0.000152864
0.0107982
0.000151942
0.000188335
0.000149726
0.000172842
0.00015174
0.000214692
0.0464173
0.000148813
0.000415729
0.000148786
0.000149882
0.000248572
0.0237055
0.000169738
0.0290022
0.012017
0.0178938
0.000439993
0.000151909
0.000152072
0.000150375
0.000153063
0.000183474
0.000153057
0.00524104
0.0835168
0.000167446
0.000163017
0.000150852
0.000152434
0.029119
0.000148736
0.000172908
0.000180403
0.000163288
0.0155915
0.000173371
0.00020884
0.0707121
0.000159915
0.00590051
0.00016792
0.000147861
0.000148755
0.000150394
0.000165142
0.000154256
0.000175839
0.000154569
0.000156625
0.00357208
0.000148077
0.00015424
0.000179349
0.000156479
0.000159502
0.000185373
0.000152022
0.000547712
0.000147851
0.000149653
0.0830985
0.0490095
0.0297886
0.000201526
0.000149081
0.0314387
0.000160249
0.000148999
0.0281789
0.000148349
0.000148744
0.000182885
0.000148691
0.0175184
0.000156369
0.000330527
0.000154025
0.0829218
0.000223469
0.000179363
0.000159383
0.00792447
0.0782802
0.0275726
0.000149941
0.0439612
0.000160333
0.0216519
0.000149839
0.0313692
0.0132073
0.000208989
0.0754284
0.000148635
0.0048406
0.00016558
0.000183052
0.000199824
0.0450792
0.000153351
0.000150595
0.000210637
0.0152259
0.00492868
0.000147944
0.000215977
0.0412608
0.0394097
0.0559778
0.000154749
0.000240238
0.0825029
0.0445079
0.000175314
0.0327911
0.000159911
0.000149876
0.000159487
0.000148769
0.000161554
0.000221014
0.0828616
0.000148808
0.000153138
0.000168799
0.067413
0.000164709
0.000155681
0.000209333
0.033227
0.0125122
0.000155408
0.0670882
0.00014975
0.000161583
0.000170491
0.000172351
0.00977676
0.000147828
0.0319309
0.000221624
0.0477054
0.000175911
0.000167505
0.0631158
0.000162261
0.000372487
0.000149398
0.000158103
0.000160513
0.000186331
0.000160212
0.000150369
0.000160904
0.000178031
0.0439014
0.000152145
0.000151455
0.0663173
0.0224877
0.00450778
0.000164224
0.000153358
0.0308263
0.000155876
0.00014793
0.0145114
0.000156588
0.0312313
0.0565515
0.0303257
0.0168011
0.0652415
0.000209666
0.0230655
0.0408092
0.000159555
0.00014902
0.00014844
0.000171121
0.0822302
0.000195477
0.00750933
0.000163237
0.00533298
0.00018026
0.000164402
0.0398394
0.0001617
0.0255321
0.000156773
0.000154551
0.000162803
0.000149587
0.000216765
0.000156152
0.000184435
0.000164674
0.000149662
0.000150547
0.0147958
0.000148908
0.000151161
0.000147583
0.000213565
0.000164457
0.000161651
0.000175808
0.0104304
0.000152041
0.000147516
0.000149985
0.000177201
0.000154753
0.00364023
0.000148768
0.0716425
0.000148944
0.0331581
0.0136647
0.000149703
0.0223709
0.0793449
0.0697074
0.0437453
0.00016453
0.000189287
0.0609223
0.0165683
0.000148011
0.000174929
0.000198751
0.000152636
0.027385
0.000159688
0.00876154
0.0304042
0.0172367
0.000164338
0.082481
0.0623351
0.000151471
0.00342536
0.000148977
0.000155415
0.032983
0.00047447
0.000148952
0.000173998
0.0683715
0.000154324
0.0471558
0.000149045
0.000223462
0.000149052
0.0717245
0.0724163
0.000170433
0.000151948
0.000149764
0.0832155
0.000178974
0.00986829
0.000159948
0.000150005
0.000181008
0.00366544
0.0148916
0.00492778
0.000148985
0.0572784
0.000151295
0.000150467
0.0385338
0.0518962
0.0447617
0.0290988
0.0198758
0.000214564
0.000470861
0.072142
0.0106138
0.000221722
0.000368206
0.000154759
0.000147822
0.000148477
0.000188643
0.00293936
0.00389684
0.000149758
0.0616751
0.031885
0.000148959
0.0657473
0.000161025
0.000197713
0.000167679
0.000205951
0.0544298
0.067071
0.000148265
0.0635373
0.000149436
0.000152566
0.000165041
0.000152085
0.000198992
0.000174452
0.000147987
0.0805851
0.000147889
0.0225052
0.000154939
0.0308773
0.000200489
0.000150002
0.046184
0.0194208
0.0104104
0.00988147
0.0303004
0.000185762
0.0643959
0.00728372
0.000169469
0.000156195
0.010886
0.000155402
0.0101551
0.000180074
0.000155081
0.0679893
0.000163104
0.0314345
0.000149604
0.000164278
0.0199944
0.0208722
0.0277602
0.000168741
0.029148
0.000171814
0.000164724
0.000320001
0.0289729
0.000185416
0.000194146
0.000167899
0.000148785
0.000159616
0.0197523
0.065791
0.000151041
0.0432122
0.0255525
0.000148891
0.000169416
0.016778
0.000148371
0.0148638
0.060527
0.000148867
0.000153973
0.0182747
0.000159358
0.0002202
0.0459651
0.000147539
0.081746
0.00023374
0.000148903
0.000149915
0.000154124
0.000161907
0.000148771
0.0135598
0.0336404
0.000159058
0.000168322
0.0321147
0.000154734
0.000148863
0.000165806
0.000149676
0.000160013
0.0151909
0.000159518
0.000186356
0.0642514
0.000148894
0.000471701
0.044772
0.000166343
0.000149323
0.000169478
0.000440439
0.000146554
0.000167901
0.0147506
0.0304961
0.00017769
0.0428592
0.0471008
0.0817499
0.000182846
0.0621119
0.000169851
0.0320447
0.000187549
0.000151219
0.0828798
0.000172699
0.00855208
0.000192577
0.000454827
0.000155371
0.0068759
0.00018756
0.000151011
0.000162086
0.000149513
0.000252262
0.000161302
0.0468047
0.00356805
0.0826336
0.000148934
0.0153472
0.0128944
0.000148918
0.0251216
0.000184933
0.000437792
0.013812
0.000177855
0.0462776
0.0386419
0.00015144
0.0162917
0.000151898
0.0279011
0.000151147
0.000240924
0.0193825
0.000154344
0.0023773
0.00015715
0.000166341
0.000177656
0.000172492
0.000202157
0.00906421
0.000185168
0.000174622
0.000200491
0.000185209
0.0127689
0.000164897
0.0425712
0.00227918
0.000154887
0.000426828
0.000221049
0.0310368
0.00014932
0.000156604
0.0692554
0.000172324
0.000160661
0.0433942
0.064894
0.000185252
0.0191921
0.000162711
0.000486269
0.000149785
0.000486263
0.0307645
0.000150632
0.000183953
0.000149194
0.0338972
0.000173019
0.000147899
0.0707292
0.000175243
0.000146695
0.00021116
0.0620219
0.000164808
0.000163805
0.000212737
0.0436435
0.000163717
0.000180496
0.000175739
0.000146426
0.000148842
0.000151577
0.0145972
0.000150569
0.0306386
0.00015334
0.000197459
0.000162809
0.0446999
0.000214684
0.000156328
0.000148795
0.000171315
0.000164511
0.00640613
0.000152314
0.0298039
0.000183201
0.000148504
0.0238947
0.0762557
0.0120584
0.0121142
0.000149651
0.0826691
0.0247826
0.000168245
0.0155026
0.0396472
0.000149615
0.000174112
0.000153891
0.000168274
0.000176647
0.000147786
0.000168913
0.000154184
0.000148669
0.0470219
0.0628132
0.0655588
0.000193388
0.000356098
0.0588599
0.000148613
0.000161196
0.0681663
0.00016691
0.000153397
0.000214091
0.0641442
0.0135979
0.0321577
0.0648913
0.000152539
0.000185151
0.000153515
0.00272193
0.000148384
0.000202791
0.000192987
0.00021459
0.000165516
0.000148927
0.0305532
0.000166263
0.0454175
0.000160131
0.0359646
0.0455895
0.00474917
0.0476513
0.000186534
0.000216308
0.000159018
0.0307864
0.0493188
0.000177476
0.0593505
0.000147674
0.000207983
0.000148422
0.000125497
0.000153507
0.067279
0.000147641
0.066668
0.0029892
0.000225385
0.0306198
0.000153969
0.000149617
0.0188326
0.000149177
0.000333611
0.000152462
0.00945136
0.000148871
0.0452648
0.025956
0.000174721
0.000156752
0.000208873
0.0597424
0.000147974
0.00018906
0.000151533
0.043465
0.00015528
0.000215292
0.0173933
0.0296013
0.0451419
0.0307481
0.000168969
0.000154703
0.00040335
0.000167775
0.000178745
0.000199018
0.000149132
0.000171215
0.000146364
0.000191077
0.00014914
0.0172673
0.0523765
0.000184768
0.00015479
0.000147915
0.0244032
0.0300256
0.0815537
0.000147852
0.000149594
0.000440852
0.000188726
0.000146614
0.00019459
0.000169844
0.000152527
0.000149099
0.000188838
0.00014768
0.0101454
0.00018733
0.000162458
0.000148594
0.00018868
0.0801213
0.00048246
0.00494974
0.000147369
0.000147825
0.000249581
0.000173057
0.0109309
0.000162188
0.000148135
0.000151823
0.000230763
0.000149895
0.000164821
0.00014787
0.000148785
0.000149751
0.0104227
0.0452232
0.0538714
0.0329414
0.0627355
0.0383928
0.000188983
0.000172566
0.000149651
0.00020288
0.000182784
0.00017942
0.000167495
0.00395535
0.000210862
0.000163976
0.000154153
0.029459
0.0002271
0.000168217
0.0152377
0.0210877
0.0453065
0.000148902
0.00015303
0.000161832
0.000149007
0.0239617
0.07271
0.0301753
0.000223634
0.000164044
0.0627789
0.00783825
0.000158593
0.000192054
0.000157503
0.000147855
0.000197479
0.000157363
0.000157982
0.0668813
0.0149006
0.0483348
0.0316234
0.0542993
0.000148832
0.000149276
0.0679288
0.000189005
0.00014898
0.0412675
0.0464813
0.0001481
0.000158386
0.000164546
0.00014926
0.000203735
0.000156285
0.000160325
0.000200495
0.000166907
0.00018894
0.000168899
0.000148466
0.000236645
0.000373167
0.000148768
0.000167362
0.000228615
0.00019956
0.0199573
0.000149197
0.0750772
0.000169664
0.000152967
0.000313805
0.000149645
0.000152915
0.000149678
0.0488715
0.00795675
0.0156404
0.0600884
0.080574
0.000219636
0.000275731
0.000174862
0.000148534
0.000189899
0.000158601
0.000151135
0.0811091
0.000149259
0.000989594
0.000170013
0.000148639
0.000153789
0.000185009
0.0310643
0.000197898
0.00014775
0.000148724
0.0819272
0.000168021
0.000156306
0.000161624
0.0774512
0.000156557
0.0116704
0.0451282
0.000147541
0.0546427
0.000151229
0.000147962
0.000162126
0.000156318
0.000152804
0.0584603
0.0584293
0.0298347
0.0260743
0.000162895
0.020522
0.000182662
0.0432784
0.0334828
0.000164574
0.0227426
0.000162575
0.000178743
0.000148953
0.000153858
0.000147846
0.0430262
0.0291996
0.0546813
0.0359415
0.000147816
0.0001923
0.074293
0.0476776
0.0141417
0.0441992
0.000148001
0.00014915
0.000177348
0.000163165
0.000148775
0.000150925
0.00071499
0.000148855
0.000170377
0.0154212
0.000160093
0.00014959
0.0333394
0.000179039
0.0265136
0.000148681
0.000212125
0.0314276
0.000193754
0.0311305
0.000159296
0.0463882
0.000205917
0.000190901
0.000150372
0.0282883
0.000148536
0.000149804
0.0796188
0.000149711
0.0743257
0.000148825
0.00947313
0.000167808
0.000215643
0.000149004
0.000376819
0.000148697
0.000149646
0.000159153
0.000161413
0.000172435
0.060912
0.000194917
0.0303043
0.000215277
0.000180237
0.000166549
0.000164195
0.0795763
0.000155796
0.000160559
0.0738982
0.000162889
0.0822612
0.0786257
0.0582463
0.000169137
0.000150723
0.000389625
0.0320373
0.000148882
0.00014743
0.0560285
0.000206614
0.0499318
0.000164219
0.000158485
0.000147909
0.0605814
0.00664746
0.000153401
0.00989963
0.0720903
0.000149773
0.000149492
0.000153006
0.000169766
0.000156118
0.000152704
0.0481337
0.0469395
0.0100627
0.000148233
0.000159792
0.000188699
0.00131448
0.000149315
0.0235531
0.000165202
0.00014855
0.000164309
0.000147719
0.000161654
0.000194245
0.000149468
0.000430601
0.0810927
0.000148667
0.000196439
0.00458942
0.000167126
0.000167185
0.0349725
0.000162058
0.000163953
0.000163489
0.000149646
0.032467
0.0159076
0.000167567
0.000149835
0.072494
0.0830518
0.000164717
0.00016926
0.0629464
0.069485
0.0168651
0.0455313
0.0830945
0.000165104
0.000155258
0.000148964
0.000242986
0.000156367
0.000258621
0.0527947
0.000190883
0.000149233
0.0749596
0.0430833
0.000148619
0.000175052
0.000160081
0.0168877
0.000148233
0.0224665
0.000163433
0.0649725
0.00014792
0.0818441
0.0133256
0.00773481
0.000148884
0.0822854
0.000148883
0.000159881
0.058645
0.000147643
0.000149727
0.000158981
0.00014888
0.000227365
0.000148442
0.00785194
0.000149692
0.0245663
0.0606833
0.000170194
0.000175246
0.000162733
0.000166098
0.0518872
0.0133088
0.0482462
0.000319214
0.0793814
0.000226048
0.0193231
0.0329602
0.000148292
0.000154219
0.000147505
0.00014792
0.000175532
0.0810795
0.0776269
0.000162066
0.000148732
0.000175084
0.0458524
0.000158093
0.000152245
0.0634834
0.000165994
0.00022507
0.000149724
0.000162883
0.000149906
0.00739348
0.000151896
0.000176285
0.00018716
0.000149237
0.00014783
0.000153197
0.000169405
0.000156185
0.0553977
0.0336608
0.000149052
0.0280333
0.0464673
0.000148674
0.000162447
0.0797003
0.000182828
0.080912
0.000149106
0.000195536
0.000165121
0.0327712
0.000147563
0.000236974
0.000172016
0.00018034
0.000149552
0.0683357
0.00949885
0.0301096
0.000149117
0.0231885
0.050736
0.0738239
0.000149304
0.00015224
0.00811056
0.024297
0.000156573
0.0304275
0.000154586
0.0252654
0.0491508
0.0292597
0.000158824
0.000154035
0.0617817
0.0507253
0.00110491
0.000157143
0.000148304
0.000162339
0.000148636
0.000152546
0.000203158
0.000156112
0.000147746
0.0519578
0.0182923
0.000752508
0.000151096
0.00015111
0.0824575
0.0377121
0.000156398
0.0620989
0.0430405
0.000148117
0.065553
0.0271097
0.000368524
0.0579073
0.000185749
0.0660131
0.000176981
0.000169815
0.000173769
0.000154704
0.000257734
0.0294971
0.016466
0.000194677
0.000149682
0.0298538
0.000166045
0.000149312
0.000226733
0.000150982
0.000223675
0.000158994
0.000159561
0.028718
0.000150084
0.000193072
0.000150116
0.0544698
0.000186834
0.000151355
0.000163626
0.000177215
0.000148777
0.0795559
0.000157081
0.000148066
0.000152551
0.0178769
0.000187432
0.0159212
0.000376608
0.000150139
0.000147913
0.000148511
0.000192581
0.000155174
0.0466546
0.0814025
0.000148044
0.000168929
0.000163408
0.000166155
0.00014895
0.000148774
0.076572
0.00016976
0.000175616
0.0104667
0.000148881
0.000161398
0.00144068
0.000155931
0.0445225
0.00029394
0.0659392
0.0336175
0.000168022
0.0105888
0.0145251
0.000147685
0.0193071
0.000160246
0.000148851
0.000165442
0.000424189
0.000166517
0.000148471
0.0384384
0.0814079
0.0737568
0.000168547
0.00015712
0.000157404
0.000147723
0.000199168
0.000149791
0.000154071
0.0202472
0.0315624
0.0168202
0.0601697
0.0256332
0.000223704
0.000152434
0.000174133
0.045356
0.000149149
0.000161087
0.0838641
0.000165594
0.000159017
0.000151237
0.0001488
0.000148696
0.000153783
0.0759806
0.0161564
0.000149163
0.000176271
0.00019258
0.0335912
0.000162634
0.00015733
0.000160312
0.000149847
0.0611115
0.000155176
0.000149052
0.000181148
0.0233347
0.000149385
0.000156876
0.0100778
0.000169323
0.000163387
0.0001651
0.000150634
0.000152527
0.00014647
0.000149904
0.0001556
0.000163882
0.000172497
0.000148395
0.0777046
0.000168318
0.0336828
0.000167048
0.000156282
0.000154518
0.00016683
0.000155687
0.000185948
0.0835979
0.000149972
0.0590722
0.000156849
0.0205738
0.000152971
0.000157028
0.000148547
0.0275186
0.082112
0.00108192
0.0815403
0.000160029
0.00015429
0.0144554
0.000185058
0.000172972
0.000158779
0.000155142
0.000189853
0.000167001
0.000164789
0.000235419
0.0823734
0.000149678
0.0821637
0.0167553
0.0297319
0.000149771
0.0144972
0.0808867
0.000147706
0.000157727
0.000148088
0.000166027
0.0779984
0.000156074
0.000226953
0.0201077
0.0153294
0.0553371
0.000184962
0.00016444
0.000152218
0.0457732
0.000193343
0.000189607
0.000148417
0.000222634
0.000183502
0.00436699
0.000228744
0.000155402
0.000148653
0.000151055
0.024786
0.000151303
0.000165594
0.0345875
0.000152293
0.0175832
0.000163447
0.000154123
0.000190301
0.000166863
0.0215337
0.000149017
0.0223877
0.00015393
0.0278779
0.000197355
0.0826741
0.000161633
0.000146605
0.000152392
0.000147849
0.000147517
0.00021307
0.000124616
0.0714287
0.0803548
0.000228532
0.000226395
0.000178309
0.000147299
0.000150373
0.000154087
0.000155181
0.0823048
0.000160808
0.0290422
0.000150035
0.0252526
0.0253492
0.000174374
0.00015856
0.000197489
0.0716845
0.000159233
0.000151517
0.000164483
0.0410653
0.0200355
0.0174753
0.000277442
0.000149983
0.000285617
0.000147335
0.0595647
0.0640076
0.000151612
0.000166693
0.000147381
0.0136044
0.0441281
0.000162208
0.0805371
0.00849538
0.000189631
0.0309951
0.000154603
0.0449445
0.000188349
0.046847
0.000184432
0.0266532
0.00017411
0.0221513
0.00015981
0.00016434
0.00975644
0.000305148
0.020982
0.000158978
0.0821037
0.000465566
0.000154956
0.000150522
0.000169171
0.000149459
0.000151385
0.000148325
0.00016112
0.000158818
0.0801739
0.0396398
0.000148489
0.0130046
0.0818496
0.0132523
0.000154199
0.00015298
0.000156625
0.0815868
0.0615788
0.000338176
0.0258263
0.000193118
0.000206895
0.000251685
0.000179756
0.000149887
0.00014961
0.0487234
0.000168449
0.0731256
0.000173324
0.0037651
0.000247045
0.069749
0.0765083
0.000163025
0.000208005
0.0658704
0.0264666
0.0640423
0.0142924
0.000152556
0.0123363
0.028942
0.0293146
0.000183609
0.000314719
0.000207899
0.000176932
0.000199137
0.0814964
0.000148365
0.000159073
0.000251416
0.000214481
0.000157033
0.0635045
0.03692
0.00369187
0.0471136
0.0377075
0.0839051
0.0790865
0.000149128
0.0259569
0.0419874
0.0793103
0.0705778
0.0511179
0.000212527
0.050015
0.0603438
0.000159602
0.000164666
0.000151102
0.000205025
0.000517642
0.0821118
0.0599883
0.0750866
0.000184328
0.0679388
0.000179499
0.000151324
0.0218669
0.000155396
0.0117261
0.000149633
0.00021669
0.0561911
0.000150879
0.000154468
0.000159355
0.000148522
0.000178593
0.000158253
0.0002049
0.000152867
0.000199921
0.0337448
0.000160356
0.011024
0.000159333
0.0781009
0.000189884
0.000159053
0.0503722
0.000156153
0.000169269
0.00520124
0.0811867
0.0206044
0.000240889
0.000167269
0.000163834
0.000199047
0.000208082
0.012007
0.000153103
0.0272736
0.00014866
0.0548445
0.0421128
0.000152739
0.000214678
0.000158611
0.000147613
0.0238371
0.000148803
0.000177732
0.0652894
0.000156992
0.0803
0.000174687
0.0330669
0.00307374
0.00017418
0.0327981
0.000149367
0.000190842
0.000177899
0.0125914
0.000149609
0.0651827
0.000159159
0.000147217
0.000191897
0.000160439
0.000150368
0.000149634
0.000165583
0.0282081
0.000161738
0.0356512
0.0821123
0.000198129
0.0714553
0.0542729
0.000189798
0.000158626
0.00019227
0.0334979
0.052589
0.000163594
0.000149187
0.000158793
0.000152095
0.000157255
0.082357
0.00530388
0.000172187
0.0109024
0.000201478
0.0277454
0.000175625
0.000167018
0.000222722
0.000158453
0.0175139
0.000185363
0.0311207
0.000247923
0.0236195
0.000155737
0.0355692
0.000162019
0.00014851
0.0815329
0.000148855
0.000166249
0.000148397
0.000155362
0.0344545
0.000148511
0.000182082
0.000149505
0.0359724
0.000152006
0.000156172
0.000159348
0.000179252
0.000191386
0.000200385
0.000184124
0.000185121
0.000166292
0.000189561
0.000155869
0.000173366
0.000247485
0.000160623
0.000168392
0.000211421
0.000160432
0.0825798
0.083821
0.000149141
0.000206808
0.0464582
0.00123445
0.00020749
0.000194782
0.000172176
0.000168606
0.000149083
0.000151636
0.0474644
0.0483898
0.0592392
0.000161876
0.000162342
0.0313545
0.000162712
0.045866
0.000151891
0.0354152
0.000168258
0.032067
0.000158619
0.000246041
0.0501649
0.000148575
0.000166923
0.000150268
0.000152775
0.000224989
0.0666638
0.0480404
0.00019121
0.000148854
0.0175784
0.000340433
0.000153939
0.0493996
0.0512571
0.000172875
0.000156525
0.0812273
0.000185831
0.000147683
0.0498576
0.0333285
0.0569074
0.0792
0.0506723
0.000194876
0.017318
0.000173307
0.000149142
0.000159246
0.000163927
0.000164569
0.0472443
0.0784005
0.000151375
0.000216005
0.0164998
0.0317431
0.0330152
0.0750052
0.0519603
0.00015429
0.0200708
0.0687642
0.000155278
0.000165962
0.000174295
0.0333436
0.018726
0.000148049
0.000181719
0.0184721
0.000151118
0.000151535
0.000150616
0.000147742
0.0730694
0.000156992
0.0776485
0.000149812
0.000349235
0.000176207
0.000313244
0.0454636
0.0528055
0.000148449
0.000209198
0.0205372
0.000149046
0.019759
0.0556204
0.000292769
0.000245693
0.0175422
0.000171205
0.000156858
0.000149659
0.000149174
0.00213033
0.000186476
0.0528932
0.000166875
0.000204693
0.000151573
0.0687343
0.000161054
0.0162968
0.0541874
0.000162598
0.0128658
0.000149727
0.000173255
0.000167393
0.000158408
0.00015138
0.000147853
0.000155091
0.000180043
0.000169445
0.000262125
0.000160635
0.000150906
0.000190392
0.000223934
0.000149898
0.000173273
0.000150721
0.0680376
0.0236617
0.000148523
0.000177375
0.000231883
0.000176241
0.000147292
0.00583015
0.000449744
0.0586662
0.000159274
0.000181944
0.000154169
0.075301
0.000221031
0.00017115
0.0701222
0.000151146
0.000164679
0.000160002
0.0731554
0.000147533
0.000150769
0.0460807
0.0707608
0.0238041
0.000151592
0.0688355
0.00014792
0.000147634
0.0165741
0.000156337
0.051904
0.0828853
0.000151245
0.000153539
0.00015387
0.0201257
0.000196789
0.0765551
0.000153542
0.000229796
0.000152079
0.0124294
0.00014784
0.000181534
0.0801853
0.000194034
0.000149417
0.00812013
0.000317477
0.052016
0.000193036
0.000148288
0.000155301
0.000224162
0.000287468
0.00020329
0.000149521
0.000182948
0.0816206
0.000162886
0.000148697
0.0601625
0.0205822
0.000168564
0.00019009
0.0131543
0.000150396
0.000149116
0.000165134
0.000148272
0.000149232
0.0417277
0.00016909
0.0299664
0.000149541
0.000215645
0.00014827
0.000148368
0.000162245
0.000168842
0.0475981
0.0238399
0.0192028
0.00016007
0.000167764
0.000149135
0.0001551
0.0385283
0.0344932
0.000179163
0.000448436
0.0737
0.000150095
0.000162772
0.0128808
0.00017108
0.000183941
0.000149116
0.0131028
0.000208099
0.000184179
0.000158942
0.000168198
0.000168117
0.00738455
0.000156637
0.000161942
0.00019233
0.000148433
0.000154616
0.000163512
0.0515711
0.0788109
0.000228371
0.000149752
0.000155968
0.032433
0.00016164
0.000166314
0.000166629
0.000148711
0.0737308
0.000149406
0.0001671
0.00014973
0.000201339
0.000172035
0.000152064
0.000163153
0.0002087
0.000175015
0.000148715
0.000158937
0.000152333
0.000156265
0.000360758
0.0492618
0.0801924
0.00014928
0.000152637
0.000173942
0.000162619
0.000218966
0.000150254
0.000148302
0.000203905
0.0781531
0.000150008
0.000153873
0.0553886
0.000157437
0.000185624
0.0211866
0.000148753
0.000167354
0.0467652
0.0677083
0.000165968
0.000161717
0.0450155
0.000182697
0.000156291
0.000302606
0.0290597
0.000156571
0.0686165
0.000148337
0.000166912
0.0159424
0.0494297
0.000178263
0.000148002
0.000149226
0.0834403
0.000187527
0.055808
0.000155359
0.000166021
0.000159127
0.000331483
0.0577779
0.000149958
0.000336956
0.000151312
0.000149459
0.000147878
0.000185786
0.083843
0.000151502
0.000162958
0.000169073
0.0351401
0.000229057
0.000149239
0.000150027
0.0340092
0.0121395
0.000166036
0.000169686
0.0757769
0.000149802
0.000295483
0.000183419
0.0187284
0.000166657
0.0101502
0.0707775
0.0514726
0.000188008
0.000149572
0.0001657
0.0256601
0.000233401
0.0483134
0.000168583
0.0304039
0.000156995
0.0759537
0.0373116
0.000153733
0.00228704
0.000149022
0.000215983
0.000147245
0.000154394
0.000197752
0.000169517
0.000152505
0.000151284
0.000168734
0.000153434
0.000149515
0.000167279