/*--------------------------------*- C++ -*----------------------------------*\
| =========                 |                                                 |
| \\      /  F ield         | OpenFOAM: The Open Source CFD Toolbox           |
|  \\    /   O peration     | Version:  v2012                                 |
|   \\  /    A nd           | Website:  www.openfoam.com                      |
|    \\/     M anipulation  |                                                 |
\*---------------------------------------------------------------------------*/
FoamFile
{
    version     2.0;
    format      ascii;
    class       surfaceScalarField;
    location    "300";
    object      phi;
}
// * * * * * * * * * * * * * * * * * * * * * * * * * * * * * * * * * * * * * //

dimensions      [0 3 -1 0 0 0 0];
oriented        oriented;


internalField   nonuniform List<scalar> 
21222
(
0.0481847
-0.083689
0.0355044
0.0158586
-0.000744113
-0.0151145
-0.229455
0.203676
0.0257786
0.18763
-0.0914212
-0.0962088
0.0380969
-0.117292
0.0791955
0.30283
-0.266612
-0.0362182
0.00135953
0.000264512
-0.00162404
0.0263271
0.131016
-0.157343
0.0698416
0.106464
-0.176305
-0.0131572
-0.262676
0.275833
-0.0942451
0.0505794
0.0436658
0.0166527
-0.00986624
-0.00678645
0.0551393
-0.00695463
0.43438
-0.585353
0.150972
-0.0128531
0.0141663
-0.0013132
-0.0242775
0.529232
-0.504954
-0.160358
0.186685
-0.333383
-0.089352
0.422735
-0.131474
0.180811
-0.0493367
-0.176151
0.0446769
0.343631
0.0902288
-0.43386
-0.0122674
0.00932127
0.0029461
-0.155213
0.189716
-0.0345029
0.00764546
0.00900723
-0.0890349
0.143758
-0.0547229
0.0166511
-0.000792415
0.388262
-0.452815
0.0645523
0.00214597
-0.000786436
-0.101091
-0.00487784
0.105969
0.14897
-0.176273
0.0273025
0.253296
-0.262507
0.00921117
-0.0774065
-0.326015
0.403422
0.545091
-0.392868
-0.152224
-0.0518115
0.0114081
0.0404034
0.00473464
-0.00564524
0.000910606
0.0158093
-0.0141578
-0.00165151
0.0355662
-0.0211973
-0.0143689
0.0262203
-0.171785
0.145565
-0.0844903
0.132459
-0.0479685
-0.105033
-0.00183937
0.106872
-0.0161461
0.0161461
-0.00370962
0.0122434
-0.00853375
-0.0888386
0.245358
-0.15652
-0.575985
-0.0102977
0.586283
-0.188394
-0.0315448
0.219939
0.0457352
-0.13477
-0.102763
0.0478722
0.0548904
-0.0125522
-0.000167072
0.0127193
-0.0125813
2.91146e-05
0.200355
-0.533738
-0.00944625
0.0116297
-0.00218349
0.0937412
0.0938888
-0.000883898
0.0137443
-0.0128604
0.0158482
-0.00982992
-0.00601825
0.182169
0.0963462
-0.278515
0.0142541
0.00155521
0.0236522
-0.0273311
0.00367892
-0.166873
0.00863102
0.158242
0.461906
-0.153326
-0.308581
0.0201252
-0.24958
-0.0411302
0.144539
-0.103409
0.0435299
-0.0533271
0.00979722
-0.0171826
0.012681
0.00450169
-0.282568
-0.181579
0.464148
0.0411815
0.104098
-0.14528
0.023804
0.0131739
-0.0369778
-0.0452605
0.0648102
-0.0195496
-0.511906
0.0639806
0.447926
-0.474541
0.191973
0.269591
-0.0874225
0.00775354
0.00809462
0.0355829
-0.171634
0.136051
0.00438025
0.000354391
-0.00175025
-0.00182849
0.00357875
-0.245363
-0.115515
0.360879
-0.000846362
-0.00155975
0.00240612
0.00693787
0.194033
-0.200971
0.0308239
-0.0247347
-0.00608913
-0.2179
0.0295059
-0.0826742
-0.381044
0.31175
-0.5204
0.208651
-0.00898016
0.00537282
0.184321
-0.148738
0.023583
0.00724082
0.314206
-0.421183
0.106977
-0.38451
0.118023
0.266486
0.0105346
-0.011381
-0.0130438
0.0140694
-0.00102565
-0.0143921
0.00153894
-0.0267545
-0.0674906
0.184608
-0.229285
0.0446774
-0.126239
0.0808632
0.0453757
0.501421
-0.189671
0.106594
0.223795
-0.330389
-0.0138613
0.0150129
-0.00115162
0.0140836
-0.0128402
-0.00124334
-0.244323
0.155485
-0.0104423
0.0121973
-0.00175501
-5.51821e-05
0.00640324
-0.00634806
0.0893263
-0.0427346
-0.0465917
0.0298645
-0.541771
-0.0121283
0.0123925
-0.000264137
-0.00292851
0.266563
0.256993
-0.523557
0.0521523
0.0371739
-0.133755
0.0492643
-0.00777507
-0.000845207
0.00862028
-0.0117221
0.0126882
-0.000966063
0.217023
-0.231029
0.0140065
-0.14127
-0.0224838
0.163753
0.000951417
0.0131321
-0.049578
0.259137
-0.209559
-0.00856871
0.000793638
-0.281686
-0.101462
0.383148
-0.268811
0.388541
-0.119729
-0.015672
7.58156e-05
0.0155962
-0.446501
0.164815
-0.0132226
0.0139441
-0.000721492
0.00684381
-0.00818018
0.00133638
0.015709
-0.015709
0.14298
-0.096157
-0.0468233
0.214714
-0.263843
0.0491292
-0.533383
0.116526
0.416857
-0.0130061
0.0151974
-0.00219135
-0.109674
0.00858294
-0.571478
-0.00450728
0.00967032
-0.0395564
0.0298861
-0.138109
0.516893
-0.378785
0.115031
0.281119
-0.39615
-0.0533128
-0.0729261
0.0112268
-0.00945715
-0.00176963
-0.00160621
0.00257485
-0.000968635
-0.0758004
0.0642926
0.0115078
-0.00912271
0.0122485
-0.00312574
0.00464606
0.144324
0.127446
0.242371
-0.369818
0.183794
-0.298736
0.114941
-0.019141
0.019279
-0.000138041
-0.365384
-0.00281545
0.3682
-0.350268
0.104905
-0.0205812
0.00144021
-0.0124386
0.0147731
-0.00233453
-0.220496
0.170918
-0.0112399
0.000797584
-0.168252
0.0269823
0.0110445
-0.00851115
-0.00253335
-0.131908
-0.0117828
0.143691
0.0493992
-0.0762353
0.0268361
-0.20722
-0.0344197
0.241639
-0.104306
0.0187792
0.0855269
-0.0175803
-0.211546
0.229126
-0.0123537
0.0123537
-0.325534
0.251318
0.074216
-0.27957
0.0723501
0.110333
-0.0722359
-0.0142409
0.00101829
0.16563
0.070405
-0.236035
0.371316
-0.395593
0.24005
0.06278
-0.0185094
0.00194267
0.0165667
0.237437
0.224469
-0.010846
0.00139979
0.0687969
-0.0563474
-0.0124495
-0.0140232
0.0149245
-0.000901279
-0.0545068
-0.173753
0.22826
-0.011448
-0.000274125
-0.0117527
0.0141749
-0.00242221
-0.00401329
0.0811557
-0.0771424
0.00351886
-0.00526912
0.00319928
-0.0048055
-0.0958294
0.073491
0.0223384
-0.596382
0.588713
0.00766824
-0.0125541
-0.000489705
0.244444
-0.257601
-0.247424
0.207479
0.0399449
0.0225339
0.0130323
-0.424413
-0.0620858
0.486499
-0.0143831
0.0108622
0.00352095
0.0047645
-0.0037021
-0.0010624
0.0106428
0.000583967
0.0737743
0.0451832
-0.118957
0.226069
-0.219131
-0.0947635
-0.438619
0.121075
-0.00615003
-0.114925
-0.20713
0.212999
-0.00586905
-0.128201
0.174192
-0.0459904
0.013591
-0.118624
-0.00554738
-0.127701
0.133248
-0.00454194
0.00386526
0.000676685
0.1036
0.0167319
-0.120332
-0.195112
0.0398998
-0.0282604
-0.0676056
0.095866
-0.0103487
0.0124038
-0.00205504
-0.0160362
0.0123265
-0.209438
0.475636
-0.266197
0.00158756
-0.00807329
0.00648573
-0.131738
0.0906078
0.181815
0.192522
-0.374336
-0.271526
0.42317
-0.151644
0.0753135
-0.062985
-0.0123285
0.0158334
-0.0143538
-0.00147963
0.196331
-0.22431
0.0279792
-0.0162474
0.0022242
0.00163638
-0.0119851
0.255362
-0.374968
0.119606
0.155513
-0.159176
0.003663
-0.113233
0.154415
-0.0403332
0.201397
-0.161064
0.617027
-0.385389
-0.231638
0.0107715
-0.013847
0.00307542
0.130793
-0.149695
0.0189017
-0.446566
0.335457
0.111109
-0.0146809
0.0022423
-0.182833
0.146029
0.036804
0.00131763
0.00471782
-0.00603544
0.00687054
-0.00813234
0.0012618
0.0265364
-0.0348989
0.00836255
0.00562243
-0.00567761
0.00669354
-0.00537591
0.0224239
-0.16213
0.139706
-0.0518845
0.248216
0.206574
0.0104484
-0.0107238
0.173034
-0.162311
0.00976484
-0.181393
0.171628
0.050757
-0.00722704
-0.23408
0.275947
-0.0418667
-0.589363
0.589363
0.12462
-0.00354472
-0.000161697
-0.0110434
-0.0202422
0.0312856
-0.0653843
-0.523979
0.202233
-0.25674
0.00649642
-0.110802
-0.13779
-0.499928
0.637719
0.172602
0.00155522
0.043524
-0.0450792
0.190161
-0.223259
0.0330981
0.15432
-0.194653
0.00473566
-0.00514567
0.000410003
0.00711905
0.000340575
-0.00745962
-0.238748
0.345343
0.200145
-0.242651
0.0425063
-0.0394229
0.0296831
0.00973978
-0.0145039
1.67475e-06
0.0145022
-0.0509172
-0.0411955
0.0921127
-0.0639769
0.0599636
0.028758
0.00489075
-0.0336487
-0.603376
0.140199
0.463178
0.00703682
8.22278e-05
0.134684
-0.0274112
-0.107273
0.394096
-0.434006
0.0399108
0.383089
0.00351432
-0.00146335
-0.00205097
-0.0224778
0.00200065
0.0204771
0.186447
0.0432456
-0.229693
-0.00289554
0.0023962
0.000499336
-0.160291
0.233313
-0.0730211
-0.00509315
0.160607
-0.00858026
0.000296595
0.00828366
-0.169471
-0.0111484
-0.050913
-0.0248874
0.2588
-0.0440862
-0.0141234
0.00111731
0.0910638
0.0436204
0.0858864
-0.0821623
-0.00372415
-0.222141
0.0618496
-0.0278045
0.117184
-0.0893792
-0.0376001
0.237745
-0.0486273
-0.335882
-0.0115361
0.0126663
-0.00113019
0.0154774
0.00125932
-0.0167367
0.298086
-0.261717
-0.0363691
-0.0209856
0.124586
-0.0141402
-0.00153184
-0.14064
0.190868
-0.0502278
-0.0230694
0.0291868
-0.00611739
0.00402177
0.0116872
-0.027739
0.0103573
-0.000140787
-0.0102165
0.0835865
0.0399526
-0.123539
0.229765
0.0235311
-0.149303
0.312955
-0.163652
0.00788997
-0.00762725
-0.000262724
-0.00630883
0.10772
-0.376531
-0.0127519
-0.0013399
0.0140918
-0.00170214
0.00719839
-0.0081387
0.000940301
-0.012416
0.0032933
0.00603551
0.000217417
-0.0305842
-0.21684
-0.00114873
0.00766587
-0.00651714
0.009458
-0.0122349
0.00277687
0.0093216
0.00103565
-0.0389212
0.143019
-0.04947
0.193813
-0.144343
-0.012472
0.00102403
-0.00838297
-0.174451
-0.373127
0.308985
0.0641422
-0.454192
0.182665
0.225249
-0.040641
0.00644635
-0.00759508
-0.0138866
0.0632858
0.000292345
0.0105311
-0.0108235
0.0659743
-0.194175
-0.0438766
0.358082
0.0120172
-0.00965414
-0.00236305
-0.00140521
-0.351094
-0.182323
0.533417
-0.149173
0.382809
-0.233636
0.00623331
0.000915188
-0.0071485
0.0764205
0.34889
-0.425311
0.00855277
-0.00168223
-0.0118217
0.0126645
-0.000842848
-0.072247
-0.0537474
0.125994
-0.098043
0.0924957
0.398251
-0.28322
-0.185129
-0.0370122
-0.333588
0.130518
0.20307
-0.0206374
-0.575744
0.0019722
0.128127
-0.112065
-0.0160626
0.0122139
-0.00144235
0.0525314
-0.238634
0.186103
-0.0959938
0.0599989
0.0359949
0.212354
-0.421792
-0.0111834
-0.00128865
-0.104955
-0.0287996
0.048559
0.244923
0.0232754
-0.208404
-0.0128815
0.0125843
0.000297229
-0.691357
0.500952
0.190405
-0.000909581
0.00593168
-0.00434412
-0.517529
0.239351
0.278177
0.0121577
-0.00269974
-0.000421996
0.00393632
0.00487538
-0.00254777
-0.00232761
-0.00176708
0.00222323
-0.000456149
-0.234094
0.415909
0.0614089
-0.0824137
0.0210048
-0.219124
0.569685
-0.350561
0.0162629
-0.619639
0.00348464
-0.0418616
0.0383769
0.0693364
-0.528224
0.458887
-0.406168
-0.0278388
0.0576399
0.00457003
-0.0622099
0.0126072
-0.144515
0.0126961
-0.0116986
-0.00099757
0.449137
-0.633892
0.184755
-0.0429151
0.226709
-0.0117086
0.00778953
0.00391906
-0.01346
0.0142981
-0.000838103
-0.033629
0.0317731
0.00185595
-0.395249
0.149521
0.245728
0.395321
-0.139959
0.356217
0.240798
-0.316651
0.498021
-0.18137
-0.0108494
-0.000686663
-0.0251844
-0.0775783
0.0907944
-0.00490801
-0.0148263
-0.0848282
0.00266593
0.0292156
-0.0357704
0.00655474
-0.00137032
-0.505877
0.367768
-0.0142055
-0.000298362
0.000264612
0.00762536
-0.215203
-0.0473038
-0.0727142
0.14438
-0.0716654
-0.0252916
-0.300243
0.430026
0.18817
-0.618196
-0.0290524
0.00598298
-0.011484
-0.00139751
0.116276
-0.14408
-0.0930634
-0.240525
-0.333826
-0.183703
-0.167752
-0.227497
-0.00518708
-0.00168671
0.00687378
0.00906571
-0.0124564
0.00339068
0.0368086
0.147512
-0.440241
0.509578
-0.0194823
-0.0763471
-0.0847159
-0.0290486
0.113764
-0.00269817
0.00238521
0.000312953
-0.157756
0.147033
4.55644e-05
-0.0029411
-0.00318096
0.000482794
-0.0964333
0.125941
-0.0295077
-0.359373
0.18562
0.00217267
0.00341203
-0.0489382
-0.00287331
0.00117065
-0.0129923
-0.00153759
0.00191505
-0.000377457
0.0849515
-0.152801
0.0678499
0.0160896
0.433047
-0.141566
-0.0894628
0.00597439
0.00199619
-0.228855
0.156321
-0.0573776
-0.0989433
-0.115697
-0.286909
0.402606
-0.00153399
-0.0105943
-0.00358463
0.00040367
0.149596
-0.157968
0.0083719
-0.0100787
-0.00198952
0.0120682
0.104803
0.0233245
0.00467521
0.0861192
-0.0229496
0.00933478
0.0136148
-0.220932
0.448947
-0.228015
0.00645431
0.00134365
-0.00779796
-0.0125704
0.0116865
0.106342
-0.155812
-0.191221
0.453058
-0.261838
-0.406577
0.482997
-0.136929
0.125146
0.00914449
-0.00936881
0.000224319
0.115677
-0.466771
0.0486933
-0.0996105
0.236599
0.0614867
0.0187889
-0.0118118
-0.00697705
0.0269011
-0.131856
0.055161
0.10116
-0.500907
-0.19045
-0.0114337
0.00019385
-0.00128854
-0.125417
0.163199
-0.037782
0.182019
-0.216328
0.0343094
0.0410622
-0.256133
0.0100858
-0.00954381
-0.000541983
0.000769644
0.446115
-0.142213
0.212055
-0.127146
0.0307128
-0.288136
0.155225
0.132911
-0.128843
0.177208
-0.0483649
0.0131665
-0.0121418
-0.00102463
0.124337
-0.0352329
-0.0891045
-0.315505
-0.0576214
-0.0316221
0.00914432
0.230098
0.186673
-0.416771
-0.00877567
0.0117916
-0.00301596
-0.13091
0.174949
-0.148729
0.0147783
0.125901
-0.14068
0.0311826
-0.115898
-0.0110418
-0.000391926
0.508913
-0.314303
-0.19461
-0.206909
0.216674
0.0627816
-0.00514169
0.0101547
-0.013716
0.0035613
-0.185375
-0.273961
0.459336
0.194748
-0.21369
0.0189423
-0.243185
0.0938818
0.0141326
-0.00137227
-0.0127604
-0.0549166
0.0975505
-0.0426339
-0.0104536
0.0107329
-0.000279275
-0.00131985
0.00777416
-0.148671
-0.0195809
-0.347055
0.277513
0.0695416
-0.00300041
0.0319982
-0.0289978
-0.011952
-0.00244009
-0.173287
0.0444432
-0.00330828
-0.000276352
-0.021704
0.083269
-0.061565
0.012419
-0.00335333
-0.166691
0.0180202
-0.0187788
0.213526
0.00256005
-0.0270889
0.251249
-0.22416
-0.124617
0.169533
-0.0449159
0.0128718
-0.000175703
0.167946
-0.205015
0.0370687
-0.0143276
-2.6252e-05
-0.228223
0.119355
0.108868
0.560342
-0.406828
-0.153514
-0.296176
0.238165
0.0580115
0.014029
-0.00115718
-0.00452614
0.170378
-0.0166917
-0.153687
0.0100479
-0.000370638
-0.00967727
0.0360413
-0.160658
0.00927794
-0.0108382
0.00156024
-0.00117393
0.0103184
-0.0739864
0.147761
0.645462
-0.278676
-0.366786
-0.00261171
0.000844636
0.0571617
-0.198223
0.141061
0.16914
-0.146716
0.209509
-0.430441
-0.111974
0.057057
0.0115921
-0.249672
0.23808
-0.126664
0.054417
-0.145437
0.156131
-0.0106946
0.00265613
0.00838836
0.443577
0.126032
-0.569609
-0.0465019
0.189223
-0.142721
0.00330206
0.00674585
-0.015571
-0.00501018
0.0528953
-0.000568023
-0.00750527
0.0142241
-0.0154634
0.00123935
-0.00673326
0.208966
0.528819
0.189668
-0.380888
-0.00508345
0.00273508
0.00234837
-0.150511
0.022686
0.127825
-0.0114737
-0.129166
0.282554
0.0215797
-0.0245801
0.0594767
-0.322153
-0.204613
0.29582
-0.0912071
0.192019
0.111433
-0.303452
-0.00958047
0.00889251
-0.0026592
0.106309
-0.0706022
-0.0357065
0.000685638
0.0616075
-0.0581228
-0.18921
0.107847
0.0813629
0.0139912
0.000232888
-0.205053
-0.0830831
0.289776
-0.134552
-0.10746
-0.00221451
0.0376809
-0.10231
0.0646287
0.00118879
-0.0266157
0.27106
0.00690435
0.436673
0.150862
-0.175051
0.0241884
0.029073
-0.394457
-0.0621096
0.292208
0.0292983
0.14108
0.133142
0.331005
-0.464147
-0.121558
0.441848
-0.32029
0.0941965
-0.121614
0.0274178
0.00199217
0.246128
-0.0596809
-0.00225626
-0.122688
0.158101
-0.0354135
-0.618312
0.451205
0.167107
0.000741346
-0.285613
0.0805606
0.0115601
-0.0103511
-0.00120892
0.118057
-0.13191
0.0138525
-0.295996
0.0913831
0.157155
-0.202486
0.0453317
-0.268596
0.237082
0.031513
-0.0831333
0.141861
-0.0587277
-0.158624
0.0332063
-0.0134749
1.4873e-05
0.161384
0.134436
0.237581
-0.244314
-0.00169474
-0.000491194
0.00218593
-0.0103646
0.00517751
0.00465103
-0.020222
-0.0699456
0.107054
-0.037108
-0.104446
-0.00301371
0.0707896
-0.331216
0.260426
-0.329206
0.260359
0.068847
0.191128
0.00380862
0.00478863
-0.00533664
0.000548017
-0.0115345
0.00188037
-0.111914
-0.0385972
0.136307
-0.0527203
-0.116592
0.154686
-0.0380939
0.0380064
0.350256
-0.345791
-0.272521
-0.230055
0.202354
0.0277016
-0.221658
0.319935
-0.0982771
0.0362904
0.0184072
-0.0546976
-0.140979
0.52054
-0.379561
-0.00144583
-0.0140176
0.148014
-0.156487
0.00847263
-0.0102429
0.0112866
-0.00104376
-0.582686
0.582686
-0.203319
0.180938
0.0223813
0.29259
-0.369997
0.0400005
0.0147152
-0.0547157
-0.120624
0.555005
-0.0285085
0.0248787
0.00362982
-0.0547518
0.137755
-0.0830032
-0.307739
-0.145075
-0.11244
0.0739196
0.0385202
-0.498974
-0.236762
-0.0318331
0.509153
-0.554616
0.0454633
-0.203295
0.145561
-0.124372
-0.0211891
-0.273322
0.244494
0.0288276
0.0110028
-0.00172488
0.441588
-0.351359
-0.148114
0.0649807
0.151381
-0.177334
0.0259524
0.139633
-0.149344
0.00971034
0.323617
0.174404
-0.0503619
0.06177
-0.147863
0.0236657
0.124197
0.0157697
-0.0127716
0.0111696
0.00160192
0.0258904
-0.212536
0.186646
-0.0650758
0.105705
-0.0406291
0.00727971
-0.00845107
0.00117136
-0.00610835
-0.00493505
0.300642
-0.139258
-0.411449
0.537481
0.00376728
0.0021644
0.211396
-0.317108
0.105712
0.158077
0.0206695
-0.178747
0.0494581
-0.0237758
-0.0256823
-0.0123401
0.00058745
0.128299
0.00740362
-0.135702
-0.010902
0.0111224
-0.000220351
-0.195027
-0.390325
-0.0153107
-0.0433806
0.0586913
0.0869593
-0.154646
0.0676863
-0.00848076
-0.0305355
-0.0117417
0.0422772
-0.483023
0.297647
0.135549
-0.485841
0.350292
0.136947
0.0110669
-0.0271745
0.241097
-0.267713
-0.143963
0.0273716
-0.00887282
0.011602
-0.00272915
0.128664
-0.420504
0.468462
-0.159374
-0.309088
0.000135198
0.00365272
-0.00378792
0.0179059
-0.0484413
-0.0107768
0.0120847
-0.00130798
-0.16891
0.495058
-0.326148
-0.0983494
0.156909
-0.05856
-0.417852
0.0813707
0.336481
0.282329
0.262763
-0.00887838
0.120214
-0.531663
0.0032946
-0.0118058
-0.0412402
-0.00748781
0.0367034
0.13626
-0.370355
-0.270051
-0.0297052
0.299757
0.193548
-0.036393
0.230854
-0.178323
0.0101049
-0.00996433
-0.000140599
-0.00145838
-0.0202576
0.021716
-0.0105978
-0.00174236
-0.232302
0.214722
0.183453
-0.208943
0.0254905
0.350594
0.239904
-0.590498
-0.256076
0.0408735
0.043845
-0.0200411
-0.021376
-0.00362746
0.00185032
0.00177713
0.175298
-0.0239168
-0.12215
-0.025649
-0.0413593
0.0670083
-0.0433741
-0.163756
-0.22733
0.221446
0.00588407
-0.15336
0.0306726
-0.000242996
-0.00145174
-0.320671
0.0990129
-0.250883
0.0235535
-0.110104
0.0450283
0.0121861
-0.0218603
0.00967414
0.100375
0.0495192
-0.149894
0.0144903
0.00429856
-0.0370875
0.502388
-0.4653
0.222959
-0.0699742
-0.152984
-0.000680496
-0.0487689
0.214399
-0.000496609
0.219881
0.248581
0.0336474
-0.308013
-0.0211926
0.00416008
-0.333727
-0.112839
-0.0155486
-0.026189
0.0417375
-0.00658066
0.00648521
9.54496e-05
0.619896
-0.258373
-0.361523
0.0677481
-0.0277476
0.414899
0.204996
-0.392069
0.329983
-0.0881351
0.0469395
0.00174372
0.0357756
0.192059
-0.227834
0.0107983
-0.000462451
-0.0103358
-0.00908911
0.000781794
-0.00425162
0.00346983
0.0298375
-0.00618527
-0.450572
0.330958
0.119614
-0.0651375
-0.179186
-0.168233
-0.380047
0.271536
0.108511
0.202576
-0.176685
-0.33222
-0.0478274
-0.0388984
-0.0570954
-0.0322943
0.0252645
0.00702984
0.179224
-0.225083
0.0458588
0.0339483
0.201401
-0.235349
-0.0791885
0.290584
-0.289549
0.402514
-0.112966
-0.00791722
-0.00379137
-0.547878
0.548235
-0.00035703
-0.133824
0.0790719
0.06485
-0.188715
0.0137107
-0.000925167
-0.0127856
0.0374893
-0.0546026
0.0171133
0.143602
0.00271482
-0.146317
-0.00722286
0.00735806
-0.100152
-0.00368555
0.103837
-0.00519176
-0.0109543
-0.137323
-0.0388278
-0.513492
-0.0365548
-0.381297
-0.267327
0.266176
0.00115138
-0.16105
-0.00582284
-0.0397605
-0.256416
-0.175368
0.20307
-0.0277017
-0.221466
-0.015296
0.162269
0.0606897
-0.00516889
0.00740789
-0.002239
-0.472991
0.304082
-0.117069
-0.111154
0.168696
-0.115079
-0.0536165
-0.103431
0.327226
0.213685
-0.154101
-0.0595842
-0.0252527
-0.136877
-0.276971
0.074551
0.20242
0.0321288
0.0173293
0.406657
-0.535512
0.315433
0.220079
-0.0035363
-0.0035932
0.00295372
0.000639476
0.00245796
-0.0113308
0.0126335
-0.0338308
-0.240374
0.36782
0.00207906
-0.129335
0.10386
0.0254752
0.150851
-0.391225
-9.87793e-05
0.0123063
-0.0122075
-0.646502
0.426215
0.220287
-0.503159
0.177144
0.182811
-0.194134
0.0113228
0.175087
-0.0101615
0.0124729
-0.00231137
-0.267882
0.203737
0.0641451
-0.0202916
-0.0191312
0.065766
-0.247159
-0.00378798
-0.141578
0.0688643
-0.0833941
-0.105816
0.197356
-0.125301
-0.0720546
-0.0124631
-0.000118199
0.0488096
-0.0125192
0.00242343
-0.0866958
-0.00907294
0.0991497
-0.0900768
0.00287552
-0.10708
0.104204
-0.000858984
0.448874
0.196588
-0.00193128
0.0120882
-0.010157
-0.000961131
0.0118845
-0.0109233
-0.0467807
0.0954739
0.0294906
-0.00295421
-0.544227
0.400271
0.143957
0.00634821
0.00979788
0.13321
0.12559
-0.0196754
-0.0491129
0.0335644
0.00820072
-0.00769538
-0.000505341
0.0462334
-0.280314
-0.349614
0.270426
-0.00474783
-0.0182017
-0.0120044
0.012507
-0.000502613
0.0679194
-0.0651254
-0.501691
0.282566
0.0633906
-0.112096
0.0487055
-0.00424258
0.0020553
0.00218728
-0.0034422
-0.000800376
0.0732056
-0.0790339
0.00582831
-0.255135
0.0336685
-0.0204552
0.0364049
-0.0411142
0.00470927
0.00780112
-0.00705166
-0.000749463
-0.0302371
0.00959938
-0.00745813
-0.117703
-0.011632
-0.436597
0.315039
0.113533
-0.391518
-0.0215992
0.413117
-0.158123
-0.0359349
0.194058
-0.05987
0.160245
-0.0371229
0.0420136
0.266426
0.18679
-0.453215
-0.153979
0.224384
-0.194047
0.229822
0.0114334
-0.0105182
0.00240625
-0.126355
0.0283122
0.000658029
-0.0133617
0.00135724
0.0928497
-0.315164
0.222314
0.00270507
-0.00449794
0.00179287
-0.313815
-0.221697
-0.247964
0.258198
-0.0102343
0.215496
-0.0234377
-0.064964
0.0518743
0.0130897
-0.0122434
-0.000219758
0.30765
0.309376
-0.0100259
0.0112286
-0.00120268
-0.14523
0.118376
0.0268537
0.0047754
-0.00498127
0.000205872
0.0390445
-0.0902101
0.121393
-0.00133162
0.000403002
0.000928616
-0.157631
0.107156
0.0504749
-0.00639243
-0.00397215
-0.170006
-0.313017
-0.0927757
-0.249401
-0.089036
0.0919115
-0.0224244
-0.0986057
0.301319
-0.202713
-0.272736
0.00540891
-0.182799
0.0246765
-0.183816
-0.00263328
0.18645
-0.00963295
-0.00217885
-0.402648
0.113099
-0.26275
0.274343
-0.00282663
0.0092923
-0.00646567
0.0139154
-0.00140221
-0.0125132
-0.00757974
0.00241085
0.0620386
0.0196737
-0.0817123
0.20879
-0.246765
0.037975
0.0110841
-0.0307997
-0.363095
0.498645
0.000294439
-0.0108922
0.150899
-0.0272094
-0.12369
0.0119183
-0.0109289
-0.000989395
-0.00159718
-0.00203028
0.00143713
-0.103464
-0.0065261
0.10999
-0.000305285
-0.00170445
0.00200974
-0.145371
0.1223
0.0230716
0.0288056
-0.0740661
-0.00454188
0.00109968
-0.159337
0.155651
-0.412677
-0.0839751
0.496652
-0.134624
-0.28952
0.424144
-0.050469
0.0409216
0.00954736
0.000678315
-0.0572186
-0.119054
0.00132651
0.0110659
0.0478352
0.141388
0.000124786
-0.00677444
0.00664966
-0.0253485
0.0350189
-0.233487
0.214451
0.0190362
0.0375727
0.0272374
-0.0928795
0.0993759
0.0154405
-0.00255737
-0.0128831
0.111711
0.0391881
-0.210158
0.121801
0.0883572
-0.199091
0.23304
-0.50509
0.367299
0.149942
-0.139073
-0.0108695
-0.196175
-0.0154198
0.211595
0.0868935
0.0560869
-0.163003
0.591229
-0.2657
-0.325529
-0.0609738
-0.288641
-0.0015822
0.00236399
0.245912
0.148079
-0.39399
-0.470693
-0.0839225
-0.0687299
-0.420422
0.489152
0.0285601
0.121382
0.2308
0.0121738
-0.242974
-0.0427911
0.127743
-0.00158366
-0.228472
-0.0119148
0.0112977
0.000617156
-0.162592
-0.114379
-0.50834
0.367361
0.150634
0.237907
0.0213506
-0.0466991
0.236978
0.104549
-0.341527
-0.0110272
-0.188261
0.429019
-0.240757
0.000458096
0.010073
0.427264
-0.305329
-0.121936
0.0116844
-0.000562023
0.0135157
-0.0137958
0.000280061
-0.654832
0.149742
-0.0600699
0.0398277
0.022839
0.0849313
-0.0248668
-0.0600645
0.000573466
0.209283
-0.229977
0.0206944
-0.144897
0.0316636
-0.0704965
-0.0143317
0.0139624
-0.000446666
-0.093185
0.372174
-0.278989
-0.0409975
0.0350687
-0.131226
-0.249142
-0.0241801
-0.0057019
-0.00294623
0.00864813
-0.049773
-0.532913
-0.0122873
0.000372486
-0.0118503
0.0124482
-0.000597888
0.00807912
0.00609578
-0.0545867
-0.000834683
-0.0369139
0.0377486
0.00193787
-0.391602
0.057875
0.000544716
0.011809
-0.251949
0.4028
-0.339306
0.100557
-0.0100477
0.011719
-0.00167128
0.0161085
0.00274458
-0.0188531
0.294363
-0.0484514
-0.160195
0.0354808
0.124714
0.0581203
-0.0695088
0.0113885
-0.140005
-0.0701536
-0.00548935
0.00549119
-1.84197e-06
0.375146
-0.0661611
-0.0169315
0.0304266
-0.443103
0.0230725
0.0457245
-0.0720659
-0.0623355
0.0412185
-0.115115
-0.23775
-0.417081
-0.0034984
0.0399033
0.0180872
-0.209382
0.191294
-0.0994268
0.106399
-0.00697198
0.0256551
0.127081
-0.152736
-0.420434
0.265485
0.154949
-0.0392003
-0.000356114
0.114703
-0.126844
0.012141
0.00163975
0.00844604
0.00281285
-0.10224
0.287095
0.14017
-0.0785729
0.00807637
0.0183751
0.224423
-0.242798
0.258577
-0.319551
0.125488
-0.0254294
-0.100059
-0.0225717
-0.042012
0.0645836
0.000456158
-0.00582224
-0.00375422
0.00957646
0.0125192
0.0816772
-0.144611
0.00553845
0.0581783
0.00460326
0.0168401
-0.004654
0.00616509
-0.0112754
0.0051103
-0.0381101
-0.0257086
0.0515276
-0.0258189
-0.242852
0.0313069
0.535473
-0.18773
-0.347743
-0.431093
0.296469
0.140832
-0.167662
0.0268303
0.0125612
-0.0125612
-0.00645679
0.00658157
0.538764
-0.000238275
-0.00167929
0.00191756
-0.00164361
-0.0926397
0.0942833
-0.52245
0.300023
0.222426
-0.074177
0.058291
0.0158859
-0.0247218
-0.022692
0.0246926
0.0799504
-0.05452
-0.0254304
0.129576
-0.147411
0.0178345
0.0756587
-0.0847316
0.0118406
-0.068188
0.621496
-0.367365
-0.254131
0.00200848
-0.00571058
0.330946
-0.165345
-0.0838376
0.249183
-0.0293516
-0.0716894
0.0751018
-0.0285212
-0.0465805
0.202851
-0.22764
0.0247893
0.412509
0.157177
-0.0243674
0.0282907
-0.00392329
-0.370997
0.277812
-0.00908778
0.00338588
-0.342137
0.235064
0.107073
-0.0105123
0.0113903
-0.000877985
0.127189
-0.122543
-0.31472
-0.105714
-0.000370267
0.00286573
-0.012064
0.00919825
0.0104288
-0.0113899
0.0121313
-0.000157338
-0.011974
0.00266229
0.0494297
0.0502978
-0.0997274
0.0834588
-0.0253385
-0.0103013
-0.101926
0.115517
-0.17745
0.231086
-0.0536359
0.00926199
0.00315705
0.00750115
-0.0321061
-0.0713575
-0.144587
0.0562489
0.0883382
-0.225438
0.318287
0.0113297
-0.0442972
0.147967
-0.10367
0.00174393
0.245438
0.246148
-0.064932
-0.181216
0.0147305
-0.00982621
-0.00490432
0.00121377
0.0129189
-5.11543e-05
-0.0371038
-0.0108898
0.0107328
0.000157066
-0.0132114
-0.0517526
0.0159348
0.0626153
-0.0785501
0.0362025
-0.00651936
0.000814262
0.0785841
-0.133532
0.0549476
0.141939
0.0217656
-0.163705
-0.0489739
-0.207103
0.144714
-0.457824
0.31311
0.106638
0.090718
0.00410387
0.0106267
-0.00186557
0.00224545
-0.00037988
-0.267709
-3.93035e-05
0.00482793
0.0109523
-0.000181545
-0.0107708
-0.492157
0.134036
0.358121
-0.138502
-0.0157243
0.154226
0.00795828
-0.00933055
-0.365833
-0.00131617
-0.00536728
0.144174
0.291651
-0.435825
-0.368633
0.258553
0.110079
0.116052
-0.117695
0.178253
-0.210204
0.0319517
-0.048583
-0.00167484
0.00783021
-0.00615537
0.442629
-0.479716
-0.0252021
-0.139686
0.080112
0.0595743
-0.0854154
-0.324913
0.410329
0.656156
-0.318339
-0.337818
0.188279
-0.131117
-0.119691
-0.0379408
-0.142179
0.408605
-0.000177783
0.119489
0.00599862
-0.0314394
0.235903
-0.204464
9.75651e-05
-0.0649416
0.064844
-0.0105504
-0.000328569
0.010879
-0.0414945
0.221383
0.191006
-0.412389
0.0724146
0.0420025
-0.114417
0.145675
0.235113
-0.380788
0.198922
-0.0123598
-0.00196781
0.194629
0.141426
-0.169887
0.0284607
0.000519645
-0.369904
0.284489
-0.00476553
-0.00129498
0.00606051
0.00811393
-0.00756269
-0.000551233
0.111239
-0.0388245
0.0220453
0.434624
-0.45667
0.0199371
-0.158439
0.0348025
-0.0195607
-0.0152418
0.460799
-0.5389
0.0781018
0.0203528
-0.214399
-0.00151654
0.0123769
-0.0110516
-0.00132536
-0.134294
0.0514985
0.082796
-0.0719249
0.0493532
0.000272064
0.00282603
0.0291722
0.138156
0.0309844
0.0619313
0.0213376
-0.0517922
0.00132322
-0.0109997
-0.00105376
0.0120534
-0.057517
0.0434542
0.0140628
-0.252597
0.270972
0.00671833
0.0183429
-0.0250613
0.206468
-0.0967828
-0.109686
0.000561813
0.0673576
0.111853
0.0634455
0.0110267
-0.206027
0.0456693
0.00542994
0.00619979
-0.0514848
-0.057975
0.10946
0.338275
0.114783
0.172233
-0.199322
-0.258338
-0.260688
0.519025
-0.0709216
0.108603
-0.104257
-0.00572478
0.00580305
-7.82658e-05
0.0110272
-0.0278492
0.00656079
0.0212884
0.20687
-0.383006
0.176136
0.00940179
-0.0107309
0.00132909
-0.000494771
-0.405275
-0.00982479
0.00970039
0.000124397
-0.198889
0.184904
0.013985
-0.00359994
-0.00840463
0.0120046
0.222814
-0.204727
0.00746834
-0.00100232
-0.00646602
-0.00490522
0.000363344
-0.35493
-0.0366717
-0.0128623
-0.000933478
0.439339
-0.219459
0.000396787
-0.184492
0.227738
0.0409565
0.0826686
-0.123625
0.0383686
-0.108314
-0.0977442
0.289763
-0.0996877
0.103791
-0.00410378
-0.0684489
0.155408
-0.123537
0.0333273
0.00432368
0.0918234
0.114645
-0.0236807
0.0230772
0.000603521
0.0122412
-0.00297916
-0.0216721
-0.14123
0.162902
0.0351026
0.0892348
0.135208
-0.1226
-0.00534118
0.0115758
-0.00217401
0.00333533
0.00292017
-0.00153046
-0.0013897
-0.11057
0.0108818
0.185121
-0.0129209
-0.0144102
0.0100746
-0.0125247
0.00670243
0.329773
-0.258983
0.0399605
-0.248056
0.208096
0.0496869
-0.0438091
-0.0058778
-0.00504635
-0.0495563
0.1933
-0.291906
0.00983468
-0.00411229
-0.00572239
0.0760531
-0.0609338
-0.0151193
0.133991
-0.0567306
-0.07726
-0.0129539
0.0120287
-0.0862005
0.0882336
-0.0020331
0.0581413
0.0011735
-0.0593148
0.574288
-0.262233
-0.312055
0.0472016
0.0739436
-0.121145
0.000678169
0.370983
-0.178461
0.0650929
-0.0396711
-0.0254218
0.164144
0.421024
-0.585168
-0.0108221
0.00889081
-0.0211358
0.0382491
0.360185
-0.501231
0.141046
0.0170677
0.0326192
0.130757
0.0224632
-0.15322
-0.229909
0.513901
-0.283992
-0.0157951
-0.0605078
0.0372469
0.0232608
0.0779733
0.240605
-0.263442
0.0228367
-0.0216636
0.00658066
0.00325402
-0.0232383
-0.0847913
-0.025998
0.110789
-0.0278667
0.561008
-0.409895
-0.151113
0.296569
-0.513837
0.217268
0.392228
0.00598574
0.00831237
-0.0502493
0.308827
0.00108505
0.254848
-0.257663
-0.0865331
-0.0157765
0.203433
-0.155598
0.00483108
-0.00528566
0.000454579
0.0473742
0.0970055
0.248895
-0.208935
-0.474008
0.08249
0.232845
-0.0262703
-0.0680727
0.0877464
0.0931682
0.0132305
-0.158298
0.425715
-0.267417
-0.0106736
0.0124153
-0.0017417
0.114307
0.0372338
-0.151541
-0.305302
-0.148889
0.0140886
-0.0128748
-0.00640726
-0.0269424
0.0333496
-0.0169358
0.00241333
-0.614481
0.349662
0.26482
-0.0375115
0.0360531
0.009502
-0.00988104
0.000379039
0.0623487
-0.118263
0.0559143
0.0120239
-0.00915814
0.00755629
0.0915934
0.0781246
-0.348176
0.0405985
-0.0559092
-0.269752
-0.0988805
0.0423317
-0.0893512
-0.0449433
0.365314
0.0206188
-0.122545
-0.034062
-0.206848
-0.337379
-0.004443
-0.00196453
0.00640753
0.0565708