/*--------------------------------*- C++ -*----------------------------------*\
| =========                 |                                                 |
| \\      /  F ield         | OpenFOAM: The Open Source CFD Toolbox           |
|  \\    /   O peration     | Version:  v2012                                 |
|   \\  /    A nd           | Website:  www.openfoam.com                      |
|    \\/     M anipulation  |                                                 |
\*---------------------------------------------------------------------------*/
FoamFile
{
    version     2.0;
    format      ascii;
    class       volVectorField;
    location    "300";
    object      U;
}
// * * * * * * * * * * * * * * * * * * * * * * * * * * * * * * * * * * * * * //

dimensions      [0 1 -1 0 0 0 0];


internalField   nonuniform List<vector> 
14315
(
(0.995363 -0.361369 2.39444e-19)
(0.197024 0.0395804 0)
(1.01313 -0.118857 5.71986e-22)
(1.07203 -0.248373 2.66657e-20)
(1.08208 -0.298397 2.5242e-20)
(1.11202 -0.0509091 -5.15467e-20)
(-0.0294297 0.00877936 1.17355e-19)
(0.913099 -0.0731617 0)
(1.07237 -0.167421 -3.08165e-20)
(1.01755 -0.0767558 8.32665e-22)
(0.664056 -0.118456 -1.09297e-19)
(-0.279667 -0.0254368 -6.14579e-20)
(0.887548 -0.315979 -1.44394e-19)
(1.03879 -0.00773453 9.75375e-21)
(-0.269736 -0.0255749 -2.10105e-19)
(1.01014 -0.00269722 5.36504e-21)
(0.916376 -0.0839011 -3.43474e-20)
(1.00347 -0.0241563 6.70418e-21)
(1.10641 -0.18697 0)
(1.09985 -0.185894 0)
(1.00652 -0.0265139 1.52166e-22)
(0.168295 -0.0119529 0)
(1.15598 -0.120503 -1.12021e-20)
(-0.279021 -0.0246985 6.26948e-20)
(1.01656 -0.282067 -1.31913e-20)
(0.171772 0.0406055 2.23979e-20)
(0.993 -0.0164357 0)
(-0.0204044 0.00938421 -1.1675e-19)
(0.771759 -0.0693184 9.71465e-20)
(1.23295 -0.157668 1.5269e-19)
(1.14442 -0.00858246 3.96561e-20)
(1.00307 -0.0275196 -9.05913e-21)
(1.04155 -0.00813263 2.14058e-20)
(0.599638 0.000500123 1.15933e-19)
(-0.0751729 -0.0142313 -1.85239e-19)
(0.18725 -0.0158671 -1.88572e-19)
(0.334458 -0.192874 -1.79872e-19)
(0.946428 -0.104516 2.69655e-20)
(1.25803 -0.119975 1.92897e-19)
(0.943644 -0.333611 -4.11605e-21)
(-0.296058 -0.0279301 -1.68283e-19)
(0.212912 0.119495 -2.36905e-19)
(0.953877 -0.0606895 2.16805e-22)
(1.02328 -0.00240331 1.49763e-20)
(1.16166 -0.0818802 7.96994e-21)
(1.00696 -0.278619 8.91957e-21)
(0.775218 0.081613 -6.24668e-20)
(-0.232898 -0.0255466 0)
(-0.229768 -0.0247567 0)
(1.00357 -0.0224288 -4.88189e-21)
(-0.208927 -0.0247643 -1.27865e-19)
(1.08474 -0.239054 -1.55339e-20)
(-0.274753 -0.0248705 0)
(-0.269847 -0.0254623 0)
(1.13442 0.0035501 8.70986e-22)
(0.218859 -0.0145349 2.51746e-19)
(0.130237 -0.481182 -2.55836e-19)
(1.08772 -0.170167 9.23991e-21)
(1.00505 -0.0334835 1.92185e-21)
(1.01258 -0.112711 -3.91677e-21)
(1.24176 -0.174305 1.19332e-19)
(0.580402 0.0401087 -9.16226e-20)
(0.199287 -0.0139499 0)
(1.00761 -0.0295754 -1.49947e-21)
(1.23046 -0.175363 1.00226e-21)
(0.362759 -0.344713 -1.45185e-19)
(0.775001 -0.300358 3.09972e-20)
(1.00138 -0.00836747 2.47104e-21)
(1.00764 -0.0279672 -7.84419e-22)
(1.13538 0.00822319 -1.63944e-20)
(-0.268741 -0.0248887 1.37074e-19)
(1.09262 -0.1612 0)
(-0.0581637 -0.0149358 1.8542e-19)
(-0.072461 -0.048564 1.27214e-19)
(1.00165 -0.0422935 0)
(0.0393812 -0.0458783 0)
(1.10331 -0.0953206 3.14092e-20)
(0.305406 -0.0433284 -2.12439e-20)
(1.15873 -0.0869228 7.37418e-21)
(1.06733 -0.00197166 -2.68028e-20)
(1.0252 -0.0136999 0)
(-0.148064 -0.0289737 -6.29434e-20)
(1.09178 -0.153035 -3.56081e-20)
(0.334096 -0.043905 -1.8566e-20)
(1.00826 -0.0254803 0)
(1.0914 -0.00316786 -2.4757e-20)
(0.138127 -0.0851413 0)
(-0.261709 -0.0214527 0)
(-0.27645 -0.0256287 2.21814e-19)
(0.672926 -0.119631 3.30182e-21)
(1.1541 -0.0435842 -5.41351e-20)
(0.876772 -0.266139 3.54777e-20)
(1.02603 -0.0148159 0)
(1.09173 -0.0126739 1.45697e-20)
(-0.27995 -0.0244982 1.4178e-19)
(-0.216642 -0.0202542 5.73069e-20)
(0.958032 -0.0637506 0)
(-0.195218 -0.0250361 0)
(-0.113606 -0.00645765 4.54246e-20)
(0.706014 0.206852 -9.07208e-20)
(1.00098 -0.00701327 -2.56494e-21)
(-0.211967 -0.0254082 0)
(0.17472 -0.0135701 -8.8696e-20)
(1.02951 -0.0176169 -6.58858e-21)
(0.708991 0.207056 0)
(1.25392 -0.123335 -1.86768e-19)
(-0.131786 -0.0314938 0)
(-0.199263 -0.0199505 3.71671e-21)
(1.157 -0.0209839 0)
(1.22658 -0.0155678 1.90097e-20)
(-0.222138 -0.0210604 -3.16008e-20)
(0.970749 -0.0235445 -5.96372e-22)
(-0.124487 -0.0313626 0)
(0.991403 -0.0203155 -7.09011e-21)
(1.01604 -0.0531217 0)
(-0.270199 -0.022343 -1.61996e-19)
(0.991241 -0.0202532 9.20424e-21)
(-0.279253 -0.0253147 -2.21731e-19)
(-0.125945 -0.0328504 -1.0787e-19)
(-0.283524 -0.0264799 -9.05629e-20)
(1.27588 -0.112323 -3.50526e-22)
(1.13131 -0.0141936 0)
(1.02901 -0.0158816 -4.68773e-21)
(-0.287289 -0.0251101 0)
(0.787343 -0.0680068 -4.49026e-20)
(1.02282 -0.00195184 -8.4781e-21)
(0.491258 -0.0289642 -2.28635e-19)
(1.02135 -0.009487 -5.93118e-21)
(1.06081 -0.0205897 -2.31536e-20)
(0.869632 -0.262546 5.28487e-20)
(-0.182737 -0.00589518 2.15386e-20)
(-0.0350216 -0.0255894 5.56079e-20)
(0.700574 -0.497786 -1.26366e-19)
(-0.203461 -0.0136141 0)
(1.23866 -0.148957 -1.13107e-19)
(1.00153 -0.0377509 -6.30832e-21)
(0.961159 -0.0153699 -1.31541e-20)
(0.237353 0.0366539 -2.11463e-20)
(1.06998 -0.003083 2.27992e-22)
(1.00169 -0.0404154 0)
(0.217311 0.0357145 -1.17356e-20)
(-0.287165 -0.024842 2.2657e-19)
(0.971018 -0.0209455 0)
(-0.188389 -0.0245831 3.44759e-20)
(1.22555 -0.0225719 0)
(-0.166914 -0.00207848 -8.02664e-20)
(1.23684 -0.0128766 -1.02775e-19)
(0.816022 -0.0525099 1.85872e-19)
(1.12052 -0.0279312 5.83616e-20)
(0.793575 0.0434393 0)
(1.02234 -0.105457 -2.25025e-21)
(-0.228505 -0.0225551 -1.4948e-20)
(0.994987 -0.071592 -3.89113e-21)
(1.11895 -0.0327574 -7.22234e-20)
(1.08348 -0.28458 2.9342e-22)
(-0.275156 -0.0246536 2.06593e-19)
(0.948252 -0.0599114 3.74939e-20)
(1.01012 -0.0029664 0)
(1.11188 -0.0529038 4.81334e-20)
(0.228649 0.0359645 -4.33188e-20)
(1.00567 -0.0357906 4.06323e-22)
(-0.202787 -0.0247713 1.12059e-19)
(0.709072 -0.0497557 0)
(-0.280451 -0.0251288 1.39923e-19)
(1.04011 -0.0864198 0)
(-0.192512 -0.0192311 0)
(-0.232603 -0.0166732 1.12255e-19)
(0.773631 -0.238353 0)
(-0.0981193 -0.0223382 1.43286e-19)
(-0.0659549 -0.0254057 0)
(1.01782 -0.0932991 7.25382e-20)
(1.00736 -0.00209575 -1.19698e-22)
(-0.254995 -0.0200011 1.86659e-20)
(1.01606 -0.0772537 2.80825e-22)
(1.16548 -0.075772 -6.33253e-20)
(0.343658 -0.171763 1.76842e-19)
(1 -0.00152454 1.79807e-21)
(0.182024 -0.0128452 0)
(0.0522449 -0.0101356 4.47154e-20)
(-0.188246 -0.00723983 -6.40937e-21)
(1.18908 -0.294668 4.25458e-20)
(1.10144 -0.0898694 0)
(1.02783 -0.0161774 8.30787e-21)
(1.23514 -0.0732701 5.85731e-20)
(1.14537 -0.108728 -7.43025e-21)
(0.945357 -0.0981525 -3.73469e-21)
(0.937467 -0.301521 9.34085e-21)
(1.26396 -0.0883884 -8.2634e-20)
(-0.0513522 -0.0149004 -2.3061e-20)
(1.18551 -0.0188941 0)
(1.14944 -0.126757 -2.7927e-20)
(0.796005 -0.270863 -5.76499e-20)
(-0.220895 -0.0168152 1.45827e-19)
(0.224556 0.166137 2.59746e-19)
(1.04884 -0.0056486 7.80923e-21)
(-0.121686 -0.0301034 0)
(1.24711 -0.181209 -7.76199e-20)
(1.03684 -0.0469497 1.24169e-20)
(1.02369 -0.0257125 4.29801e-21)
(0.673564 -0.108377 -1.05348e-19)
(-0.28054 -0.0245566 4.60839e-20)
(1.06807 -0.117658 2.22692e-20)
(-0.288287 -0.025125 -2.59119e-19)
(-0.213734 -0.0152561 -1.21947e-19)
(1.05773 -0.0403617 6.47375e-21)
(1.22102 0.0545291 -9.86328e-21)
(1.22647 -0.165384 0)
(1.08881 -0.138846 0)
(1.01096 -0.00814633 2.15291e-21)
(-0.221856 -0.0181619 1.14046e-19)
(1.22763 0.0469224 -1.56279e-19)
(1.06411 -0.0217154 1.15754e-20)
(-0.282159 -0.0240043 -1.89272e-19)
(1.20505 -0.101586 9.2774e-20)
(-0.102025 0.00483757 0)
(-0.118651 -0.0335932 0)
(0.415821 -0.0612744 1.29362e-20)
(-0.0942371 -0.00473946 0)
(-0.116678 0.00278464 -7.16005e-20)
(1.21478 -0.0953801 9.45751e-20)
(1.07096 -0.118067 -2.68276e-20)
(1.15483 -0.0190431 4.91418e-20)
(1.19466 0.0143603 -3.96221e-20)
(0.981876 -0.10398 -3.02834e-21)
(0.537274 0.040889 7.62543e-20)
(1.02365 -0.0941496 3.43898e-22)
(1.01743 -0.00134155 0)
(1.23812 -0.0693261 -5.68506e-20)
(-0.0685157 -0.015213 -3.17588e-20)
(0.46531 -0.340086 1.63292e-19)
(1.01713 -0.000791638 0)
(1.03947 -0.0874283 9.97407e-21)
(0.807522 0.0304158 8.16643e-20)
(1.00029 -0.000391886 2.61118e-21)
(1.00001 -0.000667351 0)
(0.542109 -0.0495118 -2.20301e-20)
(1.15376 -0.0934477 7.64596e-21)
(1.08954 -0.148476 0)
(-0.067513 -0.0140912 -9.02386e-20)
(-0.111294 -0.0138144 0)
(1.08948 -0.00982931 -2.05473e-20)
(1.13323 -0.0628078 1.10729e-20)
(0.332665 -0.567174 1.04832e-19)
(-0.284792 -0.0244532 1.30105e-20)
(1.03053 -0.530089 -5.85279e-21)
(0.749316 -0.250009 8.70088e-22)
(0.41764 0.0100009 1.23749e-19)
(1.00112 -0.000982997 2.78608e-21)
(-0.0989381 -0.0142686 0)
(1.19453 -0.183235 7.29867e-20)
(1.04529 -0.015218 0)
(1.02978 -0.0177946 6.48299e-21)
(0.0176076 -0.0365912 -1.7661e-19)
(0.356092 0.134455 -1.07798e-19)
(0.959266 -0.0411165 -3.02778e-20)
(0.0467423 0.00434993 0)
(1.13319 -0.0808987 5.59145e-20)
(1.21819 0.0564825 -1.77299e-22)
(-0.145951 -0.0283787 -3.98599e-20)
(1.20869 0.0501068 9.14104e-20)
(0.705917 -0.442693 4.71595e-20)
(1.13281 -0.0112404 -1.78169e-20)
(-0.280342 -0.0241483 3.01021e-21)
(1.22653 -0.184594 0)
(0.844268 0.0574621 -1.36633e-19)
(1.12965 -0.0818563 -7.69786e-20)
(1.02669 -0.224525 -1.07517e-20)
(1.13661 -0.0578466 1.16522e-20)
(1.0924 -0.00319008 2.81447e-20)
(-0.199687 -0.0217141 0)
(0.215611 0.0372085 -4.38355e-20)
(1.09527 -0.0654112 0)
(1.13792 -0.0101801 0)
(-0.263968 -0.0214349 1.91299e-19)
(0.963826 -0.171877 0)
(0.329669 0.0158477 0)
(-0.285745 -0.0243952 9.14876e-20)
(1.15809 -0.0894949 0)
(-0.163153 -0.0272106 0)
(1.14941 -0.340429 3.02769e-20)
(1.14557 -0.00645207 3.37088e-20)
(1.10727 -0.0389173 -4.31796e-20)
(-0.109406 -0.014736 0)
(-0.13682 -0.0267262 -6.42749e-20)
(1.01579 -0.0507842 0)
(-0.279373 -0.0251416 0)
(0.156199 -0.0128906 0)
(-0.129788 -0.0298176 2.40024e-23)
(-0.211865 -0.0144924 0)
(-0.127007 -0.025876 0)
(1.16622 -0.0752143 4.49627e-20)
(-0.164133 -0.023445 -1.11e-19)
(-0.218836 -0.0160369 1.32683e-19)
(-0.15255 -0.0280939 -1.63321e-20)
(1.23727 -0.166609 8.28195e-22)
(1.19628 -0.035973 2.81337e-20)
(-0.201917 -0.0200333 -3.3453e-20)
(1.2064 -0.103853 -8.18112e-20)
(0.992454 -0.0279434 -2.05708e-20)
(1.02324 -0.0253696 0)
(1.15668 -0.0394804 -1.65301e-20)
(-0.175568 -0.0216791 -7.4242e-20)
(0.738856 -0.0449717 -1.62639e-19)
(0.149611 0.0326603 -2.51182e-20)
(0.949217 -0.0925682 1.13727e-20)
(1.00837 -0.0252438 -8.18504e-23)
(-0.183871 -0.0059186 0)
(0.143731 -0.0117167 1.14804e-20)
(1.00907 -0.0206223 1.68651e-21)
(1.04758 -0.0139375 1.51611e-22)
(0.14846 -0.0282648 0)
(1.03005 -0.0131913 0)
(-0.126418 -0.0324376 8.7658e-20)
(-0.211128 -0.0202693 3.6319e-20)
(1.05582 -0.262064 8.4627e-21)
(1.26791 -0.0863526 -5.96099e-20)
(1.05953 -0.0187955 -1.09644e-20)
(1.12742 -0.0867921 3.07142e-23)
(1.0309 -0.0927993 0)
(1.00677 -0.0023749 0)
(-0.28586 -0.0252424 -2.32025e-19)
(1.27339 -0.24861 7.19691e-21)
(-0.214069 -0.0179386 -1.03599e-19)
(1.13775 -0.0743624 -6.01922e-20)
(1.17885 -0.466742 1.07686e-19)
(1.04972 -0.00665657 -1.64489e-20)
(-0.195409 -0.0195684 5.78686e-20)
(1.25368 -0.12565 0)
(0.670306 -0.0878071 -3.46739e-21)
(1.04622 -0.013804 -1.44167e-20)
(1.12364 -0.0865715 -1.85747e-20)
(-0.208873 -0.0128487 -1.25547e-20)
(0.999808 -0.00520531 1.59375e-20)
(-0.0781791 -0.0147621 9.84597e-20)
(-0.0979296 -0.0325783 0)
(1.00332 -0.0208702 0)
(-0.211242 -0.0156917 -9.61625e-20)
(0.0337517 -0.037619 1.18733e-19)
(0.0311037 -0.0372009 8.04749e-21)
(-0.0243522 0.00344828 7.22224e-20)
(1.03735 -0.0466091 1.15932e-20)
(0.882598 -0.063892 -3.42768e-20)
(1.01486 -0.0173412 6.90401e-21)
(1.00096 -0.000836382 -1.72575e-21)
(0.605965 -0.0137175 1.40088e-19)
(1.0074 -0.00384699 4.09269e-21)
(1.04489 -0.014699 7.80341e-21)
(0.517374 -1.12895 0)
(1.23591 -0.0146851 5.29316e-20)
(-0.220701 -0.0198975 -6.47542e-20)
(0.999892 -0.000755017 -1.67173e-20)
(0.959519 -0.0152695 -8.10564e-21)
(-0.192119 -0.00722038 0)
(-0.279788 -0.0237749 -9.50355e-20)
(0.349546 -0.375102 -2.04794e-19)
(0.98982 -0.0376406 0)
(1.06017 -0.0392324 0)
(1.00004 -0.000633242 0)
(1.00897 -0.0221084 5.18206e-22)
(-0.193515 -0.0211144 3.22263e-20)
(0.777008 0.0898273 5.36335e-20)
(0.796764 0.0569672 0)
(0.801828 -0.0544071 2.81055e-22)
(0.805742 0.0553268 1.8324e-19)
(0.444369 -0.00566343 3.47431e-20)
(-0.138928 -0.0299975 -8.17592e-20)
(1.02141 -0.0103507 -6.1022e-21)
(-0.2791 -0.0235013 2.20511e-20)
(-0.118028 -0.0158188 4.71848e-20)
(1.14642 -0.0106322 1.5419e-23)
(1.25225 -0.221333 1.01416e-19)
(0.99591 -0.0717599 0)
(0.999936 -0.00138097 1.35624e-20)
(0.370034 0.0128288 0)
(-0.203396 -0.0117319 -2.42326e-20)
(1.02463 -0.221623 1.30544e-21)
(1.02805 -0.0938432 0)
(1.00323 -0.0190473 0)
(0.990045 -0.0373328 0)
(0.0912893 -0.103782 1.03666e-19)
(-0.265108 -0.0247357 -1.27772e-19)
(1.09516 -0.152199 0)
(1.00755 -0.00415463 -4.36803e-21)
(0.988748 -0.0933254 -1.13085e-19)
(0.903291 -0.300892 0)
(0.0294866 0.0105164 0)
(1.19741 0.0196268 -7.55891e-20)
(0.0322117 0.00265292 4.79302e-21)
(0.0493339 0.0107217 -2.65772e-20)
(1.17929 0.0213271 -5.04497e-20)
(1.03681 -0.0922935 4.26886e-21)
(-0.285645 -0.0255935 0)
(0.0548043 -0.0378258 -1.50712e-20)
(0.573024 8.59665e-05 -1.2682e-19)
(-0.219188 -0.0202869 1.59259e-20)
(-0.0194367 0.00298114 -7.26313e-20)
(0.877539 -0.148073 1.85527e-20)
(0.999873 -0.0017572 9.90963e-21)
(1.15639 -0.0230165 1.16123e-19)
(-0.116024 0.00759922 3.5969e-20)
(1.03329 -0.0902222 -1.06932e-20)
(0.8994 -0.0735362 4.4014e-20)
(1.05861 -0.016494 -1.13698e-20)
(-0.221759 -0.0247768 -3.67503e-21)
(0.0379582 0.0101169 -1.25975e-19)
(1.22441 0.0510353 0)
(-0.207982 -0.0154067 3.03875e-20)
(1.27222 -0.250119 0)
(0.821054 0.0580488 0)
(0.310721 0.0500643 0)
(1.0175 -0.0209286 -5.19393e-21)
(-0.142973 -0.00976593 -5.88902e-23)
(-0.262381 -0.0242021 -2.09451e-19)
(1.20004 -0.040595 -3.53024e-20)
(1.05789 -0.0223169 0)
(1.0299 -0.0124291 0)
(1.2408 -0.0101876 1.11144e-19)
(-0.161992 -0.0280916 -7.25824e-20)
(1.00846 -0.0188604 0)
(0.997285 -0.533184 2.74328e-20)
(1.09619 -0.0657764 0)
(0.24521 -0.0837516 3.5801e-20)
(1.25103 -0.131365 0)
(0.897684 -0.0712938 -5.89062e-20)
(0.999823 -0.00498118 -3.61554e-23)
(-0.198045 -0.0246916 1.19166e-19)
(-0.133455 -0.0321675 9.20654e-20)
(1.18267 -0.136398 1.02138e-19)
(1.14849 -0.0969571 -5.60043e-20)
(1.13281 0.0120023 4.83875e-20)
(-0.165804 -0.0289585 1.13535e-19)
(0.209865 0.0346477 0)
(0.999737 -0.00144382 -1.30719e-20)
(1.07386 -0.164501 -2.7543e-20)
(1.20943 0.0189104 0)
(1.10427 -0.0166461 -2.70084e-20)
(1.22143 -0.0583261 4.38137e-20)
(-0.216676 -0.0175895 -8.32939e-20)
(1.09034 -0.276294 3.14279e-20)
(0.992476 -0.0274495 2.21906e-20)
(0.354852 0.112596 1.82846e-19)
(0.992298 -0.037419 0)
(-0.200584 -0.0118508 0)
(1.0067 -0.0269887 8.53552e-22)
(0.951954 -0.103464 4.72388e-20)
(1.24685 -0.0117367 1.82236e-19)
(0.911451 -0.262499 0)
(-0.191446 -0.0244103 -1.36884e-19)
(1.00241 -0.0179233 0)
(0.985954 -0.0978087 2.48259e-21)
(0.550383 -1.01678 0)
(-0.290784 -0.0248143 5.73549e-20)
(0.999272 -0.00820743 -1.32883e-22)
(1.17653 -0.0491786 -5.428e-20)
(1.10893 -0.0425981 5.25717e-20)
(-0.26625 -0.0230224 -1.60167e-19)
(1.25531 -0.323796 0)
(-0.184017 -0.0254302 0)
(-0.133151 -0.00907117 2.50063e-20)
(1.22722 -0.0194845 0)
(0.992995 -0.0511111 -8.77217e-21)
(0.354019 0.0461334 -1.30448e-19)
(-0.271801 -0.0251926 -5.16047e-20)
(1.21907 -0.0655827 -3.92701e-20)
(0.0553336 0.0112702 1.65651e-19)
(0.846829 -0.0111259 -5.90237e-20)
(-0.257024 -0.0253825 0)
(1.22629 -0.0281871 2.06392e-20)
(1.17816 -0.0405187 9.18462e-20)
(-0.189159 -0.00713414 0)
(1.12569 -0.019067 -3.04802e-20)
(1.22617 -0.00474228 0)
(-0.227386 -0.0204466 7.26682e-20)
(1.17255 -0.0573918 4.38661e-20)
(-0.287465 -0.0250972 2.74369e-20)
(0.97253 -0.101242 -1.45801e-20)
(1.0385 -0.00909478 0)
(1.07041 -0.0741167 1.29389e-20)
(-0.219394 -0.0199492 -6.04083e-20)
(-0.283859 -0.0248098 0)
(1.20649 -0.0309437 -3.93639e-20)
(-0.202342 -0.0140642 1.13958e-19)
(1.22519 -0.00939075 0)
(-0.246447 -0.0186222 2.45608e-20)
(-0.168584 -0.0283618 0)
(1.18626 -0.28229 -1.01544e-19)
(1.00004 -0.00126255 0)
(-0.0394657 0.00249462 -9.5573e-20)
(0.92835 -0.0598994 -6.75801e-20)
(1.21053 -0.0921801 0)
(1.01711 -0.0204077 -1.01171e-22)
(1.2493 -0.333791 -3.72732e-20)
(1.03066 -0.0702773 5.14424e-21)
(1.05582 -0.259033 0)
(1.22662 0.0435598 0)
(-0.172487 -0.00340234 2.10894e-20)
(1.00123 -0.00709119 -9.34883e-22)
(1.07077 -0.155944 0)
(-0.184632 -0.0139927 0)
(0.228218 0.0362757 0)
(0.779519 -0.257888 1.49878e-20)
(-0.133551 -0.0286285 2.33171e-20)
(-0.28781 -0.0251444 1.7326e-19)
(1.04188 -0.0851553 -1.44864e-20)
(1.00001 -0.00106743 1.05209e-21)
(1.05891 -0.0238141 0)
(-0.0554711 -0.0357592 0)
(1.20557 -0.2209 9.50702e-22)
(0.964232 -0.166112 0)
(1.05983 -0.0180535 3.60209e-20)
(0.297107 0.042297 -8.82534e-20)
(1.01663 -0.0723347 0)
(1.08185 -0.0414629 1.46532e-20)
(1.07351 -0.0594497 0)
(1.22258 0.052658 1.19186e-20)
(0.118769 -0.0230101 1.5814e-20)
(0.748993 -0.222458 0)
(-0.0358721 0.00204436 7.65587e-20)
(0.694854 -0.0184639 -5.89664e-20)
(1.1556 -0.223441 1.64814e-19)
(-0.28121 -0.0245342 6.36662e-20)
(1.10426 -0.0184786 -1.08174e-20)
(1.10655 -0.0154971 3.97877e-20)
(0.793834 -0.0589596 -4.18359e-20)
(1.14996 -0.459453 6.84718e-20)
(-0.22568 -0.0205184 -6.63281e-20)
(1.01658 -0.0812564 -2.91496e-22)
(1.00121 -0.00758908 4.1476e-22)
(1.2169 -0.0690311 0)
(1.06884 -0.00421522 0)
(0.99289 -0.0405457 -4.28572e-21)
(1.2046 -0.0274796 0)
(1.00738 -0.0201393 -5.27364e-22)
(1.04785 -0.012075 2.30538e-20)
(1.20755 -0.0932503 -9.58126e-20)
(-0.280612 -0.0250188 -3.26575e-20)
(0.956281 -0.0398068 2.4926e-20)
(-0.286024 -0.0255633 1.30464e-20)
(1.21573 -0.126995 -5.66283e-20)
(1.00047 -0.00511682 -4.83015e-21)
(-0.158837 -0.0278329 0)
(1.10246 -0.0216059 -8.49718e-21)
(-0.199095 -0.0133761 -5.49505e-20)
(1.2258 0.0132952 2.08519e-20)
(1.07983 -0.0413057 -3.76063e-20)
(1.18158 0.00774458 -6.19935e-20)
(1.06395 -0.0928474 1.92228e-20)
(1.23691 -0.0987167 0)
(1.17827 -0.135553 -5.80951e-20)
(-0.273389 -0.0225264 -1.05079e-19)
(1.08311 -0.0388261 -2.5077e-20)
(1.04237 -0.0831156 -7.4074e-21)
(-0.0188355 0.0168369 0)
(0.124074 -0.104001 -2.6868e-19)
(0.259413 0.0350992 0)
(1.07718 -0.0836788 0)
(0.80632 -0.0605731 -6.3556e-20)
(0.982235 -0.0261029 2.89329e-20)
(0.99321 -0.0481796 0)
(1.09506 -0.147796 -4.09269e-20)
(-0.208089 -0.0126165 0)
(-0.0679636 -0.017496 9.53978e-20)
(-0.190145 -0.00716313 0)
(1.20568 -0.219289 5.99939e-20)
(1.14848 -0.328386 -5.79996e-20)
(1.25044 -0.0301203 1.66545e-20)
(0.991875 -0.0165068 -3.93538e-21)
(1.00026 -0.00430292 0)
(1.16214 0.00404622 -1.45197e-20)
(1.07163 -0.0301061 0)
(0.691079 -0.0354901 -1.45992e-19)
(1.02387 -0.00891211 -1.35605e-20)
(-0.282115 -0.0250617 -1.88569e-19)
(1.24309 0.00272334 0)
(-0.188651 -0.0218169 4.03902e-21)
(1.03156 -0.000738068 -2.03427e-22)
(1.16845 -0.0702778 4.51002e-20)
(1.0021 -0.0280625 0)
(0.545076 0.986036 5.61912e-20)
(1.03976 -0.00680891 0)
(0.342998 0.0158715 -1.80173e-19)
(1.11845 -0.227413 0)
(0.993329 -0.015086 0)
(1.18109 -0.168129 -1.41471e-19)
(1.00861 -0.0205134 -7.29159e-22)
(1.06213 -0.0918402 -3.04272e-20)
(1.0363 -0.00035217 1.52223e-20)
(1.13033 0.0110264 1.57577e-20)
(1.1986 -0.229321 1.2371e-19)
(1.02403 -0.086154 2.28739e-21)
(-0.241066 -0.0181192 4.35529e-20)
(1.00702 -0.0261472 5.32045e-22)
(1.2316 -0.103997 -4.87106e-20)
(1.20255 0.00537775 1.62788e-20)
(1.23006 -0.110477 -6.8368e-21)
(1.01011 -0.0221369 0)
(0.682598 -0.00204089 -5.65979e-20)
(0.871537 -0.0123156 2.06144e-20)
(0.187875 0.0358039 0)
(-0.226567 -0.0166216 6.38819e-20)
(1.17651 0.0196809 -3.6975e-20)
(1.17172 0.00495551 0)
(-0.134749 -0.0291589 8.04838e-20)
(-0.044322 -0.0705042 0)
(1.08546 -0.0383991 -1.46663e-20)
(1.00111 -0.00698331 -7.51606e-22)
(-0.074114 -0.0358827 -8.83457e-20)
(0.978226 -0.054282 1.48387e-20)
(1.02724 -0.162409 -1.54348e-21)
(0.0595944 0.7026 4.09013e-20)
(-0.236943 -0.0183387 -1.29394e-19)
(1.24492 -0.00714408 -5.52578e-20)
(-0.198866 -0.0134636 5.19343e-20)
(1.03835 -0.00750144 1.06802e-20)
(0.645234 -0.248311 3.64695e-20)
(0.891025 -0.0614101 -3.63061e-20)
(1.229 -0.106851 -6.70009e-21)
(0.55148 -0.154537 1.68834e-19)
(0.999378 -0.0076997 -1.45742e-20)
(1.01748 -0.0175105 -4.69696e-21)
(1.23997 0.00626937 -5.41082e-20)
(1.22582 0.0489214 7.81617e-20)
(1.01636 -0.0844811 1.36965e-21)
(1.24921 -0.0347639 -2.92191e-20)
(-0.194137 -0.00867575 -2.80575e-21)
(1.05719 -0.00214268 3.3666e-20)
(1.06559 -0.00985933 3.46525e-21)
(0.0600697 0.0104644 0)
(0.551948 -0.12606 0)
(-0.211857 -0.0179121 0)
(1.04338 -0.00503388 1.15115e-20)
(1.19026 -0.128338 -8.65037e-20)
(1.00143 -0.024753 -1.20363e-20)
(1.04198 -0.00783813 9.71673e-22)
(-0.18463 -0.00598984 2.27192e-20)
(1.00104 -0.00643532 1.7158e-21)
(-0.174283 -0.00333313 7.45836e-20)
(1.15252 -0.0946507 6.94552e-20)
(0.390965 -0.00284773 3.65012e-20)
(1.03553 -0.0423126 -1.34202e-20)
(0.975322 -0.0244692 -3.04389e-20)
(1.18192 0.0118374 1.0763e-19)
(1.13491 -0.0690586 5.55254e-20)
(-0.174648 -0.0274355 0)
(0.335606 0.0407089 -1.37405e-20)
(-0.230556 -0.0165358 -5.48e-20)
(1.01976 -0.110978 -1.43124e-21)
(1.17469 -0.0521546 9.94319e-21)
(0.999903 -0.00150289 0)
(1.14468 -0.013791 -4.33248e-20)
(0.427944 -0.351253 -1.17618e-19)
(1.14406 -0.165619 0)
(-0.0483142 0.00281343 0)
(1.19949 0.0099163 1.46339e-20)
(1.24303 -0.0145609 0)
(0.883701 -0.277233 1.04553e-19)
(1.14046 -0.113696 0)
(1.13136 -0.0482533 0)
(1.21125 -0.131477 5.26255e-20)
(0.00136646 0.0187248 5.34383e-20)
(1.06977 -0.0300097 0)
(1.13301 -0.0497563 -6.09226e-21)
(1.20289 0.00253545 -5.17061e-20)
(0.287851 -0.0230686 0)
(1.23101 0.0350793 -1.66308e-19)
(0.214741 -0.0769181 1.16565e-19)
(1.01331 -0.00190511 -1.54039e-20)
(1.00046 -0.122057 0)
(-0.222547 -0.0184671 -3.30234e-20)
(0.948805 -0.0636874 -6.57035e-20)
(-0.280929 -0.0257316 0)
(1.06561 -0.010756 1.28162e-20)
(1.19698 -0.229414 -1.76998e-19)
(0.992396 -0.0465334 0)
(1.16924 -0.0711285 1.10071e-20)
(1.06397 -0.0218619 -2.77963e-20)
(0.470163 -0.415095 1.00294e-19)
(-0.0940732 -0.0140288 -2.26816e-20)
(1.00277 -0.0117788 -1.46614e-21)
(0.684808 0.783522 -3.96959e-20)
(1.00299 -0.0125828 2.25259e-21)
(0.999947 -0.00114817 0)
(1.02118 -0.557315 6.8004e-21)
(-0.193987 -0.0248153 0)
(1.15651 -0.055585 7.72947e-20)
(-0.195678 -0.0210006 -7.2533e-20)
(1.1959 0.0158862 2.19378e-20)
(-0.0251865 -0.0414898 3.87537e-20)
(0.20828 -0.513329 2.49629e-19)
(1.06634 -0.0203374 -4.09319e-20)
(0.960179 -0.0584612 -1.40325e-20)
(1.03694 -0.000188727 0)
(1.07569 -0.0265627 5.61621e-20)
(1.17365 0.017535 -3.71419e-20)
(1.0758 -0.0264218 -5.96727e-20)
(1.15317 -0.477906 -1.09922e-19)
(0.396299 0.012025 -1.23582e-19)
(1.14286 -0.100284 0)
(1.12941 -0.0677053 0)
(0.978934 -0.0582642 0)
(1.0701 -0.0169685 -1.66097e-20)
(-0.190376 -0.0065367 -2.75567e-20)
(1.01569 -0.00191853 -8.18459e-21)
(1.11204 -0.23269 0)
(1.18464 -0.129877 9.67457e-20)
(1.06889 -0.160682 0)
(-0.278419 -0.0235399 -1.97243e-19)
(0.564325 0.0117534 9.06833e-20)
(1.21983 0.0248414 -8.03632e-20)
(0.095437 0.0127871 -6.90381e-20)
(0.991303 -0.160245 -6.2177e-21)
(-0.297119 -0.0269858 -6.23253e-20)
(1.09371 -0.188214 -3.20215e-20)
(1.04045 -0.00840008 -1.49704e-20)
(1.00123 -0.023459 1.1719e-20)
(0.975913 -0.0471524 -2.04812e-20)
(1.08357 -0.167072 1.82794e-22)
(1.06876 -0.0737112 0)
(1.17778 -0.0633049 4.71202e-20)
(1.05886 -0.092446 -2.36071e-20)
(1.00461 -0.125431 9.82952e-22)
(-0.164838 -0.02139 0)
(1.04403 -0.00590104 -3.82298e-20)
(0.972026 -0.096877 0)
(1.14722 -0.23832 1.09655e-19)
(1.09301 -0.00974927 0)
(0.982634 -0.153077 2.52543e-21)
(1.21556 -0.0962232 9.51431e-20)
(0.962084 -0.0644364 1.76464e-20)
(0.625683 0.655231 0)
(1.02714 -0.0144021 0)
(0.999747 -0.00156218 -7.2736e-21)
(0.372022 0.0105458 -1.04275e-19)
(-0.0428538 -0.0144411 2.63271e-20)
(-0.200336 -0.00963954 1.20858e-20)
(0.40399 -0.163091 1.46044e-19)
(1.00273 -0.0369564 0)
(-0.215965 -0.0161441 -1.69615e-20)
(0.831396 -0.0659389 0)
(1.00299 -0.0358284 5.47571e-21)
(0.118514 -0.0998032 0)
(1.00435 -0.00123973 2.10093e-21)
(1.00309 -0.0270382 5.79581e-21)
(1.18241 0.0028603 -2.00658e-20)
(1.00252 -0.019361 -3.13181e-21)
(-0.242807 -0.0184906 -4.01285e-20)
(1.06902 -0.0939767 -7.39717e-21)
(0.261639 -0.535301 -1.39757e-19)
(0.97955 -0.0979281 0)
(0.351141 0.0120122 1.74894e-19)
(1.24204 -0.228382 -9.10882e-20)
(1.15048 -0.231992 -3.46208e-20)
(0.95848 -0.154537 0)
(-0.238623 -0.0246816 -1.53929e-20)
(0.633285 -0.0308268 2.11109e-19)
(-0.198522 -0.0215632 -3.34175e-20)
(0.992373 -0.0497465 4.98045e-21)
(0.980031 0.0451731 -2.03209e-20)
(0.852111 -0.115578 1.59378e-20)
(-0.14291 -0.0289593 2.14984e-20)
(1.00002 -0.00144902 0)
(-0.203347 -0.0118308 -7.21692e-20)
(-0.248748 -0.025274 -1.3405e-20)
(1.01812 -0.486924 0)
(0.487449 -0.0666795 5.70513e-20)
(1.0041 -0.0127374 -2.95612e-22)
(-0.29767 -0.0254408 6.81486e-20)
(1.1322 -0.00975641 0)
(1.18281 0.0051028 0)
(0.488557 -0.428607 1.81135e-21)
(-0.114193 -0.014148 -2.38019e-22)
(1.02315 -0.0895795 1.98093e-21)
(0.980962 -0.0561859 -1.39871e-20)
(0.33962 0.0258651 0)
(-0.272978 -0.0225818 -7.04334e-20)
(0.979834 0.582194 0)
(1.01456 -0.0173351 -1.92153e-21)
(1.237 -0.339859 -1.59178e-19)
(-0.0392057 -0.0277988 -1.15509e-19)
(-0.0588392 -0.0269006 1.00428e-19)
(0.880044 0.0499857 1.91295e-20)
(1.05776 -0.091704 3.25377e-20)
(0.336219 -0.366575 1.87631e-19)
(0.498889 0.0358251 5.62491e-20)
(-0.122357 -0.0134594 -7.87771e-20)
(1.17708 -0.0455311 -1.10243e-20)
(-0.164906 -0.0205505 -3.88535e-20)
(0.834925 -0.0685154 0)
(1.0489 -0.0133564 -8.24956e-21)
(0.986354 -0.155405 -1.79375e-20)
(0.994886 -0.0161055 4.71665e-21)
(1.03824 -0.163431 -1.33327e-20)
(1.22763 0.036077 1.08104e-19)
(0.495985 0.00975485 -6.43449e-20)
(0.994548 -0.0139293 7.82669e-21)
(0.944153 -0.0581154 0)
(1.15275 -0.0512527 -1.49763e-20)
(0.209603 -0.0316659 1.41432e-19)
(0.778223 0.104257 -1.92427e-20)
(0.945161 -0.100675 -2.9197e-20)
(1.27079 -0.0933938 -3.61744e-20)
(-0.20552 -0.014285 -7.3669e-20)
(-0.279082 -0.0229481 0)
(1.09043 -0.035541 4.92152e-20)
(0.0663399 0.00181679 5.92625e-22)
(0.999836 -0.00104821 6.69829e-21)
(1.12191 -0.0364701 0)
(1.15912 -0.0489492 -5.55938e-20)
(0.647448 0.183709 0)
(-0.232706 -0.0248912 0)
(1.01181 -0.00789729 8.23986e-22)
(-0.188508 -0.0196436 0)
(1.24347 -0.00193169 0)
(-0.0716587 -0.0139982 -1.01739e-19)
(0.541932 -0.0118472 2.49165e-20)
(0.918817 -0.272289 1.59939e-20)
(0.0156568 0.0139638 -6.41394e-20)
(0.922736 -0.193379 6.5754e-21)
(0.126055 -0.104351 1.40637e-19)
(0.999458 -0.00676494 -4.68663e-21)
(1.09692 0.0007447 -1.52849e-20)
(0.848469 -0.101461 -1.74188e-20)
(1.22013 -0.0663343 4.15264e-20)
(1.10758 0.00232257 0)
(0.975972 -0.045306 1.7149e-20)
(1.03422 -0.16475 1.50202e-20)
(1.18008 -0.0265313 8.60949e-20)
(0.151925 -0.0734564 -4.85093e-20)
(1.06824 -0.0184961 -1.54913e-22)
(1.03184 -0.0714599 6.55481e-22)
(0.108736 -0.0090911 0)
(-0.24646 -0.018969 0)
(-0.162008 -0.0219493 0)
(0.753269 0.0533865 -7.33106e-20)
(1.01573 -0.0984521 7.61177e-22)
(-0.185644 -0.00592719 0)
(1.06719 -0.0915222 7.69588e-21)
(1.01745 -0.0171588 0)
(-0.235408 -0.0179732 -2.13513e-20)
(0.881441 -0.0410997 0)
(-0.198545 -0.0195362 0)
(-0.0466055 0.0024097 -8.76337e-20)
(-0.219856 -0.018459 -4.14878e-21)
(1.19736 -0.130635 6.08608e-20)
(0.0338904 0.011579 6.57452e-20)
(1.2494 -0.0418658 0)
(0.96454 -0.385408 0)
(-0.051613 -0.0269889 -1.14716e-19)
(0.994143 -0.155855 -4.5897e-21)
(0.99696 -0.00638279 0)
(1.00893 -0.0236614 -1.22991e-22)
(0.598503 0.0760117 -1.87944e-19)
(0.316514 0.0152912 1.24046e-19)
(1.23291 -0.157217 -5.08516e-20)
(-0.216087 -0.0243416 0)
(1.07505 -0.153002 0)
(-0.145308 -0.0247266 1.1411e-19)
(0.483116 -0.115167 -4.10751e-21)
(1.13323 -0.0432084 3.78632e-20)
(0.742417 -0.285759 0)
(0.81115 0.0522567 -8.79085e-20)
(-0.235132 -0.0175466 1.25938e-19)
(0.878992 -0.0466052 -4.98129e-20)
(0.960688 -0.0969016 0)
(1.12709 -0.0631618 0)
(1.00024 -0.000297553 -3.57531e-21)
(1.24799 -0.0221549 -1.84791e-19)
(1.01908 -0.122799 1.09896e-21)
(1.27578 -0.113215 -1.19309e-19)
(1.08749 -0.16021 2.46522e-20)
(1.00014 -0.00332485 2.66276e-22)
(0.981702 -0.0546155 0)
(-0.0441587 -0.0439199 0)
(0.982677 -0.0116092 -2.31892e-20)
(1.03637 -0.000397207 -1.75916e-20)
(1.01354 -0.00421837 5.57682e-21)
(1.24655 -0.0184671 3.03843e-20)
(1.13024 -0.0220897 0)
(0.882828 -0.165569 -1.08822e-19)
(1.16395 0.00227797 3.21696e-20)
(-0.248014 -0.0251698 -1.34695e-19)
(0.962855 -0.0643065 -3.19987e-20)
(1.02391 -0.0096273 -7.0546e-21)
(1.01824 -0.0512155 -1.12156e-21)
(0.522514 -0.10086 -1.0511e-19)
(1.08628 -0.0154075 -1.36608e-22)
(-0.23087 -0.0228956 0)
(0.994745 -0.00866835 -2.65509e-21)
(0.126834 0.0316554 7.79627e-20)
(1.0337 -0.0243162 -1.94575e-20)
(-0.205609 -0.0144303 3.22305e-20)
(-0.270012 -0.0220316 -2.24011e-20)
(1.00016 -0.0001777 9.91803e-22)
(0.745515 -0.491747 -1.56657e-19)
(0.263644 0.0408919 1.32526e-19)
(0.771283 0.0237987 9.67611e-20)
(-0.123189 -0.0150507 9.99526e-20)
(1.13487 -0.0773976 2.25772e-20)
(1.22027 -0.173868 0)
(0.826987 0.0540056 -2.07154e-20)
(-0.263701 -0.0213997 -8.22398e-20)
(1.04296 -0.00625529 1.49854e-20)
(1.17531 -0.0516058 -9.07236e-20)
(1.27173 -0.115666 0)
(1.02044 -0.0872661 -3.20809e-21)
(-0.187479 -0.0165037 -1.0632e-19)
(1.03154 -0.000455466 -1.32135e-20)
(-0.25574 -0.0250227 1.36907e-19)
(-0.208684 -0.0201276 0)
(-0.235937 -0.0164787 -5.26308e-20)
(1.07669 -0.16478 3.24032e-20)
(0.447397 -0.00744804 1.49285e-19)
(0.0634757 -0.0100446 -1.48515e-19)
(1.06206 -0.0230516 -2.65456e-20)
(-0.226647 -0.0224124 1.03773e-19)
(1.00406 -0.0350961 -2.52466e-22)
(1.08788 -0.0128194 0)
(-0.199059 -0.0115046 -1.18709e-20)
(0.0926136 -0.333318 1.52872e-19)
(0.981663 -0.0114608 3.12376e-20)
(1.12522 -0.220139 -2.78205e-20)
(0.734943 0.0601473 8.76325e-20)
(0.960875 -0.0961683 1.92999e-20)
(-0.0824242 -0.0136831 -5.14004e-20)
(0.991608 -0.0299227 1.38998e-20)
(1.24578 -0.00438893 0)
(0.997436 -0.00651334 2.65543e-21)
(0.730866 -0.0497643 3.89062e-20)
(0.746422 -0.00686495 5.73964e-20)
(0.882552 0.665696 1.37386e-20)