/*--------------------------------*- C++ -*----------------------------------*\
| =========                 |                                                 |
| \\      /  F ield         | OpenFOAM: The Open Source CFD Toolbox           |
|  \\    /   O peration     | Version:  v2012                                 |
|   \\  /    A nd           | Website:  www.openfoam.com                      |
|    \\/     M anipulation  |                                                 |
\*---------------------------------------------------------------------------*/
FoamFile
{
    version     2.0;
    format      ascii;
    class       volVectorField;
    location    "300";
    object      U_0;
}
// * * * * * * * * * * * * * * * * * * * * * * * * * * * * * * * * * * * * * //

dimensions      [0 1 -1 0 0 0 0];


internalField   nonuniform List<vector> 
14315
(
(0.995236 -0.36174 2.39693e-19)
(0.197012 0.0395837 0)
(1.01309 -0.11855 5.66733e-22)
(1.07198 -0.247925 2.67231e-20)
(1.08223 -0.298854 2.5402e-20)
(1.11202 -0.0509655 -5.14172e-20)
(-0.0294275 0.00877605 1.17397e-19)
(0.913147 -0.0730693 0)
(1.07228 -0.167279 -3.08918e-20)
(1.0176 -0.0767406 8.88e-22)
(0.662735 -0.12204 -1.09152e-19)
(-0.27966 -0.0254403 -6.14885e-20)
(0.887469 -0.316257 -1.44558e-19)
(1.03879 -0.00773454 9.77279e-21)
(-0.269714 -0.0255705 -2.10215e-19)
(1.01014 -0.00269715 5.40215e-21)
(0.916416 -0.0839344 -3.42386e-20)
(1.00347 -0.0241602 6.61119e-21)
(1.10654 -0.186889 0)
(1.09996 -0.18597 0)
(1.00652 -0.0265099 1.51522e-22)
(0.168304 -0.0120622 0)
(1.15603 -0.120428 -1.12097e-20)
(-0.279012 -0.0247019 6.27261e-20)
(1.01717 -0.280997 -1.35313e-20)
(0.171762 0.0406093 2.24064e-20)
(0.993001 -0.0164354 0)
(-0.0204018 0.00938071 -1.16792e-19)
(0.771839 -0.0691494 9.69895e-20)
(1.23299 -0.157673 1.52779e-19)
(1.14441 -0.00857924 3.96744e-20)
(1.00306 -0.0275251 -8.96823e-21)
(1.04155 -0.00813367 2.14458e-20)
(0.599644 0.00062924 1.1599e-19)
(-0.0751291 -0.0142696 -1.85316e-19)
(0.18734 -0.0159319 -1.88625e-19)
(0.334786 -0.192521 -1.79622e-19)
(0.946476 -0.104387 2.68924e-20)
(1.25804 -0.119921 1.9301e-19)
(0.9445 -0.334407 -4.23126e-21)
(-0.296054 -0.0279328 -1.68367e-19)
(0.212799 0.119385 -2.36396e-19)
(0.95388 -0.060672 2.15926e-22)
(1.02328 -0.00240354 1.50261e-20)
(1.16163 -0.081863 7.97581e-21)
(1.00781 -0.279383 9.18e-21)
(0.775169 0.0815822 -6.23864e-20)
(-0.232886 -0.0255497 0)
(-0.229757 -0.0247598 0)
(1.00358 -0.02244 -4.81426e-21)
(-0.20892 -0.0247606 -1.27955e-19)
(1.08491 -0.238816 -1.55739e-20)
(-0.27473 -0.02487 0)
(-0.269837 -0.0254563 0)
(1.13442 0.00359746 8.7133e-22)
(0.218937 -0.0146155 2.51816e-19)
(0.129241 -0.481978 -2.55468e-19)
(1.08772 -0.170199 9.24808e-21)
(1.00505 -0.0334962 1.89784e-21)
(1.01252 -0.112591 -3.78762e-21)
(1.24178 -0.174437 1.19409e-19)
(0.580418 0.0401092 -9.1653e-20)
(0.199344 -0.0140474 0)
(1.00761 -0.0295913 -1.46113e-21)
(1.2305 -0.175305 1.00216e-21)
(0.362533 -0.344946 -1.44964e-19)
(0.774839 -0.300754 3.09981e-20)
(1.00138 -0.00836715 2.4405e-21)
(1.00764 -0.0279575 -7.48754e-22)
(1.1354 0.00827873 -1.64014e-20)
(-0.268732 -0.0248826 1.37155e-19)
(1.09266 -0.161362 0)
(-0.0581144 -0.0149769 1.85496e-19)
(-0.0726797 -0.0487281 1.27358e-19)
(1.00165 -0.0423011 0)
(0.0394795 -0.0453764 0)
(1.10329 -0.0953521 3.14525e-20)
(0.305351 -0.0431734 -2.12604e-20)
(1.15868 -0.0867815 7.37954e-21)
(1.06733 -0.00199335 -2.68292e-20)
(1.0252 -0.0136995 0)
(-0.148098 -0.0290076 -6.27954e-20)
(1.09169 -0.153087 -3.56396e-20)
(0.334071 -0.043735 -1.85802e-20)
(1.00826 -0.0254645 0)
(1.0914 -0.0032122 -2.47718e-20)
(0.138599 -0.0846388 0)
(-0.261708 -0.0214528 0)
(-0.276429 -0.025625 2.2193e-19)
(0.672299 -0.120785 3.38819e-21)
(1.15411 -0.0435843 -5.41568e-20)
(0.876907 -0.265539 3.54725e-20)
(1.02603 -0.014816 0)
(1.09172 -0.0126606 1.45801e-20)
(-0.27996 -0.0244977 1.41847e-19)
(-0.216658 -0.0202546 5.7336e-20)
(0.958023 -0.063763 0)
(-0.195231 -0.0250213 0)
(-0.113603 -0.00645284 4.54425e-20)
(0.706081 0.206938 -9.046e-20)
(1.00098 -0.00701085 -2.53174e-21)
(-0.211955 -0.0254043 0)
(0.174791 -0.0136561 -8.87216e-20)
(1.02951 -0.0176173 -6.61022e-21)
(0.708383 0.207977 0)
(1.25412 -0.123482 -1.86881e-19)
(-0.131762 -0.0314905 0)
(-0.199255 -0.019968 3.71855e-21)
(1.15702 -0.0209467 0)
(1.22654 -0.0158122 1.89966e-20)
(-0.222153 -0.0210615 -3.16169e-20)
(0.970749 -0.0235458 -5.9624e-22)
(-0.124461 -0.0313606 0)
(0.991398 -0.0202975 -7.08114e-21)
(1.01606 -0.0530471 0)
(-0.270196 -0.0223431 -1.62055e-19)
(0.991238 -0.0202556 9.20529e-21)
(-0.279231 -0.0253131 -2.21843e-19)
(-0.125947 -0.0328289 -1.0795e-19)
(-0.283521 -0.0264798 -9.05962e-20)
(1.27586 -0.112437 -3.37386e-22)
(1.13132 -0.014162 0)
(1.02901 -0.0158812 -4.70312e-21)
(-0.2873 -0.0251103 0)
(0.7873 -0.0680596 -4.4827e-20)
(1.02282 -0.00195199 -8.50626e-21)
(0.491075 -0.0294001 -2.28505e-19)
(1.02135 -0.00948751 -5.95455e-21)
(1.06081 -0.0205757 -2.31866e-20)
(0.8696 -0.262357 5.28442e-20)
(-0.182735 -0.00589345 2.15457e-20)
(-0.0350743 -0.0255386 5.56495e-20)
(0.702123 -0.497889 -1.263e-19)
(-0.203458 -0.0136137 0)
(1.23868 -0.149155 -1.13178e-19)
(1.00153 -0.0377417 -6.25392e-21)
(0.961169 -0.0153982 -1.31328e-20)
(0.237346 0.0366458 -2.11542e-20)
(1.06999 -0.00308879 2.28178e-22)
(1.00169 -0.0404232 0)
(0.217305 0.0357066 -1.17399e-20)
(-0.287171 -0.0248412 2.26674e-19)
(0.971019 -0.0209468 0)
(-0.188401 -0.0245654 3.44984e-20)
(1.22558 -0.0229762 0)
(-0.166911 -0.00207566 -8.02921e-20)
(1.23669 -0.0131695 -1.02879e-19)
(0.815982 -0.0526903 1.85887e-19)
(1.12052 -0.0280066 5.83936e-20)
(0.793231 0.0436391 0)
(1.02228 -0.105606 -2.34983e-21)
(-0.228495 -0.0225531 -1.49583e-20)
(0.994985 -0.0715771 -3.8449e-21)
(1.11897 -0.0327792 -7.2264e-20)
(1.08339 -0.284034 3.99063e-22)
(-0.275132 -0.0246518 2.06698e-19)
(0.948249 -0.0598978 3.73935e-20)
(1.01012 -0.00296713 0)
(1.11187 -0.0529194 4.80241e-20)
(0.22864 0.035959 -4.33349e-20)
(1.00566 -0.035793 4.054e-22)
(-0.202779 -0.0247677 1.12138e-19)
(0.709128 -0.0497683 0)
(-0.280457 -0.0251316 1.39995e-19)
(1.0401 -0.0863007 0)
(-0.192506 -0.0192503 0)
(-0.2326 -0.0166724 1.12292e-19)
(0.773474 -0.237602 0)
(-0.0982747 -0.0225911 1.43439e-19)
(-0.0660004 -0.0253604 0)
(1.01781 -0.093292 7.25493e-20)
(1.00736 -0.00209576 -1.20761e-22)
(-0.254993 -0.0200012 1.86725e-20)
(1.01603 -0.0772708 2.24182e-22)
(1.16552 -0.075895 -6.33834e-20)
(0.344452 -0.171517 1.76537e-19)
(1 -0.00152496 1.79163e-21)
(0.182057 -0.0129558 0)
(0.0522519 -0.0102129 4.47375e-20)
(-0.188245 -0.00723831 -6.4115e-21)
(1.18887 -0.295743 4.25886e-20)
(1.1015 -0.089918 0)
(1.02783 -0.0161764 8.33733e-21)
(1.23527 -0.0732405 5.86103e-20)
(1.14536 -0.108602 -7.43474e-21)
(0.945357 -0.098059 -3.7269e-21)
(0.938298 -0.301849 9.58455e-21)
(1.26409 -0.0882904 -8.24899e-20)
(-0.051292 -0.0149327 -2.30692e-20)
(1.18553 -0.018911 0)
(1.14962 -0.126766 -2.79694e-20)
(0.79607 -0.270314 -5.724e-20)
(-0.220893 -0.0168138 1.45883e-19)
(0.224467 0.165535 2.59236e-19)
(1.04884 -0.00564922 7.82015e-21)
(-0.121663 -0.0301836 0)
(1.24709 -0.181285 -7.76878e-20)
(1.03685 -0.0470006 1.2476e-20)
(1.02369 -0.0257157 4.32052e-21)
(0.673605 -0.107977 -1.05235e-19)
(-0.280549 -0.0245559 4.61057e-20)
(1.06808 -0.117664 2.23381e-20)
(-0.288294 -0.0251273 -2.59253e-19)
(-0.213731 -0.0152545 -1.21994e-19)
(1.05774 -0.0403693 6.48698e-21)
(1.22101 0.0544913 -9.8721e-21)
(1.22651 -0.165256 0)
(1.08882 -0.138956 0)
(1.01096 -0.0081471 2.16932e-21)
(-0.22186 -0.0181577 1.14097e-19)
(1.22764 0.0468842 -1.56268e-19)
(1.06411 -0.021702 1.15914e-20)
(-0.282166 -0.0240033 -1.89359e-19)
(1.20506 -0.101554 9.28058e-20)
(-0.102026 0.00483755 0)
(-0.118667 -0.0335787 0)
(0.415693 -0.0611842 1.29491e-20)
(-0.0942334 -0.00473447 0)
(-0.116679 0.00278473 -7.16253e-20)
(1.21478 -0.095661 9.46273e-20)
(1.07094 -0.118148 -2.69083e-20)
(1.15483 -0.0190476 4.91605e-20)
(1.19469 0.0143723 -3.96417e-20)
(0.981831 -0.104029 -3.01626e-21)
(0.537294 0.0408845 7.62794e-20)
(1.02361 -0.0941128 3.5777e-22)
(1.01743 -0.00134241 0)
(1.23825 -0.0692489 -5.68983e-20)
(-0.0684605 -0.0152457 -3.17714e-20)
(0.464781 -0.340541 1.63386e-19)
(1.01713 -0.000791158 0)
(1.03946 -0.0873778 1.00386e-20)
(0.807485 0.0302515 8.16009e-20)
(1.00029 -0.000391916 2.67202e-21)
(1.00001 -0.000665738 0)
(0.541805 -0.0499861 -2.19935e-20)
(1.15383 -0.0934154 7.65239e-21)
(1.0895 -0.148742 0)
(-0.0674796 -0.0141399 -9.02779e-20)
(-0.111316 -0.0138332 0)
(1.08947 -0.00980057 -2.0562e-20)
(1.13328 -0.0626722 1.11168e-20)
(0.332603 -0.566983 1.04668e-19)
(-0.284792 -0.0244524 1.30159e-20)
(1.03112 -0.529596 -5.84642e-21)
(0.749197 -0.250618 8.88343e-22)
(0.417699 0.0100368 1.23793e-19)
(1.00112 -0.000982959 2.84043e-21)
(-0.0989612 -0.0142904 0)
(1.19466 -0.183209 7.30717e-20)
(1.04529 -0.015218 0)
(1.02978 -0.0177951 6.50424e-21)
(0.0176364 -0.0366637 -1.76723e-19)
(0.356 0.134454 -1.07623e-19)
(0.959261 -0.0411234 -3.02094e-20)
(0.0467506 0.00435707 0)
(1.13318 -0.0808515 5.59812e-20)
(1.21817 0.0564738 -1.77548e-22)
(-0.145941 -0.0284032 -3.98857e-20)
(1.20866 0.050071 9.20874e-20)
(0.70558 -0.443724 4.70899e-20)
(1.13282 -0.0112065 -1.78158e-20)
(-0.280354 -0.0241484 3.01169e-21)
(1.22663 -0.184413 0)
(0.84428 0.0574343 -1.36683e-19)
(1.12966 -0.0817829 -7.70724e-20)
(1.02686 -0.224797 -1.06401e-20)
(1.13664 -0.0578212 1.16765e-20)
(1.09241 -0.00319519 2.81609e-20)
(-0.199655 -0.0217092 0)
(0.2156 0.0372055 -4.38516e-20)
(1.09527 -0.0653589 0)
(1.13794 -0.0102149 0)
(-0.263965 -0.0214349 1.91368e-19)
(0.963776 -0.17204 0)
(0.329706 0.0158537 0)
(-0.285741 -0.0243948 9.15213e-20)
(1.1581 -0.0893343 0)
(-0.163154 -0.0272321 0)
(1.14948 -0.340507 3.03292e-20)
(1.14557 -0.00641911 3.37219e-20)
(1.10729 -0.0388637 -4.32173e-20)
(-0.109433 -0.0147427 0)
(-0.136841 -0.026756 -6.41187e-20)
(1.01578 -0.0507609 0)
(-0.279376 -0.0251446 0)
(0.156248 -0.0129891 0)
(-0.129758 -0.0298218 2.42038e-23)
(-0.211861 -0.014492 0)
(-0.126969 -0.0258857 0)
(1.16621 -0.0753556 4.5006e-20)
(-0.164055 -0.0234581 -1.11064e-19)
(-0.218834 -0.016035 1.32736e-19)
(-0.15255 -0.0281191 -1.63429e-20)
(1.23738 -0.166602 8.31524e-22)
(1.19628 -0.0358846 2.81458e-20)
(-0.201914 -0.0200503 -3.34698e-20)
(1.20644 -0.103712 -8.1836e-20)
(0.992455 -0.0279396 -2.04739e-20)
(1.02323 -0.0253651 0)
(1.1567 -0.0394804 -1.65368e-20)
(-0.175508 -0.0216771 -7.42861e-20)
(0.738857 -0.0451711 -1.6265e-19)
(0.149603 0.0326596 -2.51272e-20)
(0.949225 -0.0924985 1.10019e-20)
(1.00837 -0.0252405 -7.50785e-23)
(-0.183869 -0.0059166 0)
(0.143758 -0.0118194 1.14855e-20)
(1.00907 -0.020623 1.73879e-21)
(1.04758 -0.0139388 1.51144e-22)
(0.148474 -0.0281488 0)
(1.03005 -0.0131914 0)
(-0.126438 -0.0324312 8.77266e-20)
(-0.211143 -0.0202745 3.63379e-20)
(1.05575 -0.261102 8.47011e-21)
(1.26804 -0.0863491 -5.96529e-20)
(1.05953 -0.0187831 -1.098e-20)
(1.12749 -0.0867629 3.06137e-23)
(1.03088 -0.0928156 0)
(1.00676 -0.00237495 0)
(-0.285869 -0.0252422 -2.32136e-19)
(1.27338 -0.248539 7.20139e-21)
(-0.214074 -0.0179339 -1.03645e-19)
(1.13775 -0.0743853 -6.02871e-20)
(1.17865 -0.466965 1.07738e-19)
(1.04972 -0.00665711 -1.64723e-20)
(-0.195408 -0.0195865 5.7898e-20)
(1.25377 -0.125844 0)
(0.671026 -0.085821 -3.46514e-21)
(1.04622 -0.0138048 -1.44428e-20)
(1.12369 -0.0865609 -1.85988e-20)
(-0.208871 -0.0128492 -1.25591e-20)
(0.999807 -0.00520948 1.5869e-20)
(-0.0781418 -0.014805 9.85029e-20)
(-0.0979247 -0.032675 0)
(1.00332 -0.0208748 0)
(-0.21124 -0.0156895 -9.62004e-20)
(0.0337702 -0.0376951 1.18809e-19)
(0.0311435 -0.0372652 8.05218e-21)
(-0.0243472 0.00345052 7.22491e-20)
(1.03737 -0.0466614 1.16466e-20)
(0.882563 -0.0640069 -3.42787e-20)
(1.01486 -0.0173423 6.95494e-21)
(1.00096 -0.000836396 -1.75948e-21)
(0.605835 -0.0136298 1.40199e-19)
(1.0074 -0.00384685 4.13064e-21)
(1.04489 -0.0146981 7.81877e-21)
(0.513766 -1.12918 0)
(1.23592 -0.0149444 5.29862e-20)
(-0.220715 -0.0198955 -6.47863e-20)
(0.999893 -0.000755285 -1.66838e-20)
(0.959517 -0.0152402 -8.09404e-21)
(-0.192115 -0.00721814 0)
(-0.279785 -0.0237745 -9.50718e-20)
(0.348978 -0.374993 -2.04538e-19)
(0.989816 -0.0376584 0)
(1.06018 -0.0392553 0)
(1.00004 -0.000633115 0)
(1.00898 -0.0221074 5.49894e-22)
(-0.193482 -0.0211107 3.22418e-20)
(0.776997 0.0898167 5.35646e-20)
(0.796778 0.0569399 0)
(0.801822 -0.054544 2.80523e-22)
(0.805758 0.0553001 1.83306e-19)
(0.444297 -0.0055748 3.47646e-20)
(-0.138902 -0.0300001 -8.18107e-20)
(1.02141 -0.0103508 -6.1266e-21)
(-0.279099 -0.0235003 2.20602e-20)
(-0.118053 -0.0158267 4.72107e-20)
(1.1464 -0.0106887 1.66951e-23)
(1.25233 -0.221298 1.01516e-19)
(0.995903 -0.0717771 0)
(0.999936 -0.00137939 1.35326e-20)
(0.370077 0.0128327 0)
(-0.203394 -0.0117325 -2.42412e-20)
(1.02462 -0.221843 1.32858e-21)
(1.02804 -0.0939552 0)
(1.00323 -0.0190525 0)
(0.990045 -0.0373339 0)
(0.0912151 -0.103854 1.03455e-19)
(-0.265122 -0.0247366 -1.27857e-19)
(1.09523 -0.152345 0)
(1.00755 -0.00415462 -4.40691e-21)
(0.988779 -0.0932818 -1.13104e-19)
(0.903151 -0.301657 0)
(0.0294918 0.0105168 0)
(1.19739 0.0195544 -7.56218e-20)
(0.0322192 0.00266117 4.79487e-21)
(0.0493395 0.0107223 -2.65868e-20)
(1.1793 0.0213412 -5.04703e-20)
(1.03682 -0.092168 4.30616e-21)
(-0.28565 -0.0255957 0)
(0.0548382 -0.0378969 -1.50805e-20)
(0.573006 0.000213883 -1.26882e-19)
(-0.219203 -0.0202908 1.59341e-20)
(-0.0194314 0.00298387 -7.26582e-20)
(0.877368 -0.148243 1.84908e-20)
(0.999873 -0.00175846 9.88952e-21)
(1.15641 -0.0229565 1.16167e-19)
(-0.116022 0.00760391 3.59806e-20)
(1.03331 -0.0903714 -1.07973e-20)
(0.899391 -0.0734305 4.39318e-20)
(1.05861 -0.0164995 -1.13857e-20)
(-0.221746 -0.0247747 -3.67752e-21)
(0.0379635 0.0101173 -1.26021e-19)
(1.22442 0.0509801 0)
(-0.20798 -0.0154041 3.03997e-20)
(1.27235 -0.250052 0)
(0.821067 0.058021 0)
(0.310687 0.0497195 0)
(1.0175 -0.0209251 -5.23112e-21)
(-0.142972 -0.00976031 -5.90076e-23)
(-0.262357 -0.0242018 -2.09555e-19)
(1.20004 -0.0405511 -3.53183e-20)
(1.05789 -0.022329 0)
(1.0299 -0.0124306 0)
(1.24078 -0.0101084 1.11249e-19)
(-0.16201 -0.0281099 -7.26329e-20)
(1.00846 -0.0188601 0)
(0.99791 -0.530906 2.75042e-20)
(1.0962 -0.0657355 0)
(0.24521 -0.0836329 3.58278e-20)
(1.25086 -0.131125 0)
(0.897638 -0.071415 -5.87702e-20)
(0.999821 -0.00497184 -3.5526e-23)
(-0.198053 -0.024674 1.19243e-19)
(-0.133464 -0.0321529 9.21334e-20)
(1.18272 -0.136343 1.02247e-19)
(1.14858 -0.0970248 -5.65047e-20)
(1.1328 0.0120615 4.84112e-20)
(-0.165797 -0.0289481 1.13615e-19)
(0.209857 0.0346414 0)
(0.999736 -0.00144668 -1.30434e-20)
(1.0739 -0.164326 -2.76117e-20)
(1.20944 0.0189438 0)
(1.10426 -0.0167059 -2.70234e-20)
(1.22136 -0.0581015 4.38708e-20)
(-0.216679 -0.017585 -8.33299e-20)
(1.0905 -0.276667 3.15593e-20)
(0.992476 -0.0274565 2.20904e-20)
(0.354707 0.112353 1.82562e-19)
(0.992295 -0.0374305 0)
(-0.200582 -0.0118515 0)
(1.00671 -0.0269838 8.32495e-22)
(0.951836 -0.10354 4.70704e-20)
(1.24685 -0.0117537 1.8233e-19)
(0.911067 -0.264655 0)
(-0.191453 -0.0243894 -1.36972e-19)
(1.00241 -0.0179272 0)
(0.98595 -0.0977507 2.46781e-21)
(0.553106 -1.01368 0)
(-0.29079 -0.0248139 5.73808e-20)
(0.999272 -0.00821941 -1.3345e-22)
(1.17654 -0.0493376 -5.43054e-20)
(1.10896 -0.0425839 5.26205e-20)
(-0.266261 -0.0230215 -1.60245e-19)
(1.25523 -0.324094 0)
(-0.184037 -0.0254184 0)
(-0.13315 -0.00906487 2.50165e-20)
(1.22723 -0.0193998 0)
(0.992997 -0.0511237 -8.7264e-21)
(0.354007 0.0461247 -1.30499e-19)
(-0.271778 -0.0251891 -5.16313e-20)
(1.21899 -0.0655689 -3.92875e-20)
(0.055339 0.011271 1.65711e-19)
(0.846838 -0.0109271 -5.90524e-20)
(-0.257037 -0.025384 0)
(1.22622 -0.0279095 2.06403e-20)
(1.17815 -0.0405285 9.18912e-20)
(-0.189157 -0.00713239 0)
(1.12568 -0.0190729 -3.04955e-20)
(1.22621 -0.00477183 0)
(-0.2274 -0.0204454 7.27047e-20)
(1.17254 -0.0573057 4.38873e-20)
(-0.287473 -0.0250968 2.74497e-20)
(0.972513 -0.101323 -1.4526e-20)
(1.0385 -0.00909391 0)
(1.07039 -0.0741095 1.2965e-20)
(-0.219409 -0.0199482 -6.04386e-20)
(-0.283864 -0.024809 0)
(1.20646 -0.0307352 -3.93814e-20)
(-0.202456 -0.014054 1.13694e-19)
(1.22524 -0.0093096 0)
(-0.246445 -0.0186218 2.4569e-20)
(-0.168597 -0.028379 0)
(1.18643 -0.283631 -1.01689e-19)
(1.00004 -0.00126176 0)
(-0.0394609 0.0024967 -9.56082e-20)
(0.928368 -0.0597675 -6.74717e-20)
(1.21043 -0.0923952 0)
(1.01711 -0.0204078 -1.00925e-22)
(1.24918 -0.33443 -3.72797e-20)
(1.03064 -0.0702676 5.19052e-21)
(1.05576 -0.257844 0)
(1.22662 0.0435881 0)
(-0.172485 -0.00339981 2.10962e-20)
(1.00123 -0.00709299 -9.13511e-22)
(1.07081 -0.155862 0)
(-0.184742 -0.0139695 0)
(0.228214 0.0362669 0)
(0.779346 -0.258115 1.49222e-20)
(-0.133534 -0.0286801 2.33332e-20)
(-0.287819 -0.0251474 1.7335e-19)
(1.04183 -0.0851125 -1.45804e-20)
(1.00001 -0.0010675 1.04846e-21)
(1.05891 -0.0238244 0)
(-0.0553555 -0.0359371 0)
(1.20576 -0.220649 9.51061e-22)
(0.964221 -0.166086 0)
(1.05983 -0.0180512 3.60707e-20)
(0.297093 0.0422905 -8.82865e-20)
(1.01661 -0.0723206 0)
(1.08185 -0.0414339 1.46722e-20)
(1.0735 -0.0594238 0)
(1.22257 0.0525947 1.19248e-20)
(0.118788 -0.0229025 1.58222e-20)
(0.749214 -0.220985 0)
(-0.0358672 0.0020469 7.65872e-20)
(0.69473 -0.0183663 -5.90147e-20)
(1.1559 -0.221777 1.6258e-19)
(-0.281219 -0.0245378 6.3699e-20)
(1.10424 -0.0183942 -1.08255e-20)
(1.10656 -0.015499 3.98127e-20)
(0.793725 -0.0590373 -4.177e-20)
(1.14967 -0.458865 6.85026e-20)
(-0.225695 -0.0205186 -6.63618e-20)
(1.01657 -0.0812471 -2.32487e-22)
(1.00121 -0.00758957 4.06506e-22)
(1.21696 -0.069439 0)
(1.06884 -0.00421083 0)
(0.99289 -0.0405425 -4.26084e-21)
(1.20453 -0.027421 0)
(1.00737 -0.0201389 -6.20266e-22)
(1.04786 -0.0120754 2.30932e-20)
(1.20745 -0.0935558 -9.58502e-20)
(-0.28059 -0.0250164 -3.26743e-20)
(0.956287 -0.0398131 2.48679e-20)
(-0.286031 -0.0255668 1.30531e-20)
(1.2158 -0.127183 -5.44705e-20)
(1.00047 -0.00511797 -4.78438e-21)
(-0.158832 -0.0278548 0)
(1.10245 -0.021606 -8.50396e-21)
(-0.199092 -0.0133752 -5.49712e-20)
(1.22579 0.0132912 2.08627e-20)
(1.07982 -0.041293 -3.76545e-20)
(1.18156 0.00783508 -6.2015e-20)
(1.06399 -0.0928295 1.92802e-20)
(1.23688 -0.0987947 0)
(1.17831 -0.135525 -5.8154e-20)
(-0.273386 -0.0225259 -1.05119e-19)
(1.08311 -0.0388061 -2.51081e-20)
(1.04235 -0.0830242 -7.45459e-21)
(-0.0188388 0.0168382 0)
(0.124021 -0.104175 -2.68194e-19)
(0.25941 0.035089 0)
(1.07704 -0.0839219 0)
(0.80613 -0.0603754 -6.34317e-20)
(0.982235 -0.0261051 2.88583e-20)
(0.993207 -0.0481553 0)
(1.09499 -0.147826 -4.09826e-20)
(-0.208088 -0.0126171 0)
(-0.0679087 -0.0174724 9.54379e-20)
(-0.190142 -0.00716119 0)
(1.20578 -0.219028 6.00366e-20)
(1.14826 -0.328646 -5.80825e-20)
(1.25039 -0.0301447 1.66838e-20)
(0.991875 -0.0165108 -3.93037e-21)
(1.00027 -0.00430602 0)
(1.16216 0.00400303 -1.45261e-20)
(1.07163 -0.0300943 0)
(0.691085 -0.0357398 -1.46039e-19)
(1.02387 -0.00891385 -1.36083e-20)
(-0.282125 -0.0250652 -1.88666e-19)
(1.243 0.00268974 0)
(-0.188618 -0.0218075 4.04106e-21)
(1.03156 -0.000738183 -2.03209e-22)
(1.16847 -0.070286 4.51292e-20)
(1.00209 -0.0280609 0)
(0.549972 0.991344 5.62363e-20)
(1.03976 -0.00680999 0)
(0.343026 0.0158673 -1.80235e-19)
(1.11838 -0.226264 0)
(0.993329 -0.0150827 0)
(1.18132 -0.167793 -1.41593e-19)
(1.00862 -0.0205143 -7.56223e-22)
(1.06216 -0.0917319 -3.05187e-20)
(1.0363 -0.000352158 1.52493e-20)
(1.13033 0.0110165 1.57645e-20)
(1.19841 -0.229512 1.24616e-19)
(1.02407 -0.086025 2.35401e-21)
(-0.241065 -0.0181187 4.35674e-20)
(1.00702 -0.0261318 5.14859e-22)
(1.23168 -0.104093 -4.88044e-20)
(1.20264 0.00552074 1.62905e-20)
(1.23011 -0.110457 -6.8376e-21)
(1.01011 -0.0221383 0)
(0.682599 -0.0018874 -5.66222e-20)
(0.871528 -0.0122177 2.05888e-20)
(0.187864 0.035803 0)
(-0.226564 -0.016621 6.39059e-20)
(1.17648 0.0195903 -3.69891e-20)
(1.17172 0.00490461 0)
(-0.134722 -0.0291742 8.05345e-20)
(-0.0445935 -0.0710823 0)
(1.08547 -0.0384056 -1.46814e-20)
(1.00112 -0.00697888 -7.29812e-22)
(-0.0740861 -0.0360373 -8.83977e-20)
(0.978234 -0.0542616 1.47913e-20)
(1.02728 -0.162363 -1.59074e-21)
(0.0598158 0.71158 4.0848e-20)
(-0.236941 -0.018338 -1.29436e-19)
(1.24488 -0.00712632 -5.52883e-20)
(-0.198863 -0.0134624 5.19539e-20)
(1.03835 -0.00750109 1.07016e-20)
(0.645683 -0.242689 3.9146e-20)
(0.891007 -0.061456 -3.62422e-20)
(1.22905 -0.106978 -6.71199e-21)
(0.551287 -0.154962 1.68693e-19)
(0.999377 -0.00769101 -1.4527e-20)
(1.01749 -0.01751 -4.72719e-21)
(1.23996 0.00618564 -5.40379e-20)
(1.22583 0.0488689 7.81927e-20)
(1.01643 -0.0844922 1.31613e-21)
(1.24916 -0.0347863 -2.92272e-20)
(-0.194137 -0.00867501 -2.8067e-21)
(1.05719 -0.00214108 3.37023e-20)
(1.06558 -0.00986752 3.46883e-21)
(0.0600754 0.010466 0)
(0.551819 -0.126624 0)
(-0.211863 -0.017907 0)
(1.04338 -0.00503344 1.15302e-20)
(1.19037 -0.128014 -8.66733e-20)
(1.00143 -0.0247517 -1.19161e-20)
(1.04198 -0.00783955 9.73164e-22)
(-0.184628 -0.00598763 2.27264e-20)
(1.00104 -0.00643401 1.67194e-21)
(-0.17428 -0.00333035 7.46075e-20)
(1.1526 -0.0946634 6.95199e-20)
(0.390912 -0.00276908 3.65233e-20)
(1.03553 -0.0423314 -1.34725e-20)
(0.975325 -0.0244716 -3.03699e-20)
(1.18192 0.0118808 1.07477e-19)
(1.1349 -0.0690497 5.56135e-20)
(-0.174635 -0.0274491 0)
(0.335606 0.0406954 -1.37456e-20)
(-0.230553 -0.0165351 -5.48177e-20)
(1.01969 -0.110859 -1.57895e-21)
(1.17469 -0.0521654 9.9485e-21)
(0.999902 -0.00150506 0)
(1.14466 -0.0138668 -4.33461e-20)
(0.42667 -0.35059 -1.17488e-19)
(1.14418 -0.165343 0)
(-0.0483095 0.00281505 0)
(1.19954 0.00997747 1.46419e-20)
(1.24301 -0.0147454 0)
(0.883917 -0.277096 1.04689e-19)
(1.14052 -0.11357 0)
(1.13137 -0.048216 0)
(1.21133 -0.131702 5.3321e-20)
(0.00136256 0.0187259 5.34575e-20)
(1.06977 -0.0300039 0)
(1.13297 -0.0498454 -6.09322e-21)
(1.2029 0.00247333 -5.17225e-20)
(0.287979 -0.0230571 0)
(1.23104 0.035128 -1.66395e-19)
(0.214755 -0.0768059 1.16643e-19)
(1.01331 -0.00190505 -1.5491e-20)
(1.00035 -0.1224 0)
(-0.222551 -0.0184629 -3.30379e-20)
(0.948799 -0.0636975 -6.55277e-20)
(-0.280906 -0.0257306 0)
(1.06561 -0.0107784 1.28287e-20)
(1.19696 -0.229212 -1.78053e-19)
(0.992406 -0.0465357 0)
(1.16927 -0.0711852 1.10148e-20)
(1.06397 -0.0218494 -2.78339e-20)
(0.472308 -0.415293 1.00062e-19)
(-0.0940907 -0.0140579 -2.26941e-20)
(1.00277 -0.0117817 -1.42175e-21)
(0.675544 0.795844 -3.98565e-20)
(1.00299 -0.0125857 2.1819e-21)
(0.999948 -0.00115 0)
(1.02113 -0.555283 6.75757e-21)
(-0.194003 -0.0248038 0)
(1.15651 -0.0555745 7.73318e-20)
(-0.195645 -0.0210015 -7.25677e-20)
(1.1959 0.0159176 2.19497e-20)
(-0.0249607 -0.0416509 3.87587e-20)
(0.207637 -0.513966 2.49226e-19)
(1.06634 -0.0203561 -4.09827e-20)
(0.960185 -0.0584787 -1.39903e-20)
(1.03694 -0.000188677 0)
(1.07569 -0.0265789 5.62273e-20)
(1.17366 0.017473 -3.71561e-20)
(1.0758 -0.0264311 -5.97432e-20)
(1.15284 -0.478166 -1.10035e-19)
(0.396354 0.0120413 -1.23624e-19)
(1.14285 -0.100311 0)
(1.12942 -0.0676493 0)
(0.978933 -0.0582706 0)
(1.0701 -0.0169762 -1.66288e-20)
(-0.190372 -0.00653429 -2.75654e-20)
(1.01569 -0.00191856 -8.22377e-21)
(1.11207 -0.231722 0)
(1.18477 -0.129548 9.68674e-20)
(1.06893 -0.160658 0)
(-0.278418 -0.023539 -1.97323e-19)
(0.564304 0.0115672 9.05524e-20)
(1.21988 0.0249153 -8.03977e-20)
(0.0954437 0.0127885 -6.90635e-20)
(0.991366 -0.160235 -6.15509e-21)
(-0.297117 -0.0269882 -6.2357e-20)
(1.09364 -0.188278 -3.24643e-20)
(1.04045 -0.00839957 -1.4998e-20)
(1.00123 -0.023461 1.16008e-20)
(0.975913 -0.0471447 -2.04188e-20)
(1.08357 -0.167271 1.83178e-22)
(1.06875 -0.0737009 0)
(1.17775 -0.0631519 4.71447e-20)
(1.05881 -0.0924073 -2.36866e-20)
(1.00466 -0.125827 9.69468e-22)
(-0.164817 -0.0213475 0)
(1.04403 -0.00589875 -3.82917e-20)
(0.972006 -0.0968079 0)
(1.14782 -0.239258 1.09985e-19)
(1.09301 -0.0097103 0)
(0.982678 -0.152962 2.50093e-21)
(1.2155 -0.09648 9.51778e-20)
(0.962088 -0.0644335 1.76042e-20)
(0.621814 0.657462 0)
(1.02714 -0.0144026 0)
(0.999747 -0.00156132 -7.26096e-21)
(0.372074 0.0105748 -1.04312e-19)
(-0.0427877 -0.0144577 2.63385e-20)
(-0.200335 -0.00963879 1.20899e-20)
(0.404363 -0.162984 1.45841e-19)
(1.00272 -0.0369514 0)
(-0.215964 -0.0161419 -1.69682e-20)
(0.831441 -0.0660246 0)
(1.00299 -0.0358155 5.41933e-21)
(0.118516 -0.0992257 0)
(1.00435 -0.0012397 2.12589e-21)
(1.00309 -0.0270413 5.73866e-21)
(1.18242 0.00276307 -2.00761e-20)
(1.00252 -0.0193591 -3.09713e-21)
(-0.242806 -0.0184902 -4.01421e-20)
(1.06904 -0.0940459 -7.4127e-21)
(0.261684 -0.535115 -1.39556e-19)
(0.979537 -0.0977705 0)
(0.35119 0.0120266 1.74956e-19)
(1.24217 -0.228182 -9.11635e-20)
(1.15063 -0.231628 -3.46859e-20)
(0.958597 -0.154389 0)
(-0.238615 -0.0246859 -1.54031e-20)
(0.633305 -0.0310671 2.11184e-19)
(-0.19849 -0.0215555 -3.34345e-20)
(0.99237 -0.0497375 4.95254e-21)
(0.980024 0.0451676 -2.03278e-20)
(0.852116 -0.11546 1.59036e-20)
(-0.142884 -0.0289685 2.1512e-20)
(1.00002 -0.0014492 0)
(-0.203346 -0.0118313 -7.21945e-20)
(-0.248761 -0.025273 -1.3414e-20)
(1.01802 -0.485241 0)
(0.487345 -0.0665701 5.7109e-20)
(1.0041 -0.0127397 -2.69716e-22)
(-0.297664 -0.0254411 6.81834e-20)
(1.13221 -0.0097299 0)
(1.18282 0.00515091 0)
(0.488936 -0.42728 1.80734e-21)
(-0.114219 -0.0141494 -2.38502e-22)
(1.02327 -0.0894503 2.04787e-21)
(0.980953 -0.0561784 -1.39292e-20)
(0.33953 0.025479 0)
(-0.272975 -0.0225814 -7.04597e-20)
(0.979928 0.581502 0)
(1.01456 -0.0173344 -1.93532e-21)
(1.23697 -0.340046 -1.59402e-19)
(-0.0392651 -0.0277933 -1.15605e-19)
(-0.058898 -0.026887 1.00511e-19)
(0.880048 0.0499694 1.91362e-20)
(1.05764 -0.0917559 3.2594e-20)
(0.338074 -0.366645 1.87398e-19)
(0.498899 0.0358301 5.6268e-20)
(-0.122379 -0.0134533 -7.88177e-20)
(1.1771 -0.0457284 -1.10296e-20)
(-0.164987 -0.0205908 -3.87665e-20)
(0.834987 -0.0683163 0)
(1.0489 -0.0133541 -8.26341e-21)
(0.986245 -0.155388 -1.77501e-20)
(0.994887 -0.0161047 4.70753e-21)
(1.03833 -0.163307 -1.34775e-20)
(1.22764 0.0361592 1.08152e-19)
(0.496057 0.00979045 -6.43655e-20)
(0.994548 -0.0139285 7.81167e-21)
(0.944152 -0.058127 0)
(1.15276 -0.0512481 -1.49835e-20)
(0.209621 -0.0315354 1.41509e-19)
(0.778278 0.104183 -1.91543e-20)
(0.945113 -0.100845 -2.91157e-20)
(1.27096 -0.0933539 -3.61992e-20)
(-0.205517 -0.014284 -7.36968e-20)
(-0.279079 -0.0229478 0)
(1.09044 -0.0355527 4.92652e-20)
(0.0663442 0.00183733 5.92752e-22)
(0.999836 -0.00104821 6.68637e-21)
(1.12191 -0.0364575 0)
(1.15909 -0.0488733 -5.562e-20)
(0.646684 0.1853 0)
(-0.232698 -0.0248956 0)
(1.01181 -0.00789625 8.29922e-22)
(-0.188495 -0.0196628 0)
(1.24341 -0.00211255 0)
(-0.0716375 -0.0140479 -1.01787e-19)
(0.541828 -0.0116239 2.48815e-20)
(0.918713 -0.273492 1.57744e-20)
(0.0156604 0.0139599 -6.41623e-20)
(0.922638 -0.193602 6.56165e-21)
(0.126026 -0.104522 1.40381e-19)
(0.999458 -0.0067651 -4.66978e-21)
(1.09691 0.000750547 -1.52937e-20)
(0.848331 -0.101443 -1.73815e-20)
(1.22014 -0.0667563 4.15442e-20)
(1.10759 0.0023323 0)
(0.975971 -0.0453157 1.70999e-20)
(1.0341 -0.164734 1.51941e-20)
(1.18011 -0.0265076 8.61359e-20)
(0.15191 -0.073351 -4.85476e-20)
(1.06824 -0.0185009 -1.5482e-22)
(1.0318 -0.0714257 6.61718e-22)
(0.108724 -0.00917392 0)
(-0.246458 -0.0189691 0)
(-0.161952 -0.021882 0)
(0.753143 0.0533928 -7.31876e-20)
(1.01562 -0.098387 7.2135e-22)
(-0.185641 -0.00592479 0)
(1.06722 -0.0915634 7.71869e-21)
(1.01745 -0.0171592 0)
(-0.235405 -0.0179723 -2.13581e-20)
(0.881535 -0.0412126 0)
(-0.198549 -0.0195523 0)
(-0.0466008 0.00241095 -8.76658e-20)
(-0.219861 -0.0184544 -4.15063e-21)
(1.1973 -0.130618 6.08865e-20)
(0.0338959 0.0115781 6.57683e-20)
(1.24944 -0.0417044 0)
(0.9643 -0.385898 0)
(-0.0516707 -0.0269615 -1.14806e-19)
(0.994096 -0.155618 -4.56357e-21)
(0.996959 -0.00638506 0)
(1.00893 -0.0236567 -1.41724e-22)
(0.598375 0.0756764 -1.87709e-19)
(0.316545 0.0152923 1.24089e-19)
(1.23292 -0.157201 -5.08789e-20)
(-0.216076 -0.0243385 0)
(1.07499 -0.152951 0)
(-0.145308 -0.0246281 1.14195e-19)
(0.483171 -0.115087 -4.11412e-21)
(1.13329 -0.0430975 3.78725e-20)
(0.742363 -0.286166 0)
(0.81128 0.0529903 -8.78234e-20)
(-0.235129 -0.0175468 1.25983e-19)
(0.879225 -0.0466728 -4.97093e-20)
(0.96068 -0.0968846 0)
(1.12715 -0.0630432 0)
(1.00024 -0.000297535 -3.65527e-21)
(1.24806 -0.0221064 -1.84833e-19)
(1.01913 -0.123154 1.10424e-21)
(1.27569 -0.113344 -1.19736e-19)
(1.08748 -0.160276 2.46913e-20)
(1.00013 -0.00331988 2.63575e-22)
(0.981695 -0.0546212 0)
(-0.043834 -0.0440073 0)
(0.982677 -0.0116013 -2.31526e-20)
(1.03637 -0.000397344 -1.76228e-20)
(1.01354 -0.0042207 5.60963e-21)
(1.24661 -0.0184349 3.0387e-20)
(1.13022 -0.0220558 0)
(0.882885 -0.165581 -1.08507e-19)
(1.164 0.00226261 3.21803e-20)
(-0.248024 -0.0251742 -1.34786e-19)
(0.962859 -0.0642779 -3.19088e-20)
(1.02391 -0.00962471 -7.07942e-21)
(1.01824 -0.0512353 -1.17531e-21)
(0.522424 -0.101006 -1.05001e-19)
(1.08629 -0.0154258 -1.34347e-22)
(-0.230859 -0.0228935 0)
(0.994746 -0.00866629 -2.65069e-21)
(0.126827 0.031656 7.79915e-20)
(1.0337 -0.0243093 -1.95222e-20)
(-0.205606 -0.014429 3.22427e-20)
(-0.270009 -0.0220316 -2.24091e-20)
(1.00016 -0.000177695 1.01417e-21)
(0.744855 -0.492302 -1.56707e-19)
(0.26363 0.0408881 1.32575e-19)
(0.771288 0.0237624 9.67968e-20)
(-0.123214 -0.0150542 1.00007e-19)
(1.13486 -0.0774804 2.26096e-20)
(1.22021 -0.173632 0)
(0.826999 0.053981 -2.0723e-20)
(-0.263698 -0.0213998 -8.22695e-20)
(1.04296 -0.00625668 1.50108e-20)
(1.17532 -0.0515823 -9.07733e-20)
(1.27181 -0.115707 0)
(1.02046 -0.0872644 -3.31063e-21)
(-0.187617 -0.0165151 -1.06084e-19)
(1.03154 -0.000455573 -1.32407e-20)
(-0.25575 -0.0250253 1.36999e-19)
(-0.208699 -0.0201348 0)
(-0.235935 -0.0164781 -5.26481e-20)
(1.07672 -0.164638 3.24907e-20)
(0.447276 -0.00739094 1.49386e-19)
(0.0634732 -0.010121 -1.48587e-19)
(1.06206 -0.0230478 -2.65847e-20)
(-0.226638 -0.0224107 1.03845e-19)
(1.00406 -0.0350955 -2.52698e-22)
(1.08787 -0.0128193 0)
(-0.199057 -0.0115053 -1.18752e-20)
(0.0928066 -0.333269 1.52752e-19)
(0.981664 -0.0114577 3.11882e-20)
(1.12512 -0.221008 -2.79227e-20)
(0.734958 0.0601243 8.76671e-20)
(0.960817 -0.0961481 1.92341e-20)
(-0.0824253 -0.0137273 -5.14275e-20)
(0.991611 -0.0299241 1.38345e-20)
(1.2457 -0.00435438 0)
(0.997435 -0.00651634 2.65068e-21)
(0.73092 -0.0498111 3.89062e-20)
(0.7464 -0.00668224 5.74291e-20)
(0.878514 0.667976 1.3879e-20)
(1.06621 -0.0200337 2.97565e-20)