/*--------------------------------*- C++ -*----------------------------------*\
| =========                 |                                                 |
| \\      /  F ield         | OpenFOAM: The Open Source CFD Toolbox           |
|  \\    /   O peration     | Version:  v2012                                 |
|   \\  /    A nd           | Website:  www.openfoam.com                      |
|    \\/     M anipulation  |                                                 |
\*---------------------------------------------------------------------------*/
FoamFile
{
    version     2.0;
    format      ascii;
    class       volScalarField;
    location    "400";
    object      ddt0(epsilon);
}
// * * * * * * * * * * * * * * * * * * * * * * * * * * * * * * * * * * * * * //

dimensions      [0 2 -4 0 0 0 0];


internalField   nonuniform List<scalar> 
13308
(
2.00898e-08
-3.83408e-06
5.4526e-05
2.93619e-10
8.86093e-09
-4.12297e-10
6.84145e-08
-1.36183e-10
5.81823e-08
0.000497319
8.78829e-05
0.000282693
5.73578e-10
-5.20776e-11
8.56653e-09
0.000106119
-4.56381e-07
1.01127e-05
0.000656349
-0.00239189
1.13632e-08
-6.19363e-06
-4.98103e-05
4.86847e-09
0.000117704
-2.44484e-05
1.97712e-08
2.73973e-05
2.1511e-08
3.92286e-08
-4.6193e-05
2.80377e-08
-3.75982e-05
2.75359e-08
0.00339728
-2.51618e-07
6.72002e-08
-4.80875e-05
-1.14101e-09
8.05167e-05
-1.74721e-11
3.21023e-10
0.00228596
1.79626e-10
-1.45974e-09
3.24789e-05
1.68672e-09
4.68347e-10
6.42911e-09
3.71345e-05
1.40016e-10
7.23363e-10
5.13596e-05
-0.000451331
0.000148408
5.9429e-05
2.08516e-10
1.1075e-09
1.25682e-09
1.01844e-09
0.000298914
-6.85659e-05
9.57363e-10
-3.25532e-10
1.21277e-10
-3.8212e-05
-5.78102e-11
3.92369e-06
-9.99429e-11
1.16293e-06
-0.000209207
-1.38307e-09
6.78874e-08
3.17135e-08
-0.000417351
1.51674e-09
6.97284e-11
5.29907e-05
3.03983e-10
2.15515e-05
-1.59535e-09
1.1917e-10
1.18211e-09
4.32741e-09
-5.7606e-05
-9.36768e-12
0.000218078
-0.000933381
0.00018306
-0.0025462
-7.05586e-10
-1.03838e-10
2.36742e-08
1.30596e-08
6.77789e-12
5.41787e-10
4.3695e-10
1.57621e-05
-0.000389919
2.47533e-07
-7.62915e-10
8.29286e-11
-4.23351e-11
1.57401e-08
1.50898e-05
-3.02964e-05
4.55132e-05
-1.48997e-10
-7.77791e-06
-3.08555e-05
5.8165e-10
-2.58064e-08
-1.45763e-10
3.00852e-10
-2.27312e-09
0.00057169
6.78004e-06
0.000527085
2.37557e-08
2.69571e-09
1.1874e-08
1.38711e-08
-5.65109e-10
6.75048e-06
0.00012038
-0.000769306
-0.000237466
-0.000103367
1.5585e-07
0.000199427
-0.000383437
1.70682e-08
-2.25939e-10
7.42924e-10
4.8455e-08
5.26053e-06
9.89709e-11
8.6e-05
-1.42041e-07
4.78933e-10
1.69817e-05
5.98291e-10
2.38508e-10
-3.6842e-08
2.4393e-10
-8.29128e-08
1.35288e-05
-0.00242718
-1.46689e-09
-4.45091e-09
0.000228948
-9.93303e-11
6.60626e-05
0.000286751
6.51859e-06
-1.43036e-07
1.6341e-10
-2.49909e-10
-3.61638e-11
-0.000464208
0.000330294
7.12401e-10
1.92041e-10
-7.54501e-05
-9.36106e-08
1.29663e-06
3.18815e-06
-2.14982e-10
-5.04105e-07
5.13157e-09
5.27965e-10
0.000660473
-1.40748e-10
4.22011e-05
0.000149104
4.69453e-06
-1.15553e-05
3.62463e-05
3.08789e-08
3.34617e-11
0.000105413
1.46687e-05
-6.82213e-12
0.000875154
5.87461e-05
2.08212e-10
5.43452e-05
-8.24022e-05
4.48756e-08
0.00259886
0.00230393
-0.00227668
1.17376e-10
0.000265232
1.61307e-10
1.76128e-06
3.56418e-10
5.65699e-06
-0.00134577
6.42324e-11
9.83276e-05
4.03634e-05
0.000922107
4.60108e-08
0.000197521
-0.000774729
0.000116605
-0.00034618
0.003247
0.000137976
0.00357668
-4.98095e-07
2.72371e-09
1.25406e-05
-8.68581e-05
1.17358e-08
1.6479e-10
-0.00109257
-0.000721874
-0.000539299
-0.0024707
-6.12795e-11
-7.50001e-08
-2.96893e-11
1.86003e-08
0.000166662
-5.37327e-08
1.05797e-06
5.31196e-05
-0.000153844
8.86142e-05
5.63531e-09
5.65394e-05
-0.00017806
7.53867e-08
1.11155e-09
-7.26903e-05
1.55775e-05
-2.36518e-05
2.30656e-08
4.22534e-09
1.9094e-07
1.39958e-08
-5.77753e-11
-0.000272541
6.48174e-05
-6.47574e-07
-0.000668986
-4.81966e-11
0.000100863
-9.51954e-05
-3.67418e-05
5.97036e-11
-7.0022e-05
-0.00133029
8.55062e-09
-3.33702e-05
-1.19861e-10
-0.00494977
5.87884e-05
4.01839e-08
-0.000422309
1.94549e-09
-2.37682e-09
-2.0023e-08
1.37891e-08
9.56761e-05
-1.46203e-10
-0.0043827
9.40391e-05
0.000389862
1.24397e-08
-3.21928e-11
-1.57733e-07
2.90272e-10
1.96111e-10
-3.53521e-10
-0.000249601
8.71002e-09
-8.29473e-08
-5.02281e-06
2.01959e-10
0.000135086
8.51118e-09
-0.00010406
0.00215119
-2.09691e-09
5.01731e-08
-6.56834e-08
0.0015897
2.60486e-08
-4.69094e-11
0.000371326
2.12174e-05
2.46728e-10
0.00271512
3.99162e-05
2.80522e-08
-8.93455e-08
0.000152234
-3.58364e-05
-9.63959e-09
-2.4719e-05
-0.00116784
-0.00127326
1.43606e-09
2.00218e-08
3.49979e-05
-0.00218634
2.11288e-10
0.0007827
0.00320026
2.53608e-08
0.000663065
0.00300235
0.00013555
-4.62829e-11
1.91072e-10
1.96508e-11
0.0003177
5.01006e-11
7.3275e-12
0.000184224
5.7062e-11
0.000820014
5.48311e-09
8.17825e-09
-4.71697e-10
-1.75619e-09
-1.52214e-06
-2.96334e-05
1.33098e-10
-0.00174863
-4.90591e-10
2.38443e-11
-2.11852e-07
0.000101994
-4.64897e-10
-4.8675e-08
-0.00237286
5.93135e-09
-6.71021e-11
2.23182e-11
2.94139e-08
1.18151e-06
0.00135303
-1.14826e-07
-7.45382e-08
-9.22137e-10
1.04781e-08
2.45612e-09
-0.000255132
-0.00074068
-2.08648e-10
1.06838e-08
1.89998e-09
-1.80479e-05
2.26324e-09
-1.55718e-07
-0.00125137
0.00175717
5.38556e-08
6.07402e-09
8.07167e-05
1.65017e-07
-6.53709e-05
-3.03093e-10
-3.96747e-11
1.15335e-09
1.21122e-09
8.47811e-05
0.000961458
-0.000618201
1.18624e-10
1.70043e-09
-6.56495e-08
-7.12977e-05
-4.23377e-05
-1.88129e-09
-0.000149878
-1.60206e-09
-5.0536e-10
0.000493356
8.70326e-09
-1.25303e-10
4.62191e-06
-2.16237e-08
1.27031e-09
-4.246e-11
0.00110261
1.06953e-08
6.34889e-07
-0.000211346
0.000110013
0.000264008
2.88881e-08
-0.00073992
-1.99832e-10
1.9928e-07
-3.68042e-10
-0.00026749
5.72509e-11
9.35473e-08
-5.83232e-05
-7.75195e-11
0.00312091
1.42009e-10
-4.24104e-10
-0.000419586
5.45001e-07
-2.90654e-08
-4.4201e-06
3.58448e-05
-1.68294e-10
-3.73369e-11
2.25392e-05
-1.5328e-09
-7.7166e-11
1.43291e-09
-8.69188e-08
-1.04348e-07
1.79147e-09
6.0852e-09
-1.41001e-09
8.4995e-10
4.69063e-05
-0.00250988
1.61827e-10
-1.92682e-05
4.87929e-05
0.00209128
5.26756e-11
-0.000128361
-0.000436182
-1.04059e-09
3.95267e-11
-7.29399e-05
-4.67814e-11
2.86755e-08
7.63333e-05
-1.76014e-05
-6.04513e-05
2.37268e-05
2.20863e-09
-4.85269e-05
1.01572e-09
0.000837058
4.72972e-05
2.47069e-11
0.000123079
6.46752e-09
-0.000650707
1.27566e-05
-0.000156493
3.94073e-09
1.95025e-08
4.94191e-09
0.000348198
-4.19557e-05
6.55629e-08
-0.000490568
-7.40725e-05
-2.38706e-11
0.000303323
2.66196e-09
3.44962e-05
-4.02051e-10
-1.84607e-09
3.904e-10
8.13386e-05
-0.000123766
1.51042e-10
-4.03099e-05
-1.16079e-09
0.000678504
-4.79521e-05
-4.48389e-08
5.42976e-10
2.77845e-06
2.91085e-10
5.36413e-05
-5.31563e-10
4.72229e-05
-1.17998e-09
1.34507e-08
-1.30239e-09
4.19182e-09
-5.10816e-06
7.34819e-10
1.03078e-10
-1.75002e-10
2.25417e-08
-3.98614e-06
1.01553e-11
-7.03325e-11
-1.4829e-09
1.01807e-08
-0.000695402
-0.000234501
-0.000726974
0.000415743
3.94463e-05
0.00291983
6.27114e-05
5.37023e-10
-6.90315e-10
2.65664e-08
1.86368e-05
2.88251e-11
3.59341e-06
2.29508e-09
-0.000566421
-8.68956e-10
5.381e-10
4.18755e-09
6.5321e-09
1.62806e-08
9.88087e-11
-6.62939e-05
-4.85541e-05
0.00308439
-0.00112777
8.19379e-05
3.19526e-07
8.33743e-11
0.000484294
2.89223e-10
3.9089e-11
-0.000142342
-0.000686007
-2.83596e-09
8.76744e-09
-9.63236e-05
3.83337e-05
1.57782e-10
-9.18521e-10
3.79595e-05
-1.44915e-05
5.17031e-11
-0.000254122
5.77502e-11
-0.000187702
9.45658e-11
3.4992e-05
-1.62247e-09
0.000607457
-0.000207547
0.000823785
-1.3623e-12
-7.09257e-10
-8.76583e-05
0.000698446
-0.000272129
5.95227e-06
-2.94166e-05
1.13297e-05
-6.86763e-05
4.31438e-05
-0.000123052
-7.71867e-05
2.46777e-09
-6.93955e-11
-1.09531e-09
0.000444751
5.12146e-10
0.000377927
3.01697e-05
3.1083e-10
0.000116631
0.000210184
-0.000188044
-1.62959e-11
5.13232e-10
3.88295e-11
-0.000438789
2.85662e-08
-1.69753e-10
-2.88691e-10
-0.000476989
-4.33765e-11
0.000105344
-2.67837e-08
-2.21147e-09
1.34442e-08
-5.3101e-10
-1.30223e-11
-7.44964e-11
-9.26659e-09
1.98233e-09
1.53742e-10
-0.000836079
-6.09044e-11
-9.7233e-11
-4.03984e-11
-5.35822e-11
-4.05748e-05
-4.20561e-05
1.46793e-11
5.58819e-05
9.24799e-11
-8.19325e-11
-1.71659e-10
-1.03217e-08
-8.82245e-09
-2.00591e-09
7.53336e-09
-3.02171e-10
-0.00138628
4.29348e-10
-3.0518e-05
3.1256e-05
4.91737e-09
1.06773e-08
3.25981e-11
-0.00017422
-0.000505582
2.13314e-08
-7.12861e-11
-0.000277224
-6.00217e-07
8.68999e-09
-1.30491e-10
1.60375e-08
-0.000151713
-4.43497e-08
8.61957e-05
-1.30049e-09
3.54584e-11
2.84239e-08
7.75849e-05
2.02202e-08
-8.58287e-05
-3.56631e-05
7.0552e-05
0.000484594
-8.09107e-05
-9.45839e-09
-1.78395e-09
0.000148363
4.40636e-06
-7.38728e-09
-4.09643e-10
3.52882e-05
0.0031517
3.89681e-09
0.000186316
2.37069e-09
-1.30817e-11
-3.37049e-11
-0.000658155
-0.00145654
-3.76942e-11
2.81444e-05
-9.06553e-10
-0.000425661
-2.16276e-10
-9.86537e-12
-0.000368291
-8.63851e-05
3.01565e-08
-5.93066e-05
-0.000895499
7.00141e-09
-0.000114216
2.49315e-08
-0.000510122
4.5994e-05
9.53897e-11
9.25569e-05
-2.18485e-05
-0.00172473
9.99622e-10
-5.47999e-07
-5.60569e-11
-9.1098e-11
-1.62149e-05
-0.0015198
3.91716e-06
-7.4326e-05
0.00114057
3.74704e-09
-0.000248676
1.39868e-09
-5.73597e-11
-8.14522e-09
1.22204e-10
-2.36967e-05
-9.72855e-06
1.43897e-06
-0.00240611
-2.68911e-11
-0.00244801
-2.38351e-09
-0.000102805
0.00124753
-1.4262e-09
-3.62005e-10
-1.55677e-10
-3.90859e-10
-0.000388008
-7.58554e-10
0.000476141
0.000613404
3.39182e-08
5.58962e-09
4.66894e-10
0.00052283
-0.000105563
0.00113346
2.26707e-09
1.24457e-10
1.67241e-10
9.51344e-05
5.31342e-11
-2.87707e-08
1.38668e-08
-9.76215e-10
1.40539e-10
-2.63218e-10
-7.05942e-11
1.20325e-09
6.53142e-10
1.22002e-06
0.00315429
7.52321e-06
3.24304e-12
-0.000308376
2.66933e-05
9.17077e-09
-8.06401e-05
-6.13084e-08
-6.6045e-10
-2.72382e-07
-1.00904e-09
6.47376e-05
-7.91925e-11
0.00159405
4.94372e-08
-0.000512866
4.84692e-10
1.8089e-10
-0.000288027
-5.85826e-10
-0.000103246
2.93109e-10
-1.56918e-09
0.00138838
1.34154e-09
2.43098e-10
6.49507e-08
6.32708e-08
8.78404e-05
-8.49076e-05
-0.000145217
-0.00534956
3.14586e-11
-7.44618e-11
1.16097e-08
0.00106336
1.41426e-07
1.18872e-09
2.32391e-10
-1.67322e-07
-4.5129e-05
-4.72308e-12
-8.71064e-12
-9.29767e-05
1.1193e-05
2.58574e-08
-6.09688e-10
3.55135e-11
2.53548e-10
-2.53085e-10
2.72386e-10
5.129e-11
-8.25012e-10
1.67634e-09
-8.71236e-05
4.6084e-11
-5.20432e-08
-0.00135564
0.000536867
-9.35217e-05
-6.3753e-11
4.344e-10
-0.00251568
-0.00124312
-0.000137039
-2.34843e-07
3.27745e-05
0.00173552
1.61184e-09
-3.02856e-05
-6.65259e-10
0.000250811
-5.03733e-11
0.000104038
-1.89441e-10
1.33867e-08
2.10317e-05
-0.000149907
-4.16041e-11
-4.65343e-11
7.99393e-10
1.15573e-10
2.66348e-05
0.000213032
-0.00136996
-7.305e-09
4.72102e-10
0.000225394
2.01278e-09
2.34002e-10
-0.000155294
-0.000235753
0.00107752
3.84736e-05
7.71214e-05
-2.71969e-10
3.93062e-06
-0.000494888
9.29669e-11
1.78697e-09
-1.6235e-05
3.65102e-09
-1.29347e-09
-0.00133531
3.94609e-05
-2.06994e-10
-7.86239e-05
8.79752e-11
1.37589e-08
-0.000241508
8.76136e-05
-5.9772e-06
-4.44769e-08
-8.50124e-12
3.29093e-09
2.3757e-10
-0.000237662
0.000105889
1.61376e-09
0.00339149
0.000170718
-2.46739e-08
4.38778e-11
-1.30333e-09
0.000118105
-2.69716e-10
-2.16175e-08
-3.25352e-05
-0.000109933
-6.3302e-10
-0.0012703
-0.000387428
-1.06093e-05
0.00020483
-4.60092e-05
2.96575e-10
-5.777e-11
-9.92192e-10
1.39785e-08
-6.45566e-06
1.15117e-05
-4.15262e-08
-1.44774e-07
0.00101481
-2.31721e-05
9.33545e-05
-3.07992e-12
-2.34219e-05
4.11805e-10
-3.30258e-05
6.26429e-08
8.15447e-10
-9.95214e-05
-6.26337e-11
0.00064943
0.0019356
1.40101e-08
6.42916e-05
0.000279868
-0.00155608
0.00157121
1.61609e-08
-2.12472e-08
3.46809e-10
4.04522e-05
-1.19836e-10
-0.00120429
1.5558e-09
2.73639e-11
-4.4876e-12
5.89244e-09
4.80716e-05
-4.9852e-11
-0.000264306
3.25329e-05
0.000751448
1.52157e-08
8.88241e-11
-6.34516e-05
1.39585e-09
1.48405e-09
-9.94078e-06
9.19647e-11
1.30824e-10
-1.55076e-07
8.70663e-10
4.63676e-11
-2.64805e-05
-9.49726e-05
4.46435e-05
-0.0043497
-6.23657e-11
-3.27388e-10
3.40224e-08
2.86557e-05
-1.26014e-05
-2.29901e-10
-0.00131547
-9.19977e-10
9.98452e-10
-1.74169e-05
-9.36442e-10
6.78095e-10
7.22597e-09
-1.06765e-10
1.45778e-10
3.18865e-09
2.84722e-05
-0.00144285
-6.87683e-11
-0.000571435
0.000451406
-2.13156e-07
-4.64636e-09
8.02538e-10
-1.3165e-10
-6.80491e-10
-0.000173873
4.59164e-07
7.12198e-05
-8.5067e-05
-0.000266241
1.36142e-09
2.86513e-09
0.000697348
1.37715e-09
9.27561e-10
-6.9357e-10
-0.000182681
-2.70836e-06
3.32015e-09
5.17951e-06
-0.000118382
4.94343e-11
2.25298e-09
3.308e-10
-1.64413e-08
-5.70462e-06
-0.000228439
2.73922e-09
6.70289e-06
-4.0695e-09
5.58507e-11
3.85096e-05
7.13868e-10
0.00236955
-1.49565e-08
-2.09863e-09
4.94379e-09
-5.21194e-10
7.81798e-09
-1.42172e-10
-1.68201e-10
-0.000566369
1.22458e-10
-0.000420486
4.8155e-09
-7.10486e-09
-0.000127656
-0.000323257
5.85317e-10
4.0659e-11
1.7713e-09
-0.000178282
-5.21986e-10
-6.16582e-10
-0.000509217
-5.85747e-05
8.56662e-10
-3.6815e-10
3.29893e-05
-5.26746e-10
-5.68005e-11
-0.000131958
0.000935154
-0.000400756
3.91953e-10
-3.43089e-08
1.65526e-10
1.78979e-09
0.000163205
9.30566e-11
1.60445e-10
-2.78893e-08
-7.4243e-05
7.88003e-10
-1.90847e-10
-1.59333e-09
-7.09571e-09
4.9828e-05
-4.72805e-10
4.27317e-05
9.19246e-09
-0.000337325
-9.9262e-05
-1.74471e-10
-5.29097e-05
-1.83242e-09
-0.000596646
4.45032e-05
4.18065e-05
4.24842e-11
0.000115239
-2.56239e-08
-6.44901e-08
5.08312e-09
-9.0359e-09
-3.15917e-05
1.18736e-10
-1.5837e-10
2.50845e-11
1.0257e-07
-5.34211e-05
-5.65274e-05
-5.14688e-05
-0.000528768
0.00010554
6.70992e-11
6.06515e-05
-3.16663e-10
-4.69174e-10
3.5474e-11
2.64422e-10
-0.00125171
0.00190567
-2.13716e-10
-8.05356e-06
-4.55344e-05
-0.000781427
-0.00016414
0.000722824
-8.2051e-11
-1.53089e-10
1.16297e-08
-3.22291e-11
-1.19992e-10
-5.36792e-11
-2.10259e-05
-1.20343e-08
-0.000155146
-7.01565e-08
-1.65804e-08
9.10587e-05
-5.24928e-11
-1.74867e-05
-1.34187e-09
1.20998e-08
4.48389e-05
-2.29577e-05
1.63984e-09
-0.00281467
8.83902e-05
1.53034e-05
-6.02174e-07
3.71241e-10
-2.30913e-05
-2.71776e-08
6.42999e-05
2.7015e-10
2.0401e-11
-4.77337e-10
0.000105262
-0.00132592
0.000117761
0.000421197
7.43417e-05
-3.95984e-05
1.6148e-12
0.00070971
-3.97326e-08
-2.6591e-10
2.73599e-05
-1.31829e-05
4.33928e-11
0.00125747
-1.63453e-07
-3.01417e-11
-0.000118476
1.48666e-10
-1.00563e-10
-1.14709e-05
2.23185e-09
2.26256e-08
-0.000140568
1.5796e-08
2.40305e-05
-1.06757e-10
-6.72422e-11
1.15154e-10
2.50482e-06
7.25925e-10
-6.22539e-08
-7.8154e-07
-4.6914e-10
5.64955e-11
2.70173e-09
0.000366658
2.48014e-11
0.00116461
2.302e-09
4.78005e-08
7.51479e-06
7.42656e-10
-5.4008e-05
-8.39836e-11
-7.76649e-09
-1.30548e-05
-3.72024e-10
8.30364e-07
-2.83906e-05
3.68634e-05
0.000650754
-1.24386e-08
6.58026e-05
4.08116e-10
-5.01238e-05
2.89872e-07
1.37893e-08
-0.000769847
5.95321e-08
0.000110806
-4.37294e-05
-7.41815e-11
6.25922e-08
1.56311e-08
-1.74124e-10
4.10286e-09
0.000125873
3.62608e-12
6.09823e-10
2.02594e-09
2.53875e-10
-8.1028e-11
-1.17256e-11
-4.78816e-10
1.02511e-09
-6.85967e-05
1.67319e-08
1.24094e-09
0.00116493
-1.81432e-05
-0.000210004
1.79997e-06
0.000220477
1.44121e-10
-0.000315576
2.90865e-11
-5.24386e-05
3.19609e-07
-4.2719e-06
3.80449e-05
0.000659217
0.000928275
-3.568e-10
-2.10975e-09
1.08798e-09
5.59929e-10
-1.42411e-08
-3.39356e-06
1.67992e-10
-8.57546e-07
-4.75588e-07
-0.00175459
6.05419e-08
6.41844e-05
2.79665e-05
-3.38643e-07
-1.26968e-07
-5.1292e-11
-1.41636e-06
-1.85558e-09
2.33498e-09
-0.000122136
6.5462e-09
-8.53257e-10
4.95765e-10
-1.73075e-11
4.18059e-08
-0.000326329
-0.00329455
-2.50454e-08
-3.08329e-09
1.00099e-10
-5.99944e-10
-6.22037e-10
-8.03261e-06
6.5231e-11
3.1533e-11
-1.87802e-09
-0.000828004
-2.46338e-05
5.80759e-11
1.04168e-10
1.66731e-08
-0.000281477
-5.43574e-10
1.73499e-09
5.08184e-09
-0.000608689
-6.8282e-05
-2.52986e-05
4.3694e-09
6.8098e-06
3.51864e-09
-0.000152637
-1.94364e-08
-1.98692e-05
-2.3311e-10
-5.55855e-05
9.03059e-06
2.94911e-06
-5.55117e-10
-0.000749793
1.23814e-08
-0.00119851
-3.05719e-05
-0.00101583
0.00138818
-2.97354e-05
-3.55627e-08
9.74375e-09
8.55681e-05
-1.33609e-05
5.45337e-05
-4.0931e-08
2.33928e-05
-4.92529e-05
-3.41011e-05
-0.000920031
7.31777e-05
-1.78465e-09
-9.53438e-06
4.81749e-08
2.66158e-05
5.22536e-11
7.82583e-07
-0.000117013
3.21109e-08
-0.000403936
2.0114e-08
2.64496e-06
-6.21881e-09
4.12587e-05
-0.000512438
-4.40931e-09
-0.00139514
-5.98959e-05
-1.20179e-09
-0.000238172
-1.64064e-10
-0.000635837
8.46132e-07
-1.22299e-09
0.0020577
-2.1161e-05
3.3429e-10
-5.31752e-05
-0.000180984
1.73644e-10
-0.00038147
-1.44475e-05
-0.00015643
-8.7062e-06
-8.142e-10
-9.44306e-11
0.000210853
-1.71329e-10
-0.00017269
-0.000176176
-1.20886e-05
-1.42398e-05
2.00547e-09
1.0059e-08
5.8979e-09
0.000129722
0.000223128
8.05162e-05
1.68586e-08
-3.19908e-10
0.000685
-0.000437293
7.4502e-09
-9.61713e-06
-5.38754e-11
-0.00153063
-4.57874e-10
-1.89584e-10
-4.23397e-08
3.44215e-10
-2.10172e-09
2.1917e-07
5.11981e-05
5.05664e-05
1.29211e-10
1.39148e-10
-4.71409e-05
-0.00141195
9.42665e-08
-6.81915e-09
-0.000155434
4.76501e-11
6.15257e-05
-0.00057882
-0.000428136
-9.41533e-10
-1.34992e-09
-0.000199125
1.84605e-05
-4.92296e-06
-3.14446e-10
5.3065e-06
-6.61482e-11
9.37596e-05
5.09489e-05
-2.83509e-10
-0.000775761
-0.000256535
-1.26371e-08
7.72137e-09
-1.77256e-10
6.61287e-10
0.000239845
-2.09368e-08
-3.11467e-05
1.39821e-10
1.93716e-10
-3.92054e-07
-4.63558e-10
-1.1213e-07
-2.12278e-05
-5.14444e-10
-0.000320461
-2.80857e-06
1.35196e-10
7.10312e-06
-3.02689e-05
-4.88386e-10
-4.6421e-05
-0.000356081
-6.15349e-05
-4.12316e-10
-0.000134504
1.02271e-09
-3.82867e-11
2.25509e-06
-0.00148274
-7.77407e-05
1.93511e-10
4.9764e-07
-3.70268e-10
-4.84843e-07
-2.50288e-10
2.10771e-05
-0.00015733
6.81862e-05
-1.41913e-08
-3.09237e-08
-2.56049e-09
0.000390372
-5.76749e-05
7.36348e-06
0.0026149
9.93413e-10
-8.61496e-11
-4.17334e-11
1.45078e-08
-1.12823e-08
-4.24222e-08
-0.000103908
3.50773e-11
-0.000245153
-3.56691e-05
-1.89534e-08
0.00046338
-9.68966e-10
9.0391e-11
-6.2538e-05
-6.4794e-05
-3.01462e-10
-7.03006e-11
-9.91562e-08
9.74615e-08
-7.46523e-07
3.12929e-05
-6.88859e-05
5.7772e-10
4.62343e-06
6.34697e-05
7.20481e-10
-4.75569e-09
6.78896e-05
9.91362e-09
1.08879e-10
-3.19773e-09
0.000896865
1.87917e-06
-5.8607e-11
-0.00521369
6.94559e-10
7.61869e-10
0.000796327
-0.000120011
-5.80714e-05
2.18042e-05
-1.42879e-09
1.51174e-06
1.28036e-05
-8.05131e-10
-7.56763e-05
8.64216e-08
4.32038e-09
7.15427e-09
2.02001e-10
-1.84159e-09
-0.000868564
6.15756e-10
-0.000750342
1.05998e-06
1.42899e-06
-8.90366e-05
1.72327e-10
-0.000308949
4.47247e-09
-3.22332e-05
0.00252041
3.23306e-06
1.08323e-08
-6.01637e-10
-0.000686218
-6.72914e-10
-5.02368e-05
0.000180156
-2.3879e-09
-0.000141742
-6.31527e-11
0.0014422
2.66806e-10
1.59887e-08
1.1367e-09
6.79404e-07
1.95274e-10
0.00109258
-9.55002e-11
0.00058091
1.56194e-09
-7.87555e-05
-0.000256626
-8.76186e-08
1.6206e-08
9.76345e-08
-4.25075e-05
3.95345e-05
-4.30185e-10
-0.000243057
3.73135e-07
-4.03585e-10
4.00355e-05
1.53515e-11
1.42301e-09
-0.000433741
8.67224e-05
1.32626e-06
2.08698e-10
-0.000312656
-0.00067982
-0.000247465
2.84264e-10
-5.80152e-10
-0.000139144
4.82822e-05
1.13054e-08
1.11517e-05
-9.86965e-09
2.04419e-05
1.03096e-09
-3.35163e-10
0.000440234
3.25694e-05
1.34592e-08
2.24682e-08
-4.24104e-10
9.05577e-09
4.7147e-12
2.12904e-08
0.000383992
-0.00252929
-2.2515e-08
1.23935e-10
-5.67437e-05
1.78999e-09
-8.81055e-09
3.86322e-10
0.00066745
-3.97133e-07
-5.2562e-05
3.83752e-09
1.20106e-10
1.36914e-11
-0.000104259
-0.00022585
-3.79792e-05
-5.4706e-09
-7.69135e-05
3.49967e-06
-0.000101988
1.37825e-08
-1.43371e-06
-5.74445e-10
1.04014e-10
2.33592e-10
-3.86226e-05
-4.99089e-10
1.18451e-07
0.00116742
0.000106014
-0.000844656
-0.000515993
1.03873e-10
0.000193055
-9.2365e-09
8.69749e-06
2.45424e-10
0.000111709
4.66764e-11
-1.77805e-09
7.62236e-05
0.000169722
-3.8182e-10
-1.72585e-11
1.19004e-10
1.78089e-06
2.31522e-08
0.000405628
-3.40318e-09
-0.000564439
-3.67675e-05
-5.87866e-05
0.000128477
7.27621e-10
-4.72954e-05
3.96184e-07
-1.88117e-09
-1.44271e-08
3.00245e-10
-7.75691e-11
-3.6945e-10
-2.33752e-10
-9.96288e-12
-8.55064e-10
1.76291e-09
3.1972e-10
-0.000159713
0.00013665
3.01884e-05
2.06929e-09
-1.50013e-09
0.000301124
-5.22273e-10
8.39511e-05
-9.8306e-11
-3.41144e-05
-0.00194909
-0.000367701
-8.62443e-09
3.35251e-07
9.34024e-07
2.29466e-08
3.63227e-06
1.17705e-08
8.01824e-05
-1.53622e-05
2.9596e-05
4.48022e-10
-0.00160733
3.05415e-10
1.60272e-10
1.81052e-08
-6.28807e-10
2.87482e-09
-1.43956e-09
1.54645e-07
-1.94389e-10
9.95514e-11
-0.000136231
7.08711e-10
8.66637e-09
-8.42528e-05
2.70803e-11
-9.54666e-06
1.03842e-09
8.56696e-10
-1.62109e-08
1.67201e-06
4.4724e-11
-0.000274198
-0.00163616
-6.85371e-11
-4.8848e-05
-4.04151e-09
1.7493e-05
-2.95215e-07
6.86623e-10
-7.54357e-11
8.24128e-10
-2.63933e-10
1.19546e-11
-7.30136e-10
2.86038e-11
1.64007e-08
4.0241e-10
0.00292533
6.87396e-05
1.88685e-06
5.04219e-10
3.0714e-09
-5.40503e-11
-8.36178e-06
-0.000125711
0.000299108
-6.27729e-06
1.77584e-10
6.01121e-05
-5.40472e-05
-1.3256e-09
-0.000512063
-0.000209338
9.35949e-10
-1.62844e-10
-0.000259849
-5.75979e-10
-1.11891e-11
-6.434e-09
-0.000255804
-3.66686e-05
2.14983e-05
0.00019871
3.78782e-10
9.93387e-05
-1.60463e-05
-1.2762e-08
1.41629e-10
9.35433e-10
4.63398e-10
2.38097e-08
0.00101204
-9.91071e-11
-5.25884e-05
-9.37959e-05
-0.000312353
0.000104778
1.64169e-09
-0.000482804
2.93457e-09
-0.000109329
9.37617e-05
-1.58735e-10
6.48597e-10
-3.58625e-05
-8.17952e-09
0.000150539
-3.35634e-10
-1.12458e-05
4.53515e-07
-0.00245341
-7.10719e-11
-5.09116e-05
-0.000581156
-0.00164277
-7.16237e-09
-0.000423298
0.000482959
-0.000214786
0.000925105
-2.09366e-08
-0.000393252
2.57478e-05
6.45669e-05
-5.48064e-05
-1.39704e-05
9.14981e-06
-4.29061e-05
0.000389777
-1.79128e-05
6.20561e-05
1.19713e-10
-2.4612e-06
-0.000168399
-0.000207706
6.96595e-08
1.43692e-10
-0.00015488
-4.34139e-08
0.00224775
-1.1061e-05
0.000935177
6.38964e-05
-0.000671189
-3.79625e-10
-3.55784e-10
-0.000108702
-0.000617194
6.23397e-05
-4.18635e-09
0.000747709
-9.39792e-10
-0.00108164
1.4515e-06
1.24859e-05
-3.71126e-06
-3.25331e-10
-0.0016758
3.54173e-10
-0.000293178
-2.26528e-06
3.12851e-10
-0.000104596
1.03396e-10
2.79997e-05
-0.00151936
0.000726531
0.000743909
-1.59483e-10
3.28496e-10
-6.02012e-06
-4.76125e-05
1.35463e-10
-0.0015087
-2.35088e-05
1.03278e-09
-7.24907e-05
-4.01702e-11
-2.63961e-11
3.29163e-09
0.000469529
1.33308e-10
0.000479634
-9.14883e-10
1.8293e-10
-0.000644715
-2.88095e-05
1.26751e-10
0.00107294
0.00406532
-0.000529255
2.60121e-05
-1.4137e-10
0.00337846
-5.49632e-11
1.67218e-08
-0.00014862
1.15402e-09
0.000362604
1.76372e-10
-6.95959e-05
1.3901e-08
0.00109385
-0.000107503
-0.000630086
3.63449e-05
3.73356e-06
-0.00123157
-0.00143221
2.53772e-08
-0.000129779
-1.8087e-10
7.81557e-05
-9.21743e-05
0.000735356
1.7492e-10
7.0006e-11
-4.92918e-11
-0.000696958
2.97785e-07
-9.63419e-10
6.13125e-05
-0.000113469
-0.0047925
5.34106e-05
6.65378e-08
1.9833e-06
4.55712e-06
1.84514e-10
6.51307e-05
4.05774e-05
-1.75239e-09
-0.000180918
-3.87571e-10
-1.92885e-10
-4.41784e-09
-1.66949e-05
1.00075e-05
-1.8983e-10
-1.6706e-09
-1.36184e-10
4.59197e-06
-0.00140045
1.24373e-05
0.000751552
-0.000188196
0.00258734
-2.13762e-06
6.57839e-07
0.000480321
3.13264e-06
4.32717e-11
-1.33839e-11
4.61768e-08
1.57511e-11
-0.000541583
-6.30996e-05
5.80198e-05
-1.10477e-10
-7.45513e-09
-3.47327e-10
-1.20074e-07
4.0421e-08
-2.26074e-05
2.21432e-05
1.58693e-07
2.78703e-08
6.47684e-10
1.07488e-10
-7.83649e-10
9.02947e-07
-1.86229e-05
4.19899e-10
2.64263e-08
1.68347e-08
2.19642e-05
-0.000872245
-7.74584e-05
0.000163912
-3.01976e-09
-0.00153523
3.41067e-10
6.61246e-05
-2.98585e-05
1.21785e-09
-0.000132114
-0.000237615
6.6184e-07
-9.82887e-08
-8.436e-05
0.000648909
-1.38263e-09
5.90211e-05
-3.12991e-10
1.93047e-10
-1.24022e-05
-4.20776e-05
0.000635922
4.00715e-07
-0.00184839
1.12167e-07
4.91611e-05
-0.00010303
-5.93905e-11
-0.000109405
-3.06224e-08
7.60228e-06
6.65878e-05
7.63992e-11
0.00067965
7.09211e-09
2.84007e-05
-2.13295e-05
-6.25905e-05
1.19123e-11
4.15331e-08
0.00064557
-7.92898e-05
-0.000652286
-0.000720434
7.44117e-05
6.92262e-10
-0.000196286
2.07898e-07
-8.58049e-12
-2.57636e-10
-1.07944e-08
5.72874e-07
-5.4934e-06
-1.53112e-08
3.89493e-08
7.05426e-05
-1.85354e-10
0.000324771
-3.19046e-10
-0.000113908
5.23121e-10
-9.10014e-11
0.000343308
-8.32995e-10
0.000957389
2.01486e-10
1.21691e-10
-5.06881e-06
-1.99115e-10
-9.5091e-10
1.9619e-10
-1.50275e-05
-1.13333e-07
-3.67885e-08
7.54635e-05
-9.32155e-05
8.71385e-05
1.56061e-08
-3.02485e-10
-2.38534e-05
4.91093e-10
-1.35284e-07
-1.02026e-09
4.26755e-05
4.68088e-05
7.84601e-10
-1.71874e-08
-0.000180028
8.11441e-10
5.72325e-10
4.00504e-05
-6.02994e-07
1.98895e-08
-5.78562e-05
1.48026e-08
-0.000127929
-2.53336e-05
-6.55447e-11
6.5269e-10
-1.9074e-10
0.000995972
0.000608284
-1.76849e-05
0.000195629
-2.49387e-05
5.12894e-05
3.5207e-05
-0.000645105
-2.2785e-10
-6.49707e-05
-3.70663e-05
-3.75621e-10
-1.54737e-07
1.07637e-07
-4.53624e-10
-1.02131e-05
-4.06543e-05
-7.58626e-06
-9.47117e-05
4.23261e-10
1.59557e-08
0.000181405
-0.00071589
-2.07711e-08
0.00215319
-0.00014164
5.63611e-05
0.000179963
-9.23343e-05
1.64026e-05
0.000533355
-3.67425e-05
5.21517e-10
-4.27843e-05
7.45671e-08
7.62873e-10
-0.000558371
-1.73786e-10
-1.41089e-10
4.1684e-06
-1.89037e-10
-1.6496e-08
-0.00127428
-1.09937e-06
-1.23455e-10
-5.4078e-05
8.50725e-05
2.06011e-05
-3.75531e-09
4.32695e-07
6.71927e-10
5.22234e-09
0.000113584
0.000700797
-4.24029e-05
-1.4841e-09
8.44849e-05
-5.02519e-10
0.000335239
-5.13453e-11
9.4854e-09
4.51843e-10
-0.000365507
-2.3191e-10
1.78156e-08
-2.71156e-05
-1.22787e-10
3.8381e-06
2.86569e-05
5.72176e-05
0.000209102
3.11039e-10
-0.000107524
0.000162224
-0.000106171
3.68923e-10
-3.24275e-05
0.00170879
-7.15896e-05
-1.63605e-07
9.39827e-09
9.70509e-05
-0.000313702
2.78659e-05
3.59211e-08
-4.84313e-05
-2.13364e-10
0.000133799
-2.31118e-11
-0.000111256
1.33343e-10
-0.000170391
-4.32631e-05
6.57878e-05
2.17096e-06
-0.000289774
-9.65721e-10
1.74242e-06
7.0606e-09
9.2494e-05
6.28651e-10
-4.10933e-05
8.95738e-07
-2.20465e-05
0.00268289
7.97962e-05
0.00231844
-2.46484e-08
-7.34839e-05
-8.05926e-10
-1.6997e-05
3.25736e-09
-5.44188e-08
-0.00199068
-1.01609e-06
0.000862274
4.85749e-05
-1.88686e-05
0.00211858
-0.00203097
-1.36718e-05
-6.341e-05
-4.45572e-05
1.28737e-09
-6.02709e-10
-3.47752e-08
7.85605e-11
-2.96529e-09
-0.00157294
-0.000192916
1.9178e-05
5.30322e-11
-6.88779e-05
-6.95538e-06
5.07249e-09
3.09267e-05
0.000760474
-2.16626e-12
-0.000129807
1.44177e-08
0.000244976
4.37411e-09
0.000115902
-0.000292258
1.10476e-05
7.24443e-05
5.69499e-10
-0.000157476
-0.000123812
-0.000113621
0.00020328
0.000113778
-8.60232e-05
2.83809e-07
-4.69941e-06
-3.24016e-09
-1.14744e-05
8.42432e-11
-0.000326053
-4.16771e-10
-0.000176807
1.45579e-05
-6.07692e-09
-1.37212e-10
-4.23338e-08
7.16981e-08
4.93446e-10
0.00242669
-2.23538e-05
-1.56031e-10
-3.84738e-05
-4.51864e-05
-3.94817e-05
6.07282e-06
-3.7606e-05
-4.72933e-05
-0.00014398
-0.00049902
-5.38335e-05
-1.10537e-08
-0.000157
0.000315034
5.22254e-09
1.13042e-05
-7.75145e-05
9.47314e-08
2.94251e-05
2.90707e-08
5.34332e-10
-4.11705e-10
0.000151854
-0.000261546
1.71734e-08
2.34992e-06
7.07492e-05
-0.000781346
-7.15681e-05
-0.000246604
3.48798e-06
-7.23452e-05
2.00362e-06
-2.79633e-05
1.31452e-10
5.56959e-05
4.47661e-11
-0.000175854
-1.59896e-10
-6.34006e-06
1.84631e-05
-4.32887e-12
-0.000222557
-0.000748272
2.88124e-05
3.19422e-05
1.4088e-08
-0.000195376
8.32359e-05
-4.14354e-11
0.000523793
-5.70761e-05
5.15466e-10
6.07033e-05
-1.52037e-10
-1.69637e-05
-2.23683e-10
-2.54025e-10
1.55764e-10
-1.13892e-05
-0.000124539
0.000131736
0.000190563
-1.9239e-08
-7.75148e-05
-0.000155921
-4.62569e-10
2.62669e-09
3.95343e-06
-6.21499e-05
1.33095e-10
0.000252807
0.00138489
9.99739e-06
-0.000145774
-3.93745e-05
0.000463291
9.07853e-09
-2.83029e-05
-3.15242e-09
-8.36303e-05
2.88262e-10
1.91001e-09
3.20055e-05
-0.000862364
-7.54962e-08
-0.000132754
-1.36446e-10
1.47204e-11
-1.07916e-10
-6.38596e-10
3.40762e-05
-8.09588e-05
-2.98999e-10
1.56227e-06
0.000639739
-1.04285e-08
0.000284174
-0.000132736
1.45056e-10
-1.45176e-08
1.28699e-09
-6.21788e-05
-5.97244e-09
-2.73748e-08
-1.5172e-10
-3.91019e-10
1.34681e-07
-8.64749e-11
2.63817e-08
-3.73075e-05
3.86458e-05
3.09883e-09
1.2507e-08
-1.66514e-05
-5.17656e-05
4.47937e-05
-3.13041e-09
-0.000591879
-6.80376e-05
-7.74082e-11
-7.39117e-05
0.00206998
-8.81199e-05
-1.40405e-08
-4.48767e-05
-0.000132346
2.24641e-05
-1.69494e-08
3.14259e-08
-1.14245e-06
2.72205e-05
-1.75286e-05
-0.00014021
-0.000595087
-0.000699768
5.71952e-05
-0.000123816
-1.80763e-10
-0.000458729
-0.00204093
-7.98354e-05
-8.49564e-06
-9.62366e-05
-2.63335e-10
0.000635504
1.55828e-08
3.70866e-11
1.4865e-07
1.04117e-08
5.70038e-09
6.35459e-08
-0.000318257
-0.000159788
-0.000533667
-0.00061688
-5.08742e-05
2.07075e-05
0.00012695
-0.000157726
-9.23556e-05
-3.74864e-11
-3.95102e-05
3.63916e-09
0.00103498
-2.78396e-05
-7.81793e-05
-7.60942e-05
-6.49097e-05
-0.000691366
0.000646675
2.13284e-08
1.0714e-06
9.54226e-05
-0.00014122
-1.68935e-06
3.57436e-05
-0.000131893
5.68377e-05
0.000568048
3.09857e-06
-0.000487832
-7.31376e-05
1.91241e-07
-3.89273e-05
-1.37833e-09
-0.000165405
-4.35111e-10
-2.17957e-05
-3.47206e-05
-0.000169693
4.17949e-08
-3.56623e-11
4.32282e-05
-0.000207561
2.33192e-08
0.000532834
-1.91764e-08
2.22689e-10
0.000245829
-5.40645e-11
-5.27821e-10
-6.27197e-05
1.26408e-08
3.13122e-10
-0.000104964
0.000325129
-0.000151985
2.98409e-11
-0.00043693
7.97315e-05
7.66981e-11
4.77879e-07
1.09094e-09
-3.10214e-07
-2.95632e-08
-1.04576e-09
-3.48397e-08
-2.28592e-07
-0.000250027
-8.58053e-05
-0.000169065
-0.000243491
7.38548e-05
1.39896e-08
-0.000167286
-1.46647e-08
-0.000211932
6.36953e-10
-2.55785e-07
1.93561e-08
3.29805e-05
0.000591116
1.68828e-11
-2.65967e-05
2.31618e-08
0.00232902
-3.44731e-05
-1.44569e-10
4.01603e-05
-4.61147e-05
1.29771e-07