/*--------------------------------*- C++ -*----------------------------------*\
| =========                 |                                                 |
| \\      /  F ield         | OpenFOAM: The Open Source CFD Toolbox           |
|  \\    /   O peration     | Version:  v2012                                 |
|   \\  /    A nd           | Website:  www.openfoam.com                      |
|    \\/     M anipulation  |                                                 |
\*---------------------------------------------------------------------------*/
FoamFile
{
    version     2.0;
    format      ascii;
    class       surfaceScalarField;
    location    "400";
    object      ddtCorrDdt0(phi);
}
// * * * * * * * * * * * * * * * * * * * * * * * * * * * * * * * * * * * * * //

dimensions      [0 3 -2 0 0 0 0];
oriented        oriented;


internalField   nonuniform List<scalar> 
19737
(
-0.00239621
0.00388741
-0.0014912
-0.00381409
0.000190251
0.00362403
0.000289325
0.000233337
-0.000522716
-3.9357e-05
6.26544e-06
3.30929e-05
-0.000371353
0.000804212
-0.00043285
2.44234e-05
-1.0063e-05
-1.43595e-05
-0.00141085
-0.00170615
0.003117
0.00020096
2.72328e-05
-0.000228179
-0.0024134
0.000493477
0.00191991
0.0255222
-0.0415445
0.0160223
0.0522291
-0.0126638
-0.0395651
0.00190882
-0.00586823
2.06609e-05
3.76154e-06
-3.81822e-06
2.29366e-05
-1.91199e-05
-1.51694e-05
1.99449e-05
-4.7709e-06
-0.000768364
0.000460708
0.00030773
0.00555141
-0.00304147
-0.00250994
-2.64804e-05
-0.0167322
-0.0511806
0.0679127
-0.00435783
0.016235
-0.0118769
0.000911941
0.00193963
-0.00285155
-0.000132101
0.00160092
-0.00146883
0.00232414
-0.0012868
-0.00103739
-0.000341209
-0.000325543
0.000666763
-0.000564102
-0.000204243
0.00102168
-0.000303605
-0.000718117
0.000123676
0.000936073
-0.00105976
0.0436696
0.00855958
0.00101416
-0.000890489
0.00356287
-0.00271752
-0.000845356
-0.00139816
0.00479767
-0.00339992
0.00139048
-0.00235368
0.000963207
-0.00133263
-0.000495767
0.0018283
0.000483128
-0.00132932
0.000846204
-0.0386055
-0.0142345
0.05284
0.00316857
0.00238284
-0.00246622
0.00105536
0.00105073
0.00127337
-0.000746901
0.00025947
0.000487422
0.000363355
-0.00063642
0.000273068
4.78496e-05
-2.45059e-05
-2.33459e-05
0.000151736
-8.28151e-05
-6.89212e-05
0.00821746
0.051214
-0.0594316
-1.99434e-05
-2.51639e-06
2.24558e-05
0.000765137
-0.000195342
-0.000569796
0.00439341
-0.00310292
-0.00129073
-1.74796e-05
2.3135e-06
-3.93565e-05
0.00210405
-0.00302222
0.000918176
-0.000215258
0.000386003
-0.000170752
1.15644e-05
-1.37924e-05
2.22783e-06
0.000397113
-0.000572911
0.000175794
-0.00168539
0.00151217
0.00017326
-0.0158956
0.0074204
0.00847539
8.46939e-05
-9.63607e-05
1.16648e-05
5.84331e-06
0.000110199
-0.000116023
-8.39571e-06
-1.15465e-05
-0.000532657
0.000739599
-0.000206949
-0.000737219
0.00032964
0.000407573
-9.00971e-05
-0.000647117
0.0277432
-0.0300554
0.00231221
0.00161127
-0.00100531
-0.000605966
-0.000620892
8.82294e-05
4.44517e-05
2.82117e-05
-7.26644e-05
7.81474e-06
-6.30353e-06
-1.50996e-06
0.000118285
-0.00145093
-3.73216e-05
1.88715e-05
1.84555e-05
0.00310044
0.00129289
-7.57092e-06
-2.53043e-05
3.28786e-05
-0.00656724
-0.00217941
0.00874662
0.00458956
-0.00150343
-0.00308584
-0.000546123
-0.00020078
-0.000747717
-0.00226188
0.0030096
0.00313091
-0.00174043
-0.00408972
0.00591827
-0.00182856
-0.000714435
0.000662451
5.19819e-05
7.44941e-05
2.99811e-05
-0.000104475
-9.46493e-05
0.000103458
-8.78265e-06
4.84216e-05
-0.00016704
0.000118624
0.0158048
-0.0101774
-0.00562745
0.000360436
-0.000584526
0.000224087
-7.42942e-05
0.000180679
-0.000106384
-0.00012138
-0.000593057
0.000349662
0.00031987
-0.000669516
0.00629394
-0.00184863
-0.00444529
2.48287e-06
0.00019848
2.02051e-05
3.21816e-05
-5.23847e-05
-0.00885641
0.0175332
-0.0086766
-0.0260193
-0.00421735
0.0302366
0.00705785
-0.0114156
-0.000181961
-6.21331e-05
0.000244101
5.03459e-05
-2.25832e-05
-2.77578e-05
0.000324262
0.00101074
-0.00133499
0.00114821
0.00222256
-0.00337076
-5.28922e-07
1.20937e-05
0.00214586
-0.000844112
-0.00130175
8.61721e-05
6.5563e-05
0.00535562
0.0104492
-0.00118639
-0.00333497
0.00452158
0.00283756
-0.0094048
0.000113679
-0.000295636
-4.40946e-05
2.59923e-05
1.81011e-05
-1.19266e-05
1.68262e-05
-4.89803e-06
-0.00223494
0.00338315
-0.000370209
-0.0346757
0.0350458
-0.00392128
0.00252313
-0.000241177
0.00053046
-4.03259e-05
3.27565e-05
-0.000852231
0.000241754
0.000610492
0.00025058
0.000771075
-0.000256345
6.73032e-05
0.000189041
0.000561775
-0.000896386
0.000334605
0.00240812
0.00188835
-0.00429645
-7.46999e-05
0.000123125
-0.00205829
0.00446642
0.0520482
-0.0687805
-0.00252241
-0.000580733
0.0354531
0.0530388
-0.0884921
0.00126033
-0.000658245
-0.000305839
0.000964086
0.000794899
-4.82979e-05
-0.000746603
-0.00218631
0.00448632
-0.00230003
0.000324409
-0.000124454
-0.000199955
0.0110323
-0.0115866
0.000554323
0.0291675
-0.0470628
0.0178954
-0.01507
0.0212494
-0.00617935
-0.00832589
0.00461946
0.00370642
-0.00275859
-0.00556729
-0.00395957
0.00321185
-0.000291277
0.000469014
-0.000177742
0.00209301
-0.00327923
-0.00660462
0.00689195
-0.00028732
7.78394e-05
-3.33885e-05
0.00155894
0.000586921
-0.00232786
0.000544846
0.001783
0.00834608
0.0026862
3.3481e-05
-4.95644e-05
1.60841e-05
0.039758
-0.0105905
0.016956
-0.00961403
-0.0073419
0.00013226
0.000128039
5.69419e-05
-0.000184985
-3.97088e-05
-0.000216635
5.93569e-07
-6.24644e-05
6.18656e-05
0.00303981
0.00115719
-0.00419699
3.50305e-05
-0.000263548
0.000228556
0.00831958
0.00171456
-0.0100341
0.00690069
-0.0132972
0.00639652
-0.00589528
0.0129532
0.000483178
-0.000122742
0.00833774
-0.00237258
-0.00596515
0.000147848
-0.000127649
2.20621e-05
3.87797e-06
-2.59376e-05
0.00621395
-0.0281894
0.0219756
0.0475854
-0.0198422
0.00267945
-0.00100125
-0.00167825
0.0158372
-0.00380159
-0.0120356
1.59578e-05
-2.09278e-05
4.97195e-06
-0.000176436
0.000225487
-4.90492e-05
2.92437e-05
1.86036e-05
-0.0551837
0.0641237
-0.00894013
-0.00858452
0.0341067
-0.000223781
5.42287e-05
-5.36371e-05
0.00106841
0.000542849
0.00181955
0.0140177
0.0132749
0.000737367
-0.0140123
-0.00143271
0.00130059
5.58468e-05
-0.000232282
-0.000449739
-0.000402482
0.000453056
-0.000168765
-0.00028429
-0.000209759
0.000170051
0.0214377
0.07521
-0.0966478
2.72412e-05
-5.17754e-06
0.000393774
-0.000324272
-6.94367e-05
7.25566e-05
1.21401e-05
0.00151852
-0.000800338
-0.000718167
1.86029e-05
0.00158232
-0.000475044
0.000259756
0.00113489
0.00720285
7.7027e-06
-7.94613e-06
2.43904e-07
0.00847099
0.0217132
0.00199764
-0.00116588
-0.00083173
8.00722e-06
2.48149e-05
-3.28168e-05
-0.0208567
-0.0206879
0.00120718
-0.00144435
0.000237197
-5.32188e-05
-9.1205e-05
0.000144424
-0.000129596
0.000135448
0.00162788
0.00316978
0.00209394
0.00146892
0.0490729
-0.0323164
-0.0167565
0.0319632
0.0171097
0.00724912
0.0089859
-0.000300244
0.000335222
0.00212931
-0.000220316
-0.000177576
-9.97798e-05
0.000277387
0.001201
0.000317525
-1.5458e-05
-0.000194301
0.00881959
-0.00191889
0.00640221
0.00296201
-0.00936419
-0.000129555
4.67398e-05
0.000495652
-0.000984525
0.000488901
-0.000540982
-0.00114438
0.0116795
-0.0273599
0.0156807
-0.00132549
-0.00100237
-0.000562804
0.000271522
-0.00335123
0.00109172
0.00225969
0.000600197
-0.000415625
-0.00018453
-0.00593356
0.00184381
-0.0590797
0.0267633
6.73781e-05
5.18274e-06
-0.0335068
-0.0255728
-0.00643679
0.0111812
-0.00474444
0.000319671
-0.00047879
0.000159118
0.000181483
-5.34333e-05
0.000744376
-0.000919553
0.000175098
-0.00358546
-0.0010713
0.00465675
1.92999e-05
-3.3415e-06
-0.0155078
0.00665119
-0.00648931
-0.0486943
0.00415551
0.00176276
0.0443774
-0.000707803
3.42596e-05
-1.62379e-05
-1.80181e-05
0.0121505
-0.0103309
-8.04484e-05
6.74671e-05
1.29805e-05
-0.00498635
0.00280003
0.0011162
-0.000802656
-0.000313522
0.007034
-0.00628011
-0.000753873
0.0268307
-0.027201
-0.000111745
1.71185e-05
-0.00208532
-0.00126508
0.000501915
-0.000382622
-0.000119227
-0.00646577
0.00529595
0.00116983
-0.000241718
0.00353535
-0.00301635
-0.00180102
0.00481737
0.000414639
-0.000150869
-0.00026377
-0.00233779
0.00287574
-0.000537966
0.0132973
0.0426963
0.00121111
0.00146842
-0.00550941
-0.000956352
0.000766079
-0.000416416
0.00266048
-0.00567684
0.00313451
-1.44704e-05
1.63857e-05
-1.91547e-06
0.00669999
-0.00143711
0.00128983
0.000147202
-0.0134215
0.00698469
-0.00925162
0.0105667
-0.00131529
-2.53728e-05
-5.50754e-05
-0.00032213
0.00152935
-0.000307367
0.00105168
-0.00106548
-0.000545772
0.00161114
-5.04638e-05
2.4997e-05
2.54642e-05
-0.0014187
0.00041337
0.00107445
-0.00835544
0.007281
-0.00510573
0.00152027
-0.0194726
0.0256866
2.52391e-05
9.02247e-06
-0.000727186
0.0161185
-0.0153916
-1.54378e-06
-0.00026807
-0.00244945
-0.00390736
-0.00534447
0.000113507
0.000301131
0.00109911
-0.000241808
-0.000857305
-0.00020438
0.0123549
-0.00380435
-0.00280025
-0.0197104
0.0218397
-4.52296e-05
7.34407e-05
-0.00205755
0.0464349
0.000866697
0.000244451
-0.00111116
0.00691482
-0.0150788
0.00816396
0.000863196
-6.82961e-05
-1.53758e-05
1.1557e-05
0.0131544
0.000170243
-3.43933e-05
-0.000135849
-7.51423e-07
8.56857e-06
-0.00255335
0.000583136
0.00197021
0.0249586
-0.00578004
-0.0191785
0.000234109
-0.00060546
-0.00690069
0.00928709
-0.00238638
-0.000147431
0.00134843
1.34889e-06
-3.84987e-05
3.71494e-05
-0.0250921
-0.000927246
-0.00320876
-0.00189697
0.00458921
-0.00296156
0.00799558
-0.0246313
0.0166358
0.0008296
0.000269508
-0.00419723
-0.0126142
0.00871995
0.00389431
-0.000420291
-0.014532
0.014952
0.000488748
0.00105786
-0.00154659
6.03135e-05
-8.53376e-05
2.50095e-05
0.00164414
-0.000717734
-0.000926371
0.00145666
-0.000506123
0.000367396
0.000138727
0.007866
0.0400597
-0.0479257
-0.000121479
8.21678e-05
3.93733e-05
-0.00390847
0.00136164
0.00254681
0.00372479
-0.0106254
0.000430509
0.000685719
-0.00156127
-0.00049668
-0.00450279
0.00499948
-0.000802203
0.00049857
-0.00318747
0.00971727
-0.00652986
0.00547917
-0.00866664
0.000197979
0.00134166
-0.00153964
0.00091536
0.0011337
-0.00204906
0.000224737
0.00016905
-0.0138131
0.0110367
0.00277634
-0.000147293
9.40738e-05
0.0980521
-0.0625986
-0.000388798
-0.000810353
0.00119914
0.00149949
0.0109705
0.000709143
-0.0669261
0.0283205
7.41564e-06
5.99711e-05
1.63973e-05
-3.03421e-05
1.39461e-05
-0.000261223
-0.000244899
-3.16903e-05
3.30393e-05
0.00128203
-2.1303e-05
-2.91632e-05
-0.00012875
5.44556e-05
6.86153e-05
0.000400396
-3.32543e-05
-4.78565e-05
8.11102e-05
0.000808588
-0.000912303
0.000103757
0.00492817
0.00208718
1.12631e-05
8.32514e-05
-9.45153e-05
0.000219014
-0.00182664
0.0151016
0.000983485
0.00038058
-0.0013641
-1.55611e-05
5.87977e-06
9.68193e-06
-0.00324645
-0.000438056
4.55978e-05
0.000392455
-3.89367e-05
2.91995e-05
9.73744e-06
-0.000763382
0.0194906
-0.0187272
0.000229293
-0.00102998
0.000800702
-0.000134687
-0.000163875
0.000298564
0.00578295
0.00125105
0.00339398
-0.00928931
-0.000437115
-6.63466e-05
0.000503463
8.85982e-05
-7.73358e-05
1.41111e-05
1.51305e-05
-2.92415e-05
-0.000894424
0.00137755
0.0219738
0.00268174
-0.0246556
-0.0149526
0.0145323
-0.000851719
0.011594
-0.0107422
0.00746787
-4.63605e-05
4.63596e-05
-0.00310415
0.00275176
0.000352406
0.000503053
-0.000183379
0.00247549
0.000289566
-0.00276508
0.00471337
-0.0126942
0.00798095
-2.56864e-05
-3.20703e-05
5.77565e-05
0.00338903
-0.00128498
-0.00104819
0.000240849
0.000807341
-0.0011946
-0.000373719
0.00156834
-0.00123743
-0.000907293
0.00214472
0.0027636
0.00883038
0.00725972
-0.0061853
0.0466331
-0.0384157
-0.00186856
0.000314547
0.000138511
-0.00650666
-0.00143177
-0.000294309
0.00172608
-0.00100459
-0.000239424
0.00124394
-8.70292e-06
2.28141e-05
-2.20617e-05
7.59095e-06
0.000509874
0.00022972
-9.33094e-05
0.000251072
0.000927411
-0.000431795
-0.00106879
0.000679983
-0.0100456
0.00613811
-9.83537e-06
-3.95703e-06
0.000735259
-0.000225387
-0.00476147
0.00834419
-0.00358274
0.00163274
-0.000564324
-0.00067849
-0.000824221
0.0015027
-0.000432474
-0.000152053
0.00104123
0.0239174
-0.000372993
0.000419509
-4.65181e-05
-0.000408533
-2.95254e-05
-0.0663702
0.00669114
0.0596794
-0.000675303
0.000472794
0.000202514
-0.000994406
-0.00168573
0.00025397
-0.00029348
0.000855252
-0.000778062
0.00101106
-0.000233001
-2.2734e-05
-1.45829e-05
-0.034719
0.0138624
-0.00131022
-0.00179392
0.00380657
0.00230319
-0.00610976
-0.0149581
0.016182
-0.00122389
0.000721976
-0.000492651
0.078541
-0.0255024
-0.00218622
-0.00172225
0.0145886
-0.00893765
-0.00565093
3.67027e-05
-6.23807e-05
0.0233654
-0.00139154
-0.0001351
0.00013391
1.18971e-06
-0.0580005
0.0515113
-1.8035e-06
9.50689e-06
-0.00446216
0.00729973
-0.000104526
-0.000900098
-5.75835e-05
-0.000231527
0.000289111
-0.0514687
0.0372341
4.21302e-06
1.92442e-05
-2.34565e-05
0.00014225
0.000182158
0.00372449
-0.00163142
-0.000555969
0.0273866
0.00142442
-0.0035263
0.00210187
-0.00221608
-0.00782949
0.0189175
-0.0178575
-0.00105998
-1.32788e-05
4.99853e-05
-1.77255e-05
-2.97428e-05
4.74705e-05
-9.31926e-05
-0.00134393
-0.000474404
0.00010141
3.5913e-05
-5.36425e-05
0.000946323
-0.000249952
-0.000696377
0.00452563
-0.00985061
0.000453042
0.000282215
6.39932e-05
-0.00050111
-0.000600661
0.000303375
0.000297282
-0.00345069
0.00139241
0.000366087
-0.000607292
-0.00441258
0.00780658
-0.000261389
8.38502e-05
-0.00338015
-0.0166436
-0.0497266
-0.0165841
0.0245795
-0.000109066
-2.6558e-05
0.000135624
-0.0183181
0.00336004
-0.00290592
-0.000658501
0.00356436
-0.00069376
0.000232696
0.000461063
4.02077e-05
2.91742e-05
-6.93823e-05
0.00107987
0.00055288
2.90238e-05
2.13226e-05
-0.000652524
0.00171038
-0.000121493
0.000484855
0.000258363
-0.000167822
-9.04574e-05
0.00133698
0.000599463
-0.00193647
0.000377604
-0.000107336
-0.000270306
0.000783034
-0.000329992
0.00249613
-0.000918763
-0.00157736
0.000112659
-0.000205968
-0.0644562
0.0858945
0.000509784
0.00100239
3.72513e-05
-2.92381e-05
-0.000996409
0.0012957
-0.000299239
0.00296798
0.000919433
0.00428423
-0.00346211
-0.000822226
0.0125167
0.00640088
0.00317388
-0.00266809
-0.000505789
-0.000554355
0.000213149
0.000668411
0.00099905
-0.00166745
-0.000214423
-0.000236859
0.000451285
-0.0191706
0.0013131
0.00198931
-0.000938575
0.00273612
-0.00719827
-0.0106463
-0.0473543
0.000346021
-0.00268381
2.98785e-05
-2.93144e-05
-5.62777e-07
-0.0278785
0.0192939
4.52606e-05
-0.000703504
-5.6047e-05
5.89353e-05
-2.89083e-06
-0.000238113
0.000103427
-0.000331364
-0.000269301
6.77447e-05
-0.000118378
5.06391e-05
-0.000280515
0.00114718
0.00320247
0.000364038
-0.00356654
7.42985e-05
1.75655e-05
-9.1865e-05
0.000593443
0.00139593
-0.000359435
0.000118845
0.000240586
0.0127926
-0.000825584
-0.000596827
0.00142238
0.0057816
0.00245706
-0.00823864
0.000166411
7.84217e-05
-0.000244831
-0.0414303
8.88951e-05
0.0413414
-4.51218e-06
1.96425e-05
-0.0273147
0.0164236
0.010891
-3.82004e-05
-8.16191e-06
-0.0137471
-0.0135676
-0.000313958
-0.000379803
0.00587778
-0.00773192
0.00185409
-2.44139e-05
0.000327786
-0.00105834
-0.00196388
0.0675624
-0.0125155
-0.0550469
0.000233713
4.10161e-05
-7.53506e-06
-8.50104e-05
2.55296e-05
5.94777e-05
-0.000827212
0.00174258
0.0225771
0.0449853
0.000109806
-3.53127e-05
0.000354356
-0.000411939
0.000313709
-0.000338126
9.88499e-06
-0.00142641
0.00884683
-0.000389424
-0.00334863
0.00373825
0.00404528
0.000238887
-0.0012448
0.000575491
0.000669305
3.40037e-06
-5.94456e-05
-0.0157121
-0.0343451
0.0146347
-0.000916397
0.000138334
0.000209787
-0.00130674
0.00109696
0.0127352
-0.00907568
-0.00365956
0.000357197
2.03903e-05
-1.79748e-05
-1.11719e-06
1.90931e-05
-0.000109203
-0.000600522
0.000709725
-0.00530697
0.0110886
0.000470703
-0.0155407
-0.00044073
0.000137247
0.000303475
-0.000573913
-7.83365e-05
0.000652248
-0.000763588
0.000438058
0.000748936
-0.000256093
-0.00049284
0.000929084
-0.000149432
-0.000779636
4.35348e-05
-4.58198e-05
2.28564e-06
0.0155839
-0.00471913
-0.0108648
0.00042442
-0.00125002
0.0596707
-0.0313916
-0.028279
0.0121844
-0.00747101
-0.00131852
0.00646705
2.65056e-05
-2.22913e-05
0.000416359
-0.00113405
-2.61475e-05
2.16337e-05
-2.36865e-05
6.3895e-05
0.0509812
-0.00848736
0.0175579
0.00369149
-0.000784074
0.00666183
0.000644915
0.000104026
-0.000167797
0.00107326
-0.00090548
6.92128e-05
0.000738386
-0.000807648
-6.23199e-05
-8.49735e-05
0.0222721
-0.0230355
0.0286075
-0.0386726
0.0100651
-0.00159981
0.000405198
0.00010505
-7.5069e-05
-0.00273111
-6.42142e-06
1.61433e-05
-9.73323e-06
-0.0107186
0.0198581
-0.00913952
-1.90985e-05
-0.00284758
-0.0318282
-5.55804e-05
-0.000385151
0.000951081
-0.000142478
-0.00440618
0.00401684
0.0298321
-2.05396e-05
-0.000914573
0.000484617
0.000429958
-0.00139093
0.00122311
-0.0351538
0.0649863
0.00364534
0.000944461
-0.00399322
-0.0182961
0.0222892
-0.000793157
0.00104371
0.000639257
-0.0420696
-0.000756258
0.00209322
-8.79438e-05
-3.34947e-05
-0.00062393
0.00207194
-0.00144802
0.00106606
-0.00182235
-0.000462779
-0.00230877
0.00277155
-6.76681e-06
3.27592e-05
-0.000417233
-0.000497341
-0.0282611
0.00181614
0.0264449
0.000109054
-0.000103681
-5.36335e-06
0.00143105
-0.00101465
2.65807e-05
-0.00010523
7.86957e-05
-7.5924e-06
8.18903e-05
0.00152062
-0.00117362
-0.000346969
0.00054657
0.00097407
-0.004852
1.48766e-05
-3.0739e-05
1.58686e-05
-2.39152e-05
0.000132974
-1.44828e-05
2.93618e-05
0.00499257
-0.00112924
-0.00386334
-0.00170546
0.00105295
-6.7543e-05
3.54667e-05
-0.00012892
-6.17906e-06
-0.00294481
0.0017952
0.00114956
-1.14213e-05
-5.04092e-07
-0.000785507
0.00943232
-0.00963667
0.00121901
-0.00124005
2.10453e-05
-0.00340774
0.00382228
-0.000414589
-6.61132e-05
2.08833e-05
-1.23205e-05
5.89241e-06
-6.35847e-05
6.4271e-05
-6.8815e-07
-0.00228852
-0.000307288
0.00259583
0.000339454
0.00060688
-1.68399e-06
0.0150113
-0.027918
0.0129066
-3.11082e-05
-8.08496e-06
3.9204e-05
0.000576023
-0.00136742
0.000791397
3.21972e-05
3.527e-05
-3.60246e-05
1.80734e-05
1.79521e-05
0.000254252
0.000151052
-0.000405327
-0.00127533
7.5109e-05
-1.47994e-05
1.98108e-05
-0.00014939
4.04605e-05
-0.000140457
9.99968e-05
-2.32215e-05
-1.28025e-05
-6.92156e-05
-1.57989e-05
0.000771414
-0.00346403
0.00269261
0.00368718
-0.00418385
0.000393884
0.000149296
-0.000543181
0.000324644
0.000259203
-0.000583844
4.70933e-05
4.27877e-05
-8.98918e-05
0.00500067
-0.0105907
0.00558989
0.00174643
-0.00220921
-0.000675243
0.00231688
0.00112222
-0.00131315
0.000190951
-0.000383187
7.36756e-05
0.000730544
3.54335e-05
-3.51421e-05
-2.90776e-07
0.00186913
0.00130475
-0.000483539
0.00547611
0.00180212
-4.37391e-05
1.84375e-05
0.0279159
0.000457281
-0.0283732
-0.00720989
-0.017887
0.0250969
-0.00486532
0.00576859
-0.000903291
-6.81336e-05
4.54815e-06
0.00343855
-0.000470574
-0.0121789
0.0191876
0.0118894
5.41442e-05
-6.19137e-05
7.77028e-06
0.000149639
0.000333538
2.27159e-05
7.1632e-06
0.00324088
-0.00494201
0.00170112
-7.9131e-06
6.20617e-05
0.000135523
0.00425763
-0.00439315
-0.00109257
0.00215863
0.0257915
0.000509581
-0.000264171
-0.000245397
0.0623341
-0.0114395
-0.0508947
-0.00297464
0.000686137
0.000345742
-0.000541085
0.000938917
-0.000558937
0.00240413
-0.000979703
4.38709e-05
4.77624e-05
-9.16337e-05
7.62691e-05
5.96718e-06
-0.0436027
0.000823664
-6.73469e-05
-0.000756302
0.0454316
-0.0168241
0.000385236
-0.000106009
-0.000279223
-9.13575e-06
0.000128675
-0.00011954
-4.78893e-05
2.758e-05
2.03093e-05
0.00612899
0.00845959
-0.00411678
-0.00677822
0.0108949
1.37223e-05
3.1055e-06
0.0013516
-0.00128241
0.000334935
-7.55736e-05
-0.00025936
-0.00114724
-0.00179759
3.78868e-05
2.54123e-05
-6.33e-05
2.21539e-05
7.87858e-06
-3.00318e-05
-0.0037731
-0.00381672
0.00758985
-0.000938977
0.00220357
-0.0012646
0.000993917
-0.00132898
0.000335073
0.01361
0.0487241
-0.0297488
-0.037481
-0.00363734
0.000229573
-0.00307679
0.0034408
-0.00537388
-0.00658828
0.0028152
0.00131381
-0.000191564
2.09089e-05
1.55844e-05
-3.64925e-05
-0.000239978
-0.000396394
0.000102062
0.00015626
0.0125145
-0.0068903
-0.00562419
0.000799061
0.000292946
-0.00109201
0.0130111
-0.020221
2.25907e-05
-1.93037e-06
2.03557e-05
-4.29357e-05
-0.000675915
0.000107421
0.000568501
0.0106865
-0.00428432
2.36134e-05
-0.0235856
0.00903632
0.0145493
-0.0161891
0.0295356
-0.0133464
-0.000443715
0.0182145
-0.00203254
0.00285195
0.00362138
-0.00647333
-1.56924e-05
0.00291127
-0.00213985
-3.16646e-05
3.79311e-05
-0.000504434
1.41519e-05
0.000490276
-0.000434158
0.00323974
0.000606192
-0.00384602
0.0152385
-0.0042015
1.61254e-05
-0.000125192
-0.0114229
-0.000453794
-0.00322494
0.00607689
0.002838
-0.00287585
3.74123e-05
-0.00870874
0.0181117
-0.00940295
-8.99043e-05
0.00130891
-0.000107126
0.000277859
-0.000170733
0.000960453
-0.000750665
-0.000295191
0.000188064
-0.00261161
-0.000294286
-0.000569235
0.000160697
0.00527602
0.0348566
-0.0401325
-0.0426575
-0.0763014
0.118959
-0.00103381
0.00427468
-0.000458985
0.000392639
-0.00119513
0.000115361
0.00107977
-0.034988
0.0402641
0.0253667
0.000424884
0.0355664
-0.0323922
-0.00317421
0.000477196
-5.22257e-06
-1.03386e-05
1.36228e-05
7.91054e-05
-9.91931e-05
2.00866e-05
-4.25942e-06
-3.0234e-05
3.44929e-05
-0.000483605
-0.000412789
0.000678127
0.00018506
-0.000424648
-0.000144585
-0.000117838
5.55181e-05
5.36376e-05
-2.81989e-05
-2.54381e-05
-4.43875e-05
-0.00150734
0.000269917
0.000183288
0.000104515
-0.000287802
0.00857457
-0.00627139
0.0261639
0.00326334
-2.08893e-06
2.50254e-05
-0.0235677
0.0240385
0.00111034
-1.03707e-06
0.000824707
0.00135949
-0.000931501
-0.000428051
-0.00422184
0.000821923
0.00339992
0.000247213
8.77284e-05
-0.00105327
8.27566e-05
-0.000282289
0.000199531
0.000338554
0.000171028
-0.000577094
-0.000339304
-0.0198541
0.0111453
0.0217162
0.0114482
-0.00302986
-0.00841829
0.000160295
-0.00014433
-2.28743e-05
-0.000273471
0.00274897
-6.25769e-05
-0.000135554
0.00019813
-0.00056696
-0.000451114
0.00101791
0.000129595
4.06496e-05
0.000716581
-0.000417031
-0.000299553
-0.0245013
0.00831227
0.00221152
-0.00201354
0.000169711
-0.00018442
1.47093e-05
0.0033113
-0.00581731
0.00250602
0.00265231
-0.00215884
-2.12178e-05
0.000100323
0.00231761
-0.0027073
0.000389729
0.00213785
0.0024514
0.024539
-0.0252662
-1.86594e-05
-2.02765e-05
-5.64123e-06
2.20393e-05
0.000794864
-0.00084317
0.0273201
0.00824651
0.000402972
0.00157759
-0.00198025
0.00196563
-0.00062397
-8.47989e-05
2.1243e-05
6.35547e-05
0.00785567
-0.0130777
0.00522212
-0.000162129
0.000416372
0.000827453
-0.00025143
-2.75645e-05
-4.36904e-06
3.19307e-05
-0.0019545
0.00101552
5.30934e-05
0.000719165
-0.00077226
-0.000962182
-0.000367127
0.00023852
-0.000155763
7.65518e-05
7.06806e-05
-0.000105075
0.000108091
-0.00034585
0.000237761
0.000144838
-7.85224e-05
3.06663e-05
-0.000121893
0.000235573
-0.000444665
-0.000603524
0.000436283
0.000923214
1.66619e-05
3.76865e-05
-5.43494e-05
0.00153629
-0.008681
0.00714467
-0.0111051
0.00549231
0.00561274
-0.0386185
-0.0125622
0.00908149
0.00650245
-1.91589e-05
-2.10555e-05
4.02188e-05
-9.34904e-05
0.00016124
0.00381563
-0.00539343
-0.00999803
-0.0135876
0.0218679
-0.0023773
0.0186375
-0.000381136
-0.0182564
0.0292797
0.0107799
-2.25707e-07
-1.18358e-05
1.20615e-05
-0.000380375
-5.62584e-05
0.000436604
-0.000887157
0.000310062
-0.00106755
0.00105197
1.56008e-05
3.56383e-05
-1.08199e-05
0.00036024
-2.11477e-05
2.58967e-05
-4.74914e-06
0.000706265
0.00204552
-0.00923849
-0.00405872
0.00212483
-0.0149691
0.0128442
-3.43316e-05
7.27121e-05
2.39111e-06
0.000195722
0.000120592
-0.00031631
3.09614e-05
-1.00519e-05
0.000106017
-7.94108e-05
1.10013e-05
-0.00107854
0.00839328
0.00610098
-0.0144948
-0.00643678
0.00181831
0.00461846
-0.000206517
-0.000342714
-0.000220097
-5.10694e-05
0.000220779
-0.0274575
0.0284987
0.00190654
-0.00161698
-0.0827586
0.0139272
0.0688314
0.00873715
0.000237764
0.000272573
-0.000245324
0.00371876
0.00510082
-0.000722312
0.0121706
1.36849e-05
3.72777e-05
-5.09631e-05
0.000761104
-0.000159375
0.00154725
-0.00138788
-0.00154281
-0.000117244
0.00166005
0.00134661
-0.000567976
-0.000778632
-0.0105949
0.00585363
0.00474103
-0.000231181
0.000597228
-3.13639e-05
2.5038e-05
0.00149355
0.00138216
4.39164e-05
-3.02316e-05
0.00033955
-0.00105633
0.00071677
-0.00839183
-0.0151758
-0.0195653
-0.0274976
0.0230239
-0.0273876
0.00436371
0.005205
0.000577971
-5.91743e-06
3.51169e-05
-6.60242e-05
0.00103807
-0.00097205
8.32086e-05
-0.000346728
-0.017959
0.000112002
-0.000122497
1.0501e-05
-3.96834e-05
3.50085e-05
4.67504e-06
-0.0740032
-0.00289176
-0.0271636
0.000494116
-0.0007876
-4.93484e-05
0.000402623
0.000260454
-0.000676047
1.10041e-05
0.00290697
-0.00275853
-0.000148356
0.0667086
-0.0530986
-0.00642269
0.0241596
-0.0177369
-0.000462426
0.000303499
0.000158928
-0.00384541
-0.00265964
0.00151238
0.00167221
-0.00196653
0.0347948
-0.0130817
-0.00548257
-0.0128356
-0.00090081
0.000371362
0.000529447
-0.000119134
9.37615e-05
0.000458085
-0.000308446
0.00303784
-0.00233156
0.000210509
-0.000237716
2.71849e-05
-0.000547424
-0.00552683
0.00706312
0.0115805
-0.0873068
0.0775197
0.00978711
-0.000207701
-0.000878141
0.00108582
-0.000504095
1.21184e-05
2.5105e-05
-3.72253e-05
-0.0018443
0.00147057
-0.000264311
0.000277957
-1.35792e-05
0.00143009
-0.000446621
0.00604743
0.000198222
-0.000523574
0.00032536
0.00832393
-0.0190425
0.000124774
-0.00154128
0.00128985
0.000251417
0.0543818
-0.026079
-0.0283029
-0.000266256
0.00370481
-0.000557893
-0.000327372
0.000885189
-0.000698213
0.00560046
0.00101866
-0.000361838
0.00103995
0.000707179
0.00219982
-0.000340048
-0.000560762
-0.000480925
0.00145943
-0.000978462
3.49681e-06
0.013531
-0.017755
0.00422366
-0.000318065
0.000480644
-0.000162572
-3.67441e-05
1.2237e-05
0.000108049
-7.19449e-05
-3.61039e-05
0.000497498
-0.000433505
-4.70244e-06
6.22497e-05
-5.75412e-05
2.82464e-05
2.53914e-05
0.0681328
-0.057791
-0.010342
0.0070777
-0.0208248
-0.0820214
-0.00528529
0.00734809
-0.00308162
-0.00426646
9.66449e-07
8.28846e-05
-8.38523e-05
-0.000532037
0.00161196
0.00124588
-0.000723836
-0.000522045
0.000801219
-0.00149112
0.00134369
4.86102e-05
-4.35424e-05
-5.06402e-06
1.80634e-06
-0.00472933
-0.0047348
0.00946408
0.000261709
-3.13238e-05
-1.53724e-05
4.66962e-05
0.0541931
-0.00087436
7.50518e-05
-7.97424e-05
0.0136301
0.00248853
3.92283e-05
3.29178e-05
1.92777e-07
-3.31087e-05
-0.000403291
0.0013972
0.000315523
-0.000179952
1.21766e-05
-4.70615e-05
-1.17244e-05
5.87838e-05
-0.00559431
0.000854715
-0.000944621
0.000300238
0.00260352
-3.54429e-05
-4.24202e-06
0.000809814
-0.000192423
-0.000617392
-0.000438618
-0.000436501
0.000875108
2.6907e-05
-3.04276e-05
3.53075e-06
3.75996e-05
1.10122e-05
0.000172482
0.000468022
-0.000640498
-0.0132781
0.0203558
0.0124052
-0.00655173
-1.51095e-05
1.4113e-06
1.37005e-05
0.0243901
-0.0182611
-0.00032114
0.000896679
0.0104624
-0.00996823
-0.000494111
3.64779e-05
-0.000994546
0.000958076
-0.000827395
-0.00036774
-3.98516e-05
8.37215e-05
0.000222305
0.00023578
-0.00920146
0.0371173
0.00748981
0.00524536
0.000936989
-0.00121755
0.00266363
-0.0270002
-0.000386253
6.81921e-05
-0.000389558
0.000469847
-8.02854e-05
-0.000419948
-0.00112138
0.000248949
-0.000136291
0.000418438
-0.000508532
-0.000225741
0.00010385
0.0088779
-0.0200408
0.0111629
0.0282671
-0.00524317
-0.000647106
0.000819589
0.0395416
1.16516e-05
2.37821e-05
0.000380364
4.87426e-06
5.76566e-05
-3.4311e-06
-0.000187041
0.000681153
-0.00105752
0.0105142
-0.00945671
0.0143755
5.98032e-05
-0.00044936
-0.012107
-0.0119409
0.0240479
-0.00470361
-0.00173318
-9.04959e-05
0.000130956
-0.0278889
0.0411862
-0.000367301
0.00134558
-0.000978273
0.0229903
0.00273844
0.00267263
-0.00541106
-8.05197e-05
-0.0012146
0.00114857
0.00106912
-0.000214402
-0.000350659
-8.58268e-06
-4.35462e-05
3.22127e-06
0.00402518
-0.0228499
0.0188247
-1.07577e-05
1.0229e-05
-0.00374589
0.00425132
-0.000505426
0.000327465
0.00539036
-0.00215355
-0.0032368
0.0241796
-0.0100861
-0.0140935
0.000310467
0.000446609
-0.000206815
-0.000239797
-5.91321e-05
3.5446e-05
0.000888828
-0.00575418
0.0211464
-0.0122685
0.000175943
3.74913e-05
8.86745e-06
0.0147887
-0.00620762
-0.00858103
-0.00804038
-0.00857772
0.0166182
-0.000365284
8.14973e-05
0.000273587
5.16029e-05
7.33448e-06
0.000678836
-0.000141019
-0.000537817
2.6534e-05
3.78414e-07
-0.00307351
-0.000587604
0.00366113
0.0160307
0.00578477
0.00900399
-7.52945e-05
-3.70878e-05
0.000112382
0.00137634
-0.00690316
9.54953e-06
-8.94377e-07
-8.65289e-06
-0.00158758
0.00206056
-0.000473
-3.05356e-05
-6.58301e-05
-0.000233929
-3.03549e-05
4.85672e-05
-2.03211e-05
0.00574706
-0.00437072
-0.0024732
-0.000234061
0.000161019
0.000285589
-3.82468e-05
-0.000218967
0.000564706
0.00317143
0.00221893
0.00285877
-0.0111506
0.0082919
0.000635792
4.30433e-05
4.60512e-05
-0.000134001
0.000706908
-0.000785713
0.00373147
-0.00294577
0.001176
0.00401068
-0.00518657
-0.000545598
-0.001042
-0.00227609
0.0023801
-0.000103967
0.000209263
-0.000428232
-0.00087658
-0.00258559
-0.00791403
0.0107728
0.0630373
-0.0404602
3.69698e-05
6.56531e-06
0.000262549
-0.000826618
0.0025172
-0.00461809
0.00210089
0.00237439
0.00808798
-0.000304443
-0.000515123
0.000819564
-0.00220063
0.00142106
0.000779573
0.00151213
-0.00113159
-0.00102439
0.000657087
-9.65849e-06
-3.3301e-06
1.29887e-05
-1.58051e-05
-2.16941e-06
0.00929685
0.00595716
-0.015254
-0.0133504
0.0122929
-0.000993138
0.00141753
0.000669623
0.0018265
0.021395
0.00299505
0.000721193
-0.000121532
-7.38754e-06
0.00118359
-0.000246641
0.000265387
2.68402e-05
-0.000292228
-2.82269e-05
-1.0061e-05
3.89058e-05
8.9768e-05
-0.00550272
0.00109015
0.0625153
-0.0158823
1.79859e-05
3.08512e-06
-2.10706e-05
0.000124533
0.0016575
-0.00178204
-0.00417597
-0.00917444
0.0048608
-0.00081566
0.00113254
-0.0006433
-0.000489056
0.0991637
-0.0471155
-8.44855e-06
1.43283e-05
-1.92459e-05
-0.000761313
8.11525e-05
0.000680175
-5.60405e-05
-1.09404e-05
6.698e-05
-1.8107e-05
-0.000204131
0.000352382
-0.000148252
-0.0016589
0.0016775
-0.00136806
-0.000832561
0.0190948
-0.0255175
-0.00190548
0.00163993
-0.00395298
0.00231305
0.00171126
-0.0175658
0.0158546
9.73538e-06
-2.88925e-05
-0.000397014
-0.000266037
-9.33992e-05
0.00420752
0.00156105
5.09506e-05
2.61191e-05
-7.70337e-05
-0.00100087
0.000669096
-0.0302007
-0.0129508
0.043151
0.020298
-0.0185868
0.0307067
-0.0404979
0.00979125
0.00398088
-7.45536e-05
0.00103501
0.00157921
6.03727e-05
-0.00163959