/*--------------------------------*- C++ -*----------------------------------*\
| =========                 |                                                 |
| \\      /  F ield         | OpenFOAM: The Open Source CFD Toolbox           |
|  \\    /   O peration     | Version:  v2012                                 |
|   \\  /    A nd           | Website:  www.openfoam.com                      |
|    \\/     M anipulation  |                                                 |
\*---------------------------------------------------------------------------*/
FoamFile
{
    version     2.0;
    format      ascii;
    class       volScalarField;
    location    "400";
    object      p;
}
// * * * * * * * * * * * * * * * * * * * * * * * * * * * * * * * * * * * * * //

dimensions      [0 2 -2 0 0 0 0];


internalField   nonuniform List<scalar> 
13308
(
0.00402238
-0.2213
-0.337025
0.00208151
-0.173962
0.000750338
-0.149261
-0.104374
-0.176136
-0.110985
0.00624339
-0.0312536
0.000807948
-0.0449995
0.000508708
-0.328315
0.00312051
-0.21643
-0.0358071
-0.0559665
-0.00233499
-0.305731
-0.307206
-0.138695
-0.327598
-0.338697
-0.159508
-0.000931882
-0.163613
-0.105976
-0.219358
-0.112967
-0.318575
-0.201271
-0.0603241
0.00330305
-0.15305
-0.310265
-0.0896088
-0.333408
-0.0599789
-0.105688
-0.0627097
-0.0326494
-0.0845968
-0.233539
0.000419167
0.00212038
0.00461954
-0.340878
-0.0363573
-0.0332046
-0.291194
-0.0167619
-0.33388
-0.343399
-0.0325333
-0.0293551
-0.114681
-0.111154
-0.0157631
-0.33589
-0.0304001
-0.0696973
-0.00955249
-0.315734
-0.0200658
-0.23894
0.00233057
-0.0600553
-0.211987
-0.0873012
0.000896939
-0.111574
-0.229147
-0.0142022
0.00183902
-0.345435
-0.0368317
0.00254882
-0.0537271
0.00214286
-0.0138286
-0.12788
-0.187558
-0.106214
-0.329083
-0.171399
0.00328258
-0.058082
-0.0856381
-0.0196529
-0.154668
-0.000338349
-0.037101
0.00376011
-0.108157
0.00286213
-0.21692
-0.0622226
-0.0835039
-0.0614948
-0.0118601
0.00106583
-0.00975688
-0.220696
-0.337315
0.00240227
-0.340529
-0.338265
-0.124698
-0.269167
0.00448874
-0.0368039
0.00471904
-0.0265171
-0.239444
-0.0461038
-0.158982
-0.0211443
-0.155092
0.00202861
0.00110429
0.00242451
-0.0131561
0.0170687
-0.17249
-0.175082
0.000875022
-0.329905
-0.218527
0.00238267
-0.0705773
0.00393669
-0.183416
0.00254495
-0.0219574
-0.0137462
-0.000966584
-0.109371
-0.347496
-0.122607
-0.0609593
0.00501706
-0.106382
-0.0289809
-0.000197117
-0.0447053
-0.0550773
0.00612292
-0.32963
-0.0152276
-0.133627
-0.0129733
-0.291826
0.00202069
0.00151104
-0.000109912
-0.0603293
-0.00565277
-0.139909
-0.0320398
-0.0599434
-0.336768
0.00410355
0.0172442
-0.307256
-6.28184e-05
-0.336961
-0.173478
-0.12415
-0.0443888
-0.0155075
-0.341735
-0.333851
-0.317722
-0.305824
-0.339328
0.00847104
0.000638504
-0.0256239
-0.284317
-0.0176197
-0.0837817
-0.33041
0.00219147
-0.343732
-0.223008
-0.109086
-0.0353762
-0.0349012
-0.0509784
-0.106416
-0.0332883
-0.109224
-0.322074
-0.122308
-0.000786352
-0.170604
-0.105019
-0.325564
-0.288778
-0.0319425
-0.182739
-0.328714
-0.247038
-0.331404
-0.23196
-0.0343864
-0.333891
-0.0353312
-0.031517
-0.210442
-0.347784
-0.345706
0.00148859
0.00149908
-0.162392
0.00148816
-0.225347
-0.00541163
-0.0161485
0.00367334
0.000352578
0.00312561
-0.315049
-0.0284268
-0.00695414
-0.344877
-0.250556
-0.335533
0.00199572
-0.33752
-0.185556
0.00406422
-0.206163
-0.269669
-0.0074523
-0.283962
0.00273505
-0.12823
0.00405024
-0.000862215
0.000324896
-0.025722
-0.306838
-0.0291521
-0.088097
0.000352865
-0.326912
-0.349216
-0.323146
-0.0613628
-0.337268
-0.176292
0.0023668
-0.149834
-0.0170788
0.013487
-0.343865
-0.101944
-0.0899464
-0.205785
-0.00378899
0.00593939
0.000643629
-0.0299215
-0.0693028
-0.00387466
-0.317459
-0.0236085
-0.159876
-0.0446388
0.00207056
-0.0413784
-0.00968926
0.00432939
-0.0210931
-0.177112
-0.0183709
-0.323364
-0.0565556
0.00153821
0.00223673
-0.222075
0.00186282
-0.0041737
0.00388556
-0.0213035
0.0174279
-0.149408
-0.0147136
-0.326247
-0.287083
1.22357e-05
-0.0588022
-0.347411
-0.0960382
-0.0186892
-0.31589
-0.32048
0.00101309
-0.339756
-0.148485
-0.156786
0.0040585
-0.121309
-0.341779
-0.0665106
0.00222888
-0.046794
-0.266557
-0.154066
-0.0261686
-0.0650203
-0.334262
-0.00324207
0.000112754
-0.0567427
-0.325889
-0.0613357
0.00210683
-0.330114
0.00198686
-0.317524
0.00498076
0.00152064
-0.0789657
-0.0868886
0.0183183
-0.326309
-0.0315062
-0.0758491
-0.0113221
0.00236284
0.000896653
-0.32207
0.000514092
-0.0287902
-0.0430961
-0.162148
-0.0783196
-0.0414821
-0.196243
-0.0139697
0.0179128
-0.026063
-0.027516
-0.0614622
-0.00489659
-0.213313
-0.262837
0.00861831
-0.0142862
0.0048469
-0.0107485
-0.265114
0.0043447
-0.0246107
-0.182125
-0.0587719
-0.17733
-0.174374
-0.0261198
-0.287808
-0.339207
-0.0419637
0.000218895
-0.0274113
-0.164623
-0.326246
-0.26097
-0.0985966
-0.0353001
-0.0265006
-0.0158346
-0.334598
-0.331085
-0.0543202
-0.0227625
-0.0777681
-0.0105175
-0.00213639
-0.186106
0.00409924
-0.285829
-0.264009
-0.105976
-0.0192731
-0.0647346
-0.00556857
0.00390617
0.0222888
-0.325131
-0.0504724
-0.0932594
-0.0213399
-0.013561
-0.0103854
-0.0912901
0.00410739
0.000607791
-0.0695622
-0.334799
0.000437191
-0.058999
0.00173994
0.00101323
-0.222235
-0.000227511
0.0034104
-0.098115
-0.0323279
-0.0135954
-0.019983
-0.309488
-0.0756375
-0.0195596
-0.109403
-0.0159085
-0.0230777
-0.0248097
-0.158268
-0.0621825
0.00457715
-0.335849
-0.0424338
-0.107389
-0.0184351
0.00342986
-0.000378439
0.00163565
0.0194857
-0.247352
-0.00552693
0.00179065
-0.333762
-0.0204135
-0.148731
-0.334849
-0.353565
-0.299573
-0.342361
-0.0239427
-0.275975
-0.160369
-0.0449317
-0.290741
-0.0178077
-0.319705
0.00430912
-0.230634
-0.0316717
-0.260007
-0.139433
-0.126976
-0.181087
-0.0364181
-0.311523
-0.0711657
0.0088344
-0.266928
-0.0242631
-0.133903
-0.021719
-0.350145
0.000584168
-0.0617966
-0.0309878
-0.317328
-0.239036
-0.0769058
-0.309758
-0.0706054
-0.0311125
-0.334769
0.00493386
-0.121755
-0.00985782
-0.0401545
-0.000722208
-0.0613824
-0.00274516
-0.00530104
-0.0452263
-0.0636277
0.00460026
-0.0252477
-0.123683
-0.0222352
-0.0177676
-0.120591
-0.0228057
0.00185639
0.000355062
-0.0654042
0.000794648
-0.0181518
-0.20769
-0.224399
-0.309981
-0.349522
-0.0605166
-0.0269943
-0.103714
-0.000996863
-0.0321917
-0.342318
-0.00456621
-0.337874
0.00683945
0.0189293
-0.0848923
4.37204e-05
-0.134919
-0.211256
-0.214838
-0.0546027
0.00402528
-0.337644
-0.0367208
0.0123204
-0.321866
0.00452091
0.00175892
-0.330368
-0.0396084
0.00181862
-0.0204086
0.0186021
-0.0479967
-0.211214
-0.338369
-0.30487
0.00217243
-0.000394357
0.00948546
-0.26405
0.00189808
-0.235108
-0.0344547
0.0164345
-0.0614541
-0.0174264
-0.082618
-0.316646
-0.203539
-0.0354298
-0.0210897
-0.00319536
-0.341183
-0.0350698
-0.214889
-0.000713823
-0.336395
-0.00895354
-0.295335
-0.346948
-0.285805
-0.293482
-0.0171689
-0.0613413
-0.00328099
-0.0395498
-0.0345669
-0.324614
-0.349573
-0.0784472
-0.31637
-0.312924
-0.20788
-0.0297248
-0.0332832
-0.0306317
-0.242551
-0.143801
-0.0142801
-0.0893401
-0.242824
-0.0112582
-0.319016
0.00465804
-0.033229
-0.0735543
-0.0682697
-0.0353066
-0.0597412
-0.0693776
-0.1127
0.0016584
-0.027189
-0.0129811
0.000466019
0.000239909
-0.0231213
-0.350666
-0.331112
-0.0152349
-0.343096
-0.105811
-0.022096
-0.0172478
-0.0196274
0.000668533
-0.0730717
-0.179894
-0.0134025
-0.1722
-0.017757
-0.251083
-0.277398
-0.176923
-0.175588
0.00199524
-0.262558
-0.232238
-0.126107
0.00229436
-0.0103552
0.0116317
-0.0599063
-0.0599773
0.00436514
-0.0271523
0.00678464
-0.341289
-0.0543482
-0.024793
-0.0813401
-0.342377
0.00145677
-0.292121
-0.0225419
-0.336473
-0.0330855
-0.0220818
-0.0667071
-0.0831685
-0.259604
-0.341238
0.00351241
-0.058599
-0.34808
-0.059989
-0.232237
0.00856017
-0.137523
-0.0910945
0.000234145
-0.022517
-0.132657
-0.0122619
-0.301782
-0.082711
-0.24902
-0.0665926
-0.0286718
-0.201695
-0.278306
-0.186948
-0.0228328
-0.326462
-0.0717722
-0.2378
0.00221227
-0.21055
-0.278233
0.00218147
-0.332202
-0.353523
-0.142782
0.00382602
0.0116445
0.000790982
-0.0195482
-0.343244
-0.153906
-0.231402
-0.00787292
-0.0370603
-0.131348
0.0222614
0.00101041
0.000286122
-0.0200474
0.00202175
-0.345683
-0.342016
-0.218639
-0.0656305
0.00150011
-0.0682878
0.000452564
-0.23881
-0.00905523
-0.0328922
0.00304628
-0.0013597
0.00301857
-0.245992
-0.00996343
-0.214081
-0.0634198
-0.0861849
-0.165972
0.00393297
-0.223382
-0.0217224
-0.0341961
-0.0221223
-0.0305322
-0.033542
-0.338508
-0.0521764
-0.273714
-0.161895
-0.00934556
0.00224107
-0.0629531
-0.0129374
0.00410727
-0.122188
0.00426145
-0.0319224
-0.22284
-0.04593
0.0167427
-0.261966
-0.232531
-0.33761
0.00360831
-0.084723
0.00358746
-0.069901
-0.336815
-0.100147
-0.00623482
0.00187263
-0.195773
-0.121585
-0.0314956
-0.259038
-0.0676932
-0.353074
-0.0400948
-0.00455967
-0.0245921
0.00425124
0.00276772
-0.0783827
-0.169522
-0.339162
-0.261112
-0.225484
0.018327
0.00237961
-0.00330623
-0.151381
-0.0319817
-0.248936
0.0041485
-0.074972
-0.0173712
-0.35149
0.000367291
-0.0608704
-0.277092
-0.334879
-0.203135
-0.0685284
0.00197595
-0.0422624
-0.0469119
-0.123534
0.00193357
-0.083468
-0.0103616
-0.337076
0.00162449
-0.00921082
-0.169357
-0.0289182
0.00445282
-0.0195994
-0.0310002
-0.0598008
-0.178257
-0.00931175
0.00461674
0.0025159
-0.0507166
-0.0342114
-0.348078
-0.0978258
-0.30068
-0.0182175
-0.332351
-0.0437321
-0.00235016
-0.000129068
0.0055222
-0.0611431
-0.015999
-0.121137
0.00205833
-0.349688
-0.294739
-0.151418
0.000648688
0.000224336
-0.327885
0.00423742
0.00282428
-0.0180925
-0.263678
-0.0376047
-0.0248136
-0.335938
-0.105092
-0.000284001
-0.196785
0.00153962
-0.108999
-0.315364
0.000227157
-0.00184407
-0.175079
-0.335882
-0.0640963
-0.273045
0.00157309
-0.147472
0.0128822
-0.0144806
-0.00545604
-0.0267224
0.00227876
-0.108806
-0.103934
-0.0249409
-0.336613
-0.0554414
-0.282583
-0.0150177
-0.262242
0.00182928
-0.00465026
-0.330184
-0.0162599
-0.0415026
-0.0238219
-0.0100537
-0.00635013
-0.172177
-0.25339
-0.286787
-0.0272553
0.0182714
0.00343587
0.00025326
-0.0521719
-0.00112056
-0.349387
-0.336081
-0.00978117
-0.016798
-0.0461749
-0.333054
-0.334873
-0.0643975
-0.264879
-0.099452
-0.328116
-0.0772669
-0.11428
0.0142269
-0.0922442
-0.321859
-0.0367744
0.00462164
-0.327482
-0.315096
-0.141863
-0.0503299
-0.159851
-0.0408645
0.00327054
-0.281911
-0.0165357
-0.137858
-0.0238736
-0.0596323
-0.0726104
-0.155215
-0.347911
-0.0633642
-0.0427009
-0.00281052
-0.0513984
0.00473554
0.00225092
-0.331535
-0.00890949
-0.00925448
-0.320148
-0.026152
-0.0608677
-0.0373988
-0.123953
0.00180202
-0.0245766
-0.3526
-0.348206
0.0121859
-0.0202753
-0.0201574
-0.191387
-0.233772
-0.352556
-0.0612161
-0.178187
-0.034796
-0.123261
-0.238515
-0.0546962
0.00347826
-0.132131
-0.0016117
-0.026243
-0.0159494
-0.00343131
-0.165308
6.53139e-06
-0.025347
-0.304622
-0.033309
-0.0757639
0.00372526
-0.0598202
-0.0515219
-0.00977791
-0.0357093
-0.315193
-0.265321
-0.0148019
-0.0241048
-0.14051
-0.321209
-0.15855
-0.111336
-0.0815961
-0.0112525
-0.0049061
-0.0149678
-0.216262
-0.0212064
0.00202398
-0.140957
-0.0601687
-0.256447
0.00793882
0.0171608
-0.137816
0.0197819
0.000551452
-0.106982
-0.00844016
-0.00751629
-0.0307237
0.00813736
-0.074902
-0.10764
-0.0344454
-0.18495
-0.0296169
0.00238909
-0.012824
-0.0371628
-0.24392
-0.132134
0.00314996
0.00730789
-0.213712
-0.000915376
0.00176526
-0.0578123
-0.0133268
-0.0690465
-0.0608424
-0.00955578
-0.21301
-0.210398
-0.208212
-0.350681
0.00326648
-0.00175236
-0.253391
-0.0490578
-0.00678216
-0.0982958
-0.0120296
0.00101028
-0.0901771
-0.332037
-0.0976664
-0.0631711
-0.0123332
-0.258793
-0.000748055
-0.0139475
-0.0834639
0.00335032
-0.000710883
0.00320682
-0.346142
-0.182504
-0.251309
-0.19652
-0.0867226
-0.261796
-0.0817248
-0.23209
-0.00087063
-0.0215128
-0.0553122
-0.325884
-0.0229753
-0.0335148
-0.1248
-0.0333626
-0.324595
-0.00814144
-0.0320804
-0.00437547
0.0127919
0.00760363
-0.337301
-0.278825
-0.0268356
-0.329764
-0.0882589
-0.315697
0.00160889
-0.0676037
-0.0342611
-0.0923394
-0.0372873
-0.0484424
-0.0446783
-0.291648
0.00728475
-0.220397
-0.352716
-0.0336912
-0.0321339
-0.0641046
-0.208411
0.00243856
-0.0318597
-0.0142515
-0.303972
-0.0339737
-0.0109477
-0.0211417
-0.02138
-0.00132698
-0.0195523
-0.34473
-0.0700059
-0.0640093
-0.346983
-0.334764
-0.115315
-0.0016493
-0.00199775
0.000683779
0.00764787
-0.00110332
-0.308587
0.00339479
-0.0348924
-0.101463
0.00204505
-0.00619258
-0.336985
-0.17503
-0.335203
-0.013028
-0.327578
-0.301442
-0.0252644
-0.317807
-0.0270334
-0.0953664
0.0101284
-0.276544
0.00169546
-0.0481491
-0.0368829
-0.0587991
-0.344457
-0.0910088
-0.013379
-0.349558
-0.0141058
-0.140143
-0.278637
-0.211709
-0.340687
-0.071933
0.000287614
-0.108288
-0.324059
-0.0854808
-0.0295901
0.0147133
0.00107176
0.00231685
-0.0982763
-0.0411424
0.00278173
-0.050644
-0.0153598
-0.11138
-0.291429
-0.120168
-0.308992
0.000349215
-0.0340038
-0.341209
-0.0709383
0.000434343
-0.308885
-0.26774
-0.027566
-0.0359573
-6.53718e-05
-0.106225
-0.212693
-0.254683
-0.151844
-0.0194782
-0.104802
-0.335812
-0.252621
0.0031053
-0.168662
-0.16942
-0.0173445
-0.124581
-0.0223014
-0.0590002
-0.074326
-0.0135925
-0.0975751
-0.0890252
-0.0537458
-0.00582194
-0.137697
-0.256569
0.00509762
0.00401829
-0.0160553
0.00449033
-0.0182306
0.00705113
-0.0260985
-0.0743188
-0.253535
0.00529633
-0.258547
0.000644595
-0.325464
-0.346289
-0.0553077
-0.0452061
-0.0659555
-0.00604318
0.00385499
-0.101329
-0.0216967
-0.35209
-0.0380277
0.00734592
0.0193609
-0.134356
-0.182384
-0.343492
-0.269503
-0.03501
0.0035192
0.00369622
0.0149301
-0.0572668
-0.0931388
-0.286273
-0.152871
-0.00617668
-0.0490411
-0.0604311
-0.254798
-0.25087
-0.00225802
0.00474262
-0.0697746
0.00276891
-0.0662892
-0.0830599
-0.327512
0.000923126
0.00236915
-0.0593591
-0.0169684
-0.347277
-0.0750021
-0.0271431
0.00488074
-0.000162972
-0.0059686
-0.158587
-0.210424
-0.236012
-0.00932841
-0.311274
-0.206593
0.00638924
-0.0970934
-0.353557
-0.0233854
-0.275402
-0.0506637
-0.253713
-0.317919
-0.292858
-0.0849574
-0.0222384
-0.00295058
-0.161692
-0.349131
-0.147514
-0.0296969
-0.312234
-0.0247868
-0.202201
-0.339006
0.00816618
0.00465655
-0.0354796
-0.282091
-0.30339
-0.300354
-0.0224109
-0.339977
-0.0065899
-0.316463
-0.0740588
-0.351128
0.00375461
-0.105734
-0.342715
-0.259352
-0.245689
-0.131644
0.00573283
-0.0749188
-0.347475
-0.238863
-0.0657492
-0.138501
-0.00300195
-0.0677867
-0.0263404
-0.00233177
-0.0383127
-0.209565
-0.0948068
0.00249314
-0.316568
-0.00141001
-0.303324
0.0071776
-0.0278902
-0.129552
-0.32807
-0.0100676
-0.352108
-0.00513154
-0.0523422
0.00589842
0.00322614
-0.224304
-0.00931259
-0.292745
-0.28809
0.00336049
-0.206854
0.000594337
-0.333505
-0.326584
-0.339079
-0.110261
0.00327177
-0.311943
0.0214115
-0.176011
0.000973915
-0.0530205
-0.15105
0.000878981
-0.102006
-0.0135997
0.00306561
-0.0280749
0.00705412
-0.0231857
-0.311626
0.00219407
0.00224371
-0.251193
-0.162742
-0.0321445
-0.0681686
-0.355834
0.00173565
-0.325329
-0.239844
-0.237469
-0.00878245
-0.0691376
-0.0131248
-0.340468
0.0191749
-0.0431636
0.00317393
0.00245665
-0.0326255
-0.343316
-0.0135071
-0.170024
-0.0458504
-0.0638825
-0.217048
-0.00103362
-0.118509
-0.308755
-0.0532881
0.000857985
-0.0412573
-0.0762868
-0.154149
0.000621472
-0.0385572
-0.354173
-0.0798674
0.0155905
0.00919821
-0.042505
-0.304427
0.00939124
-0.00818766
-0.256065
0.0114902
-0.252405
-0.049646
-0.200643
0.00353961
0.000225983
0.00525906
-0.152555
-0.283775
0.00207502
0.00475426
-0.0547361
0.00290458
-0.0500129
0.0101593
-0.0119488
-0.340207
-0.0614436
-0.0251335
-0.0780739
-0.327002
-0.30451
-0.000817932
-0.202982
0.00366341
-0.000699988
-0.0486452
-0.220183
-0.0484891
-0.0344879
-0.287718
-0.0664415
-0.0271949
-0.325039
0.00367979
-0.0132487
-0.00166077
-0.0281685
-0.33603
-0.00666074
-0.00600445
0.00152184
-0.00387451
-0.24262
-0.283623
-0.00797779
-0.351492
-0.0557236
-0.0127888
0.000497067
-0.116592
0.000303746
-0.323447
-0.266422
-0.0736471
-0.077942
-0.0315748
-0.0058935
0.00245812
0.0239615
0.00410933
0.00365858
-0.0324892
0.00464604
-0.310484
-0.301978
-0.234388
0.0171088
-0.344099
-0.0861945
-0.356639
0.00661711
0.000945363
-0.156241
-0.0512616
-0.00401507
-0.2141
0.00343651
-0.221579
0.0103177
-0.106504
-0.00752513
-0.0420375
-0.248884
-0.121732
0.000829294
-0.0104041
0.0218608
-0.218051
0.00321525
-0.227593
0.00337904
-0.327258
-0.33155
-0.26389
0.0108937
0.00248817
-0.162677
-0.0174993
-0.137926
-0.114561
-8.32962e-05
-0.0635614
-0.0193354
-0.0558903
-0.323363
0.00354133
-0.339107
-0.0258917
0.0098964
0.00122655
-0.197391
-0.327634
0.013128
0.00305619
-0.270381
-0.234641
-0.0722232
0.00185709
-0.0245351
-0.16077
-0.239306
-0.340803
-0.0324223
-0.0204161
-0.00853789
-0.203725
-0.0125141
-0.10513
0.00319576
-0.349439
-0.346348
-0.143645
0.00445526
-0.0479821
-0.293003
-0.141061
-0.0123201
-0.321176
-0.31509
-0.0881234
-0.109587
0.00308025
-0.154897
-0.0949359
-0.172494
-0.0168906
0.0261133
-0.0102444
0.0025375
-0.342149
-0.0159552
0.00333467
-0.0192763
-0.316421
-0.351705
0.0110351
-0.164286
0.00225248
0.00206108
-0.343183
-0.24196
-0.32906
-0.239639
-0.34299
0.0120584
-0.354147
-0.134409
-0.0327549
-0.00537262
0.00171435
-0.0194061
-0.25477
-0.0125432
0.00626298
0.0149237
-0.323583
-0.215586
-0.016845
-0.0611373
-0.331053
0.00108604
-0.0157654
-0.0613353
-0.0110147
0.0016995
0.00419656
-0.021863
-0.0330931
-0.0491772
-0.0728293
-0.0471149
0.00790966
-0.13527
-0.325861
-0.269924
-0.227475
-0.256236
-0.329786
-0.324472
-0.0246866
-0.265722
0.0167764
0.000827665
0.00343179
-0.101559
-0.0149127
-0.0479605
-0.0617298
-0.0124123
-0.0733951
-0.0225172
-0.00785505
-0.008878
-0.31254
-0.341275
-0.022145
-0.00543779
-0.0292746
-0.0566152
-0.330627
-0.061318
0.00490504
-0.12352
-0.14368
-0.0715115
0.00362417
0.00333172
0.0034808
-0.310251
-0.213744
-0.323123
-0.302839
-0.000298511
-0.110945
-0.143437
-0.102972
-0.0165668
-0.202734
0.00332876
-0.103695
-0.0676146
-0.00608267
0.00426906
0.00221159
-0.359145
-0.00142781
-0.150665
-0.215684
0.00243367
-0.0159799
0.00393312
0.00382691
0.00399272
0.00714129
-0.0617028
-0.264233
-0.1471
-0.0559999
0.0037446
-0.0772514
-0.331632
-0.31261
-0.000291004
-0.045597
0.00332873
0.00155409
-0.000436755
-0.00801211
0.00196946
-0.117268
-0.0620147
-0.0616455
-0.335577
-0.000303392
-0.0347536
-0.159974
-0.00281642
-0.00684556
-0.19689
-0.0133455
-0.00639674
-0.0462323
-0.310956
-0.300042
-0.00569589
-0.0124427
-0.0159544
0.00375107
0.00163777
-0.23997
-0.028912
0.00158278
-0.0414985
-0.198794
-0.3104
0.00236078
-0.0261148
0.0020075
-0.33639
-0.271318
-0.0444886
-0.0538059
-0.122449
-0.00260168
-0.168051
-0.0101296
-0.0500257
-0.00843433
-0.289125
-0.255153
-0.238947
-0.0119777
-0.22245
-0.0152662
-0.343444
-0.330974
-0.0618978
-5.48208e-05
-0.303396
0.0101816
-0.264373
-0.0473695
-0.273994
0.0181331
0.0244069
-0.0432274
-0.348025
-0.225191
-0.0395111
-0.00989824
-0.00893062
-0.323657
-0.272072
-0.0247366
-0.00590896
-0.243398
-0.292896
0.0068917
-0.303606
-0.268516
-0.344639
-0.266581
-0.297573
-0.312734
-0.342132
0.000936727
-0.274766
-0.265511
-0.0172576
-0.143384
-0.00480693
-0.358794
-0.0308251
-0.0543612
-0.3488
-0.0486124
-0.341537
-0.202882
-0.0668317
-0.00657013
-0.287711
-0.208479
-0.322045
-0.0647824
-0.0303831
-0.0719015
-0.0257932
0.00500331
-0.350307
0.00835684
-0.0567777
-0.130904
-0.0557762
-0.252904
0.00467735
0.00349901
-0.348293
-0.00890784
-0.0336346
-0.0297017
-0.0252385
-0.0191178
-0.0472989
-0.0203319
-0.329027
-0.331133
-0.0195828
-0.161869
-0.276695
-0.11713
-0.275578
-0.00741069
-0.0234504
-0.0441647
-0.0476609
0.00320787
-0.0180944
-0.0604301
0.0025954
-0.188291
-0.345974
0.00264028
0.0142767
-0.18989
-0.23403
-0.305478
-0.092775
-0.0550384
0.000512386
-0.197789
-0.359902
-0.0078056
-0.30373
-0.00621961
-0.297988
-0.10567
-0.0320624
-0.214996
-0.226373
0.00328535
-0.0297867
0.0295427
-0.154165
-0.258874
-0.347788
0.000924449
-0.319872
-0.291018
-0.0540953
0.00342016
0.00292154
-0.0196916
-0.218292
-0.205708
-0.0602145
-0.302275
-0.36102
0.0226291
-0.0180752
-0.236581
-0.218965
0.00340211
0.000109431
-0.0224051
-0.334654
-0.090691
-0.267118
0.00085379
-0.0482229
-0.0728131
-0.326829
-0.300568
-0.00672976
0.00584349
0.00242086
-0.283551
-0.0738342
-0.349451
-0.324523
-0.251981
-0.250163
0.00399271
0.00516494
-0.325406
0.00112663
0.0013985
-0.018554
0.00228643
-0.0237214
-0.221177
-0.338459
-0.264441
-0.0103051
-0.0672994
0.00301469
-0.00418805
-0.193147
-0.257906
0.0147722
0.00645305
-0.244382
-0.10785
-0.00510593
-0.101074
0.00694443
-0.234739
0.00323769
-0.0883709
-0.132546
-0.2982
-0.0187413
-0.299287
-0.315875
-0.0686966
-0.157359
-0.0863422
-0.330433
-0.35452
0.00353443
-0.0120532
-0.261172
-0.328618
-0.0196902
-0.299012
-0.306466
-0.0937882
-0.318098
0.00330811
0.00298818
-0.312389
-0.32534
0.00597946
0.00193577
-0.136576
0.0204997
-0.331844
-0.344827
1.88385e-05
-0.35362
-0.0426027
0.00017737
-0.319981
-0.00418571
-0.327575
-0.207192
-0.344002
-0.277669
-0.00704762
0.00252753
-0.177101
0.00146046
-0.34273
0.0118823
-0.200789
-0.331973
-0.0248449
-0.0120899
-0.291653
-0.0781009
-0.0127431
0.0187137
-0.226289
-0.347747
0.00455055
-0.075646
-0.340537
-0.000341776
-0.0389824
-0.0729267
-0.348554
-0.117147
-0.000827503
-0.325413
-0.00120265
0.0149089
-0.0626961
-0.0878135
-0.315679
-0.0640723
-0.080822
0.0028257
-0.279927
0.00776809
-0.0309925
-0.34034
-0.339701
-0.321253
-0.147014
0.000884271
-0.272683
-0.104036
0.00602198
-0.00383826
-0.0140735
-0.23051
-0.119124
-0.0555505
-0.00588585
-0.107457
-0.104423
-0.309528
-0.347618
-0.112513
-0.257329
-0.142718
-0.197198
-0.262631
-0.000550405
-0.00177198
-0.0505784
-0.0527255
-0.261998
-0.331651
-0.266671
-0.301708
-0.313973
-0.339057
-0.184201
-0.0613064
-0.297822
-0.312416
-0.0135824
0.016661
-0.214212
-0.0356909
0.0094058
-0.308381
-0.324484
-0.348505
-0.105299
-0.103198
-0.33007
-0.218191
0.00422433
-0.0146222
-0.0336545
-0.328925
-0.276026
-0.281569
0.00216788
-0.318946
-0.307462
-0.00243287
-0.305869
0.001904
-0.120985
-0.230656
-0.0578249
-0.0113069
-0.301552
-0.086448
-0.055198
0.0119666
0.00394918
-0.0522635
-0.349966
-0.328869
-0.340023
-0.00907115
-0.271735
0.00425977
-0.169803
-0.315242
-0.0258964
-0.247323
-0.00827281
-0.338316
-0.098538
-0.323619
0.00421301
0.00456293
0.0042193
-0.286479
-0.0647325
-0.06639
-0.314887
-0.0890495
-0.348235
-0.342438
-0.330432
-0.240752
-0.0675678
0.00638181
-0.330814
-0.0145305
-0.0396785
-0.246434
0.0015453
-0.341721
0.00751016
-0.0837632
-0.338171
-0.254546
0.00437585
-0.28538
-0.306878
0.000830333
-0.332561
-0.0624812
0.00928746
-0.030647
-0.240425
-0.323694
-0.331917
-0.330118
-0.00295081
-0.00816235
-0.305897
0.00601903
-0.308317
0.00383032
-0.321451
0.00127963
-0.259748
-0.0169064
-0.340572
-0.0546556
0.00736899
-0.293904
0.00242116
-0.322419
-0.136682
-0.0114566
-0.0508468
0.00327254
-0.0385984
-0.344843
-0.330331
-0.0585477
-0.124664
-0.324502
-0.301657
-0.323719
-0.0179335
-0.0612881
0.00627036
-0.0714143
0.00394412
-0.0721938
-0.233924
-0.306323
-0.0713678
-0.35189
-0.158843
-0.258953
-0.337375
-0.118979
-0.0623339
-0.347531
-0.271208
-0.109118
-0.113824
-0.312165
-0.242343
-0.000366993
-0.333201
-0.0258294
-0.230843
-0.349982
-0.351112
-0.33032
-0.334509
-0.338402
0.00573506
-0.346746
-9.94315e-05
-0.339545
-0.0918792
-0.0382296
-0.0827691
-0.358466
-0.35321
-0.0321687
-0.0442983
0.00495791
0.00544001
0.00369138
-0.0120115
-0.212896
-0.0571466
-0.339737
-0.325721
-0.241526
-0.310693
0.00924219
-0.329481
-0.157797
-0.227851
-0.33429
0.0036389
-0.358825
-0.322994
0.00121051
-0.342495
-0.355953
0.00068435
-0.351615
-0.0645248
-0.103486
-0.0100431
-0.331662
-0.23498
-0.142312
-0.344771
-0.339529
-0.0260608
-0.292762
-0.0262834
0.00768565
-0.25488
0.00964023
-0.345407
-0.0701757
-0.33455
-0.0226121
-0.277007
-0.0872453
-0.296118
-0.00704861
-0.0233194
-0.246828
0.00841559
-0.338812
-0.339852
-0.0986842
-0.239222
-0.337929
0.00236612
-0.315214
-0.24827
-0.0878672
-0.341096
-0.066859
-0.282733
-0.00106527
-0.020952
0.0023219
-0.205953
-0.345582
-0.298471
-0.300956
-0.270247
-0.0166161
-0.218292
-0.0129944
-0.0158772
-0.277652
-0.348561
0.00401854
-0.327064
-0.0577721
-0.296392
-0.35107
-0.324114
-0.317449
-0.158577
-0.35584
0.00561665
-0.209128
0.00426042
0.00332473
-0.310019
-0.212268
-0.00122498
-0.00696201
-0.00252606
0.00246995
0.00218667
-0.0814614
-0.348693
-0.298847
-0.013365
0.00892576
-0.326331
0.00698291
-0.0413777
-0.347993
0.00236033
0.00507221
-0.0127149
-0.285098
-0.0759533
-0.00792025
-0.0107873
-0.0791593
-0.294764
0.00258736
-0.283801
-0.250111
-0.345886
-0.166652
-0.130053
-0.350544
-0.299317
-0.344286
-0.0721082
-0.0159097
-0.343007
0.000348492
-0.353928
-0.0508435
-0.335554
-0.273457
-0.00991403
-0.348926
-0.350431
-0.254809
-0.249912
-0.348225
-0.348988
-0.354134
-0.0171027
-0.01996
-0.223715
-0.31337
-0.351444
-0.00775923
-0.200024
0.0299235
-0.358147
-0.308451
-0.266272
-0.00728028
-0.0381423
0.00198323
-0.0521796
-0.224539
-0.162578
0.00334769
0.00517936
-0.219172
-0.348759
-0.215125
-0.220125
-0.307229
-0.000616752
-0.0185709
-0.358102
-0.0121666
-0.000316491
-0.310896
-0.170863
-0.0512779
-0.239177
-0.335448
-0.210395
-0.302528
-0.213204
-0.310508
-0.10476
-0.345525
-0.339926
-0.35221
-0.194428
-0.300087
-0.0176681
-0.333215
-0.300478
-0.348994
-0.241716
-0.347554
-0.242067
-0.305192
-0.0901971
-0.0086502
-0.0746285
0.0150844
-0.34755
-0.35726
-0.250165
-0.0249202
0.00117291
-0.254938
-0.263923
0.0203789
-0.0558437
0.00291575
-0.323927
-0.0307247
-0.0578213
-0.351465
-0.0913245
-0.119457
-0.282648
-0.0856863
-0.358681
0.00227056
-0.247668
-0.338549
-0.0400843
8.31062e-05
-0.0182337
0.00336425
-0.0290599
-0.0174344
-0.0289641
0.0028432
-0.268291
0.00990054
-0.359814
-0.260037
-0.340903
-0.254581
-0.359263
-0.266151
-0.0285785
-0.00122604
0.0158696
-0.146125
-0.347526
-0.320357
0.00192057
-0.2408
-0.116604
-0.0108574
-0.311348
-0.0142263
-0.349013
-0.245833
-0.235139
-0.139123
-0.314409
-0.27774
-0.0285609
-0.217071
-0.249319
-0.00349928
-0.244415
-0.256021
-0.0220141
-0.297149
-0.352453
-0.288612
-0.307803
0.00448804
-0.320288
-0.322966
-0.299443
-0.124693
-0.355784
-0.0430664
-0.194543
-0.213338
-0.0192434
-0.214037
0.000926322
-0.0145762
-0.276567
-0.00114785
-0.339501
-0.296832
-0.0450265
-0.262908
0.00240194
0.00661475
-0.264091
-0.00908036
-0.0299213
-0.345347
-0.0624783
-0.0800735
0.0175248
-0.267637
-0.315502
-0.199904
-0.333099
0.0181175
-0.212191
-0.235016
-0.311705
-0.0266974
0.00061524
-0.344086
-0.355654
-0.147118
-0.135031
-0.143672
-0.207016
-0.0251358
-0.0173434
-0.307319
-0.244893
-0.354308
-0.0222752
-0.0763876
-0.359039
-0.316208
-0.00221241
-0.210892
-0.26023
-0.0295416
0.000329429
-0.0803015
-0.344953
-0.0516799
-0.327317
-0.34849
-0.0505828
-0.166758
-0.267653
-0.154775
-0.0855176
-0.285587
0.00110757
-0.0595281
-0.261455
-0.0194725
0.0112228
-0.129103
-0.185961
-0.20725
-0.199445
-0.292466
-0.038949
-0.0822531
-0.0667053
-0.0623962
-0.358015
-0.342736
-0.00723409
-0.0214761
-0.000326285
-0.0444598
-0.0588661
-0.305436
-0.255272
-0.0796678
-0.0959083
-0.178847
-0.236457
-0.244286
-0.321622
-0.00701554
-0.27548
-0.0317156
-0.328913
-0.273387
-0.0343998
0.00329484
-0.0493059
-0.318451
-0.237681
0.00917667
-0.32086
-0.259722
-0.018055
0.00116074
-0.319633
-0.276795
-0.00380744
-0.207866
-0.302381
-0.239801
0.0014494
-0.156706
-0.0584115
-0.216791
-0.203006
-0.245076
-0.351917
-0.157455
0.00670848
0.00230507
0.0101861
-0.316648
-0.248532
-0.310395
-0.073743
-0.00114519
-0.196504
-0.153597
-0.0109556
-0.137093
0.000213785
-0.0293992
-0.00185502
-0.347008
-0.112136
-0.053763
0.00346859
-0.00911778
0.000204398
-0.327532
0.00319675
-0.0449713
-0.0450312
-0.344667
-0.349814
-0.0367142
0.00195794
0.00184158
0.0240982
-0.185793
-0.353105
-0.198784
-0.284656
-0.348406
-0.150145
-0.0545186
-0.309526
-0.00728952
-0.259767
-0.192826
-0.139441
-0.0508951
-0.157782
-0.147505
-0.319385
-0.02585
-0.0722195
-0.328374
-0.0894643
-0.33735
-0.102393
0.00854121
-0.181629
-0.0652301
-0.0445587
-0.322197
0.00694222
-0.0183554
-0.0256498
-0.158239
0.000432191
-0.0165524
-0.353345
-0.0158284
-0.0307209
-0.273993
-0.0974452
-0.16043
0.00807592
-0.306569
-0.104811
-0.0620247
-0.0907562
-0.0189154
-0.323189
-0.234853
-0.00448724
-0.0474673
-0.150637
-0.263942
-0.109921
0.00241204
-0.0439225
-0.0720594
-0.0268827
-0.221356
-0.0631674
-0.268553
-0.0653139
-0.0395651
-0.188963
-0.315199
-0.229205
-0.296402
-0.32983
-0.166566
0.00329845
-0.168815
0.003018
-0.227238
-0.0917922
-0.040174
0.00932735
-0.0190083
-0.212312
0.00470935
0.00570014
-0.0484083
0.00439489
-0.011836
-0.0144387
0.00470556
-0.20125
-0.00773563
-0.00310229
0.0014991
-0.334482
-0.0605435
-0.118512
-0.121964
-0.213234
-0.215009
-0.216845
-0.173125
-0.352273
0.00278019
-0.158951
-0.32735
-0.0666495
-0.213047
-0.212874
-0.0596119
-0.193903
0.00714235
-0.330968
-0.0563542
-0.163825
-0.200064
-0.202258
-0.127997
-0.0228092
-0.202472
-0.241753
-0.201361
-0.066412
-0.100209
0.00445918
-0.080987
-0.0704146
-0.0613441
-0.325652
-0.292598
-0.060025
-0.334781
-0.0104634
-0.171689
-0.0206984
-0.224944
-0.293241
-0.351522
-0.117689
-0.0570977
-0.0661929
-0.0687397
-0.0119127
-0.120253
-0.12619
-0.103799
-0.172079
-0.0961671
-0.2088
-0.355951
0.00062677
-0.0661441
-0.00698592
-0.00989076
-0.0952333
-0.065394
-0.0475771
-0.331549
0.0179863
-0.0761478
-0.209325
0.0142253
-0.0996647
-0.335343
0.00203525
-0.0513677
-0.0279779
-0.196265
-0.0932298
-0.330923
-0.000609647
-0.0114008
-0.0292725
-0.107287
0.00203435
-0.222202
-0.0530046
-0.0969479
0.00964739
-0.194824
-0.268771
-0.00122773
-0.344974
-0.101324
-0.00471804
-0.0816324
-0.0309082
-0.0658055
-0.0214838
-0.301431
-0.0651651
-0.262349
-0.0410627
-0.326985
-0.216506
-0.104897
-0.333641
0.00168891
-0.266411
-0.0206849
-0.251282
-0.0608546
-0.0174193
-0.338327
0.00604871
-0.259834
-0.238795
-0.0467757
-0.000577324
-0.19083
0.0168202
-0.27062
-0.333341
-0.346623
0.00175416
-0.257039
0.00187224
-0.0455908
-0.0899882
-0.310158
-0.329087
-0.0418893
-0.0125098
-0.100945
-0.0960391
-0.079376
-0.0379245
-0.0277169
-0.327143
0.00237425
-0.0630158
-0.064249
-0.0644272
-0.100188
-0.0610297
-0.333501
-0.0201153
-0.0580162
-0.0235059