/*--------------------------------*- C++ -*----------------------------------*\
| =========                 |                                                 |
| \\      /  F ield         | OpenFOAM: The Open Source CFD Toolbox           |
|  \\    /   O peration     | Version:  v2012                                 |
|   \\  /    A nd           | Website:  www.openfoam.com                      |
|    \\/     M anipulation  |                                                 |
\*---------------------------------------------------------------------------*/
FoamFile
{
    version     2.0;
    format      ascii;
    class       volScalarField;
    location    "250";
    object      k_0;
}
// * * * * * * * * * * * * * * * * * * * * * * * * * * * * * * * * * * * * * //

dimensions      [0 2 -2 0 0 0 0];


internalField   nonuniform List<scalar> 
13749
(
0.0145077
6.48622e-05
8.8263e-05
7.21607e-05
0.0394824
4.6276e-05
0.0235746
8.39491e-05
0.000161296
7.17622e-05
4.64451e-05
8.9144e-05
8.83832e-05
0.0255894
7.67197e-05
0.0257581
8.27719e-05
8.31782e-05
0.00484963
5.21434e-05
0.0308928
0.0422051
6.10989e-05
9.22559e-05
9.29551e-05
4.62319e-05
7.79002e-05
0.000120462
0.0453384
0.0286795
0.000182137
7.35097e-05
0.000166066
7.6876e-05
0.00996073
0.0269717
0.043772
7.9011e-05
0.00984186
0.0224814
8.4521e-05
0.000181496
6.59686e-05
0.0431776
5.15552e-05
6.52001e-05
5.0461e-05
7.08236e-05
0.000100425
8.30946e-05
9.25559e-05
5.13582e-05
0.0206041
6.84222e-05
8.38358e-05
0.0275779
0.0443283
9.42071e-05
5.11125e-05
0.000128255
7.32532e-05
0.000584943
7.18568e-05
5.76752e-05
0.000113829
0.00673096
9.19488e-05
0.000170576
0.0233727
0.0135874
9.29786e-05
0.000928822
8.08043e-05
0.038818
8.44413e-05
0.0381377
7.28469e-05
4.44252e-05
0.0243752
6.52237e-05
0.000488032
9.34445e-05
9.4764e-05
5.0024e-05
0.0482633
5.93636e-05
0.0176854
9.20243e-05
0.0331339
0.000112389
6.94442e-05
0.000577936
4.62529e-05
9.55108e-05
8.39941e-05
0.0349785
0.0239246
9.60276e-05
0.0317166
5.1092e-05
7.33739e-05
0.0224455
7.82876e-05
0.000171881
4.63104e-05
8.61098e-05
6.91651e-05
0.00267569
4.45538e-05
0.0301527
7.86989e-05
0.00213693
0.0202257
8.34958e-05
0.000115676
0.000136557
7.24088e-05
8.92276e-05
0.000121919
8.30519e-05
6.80607e-05
8.49595e-05
4.58266e-05
6.35809e-05
5.07419e-05
0.0464737
9.1563e-05
8.44642e-05
6.34311e-05
0.00946246
5.03649e-05
0.0180143
0.000122088
0.0306875
0.000184995
0.0425087
0.0299526
0.000125049
4.54262e-05
6.14099e-05
0.0316467
5.13026e-05
6.80638e-05
0.0124479
7.83447e-05
4.47974e-05
0.0336905
0.0227652
0.038233
0.0430006
5.1165e-05
0.0304721
4.58057e-05
0.000369032
0.0475712
8.54505e-05
0.0173487
0.000374923
7.44345e-05
7.58517e-05
8.82672e-05
4.607e-05
8.17858e-05
4.94861e-05
0.000455559
8.77072e-05
5.08833e-05
7.86351e-05
0.0394233
0.00033682
7.94891e-05
4.59828e-05
0.0451667
0.0308432
0.000126983
8.77183e-05
0.000192837
0.00057131
0.00012036
0.0398513
9.07712e-05
8.45358e-05
0.000200224
0.0129352
8.81313e-05
6.13698e-05
6.80635e-05
5.53081e-05
0.00874024
7.0845e-05
0.0392764
0.000825363
8.72733e-05
8.7686e-05
5.91108e-05
5.49579e-05
0.000121818
9.71465e-05
0.000102775
0.00168295
0.0243887
8.8138e-05
0.0478256
0.0212522
6.9606e-05
0.0167122
0.000180626
0.0446025
5.0586e-05
5.08185e-05
8.47349e-05
0.0103463
9.44889e-05
6.63299e-05
0.0195232
0.00818041
8.80398e-05
0.0240269
8.49689e-05
6.81762e-05
5.05083e-05
0.0294641
0.000170196
9.08459e-05
0.0095703
0.0389312
0.0125006
5.00464e-05
0.016617
6.77477e-05
0.0096539
0.0109497
6.73222e-05
4.59776e-05
8.18745e-05
4.45822e-05
0.0333043
6.79885e-05
0.000359993
4.56133e-05
0.0183328
0.00013087
6.81541e-05
7.02666e-05
4.72875e-05
4.83161e-05
7.11165e-05
6.66546e-05
0.00314263
0.000813701
7.90972e-05
5.96124e-05
0.0373135
0.0279046
8.23459e-05
4.75422e-05
0.0316459
0.000149784
8.45381e-05
6.39161e-05
0.0191429
0.0461126
7.91551e-05
9.44481e-05
6.44931e-05
4.45398e-05
4.49686e-05
0.00075322
0.041218
8.8668e-05
5.09459e-05
8.69428e-05
0.0287977
0.0226403
7.13355e-05
0.0237565
0.0064676
9.33313e-05
0.0405621
7.82341e-05
0.00433179
0.0123458
0.0327434
8.7544e-05
0.0125082
8.84964e-05
0.000280237
0.000477049
6.37375e-05
0.0159262
0.0376315
0.000159187
8.41491e-05
9.39887e-05
0.0465264
0.0453005
6.09405e-05
8.39243e-05
0.0180811
8.6038e-05
0.0472651
0.00033865
0.0367437
8.6236e-05
0.000124132
0.0407279
0.0415401
6.53563e-05
0.0400218
6.1075e-05
6.30218e-05
9.49368e-05
0.0135293
0.000103703
9.80087e-05
7.20587e-05
0.00165916
6.31811e-05
0.000178552
5.17902e-05
6.77454e-05
6.81817e-05
8.65849e-05
0.0067141
8.05508e-05
8.70976e-05
0.0341216
6.75592e-05
7.28573e-05
0.0415036
0.051448
8.19313e-05
5.88488e-05
0.0151378
8.43476e-05
6.96772e-05
0.00639696
8.3455e-05
0.0266935
0.020729
4.43232e-05
0.0324293
0.0156689
8.90879e-05
4.75125e-05
0.00010522
9.52396e-05
9.48254e-05
7.39347e-05
0.00858648
8.69768e-05
0.0247707
8.07296e-05
5.50656e-05
9.99397e-05
0.000100428
9.02191e-05
7.13361e-05
9.44911e-05
0.0048297
7.47441e-05
6.93597e-05
0.000117777
0.0384063
4.75608e-05
0.000506841
5.78605e-05
0.000132197
8.42251e-05
7.93364e-05
0.0010264
4.64119e-05
8.31563e-05
0.00379809
8.10711e-05
6.47753e-05
4.94482e-05
6.86099e-05
0.0416495
0.000103793
7.84738e-05
5.09478e-05
6.13197e-05
0.0134818
0.000103233
0.00656792
0.0317055
0.000136538
0.0256413
0.032691
8.6107e-05
7.42031e-05
6.84566e-05
0.009817
0.0282464
6.82123e-05
7.06313e-05
8.00172e-05
0.0357764
5.07125e-05
0.00010383
8.09542e-05
0.000584837
0.000307456
0.00479717
0.0101364
0.053118
7.48775e-05
0.00154885
0.0150427
4.56416e-05
0.00153528
7.79828e-05
0.00703488
4.45506e-05
0.0131116
0.0409814
8.39459e-05
0.0219506
0.032743
7.10254e-05
9.31982e-05
0.0397334
9.28418e-05
7.71407e-05
8.72437e-05
4.88875e-05
7.71787e-05
8.96071e-05
7.95591e-05
0.000118707
7.37774e-05
6.47915e-05
6.08457e-05
8.09061e-05
8.04914e-05
7.96387e-05
0.0112639
0.000333383
0.000224448
0.0127772
0.0320521
9.45171e-05
0.0281231
0.019729
0.0296265
8.53496e-05
8.29478e-05
0.033964
0.00707714
0.000111477
0.00186257
4.4716e-05
5.01514e-05
8.80791e-05
9.32659e-05
9.05916e-05
0.0354533
0.0319817
0.0540063
4.98053e-05
7.02936e-05
0.0174377
5.11704e-05
0.0351228
0.00850849
8.25648e-05
9.5991e-05
0.000116527
0.0303063
9.3151e-05
0.030012
6.87057e-05
8.37176e-05
5.28394e-05
0.0217625
0.000423698
0.000325416
9.08479e-05
0.0148051
6.22191e-05
9.20199e-05
7.05683e-05
6.13231e-05
7.08722e-05
5.00051e-05
7.57665e-05
8.27104e-05
8.48691e-05
0.0192847
5.93471e-05
0.000141426
0.000133187
6.44472e-05
0.048673
0.0331718
0.0395954
7.69227e-05
0.000100552
0.000102199
0.0119257
6.76249e-05
9.84743e-05
5.08452e-05
0.0467246
8.06415e-05
5.9651e-05
0.0200723
0.0244644
8.26282e-05
0.0086334
0.0359356
9.62442e-05
0.0247257
0.0236947
5.59603e-05
0.0360573
6.24428e-05
0.0398332
0.00660602
6.30088e-05
8.56142e-05
0.0198958
9.16625e-05
7.01643e-05
0.0368778
0.0523739
0.00942853
9.65953e-05
0.0146507
8.81533e-05
8.20279e-05
0.0286376
0.0209979
9.79209e-05
0.036551
0.0315752
6.51299e-05
0.0407652
9.0498e-05
7.19588e-05
0.0365217
0.0324141
8.90228e-05
7.86298e-05
0.0466312
8.90807e-05
8.25376e-05
0.0392737
0.0214167
0.0469532
7.94267e-05
0.043049
0.000101962
0.0171663
5.50504e-05
0.00014854
0.035517
7.67632e-05
8.94433e-05
7.97851e-05
0.0305339
0.00994515
4.45946e-05
0.000209115
7.18406e-05
0.0142667
0.00742023
9.03701e-05
0.000109213
8.99674e-05
8.10235e-05
0.0439059
0.000167944
9.19539e-05
0.0317077
0.000107754
0.0371695
8.90224e-05
7.01604e-05
0.0147055
9.47449e-05
9.69619e-05
0.0346695
8.24802e-05
0.0102881
0.00824699
9.19554e-05
0.046044
9.49943e-05
0.0249834
0.000129854
0.00876846
0.000299997
0.000394271
0.0133039
0.000103521
0.0496738
0.0403444
7.76578e-05
0.0139488
8.33288e-05
0.0441866
0.0382465
0.0309768
0.031409
8.17336e-05
4.94126e-05
8.58335e-05
0.00847912
8.99352e-05
8.87353e-05
9.532e-05
0.000606957
0.000115477
0.00018045
7.74615e-05
0.000115499
0.0264532
8.35439e-05
7.04439e-05
0.0186195
6.59809e-05
8.7064e-05
0.00810012
7.77363e-05
0.0408123
8.11822e-05
6.76352e-05
4.46363e-05
6.88755e-05
0.0240283
0.000379416
0.000160576
0.00010998
0.0388073
4.74877e-05
6.86436e-05
7.94854e-05
0.0324732
0.000129545
0.0243593
0.0247772
0.029048
5.08212e-05
0.0362641
7.1627e-05
0.00360902
7.79637e-05
0.000106509
0.0464272
0.000956722
0.0121826
0.000160177
8.42165e-05
0.000120184
7.29425e-05
0.000328446
0.0104014
0.00948118
6.83508e-05
0.00960788
0.0393352
0.0353276
0.0293228
0.0342914
0.0380247
0.0269361
8.31984e-05
9.81958e-05
0.00011734
9.69099e-05
6.86346e-05
5.75194e-05
8.8241e-05
8.72585e-05
0.00211158
9.23393e-05
0.0371795
0.0125661
4.83111e-05
7.86078e-05
0.0257333
0.0404939
0.0186093
8.38757e-05
0.0256775
9.03245e-05
8.55878e-05
0.0257887
0.000117791
0.0486379
5.02717e-05
4.44358e-05
0.0492296
7.25909e-05
0.0486715
5.50578e-05
0.0480874
9.87816e-05
7.77006e-05
4.88476e-05
0.000137946
5.86108e-05
0.0493529
8.65453e-05
0.00859838
0.00793264
4.97508e-05
8.58702e-05
0.0100866
0.0252255
8.21904e-05
0.0269588
5.65854e-05
6.98441e-05
9.04254e-05
0.0149599
0.0391357
0.00761387
6.01265e-05
7.44132e-05
0.00166648
8.70412e-05
7.9545e-05
0.0092569
6.88293e-05
0.026725
7.17522e-05
0.0385199
0.011272
8.43944e-05
0.046783
0.0399318
0.000113198
8.43328e-05
0.0155063
0.000264169
0.0131184
9.1703e-05
0.000368739
0.00526595
6.72694e-05
0.000168799
7.30046e-05
0.0321091
0.000154538
4.99005e-05
7.96444e-05
8.63142e-05
0.00598102
9.07976e-05
6.98871e-05
9.34129e-05
0.030678
8.70425e-05
4.82881e-05
8.46643e-05
0.040506
6.2523e-05
6.85485e-05
5.58658e-05
0.00309225
8.45063e-05
0.0370271
0.000101409
0.037971
0.0356718
0.000113832
0.0389916
4.61854e-05
0.0329377
7.52393e-05
8.85554e-05
7.95082e-05
0.000316924
0.00792515
0.0274253
0.0312601
0.00441082
5.18292e-05
0.0030299
0.0284665
4.61683e-05
9.80307e-05
6.4515e-05
7.94873e-05
5.42991e-05
6.68246e-05
0.0312131
6.67706e-05
5.50349e-05
6.68761e-05
6.13184e-05
6.54469e-05
0.014307
0.000693442
0.0208745
0.0327083
0.0290662
0.0387629
0.0227166
6.01831e-05
0.0245054
8.87819e-05
0.000787872
8.91421e-05
5.78225e-05
0.0464869
7.18354e-05
0.000182626
5.79316e-05
0.0304817
0.0327499
4.68426e-05
0.0444403
8.62404e-05
0.0278096
0.0351372
6.39163e-05
8.5625e-05
4.77322e-05
0.000113074
0.00019945
0.000313236
5.05661e-05
5.45795e-05
4.68333e-05
0.00010811
0.040068
9.85587e-05
0.00100983
0.0460681
9.21955e-05
0.0521983
7.46049e-05
0.00775914
7.45019e-05
6.68897e-05
8.00389e-05
0.040148
8.78097e-05
0.00338734
0.000157507
4.53549e-05
9.39584e-05
8.67408e-05
0.0407888
0.0408777
7.76659e-05
6.00857e-05
0.0482764
0.00205592
4.65737e-05
7.44103e-05
8.24489e-05
7.38785e-05
5.53342e-05
0.0422052
4.85678e-05
0.00011326
0.0330277
0.0119319
0.00908977
9.13983e-05
0.0279113
0.000178022
0.0239427
0.0397526
8.81145e-05
9.04298e-05
0.000713493
8.50395e-05
7.06214e-05
0.00028211
6.62644e-05
0.000258343
9.41423e-05
6.48517e-05
0.0240148
8.06762e-05
8.5945e-05
8.76769e-05
4.8019e-05
8.25258e-05
0.0440947
7.97835e-05
9.3431e-05
0.0191102
0.00610175
7.39384e-05
0.000208963
0.0346272
4.46056e-05
7.89375e-05
0.000107967
9.05221e-05
0.0433363
7.79135e-05
0.000162846
8.73079e-05
0.000198125
5.09648e-05
6.43505e-05
5.91933e-05
9.25984e-05
9.33777e-05
8.94722e-05
9.36813e-05
8.56281e-05
7.83069e-05
8.87669e-05
9.16778e-05
8.07613e-05
6.76741e-05
0.000103209
4.4443e-05
0.0348826
7.87149e-05
8.72752e-05
0.0419736
0.000129567
5.05341e-05
6.69831e-05
8.6476e-05
4.70735e-05
0.000343561
0.0404466
7.40606e-05
8.76463e-05
0.0190928
0.000282403
0.00192338
6.6996e-05
0.0244798
4.55104e-05
0.0440921
7.6254e-05
0.0313939
6.8355e-05
0.000103826
8.75604e-05
9.00927e-05
0.0303542
0.0212168
4.70547e-05
0.0156534
0.028644
9.11844e-05
8.60061e-05
0.0256919
0.00809254
4.80485e-05
9.44047e-05
4.72863e-05
9.52738e-05
4.51234e-05
0.0259611
0.0333709
8.06348e-05
0.00703102
8.37958e-05
0.030948
0.000101165
6.0698e-05
4.73173e-05
8.74158e-05
0.024154
7.44329e-05
8.76904e-05
7.72244e-05
0.000325584
8.8564e-05
0.0351307
4.83834e-05
4.85966e-05
0.00027206
0.0394783
4.45777e-05
0.0440304
0.0297655
4.47688e-05
4.45253e-05
4.47034e-05
6.1083e-05
7.81563e-05
0.00165601
0.00751729
0.0200965
4.72764e-05
0.0246131
8.86195e-05
9.23104e-05
9.11734e-05
6.33842e-05
8.80898e-05
5.62001e-05
0.000183577
7.27352e-05
0.0300266
8.31573e-05
5.76514e-05
9.26646e-05
0.0125541
4.91365e-05
9.86067e-05
4.63973e-05
0.0295311
9.20332e-05
0.0291463
0.046634
8.41202e-05
0.0511921
0.0103237
0.0372066
0.0386573
5.02471e-05
4.63866e-05
0.0371799
0.00674358
0.0283192
0.0242883
8.94364e-05
6.2547e-05
0.0115222
8.79598e-05
0.000127409
8.96207e-05
8.96154e-05
0.0353084
0.0149113
8.41918e-05
7.50743e-05
0.000229379
0.0447402
0.00160441
0.0459779
4.68427e-05
0.000144213
4.86251e-05
8.96327e-05
0.0158206
4.99396e-05
0.0393658
9.05625e-05
0.0381155
7.85083e-05
9.3763e-05
0.00656617
0.00598668
0.0155083
0.026474
4.53227e-05
7.8618e-05
5.97073e-05
0.0429789
0.0480807
8.78803e-05
7.39758e-05
0.000102869
0.033264
9.25132e-05
8.28594e-05
4.82122e-05
7.78016e-05
5.88552e-05
4.53151e-05
9.17211e-05
6.40183e-05
6.64097e-05
0.00153814
8.86366e-05
0.00667565
8.59302e-05
9.1886e-05
0.00176379
5.57739e-05
0.0273518
5.73967e-05
0.0098331
8.37691e-05
8.3416e-05
7.79442e-05
0.0278912
7.96483e-05
7.90995e-05
0.00214245
0.000133091
0.000122852
0.0380899
9.35232e-05
6.47866e-05
0.00944545
5.67265e-05
5.95689e-05
5.7561e-05
7.93214e-05
8.87024e-05
9.09028e-05
0.00786103
0.0161424
0.0546616
9.50318e-05
4.88639e-05
9.49958e-05
0.00403589
0.0391726
6.86397e-05
0.0111421
0.000154685
0.0339369
6.34855e-05
4.66161e-05
6.31422e-05
0.0279969
6.42393e-05
9.41386e-05
0.0130495
8.33497e-05
7.37413e-05
0.0323514
4.86056e-05
8.31961e-05
9.04528e-05
0.0313581
0.00559176
0.0292112
0.0333656
0.00016613
4.76705e-05
7.76691e-05
5.72525e-05
0.00324126
0.0429418
6.53873e-05
0.00449963
6.62987e-05
9.93519e-05
8.95349e-05
0.000123283
8.33117e-05
8.98095e-05
0.00114159
0.0214364
4.5885e-05
5.36427e-05
0.000107075
8.40084e-05
0.0133266
9.02808e-05
8.87293e-05
5.37243e-05
0.0295944
0.03503
4.60695e-05
4.94736e-05
0.0150227
6.85235e-05
0.0235765
9.04706e-05
7.42187e-05
0.0410896
0.0112716
5.34875e-05
6.09772e-05
6.69023e-05
0.0511943
8.7244e-05
0.00030401
0.00172373
9.008e-05
4.91639e-05
8.74189e-05
0.0329305
5.40051e-05
0.0215156
0.0119857
9.2479e-05
0.000150875
6.15656e-05
9.95418e-05
0.0158865
9.35449e-05
0.036701
0.0467085
7.29117e-05
6.42036e-05
7.58921e-05
8.36407e-05
0.000265709
5.35534e-05
6.29998e-05
7.75845e-05
4.66075e-05
0.00680425
7.7644e-05
0.000114993
0.000211493
7.6806e-05
0.00032919
0.0333087
5.46588e-05
7.91203e-05
6.17101e-05
0.000284965
8.93561e-05
9.24333e-05
7.31394e-05
0.0112188
7.38621e-05
0.00833638
0.0323741
0.00540863
0.0332786
8.26742e-05
0.0076322
0.0282832
5.38502e-05
4.84495e-05
0.000567785
6.03378e-05
0.0465575
9.54795e-05
0.0178129
0.0270367
6.81973e-05
0.0397717
7.60882e-05
7.73917e-05
8.30927e-05
0.0336469
0.0327059
0.0370472
0.0420022
0.0517095
8.26711e-05
0.0452985
6.32803e-05
4.99724e-05
0.000101598
7.68299e-05
0.0184046
0.00443841
0.00401618
0.000111068
0.00160127
4.65368e-05
0.037593
0.0367658
0.000116933
4.93307e-05
5.37813e-05
0.00011092
8.5175e-05
6.75813e-05
0.000392043
0.0273014
5.52575e-05
8.28124e-05
5.4993e-05
7.14553e-05
4.83365e-05
5.82444e-05
0.0283127
0.00029788
0.00524658
8.77586e-05
0.00334956
0.00025752
8.86837e-05
0.0395106
9.71746e-05
0.00645575
7.28309e-05
0.000109543
6.72413e-05
6.29063e-05
8.65495e-05
9.26684e-05
8.54279e-05
0.00275848
0.000149001
0.0258077
0.0248579
6.39784e-05
0.000165155
0.0389805
4.49147e-05
7.82945e-05
0.000117379
0.0320037
0.000109286
7.59502e-05
0.0237768
4.91811e-05
0.00910861
0.03127
5.84814e-05
8.48371e-05
0.00603808
8.40378e-05
7.26359e-05
0.000274841
0.0249271
0.000182865
0.0308561
8.40107e-05
5.49097e-05
0.0269912
8.0929e-05
0.00781727
0.000404331
9.1485e-05
0.0441356
8.92337e-05
0.00140877
9.34606e-05
0.00265095
0.0001023
9.8703e-05
4.59793e-05
0.0061543
8.76864e-05
0.00620819
0.000281113
9.8653e-05
8.82836e-05
0.000208884
8.22013e-05
0.0376543
7.10954e-05
0.000324514
0.0338213
6.3729e-05
7.866e-05
0.0411301
5.29016e-05
0.0054899
0.000340762
0.036554
9.62915e-05
4.45418e-05
9.59141e-05
7.8959e-05
9.33763e-05
0.0502163
6.56544e-05
0.00222952
9.36121e-05
9.05424e-05
7.81072e-05
4.59409e-05
0.0273746
5.95696e-05
6.90963e-05
0.0308923
0.00862692
6.74802e-05
0.000151306
0.000138413
0.0344268
5.16958e-05
9.80044e-05
6.75605e-05
0.0301824
8.22033e-05
0.000120909
8.86111e-05
0.027622
0.0268461
7.23627e-05
5.29859e-05
0.0287591
0.0343237
7.36832e-05
8.70963e-05
0.000818586
0.000266319
5.96101e-05
6.76091e-05
9.20939e-05
0.0212705
0.00015133
5.37296e-05
0.00562285
0.0340291
0.0352409
4.81154e-05
6.46866e-05
8.11265e-05
8.7512e-05
9.06554e-05
0.0504204
7.64155e-05
7.29101e-05
8.98634e-05
5.16297e-05
8.51639e-05
4.4724e-05
4.94215e-05
0.0240215
9.09239e-05
0.000118146
0.0353057
4.65351e-05
4.71252e-05
0.0347064
6.45673e-05
0.045684
5.54886e-05
5.92516e-05
8.15696e-05
0.030055
0.0378472
7.291e-05
8.53288e-05
6.99845e-05
0.00280238
5.05892e-05
6.78208e-05
8.48107e-05
7.5944e-05
6.77529e-05
4.47198e-05
7.18097e-05
6.54158e-05
0.0355527
0.0142745
0.00530816
0.000444653
9.07912e-05
8.58265e-05
8.20547e-05
0.000427769
0.0249693
0.000237464
8.65391e-05
9.19171e-05
9.69872e-05
8.70687e-05
0.0339457
9.31269e-05
6.36005e-05
6.85226e-05
0.0427122
0.052025
8.41027e-05
0.0490556
9.58655e-05
6.49409e-05
8.33296e-05
0.000317903
8.72159e-05
4.96911e-05
7.69657e-05
9.31092e-05
9.29948e-05
8.64623e-05
0.00028325
7.91384e-05
0.0331936
6.54276e-05
0.0056623
0.0338342
0.00011622
0.0277606
0.000565131
7.74052e-05
5.81151e-05
7.54908e-05
7.77992e-05
0.0138947
9.2049e-05
6.65066e-05
0.0128156
0.0208236
0.0275426
9.94654e-05
8.74122e-05
5.92564e-05
0.000201809
0.0246589
7.87993e-05
0.0344698
8.33102e-05
7.37183e-05
0.00574151
0.00193595
0.0334977
8.73199e-05
7.91012e-05
8.56506e-05
6.51215e-05
8.69241e-05
0.0391838
8.41173e-05
9.25984e-05
0.000104213
0.000111221
4.60819e-05
8.71829e-05
0.0360136
0.000184772
7.13287e-05
0.0183932
9.90848e-05
8.44347e-05
9.277e-05
7.24693e-05
7.901e-05
0.000569556
7.30593e-05
9.41357e-05
0.00652167
6.19805e-05
0.00882496
0.0214268
0.000141262
0.0363545
0.0237016
0.0257916
0.000579632
9.42406e-05
5.38153e-05
0.0340508
8.6027e-05
0.0459255
4.83903e-05
6.74713e-05
8.74128e-05
0.0353374
0.0115543
0.00573817
7.55348e-05
0.0247673
0.0370554
0.0367498
0.000158703
0.00303233
0.0254965
0.000418615
0.0249076
9.51823e-05
0.000152003
8.78395e-05
5.77823e-05
0.000185786
0.0282553
0.0057521
8.872e-05
6.94352e-05
8.20886e-05
0.0236227
0.0268702
8.69491e-05
6.45153e-05
0.000201261
0.0394318
8.76659e-05
6.6657e-05
5.92458e-05
7.62814e-05
0.00163104
0.0381507
7.43073e-05
0.0111433
6.42679e-05
6.68989e-05
9.20963e-05
0.0375404
0.00502029
8.997e-05
6.35864e-05
4.72039e-05
0.00566106
0.0265753
5.7669e-05
5.99309e-05
0.0283284
8.29954e-05
5.38413e-05
8.78594e-05
0.0346611
6.38869e-05
6.97939e-05
9.33858e-05
4.75848e-05
8.06863e-05
0.00448223
0.0337788
8.59923e-05
6.93433e-05
4.41598e-05
0.0139925
6.7756e-05
0.000212018
0.0281135
8.64345e-05
0.0389588
0.043929
0.000167921
6.20782e-05
0.000598648
0.0301078
0.000240218
6.36153e-05
9.06386e-05
9.95463e-05
0.000100185
9.26412e-05
8.09616e-05
5.39402e-05
0.00452968
0.000105227
0.0480633
8.6349e-05
8.49837e-05
0.0433491
6.05544e-05
0.0482851
0.0297258
7.30652e-05
8.80176e-05
4.91771e-05
9.36258e-05
8.62919e-05
0.03752
0.0302185
9.28677e-05
5.50117e-05
7.30881e-05
4.7328e-05
0.00241541
8.8139e-05
0.0338095
0.000109034
0.011545
0.00587705
9.15905e-05
0.024314
0.0141954
0.0312146
0.035872
7.72028e-05
6.29532e-05
4.42951e-05
0.000352113
0.0341323
5.88173e-05
0.00615377
0.0129889
0.00102748
0.0324426
6.92248e-05
0.0301138
7.609e-05
0.000976603
8.83982e-05
0.000162232
0.000493525
0.0446017
7.45689e-05
4.54588e-05
0.0359517
8.726e-05
0.00471314
8.36736e-05
0.00612043
0.0359408
6.77024e-05
8.76395e-05
0.0117656
7.15694e-05
5.68414e-05
0.0248051
0.00537455
9.35412e-05
7.30086e-05
0.047424
0.00018965
8.85774e-05
0.000123344
0.000121146
0.0277002
0.029343
0.0113717
0.00340216
0.000180462
6.93002e-05
0.000153936
0.0323155
9.41609e-05
9.50621e-05
4.69088e-05
9.02405e-05
8.67521e-05
8.8556e-05
0.000179069
0.0142295
0.0549104
0.0218189
0.040791
9.27359e-05
0.000167681
6.65851e-05
0.0319867
0.0103662
0.00612557
0.00567388
0.025264
9.51666e-05
9.79188e-05
5.67572e-05
0.0256469
8.30945e-05
6.72494e-05
8.95496e-05
8.53645e-05
0.011905
0.00328793
0.0161443
4.45949e-05
0.00600284
0.0349214
4.89273e-05
5.92107e-05
0.000142377
0.0150296
6.51374e-05
8.84657e-05
0.0357251
6.98036e-05
7.49283e-05
9.15765e-05
6.7546e-05
6.0435e-05
7.69922e-05
6.8529e-05
0.00803019
7.47941e-05
4.94172e-05
9.23767e-05
0.00547724
9.64496e-05
0.0245398
9.9541e-05
9.80585e-05
8.64751e-05
8.90209e-05
0.00811635
9.39949e-05
0.0121084
0.0356236
0.01489
0.012904
6.84268e-05
0.0434459
0.000106142
6.35176e-05
0.0340698
0.0360642
0.0252487
8.8686e-05
6.33192e-05
0.0399507
0.0285905
6.79587e-05
8.72835e-05
9.70432e-05
7.65248e-05
0.0298284
5.35368e-05
7.77613e-05
0.037819
8.83939e-05
0.0408838
9.18632e-05
6.72357e-05
8.25102e-05
7.84111e-05
0.025982
0.0187751
0.000601373
0.0230426
4.77587e-05
6.58554e-05
7.04522e-05
0.000100524
6.10151e-05
7.39402e-05
5.90852e-05
7.10222e-05
0.033993
6.46575e-05
0.0146601
0.0275399
0.00955434
0.0141715
0.000128186
8.08088e-05
8.12816e-05
0.0141527
0.0137843
9.1403e-05
0.00577403
0.0207992
0.0189839
7.42948e-05
0.0174613
7.28543e-05
8.87198e-05
6.36392e-05
6.67476e-05
8.88501e-05
0.00653516
0.0318063
0.000366866
0.0238429
0.00691611
7.64914e-05
0.026189
8.19311e-05
6.29971e-05
8.17908e-05
6.70158e-05
0.00556735
0.016754
8.9918e-05
0.0181739
0.0312098
0.0275416
8.32953e-05
5.82732e-05
0.0129822
7.80506e-05
0.0243412
0.000142702
0.000345587
0.00638087
0.0440483
0.0338247
0.0198962
0.0145716
0.000139873
0.000113585
7.79464e-05
9.07833e-05
8.81531e-05
0.0274603
8.01215e-05
0.00014343
9.29033e-05
8.33299e-05
0.052635
0.000288039
8.9919e-05
0.0319896
0.000125083
0.0271805
0.0364912
0.000117306
0.0020457
0.0289122
6.85226e-05
8.85005e-05
0.000253672
0.0307455
8.82571e-05
0.043892
9.22671e-05
0.016514
0.000168808
0.02192
6.13019e-05
0.0149614
8.78017e-05
8.46613e-05
0.0228666
9.02337e-05
7.35722e-05
0.0282308
0.015315
6.33399e-05
0.034145
8.34508e-05
0.0287056
9.68405e-05
0.0134083
7.71758e-05
0.0371116
8.88217e-05
0.00539425
0.000182785
0.0487297
8.81164e-05
0.0359564
4.93367e-05
0.000138231
9.73392e-05
6.16109e-05
0.0259172
0.000173744
7.86714e-05
0.00956975
0.00770362
8.13638e-05
0.0270226
0.00971169
9.02421e-05
0.0327976
9.76866e-05
0.0274622
9.6841e-05
0.0349919
0.028067
5.15718e-05
0.0416302
9.78289e-05
6.8719e-05
0.0192018
8.57294e-05
8.66568e-05
8.04985e-05
8.70864e-05
0.0311198
0.0201826
0.000141642
8.4678e-05
0.0452936
0.0359992
0.00877964
0.0254678
6.98004e-05
0.000170354
0.00510141
7.05997e-05
7.49567e-05
7.61861e-05
0.00148259
4.79813e-05
8.88579e-05
8.80469e-05
0.0133428
0.0103443
8.45436e-05
0.000118035
0.0282471
0.0226666
6.8657e-05
0.000299044
8.77374e-05
0.0312147
5.39107e-05
0.000323393
7.92745e-05
0.025065
9.18511e-05
0.0262233
7.9454e-05
6.81549e-05
0.0270908
0.0417564
0.0422183
8.52985e-05
9.99292e-05
5.89613e-05
8.67456e-05
0.000178093
0.000109367
6.68465e-05
0.0127782
0.0241424
0.00783683
0.00108151
0.000156018
8.96004e-05
0.000138703
0.00530949
0.000100718
0.000338985
8.48155e-05
9.10065e-05
4.83655e-05
0.0282464
0.00689149
8.22969e-05
4.96372e-05
0.0227514
8.36618e-05
0.0141901
0.0240726
0.000127845
6.02785e-05
7.29762e-05
6.90342e-05
6.60215e-05
6.76914e-05
0.0375294
0.0287742
0.000115503
8.90241e-05
4.78082e-05
0.0320192
0.0398265
0.00523639
6.83946e-05
5.92409e-05
6.52234e-05
0.000972658
4.75411e-05
9.08607e-05
6.82255e-05
8.27398e-05
6.76553e-05
7.9607e-05
0.000325305
4.93513e-05
0.0200395
9.28518e-05
9.20141e-05
8.003e-05
0.0414148
0.0346736
8.71161e-05
0.0322577
0.000875575
0.000161919
8.92016e-05
0.000123238
0.000112543
0.000451084
0.0381746
0.0300537
0.0294162
6.68091e-05
0.00516453
4.82125e-05
0.0325236
5.88664e-05
0.00438014
5.91924e-05
9.06681e-05
8.02103e-05
4.77628e-05
6.82729e-05
0.0102222
0.0284082
8.9153e-05
8.68464e-05
0.0363716
0.0373953
0.00570665
6.48509e-05
5.95597e-05
4.4872e-05
0.02941
0.00510688
0.00872581
5.71274e-05
0.0387169
8.4972e-05
6.60397e-05
0.0246664
0.0285091
0.000111974
0.0329546
0.012638
0.00040795
8.25512e-05
6.46709e-05
0.000823042
5.71745e-05
5.95224e-05
5.9372e-05
0.00011155
0.0297506
8.23703e-05
9.22518e-05
0.00159723
0.0348675
0.028371
0.0360569
0.000100774
0.011335
8.33119e-05
7.8008e-05
0.0326265
0.00626751
8.9654e-05
8.87887e-05
0.0269763
0.000299554
9.47203e-05
7.91148e-05
9.69307e-05
0.0296491
9.69912e-05
0.0220254
0.00010414
7.52094e-05
5.36594e-05
0.0315374
0.0412159
0.000846698
0.000100472
0.0473325
4.47107e-05
6.419e-05
0.0327064
0.0350157
0.000104449
0.000100134
7.56914e-05
8.65392e-05
0.0168455
0.0368728
0.0478274
0.0454073
0.000151664
7.43088e-05
0.000200621
0.0207866
7.89082e-05
8.84821e-05
9.05055e-05
0.0295104
8.01248e-05
8.41608e-05
0.0431255
0.000143374
0.0412728
0.00481496
8.49729e-05
0.000144449
8.56084e-05
6.61913e-05
0.0332746
9.37043e-05
6.48157e-05
0.0352304
8.47719e-05
6.30741e-05
4.44855e-05
0.048001
0.000264477
4.88281e-05
6.92462e-05
0.000257436
0.039438
0.034453
0.000279791
7.52698e-05
0.0506077
0.0457796
0.0339484
9.04946e-05
6.67991e-05
0.0441192
0.0345361
0.000328061
0.0205621
0.0292336
0.00014444
6.45896e-05
0.035639
0.0140116
9.98288e-05
7.39227e-05
0.030033
0.0216229
6.67469e-05
8.827e-05
0.00163482
0.0256918
0.0334543
8.42485e-05
6.99877e-05
0.036436
0.0310374
0.0150288
0.0363964
0.00669054
0.0336589
9.2975e-05
0.00764174
0.00578829
0.0414921
4.48944e-05
6.98518e-05
0.0519919
0.0155071
5.54679e-05
0.0363154
0.0225858
0.00569214
0.000460386
6.89661e-05
9.3867e-05
6.43453e-05
0.00459581
9.24991e-05
7.44665e-05
6.38816e-05
0.0354419
5.86722e-05
0.000171439
6.96638e-05
0.0244796
7.7079e-05
0.0492854
8.16899e-05
6.90933e-05
8.73484e-05
6.94385e-05
0.0288727
0.0387131
8.72595e-05
5.86834e-05
0.0266832
0.0360505
0.00036131
0.0345509
0.000262952
0.00376571
0.0336406
5.90926e-05
0.0263969
0.02644
0.000239962
7.66039e-05
0.000119924
0.0406785
0.0374862
0.041715
0.00572238
0.000102319
0.0438649
0.00565897
0.000130459
5.49301e-05
0.000945898
5.51352e-05
0.0297685
0.0158139
0.0160482
8.61521e-05
8.97744e-05
0.000168671
9.19568e-05
0.0137633
0.0251292
0.0539892
8.59976e-05
0.000151632
0.0274199
0.0222803
0.0387846
0.0380484
0.0297789
0.0044887
6.97037e-05
0.0352617
0.0407868
0.0412116
0.0365456
0.00573249
7.29349e-05
0.00010287
9.10873e-05
0.0214905
9.19469e-05
0.000100921
8.95613e-05
0.000152905
9.21193e-05
0.0236057
9.5616e-05
0.00703854
0.0402748
0.0513616
7.01885e-05
0.0319183
7.25854e-05
0.000450622
9.08427e-05
0.000470286
6.41251e-05
0.0249384
0.000114363
5.0265e-05
8.05007e-05
0.0262528
6.02556e-05
0.000101823
8.65755e-05
0.000122755
7.72605e-05
0.0207179
5.00549e-05
8.86888e-05
9.25722e-05
8.95705e-05
0.0350102
5.56905e-05
0.0136102
0.0365546
0.00218014
0.000266446
9.12565e-05
8.77606e-05
0.0424823
0.0377149
9.92773e-05
8.58834e-05
6.06306e-05
5.82901e-05
8.4263e-05
0.000318955
0.0324144
0.0276942
7.77673e-05
0.0251873
0.0423741
9.13783e-05
0.000266344
0.0526467
5.92741e-05
9.13745e-05
0.014394
0.0310169
8.96333e-05
0.00034191
5.68527e-05
0.0259264
9.17497e-05
0.0372553
0.037634
6.9689e-05
0.00011252
6.75938e-05
0.0134993
0.00420418
0.0532488
8.21377e-05
6.68544e-05
0.0269671
4.69923e-05
8.33841e-05
0.000280922
0.00562343
0.00682059
0.0371435
0.0357405
6.71619e-05
8.89853e-05
0.0428833
0.0371132
6.73029e-05
0.0292614
8.82855e-05
9.74045e-05
8.92069e-05
5.0631e-05
4.4192e-05
0.000160817
9.23584e-05
0.0503702
0.000116874
0.0117156
0.000284209
0.0169583
0.000478821
9.78582e-05
0.0357639
8.15746e-05
9.21427e-05
9.42706e-05
0.0382077
0.012896
0.000174734
0.0308547
0.0264479
0.000112507
9.26748e-05
0.0378881
4.84502e-05
0.0309466
4.94151e-05
0.0431848
7.71314e-05
9.35939e-05
0.0178212
0.000112649
0.000265966
8.76745e-05
0.0307797
0.0514072
8.21112e-05
8.60952e-05
0.00744169
6.98525e-05
8.59091e-05
0.000162008
8.13078e-05
8.1638e-05
9.24968e-05
0.0107602
0.0362796
0.0339066
6.08052e-05
8.58585e-05
6.86392e-05
6.01949e-05
0.000141581
9.42237e-05
0.000141526
0.0387491
0.000150365
8.57855e-05
5.29092e-05
0.000451188
0.0413065
0.0319713
9.35177e-05
0.00513576
0.0301904
0.016209
8.87098e-05
0.00489619
0.033086
6.67239e-05
0.0445982
0.0384745
0.000125727
7.21884e-05
0.000141405
0.000133292
9.35286e-05
5.76105e-05
9.49829e-05
7.14812e-05
0.0270006
0.000833625
8.59826e-05
0.00174763
9.22009e-05
0.0307761
9.17866e-05
8.94391e-05
9.5457e-05
8.46345e-05
0.000145967
8.48878e-05
6.77279e-05
0.0389847
0.0323113
9.22748e-05
0.0374021
0.0431944
0.0354086
8.58379e-05
9.17554e-05
0.0532709
0.0377435
6.21043e-05
0.030125
5.67994e-05
0.00010908
0.0127912
9.25344e-05
0.0227809
0.0306588
9.28679e-05
0.000567175
0.0454041
6.30066e-05
0.000123553
6.76091e-05
0.00334693
0.0372623
0.0121488
0.00970062
0.0255533
0.00597062
0.000152364
5.07443e-05
0.000148641
0.00962266
0.0184325
0.000111038
0.000159484
6.84364e-05
9.64312e-05
0.0050734
0.0356998
8.58641e-05
9.01768e-05
9.65393e-05
5.91878e-05
9.63183e-05
9.42866e-05
0.000310695
9.66077e-05
0.039657
0.0179126
0.0165248
0.000102125
0.0174404
8.909e-05
6.22194e-05
0.000265737
0.0380108
6.89269e-05
0.0247474
0.0337559
0.0215157
7.61303e-05
8.75239e-05
0.00011155
0.000160096
0.0373855
0.00399508
0.0207353
0.0360156
9.85502e-05
0.0367575
0.01063
9.10194e-05
0.000113862
0.00508873
9.41112e-05
0.0328945
5.64769e-05
0.000283101
9.71909e-05
0.00010994
0.0267623
0.000128196
0.0347451
0.000264148
0.0411837
9.55727e-05
0.0356438
0.00243686
7.48684e-05
0.0444941
0.040041
6.34289e-05
0.0117758
0.000375819
0.000146509
0.0260325
9.9408e-05
5.1764e-05
0.0200072
8.2027e-05
0.000127079
0.0246069
0.000417627
0.000109291
0.000178809
9.35421e-05
0.0333536
9.28197e-05
0.000126426
0.0345812
0.000108593
0.0301565
9.06688e-05
0.0453196
0.0383947
8.69095e-05
6.83004e-05
6.2321e-05
0.0135495
0.0241193
9.14362e-05
0.000102469
0.00010621
9.41983e-05
0.028226
4.8332e-05
9.37932e-05
8.66685e-05
9.70814e-05
5.7554e-05
0.0241092
0.000196085
6.98222e-05
0.0396655
0.000141073
8.23914e-05
0.000102833
8.17532e-05
0.000151477
0.0272674
6.44113e-05
8.38064e-05
5.61632e-05
0.0365276