/*--------------------------------*- C++ -*----------------------------------*\
| =========                 |                                                 |
| \\      /  F ield         | OpenFOAM: The Open Source CFD Toolbox           |
|  \\    /   O peration     | Version:  v2012                                 |
|   \\  /    A nd           | Website:  www.openfoam.com                      |
|    \\/     M anipulation  |                                                 |
\*---------------------------------------------------------------------------*/
FoamFile
{
    version     2.0;
    format      ascii;
    class       surfaceScalarField;
    location    "250";
    object      phi;
}
// * * * * * * * * * * * * * * * * * * * * * * * * * * * * * * * * * * * * * //

dimensions      [0 3 -1 0 0 0 0];
oriented        oriented;


internalField   nonuniform List<scalar> 
20392
(
0.190295
-0.109522
-0.0807733
-0.539057
0.446644
0.0924129
0.240665
0.0732763
-0.313941
0.301067
0.181366
-0.482434
0.0857784
-0.00417647
-0.0816019
0.0103107
-0.42334
0.413029
-0.000952224
0.0177604
-0.0168082
0.555779
-0.392118
-0.163661
-0.0965724
0.17844
-0.0818671
-0.15524
0.456307
0.461527
-0.451217
-0.256586
0.309869
-0.0532832
0.315411
-0.0747459
-0.145267
0.213559
-0.0682917
-0.244831
0.467552
-0.222721
0.0413188
-0.186586
-0.189953
-0.320042
0.509995
-0.584688
0.592094
-0.00740584
0.349318
-0.605775
0.256457
0.65424
-0.49049
-0.16375
0.00741586
-0.0433491
0.0359332
0.0406568
-0.00302609
-0.0376307
0.270353
-0.656257
0.385903
-0.320242
0.0807305
0.239511
-0.267959
0.221608
0.0463512
0.669725
-0.520816
-0.14891
-0.0954048
-0.313218
0.408623
-0.209101
0.211121
-0.00201927
-0.034954
0.0374584
-0.00250436
-0.0283467
0.0326959
-0.00434912
0.175571
-0.588396
0.412825
-0.391049
0.530631
-0.139583
0.0411519
-0.137724
0.132133
-0.376964
0.450049
-0.195823
-0.254226
-0.00363028
-0.0157709
0.0194012
0.0706816
-0.0669118
-0.00376984
0.477518
-0.291546
-0.185972
0.131331
0.318718
-0.0180234
0.00061659
0.0174068
-0.128233
0.517906
-0.389673
-0.146031
0.0365281
0.109503
0.732165
-0.539811
-0.192353
-0.0364946
0.0407373
-0.00424272
0.074693
-0.516011
0.441318
0.437527
0.294637
0.596057
-0.412724
-0.183333
-0.631161
0.239855
0.391305
-0.154111
0.241925
-0.0878143
0.0373007
0.303918
-0.341219
-0.29558
-0.0246614
0.580714
-0.506021
-0.0176998
-0.00327969
0.0209795
0.58621
-0.47033
-0.11588
-0.0792793
-0.317197
0.396476
-0.0183795
0.0174273
0.00449601
-0.0253975
0.0209015
-0.258647
0.248807
0.0098407
0.187085
0.393628
0.0795011
0.105028
-0.184529
-0.51204
0.120991
0.125586
-0.0123608
-0.113225
-0.0693063
-0.450151
0.519457
-0.287924
0.558278
0.05444
0.116199
-0.170639
0.481336
-0.177231
-0.304105
0.193684
-0.283168
0.0894837
0.442382
-0.413993
-0.0283893
0.00101478
-0.0187146
0.134389
0.0559063
-0.305854
0.24892
0.056934
0.0285815
-0.314625
0.286043
0.452706
-0.357544
-0.0951619
0.0789238
-0.01486
-0.0640638
-0.482521
0.325951
0.15657
0.00606189
0.0379095
-0.0439714
0.645439
-0.477739
-0.1677
0.105277
-0.580764
0.475487
-0.0161108
-0.0019126
-0.460792
-0.078265
0.094917
-0.112868
0.0179513
-0.0509507
-0.254903
0.240594
0.0824457
-0.32304
-0.240361
0.664091
-0.42373
0.0561422
-0.0611936
0.00505136
0.624955
-0.529168
-0.0957866
-0.308169
0.0787424
0.229427
0.299884
-0.1062
0.0088915
0.0398562
-0.0487477
0.183086
-0.128646
-0.0433848
0.409205
-0.36582
0.110353
-0.015436
0.0366842
0.424843
0.258321
-0.448274
0.291997
-0.371276
-0.0010182
0.0648332
-0.063815
0.003384
-0.00403586
0.000651856
0.353143
-0.112549
0.00970834
-0.00766036
-0.00204798
-0.221087
0.625489
-0.404402
0.32644
-0.493589
0.167149
0.00475227
0.0796329
-0.0843852
0.29552
-0.390925
0.166321
-0.167217
0.000896255
0.446195
-0.40951
0.555257
-0.212795
-0.342462
0.329696
-0.373081
0.154656
-0.157497
0.00284089
0.572887
-0.46761
-0.0280141
-0.000332675
0.208028
0.26949
-0.173489
0.314563
-0.141074
0.0217349
-0.0231622
0.00142731
-0.143471
-0.268935
0.412405
0.130963
-0.206984
0.0760208
0.392589
0.0497939
0.30392
0.341519
0.0425426
-0.299129
-0.208806
0.191605
0.0172016
0.336476
-0.299175
-0.210774
-0.303936
0.51471
-0.516566
0.394782
0.121784
-0.557802
-0.0262502
0.584052
0.655084
-0.13597
-0.519114
-0.61648
0.0440286
0.572451
-0.0273044
-0.00764968
-0.42027
-0.0962964
-0.503626
0.375393
0.501069
0.154015
-0.113976
0.104735
0.00924145
0.197658
0.398398
-0.0639706
-0.244199
-0.074478
-0.106602
0.18108
0.00732771
0.00238064
-0.150973
0.00494167
-0.0453386
0.00884396
-0.0274086
0.0237783
-0.177413
0.102935
-0.416714
0.570736
-0.154022
-0.104138
0.5809
-0.476763
-0.00591313
0.0332258
-0.0273127
0.300511
-0.610221
0.309709
-0.287619
-0.273527
0.561146
-0.0028312
0.313181
-0.431633
0.118452
-0.148394
0.610966
-0.462572
-0.0518366
0.0607281
0.0205812
0.00115368
0.0792925
-0.000368703
0.0253329
-0.0278222
0.00248938
-0.357843
0.658354
-0.00150804
0.0276359
-0.0261279
-0.560866
0.0030636
0.328794
-0.300212
0.0318057
-0.0374127
0.00560704
0.201788
0.353469
-0.0996463
0.104399
0.57334
0.0471314
-0.620471
0.435452
-0.504758
0.13328
-0.455899
0.322619
0.351967
-0.32931
-0.0226565
-0.0180361
0.464231
-0.151284
-0.411654
0.562938
0.148722
-0.577657
0.428935
-0.378347
-0.239367
0.617714
-0.249575
0.00290005
0.246675
-0.0272058
0.522727
-0.495521
-0.511487
0.43142
0.0800665
-0.0377417
0.0342848
0.00345692
0.0510605
0.52228
0.128858
-0.453702
0.324844
-0.412816
0.39478
-0.034512
0.039008
0.045838
0.000501136
-0.0463391
-0.219808
-0.194185
-0.0031899
-0.246385
-0.146235
0.0144608
0.131774
0.0127173
-0.0616429
-0.147459
-0.0270745
0.067836
-0.0407615
0.0362424
0.226926
-0.263168
0.337404
-0.37336
0.035956
0.00887536
-0.15511
-0.000536246
0.00302118
-0.00248493
0.226474
0.0889369
-0.49558
0.391442
0.542295
-0.401719
-0.140577
0.587592
-0.624638
0.0370455
0.00618664
-0.0143632
0.00817655
0.0525633
-0.502714
-0.025578
0.111356
0.02738
-0.127291
0.0999107
0.292278
-0.397913
0.105636
0.301553
0.0504133
0.154409
0.470546
0.571341
0.0162509
-0.0632657
-0.145541
0.169455
0.130119
-0.299574
-0.0650084
-0.13907
0.204078
-0.308152
-0.00647228
-0.0195117
0.0267946
-0.00728289
-0.102836
-0.00627894
0.0380846
-0.0184452
-0.00961594
0.0280612
-0.150355
0.542327
-0.391972
0.284473
-0.08289
-0.201583
-0.149772
0.149283
0.000488994
0.00790792
0.0627737
0.173164
-0.626338
0.453174
-0.541749
-0.0747306
-0.268295
-0.214226
0.343844
-0.265101
-0.236214
-0.0224334
-0.510353
0.516351
-0.00599794
-0.0255388
0.0022114
0.0233274
-0.438526
0.134439
0.304087
0.377667
-0.0761133
0.00921
-0.0276552
0.499874
-0.582032
0.0821587
-0.52167
0.23405
0.598193
-0.425028
0.0257123
-0.0316254
-0.112252
0.14878
0.278098
-0.241855
-0.154732
-0.215343
0.370074
0.0701117
-0.0956898
-0.00138028
0.00189198
-0.0005117
0.491074
0.0780229
-0.569097
0.262029
0.37423
0.168065
-0.367189
0.212457
0.00474023
-0.00143418
-0.00330605
0.121326
-0.522107
0.400781
0.39567
0.274056
-0.0965668
-0.37693
0.473497
0.549244
-0.582191
0.0329473
0.0986521
-0.110021
0.0113692
0.344927
-0.49038
0.145453
0.000417659
-0.108721
0.108303
0.203531
-0.620245
0.200757
-0.0663679
0.567162
-0.391591
0.184491
0.487995
-0.143068
0.00879818
0.468275
-0.477074
0.430822
-0.458028
-0.354705
0.56952
-0.214815
-0.0419095
-0.468444
0.107974
-0.0805945
0.114839
-0.00451587
-0.491983
-0.0195038
0.0211705
-0.476462
0.455291
-0.0566183
-0.0185388
0.0751571
-0.0373249
0.143016
-0.105692
0.561213
-0.125761
0.122742
-0.558043
0.4353
0.0466744
-0.000836391
-0.0120953
-0.151825
0.16392
-0.163368
0.663242
0.417022
0.152995
-0.570017
-0.014353
-0.0111858
0.0717474
-0.0240042
-0.0477433
-0.29155
3.82705e-06
-0.0642446
-0.213215
0.27746
-0.568486
0.407192
0.161293
-0.115018
0.664262
0.440683
-0.589077
0.154885
0.0177241
-0.172609
0.0412056
-0.000548792
0.125443
0.329397
-0.45484
-0.376246
0.563332
-0.334085
0.311299
0.0227856
0.0290103
-0.0215944
-0.000115442
0.00349945
-0.328592
-0.302569
-0.0163232
0.0175343
-0.00121115
-0.312294
0.461018
-0.232443
-0.0355161
-0.0412822
0.0442588
-0.00297662
0.485645
-0.188566
-0.297079
-0.233495
0.512028
-0.00131682
0.00605705
0.000711609
-0.0198141
0.0191025
0.293746
0.0839208
-0.34383
0.214846
0.128984
-0.355529
0.480971
-0.00355262
0.122833
-0.11928
0.112337
-0.285825
0.591719
-0.174698
0.0227305
-0.0165439
-0.0592085
0.12932
0.139777
-0.151872
0.327606
0.00979776
-0.241967
0.263337
-0.0213702
0.0195488
0.0521986
0.00369575
-0.0706075
-0.553115
0.590791
-0.0376764
-0.376558
0.0593609
0.131142
0.0696152
0.286812
-0.53521
0.248399
0.059838
0.117355
-0.116938
-0.0730819
0.0617899
0.011292
-0.363951
0.2767
0.0872511
0.190699
-0.111197
-0.0579797
0.0205605
0.0374192
-7.66164e-05
-0.564266
0.101818
0.462448
0.0918674
-0.0961981
0.00433074
0.0504933
-0.528271
0.477778
-0.582146
0.0956762
0.48647
0.197792
-0.240765
0.0429727
0.373734
-0.105033
-0.268701
-0.199255
0.134246
0.286648
-0.117193
-0.506046
0.15134
0.144493
0.010163
-0.081077
-0.10862
0.3349
0.31934
0.52356
-0.0563451
-0.467215
-0.484302
-0.298659
-0.0652916
0.323789
0.157547
0.0900425
0.362664
0.0700004
-0.321095
0.251094
0.0248582
0.00145985
-0.026318
0.0579421
0.465618
-0.463131
0.639664
-0.176533
-0.0546779
-0.0129839
0.0676618
-0.0320675
0.0349841
-0.00291654
-0.29154
-0.0759
0.36744
0.620403
-0.428491
-0.191911
-0.00505167
0.00219399
0.00285768
0.271673
0.0629998
-0.334673
-0.506155
0.355801
0.000953352
-0.00375338
0.00280003
0.388889
0.16689
0.00170438
-0.0212161
-0.254499
0.246714
0.00778578
-0.722643
0.372607
0.350035
-0.0251294
0.0716805
-0.000115226
-0.00493645
0.161417
0.148452
-0.117104
0.542285
-0.425181
-0.162832
-0.0720766
0.234909
0.255916
-0.0581241
0.148795
0.0941167
-0.242912
0.0324323
0.38696
-0.419393
-0.463167
0.175605
0.287562
-0.152656
-0.181429
-0.0297314
0.0112304
0.018501
0.486153
-0.276573
-0.20958
-0.130849
0.621922
0.0651047
-0.219216
0.153171
0.088754
0.241337
-0.435055
0.193718
0.395288
-0.524485
0.129196
-0.130884
-0.10533
-0.0878288
0.437147
0.03973
0.327635
-0.367365
0.442277
-0.592097
0.14982
0.173938
-0.0429748
0.0712263
-0.0754028
0.426473
-0.543577
-0.658
0.279653
0.181764
-0.58116
0.399396
0.204278
-0.0992501
-0.555486
-0.331093
0.45995
-0.153745
-0.154407
0.0695706
-0.590386
-0.522991
-0.0616975
0.122539
-0.139653
0.0171138
0.17412
-0.373875
0.199755
0.134188
0.301856
-0.436044
-0.438663
0.587385
-0.139148
0.425019
-0.285871
-0.000640346
0.0184885
-0.0178481
0.377283
-0.519765
0.142482
-0.623057
0.24996
0.373097
0.232105
-0.60496
0.372856
0.172288
0.372537
-0.544824
-0.134944
-0.208886
-0.274798
-0.0774599
0.352258
-0.489525
-0.0552079
0.0300785
-0.222054
0.295399
-0.0733443
0.00993953
0.0215555
-0.031495
-0.0758672
-0.0696472
0.145514
0.321464
-0.534259
0.480381
-0.447949
0.300191
-0.43934
-0.376512
0.00221781
0.0169174
-0.0191352
-0.575014
0.463756
0.111258
0.10718
-0.439033
0.331853
0.359194
-0.314549
-0.0446447
-0.0367968
-0.0609082
0.0977049
-0.210143
0.632904
-0.422761
0.0722206
-0.235052
-0.216633
0.390754
0.0704014
0.162403
-0.232805
0.132324
-0.135877
-0.345877
-0.259897
0.00279959
-0.00161718
-0.00118241
-0.00337078
0.0354362
-0.0320654
0.434526
-0.394796
-0.127114
0.0319004
0.0952139
0.341881
-0.124184
-0.217696
0.47211
-0.463312
-0.060781
-0.0663334
0.206637
0.279008
-0.491397
0.380328
0.111069
0.151581
0.431482
-0.583063
-0.00262259
0.00124231
-0.031514
0.0308737
0.367834
-0.0758368
-0.00814998
-0.0150123
-0.0286295
0.0271214
0.325588
0.17036
-0.495948
-0.288949
0.0565052
-0.0254521
-0.297304
0.239938
0.0573661
0.209453
-0.396829
0.187375
-0.0952082
0.387486
0.127402
-0.574346
0.446944
0.371393
-0.16194
-0.432451
0.630267
-0.197816
0.0153161
0.343878
0.0694505
-0.176052
-0.1856
-0.422338
-0.146148
0.376072
-0.325579
-0.154913
0.407144
-0.252231
0.199424
0.286729
0.182374
-0.513467
0.000500584
-0.0129031
0.0124025
-0.181067
0.248889
-0.0678215
0.249184
0.0796099
0.295873
0.0778606
-0.000528147
0.0991803
0.0974158
-0.2283
0.0556641
0.0218278
-0.00124659
-0.0169494
0.017661
0.201802
0.114951
-0.316753
-0.406424
0.351257
0.0551678
-0.0528548
-0.162204
-0.329192
0.0603658
0.12272
-0.154653
0.0386786
0.115975
0.519417
-0.0688517
-0.450566
0.396632
-0.636993
0.538306
-0.0507072
-0.487599
-0.0483846
-0.0192996
0.363216
-0.135076
-0.00811517
-0.0352339
-0.0390558
0.035685
0.50607
0.158021
0.0763572
-0.413325
0.336968
0.0131146
-0.578929
0.0262369
-0.00137879
0.254492
0.0893514
0.0552584
0.281217
0.188938
-0.253182
0.200244
-0.130793
-0.0291783
-0.00723209
0.0364104
-0.0617034
0.283312
-0.0397664
0.0105881
-0.167273
0.537013
-0.369739
-0.328404
0.184934
0.102349
-0.592839
0.176444
-0.0453024
-0.344326
0.0812338
0.263092
0.0144946
0.11783
0.0791153
0.202306
-0.281421
0.386681
-0.0908076
-0.494897
0.0206818
0.474215
0.324441
-0.24371
-0.466426
0.233545
0.23288
-0.269193
0.526724
-0.257531
-0.140838
-0.609552
0.184233
0.425318
0.456352
-0.323073
0.323329
-0.461679
0.13835
0.387987
-0.186185
-0.0150752
-0.000233794
0.015309
-0.492059
0.51323
-0.51834
0.415374
0.102966
-0.346185
0.0854839
0.260702
-0.276721
0.410909
0.0426801
-0.048959
-0.00636412
0.0029706
0.00339352
0.00726024
0.0482547
-0.055515
0.406351
-0.0349579
0.415878
-0.0124116
-0.262387
-0.0965373
0.323639
-0.227102
0.40453
0.119805
-0.524335
-0.270409
0.153541
0.116868
0.446565
0.178924
0.000595454
0.0456641
-0.0462596
-0.382436
-0.192793
0.575229
0.177332
-0.558238
0.380905
-0.0245736
0.0140586
0.010515
0.294141
-0.0990115
-0.195129
0.211837
0.380257
-0.295495
-0.167671
-0.0739035
0.0811637
-0.230078
0.0751691
0.154909
0.0737192
0.220421
-0.278188
0.214217
0.438802
0.144193
-0.582995
-0.0156012
-0.0574807
-0.509277
0.0143806
0.0102655
-0.466611
0.141089
0.325522
-0.455829
0.186636
-0.367557
0.569345
0.0183541
-0.0178535
-0.295877
0.223602
0.0722746
0.468229
-0.234684
0.0845847
-0.122855
0.0382705
-0.0334283
0.00136076
0.247025
-0.462368
-0.0705714
-0.159507
0.276026
0.110655
0.389028
-0.323146
-0.0658823
-0.365081
0.0735411
0.00915074
0.0220813
-0.031232
-0.000436739
0.0181971
0.110938
0.112011
-0.222949
0.122821
-0.0382364
-0.0443172
-0.0577849
0.102102
0.517002
-0.0921918
-0.42481
-0.00283443
-0.0619282
0.0647626
-0.210715
0.289831
0.342819
0.157109
-0.499928
0.00818587
0.01453
-0.0227159
-0.00230641
0.0355322
0.415563
-0.226798
-0.188765
-0.111511
-0.305971
0.417481
-0.0066812
0.0325069
-0.0258257
0.340281
-0.207924
-0.132357
0.511639
-0.18831
0.031679
-0.0182371
-0.0134419
0.112774
0.0636701
0.00701192
-0.0523616
0.0453496
-0.292781
0.475155
0.00804538
-0.0627233
0.0728188
-0.211889
-0.0178107
0.00273551
0.600542
-0.0292006
-0.134823
0.386458
-0.251634
0.037628
-0.0744248
0.0419882
0.364363
0.242386
0.0339932
-0.276379
-0.438386
0.000394026
-0.131439
0.404677
-0.273238
-0.429183
0.452197
-0.439935
-0.0122613
0.50619
-0.412842
-0.0933484
-0.00392803
-0.0957182
-0.082076
-0.0750877
-0.232895
0.307982
-0.175636
0.285683
-0.110047
0.42658
-0.185243
-0.371546
-0.00520258
0.0305354
0.0342989
0.132022
-0.0520825
-0.243795
-0.0505125
-0.00231388
0.0528263
0.303192
-0.0944329
-0.208759
-0.0134116
0.0215975
0.194139
0.146143
0.443075
-0.366718
0.0976818
0.0549062
0.189482
0.312855
-0.114975
-0.19788
-0.0011985
-0.00516562
0.366682
-0.311424
-0.00172298
0.000715515
0.00100746
-0.356971
0.0928432
0.207041
-0.0339166
0.15226
0.103657
-0.0241226
0.0280501
-0.00392751
0.0440733
-0.266128
-0.105681
0.352706
0.445011
-0.0983065
-0.346705
-0.0845322
0.0990268
0.00314575
-0.003682
-0.111503
0.506285
0.0492617
-0.0292539
-0.0200078
0.0817617
-0.0583278
-0.0234339
0.391053
-0.405062
0.0140086
-0.00220263
-0.000419957
0.15016
0.334411
-0.484571
-0.0549885
0.0620005
-0.0705436
0.0677092
-0.00383811
-0.0259487
0.338468
-0.435035
-0.151573
0.575887
-0.424314
0.432641
-0.341094
-0.0915465
0.425981
-0.291541
0.0957992
-0.52825
0.210554
0.205009
-0.212774
0.342892
-0.157366
-0.206363
0.363729
0.0742137
0.12603
-0.141057
-0.00577557
0.0975815
0.0926633
-0.190245
-0.0165436
0.0257536
0.098899
-0.564266
-0.0403648
-0.214135
-0.575795
0.164141
0.144895
-0.496166
0.351272
0.00235305
0.00172807
-0.00408112
-0.441985
0.426651
0.0153337
-0.00949875
-0.0329016
0.0424004
-0.495006
0.112569
0.365845
-0.506856
0.141011
-0.085927
0.605344
0.590426
-0.260729
0.0334897
0.0789517
-0.112441
-0.0932701
-0.015451
-0.141177
0.146295
-0.00511855
0.17919
-0.118825
0.0182674
0.549215
0.240962
0.349464
-0.161313
0.48779
-0.326477
-0.00468976
-0.402024
-0.117742
0.00303421
-0.0271568
0.0146519
0.0121426
0.04695
-0.0377993
-0.179773
-0.058439
0.0488879
0.00955107
0.354587
0.151603
-0.0669791
0.221864
-0.4105
0.0972821
0.185
0.118192
0.00833501
-0.0529415
0.0446065
-0.349989
0.192623
0.00328925
-0.000268069
-0.0232409
-0.117936
-0.0781463
0.349819
0.052335
0.158786
0.337481
0.167399
-0.50488
0.001521
0.115834
0.00294139
-0.00185802
-0.00108337
0.000633694
0.00230769
-0.163445
0.486755
-0.32331
-0.107643
0.103715
-0.0386925
-0.0102796
0.0489721
0.0692821
-0.00444897
-0.000806532
-0.017573
-0.0476327
0.0395176
0.0465055
-0.00859605
0.184529
-0.0466713
-0.137857
-0.342621
0.49278
0.209706
-0.0987677
-0.173084
0.0264015
0.146682
0.213651
0.0992033
0.49181
-0.125965
-0.390046
-0.167524
0.557569
0.575533
-0.0372269
0.51581
-0.303533
-0.212277
0.0901448
0.0216684
-0.111813
0.336573
-0.202112
-0.134461
-0.0488121
0.0129614
0.0358506
-0.00135337
0.00249647
-0.0011431
0.105002
-0.533237
0.428236
-0.367856
0.568654
-0.200797
0.022848
-0.0177295
-0.00511853
0.0608765
0.0208852
-0.0731279
0.231437
-0.158309
-0.433838
0.318119
0.115719
-0.00127792
-0.00275794
0.439034
0.0746875
0.294233
0.138408
-0.00259408
0.187123
-0.01031
-0.162774
0.0468733
-0.0041932
0.423367
0.174825
-0.400208
-0.322435
0.0108236
0.0384381
-0.499042
0.36618
0.132862
0.0251756
0.00267222
-0.0278478
0.475392
0.12515
0.0263013
-0.0329825
-0.175913
-0.0944964
-0.116195
-0.32579
0.551181
-0.423779
0.50278
-0.0865524
-0.416227
0.47508
0.145323
-0.00103
0.0262056
0.0126399
-0.146713
0.465946
-0.319233
0.10338
-0.0145411
-0.0888385
-0.0715869
0.608276
-0.243959
0.37529
-0.0788145
-0.0983309
0.177145
0.134709
-0.00833232
-0.0724482
0.0807805
-0.512184
0.631423
-0.119239
0.49484
0.20301
-0.213692
0.232547
-0.0127622
0.00504449
0.00771769
0.524469
-0.348865
-0.0263911
-0.383794
-0.0483821
0.432176
-0.07583
-0.0788235
-0.459328
0.171754
0.287574
-0.489459
-0.133598
-0.0129031
-0.528656
0.361382
-0.136121
0.129119
0.00700202
0.50236
-0.15954
0.00827364
-0.0666014
-0.305096
0.208559
0.0955399
-0.0637608
0.00451324
0.0592476
-0.0349613
0.0608112
-0.0258499
-0.118008
0.21559
-0.0506069
-0.255006
0.0413137
0.122989
-0.000156251
0.335492
-0.0809996
0.0834994
0.240942
-0.399509
0.504158
-0.104649
-0.543155
0.397545
0.145609
0.468272
-0.346947
-0.0566123
-0.110605
0.0702162
-0.547955
0.000553618
0.0200573
-0.0206109
-0.298315
-0.0478707
-0.186342
0.597128
-0.410786
0.312566
0.037496
-0.350062
0.35422
-0.0775202
0.521409
-0.360263
-0.161146
0.283792
0.122075
-0.352242
0.1185
-0.231999
0.113498
0.00489841
0.0218221
-0.0267205
-0.34656
0.491455
0.527621
-0.42262
-0.170806
-0.202553
-0.00388834
-0.0338534
-0.395567
-0.192914
0.588481
-0.0720297
-0.502984
-0.125757
0.564559
0.126563
-0.00402408
-0.33525
0.384923
-0.0496722
-0.0452163
-0.0132226
0.406483
-0.0373368
-0.0114753
0.000637515
0.0230434
-0.0236809
0.308219
0.143978
-0.0691291
0.0125108
0.0911669
-0.497017
0.40585
0.0501703
-0.0343372
-0.0158331
0.547635
-0.152347
0.306858
-0.278399
-0.0284598
-0.512949
0.145093
-0.000779354
0.108786
0.0135231
0.0912119
0.0389498
0.0476888
-0.0850137
0.26296
-0.496455
-0.539522
0.0235115
-0.138767
0.473615
-0.334848
0.00810491
-0.00771088
0.532229
-0.441062
-0.245611
0.0598532
0.185757
0.563953
-0.156761
0.0210161
-0.447918
-0.124856
0.572774
-0.136565
-0.341221
0.477786
-0.0212901
0.0235079
-0.482631
0.444837
0.0377935
0.0274746
-0.0490755
-0.433555
0.562003
-0.389715
-0.427647
0.570198
-0.14255
-0.00328195
0.00107932
-0.00659547
-0.120695
0.000365276
-0.0166885
0.188602
-0.0453849
-0.143218
-0.000378165
-0.0450096
0.0179351
0.0144181
0.622939
-0.401113
-0.221826
-0.0181387
-0.0115926
-0.48146
0.125932
0.0157315
0.0991071
0.279506
0.350761
0.563531
-0.381767
-0.0558529
-0.111408
0.0195412
-0.200608
0.415125
-0.313307
-0.0780604
0.0359442
0.0421162
0.109468
0.079134
0.0868216
-0.503107
0.416285
-0.00441693
0.0291475
-0.0247306
0.223019
0.167547
-0.390566
-0.0146981
0.0195965
-0.0830705
0.106433
-0.023362
-0.55807
0.402964
0.155106
0.433955
-0.150805
-0.28315
-0.432922
-0.125121
0.165667
0.152392
-0.0874179
-0.0649744
0.179409
-0.161685
-0.542637
0.00722705
0.53541
-0.388223
-0.140574
0.528798
0.500191
-0.41337
-0.267641
0.0963294
0.171312
0.0586085
0.00560205
-0.0642105
-0.0359043
-0.125487
0.195888
-0.0500586
0.0449031
0.00515556
-0.20515
-0.0780176
0.00200793
0.0689951
-0.452789
-0.00181386
0.00276176
-0.000947905
0.0771629
0.357363
0.331707
0.469661
-0.270237
-0.00308667
0.0373715
0.331972
-0.443984
0.112012
-0.100974
0.0567377
0.0906265
-0.147364
0.532022
-0.0341175
-0.497905
-0.30367
0.379277
0.1543
-0.533577
0.0052141
-0.0401754
-0.0249096
-0.0330701
0.503359
-0.296722
0.249017
0.373922
-0.043911
0.052246
0.552641
-0.180279
-0.372362
-0.0541994
0.462667
-0.408467
-0.385223
0.462791
-0.0775682
-0.463188
0.140681
0.322507
0.0788122
-0.541943
0.409236
0.15367
-0.562906
0.036849
-0.0945141
-0.438723
-0.121196
0.19541
-0.0206526
0.265679
0.0698124
0.00263572
0.00016387
-0.296531
0.224492
0.0720388
-0.0176239
-0.118497
0.0414691
0.107814
-0.0558445
-0.222344
0.052665
0.015171
0.413368
-0.0839702
-0.383511
0.138859
0.244652
-0.0951425
-0.490782
0.369327
0.121456
-0.306144
0.000844217
0.11208
-0.112925
0.3463
0.170051
-0.4633
-0.125096
-0.0554348
0.254993
-0.199558
-0.10947
0.556113
0.0159925
-0.00131788
-0.38946
-0.0191457
0.408605
0.270217
0.0840034
-0.113766
-0.284148
-0.0919129
0.555372
-0.463459
-0.129593
0.438445
-0.308852
-0.0234501
-0.00437217
0.138844
0.330817
0.225934
-0.107434
0.0785989
0.00421794
-0.0828168
0.357024
0.164385
0.348813
0.161202
-0.510015
-0.0473466
-0.0740035
0.0855411
-0.0115376
0.471376
-0.586393
0.497075
-0.341464
-0.155611
-0.066491
-0.121409
0.1879
-0.260133
-0.123378
-0.0452472
0.0422211
0.273501
-0.388932
0.115431
-0.166557
0.0543049
-0.279071
0.375397
-0.0963264
0.0587674
0.0936249
-0.586389
0.335389
-0.51389
0.178502
-0.156044
-0.386106
0.54215
0.283507
-0.226766
-0.0567413
-0.329554
-0.0559497
0.385504
0.349822
-0.485078
0.135256
0.0696484
0.193689
-0.0568274
-0.0973194
0.376485
-0.201
-0.175484
-0.0729287
-0.0308541
-0.358606
-0.147876
-0.202593
0.0690477
0.133545
0.59547
-0.163988
-0.0773312
0.0856048
-0.413823
0.302313
0.126516
0.260911
-0.387428
-0.050282
0.0407833
-0.160878
-0.00284856
0.163726
0.22018
-0.579172
0.397199
0.181973
0.325294
-0.255293
0.0793517
-0.518614
0.439262
-0.111019
-0.000495158
0.111514
0.0434591
-0.0654311
0.021972
-0.430384
0.110634
0.31975
-0.494508
0.360677
0.133832
-0.103524
-0.182653
0.286177
-0.280898
0.119153
0.161745
0.100266
0.214297
0.0353974
-0.575209
0.0375153
-0.0159598
0.115736
0.416553
-0.532289
-0.00441834
-0.0408288
-0.326589
-0.12931
-0.103161
-0.0381331
0.141294
-0.102326
-0.0405991
-0.44794
0.338828
0.109112
-0.26469
0.247816
0.0168734
-0.0161523
-0.00785825
0.0240105
0.016507
0.00102737
-0.423755
-0.00455421
0.00443899
0.232661
-0.314852
0.0821911
-0.430355
0.27955
-0.00286673
0.00105287
0.435708
0.249341
-0.485256
0.431057
-0.0718719
0.224132
-0.0186262
0.550648
-0.00371967
0.0206371
0.0133973
0.036773
-0.409299
0.378445
-0.137222
-0.300733
0.437955
-0.386305
0.307585
0.0787208
-0.0269707
-0.00269618
0.0296669
0.212403
-0.139584
-0.558258
0.143225
0.415033
0.111614
0.430671
-0.374279
-0.353221
0.375387
-0.0434148
0.283864
-0.400059
-0.110175
0.349401
-0.062856
-0.59991
0.458745
0.141165
0.456667
0.328932
-0.216596
-0.0956723
0.0562511
0.0394212
0.561452
-0.141189
-0.420263
-0.0660514
-0.00729207
0.0733435
-0.0979819
0.0388171
0.0591648
-0.166662
0.444676
-0.278014
-0.0457014
0.517077
-0.495467
0.328806
0.422114
0.158787
-0.574843
0.414397
0.160447
-0.14161
0.00277786
0.138832
-0.00191338
-0.264433
0.160909
-0.407
0.00563741
-0.00722835
0.00159094
0.160548
0.215937
0.231425
0.302025
-0.0693645
0.414224
-0.555478
0.141254
-0.0811409
-0.217085
0.44919
-0.341186
0.494609
-0.157128
-0.0208451
-0.0823162
-0.127268
0.172778
-0.562823
0.177494
0.0534945
-0.230988
-0.00162185
0.0037676
-0.00214575
-0.43595
-0.138396
-0.0619782
0.234465
-0.172487
0.0652971
-0.495126
0.429829
-0.148462
0.0928623
0.0179236
-0.0173699
-0.00439449
-0.279183
-0.107123
0.0238194
0.0111647
-0.375398
-0.00350721
0.00293798
0.000569232
-0.02567
-0.186184
-0.43172
-0.00818392
0.00670384
0.00148008
-0.44734
0.356792
0.0905476
-0.00220012
0.04115
-0.01512
0.015766
-0.000646015
-0.256098
0.364981
-0.108883
-0.557513
0.158081
0.399432
-0.00293867
-0.341388
-0.106553
-0.206299
0.189407
0.0168916
-0.00631968
-0.370542
0.376861
-0.602527
0.197797
0.40473
-0.0346713
-0.00108796
-0.277268
-0.469456
-0.0385773
0.508033
-0.259615
0.340849
0.0452638
-0.0496821
-0.110859
0.105236
0.00562318
0.0495534
-0.0046503
-0.416696
-0.241493
0.658189
-0.297445
0.330919
-0.0334736
-0.576611
0.448902
0.127709
0.0968897
-0.352988
-0.334283
0.230951
0.103331
-0.391851
0.576084
-0.0144877
0.0714546
-0.056967
0.18065
-0.269704
0.0890546
0.0753895
0.00390295
-0.143423
0.0797824
-0.292556
-0.142822
-0.00395332
0.000199946
0.0043709
-0.00548041
0.00110951
0.00673965
0.0825706
-0.0893102
0.0989833
-0.516749
0.417766
0.356065
0.14101
-0.539966
-0.0339604
0.573926
-0.00429005
-0.0260904
0.0303805
-0.0416448
0.275262
-0.342815
0.453449
0.0697256
0.148221
-0.217947
-0.0815538
0.00488571
0.0766681
-0.0658627
0.28258
-0.216717
-0.407464
0.289157
0.118308
-0.583916
0.458649
0.125267
0.109073
0.301452
-0.410526
-0.0386326
-0.461975
0.500608
-0.422663
0.521646
-0.335874
-0.407848
0.556743
-0.148895
0.154907
0.289931
0.401656
0.150985
-0.226619
-0.162714
0.389333
-0.325207
0.466297
0.0665288
0.258765
-0.0312182
-0.336556
0.367774
-0.136328
-0.0362805
-0.423312
0.62008
-0.196768
0.0369426
-0.491882
-0.0761064
0.567988
0.0955279
0.00785178
0.37748
0.14512
-0.487741
-0.131561
-0.0205117
0.00278216
-0.454094
0.192758
0.420568
-0.613326
-0.0403757
-0.0823106
0.122686
0.0434001
-0.0754335
-0.255091
0.330525
0.000433998
-0.0630141
0.094664
-0.421175
0.283953
-0.0368827
-0.475301
0.542565
-0.365232
0.396007
0.427383
-0.288539
0.122879
-0.349498
0.142787
-0.329018
0.18623
-0.210169
-0.223417
0.433586
0.00108027
-0.00563449
-0.00412008
-0.0349357
0.2387
-0.0899043
-0.129667
-0.250181
0.194747
0.109794
-0.0196489
-0.0370638
0.299448
0.205713
-0.505161
-0.0034949
-0.368846
0.0714009
-0.121204
0.55969
-0.145466
0.0490704
0.451121
0.396184
0.163506
-0.0181605
-0.411266
-0.146805
-0.209553
0.00214839
-0.00350176
-0.401947
-0.00447701
-0.173439
-0.32015
-0.0336462
0.025788
-0.151008
-0.301328
-0.106137
-0.266954
0.00226415
-0.0748142
-0.171906
-0.371249
0.0108821
-0.068667
-0.000957491
0.0210147
-0.204775
0.224316
0.406422
0.129768
-0.53619
-0.299965
0.409039
-0.528765
-0.439895
0.0976975
0.342197
-0.00327775
-0.561017
0.428302
0.132715
0.00118766
-0.373936
0.372748
0.436657
-0.28175
0.445656
-0.395862
-0.0567424
-0.235829
0.279903
0.0522235
-0.330044
0.277821
-0.291807
0.220226
0.0715808
0.000795336
0.131909
-0.132704
0.000872503
-0.37391
0.577442
-0.442371
0.557505
-0.115134
-0.253096
0.371862
0.29138
-0.00309524
0.000371706
0.00272354
0.113075
-0.407737
0.294662
0.322717
-0.213064
-0.109653
-0.457682
-0.022545
0.480227
-0.0252663
0.0625782
0.00670396
-0.318941
-0.241924
-0.590236
0.00328294
0.293248
-0.456693
0.00628927
-0.0863042
-0.073772
-0.395361
0.469133
0.0488108
-0.00427826
-0.0445326
-0.00187784
0.000260655
-0.467433
0.00273651
0.464697
-0.19507
0.567606
-0.527422
0.164153
0.363269
-0.00260163
0.0340306
-0.031429
0.465849
-0.516556
-0.0135091
0.192918
0.130479
-0.129683
-0.0439903
0.139937
0.338601
-0.0549369
-0.283664
0.00321539
-0.00526338
0.377064
0.100338
-0.477402
0.0874723
-0.00887348
0.00349053
-0.00492471
0.0587513
-0.26892
0.210168
-0.099594
0.156332
0.582221
-0.16543
-0.416791
0.0882911
0.357365
-0.0582566
0.0585467
0.196446
0.076805
-0.0150151
-0.0341733
0.037514
-0.00334066
-0.331893
0.152688
-0.579413
0.470334
0.109079
0.0354309
-0.370681
0.139934
0.0855274
-0.225461
-0.45896
-0.0084733
-0.522205
0.126638
0.283972
0.219387
-0.446056
-0.135152
-0.312187
-0.554981
0.194159
0.360822
-0.28966
-0.0493358
0.338996
0.547609
-0.521641
-0.0259678
-0.300729
0.432862
-0.00745806
-0.103821
0.111279
-0.0048931
-0.0690104
-0.546836
0.158613
0.146326
-0.48849
-0.00708949
-0.115792
0.117313
0.104635
0.181579
-0.286215
0.270337
0.211268
0.319363
0.000168999
0.382642
-0.402602
0.0199597
-0.176501
0.0795394
0.0225627
-0.490407
0.37393
0.116476
-0.0559951
0.0536813
-0.427586
0.297993
0.352563
-0.00105643
0.0208497
-0.0197933
-0.463406
0.00572415
-0.465285
-0.118631
0.146939
-0.118813
-0.0281261
-0.543699
0.123709
0.41999
0.00495319
-0.0391265
-0.0333306
0.305623
-0.272292
0.148522
-0.22165
-0.150344
0.224064
-0.505284
0.201349
-0.00450403
-0.00825815
0.181515
0.294438
-0.475952
0.304892
-0.42039
0.115498
0.356141
0.024725
-0.0274211
0.0221854
-0.00183177
-0.0203536
-0.0656579
0.00178563
-0.0523609
0.0505753
-0.010181
0.0340004
-0.514158
0.14804
0.366118
0.0441636
0.539514
-0.14333
-0.578193
0.220969
-0.151244
0.435859
-0.151994
-0.0675275
-0.0190475
0.086575
-0.0873917
0.488239
-0.400847
0.405771
-0.404583
0.00648577
0.279197
-0.138882
0.0985066
-0.572208
0.148868
0.0775126
-0.00212306
0.024521
-0.00147759
-0.329223
0.0395624
-0.183374
-0.39416
0.577534
0.126802
-0.569173
0.0837597
-0.201768
-0.0895328
0.461395
0.534963
-0.160679
-0.374284
0.00601368
-0.0970302
0.0910165
-0.00068384
0.0186074
0.535169
-0.125933
-0.111932
0.39134
0.143829
0.432609
-0.0921225
-0.340486
0.593162
-0.466296
-0.126866
-0.601094
0.428167
0.172928
0.0466935
0.153436
-0.20013
0.118567
-0.126025
-0.154566
0.514579
-0.360013
0.360894
-0.204929
-0.155966
0.314692
-0.402084
-0.120347
0.124614
-0.00426616
0.19394
-0.5311
0.337159
0.00781305
-0.05835
0.237506
-0.179155
-0.49471
0.144918
0.349792
-0.54247
0.424711
0.117759
-0.0826419
-0.231291
-0.347881
0.403468
0.136045
-0.435713
0.14439
0.291323
-0.280667
0.228144
0.0525232
0.319518
-0.252989
-0.566734
0.189505
0.37723
0.058478