/*--------------------------------*- C++ -*----------------------------------*\
| =========                 |                                                 |
| \\      /  F ield         | OpenFOAM: The Open Source CFD Toolbox           |
|  \\    /   O peration     | Version:  v2012                                 |
|   \\  /    A nd           | Website:  www.openfoam.com                      |
|    \\/     M anipulation  |                                                 |
\*---------------------------------------------------------------------------*/
FoamFile
{
    version     2.0;
    format      ascii;
    class       surfaceScalarField;
    location    "250";
    object      phi_0;
}
// * * * * * * * * * * * * * * * * * * * * * * * * * * * * * * * * * * * * * //

dimensions      [0 3 -1 0 0 0 0];
oriented        oriented;


internalField   nonuniform List<scalar> 
20392
(
0.190292
-0.109518
-0.0807739
-0.539056
0.446644
0.0924127
0.240665
0.0732762
-0.313941
0.301067
0.181366
-0.482434
0.0857842
-0.00418256
-0.0816017
0.0103108
-0.42334
0.413029
-0.000952133
0.0177607
-0.0168086
0.555779
-0.392118
-0.163661
-0.0965711
0.178441
-0.0818696
-0.15524
0.456307
0.461528
-0.451217
-0.256586
0.309869
-0.0532831
0.315411
-0.0747459
-0.145274
0.213558
-0.0682841
-0.244831
0.467552
-0.222721
0.0413097
-0.186584
-0.189956
-0.320047
0.510003
-0.584688
0.592094
-0.00740584
0.349402
-0.605805
0.256403
0.65424
-0.49049
-0.16375
0.00741475
-0.0433498
0.0359351
0.0406572
-0.00302696
-0.0376302
0.270361
-0.656253
0.385892
-0.320242
0.0807304
0.239511
-0.267959
0.221608
0.0463511
0.669726
-0.520816
-0.14891
-0.0954049
-0.313218
0.408623
-0.209102
0.211122
-0.0020203
-0.0349534
0.0374578
-0.00250441
-0.0283476
0.0326969
-0.00434928
0.175603
-0.58841
0.412807
-0.39105
0.530631
-0.139581
0.0411541
-0.137725
0.132133
-0.376964
0.45003
-0.195777
-0.254253
-0.0036305
-0.0157712
0.0194017
0.0706824
-0.0669138
-0.00376866
0.477518
-0.291546
-0.185972
0.131302
0.318729
-0.0180241
0.000616551
0.0174076
-0.128233
0.517906
-0.389673
-0.146033
0.0365281
0.109505
0.732165
-0.539811
-0.192353
-0.0364936
0.0407373
-0.00424363
0.0746939
-0.516013
0.441319
0.437527
0.294637
0.596057
-0.412725
-0.183333
-0.631165
0.239854
0.39131
-0.154111
0.241925
-0.087814
0.0373007
0.303918
-0.341219
-0.29558
-0.0246613
0.580715
-0.506021
-0.0177002
-0.00327977
0.02098
0.58621
-0.47033
-0.11588
-0.0792793
-0.317197
0.396476
-0.0183798
0.0174276
0.00449481
-0.0253965
0.0209017
-0.258647
0.248807
0.00984055
0.187085
0.39363
0.0795002
0.105026
-0.184526
-0.51204
0.12099
0.125572
-0.0123519
-0.11322
-0.0693
-0.450155
0.519455
-0.287918
0.558278
0.0544394
0.1162
-0.170639
0.481336
-0.177241
-0.304095
0.193684
-0.283168
0.0894836
0.442401
-0.414005
-0.0283964
0.00101475
-0.0187149
0.13439
0.0559022
-0.305854
0.24892
0.0569339
0.0285879
-0.314625
0.286037
0.452706
-0.357544
-0.0951619
0.0789264
-0.0148624
-0.064064
-0.482521
0.325951
0.15657
0.00606288
0.0379088
-0.0439716
0.645439
-0.477739
-0.1677
0.105277
-0.580764
0.475487
-0.0161117
-0.00191247
-0.460792
-0.0782646
0.094907
-0.112863
0.0179558
-0.0509507
-0.254903
0.240594
0.0824454
-0.323039
-0.24036
0.664091
-0.423731
0.0561428
-0.0611936
0.00505079
0.624955
-0.529168
-0.0957866
-0.308176
0.0787515
0.229424
0.299884
-0.1062
0.00889194
0.0398558
-0.0487477
0.183086
-0.128646
-0.0433845
0.409205
-0.36582
0.110346
-0.0154394
0.0366843
0.424843
0.258328
-0.448284
0.291997
-0.371276
-0.00101971
0.0648345
-0.0638148
0.00338451
-0.00403528
0.000650771
0.353142
-0.112548
0.00970849
-0.00765927
-0.00204922
-0.221087
0.625489
-0.404402
0.326441
-0.493589
0.167148
0.00475238
0.0796372
-0.0843896
0.29552
-0.390925
0.166308
-0.167208
0.000900662
0.446195
-0.40951
0.555257
-0.212795
-0.342462
0.329696
-0.373081
0.154665
-0.157504
0.00283841
0.572887
-0.46761
-0.0280149
-0.000332701
0.208028
0.269489
-0.173502
0.314561
-0.141059
0.0217354
-0.0231628
0.00142737
-0.14347
-0.268935
0.412405
0.130962
-0.206983
0.0760215
0.392603
0.0497987
0.30392
0.341519
0.0425425
-0.299129
-0.208806
0.191606
0.0171998
0.336475
-0.299175
-0.210774
-0.303936
0.51471
-0.51656
0.394785
0.121775
-0.557802
-0.0262502
0.584052
0.655084
-0.13597
-0.519114
-0.61648
0.0440286
0.572451
-0.0273042
-0.00764918
-0.420279
-0.0962809
-0.503626
0.375393
0.501069
0.154015
-0.113959
0.104717
0.00924255
0.197658
0.398399
-0.0639809
-0.244195
-0.074476
-0.106602
0.181078
0.00732712
0.00238137
-0.150975
0.00494142
-0.0453381
0.00884452
-0.027409
0.0237785
-0.177412
0.102936
-0.416718
0.570739
-0.154021
-0.104138
0.5809
-0.476762
-0.00591365
0.033227
-0.0273133
0.300512
-0.610221
0.309709
-0.287619
-0.273527
0.561146
-0.00283128
0.313181
-0.431633
0.118452
-0.148395
0.610968
-0.462573
-0.0518361
0.060728
0.0205818
0.00115363
0.0792927
-0.000366269
0.0253328
-0.0278219
0.00248912
-0.357842
0.658354
-0.00150817
0.0276368
-0.0261286
-0.560866
0.00306357
0.328796
-0.300208
0.0318049
-0.037412
0.00560709
0.201788
0.353469
-0.099661
0.104413
0.573321
0.0471378
-0.620459
0.435459
-0.504759
0.13328
-0.455899
0.322619
0.351966
-0.32931
-0.0226565
-0.018036
0.464231
-0.151307
-0.411648
0.562954
0.148722
-0.577657
0.428935
-0.378393
-0.239347
0.617741
-0.249575
0.0029001
0.246675
-0.0272058
0.522727
-0.495521
-0.511487
0.43142
0.0800665
-0.0377421
0.0342847
0.00345737
0.0510597
0.522261
0.128858
-0.453702
0.324844
-0.412816
0.39478
-0.0345117
0.0390065
0.0458399
0.000499486
-0.0463394
-0.219822
-0.194183
-0.00318995
-0.246385
-0.146235
0.0144539
0.131781
0.0127093
-0.0616421
-0.14746
-0.0270725
0.0678323
-0.0407597
0.0362423
0.226926
-0.263168
0.337404
-0.373359
0.0359559
0.00888041
-0.155115
-0.000536074
0.00302111
-0.00248503
0.226474
0.0889368
-0.495579
0.391442
0.542295
-0.401719
-0.140577
0.587592
-0.624638
0.0370455
0.00618678
-0.0143638
0.00817699
0.0525597
-0.502715
-0.0255749
0.111359
0.0273824
-0.127279
0.0998971
0.292278
-0.397913
0.105636
0.301553
0.0504133
0.154409
0.470546
0.571341
0.0162509
-0.0632642
-0.145541
0.169455
0.130119
-0.299574
-0.0650081
-0.13907
0.204078
-0.308149
-0.00647642
-0.0195123
0.0267954
-0.00728306
-0.102836
-0.00627897
0.0380839
-0.0184458
-0.00961622
0.028062
-0.150355
0.542327
-0.391972
0.284483
-0.0829057
-0.201577
-0.149774
0.149283
0.000491147
0.00790761
0.0627748
0.173165
-0.626338
0.453174
-0.54175
-0.0747306
-0.268295
-0.214226
0.343853
-0.265101
-0.236214
-0.0224332
-0.510353
0.516351
-0.0059981
-0.0255382
0.00221083
0.0233274
-0.43852
0.134394
0.304126
0.377666
-0.0761132
0.00921035
-0.0276562
0.499874
-0.582032
0.0821587
-0.52167
0.234051
0.598193
-0.425028
0.0257128
-0.0316265
-0.112254
0.148782
0.278098
-0.241856
-0.154774
-0.215311
0.370085
0.070117
-0.0956919
-0.00138025
0.00189201
-0.000511758
0.491069
0.0780373
-0.569106
0.262022
0.37423
0.168065
-0.367193
0.212419
0.0047404
-0.00143446
-0.00330594
0.121326
-0.522107
0.400781
0.39567
0.274056
-0.0965668
-0.37693
0.473497
0.549244
-0.582192
0.0329474
0.0986534
-0.110022
0.0113685
0.344924
-0.490381
0.145458
0.000416098
-0.108727
0.108311
0.203531
-0.620249
0.200757
-0.066367
0.567179
-0.391576
0.184491
0.487999
-0.143075
0.00879817
0.468276
-0.477074
0.430822
-0.458028
-0.354705
0.56952
-0.214815
-0.0419094
-0.468444
0.107959
-0.0805767
0.114824
-0.00450612
-0.491983
-0.0195038
0.0211705
-0.476462
0.455291
-0.056615
-0.018541
0.0751561
-0.0373267
0.143017
-0.10569
0.56121
-0.125751
0.122742
-0.558043
0.4353
0.0466745
-0.000834531
-0.0120956
-0.151827
0.163922
-0.163368
0.663242
0.417022
0.152995
-0.570017
-0.014353
-0.0111852
0.0717484
-0.0240028
-0.0477456
-0.29155
3.76756e-06
-0.0642446
-0.213215
0.27746
-0.568485
0.407192
0.161293
-0.115018
0.664262
0.440683
-0.589078
0.154876
0.0177304
-0.172607
0.0412055
-0.000548326
0.125443
0.329397
-0.45484
-0.376247
0.563333
-0.334085
0.311299
0.0227857
0.0290106
-0.0215959
-0.00011434
0.00349885
-0.328595
-0.30257
-0.0163238
0.0175349
-0.00121103
-0.312276
0.461019
-0.232443
-0.035516
-0.0412829
0.0442592
-0.00297629
0.485645
-0.188566
-0.297078
-0.23347
0.512037
-0.00131666
0.00605706
0.000711384
-0.0198144
0.019103
0.293746
0.0839207
-0.343826
0.214842
0.128985
-0.355529
0.480971
-0.00355024
0.122833
-0.119283
0.112322
-0.285823
0.591719
-0.174698
0.0227313
-0.0165445
-0.0592059
0.129323
0.139778
-0.151874
0.327606
0.00979786
-0.241967
0.263337
-0.0213701
0.0195478
0.0522006
0.00369497
-0.0706087
-0.553115
0.590791
-0.0376764
-0.376558
0.0593609
0.131147
0.0696099
0.286812
-0.535211
0.248399
0.0598378
0.11736
-0.116944
-0.0730811
0.061787
0.011294
-0.363951
0.2767
0.0872511
0.190697
-0.111196
-0.0579759
0.0205576
0.0374183
-7.74524e-05
-0.564266
0.101818
0.462448
0.0918711
-0.0961973
0.00432617
0.0504933
-0.528271
0.477778
-0.582146
0.0956762
0.48647
0.197792
-0.240765
0.0429725
0.37373
-0.105018
-0.268712
-0.199255
0.134247
0.286649
-0.117193
-0.506046
0.15134
0.14449
0.0101756
-0.081077
-0.10862
0.3349
0.31934
0.52356
-0.0563451
-0.467215
-0.484302
-0.298659
-0.0652916
0.323758
0.157578
0.0900425
0.362664
0.0700003
-0.321095
0.251094
0.0248581
0.00146011
-0.0263183
0.0579421
0.465618
-0.463131
0.639664
-0.176533
-0.0546769
-0.0129843
0.0676611
-0.0320673
0.0349853
-0.00291805
-0.29154
-0.0759
0.36744
0.620403
-0.428491
-0.191911
-0.00505185
0.00219423
0.00285761
0.271673
0.0629997
-0.334673
-0.506155
0.355801
0.000953388
-0.00375322
0.00279983
0.388889
0.16689
0.00170428
-0.0212166
-0.254508
0.246714
0.00779351
-0.722643
0.372607
0.350035
-0.0251153
0.0716719
-0.000115569
-0.00493628
0.161417
0.148452
-0.117104
0.542285
-0.425181
-0.162832
-0.0720766
0.234909
0.255916
-0.0581239
0.148795
0.0941165
-0.242912
0.0324323
0.38696
-0.419393
-0.463161
0.175572
0.287589
-0.152656
-0.181429
-0.0297323
0.011231
0.0185013
0.486153
-0.276573
-0.20958
-0.130873
0.621942
0.0651044
-0.219215
0.153171
0.0887539
0.241337
-0.435055
0.193718
0.395288
-0.52448
0.129192
-0.130884
-0.10533
-0.0877628
0.437165
0.03973
0.327635
-0.367365
0.44228
-0.592098
0.149818
0.173937
-0.042976
0.0712247
-0.0754073
0.426473
-0.543577
-0.658025
0.279632
0.181764
-0.58116
0.399396
0.204274
-0.0992482
-0.555486
-0.331092
0.45995
-0.153743
-0.154406
0.0695706
-0.590387
-0.522991
-0.0616975
0.12255
-0.139666
0.017116
0.17412
-0.373875
0.199755
0.134188
0.301856
-0.436044
-0.438663
0.587385
-0.139149
0.42502
-0.285871
-0.000641308
0.0184901
-0.0178488
0.37727
-0.519746
0.142476
-0.623057
0.24996
0.373097
0.232105
-0.60496
0.372856
0.172288
0.372537
-0.544824
-0.134942
-0.208884
-0.274799
-0.0774597
0.352259
-0.489517
-0.0551989
0.0300836
-0.222059
0.2954
-0.073341
0.00994107
0.0215548
-0.0314959
-0.0758711
-0.0696446
0.145516
0.321464
-0.534259
0.480381
-0.447949
0.300192
-0.43934
-0.376513
0.00221781
0.0169176
-0.0191354
-0.575014
0.463756
0.111258
0.10718
-0.439033
0.331853
0.359194
-0.314549
-0.0446447
-0.036798
-0.060906
0.097704
-0.210143
0.632905
-0.422761
0.0722205
-0.235053
-0.216633
0.390754
0.0704048
0.162402
-0.232807
0.132328
-0.135879
-0.345798
-0.260007
0.00279975
-0.0016173
-0.00118245
-0.00336799
0.0354367
-0.0320687
0.434526
-0.394796
-0.127084
0.0319003
0.095184
0.341882
-0.124189
-0.217693
0.47211
-0.463312
-0.0607775
-0.0663068
0.206637
0.279008
-0.491412
0.380303
0.111109
0.151581
0.431482
-0.583063
-0.00262264
0.00124239
-0.0315151
0.0308738
0.367834
-0.0758368
-0.00815019
-0.0150126
-0.0286303
0.0271221
0.325588
0.17036
-0.495948
-0.288948
0.0565051
-0.0254522
-0.297304
0.239938
0.057366
0.209453
-0.396829
0.187376
-0.0952082
0.387486
0.127402
-0.574346
0.446944
0.371393
-0.16194
-0.432451
0.630267
-0.197816
0.0153161
0.343878
0.069449
-0.176051
-0.185599
-0.422338
-0.146147
0.376072
-0.325579
-0.154913
0.407144
-0.252231
0.199424
0.286729
0.182374
-0.513467
0.000500593
-0.0129034
0.0124028
-0.181066
0.24888
-0.067814
0.249182
0.0796138
0.29588
0.0778503
-0.000527654
0.0991811
0.0974157
-0.2283
0.0556588
0.0218284
-0.00124661
-0.0169499
0.0176613
0.201802
0.114951
-0.316753
-0.406424
0.351256
0.0551678
-0.0528558
-0.16224
-0.329172
0.0603652
0.122721
-0.154649
0.0386903
0.115959
0.519418
-0.0688515
-0.450566
0.396633
-0.636993
0.538306
-0.0507072
-0.487599
-0.0483845
-0.0192996
0.363216
-0.135077
-0.00811441
-0.0352354
-0.039057
0.035689
0.506071
0.15802
0.0763571
-0.413325
0.336968
0.0131151
-0.578929
0.0262373
-0.00137914
0.254492
0.0893609
0.0552584
0.281217
0.188937
-0.253182
0.200243
-0.130794
-0.029179
-0.0072312
0.0364102
-0.0617033
0.283311
-0.0397663
0.0105873
-0.167273
0.537013
-0.369739
-0.328404
0.184933
0.102349
-0.592839
0.176447
-0.0452994
-0.344326
0.0812312
0.263095
0.014499
0.117829
0.0791152
0.202306
-0.281421
0.386669
-0.0907895
-0.494897
0.0206818
0.474215
0.324441
-0.243711
-0.466426
0.233545
0.23288
-0.269193
0.526724
-0.257531
-0.140838
-0.609552
0.184233
0.425318
0.456353
-0.323073
0.323329
-0.461679
0.13835
0.387987
-0.186185
-0.0150758
-0.000233837
0.0153096
-0.492059
0.51323
-0.518322
0.415354
0.102968
-0.346188
0.0854857
0.260703
-0.276721
0.410909
0.0426792
-0.0489582
-0.00636281
0.00296933
0.00339349
0.00726429
0.0482555
-0.0555198
0.406351
-0.0349583
0.415872
-0.0124118
-0.262387
-0.0965876
0.32365
-0.227062
0.404526
0.119806
-0.524332
-0.270409
0.153541
0.116868
0.446565
0.178924
0.00059652
0.0456623
-0.0462588
-0.382436
-0.192793
0.575229
0.177332
-0.558237
0.380905
-0.0245746
0.0140591
0.0105155
0.294136
-0.0990088
-0.195127
0.211837
0.380257
-0.29552
-0.167641
-0.073908
0.0811722
-0.230078
0.075169
0.154909
0.0737154
0.220421
-0.278193
0.214212
0.438802
0.144193
-0.582995
-0.0156026
-0.0574785
-0.509277
0.0143806
0.0102694
-0.466621
0.14114
0.325481
-0.455829
0.186636
-0.367557
0.569345
0.0183544
-0.0178538
-0.295877
0.223602
0.0722745
0.468229
-0.234684
0.0845859
-0.122859
0.0382727
-0.0334308
0.00136347
0.247057
-0.462368
-0.0705712
-0.159507
0.276025
0.110644
0.389028
-0.323146
-0.0658822
-0.365081
0.0735411
0.00915208
0.0220805
-0.0312326
-0.000436786
0.0181975
0.110939
0.112011
-0.222949
0.122824
-0.0382385
-0.0443145
-0.0577862
0.102101
0.517002
-0.0921914
-0.42481
-0.00283557
-0.0619263
0.0647619
-0.210716
0.289831
0.342819
0.157109
-0.499928
0.00817903
0.014538
-0.022717
-0.00230611
0.0355331
0.415563
-0.226797
-0.188765
-0.111511
-0.305971
0.417481
-0.00668058
0.0325064
-0.0258258
0.340281
-0.207924
-0.132357
0.511639
-0.18831
0.0316808
-0.0182411
-0.0134397
0.112779
0.0636671
0.00701892
-0.0523683
0.0453494
-0.292781
0.475155
0.00804613
-0.062723
0.0728186
-0.211889
-0.0178114
0.00273561
0.600542
-0.0292006
-0.134818
0.386451
-0.251633
0.0376264
-0.0744244
0.0419886
0.364363
0.242386
0.0339931
-0.276379
-0.438386
0.000394833
-0.131406
0.404657
-0.273251
-0.429183
0.452215
-0.439951
-0.0122636
0.50619
-0.412842
-0.0933485
-0.00392862
-0.0957324
-0.0820591
-0.0750877
-0.232895
0.307982
-0.175637
0.285684
-0.110047
0.42658
-0.185244
-0.371546
-0.00520222
0.030535
0.0342981
0.13201
-0.0520824
-0.243795
-0.050514
-0.00231216
0.0528262
0.303191
-0.0944323
-0.208759
-0.0134171
0.0215961
0.194139
0.146143
0.443075
-0.366718
0.0976876
0.0549061
0.189482
0.312854
-0.114975
-0.19788
-0.00119832
-0.00516449
0.366682
-0.311424
-0.001723
0.000715523
0.00100748
-0.356993
0.0928432
0.207041
-0.0339152
0.15226
0.103656
-0.0241232
0.0280494
-0.00392623
0.0440728
-0.266132
-0.105649
0.352706
0.445019
-0.0982915
-0.346728
-0.0845267
0.0990257
0.00314588
-0.00368195
-0.111486
0.506271
0.049261
-0.0292531
-0.0200079
0.0817629
-0.0583287
-0.0234342
0.391053
-0.405062
0.0140084
-0.00220255
-0.000420089
0.15016
0.334411
-0.484571
-0.0549896
0.0620086
-0.0705436
0.067708
-0.0038396
-0.0259489
0.338468
-0.435035
-0.151573
0.575887
-0.424314
0.432641
-0.341094
-0.0915465
0.42597
-0.291576
0.0957992
-0.52825
0.210554
0.205009
-0.212774
0.342892
-0.157355
-0.206362
0.363717
0.0742126
0.12603
-0.141051
-0.00577535
0.0975809
0.0926627
-0.190244
-0.0165441
0.0257544
0.098899
-0.564266
-0.0403748
-0.214133
-0.5758
0.164152
0.144895
-0.496166
0.351272
0.00235294
0.0017281
-0.00408104
-0.441984
0.426651
0.0153328
-0.00949939
-0.0329016
0.042401
-0.495006
0.112569
0.365841
-0.506853
0.141013
-0.0859273
0.605345
0.590426
-0.260729
0.0334915
0.078952
-0.112444
-0.0932736
-0.0154532
-0.141177
0.146289
-0.00511274
0.17919
-0.118825
0.0182637
0.549215
0.240962
0.349464
-0.161313
0.48779
-0.326477
-0.00468994
-0.402019
-0.117727
0.00303297
-0.0271562
0.0146524
0.0121429
0.0469512
-0.0377991
-0.179773
-0.05844
0.0488907
0.00954936
0.354587
0.151603
-0.0669756
0.221852
-0.4105
0.0972821
0.184999
0.118192
0.00833211
-0.0529434
0.0446113
-0.34998
0.192625
0.00328924
-0.000268132
-0.0232444
-0.117932
-0.0781462
0.349819
0.0523359
0.158786
0.337481
0.167399
-0.50488
0.00151865
0.115841
0.00294138
-0.00185801
-0.00108337
0.000633676
0.0023077
-0.163445
0.486755
-0.32331
-0.107656
0.103728
-0.0386912
-0.0102816
0.0489728
0.0692819
-0.00444739
-0.000806356
-0.0175734
-0.0476338
0.0395194
0.046506
-0.00859729
0.184526
-0.0466686
-0.137857
-0.342621
0.49278
0.209706
-0.0987675
-0.173083
0.0264018
0.146681
0.213651
0.0992032
0.491808
-0.125968
-0.390046
-0.167524
0.557569
0.575533
-0.0372269
0.515812
-0.303541
-0.212271
0.0901311
0.021659
-0.11179
0.336573
-0.202112
-0.134461
-0.0488132
0.0129611
0.0358521
-0.00135349
0.00249658
-0.00114309
0.105002
-0.533237
0.428236
-0.367856
0.568654
-0.200797
0.0228484
-0.0177298
-0.00511859
0.0608776
0.0208853
-0.0731071
0.231429
-0.158322
-0.433838
0.318119
0.115719
-0.00127866
-0.00275662
0.439034
0.0746875
0.294233
0.138408
-0.00259642
0.187122
-0.0103104
-0.162772
0.0468724
-0.0041932
0.423368
0.174825
-0.400208
-0.322435
0.0108233
0.0384378
-0.499043
0.366181
0.132862
0.0251781
0.00267115
-0.0278493
0.475392
0.12515
0.0263014
-0.032982
-0.175913
-0.0944965
-0.116194
-0.32579
0.551181
-0.423779
0.502774
-0.0865355
-0.416239
0.47508
0.145323
-0.00102821
0.0262063
0.0126399
-0.146708
0.465954
-0.319246
0.103385
-0.0145438
-0.0888414
-0.0715864
0.608276
-0.243972
0.375274
-0.0788169
-0.098328
0.177145
0.134709
-0.00833001
-0.0724508
0.0807808
-0.512184
0.631423
-0.119239
0.49484
0.20301
-0.213653
0.232549
-0.0127651
0.00504531
0.0077198
0.52446
-0.348888
-0.0263911
-0.383794
-0.0483822
0.432176
-0.0758458
-0.0788031
-0.459328
0.171754
0.287574
-0.489459
-0.133598
-0.0129034
-0.528656
0.361382
-0.136124
0.129118
0.00700599
0.50236
-0.15954
0.0082755
-0.0666042
-0.305095
0.208507
0.0955329
-0.0637604
0.00451356
0.0592469
-0.0349617
0.0608124
-0.0258507
-0.118008
0.215589
-0.0506068
-0.255002
0.041349
0.122991
-0.000157349
0.335496
-0.0810035
0.0834994
0.240942
-0.399512
0.504138
-0.104626
-0.543147
0.397561
0.145586
0.468272
-0.346947
-0.0566136
-0.110595
0.0702162
-0.547955
0.000553541
0.0200574
-0.0206109
-0.298312
-0.0478769
-0.186342
0.597128
-0.410786
0.312566
0.0374959
-0.350062
0.35422
-0.0775202
0.521423
-0.360237
-0.161185
0.283792
0.122075
-0.352244
0.118501
-0.231999
0.113498
0.00489861
0.0218222
-0.0267208
-0.34656
0.491455
0.527621
-0.422619
-0.170807
-0.202553
-0.00388901
-0.033853
-0.395567
-0.192914
0.588481
-0.0720297
-0.502984
-0.125757
0.564559
0.126578
-0.00402864
-0.335249
0.384921
-0.0496724
-0.0452188
-0.0132212
0.406494
-0.037338
-0.0114752
0.000637496
0.0230433
-0.0236808
0.308228
0.143987
-0.0691275
0.0125125
0.0911671
-0.497017
0.40585
0.0501701
-0.0343368
-0.0158332
0.547628
-0.15234
0.306858
-0.278399
-0.0284598
-0.512949
0.145093
-0.000773777
0.108778
0.0135122
0.0912046
0.0389517
0.0476879
-0.0850146
0.262983
-0.496453
-0.539524
0.0235105
-0.138743
0.473613
-0.334869
0.00810654
-0.00771171
0.532229
-0.441062
-0.24561
0.0598529
0.185757
0.563953
-0.156761
0.0210162
-0.447918
-0.124856
0.572774
-0.136565
-0.341221
0.477786
-0.0212902
0.023508
-0.482631
0.444837
0.0377935
0.0274746
-0.0490755
-0.433555
0.562003
-0.389715
-0.427647
0.570197
-0.14255
-0.00328199
0.00107944
-0.0065948
-0.120685
0.000365242
-0.0166891
0.188606
-0.0453856
-0.143221
-0.000378156
-0.0450058
0.0179333
0.0144186
0.622939
-0.401113
-0.221825
-0.0181392
-0.0115931
-0.48146
0.125932
0.0157209
0.0991035
0.279506
0.350761
0.563531
-0.381767
-0.0558528
-0.111404
0.0195359
-0.200601
0.415125
-0.313307
-0.0780584
0.0359354
0.042123
0.109471
0.079135
0.0868218
-0.503107
0.416285
-0.00441718
0.0291471
-0.02473
0.223019
0.167547
-0.390566
-0.0146982
0.0195969
-0.0830718
0.10643
-0.0233579
-0.55807
0.402963
0.155107
0.433955
-0.150805
-0.28315
-0.432922
-0.125121
0.165667
0.152395
-0.0874188
-0.0649758
0.179413
-0.161683
-0.542637
0.00722705
0.53541
-0.388223
-0.140574
0.528798
0.500192
-0.41337
-0.267641
0.0963294
0.171311
0.0586044
0.00560524
-0.0642096
-0.035904
-0.125483
0.195888
-0.0500577
0.0449011
0.00515659
-0.20515
-0.0780175
0.00200588
0.0689951
-0.452789
-0.00181361
0.00276147
-0.000947854
0.0771629
0.357363
0.331707
0.469661
-0.270237
-0.0030873
0.037372
0.331972
-0.443984
0.112012
-0.100975
0.0567378
0.0906272
-0.147365
0.532022
-0.0341175
-0.497905
-0.30367
0.379277
0.1543
-0.533577
0.0052143
-0.040176
-0.0249056
-0.0330703
0.503359
-0.296722
0.249017
0.373922
-0.0439149
0.052247
0.552648
-0.180304
-0.372345
-0.0542073
0.462676
-0.408469
-0.385223
0.462791
-0.0775683
-0.463188
0.140681
0.322507
0.0788123
-0.541943
0.409236
0.15367
-0.562906
0.0368482
-0.094514
-0.438723
-0.121196
0.195409
-0.0206527
0.265684
0.0698117
0.00263586
0.000163886
-0.296531
0.224492
0.0720387
-0.017629
-0.118495
0.0414664
0.107817
-0.0558532
-0.22234
0.0526604
0.0151719
0.413368
-0.0839702
-0.383511
0.138859
0.244652
-0.0951442
-0.490782
0.369327
0.121456
-0.306145
0.000841829
0.112084
-0.112926
0.3463
0.170051
-0.463283
-0.125127
-0.0554347
0.254993
-0.199558
-0.109469
0.556113
0.0159934
-0.00131776
-0.38946
-0.0191457
0.408605
0.270217
0.0840033
-0.113766
-0.284148
-0.0919129
0.555372
-0.463459
-0.129593
0.438445
-0.308852
-0.0234502
-0.00437169
0.138844
0.330817
0.225934
-0.107434
0.0785857
0.00421816
-0.0828038
0.356999
0.164424
0.348813
0.161202
-0.510016
-0.0473483
-0.0740016
0.0855402
-0.0115386
0.471376
-0.586394
0.497075
-0.341464
-0.155611
-0.0664905
-0.12141
0.1879
-0.260133
-0.123378
-0.0452471
0.0422202
0.273501
-0.388932
0.115431
-0.166558
0.0543049
-0.279071
0.375397
-0.0963264
0.0587675
0.093627
-0.586391
0.335389
-0.51389
0.178502
-0.156044
-0.386106
0.54215
0.283507
-0.226766
-0.0567412
-0.329554
-0.0559499
0.385504
0.349822
-0.485078
0.135256
0.0696483
0.193689
-0.0568273
-0.0973195
0.376485
-0.201
-0.175484
-0.0729286
-0.0308541
-0.358606
-0.147876
-0.202593
0.0690474
0.133545
0.595471
-0.163988
-0.0773357
0.0856112
-0.413823
0.302313
0.126516
0.260911
-0.387428
-0.0502824
0.0407831
-0.160876
-0.00284716
0.163724
0.22018
-0.579172
0.397199
0.181972
0.325294
-0.255293
0.0793519
-0.518614
0.439262
-0.11102
-0.000498906
0.111519
0.0434557
-0.0654289
0.0219732
-0.430384
0.110634
0.31975
-0.494508
0.360677
0.133832
-0.103501
-0.182667
0.286169
-0.280898
0.119158
0.161741
0.10028
0.214281
0.0353974
-0.575209
0.0375156
-0.0159608
0.115736
0.416553
-0.532289
-0.00441952
-0.0408276
-0.326589
-0.12931
-0.103163
-0.03813
0.141293
-0.102327
-0.0405989
-0.44794
0.338828
0.109112
-0.26469
0.247816
0.0168733
-0.0161528
-0.00785836
0.0240112
0.0165075
0.00102736
-0.423755
-0.00455457
0.004439
0.232661
-0.314852
0.082191
-0.430355
0.27955
-0.00286658
0.00105297
0.435708
0.249341
-0.485267
0.43106
-0.0718717
0.224131
-0.0186262
0.550648
-0.00371972
0.0206373
0.0133971
0.0367729
-0.409299
0.378445
-0.137193
-0.300759
0.437953
-0.386305
0.307585
0.0787208
-0.0269711
-0.00269645
0.0296676
0.212403
-0.139584
-0.558258
0.143225
0.415033
0.111614
0.430671
-0.374279
-0.353221
0.375387
-0.0434148
0.283865
-0.400059
-0.110178
0.349401
-0.0628556
-0.59991
0.458744
0.141165
0.456667
0.328927
-0.216606
-0.0956695
0.0562516
0.0394179
0.561453
-0.14119
-0.420263
-0.0660519
-0.00729186
0.0733437
-0.0979852
0.0388158
0.0591694
-0.166662
0.444676
-0.278014
-0.0457015
0.517077
-0.495468
0.328806
0.422114
0.158787
-0.574843
0.414397
0.160447
-0.141604
0.00278215
0.138822
-0.00191319
-0.264427
0.160925
-0.407
0.00563789
-0.00722772
0.00158983
0.160548
0.215937
0.231425
0.302025
-0.0693645
0.414224
-0.555478
0.141254
-0.0811409
-0.217085
0.44919
-0.34118
0.494609
-0.157128
-0.0208469
-0.0823158
-0.127268
0.172778
-0.562823
0.177493
0.0534945
-0.230988
-0.00162212
0.00376794
-0.00214582
-0.43595
-0.138396
-0.0619783
0.234465
-0.172487
0.0652973
-0.495126
0.429829
-0.148461
0.0928622
0.0179237
-0.0173702
-0.00439546
-0.279183
-0.107123
0.0238217
0.0111636
-0.375378
-0.00350421
0.00293238
0.000571832
-0.0256718
-0.186184
-0.43172
-0.00818843
0.00670774
0.00148069
-0.447352
0.356776
0.090576
-0.00219861
0.0411503
-0.0151209
0.0157668
-0.000645859
-0.256098
0.364981
-0.108883
-0.557513
0.15808
0.399433
-0.00293878
-0.341388
-0.106553
-0.2063
0.189408
0.0168918
-0.00631973
-0.370542
0.376862
-0.602527
0.197797
0.40473
-0.0346727
-0.00108776
-0.277268
-0.469456
-0.0385773
0.508033
-0.259617
0.340848
0.0452621
-0.0496816
-0.110862
0.105244
0.00561797
0.0495526
-0.00465151
-0.416696
-0.241493
0.658189
-0.297461
0.33092
-0.033459
-0.57661
0.448902
0.127708
0.0968897
-0.352988
-0.33427
0.230941
0.103329
-0.391851
0.576084
-0.014486
0.0714574
-0.0569713
0.18065
-0.269704
0.0890545
0.0753927
0.00389993
-0.143423
0.0797823
-0.292556
-0.142863
-0.00395313
0.000199917
0.00437078
-0.00548059
0.00110981
0.00673765
0.0825805
-0.0893181
0.0989835
-0.516749
0.417766
0.356065
0.14101
-0.539966
-0.0339604
0.573926
-0.00429083
-0.0260896
0.0303804
-0.0416458
0.275262
-0.342815
0.453449
0.0697258
0.148221
-0.217947
-0.0815566
0.00488542
0.0766712
-0.0658626
0.282579
-0.216717
-0.407464
0.289157
0.118308
-0.583915
0.458649
0.125267
0.109073
0.301452
-0.410526
-0.0386326
-0.461975
0.500608
-0.422663
0.521646
-0.335874
-0.40785
0.556744
-0.148894
0.154907
0.289931
0.401648
0.151001
-0.226619
-0.162714
0.389333
-0.325175
0.466315
0.0665288
0.258765
-0.0312181
-0.336556
0.367774
-0.136329
-0.0362774
-0.423312
0.62008
-0.196768
0.0369438
-0.491882
-0.0761063
0.567988
0.095534
0.00785122
0.37748
0.14512
-0.487741
-0.131561
-0.0205119
0.00278208
-0.454094
0.192758
0.420568
-0.613326
-0.0403658
-0.0823388
0.122705
0.0433978
-0.075434
-0.255092
0.330526
0.000439396
-0.0630139
0.0946639
-0.421172
0.283978
-0.0368827
-0.475301
0.542565
-0.365232
0.396007
0.427383
-0.288539
0.122879
-0.349498
0.142787
-0.329018
0.18623
-0.210165
-0.223432
0.433596
0.00107987
-0.00563444
-0.00411701
-0.03494
0.2387
-0.0899041
-0.129667
-0.250181
0.194747
0.109775
-0.0196438
-0.0370651
0.299448
0.205713
-0.505161
-0.00349509
-0.368842
0.0713818
-0.121202
0.559691
-0.145466
0.0490706
0.451121
0.396184
0.163507
-0.0181609
-0.411265
-0.146805
-0.209553
0.00214842
-0.00350191
-0.401947
-0.004477
-0.173439
-0.32015
-0.0336472
0.0257888
-0.151008
-0.301328
-0.106137
-0.266954
0.00226422
-0.074819
-0.171876
-0.371271
0.0108808
-0.068667
-0.0009574
0.0210148
-0.204774
0.22431
0.406422
0.129769
-0.53619
-0.299965
0.409039
-0.528765
-0.439896
0.0977249
0.342171
-0.00327704
-0.561017
0.428301
0.132716
0.00124136
-0.373982
0.372741
0.436657
-0.28175
0.445669
-0.39587
-0.0567423
-0.235831
0.279904
0.0522235
-0.330044
0.27782
-0.291807
0.220226
0.0715807
0.000800741
0.131907
-0.132708
0.000872488
-0.373916
0.577447
-0.442371
0.557505
-0.115134
-0.253097
0.371862
0.29138
-0.00309516
0.000371451
0.00272371
0.113075
-0.407737
0.294662
0.322717
-0.213064
-0.109653
-0.45768
-0.0225452
0.480226
-0.0252669
0.0625785
0.00670342
-0.318941
-0.241924
-0.590235
0.00328302
0.293248
-0.456693
0.00628866
-0.0863041
-0.073772
-0.395361
0.469133
0.0488117
-0.00428146
-0.0445303
-0.00187791
0.000260611
-0.467433
0.00273649
0.464697
-0.19507
0.567606
-0.527422
0.164153
0.363269
-0.00259993
0.0340305
-0.0314306
0.465849
-0.516556
-0.0135049
0.192918
0.130484
-0.129683
-0.0439903
0.139937
0.3386
-0.0549369
-0.283664
0.00321653
-0.00526576
0.377064
0.100338
-0.477402
0.0874607
-0.00887504
0.00349028
-0.00492474
0.0587512
-0.26892
0.210168
-0.0995947
0.156332
0.582214
-0.16543
-0.416785
0.0882928
0.357376
-0.0582448
0.0585466
0.196447
0.0768044
-0.0150173
-0.034172
0.0375134
-0.00334134
-0.331894
0.152688
-0.579413
0.470334
0.109079
0.0354312
-0.37068
0.139936
0.0855301
-0.225466
-0.45896
-0.00847327
-0.522205
0.126638
0.283972
0.219387
-0.446056
-0.135187
-0.312165
-0.554981
0.194159
0.360822
-0.289661
-0.0493345
0.338996
0.547612
-0.521625
-0.0259872
-0.300729
0.432862
-0.00745964
-0.103821
0.11128
-0.00488941
-0.0690185
-0.546836
0.158613
0.146326
-0.48849
-0.00708948
-0.115796
0.117314
0.104635
0.181579
-0.286215
0.270337
0.211269
0.319362
0.000169003
0.38264
-0.4026
0.019961
-0.176494
0.0795365
0.0225643
-0.490375
0.373939
0.116436
-0.0559952
0.0536831
-0.427586
0.297993
0.352584
-0.00105652
0.02085
-0.0197935
-0.463405
0.00572493
-0.465285
-0.118631
0.146922
-0.118827
-0.0280944
-0.543698
0.123709
0.41999
0.00495372
-0.0391258
-0.0333303
0.305623
-0.272292
0.148541
-0.221648
-0.150345
0.224061
-0.505284
0.201349
-0.00450625
-0.00825886
0.181515
0.294438
-0.475952
0.304892
-0.42039
0.115498
0.356141
0.0247251
-0.0274216
0.0221855
-0.00183188
-0.0203536
-0.0656582
0.00178601
-0.0523614
0.0505753
-0.0101791
0.0340008
-0.514158
0.14804
0.366118
0.0441631
0.539515
-0.143331
-0.578193
0.22097
-0.151244
0.435859
-0.151994
-0.0675195
-0.0190433
0.0865628
-0.087436
0.488265
-0.400829
0.405812
-0.40457
0.00648646
0.279198
-0.138887
0.0985212
-0.572208
0.148868
0.0775128
-0.00212007
0.0245209
-0.00147758
-0.329219
0.0395581
-0.183374
-0.39416
0.577534
0.126802
-0.569173
0.0837593
-0.201767
-0.0895328
0.461395
0.534963
-0.160679
-0.374284
0.006015
-0.0970337
0.0910187
-0.000683887
0.0186076
0.535169
-0.125933
-0.111932
0.39134
0.143829
0.432609
-0.0921225
-0.340486
0.593162
-0.466296
-0.126866
-0.601094
0.428167
0.172928
0.0466913
0.153439
-0.20013
0.118571
-0.12603
-0.154581
0.514578
-0.359997
0.360894
-0.204929
-0.155966
0.314668
-0.402104
-0.120349
0.124615
-0.00426685
0.19394
-0.5311
0.337159
0.0078148
-0.0583501
0.237506
-0.179155
-0.494736
0.144961
0.349775
-0.54247
0.424711
0.117759
-0.0826416
-0.231291
-0.347881
0.403469
0.136045
-0.435713
0.14439
0.291323
-0.280667
0.228144
0.0525232
0.319518
-0.252989
-0.566739
0.189504
0.377235
0.0584771