/*--------------------------------*- C++ -*----------------------------------*\
| =========                 |                                                 |
| \\      /  F ield         | OpenFOAM: The Open Source CFD Toolbox           |
|  \\    /   O peration     | Version:  v2012                                 |
|   \\  /    A nd           | Website:  www.openfoam.com                      |
|    \\/     M anipulation  |                                                 |
\*---------------------------------------------------------------------------*/
FoamFile
{
    version     2.0;
    format      ascii;
    class       volScalarField;
    location    "100";
    object      ddt0(k);
}
// * * * * * * * * * * * * * * * * * * * * * * * * * * * * * * * * * * * * * //

dimensions      [0 2 -3 0 0 0 0];


internalField   nonuniform List<scalar> 
14033
(
1.15361e-06
7.75693e-05
1.21489e-08
1.91499e-08
-2.75972e-09
-1.02795e-08
0.00111472
2.06861e-07
1.74968e-08
0.0011467
-9.38556e-07
-3.04588e-08
-3.14133e-09
-1.0008e-08
-1.06095e-09
6.42434e-08
-3.58794e-08
0.000138814
-2.10411e-08
-6.47824e-09
-1.92191e-08
-4.08103e-08
8.47394e-08
2.19757e-09
-1.48293e-06
-1.05531e-08
-1.00698e-08
-1.08733e-07
-5.95005e-06
3.18842e-08
3.34601e-08
1.73651e-07
1.39376e-07
-4.88967e-08
2.4952e-05
5.67275e-09
-7.25953e-06
0.00122769
-1.22994e-08
-4.56491e-08
0.000155032
-1.49712e-08
-6.25841e-08
3.18533e-09
-5.78973e-07
-5.69917e-08
1.28668e-05
8.33347e-09
-1.54213e-07
-9.55765e-06
-4.01822e-08
1.12309e-08
3.23909e-05
-4.96602e-05
-2.92568e-08
7.11642e-09
4.10541e-07
0.00318496
-5.52292e-08
3.45737e-08
-2.51269e-06
-1.03779e-05
-3.22721e-08
4.64469e-09
2.08895e-10
1.03153e-08
9.89393e-07
1.35389e-07
-1.82129e-06
-8.91794e-09
1.21043e-09
6.62734e-09
1.18485e-05
1.38706e-08
-8.55867e-09
6.20277e-09
4.73873e-09
-7.85794e-10
0.000676308
-2.09601e-08
9.11856e-08
0.00147496
7.04269e-05
9.70565e-09
3.41533e-09
5.91026e-09
-4.94607e-09
-5.57895e-05
1.78779e-05
-2.1884e-08
-1.01677e-08
1.10606e-07
-2.83872e-08
2.71786e-05
-3.0495e-06
2.34783e-06
-3.62637e-08
1.66527e-08
-8.50402e-06
-1.06421e-09
2.66278e-09
2.45442e-08
-3.85246e-06
1.11362e-08
1.35746e-05
7.15322e-08
1.97599e-05
-1.2468e-08
1.12312e-07
1.38946e-08
1.09178e-05
5.49135e-08
3.92058e-09
-1.53169e-05
8.16531e-08
6.46259e-09
-8.43192e-10
-3.51999e-09
2.63136e-05
1.35124e-07
1.5893e-09
9.89322e-08
-2.24197e-05
-1.77165e-08
1.45554e-05
4.50311e-08
8.34722e-10
-9.84779e-06
7.3458e-06
-2.92061e-08
1.09838e-05
1.78088e-09
3.87356e-09
6.20119e-06
1.1726e-05
-1.14182e-09
-1.43235e-07
8.81021e-09
1.86527e-08
-9.57728e-08
-5.67455e-08
2.59034e-05
-1.01316e-07
-5.02764e-08
-4.47263e-06
5.57636e-07
-9.43832e-12
7.7188e-08
-6.63537e-06
0.000263787
1.61371e-05
-6.13039e-08
1.97692e-09
2.35709e-07
2.04655e-08
1.75843e-06
-5.14569e-09
-1.85055e-09
-3.62562e-08
-2.90643e-09
7.49209e-08
-3.07369e-08
3.68305e-06
-7.8267e-09
-8.03792e-08
1.1107e-08
-6.9444e-08
3.29396e-08
-0.000282274
4.80923e-09
4.72262e-08
5.6227e-08
-3.57976e-08
-2.33039e-06
5.7744e-09
2.26132e-09
1.55262e-07
1.86136e-06
-2.46978e-08
-2.61862e-08
9.55436e-08
1.3994e-06
-1.89881e-08
-8.46556e-09
1.25245e-08
1.73306e-05
3.51285e-06
2.95319e-08
-0.000395395
1.59271e-05
-6.24814e-06
-7.27678e-08
1.43473e-07
5.70516e-08
7.26117e-06
0.000323788
-3.70049e-08
7.27624e-06
1.55384e-08
1.82419e-08
3.72889e-08
-6.12583e-08
5.52525e-09
2.93882e-08
-6.69939e-08
6.60474e-09
8.32159e-08
9.27379e-07
-2.68388e-08
-0.000171276
5.801e-06
1.06811e-06
1.73034e-05
2.77797e-06
1.04725e-08
6.17491e-08
2.58362e-09
0.00266369
2.32569e-08
-1.14596e-07
-4.41586e-08
-1.32789e-09
-1.00113e-08
-1.30376e-08
1.35836e-08
1.21832e-05
1.42648e-07
-3.01702e-08
-4.95581e-09
3.40728e-07
1.48839e-09
1.47568e-07
-8.71733e-09
-8.60981e-09
0.00240967
3.12266e-06
-1.44228e-07
5.37921e-08
-1.36747e-08
-5.59583e-09
-2.34005e-05
3.41971e-09
9.09876e-09
1.24368e-09
-4.77545e-08
-3.2692e-09
1.47681e-05
-2.31272e-06
1.73116e-08
9.51051e-07
-1.23881e-08
4.76601e-06
2.70903e-08
1.75406e-05
-1.62176e-08
0.00226679
1.27885e-08
7.1357e-09
-2.91815e-08
-2.6936e-05
1.49056e-08
-0.000164855
0.000750034
-1.07463e-07
-5.82472e-08
0.00168679
7.17613e-09
-7.5869e-09
0.00145251
7.78497e-06
-5.8306e-09
2.98418e-06
2.78284e-09
-1.60664e-08
-1.16434e-05
2.30677e-09
1.90758e-09
-1.47417e-07
1.87678e-08
-3.9566e-05
1.16139e-07
-7.14908e-09
-1.21713e-06
5.64247e-08
-0.000713789
0.000297081
1.24443e-05
-3.49754e-08
0.00250263
-8.2073e-06
-1.3616e-08
-1.5909e-08
-1.1889e-07
7.48687e-06
3.61438e-08
-2.28521e-08
-6.78023e-09
-2.39613e-08
-1.10932e-08
1.59856e-08
1.05939e-08
-1.67228e-05
0.00180956
-9.6253e-09
1.01523e-07
0.000441352
-6.4119e-08
1.33101e-08
1.55354e-05
3.90005e-08
-4.71436e-08
1.16642e-08
-1.63756e-07
-1.05839e-07
-4.98388e-06
0.000349191
-3.8637e-09
-6.22428e-08
-6.16837e-08
3.83186e-06
0.000432702
1.56339e-07
1.29495e-08
-2.94625e-06
-1.14453e-06
-6.08927e-05
1.10325e-08
-2.86236e-06
1.72583e-05
5.63614e-08
-5.58248e-08
-0.0013024
-4.51628e-05
-6.0555e-08
9.31644e-10
4.6804e-06
-2.84537e-07
1.82809e-08
4.66883e-06
-4.33824e-09
5.84531e-06
-1.0867e-07
1.41694e-08
-1.18832e-08
-0.000108517
-1.02233e-06
-4.93126e-08
8.95651e-09
0.000313436
0.000675275
1.2367e-08
2.32385e-10
1.65628e-05
4.93734e-08
2.04007e-08
5.46289e-09
-2.25437e-08
4.14519e-06
1.71106e-05
-4.47338e-08
3.05551e-08
5.01963e-06
-1.88666e-05
-4.05218e-09
6.54157e-09
-1.81478e-08
-1.45398e-06
3.91386e-07
-3.43689e-08
-2.14325e-08
3.5928e-06
-8.46873e-09
6.67188e-08
-6.62821e-08
-1.65265e-07
-0.00126871
1.09442e-08
-1.79316e-09
6.89513e-05
-2.28148e-10
-1.0032e-07
1.1514e-06
-5.59061e-10
-0.000264765
-6.40324e-05
1.04111e-09
1.30741e-05
-8.7372e-09
5.25449e-08
1.10501e-07
3.905e-09
5.09055e-06
1.81053e-09
3.60123e-08
0.000550652
-0.00096616
6.19078e-07
-2.46435e-07
9.0176e-08
3.15502e-08
0.000800446
1.66074e-08
-2.91824e-09
-2.51753e-06
4.68315e-07
-1.48851e-08
3.88732e-09
-9.4889e-09
-1.00042e-08
1.33619e-05
2.44746e-06
1.65246e-08
1.40114e-08
0.00268676
9.02324e-06
4.89139e-09
-4.52517e-06
5.28987e-08
1.22638e-08
-3.25877e-05
-3.78475e-08
-0.000135011
9.66051e-08
1.57967e-09
1.01924e-08
-3.64054e-09
-1.99197e-08
-5.34269e-10
-5.91642e-08
-1.36123e-08
-1.48171e-07
-4.29821e-08
-4.98791e-08
-1.69018e-08
-7.78496e-06
8.54729e-09
2.2762e-08
1.95796e-09
-6.48347e-08
0.00075696
-2.29999e-05
-2.09125e-10
6.37783e-09
1.38021e-08
-2.45198e-08
2.2068e-09
-2.83458e-08
1.43983e-06
0.000691349
-1.00035e-08
1.38346e-05
2.24218e-06
2.04636e-08
-0.00022574
6.85865e-08
-1.68157e-06
-0.000450845
3.08559e-10
-1.82494e-09
-2.44561e-09
-4.19292e-08
1.03445e-05
-2.39682e-05
9.04519e-07
1.18798e-10
1.78709e-10
4.51151e-05
1.82322e-08
6.48591e-08
-3.26002e-05
9.32156e-10
-6.20482e-08
-1.32109e-08
3.41575e-09
1.31872e-06
9.94686e-07
1.89815e-08
1.32365e-06
2.82896e-09
-3.79972e-05
1.3683e-08
1.77653e-05
-1.65243e-08
0.000402529
1.63568e-05
1.02381e-08
0.000232949
1.87701e-09
1.49016e-07
-5.00671e-09
3.9662e-08
0.000209078
-0.000487839
-2.13501e-08
-2.92512e-09
2.79647e-08
-1.22361e-07
0.00214181
1.08893e-08
7.38185e-07
1.39931e-08
9.26075e-08
-3.02892e-06
-2.40206e-05
9.72575e-08
3.59213e-09
-1.17285e-10
8.21914e-05
-2.78403e-08
-9.64068e-08
4.76326e-09
5.70538e-10
1.68337e-05
3.69508e-07
2.57353e-08
-1.10762e-08
5.72907e-08
-3.15239e-09
-0.000565982
-0.00115744
4.33326e-09
9.06872e-05
-1.05279e-09
2.13884e-08
1.05415e-08
-4.60817e-08
-2.82602e-08
1.71255e-08
2.91557e-08
-1.97581e-08
-7.03137e-08
9.94615e-09
4.99417e-06
-1.15233e-08
2.47206e-08
-1.09761e-08
1.79295e-08
-4.44561e-10
1.1484e-08
1.26266e-07
-2.28389e-08
-2.06562e-05
2.01176e-09
1.66916e-08
3.19456e-05
-2.28723e-08
3.00947e-05
-8.34762e-09
1.94428e-05
-5.6415e-08
-1.14162e-06
8.13812e-06
-3.66542e-09
-1.76315e-08
5.1726e-07
-1.67653e-07
-1.00078e-08
-4.63559e-08
7.58627e-08
1.82765e-06
-2.26981e-08
1.62374e-05
2.91945e-08
8.15929e-09
-1.59752e-08
-6.71081e-09
-1.77039e-07
1.59827e-09
1.66127e-09
1.7504e-08
2.61184e-05
2.7761e-05
-1.02461e-05
3.65389e-09
-0.00106515
5.79234e-10
-0.000365408
9.465e-06
3.85376e-09
3.04555e-06
-2.32194e-08
-2.6248e-08
7.82372e-11
6.95041e-09
3.53248e-09
-1.8186e-07
7.75855e-09
-1.26121e-07
1.1096e-09
2.61404e-09
-0.000904368
6.15095e-09
1.64418e-08
-1.00755e-07
-2.84947e-08
-3.61147e-10
-1.12211e-08
2.67549e-05
2.05509e-08
-7.39012e-09
4.14711e-09
2.63404e-08
-7.11574e-08
-0.00353604
-6.32714e-08
-5.5215e-06
-8.2388e-05
4.80193e-06
7.86739e-08
-3.93826e-05
2.75215e-07
8.97764e-07
9.78135e-09
1.73576e-08
-0.00381166
6.88814e-10
-1.76536e-06
-1.6883e-08
1.26466e-05
2.98121e-06
2.13912e-06
2.38813e-09
-1.20299e-08
-5.78637e-08
1.06401e-06
7.70796e-08
-7.94103e-06
-2.87726e-08
-5.74919e-09
-6.39553e-08
1.50201e-09
-5.56548e-07
1.60597e-09
-2.50477e-08
-1.4892e-08
-0.000739287
5.84365e-09
-2.02206e-08
-1.56694e-07
-2.46134e-09
-7.20045e-08
9.90095e-10
-1.07673e-06
3.24285e-05
-7.46955e-08
1.28703e-05
9.86089e-08
2.50254e-09
-7.08648e-09
-2.22663e-06
4.71772e-08
7.88286e-08
-1.72562e-08
1.63572e-08
-3.41914e-08
1.78733e-05
6.01849e-09
2.19021e-08
-3.62621e-05
-1.30771e-09
3.74242e-09
9.65748e-09
-0.000665143
-9.51207e-06
2.56825e-08
1.45186e-06
-2.02023e-06
2.18313e-05
-1.60507e-07
3.91251e-09
-7.67923e-07
0.000384558
1.3458e-06
-2.11309e-08
1.02396e-08
9.07258e-09
-7.86102e-10
-8.89181e-06
5.20551e-08
-2.87211e-08
9.49365e-06
2.41537e-06
-5.42686e-09
-0.000219944
-3.38989e-05
-7.52237e-09
-6.46961e-08
2.82648e-05
6.54667e-08
1.23554e-09
1.38585e-05
9.98687e-08
5.5905e-06
-1.37074e-09
-9.46864e-07
1.61763e-06
2.71671e-06
1.07871e-07
-1.62201e-08
2.34112e-09
-9.67892e-05
2.65197e-08
1.08012e-08
-3.42445e-08
-7.57135e-08
-1.17416e-08
1.23048e-08
-0.00502027
4.89234e-08
-2.55882e-08
-1.17508e-05
-1.43142e-08
2.72713e-09
5.86364e-09
-1.49067e-06
-2.70444e-08
-4.60041e-09
-6.43874e-09
1.71513e-09
-1.23942e-08
1.17611e-06
7.60242e-08
-5.26987e-08
1.83796e-09
-6.42316e-05
2.07965e-08
1.91707e-07
1.60628e-08
1.9564e-06
1.89451e-08
-2.23567e-10
1.00775e-07
-2.7587e-06
-3.80742e-08
2.48087e-08
-3.23566e-08
-0.00158538
2.13688e-09
7.93375e-06
7.06446e-08
9.76206e-07
1.00747e-07
1.51326e-06
2.76034e-05
7.48694e-07
2.82753e-08
-2.21398e-07
8.8276e-10
4.54076e-06
-3.13265e-05
3.48211e-08
-1.20045e-07
2.57618e-09
2.33929e-08
-9.32214e-09
2.07615e-06
2.4693e-09
-5.40673e-07
1.61017e-05
2.25077e-06
5.52685e-10
-3.48824e-07
1.7413e-06
-3.02092e-09
2.28017e-08
7.20938e-09
5.69229e-06
-6.08488e-10
-4.45926e-08
-1.13321e-07
3.49473e-08
-1.11534e-07
-7.61863e-08
-6.16318e-05
5.06712e-08
7.06475e-08
-3.37633e-07
4.00183e-06
5.59076e-07
1.54416e-08
-4.22329e-08
2.85894e-08
4.05423e-07
4.76097e-08
2.53438e-09
-4.38703e-10
5.36049e-06
-2.88274e-09
4.67582e-07
5.56179e-08
-7.65505e-06
2.70675e-08
-1.15666e-06
-1.88032e-07
-1.12015e-05
6.46842e-09
1.58366e-07
-0.0005217
-1.13023e-07
1.47373e-07
-1.11786e-07
3.91653e-06
-8.55365e-08
-2.46066e-07
-3.05524e-08
-1.45452e-05
2.52387e-09
1.31414e-06
3.48799e-08
3.68243e-08
5.62787e-09
-3.07492e-08
-2.10952e-08
-1.22558e-07
-4.36629e-09
6.89697e-07
-2.49937e-08
-7.15097e-08
0.000182735
-1.1471e-07
-3.50741e-06
9.53918e-09
9.5707e-09
-3.26295e-08
-0.000280642
-2.65736e-08
1.83823e-08
-1.12706e-08
4.4347e-08
6.06076e-08
9.46283e-09
1.28714e-07
-0.000533629
7.64344e-09
1.17751e-08
-4.65335e-09
-1.01122e-05
-7.50666e-07
7.05199e-06
3.41454e-09
2.7571e-08
-5.85589e-10
-4.6516e-10
-5.04453e-05
-1.31024e-07
5.80613e-08
-4.12268e-09
3.37666e-09
-1.48704e-08
-3.00289e-10
-5.02047e-09
1.35137e-09
1.0572e-08
-2.90918e-05
3.15031e-09
9.74165e-09
-1.08932e-08
2.05598e-08
-7.49856e-09
2.50609e-08
-1.72784e-08
0.000660384
1.90545e-08
1.15497e-07
1.1788e-09
0.000130608
-2.51622e-09
8.88116e-08
-1.68447e-08
-9.55906e-06
2.93285e-08
2.43339e-09
2.51128e-09
3.28956e-06
3.58322e-08
-1.0309e-08
-1.4518e-07
4.45153e-06
2.83172e-05
-2.38756e-06
1.82939e-09
1.87979e-08
4.08505e-06
7.91623e-08
9.78421e-08
1.27262e-06
-1.70767e-08
1.03188e-08
4.34181e-10
3.92394e-08
-3.10021e-08
-7.33852e-10
2.7224e-09
-2.38741e-08
-4.92898e-08
-3.31319e-09
3.30881e-08
-4.52746e-08
4.07122e-06
-8.45448e-11
1.79698e-08
1.71144e-05
5.60413e-06
5.45355e-07
-5.93137e-08
-4.37715e-09
-0.000476957
1.99132e-05
-8.45005e-09
-8.90884e-09
-1.39574e-08
-6.99265e-07
2.49192e-05
-2.81045e-08
-1.03257e-08
-3.66947e-08
-4.81156e-06
-6.07003e-09
0.00107229
8.44504e-09
6.05213e-10
2.00645e-05
-9.97636e-06
2.52334e-08
0.00292276
9.48016e-08
5.74395e-08
-1.69358e-07
-1.43011e-06
1.98517e-08
3.30701e-09
-2.51407e-08
0.00169007
1.43649e-08
-1.17932e-07
1.28752e-08
-8.40044e-08
-3.07439e-09
2.58574e-07
4.45893e-09
1.21947e-07
-5.17284e-08
5.85964e-06
-4.56217e-08
-4.34946e-08
3.31901e-05
-3.31255e-08
9.46293e-09
6.34853e-08
-3.21301e-08
-1.04851e-05
4.88065e-08
-8.93631e-09
-4.41032e-08
1.38187e-08
-2.32561e-05
2.81243e-08
-2.69949e-06
-9.64085e-08
1.0293e-08
4.91445e-06
5.82763e-09
4.98716e-08
4.62864e-08
-7.79947e-08
1.9042e-05
2.96696e-06
3.53273e-08
-1.09565e-08
-6.11731e-08
-1.82078e-09
3.82026e-08
-1.1312e-08
4.64603e-09
-2.87763e-08
-0.00196728
-0.0021696
3.24637e-06
-0.000303114
-1.26785e-05
3.18504e-08
-4.05555e-08
-7.87137e-09
8.51193e-10
-1.96683e-09
7.34143e-08
2.5019e-08
1.89597e-08
4.93785e-10
0.00023739
-8.22706e-09
-1.24938e-09
6.22591e-09
-9.15023e-09
1.1583e-05
-2.44663e-08
9.48103e-08
4.30179e-06
2.75355e-08
3.56262e-09
-4.49184e-10
4.63778e-08
3.22946e-08
2.58995e-09
-6.34278e-08
2.74861e-05
-4.6115e-05
2.08799e-09
7.5885e-09
0.000693425
-5.67302e-09
7.90353e-08
-8.86468e-08
-3.68587e-08
1.12861e-08
-1.70178e-08
2.80036e-09
4.19961e-09
-7.82165e-05
4.47381e-10
1.98058e-08
-1.45285e-07
-1.10544e-07
2.04755e-05
0.00102534
-4.86487e-08
-3.20828e-06
-2.0597e-09
-8.44995e-09
1.35918e-06
9.5441e-08
2.30495e-10
-4.76219e-08
-2.67096e-08
-1.48514e-09
-2.10526e-05
2.70363e-05
-2.76553e-09
2.77465e-09
5.99614e-09
9.86924e-08
-1.54322e-08
-2.36939e-08
-2.1523e-07
-4.2949e-08
-1.52458e-05
3.91716e-08
3.00245e-05
-6.31511e-08
-9.21664e-09
9.32063e-10
1.83287e-08
1.449e-06
5.74691e-07
-1.00559e-07
-1.40805e-07
7.64702e-09
-4.3176e-06
-7.77326e-08
3.25607e-06
0.000213639
7.3962e-09
-2.77962e-08
-6.32775e-08
4.01705e-08
2.92116e-10
2.95787e-10
-9.06165e-10
1.17806e-06
1.40679e-05
2.40309e-05
5.08604e-08
1.87394e-09
-0.000387084
-5.26979e-08
-1.13058e-08
-5.69436e-08
-3.97044e-08
5.70111e-08
-6.06957e-08
8.46392e-08
-3.55538e-08
1.03259e-07
-7.63339e-07
-1.03728e-07
-5.82829e-09
-6.42552e-08
9.4777e-09
1.37856e-05
-6.32136e-08
3.37278e-08
1.77075e-09
1.06072e-08
8.08254e-08
-2.29765e-08
5.77107e-06
-3.40544e-09
3.61529e-09
5.95718e-06
-1.70697e-08
-1.37801e-08
3.89069e-10
-0.00672937
9.20694e-09
1.00211e-07
-3.50432e-06
9.06939e-09
3.39339e-08
1.00716e-08
9.46239e-08
-5.3788e-06
-8.05955e-06
-3.70141e-10
-3.41412e-08
4.11852e-08
3.42369e-06
-6.46617e-08
7.04272e-05
-4.33298e-08
-1.4734e-08
-6.08624e-08
-3.76948e-05
-0.000322192
3.55557e-08
3.19418e-08
1.35229e-09
7.66961e-10
-2.88456e-05
1.80716e-06
2.92009e-05
2.60401e-05
3.06518e-10
4.76651e-06
3.41269e-09
9.70578e-09
1.53341e-05
-5.94145e-08
-5.97139e-09
-3.3916e-08
3.50723e-06
8.52059e-09
-7.55204e-07
8.26282e-06
-6.53693e-10
7.33297e-09
3.17849e-05
-4.83085e-06
3.66879e-08
-5.37935e-08
5.25362e-09
7.47091e-09
8.25281e-10
4.50342e-08
9.6838e-07
-1.4622e-09
2.56353e-09
9.04312e-05
1.01384e-08
-0.00394496
1.64969e-08
-4.43183e-09
3.54823e-09
6.55172e-09
-1.06763e-09
2.86299e-05
-1.00984e-09
-6.67686e-10
3.88207e-09
-0.00214244
-3.76411e-05
1.19711e-09
-1.5516e-08
-1.31582e-10
1.99668e-05
2.90427e-08
6.67841e-09
1.59004e-08
-0.00262249
1.0972e-06
1.44046e-07
-1.61407e-09
1.0406e-07
7.01813e-08
-1.12346e-08
-7.76401e-09
2.14057e-09
-7.46405e-05
-6.30111e-10
6.47879e-08
0.000756066
-6.24041e-08
-1.43408e-08
3.0631e-08
6.36746e-08
1.1753e-08
1.29985e-08
1.75311e-09
-0.006289
-1.99605e-07
3.69971e-09
2.03233e-05
-7.19367e-08
1.42376e-06
-8.0372e-08
1.43985e-05
3.5311e-09
-1.22671e-05
0.00051244
-2.1557e-09
2.36775e-08
2.8934e-05
-1.12977e-08
2.69269e-05
3.08167e-09
2.10044e-08
-0.00146611
6.91461e-09
2.0703e-08
3.93789e-09
8.52261e-08
-0.000491374
1.94934e-06
0.000985407
-5.12587e-09
6.49225e-08
5.91166e-08
6.20885e-06
0.000125422
3.08763e-05
-0.000244246
-2.59591e-08
-0.000933274
4.09821e-08
-1.17035e-08
4.37927e-09
-1.6204e-06
7.12043e-09
3.37489e-08
4.42172e-05
-0.00119887
5.35434e-08
-2.563e-09
2.41532e-06
-2.0641e-08
1.13042e-07
4.35749e-09
-1.26905e-09
-3.25326e-09
-1.00657e-09
1.05219e-07
6.36511e-09
2.85669e-06
7.24273e-09
4.01533e-09
1.14485e-05
9.32474e-08
-1.87608e-08
1.03985e-08
-6.83748e-08
-0.00132756
-8.44553e-10
-0.00216993
0.00108469
5.10894e-08
-1.55946e-08
-0.000242107
-2.32407e-08
-0.00117718
2.8142e-05
3.64897e-07
1.57455e-06
-5.26006e-08
3.22531e-08
-0.000879374
8.56864e-10
-6.90842e-09
8.7988e-08
5.42638e-09
-2.10548e-05
9.29415e-06
-2.08955e-08
-1.91901e-10
1.48063e-07
-4.00626e-09
1.1595e-08
-7.90234e-08
-0.00149625
-6.56167e-10
4.49521e-08
-0.00165177
-7.09579e-10
-4.41364e-08
1.47433e-07
1.01281e-07
0.000165321
4.32167e-09
2.88551e-05
-5.43904e-09
-1.813e-08
-6.0814e-05
-2.03644e-05
4.04117e-09
2.42196e-09
1.08432e-05
1.01017e-08
-0.000365442
3.73169e-06
1.73349e-08
-3.35682e-05
8.21586e-09
-0.000180461
6.87866e-07
4.35576e-09
-2.63942e-07
3.31281e-05
1.08319e-07
6.73308e-07
-8.62462e-08
5.37384e-09
-2.30846e-08
-2.3004e-05
-1.16899e-08
4.07049e-08
-1.38318e-05
-2.67754e-06
5.9235e-07
-3.29235e-09
1.54771e-05
-3.24485e-08
3.04075e-08
5.85249e-07
2.02359e-09
-2.04072e-09
4.4561e-08
-1.49108e-07
-3.77958e-09
-1.99836e-08
0.00219012
6.45494e-09
0.0019419
6.96058e-06
-5.8311e-10
9.71048e-06
-1.09881e-08
3.31382e-05
7.3748e-10
4.19576e-09
4.72139e-09
0.000657559
4.80546e-09
2.05919e-08
9.06382e-08
0.000178686
7.49457e-08
-0.000743285
-0.000265912
5.98687e-08
-1.10553e-07
-4.60247e-08
-1.43121e-08
8.03196e-05
-2.65527e-05
1.20872e-08
2.16575e-05
-2.43315e-06
1.2564e-07
-0.0011997
2.4879e-06
-7.03825e-08
-1.42493e-07
-3.43553e-07
6.09167e-09
1.70696e-09
-7.34455e-07
3.57395e-09
-2.81128e-09
-1.19672e-05
1.9477e-08
-1.90407e-08
9.82699e-09
-2.44469e-08
1.91627e-08
-8.73924e-05
4.15689e-06
-8.40098e-05
0.000553504
5.8387e-08
-8.5746e-08
1.20987e-08
1.80961e-09
-6.23205e-07
-2.84155e-09
-5.77801e-08
2.24376e-09
9.41598e-10
-1.20549e-08
5.10234e-08
-4.02158e-08
2.44236e-08
2.39699e-09
-1.78881e-07
1.77585e-07
0.000354645
-2.91026e-10
-2.53696e-05
1.5189e-07
-2.81999e-07
-8.91393e-08
0.000235755
9.80175e-10
4.45001e-05
7.58727e-08
1.16872e-06
1.10457e-08
1.04203e-08
1.95514e-08
6.07787e-09
-1.27559e-08
-5.43185e-08
0.00125986
-3.93251e-06
3.32885e-05
0.000103554
-1.6329e-07
1.18297e-07
4.55175e-06
9.40749e-09
-3.06658e-07
-7.69252e-08
0.00116321
8.6364e-09
-4.85487e-08
2.06177e-08
-9.09098e-08
-8.4654e-09
1.58945e-07
-1.80361e-11
-8.30092e-06
-1.02087e-09
1.65712e-05
2.13514e-05
-4.82457e-08
0.000231467
-2.41852e-06
-2.061e-09
-0.000365526
-1.33416e-07
4.49191e-09
-3.1506e-08
3.32901e-08
-4.97387e-09
2.22001e-05
-0.0024588
1.10783e-08
3.27578e-05
1.89094e-07
5.7244e-09
-2.14279e-07
-1.98245e-08
0.000209854
2.6086e-09
0.000551425
-1.6344e-08
5.51346e-08
9.34499e-09
1.26154e-08
-9.38006e-08
-0.000311032
4.65871e-06
2.57247e-10
-5.57194e-10
7.54531e-06
-1.42214e-05
-7.25186e-09
1.92723e-05
6.13823e-08
-5.66349e-05
7.44032e-05
-7.17752e-08
-2.65495e-05
-1.40869e-09
5.4339e-08
4.46829e-08
-5.82013e-09
6.20161e-06
3.07824e-05
-2.19331e-08
5.6143e-06
-1.19061e-08
4.49825e-09
-3.92822e-05
-1.44436e-10
-5.23745e-08
-3.80561e-08
-0.0056383
-6.81873e-05
-1.07774e-07
1.90679e-08
1.24554e-06
9.12432e-05
5.81308e-08
2.09492e-08
2.54312e-09
2.19992e-09
1.2099e-07
-4.05803e-08
7.86939e-09
3.42491e-05
1.04357e-07
-8.95618e-08
1.9784e-08
4.11395e-08
-9.24372e-08
-3.11213e-08
3.43582e-08
-0.000379877
-7.94787e-07
1.27138e-07
-5.27403e-09
4.17628e-07
-1.04853e-07
-6.93883e-09
3.80565e-08
-6.02455e-10
-3.55947e-08
7.87455e-08
-4.29157e-09
2.41639e-06
-2.03128e-09
2.43982e-08
-6.66614e-09
5.55766e-06
-1.19929e-09
-4.9533e-08
6.37941e-08
-8.14149e-11
1.1414e-09
-1.56907e-07
8.14415e-08
8.62923e-07
-4.3007e-08
-1.19356e-07
-3.09993e-08
-2.01765e-05
1.25566e-05
9.10598e-09
4.50245e-06
-2.0515e-08
-2.63844e-08
1.76547e-05
1.30621e-08
0.00207294
-3.16707e-08
1.00137e-08
-6.88211e-08
5.98005e-08
3.04453e-08
5.30621e-10
2.16596e-09
9.24887e-09
1.11889e-09
2.38236e-09
1.38435e-08
-6.42833e-09
1.13803e-05
-7.8142e-09
-0.00250476
-1.49218e-07
-2.26712e-07
2.59035e-08
1.25937e-06
-6.27707e-07
5.80267e-06
-0.000143331
-7.58275e-08
1.86329e-05
2.07097e-09
-0.00158029
5.72605e-06
-1.55167e-08
1.47227e-07
1.65335e-08
6.84968e-05
3.21203e-09
2.12178e-06
1.33838e-08
1.65243e-08
-7.99983e-06
-5.1401e-09
5.92668e-09
1.93559e-05
-1.34614e-09
-3.2546e-09
8.85443e-09
-8.06591e-09
1.02527e-07
2.44593e-08
-2.96353e-09
-0.00214975
2.00232e-08
1.02873e-05
3.20674e-05
8.04317e-09
0.000215391
-1.8269e-08
-3.48513e-07
0.00347521
-1.07544e-08
-4.15719e-09
6.51021e-06
1.00058e-05
1.50324e-05
0.00128593
7.3535e-07
2.09327e-08
-1.50455e-08
2.94207e-08
-2.18098e-08
-2.95867e-08
-8.14393e-09
5.77994e-08
2.13376e-07
9.22377e-06
-6.62275e-08
-0.000153112
4.85961e-08
-6.48477e-05
-3.23311e-10
-7.87306e-08
9.21184e-10
5.20702e-08
1.00221e-09
4.7949e-06
1.5774e-08
-1.89967e-09
-0.000655602
5.10671e-09
4.30298e-08
1.33781e-08
1.37773e-08
3.01439e-05
3.36403e-05
1.46423e-09
1.17948e-06
-7.16692e-08
-8.41206e-10
-7.38961e-09
-5.1865e-10
0.000182018
-8.49173e-08
8.84392e-09
2.84891e-05
-0.000299074
-7.7459e-09
-4.42734e-06
-5.88193e-06
-6.59032e-05
-3.47224e-08
-8.93743e-10
2.58805e-08
-9.5366e-10
1.54724e-09
-1.73173e-05
3.48857e-05
6.54409e-08
2.86411e-08
7.27974e-08
-2.34138e-06
8.81438e-06
3.85801e-09
0.00227629
-4.46614e-05
-7.45219e-09
-0.00126535
7.10831e-10
0.00317188
-2.11473e-08
-9.10221e-08
3.49176e-05
1.85468e-05
6.54922e-09
-0.000260424
8.34295e-09
-5.64616e-07
-5.60848e-08
-2.23246e-08
0.0030365
7.79676e-09
1.01189e-07
0.000711005
-8.29253e-08
3.70316e-09
-1.29217e-07
9.19554e-06
0.00150567
8.07131e-08
-2.23643e-08
-1.44844e-05
2.05692e-07
-1.03366e-07
2.0814e-08
-3.65206e-09
6.42334e-08
3.54288e-09
-1.50332e-08
-1.71553e-07
1.37672e-06
-4.9121e-08
1.35943e-07
5.24736e-09
1.10191e-08
-2.15252e-05
-2.04339e-09
-2.07559e-08
4.40812e-06
-6.61416e-05
-6.31195e-07
0.000366567
0.00309858
-6.19847e-06
-5.06204e-09
-2.48457e-08
5.1885e-08
2.54013e-07
-1.60156e-05
-2.26746e-09
1.67363e-05
4.52801e-08
-1.49612e-07
2.645e-08
-9.53476e-09
-5.74091e-06
6.35712e-08
-7.5959e-08
-0.00236506
5.39332e-08
-1.79175e-08
-0.000129458
3.53342e-08
5.71839e-08
1.45542e-05
-5.87259e-09
0.000350098
-4.24623e-09
1.04512e-08
6.10874e-10
1.09124e-08
-1.4568e-07
-2.41113e-09
0.000236386
3.57283e-08
1.5865e-05
2.5646e-09
2.87917e-08
1.12635e-05
1.25186e-07
5.24162e-08
2.01903e-09
-2.59983e-08
2.97009e-08
-1.89659e-08
-9.55614e-09
3.55373e-05
-0.00116551
6.9849e-07
8.26186e-10
2.9743e-08
9.81781e-06
2.91142e-09
1.46443e-08
-3.64632e-08
8.53224e-09
-3.34147e-09
3.11348e-09
-6.35292e-08
2.85857e-09
1.02375e-05
-1.4268e-09
1.95549e-07
2.2398e-07
3.81917e-06
-1.85812e-05
2.84518e-06
8.8036e-09
2.42966e-08
1.74495e-08
0.00186187
-8.20589e-09
1.41569e-06
-1.19442e-05
6.71355e-09
2.49715e-08
7.32608e-09
-7.77418e-09
-9.58673e-09
-4.22545e-06
-0.00052601
1.981e-09
1.10039e-05
5.00774e-09
1.24968e-05
-4.23369e-08
4.59535e-05
3.20876e-05
-2.09115e-08
3.12478e-09
-4.00431e-08
3.45079e-05
-6.49748e-09
-2.46709e-09
1.78465e-09
4.83749e-08
-6.89199e-06
-1.85238e-09
2.01179e-05
2.03185e-06
8.13499e-10
-1.93793e-09
-3.46717e-08
-2.72303e-06
-5.39866e-08
-7.38973e-08
2.72357e-07
-8.08678e-08
-7.47894e-08
-4.52497e-05
-8.57365e-09
-3.92912e-08
1.75293e-09
7.93009e-10
0.000118347
1.77786e-08
-0.000987411
-2.26329e-08
4.02274e-08
0.000381012
-3.83638e-05
-1.76084e-08
-4.81045e-09
2.95464e-08
5.42707e-08
-2.74657e-07
-1.4224e-09
-0.00183958
-2.77449e-07
5.03491e-07
4.11969e-09
3.38661e-09
-0.00115983
5.89191e-07
-8.27442e-05
-3.48219e-08
1.0442e-05
-2.00957e-06
-1.8546e-09
-1.53263e-09
1.34732e-07
0.0040035
4.34549e-06
2.62334e-09
1.59571e-08
4.09915e-08
4.0346e-10
-4.96991e-07
7.1738e-06
3.09997e-05
9.93735e-07
-5.95633e-09
3.16383e-05
-5.6984e-08
-5.01959e-09
-1.81723e-08
2.52519e-08
9.31234e-09
7.78728e-08
9.65591e-06
8.59714e-08
-7.32208e-08
-1.91288e-08
1.36399e-08
-1.36102e-07
3.03592e-05
1.34551e-08
-2.01816e-09
1.24089e-08
6.26432e-07
1.43675e-08
1.18473e-09
-3.37545e-09
5.85231e-07
8.66203e-09
-1.42658e-09
6.40434e-09
1.66558e-09
-1.16698e-07
4.14527e-09
-1.58152e-09
-7.83043e-08
-1.05161e-08
-2.60885e-09
1.74905e-09
2.65041e-06
0.000166698
3.09196e-09
1.38936e-05
2.19648e-08
0.000358524
7.48734e-08
-1.0636e-07
-1.14972e-08
-5.94216e-08
2.28319e-08
-1.35833e-08
2.74645e-05
0.000109093
-9.97685e-08
2.31593e-08
9.3387e-05
3.73266e-08
4.6409e-08
-2.36496e-09
3.75827e-08
1.41381e-06
-2.57491e-06
-2.21842e-07
5.68321e-08
-3.29781e-08
4.37573e-08
1.54227e-08
-0.000416423
-4.15482e-09
-3.18591e-06
6.24169e-06
-1.79529e-05
1.765e-08
-1.52459e-09
2.15391e-09
-7.3763e-10
-9.44359e-07
-9.21917e-10
3.03989e-09
-0.000161295
-5.04571e-08
-1.05784e-07
2.14788e-08
-1.79558e-09
-1.18248e-07
9.43849e-06
2.91084e-06
-1.55451e-05
6.51666e-06
1.61951e-05
4.2046e-09
-0.000122294
-5.54159e-09
1.03864e-07
2.24891e-06
1.74913e-05
-6.70253e-09
4.94777e-06
-0.00153174
-4.104e-07
-5.34662e-06
0.000220974
-3.12509e-09
1.301e-05
-8.27031e-09
-3.52892e-06
1.60709e-05
2.09662e-05
4.86688e-09
1.78825e-09
6.83238e-06
-0.000900715
1.28015e-08
-5.78957e-09
-8.7902e-08
3.50413e-08
-5.32456e-08
0.00146163
-3.36567e-06
1.89179e-07
9.35262e-08
-1.54507e-05
-2.70867e-08
-3.4373e-07
-2.39549e-08
1.91606e-07
-4.70166e-09
-8.44709e-09
4.11437e-08
-1.35734e-05
-3.22155e-08
1.11748e-08
1.49508e-08
1.7295e-05
1.82102e-08
-1.28131e-09
-3.49515e-08
-3.82319e-10
6.89996e-08
-2.49362e-08
-5.4321e-08
1.36033e-09
-9.66436e-08
0.000723481
1.5542e-05
-0.0001465
-5.83501e-06
3.64539e-09
-1.49888e-08
5.5713e-08
1.56494e-06
4.68788e-09
-1.53672e-08
-2.90151e-09
-3.07203e-08
-7.73489e-09
4.42294e-09
3.33858e-06
1.88595e-08
6.73983e-09
-1.38177e-07
1.86993e-08
4.7927e-08
6.44403e-09
1.98204e-08
5.03392e-09
-3.28916e-08
-5.4528e-08
-1.52277e-08
-0.00238016
2.43319e-06
8.33627e-09
-7.08596e-05
0.000494996
9.69233e-09
3.50398e-08
2.46442e-05
6.97319e-09
0.00102812
-6.04674e-06
0.00118767
-2.25511e-08
0.00409278
2.17943e-05
7.15583e-07
1.99474e-06
8.12607e-09
-2.16849e-06
3.63412e-07
2.52314e-09
-4.48659e-08
6.97014e-08
-6.18369e-10
-2.98237e-05
-2.37904e-08
1.6965e-08
-2.24207e-05
-6.999e-09
-1.45972e-08
-6.10498e-08
9.74177e-06
4.10665e-08
-5.46536e-08
9.37102e-08
-5.67603e-07
3.38857e-08
4.42233e-09
0.000411225
2.72142e-08
1.42738e-06
1.67703e-07
-4.37322e-06
5.48872e-08
-6.9402e-08
-2.63857e-08
-4.58179e-09
1.68577e-07
1.04612e-07
-1.90313e-09
-1.5384e-07
-0.00149932
1.05813e-08
-8.30051e-09
-5.81613e-09
1.08924e-06
3.71965e-08
9.9516e-06
0.00125423
-1.94581e-09
-4.01836e-05
4.67294e-08
5.16305e-08
1.76197e-05
9.30975e-09
2.70001e-05
2.17996e-08
4.53846e-06
6.08336e-09
-0.00101649
4.86918e-09
2.29621e-08
1.57694e-06
-2.34156e-08
3.29264e-06
6.63616e-10
-7.79451e-08
0.00173695
1.01122e-09
4.74889e-08
-1.53353e-05
2.23347e-09
-1.12821e-07
2.47826e-08
0.00245874
-5.41227e-05
-7.80016e-05
1.30734e-09
-3.92409e-07
-5.42892e-08
6.37957e-10
-3.26812e-09
-4.51182e-08
6.7181e-09
1.4051e-08
-6.68712e-05
-7.63862e-09
2.39953e-08
2.88168e-06
1.18576e-05
6.57682e-10
1.17061e-07
8.69479e-09
-1.37436e-07
8.63136e-07
-2.92701e-08
-0.000305626
0.000191752
6.69864e-08
8.74528e-09
-1.38517e-08
4.54194e-09
2.13635e-05
3.07725e-06
2.0609e-09
-6.60874e-08
-9.00281e-08
-5.38767e-08
1.82662e-08
2.25736e-08
-1.51699e-09
1.73667e-07
3.40539e-05
0.000857917
-6.51467e-09
3.45857e-09
5.18886e-06
2.57295e-08
-2.0521e-09
-2.06547e-08
4.99304e-09
-3.35397e-05
2.77919e-08
4.82093e-06
7.95435e-06
1.09161e-08
-2.25958e-05
-1.1875e-08
2.99772e-08
-1.61431e-08
7.57737e-08
3.73298e-08
7.68921e-07
7.29008e-06
4.85498e-06
-1.60451e-08
1.31167e-07
4.69133e-06
-4.55036e-06
7.7537e-08
2.18116e-08
0.000560722
4.1502e-08
9.06212e-06
-5.30839e-09
-2.74188e-08
-1.41362e-08
-2.49929e-08
2.13641e-05
-1.95551e-05
4.20744e-08
-1.46242e-05
-9.25547e-05
2.01339e-05
3.22433e-05
1.22372e-08
-1.1949e-08
6.84876e-08
1.91002e-08
-3.19741e-09
5.95742e-09
7.10757e-09
1.92303e-05
2.55165e-05
-5.64376e-10
5.11477e-08
3.47868e-08
7.29462e-06
-7.02677e-08
1.77202e-05
-4.94278e-09
-2.18306e-08
1.7909e-07
1.96516e-05
-3.8049e-07
5.7649e-09
-1.54381e-08
-1.10891e-05
0.000112852
-1.25509e-07
5.92137e-06
-1.55402e-08
-0.00336113
-4.4475e-08
7.75192e-10
-5.03875e-08
3.89538e-09
2.79447e-09
0.000324854
7.87098e-09
-1.71273e-08
-1.40436e-05
1.61178e-05
-7.70816e-08
1.70747e-08
3.14436e-10
-4.15995e-05
6.71556e-09
-3.98533e-08
-0.00342619
-3.56541e-09
-5.10675e-05
1.84293e-07
-2.93474e-05
-2.82425e-05
-0.00222504
1.93417e-08
-1.37845e-07
-3.30692e-09
5.5368e-06
-5.59063e-08
-1.56248e-07
1.85835e-06
4.21293e-05
-8.01123e-08
2.67732e-06
1.57911e-05
-7.70166e-08
1.40344e-05
2.91106e-08
2.58022e-08
7.52003e-07
-3.09308e-08
-6.78659e-08
-1.66314e-08
3.57644e-08
1.43517e-08
3.01811e-08
1.52253e-05
4.13109e-06
2.24345e-05
1.81298e-08
-5.09093e-08
8.61384e-09
9.69835e-09
2.2207e-09
7.03318e-09
-2.75777e-09
-4.93686e-09
7.93075e-07
1.47101e-09
-8.12987e-08
4.74777e-09
2.56852e-08
-2.92243e-08
-3.15312e-08
1.49522e-05
-3.27505e-08
1.41451e-05
1.58967e-09
1.94159e-05
-2.94378e-05
-1.14537e-07
1.79478e-05
-5.60872e-09
8.86815e-06
-9.75676e-09
8.39073e-06
2.35343e-08
3.25727e-08
4.97541e-06
2.25179e-09
-1.11755e-05
-0.00284765
2.84659e-08
3.45118e-05
3.25224e-08
7.12088e-09
1.41206e-07
-1.29221e-07
1.51334e-06
-1.23349e-08
5.70378e-09
0.00249716
3.86155e-08
1.06489e-05
-1.19871e-07
5.26294e-06
-2.51965e-08
2.91499e-06
-6.89815e-08
5.82046e-09
2.64088e-09
4.78843e-09
3.18115e-08
-6.30454e-09
-1.18198e-07
2.01288e-10
-0.00180228
5.40125e-08
3.72255e-08
6.99427e-09
7.33702e-09
-4.41033e-08
2.11278e-09
1.47879e-05
-1.8097e-07
-1.12604e-08
5.69559e-07
3.21315e-05
-4.03593e-08
-2.32495e-08
7.89511e-08
6.15028e-06
-0.00166885
2.48359e-05
7.18663e-09
-1.23048e-08
-9.56245e-09
2.05404e-05
-3.16307e-08
1.66739e-06
-1.28149e-09
-5.05787e-08
5.21803e-08
4.17477e-08
-1.61803e-09
2.07772e-08
1.14095e-07
-2.61567e-09
-3.46652e-09
-1.66927e-08
-5.19736e-08
-2.83203e-05
-5.21549e-08
2.34601e-09