/*--------------------------------*- C++ -*----------------------------------*\
| =========                 |                                                 |
| \\      /  F ield         | OpenFOAM: The Open Source CFD Toolbox           |
|  \\    /   O peration     | Version:  v2012                                 |
|   \\  /    A nd           | Website:  www.openfoam.com                      |
|    \\/     M anipulation  |                                                 |
\*---------------------------------------------------------------------------*/
FoamFile
{
    version     2.0;
    format      ascii;
    class       volScalarField;
    location    "100";
    object      epsilon_0;
}
// * * * * * * * * * * * * * * * * * * * * * * * * * * * * * * * * * * * * * //

dimensions      [0 2 -3 0 0 0 0];


internalField   nonuniform List<scalar> 
14033
(
7.56971e-06
0.00352108
6.22129e-07
1.04829e-06
4.17718e-07
1.35611e-06
0.000126086
1.1761e-06
1.04465e-06
0.00195133
5.55019e-07
1.78578e-06
1.32291e-06
1.32185e-06
4.14745e-07
1.62532e-06
1.49625e-06
0.0120316
1.16853e-06
1.57608e-06
1.60225e-06
1.78837e-06
1.9669e-06
4.16213e-07
5.62044e-07
1.16218e-06
2.34798e-06
2.33377e-06
5.0877e-06
4.55278e-06
1.48214e-06
1.16893e-06
2.86047e-06
1.5576e-06
0.000123592
8.68553e-07
0.00224314
0.00249909
4.34698e-07
1.41964e-06
0.00270367
1.60731e-06
6.40331e-07
5.03099e-07
6.64783e-07
6.36241e-07
0.0034499
1.34492e-06
2.61574e-06
0.00194309
1.37155e-06
9.16713e-07
0.00437143
0.00156024
1.50199e-06
1.33137e-06
8.20082e-06
0.00562098
1.57156e-06
1.4772e-06
5.86328e-07
0.00199622
1.68196e-06
6.4786e-07
7.64632e-07
6.30687e-07
6.86248e-06
2.1322e-06
5.97475e-07
1.40075e-06
8.21239e-07
1.50416e-06
0.00341755
1.58404e-06
1.65635e-06
5.94504e-07
1.45303e-06
1.40211e-06
0.0061356
3.84335e-06
6.32449e-07
0.00651224
0.00487487
1.02094e-06
5.77062e-07
1.49061e-06
1.1812e-06
0.00165474
0.00368823
1.58339e-06
1.24384e-06
6.35446e-07
1.03647e-06
0.000727122
5.95134e-07
1.00775e-06
1.37695e-06
6.50796e-07
0.00234583
1.06923e-06
6.34631e-07
1.33879e-06
5.84796e-07
9.66975e-07
0.00350876
2.50571e-06
0.00366616
1.02247e-06
2.0825e-06
8.03061e-07
0.00332204
9.9683e-07
5.85949e-07
1.02724e-06
1.18542e-06
1.46316e-06
4.60674e-06
4.22724e-07
0.000410396
2.86508e-06
1.2138e-06
1.68854e-06
0.00215723
1.19411e-06
0.000837739
1.02958e-06
6.36763e-07
4.96062e-07
0.00420214
1.38238e-06
0.0033828
6.08666e-07
4.16552e-07
0.00266186
0.00337741
1.40603e-06
2.44272e-06
7.86002e-07
1.38825e-06
1.02774e-06
1.49675e-06
0.000302554
1.84601e-06
1.61633e-06
4.92903e-06
6.67758e-07
1.21046e-06
1.7106e-06
0.00220542
0.000507937
4.94354e-07
1.49269e-06
8.26766e-07
1.15256e-06
1.32825e-06
0.00283523
9.61665e-07
7.54638e-07
9.62349e-07
4.15416e-07
1.27065e-06
2.3516e-06
0.0024278
8.58605e-07
1.57586e-06
1.27251e-06
1.4805e-06
1.66982e-06
0.022359
1.22636e-06
1.62484e-06
2.44638e-06
1.78427e-06
0.0190502
5.90704e-07
1.23059e-06
2.91827e-06
0.0047662
1.77152e-06
1.61946e-06
2.74785e-06
0.00576423
1.48542e-06
6.82889e-07
8.13948e-07
0.00361183
0.00270354
1.41203e-06
0.0219337
0.00352207
2.91838e-05
1.47513e-06
1.14815e-06
1.41896e-06
0.000774615
0.0017962
1.67176e-06
0.00390172
1.03382e-06
8.12743e-07
1.13019e-06
1.47564e-06
7.66562e-07
2.73744e-06
1.48527e-06
7.71398e-07
1.68123e-06
1.14945e-05
1.61377e-06
1.52496e-06
0.00533098
9.32188e-06
7.22804e-05
0.000604621
4.36775e-07
1.26434e-06
9.46379e-07
9.30143e-05
9.13452e-07
1.65601e-06
1.61473e-06
6.99466e-07
6.98896e-07
1.18753e-06
1.36835e-06
5.47997e-07
1.90261e-06
1.48334e-06
1.03045e-06
5.09685e-07
6.32778e-07
2.43319e-06
1.49584e-06
4.22156e-07
0.000116624
0.00265107
2.63203e-06
5.16271e-07
1.00529e-06
8.9877e-07
0.00219857
1.40754e-06
1.10541e-06
6.07851e-07
1.48266e-06
5.13408e-07
0.00418459
0.0163753
1.16718e-06
6.18766e-07
1.34789e-06
0.00551183
5.01692e-07
0.000105623
1.0191e-06
0.00111951
8.91326e-07
1.2194e-06
4.96123e-07
9.72995e-05
4.40156e-07
0.00923849
4.27963e-05
1.6634e-06
1.50748e-06
7.10633e-05
1.48773e-06
3.69553e-06
5.26422e-05
0.00377639
1.58149e-06
0.00265668
4.99242e-07
1.60074e-06
0.000261146
1.00105e-06
6.39502e-07
2.33319e-06
1.15929e-06
0.000425302
2.66986e-06
8.69892e-07
3.6016e-06
1.63462e-06
0.0212921
0.000727726
0.0034714
4.9802e-07
0.00665217
4.64736e-05
1.03333e-06
1.76099e-06
1.80893e-06
2.89664e-05
1.2415e-06
6.04685e-07
6.94317e-07
1.01541e-06
6.04851e-07
1.11496e-06
6.92948e-07
0.000191859
0.0011221
1.5636e-06
1.58871e-06
1.96664e-05
1.51288e-06
6.84162e-07
0.00414329
1.46344e-06
2.26924e-06
8.87302e-07
2.5519e-06
1.85832e-06
7.74767e-06
1.41514e-05
1.27365e-06
1.46287e-06
1.32446e-06
0.00610594
0.00346866
2.3102e-06
1.44532e-06
5.89842e-07
1.02808e-06
0.00185047
1.56668e-06
5.82854e-07
0.00354528
1.69562e-06
1.33237e-06
0.0047538
0.00327099
1.57611e-06
4.49155e-07
0.00256138
2.4751e-06
1.10857e-06
0.0027932
1.53287e-06
0.00474048
1.91086e-06
8.80257e-07
1.52704e-06
1.08952e-06
5.76207e-07
1.69005e-06
1.32437e-06
0.00222866
0.00014214
6.88156e-07
1.33844e-06
0.00366772
1.71099e-06
1.12077e-06
4.35337e-07
1.51993e-06
0.00254172
5.58527e-07
9.68886e-07
1.12682e-06
1.75186e-06
0.00218462
1.1623e-06
1.50197e-06
1.68475e-06
1.4328e-06
4.21258e-07
1.44731e-06
6.14605e-07
5.46848e-07
6.13296e-07
1.10467e-06
1.37812e-06
2.26049e-06
0.00484717
1.46481e-06
1.63659e-06
0.000880896
4.86696e-07
5.06746e-07
1.55061e-06
1.22631e-06
9.43523e-07
0.00190391
1.18386e-06
0.00332152
5.16809e-07
1.6314e-06
1.96874e-06
6.88985e-07
0.00446947
1.611e-06
1.25694e-06
3.02749e-05
0.00427529
1.99113e-06
0.0074611
2.19711e-06
1.47936e-06
0.000110603
1.21766e-06
6.25809e-07
5.12703e-07
1.54272e-06
1.36487e-06
1.45208e-06
4.32329e-07
1.23313e-06
0.00123682
0.00280579
4.58519e-06
7.55368e-07
0.00561442
5.51406e-07
1.30211e-06
2.88091e-07
1.53516e-06
1.24038e-06
0.00236002
1.5078e-06
1.7611e-06
1.66436e-06
1.52561e-06
1.10872e-06
1.48026e-06
1.46288e-06
4.16905e-07
1.60152e-06
1.18698e-06
1.13025e-06
1.42142e-06
1.46769e-06
1.30296e-06
2.89818e-07
1.11622e-06
1.42626e-06
1.31889e-06
2.32846e-06
7.5728e-05
0.000101753
5.19973e-07
1.33179e-06
6.22841e-07
1.16537e-06
8.44857e-07
1.68944e-06
0.00210765
6.81151e-05
1.05366e-06
0.00425306
5.58152e-07
8.16616e-07
1.15696e-06
1.09108e-06
7.95588e-06
2.83842e-06
1.18034e-06
4.11271e-07
1.60263e-06
1.41611e-06
0.00333634
0.000301141
7.03455e-06
4.86005e-07
1.18104e-06
0.00055627
9.74064e-07
5.03521e-07
0.000350373
1.42749e-06
1.60415e-06
9.28197e-07
1.56873e-06
5.47348e-07
0.00574596
1.15286e-06
6.41523e-06
1.25013e-06
0.000784821
8.95749e-07
0.00397842
1.56991e-06
0.00211072
0.00358382
6.49977e-07
0.011493
7.73701e-07
2.04631e-06
8.55164e-07
1.51e-06
0.0150654
0.0101554
1.77117e-06
9.28765e-07
1.47058e-06
2.46424e-06
0.00108317
1.48415e-06
9.63371e-07
1.52997e-06
1.12761e-06
8.04972e-06
6.12335e-05
2.08906e-06
6.40283e-07
1.05722e-06
0.00119259
1.18267e-06
2.08399e-06
5.30647e-07
9.8252e-07
0.00405732
5.13086e-07
1.16027e-06
1.41149e-06
1.72993e-06
5.83897e-07
0.000648119
0.000101801
6.28982e-07
4.19077e-06
6.28706e-07
1.21123e-06
9.99352e-07
1.44508e-06
1.38261e-06
1.54754e-06
1.50407e-06
1.25137e-06
1.46773e-06
1.17418e-06
0.00260073
9.82152e-07
8.20134e-07
1.2313e-06
9.02595e-07
1.28288e-06
1.26125e-06
3.02312e-06
1.69276e-06
0.0002594
4.5065e-07
1.00034e-06
2.22913e-06
1.51277e-06
3.53503e-07
6.18231e-07
0.00011433
1.33127e-06
5.04211e-07
0.00401363
4.18814e-07
6.19232e-07
1.13628e-06
2.57259e-06
9.77185e-07
1.47235e-06
1.66073e-06
0.00256707
1.51416e-06
0.00363914
1.58161e-06
1.62539e-06
1.58055e-06
1.62265e-06
8.59348e-07
1.4122e-06
1.51178e-06
1.04894e-06
0.000417108
0.00277591
0.00110684
1.27993e-06
0.013647
1.08086e-06
0.0221661
0.00383715
1.62937e-06
0.00263906
1.58195e-06
1.38849e-06
6.08901e-07
6.23345e-07
5.99812e-07
3.49768e-06
1.3576e-06
2.46495e-06
5.99485e-07
1.14645e-06
0.00346786
1.60842e-06
6.56557e-07
1.89629e-06
1.24346e-06
1.07286e-06
4.21628e-07
0.00240892
6.89312e-07
1.3771e-06
1.38356e-06
6.10124e-07
1.32416e-06
0.000609988
1.62266e-06
0.0193087
0.00202577
0.0030494
1.97253e-06
1.61028e-06
1.11823e-06
1.17098e-06
1.36192e-06
9.08722e-07
0.000733717
6.33035e-07
5.05352e-07
1.16301e-06
0.00317247
0.00620123
0.00502288
1.02118e-06
1.19432e-06
1.62273e-06
5.42931e-07
1.66563e-06
1.30227e-06
1.69359e-06
1.68509e-06
1.71644e-06
5.22355e-07
6.05323e-07
5.26729e-07
3.76858e-06
1.39652e-06
0.000577049
4.43683e-07
1.38258e-06
2.36188e-06
5.96568e-07
2.05012e-06
1.31008e-06
5.8712e-07
0.000829275
2.50784e-06
0.00326324
2.00523e-06
1.08173e-06
8.66634e-07
5.51181e-07
1.64801e-06
1.62208e-06
1.57207e-06
1.15359e-06
1.32528e-06
1.90045e-07
5.56196e-07
1.27105e-06
0.00415221
6.23146e-07
4.34748e-07
5.78455e-07
0.000422166
0.00245762
1.59048e-06
0.000730045
5.2244e-07
7.7191e-05
4.83286e-07
5.79685e-07
5.18794e-07
0.0117728
4.13343e-06
1.39073e-06
1.12168e-06
1.38029e-06
1.08762e-06
0.000104693
1.86366e-06
1.58738e-06
0.000653618
2.06354e-06
4.1672e-07
5.27338e-07
0.000353924
5.10726e-07
1.58371e-06
0.00209636
2.44719e-06
6.2413e-07
0.00422625
1.41193e-06
0.00250053
1.59214e-06
1.37564e-06
0.0023545
0.00552747
5.05587e-06
7.64023e-07
5.96128e-07
0.0108916
1.51179e-06
1.92937e-06
1.43381e-06
1.5915e-06
1.32976e-06
1.36893e-06
0.000842569
1.35588e-06
1.31589e-06
4.65643e-05
1.35319e-06
9.09035e-07
7.49736e-07
0.000576419
1.51313e-06
1.44414e-06
1.2707e-06
8.29954e-07
1.60193e-06
6.2787e-07
2.66621e-06
1.71134e-06
7.52075e-07
0.00191952
7.60518e-07
2.79065e-06
1.67797e-06
5.55576e-07
1.43054e-06
1.03509e-06
4.0493e-06
5.63796e-07
1.48656e-06
1.62423e-06
1.45902e-06
0.0014959
1.19666e-06
0.0029191
1.60468e-06
0.00243492
1.54181e-06
6.16596e-07
0.00224364
0.00447718
1.21405e-06
5.51556e-07
5.68788e-07
0.00426362
0.0004986
1.64777e-06
5.64298e-07
1.19716e-06
1.39892e-06
1.6729e-06
0.00630731
6.22376e-07
1.33063e-06
0.0041082
0.00258464
6.32168e-07
1.84194e-06
1.10812e-06
1.38585e-06
5.61277e-07
1.55857e-06
0.00310447
1.05516e-06
1.42988e-06
1.8218e-06
1.04033e-06
4.36153e-07
1.46918e-06
4.93513e-06
1.12418e-06
1.56937e-06
4.48366e-06
1.01839e-05
3.52241e-07
1.12949e-06
1.59804e-06
1.46465e-06
0.00549846
9.20565e-07
1.08065e-06
6.15035e-07
0.00277889
7.01894e-07
1.14242e-06
1.16537e-06
0.00236801
2.38957e-06
5.39682e-07
2.52277e-06
0.00230276
1.28379e-06
2.70417e-06
0.0183374
3.35999e-06
3.95821e-06
1.90839e-06
0.00561897
1.62072e-06
5.52196e-06
2.37323e-06
0.0228438
1.25049e-06
0.0029348
1.35298e-06
1.39351e-06
1.46501e-06
1.23931e-06
1.17194e-06
1.78724e-06
1.34652e-06
5.3932e-07
1.24509e-06
1.76816e-06
0.00141687
1.99712e-06
5.28816e-07
6.29358e-07
7.37703e-07
1.42433e-06
5.26454e-07
1.47747e-06
1.57972e-06
6.34072e-07
1.43201e-06
2.45611e-06
5.7767e-07
1.42804e-06
0.0147821
8.86884e-07
6.09456e-07
1.70946e-06
0.0029098
4.94478e-07
0.00264288
4.37393e-07
1.16797e-06
4.27331e-07
1.06223e-06
0.00233684
1.79843e-06
1.57426e-06
1.48325e-06
7.14956e-07
1.16494e-06
5.80793e-07
1.45844e-06
7.73943e-07
1.17239e-06
0.00228971
4.41176e-07
1.27765e-06
1.32404e-06
1.34745e-06
5.35316e-07
2.08487e-06
1.2392e-06
0.000131875
1.61944e-06
1.98227e-06
1.22706e-06
5.07371e-05
1.2966e-06
2.07622e-06
1.44784e-06
0.00238316
1.48772e-06
6.40998e-07
1.5327e-06
0.00323477
1.60839e-06
1.51803e-06
3.4375e-06
0.00264815
0.00194944
3.39351e-06
1.24069e-06
1.58686e-06
0.00302125
1.70081e-06
1.63197e-06
0.00659819
1.40675e-06
4.30249e-07
5.87436e-07
1.59974e-06
1.3861e-06
1.5884e-06
1.40427e-06
1.32551e-06
1.60458e-06
1.3284e-06
1.18187e-06
1.41249e-06
0.00270631
4.81936e-07
1.06638e-06
0.00403497
0.00544955
5.21706e-07
1.49502e-06
4.18212e-07
0.000907377
0.00374354
1.41759e-06
1.54572e-06
1.32816e-06
5.41097e-07
6.60463e-05
1.38527e-06
1.45078e-06
1.5469e-06
5.91437e-07
9.20657e-07
0.000796513
1.23458e-06
5.60161e-07
7.8993e-05
9.85056e-07
1.47796e-06
0.000118899
4.05306e-06
1.73543e-06
4.65958e-07
5.12532e-07
1.50071e-06
9.53769e-07
1.46046e-06
0.00234056
1.06308e-06
3.45113e-06
8.92063e-07
4.748e-07
5.59843e-07
4.20511e-07
9.04293e-07
2.60579e-06
2.17775e-06
0.00498844
1.62169e-06
1.47934e-06
0.000339209
6.47788e-07
1.38132e-06
2.29908e-06
1.39168e-06
7.34403e-05
1.67859e-06
7.62041e-07
1.41383e-06
4.24137e-07
0.00131561
1.21547e-06
5.63859e-07
0.00252907
7.53511e-07
0.0055439
5.64361e-07
9.32013e-07
9.00626e-07
4.93776e-07
0.00391855
0.00248776
1.46813e-06
9.0186e-07
2.05748e-06
8.67402e-07
4.90176e-07
7.99033e-07
5.64328e-07
1.06395e-06
0.00180387
0.000178398
8.14759e-07
0.0147869
0.00107721
1.49483e-06
1.63365e-06
6.36371e-07
1.26827e-06
1.55478e-06
1.47745e-06
1.71259e-06
1.55186e-06
1.36989e-06
0.000487911
1.14466e-06
8.84332e-07
9.02924e-07
8.79297e-07
9.09028e-08
1.17143e-06
1.92087e-06
0.00549913
1.12437e-06
5.07584e-07
7.94489e-07
9.12474e-07
1.25256e-06
5.22409e-07
1.33218e-06
0.00209904
0.000835665
9.93818e-07
4.36362e-07
6.48834e-05
3.86582e-06
4.10805e-06
1.78743e-06
1.38781e-06
7.52987e-07
1.57717e-06
5.18496e-07
1.29493e-06
0.00809885
7.92342e-07
1.58717e-06
2.32257e-06
2.16858e-06
0.00366426
0.00128635
1.44649e-06
4.43778e-07
1.60947e-06
1.4885e-06
1.25846e-06
4.13602e-06
9.08442e-07
2.92314e-06
1.07105e-06
7.57145e-07
0.0011867
0.00205311
5.55714e-07
1.52851e-06
1.50029e-06
2.10422e-06
6.46335e-07
1.4587e-06
4.83805e-07
1.45627e-06
8.87767e-07
1.64975e-06
0.000621294
1.62047e-06
1.02203e-06
6.32883e-07
1.23489e-06
0.00359352
3.0169e-06
1.58828e-06
2.49509e-06
3.61101e-06
2.91192e-06
1.62137e-06
7.99272e-06
8.19899e-06
1.16532e-06
1.36166e-06
1.33329e-06
1.45916e-06
6.94904e-07
4.8109e-07
1.3294e-06
0.0046794
0.00362084
0.00283051
1.30902e-06
8.75706e-07
0.0165606
1.56059e-06
1.47038e-06
1.48111e-06
1.40888e-06
1.44582e-06
1.59982e-06
1.88006e-06
1.25647e-06
1.9237e-06
0.00240954
1.61907e-06
1.30164e-06
1.44157e-06
1.3094e-06
1.62719e-06
1.50549e-06
1.17567e-06
9.35224e-07
1.6067e-06
2.01702e-06
1.31258e-06
3.43638e-07
5.42864e-07
1.16923e-06
0.00306384
1.38397e-06
1.12064e-06
4.23646e-07
0.00070864
6.78264e-07
2.56926e-06
0.0023674
1.2805e-06
1.27116e-06
1.11481e-06
2.03146e-06
5.86534e-07
0.000167474
1.60923e-06
2.16984e-06
1.62258e-06
9.23126e-06
2.17273e-06
0.000292535
1.52693e-06
1.15134e-06
1.50205e-06
0.000720571
3.07368e-07
1.30936e-06
1.03545e-06
4.48628e-07
4.17681e-07
0.000317443
5.5013e-07
0.00244836
2.31721e-05
5.80703e-07
0.00262552
6.85948e-07
1.10839e-06
0.00320089
1.32977e-06
5.82581e-07
1.49112e-06
0.00263254
1.10086e-06
5.46705e-07
0.00116907
5.81156e-07
2.35972e-06
1.7454e-06
0.00261161
1.57933e-06
1.45929e-06
7.26111e-07
1.59928e-06
4.74333e-07
4.23215e-07
0.00451269
7.22063e-07
6.18328e-07
1.66051e-06
1.06415e-06
0.000537342
4.25221e-07
1.07357e-06
5.33233e-07
1.12058e-06
1.25922e-06
0.00243798
4.54672e-07
5.40274e-07
8.27299e-07
0.000674324
0.000634101
6.47096e-07
1.63077e-06
8.30131e-07
9.8702e-05
1.56302e-06
6.87415e-07
4.25384e-07
0.000297043
0.00348651
2.46786e-06
1.52243e-06
1.66449e-06
1.68754e-06
8.66153e-07
8.68124e-07
5.36699e-07
3.31319e-07
7.57757e-07
1.66019e-06
3.96889e-05
1.62719e-06
8.03659e-07
1.45066e-06
1.63542e-06
5.31513e-07
9.38537e-07
1.14687e-06
0.000197997
8.61314e-07
7.31069e-07
0.00380274
1.23675e-06
5.17634e-06
5.04764e-07
0.00361285
4.20517e-07
0.0022708
2.37508e-05
7.61179e-07
1.16142e-06
0.0025632
8.59635e-07
0.000125317
9.10137e-07
9.17844e-07
0.00176621
6.83191e-07
5.31012e-07
1.15946e-06
1.78483e-06
0.000220226
9.22176e-07
0.000279733
1.37568e-06
1.43956e-06
1.62358e-06
0.00939205
0.00142642
0.00148465
0.000547307
1.30864e-06
0.0149
1.20788e-06
8.72826e-07
6.21094e-07
3.14969e-07
1.03541e-06
1.43147e-06
3.14844e-08
0.0042958
1.43056e-06
8.09167e-07
5.63447e-07
1.37592e-06
1.42924e-06
9.27243e-07
4.56518e-07
5.32849e-07
7.17095e-07
1.66582e-06
8.13656e-07
0.00257608
6.8463e-07
1.28378e-06
8.44293e-08
1.45255e-06
1.51957e-06
7.13261e-07
1.47355e-06
0.000829536
5.53111e-07
0.000547133
0.000782142
1.48385e-06
1.25052e-06
3.10812e-05
1.31926e-06
0.00470605
0.00262621
8.17367e-07
5.83077e-06
1.59148e-06
1.5423e-06
0.00171117
1.36608e-06
1.18092e-06
1.84872e-06
8.5799e-07
0.00205396
1.68913e-05
1.37903e-06
1.54665e-06
5.07483e-07
5.49475e-07
7.13693e-07
1.76303e-06
0.00434486
6.98983e-07
1.19426e-06
0.000126961
7.12813e-07
1.66012e-06
2.59508e-06
1.54415e-06
1.3854e-05
5.69299e-07
0.00183589
1.29611e-06
5.48467e-06
0.00225513
0.00218565
2.81485e-06
1.37019e-06
0.00136193
8.59905e-07
1.08832e-06
8.62262e-06
1.64747e-06
0.0107922
7.42244e-07
0.0110353
5.48159e-07
1.24399e-06
3.80303e-06
7.50914e-07
1.74008e-06
5.42475e-06
4.63596e-07
6.97709e-07
4.17362e-07
0.000597991
6.43907e-07
1.58069e-06
2.63992e-07
4.40068e-07
0.00535391
2.67173e-06
1.20228e-06
1.54776e-06
1.48379e-06
6.25558e-07
5.58627e-07
1.25245e-06
1.67873e-06
1.96974e-06
6.31212e-07
1.39133e-06
0.000263851
6.80519e-07
0.000770216
0.00312178
1.30996e-06
0.00346346
1.38777e-06
9.01159e-07
6.34525e-07
4.53167e-07
1.36347e-06
0.00640797
5.76896e-07
5.86224e-07
1.54653e-06
0.000305238
1.5512e-06
0.00365737
1.66068e-06
2.0088e-06
1.92506e-06
1.70126e-06
1.46251e-06
1.17488e-06
0.000467449
1.58305e-06
0.00364932
5.1408e-07
9.55053e-07
0.0202497
0.00733384
1.60854e-06
1.97233e-06
4.32687e-07
1.53502e-06
5.65101e-07
1.55767e-05
4.36807e-07
5.38553e-07
0.00207709
1.35793e-06
1.22119e-06
8.99102e-07
1.3045e-06
1.36393e-06
2.38243e-06
0.002713
0.00196772
2.6826e-05
1.67638e-06
1.57899e-06
1.16241e-06
7.8103e-07
4.04218e-06
5.45684e-07
1.49852e-06
8.74524e-07
7.37549e-07
7.06343e-07
1.24448e-06
1.4152e-06
1.57172e-06
4.95452e-07
2.00322e-06
1.53697e-06
0.000251662
1.61241e-06
0.00189732
2.40686e-06
7.95012e-06
1.86075e-06
0.000807021
4.6844e-07
0.00025125
1.66766e-06
6.98604e-06
5.69524e-07
1.30211e-06
6.73367e-07
5.52143e-07
1.10359e-06
4.92837e-07
0.00212824
5.76571e-07
0.00637635
0.00705688
2.30967e-06
1.66427e-06
0.00714983
9.52499e-07
4.13881e-06
1.9046e-06
3.72387e-05
8.75225e-07
1.45577e-06
1.14063e-06
2.85861e-06
7.37732e-07
3.54946e-06
5.97794e-07
2.72839e-05
5.73012e-07
3.0365e-05
0.00371069
1.53063e-06
1.53785e-05
0.00320101
1.59178e-06
0.0206776
1.81791e-06
1.49698e-06
1.35944e-06
1.36972e-06
4.16628e-07
0.00361838
0.0007356
4.77133e-07
0.00170846
1.45941e-06
1.12651e-06
8.63348e-07
1.32345e-06
9.59157e-06
1.39616e-06
0.00431176
1.36958e-06
1.52862e-06
8.80071e-07
9.72781e-07
1.69773e-06
0.000840898
0.00379862
1.40143e-06
7.72041e-07
0.00428742
5.71806e-05
1.5201e-06
0.00374208
1.6708e-06
0.00185793
0.000224655
1.73117e-06
0.00106985
5.25243e-07
1.2461e-06
1.43652e-06
1.42976e-06
0.00303252
0.00173426
1.55149e-06
0.00569646
5.32448e-07
1.32428e-06
0.00084339
9.84741e-07
1.62964e-06
1.38545e-06
0.000661439
7.34686e-05
1.59365e-06
1.49515e-06
0.00241806
0.0102801
1.57012e-06
1.88733e-06
7.77755e-07
6.47149e-07
1.73147e-06
1.53565e-06
1.30854e-06
1.44904e-06
1.53685e-06
2.67195e-06
1.25126e-06
1.42497e-06
2.79065e-06
1.34039e-06
1.5219e-06
0.0152296
9.77151e-07
2.80287e-06
9.98804e-07
9.55441e-07
3.135e-06
1.31149e-06
1.51055e-06
4.23505e-07
1.5362e-06
1.55109e-06
1.29284e-06
1.04555e-06
6.0216e-07
1.05992e-06
9.66413e-07
0.00473622
5.23539e-07
1.54e-06
1.74951e-06
5.22462e-07
4.28137e-07
2.94449e-06
1.55721e-06
7.26441e-06
1.58319e-06
1.85219e-06
1.47008e-06
0.00164481
0.00186547
5.31401e-07
0.00327425
1.39417e-06
1.49496e-06
0.00400429
9.9528e-07
9.59996e-05
4.43476e-06
1.11685e-06
2.76751e-06
1.67913e-06
1.13425e-06
7.81454e-07
4.65983e-07
6.88134e-07
1.58433e-06
9.97061e-07
3.61339e-06
1.24752e-06
0.00354857
1.34357e-06
6.32217e-05
2.84601e-06
9.73902e-07
1.51453e-06
7.43846e-06
4.96406e-07
0.00344839
0.0104295
1.24345e-06
0.00343264
9.83039e-07
0.00177834
0.0194065
1.69455e-06
1.09797e-06
1.41886e-06
6.81207e-07
1.29154e-06
0.00355184
1.46681e-06
8.57103e-07
4.60122e-05
1.23578e-06
6.81813e-07
0.00358185
6.03077e-07
5.6053e-07
1.05377e-06
1.22872e-06
1.42342e-06
1.38542e-06
1.51176e-06
0.00017007
1.21069e-06
0.00378931
0.00133679
1.02842e-06
0.000303781
1.48476e-06
3.89205e-06
0.00115233
9.61278e-07
1.53893e-06
0.00357635
0.00385469
0.00345721
0.00192467
4.88008e-07
4.41981e-07
1.19289e-06
2.24998e-06
1.21455e-06
3.71517e-06
1.30052e-06
1.44919e-06
4.92409e-07
0.00397759
1.58229e-06
0.00440842
1.63923e-06
0.00170333
1.03457e-06
1.76282e-06
1.48622e-06
1.51357e-06
4.30344e-07
0.00307062
1.21742e-06
1.17666e-06
0.00342271
1.62348e-06
1.42631e-06
5.47742e-07
1.6173e-06
0.00140246
0.001632
9.14722e-07
0.00326074
1.33013e-06
1.37566e-06
1.40088e-06
1.00488e-06
0.00590934
5.53347e-06
1.02644e-06
0.000312734
1.26092e-05
1.6319e-06
0.00234475
0.000257058
0.00199481
1.64711e-06
9.48611e-07
1.21901e-06
5.357e-07
8.16556e-07
0.00143105
0.000794034
1.60825e-06
2.29645e-06
1.3284e-06
5.81876e-07
0.00398522
1.36376e-06
0.000127192
0.000734732
9.16896e-07
0.00465919
7.75982e-07
0.000627117
1.46611e-06
1.79218e-06
0.00090665
0.00385925
8.54737e-07
0.000117201
5.75288e-07
1.3826e-06
1.74227e-06
1.38453e-06
0.00112178
1.28719e-06
1.48317e-06
4.66948e-05
1.72324e-06
5.84481e-07
1.79793e-06
1.50216e-05
5.22447e-05
1.75251e-06
1.39395e-06
1.37793e-07
2.27033e-06
1.78037e-06
1.54362e-06
3.36339e-06
2.24441e-06
1.88021e-06
4.76269e-07
2.93617e-06
6.98522e-06
1.48343e-06
2.78554e-06
9.01628e-07
8.91012e-07
0.00175823
1.07684e-06
1.57498e-06
0.00703434
0.00151897
4.34761e-07
0.000900655
0.00069872
0.00284803
7.59118e-07
1.11291e-06
1.66504e-06
7.67542e-07
5.35759e-08
8.68536e-07
0.00347603
1.31186e-06
4.70455e-07
1.4782e-06
1.52497e-06
0.0028248
8.08028e-07
1.72154e-06
8.45333e-05
1.8376e-06
1.22746e-06
0.0119855
1.23495e-06
1.03451e-06
0.00421373
9.16273e-07
0.000264286
1.2403e-06
1.54246e-06
6.90165e-07
8.63181e-07
9.8512e-07
8.63829e-07
9.56142e-06
1.94101e-06
0.00272433
7.36603e-07
1.78289e-06
0.00386085
4.61836e-07
1.54589e-06
6.61654e-07
1.53789e-06
1.46747e-06
1.39492e-06
1.39978e-06
0.00120074
5.69591e-05
0.00547734
9.84854e-07
1.55852e-06
4.937e-07
1.06946e-06
9.87397e-07
1.49408e-06
1.36873e-06
9.8974e-07
6.2514e-07
1.52894e-06
1.22968e-06
0.00397231
8.43104e-07
1.50121e-06
6.31147e-07
0.00369845
0.00219266
1.02497e-05
1.34086e-06
7.44473e-07
1.51159e-06
0.000448413
1.09844e-06
0.00480421
1.26956e-07
1.39792e-06
1.34337e-06
1.059e-06
5.29547e-07
1.11151e-06
0.00432451
9.76921e-06
8.32753e-07
0.00175751
1.3709e-06
0.00358023
4.22436e-07
0.0201253
0.00187782
1.58422e-06
6.17814e-07
1.42894e-06
0.000400666
7.94197e-07
1.59309e-06
6.5439e-07
1.31842e-06
4.31663e-07
1.54162e-06
0.00382637
3.47475e-07
6.1472e-07
1.36975e-06
1.4237e-06
6.96667e-05
1.07988e-06
1.51788e-06
1.02019e-05
1.75256e-06
1.32256e-06
0.000982265
1.61803e-06
1.73212e-06
1.40573e-06
1.40566e-06
3.75945e-07
8.96336e-07
5.9154e-05
1.24159e-06
1.7021e-06
0.00188367
0.000700423
1.56823e-06
1.60797e-06
1.59364e-06
1.60246e-06
5.20596e-07
5.62129e-07
0.000108186
3.80012e-06
5.24777e-07
1.47258e-06
5.20644e-07
0.0001208
0.00436914
0.0146716
1.22032e-06
0.00373018
5.86596e-07
2.14119e-06
6.70812e-07
3.7827e-06
0.00053512
3.48736e-07
1.22781e-06
1.09416e-06
2.15542e-06
5.10805e-07
5.21766e-07
2.93995e-07
0.00122404
1.73278e-06
8.52771e-07
0.0016262
1.57255e-06
1.0235e-06
1.62498e-06
1.57344e-06
8.78244e-07
1.69038e-06
0.00377038
1.46593e-06
1.76783e-06
1.25821e-06
6.86593e-07
4.65079e-07
0.00195932
6.51951e-07
8.8826e-07
1.06409e-06
5.18753e-07
1.35159e-06
5.18765e-07
1.23232e-06
5.45129e-06
9.53556e-07
1.29936e-06
5.58881e-07
5.39483e-07
1.70853e-06
1.28947e-06
1.157e-06
3.32879e-06
1.3637e-06
9.53395e-07
1.37727e-06
0.00293102
1.63663e-05
9.91469e-07
0.00264295
1.65349e-06
0.000106719
1.70268e-06
4.60271e-07
1.3601e-06
1.54467e-06
1.53996e-06
1.37674e-06
0.00283453
1.05441e-06
1.62263e-06
1.57247e-06
1.63202e-06
1.25818e-06
1.53325e-06
1.09814e-06
1.36545e-06
0.00987328
4.58928e-07
2.79155e-06
1.4387e-06
7.83864e-07
8.026e-07
8.90471e-07
0.000114109
1.32907e-06
4.60983e-07
0.00227362
0.00198277
9.38715e-07
1.62657e-06
1.0058e-06
5.49233e-07
4.58848e-07
5.14735e-07
9.48009e-07
3.06322e-06
1.22985e-06
8.93792e-07
4.44006e-07
4.71709e-07
1.77212e-06
0.00362519
0.00367514
1.26249e-07
0.00315574
3.15817e-05
7.8852e-07
0.00347216
4.18044e-07
1.93682e-06
0.00199296
0.00248312
1.33245e-06
0.00333814
0.00177217
3.91624e-06
0.00420053
2.97885e-06
1.582e-06
3.28408e-07
1.08112e-06
5.57828e-07
0.0041144
0.00374058
1.24325e-06
4.92272e-07
0.00452165
0.0210742
5.57762e-07
1.47261e-06
1.32758e-06
1.46173e-06
1.44337e-06
0.000104784
0.000129606
2.29851e-06
1.67675e-06
0.00186763
1.47784e-06
0.00235884
1.87335e-06
4.78651e-05
1.64014e-06
3.1998e-06
1.52201e-06
0.00213278
1.54094e-06
8.75153e-07
9.20853e-07
3.74768e-07
4.50121e-06
9.0714e-07
1.42453e-06
1.46003e-06
1.53398e-06
1.20784e-06
1.49983e-06
7.98903e-07
1.32128e-06
7.70617e-06
1.37448e-06
0.00976896
2.68306e-07
1.37927e-06
1.4749e-06
1.43342e-06
1.00448e-06
7.45693e-07
3.20275e-06
6.75242e-07
1.50684e-06
1.20755e-06
7.41222e-07
0.00294994
1.33593e-06
1.20504e-06
4.71869e-07
1.36879e-06
1.38133e-06
1.06188e-06
1.4309e-06
5.44773e-07
1.44563e-06
1.50223e-06
1.50564e-06
0.000176897
0.00500789
1.35419e-06
0.00160656
2.49037e-05
1.246e-06
2.30118e-06
0.000275164
1.20463e-06
0.001154
4.64842e-07
8.19216e-05
1.47671e-06
0.000603079
2.06958e-07
9.68997e-07
0.00168083
8.70262e-07
5.33278e-05
4.34101e-07
1.06073e-06
1.61935e-06
1.43851e-06
1.10825e-06
0.00197505
1.48977e-06
1.76524e-06
0.00220363
8.57301e-07
1.14611e-06
1.43935e-06
1.69702e-06
1.23718e-06
1.79724e-06
1.6878e-06
1.59903e-06
1.26467e-06
5.98203e-07
0.0192994
1.2655e-06
0.00119278
3.9453e-06
4.93313e-07
1.42606e-06
1.776e-06
1.54649e-06
1.28902e-06
2.45313e-06
2.70861e-06
4.17749e-07
1.25662e-06
0.000187635
1.64041e-06
1.39652e-06
5.28624e-07
4.43584e-07
1.58546e-06
5.59184e-07
0.000755116
1.11677e-06
0.00834993
1.38032e-06
1.17143e-06
0.00400936
9.80702e-07
0.00238064
1.61281e-06
0.00175605
1.09002e-06
0.0201165
1.4979e-06
1.27118e-06
0.00252092
1.31568e-06
0.00256218
1.24522e-06
1.95329e-06
0.00329665
1.22621e-06
1.16376e-06
5.53928e-05
1.59506e-06
4.4214e-07
1.6302e-06
0.00148313
0.00135807
0.00191705
8.0038e-07
1.68665e-06
1.57431e-06
1.1668e-06
1.39558e-06
1.46363e-06
1.05388e-06
1.34279e-06
0.0017812
1.31959e-06
1.48152e-06
0.00154921
0.00375246
6.79257e-07
1.4439e-06
1.54943e-06
3.28251e-06
0.00250175
1.43587e-06
0.0042545
0.00956128
1.43888e-06
1.4752e-06
8.84461e-07
1.59998e-06
1.69073e-07
0.0034552
1.15384e-06
1.94973e-06
1.806e-06
1.80198e-06
1.36809e-06
1.37392e-06
1.50767e-06
1.44524e-06
0.00153167
0.000251019
1.0282e-06
5.07833e-07
0.00480358
4.21996e-07
7.98568e-07
1.44165e-06
1.26989e-06
0.00213477
1.23095e-06
0.00208675
2.86696e-07
1.27763e-06
7.49483e-05
1.111e-06
1.37594e-06
1.44097e-06
1.43282e-06
1.56462e-06
9.1623e-07
0.00320322
0.00587935
1.4106e-06
1.94524e-06
0.00321635
2.05266e-06
1.56302e-06
1.64991e-06
0.0014561
1.7432e-06
0.0032064
1.28667e-06
1.30745e-06
1.50064e-06
1.09995e-06
0.00363856
0.00228854
1.56376e-06
0.00177929
8.65824e-06
0.00183072
0.00083277
1.02618e-06
4.4084e-07
1.42766e-06
4.2227e-07
1.02412e-06
1.02549e-06
1.55198e-06
0.00238051
0.00315355
1.44676e-06
2.2044e-06
1.3758e-06
0.00218462
1.85171e-06
0.00280553
1.27945e-06
1.65291e-06
9.57539e-07
0.00126254
1.58705e-06
1.55748e-06
4.401e-07
6.19767e-07
0.000105774
1.9236e-06
0.00318202
1.41905e-06
0.000110369
1.51992e-06
5.6415e-07
1.59909e-06
1.16266e-06
1.15757e-06
0.00141508
5.10847e-07
1.10738e-06
0.00759429
0.0041135
1.49567e-06
9.72813e-07
1.5493e-06
0.000937717
1.63869e-06
1.59225e-06
0.000144207
1.29989e-06
0.00179369
2.54074e-06
0.00211178
0.0016574
0.00419005
1.01888e-06
4.47611e-06
1.15733e-06
0.0031194
1.76163e-06
3.40525e-06
0.00297924
0.000115753
1.9748e-06
0.00340391
0.00340747
1.93315e-06
0.00338803
1.43662e-06
1.29021e-06
7.26917e-06
1.78825e-06
1.74174e-06
1.53749e-06
1.25831e-06
1.14872e-06
1.59905e-06
2.22149e-07
0.00317089
4.24337e-05
5.76275e-07
1.74615e-06
5.51182e-07
8.97603e-07
1.19226e-06
1.45624e-06
1.44655e-06
1.4589e-06
9.69663e-07
5.57652e-07
2.14319e-06
9.60625e-07
1.08606e-06
1.56805e-06
1.75196e-06
7.62069e-05
1.89231e-06
0.00302948
9.40426e-07
0.00334212
0.00118931
1.62702e-06
0.000651993
2.80893e-06
1.39976e-05
1.1572e-06
0.00404831
1.33296e-06
2.08658e-06
0.00300542
1.09954e-06
5.8373e-07
0.000164255
1.14332e-06
0.000990616
1.54543e-06
1.31522e-06
2.30715e-06
8.99708e-07
1.04051e-05
1.28321e-06
1.75097e-06
0.00662398
1.46697e-06
0.00313441
1.86586e-06
0.00413364
2.13731e-06
4.23793e-05
2.01329e-06
1.04413e-06
5.4478e-07
8.83467e-07
1.46977e-06
1.30038e-06
1.7824e-06
1.20293e-06
0.00415625
1.67824e-06
1.59595e-06
8.51761e-07
1.49557e-06
1.53065e-06
9.77766e-07
0.000245439
1.95497e-06
1.39346e-06
1.99647e-06
0.00150205
1.55866e-06
1.43817e-06
2.04702e-06
0.00337471
0.0187152
0.000343448
7.73955e-07
1.44128e-06
1.58336e-06
0.00350081
1.16558e-06
0.00294099
7.94811e-07
1.81046e-06
1.43414e-06
1.52279e-06
9.66976e-07
1.61719e-06
2.18954e-06
1.26461e-06
1.02737e-06
9.41316e-07
2.09386e-06
0.000681309
1.91947e-06
8.43048e-07
0.00325682
2.35637e-06
8.15841e-07
4.96562e-07
1.98447e-06
0.00569472
0.00114876
1.31921e-06
0.0202659
2.73753e-06
2.51066e-06
1.34833e-07
1.38944e-06
1.89776e-06
1.50369e-06
1.28932e-06
2.06237e-06
0.000855003
9.87046e-07
1.14281e-06
2.72392e-06
0.00143527
2.16599e-06
0.00550612
9.32411e-07
1.02185e-06
1.56681e-06
6.83926e-07
1.58322e-06
1.40964e-06
0.00326372
7.05948e-07
0.00034833
1.16156e-06
9.73755e-07
1.37392e-06
1.55573e-06
0.00327148
1.94939e-06
0.00918539
0.00470911
1.60082e-06
1.68928e-06
0.000386314
0.00177115
2.47361e-07
3.50458e-06
1.59748e-06
0.00467036
0.00162121
2.07824e-06
1.44519e-06
0.00223072
0.00113241
0.0192638
7.12401e-07
1.45903e-06
2.33316e-06
0.00154126
1.61233e-06
6.31294e-07
0.00383519
1.95221e-06
0.00323031
1.29966e-06
2.5072e-06
9.54543e-07
4.41097e-06
1.1809e-06
5.71251e-06
0.00308951
0.00349562
1.49986e-06
4.47272e-06
1.24876e-06
1.51019e-06
1.46316e-06
1.46547e-06
1.36039e-06
2.03089e-06
2.22293e-06
2.11024e-06
2.3582e-06
2.50326e-06
2.76939e-06
1.60279e-06
2.19572e-06
3.78399e-05
1.89076e-06
0.00392039
1.74802e-05
1.49742e-06
9.14771e-07
1.57048e-06
1.46222e-06
1.29722e-06
0.00206701
0.00216978
2.06073e-06
4.25421e-07
0.00319428
2.09183e-06
1.84323e-06
4.26427e-05
0.00183763
2.29756e-06
0.00331955
1.15843e-06
1.4916e-06
1.43916e-06
1.46767e-06
0.000150679
1.6263e-06
7.59547e-07
1.67472e-06
1.49326e-06
2.39042e-06
1.22846e-06
0.00106569
0.00319823
0.00369097