/*--------------------------------*- C++ -*----------------------------------*\
| =========                 |                                                 |
| \\      /  F ield         | OpenFOAM: The Open Source CFD Toolbox           |
|  \\    /   O peration     | Version:  v2012                                 |
|   \\  /    A nd           | Website:  www.openfoam.com                      |
|    \\/     M anipulation  |                                                 |
\*---------------------------------------------------------------------------*/
FoamFile
{
    version     2.0;
    format      ascii;
    class       volScalarField;
    location    "100";
    object      k;
}
// * * * * * * * * * * * * * * * * * * * * * * * * * * * * * * * * * * * * * //

dimensions      [0 2 -2 0 0 0 0];


internalField   nonuniform List<scalar> 
14033
(
0.000331845
0.0251297
5.50041e-05
7.18172e-05
4.4473e-05
8.21396e-05
0.0039443
7.70102e-05
7.16934e-05
0.0131554
5.18599e-05
9.65518e-05
8.11902e-05
8.1139e-05
4.43086e-05
9.06343e-05
8.64995e-05
0.037726
7.60459e-05
8.88762e-05
8.98742e-05
9.66081e-05
0.000105059
4.43897e-05
5.23096e-05
7.58304e-05
0.000118497
0.000116666
0.00028639
0.000188985
8.62614e-05
7.67746e-05
0.000136621
8.99241e-05
0.00147882
6.55362e-05
0.0137747
0.0151645
4.54084e-05
8.41697e-05
0.0156197
8.99848e-05
5.56356e-05
4.90335e-05
5.30767e-05
5.54862e-05
0.0176186
8.17875e-05
0.000128693
0.012247
8.26306e-05
6.73167e-05
0.0137416
0.010671
8.6671e-05
8.14501e-05
0.000336385
0.0245106
9.04779e-05
8.6093e-05
5.54998e-05
0.0125634
9.40027e-05
5.59729e-05
6.09955e-05
5.51317e-05
0.000286904
0.000109929
5.29041e-05
8.38093e-05
6.33178e-05
8.66965e-05
0.0173998
8.90888e-05
9.14329e-05
5.34533e-05
8.5152e-05
8.39195e-05
0.0309581
0.000166206
5.51707e-05
0.0308967
0.0138493
7.08849e-05
5.26765e-05
8.63363e-05
7.66336e-05
0.0112254
0.0185621
8.90788e-05
7.87166e-05
5.5392e-05
7.1742e-05
0.00558248
5.40632e-05
9.64983e-05
8.28022e-05
5.64325e-05
0.0138537
7.26269e-05
5.53098e-05
8.15897e-05
5.32977e-05
6.90287e-05
0.0177539
0.000123877
0.0185608
7.0927e-05
0.00010815
6.29264e-05
0.0173022
7.16597e-05
5.31482e-05
5.06802e-05
7.9895e-05
8.54484e-05
0.000191798
4.47528e-05
0.00371695
0.000136668
7.75112e-05
9.32468e-05
0.00991445
7.70351e-05
0.00625841
7.14885e-05
5.53993e-05
4.76451e-05
0.0132842
8.29415e-05
0.0172814
5.41525e-05
4.44165e-05
0.0152345
0.0174397
8.39401e-05
0.000120729
6.19798e-05
8.3142e-05
7.15104e-05
8.70569e-05
0.00291641
9.95204e-05
9.04268e-05
0.000261101
5.33377e-05
7.74071e-05
9.45595e-05
0.0135704
0.00496787
0.000108268
8.68995e-05
6.3582e-05
7.61253e-05
8.12543e-05
0.0135956
6.89055e-05
6.0521e-05
6.89184e-05
4.43447e-05
7.97974e-05
0.000118775
0.0142619
6.47381e-05
8.92196e-05
7.954e-05
8.64855e-05
9.22534e-05
0.0385978
7.79586e-05
9.06362e-05
0.000120932
9.64888e-05
0.00812378
5.32722e-05
7.80949e-05
0.00013803
0.0109693
9.60841e-05
9.05041e-05
0.000149916
0.0103439
8.63137e-05
5.75859e-05
6.3364e-05
0.0183086
0.0153166
8.38719e-05
0.0406039
0.0180177
0.000634957
8.6245e-05
7.59738e-05
8.4099e-05
0.00592523
0.0123831
9.35578e-05
0.0134379
7.12909e-05
6.33929e-05
7.47711e-05
8.6226e-05
6.11348e-05
0.000155717
8.66674e-05
6.13603e-05
9.29592e-05
0.000381496
9.01644e-05
0.000218128
0.0115439
0.00034485
0.00110796
0.00486172
4.55194e-05
7.95846e-05
6.81572e-05
0.00274077
6.75532e-05
9.40841e-05
9.01783e-05
5.82269e-05
5.81892e-05
7.68331e-05
8.25026e-05
4.46398e-05
0.000102547
8.6431e-05
7.11761e-05
4.94885e-05
5.52253e-05
0.000121151
8.64362e-05
4.47167e-05
0.00350708
0.0152207
0.000129181
4.97516e-05
7.02702e-05
6.62872e-05
0.0116139
8.40179e-05
7.38793e-05
5.41081e-05
8.64331e-05
4.95957e-05
0.0199551
0.00775519
7.61035e-05
5.45766e-05
8.18333e-05
0.0107963
4.89417e-05
0.00149711
7.07619e-05
0.015154
6.59805e-05
7.77544e-05
4.86632e-05
0.00139785
4.58531e-05
0.0301525
0.000905708
9.44258e-05
8.6943e-05
0.00216474
8.61921e-05
0.000161265
0.00162419
0.0139819
8.90159e-05
0.0153184
4.88281e-05
9.06569e-05
0.00262624
7.01257e-05
5.55297e-05
0.000116654
7.58454e-05
0.00403233
0.000129522
6.51761e-05
0.000143301
9.08331e-05
0.0390531
0.00681769
0.0175116
4.87737e-05
0.0290707
0.000871153
7.16732e-05
9.57517e-05
9.80901e-05
0.000562701
7.84512e-05
5.40253e-05
5.8018e-05
7.06421e-05
5.39679e-05
7.43199e-05
5.79468e-05
0.00230136
0.0157709
8.85207e-05
9.17652e-05
0.000636623
8.69309e-05
5.75787e-05
0.0199024
8.55001e-05
0.000114584
6.58472e-05
0.000126538
9.99848e-05
0.000306984
0.000469246
7.9968e-05
8.64429e-05
8.16661e-05
0.0102316
0.0254243
0.000116814
8.53357e-05
5.41861e-05
0.000101447
0.0122733
8.8615e-05
5.46682e-05
0.0181386
9.43484e-05
8.19307e-05
0.0284784
0.0135448
8.92274e-05
4.61884e-05
0.0148482
0.000121895
7.41099e-05
0.0157939
8.75696e-05
0.011851
0.000102309
6.55564e-05
8.74048e-05
0.000129717
5.34344e-05
9.29088e-05
8.11213e-05
0.0140267
0.00434498
5.77534e-05
8.15967e-05
0.0184764
9.50317e-05
7.44226e-05
4.54372e-05
8.71203e-05
0.0135396
5.02397e-05
6.91299e-05
7.46369e-05
7.48812e-05
0.0109491
7.61446e-05
8.68105e-05
9.37992e-05
7.52685e-05
4.54919e-05
8.50587e-05
5.44352e-05
4.27389e-05
5.43674e-05
7.69807e-05
8.28247e-05
0.000114301
0.0273874
8.55932e-05
9.069e-05
0.00720093
4.81544e-05
4.92338e-05
9.48099e-05
7.7985e-05
0.000112325
0.0125307
7.65034e-05
0.0174578
4.97199e-05
9.07758e-05
0.000103756
5.78033e-05
0.0117447
8.99498e-05
7.93151e-05
0.000646143
0.02848
0.000150939
0.00984489
0.000113838
8.59373e-05
0.00178407
7.77039e-05
5.48983e-05
4.93991e-05
9.41923e-05
8.23898e-05
8.62195e-05
4.52826e-05
7.82113e-05
0.0082945
0.0143728
0.000191135
6.09135e-05
0.0245005
4.49043e-05
8.04575e-05
3.82157e-05
8.75958e-05
7.84172e-05
0.00993142
8.75095e-05
8.54557e-05
9.22304e-05
8.73387e-05
7.40413e-05
8.59596e-05
8.66632e-05
4.44288e-05
9.07863e-05
7.68322e-05
7.54498e-05
8.4219e-05
8.59159e-05
8.04256e-05
4.00587e-05
7.42571e-05
8.44753e-05
8.09469e-05
0.000116621
0.00245086
0.00138412
4.98812e-05
8.13851e-05
5.52518e-05
7.6318e-05
6.4284e-05
9.28683e-05
0.0128273
0.00221009
7.20314e-05
0.0201993
5.27188e-05
6.35374e-05
0.000138611
7.62859e-05
0.000300013
0.000114474
7.64092e-05
4.4119e-05
9.03686e-05
8.40665e-05
0.0172113
0.00288765
0.000304499
4.81269e-05
7.64208e-05
0.00511368
6.98041e-05
4.90762e-05
0.00328643
8.45252e-05
9.09024e-05
6.74735e-05
8.85908e-05
5.08485e-05
0.00996638
7.56416e-05
0.000272765
7.90811e-05
0.00621601
6.62805e-05
0.0194706
8.86325e-05
0.0138151
0.0181783
5.60493e-05
0.0206038
6.1398e-05
0.00010677
6.46057e-05
8.68733e-05
0.0245978
0.0221333
9.60726e-05
6.7481e-05
8.57569e-05
0.000121388
0.00969096
8.62926e-05
9.96927e-05
8.74375e-05
7.52678e-05
0.000321322
0.00270657
0.00010974
5.55574e-05
7.21703e-05
0.00915629
7.64873e-05
0.000108924
5.03781e-05
6.94846e-05
0.019676
4.97328e-05
7.5884e-05
8.40837e-05
9.52975e-05
5.29518e-05
0.00792913
0.001428
5.50644e-05
0.000117322
5.50485e-05
7.74868e-05
7.02147e-05
8.49868e-05
8.33003e-05
8.79567e-05
8.66922e-05
7.88086e-05
8.60564e-05
7.63863e-05
0.0132261
6.94617e-05
6.39e-05
7.81956e-05
6.6493e-05
7.98101e-05
7.91066e-05
0.00014174
9.58693e-05
0.00277589
4.62665e-05
7.02917e-05
8.05323e-05
8.70892e-05
9.84764e-05
5.45836e-05
0.00157384
8.19764e-05
4.95294e-05
0.0140985
4.45378e-05
5.46303e-05
7.44213e-05
0.00012725
6.92887e-05
8.60748e-05
9.20489e-05
0.0149811
8.81615e-05
0.0183223
8.95672e-05
9.02971e-05
8.92814e-05
9.01684e-05
0.000128274
8.41305e-05
8.69619e-05
7.18671e-05
0.00373318
0.0149147
0.00788711
7.97131e-05
0.0274038
7.29815e-05
0.0375814
0.0154704
9.04828e-05
0.0152453
8.93266e-05
8.32922e-05
5.41738e-05
5.47899e-05
5.36973e-05
0.000156905
8.22863e-05
0.000123019
5.36838e-05
7.5452e-05
0.0237201
8.98753e-05
5.66844e-05
0.000102721
7.85963e-05
7.26792e-05
4.4696e-05
0.013135
5.82503e-05
8.31022e-05
8.2991e-05
5.42116e-05
8.17527e-05
0.00762307
9.03948e-05
0.0124221
0.0130107
0.0161274
0.000104057
7.53182e-05
7.42662e-05
7.54199e-05
8.2417e-05
6.67287e-05
0.00977944
5.52302e-05
4.87796e-05
7.58509e-05
0.0121954
0.0101862
0.0108331
7.0899e-05
7.70437e-05
9.04062e-05
5.1838e-05
9.20691e-05
6.64127e-05
9.50722e-05
9.56943e-05
9.39346e-05
4.99887e-05
5.34664e-05
5.02033e-05
0.000163729
8.35212e-05
0.0059722
4.58897e-05
8.30997e-05
0.000119362
5.35503e-05
0.000107667
8.06638e-05
5.54491e-05
0.00598237
0.000123554
0.0173442
0.000105217
7.31088e-05
6.50516e-05
4.57436e-05
9.12283e-05
9.31444e-05
8.87341e-05
7.5688e-05
8.19509e-05
8.85678e-05
5.17914e-05
7.94008e-05
0.0141911
5.47978e-05
4.54062e-05
5.27416e-05
0.00460799
0.0129291
8.92777e-05
0.00569431
5.17762e-05
0.00107629
4.8252e-05
5.28153e-05
5.11226e-05
0.0385917
0.00020157
8.33424e-05
7.44488e-05
8.28807e-05
7.32137e-05
0.00139541
0.000100134
8.91497e-05
0.00513213
0.000119015
4.44153e-05
0.000232188
0.00354514
4.93822e-05
8.90351e-05
0.0118099
0.000121433
5.48484e-05
0.0200896
8.58207e-05
0.0145356
9.03162e-05
8.66851e-05
0.0139908
0.0103796
0.000210909
6.09107e-05
5.35265e-05
0.0279815
8.90997e-05
0.000102441
8.46e-05
8.94018e-05
8.13418e-05
8.25017e-05
0.0113675
8.26719e-05
8.15581e-05
0.000883021
8.20254e-05
6.68606e-05
6.03149e-05
0.00470013
8.76937e-05
8.52535e-05
7.97232e-05
6.36595e-05
8.9861e-05
5.52137e-05
0.000130778
9.37398e-05
6.041e-05
0.0126738
6.12784e-05
0.000137208
9.25145e-05
5.26135e-05
8.44247e-05
7.13961e-05
0.00017401
4.84405e-05
8.76833e-05
9.02636e-05
8.6353e-05
0.0112883
7.69334e-05
0.0122099
9.23482e-05
0.0142251
8.79642e-05
5.43748e-05
0.0123449
0.0107729
7.76108e-05
4.58167e-05
5.22287e-05
0.0119787
0.00449884
9.4075e-05
5.2156e-05
7.69612e-05
8.35381e-05
9.42141e-05
0.0100605
5.48591e-05
8.21498e-05
0.0197664
0.0150583
5.5192e-05
0.000110876
9.7213e-05
8.34945e-05
5.19371e-05
8.82826e-05
0.0163087
7.21441e-05
8.44862e-05
9.88577e-05
7.15449e-05
4.43861e-05
8.60599e-05
0.000164906
7.6573e-05
8.91938e-05
0.000214526
0.000273356
4.97866e-05
7.4758e-05
8.95951e-05
8.5533e-05
0.00994334
6.87103e-05
7.29655e-05
5.44071e-05
0.0157502
5.82847e-05
7.5042e-05
7.82549e-05
0.0133226
0.000129531
4.86371e-05
0.000122038
0.0138495
7.99933e-05
0.000131013
0.0420102
0.000151563
0.000177915
0.000102242
0.0107216
9.03163e-05
0.000223591
0.000116104
0.0134591
7.87252e-05
0.0129728
8.25921e-05
8.33671e-05
8.56039e-05
7.8459e-05
7.61437e-05
9.74146e-05
8.1952e-05
5.14834e-05
7.86058e-05
9.802e-05
0.010687
0.000104745
5.36379e-05
5.54135e-05
5.98108e-05
8.4227e-05
5.6223e-05
8.73038e-05
8.94796e-05
5.52965e-05
8.46369e-05
0.00012954
5.26626e-05
8.65323e-05
0.027278
6.58791e-05
5.44795e-05
9.71541e-05
0.00801926
4.8603e-05
0.0151071
4.55501e-05
7.62797e-05
4.50052e-05
7.24709e-05
0.0130529
9.77657e-05
8.93599e-05
8.61107e-05
5.89194e-05
7.59281e-05
5.2801e-05
8.54028e-05
6.13992e-05
7.6304e-05
0.00930935
4.57521e-05
7.97996e-05
8.11592e-05
8.19776e-05
5.06071e-05
0.000107951
7.84119e-05
0.00201843
9.00732e-05
0.000105618
7.80541e-05
0.00223675
8.0281e-05
0.000109452
8.50848e-05
0.0130576
8.62629e-05
5.56038e-05
8.75199e-05
0.013245
8.98036e-05
8.77196e-05
0.000156144
0.0145512
0.0112069
0.000230128
7.84049e-05
9.00666e-05
0.015863
9.42063e-05
9.08308e-05
0.00992793
8.37095e-05
4.51662e-05
5.31189e-05
8.9552e-05
8.30925e-05
8.94848e-05
8.36606e-05
8.12459e-05
9.08309e-05
8.12314e-05
7.67776e-05
8.3879e-05
0.0151408
4.79137e-05
7.25274e-05
0.019576
0.0113606
5.104e-05
8.64242e-05
4.44996e-05
0.00877357
0.0188071
8.42691e-05
8.79071e-05
8.1286e-05
4.87169e-05
0.00284968
8.33918e-05
8.55131e-05
8.94773e-05
4.60224e-05
6.71878e-05
0.0103232
7.83163e-05
5.18106e-05
0.00115138
8.27706e-05
8.59521e-05
0.00226754
0.000173875
9.71063e-05
4.72147e-05
5.18907e-05
8.87878e-05
6.84939e-05
8.53996e-05
0.0208013
7.24064e-05
0.00015451
6.60669e-05
4.76768e-05
5.18018e-05
4.52815e-05
6.65437e-05
0.000127763
0.000112422
0.0116798
9.03272e-05
8.62942e-05
0.00333466
5.59594e-05
8.34004e-05
0.000117299
8.36815e-05
0.00125793
9.30219e-05
6.08323e-05
8.3987e-05
4.48453e-05
0.00914484
7.76462e-05
4.80353e-05
0.012844
6.05023e-05
0.010847
5.20144e-05
6.91133e-05
6.77484e-05
4.85912e-05
0.0192823
0.0145771
8.56437e-05
6.63836e-05
0.000106916
6.50723e-05
4.8425e-05
6.23492e-05
5.20166e-05
7.23766e-05
0.0133539
0.00258953
8.35576e-05
0.0395482
0.00778542
8.64156e-05
9.05928e-05
5.53897e-05
7.93087e-05
8.82268e-05
8.58956e-05
9.51925e-05
8.80957e-05
8.2809e-05
0.00499413
7.55816e-05
6.58333e-05
6.65399e-05
6.56353e-05
6.62342e-05
7.61373e-05
0.000101946
0.0104993
7.45626e-05
4.92796e-05
6.21573e-05
6.82986e-05
7.88157e-05
4.9966e-05
8.21313e-05
0.0122715
0.00668073
6.98937e-05
4.56447e-05
0.00106936
0.000166744
0.000175768
9.74587e-05
8.31412e-05
6.04945e-05
8.88771e-05
4.97673e-05
8.04021e-05
0.0255917
6.20717e-05
8.94403e-05
0.000118147
0.000112367
0.0185733
0.0115644
8.50151e-05
4.17258e-05
9.06327e-05
8.62169e-05
0.000174825
0.000176564
6.67548e-05
0.000137908
7.26385e-05
6.06233e-05
0.0083877
0.0120914
5.16112e-05
8.79899e-05
8.65759e-05
0.000110434
5.58795e-05
8.55899e-05
4.82024e-05
8.55285e-05
4.31869e-05
9.12571e-05
0.00480482
9.08968e-05
7.08824e-05
5.52327e-05
7.83293e-05
0.0114798
0.000164143
8.9655e-05
0.00012446
0.000159895
0.000242905
9.08708e-05
0.000316605
0.000511805
7.58894e-05
8.23136e-05
8.1838e-05
8.53635e-05
5.79776e-05
4.78729e-05
8.13145e-05
0.0108092
0.0179092
0.0156632
8.1367e-05
6.5395e-05
0.0416172
9.01417e-05
8.59632e-05
8.64592e-05
8.37717e-05
8.54942e-05
9.0818e-05
0.000100363
7.98907e-05
0.000102033
0.0140038
9.07638e-05
8.05872e-05
8.48653e-05
8.06938e-05
4.98826e-05
8.68983e-05
7.65492e-05
6.77477e-05
9.06034e-05
0.000107109
8.0853e-05
5.12669e-05
5.0986e-05
7.60128e-05
0.0164674
8.3378e-05
7.43948e-05
4.48324e-05
0.00895354
5.74312e-05
0.000126413
0.0140562
8.00558e-05
7.95724e-05
7.44029e-05
0.000107579
4.55201e-05
0.002001
9.19002e-05
0.000111507
9.05277e-05
0.000340815
0.000112164
0.00293594
8.87262e-05
7.58102e-05
8.66055e-05
0.00582402
0.000285048
8.29898e-05
7.13708e-05
4.6162e-05
4.44705e-05
0.00333498
4.37898e-05
0.0135357
0.00126439
5.2795e-05
0.0147487
5.75875e-05
7.41754e-05
0.0171277
8.17867e-05
5.2895e-05
8.6273e-05
0.0150861
7.36635e-05
4.74797e-05
0.00800797
5.28173e-05
0.000119
0.000124146
0.0124746
8.97909e-05
8.56899e-05
5.93205e-05
9.02547e-05
4.7418e-05
4.4782e-05
0.0108588
5.9147e-05
5.45555e-05
9.36736e-05
7.25017e-05
0.00968293
4.48885e-05
7.27161e-05
5.05027e-05
7.4455e-05
7.90178e-05
0.0136724
4.64882e-05
5.08516e-05
6.36585e-05
0.0070092
0.00530557
5.58789e-05
9.04109e-05
6.36317e-05
0.00143373
9.08269e-05
5.76517e-05
4.48942e-05
0.00436437
0.0118907
0.000122279
8.84356e-05
9.19755e-05
9.33446e-05
6.50264e-05
6.51965e-05
5.06732e-05
0.000160558
6.0655e-05
9.47447e-05
0.00176748
9.11339e-05
6.25304e-05
8.56436e-05
9.36537e-05
5.04551e-05
6.78126e-05
7.55099e-05
0.00267636
6.60584e-05
5.96837e-05
0.0188848
7.86938e-05
0.000231737
4.91262e-05
0.0179952
4.46496e-05
0.0138772
0.00115301
6.07975e-05
7.60437e-05
0.0141693
6.4779e-05
0.00154526
6.68022e-05
6.77023e-05
0.0167591
5.74666e-05
5.0425e-05
7.56911e-05
9.80994e-05
0.00332949
7.36951e-05
0.00323645
8.30103e-05
8.52628e-05
9.0539e-05
0.0108682
0.0105536
0.0091498
0.0055827
8.07834e-05
0.0417225
7.7376e-05
6.53826e-05
5.46834e-05
4.30193e-05
7.1857e-05
8.46347e-05
0.000102315
0.0281314
8.48958e-05
6.27564e-05
5.36696e-05
8.28947e-05
8.65011e-05
6.76402e-05
4.65875e-05
5.04831e-05
5.8934e-05
9.18725e-05
6.29344e-05
0.0149796
5.75294e-05
8.01633e-05
6.32832e-05
8.51184e-05
8.78174e-05
5.88163e-05
8.626e-05
0.0118521
5.14756e-05
0.0105992
0.00745182
8.61452e-05
7.94981e-05
4.73355e-05
8.10543e-05
0.0189129
0.0144884
6.63524e-05
0.000247334
9.04813e-05
8.99193e-05
0.0153203
8.25293e-05
7.64434e-05
9.90955e-05
6.47032e-05
0.0130055
0.000482337
8.34054e-05
8.79298e-05
4.92719e-05
5.12976e-05
5.88302e-05
9.64223e-05
0.0280897
5.81525e-05
7.90105e-05
0.00401176
5.87519e-05
9.34741e-05
0.000128746
8.80333e-05
0.000256794
5.2255e-05
0.0107522
8.02608e-05
0.000226449
0.0130611
0.0136433
0.000134535
8.26685e-05
0.0090074
6.47721e-05
0.000325576
0.000335976
9.3155e-05
0.0261666
6.00027e-05
0.0307856
6.24394e-05
7.85167e-05
0.000172137
4.45068e-05
9.59305e-05
0.000231244
4.69422e-05
5.81055e-05
4.44653e-05
0.00494014
5.57716e-05
8.95692e-05
4.81817e-05
4.23915e-05
0.0101279
0.000129237
5.18043e-05
8.97426e-05
8.60858e-05
5.59124e-05
5.17444e-05
7.87952e-05
9.24693e-05
0.00010764
5.51472e-05
8.33546e-05
0.00333388
5.73495e-05
0.0132544
0.0166632
8.07593e-05
0.0142541
8.36117e-05
6.81793e-05
5.52947e-05
4.64025e-05
8.23429e-05
0.024606
5.27453e-05
5.33766e-05
8.93599e-05
0.00323384
8.86447e-05
0.0166829
0.000385739
0.000106888
0.000102741
9.33082e-05
8.63832e-05
7.69396e-05
0.0049449
8.90125e-05
0.0184611
4.85288e-05
7.31986e-05
0.0390371
0.0104076
9.1135e-05
0.000103776
4.54325e-05
8.82259e-05
5.20543e-05
0.000472731
4.56555e-05
5.07737e-05
0.0130175
8.24888e-05
7.8081e-05
6.6353e-05
8.0482e-05
8.26608e-05
0.000357712
0.0155168
0.0128496
0.00040453
9.23982e-05
8.90548e-05
7.58035e-05
6.16128e-05
0.000184002
5.11181e-05
8.66967e-05
6.53499e-05
5.9848e-05
5.84787e-05
8.10792e-05
8.40211e-05
8.87102e-05
4.86302e-05
0.000104924
8.93903e-05
0.00331577
9.08028e-05
0.0122651
0.000121831
0.000320514
0.000100043
0.00762818
4.7219e-05
0.00270042
9.21247e-05
0.000289269
5.22688e-05
8.06086e-05
5.75147e-05
5.14324e-05
7.38117e-05
4.85073e-05
0.0206585
4.69633e-05
0.0241312
0.0137479
0.000117525
9.18693e-05
0.0102903
6.8367e-05
0.000188448
0.000102138
0.000836195
6.54221e-05
8.55793e-05
7.51236e-05
0.000137375
5.98486e-05
0.000158669
5.36055e-05
0.000607871
5.24493e-05
0.000674935
0.0186
8.75563e-05
0.000881975
0.0132258
8.92751e-05
0.0404397
9.86146e-05
8.64607e-05
8.22948e-05
8.31546e-05
4.44135e-05
0.018308
0.0097423
4.80444e-05
0.0103948
8.74712e-05
7.45991e-05
6.60785e-05
8.10757e-05
0.000580947
8.34037e-05
0.0194567
8.272e-05
8.7864e-05
6.56012e-05
6.96636e-05
9.58849e-05
0.0125172
0.012606
8.36559e-05
6.12699e-05
0.0137199
0.000946753
8.71504e-05
0.0187753
9.20192e-05
0.0124436
0.00241508
9.65909e-05
0.00777492
5.01156e-05
7.86001e-05
8.50949e-05
8.44618e-05
0.0164595
0.0102031
8.81655e-05
0.0113749
5.04788e-05
8.11413e-05
0.00660797
6.95911e-05
9.05587e-05
8.36136e-05
0.0082479
0.00104245
8.97988e-05
8.64208e-05
0.0143141
0.0197843
8.8654e-05
0.000102223
6.14819e-05
5.58871e-05
9.56077e-05
8.77047e-05
8.07935e-05
4.16221e-05
8.78099e-05
0.000129163
7.87769e-05
8.47146e-05
0.000134811
8.20825e-05
8.83375e-05
0.0439003
7.4424e-05
0.000133992
7.00503e-05
7.03525e-05
0.000146249
8.069e-05
8.69114e-05
4.47756e-05
8.76295e-05
8.8596e-05
8.01674e-05
7.00618e-05
5.381e-05
7.2333e-05
6.88304e-05
0.011732
5.00241e-05
8.92558e-05
9.66889e-05
4.99796e-05
4.50965e-05
0.000140015
8.88485e-05
0.000287247
9.02048e-05
9.99981e-05
8.56888e-05
0.0108628
0.0114309
5.04194e-05
0.0138733
8.34672e-05
8.64601e-05
0.0195061
6.99475e-05
0.00199851
0.000184063
7.43463e-05
0.000144049
9.35424e-05
7.48989e-05
6.1633e-05
4.70961e-05
5.768e-05
8.91052e-05
7.01651e-05
0.000159895
7.86797e-05
0.0168077
8.17184e-05
0.00193537
0.000136586
7.33539e-05
8.70255e-05
0.000305821
4.90226e-05
0.0137731
0.0212422
7.89124e-05
0.0178596
6.94562e-05
0.0183767
0.0142027
9.45213e-05
7.36711e-05
8.40876e-05
1.00919e-05
8.01085e-05
0.0121431
8.57745e-05
6.47588e-05
0.000803947
7.82451e-05
5.74036e-05
0.0183048
5.38506e-05
5.18367e-05
7.20163e-05
7.80468e-05
8.63966e-05
8.39257e-05
8.70496e-05
0.00494905
7.75139e-05
0.016081
0.00840867
7.16549e-05
0.00338179
8.61368e-05
0.000176403
0.0129135
6.86508e-05
8.77917e-05
0.0136775
0.0160352
0.0178365
0.017485
4.82533e-05
4.58194e-05
7.68146e-05
0.000116167
7.78592e-05
0.000161739
8.03549e-05
8.50213e-05
4.86094e-05
0.0160118
8.91579e-05
0.0150143
9.09784e-05
0.0116519
7.13242e-05
9.61512e-05
8.61626e-05
8.69927e-05
4.51682e-05
0.0160162
7.77389e-05
7.63041e-05
0.0159204
9.03079e-05
8.44562e-05
5.12129e-05
9.0405e-05
0.00879676
0.00995646
6.69659e-05
0.0124427
8.16933e-05
8.27232e-05
8.3532e-05
7.03898e-05
0.0307441
0.000227765
7.10344e-05
0.00306426
0.000283041
9.05979e-05
0.0141968
0.00271235
0.0129207
9.29532e-05
6.82095e-05
7.77845e-05
5.06256e-05
6.31416e-05
0.00970262
0.00569309
8.97714e-05
0.000115432
8.49037e-05
5.39772e-05
0.0153558
8.26225e-05
0.00381289
0.00606267
6.70498e-05
0.028572
6.14589e-05
0.0109689
8.58173e-05
9.72905e-05
0.0063634
0.0189465
6.45726e-05
0.00148772
5.27525e-05
0.000140526
9.55295e-05
8.36681e-05
0.0122213
8.00746e-05
8.77567e-05
0.00166008
9.707e-05
5.29841e-05
9.77759e-05
0.000435059
0.00187399
9.67903e-05
8.34562e-05
4.28391e-05
0.000115223
9.68488e-05
8.98199e-05
0.000151624
0.000114358
0.000100354
4.74053e-05
0.000139466
0.000281524
8.6242e-05
0.000133786
6.65106e-05
6.60936e-05
0.0114766
7.28301e-05
8.99748e-05
0.0102537
0.010688
4.56202e-05
0.00779169
0.01189
0.0102889
6.0706e-05
7.41299e-05
9.3008e-05
6.54658e-05
1.68642e-05
6.51466e-05
0.0179509
8.15799e-05
4.71637e-05
8.61177e-05
8.72916e-05
0.0112466
6.26675e-05
9.40571e-05
0.0026122
9.87343e-05
7.83013e-05
0.029873
7.8231e-05
7.32502e-05
0.0201345
6.70399e-05
0.00318748
7.8441e-05
8.79466e-05
5.77708e-05
6.49043e-05
7.02381e-05
6.49741e-05
0.000276074
0.000104291
0.0152451
5.97597e-05
9.67383e-05
0.0171531
4.70639e-05
8.83877e-05
5.6527e-05
8.77323e-05
8.57799e-05
8.33457e-05
8.37336e-05
0.00793926
0.00188174
0.010155
6.95222e-05
8.82836e-05
6.11078e-05
7.25674e-05
6.96176e-05
8.64315e-05
8.25728e-05
6.97489e-05
5.48712e-05
8.74103e-05
7.81508e-05
0.0171586
6.41143e-05
8.77001e-05
5.6097e-05
0.0125035
0.00939643
0.000367342
8.1789e-05
6.07134e-05
8.68878e-05
0.00478211
7.35822e-05
0.0107762
2.39646e-05
8.35526e-05
8.1749e-05
7.22518e-05
5.03224e-05
7.40864e-05
0.0125756
0.000207813
6.37528e-05
0.0109064
8.29221e-05
0.0173421
4.47693e-05
0.0319156
0.0110698
9.03416e-05
5.45333e-05
8.44443e-05
0.00360076
6.23474e-05
8.96105e-05
5.62038e-05
8.17674e-05
5.62441e-05
8.78749e-05
0.0190057
7.20729e-05
5.43812e-05
8.27763e-05
8.42796e-05
0.00105746
7.34685e-05
8.70886e-05
0.000352713
9.58407e-05
8.14426e-05
0.00752943
9.01523e-05
9.51812e-05
8.36767e-05
8.36853e-05
0.000267886
6.6247e-05
0.00130201
7.93197e-05
9.47138e-05
0.0178332
0.00579413
8.86261e-05
9.01168e-05
8.9579e-05
8.95987e-05
4.94328e-05
5.19213e-05
0.00339538
0.000172691
4.86581e-05
8.57283e-05
4.98814e-05
0.00381314
0.013471
0.0256092
7.77412e-05
0.0160948
5.74734e-05
0.000110073
5.70358e-05
0.000167212
0.00884994
4.87767e-05
7.88016e-05
7.34756e-05
0.000111165
4.93912e-05
4.94867e-05
3.77305e-05
0.00792173
0.000111142
6.45395e-05
0.0100564
8.90731e-05
7.09244e-05
9.02656e-05
8.87266e-05
6.58207e-05
9.39986e-05
0.015521
8.55206e-05
9.57996e-05
7.98607e-05
5.76142e-05
4.69703e-05
0.0113771
5.64637e-05
6.59129e-05
7.24986e-05
4.91591e-05
8.22476e-05
4.97842e-05
7.81639e-05
0.000229998
6.8382e-05
8.03787e-05
5.19132e-05
5.0816e-05
9.69599e-05
8.02043e-05
7.58809e-05
0.000151905
8.25698e-05
6.83504e-05
8.28128e-05
0.0150616
0.000918796
6.97528e-05
0.0149292
9.25341e-05
0.0037161
9.45865e-05
4.67657e-05
8.23043e-05
8.79258e-05
8.78099e-05
8.29315e-05
0.0153013
3.53555e-05
9.2718e-05
8.95651e-05
7.32749e-05
7.91377e-05
8.80487e-05
7.36218e-05
8.30223e-05
0.0104714
4.83178e-05
0.000134734
8.48348e-05
6.192e-05
6.25971e-05
6.60221e-05
0.00379029
8.14835e-05
4.95544e-05
0.0134839
0.0126232
6.78224e-05
9.02586e-05
7.04538e-05
5.12946e-05
4.75265e-05
4.95853e-05
6.81581e-05
0.000161862
7.84468e-05
6.62848e-05
4.59164e-05
4.73883e-05
9.6617e-05
0.0154382
0.0121664
1.51917e-05
0.0164502
0.000669026
6.21498e-05
0.0140939
4.44912e-05
0.000102456
0.0122438
0.0141781
8.14129e-05
0.0138306
0.0187338
0.000178874
0.00937414
6.89917e-05
8.90208e-05
7.47336e-05
7.29907e-05
3.33877e-05
0.0198401
0.0187455
7.86011e-05
4.84621e-05
0.013021
0.0410663
5.19124e-05
8.59092e-05
8.16694e-05
8.55977e-05
8.49105e-05
0.00331507
0.00170346
0.000115522
9.26841e-05
0.0119722
8.60766e-05
0.0140969
0.000101772
0.000859448
9.28291e-05
0.000146995
8.76852e-05
0.0133209
8.7819e-05
6.57577e-05
6.76623e-05
4.02672e-05
0.000188114
6.66059e-05
8.43e-05
8.53658e-05
8.88163e-05
7.76147e-05
8.72305e-05
6.25934e-05
8.14688e-05
0.000303
6.18715e-05
0.0289188
9.81644e-05
8.32842e-05
8.58354e-05
8.52438e-05
7.13724e-05
6.03108e-05
0.000147012
5.71134e-05
8.68933e-05
7.7479e-05
5.99483e-05
0.0156652
8.14877e-05
7.72197e-05
4.7634e-05
8.25717e-05
8.29758e-05
7.22958e-05
8.53335e-05
5.12098e-05
8.51953e-05
8.68078e-05
8.66996e-05
0.00509413
0.0105728
8.20664e-05
0.0111099
0.00119849
7.8604e-05
0.000116262
0.00272996
7.71996e-05
0.00941361
5.17828e-05
0.0026654
8.58457e-05
0.00987154
4.51921e-05
7.15466e-05
0.0107405
6.51877e-05
0.000930705
4.66226e-05
7.22581e-05
9.0188e-05
8.52967e-05
7.3979e-05
0.0126768
8.64455e-05
9.60512e-05
0.0136371
6.47048e-05
7.5229e-05
8.47867e-05
9.14268e-05
7.82938e-05
9.68701e-05
9.52798e-05
0.000112665
7.93623e-05
5.37837e-05
0.0233568
7.93675e-05
0.00824339
0.000171074
5.77083e-05
8.49478e-05
9.70781e-05
8.79317e-05
8.02549e-05
0.000123582
0.000131373
4.4474e-05
8.05693e-05
0.00544168
9.20692e-05
8.35082e-05
5.02839e-05
4.42019e-05
8.91166e-05
1.13367e-05
0.0133785
7.42698e-05
0.024241
8.41694e-05
7.84645e-05
0.0195475
6.93684e-05
0.0129483
9.1639e-05
0.0110566
7.33491e-05
0.0413869
8.64728e-05
7.95654e-05
0.0148271
8.08339e-05
0.0148597
7.89108e-05
0.000105261
0.0173193
7.79338e-05
7.80916e-05
0.000881547
8.94846e-05
4.42476e-05
9.0432e-05
0.0127433
0.00960523
0.0127071
6.24415e-05
0.000116151
8.91401e-05
7.59667e-05
8.33629e-05
8.54551e-05
7.20124e-05
8.22267e-05
0.0119899
8.10146e-05
8.59902e-05
0.0100419
0.0171236
5.72895e-05
8.60751e-05
8.97104e-05
0.000150942
0.0147457
8.4596e-05
0.0154202
0.0154402
8.48501e-05
8.58757e-05
6.57324e-05
8.96282e-05
3.47365e-05
0.0127451
7.56374e-05
0.00010636
9.82519e-05
9.94448e-05
8.25091e-05
8.26906e-05
8.67795e-05
8.63289e-05
0.00953453
0.00305396
7.11002e-05
4.92316e-05
0.0115529
4.47199e-05
6.23234e-05
8.48465e-05
7.96899e-05
0.0133928
7.80856e-05
0.0126288
3.51793e-05
7.96581e-05
0.00116092
7.4095e-05
8.48936e-05
8.50968e-05
8.51212e-05
8.92799e-05
6.76736e-05
0.0165435
0.0107286
8.39995e-05
0.000102674
0.014388
0.00011499
8.89876e-05
9.233e-05
0.0108195
9.65047e-05
0.0169955
7.99457e-05
8.0576e-05
8.65824e-05
7.37019e-05
0.0182353
0.0136529
8.84395e-05
0.0114885
0.000301745
0.0111843
0.0058859
7.10615e-05
4.57452e-05
8.48585e-05
4.47373e-05
7.09554e-05
7.13711e-05
8.81173e-05
0.0136832
0.0124016
8.49989e-05
0.000112806
8.35326e-05
0.0130272
9.95773e-05
0.0155409
7.97134e-05
9.12882e-05
7.04302e-05
0.00837203
0.000122657
9.02571e-05
4.57217e-05
4.02018e-05
0.00131592
0.000102699
0.0156603
8.40854e-05
0.00322072
8.86416e-05
5.20219e-05
8.95034e-05
7.58317e-05
7.569e-05
0.0106143
4.93869e-05
7.39553e-05
0.0158478
0.0198424
8.65623e-05
6.96386e-05
8.81522e-05
0.00715891
9.08103e-05
9.06109e-05
0.00415209
8.03348e-05
0.012182
0.000125024
0.0133631
0.0110141
0.0268476
7.07858e-05
0.000203589
7.56739e-05
0.0161428
9.6063e-05
0.000154103
0.0139263
0.00136513
0.00010494
0.0127329
0.0177485
0.000104573
0.0176538
8.54425e-05
8.00953e-05
0.000313703
9.89655e-05
9.54651e-05
8.94176e-05
7.91335e-05
7.53644e-05
9.10854e-05
3.19857e-05
0.0143345
0.000633259
5.26373e-05
9.5141e-05
5.13973e-05
6.65812e-05
7.72709e-05
8.54502e-05
8.58626e-05
8.53916e-05
6.96348e-05
5.17115e-05
0.000111382
6.87769e-05
7.31892e-05
8.96526e-05
9.60782e-05
0.0012036
0.000103535
0.0165213
6.78629e-05
0.017562
0.0085139
9.09165e-05
0.00514482
0.000135819
0.000309254
7.56554e-05
0.0152986
8.14183e-05
0.000108235
0.0163059
7.36658e-05
4.20038e-05
0.00471731
7.51759e-05
0.00677239
8.83696e-05
8.0865e-05
0.000118282
6.65601e-05
0.000360628
7.98069e-05
9.54424e-05
0.0292587
8.56297e-05
0.0169406
0.000100588
0.0124317
0.00011217
0.000734115
0.000107732
7.17868e-05
5.10816e-05
6.57351e-05
8.5708e-05
8.03735e-05
9.6997e-05
7.71538e-05
0.0274084
9.2396e-05
8.95163e-05
6.44575e-05
8.64486e-05
8.90137e-05
6.92471e-05
0.00252037
0.000121137
8.3545e-05
0.000104625
0.00912972
8.87089e-05
8.46602e-05
0.000106871
0.0143216
0.0380527
0.00314687
6.13255e-05
8.47688e-05
8.90167e-05
0.0180767
7.59823e-05
0.0138311
6.2178e-05
9.85131e-05
8.4969e-05
8.72793e-05
6.887e-05
9.00577e-05
0.000113801
7.94693e-05
7.10676e-05
6.79218e-05
0.000110936
0.00563603
0.000104181
6.42044e-05
0.0172693
0.000117913
6.32266e-05
4.8668e-05
0.000106848
0.0101418
0.00905141
8.09402e-05
0.0273362
0.000132164
0.000125364
2.62844e-05
8.31726e-05
0.000102542
8.67107e-05
8.01844e-05
0.000222473
0.00631477
6.97913e-05
7.51209e-05
0.000137683
0.00931236
0.000112961
0.0115582
6.75967e-05
7.09329e-05
8.85476e-05
5.74944e-05
4.02829e-05
8.38523e-05
0.0173022
5.84469e-05
0.00333873
7.5778e-05
6.92774e-05
8.2694e-05
8.85889e-05
0.0143432
0.000102856
0.0220344
0.0117446
8.95748e-05
9.31532e-05
0.00420673
0.0181982
3.36561e-05
0.000156504
8.94693e-05
0.0155561
0.0112802
0.000109646
8.55552e-05
0.0126578
0.00751111
0.033109
5.87233e-05
8.5365e-05
0.000117354
0.0103762
9.12588e-05
5.53207e-05
0.0142979
0.000103212
0.0169539
8.09879e-05
0.000123568
7.03342e-05
0.000179727
7.64492e-05
0.00024018
0.0166674
0.014266
8.6564e-05
0.000187561
7.993e-05
8.73868e-05
8.55042e-05
8.55923e-05
8.44109e-05
0.000106085
0.000113106
0.000109004
0.000118029
0.000123309
0.000132259
8.98399e-05
0.000111912
0.000609458
0.000100942
0.0159909
0.000341727
8.81191e-05
6.69177e-05
8.89835e-05
8.54295e-05
8.22673e-05
0.0122642
0.0143457
0.000108958
3.87444e-05
0.0170825
0.000109282
0.000101206
0.000799775
0.0113941
0.000117347
0.0143539
7.56563e-05
8.63667e-05
8.53886e-05
8.64578e-05
0.00471085
9.02587e-05
6.07528e-05
9.33055e-05
8.6371e-05
0.000119534
7.80154e-05
0.00868249
0.0171421
0.018328
8.31625e-05
9.0623e-05
0.00516176
8.65618e-05
7.23588e-05
8.16116e-05
9.27479e-05
8.51684e-05
0.0167667
0.0127698
8.53262e-05
0.000159132
7.74532e-05
6.85212e-05
0.000144677
8.63177e-05
0.014274
8.84819e-05
0.000108063
8.55502e-05
0.000111675
6.35422e-05
0.000103482
0.00569573
0.0190749
0.0144925
5.64437e-05
0.000148021
0.0178257
0.000111957
0.000126618
0.0158115
0.0161655
0.0139643
0.000103062
8.11407e-05
0.0163361
0.00010017
9.63228e-05
0.0176176
5.28913e-05
0.0115698
0.00948552
0.0183205
0.00715689
8.96168e-05
0.000499763
0.0100757
0.0127402