/*--------------------------------*- C++ -*----------------------------------*\
| =========                 |                                                 |
| \\      /  F ield         | OpenFOAM: The Open Source CFD Toolbox           |
|  \\    /   O peration     | Version:  v2012                                 |
|   \\  /    A nd           | Website:  www.openfoam.com                      |
|    \\/     M anipulation  |                                                 |
\*---------------------------------------------------------------------------*/
FoamFile
{
    version     2.0;
    format      ascii;
    class       surfaceScalarField;
    location    "350";
    object      phi;
}
// * * * * * * * * * * * * * * * * * * * * * * * * * * * * * * * * * * * * * //

dimensions      [0 3 -1 0 0 0 0];
oriented        oriented;


internalField   nonuniform List<scalar> 
20392
(
0.196936
-0.117991
-0.0789448
-0.539163
0.447312
0.0918508
0.245823
0.0701431
-0.315966
0.302233
0.180274
-0.482507
0.0634689
0.00481706
-0.0682859
0.0103716
-0.423074
0.412702
-0.00069302
0.00182218
-0.00112916
0.557071
-0.393239
-0.163832
-0.0949599
0.181832
-0.086872
-0.154128
0.456361
0.461294
-0.450923
-0.262185
0.312459
-0.0502738
0.317267
-0.0714438
-0.149918
0.217604
-0.067686
-0.243302
0.467622
-0.22432
0.0366775
-0.186595
-0.198931
-0.319185
0.518116
-0.584736
0.592332
-0.00759664
0.356622
-0.622136
0.265514
0.652596
-0.489277
-0.163318
0.003825
-0.0210456
0.0172206
0.0234228
-0.00335101
-0.0200718
0.268306
-0.662467
0.394161
-0.324366
0.0805933
0.243772
-0.271109
0.226458
0.0446505
0.668002
-0.519453
-0.148548
-0.0926906
-0.314834
0.407525
-0.214053
0.212497
0.00155587
-0.017181
0.0167518
0.000429247
-0.011564
0.0127155
-0.00115153
0.159646
-0.583736
0.42409
-0.39124
0.527197
-0.135957
0.0450671
-0.140027
0.13396
-0.377262
0.469859
-0.161035
-0.308825
-0.00179961
-0.00402954
0.00582915
0.0575464
-0.0513293
-0.00621712
0.477646
-0.289813
-0.187833
0.0901914
0.379668
-0.000551215
0.000266796
0.000284419
-0.128135
0.519496
-0.391361
-0.148369
0.0339836
0.114386
0.729433
-0.537724
-0.19171
-0.0184425
0.0225826
-0.00414007
0.0734038
-0.515277
0.441873
0.435836
0.293597
0.596035
-0.412831
-0.183204
-0.639603
0.242058
0.397545
-0.159294
0.245965
-0.086671
0.0340825
0.306986
-0.341069
-0.300242
-0.0241241
0.580352
-0.506948
-0.00341679
-0.000192696
0.00360949
0.585519
-0.470112
-0.115407
-0.0771957
-0.320788
0.397983
-0.00302262
0.0023296
0.000320444
-0.0127345
0.0124141
-0.262043
0.253646
0.00839675
0.186513
0.393839
0.0770865
0.110168
-0.187255
-0.509587
0.118348
0.132444
-0.0169577
-0.115486
-0.063672
-0.458806
0.522478
-0.293218
0.561524
0.0530163
0.120903
-0.173919
0.508023
-0.157468
-0.350555
0.198385
-0.286326
0.087941
0.451736
-0.427762
-0.023974
-0.000244161
-0.00317263
0.143079
0.0538567
-0.30755
0.25313
0.0544195
0.0243404
-0.321206
0.296866
0.452551
-0.360067
-0.0924841
0.0589326
-0.00950188
-0.0494307
-0.484994
0.329808
0.155186
0.00380952
0.0156635
-0.019473
0.644682
-0.477357
-0.167325
0.105102
-0.579305
0.474204
0.000156859
-0.000708074
-0.461409
-0.0777539
0.101546
-0.115691
0.0141444
-0.0483123
-0.259237
0.243398
0.07919
-0.322588
-0.240488
0.664293
-0.423805
0.0390486
-0.0452098
0.00616122
0.624225
-0.52862
-0.0956046
-0.329135
0.0660732
0.263062
0.303946
-0.105561
0.0035112
0.0209206
-0.0244318
0.186807
-0.133791
-0.0416503
0.407467
-0.365816
0.113649
-0.0121024
0.036745
0.424549
0.254617
-0.453548
0.295627
-0.372823
0.000695746
0.0413671
-0.0420628
0.00260489
-0.00454536
0.00194046
0.353662
-0.110264
0.00696496
-0.00730481
0.000339853
-0.221705
0.626005
-0.404299
0.327164
-0.492068
0.164905
0.00191718
0.0781289
-0.080046
0.297116
-0.389806
0.167943
-0.17146
0.00351667
0.445911
-0.409166
0.556872
-0.213218
-0.343654
0.33002
-0.37167
0.156384
-0.162197
0.00581324
0.571384
-0.466283
-0.0107035
-0.000860465
0.205964
0.271682
-0.171404
0.311839
-0.140435
0.00446427
-0.00489446
0.000430184
-0.140922
-0.272487
0.413409
0.136345
-0.210422
0.0740768
0.409089
0.042647
0.303206
0.341476
0.0391034
-0.301289
-0.214032
0.193125
0.020907
0.336485
-0.302402
-0.210153
-0.304202
0.514355
-0.501089
0.387639
0.11345
-0.556586
-0.0261666
0.582752
0.654557
-0.135603
-0.518954
-0.615971
0.044055
0.571916
-0.0112987
-0.00588228
-0.420768
-0.0803214
-0.505276
0.377141
0.500935
0.153621
-0.117912
0.105338
0.0125735
0.197681
0.398354
-0.0536022
-0.275533
-0.0723574
-0.111303
0.18366
0.00655524
0.000409718
-0.156444
0.00807423
-0.0241738
0.00573125
-0.00922315
0.00742354
-0.179803
0.107446
-0.417118
0.571436
-0.154317
-0.10371
0.580353
-0.476643
-0.00200761
0.0147333
-0.0127257
0.301197
-0.611123
0.309926
-0.286876
-0.273833
0.56071
-0.0025688
0.31483
-0.430967
0.116136
-0.148354
0.610818
-0.462464
-0.0309593
0.0344705
0.00463853
-0.000174264
0.0608077
-0.00187512
0.00910937
-0.0114474
0.00233808
-0.357867
0.659064
-0.00129873
0.0110004
-0.00970162
-0.559561
0.0029754
0.331809
-0.307468
0.0160295
-0.0210573
0.00502781
0.202079
0.354793
-0.100549
0.102467
0.582163
0.0335223
-0.615686
0.447903
-0.511575
0.13154
-0.455484
0.323944
0.350694
-0.331474
-0.0192195
-0.0179443
0.463856
-0.13808
-0.42009
0.55817
0.148926
-0.577858
0.428932
-0.371008
-0.248444
0.619452
-0.25316
0.00561623
0.247543
-0.0272184
0.522321
-0.495102
-0.512134
0.432706
0.0794288
-0.0192451
0.0164947
0.0027504
0.0546526
0.527511
0.127338
-0.453978
0.326639
-0.412298
0.394354
-0.0211245
0.0214449
0.0231005
0.00102791
-0.0241284
-0.226131
-0.201631
-0.00568498
-0.247475
-0.146869
0.0114398
0.135429
0.0167529
-0.0662213
-0.147831
-0.0203406
0.0453228
-0.0249823
0.0354929
0.230218
-0.265711
0.335633
-0.374617
0.0389841
0.0120119
-0.158881
-0.00102341
0.00173687
-0.000713462
0.231394
0.0858732
-0.495044
0.391334
0.541703
-0.401523
-0.140179
0.585948
-0.623004
0.037056
0.00157114
-0.00370654
0.0021354
0.0492406
-0.508047
-0.028332
0.0918008
0.0316924
-0.131326
0.0996339
0.295824
-0.400796
0.104972
0.303772
0.0469211
0.154194
0.47003
0.569834
0.0161141
-0.0677718
-0.14626
0.17333
0.125994
-0.299324
-0.0646382
-0.143546
0.208185
-0.315922
-0.00528412
-0.00603179
0.00761946
-0.00158767
-0.10008
-0.00593487
0.0219644
-0.00628216
-0.00284269
0.00912485
-0.149805
0.542064
-0.392259
0.313004
-0.06599
-0.247015
-0.154378
0.150732
0.00364522
0.00889895
0.0486475
0.173478
-0.626804
0.453326
-0.54132
-0.0746509
-0.27185
-0.213144
0.357249
-0.291176
-0.240532
-0.0215109
-0.5108
0.516801
-0.00600029
-0.00846038
0.000661092
0.00779929
-0.465751
0.152135
0.313616
0.376682
-0.0729097
0.00303808
-0.00932024
0.500368
-0.582533
0.0821641
-0.521252
0.234376
0.59848
-0.425002
0.0108075
-0.0128151
-0.117846
0.15183
0.280606
-0.245114
-0.167762
-0.214505
0.382267
0.0518311
-0.0801631
-0.0015236
0.00123039
0.000293207
0.495558
0.0788942
-0.574452
0.320059
0.374048
0.167654
-0.382906
0.215144
0.00252819
-0.000738319
-0.00178988
0.121028
-0.521629
0.400601
0.394509
0.273492
-0.0956082
-0.379287
0.474895
0.548766
-0.581741
0.032975
0.0847941
-0.0961406
0.0113465
0.342101
-0.489636
0.147535
-0.00383885
-0.108408
0.112247
0.204234
-0.621352
0.205963
-0.0628843
0.560835
-0.401189
0.183995
0.488542
-0.146441
0.00870922
0.468132
-0.476842
0.429644
-0.456863
-0.353607
0.567684
-0.214078
-0.0421393
-0.468661
0.111749
-0.0800571
0.120402
-0.00798233
-0.493304
-0.0188305
0.0210376
-0.474558
0.453521
-0.045716
-0.0181245
0.0638405
-0.0317008
0.133359
-0.101658
0.565732
-0.117829
0.122697
-0.557916
0.435219
0.0243555
-0.00125504
-0.00780728
-0.156595
0.164402
-0.163402
0.66377
0.415944
0.152491
-0.568435
-0.00489895
-0.00356143
0.0567293
-0.0221979
-0.0345314
-0.292464
0.00265157
-0.0600595
-0.217083
0.277142
-0.567936
0.407485
0.160451
-0.114977
0.663743
0.44068
-0.589034
0.162175
0.0124997
-0.174674
0.0225573
0.000865498
0.125642
0.331354
-0.456996
-0.376615
0.563128
-0.337103
0.311621
0.0254816
0.0129644
-0.00913936
-0.000921938
0.00352683
-0.330738
-0.308865
-0.000395252
0.00104527
-0.000650014
-0.362069
0.483617
-0.237224
-0.0338847
-0.0242883
0.0246897
-0.000401471
0.485844
-0.186757
-0.299087
-0.257534
0.531776
-0.000344804
0.002873
0.000875635
-0.00401506
0.00313942
0.296199
0.0804835
-0.352629
0.217242
0.135387
-0.357439
0.483081
9.38721e-05
0.123145
-0.123239
0.109159
-0.280563
0.590263
-0.174319
0.00653735
-0.00496621
-0.0607449
0.112576
0.144921
-0.152729
0.329026
0.00660642
-0.247499
0.266528
-0.0190295
0.0172599
0.0394695
0.00562235
-0.0569516
-0.551216
0.5888
-0.0375848
-0.378033
0.0572452
0.137837
0.0681262
0.287601
-0.537237
0.249637
0.0446709
0.11788
-0.121719
-0.0470468
0.0396691
0.00737778
-0.364722
0.280031
0.0846907
0.192664
-0.115577
-0.0339889
0.0149904
0.0189984
-0.00173094
-0.564171
0.101664
0.462508
0.0704377
-0.0785069
0.00806914
0.0502782
-0.527675
0.477397
-0.581645
0.0953248
0.486321
0.202836
-0.241731
0.0388953
0.358663
-0.0920152
-0.266647
-0.20344
0.138801
0.287344
-0.114014
-0.504496
0.15089
0.149028
0.00735636
-0.0807099
-0.10931
0.333856
0.31874
0.522865
-0.0558548
-0.467011
-0.483986
-0.302072
-0.0626495
0.377665
0.130358
0.0878127
0.364738
0.0664949
-0.320509
0.254014
0.00866083
0.00141806
-0.0100789
0.0574225
0.465443
-0.46206
0.638051
-0.17599
-0.0424702
-0.0132304
0.0557006
-0.0170334
0.0166356
0.000397732
-0.294339
-0.0735975
0.367937
0.619513
-0.427946
-0.191567
-0.00284175
0.000480026
0.00236172
0.27553
0.0602395
-0.335769
-0.505934
0.356129
0.000760518
-0.00216972
0.0014092
0.390118
0.166953
-0.000106186
-0.0059256
-0.245195
0.239539
0.00565646
-0.721971
0.372326
0.349645
-0.0237415
0.0601649
0.000917814
-0.00375956
0.164768
0.147691
-0.117081
0.542086
-0.425006
-0.169799
-0.0694373
0.239236
0.257523
-0.054687
0.153425
0.0931229
-0.246548
0.0320703
0.387237
-0.419307
-0.481086
0.182049
0.299036
-0.151673
-0.185429
-0.0108238
0.00410454
0.00671926
0.485615
-0.278627
-0.206988
-0.130837
0.626395
0.0632252
-0.222519
0.153759
0.0922055
0.242453
-0.437674
0.195221
0.401896
-0.525161
0.123265
-0.134145
-0.106387
-0.0927416
0.449363
0.0382461
0.328888
-0.367134
0.448073
-0.597105
0.149032
0.177268
-0.0409232
0.0601175
-0.0553004
0.426344
-0.543425
-0.664846
0.293837
0.181447
-0.580299
0.398852
0.208574
-0.0984055
-0.556641
-0.333391
0.46073
-0.157633
-0.15829
0.0695063
-0.58896
-0.523253
-0.0614825
0.124484
-0.143882
0.0193981
0.172158
-0.374374
0.202216
0.134432
0.301449
-0.435881
-0.438676
0.587601
-0.137714
0.426158
-0.288444
-0.00182406
0.0048746
-0.00305054
0.360033
-0.500169
0.140137
-0.622408
0.249359
0.373049
0.231987
-0.603989
0.372002
0.17186
0.371956
-0.543816
-0.142761
-0.209868
-0.277101
-0.0740639
0.351165
-0.519537
-0.0448954
0.0211539
-0.221555
0.292205
-0.0706495
0.00381525
0.00867044
-0.0124857
-0.06181
-0.075111
0.136921
0.322917
-0.536135
0.47969
-0.44762
0.301969
-0.439683
-0.393281
-0.000259249
0.00376221
-0.00350296
-0.573589
0.462436
0.111154
0.106124
-0.438212
0.332088
0.359359
-0.316004
-0.0433544
-0.0295711
-0.0424927
0.0720638
-0.20983
0.632951
-0.423121
0.0680191
-0.237818
-0.219207
0.391365
0.0769616
0.153234
-0.230195
0.136411
-0.136317
-0.341527
-0.280609
0.00229149
-0.00117479
-0.0011167
-0.00442724
0.0183445
-0.0139172
0.434305
-0.396059
-0.130945
0.0360977
0.0948469
0.365297
-0.126348
-0.238949
0.471133
-0.462424
-0.0652037
-0.065741
0.205282
0.280563
-0.511201
0.406928
0.104273
0.151341
0.430662
-0.582003
-0.00152007
-3.52787e-06
-0.0112043
0.0093802
0.369115
-0.0734873
-0.00210016
-0.0027943
-0.012592
0.0112933
0.326051
0.169949
-0.496
-0.292284
0.0550602
-0.00739474
-0.298988
0.244109
0.0548789
0.210951
-0.396441
0.18549
-0.0943177
0.390142
0.12751
-0.574511
0.447001
0.371003
-0.160052
-0.433147
0.631368
-0.19822
0.0137383
0.34562
0.0673886
-0.178692
-0.182423
-0.42287
-0.145066
0.375622
-0.325344
-0.152852
0.40767
-0.254819
0.196845
0.28877
0.181214
-0.514605
-0.000136981
-0.00066542
0.0008024
-0.187596
0.249659
-0.0620635
0.258092
0.0737166
0.282848
0.075815
-0.00295362
0.0877477
0.0980099
-0.232154
0.038076
0.00468353
-4.49935e-05
-0.00174995
0.00262559
0.197935
0.118484
-0.31642
-0.407475
0.353743
0.0537326
-0.0302635
-0.151569
-0.359632
0.0593785
0.127429
-0.157882
0.0414445
0.116437
0.519202
-0.0687991
-0.450403
0.396606
-0.637095
0.538906
-0.0506068
-0.488299
-0.0458581
-0.0195371
0.365337
-0.122555
-0.00467724
-0.0163684
-0.0219909
0.0175637
0.506113
0.15818
0.0753956
-0.412532
0.337136
0.00369466
-0.579572
0.0103008
-0.00163994
0.283767
0.0734818
0.0524871
0.283997
0.192414
-0.252474
0.203512
-0.136124
-0.0096226
-0.00432483
0.0139474
-0.0601987
0.286657
-0.0145092
0.00488657
-0.166777
0.536714
-0.369937
-0.329183
0.188261
0.102285
-0.591563
0.178938
-0.0411012
-0.346339
0.0722798
0.274059
0.0185338
0.117877
0.0779496
0.206512
-0.284461
0.365976
-0.0831284
-0.494389
0.0203746
0.474015
0.328382
-0.247788
-0.466459
0.234058
0.232401
-0.268326
0.524842
-0.256515
-0.140408
-0.609785
0.184432
0.425353
0.455925
-0.324384
0.325508
-0.463358
0.13785
0.386961
-0.189026
-0.00347438
-0.000356013
0.00383039
-0.490614
0.511652
-0.499128
0.39035
0.108778
-0.348593
0.0847972
0.263796
-0.27635
0.410782
0.0243278
-0.0302627
-0.00782777
0.0037559
0.00407187
0.002706
0.0432554
-0.0459614
0.404431
-0.0334282
0.422755
-0.0154425
-0.261658
-0.162227
0.368251
-0.206025
0.403905
0.117579
-0.521484
-0.273994
0.152365
0.121629
0.446641
0.179364
0.00269482
0.0273301
-0.0300249
-0.38301
-0.19277
0.57578
0.17676
-0.557632
0.380872
-0.00698873
0.00404804
0.00294069
0.283982
-0.0908263
-0.193156
0.212183
0.380149
-0.290367
-0.190718
-0.0683364
0.0710424
-0.23421
0.0753578
0.158853
0.0599339
0.224048
-0.291723
0.238121
0.438244
0.144063
-0.582307
-0.0115966
-0.0354503
-0.509032
0.014642
0.00215183
-0.490315
0.110672
0.379643
-0.454687
0.186361
-0.368364
0.570442
0.00247614
-0.00261312
-0.299522
0.227724
0.0717975
0.468383
-0.234324
0.0821671
-0.104383
0.0222159
-0.0150955
-0.0019379
0.254446
-0.468951
-0.0708073
-0.163403
0.253767
0.112208
0.392067
-0.326841
-0.0652264
-0.36568
0.0713412
0.0026889
0.00921402
-0.0119029
0.000204664
0.00161752
0.115329
0.111709
-0.227038
0.102082
-0.0199146
-0.0381524
-0.0551806
0.093333
0.516775
-0.0911306
-0.425644
-0.00503576
-0.0487909
0.0538266
-0.214856
0.292806
0.343423
0.156634
-0.500057
0.0113826
0.00422787
-0.0156105
-0.0017478
0.0164811
0.417141
-0.225387
-0.191753
-0.109743
-0.307922
0.417665
-0.00495669
0.0152545
-0.0102978
0.3441
-0.208377
-0.135723
0.513435
-0.187926
0.0112265
-0.00362641
-0.00760013
0.117565
0.0613735
0.00184462
-0.039065
0.0372204
-0.294748
0.475961
0.0086091
-0.0510793
0.0726381
-0.216185
-0.00414635
0.000671976
0.59896
-0.0291259
-0.135122
0.378635
-0.243513
0.0282793
-0.0578504
0.040312
0.364119
0.246972
0.0308015
-0.277774
-0.44024
-0.00242474
-0.0947498
0.418328
-0.323579
-0.427965
0.467403
-0.442892
-0.0245112
0.505607
-0.413249
-0.0923574
-0.00633205
-0.0942174
-0.081814
-0.0747236
-0.23604
0.310763
-0.178139
0.285362
-0.107222
0.429006
-0.186553
-0.372058
-0.00395579
0.0130652
0.0323749
0.135568
-0.0512543
-0.248267
-0.0251456
-0.00227382
0.0274194
0.303025
-0.0903483
-0.212676
-0.000725261
0.0121079
0.194187
0.149914
0.442394
-0.366999
0.0897643
0.0550643
0.193444
0.315378
-0.118762
-0.196616
-0.00324681
-0.00458096
0.36725
-0.314763
-0.000642128
0.000528402
0.000113726
-0.360393
0.0961145
0.207831
-0.0184297
0.157509
0.100013
-0.00792378
0.00987237
-0.00194859
0.041507
-0.263062
-0.0953106
0.349756
0.457082
-0.0959732
-0.361109
-0.0836676
0.102201
0.000918032
-0.00194144
-0.10063
0.488269
0.0291004
-0.0192434
-0.00985703
0.0685524
-0.0514515
-0.0171009
0.388609
-0.404513
0.0159038
-0.002031
0.000510925
0.149767
0.336549
-0.486316
-0.0476435
0.0494881
-0.0621195
0.0570838
-0.000790086
-0.00780508
0.340512
-0.43612
-0.151742
0.576031
-0.424289
0.435037
-0.34422
-0.0908175
0.441502
-0.289367
0.0960158
-0.529163
0.208843
0.208298
-0.215952
0.341946
-0.15794
-0.195153
0.353093
0.0727824
0.13073
-0.139095
-0.00783241
0.0957907
0.0976307
-0.193421
-0.00658143
0.00961952
0.0966273
-0.564171
-0.0393715
-0.205824
-0.577618
0.157528
0.145002
-0.498288
0.353286
0.00133353
0.000799367
-0.0021329
-0.441797
0.425636
0.0161619
-0.00729841
-0.0175542
0.0248526
-0.495363
0.112353
0.363371
-0.503644
0.140273
-0.0858871
0.605089
0.589712
-0.259692
0.0106881
0.0912142
-0.101902
-0.0954014
-0.0130069
-0.145586
0.148485
-0.00289915
0.182651
-0.123273
0.0105013
0.549041
0.241618
0.348093
-0.160318
0.488691
-0.328373
-0.00354891
-0.38945
-0.11072
0.00153099
-0.00945478
0.00430057
0.00331889
0.0202202
-0.0175313
-0.180164
-0.0365505
0.0300936
0.00645694
0.354923
0.150684
-0.065167
0.227342
-0.409709
0.0948751
0.189179
0.113846
0.00935004
-0.0424212
0.0330712
-0.336259
0.178319
0.00148365
0.00025322
-0.0263714
-0.119214
-0.0759994
0.351529
0.0489186
0.163578
0.338199
0.16691
-0.505109
-0.00228698
0.120167
0.00144398
-0.00112471
-0.000319273
0.000472796
0.000971184
-0.163654
0.486361
-0.322707
-0.111867
0.105535
-0.016893
-0.00561468
0.0225077
0.0457549
-0.0043878
-0.000944591
-0.00207803
-0.0252415
0.0205643
0.0207256
-0.00506215
0.164367
-0.0282328
-0.136134
-0.344587
0.494355
0.214344
-0.0990142
-0.174089
0.0237399
0.150349
0.212272
0.103107
0.489101
-0.125731
-0.389559
-0.167255
0.556813
0.57633
-0.0374245
0.506717
-0.307913
-0.198804
0.0950984
0.0190885
-0.114187
0.340893
-0.205309
-0.135585
-0.0277597
0.00784488
0.0199148
-0.000643896
0.00193707
-0.00129317
0.105039
-0.533267
0.428229
-0.367504
0.567905
-0.200402
0.0054715
-0.00468048
-0.000791021
0.0493446
0.0192079
-0.0767524
0.231315
-0.154563
-0.435692
0.321593
0.114098
-0.0017624
-0.00278296
0.440896
0.0749039
0.297044
0.137993
-0.0202946
0.184662
-0.00764098
-0.166448
0.0295083
-0.00518046
0.423399
0.175081
-0.399803
-0.322168
0.00826968
0.0208307
-0.49683
0.365927
0.130903
0.00766078
0.00248516
-0.0101459
0.474259
0.124701
0.0118184
-0.0167751
-0.181203
-0.0927913
-0.117026
-0.324772
0.551278
-0.423768
0.483175
-0.0667567
-0.416419
0.474446
0.145067
-0.00251062
0.0101714
0.00954887
-0.180812
0.48272
-0.301908
0.107465
-0.0177186
-0.0897459
-0.0717449
0.610517
-0.299441
0.389632
-0.0702949
-0.108698
0.178993
0.134148
-0.0113017
-0.0650497
0.0763513
-0.510452
0.629446
-0.118994
0.497314
0.205883
-0.205946
0.276552
0.000711539
5.3696e-05
-0.000765235
0.541987
-0.359938
-0.0263737
-0.384856
-0.0469753
0.431831
-0.0790498
-0.0788322
-0.461719
0.171954
0.289765
-0.489128
-0.133279
-0.00066542
-0.528384
0.361607
-0.112414
0.115937
-0.00352341
0.502445
-0.159022
0.00408534
-0.0555368
-0.3558
0.193574
0.0859496
-0.0481012
0.00572709
0.0423741
-0.0232029
0.0380988
-0.0148959
-0.122761
0.218552
-0.0482251
-0.302829
0.0968831
0.12668
-0.00353576
0.348552
-0.0647847
0.083229
0.245153
-0.386989
0.478372
-0.0913826
-0.555762
0.4291
0.126661
0.467861
-0.346833
-0.0603769
-0.111083
0.0698172
-0.547174
0.000897679
0.0041799
-0.00507758
-0.300281
-0.0483121
-0.186562
0.597214
-0.410653
0.310944
0.0397223
-0.350666
0.354822
-0.0747907
0.532643
-0.398608
-0.134035
0.286117
0.122692
-0.355048
0.122478
-0.235922
0.113444
0.00211228
0.00634454
-0.00845683
-0.348515
0.493516
0.527585
-0.422546
-0.168735
-0.205882
-0.00340959
-0.0158355
-0.394126
-0.192335
0.586461
-0.0718735
-0.501716
-0.125624
0.563868
0.130621
-0.00613677
-0.332822
0.383241
-0.0504187
-0.027144
-0.00940656
0.402854
-0.0200827
-0.00767698
0.00120651
0.00635365
-0.00756017
0.304112
0.163291
-0.0576286
0.0119125
0.0911522
-0.496692
0.40554
0.0211959
-0.0161008
-0.00509501
0.54516
-0.143264
0.311549
-0.27932
-0.0322289
-0.512452
0.144949
-0.00409508
0.114242
0.0106528
0.0946855
0.0167796
0.0440208
-0.0757216
0.259795
-0.517329
-0.54046
0.025183
-0.107401
0.469387
-0.361986
0.00292506
-0.00534979
0.531827
-0.440674
-0.248792
0.0584057
0.190387
0.563269
-0.155784
0.0184794
-0.446773
-0.124526
0.571298
-0.136208
-0.341186
0.477394
-0.00581178
0.00555253
-0.482073
0.44467
0.0374026
0.0274861
-0.0487148
-0.433358
0.560458
-0.388598
-0.428779
0.56983
-0.141051
-0.00201764
-1.33532e-05
-0.0100364
-0.12129
0.000154137
-0.000549389
0.170648
-0.0295724
-0.141075
0.000296858
-0.0278609
0.0075203
0.00394456
0.622286
-0.400614
-0.221672
-0.00695977
-0.00386403
-0.483641
0.126202
0.0196742
0.100728
0.280153
0.351214
0.562693
-0.381246
-0.0392022
-0.110502
0.0138677
-0.201463
0.414157
-0.312494
-0.0631314
0.0371514
0.0259799
0.106519
0.0641292
0.0868151
-0.502864
0.416048
-0.00407222
0.0147245
-0.0106523
0.22567
0.167275
-0.392945
-0.00337134
0.00548363
-0.0713647
0.0886663
-0.0173016
-0.55742
0.402793
0.154627
0.435772
-0.151862
-0.28391
-0.432831
-0.125084
0.169937
0.156109
-0.0872748
-0.0688338
0.179587
-0.167088
-0.540966
0.00729063
0.533676
-0.387684
-0.140469
0.528153
0.49993
-0.413115
-0.26764
0.0921065
0.175534
0.0419969
0.00325776
-0.0452547
-0.0344488
-0.11971
0.196672
-0.032494
0.0272911
0.00520293
-0.209571
-0.076755
0.00324899
0.0676863
-0.452542
-0.000697832
0.00178581
-0.00108798
0.0758373
0.358467
0.331653
0.468956
-0.272111
-0.0029921
0.0194868
0.335592
-0.447346
0.111754
-0.102438
0.0554596
0.0956289
-0.151088
0.530913
-0.0339563
-0.496957
-0.307697
0.381001
0.154612
-0.535613
0.00196508
-0.025168
-0.0165717
-0.0174172
0.503925
-0.298643
0.248802
0.373484
-0.0303775
0.0397275
0.54026
-0.184921
-0.355339
-0.0536285
0.463874
-0.410245
-0.38633
0.462447
-0.0761161
-0.464579
0.139595
0.324984
0.0785073
-0.540568
0.408723
0.153541
-0.562264
0.019173
-0.0945851
-0.438682
-0.125919
0.198701
-0.00460527
0.29571
0.0528419
0.00218036
0.000111131
-0.300053
0.228668
0.0713856
-0.0118725
-0.100541
0.0387282
0.112004
-0.052492
-0.239231
0.0342395
0.0110833
0.415432
-0.0840783
-0.38734
0.140637
0.246703
-0.088247
-0.492408
0.371011
0.121397
-0.306408
0.00447604
0.11375
-0.118226
0.346527
0.170274
-0.471809
-0.111927
-0.0522213
0.25624
-0.204019
-0.108768
0.556081
-0.000233452
-0.000539825
-0.391997
-0.016779
0.408776
0.273637
0.0811844
-0.11334
-0.287456
-0.0919212
0.555269
-0.463348
-0.128523
0.439733
-0.31121
-0.00804716
-0.00340029
0.136301
0.332656
0.23013
-0.107652
0.0773538
0.000504023
-0.0778578
0.392754
0.139889
0.349698
0.160665
-0.510363
-0.0338029
-0.0626771
0.0748179
-0.0121408
0.471015
-0.585992
0.497849
-0.343301
-0.154548
-0.0656989
-0.125855
0.191554
-0.262408
-0.124932
-0.0281613
0.0248103
0.275057
-0.388043
0.112986
-0.170631
0.0527849
-0.282674
0.378006
-0.0953312
0.0579459
0.0981627
-0.586445
0.335395
-0.513518
0.178123
-0.155525
-0.385955
0.54148
0.287072
-0.230989
-0.0560824
-0.332571
-0.0497793
0.38235
0.351633
-0.487293
0.13566
0.0683461
0.198182
-0.056636
-0.0948791
0.380009
-0.203805
-0.176204
-0.0723293
-0.0332124
-0.358785
-0.14758
-0.206671
0.0687045
0.137966
0.594517
-0.163855
-0.0717281
0.0758135
-0.413937
0.304193
0.126352
0.263627
-0.389979
-0.0317957
0.0244973
-0.161624
-0.00625103
0.167875
0.22012
-0.580743
0.39839
0.182353
0.324566
-0.258071
0.0793447
-0.518392
0.439047
-0.116459
0.00366727
0.112792
0.03362
-0.0526932
0.0190732
-0.43021
0.109493
0.320717
-0.496655
0.3626
0.134055
-0.0853485
-0.185079
0.270427
-0.275128
0.111802
0.163326
0.0984407
0.213398
0.0353281
-0.573052
0.0142307
-0.00556022
0.115685
0.416159
-0.531843
-0.00465682
-0.0235045
-0.328291
-0.127193
-0.0971292
-0.0314623
0.128591
-0.0997385
-0.0401791
-0.450313
0.341261
0.109051
-0.266071
0.251583
0.0144884
-0.00613406
-0.00402127
0.0101553
0.000812744
0.000232521
-0.423519
-0.00237578
0.00329359
0.236609
-0.318481
0.0818723
-0.432237
0.280376
-0.00158274
0.000884908
0.435663
0.253334
-0.488108
0.434479
-0.069174
0.226683
-0.0186632
0.549576
-0.000293568
0.00405578
0.00507209
0.0161238
-0.411517
0.378305
-0.104236
-0.341383
0.445619
-0.387789
0.310331
0.0774573
-0.00876357
-0.00181688
0.0105804
0.216694
-0.144056
-0.557709
0.142822
0.414888
0.111589
0.430498
-0.376992
-0.354373
0.378003
-0.0424103
0.282192
-0.399218
-0.111983
0.350653
-0.0562769
-0.600092
0.458915
0.141177
0.456693
0.323791
-0.214632
-0.0705356
0.0410375
0.0294981
0.561117
-0.141154
-0.419964
-0.0543482
-0.003113
0.0574612
-0.0764119
0.0183917
0.0580203
-0.166561
0.444448
-0.277887
-0.0457081
0.516723
-0.49522
0.328659
0.421985
0.158367
-0.575673
0.415659
0.160014
-0.143235
-0.000589969
0.143825
-0.000822222
-0.249943
0.164595
-0.406803
0.00320555
-0.00611878
0.00291323
0.161237
0.218772
0.235817
0.305462
-0.0688535
0.414108
-0.555398
0.14129
-0.081223
-0.217245
0.449232
-0.330275
0.494768
-0.156569
-0.0220205
-0.0751087
-0.12681
0.172549
-0.562107
0.176978
0.0566396
-0.233618
-0.00109381
0.00168305
-0.000589239
-0.435957
-0.138554
-0.0597316
0.236729
-0.176997
0.0653067
-0.494843
0.429537
-0.145406
0.0931053
0.00356756
-0.00266988
-0.0051639
-0.281926
-0.105862
0.0097495
0.00688614
-0.39419
-0.00422362
0.00410348
0.000120137
-0.0240086
-0.186385
-0.431386
0.00143812
0.00116118
-0.00259931
-0.4759
0.375552
0.100348
-0.00152395
0.0183036
0.00041356
0.000106688
-0.000520249
-0.258048
0.36723
-0.109182
-0.558475
0.15669
0.401785
-0.00143861
-0.343709
-0.106603
-0.210572
0.189905
0.0206671
-0.00120906
-0.372263
0.373472
-0.604941
0.198464
0.406478
-0.0173966
-0.00153762
-0.280506
-0.469614
-0.0390075
0.508621
-0.267988
0.340267
0.0284662
-0.033123
-0.115335
0.105955
0.00937981
0.0326174
-0.00532636
-0.415645
-0.240837
0.656482
-0.308736
0.337201
-0.0284646
-0.57678
0.449007
0.127773
0.0971681
-0.355216
-0.317491
0.202536
0.114955
-0.39179
0.576223
-0.0162914
0.0622109
-0.0459195
0.184958
-0.272546
0.0875877
0.0565036
0.00430406
-0.142967
0.076072
-0.292024
-0.11265
-0.00213886
-3.08537e-05
0.00315249
-0.00272123
-0.000431265
0.00917135
0.0770033
-0.0861746
0.0989487
-0.516294
0.417345
0.357819
0.14003
-0.539053
-0.0338807
0.572934
-0.00416243
-0.011953
0.0161154
-0.0279499
0.278727
-0.343904
0.453397
0.0667276
0.153239
-0.219966
-0.0758549
0.00725438
0.0686005
-0.0622907
0.282849
-0.220559
-0.40876
0.291842
0.116918
-0.584247
0.459083
0.125164
0.107373
0.303222
-0.410595
-0.0385542
-0.460533
0.499087
-0.422253
0.521201
-0.33378
-0.409027
0.558949
-0.149922
0.155178
0.289493
0.379797
0.160462
-0.229398
-0.163121
0.392519
-0.373942
0.484614
0.0630861
0.26148
-0.0346153
-0.335838
0.370453
-0.141568
-0.0331067
-0.42153
0.617678
-0.196148
0.014912
-0.489915
-0.0757465
0.565661
0.0969595
0.0105051
0.378838
0.144836
-0.489424
-0.129456
-0.00472383
4.33501e-05
-0.455065
0.192462
0.422032
-0.614494
-0.0435151
-0.0824437
0.125959
0.0469496
-0.0683049
-0.262226
0.330531
-0.00195262
-0.0621537
0.0939048
-0.438904
0.334668
-0.0366867
-0.473765
0.541926
-0.365166
0.395438
0.426618
-0.290318
0.122794
-0.352192
0.143576
-0.3319
0.188323
-0.190684
-0.260603
0.451288
0.00166381
-0.00403959
-0.0049492
-0.0170417
0.243181
-0.0897558
-0.12978
-0.251508
0.199287
0.112551
-0.0174528
-0.0285387
0.299695
0.205037
-0.504733
-0.00297459
-0.373122
0.0643852
-0.102827
0.560032
-0.145924
0.0490888
0.450842
0.396453
0.163578
-0.00239997
-0.411257
-0.146163
-0.214574
0.00202781
-0.00267171
-0.404238
-0.00323721
-0.174242
-0.317827
-0.0152609
0.0112396
-0.151085
-0.30408
-0.10468
-0.270517
0.00444538
-0.0666835
-0.162716
-0.393046
0.00865224
-0.0638329
-0.00125722
0.00543712
-0.209957
0.223824
0.406106
0.129741
-0.535847
-0.301654
0.409027
-0.526601
-0.4074
0.112416
0.294984
-0.00570074
-0.561373
0.428294
0.13308
-0.0105081
-0.380126
0.390634
0.436491
-0.281313
0.450487
-0.40784
-0.0543163
-0.236094
0.277601
0.0495933
-0.330368
0.280775
-0.293582
0.223914
0.0696681
0.00306303
0.13288
-0.135943
0.000180109
-0.37442
0.578654
-0.441052
0.556029
-0.114977
-0.252203
0.371977
0.291793
-0.00156603
0.000885395
0.00068064
0.113504
-0.410675
0.297171
0.325278
-0.216284
-0.108994
-0.462589
-0.0196202
0.482209
-0.00886975
0.0403465
0.00540838
-0.318227
-0.241334
-0.590418
0.00161488
0.292425
-0.456079
0.00514602
-0.0855589
-0.0724309
-0.396549
0.46898
0.0237991
-0.00153849
-0.0222606
-0.00168664
0.000511853
-0.467811
0.00395145
0.463859
-0.19482
0.566776
-0.527046
0.163889
0.363157
-0.00365698
0.018231
-0.014574
0.467134
-0.517741
-0.0187377
0.198325
0.134004
-0.130941
-0.041999
0.140074
0.339571
-0.0522067
-0.287364
0.00352767
-0.00318782
0.37596
0.100707
-0.476667
0.0831035
-0.00574973
0.00175834
-0.00249666
0.055618
-0.270169
0.214551
-0.104553
0.160012
0.58983
-0.168646
-0.421184
0.0792656
0.371222
-0.0637238
0.0552267
0.201014
0.051113
-0.0114439
-0.0183039
0.0225025
-0.00419866
-0.331925
0.152012
-0.579321
0.469918
0.109403
0.0352372
-0.36806
0.145077
0.0775384
-0.222616
-0.458003
-0.00980797
-0.520273
0.126147
0.282875
0.22105
-0.445754
-0.141222
-0.334678
-0.555779
0.193733
0.362046
-0.289976
-0.0508548
0.340831
0.549515
-0.528867
-0.020648
-0.300113
0.434073
-0.0106618
-0.103696
0.114358
-0.0081471
-0.0601893
-0.546185
0.158501
0.145389
-0.48821
-0.0068337
-0.12012
0.117833
0.104197
0.184701
-0.288898
0.273093
0.211073
0.316124
0.000588264
0.378534
-0.398427
0.019893
-0.183158
0.0714727
0.0218604
-0.514804
0.352175
0.162629
-0.0328807
0.0306069
-0.428884
0.300362
0.379272
-0.00099249
0.0052244
-0.00423191
-0.464435
0.00184557
-0.465587
-0.11866
0.147911
-0.122084
-0.0258266
-0.543168
0.123303
0.419865
0.00468623
-0.0229901
-0.0293396
0.3045
-0.275161
0.147597
-0.22435
-0.157748
0.217682
-0.504973
0.200771
0.00293142
-0.00221988
0.180424
0.295846
-0.47627
0.306416
-0.419796
0.11338
0.356579
0.00914923
-0.0109661
0.00663165
-0.0015005
-0.00513115
-0.0548652
0.0025734
-0.0363661
0.0337927
-0.00789232
0.0176418
-0.515622
0.147869
0.367753
0.0266479
0.540309
-0.143856
-0.578352
0.222572
-0.155845
0.435167
-0.152975
-0.0617763
-0.0224251
0.0842014
-0.0416067
0.452117
-0.41051
0.404662
-0.41517
0.00878977
0.276572
-0.142542
0.0990265
-0.571784
0.148711
0.0597462
-0.0032426
0.0080628
-0.00170915
-0.330225
0.0402492
-0.183497
-0.393829
0.577326
0.126468
-0.56752
0.0821024
-0.204863
-0.089676
0.461654
0.535006
-0.161254
-0.373752
0.00186113
-0.0975544
0.0956933
0.000442806
0.00312476
0.534551
-0.125828
-0.110836
0.390821
0.14373
0.431839
-0.0910647
-0.340774
0.593382
-0.467051
-0.126331
-0.600213
0.427585
0.172628
0.047429
0.135455
-0.182884
0.118825
-0.129486
-0.130687
0.528779
-0.398092
0.36393
-0.204517
-0.159412
0.328376
-0.369983
-0.12058
0.128065
-0.00748491
0.194369
-0.532756
0.338388
0.0038326
-0.0552026