/*--------------------------------*- C++ -*----------------------------------*\
| =========                 |                                                 |
| \\      /  F ield         | OpenFOAM: The Open Source CFD Toolbox           |
|  \\    /   O peration     | Version:  v2012                                 |
|   \\  /    A nd           | Website:  www.openfoam.com                      |
|    \\/     M anipulation  |                                                 |
\*---------------------------------------------------------------------------*/
FoamFile
{
    version     2.0;
    format      ascii;
    class       surfaceScalarField;
    location    "350";
    object      phi_0;
}
// * * * * * * * * * * * * * * * * * * * * * * * * * * * * * * * * * * * * * //

dimensions      [0 3 -1 0 0 0 0];
oriented        oriented;


internalField   nonuniform List<scalar> 
20392
(
0.19696
-0.118015
-0.0789448
-0.539155
0.447307
0.0918473
0.245819
0.070146
-0.315965
0.302232
0.180275
-0.482507
0.0633635
0.00493641
-0.0682999
0.0103716
-0.423074
0.412702
-0.000692654
0.00182296
-0.00113031
0.55707
-0.39324
-0.16383
-0.0949678
0.181836
-0.0868682
-0.154129
0.456361
0.461294
-0.450922
-0.262184
0.312455
-0.0502717
0.317266
-0.0714471
-0.149682
0.217682
-0.0680006
-0.243302
0.467622
-0.22432
0.0370152
-0.186697
-0.198799
-0.319295
0.518094
-0.584736
0.592332
-0.00759669
0.356279
-0.622144
0.265865
0.652596
-0.489277
-0.163318
0.00382218
-0.0210393
0.0172171
0.0234154
-0.00334642
-0.020069
0.268222
-0.662384
0.394162
-0.324363
0.080581
0.243782
-0.271111
0.226459
0.0446517
0.668001
-0.519453
-0.148548
-0.0926918
-0.314834
0.407526
-0.214052
0.212492
0.00155991
-0.0171817
0.0167554
0.000426291
-0.0115564
0.0127089
-0.00115248
0.159531
-0.583531
0.423999
-0.391205
0.52718
-0.135975
0.0450626
-0.14003
0.13396
-0.377262
0.469797
-0.160803
-0.308994
-0.00179777
-0.00402823
0.005826
0.0575462
-0.0513412
-0.00620503
0.477647
-0.289815
-0.187832
0.0901627
0.379634
-0.000552774
0.000266831
0.000285943
-0.128133
0.519495
-0.391362
-0.148363
0.0339752
0.114388
0.729433
-0.537723
-0.19171
-0.0184425
0.0225769
-0.00413444
0.0734208
-0.515267
0.441846
0.435836
0.293597
0.596037
-0.412824
-0.183213
-0.639586
0.241944
0.397642
-0.159303
0.245967
-0.0866641
0.0340846
0.306985
-0.34107
-0.300243
-0.0241204
0.58035
-0.506929
-0.00341574
-0.000192819
0.00360856
0.585521
-0.470113
-0.115408
-0.0771946
-0.320786
0.397981
-0.00302367
0.00233102
0.000327221
-0.0127365
0.0124092
-0.262041
0.253646
0.00839537
0.186525
0.393824
0.0770849
0.110171
-0.187256
-0.50956
0.118355
0.132439
-0.0169628
-0.115476
-0.0636246
-0.458782
0.522407
-0.293237
0.56146
0.053024
0.120898
-0.173922
0.507965
-0.157148
-0.350817
0.19839
-0.286324
0.0879343
0.45156
-0.427823
-0.0237366
-0.000243544
-0.0031722
0.143116
0.0538439
-0.307547
0.253128
0.0544191
0.0242175
-0.321173
0.296955
0.452549
-0.360066
-0.0924831
0.0589288
-0.00949684
-0.0494319
-0.484993
0.329807
0.155186
0.00378407
0.0156966
-0.0194807
0.644682
-0.477357
-0.167325
0.105102
-0.579305
0.474204
0.00015539
-0.000708164
-0.461406
-0.0777488
0.101544
-0.11568
0.0141355
-0.0483097
-0.259238
0.243413
0.0791921
-0.322605
-0.24049
0.664293
-0.423803
0.0390603
-0.0452133
0.00615302
0.624224
-0.52862
-0.0956046
-0.329085
0.0659357
0.26315
0.303949
-0.105559
0.00352369
0.0209178
-0.0244415
0.186806
-0.133782
-0.0416481
0.407481
-0.365833
0.113641
-0.0120965
0.036745
0.424549
0.254862
-0.453661
0.29563
-0.372825
0.000689834
0.041378
-0.0420678
0.00261284
-0.00454918
0.00193634
0.353678
-0.110265
0.00698452
-0.00730493
0.000320407
-0.2217
0.626002
-0.404302
0.327156
-0.492056
0.1649
0.00192544
0.0781229
-0.0800483
0.297115
-0.389807
0.167947
-0.171469
0.00352205
0.445911
-0.409166
0.556872
-0.213218
-0.343654
0.330029
-0.371678
0.156373
-0.162202
0.00582927
0.571384
-0.466283
-0.0106983
-0.000858101
0.205967
0.271679
-0.171377
0.31189
-0.140512
0.00446245
-0.00489221
0.000429764
-0.140923
-0.272488
0.413411
0.136347
-0.210424
0.0740771
0.409154
0.0424061
0.303206
0.341476
0.0391049
-0.301288
-0.214035
0.193121
0.0209137
0.336485
-0.3024
-0.210153
-0.304202
0.514355
-0.501028
0.387461
0.113567
-0.556586
-0.0261666
0.582752
0.654555
-0.135601
-0.518954
-0.615971
0.044055
0.571916
-0.011303
-0.00587873
-0.420612
-0.0804157
-0.505275
0.377142
0.500935
0.15362
-0.117906
0.105347
0.012559
0.197685
0.398352
-0.0533219
-0.275764
-0.072358
-0.111305
0.183663
0.00655762
0.000426897
-0.156442
0.00807904
-0.0241693
0.00572683
-0.00921941
0.00742164
-0.179808
0.10745
-0.417103
0.571431
-0.154328
-0.103709
0.580351
-0.476642
-0.00200914
0.0147291
-0.0127199
0.301188
-0.611119
0.309931
-0.286876
-0.273834
0.56071
-0.00256951
0.314827
-0.430966
0.116139
-0.148353
0.610817
-0.462464
-0.030961
0.0344847
0.00463599
-0.000173542
0.0608113
-0.00188251
0.00911281
-0.011449
0.00233623
-0.35787
0.659058
-0.00129656
0.0109937
-0.00969713
-0.559561
0.00297538
0.331738
-0.307521
0.0160352
-0.0210578
0.00502258
0.202078
0.354794
-0.100543
0.102468
0.582079
0.0339372
-0.616016
0.447832
-0.511456
0.131541
-0.455484
0.323944
0.350697
-0.331474
-0.0192231
-0.0179443
0.463855
-0.138079
-0.42002
0.558099
0.148926
-0.577859
0.428934
-0.370843
-0.248532
0.619376
-0.253158
0.00561564
0.247543
-0.0272184
0.522321
-0.495102
-0.512134
0.432705
0.0794292
-0.0192389
0.0164917
0.00274718
0.0544516
0.527627
0.127337
-0.453977
0.32664
-0.412298
0.394354
-0.02112
0.0214472
0.0231013
0.00102468
-0.0241259
-0.225969
-0.201854
-0.00568321
-0.247475
-0.146878
0.0114475
0.135431
0.016759
-0.0662231
-0.147829
-0.0202771
0.0453493
-0.0250721
0.0354793
0.230221
-0.2657
0.335626
-0.374616
0.0389901
0.0120099
-0.158888
-0.0010241
0.00173834
-0.000714243
0.231391
0.085875
-0.495043
0.391334
0.541705
-0.401525
-0.140181
0.585948
-0.623004
0.037056
0.00157194
-0.00370005
0.0021281
0.0491873
-0.507969
-0.028396
0.0917595
0.0316763
-0.131324
0.099648
0.295827
-0.400794
0.104967
0.303776
0.046921
0.154194
0.47003
0.569834
0.0161141
-0.0677791
-0.146256
0.173324
0.126001
-0.299325
-0.0646337
-0.143552
0.208186
-0.316006
-0.00516658
-0.0060281
0.00761527
-0.00158716
-0.100083
-0.00592853
0.0219637
-0.00627593
-0.00284348
0.00911941
-0.149805
0.542065
-0.39226
0.312975
-0.065507
-0.247468
-0.154377
0.150737
0.00363965
0.00888764
0.0486586
0.173475
-0.6268
0.453325
-0.54132
-0.0746508
-0.271846
-0.213147
0.357088
-0.291152
-0.240534
-0.0215078
-0.510798
0.516805
-0.00600734
-0.00845407
0.000657862
0.0077962
-0.46544
0.151512
0.313928
0.376685
-0.072909
0.00303839
-0.00931432
0.500369
-0.582533
0.082164
-0.521253
0.234377
0.598478
-0.425002
0.0108012
-0.0128103
-0.117857
0.151832
0.280601
-0.245122
-0.168281
-0.214115
0.382396
0.0517252
-0.0801212
-0.00152431
0.00123089
0.000293417
0.495604
0.0788337
-0.574438
0.320307
0.37405
0.167655
-0.382937
0.214657
0.00252355
-0.000732593
-0.00179096
0.121027
-0.521631
0.400604
0.394509
0.273492
-0.0956102
-0.379287
0.474897
0.548766
-0.581741
0.0329752
0.0848131
-0.0961636
0.0113505
0.342123
-0.489688
0.147565
-0.00382887
-0.108409
0.112238
0.204251
-0.621354
0.205998
-0.0628823
0.560701
-0.401169
0.183996
0.488598
-0.146475
0.0087092
0.468132
-0.476841
0.429644
-0.456863
-0.353607
0.567684
-0.214078
-0.0421316
-0.468666
0.111751
-0.0800746
0.120402
-0.00799003
-0.493304
-0.0188306
0.0210376
-0.474558
0.45352
-0.0457148
-0.0181195
0.0638343
-0.0317023
0.133384
-0.101682
0.565594
-0.117762
0.122696
-0.557914
0.435218
0.024354
-0.00125273
-0.00779564
-0.156599
0.164394
-0.163401
0.66377
0.415944
0.152491
-0.568435
-0.00489768
-0.00355638
0.056732
-0.0221916
-0.0345404
-0.292464
0.00264904
-0.0600682
-0.217075
0.277144
-0.567928
0.407473
0.160455
-0.114977
0.663743
0.440681
-0.589034
0.162182
0.0124828
-0.174665
0.0225525
0.000862885
0.125642
0.331354
-0.456996
-0.376605
0.56313
-0.337101
0.311624
0.0254774
0.0129601
-0.00913796
-0.000916454
0.00352929
-0.330806
-0.30878
-0.000396676
0.00104655
-0.000649875
-0.362432
0.483609
-0.237226
-0.0338852
-0.0242796
0.0246831
-0.000403497
0.485844
-0.186757
-0.299087
-0.257832
0.531744
-0.000348726
0.00287228
0.000875264
-0.00401675
0.00314149
0.2962
0.0804848
-0.352842
0.217503
0.135339
-0.357439
0.483081
8.15195e-05
0.123152
-0.123234
0.109232
-0.280609
0.590263
-0.174319
0.00653178
-0.00495983
-0.0607926
0.112518
0.144926
-0.152722
0.329025
0.00660121
-0.247501
0.266527
-0.019026
0.0172537
0.0394784
0.00561244
-0.0569536
-0.551215
0.5888
-0.0375847
-0.378036
0.0572499
0.137881
0.0681167
0.287601
-0.537237
0.249636
0.0446727
0.117882
-0.121711
-0.0470716
0.0397022
0.00736949
-0.364721
0.280032
0.0846884
0.192667
-0.115582
-0.0340434
0.0149545
0.0190889
-0.00172705
-0.564171
0.101664
0.462508
0.0703633
-0.0785379
0.00817466
0.050278
-0.527675
0.477397
-0.581644
0.0953238
0.48632
0.202832
-0.241727
0.0388957
0.358488
-0.092217
-0.266271
-0.203439
0.138805
0.28735
-0.114026
-0.504496
0.15089
0.14903
0.00734315
-0.0807087
-0.109314
0.333856
0.31874
0.522866
-0.0558545
-0.467011
-0.483987
-0.302071
-0.0626493
0.377723
0.130242
0.0878116
0.364737
0.0664964
-0.320511
0.254015
0.00865974
0.001416
-0.0100757
0.0574223
0.465443
-0.462061
0.638051
-0.175991
-0.04248
-0.0132169
0.0556968
-0.0170368
0.01664
0.000396789
-0.29434
-0.0735955
0.367935
0.619513
-0.427946
-0.191567
-0.0028431
0.000480393
0.00236271
0.275531
0.0602367
-0.335768
-0.505935
0.35613
0.000759801
-0.00217151
0.00141171
0.390117
0.166953
-0.000105144
-0.00592296
-0.245094
0.239571
0.00552334
-0.721971
0.372326
0.349645
-0.023864
0.0601672
0.00091829
-0.00376139
0.164765
0.147691
-0.11708
0.542085
-0.425005
-0.169798
-0.0694335
0.239232
0.25752
-0.0546879
0.153424
0.0931248
-0.246549
0.0320705
0.387237
-0.419307
-0.481022
0.181476
0.299546
-0.151675
-0.185426
-0.0108188
0.00410516
0.00671366
0.485612
-0.278624
-0.206988
-0.130757
0.626361
0.0632178
-0.222521
0.153774
0.0921931
0.242452
-0.437674
0.195222
0.401841
-0.525057
0.123216
-0.134152
-0.106382
-0.0931237
0.449403
0.0382461
0.328888
-0.367134
0.448078
-0.597047
0.148969
0.177268
-0.0409214
0.0601639
-0.0552275
0.426343
-0.543424
-0.664803
0.293959
0.181447
-0.580299
0.398852
0.20858
-0.0984093
-0.556641
-0.333392
0.460729
-0.157755
-0.158251
0.0695062
-0.588959
-0.523253
-0.0614823
0.124502
-0.143909
0.0194065
0.172156
-0.374372
0.202217
0.134433
0.301448
-0.435881
-0.438676
0.587601
-0.13775
0.426187
-0.288437
-0.00178615
0.00485674
-0.00307059
0.359871
-0.500223
0.140351
-0.622408
0.249359
0.373049
0.231987
-0.603989
0.372002
0.17186
0.371956
-0.543816
-0.142781
-0.210061
-0.277098
-0.0740865
0.351184
-0.51958
-0.0449188
0.0210547
-0.221568
0.29225
-0.0706829
0.00381627
0.00866572
-0.012482
-0.0617312
-0.0751414
0.136873
0.322916
-0.536135
0.479691
-0.44762
0.301958
-0.439709
-0.39333
-0.000258185
0.00376176
-0.00350357
-0.573589
0.462436
0.111154
0.106125
-0.438213
0.332088
0.359359
-0.316004
-0.0433548
-0.0295794
-0.0425189
0.0720983
-0.209833
0.632947
-0.423115
0.0680134
-0.237812
-0.219207
0.391363
0.0768811
0.153284
-0.230165
0.136405
-0.136323
-0.341833
-0.28031
0.00229205
-0.00117489
-0.00111715
-0.00442834
0.0183486
-0.0139202
0.434305
-0.396059
-0.130935
0.0360823
0.0948525
0.365354
-0.126183
-0.23917
0.471133
-0.462424
-0.0651905
-0.0657443
0.205283
0.280561
-0.511589
0.406711
0.104879
0.151341
0.430662
-0.582003
-0.00152074
-3.56737e-06
-0.0112046
0.00941848
0.369111
-0.073481
-0.00209901
-0.0027932
-0.0125857
0.0112891
0.326051
0.16995
-0.496001
-0.292282
0.055056
-0.00742055
-0.298988
0.24411
0.0548779
0.210951
-0.396445
0.185494
-0.0943132
0.39014
0.127509
-0.57451
0.447001
0.371008
-0.160057
-0.433147
0.631368
-0.19822
0.0137376
0.345621
0.0673898
-0.178695
-0.182404
-0.42286
-0.145068
0.375621
-0.325343
-0.15285
0.407669
-0.254818
0.196843
0.288769
0.181213
-0.514605
-0.000136791
-0.000665502
0.000802293
-0.187581
0.249628
-0.0620471
0.258165
0.0735729
0.28245
0.0760375
-0.00295844
0.0877715
0.0980018
-0.232154
0.0382485
0.00468117
-4.51756e-05
-0.0017516
0.00262686
0.197929
0.118486
-0.316414
-0.407476
0.353742
0.0537334
-0.0302711
-0.152062
-0.359527
0.0593705
0.127436
-0.157904
0.0414548
0.116449
0.519202
-0.0687992
-0.450403
0.396603
-0.637093
0.538905
-0.0506067
-0.488299
-0.0458596
-0.0195374
0.365337
-0.122524
-0.00467498
-0.0163643
-0.021995
0.0175666
0.506112
0.158181
0.0753971
-0.412533
0.337136
0.0036883
-0.57957
0.010297
-0.00163731
0.283668
0.0734204
0.0524871
0.283997
0.192406
-0.252474
0.203513
-0.136123
-0.00962767
-0.00431659
0.0139443
-0.060197
0.286656
-0.014506
0.00487833
-0.166777
0.536715
-0.369937
-0.329183
0.18826
0.102285
-0.591563
0.178972
-0.0410909
-0.34626
0.072202
0.274058
0.0185197
0.117885
0.0779546
0.206509
-0.284464
0.365903
-0.083453
-0.494388
0.0203739
0.474014
0.328377
-0.247796
-0.466459
0.234058
0.232401
-0.268326
0.524842
-0.256515
-0.140408
-0.609783
0.184431
0.425352
0.455925
-0.324384
0.325508
-0.463358
0.13785
0.386953
-0.189024
-0.00347195
-0.000355365
0.00382731
-0.490614
0.511651
-0.499225
0.390213
0.109012
-0.34862
0.0847668
0.263854
-0.276349
0.410782
0.0243353
-0.0302638
-0.00782795
0.00373473
0.00409322
0.00271469
0.043251
-0.0459657
0.404439
-0.0334307
0.422621
-0.0154307
-0.261667
-0.162808
0.368432
-0.205624
0.403831
0.117637
-0.521468
-0.273992
0.152366
0.121626
0.446641
0.179361
0.00268674
0.0273349
-0.0300216
-0.38301
-0.19277
0.57578
0.17676
-0.557631
0.380871
-0.00698288
0.00404569
0.00293719
0.284261
-0.0909703
-0.19329
0.212183
0.380149
-0.290884
-0.190138
-0.0683325
0.0710472
-0.234208
0.075356
0.158852
0.060087
0.224173
-0.291691
0.238369
0.438244
0.144064
-0.582307
-0.0115924
-0.0354793
-0.509031
0.0146427
0.00206338
-0.490302
0.110734
0.379568
-0.454687
0.186361
-0.368364
0.570442
0.00247625
-0.00261304
-0.299527
0.227719
0.0718076
0.468383
-0.234325
0.0820948
-0.10429
0.0221948
-0.0150994
-0.00193736
0.254844
-0.468958
-0.0707994
-0.163408
0.253423
0.112481
0.392067
-0.326842
-0.0652255
-0.365682
0.0713422
0.00269451
0.00920843
-0.0119029
0.000204517
0.00161844
0.115328
0.11171
-0.227038
0.101981
-0.0198867
-0.038152
-0.0551761
0.093328
0.516764
-0.0911278
-0.425636
-0.00502053
-0.0487989
0.0538194
-0.21486
0.292815
0.343423
0.156634
-0.500057
0.0113848
0.00424614
-0.0156309
-0.00174569
0.0164748
0.41715
-0.225387
-0.191763
-0.109746
-0.307921
0.417666
-0.0049544
0.0152563
-0.0103019
0.344099
-0.208374
-0.135726
0.513434
-0.187926
0.011276
-0.00364275
-0.00763321
0.117612
0.0613604
0.00183999
-0.0390632
0.0372232
-0.294748
0.475961
0.00859752
-0.0510775
0.0726377
-0.21619
-0.00414314
0.000671194
0.59896
-0.0291259
-0.135317
0.378738
-0.24342
0.0282928
-0.0578722
0.040314
0.364125
0.246974
0.0307986
-0.277772
-0.44024
-0.00242294
-0.0947249
0.418149
-0.323424
-0.427964
0.4673
-0.442699
-0.024601
0.505607
-0.413249
-0.0923574
-0.00632165
-0.0942212
-0.0818237
-0.0747224
-0.236041
0.310764
-0.178128
0.285367
-0.107239
0.429006
-0.186553
-0.372058
-0.00395336
0.0130662
0.0323721
0.135575
-0.0512591
-0.248268
-0.0251493
-0.00226957
0.0274189
0.303014
-0.0903469
-0.212667
-0.000747033
0.0121318
0.194184
0.149915
0.442395
-0.366998
0.08959
0.0550679
0.193445
0.315369
-0.118754
-0.196615
-0.00327017
-0.00455778
0.367249
-0.314762
-0.000642256
0.000528622
0.000113634
-0.360569
0.0961161
0.207833
-0.0184332
0.157506
0.100014
-0.00792212
0.00986723
-0.00194511
0.0415355
-0.263103
-0.0948394
0.349683
0.457325
-0.096223
-0.361102
-0.0836765
0.102196
0.000919437
-0.00194354
-0.100782
0.488243
0.0291036
-0.0192414
-0.00986217
0.0685561
-0.0514438
-0.0171123
0.388615
-0.404515
0.0158995
-0.0020319
0.000511156
0.149767
0.336549
-0.486316
-0.0476456
0.0494856
-0.0621117
0.0570912
-0.000795326
-0.00780341
0.340511
-0.436121
-0.151742
0.576031
-0.424288
0.435036
-0.344221
-0.0908158
0.44138
-0.289868
0.0960157
-0.529163
0.208839
0.20831
-0.215953
0.341954
-0.158175
-0.195043
0.353217
0.0727829
0.13073
-0.139354
-0.00783014
0.0957855
0.0976388
-0.193424
-0.00657631
0.0096147
0.0966234
-0.564171
-0.0392924
-0.205802
-0.577491
0.157472
0.145001
-0.498288
0.353286
0.00133471
0.000799656
-0.00213436
-0.441812
0.425645
0.0161661
-0.00729412
-0.0175513
0.0248454
-0.495364
0.112353
0.363318
-0.503637
0.140319
-0.0858868
0.605089
0.589727
-0.259698
0.0105235
0.0913741
-0.101898
-0.0953973
-0.0130115
-0.145596
0.148492
-0.00289531
0.182644
-0.123273
0.0105289
0.54904
0.241624
0.348104
-0.160318
0.488691
-0.328373
-0.0035702
-0.389347
-0.110875
0.00152775
-0.00944987
0.00429757
0.00331769
0.0202229
-0.0175284
-0.180159
-0.0365481
0.0300912
0.00645687
0.354922
0.150684
-0.0651514
0.227333
-0.40971
0.0948757
0.189168
0.113846
0.0093473
-0.0424235
0.0330762
-0.336336
0.178161
0.00148494
0.000253403
-0.0263784
-0.119218
-0.0759974
0.351528
0.0489094
0.163583
0.338199
0.16691
-0.505109
-0.00227599
0.120158
0.00144461
-0.0011253
-0.000319305
0.000473056
0.000971552
-0.163657
0.486368
-0.322711
-0.111868
0.105546
-0.0169337
-0.00559953
0.0225332
0.0457636
-0.00438569
-0.000944063
-0.00207961
-0.0252347
0.0205597
0.0207418
-0.00504514
0.16453
-0.0283538
-0.136177
-0.344588
0.494354
0.214344
-0.0990163
-0.174092
0.0237436
0.150348
0.21227
0.1031
0.489141
-0.125824
-0.389558
-0.167255
0.556813
0.57633
-0.0374245
0.50659
-0.307854
-0.198735
0.0950851
0.0191029
-0.114188
0.340891
-0.205307
-0.135584
-0.0277527
0.00784238
0.0199104
-0.000643834
0.00193755
-0.00129371
0.105037
-0.533266
0.428229
-0.367504
0.567905
-0.200402
0.00546984
-0.00467868
-0.000791157
0.0493588
0.0191973
-0.0773723
0.231502
-0.154129
-0.435692
0.32159
0.114102
-0.00177096
-0.00277821
0.440896
0.0749039
0.297042
0.137994
-0.0201597
0.18469
-0.00763914
-0.166453
0.029508
-0.00517272
0.423399
0.175079
-0.399802
-0.322168
0.00826469
0.0208389
-0.496817
0.365912
0.130905
0.00766336
0.00248581
-0.0101492
0.474259
0.124701
0.0118231
-0.0167775
-0.18121
-0.0927822
-0.11703
-0.324781
0.551278
-0.423769
0.483009
-0.0667425
-0.416267
0.474445
0.145067
-0.00251129
0.0101747
0.00955263
-0.18054
0.482794
-0.302254
0.107463
-0.0177028
-0.0897601
-0.0717473
0.610518
-0.29937
0.389533
-0.070245
-0.108704
0.178949
0.134147
-0.0113057
-0.0650478
0.0763535
-0.510452
0.629446
-0.118994
0.497265
0.205879
-0.205949
0.276335
0.000717593
1.3359e-05
-0.000730952
0.541951
-0.360476
-0.0263738
-0.384855
-0.0469757
0.431831
-0.0790618
-0.078842
-0.461719
0.171954
0.289765
-0.489128
-0.133279
-0.000665502
-0.528384
0.361607
-0.112291
0.116103
-0.00381223
0.502445
-0.159022
0.00410219
-0.055546
-0.356133
0.193325
0.0859781
-0.0481012
0.00571705
0.0423842
-0.0231988
0.0380915
-0.0148927
-0.122769
0.218555
-0.0482289
-0.302758
0.0968087
0.126677
-0.00352474
0.348366
-0.0646981
0.0832233
0.245153
-0.386738
0.478355
-0.0916168
-0.55562
0.429214
0.126407
0.467862
-0.346835
-0.0603841
-0.111085
0.0698173
-0.547174
0.00089686
0.00418154
-0.0050784
-0.300348
-0.0482721
-0.18656
0.597213
-0.410653
0.310943
0.039722
-0.350665
0.354821
-0.0747887
0.532415
-0.398412
-0.134002
0.286117
0.122692
-0.355103
0.122475
-0.235919
0.113443
0.00211055
0.00634382
-0.00845438
-0.348515
0.493516
0.527583
-0.422546
-0.168731
-0.205885
-0.00340538
-0.0158335
-0.394126
-0.192335
0.586461
-0.0718735
-0.501716
-0.125625
0.563868
0.130645
-0.00614255
-0.332846
0.383283
-0.050437
-0.0271406
-0.00940752
0.402594
-0.0200779
-0.00767482
0.00120508
0.00635549
-0.00756057
0.303969
0.163331
-0.0576231
0.0119083
0.0911522
-0.496692
0.40554
0.0212057
-0.016098
-0.00510772
0.545035
-0.143194
0.311549
-0.279319
-0.0322299
-0.512452
0.144949
-0.00409633
0.114239
0.0106681
0.0946789
0.0167764
0.0440337
-0.0757359
0.259566
-0.517399
-0.540431
0.0251641
-0.107111
0.469106
-0.361995
0.00293602
-0.00535896
0.531826
-0.440674
-0.248787
0.0584031
0.190384
0.563269
-0.155795
0.0184798
-0.446773
-0.124526
0.571298
-0.136207
-0.341188
0.477394
-0.00581169
0.00555351
-0.482073
0.444671
0.0374025
0.0274861
-0.0487148
-0.433359
0.560457
-0.388597
-0.428767
0.56981
-0.141043
-0.00201866
-1.32403e-05
-0.0100252
-0.121299
0.000154104
-0.00055078
0.17051
-0.0295985
-0.140911
0.000295396
-0.0278941
0.00761699
0.00394221
0.622286
-0.400614
-0.221671
-0.00695412
-0.0038647
-0.483641
0.126202
0.0196821
0.10072
0.280153
0.351214
0.562693
-0.381245
-0.0392136
-0.110327
0.0138616
-0.201442
0.414157
-0.312494
-0.0631065
0.0372285
0.025878
0.106348
0.0641617
0.086815
-0.502863
0.416048
-0.00406735
0.0147225
-0.0106551
0.225671
0.167275
-0.392945
-0.00337083
0.00548138
-0.0714109
0.0887038
-0.0172928
-0.557425
0.40279
0.154634
0.435772
-0.151862
-0.28391
-0.432831
-0.125083
0.169943
0.156106
-0.0872667
-0.068839
0.179572
-0.167089
-0.540966
0.0072906
0.533676
-0.387684
-0.140469
0.528153
0.49993
-0.413115
-0.267635
0.0921113
0.175523
0.0420048
0.00329316
-0.0452979
-0.0344432
-0.119749
0.196631
-0.03249
0.0272944
0.00519564
-0.209574
-0.0767503
0.00324914
0.0676867
-0.452542
-0.000701423
0.00178833
-0.00108691
0.0758373
0.358467
0.331655
0.468953
-0.27211
-0.00298822
0.0194799
0.335593
-0.447347
0.111754
-0.102454
0.0554615
0.0956274
-0.151089
0.530913
-0.0339562
-0.496956
-0.307698
0.381001
0.154612
-0.535613
0.00196412
-0.0251629
-0.0165673
-0.0174761
0.503925
-0.298642
0.248802
0.373484
-0.0303843
0.0397316
0.540422
-0.18529
-0.355132
-0.053572
0.463837
-0.410265
-0.386331
0.462447
-0.0761165
-0.464578
0.139595
0.324983
0.0785073
-0.540568
0.408723
0.153541
-0.562264
0.0191715
-0.0945837
-0.438683
-0.125919
0.198702
-0.00460661
0.29552
0.0528462
0.00218105
0.000110997
-0.300051
0.228669
0.0713822
-0.0116338
-0.100657
0.0387271
0.11201
-0.0522103
-0.239481
0.034345
0.0110043
0.415432
-0.0840783
-0.38734
0.14064
0.2467
-0.0880945
-0.492408
0.371011
0.121398
-0.306408
0.00448066
0.113743
-0.118224
0.346524
0.170281
-0.471807
-0.111723
-0.0522181
0.256237
-0.204019
-0.108766
0.556073
-0.000231983
-0.000539975
-0.391996
-0.0167791
0.408775
0.273636
0.0811847
-0.113336
-0.287458
-0.0919201
0.555268
-0.463347
-0.128522
0.439732
-0.31121
-0.00805061
-0.00339844
0.136302
0.332651
0.230129
-0.107654
0.0773617
0.000493815
-0.0778555
0.392446
0.139969
0.349698
0.160664
-0.510363
-0.0335455
-0.0626695
0.0748161
-0.0121466
0.471015
-0.585992
0.497848
-0.343301
-0.154547
-0.0656844
-0.125864
0.191548
-0.262408
-0.124932
-0.028154
0.0248076
0.275053
-0.388044
0.112991
-0.170635
0.0527778
-0.282675
0.378006
-0.0953312
0.0579436
0.0981621
-0.586437
0.335396
-0.513518
0.178122
-0.155525
-0.385954
0.541479
0.287073
-0.230989
-0.056084
-0.332548
-0.0497693
0.382317
0.351633
-0.487293
0.13566
0.0683472
0.19818
-0.0566359
-0.0948827
0.38001
-0.203803
-0.176207
-0.0723319
-0.0332109
-0.358785
-0.147581
-0.206674
0.0687099
0.137964
0.594517
-0.163855
-0.0717199
0.0758221
-0.413938
0.304192
0.126352
0.263627
-0.389979
-0.0317873
0.0244932
-0.161624
-0.00625491
0.167879
0.220123
-0.58074
0.398403
0.182337
0.324568
-0.258072
0.0793445
-0.518391
0.439046
-0.116455
0.00367569
0.11278
0.0336236
-0.0526901
0.0190664
-0.43021
0.109493
0.320717
-0.496655
0.3626
0.134055
-0.0856758
-0.184642
0.270318
-0.275127
0.111864
0.163263
0.0984167
0.213473
0.0353281
-0.573052
0.0142258
-0.0055601
0.115685
0.416158
-0.531843
-0.00465056
-0.0235035
-0.328291
-0.127193
-0.0971734
-0.0314623
0.128636
-0.0998066
-0.0401809
-0.450312
0.341261
0.109051
-0.266069
0.251582
0.0144872
-0.00613257
-0.00401719
0.0101498
0.000814053
0.000232498
-0.423518
-0.00237656
0.00329485
0.2366
-0.318482
0.0818816
-0.432238
0.280376
-0.00158444
0.000883021
0.435663
0.253336
-0.488076
0.434504
-0.0691756
0.226681
-0.0186632
0.549576
-0.000293936
0.0040557
0.00508404
0.0161216
-0.411517
0.378306
-0.10405
-0.341422
0.445472
-0.387789
0.310332
0.0774571
-0.00876057
-0.00181472
0.0105753
0.216693
-0.144056
-0.557708
0.142821
0.414887
0.111588
0.430497
-0.376988
-0.354373
0.378003
-0.0424102
0.282195
-0.399226
-0.111975
0.350654
-0.0562715
-0.600091
0.458916
0.141175
0.456694
0.323874
-0.214642
-0.0705832
0.0411078
0.0294754
0.561117
-0.141154
-0.419963
-0.0543455
-0.00312502
0.0574705
-0.0763621
0.0184178
0.0579443
-0.166561
0.444448
-0.277886
-0.0457081
0.516723
-0.49522
0.328658
0.421985
0.158367
-0.575674
0.415659
0.160015
-0.143225
-0.000602777
0.143827
-0.000824643
-0.249878
0.164202
-0.406802
0.00321396
-0.00612422
0.00291026
0.16124
0.21877
0.235814
0.305465
-0.0688647
0.414122
-0.555412
0.14129
-0.081223
-0.217245
0.449232
-0.33036
0.494768
-0.156569
-0.0220393
-0.0751341
-0.126809
0.172549
-0.562107
0.176975
0.0566426
-0.233618
-0.00108973
0.00168215
-0.000592412
-0.435957
-0.138553
-0.0597421
0.236731
-0.176989
0.0653066
-0.494843
0.429536
-0.145386
0.0930951
0.00356795
-0.0026711
-0.00515512
-0.281926
-0.105863
0.00975339
0.00688661
-0.394095
-0.00423218
0.0040672
0.000164973
-0.0239995
-0.186384
-0.431385
0.00145253
0.00119375
-0.00264627
-0.476194
0.375386
0.100808
-0.00152203
0.0182984
0.000412173
0.000108119
-0.000520292
-0.258048
0.36723
-0.109182
-0.558446
0.156669
0.401777
-0.00143846
-0.343709
-0.106603
-0.21057
0.1899
0.0206705
-0.00119761
-0.372242
0.37344
-0.604941
0.198463
0.406478
-0.0173923
-0.00153826
-0.280507
-0.469614
-0.0390075
0.508621
-0.267965
0.340167
0.028466
-0.0331165
-0.115333
0.105943
0.00938999
0.032612
-0.00531767
-0.415645
-0.240837
0.656482
-0.308786
0.337357
-0.028571
-0.576779
0.449007
0.127772
0.0971682
-0.355216
-0.317609
0.202274
0.115334
-0.39179
0.576221
-0.0162793
0.0622083
-0.045929
0.184959
-0.272545
0.0875853
0.0565022
0.00430903
-0.142969
0.0760752
-0.292028
-0.112578
-0.00214109
-3.04251e-05
0.00315427
-0.00272329
-0.000430975
0.0091537
0.0770103
-0.086164
0.0989487
-0.516293
0.417345
0.357819
0.140029
-0.539053
-0.0338807
0.572934
-0.0041566
-0.0119548
0.0161114
-0.0279596
0.278731
-0.343904
0.453397
0.0667213
0.15324
-0.219962
-0.0758462
0.00723653
0.0686097
-0.0622974
0.28285
-0.220552
-0.408761
0.291841
0.116919
-0.584245
0.459085
0.12516
0.107372
0.303223
-0.410595
-0.0385542
-0.460533
0.499087
-0.422252
0.521201
-0.333745
-0.409061
0.558928
-0.149868
0.155178
0.289493
0.379746
0.160676
-0.229396
-0.163124
0.39252
-0.37385
0.484584
0.0630866
0.261482
-0.0346235
-0.335849
0.370472
-0.14157
-0.0330948
-0.42153
0.617678
-0.196148
0.0149064
-0.489914
-0.0757464
0.565661
0.0969731
0.0104898
0.37884
0.144836
-0.489423
-0.129461
-0.00472319
4.45077e-05
-0.455066
0.192461
0.422032
-0.614493
-0.0435342
-0.0824345
0.125969
0.0469558
-0.0682521
-0.262219
0.330471
-0.00191663
-0.0621524
0.0939038
-0.438811
0.334761
-0.0366867
-0.473765
0.541924
-0.365164
0.395438
0.426617
-0.290315
0.122796
-0.352192
0.14358
-0.3319
0.18832
-0.190324
-0.260543
0.450867
0.00166488
-0.00404144
-0.00495134
-0.0170436
0.243182
-0.0897579
-0.129778
-0.251505
0.199287
0.112556
-0.0174709
-0.0285784
0.299695
0.205038
-0.504733
-0.00297537
-0.373258
0.0644719
-0.102873
0.560041
-0.14592
0.0490888
0.450841
0.396465
0.163577
-0.00240147
-0.411251
-0.146174
-0.214573
0.0020285
-0.00267234
-0.404238
-0.00323756
-0.174239
-0.317817
-0.0152535
0.0112363
-0.151083
-0.304079
-0.104681
-0.270519
0.00444996
-0.0666925
-0.162255
-0.393365
0.00865416
-0.0638302
-0.00125601
0.00543755
-0.209938
0.2238
0.406106
0.129741
-0.535847
-0.301654
0.409027
-0.526601
-0.407433
0.112769
0.294664
-0.00568688
-0.561373
0.42829
0.133084
-0.010859
-0.379976
0.390835
0.436492
-0.281313
0.450357
-0.407951
-0.0543146
-0.236095
0.27763
0.049593
-0.330369
0.280775
-0.29358
0.223912
0.0696679
0.00306706
0.132891
-0.135958
0.00018019
-0.374392
0.578643
-0.441052
0.556029
-0.114977
-0.252214
0.371977
0.291793
-0.00156881
0.000886441
0.000682373
0.113505
-0.410675
0.29717
0.325274
-0.216286
-0.108988
-0.462602
-0.0196409
0.482243
-0.00886571
0.0403615
0.00540217
-0.318227
-0.241334
-0.590418
0.00161601
0.29243
-0.456087
0.0051503
-0.0855596
-0.0724312
-0.396549
0.46898
0.0238422
-0.00153446
-0.0223077
-0.0016872
0.000512305
-0.46782
0.0039549
0.463865
-0.194819
0.566775
-0.527048
0.163887
0.363161
-0.00365521
0.0182343
-0.0145791
0.467134
-0.517741
-0.018751
0.198323
0.134023
-0.130956
-0.0419982
0.140073
0.339569
-0.0522073
-0.287361
0.00352102
-0.00320062
0.375958
0.10071
-0.476668
0.0831041
-0.00574241
0.00176106
-0.00249365
0.0556154
-0.270167
0.214552
-0.104551
0.160013
0.589757
-0.16849
-0.421267
0.079172
0.371185
-0.064186
0.0552288
0.201009
0.0511454
-0.0114432
-0.0183082
0.0224995
-0.00419131
-0.331917
0.152018
-0.579321
0.469918
0.109403
0.0352494
-0.368095
0.145024
0.0775629
-0.222587
-0.458007
-0.00981363
-0.520273
0.126147
0.282876
0.221049
-0.445754
-0.141692
-0.334503
-0.555778
0.193732
0.362046
-0.28998
-0.0508783
0.340858
0.549353
-0.528886
-0.0204674
-0.300114
0.434073
-0.0106566
-0.103709
0.114365
-0.00814015
-0.0601924
-0.546185
0.158501
0.14539
-0.48821
-0.00683324
-0.120113
0.117837
0.104192
0.1847
-0.288892
0.273091
0.211038
0.316142
0.000588635
0.378558
-0.398407
0.0198485
-0.183166
0.0714675
0.0218606
-0.514831
0.352423
0.162408
-0.0328808
0.0306112
-0.428884
0.300362
0.379696
-0.000991273
0.00522306
-0.00423178
-0.464464
0.001862
-0.465589
-0.118655
0.14792
-0.122094
-0.0258263
-0.543167
0.123302
0.419865
0.00468017
-0.0229884
-0.0293533
0.304513
-0.275159
0.14724
-0.224612
-0.157771
0.217858
-0.504974
0.200772
0.00290373
-0.00218613
0.180423
0.295846
-0.47627
0.306416
-0.419797
0.113381
0.356578
0.00914712
-0.0109618
0.00663058
-0.00149882
-0.00513176
-0.0548752
0.00257225
-0.0363591
0.0337868
-0.00789228
0.0176457
-0.515619
0.147866
0.367753
0.0266428
0.540319
-0.143855
-0.57835
0.22257
-0.155848
0.435175
-0.15298
-0.0617696
-0.0224355
0.0842052
-0.0414945
0.452193
-0.410698
0.404498
-0.415357
0.00876784
0.276599
-0.142557
0.0990227
-0.571784
0.14871
0.0597518
-0.00324961
0.00806273
-0.00170724
-0.330268
0.0402886
-0.183496
-0.393829
0.577326
0.126468
-0.56752
0.0820916
-0.204861
-0.0896759
0.461653
0.535016
-0.161254
-0.373762
0.00185925
-0.0975477
0.0956884
0.000442213
0.00312574
0.534551
-0.125828
-0.110836
0.390821
0.14373
0.431838
-0.0910646
-0.340774
0.593368
-0.467053
-0.126315
-0.600213
0.427584
0.172628
0.0475433
0.135412
-0.182955
0.118838
-0.129494
-0.130573
0.528597
-0.398024
0.363928
-0.204517
-0.159411
0.328503
-0.369998
-0.120587
0.128067
-0.00748073
0.194369
-0.532756
0.338388
0.00380811
-0.0551933
0.239073
-0.183879