/*--------------------------------*- C++ -*----------------------------------*\
| =========                 |                                                 |
| \\      /  F ield         | OpenFOAM: The Open Source CFD Toolbox           |
|  \\    /   O peration     | Version:  v2012                                 |
|   \\  /    A nd           | Website:  www.openfoam.com                      |
|    \\/     M anipulation  |                                                 |
\*---------------------------------------------------------------------------*/
FoamFile
{
    version     2.0;
    format      ascii;
    class       volScalarField;
    location    "200";
    object      epsilon;
}
// * * * * * * * * * * * * * * * * * * * * * * * * * * * * * * * * * * * * * //

dimensions      [0 2 -3 0 0 0 0];


internalField   nonuniform List<scalar> 
13726
(
3.58506e-06
1.71044e-06
0.00531503
0.00566886
2.71131e-06
0.0224942
4.27628e-05
1.8049e-06
2.36219e-06
0.00638633
0.00057238
0.0248617
3.87547e-06
1.871e-06
2.78309e-06
1.67861e-06
2.44026e-06
0.0761942
0.000688096
2.35864e-06
3.02393e-06
2.46646e-06
2.1646e-06
3.29149e-06
3.19237e-06
0.00443294
2.22659e-06
2.21817e-06
1.85832e-06
2.16286e-06
1.79689e-06
2.36452e-06
0.0127928
2.02741e-06
1.8581e-06
3.06695e-06
2.74665e-06
3.13643e-06
2.34961e-06
0.0841863
2.14753e-06
1.78805e-06
1.89719e-06
2.85483e-06
2.02628e-06
2.4194e-06
1.70344e-06
3.4073e-06
2.08388e-06
1.92524e-06
2.04355e-06
3.64712e-06
1.84614e-06
3.64299e-06
1.89868e-06
2.79218e-06
3.16661e-06
2.48085e-06
2.60124e-06
2.59941e-06
2.60758e-06
1.87898e-06
2.18651e-06
3.18023e-06
2.98884e-06
2.17742e-06
3.81642e-06
2.06599e-06
2.0315e-06
2.09341e-06
3.08889e-06
0.00645646
1.93037e-06
2.51639e-06
1.98188e-06
2.05242e-06
2.23469e-06
0.0276481
2.87113e-06
3.0018e-06
0.0307547
0.0113398
1.93209e-06
3.01578e-06
1.8105e-06
0.000329568
2.05579e-06
0.0128298
5.45173e-06
1.74645e-06
2.30768e-06
2.69752e-06
1.82987e-06
2.33921e-06
3.99621e-06
9.33376e-06
2.678e-06
2.16399e-06
5.76459e-06
3.69965e-05
2.18041e-06
0.00690174
1.8088e-06
2.47173e-06
1.79267e-06
1.86813e-06
0.0216164
2.34586e-06
2.02843e-06
1.6737e-06
3.2229e-06
2.03255e-06
3.36486e-06
1.87406e-06
2.36554e-06
2.86544e-06
3.64699e-06
0.00361732
2.18872e-06
6.69411e-05
2.85284e-06
1.96304e-05
2.07493e-06
1.98526e-06
2.76268e-06
2.61454e-06
1.87716e-06
0.00283718
1.93865e-06
0.0289565
3.24309e-06
5.61608e-06
3.16719e-06
1.73239e-06
1.96817e-06
3.24502e-06
3.34362e-06
1.88603e-06
2.52875e-06
1.89099e-06
1.96291e-06
2.90099e-06
6.65119e-06
2.98356e-06
0.000204633
2.08138e-06
2.2109e-06
1.86843e-06
2.91871e-06
1.6813e-06
2.41858e-06
3.397e-06
2.40176e-06
8.04186e-06
2.87299e-06
2.29426e-06
2.44287e-06
1.83557e-06
2.36693e-06
0.00601042
1.74192e-06
2.35978e-06
0.000183802
0.00490382
1.84949e-06
1.845e-06
2.27304e-06
2.48792e-06
2.14267e-06
2.68607e-06
2.87488e-06
2.10925e-06
1.82945e-06
1.89005e-06
1.75625e-06
2.08105e-06
0.0894729
0.0188296
2.22609e-06
0.00286299
2.16579e-06
2.4251e-06
0.00300782
0.0034209
0.00650697
1.91285e-06
0.0188041
1.96767e-06
0.00841417
2.31241e-06
1.9567e-06
1.9447e-06
2.39588e-06
2.72026e-06
0.0196648
2.4617e-06
1.68349e-06
0.00611813
2.05814e-06
1.86636e-06
2.04568e-06
3.21604e-06
2.2262e-06
2.22881e-06
2.68127e-06
2.2324e-06
4.2873e-06
2.66527e-05
2.87913e-06
0.0183846
2.60419e-06
0.00498263
1.85517e-06
1.74849e-06
3.2362e-06
0.000220189
2.14257e-06
1.96214e-06
9.1061e-06
2.50834e-05
1.89386e-06
2.89972e-06
2.33391e-06
2.01098e-06
0.00880896
2.08723e-06
1.85249e-06
0.000130964
2.50538e-06
2.49371e-06
0.00273946
0.00724994
0.00934006
0.00775359
2.47869e-06
0.0201167
4.03863e-06
2.39524e-06
2.31975e-06
0.0148359
4.11239e-06
1.80458e-06
4.09909e-06
2.93851e-06
0.00824457
3.58275e-06
2.12773e-06
2.82583e-06
2.06848e-06
2.0159e-06
2.46477e-06
0.00607872
3.03011e-06
1.75134e-06
3.06875e-06
0.00392289
2.68912e-06
1.94599e-06
0.00551657
2.89563e-06
0.00294123
2.77607e-06
2.32323e-06
1.97331e-06
3.1403e-06
0.00620187
1.77187e-06
1.82431e-06
2.36853e-06
2.77482e-06
2.33397e-06
4.14694e-06
2.7828e-06
4.39218e-06
2.17918e-06
1.85313e-06
3.04964e-06
1.9028e-06
3.52095e-06
2.13203e-06
2.77904e-06
1.84338e-06
1.97975e-06
2.78102e-06
2.44398e-06
2.23585e-06
2.39156e-06
1.98074e-06
1.61576e-05
0.0667292
2.55718e-06
1.91448e-06
0.0353197
1.84628e-06
1.85621e-06
0.00560192
3.76982e-06
4.25054e-05
1.89387e-06
0.00623832
1.79044e-06
0.0119113
1.83801e-06
0.0104391
2.30146e-06
1.81981e-06
2.89334e-06
3.39424e-06
2.24029e-06
1.6626e-06
2.44106e-06
2.12402e-06
0.0200231
1.94092e-06
0.0109049
0.00269486
1.71982e-06
0.000326891
3.95351e-06
0.00761071
2.87331e-06
2.23623e-06
0.00909478
1.98884e-06
2.43349e-06
2.30143e-06
0.00265396
0.0257656
0.0124639
2.52854e-06
2.32235e-06
1.82869e-06
0.00700943
2.44033e-06
2.30343e-06
2.04449e-06
1.95713e-06
2.12121e-06
2.46815e-06
0.0067096
2.53899e-06
2.84344e-06
9.24295e-06
6.96491e-06
1.79689e-06
0.0605693
2.47016e-06
0.00609044
1.97623e-06
2.50192e-06
2.59172e-06
0.0029208
1.85606e-06
3.03977e-06
2.22194e-06
1.85014e-06
2.51963e-06
1.69959e-05
0.00790253
2.27979e-06
1.86047e-06
1.81917e-06
0.000378115
3.61968e-06
3.26727e-06
2.69167e-06
0.000795621
2.1088e-06
2.19365e-06
2.60131e-05
2.3514e-06
2.06062e-06
1.78177e-06
1.79247e-06
2.54882e-06
0.00376663
1.69345e-06
0.00236602
2.06207e-06
0.00810426
2.44484e-06
0.00333542
1.86364e-06
2.45563e-06
2.48691e-06
1.88077e-06
0.00654441
0.0190641
2.00336e-06
3.32976e-06
2.56434e-06
2.5145e-06
3.37179e-06
1.76685e-06
1.8446e-06
2.39969e-06
0.0216528
0.000234828
1.91796e-06
1.71205e-06
3.47092e-06
1.67565e-06
1.84401e-06
2.02775e-06
1.89492e-06
0.000281925
0.00485759
2.24069e-06
1.92263e-06
2.00719e-06
0.0123799
1.71596e-06
3.34895e-06
2.1059e-06
2.47498e-06
3.20202e-06
3.00308e-05
2.38777e-06
1.85739e-06
2.43963e-06
2.35443e-06
1.80164e-06
1.66369e-06
4.05508e-06
2.4668e-06
2.40448e-06
2.11841e-06
2.34238e-06
0.0221803
1.86766e-06
2.33269e-06
1.86064e-06
1.78022e-06
2.23881e-06
0.0051431
4.09823e-06
2.56149e-06
3.55996e-06
0.00612026
0.00823701
2.39499e-06
2.0791e-06
2.59221e-06
0.00142359
2.19804e-06
1.9024e-06
3.64337e-06
0.0145838
1.72286e-06
1.57227e-05
2.10595e-06
0.0010772
0.0320187
2.36353e-06
2.46087e-06
3.76243e-06
2.05061e-06
1.99041e-06
1.71475e-06
1.90867e-06
2.63202e-06
2.20673e-06
0.00865814
2.33551e-06
3.75197e-06
0.0109167
3.06545e-06
3.15001e-06
2.72602e-06
0.00757857
3.01891e-06
1.80217e-06
4.11516e-06
0.00637085
3.01306e-06
2.57913e-06
3.53222e-06
2.04381e-06
1.85092e-06
1.89583e-06
1.82322e-06
2.72979e-06
1.97746e-06
0.0230082
2.07566e-06
2.04273e-06
1.70025e-06
0.00959644
7.62077e-06
2.531e-05
0.0043136
3.58763e-06
2.10768e-06
0.0372468
2.589e-06
2.20591e-06
1.83129e-06
3.11529e-06
1.85154e-06
2.08593e-06
0.000126862
2.91377e-06
2.18924e-06
1.90659e-06
2.63817e-06
0.00188988
2.19277e-06
1.74664e-06
1.82657e-06
0.00582286
1.92004e-06
1.70284e-06
2.04369e-06
3.3126e-06
2.75821e-06
2.02139e-06
1.9669e-06
2.4708e-06
0.0116657
2.79515e-06
1.93827e-06
1.83646e-06
0.00361109
2.79029e-06
2.57513e-06
1.06588e-05
2.70662e-06
2.39258e-06
5.92712e-06
2.35278e-06
1.38526e-05
2.07066e-06
1.84981e-06
0.00726818
0.00829712
0.0227182
0.0258479
4.11821e-06
1.78668e-06
3.33634e-06
2.97235e-06
0.000624307
0.022934
1.83418e-06
4.17257e-06
2.15822e-06
2.64446e-06
1.72908e-06
2.43167e-06
0.00214538
2.10258e-06
0.000242207
1.90837e-06
1.99085e-06
2.54781e-06
1.72084e-06
2.18152e-06
0.00628389
3.43329e-06
2.54574e-06
1.64558e-06
0.0195883
2.0989e-06
3.28034e-06
2.3181e-06
0.0283645
2.0437e-06
1.86598e-06
0.00120072
0.0119113
2.13622e-06
7.90338e-06
2.1891e-06
1.79743e-06
1.99137e-06
2.50594e-06
0.00282684
2.66691e-06
1.88545e-06
3.45066e-06
1.85812e-06
2.53425e-06
0.00293312
1.70522e-06
1.74028e-06
2.63382e-06
3.61239e-06
1.98645e-06
0.015305
2.51062e-06
0.0779504
2.00764e-06
1.77048e-06
0.000420624
2.01233e-06
2.32963e-06
2.28245e-06
2.20966e-06
0.00608789
3.67154e-06
0.00244967
3.69817e-06
2.28866e-06
1.64028e-06
0.00780323
0.0811441
2.12605e-06
2.78101e-06
6.42779e-05
4.14999e-06
2.04563e-06
2.00556e-06
2.9574e-06
2.54769e-06
4.04646e-06
1.88017e-06
4.00298e-06
1.76178e-06
2.73868e-06
2.28306e-06
2.68685e-06
1.86428e-06
3.25206e-06
2.99073e-06
0.0238846
0.0747556
1.8353e-06
2.88973e-06
1.82181e-06
1.78788e-06
1.82403e-06
2.03604e-06
0.028455
2.14303e-06
0.00984554
7.58934e-06
2.53651e-06
1.86983e-06
2.47905e-06
0.0126211
4.21525e-06
2.53796e-06
4.03549e-06
2.39733e-06
2.71183e-06
2.8197e-06
1.84597e-06
2.23009e-06
1.2588e-05
3.67452e-06
2.63363e-06
2.67119e-06
4.1799e-05
2.19793e-06
0.0166413
0.000865818
3.62911e-06
9.61893e-05
0.00756653
1.77585e-06
1.79211e-06
2.11655e-06
2.24146e-06
1.84347e-06
2.29224e-06
0.00292316
0.0248681
1.82863e-06
3.22593e-06
1.78735e-06
0.00226741
3.07091e-06
0.00428285
2.11917e-06
1.16466e-05
2.97168e-06
2.56448e-06
1.68056e-06
2.74517e-06
1.56982e-05
1.73256e-06
2.11024e-06
2.16714e-06
3.42423e-06
3.10735e-06
2.65127e-06
3.38695e-06
0.0186633
0.0185062
2.08069e-06
2.85108e-06
2.67814e-06
0.0318056
2.35984e-06
1.76625e-06
3.38295e-06
1.87041e-06
2.29665e-06
2.41063e-06
2.24406e-06
0.00491336
1.53292e-05
3.29437e-06
2.35432e-06
2.29483e-06
1.91606e-06
1.95327e-06
0.00284197
2.32266e-06
2.65956e-06
0.00774637
3.12499e-06
3.40641e-06
1.77188e-06
0.00509088
4.09224e-06
9.57502e-06
2.0502e-06
1.81357e-06
1.84692e-06
2.86791e-06
4.94097e-05
0.0309539
2.06053e-06
1.68836e-06
3.30492e-06
1.77719e-06
2.28831e-06
2.19895e-06
2.09391e-06
1.78997e-05
2.45844e-06
2.47617e-06
1.77884e-06
0.039613
0.000141183
2.28087e-06
2.22019e-06
2.83731e-06
1.88755e-06
0.00880642
1.93428e-06
1.93819e-06
1.80087e-06
0.039382
2.10204e-05
2.573e-06
2.45003e-06
2.99683e-06
0.00294159
2.41799e-06
4.00419e-06
2.41347e-06
1.88606e-06
2.50177e-06
0.00774787
1.93939e-06
4.27418e-06
1.79148e-06
2.09597e-06
2.09774e-06
2.55105e-06
0.00169175
1.65127e-06
1.79021e-06
1.85677e-06
3.08514e-06
2.55791e-06
0.00339895
1.79185e-06
6.60868e-06
1.83949e-06
2.37669e-06
3.4235e-06
2.69473e-06
2.27555e-06
2.04752e-06
0.0628928
1.95595e-06
5.63885e-06
1.88254e-06
2.12614e-06
2.00528e-06
2.52235e-06
0.00301999
2.30118e-06
1.80879e-06
2.70075e-06
1.87157e-06
0.000438092
0.00982389
3.46303e-06
2.54849e-06
0.0183883
2.0424e-06
2.40653e-06
2.2298e-06
1.33408e-05
1.89739e-06
4.15439e-06
1.88491e-06
4.45883e-05
2.86684e-06
4.10661e-06
2.38804e-06
2.19717e-06
3.02818e-06
1.16077e-05
3.99309e-06
4.03996e-06
2.18867e-06
3.10976e-06
2.3539e-06
0.00790069
1.86261e-06
2.55121e-06
1.83665e-06
1.85478e-06
2.87443e-06
3.48768e-06
3.19107e-06
2.53697e-06
1.71826e-05
4.14975e-06
2.34203e-06
2.25802e-06
3.39445e-06
2.47236e-06
1.83717e-06
0.0872348
2.6466e-06
2.11179e-06
3.11629e-06
1.67619e-06
2.77892e-06
4.12591e-06
2.85161e-06
2.06083e-06
2.1152e-06
2.01281e-06
2.27173e-06
0.0220884
2.08725e-06
5.07935e-06
1.8478e-06
2.00628e-06
2.24408e-06
0.00082959
2.22512e-06
3.06619e-06
2.21401e-06
0.00225762
0.0028144
2.76828e-06
3.59648e-06
2.2351e-06
2.57669e-06
2.66115e-06
0.0104491
0.00757405
2.43947e-06
2.80326e-06
1.77535e-06
2.87254e-06
1.86685e-06
1.66586e-06
1.76843e-06
0.00805784
2.1177e-06
2.25034e-06
3.08676e-06
2.17713e-06
0.006505
3.22301e-06
1.67726e-05
1.87734e-06
2.64765e-06
1.72757e-06
2.49671e-06
4.10889e-06
2.27694e-06
1.8684e-06
2.34633e-06
0.00305161
0.0104752
2.39736e-06
2.08368e-06
2.35418e-06
2.39872e-06
1.09641e-05
1.94564e-06
0.0189397
2.1081e-06
2.68613e-06
2.2972e-06
1.85529e-06
2.71097e-06
1.66564e-06
2.14565e-06
2.55542e-06
0.0196045
0.00704165
3.41506e-06
1.86703e-06
1.96342e-06
2.36314e-06
2.09717e-06
1.84486e-06
2.49622e-06
0.0085712
3.09791e-06
4.27314e-06
1.74737e-06
2.29928e-06
1.63294e-06
0.00932991
0.00657251
2.29473e-06
2.16901e-06
1.65918e-06
2.16831e-06
3.11551e-06
0.00615619
1.67737e-06
4.97085e-06
2.67772e-06
4.16437e-06
1.88996e-06
1.93194e-06
2.31374e-06
3.03771e-06
3.51487e-06
0.006073
1.84284e-06
1.87259e-06
4.21171e-06
1.81676e-06
3.14232e-06
1.95037e-06
0.0099802
4.10416e-06
1.81636e-06
1.78446e-06
0.0107654
2.97651e-06
0.0035042
0.005613
2.16125e-06
2.39454e-06
2.39983e-06
1.98674e-06
3.19414e-06
2.25997e-06
2.34961e-06
2.10042e-06
2.08892e-06
2.26297e-06
2.60576e-06
1.7254e-06
2.03848e-06
2.66044e-06
3.94131e-06
2.00168e-06
2.32908e-06
2.74068e-06
1.70976e-06
0.0870788
1.86629e-06
2.40108e-06
2.35234e-06
1.80826e-06
2.39493e-06
0.00332793
4.04364e-06
0.00397457
3.06038e-06
3.27053e-06
0.00331569
1.64189e-06
2.36854e-06
2.54695e-06
2.59582e-06
3.10071e-06
1.72393e-06
2.36591e-06
2.12576e-06
4.11249e-06
2.53732e-06
2.37453e-06
1.64889e-06
1.91313e-06
3.90206e-06
1.96565e-06
0.0065123
2.44256e-05
2.30397e-06
2.57292e-06
2.86775e-06
2.21181e-06
2.08319e-06
0.0169025
0.00782266
0.00067118
2.02586e-06
0.00109748
2.01951e-06
2.45197e-06
1.11603e-05
2.12258e-06
2.4273e-06
1.70187e-06
2.43053e-06
0.00487917
1.6751e-06
1.82936e-06
2.28845e-06
2.10128e-06
2.12005e-06
2.09041e-06
0.00505238
0.0855864
0.0040023
3.63576e-06
1.83525e-06
0.000151288
0.0315395
2.52144e-06
0.0037933
2.33547e-06
3.36098e-05
2.35258e-06
2.45058e-06
2.74826e-06
0.00325007
1.81521e-06
2.24165e-06
0.00333271
2.55244e-06
0.00447982
2.58076e-06
1.77498e-06
8.44249e-06
0.00194451
2.17422e-06
2.75239e-06
2.06055e-06
2.28078e-06
3.04284e-06
1.86364e-06
2.09936e-06
1.83641e-06
2.34619e-06
2.48238e-06
2.45763e-06
1.87616e-06
1.94219e-05
2.84522e-06
0.0240204
3.94387e-06
2.14127e-06
2.09219e-06
1.84786e-06
1.78173e-06
2.91259e-06
1.65598e-06
0.00770853
2.16304e-06
1.94483e-06
4.08926e-06
3.61999e-05
7.96329e-06
2.31427e-06
1.75746e-06
2.91226e-05
0.0378816
2.71655e-06
0.00628644
0.0167114
0.000965573
2.24291e-06
2.61381e-06
0.0064497
0.00176377
2.42569e-06
2.68165e-06
2.61771e-06
2.05046e-06
1.81369e-06
2.10209e-06
1.73121e-06
2.20853e-06
0.00141971
1.65382e-06
3.05158e-06
2.589e-06
1.74975e-06
2.22431e-06
4.0506e-06
2.11572e-06
2.17595e-06
2.04776e-06
2.10748e-06
1.82428e-06
4.14743e-06
2.57621e-06
1.98623e-06
0.00595313
1.89306e-06
0.00388445
0.00370228
2.03747e-06
3.0285e-06
2.40342e-06
2.2514e-06
1.91197e-06
1.78141e-06
2.87053e-06
0.000157549
2.18445e-06
1.9237e-06
2.22198e-06
8.49251e-06
2.26967e-06
1.86453e-06
1.88329e-06
1.88203e-06
1.79666e-06
3.11966e-06
2.54155e-06
2.4386e-06
0.0087533
1.85177e-06
2.73753e-06
1.83482e-06
0.0474933
2.59012e-06
3.18952e-06
2.4815e-06
0.00221895
2.11067e-06
6.38283e-06
1.83548e-06
2.77775e-06
2.5149e-05
6.33018e-05
0.020173
0.0117181
2.17173e-06
2.25488e-06
3.07742e-06
2.45605e-06
3.28496e-06
1.85504e-06
2.54184e-06
1.76062e-06
2.85065e-06
1.89976e-06
0.00277969
0.0169268
2.31623e-06
1.30263e-05
1.83124e-06
2.23078e-06
2.923e-06
2.19738e-06
2.10361e-06
0.00304798
0.0205202
2.61676e-06
2.44969e-06
0.00109182
2.58257e-06
2.28975e-06
2.07127e-06
2.17823e-06
2.73329e-06
1.80975e-06
3.58501e-06
3.26302e-06
2.66974e-06
2.8173e-06
2.4545e-05
2.00101e-06
0.0213964
0.00200354
3.9967e-06
2.10118e-06
1.82576e-05
1.6497e-05
2.29265e-06
2.28135e-06
7.04529e-06
0.00727143
2.8513e-06
3.80863e-06
3.36377e-06
2.04473e-06
2.88174e-06
2.08546e-06
4.11853e-06
1.68153e-06
6.77757e-06
1.91258e-06
0.010013
2.14117e-06
4.26279e-06
0.00357695
1.99849e-06
0.000162745
0.00265997
0.00370854
4.62605e-06
2.45381e-06
1.97572e-06
2.12525e-06
3.1644e-06
3.56115e-06
0.00486668
2.13496e-06
1.82601e-06
2.35649e-06
3.48201e-06
1.75711e-06
0.0158365
2.85526e-06
2.38165e-06
3.2143e-06
1.82588e-06
2.13073e-06
2.35442e-06
2.70811e-06
1.87019e-06
1.76492e-06
0.00383746
0.0327759
1.66934e-06
2.47377e-06
2.76611e-06
2.31816e-06
3.82923e-06
2.89337e-06
2.30733e-06
2.92829e-06
1.86012e-06
3.5508e-06
0.000864948
1.68381e-06
2.59133e-06
5.78052e-06
1.98379e-06
3.01997e-06
1.96266e-06
3.5826e-06
2.60501e-06
3.61322e-06
1.91448e-06
0.00975267
1.83262e-06
3.40178e-06
0.00628268
2.32894e-06
0.013404
3.33201e-06
3.9933e-06
0.00514646
3.06393e-06
0.0166825
3.73095e-06
3.65593e-06
1.87289e-06
3.22099e-06
0.00558276
1.89515e-06
2.94122e-06
2.15271e-06
3.72219e-06
2.64547e-06
0.0175607
1.94832e-06
1.8924e-06
1.90693e-06
2.18936e-06
2.56754e-06
2.14699e-06
2.25071e-06
1.80212e-06
0.0106763
0.00911718
0.00269648
2.87727e-05
2.33462e-06
9.74753e-06
6.47639e-06
2.73082e-06
2.0768e-06
2.44679e-06
2.32836e-06
8.98156e-06
0.0148051
0.00359669
2.7093e-06
2.45478e-06
3.29557e-05
4.83791e-05
2.05314e-06
1.78701e-06
2.15235e-06
2.12328e-06
2.40429e-06
1.68376e-06
3.18997e-06
0.00280608
2.04913e-06
2.56172e-06
2.62032e-06
2.52539e-06
2.48136e-06
1.81545e-06
1.00125e-05
1.79896e-06
2.32144e-06
2.43134e-06
2.31646e-06
1.71391e-06
9.57426e-06
2.07648e-06
1.94645e-06
3.76029e-06
2.97369e-06
2.15007e-06
1.74032e-06
3.08994e-06
0.00022854
0.0472918
2.16028e-06
2.17422e-06
1.86595e-06
0.00291469
2.07273e-06
2.4074e-06
1.73703e-06
2.42524e-06
2.48676e-06
0.000125228
2.1086e-06
2.31411e-06
2.31579e-06
3.63308e-06
2.38754e-06
2.25005e-06
2.4547e-06
2.92499e-06
1.94286e-06
0.0305387
0.0162579
0.000156699
1.86154e-06
0.0131048
1.91655e-06
0.0176758
3.14552e-06
2.82885e-06
0.0541384
0.00656381
3.4521e-06
2.06744e-06
3.0717e-06
1.98334e-06
2.27754e-06
2.17436e-06
1.85831e-06
0.0111056
2.22202e-06
0.0298642
0.00200791
1.92108e-06
4.25758e-06
1.82403e-06
2.09535e-06
1.73363e-06
1.69851e-06
0.0114272
2.4158e-06
3.07792e-06
0.00469966
3.67915e-06
9.47509e-06
2.65437e-06
0.00737377
1.8752e-06
1.78201e-06
2.04813e-06
1.80067e-06
2.07431e-06
0.00780378
2.38108e-06
9.18329e-05
5.17937e-06
2.32475e-06
1.76602e-06
2.48432e-06
0.0118901
2.12443e-06
0.0154044
2.07105e-06
3.66512e-06
2.54372e-06
1.74737e-06
4.21667e-06
2.31217e-06
2.39622e-06
1.95877e-06
2.09765e-06
2.02418e-06
2.30231e-06
0.0027907
2.71628e-06
2.54136e-06
4.64832e-06
3.52763e-06
0.00231767
2.18838e-06
0.0201372
0.00109033
2.04903e-06
1.02394e-05
4.7504e-06
2.69621e-06
2.20506e-06
0.0175513
3.31501e-06
6.1738e-06
0.0265853
2.14825e-06
1.74463e-06
1.86653e-06
0.00696774
1.02973e-05
3.5344e-06
3.42235e-06
2.00341e-06
4.62359e-06
3.11597e-06
1.87866e-06
0.0135741
3.87169e-06
0.0109219
0.00280186
0.0160247
2.13951e-06
0.00236674
2.01112e-06
1.99597e-06
0.00647576
2.55045e-06
0.00880569
2.05594e-06
0.0135707
0.0510659
2.30959e-06
1.28985e-05
2.44804e-06
0.00824231
3.07703e-06
0.00597638
2.46908e-06
0.00999674
2.32241e-06
0.00717606
0.000683643
2.0855e-06
3.62342e-06
0.00276914
1.77603e-06
2.8536e-06
0.00612332
1.69142e-06
2.32447e-06
3.04017e-06
0.0017932
2.53035e-06
2.46416e-06
1.83263e-06
0.00998233
1.65906e-06
1.92366e-06
0.0337532
1.70444e-06
2.86736e-06
2.38166e-06
2.13398e-06
2.30012e-06
3.03368e-06
2.75573e-06
2.49389e-06
2.62892e-06
4.61629e-06
2.3867e-06
1.89106e-06
2.29748e-06
2.08518e-06
1.8132e-06
2.43014e-06
1.87972e-06
0.0158735
2.30119e-06
3.23299e-06
1.77088e-06
0.0104497
1.80411e-06
2.19451e-06
1.86674e-06
2.23884e-06
1.78106e-06
1.67141e-06
2.15227e-06
0.0242531
3.81845e-05
2.68152e-06
2.89476e-06
2.1256e-06
2.40596e-06
4.41622e-05
0.00625001
2.36534e-06
2.70074e-06
3.7128e-06
0.0110577
3.66707e-06
1.69389e-06
5.13285e-06
2.71991e-05
2.96892e-06
0.00783569
2.26557e-06
0.00664682
0.00869811
4.64427e-06
2.39091e-06
0.00730107
1.69309e-06
1.74699e-06
3.08427e-06
1.77853e-06
0.0173297
3.33061e-06
3.19903e-06
2.06652e-06
2.52136e-06
2.50548e-06
2.12937e-06
0.00658503
5.63871e-06
1.92266e-06
1.71591e-06
3.44538e-06
2.29721e-06
3.09226e-06
2.08694e-06
2.13123e-06
2.68605e-06
1.86114e-06
0.0151501
0.0145454
2.19815e-06
1.7669e-06
2.70083e-06
1.99971e-06
0.00264017
2.32469e-06
2.09419e-06
0.00384576
0.000266943
2.04657e-06
0.000564689
1.05538e-05
2.6818e-06
0.000316722
2.03977e-06
0.00530881
1.93319e-06
1.74369e-06
0.00946707
2.70674e-06
1.73837e-06
0.00118132
0.0026073
0.0382004
1.95482e-06
2.31334e-06
0.0083336
2.39024e-06
4.25372e-06
2.80565e-06
4.193e-06
0.030958
0.00730035
0.00704687
2.49383e-06
0.00486799
0.00700661
6.23774e-06
2.20718e-06
2.10703e-06
2.45695e-06
2.51061e-06
0.00478825
0.0037653
1.26147e-05
1.69969e-06
2.72897e-06
1.87163e-06
2.34394e-06
0.00604851
1.97904e-06
0.00665909
0.0181187
1.74154e-06
2.3269e-06
0.00528637
2.51969e-06
1.86144e-05
2.53854e-06
2.66401e-06
7.7654e-06
2.72584e-06
1.70483e-06
3.09176e-06
3.12088e-06
2.38261e-06
0.0387248
4.25077e-06
1.86085e-06
2.57942e-06
1.95765e-06
1.98996e-06
2.33188e-06
2.93809e-06
2.60432e-06
2.45038e-06
0.00760178
0.055579
3.24901e-06
3.54629e-06
0.00434317
1.68886e-06
2.38489e-06
0.00819271
2.44994e-06
0.0101322
2.83567e-06
4.1424e-06
0.0410417
1.8875e-06
4.21506e-06
4.03674e-06
0.0058264
1.76007e-06
2.3116e-06
0.0050346
2.21512e-06
0.00886495
3.3491e-06
5.53752e-06
2.12431e-06
2.33759e-06
2.67669e-06
1.90975e-06
4.16395e-06
2.25826e-06
2.90973e-06
2.27289e-06
1.69419e-06
0.0278122
1.85291e-06
1.77222e-06
0.00311267
0.00061709
0.00688023
2.57528e-06
1.87561e-06
2.30567e-06
2.03296e-06
1.49403e-05
0.000534384
2.34269e-06
6.87457e-06
0.0172424
0.0109558
2.67079e-06
1.64667e-06
2.41221e-06
0.0055837
0.00446352
1.99681e-06
1.65832e-06
1.9125e-06
1.91199e-06
2.09776e-06
2.80476e-06
2.32803e-06
1.94005e-06
4.10041e-06
2.52894e-06
2.61891e-06
2.46583e-06
3.40005e-06
1.90692e-06
2.53624e-06
0.00261347
1.91435e-06
3.08007e-06
1.85442e-05
0.00513162
7.50033e-06
1.83881e-06
1.91893e-06
4.88515e-06
0.00209921
3.48428e-06
2.46974e-06
1.91694e-06
1.749e-06
0.00299499
0.00859852
0.00386162
2.36519e-06
0.0160602
2.69898e-06
2.0335e-06
2.55454e-06
2.28846e-06
1.83599e-06
0.0247681
1.90553e-06
2.25647e-06
2.27574e-06
4.29713e-06
2.08489e-06
1.7827e-06
2.27232e-06
2.16531e-06
2.69423e-06
3.17613e-06
4.22702e-06
0.0081739
2.82755e-06
0.00213758
3.14699e-06
2.06563e-06
1.75058e-06
2.20474e-06
3.11543e-06
1.58792e-05
3.20135e-06
0.00607335
0.00561479
1.69407e-06
1.67924e-06
1.70223e-06
1.972e-06
5.10996e-06
0.0110966
2.6361e-06
2.48714e-06
1.85012e-06
1.79108e-06
0.00517822
0.00222704
2.21149e-06
2.71006e-06
2.17972e-06
3.28206e-06
0.110765
2.56517e-06
0.00575143
0.00531225
1.76667e-06
1.73791e-06
2.49332e-06
1.79043e-06
0.00528235
1.07259e-05
4.2277e-06
2.6537e-06
0.00718715
3.19634e-06
2.6237e-06
0.0116706
0.00550218
0.000719652
3.29252e-06
2.3967e-06
0.039351
0.00493232
0.00750893
0.00326526
2.89367e-06
1.93473e-06
2.10078e-06
1.88402e-06
5.95704e-06
1.66254e-06
2.46094e-06
2.4351e-06
2.66465e-06
0.055017
3.04655e-06
1.95095e-06
0.00431489
0.00441663
0.0047014
3.19655e-06
3.18734e-06
8.51229e-06
0.0105969
4.16168e-06
0.00260537
0.0312677
0.00762472
1.89218e-06
4.13707e-06
2.48599e-06
0.00936511
2.68449e-06
0.00586965
1.72306e-06
1.78675e-06
0.00329408
2.37228e-06
2.44448e-06
0.00452169
2.16847e-06
4.03075e-06
3.61054e-06
2.39348e-06
5.79959e-06
1.8697e-06
3.23352e-06
6.55732e-06
1.85307e-06
2.16931e-06
2.23625e-06
0.00280936
2.51009e-06
1.93862e-06
2.46145e-06
0.00578241
1.19756e-05
0.00834701
0.0410075
3.7982e-06
0.00296445
2.54199e-06
2.0277e-06
2.47175e-06
3.05198e-06
0.00655895
4.15812e-06
2.463e-06
1.94781e-06
0.00435184
2.12329e-06
0.00584927
1.95107e-06
2.39411e-06
2.45892e-06
2.92312e-06
1.86838e-06
2.09079e-06
6.67192e-06
0.0244778
0.0113616
1.92145e-06
0.00526207
2.05538e-06
0.00720459
1.74843e-06
1.79646e-06
2.59474e-06
0.00727145
1.95895e-06
2.11831e-06
3.19511e-06
3.37092e-06
3.28234e-06
1.94355e-06
1.97649e-06
0.0026661
3.93039e-06
0.00295319
2.08872e-06
1.92386e-06
0.00304268
2.32353e-06
0.0322698
1.99885e-06
1.92552e-06
6.73483e-06
0.00169352
1.75522e-06
0.00360159
0.00761094
0.0100376
2.26422e-06
1.83444e-06
2.74103e-06
2.09599e-06
2.75637e-06
2.51547e-06
2.20386e-06
0.00285218
0.00690704
2.34499e-06
9.31211e-05
4.16253e-06
2.92629e-06
2.95703e-06
2.09181e-06
1.8992e-06
2.17325e-06
3.41949e-06
2.59652e-06
0.0202799
0.0106304
1.8589e-06
2.14442e-06
1.93509e-06
2.28377e-06
0.00382048
0.0158124
2.23841e-06
0.0133265
0.00659226
3.00883e-06
2.92211e-06
1.65989e-06
1.76637e-06
2.0187e-06
1.91983e-06
1.86106e-06
2.79937e-06
3.21972e-06
3.50667e-06
2.23916e-06
0.00307263
2.20339e-06
0.00695528
0.00223064
1.90116e-06
2.05087e-06
0.00750758
2.1608e-06
1.65471e-06
1.84098e-06
2.19867e-06
2.55781e-06
3.26343e-06
1.85892e-06
1.99153e-06
0.0078323
2.98778e-06
0.00146602
2.30115e-06
3.1605e-06
0.00151865
2.13951e-06
0.00337045
2.33339e-06
2.52525e-06
1.68548e-06
2.55924e-06
0.00317705
2.11429e-06
2.15365e-06
2.38124e-06
1.83971e-06
0.0295434
2.53962e-06
1.75954e-06
2.19286e-06
2.14205e-06
0.00297913
1.82152e-06
2.03094e-06
2.17379e-06
2.31829e-06
2.49293e-06
0.0220458
0.00469061
2.35981e-06
1.98057e-06
3.14731e-06
1.91211e-06
1.95192e-06
2.4435e-06
0.000140072
2.19975e-06
0.00783766
1.7503e-06
1.77015e-06
1.77032e-06
2.19141e-06
3.41708e-06
2.39745e-06
2.07042e-06
5.07132e-05
3.35787e-06
0.048037
2.11405e-06
3.27545e-06
2.39292e-06
0.000380543
2.0607e-06
2.38665e-06
2.12527e-06
1.7564e-06
2.86515e-06
1.9337e-06
2.10693e-06
3.7057e-06
0.00223087
3.35029e-06
0.0101664
0.00165988
1.94272e-06
2.16872e-06
4.2233e-06
0.00319669
1.8612e-06
2.77666e-06
2.33155e-06
1.6788e-05
0.00246553
2.16671e-06
1.90614e-06
0.0141559
0.00418205
2.98355e-06
0.00914044
0.00304359
0.000164618
2.70416e-06
2.40629e-06
3.45243e-06
6.60314e-06
2.00862e-06
0.0438272
1.94394e-06
1.98883e-06
1.88172e-06
0.00485197
0.00245666
1.94943e-06
0.013984
0.00322442
2.38849e-06
3.22864e-06
2.02282e-06
0.00015848
2.46564e-06
0.00583205
2.23777e-06
4.15947e-06
0.00289451
1.85394e-06
2.27704e-06
0.0068119
1.89713e-06
2.37661e-06
1.85885e-05
2.41419e-06
1.99499e-06
2.36368e-06
0.0156353
1.98337e-06
3.495e-06
1.81838e-06
0.00599618
1.76686e-06
3.36941e-06
2.55149e-06
0.00685852
3.22969e-06
2.18344e-06
2.01062e-06
2.31863e-06
1.89506e-06
2.04739e-06
2.4666e-06
0.0113669
2.22725e-06
2.12743e-06
1.87108e-06
1.22598e-05
2.42041e-06
0.0102012
2.2572e-06
0.00230858
2.36504e-06
8.82574e-06
0.0065161
2.64585e-06
1.85393e-06
3.3171e-06
0.00786506
0.111294
1.9383e-06
3.2906e-06
3.19955e-06
0.00620637
2.19849e-06
7.7557e-05
2.33734e-06
3.5538e-06
2.02291e-06
2.89359e-06
2.46145e-06
2.35853e-06
2.1217e-06
2.28781e-06
2.1422e-06
0.00422903
1.97907e-06
2.50881e-06
1.99611e-06
1.73789e-06
1.94236e-05
2.94942e-06
2.02451e-06
2.53884e-06
1.94392e-06
1.92901e-06
2.53347e-06
1.98244e-06
1.70165e-06
0.0177403
0.00288128
0.0121401
1.72637e-06
1.95226e-06
1.98325e-06
1.88241e-06
2.40382e-06
0.00256583
1.8863e-06
4.83186e-06
1.8325e-06
1.85752e-06
3.64256e-06
1.77992e-06
1.74826e-06
1.8947e-06
1.76568e-06
2.07798e-06
0.00393663
2.08027e-06
4.1779e-06
1.95927e-06
4.11076e-06
4.14649e-06
1.92061e-06
2.60224e-06
4.16721e-06
2.57878e-06
1.94674e-06
1.94621e-06
0.00433031
2.27822e-06
0.00796471
0.00981548
1.77567e-06
2.07274e-06
3.07226e-06
1.96395e-06
0.0179565
2.27615e-06
1.06253e-05
0.0103943
1.90195e-06
1.96866e-06
1.81732e-06
0.00323238
2.20833e-05
2.3595e-06
3.61889e-06
1.7616e-06
2.78407e-06
2.58722e-06
1.8248e-06
0.00249994
3.23395e-06
2.24926e-06
1.01057e-05
2.29222e-06
2.51838e-06
1.96326e-06
2.24148e-06
2.31754e-06
2.05553e-06
1.75228e-06
1.76692e-06
2.68447e-06
1.96596e-06
0.0057082
2.13115e-06
2.28546e-06
1.74757e-06
1.80879e-06
3.51333e-06
2.72525e-06
2.11178e-06
3.3754e-06
1.8237e-06
0.00416625
1.85024e-06
2.0852e-06
2.87362e-06
2.55305e-06
2.38684e-06
3.66777e-06
2.31745e-06
2.39392e-06
1.93828e-06
1.86151e-06
0.00218385
0.00369449
0.00469464
0.000168154
1.76256e-06
0.011531
0.00844844
1.98243e-06
2.56407e-06
2.52691e-05
0.00191621
1.99046e-06
0.013343
0.00068453
0.00498978
0.00364152
9.74014e-06
1.79866e-06
0.0187076
0.00031355
2.63541e-06
2.37137e-06
0.0129977
2.8731e-06
2.31187e-06
2.57263e-06
1.78071e-06
2.8726e-06
2.04852e-06
1.81818e-05
2.54473e-06
2.57659e-06
4.27471e-06
2.48145e-06
0.00175721
7.35112e-06
4.11242e-05
3.50567e-06
2.58253e-06
2.64862e-06
2.80609e-06
1.03773e-05
2.19255e-06
2.03148e-06
0.00782266
2.71224e-06
0.000193576
0.00658777
1.81619e-06
0.00627288
2.92933e-06
0.00365956
0.0253273
1.90118e-06
2.69461e-06
2.07753e-06
2.70545e-06
2.23596e-06
0.0111807
2.20195e-06
2.28968e-06
1.87541e-06
2.42406e-06
0.00334221
2.19082e-06
3.37533e-06
3.64904e-06
0.0152959
1.25377e-05
1.84608e-06
8.96371e-06
0.043754
0.00811544
1.54889e-05
0.0103452
2.02313e-06
0.0354714
2.45988e-06
1.82659e-06
5.99746e-06
2.30674e-06
0.0134646
0.00770124
8.49288e-06
4.27834e-06
2.26337e-06
0.0014145
2.38518e-06
2.23396e-06
1.95614e-06
0.00257398
2.41135e-06
3.29097e-06
3.65245e-06
3.18462e-06
0.0125891
3.02345e-06
0.0101683
1.93917e-06
3.47365e-06
6.34842e-06
0.00322525
2.32901e-06
0.0412903
0.000475457
7.69805e-06
0.00640933
6.22366e-06
2.53456e-05
2.82148e-06
6.59125e-06
2.26367e-06
4.44124e-06
0.0223883
2.22639e-06
1.74043e-06
4.45182e-06
0.0148368
5.71989e-06
3.02854e-06
2.51343e-06
0.00548982
2.10389e-06
2.42705e-06
2.21911e-06
0.0137145
1.79537e-06
2.78434e-06
1.88281e-06
1.94547e-06
2.16012e-06
0.00332254
4.79999e-06
1.06021e-05
0.0020867
1.35957e-05
3.33797e-06
1.77094e-06
2.36898e-06
3.24426e-06
6.45073e-06
2.16222e-06
1.94447e-06
0.00149805
1.92432e-06
0.008685
2.23702e-06
0.0257914
2.82968e-06
2.26064e-06
1.74968e-06
2.35803e-05
3.47826e-06
2.34053e-06
1.81706e-06
3.03934e-06
7.27537e-05
4.15988e-06
3.15043e-05
2.33502e-06
1.7776e-06
2.99388e-06
0.0335946
2.88652e-06
1.90657e-06
0.000120602
2.11278e-06
3.22234e-06
0.00935033
0.00894029
2.24187e-06
1.90696e-06
2.28317e-06
2.02635e-06
0.000287468
1.73892e-06
1.81096e-06
2.22691e-06
7.05026e-06
1.96336e-06
1.77107e-06
1.48946e-05
2.50482e-06
0.111383
1.06467e-05
0.000567846
4.90103e-06
2.16214e-06
3.49888e-06
2.11358e-06
2.72199e-06
2.00849e-06
1.99638e-06
0.011966
2.5707e-06
2.57395e-06
2.75647e-06
3.85479e-05
2.58913e-06
0.00564296
0.0110427
2.38427e-06
0.000858179
0.0389076
1.75856e-06
3.16822e-06
1.81958e-05
1.89747e-06
1.96044e-06
2.59035e-06
4.45953e-06
1.76187e-06
1.71274e-06
3.07275e-06
2.05462e-06
2.09964e-06
3.54742e-06
8.5909e-05
0.00635327
1.76628e-06
0.00342563
0.00933964
2.61827e-06
0.0173009
1.74814e-06
0.00422653
2.06833e-06
2.10253e-06
2.32055e-06
2.74829e-06
2.59554e-06
0.000180075
2.63679e-06
2.26358e-06
2.11593e-05
2.29587e-06
0.000934602
2.3682e-06
3.41941e-06
2.15805e-06
2.0912e-06
1.81968e-06
1.70111e-06
1.9541e-06
2.32013e-06
0.00493819
4.29866e-06
1.91391e-06
2.40446e-06
3.63053e-06
2.67541e-06
3.5154e-06
0.004173
0.000125311
0.0229237
8.35731e-06
1.88187e-06
2.4166e-06
3.20922e-06
1.76284e-06
6.63506e-06
2.33332e-06
2.32999e-06
0.00364956
0.00150933
2.08689e-05
4.85736e-06
3.23415e-06
3.28789e-06
5.57851e-06
0.0331881
1.91093e-06
2.34652e-06
2.18576e-06
0.0678161
0.00952166
3.18684e-06
2.23815e-06
1.96456e-06
2.4736e-06
2.49495e-06
2.08547e-06