/*--------------------------------*- C++ -*----------------------------------*\
| =========                 |                                                 |
| \\      /  F ield         | OpenFOAM: The Open Source CFD Toolbox           |
|  \\    /   O peration     | Version:  v2012                                 |
|   \\  /    A nd           | Website:  www.openfoam.com                      |
|    \\/     M anipulation  |                                                 |
\*---------------------------------------------------------------------------*/
FoamFile
{
    version     2.0;
    format      ascii;
    class       volScalarField;
    location    "200";
    object      k;
}
// * * * * * * * * * * * * * * * * * * * * * * * * * * * * * * * * * * * * * //

dimensions      [0 2 -2 0 0 0 0];


internalField   nonuniform List<scalar> 
13726
(
0.0001362
9.31276e-05
0.00953257
0.0098214
0.000117786
0.0422357
0.000773021
9.71227e-05
0.000111009
0.0211175
0.00357088
0.0372426
0.000162868
9.87305e-05
0.000128257
9.21399e-05
0.000118408
0.0815628
0.00409231
0.000109741
0.000133012
0.000112169
0.000104763
0.000144069
0.000140218
0.0141572
0.000106498
0.000106314
9.87505e-05
0.000106188
9.68305e-05
0.00011017
0.0324788
0.000103325
9.77975e-05
0.000136924
0.000118583
0.000127141
0.000110532
0.0844083
0.000105724
9.53764e-05
0.000100553
0.000120978
0.000101314
0.000111029
9.28994e-05
0.000152201
0.000103232
9.9222e-05
0.000106227
0.00015634
9.83547e-05
0.000137405
9.90771e-05
0.000119622
0.000127722
0.000112511
0.000115258
0.00011526
0.000115412
9.73176e-05
0.000105778
0.000140012
0.000132074
0.00010508
0.000140738
0.000102899
0.000103446
0.000103502
0.000125995
0.00947654
9.93834e-05
0.000120615
0.000101299
0.000102456
0.000106487
0.0483747
0.000131076
0.000135017
0.0513097
0.0179398
9.88658e-05
0.000124534
9.7284e-05
0.0031378
0.000102655
0.0327274
0.000199083
9.41912e-05
0.000108611
0.00011757
9.60457e-05
0.000109127
0.000144185
0.000271873
0.000117119
0.000106188
0.000210593
0.000671708
0.000105607
0.0223011
9.72311e-05
0.000112282
9.55053e-05
9.75486e-05
0.0401375
0.000109286
0.000101292
9.20131e-05
0.000128896
0.000101493
0.000131787
9.88193e-05
0.0001099
0.000130731
0.000137453
0.0102009
0.000105664
0.00107136
0.000127704
0.000534546
0.00010739
0.000101408
0.000118962
0.000115605
9.73779e-05
0.0131112
9.90215e-05
0.0494395
0.000129376
0.000199148
0.00012771
9.3788e-05
0.0001009
0.00012937
0.000144289
9.76339e-05
0.000113614
9.79887e-05
9.95981e-05
0.000122009
0.000247043
0.000123833
0.0024319
0.000102675
0.000110855
9.80898e-05
0.000129908
9.21423e-05
0.000115652
0.000132466
0.000113906
0.000261055
0.000121404
0.000109702
0.000114057
9.61805e-05
0.000112757
0.0211822
9.40714e-05
0.000110114
0.00104433
0.0129409
9.70658e-05
9.64658e-05
0.000107469
0.000112656
0.000105277
0.000117189
0.000121431
0.000104746
9.65483e-05
9.87656e-05
9.44776e-05
0.000102823
0.0878079
0.0332043
0.00010634
0.0132318
0.000106215
0.000115825
0.0114879
0.0104519
0.0106821
9.88755e-05
0.0345779
9.99096e-05
0.0149506
0.000108431
0.000101853
9.91346e-05
0.000110468
0.000117935
0.0398624
0.000114752
9.22194e-05
0.0211769
0.00010208
9.74814e-05
0.000102279
0.000128743
0.000106291
0.000106643
0.000117117
0.000106738
0.000171027
0.000552833
0.000121548
0.0376941
0.000115339
0.0100226
9.72075e-05
9.37928e-05
0.000129143
0.00249722
0.000107487
9.94909e-05
0.000271653
0.000531922
9.77327e-05
0.000121973
0.000111646
0.000100945
0.0151277
0.000102975
9.66585e-05
0.000830353
0.000113063
0.00011753
0.012053
0.0221809
0.0266694
0.0233053
0.000115095
0.0328958
0.000144946
0.000112102
0.000108603
0.0293146
0.00014633
9.68269e-05
0.000146153
0.000132821
0.0243734
0.000149934
0.000107024
0.000120382
0.000106718
0.000101073
0.000118664
0.021275
0.000124841
9.43444e-05
0.0001256
0.0135522
0.000117321
0.000101516
0.0109702
0.000121911
0.0107773
0.000119262
0.000108728
9.98446e-05
0.000127123
0.0171493
9.45563e-05
9.74108e-05
0.000113175
0.000127454
0.000112025
0.00014701
0.000127926
0.000179513
0.000109919
9.66806e-05
0.000133884
9.82436e-05
0.000157974
0.000104872
0.000119333
9.63989e-05
0.000101296
0.000129331
0.00011623
0.000113064
0.000111951
0.000101056
0.00034603
0.0751259
0.000121931
9.93192e-05
0.0517291
9.64838e-05
9.77536e-05
0.0097493
0.000139848
0.000629564
9.78771e-05
0.0114289
9.58359e-05
0.0217209
9.67344e-05
0.0285237
0.00011092
9.75648e-05
0.000121832
0.000132409
0.00010934
9.13332e-05
0.000116241
0.000105131
0.0406682
9.96602e-05
0.0196432
0.0121753
9.31915e-05
0.00327253
0.000143395
0.0105961
0.000121465
0.000109248
0.0153623
0.000101372
0.000111329
0.00010845
0.0113261
0.0317572
0.0212551
0.000113527
0.000108745
9.60284e-05
0.00940062
0.000111486
0.000109931
0.00010579
9.94782e-05
0.000105082
0.000114694
0.00948512
0.000113886
0.00012076
0.000296732
0.000233168
9.65149e-05
0.0594233
0.000112215
0.0177023
9.9942e-05
0.000112957
0.00011508
0.0121146
9.69287e-05
0.000125024
0.00010624
9.76233e-05
0.000118395
0.000493561
0.0160302
0.00010764
9.8813e-05
9.75446e-05
0.00264282
0.000153033
0.000129832
0.000117311
0.00595286
0.000104859
0.000106237
0.000474298
0.00010955
0.000105886
9.48209e-05
9.58932e-05
0.000114122
0.016209
9.22323e-05
0.0096312
0.00010591
0.0141736
0.000116401
0.0114687
9.90672e-05
0.000111897
0.000119553
9.8447e-05
0.0206402
0.039339
0.000100751
0.000131061
0.000114449
0.000113257
0.000143607
9.47854e-05
9.74019e-05
0.000113553
0.0403496
0.00211901
9.90283e-05
9.34662e-05
0.000148809
9.17106e-05
9.68869e-05
0.000101483
9.80459e-05
0.00220409
0.0189273
0.000112025
0.000101574
0.000101224
0.0305518
9.30813e-05
0.000143126
0.000103494
0.00011703
0.000128441
0.000531171
0.000110283
9.6953e-05
0.000111515
0.000109461
9.60661e-05
9.13538e-05
0.000145255
0.000114588
0.000110733
0.000104034
0.000110345
0.0342665
9.69915e-05
0.000111156
9.68456e-05
9.55305e-05
0.000106667
0.0094901
0.000146267
0.000114364
0.000135742
0.0213473
0.0145923
0.000110525
0.000102778
0.000115086
0.00794098
0.000105905
9.81251e-05
0.000158127
0.030267
9.37305e-05
0.000361692
0.000103297
0.00590554
0.0442065
0.000109698
0.00011686
0.000160358
0.000101952
0.000100433
9.35024e-05
9.90453e-05
0.000115973
0.000105787
0.0212256
0.000110118
0.000154712
0.0287957
0.000125576
0.00013894
0.000118109
0.0150108
0.000124603
9.52302e-05
0.000171355
0.01176
0.000135349
0.000122496
0.000153273
0.000101759
9.74109e-05
0.000100455
9.58383e-05
0.000118253
0.000100148
0.0337025
0.000102613
0.000103755
9.2408e-05
0.0260698
0.000254184
0.000645148
0.0150064
0.000136282
0.000104716
0.0545248
0.000120996
0.00010609
9.63629e-05
0.00012667
9.65859e-05
0.000102831
0.00140535
0.000129789
0.000106079
9.82342e-05
0.000116137
0.00956642
0.000105488
9.37527e-05
9.77499e-05
0.0131272
9.85587e-05
9.27587e-05
0.000102079
0.000130768
0.000118875
0.000101314
9.98912e-05
0.000112238
0.0198796
0.000119672
9.95865e-05
9.62033e-05
0.0159386
0.000119547
0.000114696
0.000305536
0.000117723
0.000116867
0.000213714
0.000110134
0.000313853
0.000102412
9.65803e-05
0.0222246
0.01612
0.0391419
0.0365859
0.000146474
9.57566e-05
0.000131234
0.000123603
0.00385416
0.0422299
9.70987e-05
0.000147438
0.000104597
0.000116301
9.36849e-05
0.000111452
0.0105803
0.000103204
0.00218382
9.94006e-05
0.000102892
0.00011411
9.37108e-05
0.000105487
0.0131195
0.000133206
0.000114002
9.10294e-05
0.0372751
0.000103315
0.00014789
0.000110687
0.0490573
0.000103799
9.70526e-05
0.00766157
0.0183356
0.000105525
0.000259204
0.000105432
9.5911e-05
0.000102889
0.000118055
0.0132887
0.000116783
9.7495e-05
0.000133578
9.67435e-05
0.000113727
0.0111951
9.28494e-05
9.36893e-05
0.000116036
0.000136774
0.000100316
0.0282808
0.000120382
0.0773224
0.000101303
9.52511e-05
0.00302583
0.000101321
0.000111413
0.000107836
0.000106014
0.0207235
0.000137909
0.0117086
0.000138455
0.000108008
9.08717e-05
0.0234221
0.0813737
0.00010482
0.000119352
0.00111305
0.000146985
0.000102909
0.000101123
0.000123243
0.000114068
0.000145117
9.75128e-05
0.000144286
9.46477e-05
0.000126932
0.000107711
0.000117242
9.74531e-05
0.000129506
0.000134528
0.0434871
0.0805967
9.66899e-05
0.000121773
9.58738e-05
9.5315e-05
9.68052e-05
0.00010278
0.0393028
0.000104211
0.0222682
0.000242533
0.000113873
9.70674e-05
0.000112453
0.0315426
0.000148189
0.000113881
0.000144888
0.000110448
0.000117768
0.000128849
9.64172e-05
0.000112901
0.000341909
0.000137975
0.000115985
0.000116891
0.000788344
0.000105729
0.0346795
0.00467745
0.000137098
0.0010666
0.0109091
9.54449e-05
9.51269e-05
0.000103557
0.000107431
9.70711e-05
0.000107932
0.0133234
0.0451038
9.78357e-05
0.000140737
9.61967e-05
0.0110307
0.000125639
0.0160289
0.000104563
0.000323883
0.000123559
0.00011453
9.21038e-05
0.000118572
0.000433823
9.35493e-05
0.00010388
0.000104843
0.000146655
0.000142571
0.000116444
0.000145094
0.0358437
0.037662
0.000106733
0.000127825
0.000117051
0.0520985
0.000109576
9.57776e-05
0.000132207
9.79495e-05
0.000112257
0.000110824
0.000107676
0.0153179
0.000387569
0.000130363
0.000110071
0.000112098
9.84867e-05
9.9986e-05
0.0115101
0.000108684
0.000116664
0.0234654
0.000126884
0.00013265
9.49366e-05
0.0190264
0.000145788
0.000238995
0.00010192
9.55824e-05
9.83937e-05
0.000121254
0.000835803
0.0420703
0.0001022
9.21807e-05
0.000130576
9.50765e-05
0.000107851
0.000105674
0.000102994
0.000328855
0.000112062
0.000112454
9.58513e-05
0.0581423
0.00158068
0.000107721
0.000106275
0.000127057
0.000100669
0.0253216
0.000101149
0.000100703
9.55336e-05
0.0555574
0.000334903
0.000122683
0.000115189
0.000124128
0.0122461
0.000111017
0.000144312
0.000110893
9.75352e-05
0.000112965
0.0235416
0.00010073
0.00014932
9.49343e-05
0.000102977
0.00010324
0.000114195
0.00876869
9.10827e-05
9.52526e-05
9.68004e-05
0.000126006
0.000114259
0.0153842
9.49596e-05
0.000232515
9.73039e-05
0.000109986
0.00013298
0.000117483
0.000107601
0.000103101
0.0726292
0.000100568
0.000216379
9.90491e-05
0.000108457
0.000101335
0.000113487
0.0115867
0.000110851
9.58291e-05
0.000117589
9.76209e-05
0.00331
0.0241553
0.000133792
0.000114138
0.0367413
0.000102122
0.000115361
0.000107598
0.000334548
9.8153e-05
0.000147054
9.78184e-05
0.000605441
0.000121246
0.000146235
0.000114826
0.000106959
0.000124721
0.000339375
0.000144056
0.000145017
0.000106718
0.00013781
0.000109618
0.0137641
9.77427e-05
0.000114105
9.62683e-05
9.75906e-05
0.000121469
0.000134335
0.000128215
0.000113828
0.000387342
0.000146976
0.000109146
0.000112596
0.000155907
0.000114815
9.6256e-05
0.0738886
0.000116349
0.000106534
0.000126652
9.17332e-05
0.000119297
0.000146591
0.000120917
0.000106139
0.000103517
0.000101014
0.000107978
0.0390113
0.000107109
0.000217047
9.67698e-05
0.000100712
0.000106828
0.0047805
0.000107495
0.000125637
0.000106294
0.00917281
0.0132565
0.00012796
0.000163048
0.000107197
0.000114768
0.000116642
0.0264807
0.00935885
0.000111617
0.000119856
9.44663e-05
0.000130411
9.80879e-05
9.14287e-05
9.42866e-05
0.0225767
0.000108159
0.000109567
0.000126003
0.000105172
0.0182539
0.000128913
0.000450087
9.73375e-05
0.00011637
9.34155e-05
0.000112844
0.000146256
0.000108069
9.70946e-05
0.000109247
0.0140383
0.0175858
0.000110541
0.00010394
0.000109438
0.000110734
0.000295549
0.000102718
0.039696
0.000103331
0.000117248
0.000108085
9.66885e-05
0.000117833
9.14209e-05
0.000104466
0.000114255
0.0355233
0.0117029
0.000132859
9.79506e-05
9.97932e-05
0.000110341
0.00010309
9.66912e-05
0.000112836
0.0164529
0.000126204
0.000149277
9.38721e-05
0.000109919
9.04612e-05
0.0155769
0.0218831
0.000108028
0.000109982
9.13069e-05
0.000104916
0.000126646
0.0121855
9.174e-05
0.000193898
0.000117028
0.000147274
9.82258e-05
9.88711e-05
0.000108518
0.000124964
0.000134805
0.0208697
9.71636e-05
9.7305e-05
0.000148295
9.7202e-05
0.000127167
9.99115e-05
0.026387
0.000146075
9.70873e-05
9.47304e-05
0.0242671
0.000123733
0.0155097
0.0202701
0.000104739
0.000110643
0.000110984
0.000100694
0.000128315
0.000107095
0.00011008
0.000103174
0.000102891
0.000107206
0.00011541
9.3433e-05
0.000102018
0.000116636
0.000143125
0.000101179
0.000110582
0.000118447
9.27482e-05
0.0846063
9.69882e-05
0.000110628
0.000109401
9.58045e-05
0.000112405
0.0151968
0.000145035
0.00991567
0.000125502
0.000147656
0.0102229
9.07138e-05
0.000114213
0.000114023
0.00011517
0.000135189
9.33705e-05
0.000109727
0.000106962
0.000146344
0.000113917
0.000111132
9.0987e-05
9.93026e-05
0.000142389
0.000100882
0.00881198
0.000393849
0.000108211
0.000114654
0.000121299
0.000105967
0.000102755
0.0339362
0.0131447
0.00511029
0.000101239
0.00671812
0.000101242
0.000116052
0.00032731
0.000108209
0.000111218
9.25168e-05
0.000111311
0.017875
9.18124e-05
9.70046e-05
0.000114155
0.000103322
0.000103617
0.00010508
0.0095823
0.0744528
0.0134778
0.00013728
9.61418e-05
0.00139607
0.0502894
0.000113431
0.0165285
0.000109746
0.00061608
0.000109596
0.000120671
0.000118617
0.0120015
9.60239e-05
0.000107523
0.0151213
0.000114155
0.0100921
0.000114802
9.49039e-05
0.000250733
0.00981202
0.000106391
0.00011868
0.000103443
0.000107648
0.000136326
9.78806e-05
0.000103533
9.62842e-05
0.000109382
0.00011269
0.00011191
9.72533e-05
0.000272151
0.000120771
0.0428951
0.000143173
0.00010523
0.000104221
9.67212e-05
9.51361e-05
0.000132381
9.13551e-05
0.0155767
0.000104882
0.000101473
0.00016758
0.000715932
0.000282864
0.000109019
9.53981e-05
0.000481327
0.0458085
0.000117904
0.0093582
0.0262383
0.00522386
0.000110581
0.000115584
0.0126533
0.00923317
0.000111166
0.000117115
0.000115715
0.0001019
9.56405e-05
0.000103175
9.32719e-05
0.000106042
0.0069464
9.12886e-05
0.00013513
0.000120871
9.41261e-05
0.00010639
0.000145187
0.000108677
0.000110226
0.000103101
0.000103321
9.61664e-05
0.000146952
0.00011472
0.000100628
0.0203313
9.93748e-05
0.0144685
0.0108061
0.000102677
0.000124771
0.0001111
0.000110952
9.90947e-05
9.51043e-05
0.000121369
0.00206298
0.000105284
9.87863e-05
0.000106224
0.000273702
0.000107397
9.90953e-05
9.90845e-05
9.80577e-05
9.58207e-05
0.000126697
0.000113867
0.000114039
0.0252436
9.75432e-05
0.000118435
9.63989e-05
0.0605358
0.000115052
0.000128205
0.000112612
0.0107953
0.000103387
0.000238379
9.6164e-05
0.000119275
0.000683239
0.000847728
0.0295268
0.0250602
0.000104922
0.000107019
0.000125789
0.000112049
0.000130181
9.88076e-05
0.000118714
9.4971e-05
0.000120865
9.78962e-05
0.0132744
0.00918456
0.000108781
0.00035969
9.60926e-05
0.000106428
0.00012256
0.000106099
0.000105501
0.0113091
0.0404265
0.000115648
0.000111877
0.00701653
0.000114864
0.00011007
0.000105353
0.000105429
0.000118284
9.54392e-05
0.00013633
0.000141862
0.000116863
0.000120103
0.000488705
0.000104
0.0420375
0.00998905
0.000144124
0.00010739
0.000474149
0.000432062
0.000107973
0.000107637
0.000266229
0.0130149
0.00012095
0.00014059
0.000131785
0.000101787
0.000121626
0.000106849
0.000146476
9.18528e-05
0.000233871
9.99189e-05
0.0157627
0.000104253
0.000149068
0.015865
0.000100644
0.00172532
0.0117499
0.0105215
0.000199054
0.000111967
0.000103841
0.000103795
0.000127671
0.000135713
0.0100071
0.000104878
9.58891e-05
0.000110076
0.0001342
9.40495e-05
0.0363987
0.000121121
0.000111477
0.000139894
9.64493e-05
0.000106174
0.000110118
0.000127195
9.75529e-05
9.41892e-05
0.0109128
0.0522783
9.17033e-05
0.000112497
0.00012519
0.000110122
0.000140964
0.0001219
0.000108308
0.000122631
9.73274e-05
0.000135605
0.00577183
9.23077e-05
0.000115105
0.00020763
0.000100274
0.000124576
9.96186e-05
0.000136163
0.000122483
0.000136802
9.83178e-05
0.0202183
9.65625e-05
0.000132612
0.00929604
0.000109969
0.0311267
0.000146672
0.000167455
0.00980348
0.000125547
0.0362727
0.00013911
0.000137612
9.72459e-05
0.000128854
0.0203272
9.83832e-05
0.000122896
0.000104602
0.000154057
0.000116347
0.0367531
9.9282e-05
9.93357e-05
9.8319e-05
0.000105592
0.000114499
0.000105166
0.0001096
9.5627e-05
0.0189895
0.026158
0.0113575
0.000616245
0.000109641
0.000258511
0.000227681
0.000118275
0.000106611
0.000111805
0.000108808
0.000282949
0.0364262
0.0115471
0.000117751
0.000111894
0.000821913
0.000615878
0.000104037
9.49598e-05
0.000104657
0.00010498
0.000112803
9.20653e-05
0.000128246
0.0126692
0.000104717
0.000121867
0.000115732
0.000113517
0.000119197
9.71713e-05
0.000301757
9.53147e-05
0.000109722
0.000113797
0.000109052
9.30765e-05
0.00027827
0.00010258
0.000100905
0.000139614
0.000123624
0.000106791
9.40712e-05
0.000126089
0.00182028
0.0637111
0.000104717
0.000110777
9.78172e-05
0.0126255
0.000102491
0.000118325
9.39122e-05
0.000111189
0.000117517
0.00128271
0.000104251
0.000108453
0.000109983
0.000153636
0.000113069
0.000113009
0.000111981
0.000131907
9.95625e-05
0.0458265
0.00735164
0.00254293
9.82594e-05
0.0284048
9.88774e-05
0.0238746
0.000127272
0.000120397
0.0615227
0.0113787
0.000133577
0.00010236
0.000137456
0.000101086
0.00011292
0.000106393
9.67821e-05
0.0300489
0.000106482
0.0489329
0.0104316
9.86991e-05
0.000172114
9.74033e-05
0.000103493
9.33833e-05
9.27066e-05
0.0274869
0.000110967
0.000125822
0.0177934
0.000158754
0.000271334
0.000116417
0.0145921
9.82127e-05
9.52167e-05
0.000101825
9.59678e-05
0.000106518
0.0236791
0.000110085
0.00163058
0.000204368
0.000108783
9.47164e-05
0.00011255
0.0246611
0.000106024
0.00788817
0.000105356
0.000152264
0.000114002
9.44585e-05
0.000148298
0.000109718
0.000110617
0.000100553
0.000104304
0.000101374
0.00011471
0.0128879
0.000117947
0.000114041
0.000197873
0.0001351
0.0115439
0.000105386
0.0338905
0.00663695
0.000104781
0.000318725
0.000178169
0.000117336
0.000107025
0.0381468
0.000130779
0.000234122
0.0454381
0.000104406
9.41918e-05
9.71944e-05
0.0146183
0.00026167
0.000135252
0.000132983
0.000101445
0.000188506
0.000126657
9.84374e-05
0.0306573
0.000141799
0.0247287
0.0126815
0.037001
0.000105593
0.0116426
0.000102104
0.000100584
0.0198533
0.000114133
0.0167746
0.000104158
0.0322392
0.0651412
0.000108322
0.000409475
0.000111685
0.0244167
0.000134444
0.0196645
0.000112309
0.0257999
0.000109062
0.022607
0.00502387
0.000103864
0.000137007
0.0112797
9.61229e-05
0.000130195
0.010844
9.24311e-05
0.000109327
0.000135756
0.00815993
0.000113626
0.000115892
9.6049e-05
0.0206328
9.1246e-05
9.85418e-05
0.0530304
9.24822e-05
0.000127929
0.000110776
0.000105375
0.00011194
0.000124869
0.000118803
0.000112954
0.000124287
0.000182633
0.000110411
9.77027e-05
0.000108126
0.000102792
9.71164e-05
0.000113285
9.74046e-05
0.0378177
0.000109713
0.000129127
9.55813e-05
0.0273692
9.53007e-05
0.000105534
9.70608e-05
0.000106642
9.47981e-05
9.17166e-05
0.000104639
0.0333276
0.000774272
0.000117109
0.000128776
0.000103783
0.00011454
0.000598747
0.0203777
0.000112787
0.000117501
0.000138721
0.022693
0.000137841
9.22916e-05
0.000187845
0.000497445
0.000123528
0.0241388
0.00011263
0.0211555
0.0167007
0.00018837
0.000110332
0.0228528
9.24601e-05
9.40256e-05
0.000125968
9.46336e-05
0.0356111
0.000149253
0.000128377
0.000106917
0.000120045
0.000113074
0.000108869
0.0207669
0.000215112
0.000100247
9.31612e-05
0.000133459
0.000108344
0.000126132
0.000102996
0.000108916
0.000117266
9.68962e-05
0.0316777
0.0313699
0.000106892
9.44032e-05
0.000122805
0.00010103
0.0116822
0.000109436
0.000103125
0.0148624
0.00218484
0.000105508
0.00352121
0.00025835
0.000122608
0.00239241
0.000102138
0.0188789
9.99394e-05
9.36172e-05
0.0271569
0.000117704
9.42883e-05
0.00688385
0.0119248
0.0559324
9.94368e-05
0.000111056
0.0236589
0.000110519
0.000168796
0.000126236
0.000180131
0.0506603
0.0184946
0.0193349
0.000112819
0.019053
0.0222672
0.000226392
0.000107169
0.000103644
0.000111909
0.000113155
0.0188612
0.0148687
0.00032584
9.26494e-05
0.000123527
9.85724e-05
0.00010934
0.0194683
0.000100423
0.0218759
0.0369836
9.43382e-05
0.000111499
0.0128197
0.000123054
0.000395426
0.000113854
0.000116717
0.000274609
0.000118099
9.29082e-05
0.000126129
0.000126693
0.000110275
0.0554724
0.000172116
9.82731e-05
0.000122156
0.000101339
0.000100271
0.000112053
0.000122826
0.000115387
0.000114357
0.0133763
0.0667438
0.000129441
0.000135496
0.0162349
9.21375e-05
0.000111486
0.0223586
0.000111865
0.0162038
0.000129272
0.000146866
0.0591715
9.81951e-05
0.000148174
0.00016951
0.0199569
9.45298e-05
0.000108464
0.00960016
0.000106056
0.0113034
0.000154585
0.000209124
0.00010608
0.000109108
0.000122224
9.84418e-05
0.000147287
0.000109372
0.000122234
0.000110111
9.26046e-05
0.0482009
9.66195e-05
9.45375e-05
0.0117771
0.00392602
0.0205365
0.000120525
9.72699e-05
0.000108499
0.000101965
0.000402822
0.00336225
0.000109167
0.000255741
0.0368084
0.0291905
0.000122054
9.09572e-05
0.000111249
0.00956375
0.017892
0.000100532
9.12621e-05
9.84782e-05
9.84252e-05
0.000103212
0.000126233
0.000108814
9.90019e-05
0.000146144
0.000117931
0.000120707
0.000119789
0.000145794
9.86499e-05
0.000118627
0.0128966
0.000100368
0.000125863
0.000411435
0.018099
0.000244422
9.69864e-05
9.84061e-05
0.000197945
0.0107664
0.000152382
0.000112221
9.89285e-05
9.42081e-05
0.0137107
0.0253607
0.0164062
0.000110446
0.0270682
0.000117507
0.000101396
0.000119131
0.000110584
9.64841e-05
0.0449851
9.87234e-05
0.00010714
0.000109784
0.000176078
0.000105748
9.48242e-05
0.000111199
0.000105079
0.000122955
0.000127857
0.000148469
0.0208473
0.000129111
0.0105545
0.000127234
0.000104393
9.45814e-05
0.000105764
0.000126655
0.000406896
0.000143971
0.019556
0.0186479
9.22215e-05
9.18571e-05
9.24482e-05
0.000100792
0.000195588
0.0270932
0.000116037
0.000112655
9.67603e-05
9.56314e-05
0.0179456
0.0116131
0.000108191
0.000117824
0.000105817
0.000146954
0.0882336
0.000119018
0.0188607
0.0180569
9.56947e-05
9.37875e-05
0.000112788
9.53056e-05
0.0177097
0.000340449
0.000148461
0.000116492
0.0210104
0.000148199
0.000115782
0.0308281
0.0183712
0.00426394
0.000130377
0.000110921
0.0582323
0.0167877
0.0214971
0.0143779
0.000121857
9.90709e-05
0.000103992
9.80624e-05
0.000197278
9.13889e-05
0.000115928
0.000111393
0.000121658
0.0689784
0.000125189
9.93662e-05
0.0155928
0.0157039
0.0162509
0.000128279
0.000142882
0.000242453
0.0289232
0.000147234
0.0104143
0.0442486
0.0188269
9.91814e-05
0.000146783
0.000112609
0.0172744
0.000117259
0.0202976
9.34763e-05
9.49697e-05
0.0149936
0.000110626
0.000117913
0.0158782
0.000110582
0.000144771
0.00015475
0.000111954
0.000233655
9.87022e-05
0.000129142
0.000229316
9.71124e-05
0.000104951
0.000108825
0.0129415
0.000113159
9.89271e-05
0.000112235
0.020503
0.000318595
0.0164778
0.0552456
0.000162619
0.0140584
0.000113943
0.00010124
0.000117126
0.000125327
0.0177415
0.000147174
0.000112115
9.96726e-05
0.0169996
0.000104617
0.0102229
9.9302e-05
0.000117623
0.000116018
0.000122499
9.72378e-05
0.000103102
0.000226897
0.0425265
0.0305212
9.89859e-05
0.0178978
0.000104621
0.0197582
9.51137e-05
9.54807e-05
0.000119488
0.0221686
0.000100422
0.000108772
0.000128282
0.00014364
0.000130146
9.96415e-05
0.000100845
0.013015
0.000163294
0.0139422
0.000103894
0.000100251
0.0124072
0.000110155
0.0503907
0.000101263
9.91695e-05
0.000237366
0.00878598
9.44117e-05
0.0102218
0.0226786
0.028042
0.000107314
9.65514e-05
0.000118467
0.000104495
0.000118804
0.000113305
0.000105752
0.0126438
0.019318
0.000109882
0.00133062
0.000147262
0.000122627
0.000132848
0.000103332
9.85292e-05
0.000105269
0.000132919
0.000122882
0.0370318
0.0293136
9.68436e-05
0.000105165
9.97498e-05
0.000107746
0.0104718
0.0344048
0.0001069
0.0307045
0.019953
0.000134293
0.000122478
9.13879e-05
9.43221e-05
0.000101294
9.84131e-05
9.7604e-05
0.00011977
0.000139807
0.000152364
0.000106629
0.0124936
0.000105772
0.0216821
0.0113593
9.88144e-05
0.000102317
0.020212
0.000104748
9.11645e-05
9.63015e-05
0.000107858
0.000114286
0.000129716
9.72566e-05
0.00010052
0.0112998
0.000123917
0.00808463
0.000109367
0.000127636
0.00833227
0.000104906
0.0148223
0.000113223
0.000113522
9.21952e-05
0.000114358
0.012695
0.000103886
0.000106626
0.000113996
9.63011e-05
0.0467627
0.00011855
9.50918e-05
0.000105469
0.000104208
0.0140378
9.65607e-05
0.000102592
0.000105591
0.000109028
0.000112959
0.0376182
0.0160611
0.00010971
0.000100186
0.00012729
9.88052e-05
9.98717e-05
0.000111692
0.00127288
0.000107017
0.0219605
9.45015e-05
9.50859e-05
9.47947e-05
0.000105949
0.000132943
0.000110938
0.00010356
0.000434749
0.000152846
0.0576698
0.000104306
0.000143051
0.000110546
0.00291931
0.000103192
0.000110435
0.000105876
9.47971e-05
0.000121273
9.87925e-05
0.000103694
0.000164496
0.0113885
0.00013155
0.0258333
0.00926247
0.000100242
0.000104884
0.000148382
0.011319
9.68319e-05
0.000119334
0.000109304
0.000314251
0.0117664
0.00010494
9.88684e-05
0.031395
0.0141339
0.000123839
0.0166198
0.0129272
0.00146905
0.000117606
0.000111116
0.000133585
0.000228684
0.000102043
0.0577716
0.000100038
0.000101391
9.88438e-05
0.0154233
0.0122082
0.000100275
0.033719
0.0113999
0.000117471
0.00012897
0.000102431
0.00213781
0.000118321
0.0204489
0.000106665
0.000147206
0.011849
9.71204e-05
0.000107596
0.0174295
9.8717e-05
0.000110002
0.000523692
0.000116752
0.000100585
0.00011518
0.0273025
0.000100319
0.000134409
9.64968e-05
0.0199662
9.50235e-05
0.00013189
0.00011426
0.0213805
0.000141227
0.00010661
0.000104339
0.000113763
9.77504e-05
0.000103677
0.000112268
0.00741762
0.000106332
0.000103982
9.71797e-05
0.000276066
0.000111049
0.0285788
0.000111886
0.0118485
0.000109693
0.000272341
0.020746
0.000116323
9.68678e-05
0.00014176
0.0157178
0.0947174
9.95103e-05
0.000130225
0.000128396
0.0202027
0.000110131
0.000951372
0.000109578
0.000135629
0.000102981
0.000121817
0.000119707
0.000109558
0.000107823
0.000107839
0.000108426
0.0164225
0.000100387
0.00011316
0.00010223
9.35623e-05
0.000500253
0.000123062
0.000104671
0.000113815
0.000102012
9.95208e-05
0.000113744
0.000103257
9.24433e-05
0.0335169
0.0136291
0.0216582
9.35223e-05
0.000100182
0.000101844
0.00010009
0.000110646
0.0121278
9.75087e-05
0.000186673
9.64811e-05
9.71917e-05
0.000160457
9.4745e-05
9.41607e-05
9.85482e-05
9.43754e-05
0.000102994
0.0163488
0.000103598
0.000167598
0.000101157
0.000146338
0.000177367
9.89162e-05
0.000115366
0.000147334
0.000114877
9.959e-05
9.9385e-05
0.0133505
0.000107724
0.0231827
0.0174972
9.60555e-05
0.00010246
0.000125712
0.000101477
0.0391507
0.000107548
0.000323201
0.0277103
0.000101015
0.000100729
9.6398e-05
0.0143712
0.000516135
0.000110813
0.000136912
9.53085e-05
0.000119432
0.000114973
9.69675e-05
0.0101418
0.000141426
0.00010691
0.000309436
0.000109379
0.000113359
0.000101445
0.000106945
0.000110402
0.000102034
9.39858e-05
9.49565e-05
0.000117181
0.000100318
0.0195814
0.000104049
0.000107806
9.43817e-05
9.67145e-05
0.000134801
0.000118155
0.000104679
0.000154715
9.60249e-05
0.0159277
9.793e-05
0.000103954
0.00012142
0.000114184
0.000114831
0.00013779
0.000108803
0.000110887
9.89303e-05
9.94729e-05
0.010855
0.0135775
0.0176494
0.00151225
9.51301e-05
0.0297291
0.0236699
0.000100077
0.000114441
0.000573228
0.00997824
0.000100305
0.0222307
0.00495642
0.0177798
0.012911
0.000295005
9.64257e-05
0.0359925
0.00321045
0.00011609
0.000110631
0.0187355
0.000128181
0.000111181
0.000114678
9.46372e-05
0.000128214
0.000102223
0.000479373
0.000113976
0.000114726
0.000171906
0.000120832
0.00906867
0.000291856
0.000996352
0.000134649
0.000114862
0.000116354
0.00012887
0.00032985
0.000105876
0.000101809
0.0206051
0.000117822
0.00300358
0.0215489
9.56345e-05
0.0215047
0.000122611
0.0161849
0.028359
9.85457e-05
0.00011745
0.000102936
0.00011766
0.000106587
0.0283107
0.000105749
0.000108137
9.7235e-05
0.000111335
0.0107066
0.000105691
0.000147525
0.000137499
0.0301052
0.000338965
9.64802e-05
0.000303498
0.0601819
0.0160536
0.000425951
0.0283468
0.000102429
0.0505653
0.000112153
9.60979e-05
0.00021549
0.000110932
0.0266115
0.0239012
0.000270539
0.000149378
0.000107242
0.00771196
0.000110235
0.00011145
9.9377e-05
0.0123758
0.000110861
0.00013033
0.000137559
0.000128077
0.0285094
0.000134095
0.0143909
9.90035e-05
0.000150618
0.000222913
0.0116791
0.000112672
0.0490944
0.00402301
0.000267993
0.0197897
0.000220154
0.000647208
0.000129392
0.000229896
0.000109942
0.000178254
0.0388906
0.000106323
9.47904e-05
0.00018162
0.0302701
0.000199658
0.000124795
0.000113235
0.0173957
0.000105465
0.00011117
0.000106262
0.0280853
9.66909e-05
0.000119442
9.757e-05
9.92922e-05
0.000104907
0.0152262
0.000177124
0.000360904
0.0106536
0.000376313
0.000131292
9.44474e-05
0.000110208
0.000129321
0.000226886
0.000104836
0.000100249
0.0084402
9.88077e-05
0.019588
0.000107574
0.0424978
0.00012042
0.000109806
9.37831e-05
0.00038076
0.000134113
0.000109579
9.66955e-05
0.000125037
0.000655488
0.000147198
0.000719052
0.000108982
9.47023e-05
0.000124076
0.0530968
0.000128592
9.87085e-05
0.00185868
0.000103677
0.000143253
0.0236966
0.0262831
0.0001068
9.81778e-05
0.00010977
0.000104859
0.00254607
9.39149e-05
9.54991e-05
0.000106348
0.000267739
0.000100951
9.43711e-05
0.000405734
0.00011319
0.0823442
0.000325805
0.00352447
0.000188025
0.000104891
0.000134519
0.000103785
0.00011808
0.000100845
0.000100478
0.02822
0.000114563
0.00011461
0.000124909
0.000825745
0.000115054
0.0117826
0.00774402
0.000110311
0.00493459
0.0552988
9.53404e-05
0.000127775
0.000426404
9.8851e-05
9.95164e-05
0.000114996
0.000175958
9.41072e-05
9.27432e-05
0.000134388
0.000101955
0.000103229
0.000135524
0.000587665
0.0211187
9.5638e-05
0.0146259
0.0219355
0.000115719
0.0336051
9.37422e-05
0.0156074
0.00010296
0.000104743
0.000116033
0.000118665
0.000115169
0.00158202
0.000121261
0.000107511
0.000600767
0.00010853
0.00591003
0.000109799
0.000132965
0.00010488
0.000104216
9.66209e-05
9.25317e-05
0.000100564
0.000111362
0.0187751
0.000172308
9.83837e-05
0.00011067
0.000137145
0.000121596
0.000134791
0.0150373
0.0015576
0.0419315
0.000301739
9.88733e-05
0.00011922
0.000128605
9.41704e-05
0.000231077
0.000108922
0.000109879
0.0140603
0.00799896
0.000630416
0.000191825
0.000149224
0.000146597
0.000205185
0.0519327
9.84451e-05
0.000109274
0.000106286
0.0623979
0.0165672
0.000128138
0.000106716
0.000100204
0.000112295
0.000119647
0.000103195
0.000104302
9.46306e-05
0.0116608
0.0382957
0.000116547
0.0197532
9.36784e-05
0.0090699
0.021796
0.000105225
9.56598e-05
0.00012434
0.0003642
0.000112735
0.000117813
0.000855026
0.0110308
0.000122817
9.63803e-05
0.021364
0.000110452
9.14833e-05
0.0207459
0.0110803
0.000107056
0.0199141
0.0102888
0.0184914
0.000109761
0.000138967
9.95648e-05