/*--------------------------------*- C++ -*----------------------------------*\
| =========                 |                                                 |
| \\      /  F ield         | OpenFOAM: The Open Source CFD Toolbox           |
|  \\    /   O peration     | Version:  v2012                                 |
|   \\  /    A nd           | Website:  www.openfoam.com                      |
|    \\/     M anipulation  |                                                 |
\*---------------------------------------------------------------------------*/
FoamFile
{
    version     2.0;
    format      ascii;
    class       volVectorField;
    location    "200";
    object      U_0;
}
// * * * * * * * * * * * * * * * * * * * * * * * * * * * * * * * * * * * * * //

dimensions      [0 1 -1 0 0 0 0];


internalField   nonuniform List<vector> 
13726
(
(0.999239 0.00101874 -1.54862e-22)
(1.04788 0.0395706 4.46631e-21)
(0.758677 0.0687812 9.68197e-21)
(0.714807 0.0606549 6.64035e-21)
(1.00314 0.00484906 2.62872e-20)
(0.586012 0.033409 -7.75594e-22)
(1.06443 0.127108 0)
(1.06161 0.0504174 3.65328e-21)
(0.901065 0.0355168 -1.03198e-19)
(0.864019 0.0622682 -8.30935e-22)
(1.03568 0.0781213 0)
(0.455925 0.0273958 1.63055e-21)
(1.03438 0.0756126 -7.27083e-22)
(1.0464 0.0586452 -7.06998e-22)
(1.03077 0.0791653 -1.24777e-22)
(1.04896 0.0349909 1.32341e-21)
(1.04 0.0705355 0)
(0.593806 0.0163793 1.70084e-20)
(1.03229 0.0776478 0)
(0.96369 0.0202385 -9.75864e-21)
(0.865025 0.119024 1.63853e-20)
(0.983001 0.0147201 -9.53314e-21)
(1.00822 0.016945 6.17947e-21)
(1.02878 0.0999754 2.47596e-22)
(1.0318 0.0809736 -3.21015e-22)
(0.747878 0.0603925 0)
(0.979983 0.0376248 -3.22448e-20)
(0.981601 0.0375619 2.51513e-20)
(1.05555 0.0561472 8.25053e-21)
(0.998426 0.0821996 2.47413e-20)
(1.06168 0.0498714 -3.52927e-21)
(0.931195 0.00712979 0)
(0.841992 0.054794 -1.23818e-21)
(1.03225 0.0677064 6.6356e-23)
(1.03943 0.0573136 0)
(1.0312 0.0810671 5.48674e-23)
(1.00287 0.00458907 -7.3243e-21)
(0.992551 -0.00517906 -1.30903e-20)
(0.90565 0.0353095 2.9081e-20)
(0.627068 0.0181197 -1.78063e-20)
(0.999585 0.0807576 -8.0365e-21)
(1.04032 0.0479968 0)
(1.06281 0.0551192 7.81552e-21)
(1.00166 0.00453228 -7.0079e-21)
(1.00807 0.0390577 4.6583e-23)
(1.00503 0.00929309 0)
(1.04786 0.0387703 -4.94982e-21)
(1.06337 0.0688349 2.0262e-20)
(0.995781 0.061318 0)
(1.0241 0.0580097 -4.94025e-21)
(1.06744 0.0572674 3.778e-22)
(1.03429 0.0754204 0)
(1.05579 0.0552771 -1.12433e-20)
(0.999358 0.000856785 1.88407e-20)
(1.03684 0.0603388 0)
(0.995898 0.00684224 0)
(0.993162 -0.00518579 1.0637e-20)
(0.983252 0.0138013 -8.11963e-21)
(0.99612 0.0107222 0)
(0.980538 0.00549055 -2.21232e-20)
(1.00469 0.000785664 1.353e-20)
(1.01888 0.0148822 1.39787e-21)
(0.971371 0.055173 -1.36704e-20)
(1.02712 0.0997672 0)
(0.879982 0.129508 3.74402e-20)
(1.00828 0.0163505 -6.29588e-21)
(1.00021 0.000157772 -1.19585e-20)
(1.00146 0.0648177 1.35784e-20)
(1.03166 0.0677197 4.66267e-22)
(0.994568 0.0621817 0)
(0.991107 -0.00759246 0)
(0.733322 0.0651199 -1.29544e-21)
(1.02363 0.0588026 5.42912e-21)
(1.03708 0.0716266 -9.14639e-22)
(1.02732 0.0659149 -5.93028e-22)
(1.00234 0.0622221 0)
(1.00705 0.0147055 1.56851e-21)
(0.714755 0.0350348 -2.77196e-21)
(1.03126 0.0792124 0)
(1.02955 0.0876936 0)
(0.666124 0.0294116 2.15212e-21)
(0.575719 0.0452893 -9.37836e-22)
(1.01729 0.0349725 1.53104e-20)
(0.994716 0.00223965 7.7417e-21)
(1.06037 0.0513352 -2.00343e-20)
(1.04816 0.0745847 -7.92028e-21)
(1.00262 0.0639132 -9.79864e-21)
(0.833221 0.0542196 0)
(1.07295 0.0686418 -2.05159e-20)
(1.0447 0.0439169 0)
(0.952564 0.029501 -5.06585e-20)
(0.978461 -0.00395662 4.00346e-20)
(1.02434 0.0270173 0)
(0.987109 0.0222035 2.00157e-20)
(0.999849 0.00015131 0)
(1.05712 0.0731929 0)
(0.977308 -0.00432206 -3.7335e-20)
(0.996433 0.0824262 1.02128e-20)
(1.05755 0.0720143 1.44464e-20)
(1.04641 0.0882295 0)
(0.973246 0.05566 -1.4051e-20)
(0.837997 0.0607516 2.05482e-21)
(1.06113 0.0511965 1.04323e-20)
(0.990205 0.0150713 0)
(1.04013 0.0488403 0)
(1.03014 0.0531161 0)
(0.560525 0.0322838 -1.10409e-21)
(0.988144 0.0223277 8.06112e-21)
(1.01391 0.00136928 0)
(1.04973 0.0347004 0)
(1.00028 0.00309759 1.97529e-20)
(1.00722 0.0398587 8.25122e-21)
(1.00025 0.00235596 -2.70057e-20)
(1.0457 0.058641 0)
(0.96572 0.0204516 7.98545e-21)
(1.03023 0.0817439 -3.07979e-22)
(1.00036 0.000201335 -9.3959e-21)
(0.797283 0.0659904 0)
(0.976379 0.0480705 0)
(1.0708 0.127592 0)
(0.869773 0.111129 -3.50749e-20)
(1.05994 0.13125 3.74675e-21)
(1.06818 0.0575219 -8.13236e-21)
(1.02658 0.065917 -1.50512e-21)
(1.00285 0.00431796 0)
(1.00494 0.00061166 -1.37577e-20)
(1.0223 0.0361457 -7.13652e-21)
(0.923637 0.0686273 0)
(1.01681 0.035752 -8.55008e-21)
(0.730646 0.0351274 0)
(1.00046 0.00287127 1.38272e-20)
(1.0734 0.0681865 2.68109e-20)
(0.994599 -0.0012917 7.79308e-21)
(1.04641 0.0427451 0)
(1.02813 0.0648398 -9.57085e-22)
(1.00031 0.00294906 -1.51373e-20)
(1.01398 0.12675 -3.82996e-21)
(1.02139 0.0361118 -3.93421e-21)
(1.00115 0.0108159 -3.56718e-22)
(1.02446 0.0502683 -5.09827e-21)
(1.01554 0.0273857 -1.04954e-20)
(1.0017 0.00428308 0)
(1.04368 0.0755237 -3.93075e-22)
(0.994409 0.00252844 9.23628e-21)
(1.05262 0.0746769 4.10243e-21)
(1.00969 0.023578 1.3415e-20)
(1.04405 0.0677532 -5.27853e-21)
(1.03818 0.0581213 1.37929e-21)
(0.88628 0.126484 -6.03058e-20)
(1.0455 0.0335546 -2.29581e-21)
(1.02173 0.0880071 1.07977e-21)
(1.00031 0.00223832 1.36453e-20)
(0.977558 0.10704 2.67881e-20)
(1.0433 0.0755226 5.80094e-21)
(1.00195 0.00426521 1.44368e-20)
(0.949048 0.0852566 1.32435e-20)
(0.889947 0.0646154 3.99505e-20)
(1.02392 0.0265049 -2.53182e-21)
(0.979831 0.104829 -8.71116e-21)
(0.83972 0.0609848 2.20754e-21)
(1.04549 0.0437748 1.33612e-21)
(0.929121 0.0092616 -3.3862e-20)
(1.04063 0.0796568 -3.32439e-22)
(0.732509 0.0608111 -2.80671e-21)
(1.0333 0.0528259 0)
(1.0251 0.0344952 4.68337e-21)
(1.00813 0.00812913 0)
(0.99608 0.0137634 1.04325e-20)
(0.989595 0.0759421 1.8032e-20)
(1.00315 0.00515148 -2.24911e-20)
(0.990912 0.00203727 0)
(1.00852 0.0771162 -6.29441e-21)
(1.03678 0.0524343 -4.64319e-22)
(1.03647 0.0597307 5.57085e-22)
(1.04366 0.0449407 -5.50714e-21)
(0.997925 0.0463526 0)
(0.503634 0.00472302 2.52829e-20)
(1.14089 0.261759 -4.80514e-20)
(0.993854 0.0285657 0)
(0.918731 0.0683722 0)
(0.994928 0.0817497 -1.94052e-20)
(1.02071 0.0885754 0)
(0.822572 0.0660068 -9.49568e-21)
(0.809615 0.0665224 0)
(0.703854 0.0577585 -4.5689e-21)
(1.02559 0.0571989 0)
(0.536884 0.0341477 -1.72175e-21)
(1.0135 0.0472268 0)
(0.626474 0.0523697 -5.01772e-22)
(0.999942 0.0192893 3.21438e-20)
(1.04612 0.0625001 -6.78906e-21)
(1.01665 0.0283069 0)
(1.00169 0.0140398 2.42809e-20)
(0.982354 -0.000722503 -1.65441e-20)
(0.794641 0.0466321 -1.55955e-21)
(0.883695 0.0657691 -5.24357e-20)
(1.04541 0.0341904 0)
(0.789622 0.0579667 0)
(1.0106 0.0248149 7.16711e-21)
(1.02981 0.0523633 0)
(1.00346 0.0616004 -6.66605e-21)
(1.00055 0.00297201 -8.63651e-21)
(1.00755 0.0148067 -7.47983e-21)
(0.96819 0.0435203 -2.10811e-20)
(0.981954 0.00162045 0)
(0.969851 0.0421529 0)
(1.07321 0.0669655 -3.36812e-21)
(1.04411 0.0882197 2.06449e-21)
(0.998496 0.00589874 -2.02944e-20)
(0.834012 0.0517449 1.38008e-21)
(0.995685 0.0105504 1.09334e-20)
(0.735321 0.0616502 -1.46957e-20)
(1.03295 0.0536483 0)
(1.02817 0.0222624 -3.16076e-21)
(0.999776 0.00309202 -1.98425e-20)
(1.05321 0.0745095 -8.30987e-21)
(1.03409 0.0699058 -5.36652e-24)
(1.01584 0.0266528 0)
(1.03645 0.0754366 0)
(1.06334 0.0733925 1.05606e-21)
(1.0187 0.0165501 0)
(0.991257 0.00168467 -1.00777e-20)
(0.9788 0.101685 -8.96952e-21)
(1.00924 0.0406363 7.83308e-22)
(0.619535 0.0510712 -3.90673e-21)
(0.998319 0.0452582 -5.07265e-21)
(1.02262 0.0260513 0)
(1.04045 0.0794331 1.72274e-21)
(1.00094 0.0111534 -1.88344e-21)
(1.00972 0.101199 -2.42781e-21)
(0.854718 0.0665812 -2.67407e-21)
(0.88248 0.061038 2.21214e-21)
(0.851577 0.0549128 1.91751e-22)
(0.85813 0.0595443 -1.2233e-21)
(0.869194 0.0408596 4.71288e-20)
(1.1141 0.173293 1.28267e-20)
(1.00006 5.67412e-05 1.24493e-20)
(0.884306 0.0268041 5.13666e-20)
(0.999263 0.0192226 -2.61188e-20)
(0.569008 0.0398362 -1.36941e-21)
(0.999969 0.00029453 1.30395e-20)
(1.05524 0.0525336 4.46808e-21)
(0.999896 -0.00124531 -5.23835e-22)
(1.02864 0.0879567 0)
(0.827142 0.0571278 -9.44966e-23)
(0.871109 0.151714 4.27815e-20)
(1.03425 0.0693636 0)
(0.998757 0.00652615 -5.1042e-21)
(1.06056 0.0607275 0)
(1.00913 0.0393582 1.21433e-20)
(1.03958 0.0706297 0)
(0.812886 0.0600097 2.33178e-21)
(0.994572 0.00181879 1.48787e-20)
(1.04449 0.0447692 1.14028e-21)
(0.990779 -0.00714473 -1.37072e-21)
(1.06956 0.0927851 4.79179e-22)
(1.00294 0.00561067 0)
(1.04636 0.0619434 6.53591e-21)
(0.725742 0.0597738 0)
(0.998221 0.00577094 1.31173e-20)
(0.831415 0.0666397 -2.45965e-20)
(0.999052 0.00713289 1.22252e-20)
(0.988419 0.0234226 -3.0197e-20)
(1.0154 0.0260048 3.72887e-22)
(0.994122 -0.00130677 1.04081e-20)
(0.694947 0.0554335 -5.84664e-21)
(1.03247 0.0351692 3.25572e-21)
(1.0524 0.0545598 3.73217e-21)
(1.00142 0.100158 -1.4367e-20)
(1.02897 0.0835792 5.28945e-22)
(1.00182 0.0974648 -7.46019e-21)
(0.999905 -0.000939223 -3.00466e-23)
(1.02885 0.0841739 8.04944e-22)
(1.05679 0.0714411 -2.94437e-23)
(1.04426 0.0672365 4.22843e-21)
(1.02419 0.0346488 2.72387e-21)
(0.870488 0.126081 3.7278e-20)
(1.0223 0.0488378 0)
(1.07247 0.0666253 0)
(0.990005 0.0738034 1.50853e-20)
(0.996252 0.00716178 0)
(1.02298 0.0253612 0)
(1.02782 0.0655597 5.90888e-22)
(1.03313 0.0751049 0)
(1.01711 0.0930985 0)
(1.0669 0.0607659 1.33501e-20)
(0.887388 0.0240041 -4.65689e-23)
(1.02337 0.0654903 -3.36353e-21)
(1.03701 0.0757374 -1.67142e-21)
(0.705291 0.0287253 -5.47523e-23)
(1.03622 0.0722301 7.49785e-22)
(1.03188 0.0609388 0)
(0.857889 0.0494543 0)
(1.02309 0.02667 7.05254e-21)
(1.04016 0.0573276 1.26387e-22)
(0.762039 0.0672363 0)
(1.00026 0.000131169 6.86316e-21)
(1.0388 0.0772582 0)
(1.02092 0.0369647 0)
(0.713947 0.0625155 7.84167e-22)
(1.04766 0.0518047 -4.89029e-21)
(0.581472 0.0452232 -4.36935e-22)
(1.03453 0.0518956 0)
(0.816279 0.052608 -8.04297e-22)
(1.00013 0.0960442 1.71864e-20)
(1.05919 0.0524703 -1.72157e-20)
(1.00193 0.00397874 -1.31046e-20)
(0.99819 0.000838258 0)
(1.01336 0.0857184 0)
(1.02859 0.0148914 0)
(1.01906 0.0908727 0)
(1.00592 0.0784439 0)
(0.777995 0.0456879 8.63137e-22)
(1.02186 0.0589585 5.72944e-21)
(0.5906 0.0456061 0)
(0.867005 0.0668543 -8.13981e-21)
(1.03967 0.0349883 8.45477e-22)
(1.04758 0.0745552 0)
(0.999783 0.000199891 8.25435e-21)
(0.683987 0.0614958 0)
(0.984565 -0.00961475 -3.62414e-20)
(1.01484 0.085496 3.5816e-21)
(0.612264 0.0502278 -1.51311e-21)
(1.02372 0.0662343 -3.40589e-21)
(1.00507 0.00883484 0)
(0.953581 0.031202 3.70683e-20)
(0.845892 0.0672551 1.03072e-20)
(0.427398 0.0267403 -2.16674e-22)
(0.573654 0.0455843 2.01729e-21)
(1.00179 0.0103609 -1.18448e-20)
(0.98951 0.0235467 1.83566e-20)
(1.02624 0.0334102 -2.57229e-21)
(0.726563 0.0661489 0)
(0.99573 0.0155852 -3.30966e-22)
(0.9451 0.0846196 -1.21852e-20)
(1.05994 0.0603873 -3.90747e-21)
(1.01591 0.0282894 7.07559e-21)
(1.00761 0.0783435 0)
(0.87066 0.0348969 4.69284e-20)
(0.756505 0.0631305 0)
(0.965812 -0.0039893 0)
(0.998473 0.00637586 5.67791e-21)
(0.951227 0.234098 2.91553e-20)
(1.05771 0.0726664 7.7791e-21)
(1.05469 0.0520255 4.22603e-21)
(1.00866 0.150232 -5.09623e-20)
(1.00475 0.00810277 -2.29968e-21)
(0.708697 0.0546584 6.77531e-21)
(1.01477 0.0273611 6.21691e-21)
(0.995411 0.0135469 0)
(0.981005 0.00625671 -2.20233e-20)
(0.838819 0.0663946 1.71623e-20)
(1.02676 0.044055 0)
(0.992041 -0.00181241 0)
(0.994242 0.0292854 0)
(1.04078 0.0569539 4.41421e-21)
(1.00935 0.103534 0)
(1.03662 0.0757568 1.17416e-21)
(0.643435 0.0524623 -5.98528e-22)
(1.00413 0.0165068 1.15402e-20)
(1.05482 0.0563392 3.29444e-21)
(1.06001 0.0524322 1.93005e-20)
(1.06345 0.095463 7.47442e-21)
(1.03104 0.102813 1.12554e-21)
(0.999902 0.00299502 1.37833e-20)
(0.982966 0.00188376 -1.16724e-21)
(1.03003 0.0732491 0)
(1.01092 0.0772796 6.68208e-22)
(0.967671 0.0653259 2.1898e-21)
(1.04235 0.0766665 0)
(0.966669 0.0220182 -2.84964e-22)
(1.04893 0.0643186 6.34537e-21)
(1.03179 0.0349827 -1.1263e-21)
(1.04695 0.0518236 5.08683e-21)
(0.96589 -0.00540785 0)
(0.873033 0.0640716 0)
(1.02844 0.0167924 -2.75911e-21)
(1.07425 0.0961155 0)
(1.04943 0.0641358 0)
(0.637469 0.0525935 6.72228e-22)
(1.02047 0.0904484 1.21929e-21)
(0.792587 0.0649189 7.35936e-21)
(1.05777 0.0558064 6.52674e-21)
(1.00472 0.00852353 0)
(1.03668 0.0715724 0)
(1.03688 0.059013 -4.30458e-22)
(0.907841 0.0623418 0)
(0.798525 0.0470259 -3.85894e-22)
(1.01018 0.0408544 -7.91824e-21)
(1.0003 0.00252623 7.89196e-21)
(0.980843 0.00793704 0)
(1.00163 0.0108256 0)
(0.834056 0.123338 0)
(1.04258 0.046045 -4.31715e-21)
(1.04101 0.0563668 -4.57151e-21)
(0.959211 0.105648 0)
(0.857668 0.0494527 2.86147e-21)
(1.06986 0.112875 0)
(1.02517 0.0580356 0)
(1.05381 0.0422224 4.38178e-22)
(1.02917 0.102874 -6.17843e-22)
(1.02788 0.0140506 0)
(1.03426 0.0527527 0)
(1.00552 0.0484137 -5.80953e-21)
(1.02329 0.0489701 0)
(1.06191 0.0939279 0)
(0.825674 0.0608926 2.928e-21)
(1.0466 0.0672949 0)
(1.06336 0.0557434 -1.65488e-20)
(1.01051 0.0600783 9.07318e-21)
(0.688453 0.0449785 0)
(1.04041 0.0347898 1.26369e-21)
(0.87148 0.142451 -8.59896e-20)
(0.994079 0.048628 1.5592e-20)
(1.01246 0.0983834 -7.09856e-21)
(0.999777 0.00333304 1.33759e-20)
(1.03743 0.076963 0)
(1.00213 0.0138685 -1.66557e-20)
(1.02625 0.0434022 1.32619e-21)
(0.99697 0.0153338 -4.99324e-21)
(1.0031 0.0143352 -2.70249e-21)
(1.04441 0.0523989 2.50339e-21)
(1.02842 0.0142407 0)
(0.999949 0.000409575 1.71732e-20)
(0.867113 0.0241347 0)
(0.976595 0.0185116 -1.14258e-20)
(0.988383 0.0600219 -1.8284e-20)
(0.907727 0.0398493 7.88271e-22)
(0.475058 0.0307322 -2.6876e-21)
(1.01795 0.0093499 9.57503e-21)
(0.954116 0.0958857 9.53622e-22)
(1.01952 0.0148974 4.21522e-21)
(1.04832 0.0506924 8.97072e-21)
(1.01 0.00108052 -9.59968e-21)
(0.784396 0.0673749 -3.75422e-21)
(0.999873 -0.000435901 0)
(0.984081 0.00964772 1.80652e-20)
(0.999099 0.000968358 0)
(0.815408 0.0596168 -2.26649e-21)
(0.632539 0.0523637 -5.72288e-22)
(0.975474 0.0190013 0)
(0.998756 0.0469501 -7.39446e-21)
(0.983993 0.00809575 0)
(1.00446 0.0730038 -1.23305e-20)
(0.974343 0.0477114 0)
(1.02002 0.0369782 -8.37966e-21)
(1.06352 0.0692977 -5.71542e-21)
(0.583787 0.0401608 8.72751e-22)
(1.05215 0.0434719 -8.13642e-21)
(1.05829 0.0736502 0)
(1.0029 0.0333436 -1.67958e-21)
(1.08776 0.117861 -2.99928e-22)
(1.12925 0.258846 0)
(1.00255 0.0144539 1.26057e-20)
(1.01877 0.0926151 -3.81849e-22)
(1.03482 0.0749646 -1.28148e-21)
(1.00679 0.0363932 1.23431e-20)
(1.01128 0.0422846 6.27982e-21)
(1.0531 0.0423504 4.44105e-21)
(1.03156 0.0602765 -9.78178e-22)
(0.995153 0.00973048 0)
(1.00973 0.00140283 0)
(1.1239 0.163203 -3.4576e-20)
(0.912066 0.0399865 6.26037e-20)
(0.826522 0.131678 0)
(0.889026 0.0597896 0)
(1.00126 0.00309349 0)
(1.03091 0.0849413 0)
(1.00369 0.000976509 0)
(0.652632 0.0529137 1.51632e-21)
(0.991972 -0.00134483 -4.18771e-21)
(1.01975 0.00894111 5.14022e-21)
(1.05713 0.0708772 -6.7166e-21)
(0.707448 0.0627812 -4.69853e-21)
(1.03083 0.0817471 5.78847e-23)
(1.03496 0.0728466 3.33771e-22)
(1.03479 0.0747776 1.69196e-21)
(1.00625 0.0393895 8.44482e-21)
(1.03792 0.0560821 -1.09976e-21)
(1.06195 0.0553711 0)
(1.02158 0.0159114 -6.16233e-21)
(0.999417 0.00773433 -2.04594e-22)
(1.01246 0.0468383 0)
(0.4655 0.0314824 0)
(1.00262 0.037792 8.60715e-21)
(1.03065 0.0684817 0)
(1.02794 0.0165157 0)
(0.920411 0.0630049 0)
(0.869365 0.225052 -1.34519e-20)
(1.03717 0.0758697 0)
(0.766422 0.0609102 3.8723e-21)
(0.998272 -0.00122831 2.14096e-20)
(1.01004 0.0768464 2.32507e-21)
(0.815668 0.0403731 0)
(1.01813 0.0981647 -4.5437e-21)
(0.973948 0.0454161 0)
(1.0315 0.0465779 -2.61822e-21)
(0.993911 -0.000961953 5.3644e-21)
(1.01788 0.00702964 -1.02706e-20)
(1.0031 0.0368872 -8.15025e-21)
(1.06163 0.104051 3.91846e-22)
(0.895237 0.131042 3.62007e-20)
(0.969514 0.0636051 1.24635e-20)
(1.01961 0.0360565 6.54838e-21)
(0.99567 0.009886 -8.98493e-21)
(0.977789 0.0711137 0)
(1.00564 0.0199455 0)
(1.0282 0.0228293 3.84856e-21)
(1.05802 0.053418 6.51823e-21)
(0.692086 0.0592492 5.60292e-21)
(1.0182 0.0350472 -1.21242e-20)
(1.04364 0.0358598 1.29054e-21)
(1.01401 0.00041835 7.75606e-21)
(0.999893 0.00272142 2.08345e-21)
(0.995411 0.00694061 -9.23344e-21)
(1.00644 0.0477716 -3.01194e-21)
(1.01509 0.000747272 9.09824e-21)
(0.996165 0.0143864 -1.1699e-20)
(0.57889 0.0448398 -3.1963e-22)
(0.996714 0.00696439 0)
(1.02275 0.0590979 -6.28777e-21)
(1.02096 0.0160188 -6.79014e-21)
(0.89504 0.0654338 0)
(0.998746 0.00699209 -6.51148e-21)
(0.983486 0.00892902 1.99124e-20)
(1.06271 0.0727775 0)
(0.980593 -0.00283413 0)
(1.04015 0.0700912 1.52419e-21)
(0.869724 0.209844 2.28724e-20)
(0.917095 0.0101598 2.8327e-20)
(1.04125 0.0762592 0)
(1.00988 0.0245784 0)
(1.02249 0.024747 0)
(0.880295 0.0601826 4.79726e-23)
(0.635807 0.0512861 3.13833e-21)
(0.521517 0.0300521 3.2546e-21)
(0.444594 0.0273064 0)
(1.00001 0.000350664 1.66086e-20)
(1.04815 0.0513596 -1.04041e-20)
(0.999983 0.0026201 1.06475e-21)
(0.993951 0.00259163 0)
(1.03221 0.077685 0)
(0.574134 0.031843 0)
(1.04217 0.0555789 1.20147e-21)
(0.999998 0.000267205 -1.51036e-20)
(1.01037 0.00853004 0)
(0.998231 0.0095013 -1.53603e-20)
(1.04658 0.0421752 3.55645e-21)
(0.965066 0.00969954 -2.05971e-20)
(0.961598 0.0709563 -9.88902e-21)
(1.00886 0.022491 8.5089e-21)
(1.06802 0.104366 5.04765e-21)
(1.0365 0.0610323 5.99411e-22)
(1.04298 0.0641211 -3.20794e-21)
(0.967452 -0.0026895 -2.70026e-20)
(1.05285 0.0433451 3.51511e-21)
(0.977167 0.0497953 1.98534e-20)
(0.690535 0.0602963 -3.23092e-22)
(0.998404 0.000953858 1.34852e-21)
(0.983707 0.0105031 -1.84516e-20)
(1.04227 0.0262212 1.75355e-21)
(0.558403 0.034135 1.00736e-22)
(0.995112 0.0494191 -1.83426e-21)
(1.06392 0.0681564 -1.24869e-20)
(0.953484 0.093344 0)
(0.702377 0.0333481 3.38491e-21)
(1.03129 0.0685071 -4.45809e-22)
(1.02279 0.0337252 -7.48302e-21)
(1.01704 0.0721397 1.68653e-21)
(0.564561 0.0444824 -3.00054e-22)
(1.00533 0.0799114 -5.82286e-21)
(0.941741 0.226962 -2.22472e-20)
(0.995802 0.0315353 -1.81987e-20)
(1.04406 0.0517836 7.15704e-22)
(1.04248 0.0642486 0)
(1.01191 0.100492 7.03652e-21)
(0.930426 0.0681646 1.1135e-20)
(0.996954 0.00942885 -1.72047e-20)
(1.01905 0.0161537 0)
(1.00026 0.00201055 1.51665e-20)
(1.01815 0.00892267 -4.30175e-21)
(0.9826 0.0105263 -2.07221e-20)
(0.826875 0.066401 0)
(1.04353 0.0367145 1.94995e-21)
(1.03463 0.0332908 1.16353e-21)
(0.991448 0.00927472 0)
(1.00046 0.000238352 -1.5498e-20)
(1.0119 0.0402195 2.86435e-21)
(1.10428 0.148 3.66007e-20)
(1.03629 0.0719098 -6.57636e-23)
(0.788232 0.0479506 4.36087e-20)
(1.0107 0.0608983 0)
(1.04952 0.0496981 0)
(1.03568 0.0772872 1.55198e-21)
(1.00897 0.0584007 0)
(0.975422 0.100501 0)
(0.978838 0.0303809 0)
(0.98464 0.037241 0)
(0.865943 0.0626611 1.82789e-21)
(0.999564 0.00107102 2.87145e-22)
(0.932393 0.0690987 0)
(1.00032 0.00013296 1.39217e-20)
(0.977905 0.0296256 0)
(1.04215 0.0255837 -1.9601e-21)
(0.857062 0.0593173 6.44013e-22)
(0.714112 0.0343458 -1.54051e-20)
(0.994317 0.0756338 1.11577e-20)
(0.997044 0.00725398 9.27542e-22)
(1.06108 0.0743102 1.39185e-20)
(0.999915 -0.000534879 3.0432e-20)
(1.01663 0.0710516 1.62885e-22)
(1.00986 0.0576852 -3.3218e-21)
(1.00174 0.00348993 1.8076e-20)
(0.971355 0.00215261 -9.82129e-21)
(0.999859 -5.11281e-05 0)
(1.0226 0.0387086 6.07394e-21)
(1.00003 0.000551185 -1.47972e-20)
(1.04341 0.0458755 4.12437e-21)
(1.03069 0.0785602 -8.08847e-23)
(1.00822 0.00694328 -3.49555e-21)
(0.981627 0.000688224 -9.49587e-21)
(1.03097 0.0532913 0)
(0.993957 -0.0105451 -2.35249e-20)
(1.03101 0.0804263 1.99046e-23)
(0.812716 0.0446549 -6.09002e-21)
(0.514083 0.00730871 0)
(1.03594 0.0524845 6.05215e-23)
(1.00213 0.00365448 -3.60998e-21)
(1.02687 0.0340533 -2.6482e-21)
(1.03962 0.0473724 -1.885e-21)
(1.0433 0.0547325 0)
(1.02085 0.0700189 0)
(0.417423 0.0210025 0)
(1.01081 0.00870196 0)
(0.632791 0.0462455 4.51355e-22)
(1.05693 0.0726649 -7.75115e-21)
(0.967094 -0.00178108 2.19469e-20)
(1.01777 0.0084233 -1.25247e-20)
(0.990954 0.0148273 0)
(0.710568 0.0457683 -4.03294e-22)
(0.999965 -0.000276102 1.28355e-20)
(0.970058 0.00175602 4.7715e-22)
(0.999759 -0.00203946 0)
(1.00538 0.00961585 -2.18403e-20)
(0.982498 4.99957e-05 2.60085e-20)
(1.02651 0.0905538 -3.51025e-22)
(1.02052 0.0154774 0)
(1.06766 0.0605261 0)
(1.03532 0.0799119 -1.00624e-21)
(0.999468 0.000897998 -2.65723e-20)
(1.00349 0.00577097 -1.94521e-21)
(0.994898 0.00896033 0)
(1.06209 0.0738818 -1.7801e-20)
(0.984046 0.0387595 0)
(0.872567 0.0542606 -5.2872e-21)
(1.02857 0.0768471 3.14272e-22)
(0.998524 -0.00121406 -1.0257e-20)
(1.04427 0.0776955 3.14476e-21)
(0.676986 0.0607553 5.91808e-21)
(1.04927 0.0504906 1.36699e-21)
(1.03226 0.0384553 -1.24648e-21)
(1.00825 0.0222821 -8.08339e-21)
(0.952055 0.0586619 2.34272e-20)
(1.01936 0.00021299 0)
(1.00796 0.00762801 -3.76899e-21)
(0.912883 0.067559 0)
(0.775232 0.0414745 0)
(1.05882 0.0534257 6.9598e-21)
(1.01271 0.123778 -5.55171e-21)
(1.05502 0.0511815 -9.12642e-21)
(0.95116 0.0699922 4.12702e-21)
(0.996619 0.00289828 1.44952e-20)
(0.78455 0.0608646 6.19478e-22)
(0.99408 0.0735359 0)
(1.06186 0.0728003 8.75313e-21)
(0.993619 0.00235309 0)
(0.964885 -0.0115542 0)
(1.04507 0.0329478 0)
(0.999091 0.00758467 0)
(1.05488 0.129812 -3.78514e-21)
(1.0386 0.0360776 7.77508e-22)
(0.989611 0.0612361 1.07628e-20)
(0.98784 0.0415712 1.73583e-20)
(1.01187 0.130136 3.5254e-21)
(1.06513 0.0672083 1.0877e-21)
(0.982963 0.0041737 0)
(0.986748 0.147695 -9.76181e-21)
(0.555367 0.034592 1.76496e-21)
(0.83076 0.049567 3.18912e-21)
(1.05035 0.0641443 6.63535e-21)
(0.901904 0.126743 -2.9526e-20)
(0.995139 0.00861289 0)
(0.634755 0.0290493 0)
(1.00639 0.00901125 1.0091e-20)
(1.06266 0.0468625 6.43105e-21)
(0.999978 0.00240247 -1.07544e-21)
(1.01767 0.000418766 0)
(1.02838 0.076473 1.10783e-21)
(0.978999 0.01806 2.43085e-20)
(0.949965 0.0631451 4.91476e-22)
(1.06783 0.0935575 -1.73219e-20)
(1.03888 0.182813 0)
(0.997719 0.00135971 7.83399e-21)
(0.923405 0.0103095 4.33868e-20)
(1.02779 0.0767206 0)
(1.01865 0.0360178 1.26234e-20)
(1.02014 0.0597739 -3.89786e-22)
(0.838135 0.0662276 0)
(1.00412 0.0145221 -1.27058e-20)
(0.97979 -0.00106321 0)
(0.835265 0.0592172 0)
(0.996715 0.00228633 2.34826e-20)
(0.998405 0.00121575 2.57346e-21)
(1.04231 0.0468771 3.7153e-21)
(0.888367 0.0639567 2.07825e-21)
(0.999869 -0.000590074 -2.87614e-20)
(1.04702 0.0749125 0)
(1.0133 0.0012284 -4.89545e-21)
(1.02202 0.0164161 1.38163e-20)
(1.05652 0.0551585 3.30604e-21)
(0.986298 -0.00433811 3.57394e-20)
(1.05809 0.106721 0)
(1.08237 0.161328 -1.37307e-20)
(1.00583 0.0360147 0)
(1.03816 0.0286325 5.12403e-22)
(0.997946 0.00128854 -1.75702e-20)
(1.04145 0.0470375 2.2679e-21)
(1.00304 0.0176103 0)
(0.995143 0.0307731 0)
(1.00901 0.0233336 0)
(1.04099 0.0763444 -2.77685e-21)
(0.959476 0.000963775 0)
(0.95916 -0.000888692 0)
(1.05445 0.0505529 0)
(0.534452 0.0205121 -1.99874e-20)
(1.07523 0.131902 6.81758e-21)
(0.989535 0.0264919 0)
(0.983842 0.0359774 2.83925e-20)
(0.864869 0.101946 -1.6544e-20)
(1.06813 0.0520166 6.74921e-21)
(0.798067 0.0544186 0)
(1.04742 0.0613403 5.08429e-21)
(1.03928 0.0626886 -2.49518e-21)
(1.03385 0.0437176 6.10505e-22)
(0.454004 0.0138121 0)
(1.03565 0.0791181 0)
(1.03704 0.0720244 -1.36334e-21)
(0.95807 0.110591 0)
(1.00158 0.003273 1.83294e-20)
(0.842215 0.0662718 0)
(0.978962 0.0172694 8.019e-21)
(1.00008 8.81039e-05 0)
(0.984556 0.0180085 4.12893e-20)
(1.0186 0.015377 -1.77717e-21)
(1.00589 0.000870414 0)
(0.828471 0.0586454 1.19726e-21)
(1.03869 0.0626571 2.03424e-21)
(0.999989 -0.000154369 -1.32327e-20)
(1.02279 0.0157714 -2.85794e-21)
(1.01186 0.00205591 6.22018e-22)
(0.997191 0.0443104 -1.77958e-20)
(0.963118 -0.0112457 0)
(0.991094 0.0717944 1.06008e-21)
(1.03466 0.0202145 0)
(1.03397 0.0432491 1.23869e-21)
(1.02368 0.0336918 -1.33776e-21)
(1.00139 0.00266099 -1.87309e-21)
(0.992059 0.0116808 0)
(0.935254 0.0671203 -7.56517e-22)
(1.02021 0.00897432 -2.94025e-21)
(1.03915 0.075533 -4.7508e-21)
(1.04187 0.0562773 0)
(1.00609 0.00874887 0)
(0.998619 0.00129775 0)
(0.979812 -0.00244914 0)
(0.99069 0.0265178 1.80119e-20)
(1.02045 0.0709095 1.15022e-21)
(0.725613 0.031517 2.43823e-20)
(1.02939 0.0639938 -2.41583e-21)
(1.06069 0.0721144 -8.39901e-21)
(1.04452 0.0592857 0)
(1.05281 0.0642029 -6.37591e-21)
(1.01177 0.062412 7.60139e-21)
(0.995304 0.0128378 1.05414e-20)
(1.07826 0.099127 -3.27548e-21)
(0.997363 0.096183 1.29426e-20)
(1.03591 0.0477987 1.42578e-23)
(0.999476 0.00820184 2.09462e-22)
(1.02886 0.0522544 -3.2717e-21)
(1.07803 0.113391 0)
(0.661939 0.0474508 0)
(0.999908 0.002081 -1.07855e-21)
(0.969528 1.68916e-05 2.99196e-20)
(0.582266 0.0370965 -1.93497e-21)
(1.00368 0.0597774 -8.89882e-22)
(1.02362 0.0849242 4.28748e-21)
(0.960515 0.0769866 2.56792e-20)
(1.03572 0.076877 1.71723e-21)
(1.02354 0.0501577 5.31024e-21)
(0.999997 0.000292199 -1.13301e-20)
(1.02505 0.0495595 8.1413e-21)
(1.0433 0.0772091 -3.28998e-21)
(0.985587 -0.00589317 2.59997e-20)
(0.999924 -3.39962e-05 3.05892e-20)
(1.02353 0.0837593 -3.63876e-21)
(0.983469 0.0840441 -8.71574e-21)
(1.00142 0.00330364 -1.47965e-20)
(0.779369 0.229573 9.52364e-20)
(0.999664 -0.00222274 0)
(0.999787 -0.000539205 0)
(0.98538 0.0829863 5.92057e-21)
(1.02679 0.0978685 0)
(0.968627 0.0220033 -1.74175e-20)
(0.641873 0.0527326 -3.87108e-22)
(1.03661 0.0569371 0)
(0.991821 0.0121057 0)
(1.02576 0.0350801 -5.29863e-21)
(1.0383 0.0566833 -2.47707e-21)
(0.993776 0.0043119 0)
(0.997316 -0.00290923 0)
(0.995451 -0.000223678 -1.45055e-20)
(0.988225 0.0122106 -9.20887e-21)
(1.03591 0.0800231 0)
(0.999913 -0.000790818 1.40618e-20)
(1.00415 0.0139122 1.99459e-20)
(1.04607 0.0675301 0)
(1.05295 0.0706148 -4.81932e-21)
(0.864907 0.0297854 5.48641e-20)
(1.02537 0.0335663 0)
(0.899158 0.109628 9.62205e-20)
(0.997403 0.00964239 3.27827e-20)
(1.03504 0.0687733 -3.36454e-22)
(0.998768 0.00361614 0)
(1.02822 0.0151199 -2.31494e-21)
(1.00317 0.000801458 0)
(1.00003 5.66693e-05 7.07216e-24)
(0.985617 -0.00482798 -2.97603e-20)
(1.05475 0.062581 0)
(1.01037 0.016747 8.21436e-21)
(1.01428 0.00102839 4.04721e-21)
(0.945724 0.0436364 1.7384e-20)
(0.527456 0.0314439 1.42254e-21)
(1.05461 0.0629368 0)
(1.04359 0.0751582 -3.68235e-21)
(1.02863 0.0462031 0)
(1.01408 0.0149678 -4.68547e-21)
(0.990906 0.0293666 1.13651e-20)
(1.02873 0.0752339 1.93362e-21)
(0.96326 0.0770036 0)
(0.994945 0.00145977 -1.35844e-22)
(0.972025 0.0450628 5.99662e-21)
(1.08894 0.113552 1.75886e-20)
(0.931871 0.0682583 5.23148e-21)
(1.03333 0.0747985 -6.81043e-22)
(1.05266 0.0710565 -5.94196e-23)
(0.954471 0.0576015 -4.06085e-20)
(0.966275 -0.0101195 -2.839e-20)
(0.982594 0.00334483 2.00088e-20)
(1.13771 0.284034 6.64159e-20)
(0.732101 0.0628757 -6.41353e-21)
(0.963507 0.00893323 3.48426e-20)
(1.00325 0.000578219 0)
(1.02041 0.00849311 9.67129e-21)
(1.02681 0.0918948 4.71124e-22)
(1.03895 0.0581645 -1.14558e-21)
(1.02786 0.0134688 0)
(1.02086 0.00853904 -5.47988e-21)
(0.949123 0.0659 4.46601e-22)
(1.0533 0.0641122 -9.34744e-22)
(1.01087 0.0876309 1.16511e-20)
(0.996474 0.00261681 -7.35505e-21)
(0.986758 0.0408033 0)
(0.699121 0.0545553 0)
(0.993436 -0.0106685 4.70407e-20)
(1.04015 0.0850827 -2.98709e-21)
(1.02126 0.0298196 3.68029e-21)
(0.992138 0.00919441 -2.97583e-21)
(1.03942 0.035946 -1.78477e-21)
(0.980761 0.0123386 -3.50607e-20)
(1.00002 0.000375766 2.16986e-20)
(0.946726 0.0410197 -6.16069e-20)
(1.0219 0.0296413 0)
(0.994282 0.0202757 0)
(0.916777 0.0673331 2.62217e-21)
(0.591652 0.0464341 -1.71269e-22)
(0.991673 0.0183765 -1.42285e-22)
(1.01012 0.0741595 -7.45167e-21)
(0.99344 0.0201181 1.07897e-20)
(0.94682 0.00515282 3.42558e-22)
(1.0352 0.0766577 -1.99319e-21)
(1.06783 0.0543003 -2.17129e-20)
(0.780542 0.0471542 0)
(1.01081 0.0156477 5.19002e-21)
(0.980574 -0.000623095 0)
(1.00609 0.0127633 0)
(1.01799 0.0079666 1.47948e-20)
(1.0029 0.00524629 7.61635e-21)
(1.02734 0.0131197 9.84574e-22)
(0.991547 0.0415762 1.35224e-20)
(0.988462 0.0114945 2.79878e-20)
(0.532021 0.0340077 0)
(0.682165 0.0556408 6.47015e-21)
(0.999895 0.00230134 1.0962e-21)
(1.03698 0.0575955 7.842e-22)
(1.01434 0.0468801 0)
(0.913908 0.000285689 0)
(1.00391 0.0329199 3.67384e-22)
(1.02927 0.0464429 2.1144e-22)
(1.00441 0.00779901 1.13888e-20)
(0.629812 0.050595 1.82379e-21)
(1.00026 0.00382842 -4.70298e-21)
(0.999996 -0.000210329 -1.08995e-22)
(1.03416 0.0326782 -2.71361e-21)
(0.950961 0.0877238 0)
(1.0254 0.00855535 1.83969e-21)
(0.604287 0.0498837 0)
(0.839786 0.0606544 -3.73487e-21)
(1.00913 0.00104838 0)
(1.05407 0.0646489 -4.27175e-21)
(1.03414 0.0205968 0)
(0.998571 0.0307453 0)
(0.992076 -0.00550866 2.24692e-20)
(0.701026 0.0577462 -5.41109e-21)
(1.02364 0.00802959 -3.5753e-21)
(1.04453 0.0742651 3.69281e-21)
(1.00359 0.00428156 0)
(0.999991 0.000262541 -2.1712e-20)
(1.02849 0.0556362 9.17633e-22)
(1.01609 0.000992836 4.26582e-21)
(1.00863 0.00095113 0)
(0.998801 0.00417055 5.52907e-21)
(0.997474 -0.00309368 -3.47841e-21)
(0.779625 0.0578852 3.33594e-22)
(1.03838 0.0553571 1.684e-21)
(1.02347 0.0386961 -2.03978e-21)
(0.999954 -0.000369688 1.32684e-20)
(1.05372 0.0536495 1.36851e-20)
(0.996576 0.00200325 -1.89269e-20)
(1.02114 0.0599273 -9.08247e-21)
(0.91571 0.0621182 0)
(0.999874 -0.00107249 -1.37105e-20)
(1.05203 0.0539527 0)
(1.02334 0.0157476 3.09449e-21)
(1.13552 0.193526 0)
(0.987988 -0.0105778 -1.43584e-21)
(0.893376 0.0649241 -4.0617e-21)
(0.864284 0.0626118 -2.20939e-21)
(0.998343 0.0317639 0)
(0.944704 0.00424634 -5.76002e-20)
(0.929757 -0.0157607 3.3922e-20)
(1.0136 0.0588601 0)
(0.993666 -0.0045634 -5.05309e-22)
(1.0066 0.0142275 -1.14235e-20)
(0.916546 0.0126099 -3.37942e-20)
(1.00268 0.0340823 8.82795e-21)
(1.00332 0.0349713 0)
(1.00662 0.0137224 2.6009e-21)
(0.983554 0.00733037 2.57155e-21)
(1.04145 0.0384657 -4.65057e-22)
(1.0049 0.0596375 0)
(0.997799 0.00931446 -1.56023e-20)
(1.00003 0.00071746 -1.6068e-20)
(1.0119 0.061594 -6.14652e-21)
(0.930182 0.0784923 -1.59522e-20)
(1.00245 0.00551214 0)
(1.03279 0.0248265 2.90921e-21)
(0.685304 0.0328219 -2.2397e-20)
(1.01764 0.0074404 2.34527e-21)
(0.991679 0.0178166 -1.5632e-20)
(1.00703 0.00678954 7.7433e-21)
(1.03542 0.0471506 4.69122e-24)