/*--------------------------------*- C++ -*----------------------------------*\
| =========                 |                                                 |
| \\      /  F ield         | OpenFOAM: The Open Source CFD Toolbox           |
|  \\    /   O peration     | Version:  v2012                                 |
|   \\  /    A nd           | Website:  www.openfoam.com                      |
|    \\/     M anipulation  |                                                 |
\*---------------------------------------------------------------------------*/
FoamFile
{
    version     2.0;
    format      ascii;
    class       volScalarField;
    location    "250";
    object      k_0;
}
// * * * * * * * * * * * * * * * * * * * * * * * * * * * * * * * * * * * * * //

dimensions      [0 2 -2 0 0 0 0];


internalField   nonuniform List<scalar> 
13917
(
0.000111722
0.00010683
0.0423426
9.18961e-05
0.000131324
0.00300262
0.0414796
0.043623
0.0579355
0.000134846
0.000219819
0.000113612
9.16464e-05
0.0141805
0.000108674
0.000107491
0.000107674
0.000112259
0.000112707
0.000132309
0.000146503
0.0413336
0.000130293
0.0418347
0.000121272
0.0386546
0.000129851
0.000156534
0.0121566
0.000162118
0.000112431
0.000105008
0.00011934
0.000110513
0.000121807
0.00316241
0.000131053
0.0375887
9.25788e-05
0.0167224
0.000112842
0.000148498
9.56555e-05
0.000251952
0.000100931
0.000111061
0.000111447
0.00012121
0.0368046
0.000124959
9.81503e-05
0.000114275
0.0356892
0.000110593
0.000107798
0.000100511
0.000216619
0.000114445
0.000100809
0.000101109
0.0738968
0.000106537
0.0116973
0.000131263
0.00245112
0.0609216
0.000130895
0.000122896
0.000235656
0.000110952
0.000132203
0.0557143
0.0458223
0.000122192
0.0375743
0.000121688
0.0316378
9.93785e-05
0.0360938
0.000143531
0.000140243
0.000131634
0.0021523
0.0404581
0.109192
9.92887e-05
0.000138107
0.0496919
9.80038e-05
9.50079e-05
0.0453129
0.000154396
0.00010562
0.000110235
0.0571839
0.00263375
0.000165917
0.000117604
0.000187884
0.000393604
0.000109751
0.000115627
0.000256045
9.79012e-05
0.00010675
0.0566263
0.00305136
0.000124125
0.000107284
0.000115376
0.067643
0.0176471
0.000128791
0.0579043
0.000112129
0.0371807
0.000122831
0.0263436
0.0223256
0.000110587
0.000147311
0.000228865
0.0247585
0.000150875
0.000120152
0.000110481
0.000102567
0.000120432
9.7649e-05
0.00309739
0.0333351
0.000112308
0.000101048
0.000147338
0.00512526
0.0410295
0.000112276
0.000412017
0.000130131
0.00011062
0.00125928
0.000101879
0.000112633
0.000335257
0.000122438
0.0446305
0.0135957
0.000114617
0.000101566
0.000105581
0.000110038
0.0374037
0.000131988
0.000119275
0.000102644
0.122065
0.00011025
0.00758292
0.0281604
0.00542163
0.000110138
0.000129694
0.000143522
0.000159779
0.000127404
0.000183661
9.7956e-05
0.000113252
0.000101765
0.00011618
0.000118105
0.0494807
0.000135031
0.000107041
0.0336795
0.000125835
0.0348704
0.0322353
0.0404638
0.000110327
0.000158041
0.000113199
0.000101446
0.000137228
0.000111037
0.0384887
0.000632487
0.127775
0.000104292
0.000170984
0.00134446
0.115378
0.000602318
0.000131094
0.000439032
0.000127751
0.000109002
0.000105458
0.000982503
0.0460313
9.57018e-05
0.000125482
0.000110262
0.00010947
0.0411213
0.00282781
0.000122355
0.000113786
0.000116409
0.0399133
0.000113135
0.0420723
0.032362
0.000171632
0.000107408
0.00537693
0.000111333
0.0434657
0.000118539
0.0575608
0.000110927
0.000147979
0.000113461
0.0409795
0.0581277
0.000107419
0.0315101
0.0001026
0.000107585
0.0025865
0.000133829
0.000103955
0.0401763
0.0279057
0.00010738
0.000105036
0.049026
0.104304
0.000142663
0.000118955
0.0176843
0.000184693
0.000146558
0.000819843
0.000146728
0.000127597
0.000108737
0.000142689
0.000127058
0.0294961
9.37458e-05
0.000194679
0.000565015
0.000102485
0.000114857
0.000117066
0.0218506
0.000127584
0.000111212
0.000108548
0.000147104
0.0206589
0.0486167
0.00145769
0.000108339
0.0478888
0.0228416
0.0121718
0.0356825
0.000126325
0.000141378
0.000117552
0.000111228
0.0376944
0.000167247
0.000100611
0.00359925
9.9268e-05
9.71222e-05
0.0247647
0.000130305
0.0363652
9.55334e-05
0.000146126
0.000107873
0.000119189
0.000129402
0.000910182
0.000111051
9.61177e-05
0.00119704
0.0398651
0.055909
0.000118761
0.0144395
0.000137438
9.58226e-05
0.00012359
0.0268472
0.000131938
0.000154825
0.000108554
0.000101607
0.000110175
0.000103961
0.0355546
0.000123218
0.000145862
9.97983e-05
0.000115364
0.0661477
0.023753
0.000122339
0.00011547
0.0224859
0.000109151
0.0483432
0.000100381
0.0430243
9.176e-05
0.00209401
0.00010003
0.0392506
0.000110306
0.00308925
0.00174314
0.000107714
0.000184622
0.00510219
0.00011085
0.0343055
0.000436834
0.0258214
0.000110511
0.0181
0.000104943
0.0958014
0.00134685
0.000319058
0.000308665
0.0432098
0.000141594
0.000119206
0.073407
0.000113672
0.000107578
0.0233601
0.00136704
0.000106856
0.000828349
0.00732805
0.000112868
0.0202253
0.00150868
0.000129777
0.000114194
0.000138015
0.000101205
0.00105359
0.0375551
0.00601198
0.0721267
0.000122673
0.000213842
0.0562385
0.000103527
0.0418704
0.0411456
0.059336
0.00010621
0.00124692
0.000112829
0.045034
0.000101468
0.0383855
0.000147029
9.36844e-05
0.000139676
0.000114332
0.000167431
0.000125303
0.0726404
0.0906762
0.0372381
0.000130547
0.000131171
0.000119609
0.109707
0.0402765
0.000112752
0.00235733
0.000125053
0.00056304
9.18525e-05
0.000142543
0.000104669
0.0326083
0.000104807
0.0238633
0.116456
0.000193301
0.0024971
0.000110571
0.00319974
0.00227589
0.0001257
0.00163099
0.000114204
0.000123146
0.000162778
0.000145993
0.000121592
0.000112468
0.000621214
0.000144586
0.0197575
0.0336674
0.0703629
0.000611479
0.0281439
0.0406536
0.000103105
0.00012346
0.000241967
9.26263e-05
0.000105337
0.000130451
0.0424542
0.0405003
0.0328872
0.000108143
0.00015792
0.000110616
9.28e-05
0.000124625
0.0001061
0.00152223
0.000107156
0.000130937
0.052519
0.0337707
0.0350026
0.000236666
0.0549479
0.0370351
0.0674567
0.029259
9.92618e-05
0.000113521
0.000106059
0.000113962
0.00184676
0.000111925
9.13241e-05
0.000120679
0.000102563
0.0279347
0.000125347
0.000163274
0.120817
0.00913447
0.0231046
0.000145388
0.000112873
0.00010754
0.000110546
0.000106539
0.036985
0.00356531
0.000110606
0.118417
0.000100233
0.000162851
0.071589
0.0121666
0.000186741
0.00143309
0.000162761
0.000120941
0.000223693
0.000101212
0.000221604
0.0024812
0.000103152
0.000130085
0.00010195
0.00337689
9.87867e-05
9.39301e-05
0.000109656
9.89283e-05
0.0292995
0.0568687
0.000109592
9.7206e-05
0.0379008
0.0353683
0.000146037
0.0197254
9.49359e-05
0.000395782
0.000109774
0.0407241
0.00382539
0.000105447
0.000103108
0.0301054
0.000446875
0.0553956
0.000146923
0.0329391
0.0340356
0.0251641
9.43781e-05
0.103507
0.0713374
0.000103093
0.000113702
0.000108685
0.000121695
0.000851476
9.11138e-05
0.000114858
0.000120315
0.000119713
0.0428465
0.00189353
0.000102975
0.000557233
0.000117288
0.000110324
0.000156131
0.0688039
0.000103732
0.000101223
0.000122825
0.000126599
0.0277869
0.116891
0.000137615
0.000126454
0.000964856
0.00010125
9.99959e-05
0.000113336
0.000105192
0.000105593
0.000128443
0.0023803
0.000625664
0.000246477
0.000145905
0.00297248
0.000143904
0.000119618
0.0333299
0.000126989
0.000107373
9.48564e-05
0.00329293
0.000191346
0.000109736
0.00771255
0.000177451
0.0819728
0.000146936
0.000117882
0.000103517
0.000139026
0.0608239
0.00268292
0.0447221
0.000107439
0.000101546
0.000592243
0.0429371
0.01616
0.000120067
0.000270189
0.00010765
0.000102436
0.000112734
0.000150666
0.000273851
0.00011639
0.000110753
0.000561519
0.0452593
0.0613476
0.000105215
0.000158102
0.00310225
0.000108107
0.000113353
0.0550781
0.0464014
0.0469714
0.000479224
9.8349e-05
0.0218059
0.00012068
0.000110549
0.000104441
0.000123262
0.000117648
0.00015838
0.0365602
0.000217427
9.91716e-05
0.0606138
9.97243e-05
0.0260138
0.000143611
0.000136912
0.0163171
0.0485244
0.00503289
9.94914e-05
0.000107253
0.000126861
9.96636e-05
0.0359463
0.000173153
0.000102357
0.000174845
0.000113407
0.000109267
0.030052
0.000169087
0.00238628
0.000116752
0.000210679
9.92311e-05
0.123952
0.000136139
0.000188703
0.000101868
0.000114632
9.63804e-05
0.000102347
0.000336497
0.000111142
0.000513081
0.0951363
0.000112872
0.000113518
0.000212381
0.00664297
0.00447813
9.39817e-05
0.000110831
0.000115469
9.50068e-05
0.000100614
0.0720795
0.000142727
0.0427686
9.53372e-05
0.000218328
0.000158142
0.0465636
0.000191815
0.000108914
0.0365316
0.0238393
0.000110995
9.45554e-05
0.00424707
0.000384886
0.000166817
0.000143679
0.00010297
0.00105842
9.35414e-05
0.000124898
0.00011464
9.6081e-05
0.00010913
0.0422999
9.32444e-05
9.21562e-05
0.000121708
0.0228764
0.000146393
0.000108158
0.0517011
0.000108016
0.0440774
0.000102867
0.000120503
0.000121021
0.00013227
0.000124336
0.000120684
0.000115043
0.00019269
9.50076e-05
0.113662
0.0642303
0.0694148
0.000108609
0.000140432
0.000138362
0.000116279
0.0269292
0.0641961
0.000112134
0.000122984
0.000579448
0.00706105
0.00195872
0.000431189
0.000109459
0.0350705
0.000112107
9.84035e-05
0.000206791
0.000717956
0.000111785
0.0192401
0.000111877
9.31351e-05
0.00012717
0.000107603
9.47173e-05
9.50705e-05
0.000114988
0.000105515
0.000124712
0.000116175
0.000113202
9.63494e-05
0.000126028
0.000123686
0.000126322
0.000147251
0.00010563
9.24971e-05
0.000104621
0.000123177
0.040407
0.000112498
0.00189206
0.000108225
0.000144519
0.000142402
0.000121757
0.000112735
0.0355798
0.000162248
0.0306464
9.53152e-05
0.000175871
9.72749e-05
0.000146753
0.00011886
0.000104303
0.047349
0.000145392
0.00633439
0.000104712
0.0630735
0.000135793
0.000162671
0.000214538
9.98278e-05
0.000149074
0.000113389
0.000122781
0.000111382
0.0238378
0.000106993
0.000138188
0.000102063
0.000118607
9.93248e-05
0.000105196
0.000111494
0.0220027
0.000108343
9.31408e-05
0.000112062
0.0459992
0.000332595
0.00011035
0.000107245
0.0276687
0.0035976
0.0410031
0.000117675
9.33102e-05
0.000108021
9.90506e-05
0.000103734
0.000108601
0.000555237
0.000110514
0.0323013
0.000105067
0.000109754
0.0389041
0.000125557
9.86854e-05
0.000112193
0.000129576
0.000114547
0.000133482
9.99422e-05
0.046157
0.02065
0.000158368
0.000119207
9.39648e-05
0.000167554
0.00579985
0.00014596
0.00229714
9.43133e-05
0.00011287
9.10344e-05
9.54751e-05
0.00104727
9.82424e-05
0.0193757
0.00010898
0.000147222
9.71956e-05
0.000119215
0.000113384
9.23044e-05
0.0682993
9.41554e-05
9.81894e-05
0.0554117
0.0494855
9.96677e-05
0.000115476
0.00012127
9.86255e-05
0.000102512
0.000111217
0.038811
0.000200314
0.000133496
0.000103378
0.0631191
0.000102666
0.080027
0.000146466
0.000112507
0.0209511
0.000101093
9.94714e-05
0.0491279
0.0292047
0.000113337
0.000191544
0.000118432
9.86915e-05
0.00010709
0.0511296
9.23166e-05
9.08146e-05
0.000102128
0.0226324
9.27324e-05
0.000389915
0.000191453
9.44827e-05
0.000115792
0.000137659
0.0747807
0.000120009
9.3938e-05
0.000138259
0.000173384
0.00013752
0.0002168
0.0172029
0.0385982
0.00011068
0.00157712
0.0587895
0.000115217
0.019109
0.0878187
0.0636874
0.0283828
0.0552528
0.0951485
0.000200468
0.00010829
0.0361475
0.000101157
0.0403142
9.45467e-05
0.000105197
0.000110092
0.000136967
9.83367e-05
0.000112933
0.0270613
0.000105094
0.000127576
0.0592659
0.00123524
0.000119419
0.000122801
0.000102792
9.92106e-05
0.0671556
0.000127544
0.000110116
9.27634e-05
0.0176292
0.044352
0.0223507
9.12629e-05
0.000457417
0.000175636
0.0773653
0.0606024
0.000133721
0.00010923
9.73787e-05
0.000105368
9.08345e-05
0.000105231
9.89786e-05
0.000105422
0.000111575
0.120215
0.000181686
9.11215e-05
0.000171364
0.0676325
0.000112594
0.000113924
0.0279953
0.000101953
0.000111724
0.00012268
0.124904
0.000137605
0.000116578
0.0426819
0.000715128
0.00247155
0.000155351
0.00298225
0.000115093
0.000244568
0.000113595
0.000122237
0.000113731
0.0377594
0.0459326
9.70791e-05
9.67842e-05
0.000111799
0.00462463
0.00010563
0.000101274
0.000123282
0.000107197
0.000238158
9.42168e-05
0.000121206
0.0012424
0.0350819
0.000102673
0.000193231
0.000105098
0.0448421
0.0652783
0.000122072
0.0631296
0.000124671
0.0243172
0.000137374
0.0324777
0.000144449
0.000100552
0.000114535
0.000155352
0.0389658
0.00290789
0.000255149
0.0494948
0.000113354
0.000506019
9.51778e-05
0.000107406
0.0433149
0.000113524
0.000145156
0.000103898
9.99101e-05
0.116275
9.99833e-05
0.000129434
0.000109842
0.000114123
0.000108264
0.00453009
0.000186701
0.0484385
0.000112592
0.000102351
9.78661e-05
0.0342757
0.000100341
0.0517588
0.0383987
9.59538e-05
9.36151e-05
0.0270132
0.00225926
0.000114477
0.000161543
0.000103723
9.34667e-05
9.82973e-05
9.94862e-05
0.000114228
0.000149275
0.000108728
0.000366824
0.000113348
0.000120796
9.7964e-05
0.000156937
0.000114493
0.00011062
0.000114525
9.64298e-05
9.65489e-05
9.74859e-05
0.0476593
0.000153461
0.0406646
0.000121087
0.00010599
0.000113754
0.000112653
0.000148062
0.000155247
9.35627e-05
0.000146913
9.79846e-05
0.0441451
0.000114763
9.8851e-05
0.0258192
0.000463142
0.000115344
0.000106988
0.0155655
0.000122652
0.000116305
0.0838272
0.055742
0.000110733
0.000239171
0.000131508
9.63009e-05
0.0377812
0.000104022
0.000100284
0.000684715
9.72009e-05
0.00427189
0.000139651
0.00010075
0.000110473
0.000189517
0.0272642
0.000114619
0.000111101
0.000115276
0.000108147
0.000129508
0.0141475
0.000118347
0.000146868
0.0395826
0.000136206
0.000580936
0.038308
0.0497197
9.70061e-05
0.000114302
0.000111609
0.00937971
0.000108719
0.0273109
0.0543978
0.000110216
0.0429497
0.0364453
0.000108636
0.000213829
0.000170919
0.00225637
0.0387022
0.000165625
0.0124572
0.0419946
0.00011324
0.000107988
0.0346777
0.000160729
9.50429e-05
9.7912e-05
0.0710057
0.000114914
0.000109418
0.000135478
0.000155994
0.000111252
0.032981
0.000106041
0.04187
9.85114e-05
0.0020041
0.000179578
0.000512742
0.00010237
9.82207e-05
0.000106926
0.0406784
0.000121746
0.000110012
0.000102692
0.000104945
0.000103923
0.000116211
0.000216612
0.0324243
0.000132935
0.000171321
0.0324419
0.00180185
0.000102642
0.00415099
0.0358265
0.000101173
0.000115651
0.000102697
0.0530308
0.000145389
0.000124934
0.00698482
0.000123001
0.000117913
9.37508e-05
9.65655e-05
0.000162157
0.000116783
0.000122433
0.104169
0.0354859
0.000123711
0.0026656
0.000113651
0.0357043
0.000108241
9.87501e-05
0.0334978
0.003531
0.000134069
0.048289
0.000104863
0.000147512
9.64921e-05
0.000106094
0.000120303
0.000112494
0.000134077
0.000116051
0.000172202
0.000118844
0.000102334
9.5038e-05
0.000160439
0.000172007
0.00842505
0.000115632
0.000500155
9.68905e-05
0.0328485
0.00012438
0.000110454
0.000132894
0.000391327
0.0433693
0.000200742
0.000115407
0.000182337
0.000109962
0.000105316
0.051218
9.925e-05
0.00011384
0.0001129
0.000104277
0.0423944
0.000116057
0.000109612
9.21568e-05
0.000125594
0.000114286
0.000107498
0.000105907
0.000110322
0.0310905
0.000102988
0.00087512
0.0453976
0.000112119
0.0285028
0.000103096
0.000106068
0.000110638
0.0335381
9.29873e-05
0.000113441
0.000102348
0.0412487
0.000112622
0.0727986
0.000121718
0.000125024
0.000100503
9.80762e-05
0.000245347
0.000113231
0.000148481
0.000116449
9.56566e-05
0.000110068
0.00010406
0.000118612
0.00176648
0.0403467
9.28027e-05
0.000122204
0.0156784
0.0145452
9.94422e-05
0.00131764
0.0543136
0.000104654
0.0610817
0.000110991
0.0826122
0.0619603
9.3277e-05
0.000145991
0.000119216
9.41775e-05
0.000113275
9.44041e-05
0.00011089
0.000133579
0.000100121
0.000115888
0.0425736
0.000112451
9.75721e-05
0.0581846
9.97699e-05
0.0199602
9.45034e-05
0.000151648
0.0001119
0.0344568
0.0496566
0.000109625
9.46086e-05
0.0329368
0.000111913
0.0597132
0.000124969
9.6773e-05
0.0446968
9.60441e-05
0.000133927
0.10735
0.000126843
0.000115086
0.000104894
9.76567e-05
0.000114994
0.0351056
0.0571134
0.00010392
9.76056e-05
0.000114279
0.000105015
0.000121052
0.0287187
0.000111228
0.0461387
0.0139446
0.00201977
0.00442289
9.64279e-05
0.000172496
0.000808955
0.000111614
0.000126851
0.000111605
0.0417656
0.000110464
0.000138869
0.0429731
0.0427795
0.00145425
0.000110564
0.000111206
0.000144514
0.000126836
0.0462156
0.000111143
9.59762e-05
9.45574e-05
0.000100689
0.000146827
0.000113037
0.000122699
0.000121171
9.78414e-05
0.037733
0.000136335
0.100063
0.0251534
0.000110176
0.000109347
0.000109301
0.000107938
0.0303386
0.000107109
0.00010578
0.000108687
0.000166812
0.000157885
0.0325123
0.000791217
0.000102335
0.035492
9.60493e-05
9.90261e-05
0.000131828
0.000147265
9.34938e-05
0.000235822
0.0379429
9.74149e-05
0.0344654
0.000106239
9.66442e-05
0.000105731
0.0428441
0.000105365
9.4256e-05
0.0741307
0.00010373
0.000548709
0.0309428
0.000144575
0.000139457
0.000124017
0.0167131
0.000125727
0.000122318
0.036284
0.000111635
0.000237695
0.00014778
0.048539
0.000110991
0.00203444
9.25636e-05
0.000204825
0.0378942
9.7819e-05
0.0329161
0.000114973
0.000122068
0.000154316
0.000144449
0.0961528
0.000107882
0.000164121
0.000117176
0.000335935
0.000120895
0.00012782
0.000111397
0.0427092
0.000112038
0.0176361
0.000111163
0.000114276
0.000103323
0.00011278
0.000117717
0.000115482
0.0391123
0.000106502
0.000106492
0.0368604
9.87628e-05
0.0187281
0.000100759
0.0358551
0.00239012
0.000108481
0.000121419
0.000117476
0.00013106
9.87447e-05
0.000154419
0.000151769
0.000123817
0.000104347
0.000129722
0.0036572
9.74726e-05
0.000108099
0.0126285
0.000118627
0.125102
0.000108917
9.49464e-05
0.0218569
0.0391006
0.00133346
0.0361224
0.0177462
0.000112005
0.00148456
0.0696926
0.00235891
0.00013757
0.000115235
0.0001618
0.0361457
0.0199731
0.00512803
9.1325e-05
0.00014399
0.000104773
0.0302189
0.0602223
0.00010263
0.00017739
0.000105835
0.000155722
0.000133747
0.000136799
0.000161582
0.0302389
0.000133483
0.00814091
0.000145211
9.89617e-05
0.0309734
0.0453277
0.00011204
9.14022e-05
0.000102723
9.78389e-05
0.000128462
0.000244277
9.38361e-05
0.0001219
0.000130856
0.000100145
0.000103954
0.000104226
0.00114505
0.000121351
0.0505045
0.050449
0.0496564
0.000560259
0.00011508
0.00208777
0.000101806
0.0354326
0.00462712
0.019079
0.000107531
0.082746
0.0269409
0.000106974
0.000125235
0.000170101
0.0862173
0.0365702
9.38616e-05
0.000110463
0.0339199
0.0330026
0.0157541
0.000103413
0.000110764
0.0318726
0.000112085
0.0383488
0.126556
0.0038645
0.0169679
0.000117554
0.00011469
0.000114926
0.000110401
0.0297501
0.00010153
9.56212e-05
0.000113011
0.000197864
0.0480686
0.000100041
0.0331519
0.0715503
0.0219297
0.0381947
0.000125726
0.000137493
0.0354566
9.97551e-05
9.51946e-05
0.000108507
0.0359381
0.000103323
0.129986
0.000193704
0.000123994
0.0657676
0.000108433
0.000104304
0.0632939
0.000694271
0.000110429
9.46019e-05
0.0813726
0.077684
0.000138198
0.0379374
0.0157878
0.11563
0.0166453
0.000162117
0.000112131
0.000100603
0.025646
0.000101135
0.0354353
0.000110176
0.0141526
0.000684876
0.000111575
0.000110431
0.000110169
0.000111378
0.0969618
0.0178387
0.000126973
0.0802417
0.000103078
0.00011061
0.00010957
0.000117015
0.000225025
0.000102811
0.0350791
0.000145471
0.000111403
0.0001137
0.000281358
0.0244018
0.000104817
0.00010569
0.000110634
0.000118318
0.000100242
9.77355e-05
0.0410596
0.0246331
0.0820392
0.000103286
0.000113694
0.0001081
0.000173711
0.000112667
0.000107709
0.000238113
0.000112702
0.00220911
9.3282e-05
0.0730021
0.0245942
0.000148321
0.0448911
0.000162756
9.94153e-05
0.035279
0.000108176
0.115023
0.00011099
0.000109982
0.000110445
9.95528e-05
0.000750594
0.000110505
9.26477e-05
0.000114048
0.0242791
0.0284832
0.000144431
0.000123507
0.000102435
0.000103124
0.000190946
0.000113433
0.000140081
9.72371e-05
0.0401417
9.42741e-05
0.0442174
0.000103196
0.070813
0.00010125
9.85749e-05
0.117665
0.00216308
0.000375937
0.00345347
0.000134511
0.000104299
0.000123354
0.050926
0.000126408
0.000113135
0.000297561
0.000112084
0.12848
0.0807941
0.000175919
0.0422673
0.000192039
0.00301873
9.21765e-05
9.94427e-05
9.79869e-05
0.0546303
0.000110557
0.0624028
0.0253298
9.42184e-05
0.000118942
0.000111955
0.0217096
0.0418868
9.76454e-05
0.000131697
0.000107698
0.000104243
0.000103633
0.000771831
0.00108089
0.000128192
0.00544994
0.000146219
0.0285739
0.00012616
0.000105784
0.000101347
0.065453
0.000115005
0.000145506
0.0405865
0.000109723
0.00010418
0.000245028
0.000484637
0.000111145
0.0213823
0.000100939
0.000496773
9.87625e-05
0.000110781
9.58797e-05
0.0768795
0.000112532
0.000272446
0.0256602
0.0978044
0.000111868
0.000131091
9.58858e-05
0.000138656
0.000146442
0.101381
9.72958e-05
9.68811e-05
0.000101543
0.000130531
0.000146904
0.0358596
0.000127667
0.000138408
0.000112205
0.000180973
0.000114987
0.000107886
0.000121357
0.000425006
0.000175936
0.000145323
0.000955679
0.00298276
0.000358354
0.000147383
0.000111025
0.000217411
0.0379295
0.00545752
0.000148281
0.0202994
0.0357028
0.000148238
0.00010101
9.93607e-05
0.00538063
0.000173345
9.52158e-05
0.0249489
0.0582731
0.000108967
0.000115366
0.0327419
0.0269121
0.000113207
9.9353e-05
0.0287181
0.0277983
0.0415286
0.000124544
0.0549564
0.000127239
0.000198728
0.0819377
9.99334e-05
9.99344e-05
0.000102619
0.000298371
0.00010131
0.0350766
0.0733073
0.000106019
0.0392588
0.00544289
0.0771127
0.000102772
0.000155876
0.000114734
0.000111619
0.0483312
0.00514926
0.000426287
0.0093521
0.0001096
0.000111969
0.000112622
0.0863327
0.0195238
0.000123846
0.000103713
0.000114267
9.36237e-05
0.000109112
0.046776
0.0453714
0.000112212
0.000101072
9.40864e-05
0.0498161
0.000109475
0.000111105
0.000105189
0.000108365
0.00844528
0.00575909
0.00111878
0.0529396
0.00013741
0.000501665
0.000110026
0.000138649
0.0576765
0.0551505
0.000128161
0.00014937
9.82293e-05
0.00011028
0.000115565
0.0503175
0.0573175
0.000100225
9.11222e-05
0.000139248
0.000120373
0.0585516
9.59652e-05
0.0336732
0.000153717
0.00011173
0.000103787
0.000122898
0.0766354
0.000101534
0.00394571
0.121041
0.000111472
0.0323719
0.000116005
0.000120679
0.00199761
0.0402799
0.0748336
0.000110254
0.000112717
0.000796919
9.63368e-05
0.00011051
0.000114709
0.0330385
0.000112239
0.0107318
0.00142196
0.000110087
0.000133067
0.000570703
9.85035e-05
0.000147033
0.00160869
9.73686e-05
9.72975e-05
0.000103616
0.000115077
0.0453197
0.000107134
0.00409103
0.000110727
0.000117407
0.115532
0.0371933
0.000110302
0.00011627
0.000100112
0.000127963
0.000110464
9.55835e-05
0.000108132
9.90499e-05
0.000576685
0.000109817
0.0333661
0.000160644
0.00112136
0.000167217
9.65267e-05
0.0511086
9.79958e-05
0.0408369
0.00011068
0.0755154
0.0114973
0.0178754
0.0151802
0.000576066
0.000217866
9.53043e-05
0.0462351
0.000242128
0.000122093
0.0417549
0.0437503
0.000110674
9.56496e-05
0.000105107
0.000105051
9.99812e-05
0.0382141
0.00014835
9.52248e-05
9.90619e-05
0.000111992
0.000136725
0.000130881
9.58609e-05
0.0343304
0.000109575
0.000198582
0.000104129
0.000104995
0.000226735
0.0055358
0.0001481
0.000107456
0.000802778
0.0434629
0.114323
9.54793e-05
0.0332107
0.000100984
0.0314433
0.000126502
0.000108348
0.0420078
0.00010509
0.0703244
0.0420949
0.000116147
0.0673841
0.000109008
9.50861e-05
0.0357011
0.000190991
0.000107868
0.0555914
0.000103895
0.000133727
0.000110057
0.000135962
0.000103796
0.0329899
0.0416963
0.0533355
0.000455814
0.00010097
0.000126842
0.0684117
0.000107868
0.000112008
0.000160711
0.000100141
0.00164078
0.125637
0.0189305
0.0241283
0.000109552
9.55758e-05
0.0539278
9.65491e-05
0.000122612
0.000143381
0.119413
0.000105387
0.000133563
0.0312379
0.000172574
0.000125229
0.000111395
0.116485
0.000118575
0.000200599
0.000102705
0.0308659
0.0653769
0.000161228
0.000262882
0.000119253
0.000896478
0.000191689
0.000105225
0.000103111
9.43347e-05
0.000135108
0.000108825
0.000132891
0.000131634
0.000116889
0.000100721
0.0834754
0.000103054
0.000103643
9.58471e-05
0.000147343
0.0350737
0.000104698
0.000110174
0.0473806
0.000103171
0.032225
0.000118256
0.0807834
0.000104571
0.0564116
0.000106067
0.000175919
9.32821e-05
0.000104688
0.000172071
0.000160053
0.000379499
0.0542358
0.000323607
0.0274277
0.000110764
0.000157512
0.000122708
0.0030468
0.000109796
9.31762e-05
0.000119278
0.000107447
0.000127894
0.00355567
0.00011085
0.0385784
0.0285329
0.000335834
0.000111362
0.00775444
0.000906931
0.000112966
0.000110067
0.00011579
0.0340443
0.000120642
0.0161453
0.00010339
9.74224e-05
0.0531139
0.000193656
0.000125083
0.000119619
0.029533
0.000106119
0.000108161
9.93014e-05
0.000109323
0.000103277
0.000109074
0.000226442
0.000297795
0.00013129
0.00051804
0.0886064
0.0338431
0.0379578
0.000104202
0.000116566
0.000297909
9.59047e-05
0.000139522
0.0329708
0.0345878
9.92634e-05
0.000123738
0.0308196
0.00130144
9.98693e-05
0.000107136
0.000110575
0.121259
0.0367017
0.000102864
0.000108344
0.00014003
0.000665517
0.000175533
0.00052532
0.000114336
0.000127167
0.000113911
0.000107279
0.000601846
0.000111941
0.000100328
0.00010335
0.0415417
0.000109091
0.0510583
0.000131665
0.040803
0.000113982
0.000111325
0.000107093
0.000116612
0.0124406
0.0258445
0.000167792
0.0201288
0.123106
0.000111045
0.0468289
0.000207269
0.000103338
0.0163168
0.00116404
0.000161845
0.000145312
0.0307281
0.0814085
9.63385e-05
0.000119239
0.0244315
0.000119067
0.000112233
0.000101143
0.000101562
9.74159e-05
0.000140218
0.000540553
0.000254049
0.000139683
0.000100402
0.000111612
0.0361687
0.000104863
0.000120769
0.000110815
9.10216e-05
0.00011233
0.00012411
0.00010818
0.000532047
0.000122825
0.0596792
0.00012341
0.0721146
0.037044
0.000147125
0.000109633
0.00014933
0.0578693
9.90015e-05
0.000103314
0.00011399
0.0010253
0.00376094
0.000103604
0.0373194
0.000125269
0.00249496
0.000113277
0.000119611
9.56101e-05
0.000134293
0.0768076
0.0372717
0.00932217
0.000103747
0.000121013
0.000120258
0.109971
0.04994
0.000440797
0.000108904
9.64537e-05
0.0531066
9.98704e-05
0.000101253
0.000428761
0.000161049
0.000110385
0.000908279
0.000135276
0.000109926
0.000103453
0.067426
0.00010027
0.00012247
0.0539913
0.000133852
0.000100959
0.0272127
0.000125765
0.000131913
0.000224414
0.000292722
0.128402
0.000102047
0.000109677
0.000113891
0.0408626
0.000106877
0.00457273
0.0105352
0.0350939
0.0253165
0.097995
0.000112839
0.0497093
0.011444
0.000141009
0.000111151
0.000130807
0.000112681
0.0214205
0.0413454
0.0878818
0.0342284
0.0343317
0.000112519
0.000152994
0.000126457
0.0837857
0.000101246
9.45839e-05
0.000101303
0.000101382
0.000108814
0.000153997
0.0855108
0.000103571
0.000101726
0.000113641
0.0407863
0.000101684
0.0778261
0.03192
0.00979035
0.000130142
0.000108958
0.0322894
0.0021811
0.000134349
0.00113661
0.000142719
0.000247945
0.000793931
0.000146081
0.000108205
0.0245067
0.000104983
9.47186e-05
0.000449355
0.0272889
0.000104498
0.00012279
0.000112757
0.0145915
0.000121914
0.000118584
0.000102485
0.000116138
0.0962772
0.038167
0.00333538
0.000109544
0.0593005
0.00167304
9.99502e-05
9.96982e-05
0.000101195
0.0212357
9.68158e-05
0.000108884
0.000118985
0.000116455
9.74519e-05
0.0604044
9.34679e-05
0.0287553
9.10446e-05
0.000115516
0.00010247
0.0273681
0.00012633
0.000101002
9.90384e-05
0.000153585
0.0978073
0.000115888
0.0267127
0.000135183
0.000127088
9.24539e-05
0.000117282
0.0286022
0.0324888
9.66953e-05
0.000101284
0.000457419
0.000489164
0.000123966
0.0442575
0.000109418
0.0015376
9.94398e-05
0.000102264
0.0348959
9.17245e-05
0.0369732
0.000120213
0.000102254
0.000132697
0.0356917
0.0340649
0.000100434
0.00113213
0.000404897
0.000127956
0.000101093
0.000111467
0.00122565
0.0473588
0.000130645
9.35018e-05
0.000108219
0.000124928
0.000115522
0.000101282
0.000123277
0.000255835
0.000116364
0.000113152
0.00500838
0.000107358
9.84034e-05
0.0308766
0.000124348
0.000125674
0.000150988
0.000100505
0.0030227
0.000110729
0.0838981
0.000118381
0.000110622
0.000147957
0.000145766
0.000100404
0.0768894
0.000110845
9.46649e-05
0.00374551
0.000110228
0.000301952
0.000278249
0.000251665
0.000117822
0.000113528
9.89254e-05
0.00011654
0.000108806
0.000108488
0.0306176
0.079934
0.0324793
0.000146491
0.0344257
0.0373637
0.0509512
0.000118434
0.00011011
0.000110324
0.0391948
0.000108396
0.000100386
0.102871
0.0329369
0.0808549
0.00039219
0.000233633
0.0300786
0.00200378
9.54992e-05
0.0724596
0.000366641
0.000101766
9.68405e-05
0.000106487
0.0910881
0.00015681
0.042741
0.000103655
0.0161457
0.000103304
0.00226003
0.0272114
0.000111733
0.000100708
0.0548988
0.0363638
0.000118225
0.000101015
0.000108501
0.000113643
0.000727441
0.000172303
0.0156154
0.0499569
0.000101566
0.0729683
0.0002944
0.00717882
0.000125546
0.000136853
0.0126278
0.00133548
0.000113268
0.000114179
0.000207753
0.000125535
0.0336805
0.0431338
0.0815282
0.0512308
0.000108599
9.64938e-05
0.00020556
0.0231225
0.0342777
9.79306e-05
0.00153741
0.000300246
0.00310242
9.13863e-05
0.000145488
0.0225309
0.00657678
0.0106339
0.0309945
0.0205147
0.000118911
0.00125432
0.0510453
0.000114142
0.000188516
0.000158274
0.000100597
0.000227229
0.0519411
0.00147355
0.000145409
0.0174635
0.000167701
0.108199
9.19874e-05
9.51954e-05
0.000107194
9.17848e-05
0.000107637
0.000123215
0.000121036
0.000128532
0.00185252
0.000100724
0.0396497
0.000109681
9.43048e-05
0.000105738
0.0369939
0.000172068
0.0674566
0.000106693
0.000110865
0.030563
0.000335463
0.000117788
0.000127052
0.00709801
0.0454864
0.000638016
0.000111024
0.000110694
0.000107989
0.00209378
0.000107579
0.0387023
0.023019
0.00133079
0.0001072
0.000401073
0.0553407
0.000107716
0.0356266
0.000112504
0.000151765
0.000106687
9.74713e-05
0.000114258
0.0665666
0.000129543
0.0719688
0.00337549
0.000291765
0.000299958
0.00010651
0.000124719
0.000100768
9.33836e-05
0.106979
0.116919
0.000235503
0.0105377
0.000110046
0.00010358
0.000102738
0.000144458
0.0927293
9.72124e-05
0.066765
0.000272013
9.10589e-05
0.002478
0.0164183
0.0306709
0.0439025
9.79747e-05
9.48321e-05
0.000133533
9.21381e-05
0.00653187
0.00122554
0.0698076
0.000135745
9.47618e-05
0.000614177
0.000145905
0.000759229
0.00011056
0.000591087
0.000720747
0.00012311
0.000119221
0.000101348
0.000110256
0.00011722
0.000841356
0.000289684
0.000125635
0.000113138
0.000764087
0.000109861
0.0315125
0.0356191
0.0146737
0.000115118
0.000369519
0.00011318
0.000109801
0.000100623
9.33264e-05
0.000111106
0.043586
0.0372065
0.000244889
0.000127983
0.000779672
0.000167245
0.0341322
0.0622281
0.000110341
0.0576182
0.00124103
0.000104537
0.000164341
0.058136
0.000294837
0.000143478
0.000116696
0.0408276
0.00119674
0.0240363
9.95205e-05
0.00190498
0.000129999
0.000113163
0.000100603