/*--------------------------------*- C++ -*----------------------------------*\
| =========                 |                                                 |
| \\      /  F ield         | OpenFOAM: The Open Source CFD Toolbox           |
|  \\    /   O peration     | Version:  v2012                                 |
|   \\  /    A nd           | Website:  www.openfoam.com                      |
|    \\/     M anipulation  |                                                 |
\*---------------------------------------------------------------------------*/
FoamFile
{
    version     2.0;
    format      ascii;
    class       volScalarField;
    location    "200";
    object      ddt0(ReThetat);
}
// * * * * * * * * * * * * * * * * * * * * * * * * * * * * * * * * * * * * * //

dimensions      [0 0 -1 0 0 0 0];


internalField   nonuniform List<scalar> 
13917
(
3.2032
0.337469
0.0262849
12.0273
-0.546935
1.98424
-0.712193
0.644301
1.23851
2.31575
101.444
5.35531
1.67799
-0.373113
-1.52101
1.43945
-2.49829
-69.3952
6.97761
-0.103564
1.27582
-0.757936
-0.00262942
0.872285
-0.973509
-1.33084
5.40872
2.80744
-63.3258
52.3405
2.37613
5.70491
-2.42935
14.1881
1.48133
1318.48
-0.107023
-0.325272
-3.60578
-0.307283
0.0495097
1.21703
-0.0573673
8.80411
-1.97974
5.18193
-60.94
-103.415
3.55699
0.0423199
-4.17357
20.7226
-1.89366
15.9625
-8.11014
2.46564
23.7117
-0.321431
-1.05637
-2.077
0.712823
-2.04058
-0.377839
0.0058793
1.32343
420.984
0.0433445
1.52025
-14.0038
-0.945855
-0.996897
1.59147
0.207289
-0.423407
-3.03866
18.6266
0.0450293
1.35488
-1.86613
1.4628
0.519744
-0.818154
3.36661
-0.292755
0.00994243
1.95837
0.476448
689.965
0.848152
0.0695763
0.205825
-58.4825
-0.190545
5.80686
-426.906
3.64935
15.1691
-48.6572
51.7728
1.57789
0.0292958
-2.88702
5.99536
-1.36957
-0.204974
0.980517
-40.6138
-31.1465
-2.49477
-2.34928
-0.0412331
-0.279679
18.2404
1.02243
-17.5794
-2.92661
0.238602
-0.473677
-0.410359
-27.8543
0.303592
-35.4081
-0.5343
2.67484
0.0490367
-6.71611
3.033
0.180503
-0.00367978
4.71
-0.801933
-0.142711
-2.9694
-0.163955
1587.74
0.820383
4.23567
-0.977265
0.437884
-24.2927
224.711
0.0669822
-1.56522
9.14051
2.15672
3.1409
120.482
13.5938
0.037372
-1.12022
-26.4474
0.078443
60.0616
-5.27043
-2.15771
0.236691
1.99369
150.486
0.0158794
24.9314
15.5751
0.347677
-1.35963
-56.4078
40.8256
41.6032
0.198542
0.463481
0.983162
1.25746
2.37516
0.0237303
48.2532
1.02537
6.70292
-0.408497
-0.861404
0.609522
3.65878
-5.23381
-37.5283
3.12001
0.0800971
0.250964
-1.07246
-1.64799
-101.089
0.0687517
-57.2854
88.7508
721.968
0.0171333
-39.6363
-0.350287
-0.233185
7.12865
-0.0583917
-0.148806
-30.8205
-5.31987
26.8266
0.0178533
16.7497
-3.37527
0.175334
1745.22
-1.86418
-0.840935
-38.138
-1.0639
-29.2772
-0.578615
0.122174
104.311
-0.183032
6.83396
-33.1803
0.0343567
0.0863138
2.94127
0.235432
192.521
-0.0287767
-0.110839
0.670363
-0.572142
-1270.85
0.942597
-0.0263975
2957.91
37.5412
-44.8333
0.470589
0.0991549
-0.0720133
5.36152
0.26454
0.080967
-2.26961
0.0726238
-1.24416
-35.1873
0.0301232
-180.459
21.2401
1.73369
0.379321
-0.522493
3.97741
0.0834906
-1.83262
-0.193521
2.85658
1.72532
1.11334
9.20876
-1.05066
34.5964
-3.19201
-0.135816
0.0229951
-0.46513
-1.49505
157.768
-0.00266159
0.154521
-0.324286
113.542
-1.72093
13.4884
1.03298
-0.00697879
83.1899
-0.0387067
-13.7477
-1.7633
76.1702
0.552063
0.03779
-5.60173
-0.0869416
5.91158
-1.11024
0.0267126
-1.95481
-1.52806
-0.574562
-792.079
0.313364
-1.31
-123.721
0.658879
-1.14645
-0.525416
82.4087
0.0454325
-1.79355
0.485784
89.2338
-0.0517578
17.3577
-0.766139
0.676818
-14.6513
0.201078
-5.4407
0.505166
3.11045
0.111297
0.71436
-0.0378726
-0.51084
-0.137345
0.00349315
-16.8768
0.35451
0.229499
-0.0310121
-0.0627048
5.64255
90.863
-50.761
37.7258
16.39
1296.03
15.447
-1.02037
-37.0137
31.8915
-4.63529
-0.644743
-0.146997
-0.304228
6.55836
0.288192
-1.39362
-0.0964972
14.4611
-0.832051
-0.445022
-0.149847
4.31066
4.80586
-0.063929
15.3414
3.94739
-0.372289
-7.91743
-0.104228
-709.643
-0.336348
0.0478818
-0.336834
299.695
-0.0233114
0.0883521
-0.212854
0.0523418
-3.71351
3.56627
9.14679
-0.0589868
-0.0697646
20.4482
0.0670529
79.8237
-0.647802
0.0163893
0.757859
-0.200835
70.3267
0.0445204
11.5209
-0.706366
20.5852
38.3613
5.52761
-4.43456
-35.5226
15.2352
104.2
-10.9452
-0.0781582
0.0512932
4.31259
-4.5864
0.0471717
0.0887647
-0.93626
-0.00445725
252.644
0.558678
-164.069
-4.33181
1.24912
-1.20037
-2.73464
-1.76238
-1.16411
0.48765
60.0164
0.203488
-0.0312332
18.1448
16.5118
0.185095
-24.2027
-5.53392
-0.677628
-64.4346
0.0277164
2.70329
-0.0553138
140.666
1.41373
0.164705
-4.16094
0.154892
53.6459
-0.395853
0.0677046
5.13314
-0.632087
-22.1071
3.04744
3.0073
-0.026178
3.16092
-0.930856
-5.19969
0.750329
25.1583
-5.4043
8.44779
-53.7845
0.183841
323.106
-4.14947
-0.0644137
0.261932
-0.83654
-0.887955
1.49049
0.087195
-0.681247
0.0167416
-0.0691369
-0.0148796
24.0591
0.501115
0.618016
-62.0903
22.5583
0.182786
-72.4991
-36.9009
-0.122991
-0.115732
-74.398
0.625126
-65.7126
-0.140216
1.35103
-1.06065
-0.106919
1.87399
-0.0822131
-2.45299
2.25615
0.17737
0.169111
7.51313
-84.284
-0.0141862
139.853
-9.9298
-167.328
-70.3101
10.1926
60.9132
-10.1722
76.7243
5.00593
46.4951
2.08049
0.0406287
-710.348
-21.9601
-0.154066
-0.546609
-1.72769
-0.0923243
1.21799
-0.779888
-0.0492115
-1.68266
0.0680594
0.0248995
0.00560489
-6.79123
-65.1663
-1.75126
0.164043
-535.318
4.80085
2.7439
-0.63242
-410.307
0.0276421
0.0239783
0.119786
2.22087
11.3094
0.0711502
0.014917
-0.452621
67.3289
0.0428613
8.26819
26.3911
27.697
0.10811
0.0841006
0.0551925
0.000725736
0.146489
30.1099
9.01249
-408.785
0.0611545
-0.0229085
-20.3247
0.137114
26.9308
1.70106
-0.764607
0.929917
0.786951
-0.0153916
0.0207715
0.562865
-74.6891
25.9156
28.214
0.446303
-0.827274
-0.960447
-44.0784
-18.2476
-60.8631
-77.943
-70.0285
265.749
32.0088
0.60772
0.114972
0.199628
-2.05721
2.22896
-769.787
13.0039
-0.0343563
-0.833697
133.511
11.9908
-80.8797
-1.29149
3.99055
-0.81121
-0.924406
51.0573
-0.401845
1.79221
14.8777
-155.509
0.064192
0.0764784
66.688
7.50445
-0.597046
0.88212
-0.107365
8.63054
5.96664
-4.74389
-47.3711
-2.44169
-0.293249
0.0372809
-1.59618
-20.2715
-1104.14
0.366647
3.14515
6.01691
0.31611
3.10619
467.516
-0.0208515
-0.440314
23.3625
-0.0305472
3.34178
-23.1273
-5.33888
-30.7109
-1.69295
64.0321
-13.5219
-0.927429
-2.89791
-0.0884397
-1.00455
0.303515
42.838
0.0341744
8.3348
-4.94709
0.544541
-0.223487
3.79406
3.98397
42.4291
0.690752
-9.0733
-45.859
3.55642
376.793
38.95
-16.829
0.48486
0.949245
-0.41296
0.246746
-0.996745
17.7442
9.62246
0.105754
-0.0351316
3.71845
-2.48892
6.18853
219.8
34.9671
-25.932
-0.000731775
-48.0123
6.17659
-1075.36
0.656265
-11.5381
0.0954385
-70.5627
-3.27324
-0.378477
-1.67693
386.111
52.2749
84.349
5.46259
0.199344
7.6811
9.06556
0.000734772
0.0860828
-1.51736
-32.5757
-939.762
-274.156
31.1667
0.0296107
-1.93972
-8.71678
-7.94458
69.7841
4.546
0.1809
47.6195
0.180388
-2.92499
0.177035
0.0281752
-0.495377
-0.261202
-2.04981
0.0167814
-6.67257
-0.65072
-4.17642
-0.238904
0.046063
8.48767
-0.167152
-13.8089
0.0379324
-27.23
-7.17688
-4.85271
-30.1154
0.116126
-0.0769828
0.455458
13.1506
0.402245
-0.421004
0.41754
-24.8945
-2.48586
-13.5945
6.89117
221.052
302.204
27.9527
-2.40943
-5.83317
-3.32954
99.0524
-24.4334
-8.09904
-40.4904
90.3492
4.04442
-23.2199
1.97524
-0.689609
-15.528
-3.95921
-3.52999
0.710149
0.0203093
42.9768
21.4059
-50.2545
-3.2977
0.69637
0.503881
-2.26124
-0.263902
-1.44977
0.0857795
0.158761
14.3483
-53.5383
-0.133709
0.241637
18.6924
40.13
-26.2372
-2.42487
-2.92177
31.3612
54.0222
-10.0675
-0.63728
0.0409832
0.0197424
0.774614
0.00867669
0.886232
442.196
-2.58594
0.0782807
5.88589
-4.64658
90.3181
-0.0108109
0.0054384
6.25211
-4.01462
15.6399
-0.856581
-3.28878
-0.126036
-1.37543
0.023843
0.035363
3.42964
2.95491
-0.4163
2.17747
-3.48553
0.00324326
0.131532
-4.60027
1.47001
-1.86053
-2.2115
1863.04
0.0460113
-6.08811
-23.2911
0.0064551
0.0167828
53.7069
1.08647
-15.6083
22.8495
-0.598955
-2.64327
-15.3985
0.0584065
-0.169594
-34.2739
-0.601582
-0.0104737
1.60351
3.91681
-1.67962
-0.214763
-0.196518
15.0802
-0.276035
-0.19251
-4.2894
-130.065
0.0327023
-33.3191
-0.160345
-1.3913
-0.0993366
-0.731386
7.0732
-0.458538
-24.6696
-1.4201
0.125903
0.00790694
6.51626
-0.256208
3.73731
0.967264
-0.0962904
-0.0809737
1.06868
2.41554
37.7552
1.15643
8.96907
-12.9433
-0.103523
4.72101
0.15974
-4.70952
-1.30808
4.51869
0.493177
-17.4972
-0.0891815
0.120957
-2.55283
-0.473201
7.07645
2.61503
-0.0226015
-1.1831
-0.400599
44.2054
0.13409
0.268315
0.218982
0.166102
-0.026537
1.04326
0.00345631
-17.0224
2.65237
45.2734
-2.47563
0.0863109
0.650118
-0.128935
-0.0678246
0.196717
-0.494635
0.77916
36.7031
-0.208601
21.8508
-0.804661
0.287291
-16.0666
1159.64
0.00677455
0.214878
-0.368545
0.0501141
-0.0280792
-0.288861
0.939491
15.0427
-26.3479
-0.954388
-1.58636
-66.8749
-0.886331
0.21195
0.0249643
-1.37657
0.059354
1.95061
-22.8919
-0.51969
-0.272189
-0.672137
0.0550881
-26.6054
-4.72067
5.62922
-2.36316
-3.20707
-11.9744
4.68859
20.5012
-0.00267555
-0.0572212
0.0325793
-1.67363
0.680453
403.663
206.419
-0.0118829
0.53545
-0.0852071
0.719849
-0.338438
2.01648
-0.0840499
-1.72883
-0.0181443
-4.28687
-10.9392
0.148103
-40.8477
-2.73601
56.8912
0.0315692
0.296277
-13.8248
-0.0310357
-0.225523
-6.62722
-0.963495
0.188842
0.371049
0.223183
-0.474624
211.095
1032.05
13.2262
-275.176
0.599814
12.0208
-21.6577
-0.282425
4.15475
-1.98866
0.0237659
-0.572867
0.0219854
3.23219
126.653
0.996397
6.04225
1.05057
3.41202
-62.1122
-0.154038
-2.88687
-29.3062
-0.902537
-0.892139
-21.9513
-1.76727
0.182682
0.0526221
-0.641992
-0.0273295
-55.7961
-3.62149
1.03364
-2.41983
-0.461439
0.271478
4.01969
-9.02998
-1.37876
204.76
43.4288
-0.184369
-0.0280247
75.71
0.395202
1.22695
-0.395233
1.29336
-0.936996
-2.4271
0.971909
0.124729
-0.00413841
0.150215
23.7306
-6.49974
-59.3627
-7.04669
-7.62281
-0.00422585
-11.0576
-30.1703
-11.9163
-0.0151043
27.3736
12.601
-1.26916
2.83972
0.0545597
-1.28665
272.211
13.0751
39.7639
10.8423
19.9041
-2.12775
-0.592636
4.31981
0.00434718
3.46773
6.84974
0.0118958
35.9252
-0.142953
-1.42845
0.0530662
5.7924
-4.29327
0.887894
-0.0152255
-0.276746
13.3331
2.47772
0.326081
2.02408
-0.241983
11.2939
-1.62421
-123.071
4.73598
-2.86489
22.0834
0.183272
-3.48248
-7.75972
-3.70979
-0.356322
-34.9579
-0.514194
-12.5036
-0.646098
-0.592676
0.201189
-0.0175062
0.168404
-2.79361
50.0147
-0.156264
-3.58862
-2.02781
0.375503
-0.0413206
118.982
1.82531
-307.75
1.47337
-0.0217931
-0.809543
24.2694
-0.333997
-8.23429
-0.445874
0.680305
1.18634
-0.0703834
-4.77368
-15.1476
0.0281692
3.82514
11.7989
8.07179
-0.725761
7.81204
0.504489
-2.182
3.99386
-67.1708
-0.0940302
-0.398891
0.00436875
-10.7769
-0.500124
1.88238
-19.5983
51.3364
-6.58119
-5.85403
-1.33867
-2.86571
-2410.25
-0.301268
20.6777
2.07155
-0.0352419
-6.06046
-0.0876469
-3.21119
8.74502
-4.54148
-0.40192
-2.10969
-24.8957
1.38751
-0.180906
0.615719
-0.0860562
-2.77444
306.569
-8.21637
357.029
-3.03273
0.123915
0.466565
0.0385402
0.556292
21.6103
0.00712035
-0.300706
0.139499
-1.49351
45.2821
-0.724402
-8.56552
-0.851867
-5.70737
-10.33
-0.408596
1140.73
-3.07987
-0.0346494
0.14147
3.91045
0.00881745
0.12469
-13.0563
-36.2973
0.7088
6.20092
-30.8996
-0.591902
47.2535
-0.541161
0.0166952
20.9631
-2.17444
-0.363407
-382.779
19.4849
824.592
-8.75562
-10.5179
-3.58227
267.789
26.8716
-16.3216
2.44775
0.308289
1.1033
-0.739956
-2.18494
34.3867
-8.26284
0.849687
31.0642
0.0965478
2.84722
-0.784632
-2.50562
-35.2115
-231.005
-0.255212
285.763
0.610972
-2.04153
-0.489678
30.4771
-1.39857
147.839
0.180334
39.7195
0.214977
-36.4316
-7.94932
0.25361
0.221653
1.23478
23.0091
-4.81959
-2.94018
-0.564283
-0.480174
-0.426256
9.49702
0.471049
-16.0053
-2.58876
0.057296
18.5067
0.0933063
0.278327
569.922
3.25176
44.1118
-0.386568
-0.874554
-0.0263595
-2.11969
0.108622
8.57647
-0.0307304
-4.95365
-430.359
0.49291
1.60712
-65.0544
-36.4656
-0.0224552
-0.0163554
79.2387
27.565
-0.0724571
-2.35624
0.210161
-26.9129
-6.85718
7.03386
-0.378278
-0.980521
1.4041
-1.5072
-133.294
-0.991805
41.3578
1.71147
-0.000285807
-68.438
24.3434
-20.0358
30.9947
0.163903
0.020269
0.0135856
0.135517
5.89855
-2.23698
0.00285151
26.2841
15.4019
-1.22845
-2.55328
0.170872
14.5919
9.15629
1.1924
0.455088
-0.0729435
-42.1553
1.82163
-0.295639
0.134383
0.0172932
-5.4484
-0.0871193
-3.26933
-7.98001
0.0195771
0.0136384
0.910952
-0.329504
0.728349
3.69639
1.1172
-0.873725
84.8399
-2.60037
-0.0309664
-0.014583
-2.0642
0.00506469
-1.43466
-2.17953
-1.0191
-0.396717
3.92884
-0.0525027
-10.0566
-5.42865
12.141
-7.86557
-882.434
-0.211373
-14.997
3.12514
-2.26737
0.232428
7.4995
0.109732
12.3965
-82.6927
1.1852
103.181
-0.585234
-9.71788
0.901179
0.275991
0.540071
0.0329172
-26.1105
-34.4045
3.43985
-2.09251
-0.26481
-0.264477
2.06445
11.3804
5.74175
4.8999
16.1483
0.264035
-1.14321
-3.12078
-27.2835
-0.0784862
2.62818
0.12056
5.37708
0.16641
-29.5054
49.5108
2.73951
-4.64727
128.081
-0.806917
-0.325096
-0.00427534
-2.86864
-2.09848
0.124903
-7.1374
-26.4134
-3.10549
-0.461868
-3.91911
0.918534
0.427043
-0.303729
7.86931
4.91511
21.1603
6.2243
0.135462
-158.806
-0.84593
0.027896
-2.20845
0.0162585
-1.13179
10.301
-2.16651
-2.48988
-36.1563
-12.6075
0.212992
0.0209349
-41.4572
-37.0438
2.771
19.293
0.114134
0.168685
16.7978
13.2815
14.2451
-1.52607
0.0340988
0.0628116
-1.90419
41.2496
170.972
0.379372
-3.76814
0.916641
14.3541
1.02695
5.13899
0.206626
9.11901
17.253
-1.25522
0.608433
6.36775
-6.84172
-0.754112
-1.81032
-0.117629
8.67556
-2.20435
-21.5254
-1.9947
-2.98094
165.888
2.66279
0.341729
-0.410799
-0.723224
-0.0198331
0.487142
-5.72658
3.94482
-4.67627
-0.0838362
-839.849
-4.83843
2.33837
-418.621
3.36827
0.325188
-41.6809
-4.5926
3.69816
0.0956778
94.2605
-1.91611
-53.4552
0.168961
-41.8416
-0.00714116
-5.1972
-0.126161
-9.3378
15.1639
-2.33494
0.0803301
470.1
3.59125
-0.653578
-57.4416
-0.523271
0.123577
-74.563
-65.1221
2.50564
0.396884
-0.252818
-0.410058
-80.5131
-2.35228
-0.0925052
29.6907
-0.498921
1.742
-0.213732
0.172384
0.0298154
10.0335
-2.04923
-0.877035
-2.13147
-68.6509
1.10866
0.163784
0.155178
0.883706
-1.49269
2.95953
-221.575
3.22624
0.291068
-0.0242586
0.169909
28.634
-34.6167
18.6169
-24.657
-1.78782
-789.698
-194.284
-3.25708
-0.352177
-0.218622
-0.115488
0.230394
13.7574
-0.0899241
-20.079
-0.0781052
-4.53453
-0.855027
-526.383
379.447
0.428173
2.1014
-28.3994
-1.27746
-0.781621
0.179291
1504.94
-1385.37
2.97967
-0.51113
0.00721356
0.737754
-0.540685
-24.8445
-11.7199
-4.87015
-30.2115
0.0266592
-9.91384
-1.49301
0.0844862
-0.371047
4.2967
1.76931
0.296929
-3.02724
-0.0201513
-0.113936
-2.2577
-1.83078
-6.15369
-0.0472054
43.9859
-0.553357
0.305331
-7.57848
-0.258657
0.0290699
14.0226
13.4565
3.17672
0.266971
-0.0861251
0.101303
-2.09765
30.1924
-0.0896341
-1770.66
4.44666
3.08427
-3.02342
-351.963
1.5877
-1.83034
-3.01315
-2706.03
48.785
-30.5517
-7.5932
-2.03342
21.3812
-0.0750232
-0.0343946
-0.221461
0.0691528
0.431137
-8.85686
-33.3875
-1.01046
-23.0669
-2.13598
2.83537
2.49371
3.5763
-0.0739372
0.814269
-0.0708262
-52.9688
0.560229
-3.27016
6.07478
2.78004
-14.0541
0.0504546
-0.249726
-0.0954848
-0.0395316
-0.0636851
-5.78897
35.8293
-0.0759717
-5.8169
-30.7686
14.0518
-1125.79
0.271424
-0.0416134
-0.179322
0.0139927
0.0238232
-46.7915
44.9698
2.55169
-0.78024
0.144794
-0.491937
-6.07299
-5.37039
-0.0131956
12.5088
-0.0381945
3.90166
0.281872
-0.779221
-0.44251
0.0115342
-0.00915259
-1.50504
-2.27266
-60.1448
11.8649
75.1609
-2.99085
0.073913
-5.02585
-0.44143
-0.0287823
-0.0230898
3.80615
0.0145436
-0.032867
11.2923
-1.22157
-1620.94
-14.9261
23.5396
-0.796417
0.0210945
0.521094
0.0213003
1.77355
14.8323
0.0292054
-0.0284286
-49.3352
-1.90341
189.113
1344.12
-0.0109267
-0.0230587
1.49778
0.289092
-3.61758
0.093881
-0.543622
-6.82713
-2.08789
2.60831
286.403
24.9898
-3.01755
-1.31921
-0.632807
0.763956
4.2277
-69.5145
6.88386
-0.0136803
14.4435
-97.997
0.102599
-97.4438
-0.526814
-0.0730758
0.339844
0.118584
-83.2261
-0.72086
-2.87708
-1.83695
-58.083
-2.80149
8.81748
-0.462923
-0.023479
21.4269
-10.1798
2.16597
2.17704
-0.0802715
-0.0330193
-11.6684
8.97138
-0.0947074
61.5172
-9.03396
-7.91353
-1.86268
0.298607
-0.0810607
2.55548
-0.0321861
15.7233
-0.034904
0.0245395
-3.44877
0.310512
0.0305075
0.280146
-49.0575
-6.5912
-1.64691
33.774
-56.691
271.31
0.317324
5.84312
56.6545
-32.8789
32.3675
1.66038
-6.032
0.611241
142.12
0.0120091
-6.78928
-3.21474
0.0141495
0.951
0.00676379
10.0468
-22.7504
-1.38731
0.0567599
0.178092
-0.0271464
-5.23727
-3.73633
-0.58602
16.2258
0.00470934
-21.5713
-1.4409
43.9695
-0.33207
0.313624
1.19163
26.6218
-0.0674053
1.18597
0.015999
-6.72925
-105.682
3.80658
-3.02461
-0.0366795
0.164403
-0.683569
-76.2049
-0.0184455
-0.0217101
1.63862
-15.792
4.71985
0.0894987
48.4327
-146.287
215.358
0.39921
-118.306
0.0283806
-0.117856
-0.133529
0.348894
1.85032
2.20959
-0.212846
-6.50828
-0.00693798
-1.25271
-3.49373
0.602611
0.776338
0.240145
-68.9788
-34.8369
-0.134901
8.65326
181.649
-130.553
-524.73
-10.8727
0.0229687
-83.6628
-0.00316976
-4.26791
-1.48617
-0.0115113
-0.592449
0.0733607
2.47484
-10.6241
7.78455
0.239651
0.234729
0.0726986
-0.0184104
0.689619
0.111724
0.819869
-0.419339
-3.79324
68.0927
-17.5109
0.155783
3.7886
-0.0795916
-3.86527
-16.1367
0.115061
3.15348
0.126005
-5.99797
0.645885
1.8718
0.0576988
-0.0198008
0.628368
0.217643
-10.1306
-0.167144
-15.3083
-4.1079
-4.56348
-0.150947
2667.4
24.2683
57.6301
-0.245061
-59.3096
-9.4925
0.0234192
-0.889824
-0.00202616
-10.6536
30.0588
8.57956
-8.17683
10.2639
-2.50688
-9.0271
-0.1307
-0.0347091
-0.740022
14.858
0.970676
-14.1126
-2.19433
-6.01085
5.07618
3.41021
37.0856
162.099
55.9712
-4.83203
-7.48184
32.9079
-45.2953
-2.1273
0.376744
-0.017965
-0.795869
8.46483
-0.072808
-690.114
152.978
27.4199
-70.723
-8.65492
-1.6443
-0.222064
2.65992
0.431864
0.044719
3.88548
-1.22845
-20.3622
-5.06816
-1.04943
-28.6585
0.156991
0.0132201
15.1159
20.4684
0.543484
0.104138
27.5916
0.0458754
-4.18843
-22.2663
312.082
-11.3979
-30.154
-1.00877
-305.632
-48.9081
-0.298698
-22.5421
-0.452412
-3.99278
2.9455
-4.61942
-2.52756
0.386663
-0.953098
-2.38178
-0.364653
4.52871
-0.00636494
0.0344991
-6.99495
0.21526
-8.23881
-0.0780969
0.0637611
0.705942
-3.0827
1.30851
7.73228
-10.8497
3.66221
-2.69175
-2.0764
5.85725
2.91248
0.0440229
-146.438
-1.67
-1.63541
-0.00587545
-1.52153
-6.0341
-8.7941
0.0168215
33.3916
0.158842
-0.172146
-0.476968
22.5761
2.6121
0.358945
0.0319714
20.727
2.84816
20.0352
-0.883536
-5.27405
-0.697229
-9.58368
0.00772248
-1.34933
0.718938
1.28793
-27.1176
-0.164896
9.99867
0.035849
-3.63021
0.933239
0.0558525
44.8447
161.715
-21.0686
-0.114459
1.05849
0.00751804
-10.4293
-0.115895
-55.2106
1.00141
-0.0420753
-0.299749
0.155795
6.42829
-31.2982
0.360961
-0.787629
-0.246228
-2.63894
0.15734
4.00348
-5.69882
-7.85612
-0.0978578
1.07813
0.975591
-1.77671
-10.6051
9.40476
32.5353
120.266
-22.0756
146.72
0.264883
31.5043
191.885
-1.75391
14.8418
4.89007
-983.474
19.0477
4.96014
0.591144
-6.29963
1.59692
262.105
-11.2744
-0.575617
-5.52562
0.732525
6.21411
-37.1911
-6.11289
-4.96309
-30.006
-17.497
3.36896
2.69218
-0.115171
0.205479
-8.47547
0.0122768
12.7995
-0.565899
-5.59469
0.0931676
-0.29935
2.6883
-10.2999
-3.01673
-5.12194
-10.8832
42.6653
1.88595
6.77288
-341.595
-0.0362741
-0.773606
0.132512
0.0691601
0.806032
-10.2428
2.40158
133.743
-5.11443
-0.547873
0.00329947
-0.971195
-1.00923
-307.152
-0.0291327
-0.137309
-10.2311
0.277257
-2.07781
-3.07674
-1.56772
1.29332
597.977
136.726
0.166482
0.138218
3.25518
-39.0991
0.065245
40.5265
-23.9773
4.40046
3.22716
-0.577884
2.1822
0.0141629
-0.153283
-0.348925
2.32495
4.22422
0.17205
0.297629
104.535
-7.39815
-0.149046
-1.05958
0.0657816
-6.76449
0.209242
23.2651
0.0239474
-10.7486
259.728
23.2979
-0.0800646
-0.544995
-0.017357
0.0752621
-4.15872
-0.356484
-2.02832
-0.584159
0.0591612
2.66507
3.31763
-29.1353
64.3449
1.93768
3.3782
-0.0239576
2.42473
-0.477759
-0.110884
2.92385
9.07251
3.78746
-62.6833
0.615513
0.582515
-223.06
-0.0557687
-0.00439603
-1.29506
-27.5434
-0.955852
-16.373
-2.14159
0.00505663
0.288829
0.0346728
-0.714491
0.673078
-1.10942
3444.11
-18.959
-0.840629
4.29952
934.895
3.44229
-76.7999
-0.935883
-0.513169
0.0556802
-0.564933
-936.665
0.265765
-25.2037
-6.75658
0.0804333
0.280414
10.5423
-1.66718
0.0154999
0.221161
-0.473906
1.35307
-118.801
120.917
-76.8152
-7.33287
-17.4979
3.29096
-4.06168
0.223608
0.949333
-0.371877
-0.0111902
2.81042
-0.00734103
-0.185536
-0.0588574
0.582071
0.569789
4.81223
-0.0923081
-0.000620018
-24.8926
-0.00501781
40.5079
0.322679
4.09374
-94.0022
-0.907613
-0.753517
15.1824
-0.477454
0.148739
18.1452
2.51316
3.14365
4.76346
18.6701
-14.0942
0.119819
-0.0751846
-0.815323
0.436797
-3.13864
52.3168
-0.0200181
0.0938827
7.26249
18.0758
1.5582
1.64231
0.237488
3.41723
-0.0815015
0.0364738
2.6113
0.0234416
0.168192
3.66865
-0.198608
-5.44387
-1826.76
0.312424
0.286736
-0.218703
-9.10513
-0.959832
19.7559
0.273618
3.5914
19.325
-31.2114
24.5928
-17.2088
-0.141605
1.32311
-96.1414
-0.931415
-6.48236
-0.999461
-1.27672
-0.878773
0.222153
-0.0384728
-2.64055
0.501774
0.435465
-0.0683676
1449.39
-18.8312
0.252931
-293.493
-0.0328558
-27.4721
0.0296845
12.8481
-0.77811
5.54576
3.83739
0.211011
-0.110673
679.11
1.44377
6.80469
0.616861
0.0720243
0.0206305
-0.210943
0.261464
-38.7979
13.7651
2.881
-0.110228
0.208053
-0.577105
13.4812
3.44477
0.00864762
1.06409
-0.291139
0.0121545
3.39327
0.693808
-41.8735
117.304
5.23734
-0.256399
-2.76912
171.879
53.3179
-0.0204329
7.3392
-6.81443
-1.49371
3.12039
4.77811
2.30115
-0.0784619
-0.867616
-0.0346718
-2.69152
5.78114
-0.0272028
0.58416
-0.077503
-0.975256
0.17831
10.9752
-2.59083
2.35887
-0.821599
-11.12
0.551522
0.140044
58.0037
-2.80393
1.62948
652.424
7.43536
0.0147757
-7.03528
52.0504
-0.593194
-4.30035
-19.142
-489.638
13.0889
0.0103253
55.2845
4.02735
-67.2011
34.2077
0.416742
-0.290427
-12.2338
-4.19506
1896.25
5.15492
5.57817
-2.24364
5.28546
0.0587882
0.271277
-0.0175802
-2.01923
-0.22578
-7.33907
-1.43552
-0.00640909
-5.02225
-1.20067
-2.06737
-0.957473
0.296248
1.64531
-4.87789
21.7828
-1.1856
-0.307029
19.9815
-42.861
0.015606
-577.482
-4.28091
-21.2724
-0.798373
-417.388
-0.00411165
-77.1419
105.24
-2.12007
-1.28495
0.500445
-0.110466
363.085
2.80261
1.03639
159.927
-0.395824
-158.428
-0.490479
0.660682
-7.77294
0.149234
0.287451
-22.0326
-2.24221
-5.59154
10.0058
-9.43984
79.7752
-319.807
0.258527
0.081872
0.0627619
-1.58962
135.781
-0.0148894
0.126685
53.9303
-2.37309
0.393066
19.0596
0.966397
-1.40577
-4.69264
-0.263954
-0.114513
0.313841
-2.9219
0.0817138
0.576492
-0.270231
7.05643
-1.09203
-12.5322
2.48842
-24.9194
4.25555
0.163661
-0.862819
390.596
-329.622
17.9649
-0.660553
-0.256181
-1.2089
0.305556
14.6286
0.538708
49.4944
-0.0402352
25.0996
0.822561
-5.70453
-0.370478
-0.912156
-45.1924
-24.6238
-0.0877165
11.4838
3.34264
-12.3583
-0.934557
0.567119
-4.19801
1.7412
-33.0704
77.2631
0.0867827
-50.7498
-6.84913
-2.66226
0.0497331
0.826705
-0.0123477
-0.475812
-37.9846
0.0358592
-1.96856
-2.54445
0.595533
105.879
2.38566
13.3832
5.3589
-0.111618
-4.36266
769.968
-5.73166
0.809003
-0.0327896
0.816341
-0.539667
-485.069
0.00907026
-4.62245
-5.61871
-3.24865
3.85914
2.11218
-0.255448
-27.6273
0.0702901
-0.0586923
-0.0085061
18.4511
0.611879
-174.417
0.241058
0.300447
-2.74081
1.6982
35.2083
-17.9818
17.0822
-3.36632
5.19527
-2.35509
2.2582
0.240496
-0.0848953
-3.08082
-0.0354657
-1.42508
0.20251
-1.7296
712.148
-0.472767
0.0379688
-4.13333
0.789987
-0.260061
9.07788
-15.2439
21.7147
-0.114911
0.379926
-14.0241
23.0202
0.0326046
63.6742
-31.2104
12.0707
4.23608
-1.41481
1.99345
0.015636
52.8842
3.7518
5.98152
1.49022
0.0225725
-0.0517693
-16.4271
-0.729203
270.486
-0.959377
-2.56803
-16.2016
1.21407
-0.16256
-32.8085
4.42843
0.0343356
-22.7842
0.042597
-1.7869
2.08021
5.14968
13.0019
5.02281
-3.89624
0.171886
-2.09955
0.15673
10.5706
0.141145
2.94857
0.352408
0.66022
-1.39337
-36.6074
-9.37943
264.314
-0.0821925
-0.669444
-132.529
-1.15159
-3.78545
11.1647
-11.4554
0.0215497
0.00254308
-0.0739842
118.583
0.151999
-0.505417
-0.123679
-716.774
-0.0409005
1.24431
-0.000345329
11.3538
-61.4424
-33.3182
18.9837
7.35554
-0.00605606
-0.0701709
-4.6792
5.54743
-1.16027
-0.0382244
0.224777
-0.0993191
0.715387
-0.0154078
-0.738062
21.3462
108.074
-0.962245
-99.4927
-37.9949
-6.69824
-12.6854
-2.06591
-1.40637
0.530939
2.26321
-1.4368
81.0291
0.261059
6.86102
0.392326
-3.78537
0.0156665
1.23622
3.48023
-23.8195
15.6718
0.0941127
-0.418619
2.39181
-0.0574549
-0.112756
-3.35886
0.188633
1.00068
-0.0113494
0.0176594
-1.1008
9.88248
0.705925
0.0446486
0.641696
0.616961
-631.906
-0.0737376
0.109404
-1.09132
-2.22295
-5.10259
-15.4926
-0.244018
0.0517134
0.0356367
0.0193777
0.537279
0.285507
-4.68309
-0.925437
5.5949
0.0201274
-1.04154
0.14822
3.82246
-0.210624
1.34406
-0.0357016
-125.48
1.66737
0.394293
-4.37511
1645.59
0.0561432
6.87086
-0.694615
0.00853776
1.12991
0.124083
-376.102
1.81496
-10.0265
41.9013
9.86803
-0.643651
-152.946
3.35208
64.3909
15.1592
0.819719
-0.760835
-0.875712
-25.3123
-2.10648
309.584
1.19899
0.520256
-0.362522
-0.0141582
-1.57263
5.35223
5.57225
-9.77753
-0.106192
6.27133
-0.342895
-0.350279
-0.89852
-0.889784
0.599919
4.431
-1.97354
0.388599
-1.02151
13.7851
7.34046
-1.48714
-36.7562
-8.52981
-5.82573
-3.21826
0.0765961
-18.0342
-12.2018
4.29568
0.614171
-2.73001
-0.0261142
-0.00976246
0.0126122
-1.70652
-0.284596
-0.572495
-28.9646
0.0235869
-2.91408
-189.918
-43.2539
3.86818
3.40523
-10.523
1.35178
9.56032
4.40208
0.0888841
4.58111
-0.269805
3.20717
-0.270061
-1310.17
0.282844
-0.955288
-0.39956
-1.73904
20.2901
0.208746
0.522368
8.21198
1.29469
0.248895
-13.7452
-9.58651
-6.48577
-1.80963
-51.3273
2.56861
461.17
20.7651
-1.24646
-37.8178
25.6239
0.0903037
-0.244783
10.595
-0.0123857
-0.239456
0.066324
-7.01307
-0.582175
9.76752
-1.10268
0.0169316
0.139473
9.66971
-3.51935
0.249904
-6.43458
1.7832
4.24228
-27.0699
-2.26559
-0.0305285
13.283
-0.667167
-0.0193902
-28.432
114.949
-0.995058
5.51645
0.920208
0.0736045
2.5842
21.3621
0.235237
386.556
-289.053
6.36542
-0.010693
-1.30739
0.328857
1.8832
3.22626
0.468282
2.60119
-2.03165
-10.5315
0.0205464
-12.7525
0.119544
5.00776
-0.0300691
-9.54369
-18.6288
-1.37161
-0.342271
0.159983
-0.0272354
-0.789558
-0.0126252
65.329
0.623034
-0.014078
4.5256
88.6846
0.0169857
0.541571
-2.15924
-0.0118871
-4.33326
0.82067
-0.651542
4.26084
10.572
-35.3431
-0.084507
45.2795
1.26407
0.0368346
41.446
-0.673982
18.615
-3.40632
3.61957
-13.556
-0.321762
-0.159457
9.43842
3.58207
0.120237
170.914
-0.430472
0.0124288
-0.114727
-0.00269681
-2.80824
-0.163897
-0.183119
-1.11426
-0.00238931
-0.426724
-5.81736
-1.30242
0.241289
-0.144684
-90.0378
-107.874
0.13219
2.40206
-1.46246
-38.2578
0.0308695
13.9565
-0.0048956
-456.923
0.543238
49.9764
20.005
3.56448
-94.9196
-0.735765
-0.0597902
191.224
36.3121
0.0258384
44.3831
-3.01939
1.43469
-1.76077
-7.29131
1.90974
-2.15782
-0.0298929
0.138303
0.0372406
-1402.74
0.330826
-0.0333974
-0.045243
-2.79913
-1.24226
1.08129
-0.184562
-5.17523
-3.29801
2.03918
-0.00906722
-0.0589539
50.5125
-37.6793
-4.07356
0.866651
0.0539217
9.1697
1.61297
-11.881
2.38509
1.3834
-20.4461
0.293684
-22.8094
-0.0348717
-0.609316
-276.11
51.5522
-0.0296039
-9.02527
1.90114
-54.821
-7.5295
0.44815
-4.29528
0.184992
-25.9221
-2.32152
-2.59494
-0.223882
13.7897
-0.132841
-10.4995
-39.907
-5.03524
2.48019
-26.6258
3.14127
-32.9083
14.6888
11.4964
-17.8715
-1.14388
9.9538
295.714
-26.1492
-0.914255
-10.4813
2.812
3.87141
-1.0412
0.120489
0.0132085
169.575
-7.91271
0.0141439
-0.394202
-0.0142088
-0.0329446
-0.0269986
3.13632
1.42602
-617.811
137.16
-0.389491
-0.0750264
1193.81
-0.199852
78.185
0.0419822
-1.54948
0.117162
-0.0404214
2.18709
-2.19132
3.99893
0.79746
5.71846
-415.539
6.87209
111.683
-2.62347
4.46397
4.52564
48.113
-6.72851
-0.959293
0.0259906
-0.126072
0.000417746
-0.669828
-13.5048
-1.14152
-14.7952
-2.55209
0.166627
4.93755
-319.303
-0.0285472
0.19811
12.3578
-2.14701
-15.0388
-0.0521891
12.0134
-10.8585
-7.74863e-05
-7.27435
4.08114
-0.471135
15.6864
-0.807081
-15.5915
-4.36866
0.260612
14.051
-1.86321
6.18108
10.533
20.416
0.00738716
-0.0470604
-30.9952
-3.8052
-19.3931
4.34941
0.134728
-3.9793
-3.55267
-2.82146
-2.3078
-0.256212
0.215009
-0.0413296
-0.976141
8.02168
-1.82659
48.4139
0.997137
-6.19203
0.0659268
-2.32355
-1.32557
-1.31875
-0.537429
0.131488
-0.0845738
-303.871
1.06494
1994.76
27.4379
-0.26574
-0.628174
-0.0076159
-0.00839629
-0.0249759
-0.0468737
0.00704498
-0.0582969
-9.68981
-1.00674
-0.572097
-0.637136
-0.0062237
-11.0169
-0.0602894
-0.174435
5.11335
-1498.87
-0.788903
0.831412
-31.3871
-6.41833
-1.42183
-0.00976999
-2.4923
-12.9872
467.085
0.10475
2.23067
-0.223888
-2.07018
0.0675365
9.08747
-1.12253
7.23384
-0.600847
0.525965
0.00793687
-5.45054
-0.96066
-0.95413
-6.82856
-0.840595
-1.0425
-0.471775
-0.123279
0.133489
17.7749
-0.404518
-1.03013
24.6019
-0.473846
5.84932
6.03222
-17.1348
0.196314
-0.0124676
8.44541
-15.0685
44.6752
-46.6741
-0.00629849
-16.5293
22.5231
19.8254
-0.984507
190.291
-17.6927
-0.19674
24.636
38.1828
0.137775
0.824774
-0.050962
-0.244421
0.315386
1.12892
3.77867
-0.383673
0.859026
-0.194923
-0.318818
5.76962
-2473.47
21.5145
4.48052
1.35229
2.80793
-0.115209
-2.30685
-0.00649687
-0.932206
-0.793329
1.06287
35.3357
68.528
0.0486305
0.253685
-1.26472
-0.56756
-69.7969
3.97666
-7.38077
-14.3059
0.0312379
8.47704
-0.63319
-0.111604
-0.163174
22.1344
-0.823135
-256.406
0.298293
270.956
-253.751
-4.65769
-23.1804
-13.8907
7.1309
-1.07083
-937.776
0.200805
-0.189553
-6.11684
-0.836653
0.168499
-19.0655
0.803917
1.40402
0.461806
-0.105142
-202.699
-60.5683
21.2917
5.58299
-809.606
3.33154
-75.9725
0.110964
-0.5029
0.00417643
54.9565
-0.735291
1.59818
0.299123
0.31895
2.32188
-8.85951
-25.0967
-0.124007
33.1967
-306.134
-0.368548
-0.717399
1.40106
0.150584
-0.563315
0.276731
-19.1704
-0.140124
-1.0821
51.7549
192.148
-0.875833
-1.17921
-4.2086
0.212638
-2.42979
0.0309196
2.20138
-34.4138
-0.671756
0.124927
0.0337141