/*--------------------------------*- C++ -*----------------------------------*\
| =========                 |                                                 |
| \\      /  F ield         | OpenFOAM: The Open Source CFD Toolbox           |
|  \\    /   O peration     | Version:  v2012                                 |
|   \\  /    A nd           | Website:  www.openfoam.com                      |
|    \\/     M anipulation  |                                                 |
\*---------------------------------------------------------------------------*/
FoamFile
{
    version     2.0;
    format      ascii;
    class       surfaceScalarField;
    location    "200";
    object      ddtCorrDdt0(phi);
}
// * * * * * * * * * * * * * * * * * * * * * * * * * * * * * * * * * * * * * //

dimensions      [0 3 -2 0 0 0 0];
oriented        oriented;


internalField   nonuniform List<scalar> 
20673
(
-0.00157708
-0.00120336
0.00278037
0.000332815
-7.89938e-06
-0.000324854
-0.000468748
-0.000289089
0.000757829
7.00845e-05
3.05013e-05
-0.000100637
-0.000123837
0.000133155
-9.20253e-06
-0.000187782
0.000365726
-0.000177861
-0.000459688
-0.000790321
0.00125
0.000398936
0.000182084
-0.000581039
-0.000795665
-0.000629757
0.00142541
0.00141146
-0.00188553
0.000474169
0.00113034
-0.000499055
-0.000631321
0.000267262
9.82413e-05
-0.000365529
8.33347e-05
0.00190548
-0.000212474
-0.00169302
0.00053048
-0.000675346
0.000144926
0.000436726
0.000163369
-0.000600083
-0.000573275
-1.47608e-06
0.000574756
0.000278443
-0.000370371
9.18321e-05
0.000292443
-2.52108e-05
9.16558e-05
-8.24795e-05
-9.19166e-06
-7.20239e-05
3.0044e-05
4.19409e-05
0.000490853
-0.000950545
1.33264e-06
6.25274e-05
-6.38973e-05
0.00073677
-0.000337847
0.000116696
-0.000113053
-3.62792e-06
0.0016658
-0.00113363
-0.000532214
-0.00295788
0.00205277
0.000905096
-0.000610493
0.00131938
-0.000708969
0.00143854
-0.00940324
0.00796468
-0.000269194
0.000431465
-0.000162142
-0.00054878
0.00062259
-7.38697e-05
-0.000162182
-0.000385037
0.000547235
8.92194e-05
-3.85898e-05
-5.06499e-05
5.44146e-05
0.000415582
-0.000469948
-7.01224e-05
-8.85746e-05
0.000158776
0.000407056
0.00141584
-0.00182291
7.24324e-05
-7.11407e-05
-0.000839254
-0.000953272
0.00179251
2.7533e-05
8.37967e-05
0.00164967
-0.000134042
-0.00151565
-4.86176e-06
9.54464e-06
-4.70682e-06
1.65155e-05
-5.83999e-05
4.18866e-05
2.34437e-05
7.95292e-06
-3.14692e-05
-0.000388754
0.00095563
-0.000566859
2.87848e-05
0.000131829
-0.000160597
0.000618803
-0.000208706
-0.000410007
0.000351847
-7.34949e-05
0.00146614
-0.000642508
-0.000823618
-0.000111927
-4.59581e-05
0.000157944
1.01836e-06
-3.01286e-06
1.96675e-06
0.000100852
-1.1058e-05
-8.98178e-05
0.000175481
-0.000738922
0.000563523
-6.91299e-06
-0.000104947
-1.99766e-05
7.43844e-05
2.55419e-05
-0.000598822
0.000184977
6.22708e-05
-0.000247252
0.000990567
0.000139785
-4.9141e-05
-3.53203e-05
8.4519e-05
4.51758e-05
0.000110824
-0.000155994
-0.000142778
0.000171575
8.33538e-05
0.000170873
-0.000254224
0.00029172
4.10708e-05
0.00190547
9.7861e-05
-6.18365e-06
-5.72664e-05
-0.000130533
-8.2709e-05
-0.000347749
0.000430566
2.69045e-05
-0.00013375
6.97427e-05
3.03986e-05
-0.00052772
-0.000831268
0.00135887
-0.00221461
-0.000239808
0.00245429
-1.47663e-05
-0.000109001
-0.00176897
0.000973315
5.74114e-05
-0.00112654
0.00106911
0.000139472
-2.27959e-05
5.85201e-05
-0.000203473
0.000144893
0.000353495
0.000123589
-0.000477099
0.000281211
-0.000239087
-4.21536e-05
-4.25581e-05
0.000104048
-6.1538e-05
-0.00196549
0.000355742
0.00160973
-2.252e-05
-0.000111251
0.000133763
-3.45433e-05
1.24874e-06
3.32393e-05
-0.000100353
0.000123835
9.3632e-05
-0.000217416
0.00115544
-0.00199471
-0.00047491
-0.000138617
0.000613563
-6.13489e-05
1.88294e-05
1.55211e-05
-2.40253e-05
8.52931e-06
0.00504629
-0.00512892
9.84763e-05
2.40915e-06
-8.81097e-06
3.22267e-05
-0.000523235
0.000717857
-0.000194642
-0.000765229
0.00253405
-0.00176875
-0.000144104
5.71587e-05
8.69927e-05
0.000105628
-0.000144733
3.91628e-05
-0.00151094
0.00655731
-1.00528e-05
-0.000419945
0.000430065
-0.000423125
0.000506309
-8.3143e-05
-0.000505658
0.000869367
-0.000363614
0.000594342
-0.0015852
0.000990789
-0.00140137
-0.00183772
0.00323915
-2.01527e-05
-6.86862e-06
2.70237e-05
-0.00129352
-0.000169415
0.00146294
-0.000521378
0.000132604
-6.31407e-05
7.54432e-05
-1.23151e-05
1.80514e-05
4.85351e-06
-2.28867e-05
0.00155222
-0.000140927
-0.00141129
0.0072975
0.00683925
-0.0141368
0.0010722
0.000393883
-0.000511009
0.000509533
-0.00162526
-0.000158151
0.00178349
0.000436637
-0.000276652
-0.000160025
0.000454889
0.00119477
-0.000178782
0.000633211
-0.000454487
0.000561658
0.000990542
6.78153e-05
-0.000228383
0.000160669
0.000339838
-0.000326316
-1.35349e-05
4.03723e-05
6.32852e-05
-0.000103666
-0.000141164
0.000156482
-1.53572e-05
-0.00141077
0.00133103
7.97325e-05
0.000553148
-0.000301759
-0.000251313
7.57197e-05
-5.9234e-05
0.000926017
-0.00145375
0.000150702
0.00158547
-0.00173618
8.71971e-05
-0.000697781
-1.46718e-05
-3.79001e-06
1.84464e-05
-6.04686e-06
0.00011166
-0.000365909
0.000123498
0.000242404
-1.5589e-05
9.33534e-07
1.42357e-05
4.18546e-06
-1.8406e-05
0.000355683
0.00161361
-0.00176183
0.000148205
0.000242207
-0.000174343
0.000103817
2.80234e-05
-7.55458e-05
3.53264e-06
-0.00134998
0.00112086
0.000229159
0.000527416
0.000209345
-0.00207716
0.000500109
-0.00124436
-0.000157037
-0.000130907
-2.83841e-06
0.000113644
0.000439537
-0.000467368
-0.0015502
0.00201752
9.65263e-06
-1.40591e-05
4.43513e-06
-9.95343e-05
-0.000270373
0.000369953
-0.000602929
0.00116778
-0.000564918
4.87069e-05
2.10433e-05
0.000120571
0.00203321
-0.00215379
-0.00867509
0.00905556
-0.000380476
-2.89566e-06
0.000178382
-1.12357e-06
6.58623e-06
-5.4313e-06
0.000412281
-2.1984e-05
-0.000390153
-0.000613381
0.000225642
0.000387682
-0.000454217
0.000794044
0.000383226
-0.000106218
-0.000276976
0.00607445
-0.00465937
-0.00141504
0.000208857
-7.65879e-05
-0.000132256
-8.97367e-05
-2.68806e-05
0.000116605
0.000211385
-0.00242605
-0.000224308
0.00134028
-0.00111598
0.000148494
0.000132722
-0.000586459
-0.000763557
-0.000586531
0.000219787
0.000366848
-0.000356843
0.000555604
-0.000198722
-0.000106752
0.000152884
-4.61233e-05
-0.000638323
0.000215164
-0.000498078
0.000319304
0.00137451
-0.00078017
-7.01488e-05
6.95687e-06
0.000266083
-5.40536e-05
-0.000212028
2.16444e-05
-6.71118e-05
4.54523e-05
-0.00310432
0.00181084
0.000814234
-0.00271391
0.00189963
-0.000363762
5.78331e-05
0.000305864
0.000772956
-0.00045176
-0.000321237
0.000296389
-9.29842e-05
-0.000203431
0.0027889
-0.000464492
-0.00232442
-0.00230102
0.00121626
0.00108483
0.00152547
8.81352e-05
-0.00016937
2.82456e-05
0.002441
-0.00232043
3.49513e-05
-0.000357879
0.000322943
-0.000768183
2.94977e-06
-0.00111088
0.000561999
5.64266e-06
4.02934e-06
-2.08785e-05
3.64183e-05
-0.000513094
-5.44471e-05
0.00056756
0.000315031
0.00135074
0.00102192
0.00107811
-0.00210002
0.000425105
-0.000514762
0.000132296
-0.000443679
0.00031137
0.000333647
0.000192425
-0.000526094
0.00128996
-0.00207752
0.000787498
9.64734e-05
-0.000571403
0.0024415
-0.00423687
0.00179551
6.11687e-05
-0.000151804
9.06377e-05
-0.000932601
0.00120508
-0.000272478
-0.000762575
-0.00219525
1.89789e-06
-1.90197e-06
-0.00016919
2.51149e-05
0.00274109
-0.002722
-1.91068e-05
0.00415268
-0.00329341
-0.000859152
0.000175075
-0.000137699
-3.74662e-05
9.70753e-07
5.11077e-08
0.000158945
-0.000304733
0.000145772
-0.000320364
-0.000293048
-0.000941521
0.000998928
-0.000408322
0.00183283
-0.00142453
5.7287e-05
-0.000127389
4.19254e-06
-5.33153e-05
-0.00103598
0.00053042
-0.00158559
0.000664481
0.000921086
-0.000269185
0.000169686
9.52176e-05
-0.0010369
0.000941679
0.00090911
-1.25828e-05
-0.000896539
0.000761639
-0.000427993
4.79895e-07
1.75809e-05
-0.00314983
0.00827316
-0.00512356
-0.000540704
0.00078218
-0.00024134
0.000242582
0.000379261
-0.000621857
6.26657e-05
-9.02889e-05
2.75508e-05
-0.000593931
0.00067725
-0.000387091
0.000422069
-0.000634729
0.000272657
0.000361978
8.41796e-06
-1.32675e-05
-0.00128683
-8.56893e-05
0.00137252
0.00110781
-2.65891e-05
-0.00108122
0.000197364
0.000239377
0.000155002
-0.00406178
0.00390681
0.000474856
-0.000266064
8.1417e-06
-7.65103e-06
0.00141383
-0.00100679
0.000662392
0.000110571
-0.000141575
0.000273797
-0.000229235
-0.000453135
0.000682382
0.000989718
-8.06285e-05
-1.1696e-06
-1.43372e-05
1.5522e-05
-0.00120724
0.00104503
0.000357707
-0.000880973
-2.77498e-05
0.000282326
-0.000254555
-4.09058e-05
-6.58211e-05
1.87182e-05
4.40233e-05
-6.27833e-05
0.00190665
-8.67452e-05
0.000775808
-0.000832675
5.6846e-05
1.00321e-05
-2.47763e-06
-7.57151e-06
-0.00149957
-0.000956002
0.00245555
-0.000268428
0.000425125
-0.00015668
-0.00046458
0.000107764
0.000986045
-0.00133091
0.000344743
1.36831e-06
0.000151489
-0.000538638
0.00135042
-0.000811845
0.000698365
-0.000835088
0.000136702
5.0536e-06
-5.89542e-06
8.40963e-07
-0.00115177
0.0018196
-0.000667827
0.00022674
-0.00205333
0.00182662
-0.000273064
-9.28024e-05
-6.50183e-05
2.96497e-05
0.000315199
-0.000169206
-0.000146067
0.000141609
-0.00134755
0.00120591
3.18123e-05
0.000351426
-0.000526952
1.38382e-05
0.000761415
-0.000230972
-1.50135e-05
1.74729e-05
-2.48161e-06
-0.00134639
0.00149707
-0.000590009
-0.000490392
0.00108042
0.00272965
-0.00152742
-0.00120226
-1.49238e-06
9.68256e-06
-0.000469031
-0.000918352
0.00138735
-0.00163466
0.00156822
6.64294e-05
-0.000178689
-4.5613e-05
-0.000855002
-0.0011105
-0.000331098
0.000684644
-3.31618e-05
2.1173e-05
-1.33585e-05
-7.79721e-06
-0.000155584
-0.000268064
0.00042359
-0.000558361
0.00110872
-0.000550381
-0.000555649
0.000408101
0.000147583
-4.83262e-06
5.00014e-05
-0.00180152
0.00139319
4.82244e-05
-0.000217775
-1.2444e-05
6.9667e-06
5.46704e-06
0.00199712
-0.00121797
-0.000779249
5.25837e-05
-4.05081e-05
-1.20822e-05
0.00115911
0.00162976
0.000211399
-3.64051e-05
4.99661e-06
5.02012e-06
0.000296485
-0.000321198
2.4686e-05
0.00494091
0.00113354
0.000557283
-1.67996e-06
-0.00169582
0.000196239
0.00132483
-0.000460436
-0.000864363
5.83227e-05
-1.36061e-05
-4.47309e-05
0.000680836
-0.000873329
0.000192531
0.000359016
-0.000588268
-0.000874549
0.000284537
-7.71752e-05
0.000139833
0.000707783
-0.00101131
0.000303519
-2.63374e-05
1.90477e-05
7.22488e-06
-0.000114894
0.000173186
-2.04874e-05
6.08576e-05
-0.00747356
-0.00120151
1.12734e-05
5.24389e-06
-1.65172e-05
-0.00162155
0.000986754
0.000100717
0.00088526
7.16367e-06
1.45036e-05
-0.000108123
0.00026702
-3.23772e-05
5.40033e-05
-2.16233e-05
0.000197711
-9.42735e-05
-0.000103351
-0.00390421
0.0016032
0.00172422
0.000809848
-2.61624e-05
3.26866e-06
2.29152e-05
-4.22366e-05
-2.2705e-05
0.000397036
-0.000175326
-0.000221767
0.00221636
-0.00186028
-0.000356089
-6.9042e-05
0.000132312
-9.45965e-06
1.90271e-05
-9.58172e-06
0.00098191
0.00101522
-4.70145e-05
4.51856e-05
1.83911e-06
-0.000121153
-0.00100537
-5.6173e-06
-2.05626e-05
-0.0011982
-8.86304e-05
5.98101e-05
-0.000111659
5.18905e-05
-0.0022211
0.000618266
0.00160279
-0.000217349
0.000721438
-0.000504132
-0.000256101
-0.000569855
0.000825927
-0.000399389
-0.000187134
0.000344776
-0.000931198
0.00311527
-0.000313399
-0.00280198
0.000370128
-7.36334e-05
0.000250973
0.000524824
0.00528048
0.00311857
-0.00839908
7.71907e-05
-0.000173891
9.66935e-05
-0.000308217
-0.00161393
0.00192213
-0.000192576
-0.000740021
-6.67631e-05
-0.0015679
0.00217654
0.0002497
-0.00242625
0.000123518
-0.000128844
5.31758e-06
-0.000627996
0.000205383
0.000422457
-7.57762e-05
-0.000442561
0.000518358
-0.00287063
0.0059859
-0.00308532
0.00409448
-0.00100909
0.00043156
-0.00351682
0.00037862
-0.000847394
2.30569e-05
-0.00010302
7.9984e-05
-0.00213324
0.00294746
0.000331329
0.00010526
-0.000157969
0.000135249
2.27794e-05
-0.00110611
0.000966971
0.000139163
-0.00195368
0.0017412
-0.00343435
0.00617541
0.000173061
-0.000544383
0.00037142
0.0018326
-0.000542642
0.00769928
-0.00626081
-1.29146e-05
4.02467e-05
-2.7371e-05
-0.00150032
8.95747e-05
0.00160082
-0.00178729
0.000186384
4.92815e-05
3.32382e-06
2.91673e-05
-3.34872e-05
4.31676e-06
-1.15188e-05
-1.48025e-05
7.81871e-06
-8.95131e-06
-5.59576e-05
0.000736851
5.05219e-05
0.00240124
-0.00245175
0.00185314
0.00253043
-0.00438357
1.77227e-05
0.000379289
9.20594e-05
-0.000109213
1.72384e-05
-0.00173884
0.000587092
1.09084e-05
-1.22629e-05
1.3552e-06
5.81041e-06
-2.38753e-05
1.79203e-05
-0.000695106
-0.00106021
0.000501823
0.000966887
8.97191e-06
3.10393e-06
-1.21049e-05
0.00181719
0.000912436
-3.10364e-05
-2.31801e-05
5.41911e-05
6.75125e-05
-0.000661388
-0.000393214
0.000250463
-0.00111554
0.000859451
0.00023056
-0.00049895
-0.000275776
0.000289033
-1.32462e-05
-6.48311e-05
-1.84602e-05
8.32551e-05
-0.000837284
-0.00019861
0.00124981
-0.00201794
-0.000524863
0.000171353
0.000353415
-0.00239578
0.00139714
0.00099862
0.000454731
-0.000530483
0.000466903
-0.000224312
0.00343647
-0.00397513
0.000464882
0.000946571
4.13816e-05
-2.26712e-05
0.000258705
-0.000286461
-0.00114899
0.00121739
-6.84314e-05
9.30275e-05
-1.77026e-05
-7.52016e-05
0.00122479
-0.000880007
-3.86939e-05
1.87826e-05
1.99219e-05
0.00142212
5.35762e-05
-0.00147576
-3.8726e-05
9.85634e-05
0.000119814
-9.6801e-05
9.64026e-05
0.000175386
-0.000271796
0.000725352
0.000832602
-0.00155796
0.000126155
-2.97451e-05
0.00153889
-0.00139731
-0.000327022
-0.000108945
0.000435891
0.000787358
1.52821e-05
-0.000802731
-0.00176357
0.00142961
0.0003337
0.000315431
-0.000238247
-0.0102535
0.00710367
-0.00207698
0.000106783
-3.62024e-05
-7.0572e-05
0.00386307
-6.99841e-05
-8.79436e-05
9.47108e-05
-1.10348e-05
-8.36611e-05
7.13364e-05
-0.000340527
-2.26743e-05
7.68537e-06
0.000105256
4.87977e-05
-0.000153937
2.23872e-05
-5.34342e-05
0.000770587
-0.000826536
-0.000170514
0.000147947
-0.000224073
0.000347594
0.00113804
-0.00226135
0.00112328
5.72247e-05
-0.000172724
0.000115462
0.00154527
0.000896225
0.000879961
-3.94687e-05
-0.000840508
0.000523423
0.000367645
-0.000891082
2.74075e-05
-2.16399e-05
-1.40329e-05
0.000106
0.00141783
-0.000897038
-0.000520697
0.000116435
-8.89233e-05
-0.000674576
-0.000299104
0.000973466
0.000105581
-4.44681e-05
0.00249153
-0.000357454
-0.00122815
0.00271633
-0.00157832
0.000198731
-0.000495408
0.000296667
-0.000192008
0.00113012
-0.000938083
0.00102722
0.00114939
0.00020054
-0.000116693
-0.0011222
0.00059734
-6.51829e-07
0.000186215
-0.000185483
-4.66034e-06
0.00183653
-0.00183189
-0.000175997
-0.000335004
-5.44655e-06
1.67264e-05
-0.00123465
0.00111347
0.00175564
-0.000230173
0.00140982
0.000345816
-0.0014449
0.000815463
0.000629424
-4.1262e-06
6.13795e-05
0.00174065
-0.00204888
0.000626511
-0.000935335
0.000308799
-0.000459182
-0.000346825
0.000805995
-9.64196e-06
1.7129e-05
-7.48958e-06
0.000171955
-0.000344365
0.000172418
1.32083e-05
-1.38166e-05
-1.05235e-05
-1.20885e-05
2.26025e-05
-0.00142107
0.00136915
5.18815e-05
0.000196274
-4.95751e-06
2.21882e-06
2.76763e-06
0.000850427
-0.00072551
-0.000125017
0.000100137
-6.58768e-05
-3.443e-05
-0.00104782
0.000550332
0.00049746
7.73326e-05
2.94388e-05
-0.000332249
-0.000240995
0.000573145
-0.00109438
0.000368949
0.000725394
-0.00461523
0.00152824
0.00308701
-0.000291094
-0.000338507
0.000629561
-0.000140488
1.47338e-05
7.82799e-05
-2.29621e-06
4.17194e-06
0.00132935
-0.00111787
4.06148e-06
4.87589e-06
-0.000248938
0.00208544
-0.00183652
-0.00653045
0.00838362
0.00110683
0.00021806
-0.000324528
0.000247744
7.67585e-05
0.000157763
2.71364e-05
-0.000331761
-0.000306523
0.000807537
-0.000181059
0.00946033
-0.000404785
0.00125244
-0.000465042
-0.00167332
0.00120591
-0.000708612
0.000376261
0.00113902
3.2387e-05
-0.00117139
0.000363168
0.000178857
-0.000542017
-0.000493956
0.000551656
-5.76252e-05
0.00204156
-0.000261697
-0.00177993
6.66052e-05
-0.000247847
0.000208035
3.97768e-05
-0.000159363
0.000173188
-1.39135e-05
-8.7786e-06
8.77119e-06
2.1064e-08
0.00168056
-0.000734725
-0.000945833
0.000230709
-9.38624e-05
-0.000136828
8.61552e-06
-1.34207e-06
-7.28131e-06
-0.000137675
0.00146686
-0.00010066
-0.000196803
0.000297467
-0.000441813
-0.000606011
-0.000647025
0.00120868
-0.000135607
8.85632e-05
-7.48769e-06
-4.96089e-06
-0.000549047
0.00194877
-0.00139971
0.000775685
-0.000252265
4.51853e-06
1.29405e-05
-0.000547752
0.000256628
6.63457e-05
-0.00015875
9.23676e-05
-0.000497624
0.00370293
-0.00320539
0.000692283
-0.000299097
-0.000393195
0.00133801
-0.000906538
-0.000431493
-0.00253564
0.000518381
0.0020172
0.00035426
5.80746e-05
0.000332512
-6.38146e-05
-0.000268739
-7.28128e-05
0.00095275
-0.000961366
0.0019833
9.74916e-05
-0.000127272
2.98035e-05
-2.02329e-05
-2.4534e-06
-0.00010621
-0.000818491
0.000924697
2.83704e-05
-0.00206329
0.000610451
0.00145287
1.59223e-05
-7.3156e-06
0.00038855
-0.000527178
-0.000856838
0.000867579
-1.07161e-05
-0.000865796
0.000358877
0.000506838
-1.28786e-05
4.20167e-05
-2.52523e-05
0.00067828
-0.000653038
-0.000675199
0.000230285
0.00119181
-6.62913e-06
1.66486e-06
-1.54916e-05
-1.80204e-05
1.45338e-05
-1.38453e-05
-6.91563e-07
2.67658e-05
-1.22174e-05
0.000607443
-0.00107649
-0.00138828
-3.28045e-05
-0.000838385
0.001058
-0.000293202
-0.000764826
1.70984e-05
4.05407e-06
-2.37634e-05
3.61328e-06
-0.00122043
0.0010284
0.000731265
-0.000367079
-0.000364192
-0.000387943
0.000289072
9.883e-05
-0.000105687
3.86148e-05
7.79767e-06
8.6891e-05
1.71729e-05
-2.24241e-05
5.24808e-06
-0.00108142
-0.000439387
0.000535923
4.40609e-05
-3.69137e-05
-7.14962e-06
-2.18604e-05
4.04522e-06
1.78197e-05
0.00181252
-5.87158e-05
-0.000435226
0.000153246
-0.000370652
0.000161653
-0.000146864
-6.78282e-05
-1.81048e-06
6.96543e-05
7.9006e-05
-7.16146e-06
-7.18337e-05
0.000363532
-0.000522945
-0.000761904
0.0060424
0.00213611
-0.000139965
0.00155778
2.49526e-05
0.000419712
-0.000444673
0.00147205
0.000360767
0.00187017
-0.000145939
4.40813e-05
2.2074e-05
-6.61865e-05
0.000877361
-0.000178993
1.12714e-05
0.00102581
-0.00213194
1.01602e-05
-2.25342e-05
1.23612e-05
0.0010766
0.000603968
0.000333522
0.0022234
-0.00255692
-1.13785e-05
1.08342e-05
5.43638e-07
-0.000476781
-0.00413837
0.00301886
-0.000604288
-0.00241444
0.00210388
-0.000336829
-0.00176711
-0.000144089
0.000169062
7.76133e-07
4.60378e-05
-4.68291e-05
-0.000231583
0.000331664
1.8916e-05
-8.37682e-05
-0.00084523
-2.93049e-05
-0.00269792
-0.00118321
0.00113622
4.69703e-05
0.000565387
-0.000741379
-0.000168752
-0.00012771
0.000296403
-0.00121874
0.000925451
-0.000820012
-0.000240202
0.00128676
-0.00128677
0.000623966
0.000245393
-0.000126273
-0.0013186
0.000222543
-5.91785e-05
0.000298566
-0.00010054
-0.000198065
0.000192233
-3.05396e-05
-0.0018259
0.00216378
-0.000337834
-0.00112427
-0.000450004
0.000121929
-0.000662566
-0.00101766
-0.00107511
-0.000108111
-2.70221e-05
0.000124478
-2.63095e-05
-0.000235352
0.000261654
0.000391391
-0.00072316
-0.000851823
-0.00168384
-0.000370017
0.000321451
4.85688e-05
5.36221e-05
9.78859e-05
-0.000151444
-0.00171755
0.00360106
-0.00188361
0.000927462
4.24523e-05
-0.000969909
-0.00262496
0.00062561
0.00199936
-0.00216917
0.00156689
0.000602347
-6.48814e-06
2.07384e-05
-0.00145628
-4.40509e-05
-0.000551633
-9.56358e-06
-1.81392e-06
0.000569036
-0.000212448
-0.000356505
0.000511956
1.85259e-05
-0.000530424
0.000711081
-0.000621907
0.00121777
-0.000786411
-0.00156435
0.00173282
-0.000168486
0.000586073
-0.000222861
-0.000122902
6.80505e-05
5.48348e-05
-5.80101e-05
-0.000787226
0.000154827
-8.36827e-05
-7.12223e-05
-0.000643269
0.000184083
-1.46756e-05
-2.62124e-05
2.49994e-05
1.90939e-05
8.91579e-05
0.000618606
0.000142864
0.0007846
-0.00129567
0.000904841
0.000390775
-4.04639e-05
0.000195212
0.000357367
-6.09726e-05
-2.61855e-06
-1.92482e-05
5.6781e-05
-8.51952e-06
1.25501e-05
0.00154603
-0.000171536
-2.43959e-05
0.000322913
0.000668027
0.000584299
-5.50378e-05
0.000798011
-0.000105708
0.00619184
-0.00603686
0.000939298
0.000606767
-0.00117021
0.00203475
-0.000864574
-5.46138e-05
9.87164e-05
-4.40892e-05
-0.000487294
-0.000257407
0.000744773
3.36937e-06
-0.000798873
0.000471793
-0.00291543
0.00102981
0.0011393
-0.000805851
4.70664e-05
-0.00021578
-5.6222e-06
2.87033e-05
-2.30886e-05
3.83045e-06
-3.91105e-05
3.52792e-05
-8.22479e-07
0.00012434
-0.00607243
0.00718948
-0.00111703
0.000576805
4.19548e-05
-0.000468772
0.00113499
-0.000666145
-0.0029017
0.000505969
-3.60135e-05
0.000302178
-2.2316e-05
9.39403e-06
-1.28692e-05
-7.0016e-05
8.28806e-05
-0.00032406
-0.00097167
0.0018033
0.000127641
-0.00193098
-1.12768e-05
1.63596e-05
-0.000928651
-0.000251157
0.00117983
1.40902e-05
-2.95475e-05
9.85254e-05
7.75636e-05
-0.000176191
0.000210486
-9.96618e-05
-0.000635895
-0.000220972
-0.000125905
1.46713e-05
9.09267e-05
-0.000133064
-0.000127446
0.000260451
0.000688701
-0.00118777
0.00188715
-0.00104182
-0.000845227
0.00103139
0.000143781
-0.0011752
0.00297726
-0.00575687
0.00277971
-0.000441868
0.000416613
-0.000276136
0.000827673
-0.000551552
0.000990817
0.000295905
0.000426203
1.60218e-05
-0.000442209
-1.95509e-05
2.97057e-05
0.00169658
0.00055592
-0.00225255
-0.00218726
1.80089e-05
-0.000185114
-0.000370497
-2.11331e-05
1.23566e-05
8.74628e-06
-0.000173357
0.000505851
-0.00197048
0.00258876
-0.00011053
-0.000165288
0.000821577
-0.000650316
0.000242134
7.30678e-05
-1.03065e-05
1.41488e-05
0.000359573
1.31225e-05
-0.000372685
-0.000742229
-3.39865e-05
3.15911e-05
2.40256e-06
2.88579e-06
2.7484e-05
-3.03803e-05
3.38213e-06
-2.66314e-05
2.32681e-05
0.00154719
0.000669161
-0.000103353
2.77935e-05
-0.000155843
0.000354541
1.11501e-06
-0.000364879
0.00035822
-9.33968e-05
-0.000264824
0.00143029
-0.00128744
7.01534e-05
-0.000146619
-0.00108227
0.00104368
-1.04415e-05
-0.00248862
0.00436405
-0.00187536
-4.24879e-05
2.19781e-05
-0.000498959
0.000793497
-0.000294542
2.37904e-05
-1.58179e-05
-7.9528e-06
0.00205112
0.00716613
-0.00921727
1.03788e-05
5.60255e-05
-0.00207885
0.000984425
0.00242066
-0.00387754
0.00145676
0.000341895
0.000389376
-4.01789e-06
2.04497e-06
-0.000121532
0.000610519
0.00125966
0.000239809
-8.57462e-05
-0.000154267
0.000413202
-0.00189766
0.00148445
-0.000276049
-0.000346603
0.000622655
-0.000663347
0.000292988
6.25712e-05
-0.000120181
5.76968e-05
0.000710656
5.99818e-05
-0.000229693
0.00113448
-0.00217378
0.00100357
0.00083107
-0.00129993
3.22377e-05
0.00016136
-0.000193615
8.77217e-05
0.00144912
-0.00153682
-0.000364297
-0.0014752
0.00183965
-0.000173371
-4.44196e-05
0.000124177
0.000681053
-0.00080528
0.00163582
-0.00435794
-5.44579e-05
-0.000608847
0.00163453
-0.000672497
-0.000961999
0.000681718
-0.000155772
-0.00052593
0.000245387
4.28549e-05
-0.000288265
-0.000113207
0.000625217
-0.000317415
0.000687534
2.20478e-05
-1.61794e-05
-5.92028e-06
-0.000108145
0.000206588
-0.00159066
-3.46083e-05
-0.000479529
0.000457584
1.40824e-05
-2.62483e-05
1.20756e-05
7.64901e-06
0.000255697
-0.000512415
0.000256892
-0.000103535
7.26484e-05
3.08811e-05
0.000560889
0.000260638
8.10714e-05
-1.84961e-05
1.73493e-05
4.96881e-05
-6.69939e-05
-9.89978e-05
-4.33794e-06
4.1213e-05
6.19576e-05
-0.00010319
-1.80157e-05
-2.08902e-05
3.88979e-05
-0.000623185
0.000544047
7.91221e-05
1.5169e-05
-3.9126e-06
-1.12342e-05
0.00115664
0.000181365
-0.000428876
0.000193364
0.000235578
-0.0013392
0.00036855
2.03887e-07
2.9049e-06
-3.16099e-06
0.0001153
-0.000178703
6.34006e-05
-0.00043179
-0.000624111
0.00105589
0.000333352
0.000805588
-0.000117341
0.000324789
-0.000207453
-0.000461826
-0.00127427
0.00173614
-0.00290673
0.00444812
-0.00154142
0.00068918
-0.000621646
-0.000241223
-0.000508915
0.000159142
0.000349792
-0.000216043
7.23911e-05
0.000143666
4.78768e-05
-8.9451e-05
4.16061e-05
1.25137e-05
1.42369e-05
-7.72147e-06
-2.46394e-05
-0.000610525
0.000636957
-2.65251e-05
4.55317e-05
6.97675e-05
-0.00150922
0.00125371
0.000255493
-0.000540062
-8.3117e-05
-8.94889e-06
1.98071e-05
0.00112281
0.00136371
-0.0024866
0.00245117
-0.005358
0.00144197
-0.000753303
3.06018e-06
-2.71792e-05
2.41164e-05
-5.59119e-06
5.58432e-06
-0.000136439
-5.75383e-05
-0.000133544
0.00019108
-2.18067e-05
-2.28867e-05
4.4673e-05
0.000768029
0.00117841
-0.00194637
0.0001302
-0.000223143
2.12804e-05
-3.0136e-05
8.84261e-06
-0.000141818
0.000100188
4.16908e-05
-4.44012e-05
1.56214e-05
2.8734e-05
1.15385e-05
-7.5526e-06
-3.98651e-06
-3.07113e-05
0.000110536
-0.00131069
0.00172388
-0.000697098
0.000374911
0.000322049
-4.80362e-05
1.40584e-05
7.3603e-06
2.16691e-06
0.000156281
-0.000976309
-0.00564083
0.00029417
7.60104e-06
-0.000301685
0.000233245
0.000332134
-0.00193546
0.00147362
0.000631923
0.000737173
-0.00136917
-2.91417e-05
-0.000104878
0.000133996
7.73477e-05
-7.66161e-05
0.000173001
7.23921e-05
9.97573e-06
-1.11337e-05
9.36832e-06
2.15906e-06
-0.000380771
0.000132935
-0.000596394
-0.00115896
0.00170233
-0.000543411
-0.00100814
0.00125776
-0.0023894
0.000775467
-0.000321741
0.000194381
0.000127387
-8.34083e-05
9.37735e-05
-1.02887e-05
9.01634e-05
-4.94821e-05
-4.06935e-05
-2.05843e-05
-1.80597e-05
0.000142305
8.84472e-05
0.000306382
2.50804e-05
-0.000331429
-1.03249e-05
1.78766e-05
-7.54139e-06
0.000631328
-0.000789499
0.00314567
-0.00258837
3.67316e-05
4.60747e-06
-4.1312e-05
0.000517321
0.000912947
-0.000277035
-0.000876863
0.00115388
0.000118404
-3.31193e-05
2.79113e-05
5.7523e-06
-3.36634e-05
-0.00074236
0.000317981
0.000424385
-3.71721e-05
-2.47683e-05
4.53729e-06
-0.000395297
0.00124821
-0.00085295
4.94607e-06
2.29804e-05
-0.000968084
3.63662e-05
-3.37248e-06
-3.30419e-05
-4.44236e-05
3.27405e-05
1.17685e-05
-0.00115797
2.30135e-05
-0.000109153
8.61416e-05
-6.26506e-05
-0.000260934
0.00031611
2.41201e-05
-0.000340206
9.90308e-05
1.39253e-07
-9.91474e-05
3.20376e-05
1.17241e-05
-4.37338e-05
-9.93078e-05
2.25329e-05
7.68402e-05
-4.82396e-05
0.00010041
-5.2148e-05
5.82386e-05
-5.53653e-05
-0.00182969
0.00144494
0.000384619
-1.38202e-05
3.78634e-06
1.00824e-05
9.72347e-05
-8.73929e-05
-9.80955e-06
0.00153897
-0.00158144
4.24789e-05
-0.000172197
0.00220542
0.000231106
-0.000354015
-0.000871082
-7.88254e-05
0.000111666
-3.28984e-05
0.000298235
-0.000147085
-0.000151115
8.45458e-06
-1.80465e-05
9.54749e-06
8.91468e-05
-0.000297859
-0.00104773
0.00539054
-0.00333955
-8.10839e-05
-3.34579e-05
0.000114585
0.000203369
-0.000267152
-0.000748793
0.000472745
-0.000313188
0.000132137
0.000181109
-0.000370021
-3.26378e-05
0.00040263
1.41586e-08
0.000124861
0.000159517
-0.00201981
-2.28291e-05
-0.000379234
0.000401985
0.000141112
-0.000202398
-0.000640096
0.000604992
3.50791e-05
-0.000823023
0.000959509
-0.000136571
2.69727e-05
-7.52494e-05
8.12376e-05
4.29367e-05
1.57229e-05
-3.23814e-06
-2.47323e-05
4.77465e-05
3.34371e-05
-3.3244e-05
0.000343235
-0.00126157
-8.05947e-06
-9.96822e-06
3.55364e-05
-5.60054e-06
0.000575897
0.000101616
9.3274e-08
-0.000101741
0.00158507
-0.00208265
0.000600294
0.00304939
3.75461e-07
-1.40577e-05
1.36446e-05
-7.28128e-05
0.000305044
-0.000232173
3.89314e-05
-2.62893e-05
-1.2636e-05
-0.000352305
6.79673e-05
7.58971e-06
-7.54605e-05
-2.50958e-05
-1.62082e-05
1.92538e-05
-3.07731e-06
-0.000549949
5.07677e-06
9.8808e-05
0.00122767
-0.00168437
0.000456682
-0.000939655
0.000303823
0.000635825
-0.000787847
-0.000140831
0.00144183
0.000158934
0.000492164
-0.000446429
-4.57471e-05
-4.82918e-05
6.11993e-06
-7.21843e-05
-0.00138411
0.000214144
-4.33164e-05
0.000411957
8.02069e-05
0.000776662
-0.000816457
3.97775e-05
0.00134711
0.000191869
0.000174344
0.00192962
-0.000164695
0.000151805
0.000149046
0.000529218
-0.00120861
6.98993e-05
-9.26829e-05
-0.000942778
-0.000206208
1.79702e-05
-2.05683e-06
-3.86426e-06
6.10137e-05
4.08976e-05
0.000253229
2.03415e-06
-2.07232e-05
6.90484e-05
-4.82138e-05
-0.000137814
-0.00023804
0.000375902
-0.00113667
0.00181849
-0.000681828
2.16686e-05
-2.54974e-05
-1.21173e-05
4.24723e-05
-3.03742e-05
-2.57755e-05
-2.39123e-05
4.96717e-05
-0.000991068
0.00372055
-0.00272938
1.27331e-05
-0.000112
0.00285046
-1.7838e-06
-0.000291017
0.000292773
-7.6589e-05
1.28174e-05
6.38084e-05
0.00279247
-0.000371737
4.43488e-06
0.00284607
-8.95741e-06
6.33213e-05
-5.43431e-05
7.47488e-05
2.68566e-05
-0.00126451
0.000987474
-4.37496e-05
0.000133917
-3.00335e-05
0.000186619
2.05498e-06
3.43257e-05
-0.00509894
0.00413751
0.00254436
0.000474458
0.000441945
0.000234696
-0.000676703
-0.00077539
-0.000710577
0.000710086
5.40478e-07
-0.000253897
-0.000149832
-6.62181e-05
-0.000182658
-0.000139027
1.05584e-05
-5.5444e-06
-2.66225e-05
4.28209e-07
-1.00822e-05
0.000447768
-0.000368712
-0.000925518
0.000561264
0.000366809
1.75727e-05
-0.000384387
-2.70977e-05
0.00109756
-0.00107057
4.17435e-05
-6.21609e-06
0.000621207
-0.00102329
0.000473338
0.00054992
-0.000572046
-0.000286211
2.32869e-05
0.000262873
0.000448797
-0.00027876
-0.000170052
-1.63326e-05
2.34879e-05
0.000107788
-0.000129591
3.38299e-05
-0.000310961
0.00027726
-2.918e-05
-0.000295377
3.2448e-06
4.17982e-05
-9.64223e-05
-0.00114782
0.000457931
0.000689875
0.00108305
0.000358699
-0.00142977
-0.000607988
0.00203772
0.000101766
7.3982e-05
-0.000175782
0.00171334
-0.00029752
-4.6706e-05
-7.02021e-05
0.000116888
-0.000879114
0.000610913
0.000268229
-0.000111478
-0.0001747
4.21223e-05
2.84362e-05
-7.05647e-05
0.000523258
-0.00046961
0.00171317
-0.00196214
0.000169348
-0.000198538
1.10254e-05
4.0432e-05
-5.14208e-05
-1.81469e-06
3.38192e-05
0.00037903
-7.26275e-05
0.00232849
7.51952e-05
-0.000232552
0.000143596
8.89299e-05
-9.14349e-05
3.39048e-05
0.000572421
-0.000399346
-0.00101908
-1.05889e-05
1.09594e-05
-0.000466605
-0.003983
0.00484645
-0.000863373
-0.0016737
0.000509201
0.00116449
8.48168e-05
-0.000357882
-0.00448685
0.000809248
0.00367759
7.58644e-05
-0.00010213
-0.0012642
0.000357637
-0.000721784
-0.000301528
-3.12196e-05
-0.000245498
3.19435e-05
-0.000110765
-0.000362392
-0.000460624
-1.10771e-05
-0.000727727
0.00145309
0.00014196
2.24339e-06
7.14777e-05
-9.17574e-06
0.000687759
-0.00109605
0.000408506
0.000521528
0.00106116
-0.00161021
0.00273329
-0.000602046
-0.00213124
0.00179972
-0.000445188
-0.00135452
-0.000597112
0.000442146
0.000154961
-4.42396e-06
-1.67694e-05
2.11856e-05
0.000593606
0.000588849
-0.00118249
-2.22235e-05
-2.22144e-05
-0.000282903
-3.44955e-05
0.000695621
-0.00117296
0.000477315
5.45011e-05
-6.49964e-05
0.000149557
-7.60544e-06
9.20022e-05
-0.000211942
0.000119948
3.87426e-05