/*--------------------------------*- C++ -*----------------------------------*\
| =========                 |                                                 |
| \\      /  F ield         | OpenFOAM: The Open Source CFD Toolbox           |
|  \\    /   O peration     | Version:  v2012                                 |
|   \\  /    A nd           | Website:  www.openfoam.com                      |
|    \\/     M anipulation  |                                                 |
\*---------------------------------------------------------------------------*/
FoamFile
{
    version     2.0;
    format      ascii;
    class       volScalarField;
    location    "200";
    object      k;
}
// * * * * * * * * * * * * * * * * * * * * * * * * * * * * * * * * * * * * * //

dimensions      [0 2 -2 0 0 0 0];


internalField   nonuniform List<scalar> 
13917
(
0.000164853
0.000149063
0.0589909
0.000153836
0.000148664
0.000190591
0.058276
0.0598392
0.0704731
0.000171923
0.000196046
0.000183137
0.000153972
0.0163873
0.000154757
0.00015379
0.000149335
0.000174443
0.000182785
0.000148658
0.000149765
0.0579502
0.000148566
0.0567744
0.000148095
0.0537671
0.000160975
0.000164003
0.000204237
0.000182741
0.000166381
0.000157156
0.0001589
0.000153579
0.000148226
8.41782e-06
0.000148631
0.0454123
0.000157241
0.0195795
0.000147814
0.0001499
0.000145118
0.000167264
0.000148964
0.000155209
0.000173946
0.000179937
0.000768172
0.000147953
0.000158454
0.000149684
0.001114
0.000153882
0.000149472
0.000157481
0.000196314
0.000148552
0.000154957
0.000148794
0.0730377
0.000149043
0.00818766
0.000148589
0.00019053
0.0116027
0.000148612
0.000148407
0.000198008
0.000162264
0.000148712
0.0671083
0.044143
0.000148097
0.000719606
0.000186683
0.0313543
0.000151438
0.0487587
0.000149538
0.000149337
0.00014867
0.000189025
0.049658
0.0400609
0.00015109
0.000149135
0.000514292
0.000158025
0.000145103
0.0479266
0.000177593
0.000147719
0.000151023
0.00624768
0.000189423
0.000191084
0.000179167
0.000199109
0.000169734
0.000146671
0.000157687
0.000166926
0.000152388
0.00014672
0.0671566
0.000194429
0.000180448
0.000149565
0.000167457
0.047254
0.0217687
0.000188181
0.0691558
0.000150877
0.000817727
0.000147988
0.00034754
0.0273367
0.000154225
0.000149811
0.000198807
0.0299896
0.000163487
0.000147788
0.000150774
0.000148804
0.000147772
0.000145136
0.000207932
0.0433614
0.000150722
0.000149069
0.00014981
0.00013799
0.055689
0.000164796
0.000170555
0.000148577
0.000154126
0.00011798
0.000146856
0.000150063
0.000168584
0.000148428
0.0499426
0.000195835
0.000149531
0.000146556
0.000157386
0.000177004
0.000847385
0.000186624
0.00016301
0.00015666
0.018932
0.000161283
0.000303604
0.0262814
0.00163994
0.000152659
0.000160571
0.000149542
0.0001902
0.000187718
0.000197515
0.000152311
0.000178829
0.000148142
0.00015805
0.000163317
0.025726
0.000190897
0.000150165
0.0342254
0.000164209
0.0459633
0.000518807
0.0438183
0.000147809
0.000179343
0.000167483
0.000146834
0.000149076
0.000157129
0.0532804
0.00020506
0.0258942
0.000164937
0.00019503
0.000102663
0.0442297
0.000200868
0.000148645
0.000171168
0.000160383
0.000153843
0.000147764
0.000180453
0.000502167
0.000158012
0.000148059
0.000176852
0.000176525
0.0388473
2.09728e-05
0.000148223
0.000148657
0.000178602
0.0557742
0.00014997
0.059118
0.0291753
0.000195069
0.000146756
0.000202549
0.000175728
0.0300985
0.000147777
0.065551
0.000147758
0.000181676
0.000147132
0.0484312
0.0691052
0.000154136
0.000381672
0.000157144
0.00014678
8.44134e-05
0.000190569
0.000164538
0.0546433
0.0245643
0.000146309
0.000157826
0.052637
0.0295868
0.000149494
0.000147533
0.0216912
0.000195906
0.000149763
0.000184992
0.000186045
0.000160265
0.000163856
0.000149494
0.000162969
0.0266118
0.000148843
0.000183343
0.000172918
0.000148651
0.000148466
0.000182415
0.0273295
0.000185417
0.000157281
0.000154862
0.000149789
0.0247357
0.0642728
8.32368e-05
0.000146833
0.0421589
0.0246224
0.00498523
0.0482102
0.000188483
0.000149385
0.000147254
0.00017422
0.0420515
0.000191255
0.000154472
0.000648192
0.00017315
0.00014487
0.038771
0.000148493
0.0386519
0.000157563
0.000149704
0.000155877
0.000163171
0.000160442
0.000180556
0.000159202
0.000149236
0.000179138
0.0537381
0.0712789
0.000147794
0.00720882
0.000149082
0.000149206
0.000148036
0.000234186
0.000148582
0.000182812
0.000163205
0.00014802
0.000177189
0.000151518
0.000837715
0.000163665
0.000176278
0.000147459
0.000148432
0.044026
0.0283384
0.000147954
0.000147387
0.0343165
0.000147929
0.0474575
0.000147342
0.0513828
0.000150748
0.000211057
0.000164881
0.000686884
0.000152183
0.000315434
0.00018119
0.000155698
0.000195819
0.000199143
0.00014943
0.0433104
0.000170841
0.0282441
0.000152916
0.0211517
0.000159014
0.0553149
0.000180791
0.000171052
0.00017093
0.0605028
0.000149393
0.000163689
0.0521724
0.000149218
0.000151906
0.0256982
0.000186164
0.000150035
0.000203327
0.000194729
0.000146908
0.0236902
0.000113812
0.000148452
0.00014724
0.000149136
0.000146519
0.00019247
0.0395557
0.000203926
0.0492457
0.000148065
0.000185004
0.00676836
0.000170896
0.058727
0.0468416
0.0709272
0.000146374
0.000146222
0.000147131
0.0537432
0.000148809
0.000752638
0.00018577
0.000155636
0.00014927
0.000177509
0.000180769
0.000180597
0.00134895
0.0505315
0.0243942
0.000163477
0.000170755
0.000147591
0.0325365
0.0563855
0.000148634
0.000124962
0.000148241
0.000247804
0.00015073
0.000149475
0.000151488
0.0407683
0.000151304
0.0301281
0.0124725
0.000198171
0.000190569
0.000149324
0.000194264
0.000187733
0.000148176
0.000187448
0.000149127
0.000148242
0.000182207
0.000149722
0.000148145
0.00014709
0.000274429
0.000149627
0.0242225
0.0403324
0.00472657
0.000200282
0.0368477
0.030972
0.000170583
0.000148061
0.00020262
0.000156755
0.000159389
0.000148586
0.046784
0.0569328
0.0371839
0.000153489
0.000189262
0.000152587
0.000157863
0.000180172
0.000151054
0.000130422
0.000149397
0.000148573
0.0524547
0.0443305
0.0464807
0.000181253
0.00337677
0.0475271
0.056819
0.030339
0.000145333
0.000176669
0.000151128
0.000148755
0.000142575
0.000174711
0.000147728
0.000176296
0.000169104
0.0289329
0.000148133
0.000190261
0.022261
0.000246683
0.028872
0.000149672
0.000148752
0.000153287
0.000161147
0.000146336
0.0496521
0.000192785
0.000158942
0.0313066
0.00015739
0.000190767
0.0618789
0.000197995
0.000197605
0.000100447
0.000190732
0.000174568
0.000196282
0.000171787
0.000199822
0.000198604
0.000175606
0.000183098
0.000148379
0.000313826
0.000158785
0.000146472
0.000160429
0.000151699
0.0310642
0.068177
0.000147827
0.000145007
0.0516351
0.0261906
0.000149723
0.0239525
0.000151838
0.000194557
0.00014793
0.0370979
0.000282321
0.000157186
0.000149729
0.0398467
0.000199157
0.0104683
0.000149775
0.0299082
0.000771025
0.0383321
0.000146538
0.0361332
0.0818694
0.000170783
0.000147184
0.000149491
0.000187044
0.000212465
0.000147879
0.000147244
0.000147584
0.000147532
0.0371313
0.000173828
0.000170466
0.000218202
0.000147902
0.000146705
0.000188525
0.0752103
0.000163532
0.000148304
0.000148168
0.000148427
0.0451573
0.0492982
0.000149103
0.000148442
0.000134373
0.000171114
0.000164892
0.000148666
0.000151423
0.00015654
0.000182788
0.000191641
0.000219207
0.000201737
0.000188378
0.000304874
0.00017672
0.000147847
0.0307549
0.000148431
0.000151979
0.000155057
2.40525e-05
0.000169073
0.000146651
0.000232811
0.000185332
0.0132404
0.000188076
0.000159487
0.000170219
0.000149198
0.0751883
0.000218753
0.0608545
0.000149084
0.000161086
0.000216795
0.0490136
0.0112011
0.000180124
0.000184168
0.000153794
0.000153327
0.000148779
0.000164595
0.000167492
0.000149015
0.000175363
0.000172628
0.0617397
0.0123704
0.000152816
0.000190493
0.000159547
0.000156721
0.000149731
0.000608124
0.054804
0.0552085
0.00019584
0.000145267
0.0263836
0.000186153
0.000147024
0.000161616
0.000181307
0.000158437
0.000182741
0.0498329
0.000199716
0.000168967
0.0747401
0.000152037
0.0260728
0.000149541
0.000149047
0.00983715
0.0570917
0.000202464
0.000151998
0.000150212
0.000148442
0.0001738
0.000937057
0.000196538
0.000153671
0.000195054
0.000176948
0.000148095
0.000333036
0.000196608
0.000135792
0.000147714
0.000201943
0.000151589
0.0183161
0.000172941
0.000168893
0.000161151
0.00014703
0.000146369
0.000149021
0.000172456
0.000155293
0.000246603
0.000750584
0.000178051
0.000146962
0.000201239
0.000200467
0.000680582
0.000148714
0.000154888
0.000147317
0.000161669
0.000155435
0.0816659
0.000149487
0.000373001
0.000160949
0.000196251
0.000177325
0.0439645
0.000169609
0.000149468
0.0396353
0.0143686
0.000148538
0.000154853
0.000382488
0.000199
0.000190685
0.000149548
0.000149704
0.00019931
0.000156031
0.000180019
0.000181726
0.000146452
0.000176896
0.0587841
0.000148624
0.000152512
0.000147716
0.0265904
0.000149757
0.000153191
0.0273608
0.000151568
0.0510466
0.000156866
0.000159186
0.00014765
0.000165106
0.000148095
0.000174425
0.000147008
0.000172087
0.00015184
0.0196561
0.000402588
0.0754408
0.000151958
0.00014933
0.000176061
0.000168823
0.0307302
0.0750759
0.000173905
0.000148224
0.000266114
0.000212261
0.000136618
0.000210786
0.000173254
0.0461677
0.000163907
0.000172002
0.000194836
0.000177019
0.000173447
0.000235815
0.000172858
0.000153724
0.000183042
0.000155924
0.000147331
0.000161403
0.000167658
0.000156787
0.000148167
0.000147338
0.000177262
0.000153045
0.000180527
0.000148229
0.000148352
0.000149802
0.000151154
0.000144931
0.000155751
0.000147848
0.0359663
0.000183249
0.000181962
0.000146485
0.000149622
0.000162401
0.000174763
0.000150365
0.0568487
0.000172996
0.0314209
0.000161439
0.000192835
0.000150563
0.000149778
0.000147435
0.000151436
0.0191999
0.000149673
0.00033222
0.000155805
0.0081849
0.000163709
0.00017392
0.000196805
0.000145841
0.000149937
0.000183436
0.000148446
0.000149816
0.0374249
0.000150211
0.000149132
0.000158501
0.000147475
0.0001457
0.000156855
0.000155859
0.0252177
0.000162173
0.000148607
0.000147033
0.0533555
0.000172327
0.000149218
0.000149045
0.0443077
1.9771e-06
0.0235988
0.000159399
0.000153652
0.000146375
0.000145456
0.000175876
0.000163057
0.000221688
0.000153187
0.0399971
0.000149365
0.000151881
0.0199934
0.000148303
0.000158972
0.000148374
0.00014844
0.000166655
0.000160904
0.000150397
0.0532146
0.0256693
0.000177619
0.000147845
0.000145458
0.000194956
0.000904718
0.000149716
0.000174102
0.000145413
0.000166418
0.000147681
0.000147653
0.000211789
0.000148882
0.00638651
0.000165608
0.000149805
0.000145338
0.000148672
0.000147637
0.000152223
0.000592714
0.000148396
0.000147223
0.0694094
0.0573859
0.000169733
0.000168155
0.000179544
0.000155553
0.000146943
0.000155507
0.036554
0.000172549
0.000148809
0.000149689
0.0745641
0.000166294
0.0555324
0.000149752
0.00015061
0.0241459
0.000164306
0.000150761
0.0162802
0.000334959
0.000147562
0.000192094
0.000147394
0.000148807
0.000146458
0.0461239
0.000144853
0.000148845
0.000146921
0.0114047
0.000155958
0.000195197
0.00016454
0.000147708
0.000158264
0.000149091
0.0506119
0.000147641
0.000148496
0.000149139
0.000195859
0.00014909
0.000204716
0.0210683
0.0520275
0.000154749
0.000100252
0.0316351
0.000148408
0.0223837
0.0749765
0.0354658
0.0372316
0.0692646
0.00836411
0.000193845
0.000149441
0.0491942
0.000164099
0.0563031
0.000146446
0.000147706
0.000149247
0.000149051
0.000156987
0.000157604
0.0322156
0.000147632
0.000148455
0.00957408
0.000185685
0.000148701
0.000160371
0.000160155
0.000149614
0.000322948
0.000160618
0.000152071
0.000155961
0.0214565
0.0244841
0.000356225
0.000147512
0.000202362
0.000184573
0.0311887
0.0723621
0.000191224
0.000147969
0.000150708
0.000149415
0.000144246
0.000151375
0.000145128
0.000156526
0.000163429
0.0351502
0.000194541
0.000148886
0.000191395
0.0585273
0.000165684
0.000149612
0.0278576
0.000147834
0.000149665
0.000159617
0.0359742
0.000149089
0.000147733
0.0598795
0.000171547
4.16035e-05
0.000190146
0.000221348
0.000147607
0.000199157
0.000149598
0.00014791
0.00014959
0.0516833
0.0287463
0.000147299
0.00014533
0.000148514
2.78488e-05
0.000151022
0.000161339
0.000148363
0.000149922
0.000200613
0.000147861
0.000174749
0.00019156
0.046887
0.00014841
0.000171492
0.000152758
0.0415591
0.0561275
0.000148127
0.0431619
0.000180582
0.000287273
0.000149082
0.0412579
0.000149598
0.000157076
0.000165502
0.00018941
0.053976
5.905e-05
0.000198307
0.0593373
0.000146895
0.00024718
0.000147616
0.000155823
0.060517
0.000148829
0.000149658
0.000150669
0.000149572
0.0336618
0.000145743
0.00014851
0.000177263
0.000169186
0.000173671
0.000201379
0.000201112
0.0180711
0.000183909
0.000165898
0.000171258
0.0365517
0.000169759
0.0380174
0.053293
0.000156739
0.000147945
0.034617
0.0001022
0.000149571
0.000189521
0.000164187
0.000150312
0.000157597
0.000149717
0.000165662
0.000149942
0.000172771
0.000169859
0.000147164
0.000175052
0.000147786
0.000165624
0.000146992
0.000154187
0.000177053
0.000153322
0.000149479
0.000147328
0.000336373
0.000174876
0.0455064
0.000148159
0.000148944
0.000178182
0.000148314
0.000182859
0.000174747
0.000150319
0.00018724
0.000147582
0.0590043
0.000149418
0.000169021
0.0286517
0.000255469
0.000147638
0.00015143
0.0181085
0.000147897
0.000147402
0.0348384
0.0511087
0.000152246
0.000203478
0.000148599
0.000149402
0.0516712
0.00015115
0.000145902
0.000231616
0.000147834
8.67476e-05
0.000149275
0.000145905
0.000149236
0.000202097
0.0352277
0.000148974
0.000149447
0.000147605
0.000154431
0.000148385
0.000234098
0.000175578
0.000149772
0.0427893
0.000163817
0.000269885
0.0498605
0.000563177
0.000147138
0.000149396
0.00014862
0.000198497
0.000154896
0.0351944
0.0308403
0.000152152
0.0599522
0.000467157
0.00017297
0.000201528
0.000168814
0.000191891
0.053292
0.000166229
0.000307847
0.0524165
0.000182039
0.000153805
0.0374975
0.000163998
0.000146527
0.000152633
0.0579831
0.000162317
0.00014772
0.000165564
0.000184314
0.0001638
0.0368968
0.000152521
0.0503515
0.00017091
0.000187547
0.000190837
0.000200773
0.000159771
0.000147396
0.000150196
0.0561204
0.000147902
0.000152403
0.000146991
0.000151601
0.000147849
0.000159755
0.000199129
0.000351955
0.000162373
0.000164115
0.0357
0.000189882
0.000147762
0.00026261
0.046781
0.000146396
0.000147344
0.000160765
0.0220909
0.000149663
0.000178728
0.000207284
0.000165913
0.000148559
0.000152711
0.00014799
0.000188881
0.000162451
0.000147773
0.0159219
0.0473021
0.00016255
0.000171839
0.000182666
0.00186465
0.000151263
0.000156007
0.0412865
0.000176651
0.000191654
0.00025597
0.000158343
0.000149836
0.000148752
0.000148963
0.000148326
0.000150286
0.000166105
0.000147685
0.00019295
0.000147499
0.000159563
0.000147399
0.000173847
0.000194485
0.0002168
0.000148301
0.000200594
0.000148735
0.0409212
0.000148236
0.00015363
0.000148775
0.00022305
0.0401919
0.000200645
0.00014769
0.00019388
0.000148453
0.000159371
0.0490856
0.000148621
0.000149621
0.000168183
0.000161307
0.059373
0.000147698
0.000157518
0.000153013
0.000148219
0.000158189
0.000150005
0.000146168
0.000151796
0.0292852
0.000153877
0.000182005
0.0522013
0.000173424
0.037231
0.000153436
0.000146185
0.000158206
0.0256035
0.000153369
0.000161702
0.000171096
0.000984607
0.000147515
0.00210636
0.000176039
0.00017958
0.000146319
0.000145431
0.000198894
0.000149754
0.000149901
0.000158494
0.000146423
0.000152902
0.000158353
0.000182492
0.000187381
0.0566295
0.000156807
0.000183216
0.00330633
0.0166103
0.000168176
0.000181721
0.0207058
0.000167793
0.0538958
0.000152076
0.00731421
0.00316323
0.000146526
0.000149724
0.000147583
0.000151056
0.000168234
0.000147481
0.000151877
0.000191191
0.000152312
0.000159571
0.0441905
0.000157128
0.000154223
0.0705507
0.000150718
0.0240999
0.000155128
0.000164601
0.000147426
0.0297526
0.0284642
0.00014866
0.000151373
0.0402641
0.000157022
0.0135456
0.000148005
0.000147861
0.0613924
0.000151339
0.000161964
0.0093959
0.00014842
0.000174684
0.000159259
0.000145413
0.000146941
0.0467404
0.0296214
0.000149258
0.000153006
0.000148655
0.00015596
0.000159155
0.0290925
0.000150318
0.000412135
0.00685078
0.000151742
0.000926059
0.000151142
0.000198647
0.000177447
0.000156809
0.000148377
0.000180065
0.0455562
0.00015159
0.000161857
0.0580584
0.000878949
0.000181982
0.000153478
0.000149351
0.000149611
0.000148442
0.0244426
0.000176238
0.000153898
0.000151707
0.000153957
0.000149793
0.000148233
0.000148351
0.000183106
0.000170021
0.0404072
0.000162922
0.00847636
0.03199
0.000157984
0.000173398
0.000146622
0.000156557
0.0256957
0.000149096
0.000152295
0.000174377
0.000191225
0.000163054
0.0367206
0.000177965
0.000147821
0.0421301
0.000145193
0.000149732
0.000162864
0.000149804
0.000148799
0.000202204
0.0504356
0.000147896
0.0428293
0.000148911
0.000147073
0.000151959
0.000436153
0.000158465
0.000154983
0.0630647
0.000151057
0.000221847
0.0410982
0.000149606
0.000163257
0.000147924
0.020216
0.000179378
0.000148443
0.0484095
0.000175194
0.00016678
0.000149849
0.027325
0.000156661
0.000182393
0.000152264
0.000166268
0.0299352
0.000147181
0.000183197
0.000148915
0.00017501
0.000163408
0.000149605
0.0266857
0.00015197
0.000191438
0.000175505
0.000168773
0.000161979
0.000162302
0.000150225
0.0578836
0.000158296
0.0207568
0.000157122
0.000181124
0.000148272
0.000167529
0.000148473
0.000184661
0.0538514
0.000150389
0.000147123
0.00085659
0.000151567
0.00616696
0.000150389
0.0467549
0.000138276
0.00016199
0.000147897
0.000147551
0.000148683
0.000145308
0.00018689
0.000164735
0.000159776
0.000155475
0.000148448
0.000272698
0.00015311
0.000161378
0.00102902
0.000148379
0.0234463
0.00017398
0.000162319
0.000336149
0.0411564
0.00018636
0.0477653
0.0126135
0.000147493
0.000195462
0.0293189
0.000185627
0.000149082
0.00014931
0.000191314
0.0483598
0.0242226
0.000215465
0.000150432
0.000163739
0.000168394
0.0401029
0.00228058
0.000170609
0.000194058
0.000152624
0.000174018
0.000191876
0.000149039
0.00018435
0.0495262
0.000148806
0.00130064
0.000149658
0.000148816
0.0341562
0.0502892
0.000146854
0.000150746
0.000149894
0.000147855
0.000165356
0.000209165
0.0001527
0.000147806
0.000148603
0.000170574
0.000158196
0.000157607
0.000220344
0.000148251
0.0543043
0.0150878
0.0621222
0.000173851
0.000172551
0.000174753
0.000163869
0.0476806
8.34892e-05
0.00529855
0.000149896
0.0835539
0.0349602
0.00014627
0.000148178
0.000182549
0.0532254
0.051701
0.000147798
0.000148454
0.0448134
0.00106149
0.00258665
0.000153007
0.000152461
0.000445479
0.000149231
0.050367
0.0258658
0.00015492
0.000736352
0.000148621
0.000147665
0.000147076
0.000154633
0.0359574
0.000169862
0.000157042
0.00015028
0.000172081
0.0234707
0.000170967
0.0356898
0.0120022
0.0262561
0.000356126
0.000148322
0.000149077
0.0458318
0.000145641
0.00014648
0.000151014
0.000812403
0.000166748
0.0346477
0.000191109
0.000148113
0.0753503
0.000165491
0.00014779
0.0143217
0.000175342
0.000153131
0.000149647
0.00468521
0.059579
0.00014913
0.0558988
0.00911909
0.0539727
0.000637638
0.000174399
0.000148012
0.000150522
0.000237745
0.000155852
0.046313
0.000166263
0.000462837
0.000207504
0.000150655
0.00015662
0.000148026
0.000150447
0.0525103
0.0209211
0.000148435
0.0182889
0.000171066
0.000148582
0.000153273
0.000147535
0.000197135
0.000149819
0.00060541
0.000164073
0.00014787
0.000146808
0.000168385
0.0234653
0.000167314
0.000152529
0.000166542
0.000148438
0.000152108
0.000158926
0.0194966
0.0311099
0.0565569
0.000146017
0.000146956
0.000149519
0.000198331
0.00014715
0.000149691
0.00019891
0.00017879
0.000109645
0.000146345
0.0609415
0.0311717
0.000149887
0.0186348
0.000191283
0.00016789
0.000410463
0.000149312
0.0308541
0.00015687
0.000151238
0.000152064
0.0001456
0.000187216
0.000153806
0.000151856
0.000157152
0.0308534
0.037099
0.000149613
0.00014802
0.000152147
0.000148332
0.000189856
0.000149739
0.000182025
0.000153122
0.0437041
0.000151315
0.0605976
0.00014604
0.0780571
0.000150213
0.000145504
0.0552114
0.000183169
0.000170282
0.000260973
0.000161798
0.000168631
0.000148379
0.0361351
0.000148422
0.000147186
0.000167411
0.000183614
0.04081
0.0371858
0.00019193
0.056807
0.000189424
0.000162275
0.000147997
0.000155376
0.000159306
0.0556557
0.000153068
0.0552845
0.0310776
0.000149957
0.000148638
0.000148524
0.000248035
0.000794793
0.00015276
0.000148683
0.00015459
0.000158243
0.000167311
0.000238838
0.000189879
0.000148316
0.000206594
0.00018075
0.0238418
0.000180125
0.000151425
0.000153487
0.0743015
0.000147072
0.000182912
0.0567442
0.000150568
0.000154941
0.000206381
0.000171234
0.000150575
0.0242934
0.000154078
0.000263321
0.00017168
0.000157648
0.000151564
0.0566648
0.000146962
0.00016949
0.000578217
0.0561711
0.000172247
0.000175079
0.000157186
0.000163165
0.000149754
0.0572524
0.000158175
0.000148943
0.000161759
0.000148507
0.000149774
0.000948095
0.000148427
0.000149131
0.000148653
0.000195193
0.000149386
0.00016083
0.000183051
0.000197768
0.000188473
0.000149657
0.000181897
0.000186643
0.000201294
0.000179361
0.000155224
0.000195109
0.0504517
0.000200079
0.000149887
0.0304539
0.0462935
0.000149883
0.000153796
0.000145495
0.000201691
0.000183598
0.000149259
0.000249798
0.0545149
0.000146459
0.000149373
0.0387788
0.0334871
0.000183869
0.000145663
0.0238716
0.0356357
0.000779714
0.00014811
0.0570885
0.000189219
0.000166361
0.0475307
0.000157064
0.000145574
0.000160254
0.000196756
0.000162875
0.0453584
0.0633698
0.000147105
0.0475745
0.000200125
0.0337869
0.000146037
0.000162674
0.000149571
0.000147922
0.0599734
0.000440026
0.000236351
0.00147642
0.000157229
0.00017254
0.000151388
0.0614346
0.0235785
0.000148361
0.000149586
0.000157984
0.000148158
0.000173595
0.0634544
0.0642821
0.000173029
0.000150387
0.00014982
0.0596096
0.000153516
0.000174487
0.00014691
0.000151042
0.000258053
0.000694287
0.00016801
0.000456757
0.000149067
0.000231404
0.000152158
0.000163378
0.0707357
0.0186494
0.000148445
0.000149953
0.000167968
0.000154337
0.000149145
0.0639559
0.0559011
0.000147135
0.000144731
0.000149213
0.000147672
0.000322653
0.000147147
0.0408975
0.000186499
0.0001836
0.000147751
0.000165863
0.0660281
0.000164518
0.000195357
0.0409643
0.000149354
0.0281947
0.000157975
0.000158785
0.000189279
0.0283893
0.0334196
0.000181592
0.000147556
0.000186964
0.000147191
0.000153774
0.000149295
0.0381514
0.000158438
8.10315e-05
0.00013903
0.000171895
0.000148769
0.000201479
0.000158378
0.000149783
0.000178477
0.000145104
0.00017042
0.000164108
0.000149199
0.0622227
0.000151703
0.000193862
0.0001507
0.000147527
0.0486188
0.0482437
0.000152379
0.000158038
0.00016937
0.000170269
0.000179514
0.000158193
0.00015455
0.000155772
0.000220733
0.000153515
0.0389596
0.000165321
0.00012037
0.000197243
0.000151265
0.0656178
0.000145004
0.0573263
0.000152585
0.0532556
0.00129494
0.0115929
0.0198315
0.000249068
0.000167726
0.000149132
0.0620517
0.000168437
0.000148369
0.0223229
0.0502651
0.000151396
0.000153781
0.000159646
0.000159422
0.000164161
0.0354033
0.000149873
0.000162708
0.000167169
0.000158894
0.000149026
0.000186752
0.000145498
0.0421709
0.000152032
0.00019115
0.000161196
0.0001681
0.000180424
0.000325522
0.000180621
0.000147141
0.000184855
0.0603278
0.0486219
0.000150641
0.0393959
0.000160107
0.000453861
0.000148426
0.000153089
0.0530341
0.000177464
0.024965
0.0269636
0.000157992
0.0726722
0.000148164
0.000145453
0.0238524
0.000163996
0.000153027
0.0692839
0.00015695
0.000162846
0.000157086
0.000176233
0.000149035
0.0330373
0.0522726
0.00797093
0.000256522
0.000155811
0.000170406
0.0271155
0.00015262
0.00014967
0.000174867
0.000145785
0.000182477
0.0426816
0.022543
0.0279449
0.000177701
0.000150835
0.0590813
0.000145207
0.000182669
0.000149527
0.0326356
0.000152493
0.000163431
0.0396839
0.000191431
0.00014806
0.00015871
0.0128296
0.000148691
0.000196046
0.00014706
0.0454215
0.0551031
0.00019147
0.000167165
0.000147537
0.000227346
0.000196067
0.000167648
0.000147071
0.000150841
0.000148894
0.000177348
0.000148773
0.000187292
0.000148863
0.000147326
0.0830869
0.000147809
0.000157621
0.000156204
0.000149821
0.0455512
0.000147665
0.000160622
0.0558329
0.000176392
0.0347668
0.000148609
0.058613
0.00017706
0.0699711
0.000152154
0.000193401
0.000149818
0.000169052
0.000192643
0.000193106
0.000205016
0.0541121
0.000187696
0.000247917
0.000154714
0.000190619
0.00016196
0.00030806
0.000153361
0.000149651
0.000148368
0.000175433
0.000164205
5.62465e-05
0.000174885
0.0526415
0.0385303
0.000168518
0.000148541
0.00137069
0.000178838
0.000149903
0.000152359
0.000148748
0.0406621
0.00014834
0.0183356
0.00014775
0.000158737
0.0375961
0.00016988
0.000148302
0.000148327
0.0260969
0.000147715
0.000152693
0.000155815
0.000160071
0.000157954
0.00014908
0.000202979
0.000167433
0.000162097
0.000227705
0.0414061
0.0437047
0.0320661
0.00014614
0.000148188
0.00016994
0.000150762
0.000162723
0.0382297
0.0428746
0.000145619
0.000148336
0.0407718
0.000146634
0.000145795
0.000147221
0.00015488
0.0510294
0.0496694
0.000156692
0.000161442
0.000149278
0.000217653
0.000193972
0.000172378
0.000157695
0.000162645
0.000149654
0.000165151
0.000237731
0.000150639
0.000149474
0.000156586
0.0583965
0.000153814
0.02243
0.000148672
0.0507959
0.000161551
0.000155546
0.000146434
0.000147446
0.000237809
0.0424485
0.000163178
0.0249346
0.0505726
0.000150189
0.0520312
0.000201743
0.000148692
0.00957431
0.000141433
0.000191245
0.000149657
0.0407512
0.0344303
0.000148884
0.000161665
0.0305777
0.000165219
0.000148707
0.000147223
0.000150124
0.000153852
0.000179991
0.00025504
0.000166228
0.000178069
0.000146238
0.000149271
0.0476898
0.000147459
0.000166875
0.000154573
0.000149899
0.000173005
0.000148159
0.000152299
0.000252347
0.000147886
0.0431833
0.000148142
0.00280015
0.0501711
0.000184541
0.000149276
0.000149946
0.0587639
0.000145527
0.000153477
0.000149586
0.000195305
4.39001e-05
0.000164167
0.0492154
0.000161956
0.000143849
0.000150041
0.000180575
0.000147877
0.000148879
0.0180754
0.0469791
0.000372886
0.000152592
0.000179858
0.00018286
0.0332535
0.0564121
0.000237058
0.000165392
0.000145141
0.0509186
0.000148333
0.00014857
0.000239987
0.000191476
0.000156224
0.00017592
0.000163157
0.000158906
0.000158143
0.0744808
0.000154125
0.00014784
0.0192863
0.000163141
0.000146239
0.0353572
0.000148098
0.000148696
0.000194802
0.000184004
0.0395787
0.000146366
0.000153347
0.00014769
0.00042456
0.000147672
0.000191601
0.00257558
0.0471612
0.0324157
0.01093
0.000156919
0.0437748
0.000221953
0.00014936
0.000157704
0.000162401
0.000157331
0.000286309
0.0443674
0.0490929
0.0465814
0.00071381
0.000149119
0.000190441
0.000148146
0.0177469
0.000159572
0.000152864
0.00015384
0.000150912
0.000147667
0.000189259
0.0509159
0.000146055
0.000152897
0.000146914
0.0397518
0.000152696
0.0788202
0.0340246
0.000356339
0.000148592
0.00014774
0.0362873
0.000183722
0.000148875
0.000186075
0.00014949
0.000186222
0.000178034
0.000186996
0.00017519
0.0187621
0.000146922
0.000148006
0.000236379
0.0352759
0.000158579
0.000165515
0.000147997
0.0174095
0.00014808
0.000147594
0.000151587
0.000148284
0.00654493
0.0433562
3.06624e-05
0.000182414
0.0590069
0.000156151
0.000145626
0.000162929
0.000145968
0.000254302
0.000149091
0.000153491
0.000148134
0.000147413
0.000147537
0.00024587
0.000152064
0.000302208
0.000146053
0.000157402
0.000155836
0.000285791
0.000148258
0.000162937
0.000167201
0.000170843
0.0752432
0.000147393
0.0329091
0.000174295
0.000163716
0.000149752
0.000147738
0.0375556
0.0100582
0.000149205
0.000148059
0.00026657
0.000241388
0.000159808
0.0560922
0.00015076
0.00011605
0.000163794
0.000145967
0.036917
0.000152741
0.0507994
0.000148356
0.000150998
0.00014876
0.0394053
0.0452996
0.000145754
0.000178751
0.000222582
0.000148284
0.000147932
0.000148103
0.000179839
0.0550268
0.000173794
0.000155266
0.000165999
0.000148149
0.000148637
0.000153141
0.000147924
0.000208809
0.000148661
0.000181725
0.000216808
0.000163624
0.000145062
0.0312555
0.000183316
0.000148207
0.000176054
0.000162526
0.000305304
0.000152999
0.0736975
0.000173796
0.000148378
0.000181701
0.000180906
0.000154447
0.0817904
0.000180727
0.000162819
0.000176197
0.000148209
0.000182627
0.00016706
0.000180583
0.000147557
0.00014821
0.000145474
0.000158228
0.000178316
0.000177536
0.0364475
0.0288547
0.0361327
0.000149756
0.000332676
0.0513728
0.0610472
0.000148171
0.000148561
0.000175797
0.0547521
0.000152767
0.000165966
0.0124078
0.0339633
0.00486362
0.000169919
0.000201009
0.0397179
0.000201206
0.000145522
0.0016458
0.000218344
0.000149747
0.0001504
0.000150788
0.0578141
0.000183259
0.0539196
0.000153046
0.00204621
0.000149068
0.000148264
0.0347526
0.000149289
0.000165069
0.0492021
0.047703
0.000173731
0.000151211
0.000152167
0.000149687
0.000181968
0.000194057
0.000544282
0.0589487
0.00014665
0.0153918
0.000190154
3.1529e-05
0.000148063
0.000149023
0.000393827
0.000181751
0.000148125
0.000171966
0.000165352
0.000159973
0.0400426
0.0604635
0.0644746
0.0570869
0.000154243
0.000146144
0.000164731
0.0286618
0.0469866
0.000148631
0.000185406
0.000168218
0.000186379
0.000151284
0.000149683
0.000207214
0.000359284
0.00286182
0.000302097
0.0256115
0.000147665
0.000180561
0.0559439
0.000149383
0.000163948
0.000188709
0.000145863
0.000199426
0.067231
0.000180357
0.000149678
0.0212914
0.000191899
0.0260628
0.000144611
0.000153806
0.000149281
0.000153107
0.000149117
0.000169251
0.000161684
0.000161973
0.000182278
0.00016459
0.0424992
0.000153751
0.000161873
0.000157385
0.0223917
0.00016321
0.0312728
0.000157348
0.000156044
0.0106459
0.000168583
0.000148644
0.000161955
0.000871301
0.0578681
0.000250259
0.000148399
0.000147763
0.000148019
9.03695e-05
0.000151635
0.000430482
0.000318446
0.00017731
0.00016032
0.000222067
0.0272129
0.000149002
0.0523013
0.000159374
0.000163481
0.00014815
0.000148448
0.000174309
0.0601768
0.000148423
0.0273039
0.000200925
0.000167418
0.00019618
0.000147716
0.000148064
0.000161117
0.000152337
0.032519
0.0242045
0.000168819
0.000224657
0.000148279
0.00014875
0.000149399
0.000149608
0.0792427
0.000152589
0.0404899
0.000166952
0.000151443
0.000182689
0.000399401
0.0408174
0.0207098
0.000153184
0.000147781
0.000148809
0.000153835
0.000221525
0.000181065
0.0794096
0.000148978
0.000150809
0.000174998
0.000149712
0.000176907
0.000152034
0.000174707
0.000174908
0.000161811
0.000161865
0.000146383
0.000170821
0.000161476
0.000179247
0.000167288
0.000162234
0.000147017
0.000184117