/*--------------------------------*- C++ -*----------------------------------*\
| =========                 |                                                 |
| \\      /  F ield         | OpenFOAM: The Open Source CFD Toolbox           |
|  \\    /   O peration     | Version:  v2012                                 |
|   \\  /    A nd           | Website:  www.openfoam.com                      |
|    \\/     M anipulation  |                                                 |
\*---------------------------------------------------------------------------*/
FoamFile
{
    version     2.0;
    format      ascii;
    class       volScalarField;
    location    "200";
    object      k_0;
}
// * * * * * * * * * * * * * * * * * * * * * * * * * * * * * * * * * * * * * //

dimensions      [0 2 -2 0 0 0 0];


internalField   nonuniform List<scalar> 
13917
(
0.00016486
0.000149047
0.0590163
0.000153826
0.000148664
0.000190927
0.0582715
0.0598922
0.0705299
0.000172025
0.000196042
0.000183145
0.000153971
0.0163957
0.000154747
0.000153782
0.000149337
0.000174444
0.000182805
0.000148658
0.000149765
0.0579452
0.000148565
0.0568324
0.000148096
0.053731
0.000161002
0.000163983
0.000203123
0.00018283
0.000166412
0.000157198
0.000158905
0.000153589
0.000148226
1.90917e-05
0.000148631
0.0454258
0.00015725
0.019575
0.000147814
0.0001499
0.000145119
0.000167269
0.000148967
0.000155216
0.000173941
0.000179811
0.000767292
0.000147953
0.000158448
0.000149695
0.0011136
0.000153892
0.000149482
0.00015749
0.00019617
0.000148553
0.000154953
0.000148789
0.0730397
0.000149039
0.00818051
0.000148589
0.000190576
0.0119482
0.000148612
0.000148407
0.000197954
0.000162291
0.000148712
0.0671815
0.0441271
0.000148097
0.000718995
0.000186635
0.0313395
0.000151437
0.048697
0.000149538
0.000149337
0.00014867
0.000189246
0.0496746
0.0400706
0.000151092
0.000149135
0.000415554
0.000158027
0.000145103
0.0479144
0.000177678
0.000147717
0.000151021
0.00568653
0.000189637
0.000191048
0.00017911
0.00019951
0.000169768
0.000146671
0.000157704
0.000166945
0.000152385
0.000146719
0.0671965
0.000194839
0.000180304
0.000149578
0.000167475
0.0472535
0.0217629
0.000188223
0.0691987
0.000150869
0.00081752
0.000147988
0.000347152
0.027346
0.000154214
0.000149811
0.000198732
0.0300016
0.00016349
0.000147788
0.000150773
0.000148812
0.000147772
0.000145136
0.000208494
0.0433721
0.000150723
0.000149074
0.00014981
0.000143699
0.0557435
0.000164826
0.000170567
0.000148577
0.000154108
0.00012341
0.000146855
0.000150062
0.000168622
0.000148429
0.0500391
0.00019621
0.000149532
0.000146556
0.000157375
0.000176995
0.00084344
0.000186652
0.000162998
0.000156667
0.0189314
0.000161318
0.000315437
0.0262653
0.00145895
0.000152679
0.000160537
0.000149542
0.000190232
0.000187754
0.00019775
0.000152312
0.000178893
0.000148148
0.000158058
0.000163275
0.0257318
0.000191016
0.000150146
0.0343868
0.000164217
0.0459736
0.000518872
0.0439248
0.000147818
0.000179423
0.000167513
0.000146833
0.000149076
0.000157121
0.0532328
0.000209351
0.0258865
0.000164907
0.000195157
0.000111415
0.0442403
0.000201137
0.000148645
0.000171208
0.000160425
0.000153842
0.000147762
0.000180421
0.000502287
0.000158017
0.000148059
0.000176811
0.000176539
0.0388302
0.000129192
0.000148223
0.000148661
0.000178508
0.0557508
0.000149969
0.059122
0.0291577
0.000195192
0.000146755
0.000202368
0.000175747
0.0300991
0.000147779
0.0655308
0.000147755
0.000181515
0.000147132
0.0484424
0.0691306
0.000154135
0.000345287
0.000157178
0.000146779
5.82947e-05
0.000190683
0.000164545
0.054682
0.0245465
0.000146309
0.000157884
0.0526262
0.0295918
0.000149494
0.000147533
0.021681
0.000195799
0.000149763
0.000178559
0.000186199
0.00016026
0.000163836
0.000149494
0.000162972
0.0265938
0.000148838
0.000183318
0.000172904
0.000148659
0.000148467
0.000182452
0.0273144
0.000185457
0.00015728
0.000154855
0.000149789
0.0247477
0.0642066
9.14559e-05
0.000146833
0.0421482
0.0246216
0.0050545
0.0481521
0.000188452
0.000149386
0.000147254
0.000174213
0.0420521
0.000190984
0.000154471
0.000355725
0.000173121
0.000144871
0.0387293
0.000148493
0.038812
0.000157568
0.000149704
0.000155868
0.000163189
0.000160444
0.000168514
0.000159202
0.000149228
0.000170918
0.0537841
0.071219
0.000147794
0.00730897
0.000149082
0.0001492
0.000148035
0.000234779
0.000148582
0.00018255
0.000163193
0.000148024
0.000177122
0.000151526
0.00083744
0.0001637
0.000176395
0.00014746
0.000148433
0.044027
0.0283516
0.000147954
0.000147387
0.0342285
0.000147929
0.0474427
0.000147343
0.051396
0.000150751
0.00021277
0.000164889
0.000683527
0.000152194
5.77579e-05
0.000181046
0.000155685
0.00019577
0.000199408
0.000149435
0.043326
0.000170838
0.0282448
0.000152916
0.0211559
0.000159016
0.0553262
0.000180248
0.000171073
0.000170963
0.0605246
0.000149393
0.000163677
0.0521712
0.000149218
0.000151866
0.0257026
0.000185777
0.000150024
0.000190832
0.000197726
0.000146908
0.0236995
0.000113866
0.000148452
0.00014724
0.000149136
0.000146519
0.000192815
0.0396714
0.000204191
0.049246
0.000148065
0.000185015
0.00676911
0.000170902
0.0587295
0.0468448
0.0709558
0.000146375
0.000148445
0.000147131
0.0537881
0.000148803
0.000755744
0.000186041
0.000155655
0.00014927
0.000177436
0.0001809
0.000180579
0.00139221
0.0505401
0.0243957
0.0001635
0.000170795
0.00014759
0.032542
0.0563733
0.000148633
0.000140903
0.000148241
0.000243172
0.000150728
0.000149475
0.000151496
0.0406844
0.000151309
0.0301077
0.0124691
0.000198391
0.00019067
0.000149325
0.000194729
0.000188444
0.000148176
0.000187614
0.000149126
0.000148241
0.000182208
0.000149722
0.000148146
0.00014709
0.000275882
0.000149627
0.0242264
0.0402111
0.00472681
0.00020123
0.0368276
0.0309688
0.00017056
0.000148061
0.000203106
0.000156751
0.000159417
0.000148586
0.046901
0.0569161
0.0370465
0.000153486
0.000189239
0.000152589
0.000157872
0.00018015
0.000151051
0.000131452
0.000149405
0.000148573
0.0524412
0.0443397
0.0464892
0.000181242
0.00337732
0.0475442
0.0568116
0.0303312
0.000145333
0.000176672
0.000151114
0.000148756
0.0001517
0.000174704
0.000147728
0.000176348
0.000169095
0.028927
0.000148132
0.000190317
0.0222533
0.000241764
0.0288753
0.000149672
0.000148752
0.000153287
0.000161156
0.000146336
0.0495763
0.000193913
0.000158942
0.0313093
0.000157389
0.00019085
0.0618694
0.00019829
0.000197673
8.57648e-05
0.000190907
0.000174488
0.000197945
0.00017183
0.000199655
0.000198919
0.000175634
0.000183107
0.000148379
0.000264699
0.000158758
0.000146472
0.00016041
0.000151694
0.0310584
0.0682285
0.000147832
0.000145007
0.0515858
0.0261875
0.000149723
0.023958
0.000151831
0.000193893
0.000147934
0.0370823
0.000291599
0.000157222
0.000149711
0.0398203
0.000198157
0.0104692
0.000149775
0.0298902
0.000770924
0.0382659
0.000146538
0.0361413
0.0818328
0.000170757
0.000147184
0.000149476
0.000187159
0.0002121
0.000147879
0.000147244
0.000147584
0.000147532
0.0371196
0.000165578
0.000170433
0.000217084
0.000147902
0.000146705
0.000188505
0.0751931
0.000163581
0.000148307
0.000148168
0.000148427
0.0450866
0.04931
0.000149103
0.000148442
0.000130872
0.00017115
0.000164883
0.000148667
0.00015143
0.000156533
0.000182976
0.000191631
0.00022189
0.000200823
0.000188325
0.000372297
0.00017684
0.000147848
0.0307366
0.000148431
0.000151941
0.000155055
9.76828e-05
0.000169113
0.000146651
0.000237297
0.000185257
0.0132532
0.000188194
0.000159475
0.000170214
0.000149198
0.0751354
0.000219437
0.0608831
0.000149064
0.000161141
0.000211129
0.0490167
0.0111903
0.000180119
0.000184298
0.000153794
0.000153326
0.000148778
0.000164586
0.000167532
0.000149012
0.000175391
0.000172639
0.061771
0.0123718
0.000152811
0.000190596
0.000165375
0.000156727
0.000149733
0.000603016
0.054782
0.0553387
0.000197743
0.000145267
0.0263932
0.00018619
0.000147024
0.000161585
0.000181324
0.000158441
0.00018281
0.0497775
0.000201866
0.000169041
0.074687
0.000152024
0.0260631
0.000149541
0.000149047
0.00995401
0.0570774
0.000202917
0.000151993
0.000150203
0.000148442
0.000173799
0.000936184
0.000196749
0.000153676
0.000195214
0.000176917
0.000148093
0.000373201
0.000196835
0.000137417
0.000147713
0.00020139
0.000151583
0.0183115
0.000172964
0.000168904
0.000161238
0.00014703
0.00014637
0.000149019
0.000172453
0.000155294
0.000250917
0.000756582
0.00017813
0.000146962
0.000200049
0.000201137
0.000827158
0.000148712
0.000154861
0.000147317
0.000161638
0.000155438
0.0816305
0.000149487
0.000498456
0.000160984
0.000196439
0.000177233
0.0439498
0.000169604
0.000149462
0.0396313
0.0143629
0.000148534
0.000154841
0.000330915
0.000198893
0.000190744
0.000149548
0.000149689
0.000199253
0.00015605
0.000179986
0.000181761
0.000146452
0.000176933
0.0588142
0.000148623
0.000152512
0.000147716
0.0266023
0.000149757
0.000153187
0.0273665
0.000151573
0.0510349
0.000156812
0.000159194
0.00014765
0.00016512
0.000148094
0.000174469
0.000147008
0.000172031
0.000151835
0.0196196
0.00040172
0.0754221
0.000151958
0.00014933
0.000176185
0.000168828
0.0307391
0.0750793
0.000173919
0.000148223
0.000264406
0.000212085
0.000144496
0.000214257
0.000173228
0.0460881
0.000163897
0.00017196
0.000195523
0.000177072
0.000173456
0.000234722
0.000172859
0.000153743
0.000182954
0.000155925
0.00014733
0.000161404
0.000167638
0.000156754
0.000148166
0.000147338
0.00017732
0.000153043
0.000180496
0.000148228
0.000148352
0.000149802
0.000151156
0.000144931
0.00015573
0.000147848
0.0359516
0.000183286
0.000181784
0.000146485
0.000149622
0.000162392
0.000174685
0.000150357
0.0567767
0.000173045
0.0314086
0.000161468
0.000192761
0.000150564
0.000149778
0.000147435
0.000151442
0.0192054
0.000149673
0.000501682
0.000155769
0.00818592
0.000163673
0.000173934
0.000197295
0.000145842
0.000149937
0.000183471
0.000148445
0.000149811
0.0373904
0.000150207
0.000149132
0.00015847
0.000147475
0.0001457
0.000156887
0.000155863
0.0252266
0.000162215
0.000148607
0.000147033
0.0533615
0.000172342
0.000149216
0.000149036
0.044249
6.02285e-05
0.0236032
0.000159396
0.000153665
0.000146375
0.000145456
0.000175911
0.0001631
0.00022065
0.000153201
0.0400115
0.000149361
0.000151881
0.0199989
0.000148302
0.000158949
0.000148378
0.00014844
0.00016668
0.000160904
0.000150399
0.0532118
0.0256615
0.000177636
0.000147844
0.000145458
0.000194888
0.000718345
0.000149716
0.000174989
0.000145413
0.000166413
0.00014768
0.000147654
0.000211669
0.000148874
0.00629825
0.000165586
0.000149805
0.000145339
0.000148672
0.000147637
0.000152225
0.000600697
0.000148396
0.000147224
0.0694554
0.0574865
0.000169788
0.000168135
0.000179591
0.000155552
0.000146943
0.000155511
0.0365362
0.000172494
0.000148809
0.000149685
0.0745743
0.000166259
0.0555338
0.000149752
0.000150603
0.0241594
0.000164273
0.000150769
0.0162846
0.000335679
0.000147563
0.000191954
0.000147394
0.000148802
0.000146458
0.0461132
0.000144853
0.000148847
0.00014692
0.0112809
0.000155943
0.000195425
0.000164499
0.000147708
0.000158233
0.000149091
0.0506128
0.000147641
0.000148494
0.000149139
0.000195887
0.00014909
0.000204511
0.0210603
0.0520539
0.000154734
0.000112001
0.0316402
0.000148408
0.0223946
0.0749869
0.0354703
0.0372146
0.0693054
0.00833455
0.0001939
0.000149434
0.0491414
0.000164072
0.0562967
0.000146446
0.000147707
0.000149242
0.000149051
0.000157003
0.000157628
0.0322282
0.000147632
0.000148454
0.00957521
0.00018547
0.0001487
0.00016045
0.000160105
0.000149614
0.00028899
0.000160646
0.000152077
0.000155944
0.0214528
0.0244896
0.000355797
0.000147511
0.000202071
0.000184573
0.0311953
0.0723787
0.000191245
0.000147966
0.000150707
0.000149407
0.000144246
0.000151385
0.000145128
0.000156471
0.000163449
0.0351536
0.000194645
0.000148884
0.000191261
0.0585183
0.000165684
0.000149608
0.0278462
0.000147837
0.000149662
0.000159624
0.0359752
0.000149089
0.000147733
0.059891
0.000166187
6.13044e-05
0.000190296
0.00015711
0.000147607
0.000196762
0.000149593
0.00014791
0.00014959
0.0516232
0.0287496
0.0001473
0.00014533
0.000148517
1.69588e-05
0.000151006
0.000161285
0.000148363
0.000149913
0.0001996
0.000147861
0.000174599
0.000191059
0.0468935
0.000148417
0.000171482
0.00015277
0.0415445
0.0561188
0.000148127
0.0431624
0.000180608
0.000286812
0.000149082
0.0411825
0.000149598
0.000157091
0.000165518
0.000189563
0.0539387
6.23602e-05
0.000198405
0.0592995
0.000146895
0.000249301
0.000147617
0.000155822
0.0605342
0.000148829
0.000149658
0.000150679
0.000149567
0.0336666
0.000145743
0.000148509
0.000177295
0.000169157
0.000173694
0.000201675
0.000200971
0.0180762
0.000183923
0.000165868
0.000171185
0.0365459
0.000169794
0.0379878
0.0532589
0.00015675
0.000147945
0.0345866
0.000107151
0.000149574
0.000189535
0.000164185
0.000150319
0.000157598
0.000149709
0.000165683
0.000149942
0.000172738
0.000169931
0.000147164
0.000175136
0.000147786
0.000165657
0.000146992
0.000154185
0.000177062
0.000153323
0.000149474
0.000147328
0.000340206
0.000175005
0.0455148
0.00014816
0.000148936
0.000178283
0.000148316
0.000182977
0.000174806
0.000150319
0.00018728
0.000147582
0.0589944
0.000149417
0.000169083
0.0286553
0.000254551
0.00014764
0.00015144
0.0181042
0.000147897
0.000147402
0.0348456
0.0510984
0.000152229
0.000204046
0.0001486
0.000149392
0.0516089
0.000151167
0.000145903
0.000239143
0.000147833
7.93916e-05
0.000149275
0.000145905
0.000149235
0.0002021
0.0352266
0.000148973
0.000149447
0.000147605
0.00015443
0.000148385
0.000232964
0.000175635
0.000149772
0.0429176
0.000163817
0.000269009
0.0498786
0.000562431
0.000147138
0.000149395
0.000148619
0.000196415
0.000154888
0.0351952
0.0308449
0.000152159
0.0599663
0.000468101
0.000172957
0.000201509
0.000168803
0.000191835
0.0532565
0.000166282
0.000272195
0.0524363
0.000182058
0.000153807
0.0374937
0.000163968
0.000146528
0.000152621
0.058004
0.000162299
0.000147723
0.000165584
0.000184553
0.000163817
0.0368997
0.000152524
0.050306
0.000170971
0.000194527
0.000191066
0.000201196
0.000159701
0.000147397
0.000150186
0.0561416
0.000147903
0.000152411
0.000146991
0.000151607
0.000147851
0.000159745
0.000198679
0.000350181
0.000162395
0.00016408
0.0355574
0.000190008
0.000147758
0.000366855
0.0466861
0.000146396
0.000147344
0.000160786
0.0220966
0.000149663
0.000178763
0.000207418
0.000165881
0.00014856
0.000152706
0.000147991
0.000188955
0.000162466
0.000147773
0.0159385
0.0472301
0.000162561
0.000154893
0.000182701
0.00198609
0.000151272
0.000156004
0.041188
0.000157548
0.000191743
0.000256592
0.000158382
0.000149836
0.000148753
0.000148962
0.000148327
0.000150288
0.000166121
0.000147685
0.00019293
0.000147498
0.000159513
0.0001474
0.000173817
0.000194531
0.000219114
0.000148302
0.000200775
0.000148738
0.0408731
0.000148235
0.000153654
0.000148775
0.000226287
0.0401766
0.00020124
0.000147693
0.00019393
0.000148467
0.000159385
0.0490724
0.000148626
0.000149622
0.000168129
0.000161248
0.0593825
0.000147699
0.000157516
0.00015301
0.000148218
0.000158215
0.000150013
0.000146168
0.000151795
0.0292666
0.000153876
0.000197203
0.0523318
0.000173435
0.0372275
0.000153438
0.000146185
0.000158196
0.0255943
0.000153382
0.000161696
0.000171126
0.000779845
0.000147515
0.00210584
0.000176152
0.000179624
0.000146319
0.000145431
0.000199475
0.000149759
0.000149901
0.000158464
0.000146423
0.000152925
0.000158301
0.000182548
0.000187376
0.0566115
0.000156798
0.000183139
0.00322141
0.0166047
0.000168174
0.000181478
0.0207112
0.000167792
0.0539423
0.000152069
0.00734811
0.00316317
0.000146527
0.000149724
0.000147584
0.000151059
0.000168197
0.00014748
0.000151866
0.00019113
0.000152298
0.000159565
0.0441767
0.000157095
0.000154232
0.0706057
0.000150725
0.0241059
0.000155112
0.000164595
0.000147427
0.0297386
0.0284691
0.000148675
0.000151366
0.0401662
0.000156984
0.0135473
0.000148005
0.000147861
0.0614206
0.000151343
0.000161966
0.0093912
0.00014842
0.00017465
0.000159225
0.000145414
0.00014694
0.0466708
0.0296268
0.000149271
0.000153
0.000148657
0.000155966
0.00015918
0.0290831
0.000150317
0.000410723
0.00694129
0.000147175
0.000528267
0.000151139
0.000198575
0.000177597
0.000156779
0.000148376
0.000180081
0.0455505
0.000151586
0.000161856
0.0581276
0.000865538
0.000181977
0.000153481
0.00014935
0.000149611
0.000148442
0.0244484
0.000176285
0.000153885
0.000151703
0.000153948
0.000149793
0.000148234
0.000148351
0.000183078
0.000170103
0.040554
0.000162933
0.00847706
0.0319666
0.000157979
0.000173375
0.000146622
0.000156569
0.0256816
0.000149078
0.000152304
0.000174413
0.000191475
0.000163075
0.0365956
0.000173598
0.000147821
0.0421413
0.000145193
0.000149732
0.000162854
0.000149804
0.000148795
0.000200576
0.0503834
0.000147895
0.042716
0.000148901
0.000147071
0.000151969
0.000442259
0.000158518
0.000154964
0.0630732
0.000151073
0.000218444
0.0410658
0.000149606
0.000163264
0.000147924
0.0202067
0.000179428
0.000148443
0.0483299
0.000175163
0.000166787
0.000149849
0.0273301
0.000156667
0.000182304
0.000152263
0.000166278
0.0299264
0.000147181
0.000187137
0.000148915
0.000175027
0.000163402
0.000149605
0.0266901
0.00015198
0.000191758
0.000175491
0.000168784
0.000161983
0.000162299
0.000150222
0.0579491
0.00015831
0.0207621
0.000157114
0.000181164
0.000148264
0.000167532
0.000148476
0.000184716
0.0538402
0.000150406
0.000147124
0.000855525
0.000151561
0.0060883
0.000150384
0.0466645
0.000140885
0.000162003
0.000147898
0.000147551
0.000148683
0.000145308
0.000186684
0.000164713
0.000159798
0.000155426
0.000148448
0.000103189
0.00015311
0.000161368
0.000979278
0.000148379
0.0234468
0.000174001
0.000162318
0.000336876
0.0411461
0.000200196
0.0477099
0.012589
0.000147493
0.000195102
0.0293248
0.000186118
0.000149082
0.000149311
0.000191241
0.0482852
0.0242272
0.000224268
0.000150439
0.00016374
0.000168385
0.04008
0.00228048
0.000170644
0.000193962
0.00015259
0.000173986
0.000191831
0.000149039
0.000184522
0.0494527
0.000148806
0.00130532
0.000149658
0.000148816
0.0341582
0.0502852
0.000146855
0.000150752
0.000149896
0.000147853
0.000165355
0.000208256
0.000152693
0.000147806
0.000148603
0.000170634
0.00015816
0.000157656
0.000209375
0.000148251
0.0542933
0.0150916
0.0621492
0.000173861
0.000172463
0.000181401
0.000163895
0.0476204
0.000203948
0.00461979
0.000149901
0.0835531
0.0349447
0.00014627
0.000148177
0.000182423
0.0532319
0.0516548
0.000147798
0.000148454
0.0448209
0.000682517
0.00275861
0.000153014
0.000152461
0.00044359
0.000149228
0.0503844
0.0258649
6.34804e-05
0.000767713
0.000148623
0.00014767
0.000147076
0.000154634
0.0359702
0.000169907
0.000157053
0.000150281
0.000172
0.0234771
0.000171019
0.0356722
0.012004
0.0262641
0.000355337
0.000148321
0.000149077
0.0457415
0.000145641
0.00014648
0.000151001
0.000811702
0.000166735
0.0346439
0.000191686
0.000148112
0.0753433
0.000165483
0.000147794
0.0143235
0.000175437
0.000153146
0.000149658
0.00468462
0.0595754
0.00014913
0.0558309
0.00921793
0.0539873
0.000405136
0.000174382
0.00014801
0.000150525
0.000223509
0.000155849
0.0462636
0.000166225
0.000224292
0.000208658
0.000150639
0.000156606
0.00014804
0.00015044
0.0525216
0.0209281
0.000148435
0.0182917
0.000171066
0.000148585
0.000153262
0.000147536
0.000195828
0.000149813
0.000604944
0.000164055
0.00014786
0.000146808
0.000168375
0.0234537
0.000167333
0.000152499
0.00016653
0.000148439
0.000152101
0.000158928
0.0195031
0.0311128
0.0565593
0.000146017
0.000146956
0.000149524
0.000198499
0.000147151
0.000149701
0.000198576
0.000178812
9.01147e-05
0.000146345
0.0609334
0.0311732
0.000149887
0.0186405
0.000191451
0.000167858
0.000412638
0.000149301
0.0308581
0.000156855
0.000151233
0.000152044
0.0001456
0.000186577
0.000153806
0.00015185
0.000157168
0.0308354
0.0370977
0.000149613
0.00014802
0.00015215
0.000148334
0.00019015
0.000149743
0.000182175
0.00015313
0.0436992
0.000151317
0.0606231
0.000146039
0.0780322
0.000150216
0.000145504
0.0552226
0.000183751
0.000170266
0.000175023
0.000161799
0.000168634
0.000148379
0.0361348
0.000148422
0.000147186
0.000167466
0.000183624
0.0408036
0.0371927
0.00019206
0.056735
0.000189674
0.000255594
0.000147996
0.000155365
0.000159323
0.0556423
0.000153073
0.055275
0.031088
0.000149945
0.000148638
0.000148525
0.000256886
0.000801356
0.000152756
0.000148683
0.000154593
0.000158247
0.000167286
0.000236342
0.000189936
0.000148316
0.000205355
0.00018082
0.0238255
0.000180135
0.000151431
0.000153488
0.0742934
0.000147072
0.000183044
0.0567357
0.000150563
0.0001549
0.000204616
0.000171166
0.000150574
0.0243069
0.000154058
0.000265044
0.000171724
0.000157668
0.000151569
0.0566628
0.000146962
0.000169452
0.00057827
0.0561836
0.000172223
0.000175021
0.000157197
0.000163164
0.000149754
0.0572665
0.00015816
0.000148948
0.000161747
0.000148507
0.000149774
0.000947333
0.000148427
0.000149131
0.000148653
0.000194991
0.000149384
0.000160848
0.000183127
0.000197144
0.000188766
0.000149657
0.000182006
0.000186164
0.000200702
0.000179445
0.000155221
0.000195582
0.0504881
0.000196929
0.000149887
0.0303605
0.0461954
0.000149883
0.00015378
0.000145495
0.0002014
0.000183389
0.00014927
0.000251426
0.0545045
0.000146459
0.000149375
0.0386687
0.0334973
0.000183897
0.000145663
0.0236713
0.0356006
0.000778798
0.000148109
0.0570753
0.000189138
0.000166364
0.0475366
0.000157054
0.000145574
0.000160244
0.000196617
0.000162911
0.0452638
0.06336
0.000147105
0.0475212
0.000199376
0.0337935
0.000146037
0.000162699
0.000149569
0.000147912
0.059997
0.000477051
0.000230515
0.00152756
0.000157221
0.000172486
0.000151388
0.0614385
0.0235854
0.00014836
0.000149594
0.000157971
0.000148157
0.000173597
0.0634944
0.0642143
0.000173002
0.000150382
0.000149808
0.0596228
0.000153504
0.000174458
0.00014691
0.000151008
0.000264029
0.00059122
0.000145623
0.00045292
0.000149067
0.000228252
0.000152158
0.000163371
0.0707353
0.0186541
0.000148445
0.000149953
0.000168037
0.000154339
0.000149148
0.0639886
0.0558896
0.000147135
0.000144731
0.000149213
0.000147672
0.000326214
0.000147147
0.0407835
0.000186607
0.00018356
0.000147752
0.000165833
0.0660181
0.000164492
0.000194578
0.0409694
0.000149353
0.0281781
0.000157954
0.000158803
0.000188812
0.0283879
0.033426
0.000181616
0.000147556
0.000186899
0.000147192
0.000153779
0.000149293
0.0380246
0.00015845
0.000177435
0.000132293
0.00017188
0.000148769
0.00020147
0.000158365
0.000149783
0.000178205
0.000145104
0.000170343
0.000164027
0.000149206
0.0621986
0.000151625
0.000195052
0.000150699
0.000147527
0.048632
0.0482605
0.000152388
0.000158043
0.00016937
0.000170276
0.000179518
0.000158191
0.000154558
0.000155763
0.000221409
0.000153507
0.0388274
0.000165334
0.000139464
0.000197092
0.000151259
0.0656558
0.000145004
0.0573157
0.000152584
0.0532552
0.00157583
0.0118328
0.0198659
0.00024822
0.000167727
0.000149135
0.0620865
0.000168415
0.000148369
0.0223289
0.0504078
0.000151393
0.000153774
0.000159597
0.000159407
0.000164202
0.0353858
0.000149873
0.00016268
0.000167142
0.000158884
0.000149026
0.000186759
0.000145498
0.0420514
0.000152035
0.000190812
0.000161137
0.000168102
0.000180409
0.000425397
0.000180733
0.000147141
0.000184935
0.0603471
0.0486422
0.000150648
0.0392717
0.000160086
0.000465131
0.000148426
0.00015308
0.0530551
0.000177484
0.0249706
0.0269661
0.000157988
0.0726581
0.000148167
0.000145453
0.0238511
0.000164028
0.000153027
0.0693448
0.000157035
0.000162838
0.000157105
0.000176251
0.000149048
0.0331346
0.0523848
0.00797176
0.000251605
0.000155808
0.000170415
0.0271214
0.000152605
0.000149669
0.00017483
0.000145785
0.00018263
0.042682
0.022551
0.0279567
0.000177735
0.000150843
0.0590726
0.000145207
0.000182854
0.000149527
0.0326835
0.000152475
0.000163399
0.0396958
0.000191702
0.00014806
0.000158698
0.0128238
0.000148691
0.000196049
0.000147059
0.0454381
0.0550959
0.000191356
0.000167184
0.000147537
0.000226341
0.000196332
0.000167673
0.00014707
0.000150836
0.000148894
0.000177371
0.000148773
0.000187294
0.000148863
0.000147325
0.0830869
0.000147804
0.000157714
0.000156211
0.000149821
0.045565
0.000147668
0.000160585
0.0558424
0.000176402
0.0346241
0.000148609
0.058613
0.000177074
0.070012
0.000152185
0.000193526
0.000149822
0.000169038
0.000192673
0.000193145
0.000210144
0.0540989
0.000185506
0.000266804
0.000154702
0.000190593
0.000161952
0.000276931
0.00015337
0.000149658
0.000148368
0.000175454
0.000164227
8.0557e-05
0.000174891
0.0526368
0.0384896
0.000168553
0.000148536
0.00159507
0.00017888
0.000149909
0.00015236
0.00014875
0.0407629
0.000148341
0.0183445
0.000147748
0.000158735
0.0375958
0.000169878
0.000148301
0.000148326
0.0260793
0.000147712
0.000152682
0.000155809
0.000160035
0.0001579
0.000149096
0.000203069
0.000167469
0.000162119
0.000233149
0.0414143
0.0437171
0.0320538
0.00014614
0.00014819
0.00016995
0.000150768
0.000162733
0.0380976
0.0428897
0.000145619
0.000148336
0.0407352
0.000136282
0.000145795
0.000147222
0.000154874
0.0510266
0.049603
0.000156634
0.000161425
0.000149278
0.000215506
0.000194128
0.000172457
0.000157707
0.000162643
0.000149649
0.000165154
0.000240595
0.000150629
0.000149476
0.000156631
0.0583966
0.000153828
0.0224358
0.000148672
0.0508144
0.000161558
0.000155547
0.000146434
0.000147445
0.00023694
0.0423795
0.00016322
0.0249225
0.0505722
0.000150184
0.0520264
0.000201666
0.000148692
0.0096649
0.000141125
0.000191415
0.000149657
0.0407448
0.0344374
0.00014888
0.00016168
0.0305834
0.000165201
0.000148708
0.000147223
0.000150134
0.000153859
0.00017984
0.000256988
0.000166263
0.000178216
0.000146238
0.000149267
0.047688
0.000147459
0.000166911
0.000154577
0.000149907
0.000172936
0.000148158
0.000152301
0.000245043
0.000147885
0.043182
0.00014814
0.0028033
0.0501769
0.000184514
0.000149277
0.000149946
0.0587514
0.000145527
0.00015348
0.000149583
0.000195196
3.93487e-05
0.000164098
0.0492303
0.000161947
0.000195113
0.000150043
0.000180467
0.000147877
0.00014888
0.018078
0.0469963
0.000370823
0.0001526
0.00017994
0.000182858
0.0332592
0.0564096
0.000235975
0.000165358
0.000145141
0.050906
0.000148338
0.000148565
0.000236786
0.000191586
0.000156238
0.000175741
0.000163148
0.000158917
0.00015807
0.0744673
0.000154139
0.00014784
0.0192914
0.000163127
0.000146239
0.0353424
0.000148098
0.000148696
0.00019537
0.00018407
0.0395373
0.000146366
0.000153346
0.000147691
0.000420888
0.000147671
0.000192586
0.00263067
0.047165
0.0323954
0.0109903
0.000156937
0.0437647
0.000221681
0.00014936
0.000157723
0.000162409
0.000157322
0.000291474
0.044359
0.0491003
0.0465642
0.000715894
0.000149119
0.000190325
0.000148146
0.0177497
0.000159622
0.00015287
0.000153831
0.000150892
0.000147667
0.000189112
0.0509226
0.000146055
0.000152918
0.000146914
0.0397351
0.00015271
0.078798
0.0338904
0.00031702
0.000148592
0.000147742
0.0362916
0.000183632
0.000148875
0.000186417
0.00014949
0.000186305
0.000178067
0.000186836
0.000175153
0.0189618
0.000146921
0.000148007
0.000235733
0.035249
0.000158544
0.000165501
0.000148003
0.0174035
0.000148081
0.000147594
0.000151581
0.000148286
0.0065438
0.0433599
4.99409e-05
0.000182384
0.058995
0.0001499
0.000145626
0.000162974
0.000145967
0.00025194
0.000149097
0.000153497
0.000148137
0.000147413
0.000147536
0.000284613
0.000152063
0.000301433
0.000146053
0.000157397
0.000155836
0.000285413
0.000148258
0.000162963
0.000167151
0.000170858
0.0752636
0.000147393
0.0329209
0.00017446
0.000163753
0.000149751
0.000147737
0.0375464
0.0100627
0.000149207
0.000148062
0.000264859
0.000241153
0.000159837
0.0561163
0.00015075
0.000118092
0.00016384
0.000145967
0.0370731
0.00015274
0.0507524
0.000148357
0.000151004
0.000148761
0.0394054
0.0453049
0.000145754
0.000178642
0.000221394
0.000148284
0.000147934
0.000148103
0.000179784
0.0550326
0.000173877
0.000155285
0.000166011
0.000148149
0.000148635
0.000153132
0.000147923
0.000210312
0.000148665
0.000181732
0.000238503
0.000163635
0.000145062
0.031106
0.000183502
0.000148207
0.000175993
0.000162552
0.000321689
0.000153004
0.0737198
0.000173695
0.000148367
0.000181638
0.000180804
0.000154456
0.081764
0.000180741
0.000162855
0.000260845
0.000148203
0.000182575
0.000167093
0.000180514
0.000147557
0.000148211
0.000145474
0.000158214
0.000178321
0.000177534
0.036388
0.0288609
0.0360014
0.000149756
0.000333577
0.051368
0.0610603
0.000148173
0.000148571
0.00017585
0.0547238
0.000152756
0.000165917
0.0123477
0.0339529
0.0048546
0.000169922
0.000199713
0.0396873
0.000186506
0.000145522
0.00166565
0.000219787
0.000149759
0.000150397
0.000150802
0.0578229
0.0001831
0.0540313
0.000153054
0.00241332
0.000149084
0.000144657
0.034757
0.000149287
0.000165096
0.0491927
0.0477256
0.000173708
0.000151221
0.000152175
0.000149689
0.000182201
0.000194087
0.000490074
0.0589577
0.00014665
0.0153939
0.000190396
3.57959e-05
0.000148063
0.000149023
0.000421134
0.00018169
0.000148125
0.00017194
0.000165343
0.000159987
0.0399138
0.0604813
0.0644711
0.057081
0.000154233
0.000146145
0.000164717
0.0286674
0.0469937
0.000148628
0.000185674
0.000168222
0.000187873
0.000151292
0.000149683
0.000205345
0.000502774
0.00291759
0.000305707
0.0256005
0.000147664
0.000180332
0.0559353
0.000149382
0.000163962
0.000188651
0.000145863
0.00020144
0.0672814
0.000180302
0.000149678
0.0212836
0.000191602
0.0261122
0.00014461
0.000153817
0.000149272
0.000153098
0.000149123
0.000169227
0.000161686
0.00016198
0.000181874
0.000164612
0.0424915
0.000153745
0.000161892
0.000157334
0.0223946
0.000163247
0.0312785
0.000157346
0.000156069
0.0106504
0.000168608
0.000148643
0.000161955
0.00103125
0.0579746
0.000251466
0.000148394
0.00014776
0.000148024
0.000121355
0.000151677
0.000426795
0.000317958
0.00017747
0.000160312
0.00021336
0.0272188
0.000149016
0.0522098
0.000159364
0.000163496
0.000148142
0.000148449
0.000174217
0.0601668
0.000148423
0.0273098
0.000200428
0.000167464
0.000195909
0.000147714
0.000148064
0.000161138
0.000152336
0.0326358
0.0242246
0.000168813
0.000223526
0.000148268
0.000148762
0.000149394
0.000149608
0.0792597
0.000152589
0.040493
0.000166949
0.000151449
0.000182332
0.000485676
0.040804
0.020716
0.000153175
0.000147782
0.00014881
0.000153821
0.000221923
0.000181035
0.0793809
0.000148978
0.000150799
0.000174912
0.000149712
0.00017721
0.000151995
0.000174949
0.000174961
0.000161791
0.000161862
0.000146384
0.000170824
0.000161499
0.000179333
0.000167308
0.000162224
0.000147017
0.000184123
0.0001476
0.000444084
0.0488387