/*--------------------------------*- C++ -*----------------------------------*\
| =========                 |                                                 |
| \\      /  F ield         | OpenFOAM: The Open Source CFD Toolbox           |
|  \\    /   O peration     | Version:  v2012                                 |
|   \\  /    A nd           | Website:  www.openfoam.com                      |
|    \\/     M anipulation  |                                                 |
\*---------------------------------------------------------------------------*/
FoamFile
{
    version     2.0;
    format      ascii;
    class       volScalarField;
    location    "200";
    object      omega_0;
}
// * * * * * * * * * * * * * * * * * * * * * * * * * * * * * * * * * * * * * //

dimensions      [0 0 -1 0 0 0 0];


internalField   nonuniform List<scalar> 
13917
(
0.0398909
0.0221381
4.76772
0.0234341
0.0221086
0.507992
4.48991
4.94026
6.13551
0.0662089
0.138834
0.0630953
0.0234933
10.9575
0.0259571
0.0248487
0.0222119
0.0517117
0.0618132
0.0221122
0.0222674
4.43268
0.0220952
4.94089
0.0220084
4.31693
0.0438636
0.0577591
0.698873
0.0995839
0.0418506
0.0276117
0.0357843
0.0249738
0.0220193
0.534203
0.0221045
3.99095
0.0252102
6.30298
0.0219227
0.0222861
0.0215792
0.0822264
0.0220406
0.0276101
0.0499533
0.0641837
3.2715
0.0220183
0.0270303
0.0223837
4.42599
0.0258413
0.0222666
0.0264521
0.139836
0.02203
0.024799
0.0219954
10.8862
0.0221488
24.3078
0.0221025
0.401325
13.1602
0.0221013
0.0220393
0.150017
0.0364127
0.0221159
6.14867
4.35412
0.0220118
3.35333
0.0734694
5.52249
0.0227921
4.16085
0.0222362
0.0222075
0.0221106
0.409312
3.97028
4.86826
0.0226433
0.0221791
8.33771
0.0266358
0.021574
4.20588
0.0813886
0.0218667
0.0230249
10.7637
0.460736
0.106905
0.0614378
0.126037
0.113147
0.0218198
0.0326032
0.0837662
0.0231273
0.0217977
6.41758
0.532281
0.0668566
0.0223286
0.0453338
4.42771
5.20841
0.0804852
6.35456
0.0230268
3.49229
0.0220084
1.70657
5.02151
0.0254759
0.0222738
0.151667
4.70874
0.0578358
0.021974
0.0228417
0.0220594
0.0219738
0.0216027
0.689735
3.81332
0.0228969
0.0220721
0.0222737
1.93802
4.90842
0.040184
0.123517
0.0220953
0.0257876
0.161453
0.0217608
0.0224519
0.0970585
0.0220407
5.97319
0.660079
0.0222941
0.0217368
0.0279416
0.053137
3.96186
0.0806211
0.0407268
0.0262056
7.13089
0.0341132
1.92115
6.97771
2.0954
0.0244039
0.0421854
0.0222362
0.101817
0.0794558
0.122168
0.0231076
0.0589793
0.0219009
0.033982
0.0396015
6.56392
0.0883771
0.0224796
5.41081
0.0449597
3.82175
2.49391
5.82447
0.0219064
0.087084
0.0439902
0.0217551
0.0221704
0.0292552
4.40469
0.268897
10.038
0.0349528
0.111954
0.118535
5.51491
0.301678
0.0221065
0.126167
0.0417846
0.022491
0.0218712
0.241087
4.48217
0.0261078
0.0220302
0.0524929
0.0521031
4.66323
0.584241
0.0220231
0.0220493
0.0596194
4.55883
0.0224669
4.50438
6.18075
0.112592
0.0218041
0.664119
0.052343
5.82381
0.0219639
11.5782
0.0219008
0.0858045
0.0218737
4.01916
6.5035
0.0251856
1.60492
0.0267368
0.02181
0.341351
0.0863349
0.0345581
4.83504
7.86379
0.021773
0.0284562
4.20402
4.55658
0.0222295
0.0219487
4.76657
0.123263
0.0222676
0.123452
0.0920146
0.041513
0.0367484
0.0222295
0.0431433
7.00274
0.0219064
0.117332
0.147555
0.0220163
0.0220105
0.0649397
3.75878
0.0765194
0.0293354
0.0259244
0.0222711
5.86578
7.3241
0.047259
0.021818
4.56708
6.55281
3.12395
4.11208
0.0787288
0.0222144
0.0219172
0.0499416
4.19486
0.114147
0.0244368
0.848964
0.0411268
0.0215692
8.45539
0.0220902
5.46832
0.0257477
0.0222596
0.0268344
0.0420664
0.0423693
0.101632
0.0318058
0.0220154
0.311567
4.85471
7.38593
0.0219675
3.60027
0.0221727
0.0220047
0.0220155
1.10868
0.0221051
0.0896415
0.0358818
0.0218776
0.0529844
0.0231354
3.15137
0.0432312
0.0748865
0.021788
0.0220133
4.46223
5.19052
0.0220019
0.0219111
8.51865
0.0219167
4.26973
0.0217812
4.03444
0.0223443
0.452731
0.0330372
3.26072
0.0238616
0.499854
0.267812
0.0267772
0.122496
0.5344
0.0222484
3.90036
0.131848
5.541
0.0243831
6.50584
0.0296782
4.90044
0.248452
0.106906
0.103078
4.70253
0.0222161
0.0410312
4.49323
0.0221979
0.0233432
6.22271
0.317987
0.0224543
0.175179
0.719596
0.021859
6.13403
0.0733176
0.022084
0.0218939
0.0221804
0.0217304
0.343184
5.66841
0.736992
4.45192
0.0220121
0.125002
6.20743
0.0409759
4.44041
4.07369
6.4455
0.0217718
0.0881916
0.0218752
11.4441
0.0220094
4.23012
0.0933576
0.0244142
0.0221989
0.0568471
0.0981823
0.0691097
12.6646
4.60174
9.00297
0.0456366
0.0599705
0.0219571
4.80768
4.334
0.0220361
0.310011
0.0220404
0.381212
0.0223349
0.0222275
0.023157
3.94987
0.0230353
3.5624
9.63194
0.132943
0.438537
0.0222043
0.56883
0.436356
0.0220399
0.375537
0.0221566
0.0220283
0.0976124
0.0222619
0.0220116
0.0218695
0.383216
0.0222485
5.28523
4.08613
4.76022
0.280652
3.62128
5.78879
0.0403691
0.0220162
0.164457
0.0249102
0.0304868
0.0220977
5.84028
4.48644
4.01808
0.024589
0.106726
0.0241925
0.0256033
0.0671801
0.0229398
0.114467
0.0222716
0.0221036
4.28112
3.80547
3.82145
0.117448
5.47782
3.8765
4.5694
5.51275
0.0216318
0.0554729
0.0229627
0.022066
0.211122
0.0513472
0.0218242
0.0609778
0.0385588
5.70168
0.0220337
0.10509
19.8069
0.55763
4.42249
0.0222545
0.0220663
0.0224185
0.0339891
0.0217682
4.36433
0.569317
0.031373
5.69397
0.0263257
0.105117
4.81056
0.702125
0.127823
0.10014
0.106976
0.0568468
0.160747
0.0410498
0.137343
0.546189
0.0470616
0.075702
0.0219357
0.924534
0.0270341
0.0216527
0.0323616
0.0228525
5.30076
6.34133
0.0219075
0.0215628
4.50137
8.12833
0.0222621
5.47528
0.0227632
0.209894
0.0219221
4.88671
0.696482
0.027774
0.0222937
3.65142
0.262937
6.66577
0.0222691
6.03038
3.23668
8.77405
0.0216613
4.57021
7.11478
0.0404397
0.0218853
0.022254
0.0746482
0.307502
0.0218686
0.0218986
0.021963
0.0219552
4.99536
0.329739
0.0398949
0.277757
0.0219616
0.021826
0.101243
5.95052
0.0343762
0.021922
0.0220211
0.022063
8.89974
6.24511
0.0221748
0.022064
0.0759304
0.0400276
0.0329477
0.0220493
0.0231279
0.0271418
0.0738907
0.381603
0.273384
0.16841
0.0945552
0.477567
0.0758645
0.0219767
5.77014
0.0220659
0.023347
0.02419
0.785484
0.0765247
0.0218165
0.656729
0.109569
29.5123
0.0941037
0.0352255
0.0399596
0.0221889
7.28733
0.518782
4.37559
0.022111
0.0302378
0.270058
4.07397
25.9614
0.0644869
0.143319
0.0249191
0.023963
0.0220757
0.0531369
0.084846
0.0221307
0.05134
0.160287
4.45241
5.70461
0.0238951
0.101913
0.482422
0.0280064
0.0223545
4.5007
6.57178
5.83398
0.256466
0.021619
5.29091
0.0719269
0.0218403
0.0323009
0.0664156
0.0341308
0.0960697
4.17889
0.151559
0.0374835
7.21306
0.0230192
6.6661
0.0222365
0.0221668
3.93553
6.5512
0.657691
0.0229849
0.0225515
0.0220664
0.0421126
4.2706
0.114253
0.0242009
0.118156
0.0551576
0.021949
1.46492
0.11176
0.0738894
0.0219459
0.14609
0.0228242
14.1631
0.0689636
0.0709949
0.03058
0.0218819
0.0216718
0.0220998
0.110271
0.0278164
0.305612
9.94669
0.0571793
0.0218682
0.145769
0.609163
0.948458
0.0218865
0.0269532
0.0219083
0.0284829
0.0251887
6.97493
0.0222293
2.61632
0.0282746
0.140557
0.0845815
4.37028
0.0710116
0.0222625
4.37294
16.8436
0.0220012
0.0240615
0.808046
0.215525
0.110731
0.0222382
0.0222762
0.332073
0.024622
0.0675944
0.0623364
0.0216743
0.0523349
4.80018
0.0218581
0.0229286
0.0219818
5.46935
0.0222665
0.0243917
5.70986
0.0231933
6.41874
0.0263107
0.0358088
0.0219723
0.0472864
0.0220252
0.0583796
0.0218823
0.0865107
0.0227676
26.2008
3.71294
6.00579
0.0222949
0.0222072
0.0729703
0.0468301
4.87526
6.22047
0.0507402
0.0220262
0.351062
0.826325
0.100706
0.236064
0.0475507
4.13676
0.0386022
0.0398034
0.138613
0.194774
0.0497497
1.23531
0.0485839
0.0235141
0.0719165
0.026929
0.0217209
0.0284216
0.0449531
0.0269558
0.0220328
0.0219067
0.0555745
0.023343
0.0707354
0.0220304
0.022057
0.0222727
0.0229647
0.0215316
0.0261527
0.0220007
5.04235
0.0625525
0.324603
0.0217925
0.0222476
0.0479848
0.0574263
0.0225854
8.55944
0.0756599
10.9342
0.0286053
0.121755
0.0223969
0.022269
0.0219421
0.0231068
7.6612
0.0222547
2.20376
0.0261484
5.41592
0.0460701
0.080948
0.139441
0.0216707
0.0222914
0.063364
0.0220475
0.0223768
7.84179
0.022504
0.0221802
0.0276659
0.0219426
0.0216458
0.0272096
0.027746
6.09771
0.0347009
0.0218523
0.021853
4.1147
0.114817
0.0221772
0.0221172
8.24736
0.645837
8.49033
0.0347914
0.023479
0.0217827
0.0216262
0.0477848
0.0361175
0.273648
0.0248329
3.97962
0.0222266
0.0235282
9.65037
0.0220479
0.0271667
0.0219894
0.0220846
0.043891
0.0466416
0.0224162
6.40612
4.25951
0.0853522
0.0219727
0.0215839
0.11049
1.77984
0.0222611
0.435104
0.021584
0.0422919
0.0217116
0.0217611
0.247048
0.0219719
2.78519
0.0392388
0.0222731
0.0216109
0.0220618
0.0219151
0.0228334
5.6749
0.0218354
0.0217502
5.51526
6.0763
0.0382772
0.0450888
0.0646242
0.0248596
0.0217729
0.0281756
4.90209
0.0885301
0.0221307
0.0222986
6.29949
0.0359475
4.64405
0.0222659
0.0227656
6.51219
0.0329892
0.0225381
7.79775
1.60965
0.0219091
0.125976
0.0219356
0.0219637
0.0217865
4.39931
0.0215243
0.0218672
0.0217674
3.09339
0.0244831
0.195871
0.0606487
0.0217542
0.0334801
0.0221739
4.47793
0.0219644
0.0218481
0.0221811
0.115103
0.0221741
0.154502
5.22577
4.76161
0.026792
0.17932
5.13921
0.0220083
6.84697
10.2404
4.64662
3.63356
5.38942
30.8924
0.140075
0.0222249
4.12518
0.0326868
4.27207
0.0216583
0.0218604
0.0221768
0.0221676
0.0258814
0.0311144
4.64284
0.0218518
0.0220715
5.81094
0.281797
0.0220732
0.0397497
0.0294204
0.0221663
3.05208
0.0408431
0.0235948
0.0244918
5.28638
7.33995
1.63334
0.0216981
0.258678
0.105978
4.45016
6.51955
0.0871668
0.0219227
0.0224416
0.0222489
0.021449
0.0230885
0.0216099
0.0268592
0.0377387
6.0025
0.120134
0.0218778
0.115211
4.63051
0.0414972
0.0223119
6.13737
0.0218506
0.0223103
0.0377079
7.24691
0.0221737
0.0219476
4.512
0.159644
0.307181
0.103124
0.415026
0.0219254
0.17086
0.0222951
0.0220023
0.0223042
4.3756
5.95402
0.0217436
0.0216066
0.0220134
1.01197
0.0228543
0.0300157
0.0220379
0.0224349
0.162318
0.0217679
0.0584817
0.313772
3.82618
0.0219613
0.0871261
0.0238509
4.50145
4.52789
0.0220137
4.49727
0.068431
1.35365
0.0221727
3.91564
0.0222449
0.026193
0.0415484
0.101507
4.52777
0.127343
0.153585
6.71555
0.0218622
0.315428
0.021753
0.026916
4.50915
0.0220811
0.0222531
0.0226766
0.0221731
5.38244
0.0216664
0.0220869
0.0538141
0.0468099
0.0475959
0.577581
0.126252
7.48435
0.0635212
0.0354982
0.0388003
4.64121
0.038483
14.477
4.26697
0.0252911
0.02177
3.50782
0.0922461
0.0223078
0.109617
0.0346724
0.022265
0.0263292
0.0221999
0.0417993
0.022292
0.04632
0.110926
0.0218819
0.0583311
0.0218003
0.0591782
0.0218782
0.0258108
0.0565111
0.0234699
0.0220784
0.0217509
2.56369
0.0766497
6.23049
0.022009
0.0221007
0.057877
0.02198
0.0890352
0.0757599
0.0222579
0.0949511
0.0217786
10.4733
0.0222476
0.0373714
5.4101
0.31155
0.0219304
0.0229837
6.48638
0.0220007
0.0219205
4.34839
4.36551
0.0238093
0.141954
0.0221045
0.0220517
4.39927
0.0229462
0.0216798
0.270057
0.0217961
0.720315
0.0221992
0.0216844
0.0221788
0.131264
3.82141
0.0221127
0.0222452
0.0219281
0.025503
0.0220772
1.16706
0.0583634
0.0222688
5.70449
0.0460903
0.340572
3.90331
2.74625
0.021731
0.0222318
0.0220268
0.670421
0.0260628
3.85668
5.42356
0.0237636
4.43453
2.532
0.0462989
0.137217
0.0682547
0.478649
4.54721
0.0626588
0.927362
4.0078
0.0613066
0.0249436
4.52005
0.0567164
0.021668
0.0232023
14.4366
0.0374658
0.0218939
0.0501702
0.0978711
0.038168
4.4398
0.0238089
6.60607
0.0390556
0.097904
0.121273
0.272851
0.0288807
0.0217647
0.0225237
4.76544
0.0219948
0.0238944
0.0217831
0.0232275
0.0218679
0.0346345
0.13497
1.89215
0.0448665
0.0582126
3.9801
0.353418
0.0218441
0.822526
4.2793
0.021723
0.0219115
0.0302169
6.07464
0.022254
0.066821
0.601073
0.0477514
0.0220442
0.0230651
0.0218092
0.106371
0.0392595
0.0219901
27.6513
4.1489
0.0413463
0.412834
0.0627545
3.50118
0.0230196
0.0251875
4.25821
0.705696
0.0893448
1.60379
0.0290229
0.022277
0.0219312
0.0221219
0.022022
0.0226122
0.0530197
0.0219386
0.111467
0.0219452
0.0288047
0.0217314
0.0789096
0.112496
0.775437
0.0219927
0.29573
0.0219351
4.37412
0.0220356
0.025326
0.0221257
0.265773
4.58212
0.134203
0.0219343
0.120087
0.021998
0.0303594
4.28068
0.0219419
0.0223234
0.0439249
0.0315597
4.43717
0.0219395
0.0290621
0.0231325
0.0220411
0.032328
0.0224993
0.0217485
0.0233959
6.06546
0.0244969
0.199567
5.84484
0.0500609
3.74311
0.0242096
0.0217522
0.0303536
8.02813
0.0233452
0.0358521
0.0404689
2.78929
0.0219
6.50814
0.0613966
0.0686538
0.0217138
0.0216262
0.146623
0.0223711
0.0222864
0.0340515
0.0216679
0.024373
0.028085
0.0659071
0.386413
4.43909
0.0249474
0.0704372
2.31671
7.91504
0.0366549
0.253856
5.99873
0.0376366
13.6207
0.023734
15.2388
4.95838
0.021649
0.0222621
0.0219558
0.0224888
0.0450959
0.0217316
0.0234629
0.0863651
0.0231711
0.0342799
4.28782
0.0298121
0.0239705
6.16804
0.0225411
5.41876
0.0241799
0.0528802
0.0218882
6.24732
5.57588
0.0220573
0.0225935
4.00702
0.0293984
6.34156
0.0220227
0.0217956
4.44815
0.0226151
0.0436188
13.993
0.0220645
0.0552068
0.0297048
0.0216213
0.0218734
4.10229
5.28899
0.0221855
0.0233457
0.022049
0.0265146
0.0352399
5.73438
0.0226148
3.23329
3.59297
0.0721317
1.19391
0.0225519
0.114978
0.20452
0.028987
0.022061
0.0582964
4.16186
0.0232678
0.0448226
5.00982
4.4547
0.294881
0.0252444
0.0222159
0.0222468
0.0220665
7.05995
0.053302
0.0236622
0.0227113
0.0240847
0.0222711
0.0219709
0.0220347
0.0700822
0.037998
5.58694
0.0463794
6.61443
3.5185
0.0300384
0.0473494
0.0218118
0.0276656
7.82086
0.0221599
0.0236881
0.0488678
0.112192
0.0564274
3.97198
0.16978
0.0218517
4.06614
0.0215901
0.0221949
0.0443717
0.0222731
0.0218918
0.157805
7.0139
0.0218051
4.22661
0.0220948
0.021722
0.0234469
2.5005
0.0293497
0.0240865
13.568
0.0228742
0.260387
3.6932
0.022246
0.0470571
0.0220109
5.82775
0.0689994
0.0220443
4.26899
0.0519111
0.0804622
0.0222788
6.1211
0.0289045
0.311741
0.022858
0.06854
6.29052
0.0217423
0.792245
0.0220993
0.0585828
0.0528921
0.022246
4.38042
0.0234878
0.107911
0.0571666
0.0998953
0.0400645
0.0416854
0.0225554
4.97395
0.0313987
6.95642
0.0293814
0.0608201
0.0219259
0.0436563
0.022029
0.0662498
4.6449
0.0226293
0.0218218
4.12057
0.0227926
2.65617
0.022439
4.34131
0.0824771
0.0347246
0.0219916
0.0219406
0.0221115
0.0216266
0.0968185
0.052603
0.0391228
0.0256836
0.0220839
0.839857
0.0234033
0.0332202
1.69176
0.0220194
18.0537
0.0481985
0.0290154
1.55224
4.36501
0.270302
4.46484
7.84525
0.0218936
0.368054
4.73646
0.363461
0.0221729
0.0222241
0.104254
4.23791
5.2674
0.742494
0.0222469
0.0491936
0.0384938
3.66303
4.97459
0.0400237
0.117366
0.0237609
0.0724647
0.0888391
0.0221664
0.100041
8.30635
0.022131
1.96376
0.0222528
0.0219744
4.68596
4.12606
0.0218508
0.022336
0.0223669
0.0218051
0.047744
0.167122
0.0230673
0.021988
0.022105
0.0392104
0.0279795
0.0278865
0.301544
0.0220189
4.24359
7.36234
4.43419
0.132971
0.0513645
0.261125
0.033013
4.0918
0.864316
6.63347
0.0224537
7.38434
3.63896
0.0217663
0.022037
0.099772
4.63203
10.1136
0.0217568
0.0219849
3.79943
1.77839
4.07714
0.0239427
0.024085
2.29496
0.0221775
3.90954
8.2959
0.681431
1.41407
0.0220545
0.0219275
0.0218882
0.0261919
4.22678
0.0389734
0.0254283
0.0226306
0.0876731
6.66159
0.0395288
6.06372
4.90066
5.18294
2.14302
0.0220506
0.0221722
4.33887
0.0216572
0.0216678
0.0228639
3.21424
0.036634
10.9681
0.137068
0.0220239
6.09076
0.0388803
0.021865
5.49675
0.173105
0.0244405
0.0221009
5.47334
4.76643
0.0221797
7.70012
3.80921
6.68445
1.08834
0.0787559
0.0219457
0.0224907
1.32954
0.0256198
4.46091
0.0395613
1.92796
0.265477
0.0227534
0.0284227
0.0219492
0.0226335
4.80198
6.78072
0.0220661
4.50964
0.0408337
0.0220142
0.0244867
0.0219351
0.157045
0.0223274
2.7611
0.0517009
0.0219181
0.021857
0.0901401
7.52002
0.0374893
0.0236226
0.0399113
0.0220266
0.0231147
0.0272067
9.10436
4.1413
4.70462
0.0217169
0.0218704
0.0222698
0.116587
0.0218748
0.0223363
0.15591
0.0585318
0.148397
0.0216361
4.77932
4.10709
0.0222845
8.27397
0.108246
0.0362607
1.93522
0.0221669
5.26088
0.0289294
0.0230991
0.0235452
0.0216528
0.146852
0.0225074
0.0226973
0.0309824
3.61746
3.77038
0.0222464
0.0220158
0.0232935
0.0219456
0.131279
0.0223704
0.0827597
0.0234168
4.1991
0.0225698
4.37583
0.0217174
6.34495
0.0224175
0.0216366
7.58353
0.37756
0.105569
0.59293
0.0424677
0.0386521
0.0220406
4.94618
0.0220623
0.0218817
0.0880359
0.062672
11.4954
4.34929
0.119623
7.19227
0.132507
0.461969
0.0218807
0.0248113
0.0274515
4.35093
0.0246772
4.49411
4.52176
0.022156
0.0220534
0.0220116
1.37879
3.96694
0.0232496
0.0221116
0.0256876
0.0283052
0.0370956
0.417097
0.311521
0.0220654
0.702494
0.0852573
7.92531
0.0700603
0.0231125
0.0239556
5.88331
0.0218883
0.0870574
4.62969
0.0226857
0.0251812
0.166326
0.122143
0.0227093
6.52075
0.02421
0.335631
0.0397963
0.0300748
0.0226957
4.64612
0.021861
0.0896678
2.29779
5.0111
0.0488368
0.0680542
0.02557
0.0466519
0.0222663
5.21764
0.0265803
0.021979
0.0306899
0.0220913
0.0222691
3.96345
0.02207
0.0221811
0.0220398
0.117903
0.0222481
0.0329599
0.0708411
0.21954
0.117323
0.0222532
0.233619
0.281332
0.199718
0.0819609
0.027003
0.148739
4.77211
0.74185
0.0222845
7.35202
4.28241
0.0222839
0.0240618
0.021643
0.618822
0.10507
0.0220176
1.31534
4.41188
0.021799
0.0222525
3.99619
4.23135
0.0639173
0.0216556
10.0403
3.52135
3.38926
0.0220274
4.38385
0.0805565
0.0662485
4.45339
0.0262104
0.021654
0.0295371
0.182816
0.0316729
4.18649
4.90877
0.0218163
6.60802
0.616488
4.41775
0.0217141
0.0544041
0.0223024
0.0219245
4.3123
1.15769
0.27982
2.46811
0.0287755
0.0484037
0.022205
4.99542
5.63076
0.0220428
0.0222926
0.0323545
0.0217961
0.0474477
4.60092
7.81191
0.0493989
0.0224544
0.0221179
4.32346
0.0246847
0.050291
0.0217954
0.0229044
0.723278
1.40897
0.193186
3.94375
0.0221709
0.333646
0.0222895
0.0479811
10.3289
6.19649
0.0220736
0.0222935
0.0359493
0.0256133
0.0221712
4.58283
4.40384
0.0217643
0.0214892
0.0221914
0.0219701
2.28548
0.0217202
4.07748
0.100667
0.0620574
0.0218544
0.0455847
5.10326
0.0333649
0.502861
6.22486
0.0222068
6.36385
0.0330537
0.0364064
0.313228
6.7094
4.45739
0.0590524
0.0219035
0.25593
0.0217279
0.0253465
0.0222031
4.02632
0.0315618
0.846942
0.0796077
0.0462489
0.0221257
0.240447
0.026874
0.0222702
0.253405
0.0215979
0.0377783
0.0339841
0.0221932
10.2989
0.0231271
0.45883
0.0228366
0.0219377
5.84809
3.87656
0.0239603
0.0326927
0.0380325
0.0570518
0.0568066
0.0262049
0.0256409
0.0250514
0.210468
0.0250288
4.07233
0.05909
0.0608405
0.109408
0.0225999
4.75462
0.021591
4.59009
0.0241648
4.52765
3.46626
7.17181
7.03736
0.345453
0.0769024
0.0219872
4.4384
0.0824337
0.0220325
7.87313
5.74519
0.0231905
0.023602
0.0299719
0.0297289
0.0323555
5.02118
0.0222826
0.0292642
0.0351333
0.031724
0.0221652
0.0802858
0.0216066
4.17426
0.023553
0.127892
0.0310671
0.0383693
0.113703
1.41714
0.0863126
0.0218313
0.248006
4.42037
24.0578
0.0223878
4.14222
0.0287212
2.60706
0.0220625
0.0243068
4.01161
0.0505104
4.76451
6.9239
0.0326939
5.61091
0.0219435
0.0215952
8.81753
0.0633162
0.0242729
5.74134
0.0273152
0.0445172
0.0288042
0.0727466
0.0221222
5.62026
5.25992
6.71062
0.318731
0.0255806
0.0564627
4.7481
0.0238472
0.0223226
0.0779347
0.0216609
0.327583
8.67751
5.99631
5.38408
0.0537811
0.0224448
4.40849
0.0215946
0.0713736
0.0222346
25.0267
0.0236495
0.0465658
3.89737
0.112763
0.0220289
0.031302
12.8619
0.0220619
0.135245
0.0217823
9.7522
4.50559
0.107537
0.0850756
0.0219516
0.182653
0.130842
0.0383169
0.021787
0.0224156
0.0221483
0.0525295
0.0221257
0.0821189
0.0220992
0.0217843
7.20934
0.0218541
0.0279452
0.0249351
0.0222751
3.83822
0.0218523
0.0329709
4.17254
0.048313
3.93594
0.0220541
4.76803
0.049601
5.51591
0.0236281
0.117402
0.0221172
0.0393558
0.1129
0.105484
0.215512
4.32143
0.212868
1.30144
0.0265451
0.100885
0.0396505
0.334481
0.0248174
0.0220765
0.0220196
0.0489442
0.0458529
0.735818
0.0506138
4.65865
6.87484
0.0991254
0.0220127
2.34619
0.231604
0.0224157
0.0238398
0.0220672
4.88794
0.0220235
7.82962
0.0218493
0.0270423
4.75768
0.0743146
0.0220454
0.0220171
7.33951
0.0218695
0.0239742
0.0251203
0.0319272
0.0275331
0.0221447
0.135267
0.0908185
0.0439947
0.257356
4.37805
3.82616
5.81027
0.0217336
0.021985
0.0969612
0.0224274
0.0473414
4.0879
3.93757
0.0216514
0.0220392
3.6905
0.158268
0.0216706
0.021834
0.0267319
14.9741
4.25505
0.0262143
0.0337316
0.0221996
0.392006
0.118991
0.141356
0.0319839
0.0432257
0.0223511
0.0374936
0.354743
0.0227785
0.0221681
0.0266417
4.61401
0.0251505
6.28759
0.0221102
3.97331
0.0358877
0.0275537
0.0217812
0.0219259
0.784138
8.00289
0.0598246
3.98871
10.9566
0.0225187
4.15492
0.136922
0.021968
3.90118
0.121058
0.107605
0.0222531
3.71397
4.38336
0.0219502
0.039521
4.30886
0.0437803
0.0220509
0.0217788
0.0224181
0.0237768
0.07709
0.331096
0.0795546
0.0776644
0.0217007
0.0221943
4.61058
0.0218328
0.0466912
0.02663
0.0221024
0.050061
0.0220319
0.0236836
0.340354
0.0220012
4.48448
0.0220251
10.3799
3.90691
0.0891307
0.0221805
0.0222925
4.47994
0.0216422
0.0242633
0.0222961
0.304144
0.585769
0.0341953
3.87879
0.0402659
0.291291
0.0224766
0.0618879
0.0217855
0.0221417
4.64495
3.90005
1.13385
0.0237066
0.0638636
0.0693659
4.80618
4.25402
0.305592
0.0388348
0.0215887
4.29861
0.0218942
0.0219573
0.307719
0.105787
0.0282726
0.168495
0.0464876
0.031204
0.0277676
5.86764
0.0241918
0.021993
6.27161
0.0463618
0.0217093
3.6446
0.0220346
0.0221139
0.159446
0.141877
14.6321
0.0217282
0.0246362
0.021923
2.95719
0.0218683
0.511621
2.7795
3.83151
3.58422
27.6092
0.0306903
4.49647
1.04448
0.022211
0.0304605
0.0436902
0.0309233
1.4706
4.21869
4.52227
3.84798
2.95494
0.0221446
0.101354
0.0220424
4.53136
0.0285618
0.0231931
0.0241458
0.0226615
0.0218827
0.0984774
4.55243
0.0217238
0.0237058
0.021866
4.5163
0.0235552
6.3409
3.89643
1.17197
0.0220967
0.0218904
4.4775
0.326991
0.0221412
0.274016
0.0222291
0.14525
0.20804
0.0927004
0.048962
8.90408
0.0217933
0.0217902
0.237571
3.55044
0.0282249
0.0471835
0.0219494
8.52285
0.0220087
0.0219486
0.0229779
0.0219966
6.85764
4.13198
0.410726
0.0594997
4.51912
0.185016
0.0216587
0.0311127
0.0216931
1.09992
0.0220092
0.0248632
0.0219953
0.0219218
0.0217693
2.71835
0.0227984
1.78045
0.021591
0.0311459
0.0228357
1.59635
0.022049
0.0315141
0.035088
0.068937
7.38007
0.0219172
4.33052
0.0668059
0.0448306
0.0221143
0.0219512
3.69645
14.5172
0.0220276
0.0218758
0.297747
0.265908
0.0382234
4.1068
0.0227707
0.154408
0.0320353
0.0217033
5.4161
0.0229788
4.17706
0.0220263
0.0227982
0.0221238
4.30795
3.7978
0.021672
0.222211
0.257699
0.0220619
0.0218542
0.0219341
0.253433
4.16543
0.0656496
0.0242289
0.0397788
0.0220325
0.0220407
0.0237244
0.0220066
0.175154
0.0220576
0.0606194
0.787277
0.0354361
0.0215971
3.85945
0.0740346
0.0220417
0.0781944
0.0310597
0.395116
0.0247957
10.8766
0.0541402
0.0219757
0.0876367
0.0823292
0.0243928
6.79064
0.0585427
0.0295588
0.533584
0.0219695
0.138535
0.0833202
0.125396
0.0219437
0.0219723
0.0216373
0.0325564
0.0537213
0.052565
6.41452
4.45016
3.96178
0.0222661
1.94793
3.99027
4.41035
0.0219948
0.0220208
0.0521369
4.33404
0.0240566
0.0343761
27.3405
4.96879
12.9332
0.115608
0.168043
3.64948
0.420303
0.0216048
8.46629
0.260028
0.0222908
0.0223377
0.0228365
4.90692
0.0941523
5.31687
0.0239983
5.21566
0.0221344
0.276936
3.95537
0.0221863
0.0337376
4.38668
4.68402
0.0555685
0.0227997
0.0236618
0.0223366
0.213814
0.110169
1.68848
4.3066
0.0217443
4.89697
0.168645
0.419369
0.0220305
0.0221647
1.35125
0.273223
0.0219601
0.0508934
0.0715749
0.0391228
4.11242
4.64643
5.07398
4.30356
0.0253629
0.0216582
0.0686635
4.52782
10.5798
0.0219203
0.341222
0.0984249
0.429104
0.0224885
0.0222559
0.832074
1.86088
4.49308
1.7581
4.0827
0.0219586
0.269401
4.27939
0.0222226
0.0633318
0.104706
0.0216807
0.166961
5.14014
0.264004
0.0222554
4.78474
0.111398
26.4014
0.0215043
0.0236315
0.0222319
0.0231219
0.0221912
0.0507311
0.0390846
0.0420765
0.276259
0.0331673
4.26305
0.025063
0.028672
0.0278916
9.17814
0.0593322
4.72315
0.0281404
0.028591
19.3987
0.0959573
0.0220555
0.0404872
1.98562
5.39423
0.376497
0.0219892
0.0219006
0.021931
0.192778
0.0234602
2.43954
1.62178
0.204041
0.0316635
0.275568
5.3288
0.0221611
7.50851
0.0329874
0.0593035
0.0219392
0.0218853
0.0533511
4.68611
0.0220815
4.72031
0.399032
0.0888525
0.178786
0.0218724
0.0220254
0.0296613
0.0228986
25.5564
25.3013
0.0782625
0.629634
0.0219664
0.0220484
0.0221947
0.0222463
8.16349
0.0231702
4.47732
0.0792553
0.0225256
0.322097
1.18981
3.69426
8.48912
0.0234433
0.0217662
0.0221312
0.0234428
0.707697
0.297644
6.67001
0.0221564
0.0224128
0.163905
0.0222606
0.120558
0.0235753
0.179497
0.171244
0.0397629
0.0392847
0.0217255
0.0454681
0.0377669
0.208286
0.0864678
0.0409614
0.0218698
0.234899
0.021883
0.956719
3.95503
1.07298
0.0220569
0.104333
0.0220149
0.04684
0.0230408
0.0227025
0.0284101
8.78614
4.26562
0.0829475
0.0456258
0.210391
0.074629
4.127
4.58841
0.0304679
4.39702
0.298036
0.0218428
0.0613068
4.59072
0.102638
0.0222355
0.0530306
2.51278
0.262622
7.43793
0.022124
0.158017
0.0220986
0.0219256
0.0414102
0.0712163
0.0222642
4.25855
5.34664
0.0970004
11.8838
0.396197
5.09183
0.24415
0.0217207
0.0248509
0.0216464
0.0426477
0.254964
0.271388
0.0243578
0.041021
0.0216317
4.58881
0.0378322
0.0470867
4.27391
0.112789
7.53236
5.21185
0.0219641
6.22751
0.0221166
0.0273955
0.0470233
4.10587
0.141926
0.0274357
0.0232161
0.509066
0.0339252
4.4222
7.80417
0.0317773
3.48782
0.0446755
0.0222725
1.3627
0.0647307
0.0228318
7.864
16.9236
0.0301112
0.0260543
0.125619
5.31184
0.0219579
0.0222214
0.0216677
0.0217579
0.0223232
4.88738
0.0311505
4.03889
0.021957
0.0219173
0.813722
0.0221847
0.0235253
0.0220589
0.022028
0.378166
0.0217461
4.42401
0.0219723
0.0230961
0.0407278
0.0221851
0.150205
0.0217561
0.0222652
0.0217798
0.0278643
0.0877194
0.0243697
3.93649
0.0219622
0.0416948
0.0294616
4.53401
0.0226903
0.0222681
0.0216979
0.0216814
0.422958
0.0219138
0.0218882
0.0245308
0.881436
0.0219376
0.0410321
0.0323107
0.0220113
4.85727
7.24207
0.0841517
4.91633
0.0247123
0.102303
0.0221112
0.112273
0.384944
0.0223026
0.575015
0.126832
4.58648
0.0303783
0.022031
1.70267
0.0425519
0.603928
5.31851
0.0215769
0.0219821
7.21515
3.50715
0.0580484
0.0536714
0.0229243
11.9206
5.50608
0.0215106
0.021967
0.0220905
0.0221729
0.0222479
0.0220263
0.0357823
4.48328
0.0308404
0.022183
0.54877
0.0219865
0.83536
0.0464387
0.022051
0.0270605
0.0219207
0.338398
0.0249156
0.0545095
0.0219616
0.0221852
4.51319
4.69038
0.0221716
0.0494474
0.0461784
0.0304497
0.0238541
0.0222709
0.0227494
0.971322
0.464636
0.0401629
4.87063
0.0224437
24.6567
0.100692
0.0255433
14.2991
0.0230551
4.43563
5.38479
3.6497
2.11201
4.29622
3.99209
0.0216429
0.0281432
0.0249257
0.0216339
0.0217281
0.0286511
0.0851613
0.0217708
0.0290703
0.112145
0.0771139
0.217714
0.148008
0.0330253
1.64875
9.17146
0.0348477
0.0244381
0.122251
9.9286
3.99697
0.0250545
0.0216201
0.0218676
0.0217699
0.0317296
3.97813
0.331583
0.0217348
4.62117
0.0219793
0.13163
4.23262
0.0787914
0.182124
0.0934842
0.339559
0.0228019
0.0338386
0.0218672
0.227765
0.0219642
0.0229426
0.0328963
0.135348
0.0221788
0.0243825
6.16707
0.0218045
0.0220465
0.0283814
6.08666
0.112208
0.134127
0.0391952
0.0221496
3.49688
0.0366946
0.0233113
0.0220159
0.0305886
0.0270136
0.0220239
0.0279751
4.45707
0.0235964
0.0216478
0.0474151
0.0218837
0.0308457
0.0296574
0.0220674
0.0219984
4.53316
0.0217126
0.0220314
0.0216525
0.025317
0.0214766
4.72634
0.025797
0.185001
0.0219611
0.0219057
0.0220289
4.41898
0.0635792
0.0220378
0.0216074
5.61641
0.0255761
0.0634122
0.0218592
0.144827
0.0235451
0.0215545
1.92738
0.0217584
0.0222344
0.0221476
0.0220114
0.0238644
0.0221265
0.0220367
1.66221
1.85782
4.4079
0.0831519
9.0959
0.0218586
5.00346
0.0219667
4.23325
8.72526
0.0217856
11.0458
0.0219789
4.12884
12.2882
0.271288
4.27266
4.06988
0.808731
1.08668
6.59732
5.25124
0.0426988
0.0415298
4.58783
0.0234519
0.0216583
0.48785
0.0239541
0.0272497
10.9321
0.0227132
0.155666
3.85005
6.70547
0.459072
0.106616
0.0222515
0.0279446
0.0457689
0.0222346
7.15483
0.294839
0.116103
0.0219097
0.0220694
9.23306
0.0216902
0.733046
0.0218386
9.70844
4.49393
0.0333355
0.0259232
0.0219902
10.7857
4.04722
0.0253798
0.0329944
0.0222863
0.022286
0.0564744
0.0230229
0.0329609
0.0652244
0.0242083
0.0317751
0.0220368
0.0314185
16.7862
0.0225331
11.0506
0.0219395
3.30349
0.052816
0.0220391
7.99716
0.116932
0.0218483
0.17339
0.0220307
0.160872
0.0221938
0.0220114
4.02445
0.0221462
0.102148
0.0231589
0.130972
0.0218323
0.0223498
0.0218609
0.0297846
0.0240995
0.0222815
0.0226407
0.0259396
0.0224394
0.115875
0.0623096
0.0298038
0.0230605
0.0216272
2.28042
5.18298
0.0227688
0.0225744
0.0226229
0.0373358
0.0222811
0.0345558
0.0215688
0.0222855
0.276182
0.0231863
0.0222849
0.021907
4.58348
12.2546
0.0215938
0.0670596
0.0608262
0.209166
0.217519
7.48445
4.49295
0.570382
0.0229221
0.127983
0.0219285
0.0321578
7.7502
4.43266
0.134851
0.0239808
17.5076
0.0220435
0.0451075
0.452651
0.0222087
0.126308
0.0231465
0.0232877
0.0695805
0.137087
3.83022
3.54726
0.0218156
0.0215938
4.55452
3.94179
0.0222139
0.0282111
0.110167
0.022059
0.0220169
0.0239402
1.14419
0.0217709
4.30199
0.0292551
0.0221541
0.121947
0.0708221
0.0653652
0.114317
4.76686
0.0241123
0.0343852
0.0268434
0.0235985
10.3809
0.0315207
4.16379
4.43684
0.0666759
4.30452
0.0441095
0.0442608
0.332129
0.0217229
4.57972
0.0851088
0.0335676
0.0290114
0.0221795
0.0216606
4.18176
0.0428935
4.32531
4.27568
0.0221159
4.30702
0.0218381
0.0219516
0.0280886
12.0721
0.0704314
0.0216767
3.99107
0.0219861
0.0237067
4.17417
0.023735
3.61663
0.022273
4.57477
1.65397
0.0727745
1.23605
0.0232515
3.67116
0.0216215
5.00864
4.57181
4.34803
5.19135
0.0219448
0.0218173
0.216489
4.00594
3.72306
3.84721
3.86222
0.0221487
5.0746
3.6542
0.0224409
2.71306
0.0311578
0.0330051
12.453
0.0374334
4.45922
0.0220114
0.0368151
0.0350707
0.197139
6.7151
0.0360359
3.74799
4.45251
0.0221719
0.0243376
0.0236466
0.0247945
3.72756
0.0220136
0.021761
0.0384808
3.98003
4.16167
0.0274022
3.82201
4.3336
0.0219602
9.15806
4.65296
0.160595
3.96601
0.0613733
0.0241339
0.0221735
0.148001
0.0262806
0.076652
10.5007
4.40712
0.0281912
0.0691716
0.0258383
0.0387788
0.0216489
0.0407391
0.0243881
0.0867667
4.59563
4.73666
2.20437
0.0216581
0.126914
0.060517
4.39869
0.0230659
4.75899
4.71379
4.62693
0.0221009
0.171147
4.54995
11.3223
8.0904
0.0358228
5.50605
1.67406
0.0594693
0.0647454
0.0239606
0.0285947
4.99466