/*--------------------------------*- C++ -*----------------------------------*\
| =========                 |                                                 |
| \\      /  F ield         | OpenFOAM: The Open Source CFD Toolbox           |
|  \\    /   O peration     | Version:  v2012                                 |
|   \\  /    A nd           | Website:  www.openfoam.com                      |
|    \\/     M anipulation  |                                                 |
\*---------------------------------------------------------------------------*/
FoamFile
{
    version     2.0;
    format      ascii;
    class       surfaceScalarField;
    location    "200";
    object      phi_0;
}
// * * * * * * * * * * * * * * * * * * * * * * * * * * * * * * * * * * * * * //

dimensions      [0 3 -1 0 0 0 0];
oriented        oriented;


internalField   nonuniform List<scalar> 
20673
(
-0.171085
0.161627
0.00945756
0.37004
-0.306287
-0.0637528
0.0216895
-0.0516161
0.0299266
0.15157
-0.276429
0.124859
-0.361608
-0.11628
0.477888
-0.0216058
-0.00182197
0.0234278
0.0355266
-0.031722
-0.00380464
0.0112521
0.0190001
-0.0302523
0.0161024
-0.0308066
0.0147042
-0.0564831
0.157335
-0.100852
-0.106463
0.106524
-6.05705e-05
0.149963
0.00442722
-0.15439
-0.0976509
0.00127741
-0.000462291
-0.000815115
0.204138
-0.0375702
-0.166567
0.241734
-0.242341
0.000607248
-0.105169
0.299811
-0.194642
0.139906
-0.162321
0.0224154
0.150694
-0.000731078
0.336899
0.263386
-0.600284
-0.373518
0.57324
-0.199723
0.0339902
0.00153642
-0.59815
0.334185
0.263966
0.0483886
-0.0371364
-0.307764
-0.0597336
0.367498
-0.00379432
0.033148
-0.0293537
-0.106674
0.0790411
0.0276327
-0.100578
0.0512564
0.0493212
-0.0665524
0.0517133
0.0148391
-0.147468
0.109015
0.0384533
0.156135
-0.169972
0.0138374
0.195242
-0.205146
0.00990478
-0.0976842
0.138989
-0.0413048
0.176043
-0.0491887
-0.126855
-0.387466
0.362126
0.0253405
0.0903361
-0.109257
0.0189211
-0.365406
-0.232744
-0.00447899
-0.0044545
0.00893349
-0.186395
-0.0545501
-0.0160697
0.00100935
0.0150604
-0.579934
0.589828
-0.00989387
0.685294
-0.386965
-0.298329
0.364945
-0.537562
0.172617
-0.0495075
-0.0194555
0.068963
-0.171014
-0.154898
0.325911
0.0961077
0.0714329
-0.167541
0.146768
-0.00686256
-0.0171441
-0.110856
0.128
-0.00258423
0.0100294
-0.00744513
-0.680228
0.436424
0.243804
0.0429193
-0.164702
0.121783
-0.283202
0.032549
0.250653
-0.00542739
0.00284317
0.0561792
0.119864
0.167952
-0.273121
0.212076
-0.223554
0.0114779
-0.113379
0.006916
0.271109
-0.352561
0.0814525
0.0841657
0.160895
-0.245061
-0.332184
0.16117
-0.0189406
-0.0226541
0.0415947
0.16271
0.20733
0.00127741
-0.165406
0.502304
0.0153872
-0.0369931
-0.0826559
0.0918428
-0.00918692
-0.515781
0.323749
0.263481
-0.361917
-0.103714
0.102857
0.00085683
-0.161607
0.181135
-0.0195289
-0.525299
0.163691
-0.0182068
0.0343093
0.000991263
-0.00271894
0.00172767
0.143096
-0.45086
-0.00693876
-0.00781549
0.0147543
-0.0178426
0.143979
-0.126137
0.0022679
-0.000616617
-0.00165129
0.0720314
0.191158
-0.26319
0.0357816
-0.0327218
-0.00305981
-0.611999
0.326922
0.285077
-0.325102
0.600547
-0.275445
-0.257389
0.00858037
0.0254966
-0.034077
0.00865297
-0.013132
0.00207358
0.00142253
-0.00349611
-0.21299
0.285022
0.368166
0.2046
-0.572766
-0.0916032
0.00894732
0.211607
-0.168688
0.515626
-0.150681
-0.00312819
0.000330631
0.00279756
0.121681
-0.00436202
-0.117319
-0.0508156
0.365443
-0.314627
-0.261901
0.0532405
0.208661
-0.0398825
-0.0517207
0.0240206
-0.0342102
0.0101897
0.0871451
-0.124434
0.0372888
0.128122
-0.00130714
-0.126815
-0.0665325
-0.0361355
0.102668
0.0538916
-0.0658629
0.0119713
-0.455332
0.559426
-0.104094
0.123207
0.00778245
-0.130989
0.020254
-0.0697615
-0.27185
0.0731594
0.198691
-0.483628
0.0890127
0.394616
0.0416243
-0.0310237
-0.0106006
-0.00555657
-0.0609103
0.0664669
0.0935211
-0.110665
0.103063
0.196748
0.16116
-0.150658
-0.0105019
0.00260461
0.00635776
-0.00896237
-0.00329914
-0.0127706
-0.11159
0.132174
-0.0205838
0.0376319
0.00399238
-0.275205
0.116773
0.158432
0.00609431
-0.00686523
0.000770919
-0.362248
0.499989
-0.137741
0.0112902
-0.0121231
0.000832821
-0.00706091
0.00892044
-0.00185953
-0.0777
0.166614
-0.0889141
0.49798
0.187314
-0.095719
-0.00799489
0.00148179
0.00602004
-0.00750183
-0.0560449
-0.0445327
-0.608714
0.123196
0.485519
-0.245931
-0.0159702
0.0990251
0.219395
-0.31842
-0.534615
-0.0740996
-0.492535
0.586873
-0.0943384
0.0221986
0.00926451
-0.0134783
0.00421377
-0.0828653
-0.19234
0.149123
-0.304021
0.208301
-0.581819
-0.129351
0.0630015
0.0663494
0.0103702
0.0380183
-0.016006
-0.155079
0.052593
0.00129857
-0.114152
0.437901
0.101728
-0.179428
-0.0971362
0.114372
-0.0172355
0.451379
-0.191008
-0.260371
-0.21682
0.27783
-0.0610093
-0.0733488
0.026329
0.0470198
-0.0685587
0.33204
0.0494463
0.00622344
-0.0556697
0.0194501
0.0423576
-0.0618077
0.0182339
-0.301436
0.50394
-0.167448
-0.336492
0.223365
-0.214316
-0.00904909
0.154593
0.00383472
-0.158428
-0.00149814
0.00759245
0.0225874
-0.11613
0.0935427
-0.0805752
-0.0444063
0.124982
0.218594
-0.213243
-0.00535064
0.00489266
-0.00152935
-0.00336331
-0.173063
0.0114559
0.0301253
-0.0897065
0.0595812
-6.61384e-05
0.00233404
-0.07638
-0.0529709
-0.148905
0.219758
-0.0708533
-0.0868035
-0.00590974
0.0927133
0.243403
0.356649
-0.600053
0.112112
-0.0249666
-0.135032
0.0234417
0.0281557
-0.0946882
-0.20229
-0.0695599
-0.156816
0.153628
0.00318854
0.133443
0.221224
-0.354667
0.0249339
0.098273
0.150156
-0.141972
-0.00818331
0.0161708
-0.00693342
-0.00923736
0.109354
0.00606365
-0.115418
-0.00738845
0.236348
-0.228959
0.0659716
-0.0529277
-0.0130438
-0.0443973
-0.0687958
0.113193
0.0150687
-0.00580416
0.000565298
0.0107249
0.0660378
-0.0165915
-0.259083
0.401784
-0.142702
0.00614588
0.115535
-0.0124582
0.168593
0.298291
0.153088
-0.0897069
0.457873
0.190985
-0.0918482
-0.0991372
0.0367789
-0.0405732
-0.0326658
0.12801
-0.0953442
0.00383055
0.00106211
0.150795
-0.150637
-0.000157829
-0.10791
0.0984775
0.00943241
-0.00789396
0.0740234
-0.0661294
0.00233673
-0.000263148
-0.113794
0.0946046
0.019189
0.624742
-0.278983
-0.345759
-0.0319974
-0.0145232
0.0465207
-0.102837
-0.00383719
0.632551
-0.632551
-0.303859
0.253043
0.00851315
-0.0829349
0.0744218
-0.0875434
0.0860045
0.00153884
0.0242216
0.176315
-0.200536
-0.339921
-0.340307
0.163029
-0.00198641
-0.161042
0.153249
0.00134365
-0.00318137
0.00417264
-0.0731495
0.102503
-0.0293535
-0.280152
-0.107315
-0.0907579
0.361867
0.00843715
0.119685
0.0154412
0.0334838
-0.048925
-0.28764
0.0708192
0.0385653
-0.0302794
-0.00828597
0.00568061
-0.000339581
-0.00534102
-0.00605717
-0.101853
-0.414608
-0.0690209
-0.0611179
0.0423785
0.0187394
0.148165
-0.00546698
-0.142698
0.00984618
0.00384102
-0.0136872
-0.491735
0.291022
0.200713
0.0461739
-0.0651145
-0.396467
0.137385
0.000824273
0.114323
-0.115147
-0.128015
-0.451919
-0.0072078
-0.00118249
0.00839029
0.0389317
-0.0286954
-0.0102364
0.0645106
0.177223
-0.11827
0.0205406
0.0977293
0.0382336
0.18036
-0.455618
0.0410106
0.00583966
0.0844964
0.124404
-0.0150504
-0.0106161
0.161411
-0.0592894
0.019949
0.0393404
0.00645221
-0.000771599
-0.591141
0.48941
0.101731
0.193301
0.00194039
-0.00562457
0.00249639
-0.00155818
-0.0021379
0.00369609
-0.303145
0.546548
-0.461418
0.442243
0.0191756
-0.0180215
0.001075
-0.117604
0.0949119
0.0226924
0.39959
-0.602082
0.202492
-0.0793296
0.0934909
-0.0141613
-0.143634
0.140967
0.00266766
-0.104855
0.0180515
-0.167685
-0.0118339
0.179519
0.58238
-0.225731
0.140541
0.00434375
-0.144885
0.0042404
-0.00488957
0.000649169
-0.2874
0.386323
-0.0989231
0.0540991
-0.133834
0.0797351
-0.0383934
-0.0116171
0.0500106
-0.239422
0.338447
-0.282111
-0.0704498
-0.0253232
-0.106096
0.131419
0.000114684
0.0142128
-0.0143275
0.105882
-0.0832948
0.121355
0.0696299
0.0127108
0.191427
0.241502
0.370691
-0.612193
-0.00385919
0.00534098
0.00621783
0.0459874
-0.0522052
0.0565593
-0.09096
0.0344007
-0.381769
-0.0738489
-0.00106765
-0.00523866
0.00630631
-0.00285097
0.00253596
0.00031501
-0.0468639
0.0769892
0.0354218
0.000359783
-0.12303
0.105188
0.257279
0.472796
-0.6614
0.188605
-0.141521
0.00252215
0.138999
-0.00158532
0.00426925
-0.00268393
0.116241
-0.13268
0.0164386
-0.170898
0.255063
-0.106578
0.0334288
-0.14487
-0.0151865
-0.0928028
-0.453439
0.546242
-0.0808104
0.0766593
0.0041511
0.254742
0.281342
-0.536083
0.06248
0.00349155
-0.208982
0.233204
-0.0723203
0.47191
0.0827175
0.113233
-0.195951
0.0500519
-0.130627
0.107189
-0.113098
0.0221072
-0.101437
-0.00508049
0.131925
-0.126845
0.376476
-0.0902001
-0.286276
0.0830227
-0.0973077
0.014285
-0.0272226
-0.0320668
0.0329978
-0.0267799
-0.227117
-0.264618
0.0827291
-0.022972
-0.0597571
-0.483466
0.015018
0.468448
0.185319
0.191157
-0.474734
0.112486
0.0627001
-0.0432499
-0.0586585
0.519908
-0.461249
-0.106493
0.107318
-0.179424
0.0117389
-0.265436
0.398879
0.00318943
0.159839
-0.2452
0.026897
0.218303
-0.00723818
0.00208259
0.00515559
0.0842788
-0.128676
0.124595
-0.128957
-0.276107
-0.107271
0.383378
0.0681024
-0.350214
0.000789171
-0.00899658
0.00820741
0.00694815
-0.00495237
-0.00199578
0.288055
0.211933
-0.392193
0.625349
-0.233155
-0.0705099
-0.0103006
-0.2898
-0.0676189
0.357419
-0.00201033
-0.000708603
0.102087
-0.378194
-0.00884549
0.0016377
-0.331589
0.254426
0.0771634
0.103346
-0.0123167
-0.0910296
0.216025
-0.143293
-0.0727314
0.017824
-0.0115849
-0.00623912
0.0619663
-0.210871
-0.002447
-0.073933
-0.0530161
0.011998
0.0410181
0.181563
-0.098846
-0.0608043
-0.0568001
-0.00964761
0.0723691
-0.0627215
0.0545909
-0.280445
0.225854
-0.00403009
-0.00712713
0.0111572
-0.053039
0.0210416
-0.000338397
-0.00251257
-0.189749
0.171111
0.0186378
-0.011089
0.000351581
0.0107374
-0.159992
-0.0568861
0.216878
-0.00161032
0.00249603
-0.000885709
-0.044694
-0.00832215
0.0712122
-0.0936894
0.0224771
0.0946498
-0.0234376
0.0373049
-0.0156154
-0.563466
0.336496
0.226969
0.142568
0.00758769
-0.00509021
0.00769482
-0.179393
0.294077
-0.114684
0.222698
-0.00181649
-0.220882
-0.003897
0.00343471
-0.064837
0.0733501
-0.214064
-0.0517803
0.265845
-0.0812735
0.0733796
-0.0365505
-0.0300019
-0.60135
0.32482
0.27653
-0.0084325
0.0013716
-0.110837
0.0329368
0.0778999
-0.266601
0.521343
0.508344
-0.3594
-0.148943
0.110226
-0.593693
0.236274
0.267666
-0.0139009
0.0969236
-0.0448266
0.0646216
-0.019795
-0.0406251
0.0234645
0.0171607
0.00764725
-0.00685808
-0.37325
-0.00440344
0.377653
-0.0618923
0.115991
-0.00707885
0.00760626
-0.000527404
0.124726
-0.165349
0.0406229
0.00684335
-0.00708668
0.00550135
0.00790809
0.21121
-0.479689
0.268478
0.0930351
-0.0364758
0.322199
-0.495159
0.17296
-0.0160764
0.0622503
-0.143432
-0.188752
0.0154547
0.0023693
-0.0277555
-0.115879
0.181693
0.0867977
-0.26849
0.460964
-0.572335
0.111372
0.139474
-0.131037
-0.0927843
0.0989302
0.123672
-0.127678
0.00400674
-0.0139686
-0.0436288
0.0575974
-0.00592725
0.00431692
0.0134278
-0.0035816
0.0070996
0.133442
0.0612909
-0.117774
0.0175536
-0.478972
-0.00349917
0.00194099
-0.022596
-0.00897791
0.0315739
-0.0299152
0.288797
-0.258881
0.0908528
-0.0932998
-0.305601
0.501377
-0.195776
0.0394155
0.0724705
-0.111886
-0.099254
-0.232335
-0.319299
-0.244167
-0.293529
0.109905
0.183625
-0.0266311
-0.00898152
0.0356126
-0.0764922
-0.217037
-0.0197606
0.0198753
0.000729317
-0.00146938
0.000740063
0.0811159
-0.0850053
0.00388941
0.0277427
-0.0460473
0.0183046
-0.214965
0.269556
-0.0353763
-0.0257416
0.0397407
0.588886
-0.244127
-0.344759
-0.0703936
-0.296817
0.117424
0.214579
-0.339794
0.125216
-0.0752239
-0.072244
-0.365222
0.606725
-0.392339
0.461677
-0.0693374
0.38904
-0.0668409
0.0904474
-0.104348
-0.328356
-0.283643
-0.0095918
-0.00149716
-0.00375891
0.0410339
-0.037275
0.00263682
0.00222214
-0.00485896
-0.0808044
-0.0329891
-0.00644843
-0.0125544
0.0190028
0.00925839
0.00195592
-0.0112143
0.165539
-0.0408138
-0.473168
0.0999183
0.110709
0.0130475
-0.123756
-0.266264
0.079869
0.206295
-0.194715
-0.0115799
0.226892
0.39785
0.0212112
0.037578
-0.0221368
-0.0551008
0.0513418
-0.189752
0.208198
-0.0184465
0.108279
0.0270562
-0.135335
-0.166655
-0.0230943
-0.259332
0.204782
0.00512926
0.118542
0.194288
-0.242017
0.0477297
-0.0823163
0.0870954
-0.00477912
-0.174889
0.277953
-0.43806
0.379401
-0.000815296
-0.00119504
0.0123838
0.00268492
0.0161955
-0.0038117
0.0439673
0.0896239
-0.133591
0.00497713
-0.00234031
0.0114225
-0.0154526
-0.00116263
-0.00375354
0.00491617
0.000620804
-0.000937413
0.000316609
0.147525
0.365774
-0.513299
-0.130969
0.00174248
0.129227
0.225344
-0.0310564
0.346698
-0.263893
-0.0828052
-0.110858
0.031956
0.0789016
0.00524743
0.484089
-0.537979
0.0538907
0.0118864
-0.137058
0.125171
-0.004873
-0.148916
0.153789
-0.00110129
0.000614388
0.000486903
0.344201
0.244685
0.119754
-0.00791239
-0.111842
0.00185128
-0.0051225
0.00327123
0.101541
-0.0173251
-0.0842161
0.000930314
-0.010425
0.00949469
0.244884
-0.251613
0.221697
0.522118
0.110432
-0.149703
-0.0233598
0.50874
-0.29753
-0.0338054
-0.010025
0.0438304
-0.0345414
-0.0060837
-0.155444
0.150363
0.00186331
-0.00232551
0.0004622
0.0223837
0.189692
0.0988836
0.0132281
0.00082552
-0.00198815
-0.0100604
0.052418
-0.0114584
0.0925742
-0.00543447
-0.0917018
0.104277
0.0154778
0.122741
-0.147541
0.0248
0.0848727
0.0328421
-0.117715
-0.171186
0.177544
-0.00635777
0.0928814
-0.109806
0.0169241
0.0239676
-0.138266
-0.0138931
0.152159
0.10459
0.00338492
-0.107975
-0.530105
0.543751
-0.0136462
0.10495
-0.0272281
-0.0777214
0.215222
-0.0156353
-0.199587
-0.430624
0.304101
0.126522
-0.160138
0.010435
-0.264227
0.183759
0.0804689
-0.00115009
4.87979e-05
0.0137928
0.023839
0.0899997
-0.379799
-0.516312
0.423509
-0.0370887
-0.00892489
0.0460136
0.0117342
-0.00247582
0.59391
-0.22322
-0.00810157
0.00903188
-0.312917
0.232127
0.0807901
0.125354
-0.0959522
-0.0294019
0.00767004
0.32417
-0.33184
0.00643455
-0.00451689
-0.00191766
0.0624473
-0.0937332
0.0312858
0.0430612
0.180303
0.305124
-0.190815
-0.11431
0.0186726
-0.025121
-0.116535
0.0838692
-0.00987974
0.0098878
-8.06341e-06
0.241256
-0.606479
-0.000585759
-0.00481437
0.00540013
-0.00667288
0.0875197
-0.0141814
-0.0733383
-0.353585
-0.0770384
-0.0032993
0.00472184
0.029584
-0.0152802
-0.0143038
-0.129396
0.166228
-0.0368318
0.125967
0.382377
-0.217665
0.265503
-0.0478385
-0.139873
-0.0609934
0.100409
-0.043686
0.527775
-0.518202
0.158802
0.650051
-0.438958
-0.211092
0.407911
0.24214
0.0049784
-0.00604605
-0.0479438
-0.0629138
0.0361434
-0.102311
0.11685
-0.0145395
0.572484
-0.0996881
-0.0481579
-0.407174
-0.0107553
0.119035
-0.0164296
0.00602865
0.0104009
0.150396
-0.167474
0.0170784
-0.114605
0.335828
0.452073
-0.237494
-0.287052
-0.0907722
0.377824
0.0170098
0.000251223
0.00208551
0.396846
0.165515
-0.562362
-0.26595
-0.142627
0.408577
0.0107189
-0.0226174
-0.148569
0.105408
0.110616
0.0432297
-0.294842
-0.148537
0.261431
-0.112894
0.182574
-0.220446
0.0378715
-0.00402591
0.108616
0.062826
-0.0724736
0.0256992
0.0992239
0.0114848
-0.148299
0.0601117
0.0881877
0.0202618
0.0822411
0.00697162
0.117623
0.453003
-0.292977
-0.160026
0.00496247
-0.000722071
-0.452945
0.249483
-0.026785
0.251667
0.00601505
-0.257682
0.0766518
0.0282978
0.0819605
0.0214134
-0.103374
-0.0144767
0.399409
-0.384933
-0.00171856
0.10326
0.109945
-0.139533
0.0295878
-0.00442346
-0.00204787
0.00647133
-0.0812624
-0.0670371
0.0032343
0.0940849
-0.0973192
0.141576
-0.146449
0.322793
0.138171
0.0505276
-0.0175299
0.101628
-0.0256817
0.0211799
0.00450183
0.170054
-0.344944
-0.156287
0.186112
-0.0298252
0.111488
0.00536216
-0.00316359
-0.00392308
0.012241
-0.012241
0.117946
-0.119253
-0.0649229
0.10889
-0.0365671
-0.205774
0.198959
-0.227142
0.0281834
-0.211812
0.255042
-0.0741991
-0.0162121
0.0904112
-0.0530947
0.0267891
0.146372
0.00179296
0.0141996
-0.0186776
-0.00700411
-0.00233865
-0.00754109
0.0212418
-0.218729
0.197487
-0.00872102
0.107605
0.0897579
-0.0273106
0.0850205
0.0932181
-0.178239
-0.291567
0.0882899
0.203277
-0.0295763
0.00233269
0.0272436
0.0633792
-0.0404961
-0.0228831
-0.0549865
0.0428073
0.0121793
-0.0386683
-0.0690881
0.107756
-0.538885
0.0463502
-0.00656203
-0.00187047
0.00410616
-0.467071
0.452594
0.185371
-0.183065
-0.00230618
-0.00760105
-0.11204
0.119642
-0.12592
0.0282361
-0.0157242
0.124739
0.0377943
-0.010594
-0.0272004
0.110738
-0.0258655
-0.020537
0.191931
-0.171394
0.0245026
0.026025
0.264744
-0.198202
-0.0665423
0.000341033
0.000279772
0.271738
-0.574882
-0.0118211
0.408668
0.0698344
0.0128947
0.0465699
0.0168093
0.0338183
-0.00689217
-0.0269262
0.0966937
0.16805
0.257339
-0.264727
-0.448427
0.182477
0.00474255
-0.149613
0.00309059
0.115108
-0.0869524
0.220425
-0.0214668
0.101207
-0.112665
0.134007
-0.262053
0.269723
-0.0526181
-0.0656518
0.116972
-0.00186365
-0.0830839
0.0726599
0.010424
-0.0474451
0.359668
-0.312223
-0.0828052
-0.0256316
0.108437
-0.0730689
-0.00664366
0.00737298
0.0333962
0.123939
0.109594
-0.027633
-0.188662
0.0323752
-0.258885
0.536862
-0.277977
0.291764
0.0856947
-0.377459
-0.0909444
0.31034
-0.0871775
-0.0114926
0.09867
0.155643
-0.0595354
-0.0563444
0.104835
-0.0484903
-0.0364939
0.0225253
-0.139961
-0.0168553
-0.222398
-0.378951
0.027161
-0.0896383
0.0624773
0.0243345
0.00948387
-0.103393
0.086942
0.0164514
0.0577728
-0.345173
-0.180992
0.149592
0.0314003
-0.120678
-0.397524
-0.160085
-0.0418485
0.201933
-0.0526673
0.213562
0.00701029
0.0225737
-0.287269
0.614191
-0.0670028
0.188624
-0.00277878
-0.185845
0.0852278
0.0212958
0.148442
-0.0611378
-0.0873045
0.00396863
-0.00101226
-0.00295637
-0.0224708
-0.0894548
0.111926
0.0482337
-0.265898
-0.0012162
0.00297338
-0.00175718
0.0104189
0.00182207
0.354082
-0.2656
-0.0884819
0.221531
0.0301356
0.104447
-0.0763718
-0.0280753
0.0850829
-0.123751
0.11722
-0.00097883
-0.347917
-0.242521
0.590439
0.0346378
0.270487
-0.10351
0.0911937
0.2429
-0.0612074
-0.11195
-0.0157285
-0.150235
0.124912
0.387666
-0.0959023
-0.145116
0.150147
-0.00503027
-0.0316671
0.400036
-0.175644
-0.224392
-0.26627
-0.0310452
0.297315
0.672615
-0.393072
-0.279543
0.004735
0.00221315
-0.41372
0.622021
-0.201667
0.0119155
0.00389269
0.0122781
0.0088474
0.20197
-0.210817
0.0573138
-0.0107439
-0.0265242
-0.186719
0.0673229
0.0716661
0.233657
0.1219
-0.00564299
-0.116257
-0.0989262
-0.375808
0.139212
-0.00620052
-0.133012
0.325176
-0.585775
0.260598
0.111721
-0.100812
-0.0109093
-0.218788
-0.0941294
-0.0330171
0.0348684
0.0538742
-0.0459671
-0.00790709
-0.00378645
-0.0126431
-0.560415
-0.072136
-0.235839
0.128619
-0.121647
-0.147628
0.162649
-0.0150205
0.00124852
-0.00512667
0.00387815
0.0219068
-0.0217818
-0.000125092
-0.134686
-0.0276352
-0.332243
-0.0134726
0.345716
0.107311
-0.0168636
-0.0265742
0.0196821
-0.0853954
0.00231148
0.0570325
-0.113377
0.141802
0.0005309
-0.142333
-0.0299315
-0.00660386
0.0365354
-0.164827
0.150698
0.0141288
0.16034
-0.175527
0.00117593
0.0937125
-0.0948885
-0.0772226
-0.00571234
-0.148472
0.013786
-0.00303018
0.0205019
-0.0174718
0.147183
-0.152482
0.0052989
-0.280102
0.0802464
0.199856
0.0981287
-0.10573
0.0698562
0.111707
-0.404834
0.317693
0.0871406
-0.185239
0.0251546
0.0142282
0.146932
-0.168848
-0.0454677
-0.381867
-0.0411779
0.423045
0.180291
0.147734
-0.0143866
-0.133348
-0.0627708
0.242332
-0.179562
-0.138137
0.0261876
0.00991473
-0.342158
-0.22618
0.462816
-0.236635
0.135226
-0.548946
0.214987
-0.159036
-0.0559514
0.222999
0.223636
-0.446635
0.0277719
0.185468
-0.21324
0.625656
-0.283314
-0.342341
0.0049413
0.00149324
-0.147334
0.146362
0.000972024
0.0406556
-0.0384608
0.237362
-0.516408
0.279045
-0.354444
-0.205208
0.559652
-0.0365392
0.0873464
-0.0508072
0.151704
-0.0289639
0.250875
-0.195014
-0.055861
0.0466021
0.0182417
-0.0648438
0.136368
-0.0407654
-0.0956027
-0.081907
0.0658306
0.00338507
0.0962808
-0.124327
0.0280463
-0.0885611
0.260362
-0.171801
-0.633908
0.0244742
0.609433
0.598358
-0.190448
-0.256245
0.0110447
0.0137919
-0.0139754
0.000183579
-0.603383
0.248939
-0.0933805
0.0212259
0.0721545
-0.126458
0.15423
-0.00100859
-0.00607026
0.10902
-0.137605
0.0285846
0.111296
0.0250721
-0.0114206
0.0966484
-0.440146
0.102354
0.337792
0.280805
0.31621
0.00335971
-0.430121
0.275127
0.154995
-0.300223
0.0815474
0.218676
-0.0538523
-0.023459
0.0773113
0.251189
-0.0148414
0.0977006
0.448938
-0.546639
-0.00727907
0.176998
-0.169719
-0.0585479
-0.417686
0.476234
0.324226
-0.474061
0.149835
-0.162085
0.0136529
-0.00199341
0.00324193
0.166577
-0.177114
0.0105371
0.250667
0.149369
0.464289
0.125539
0.00660743
-0.00977102
0.00747237
0.331873
-0.101624
-0.230249
-0.108994
0.279049
0.0716821
-0.02508
-0.0831313
0.0995673
-0.016436
-0.0117825
-0.00179534
0.0135778
-0.113652
0.116886
-0.0497387
-0.230364
-0.234918
-0.356223
0.505241
-0.181015
0.00906576
-0.147332
-0.0128467
0.0191745
-0.0896778
0.0705033
0.0506333
0.120478
-0.0114891
0.00436199
-0.286155
0.0871303
0.199025
0.0346507
-0.21669
0.182039
0.010682
-0.0134184
0.00273635
0.144719
-0.45032
0.00266768
0.212554
0.274204
-0.357412
0.0832082
0.335797
0.259925
-0.595722
0.00393093
-0.154589
0.0883168
0.0188719
0.205214
-0.276452
0.0712378
0.0515313
0.00578255
0.00148022
0.0130183
-0.0144985
0.0311233
0.225886
-0.310606
-0.118745
0.42935
-0.0918741
-0.0118993
0.103773
-0.0731187
-0.32539
0.566646
-0.0808691
0.0999772
-0.0191081
-0.437232
0.126626
-0.155744
-0.27988
0.364589
-0.0847086
0.437854
-0.154134
-0.28372
-0.108937
-0.242277
-0.1021
0.344377
0.0318098
-0.0927956
0.144348
0.0413406
-0.185689
0.393126
-0.586431
0.193305
0.37432
-0.504528
0.130208
-0.0166081
-0.267266
0.283874
0.0300213
-0.320364
0.290342
-0.338935
0.072665
-0.0357131
0.044401
-0.00868784
0.289481
0.0509211
-0.340402
-0.109495
0.400629
-0.291135
0.0261581
-0.00876502
-0.0173931
-0.0313429
0.0375663
-0.15192
0.131383
-0.160086
0.000546499
-0.120626
0.120079
-0.0507893
-0.166302
0.217092
0.471994
-0.162826
-0.309168
0.126274
-0.0548409
-0.00376713
0.11367
-0.00194838
0.272835
-0.48226
0.209425
-0.30246
0.111646
-0.00469969
0.0266065
-0.0518716
-0.0826083
0.13448
-0.00130317
0.00497079
-0.00366762
0.528352
0.16801
0.000675542
-0.00562791
-0.182583
0.155069
0.0275142
-0.276993
0.0640027
0.0132137
-0.0125583
-0.000655386
-0.0192554
0.0112841
0.0079713
0.353529
-0.323508
0.102335
-0.101159
0.491354
0.107005
-0.338926
0.0966485
0.429017
-0.191655
-0.000854697
-0.00438396
0.471939
-0.24894
-0.328258
0.280986
-0.0514274
-0.273265
0.0741449
0.19912
0.0328144
0.0925397
-0.0934031
0.047104
0.304627
0.073825
-0.378452
0.0988802
-0.124505
0.0256246
0.37257
0.166606
-0.539176
0.00634408
0.504765
-0.482326
-0.0224385
0.347254
0.360988
0.219097
-0.580085
0.00660336
0.458688
0.027933
-0.0121836
0.0162707
-0.00408707
0.0148418
-0.0544373
0.0395954
0.00050545
-0.181498
-0.0414157
-0.069421
-0.0109411
0.0127561
-0.00181493
-0.281086
0.349188
0.000358346
-0.00692038
-0.0318528
0.00919864
-0.0126534
0.00171228
-0.000535911
0.0158242
-0.0152883
0.00698848
0.0191696
-0.0266549
0.0222315
-0.071636
0.098797
0.179535
0.085968
0.00507254
-0.153658
-0.0289256
0.00593841
-0.0285344
-0.411978
0.0583932
0.0904944
0.274948
0.277111
0.0547617
0.538085
0.163643
-0.230158
0.0665145
0.12142
-0.147391
0.0259714
-0.00474589
0.0061833
-0.00143741
0.37173
-0.281236
0.42548
-0.186201
-0.23928
-0.00170115
0.00811032
-0.00640917
0.0112526
-0.0782312
0.0669785
-0.269958
0.25335
0.0224595
0.0220522
-0.175532
0.15348
-0.0723691
-0.206025
0.278394
0.0289699
0.0249042
0.0895446
-0.0670851
0.162181
-0.212314
0.0501329
-0.165948
-0.107317
0.0129834
-0.0115032
0.0118567
-0.00117472
0.00298661
-0.0151097
-0.363019
0.0831386
-0.0873116
-0.0292233
-0.00977244
0.119717
-0.00586208
-0.00375965
0.00962173
-0.0333951
-0.12128
0.123899
-0.00261868
0.256551
0.169862
-0.258423
-0.0761439
-0.210011
-0.508254
-0.114238
0.0664496
0.511747
-0.364222
0.169778
0.0127967
-0.063245
-0.101582
-0.00179949
3.3031e-05
0.00176646
-0.130846
0.03402
0.0968256
-0.0947522
-0.233505
0.123337
-0.00227336
0.00415856
-0.00188521
0.165558
0.327597
-0.245627
-0.0819706
-0.000730181
-0.000790563
0.00152074
-0.360944
0.0955086
-0.305298
0.00507521
0.0752846
-0.109858
0.0345736
0.00475489
-0.00289158
0.482515
0.299419
-0.346865
-0.0267976
0.0354865
-0.00868887
-0.103529
0.0621136
-0.0266079
0.0900331
-0.0634252
-0.136599
0.036919
0.0996799
-0.0439197
-0.0653374
-0.487338
0.173965
0.313373
-0.101816
0.0995441
0.00227219
0.173253
0.154344
0.0123368
0.357054
-0.369391
-0.080148
-0.211419
-0.0479743
0.0141689
0.00122501
-0.0130075
-0.368959
0.0894187
0.27954
0.50019
-0.125871
-0.0731361
0.34734
0.0213159
0.0663083
-0.181324
-0.00579101
0.187115
-0.233071
-0.19705
-0.302729
0.088664
-0.00259238
0.363915
-0.0592878
-0.00832817
-0.0738413
-0.0158748
0.0897161
-0.0129873
-0.00442116
0.0174084
-0.326779
0.0873576
0.117373
-0.0271075
-0.0902651
0.183737
-0.162496
-0.00439663
-0.000120261
-0.00356708
0.00129373
0.00983791
-0.00348015
-0.120255
0.120801
-0.0046654
-0.01459
0.463956
0.00649536
-0.0331264
-0.466582
0.479683
-0.0732995
-0.150254
0.171537
-0.156676
-0.0148609
-0.0764871
-0.0450602
0.00797146
0.0457359
0.0313463
-0.0770823
0.0915465
0.0175756
-0.109122
-0.0181806
0.0535984
-0.0354178
-0.285854
-0.273823
0.559677
-0.0571082
0.0998826
-0.0427744
0.105853
0.332
-0.0861603
0.156016
0.0317215
-0.0245171
-0.00720441
0.230382
0.116315
0.174699
-0.641281
0.218548
-0.266818
0.04827
0.101724
-0.255377
0.153653
-0.000426102
-0.00137339
0.467641
-0.10258
-0.365062
0.513112
-0.178927
0.00813279
-0.0214351
0.131528
-0.110093
0.146876
-0.145987
-0.000889012
-0.0273145
0.00074023
-0.100293
-0.00877339
0.109067
0.0129301
0.000258385
-0.0131885
-0.00128546
-0.132285
0.112834
-0.164706
-0.00108528
-0.00215361
-0.174538
0.00561631
0.0619256
-0.0675419
0.00150648
0.0316415
0.204703
-0.00668757
-0.198016
-0.307046
-0.0578298
0.364876
0.00275507
0.0201224
-0.0228774
-0.0396595
-0.247605
0.265839
-0.145209
0.0378169
0.107392
0.155447
-0.00505107
-0.344788
0.117809
0.226979
-0.0277075
0.191351
-0.142986
0.24471
0.155531
0.286108
0.310907
0.136622
0.00517988
-0.0249918
0.0513207
-0.369192
0.138796
-0.129022
-0.00977368
0.109569
0.208902
-0.318471
0.10526
-0.0974085
-0.00785137
-0.252331
0.577507
0.157907
0.00199135
-0.132961
-0.231315
0.168545
0.320134
-0.0817035
-0.238431
-0.296674
-0.0722845
0.0377676
-0.0359315
-0.00183609
-0.0905022
-0.0301709
0.120673
-0.0268723
0.0593971
-0.0325248
0.264458
0.197219
-0.32459
0.266694
0.0578958
0.00777323
-0.271392
-0.0860204
0.0193781
0.115753
-0.135131
-0.125982
0.0354795
-0.234549
-0.110239
0.0279438
0.113023
-0.258402
0.367971
-0.0218603
0.0572555
-0.0353952
-0.291247
0.0436415
-1.59433e-05
0.191947
-0.00267559
-0.00122141
-0.0745125
0.0998601
-0.0253476
-0.0932871
0.400642
-0.307355
-0.224036
0.191701
0.0323348
0.00223123
-0.0144149
0.35467
-0.342334
0.474325
-0.118369
-0.355956
-0.00933143
0.00346936
-0.00369099
0.00283629
0.0306577
-0.197313
-0.0107178
-0.0862064
0.0969243
0.544229
-0.280843
0.229934
-0.0111954
0.238079
-0.211182
-0.353691
-0.0864549
-0.0916662
0.0215386
0.0701276
0.306473
-0.286906
-0.0195674
0.0206463
0.0663168
-0.0869631
0.198481
0.402066
-0.446293
0.0926018
-0.296871
0.195247
0.00709242
-0.107386
0.0119199
0.00240126
-0.0143212
-0.221316
-0.0755013
0.000600545
-0.236669
0.236068
-0.348656
-0.138682
0.197965
-0.185254
0.481819
-0.146022
0.0213043
0.136087
-0.124201
-0.584737
0.259347
0.0174337
0.0471879
0.11612
-0.0942616
0.0371534
0.0148997
-0.0034772
-0.0218949
-0.0076814
0.395071
-0.305653
-0.302132
0.0565047
-0.258248
0.33827
-0.0800214
-0.0100944
-0.178399
0.140829
0.00112243
0.0120624
-0.0131848
-0.00445466
-0.0089319
0.0133866
0.231254
-0.169288
0.00492383
0.00820521
-0.0160207
-0.142563
0.14528
-0.00271751
-0.0979613
0.0872435
-0.113848
0.0913777
-0.00181783
-0.0115763
0.109826
-0.00456581
0.0340648
0.0550996
-0.0891644
0.0128587
-0.00420571
0.134929
0.00347859
-0.138408
0.171631
0.00182329
-0.0261462
0.0774026
-0.398727
-0.013252
0.214675
-0.141515
0.0449003
-0.039284
-0.127364
0.143874
-0.0165105
0.373243
-0.283243
0.122319
-0.000418824
-0.0992073
0.118585
-0.00438102
0.00382145
-0.000776919
-0.00304453
0.21503
-0.00243819
-0.212592
-0.0618739
0.0436933
0.0285652
0.130747
-0.159312
-0.0203087
0.0884646
-0.068156
-0.0507329
-0.0524956
0.103228
0.122028
-0.0892133
-0.159746
0.181798
-0.367897
0.205559
0.0447684
0.306532
-0.431103
0.124572
-0.0454524
0.207634
-0.503414
-0.0266906
0.184939
-0.369653
0.112546
0.257107
0.00478017
0.110666
-0.115446
-0.0157289
0.10861
0.0127038
0.00486788
-0.0175717
0.0789738
0.0297045
-0.108678
-0.032674
-0.0607291
-0.0435054
-0.0115954
0.0740786
0.261023
-0.363648
0.102626
0.00583409
0.00841185
-0.044256
0.0358441
0.324226
-0.391878
0.067652
0.353646
-0.152031
-0.0102423
0.162273
0.00245258
0.0113393
0.338159
-0.593835
0.255676
0.12987
-0.00765233
-0.122218
0.0749642
-0.00496236
-0.0700019
0.120014
-0.152199
0.0321848
0.374004
-0.268448
-0.105556
-0.286916
0.229784
0.0571324
-0.180196
0.322763
-0.142567
-0.0810869
-0.0641217
-0.146778
0.102372
0.232583
0.00492136
-0.0379385
0.0360902
-0.0244662
-0.011624
-0.119674
0.124017
-0.0977236
0.0168545
-0.018935
0.153864
0.0976953
-0.0885835
-0.00911176
-0.213413
0.222261
-0.204052
0.153263
0.0112971
0.0445364
-0.0558336
-0.0659939
0.0956598
-0.0296659
0.00312414
-0.00819946
0.0333089
-0.0432731
-0.590635
-0.415487
0.310099
0.105388
-0.14633
0.30904
0.346645
-0.0710081
-0.275636
0.118084
0.159746
-0.0584744
-0.074951
0.133425
0.371208
-0.076812
-0.294396
0.000619021
0.0995245
-0.100144
-0.502098
0.44355
-0.167025
-0.29898
0.128546
-0.0172505
-0.0055539
0.106761
-0.0594712
0.093536
-0.355268
0.0741821
0.0347161
-0.17472
-0.240767
0.0115649
0.0460742
-0.0576391
0.27385
0.227527
-0.18591
0.136721
0.458196
-0.18536
0.0177843
0.0772495
-0.0950338
-0.000427997
0.0668072
-0.102943
0.277921
-0.073558
-0.0572875
0.358872
-0.144301
-0.214572
0.149409
0.00148048
-0.00249274
0.234112
0.102071
-0.336182
0.195592
-0.27574
-0.138969
0.117534
0.171225
0.0141466
0.00520712
0.282856
0.117601
-0.177903
0.0603017
0.250202
-0.281247
0.119511
-0.501378
0.137929
-0.0165092
-0.0960539
-0.168674
-0.215345
-0.236801
0.452146
-0.163618
-0.0486961
-0.00237037
-0.0025192
-0.202149
-0.0134794
0.215628
-0.066909
0.0860836
-0.0375529
-0.00128879
-0.00296069
0.0148806
-0.221712
0.0195631
-0.448053
0.232708
0.0517131