/*--------------------------------*- C++ -*----------------------------------*\
| =========                 |                                                 |
| \\      /  F ield         | OpenFOAM: The Open Source CFD Toolbox           |
|  \\    /   O peration     | Version:  v2012                                 |
|   \\  /    A nd           | Website:  www.openfoam.com                      |
|    \\/     M anipulation  |                                                 |
\*---------------------------------------------------------------------------*/
FoamFile
{
    version     2.0;
    format      ascii;
    class       volScalarField;
    location    "100";
    object      k;
}
// * * * * * * * * * * * * * * * * * * * * * * * * * * * * * * * * * * * * * //

dimensions      [0 2 -2 0 0 0 0];


internalField   nonuniform List<scalar> 
14033
(
0.000203389
0.00248848
0.000152548
0.000140722
0.000130386
0.000143255
0.00324969
0.000171522
0.000140682
0.0302511
0.000697367
0.000168119
0.000150029
0.000149641
0.000130026
0.000156722
0.000148152
0.0199522
0.000145811
0.000148645
0.000154227
0.000168122
0.000177499
0.000130353
0.000653502
0.00014555
0.000180944
0.000179876
0.000189629
0.000191499
0.000154149
0.000167786
0.000184593
0.000167916
0.000148734
0.000152071
0.0108933
0.0376541
0.000131144
0.000148117
0.0112691
0.000153978
0.000144013
0.000135699
0.00020404
0.000145298
0.0201999
0.000143231
0.00018368
0.00574211
0.000144926
0.000151745
0.0142691
0.0041376
0.000148179
0.000150027
0.000194448
0.0395684
0.000168612
0.000153886
7.87358e-05
0.00638255
0.00017043
0.000142
0.000140266
0.000136721
0.000197024
0.000177738
0.000114826
0.000155006
0.00013942
0.000143387
0.0201313
0.000147855
0.000154513
0.000134871
0.000143832
0.00015557
0.0442613
0.000188688
0.000142958
0.0480833
0.0140686
0.000143611
0.00013653
0.000146418
0.000151886
0.00451145
0.0206118
0.000148505
0.000148333
0.000147955
0.000161738
8.66173e-05
0.000116294
0.000219284
0.000145138
0.000157847
0.0149971
0.00014399
0.00013697
0.00014312
0.000129036
0.00015048
0.0205079
0.000182013
0.0195223
0.000143971
0.000177042
0.00015247
0.0194921
0.000167724
0.00014062
0.00254228
0.000163885
0.000143781
0.000191637
0.00013108
0.000202504
0.000184254
0.000141369
0.000165148
0.00685584
0.000151414
0.000155337
0.000162184
0.00013571
0.0012676
0.0155813
0.000143533
0.0200414
0.000137954
0.000130688
0.0118791
0.0197918
0.000154347
0.000180976
0.000143375
0.000143583
0.000167943
0.000159878
0.000209495
0.000172653
0.000157612
0.000190957
8.97582e-05
0.000141304
0.000168981
0.00998352
0.0019801
0.000273141
0.000159318
0.000143497
0.000170356
0.000143084
0.0158543
0.000151582
0.000137981
0.000152625
0.000130169
0.000158541
0.000181389
0.00925028
0.000138979
0.000157248
0.00014686
0.000158616
0.000160965
0.0310567
0.000144768
0.000156992
0.000181396
0.000168159
0.00571725
0.000134818
0.000144516
0.000184271
0.0118408
0.00016761
0.00015755
0.000189746
0.0103006
0.000153008
0.000146536
0.00015121
0.0202619
0.0162815
0.000143659
0.0329426
0.020072
0.000193766
0.000157569
0.000170484
0.00014371
0.000152792
0.00676365
0.000169893
0.0157872
0.000140587
0.000152912
0.000147627
0.000157048
0.000142628
0.000188955
0.000159178
0.000144177
0.000164682
0.000192652
0.000153922
0.00101311
0.0127864
0.000196198
0.000207706
0.000164103
0.00013101
0.000157928
0.000142596
0.00436585
0.000157683
0.000172563
0.000153622
0.000141344
0.000141033
0.000151294
0.000142772
0.000176493
0.000176335
0.000156697
0.000140469
0.000156458
0.000134703
0.000181168
0.000143785
0.000131117
0.00409981
0.0156175
0.000183536
0.000143854
0.000140209
0.000139864
0.00804318
0.000154792
0.000141991
0.000135646
0.000157152
0.000143455
0.0226067
0.00448725
0.00015032
4.9631e-05
0.000142772
0.0114654
0.000145076
0.000213644
0.000140384
0.00208056
0.000139884
0.000146239
0.000141785
0.00021784
0.000153614
0.015331
0.00673081
0.000172692
0.00015223
0.00456381
0.000143691
0.000187963
0.00471246
0.0166012
0.000147961
0.0141887
0.000134553
0.000164874
0.000191495
0.000140116
0.000134986
0.00018018
0.00015041
0.000125602
0.000183068
0.000139146
0.000194883
0.000155459
0.0325947
0.001901
0.0204429
0.000146361
0.0459759
0.000197192
0.000168399
0.000167405
0.000171852
0.000193621
0.000144258
0.00013944
0.000142649
0.000140284
0.000139323
0.000151283
0.000142047
0.000179726
0.00333965
0.000148842
0.000170441
0.00475735
0.00014476
0.000140488
0.0217263
0.000147478
0.000179356
0.000139685
0.000183394
0.000173129
0.000190827
0.00466853
0.000152876
0.00016381
0.000161039
0.0111559
0.00194632
0.000180193
0.00015707
0.000127181
0.00021812
0.00811242
0.000149018
0.000135045
0.0198305
0.000170324
0.000160986
0.0357913
0.0134611
0.00015699
0.000130914
0.010973
0.000181693
0.000151483
0.0150497
0.000147692
0.013313
0.00017487
0.000139667
0.000147534
0.00027869
0.000344451
0.000162001
0.000142892
0.00888707
0.00372354
0.000142353
0.000145366
0.0206016
0.000171212
0.000146528
0.000131084
0.000144885
0.015543
0.000151574
0.000152384
0.000146843
0.00427477
0.0076098
0.000154918
0.000150899
0.000177772
0.003917
0.000130222
0.000149869
0.000139927
0.000211385
0.000139008
0.000167914
0.00014356
0.000178812
0.0405284
0.000149828
0.000150623
0.000749068
0.00013184
0.000147477
0.000196483
0.000146234
0.000490691
0.00880763
0.00014162
0.0188216
0.000133778
0.000155842
0.000174297
0.000140493
0.0131734
0.000150302
0.000157796
0.00537199
0.0311829
0.000196534
0.0092704
0.000180853
0.000143778
0.0081396
0.000146594
0.000135721
0.0001804
0.000195069
0.000142794
0.000164863
0.000131085
0.00014654
0.000341183
0.0166835
0.000190925
0.000152634
0.0341384
0.000189676
0.000147095
0.00274908
0.000144991
0.000144468
0.00670547
0.000161168
0.00159196
0.000162481
0.000144486
0.000144311
0.000143832
0.000165514
0.00013007
0.000165659
0.000151856
0.000175313
0.000147856
0.000155634
0.000144111
0.00235017
0.00014581
0.000152224
0.000142799
0.000183925
0.00352442
0.000206708
0.000136265
0.00014518
0.000164031
0.000155993
0.00014329
0.000161677
0.00556992
0.00373476
0.00014237
0.0222774
0.000158227
0.00015485
0.00844132
0.000167392
0.000190609
0.0122995
0.000142142
0.000129915
0.000161617
0.000148142
0.0197435
0.00016183
0.000194825
0.000131787
0.000141547
0.000147582
0.000156735
0.000151481
0.000144587
0.000152583
0.000166105
0.000144416
0.000144118
0.00105452
0.0101948
0.000151155
0.00019297
0.000157394
0.000208306
0.000148114
0.0207847
0.000144046
0.00951136
0.0204747
0.000142363
0.0204968
0.000143473
0.000176294
0.00013895
0.000145952
0.024162
0.0221398
0.000167831
0.000144025
0.000149665
0.000181256
0.0290724
0.000153389
0.000226707
0.000144906
0.000173471
0.000190593
0.00374929
0.000179691
0.000135839
0.000141266
0.00107425
0.000142062
0.000177919
0.000133789
0.000140513
0.0212009
0.000153181
0.000151009
0.000153733
0.00016989
0.000134623
0.0127515
0.0170042
0.000137682
0.00196212
0.000137395
0.000146591
0.00015124
0.000149744
0.000155627
0.000143903
0.000145773
0.000146821
0.00015787
0.000151391
0.015245
0.000144021
0.000157799
0.000148257
0.000144054
0.000143117
0.000142508
0.000184967
0.000173814
0.000209223
0.000130982
0.000152978
0.000978845
0.000152129
0.0001914
0.000138617
0.000207784
0.000162555
0.000193097
0.0167928
0.000130641
0.000138722
0.00018356
0.000183859
0.000143676
0.000156088
0.000161873
0.0128489
0.000165341
0.0207288
0.000159378
0.000147976
0.000155874
0.000143959
0.000199176
0.000154197
0.000147868
0.000142124
0.000177942
0.00605513
8.92975e-05
0.000143301
0.0248168
0.000142104
0.032198
0.0186728
0.000150324
0.0132626
0.000155892
0.000151924
0.000140048
0.000135575
0.000135257
0.000187673
0.000150102
0.000182468
0.000134827
0.000152027
0.00195244
0.000150261
0.000156171
0.000178682
0.000148587
0.000142032
0.00013103
0.00119929
0.000161801
0.000155302
0.000142811
0.000141193
0.000162833
0.0155737
0.000153331
0.00771366
0.011639
0.0184572
0.000174993
0.000681439
0.000187147
0.000184007
0.000149756
0.000144475
0.0146551
0.000135656
0.000182255
0.000145187
0.0134279
0.0103274
0.0115956
0.000141666
0.000150976
0.000153647
0.000168649
0.000160373
0.000321329
0.000173017
0.000174036
0.00016402
0.000133285
9.24281e-05
0.000134124
0.000188459
0.00015135
0.0120537
0.000131072
0.000151578
0.000181673
0.000135106
0.000177427
0.000144128
8.34166e-05
0.000143237
0.000182132
0.0179823
0.000175552
0.000145238
0.000139118
0.000164744
0.000155054
0.000171322
0.000147663
0.000151806
0.000165065
0.000122316
0.00014684
0.000142005
0.0149163
0.000137832
0.00013096
0.000143076
0.00720426
0.00898768
0.00014785
0.000153625
0.000366359
0.000150266
0.000153128
0.00013848
0.00021327
0.0238377
0.000206912
0.000151129
0.00014612
0.000142841
0.000141886
0.000210168
0.00017476
0.000145102
0.000166856
0.00021768
0.000130256
0.00109258
0.000130363
0.000139712
0.000145197
0.000659025
0.000181556
0.000138389
0.0225279
0.000174295
0.00966363
0.000164089
0.000169851
0.00885533
0.0110146
0.000192568
0.00013737
0.000134777
0.0186419
0.000171516
0.000174327
0.00014826
0.000151726
0.000147003
0.000142922
0.0104417
0.000160363
0.000163887
0.000195618
0.000142732
0.000146896
0.000137053
0.00016633
0.000161262
0.000156423
0.000150297
0.000140766
0.000154348
2.32481e-05
0.000186425
0.000163682
0.000137034
0.00984772
0.000156937
0.000187782
0.000161364
0.000164015
0.000144402
0.000142651
0.000188909
6.8087e-06
0.000166982
0.000148156
0.000164052
0.0230259
0.00014178
0.0139925
0.000170742
0.0153996
0.000152024
5.07762e-05
0.000663759
0.011838
0.000147564
0.000203774
0.000133758
0.0134782
3.8006e-05
0.000172437
0.000137861
0.0001417
0.000148331
0.000172368
0.00985089
0.000142548
0.000182189
0.0221345
0.0137821
0.000136464
0.000189173
0.000205161
0.000157718
0.000138481
0.000143898
0.0187166
0.000143306
0.000148296
0.000173088
0.000142093
0.000143215
0.000157491
0.000196404
0.000167162
0.000159131
0.000189344
0.00019712
0.000552735
0.000148045
0.00015176
0.000147262
0.0101897
0.000174025
0.000141981
0.000135372
0.0142746
0.000137733
0.000180715
0.000164184
0.01494
0.000186957
8.34605e-05
0.000185646
0.0145272
0.000152516
0.000183333
0.0312908
0.000186734
0.00018859
0.000175016
0.0113421
0.000152999
0.000192896
0.000184226
0.00803821
0.000141882
0.0151106
0.000160815
0.000148112
0.000150068
0.000148258
0.000144853
0.000171359
0.000150959
0.000165648
0.000146863
0.000175237
0.00359468
0.00017483
0.000474465
0.000154126
0.000137874
0.000144383
0.00331815
0.000166555
0.000159007
0.000137286
0.000151764
0.000187047
0.00013475
0.000175773
0.026272
0.000142779
0.00015951
0.000181707
0.00576678
0.000188692
0.011295
0.00013098
0.000153675
0.000130913
0.000145337
0.0140196
0.000171395
0.000159632
0.000147843
0.000140035
0.000146065
0.000134919
0.000150038
0.000141089
0.000150741
0.00633399
0.000130981
0.000152611
0.00014697
0.000150662
0.000134293
0.000176139
0.000146522
0.00974434
0.000143955
0.000177703
0.000147938
0.00248853
0.000146823
0.000180152
0.000150065
0.0145346
0.000148926
0.00013519
0.000143749
0.00908154
0.000148006
0.000159976
0.000187118
0.0165126
0.000380644
0.000189598
0.00014182
0.000163399
0.0183048
0.000168545
0.000156729
0.00935382
0.000143673
0.000130954
0.000134684
0.000148038
0.000145423
0.000154916
0.000143943
0.000149215
0.000165501
0.000143882
0.000154278
0.000144236
0.0167464
0.00013171
0.000146259
0.0216787
0.0126232
0.000171346
0.000144598
0.000130488
0.0323214
0.0193469
0.000153623
0.000143812
0.000146317
0.00011917
0.0038718
0.000156163
0.000157411
0.000167252
4.73134e-05
0.000144665
0.0106678
0.000149079
0.000133677
0.000201294
0.000600051
0.000147669
0.00574875
0.000189204
0.000173668
0.000141751
0.000365689
0.000172041
0.000145131
0.000146814
0.0197363
0.000146084
0.000187519
0.000143176
0.000152998
0.000133704
0.000131959
0.000143508
0.000183177
0.000179506
0.0130821
0.000152689
0.000156187
0.000183327
0.000140599
0.000158853
0.000183406
0.000157543
0.000208606
0.00016552
0.00013738
0.000147654
0.00013196
0.000279854
0.000147257
6.34421e-05
0.0139948
0.00014062
0.0114047
0.000133724
0.000171394
0.000172338
0.000148884
0.0189099
0.0105019
0.000147669
0.000140009
0.000175644
0.000138818
0.000146651
0.000138512
0.000133746
0.00014217
0.02949
0.0160898
0.000447148
0.028096
0.000300618
0.000143829
0.00015003
0.000136454
0.000142034
0.000147562
0.000144436
0.000171479
0.000143976
0.000154216
0.00103908
0.000156354
0.000147898
0.00014661
0.000147051
0.000263422
0.00014516
0.000173592
0.0113005
0.0001473
0.000138573
0.000137322
0.000172818
0.000144045
0.000132839
0.000164588
0.00247483
0.000101802
0.000141471
0.000150144
0.00522371
0.00018887
0.000189118
0.000171851
0.000145226
0.000141076
0.000147482
0.000132788
0.00015398
0.0172904
0.000137261
0.000154909
0.000181885
0.000179767
0.0188774
0.0314098
0.000149397
0.000195327
0.000162366
0.000145582
0.000210298
0.000189656
0.000146441
0.00018452
0.000142207
0.00013788
0.000522091
0.0020346
0.000134531
0.000159429
0.000143487
0.000180129
0.000140469
0.000154778
0.000174375
0.000155026
0.00374935
0.000154687
0.00017587
0.000161638
0.00014165
0.000135141
0.000149468
0.0129772
0.000198189
0.000157671
0.000182926
0.000187709
0.000188603
0.000161142
0.000192891
0.000388883
0.000141402
0.000143364
0.000158737
0.000147031
0.000137113
0.000131697
0.000146147
0.0117855
0.0211295
0.0106946
0.000164413
0.00013881
0.0307074
0.000168244
0.000155258
0.000158178
0.000144219
0.000159402
0.000166402
0.000172521
0.000170799
0.00017331
0.0154232
0.000160728
0.000153148
0.000149225
0.000147114
0.000180727
0.000152457
0.000153515
0.000141459
0.000162887
0.000178795
0.000149676
0.000632188
0.000134146
0.000141476
0.0183075
0.000156421
0.000144711
0.000134887
0.0128409
0.000145749
0.000182712
0.0148992
0.000155822
0.000152097
0.000154238
0.000178772
0.000123931
0.000208042
0.000176886
0.000182286
0.000156237
0.000191659
0.000179209
0.000105673
0.000166262
0.000155621
0.000144726
0.000245694
0.00196909
0.000167492
0.000141871
0.000130999
0.000130161
0.00014727
0.000216829
0.00312951
0.000919592
0.000133936
0.0163651
0.000136904
0.000154789
0.0163826
0.000160169
0.000134707
0.000143659
0.0159402
0.000140666
0.000155823
0.000323438
0.000133981
0.00018146
0.00133119
0.00865184
0.000162687
0.000155928
0.000138039
0.000161418
0.000145696
0.000131352
0.0119068
0.000137808
0.000135521
0.00110296
0.000149605
0.0081024
0.000131277
0.00014094
0.000133932
0.000148325
0.000142357
0.00447708
0.000131083
0.000133259
0.000145506
0.0324493
0.000155974
0.000135037
0.000144507
0.000137966
0.000206256
0.000169898
0.000136768
0.000131233
0.0158609
0.0136249
0.000184899
0.000165465
0.000159672
0.000165969
0.000138899
0.000146407
0.000133205
0.00828858
0.000137567
0.000173132
0.00276007
0.000162133
0.000138666
0.000159235
0.000172271
0.000138546
0.000140751
0.000152713
0.0162933
7.51491e-05
0.000143993
0.0173194
0.000158293
0.00018951
0.00014908
0.0210683
0.000132016
0.0133023
0.00175115
0.000137608
0.000153088
0.00511939
0.00013886
0.000211233
0.000145576
0.000155218
0.0275075
0.000136613
0.00013945
0.000141061
0.000174225
0.0140428
1.98474e-05
0.0203259
0.000154588
0.000158883
0.000155813
0.00879771
0.0036033
2.02959e-05
0.0326837
0.000152417
0.0200456
0.000146876
0.000147267
0.000135333
0.00211971
0.000154194
0.000152087
0.000250712
0.0290072
0.000157702
0.000138707
0.000168484
0.000151636
0.000180215
0.000149355
0.000131225
0.000133513
0.000137781
0.000157258
0.000138886
0.0151623
0.000136506
0.000156459
0.000220876
0.00014446
0.000160502
0.000141665
0.000158485
0.0131585
0.000133548
0.00853286
0.0319042
0.000148801
0.000166102
0.00728638
0.000148898
0.0123741
0.00594802
4.24865e-05
0.000189645
0.00016556
0.000168992
0.0302686
0.000149084
0.000144544
0.000171425
0.000138521
0.0091369
0.000193653
0.00016
0.000143788
0.000150373
0.000133489
0.000140709
0.000170507
0.0310497
0.000137298
0.000166963
0.00383423
0.000137571
0.000170933
0.000185111
0.000151803
0.000672349
0.000133791
0.00019625
0.000146538
0.000192882
0.0138635
0.011959
0.000183934
0.000149322
0.00045673
0.000138477
0.00155975
0.000192696
0.000170955
0.0173849
0.000138079
0.0206498
0.000163466
0.000142215
0.000189842
0.000251956
0.000171056
0.000191448
0.000156887
0.000137505
0.000130826
0.00011686
0.000140508
0.00015971
0.00107376
0.000183086
0.0103996
0.000183098
7.48674e-05
0.000167951
0.00014456
0.000200429
0.000134712
0.000142311
0.000160385
0.000183209
0.00013577
0.000150711
0.0104907
0.000136366
0.0102061
0.0185896
0.000149353
0.00979873
0.000158625
0.000104718
0.000136221
0.00013104
0.000142873
0.0144247
0.000143139
0.000158889
0.000189864
0.0015225
0.000159082
0.0119422
0.00142464
0.000178889
0.000174856
0.000162704
0.000163311
0.000292451
0.000160448
0.00014372
0.0172823
0.000151658
6.9114e-05
0.0315896
0.00961726
0.000166545
0.000174288
0.000143831
0.000159976
0.000134941
0.000208456
0.000145688
0.000134305
0.00856794
0.000155206
0.000155106
0.000143095
0.000142206
0.00015502
0.00106462
0.0138259
0.0105782
0.00113154
0.000160527
0.000151672
0.000141464
0.000136968
0.000188982
0.000134308
0.00015264
0.000138876
0.000141391
0.00013775
0.00016392
0.000147355
0.000147085
0.000132899
0.000174749
0.000186215
0.0140456
0.000162988
0.00711778
0.000183681
0.000192073
0.00017296
0.0140306
0.000131598
0.000101673
0.000160183
0.000192768
0.000134781
0.000153657
0.000160137
0.000134507
0.000145129
0.000142025
0.0240698
7.75233e-05
0.013843
0.0116095
0.000181105
0.000158043
0.0110121
0.000143123
0.000189296
0.000174968
0.00549468
0.000142401
0.000155884
0.000147069
0.000185699
0.000140892
0.000186853
0.000135013
0.000192047
0.000134827
0.000199481
0.0168122
0.000149264
0.000492425
0.0130618
0.000144852
0.0293981
0.000172645
0.000143514
0.000148036
0.000160643
0.000130423
0.016281
0.0145567
0.000172465
7.65681e-05
0.000181977
0.000145024
8.70654e-05
0.000143727
0.000225849
0.000143432
0.0122141
0.000152111
0.000157918
0.000142816
0.000154797
0.000174035
0.0110345
0.0146265
0.000147792
0.00013753
0.0162796
0.000217652
0.000143664
0.0199448
0.000157168
0.00883835
0.000148485
0.000174422
0.000304544
0.000133509
0.000143848
0.000158139
0.000147544
0.0178662
0.000103445
0.000148741
0.0124993
0.000134113
0.000145174
4.27528e-06
0.000143314
0.000152722
0.000159698
0.0149726
0.000302073
0.000157749
0.000145757
0.0101352
0.0209405
0.000145005
0.000176555
0.000138691
0.000135425
0.000170745
0.000149453
0.00015292
0.000671667
0.000152042
0.000182882
0.000144253
0.000157883
0.000185002
0.000159305
0.000164807
0.023604
8.9678e-05
0.000183993
0.000141567
0.000190122
0.000186214
0.000143965
0.000146972
0.000135181
0.000144602
0.000158552
0.000147427
0.00259332
0.000135059
0.000148219
0.000139729
0.0131995
0.000133311
0.000167219
0.000172517
0.000133385
0.000137918
0.000185677
0.000159628
0.000190778
0.000165502
0.000173775
0.00014681
0.00319302
0.00216646
0.000133677
0.0164549
0.000151906
0.000147702
0.0185515
0.000144371
0.00588131
0.000190643
0.000148737
0.000187166
0.000168455
0.000146735
0.000136956
0.000132115
0.000136271
0.000148184
0.000147279
0.000187135
0.000146209
0.0202759
0.000142731
0.00445038
0.000185104
0.000143148
0.000147183
0.000190027
0.000180893
0.0162954
0.0223573
0.000158167
0.0179987
0.000140798
0.0227175
0.00780979
0.000171109
0.000197701
0.000143516
0.000233913
0.000146258
0.0139718
0.000153712
0.000145808
0.000209857
0.00014217
0.000136279
0.0189904
0.000134949
0.000135156
0.000140234
0.000145229
0.00018239
0.000164567
0.000151803
0.00358793
0.000148309
0.0195021
5.712e-05
0.00015591
0.000186278
0.000146984
0.000189581
0.00116807
0.000139631
0.00014863
0.0161201
0.019445
0.0197124
0.0300725
0.000127997
0.000132931
0.00014189
0.000183497
0.000155132
0.000188302
0.000142223
0.000144592
0.00013324
0.019416
0.000151957
0.0156269
0.000155491
0.00588978
0.000141342
0.000169405
0.000146776
0.000146739
0.000130866
0.0185413
0.000148309
0.000144284
0.0121854
0.000150364
0.000151507
0.000134701
0.000157015
7.96482e-05
0.000302322
0.000144346
0.0144468
0.000157908
0.000142899
0.000143358
0.000149801
0.0433427
0.00019319
0.000141842
0.000219913
0.00964924
0.000152404
0.0132823
0.000208441
0.0110763
0.000170156
0.000142425
0.000147921
0.000133628
0.000141352
0.000941388
0.000149212
0.000144795
0.00017929
0.000163312
0.000281905
0.018505
0.000154397
0.00395751
4.8116e-05
0.000145088
0.0344468
0.000138405
0.00962058
0.000154945
0.000170742
0.000136699
0.0158016
0.00013838
0.000154876
0.000150919
0.000206699
0.00016918
0.000161002
0.0019726
0.00015002
0.000186764
0.00348727
0.000174979
0.000134971
0.000171801
0.000190822
0.00332797
0.000173654
0.000151616
0.00191359
0.000179444
0.000170201
0.000161356
0.000187377
0.000179228
0.000172191
0.000147796
0.000185305
0.000188838
0.000152234
0.000183986
0.000147663
0.000147512
0.00435864
0.000140801
0.00016544
0.0102184
0.00408179
0.000146347
0.0117284
0.0106262
0.00714736
0.000138204
0.000144745
0.000167757
0.000117671
0.000588697
0.000142438
0.0193732
0.000166957
0.000159162
0.00015351
0.000143762
0.00776363
0.000185615
0.000163788
0.00358292
0.000170952
0.000156041
0.0198826
0.000144039
0.000167108
0.0206705
0.000145568
0.000212449
0.00014618
0.000150841
0.000137079
0.000138628
0.000258392
0.000142043
0.00429799
0.000177622
0.0100871
0.000136744
0.00016948
0.0208946
0.000124707
0.000158025
0.000135355
0.000146896
0.000153343
0.000144082
0.000153974
7.97836e-05
0.0035476
0.0103158
0.000139837
0.000143575
0.000273418
0.000140693
0.000139953
0.000147554
0.000147735
0.00014401
0.00013546
0.000144679
0.000148696
0.0209507
0.000138216
0.000190482
0.000190877
0.0145166
0.00652146
0.000191872
0.00015129
0.000160877
0.000143698
0.0216135
0.000140692
0.0117189
0.00045242
0.000150256
0.000144904
0.000145415
0.000133472
0.000145099
0.00841194
0.0128559
0.000138489
0.00158896
0.000155485
0.0208323
0.000136374
0.0233505
0.000206418
0.000166209
0.000135282
0.000147772
0.000211233
0.00015646
0.000154283
0.000135032
0.000166317
0.000584347
0.00014878
0.0183636
0.000660917
0.00013479
0.000153626
0.000147331
0.000226554
0.000187632
0.000144651
0.00019935
0.000169249
0.000157351
0.00018596
0.000150164
0.000168768
0.000143458
0.000143318
0.00149497
0.000144181
0.0102536
0.000169259
0.000171082
0.029001
2.67473e-05
0.000147691
0.000156614
0.000153898
0.000144885
0.00010562
0.000134737
0.00360043
0.000188957
7.50191e-05
0.0001454
0.000133203
0.00346612
0.00913117
0.0254749
0.000143818
0.0195097
0.000249756
0.000182361
0.000142006
0.000187352
0.00705086
0.000438345
0.000166622
0.000144119
0.000178167
0.000132349
9.89269e-05
0.000117298
6.15034e-05
0.000212978
0.000141671
7.44489e-05
0.000156302
0.000141468
0.000146835
0.000143675
0.000151264
0.000169178
0.018741
0.000144392
0.000167197
0.000168357
0.000136338
0.000163286
0.000461231
0.00015444
0.000142308
0.00014896
6.82493e-05
0.000154763
0.000133038
0.000145351
0.000191083
0.000142747
0.000147425
0.000144598
0.000134112
0.000183199
0.000153665
0.000149221
0.000187407
0.000153246
0.000139562
0.000144346
0.017569
0.000589601
0.000139938
0.00948255
0.000167008
0.00322967
0.000170335
0.000160858
0.000147762
0.000147129
0.000148445
0.000152051
0.00775678
0.00252003
0.000171439
0.000162603
0.00475619
0.000151685
0.000158472
0.000144798
0.000160937
0.00863989
2.02426e-05
0.000184796
0.000151341
0.000149828
0.000179504
0.000143749
0.00345373
0.000151302
0.000110043
0.00648907
0.00776706
0.000140582
0.000145503
0.000151226
0.000134335
5.21826e-05
0.00013304
0.000139465
0.00424032
0.000157214
0.000156779
0.000133376
0.000131527
0.00017009
0.0185407
0.0139677
0.000197668
0.0189669
0.000197605
0.000154519
0.0140196
0.000130539
0.000173671
0.00418322
0.00693538
0.000145578
0.0163828
0.020006
0.000188879
0.0063362
0.00292771
0.000147071
0.00200001
0.000140992
0.000200661
0.019327
0.0178807
0.000149003
0.000132343
0.0152059
0.0335212
0.000150609
0.000152092
0.000159272
0.000153047
0.000148905
0.00350552
0.000204416
0.000179713
0.000163156
0.00521479
0.000152325
0.00995402
0.000176518
0.000197393
0.000170479
0.000185972
0.00015785
0.00978288
0.00014668
0.000152952
0.000154662
0.000223118
0.000190407
0.000138526
0.000147098
0.000145572
0.000165752
0.00015422
0.000160537
0.000166296
0.000158735
0.00370892
0.00173518
0.0193828
0.000249708
0.000157292
0.00014701
0.000161054
0.000195788
0.00014438
0.000185428
0.000135986
0.000151584
0.000151326
0.000136835
0.017964
0.000144196
0.000141901
0.000132912
0.000147478
0.000147927
0.000140634
0.000163047
0.000144768
0.000154718
0.000152676
0.000143721
0.00313073
0.011117
0.00014229
0.00500842
0.000887407
0.000145087
0.000179902
0.000209443
0.000141929
0.000132768
0.00014669
0.0034442
0.00014523
0.00879851
0.00024969
0.000200717
0.00155769
0.000138693
0.000197931
0.000142463
0.000140319
0.000149923
0.000159793
0.000145861
0.00839429
0.00015286
0.000168621
0.012826
0.000142059
0.000141035
0.000148743
0.00382168
0.000143836
0.000168343
0.000181371
0.000195452
0.000152188
0.000144874
0.0182735
0.000151045
0.000147208
0.000188077
0.00103685
0.00016049
0.000171425
0.000144633
0.000155138
0.000184372
0.000183671
0.00013034
0.000171389
0.00317376
0.000166331
0.000150605
0.000133553
0.00012444
0.000146873
8.08406e-05
0.00920281
0.000145413
0.0162506
0.000171036
0.000167328
0.0194007
0.000140937
0.00116896
0.000168541
0.00186377
0.000143209
0.0326944
0.000144293
0.000151496
0.0135179
0.000143695
0.0155404
0.000150539
0.000178976
0.0160991
0.000144029
0.000166423
0.000212201
0.000150638
0.000135735
0.000147028
0.0274375
0.0025222
0.00964356
0.000141462
0.000191034
0.000156501
0.000144289
0.000142878
0.00014539
0.00014053
0.000160243
0.00693543
0.000146448
0.000144343
0.000946445
0.020801
0.000136095
0.000166279
0.000162627
0.000186875
0.0125866
0.000143524
0.0153785
0.0133386
0.000151648
0.000148511
0.000138823
0.000150406
0.000236971
0.0148717
0.00014998
0.000180351
0.000172678
0.00017626
0.000143986
0.000144153
0.0001436
0.00018765
5.63464e-05
0.0266831
0.00014117
0.000133
0.0129347
0.000132474
0.000137468
0.00014846
0.000155587
0.0121634
0.000143641
0.00475645
9.59839e-05
0.000146
0.000220237
0.000147097
0.000165445
0.000155282
0.000159977
0.00016192
0.000182701
0.0191891
0.0111291
0.000152595
0.00017376
0.0171314
0.00282629
0.000159115
0.0001664
0.0289338
0.000173094
0.0188026
0.0001457
0.000143536
0.000143495
0.000146337
0.0144691
0.0146605
0.000143852
0.00425434
0.00634268
0.00152499
0.000102363
0.000143255
0.000132822
0.000158586
0.000132108
0.000140885
0.000153738
0.000144548
0.00566724
0.0133253
0.00014839
0.000178935
0.000163789
0.00538503
0.000172633
0.0106651
0.000145708
0.000154027
0.000206204
0.000320485
0.000192844
0.000168582
0.000132172
0.000218535
0.000566246
0.000175182
0.0186011
0.000143
0.00418958
0.000166674
0.000135167
0.000144686
0.000144026
0.000143403
0.00436417
0.00013305
0.000146286
0.010746
0.0201368
0.000151414
0.000154164
0.00015085
0.000617509
0.000152425
0.000166296
0.00398254
0.000142534
0.00780363
0.000182545
0.0113163
0.00363012
0.0292734
0.000142928
0.000189093
0.000146228
0.0187721
0.0001691
0.000187606
0.0163962
0.000165851
0.000176511
0.0148681
0.0189655
0.000178887
0.0192406
0.000162312
0.000147741
0.000193208
0.000176133
0.000168755
0.000167519
0.000151091
0.000144917
0.000167791
0.000153172
0.0170445
0.000156635
0.000137722
0.000166725
0.0001347
0.000150842
0.000153772
0.000153549
0.000163314
0.000149546
0.000242549
0.000134921
0.000179175
0.000149271
0.00014413
0.000164722
0.000170477
0.000204644
0.000178744
0.0145109
0.000139395
0.0167276
0.000126782
0.000160015
0.000152258
0.000185563
0.000176719
0.000144886
0.0184377
0.000144912
0.000176879
0.0179861
0.00014444
0.000219479
0.00352509
0.000144618
9.89391e-05
0.000157515
0.000146177
0.000183019
0.000159356
0.000191465
0.000143749
0.000167298
0.0482903
0.000149229
0.017123
0.00017416
0.0142772
0.000181924
0.000199371
0.00018032
0.000149051
0.000134502
0.000141928
0.000148335
0.000143
0.000170607
0.00014147
0.0262486
0.000159623
0.00015003
0.00013826
0.000146761
0.00016685
0.000139774
0.000204477
0.000188235
0.000154102
0.000174624
0.000103188
0.000156683
0.000143473
0.000176514
0.0170501
0.0286421
0.000203879
0.000138493
0.000143281
0.000144046
0.0178244
0.000147652
0.016244
0.000137383
0.000173056
0.000156885
0.000146722
0.000139195
0.000147805
0.000181565
0.000155014
0.000140022
0.000142437
0.000181867
6.96651e-05
0.000178853
0.000141837
0.0184046
0.000183755
0.000182707
0.000133207
0.000180248
0.010185
0.00198289
0.000142048
0.0209441
0.000183803
0.000183837
0.000841506
0.000144427
0.000176572
0.000147353
0.000152927
0.000187481
0.000146078
0.000151802
0.000141052
0.000187881
0.0004802
0.000181571
0.0131265
0.000142832
0.000143747
0.000143832
0.000136158
0.00584615
0.000147133
0.016178
0.000136142
0.00020638
0.000141803
0.000150423
0.000143326
0.000156264
0.0170816
0.000173905
0.0202121
0.0132693
0.000147654
0.000164256
0.0321421
0.0216536
0.00207731
0.000187088
0.000147276
0.0105794
0.00484757
0.000180261
0.000160303
0.00241582
8.0378e-05
0.0235162
0.000136159
0.000147918
0.000180346
0.00264922
0.000161104
0.000147054
0.0170773
0.000174293
0.0191873
0.000163223
0.000182045
0.000248903
0.000186063
0.000144837
0.000191424
0.0181165
0.0169486
0.000144505
0.000190111
0.000171673
0.000158856
0.000148372
0.000149496
0.000166006
0.000175553
0.000178606
0.000176944
0.000180339
0.000182032
0.00018376
0.000153644
0.000181864
0.000179747
0.000173198
0.0193917
0.000161983
0.000162449
0.000139676
0.000155513
0.000144497
0.000164966
0.00255037
0.0408167
0.000180255
0.00169419
0.017996
0.000178172
0.000177378
0.000219397
0.00214076
0.000181878
0.0171006
0.00014231
0.000148223
0.000160741
0.000162613
0.0039862
0.000145267
0.000140158
0.0001677
0.00014438
0.000181254
0.000142438
0.00245196
0.0175471
0.0138125
0.000153839
0.000168829
0.000166588
0.000151118
0.000145252
0.000143909
0.000171175
0.000147492
0.0150032
0.0149174
0.000144265
0.000187256
0.00015149
0.000147646
0.000185971
0.000155802
0.0169771
0.000148517
0.000177556
0.000148774
0.000177995
0.000138116
0.000178706
0.0001538
0.0152093
0.00750958
0.00013975
0.000186317
0.017285
0.000179176
0.000183968
0.0178683
0.0195942
0.0166089
0.000176633
0.000143591
0.0192012
0.000175513
0.000170047