/*--------------------------------*- C++ -*----------------------------------*\
| =========                 |                                                 |
| \\      /  F ield         | OpenFOAM: The Open Source CFD Toolbox           |
|  \\    /   O peration     | Version:  v2012                                 |
|   \\  /    A nd           | Website:  www.openfoam.com                      |
|    \\/     M anipulation  |                                                 |
\*---------------------------------------------------------------------------*/
FoamFile
{
    version     2.0;
    format      ascii;
    class       volScalarField;
    location    "100";
    object      k_0;
}
// * * * * * * * * * * * * * * * * * * * * * * * * * * * * * * * * * * * * * //

dimensions      [0 2 -2 0 0 0 0];


internalField   nonuniform List<scalar> 
14033
(
0.000203603
0.00241589
0.000152549
0.000140722
0.000130387
0.000143255
0.00322878
0.000171486
0.000140682
0.0304954
0.000692186
0.000168105
0.00015003
0.000149641
0.000130027
0.000156726
0.000148152
0.0201256
0.00014581
0.000148644
0.000154229
0.000168114
0.00017748
0.000130354
0.000645784
0.00014555
0.00018093
0.000179851
0.000189695
0.000191501
0.00015415
0.000167824
0.000184536
0.000167905
0.000147603
0.000152055
0.0108855
0.0378397
0.000131144
0.000148117
0.0113012
0.00015398
0.000144085
0.000135699
0.000200769
0.000145384
0.0201988
0.000143231
0.00018371
0.00572494
0.000144925
0.000151743
0.0142549
0.00412267
0.000148179
0.000150029
0.000193401
0.0398853
0.000168599
0.000153886
7.88946e-05
0.00637701
0.000170415
0.000141992
0.000140264
0.000136721
0.000197239
0.000177733
0.000115094
0.000155006
0.00013942
0.000143387
0.0201299
0.000147857
0.000154515
0.000134871
0.000143832
0.000155573
0.0441934
0.000188724
0.00014276
0.0480515
0.0140593
0.00014361
0.000136529
0.000146418
0.000151882
0.00449963
0.0206164
0.000148507
0.000148333
0.000147887
0.000161752
8.38731e-05
0.000116629
0.000220359
0.000145137
0.00015785
0.0149909
0.00014399
0.00013697
0.00014312
0.000129052
0.000150453
0.0205079
0.000181979
0.0195284
0.00014397
0.000177051
0.00015248
0.0194887
0.000167728
0.000140618
0.00248609
0.000163883
0.000143781
0.000191617
0.000131081
0.000204521
0.000184194
0.000141369
0.000165149
0.00685792
0.000151408
0.000155248
0.000162221
0.00013571
0.00123318
0.015584
0.000143532
0.0200397
0.000137952
0.000130689
0.0118647
0.0197892
0.000154347
0.000180979
0.00014337
0.000143583
0.000167833
0.000159874
0.000201026
0.000172653
0.000157608
0.000190999
8.45189e-05
0.000141304
0.000168963
0.00997681
0.00203632
0.000272313
0.000159313
0.000143497
0.000170551
0.000143084
0.0158523
0.000151636
0.000137981
0.000152619
0.00013017
0.000158535
0.000181369
0.00923556
0.000138979
0.000157247
0.00014686
0.000158607
0.000160959
0.0310398
0.000144768
0.000156995
0.000181408
0.000168143
0.00571775
0.000134818
0.000144515
0.00018427
0.0118417
0.0001676
0.000157548
0.000189686
0.0103017
0.000153009
0.000146426
0.000151218
0.0202643
0.0162748
0.000143659
0.0329064
0.0200719
0.00019372
0.000157562
0.000170709
0.00014371
0.000152644
0.00679933
0.000169877
0.0157897
0.000140587
0.000152905
0.000147629
0.000157046
0.000142629
0.000188875
0.000159171
0.000144178
0.000164681
0.000191799
0.000153923
0.0010613
0.0127887
0.000195565
0.000206094
0.000164346
0.00013101
0.000157918
0.000142596
0.00438305
0.000157672
0.000172533
0.000153622
0.000141363
0.000141024
0.000151289
0.000142772
0.000177934
0.000176318
0.000156695
0.000140468
0.000156392
0.000134702
0.000181149
0.000143785
0.000131118
0.00411725
0.0156101
0.000183551
0.000143881
0.000140209
0.000139863
0.00804577
0.00015479
0.000141991
0.000135646
0.00015715
0.00014347
0.0226224
0.0044872
0.000150321
5.03424e-05
0.000142772
0.0114677
0.000145001
0.000214519
0.000140384
0.00198427
0.000139884
0.000146238
0.000141749
0.000218024
0.000153617
0.0154147
0.00665813
0.000172658
0.000152229
0.00457616
0.00014369
0.000187968
0.00472168
0.0166037
0.000147962
0.0141779
0.000134553
0.000164867
0.00019359
0.000140116
0.000134987
0.00018016
0.000150413
0.00012523
0.000183038
0.000139146
0.000195475
0.000155457
0.032526
0.00193691
0.0204427
0.000146305
0.0461553
0.000197575
0.000168327
0.000167403
0.00017185
0.000193436
0.000144258
0.000139519
0.000142634
0.000140284
0.000139264
0.000151297
0.000142059
0.000181598
0.00323356
0.000148842
0.000170424
0.00476025
0.00014476
0.000140508
0.0217436
0.000147478
0.00017936
0.000139684
0.000183395
0.000173121
0.000190924
0.00466581
0.000152876
0.000163822
0.000161041
0.011158
0.00191764
0.000180164
0.000157079
0.000124088
0.000218151
0.00809949
0.000149018
0.000135529
0.019831
0.000170328
0.000160988
0.035685
0.0134464
0.000156992
0.000130914
0.0109573
0.000181687
0.000151495
0.0150386
0.000147692
0.0133155
0.000174862
0.000139667
0.000147535
0.0003007
0.000340382
0.000161997
0.000142892
0.00891821
0.00369932
0.000142346
0.000145365
0.0206054
0.00017121
0.000146529
0.000131083
0.000144885
0.0155402
0.0001528
0.000152356
0.000146844
0.00426778
0.00761196
0.000154923
0.000150899
0.000177772
0.00390418
0.000130243
0.000149869
0.000139938
0.000212199
0.000139011
0.000167917
0.00014356
0.00017882
0.0404115
0.000149827
0.000150621
0.000752517
0.00013184
0.000147638
0.000196372
0.000146234
0.000510034
0.00879244
0.00014162
0.018817
0.000133781
0.000155844
0.000174318
0.000140494
0.0131759
0.000150301
0.000157782
0.00529289
0.03108
0.000196324
0.00926999
0.000180848
0.000143778
0.00799848
0.000146593
0.000135721
0.000181616
0.000194849
0.000142793
0.000164879
0.000131085
0.00014654
0.000348311
0.0166807
0.000190841
0.000152641
0.0344786
0.000191262
0.000147095
0.0027406
0.000144991
0.000144467
0.00670823
0.000161162
0.00153303
0.000162492
0.000144486
0.000144311
0.000143832
0.000165533
0.00013007
0.000165647
0.000151849
0.000175487
0.000147856
0.000155631
0.000144111
0.00233857
0.00014581
0.000152226
0.000142799
0.0001839
0.00354267
0.000206881
0.000136266
0.00014518
0.000164034
0.000155994
0.000143289
0.000161679
0.00555478
0.00375409
0.000142369
0.0222953
0.000158453
0.000154847
0.00832921
0.000167394
0.000190903
0.0121898
0.000142142
0.000129916
0.000161617
0.000148142
0.0197408
0.000165138
0.000195149
0.000131788
0.000141547
0.000148047
0.000156734
0.000151378
0.000145417
0.000152586
0.00016609
0.000144417
0.000144118
0.00104981
0.0101942
0.000151161
0.000193424
0.000157381
0.000143731
0.00014813
0.0208003
0.000144045
0.00954822
0.0204761
0.000142358
0.0204719
0.000143473
0.000176292
0.00013895
0.000145952
0.024119
0.0220222
0.000167828
0.000144026
0.000149665
0.000181232
0.0293547
0.00015339
0.000226536
0.000144906
0.00017352
0.000190803
0.00374297
0.000179679
0.000135838
0.000141266
0.00108118
0.000142062
0.000177893
0.00013379
0.000140512
0.0212178
0.000153152
0.000151012
0.000153735
0.000169873
0.000134623
0.0129759
0.0170437
0.00013768
0.001917
0.000137397
0.000146591
0.00015121
0.000149745
0.00015563
0.000143902
0.000145772
0.00014682
0.000157866
0.00015139
0.0152428
0.00014402
0.000157803
0.000148255
0.000144056
0.000143117
0.000142508
0.000184929
0.000173785
0.000210232
0.000130981
0.000152962
0.000952458
0.000152128
0.000181199
0.00013862
0.000208336
0.00016256
0.000193154
0.0167957
0.000130642
0.00013872
0.000183757
0.000183867
0.000143676
0.000156084
0.000161882
0.0128373
0.000165333
0.0207317
0.000159377
0.000147974
0.000155874
0.000143959
0.000199227
0.0001542
0.000147868
0.000142124
0.000178498
0.00606389
0.000156707
0.000143301
0.0246584
0.000142104
0.0321415
0.0186763
0.000150324
0.0132506
0.000155891
0.000151924
0.000140034
0.000135575
0.000135256
0.00018768
0.000150101
0.000182477
0.000134827
0.00015204
0.00187642
0.00015026
0.000156171
0.00017866
0.000148585
0.000142031
0.000131031
0.00123375
0.000161802
0.000155304
0.000142811
0.000141114
0.000162837
0.0156226
0.000153329
0.0077155
0.0116255
0.0184527
0.000174985
0.000663276
0.000187909
0.000184154
0.000149756
0.000144478
0.0146096
0.000135656
0.000183371
0.000145186
0.0134266
0.0103292
0.0115967
0.000141666
0.000150972
0.000153646
0.000168953
0.000160369
0.00031181
0.000173003
0.000174005
0.000164017
0.000133284
9.32775e-05
0.000134124
0.000188485
0.000151352
0.0118089
0.000131072
0.000151577
0.000181675
0.000135106
0.000177397
0.000144127
8.42602e-05
0.000141622
0.000182116
0.0179764
0.000175553
0.000145237
0.000139117
0.000162535
0.000155051
0.000171323
0.000147664
0.000151814
0.000165065
0.000121861
0.000146842
0.000142005
0.0148895
0.000137832
0.000130959
0.000143032
0.00701718
0.00899019
0.00014785
0.00015215
0.000366217
0.000149751
0.000151857
0.000138482
0.000211994
0.0240799
0.00020635
0.00015113
0.000146121
0.00014284
0.000141886
0.000210772
0.000174713
0.000145101
0.00016659
0.000217569
0.000130257
0.00115
0.000130936
0.000139849
0.000145197
0.000681307
0.000181551
0.000138395
0.0225446
0.000174338
0.00964777
0.000164079
0.000169562
0.00884027
0.0110163
0.000192565
0.000137369
0.000134777
0.0186419
0.000171568
0.000174323
0.00014826
0.000151724
0.000147003
0.000142922
0.010391
0.000160369
0.00016389
0.000195749
0.000142732
0.000146896
0.000137053
0.00016448
0.000161259
0.000156431
0.000150296
0.000140766
0.00015435
2.38029e-05
0.000186407
0.000163682
0.000137034
0.00983406
0.000156936
0.000187763
0.000161357
0.000164247
0.000144402
0.000142651
0.000188853
6.99939e-06
0.000167003
0.000148154
0.000164068
0.0226599
0.00014178
0.013991
0.00017071
0.0153934
0.000152024
5.16753e-05
0.000624385
0.0118381
0.000147563
0.000203004
0.000133757
0.0134801
5.83129e-05
0.000172405
0.000137918
0.0001417
0.000148331
0.000172357
0.00985245
0.000142546
0.000183659
0.0221498
0.0137722
0.000136464
0.00018894
0.000204765
0.00015773
0.000138534
0.000143898
0.0187125
0.000143306
0.000148296
0.0001731
0.000142092
0.00014398
0.000157483
0.000208152
0.000167149
0.000159133
0.000189322
0.000196601
0.000546344
0.000148048
0.000151759
0.000147261
0.0101898
0.000174029
0.000141981
0.000135372
0.0142624
0.000137733
0.000180742
0.000164195
0.0149351
0.000186945
8.22679e-05
0.000185623
0.0145195
0.000152512
0.000183332
0.0312733
0.00018668
0.000188544
0.000175011
0.0113443
0.000152998
0.000192927
0.0001842
0.0080408
0.000141882
0.0151089
0.000160822
0.000148112
0.000150066
0.000148257
0.000144852
0.000171374
0.00015096
0.000165815
0.000146863
0.000175221
0.00361836
0.000174842
0.000463717
0.00015413
0.000137873
0.000144383
0.00322364
0.000166579
0.000159003
0.000137288
0.000151764
0.000187015
0.00013475
0.000175791
0.0261569
0.000142779
0.000159513
0.000181748
0.00576915
0.000188776
0.0112802
0.000130979
0.000153676
0.000130913
0.000145336
0.0140105
0.000171401
0.000159635
0.000147844
0.000140034
0.000146065
0.000134919
0.000150037
0.00014109
0.00015074
0.00633637
0.00013098
0.000152606
0.000146969
0.000150662
0.000134293
0.000176145
0.000146522
0.00961351
0.000143955
0.000177684
0.000147937
0.00249699
0.000146822
0.000180147
0.000150065
0.0145294
0.000148927
0.000135191
0.000143749
0.00908324
0.000148005
0.000159979
0.000187126
0.0165089
0.000377924
0.000189521
0.00014182
0.000163391
0.0183006
0.000168527
0.000156733
0.00935512
0.000143673
0.000130953
0.000134684
0.000148037
0.000145424
0.000154913
0.000143943
0.000149215
0.000165492
0.000143881
0.000154267
0.000144236
0.0167416
0.000131711
0.000146258
0.0216933
0.0126251
0.00016969
0.000144598
0.000130489
0.0323683
0.0193578
0.000153625
0.000143812
0.000146316
0.000117934
0.00387617
0.000156169
0.000157421
0.000167241
4.64627e-05
0.000144668
0.0109068
0.000149078
0.000133677
0.000201645
0.000602245
0.00014767
0.00567529
0.000189148
0.000173627
0.000141042
0.000366567
0.000172064
0.00014513
0.000146813
0.0201632
0.000146083
0.000187494
0.000143176
0.000152316
0.000133704
0.000131999
0.000143509
0.000183142
0.000179475
0.0130845
0.000152689
0.000156186
0.000183465
0.000140597
0.000158859
0.000183394
0.000157544
0.000208436
0.000165518
0.00013738
0.000147653
0.000131954
0.000278816
0.000147256
6.3706e-05
0.0139896
0.00014062
0.0114069
0.000133724
0.000171396
0.000172341
0.000148813
0.0189287
0.0104884
0.00014767
0.000140008
0.00017564
0.000138818
0.000146425
0.000138511
0.000133746
0.000142169
0.0291175
0.0161218
0.000493684
0.0281005
0.000383181
0.000143829
0.000150031
0.000136454
0.000142034
0.000147562
0.000144435
0.00017146
0.000143976
0.00015422
0.00108371
0.000156393
0.000147902
0.000146621
0.00014705
0.000262498
0.000145159
0.000173613
0.0113028
0.000147301
0.000138573
0.000137322
0.000172822
0.000144045
0.000132839
0.000164591
0.00247368
0.000103737
0.000141471
0.000150146
0.00510104
0.000188851
0.000189161
0.000171872
0.000145226
0.000141078
0.000147482
0.000132788
0.000153978
0.0172896
0.000137261
0.000154904
0.000181896
0.000179776
0.0188859
0.0315161
0.000149396
0.00019524
0.000162367
0.000145582
0.000210037
0.000189634
0.000146451
0.000184562
0.000142206
0.00013788
0.000505849
0.00205141
0.000134531
0.000159429
0.000143488
0.000180134
0.000140478
0.000154776
0.000173684
0.000155022
0.00365003
0.000154686
0.000177033
0.000161635
0.00014165
0.00013514
0.000149466
0.0129762
0.000198089
0.000157676
0.000182948
0.000187773
0.000188563
0.00016114
0.000192964
0.000396718
0.000141402
0.000143364
0.000158741
0.00014703
0.000137113
0.000131697
0.000146146
0.011786
0.0211322
0.0107207
0.000164412
0.00013881
0.0307024
0.000168225
0.000155259
0.000158172
0.000144218
0.000159409
0.000166397
0.000172535
0.000170781
0.000173321
0.0154179
0.000160728
0.000153147
0.000149224
0.000147114
0.000170104
0.000152456
0.000153511
0.000141459
0.000162886
0.000178793
0.000149675
0.000626844
0.000134147
0.000141476
0.0183015
0.000156422
0.000144711
0.000134887
0.0127489
0.000145754
0.00018268
0.0148926
0.000155817
0.000152092
0.000154269
0.000178762
0.000121672
0.000208254
0.00017695
0.000182259
0.000156241
0.000191923
0.000179181
0.000113094
0.000166251
0.000155648
0.000144726
0.000249056
0.00195831
0.000167491
0.000141871
0.000130999
0.000130162
0.000146657
0.0002173
0.00312489
0.000905191
0.000133936
0.0163606
0.000136904
0.00015481
0.0163753
0.000160173
0.000134706
0.000143659
0.0159339
0.000140666
0.000153938
0.000312606
0.000133981
0.000181448
0.0013748
0.0086538
0.000162678
0.000155923
0.000138038
0.00016142
0.000146287
0.000131373
0.011907
0.000137808
0.000135521
0.00114468
0.000149607
0.00815942
0.000131275
0.00014094
0.000133933
0.000148329
0.000142357
0.00447852
0.000131083
0.000133259
0.000145505
0.0324561
0.000158024
0.000135039
0.000144507
0.000137966
0.000205122
0.000169922
0.000136768
0.000131234
0.015823
0.0136244
0.000184887
0.000165457
0.000159667
0.000165969
0.000138899
0.000146403
0.000133205
0.00808512
0.000137567
0.000173108
0.00278784
0.000162129
0.000138665
0.000159242
0.000172228
0.000138522
0.000140751
0.000152728
0.016274
7.61842e-05
0.000143991
0.0173389
0.000158273
0.000189527
0.00014912
0.0210705
0.000132016
0.0132933
0.00178008
0.000137608
0.000153094
0.00514003
0.00013886
0.000211664
0.000145581
0.000155215
0.0274339
0.000136613
0.000139404
0.000141061
0.000174202
0.0139546
2.18878e-05
0.0206815
0.000154592
0.000158888
0.000155817
0.00879746
0.00361882
2.9757e-05
0.0327314
0.000152415
0.0201004
0.000146876
0.000147265
0.000135333
0.00216855
0.000154194
0.000152087
0.000245138
0.0288717
0.000157705
0.000138707
0.000168942
0.000151634
0.000180235
0.000149355
0.000131225
0.000133514
0.000137781
0.000157257
0.000138886
0.0151552
0.000136506
0.000156455
0.000218081
0.000144459
0.000160502
0.00014166
0.000158479
0.013338
0.000133548
0.00855334
0.0320234
0.000148803
0.00016607
0.00716235
0.000148899
0.012383
0.00596623
4.39153e-05
0.000189683
0.000165559
0.000169016
0.0302377
0.000149084
0.000144544
0.000171426
0.000138521
0.00912572
0.000192933
0.000160018
0.000143788
0.000150289
0.000133489
0.000140712
0.000170517
0.0309233
0.000137298
0.000166961
0.00383779
0.000137571
0.000170932
0.000185122
0.000151803
0.000695998
0.000133791
0.000191905
0.000146537
0.000192912
0.0138552
0.0119487
0.000183983
0.000149321
0.000449839
0.000138477
0.0015492
0.00019321
0.000170948
0.0173842
0.000138079
0.0206475
0.000160775
0.000142215
0.000189886
4.78244e-06
0.000171048
0.000191505
0.000156958
0.000137505
0.000130827
0.000113123
0.000140516
0.000159711
0.00105151
0.000182762
0.0103999
0.000183102
7.92909e-05
0.000167933
0.00014456
0.000200118
0.000134713
0.000142311
0.00016039
0.000183165
0.00013577
0.000150712
0.0107616
0.000136366
0.0102301
0.0185841
0.000149353
0.00980058
0.000158636
0.000104158
0.000136221
0.00013104
0.000142873
0.0145168
0.000143139
0.000158893
0.000189976
0.00152559
0.000159084
0.0119565
0.001414
0.000178883
0.000174876
0.000162702
0.000163321
0.000297662
0.000161884
0.00014372
0.0172953
0.000153155
7.11743e-05
0.0314641
0.00961666
0.000166533
0.000174282
0.000143808
0.000159973
0.000134941
0.00020811
0.00014569
0.000134306
0.00855999
0.00015521
0.000155089
0.000143096
0.000142206
0.000155023
0.0010558
0.0138136
0.0105659
0.00121636
0.000160528
0.000151671
0.000141464
0.000136968
0.00018898
0.000134309
0.000152639
0.000138876
0.000141387
0.00013775
0.000163921
0.000147354
0.000147085
0.000132898
0.000174751
0.00018626
0.0142245
0.000162987
0.00710651
0.000183696
0.000192017
0.000172948
0.0141834
0.000131598
0.00010016
0.000160181
0.000192833
0.000134781
0.000153655
0.000160138
0.000134507
0.000145128
0.000142018
0.0243735
7.74733e-05
0.0139057
0.0116084
0.000181122
0.000158045
0.0110137
0.000143123
0.000189223
0.000174946
0.00546031
0.000142401
0.000155879
0.00014707
0.00018568
0.000140895
0.000186864
0.000135013
0.000192499
0.000134826
0.000200166
0.0168312
0.000149263
0.000485669
0.0130544
0.000144852
0.0293861
0.000172666
0.000143513
0.000148036
0.000160649
0.000130424
0.0162965
0.0146349
0.000172472
0.000116402
0.000182039
0.000145024
8.55021e-05
0.000143727
0.000220583
0.000143432
0.0122788
0.00015211
0.00015791
0.000142815
0.000154797
0.000174003
0.0112456
0.014628
0.000147792
0.00013753
0.0162825
0.000217614
0.000143663
0.0199536
0.000157167
0.00882588
0.000167012
0.000174408
0.000304953
0.000133509
0.000143848
0.000158142
0.000147544
0.0178592
9.72389e-05
0.000148741
0.0125013
0.000134114
0.000145174
3.74998e-05
0.000143314
0.000152722
0.000159708
0.0148947
0.00028705
0.000157752
0.000145757
0.010121
0.0208906
0.000145005
0.000176547
0.00013869
0.000135428
0.000170753
0.000149452
0.00015292
0.000601753
0.000152043
0.000182864
0.000144253
0.000157886
0.000184971
0.00015931
0.000164801
0.0236763
9.24255e-05
0.000183941
0.000141567
0.000190221
0.000186198
0.000143965
0.000146971
0.000135261
0.000144602
0.000158554
0.000147426
0.00255267
0.000135059
0.000148218
0.000139729
0.0132021
0.000133311
0.000167206
0.000172499
0.000133385
0.000137918
0.000185684
0.000159631
0.000190501
0.0001655
0.000173786
0.00014681
0.00318965
0.00215812
0.000133677
0.0164551
0.000151906
0.000147702
0.018573
0.00014437
0.00580485
0.000190665
0.000148742
0.000187102
0.000168466
0.000146736
0.000136956
0.000132116
0.000136271
0.000148184
0.000147279
0.000187219
0.000146208
0.0202782
0.00014273
0.00445043
0.000185109
0.000145284
0.000147183
0.000189597
0.000180078
0.0162966
0.0222674
0.000158146
0.017997
0.000140798
0.0226249
0.00781233
0.000171094
0.000197813
0.000143516
0.000234403
0.000146257
0.0139719
0.00015371
0.00014581
0.000210042
0.00014217
0.000136279
0.0189938
0.000134949
0.000135156
0.000140234
0.000145229
0.000182367
0.000164592
0.000151803
0.00356619
0.000148308
0.0195059
4.24244e-05
0.000155909
0.00018802
0.000146984
0.000189595
0.00111169
0.000139631
0.00014863
0.016122
0.0194491
0.0197106
0.0301391
0.000128029
0.000132926
0.00014189
0.000183476
0.000155113
0.000188255
0.000142222
0.000144592
0.000132915
0.0194203
0.000151956
0.0155798
0.000155488
0.0058776
0.000141342
0.000169394
0.000146776
0.00014674
0.000130866
0.0185375
0.000148307
0.000144284
0.0121872
0.000150365
0.000151508
0.000134702
0.000157015
8.09166e-05
0.000334586
0.000144348
0.014446
0.000157913
0.000142898
0.000143358
0.000149787
0.0432551
0.0001932
0.000141842
0.000220851
0.00947101
0.000152404
0.0132744
0.000208784
0.0110616
0.000170154
0.000142424
0.000147919
0.000133629
0.000141352
0.000872341
0.000154732
0.000144795
0.000179272
0.000163324
0.000276662
0.0185087
0.000154401
0.00397712
4.99395e-05
0.00014509
0.0343395
0.000138406
0.00956124
0.000154944
0.00017073
0.000134777
0.0158234
0.00013838
0.00015627
0.000150921
0.000206537
0.000169192
0.000161017
0.00187929
0.00015002
0.000186879
0.00349595
0.000174949
0.000134971
0.000171808
0.000190618
0.00334074
0.000173633
0.000151616
0.00188142
0.000179425
0.00017019
0.000161355
0.000187256
0.000179241
0.000172191
0.000148471
0.000185297
0.000188732
0.000152234
0.000183939
0.00014768
0.000147522
0.00435194
0.000140801
0.000165434
0.0102199
0.0040713
0.000146298
0.0119049
0.010603
0.00714989
0.000138204
0.000144744
0.000167766
0.000114699
0.00060416
0.000142438
0.0193718
0.000166955
0.000159656
0.00015351
0.000143762
0.00776566
0.000185646
0.000163789
0.00358358
0.000170965
0.00015602
0.0198816
0.000144039
0.000167103
0.0206912
0.000145573
0.000212701
0.00014618
0.00015084
0.000137079
0.000138628
0.000257982
0.000142042
0.00425283
0.000177614
0.0100745
0.000136744
0.000169484
0.0208998
0.000124004
0.000158027
0.000135353
0.000146896
0.000153342
0.000144082
0.000153973
7.90335e-05
0.0035562
0.0103163
0.000139837
0.000143575
0.000274119
0.000140693
0.000139953
0.000147554
0.000147734
0.000144009
0.00013546
0.000144679
0.000148695
0.0209564
0.000138215
0.000190575
0.000191188
0.0145176
0.00652356
0.000192076
0.000151292
0.00016088
0.000143698
0.0219953
0.000140691
0.0117196
0.000465313
0.000150257
0.000144903
0.000145414
0.000133473
0.000145098
0.00841352
0.0127805
0.000138488
0.00158304
0.000155488
0.0208348
0.000136393
0.0233506
0.000230376
0.000166202
0.000135282
0.000147772
0.000213574
0.000156252
0.000154284
0.000135031
0.000166319
0.000604222
0.00014878
0.0183816
0.000683989
0.000134791
0.00015363
0.000147331
0.000226269
0.000187473
0.000144651
0.00019936
0.000169246
0.000157353
0.000189321
0.000150163
0.000168776
0.000143458
0.000143317
0.00153401
0.000144182
0.0102627
0.000169175
0.000171068
0.0289717
0.000104895
0.000147691
0.000156611
0.000153898
0.000144885
0.000106183
0.000134737
0.00359874
0.000189
7.58089e-05
0.0001454
0.000133204
0.00345665
0.00913242
0.0254026
0.000143818
0.0195133
0.000265663
0.000182317
0.00014201
0.000187348
0.00694127
0.000415122
0.000166522
0.000144118
0.00017817
0.000132349
9.95908e-05
0.000113638
7.85247e-05
0.00021331
0.00014167
6.80801e-05
0.000156303
0.000141468
0.000146835
0.000143675
0.000151262
0.000169192
0.0187444
0.000144391
0.000167192
0.000168313
0.000136338
0.000163346
0.000492632
0.000154443
0.000142307
0.000148961
6.88408e-05
0.000154766
0.000133039
0.00014535
0.000191072
0.000142747
0.000147424
0.0001446
0.000134112
0.000183274
0.000153661
0.00014922
0.000187373
0.00015325
0.000139562
0.000144346
0.0175658
0.000575953
0.000139938
0.00946861
0.000167012
0.00321765
0.000170341
0.000160865
0.000147761
0.000147129
0.000148445
0.000152049
0.00776281
0.00257309
0.00017141
0.000162593
0.0046838
0.00015168
0.000158466
0.000144797
0.000160944
0.00863971
2.05799e-05
0.000184802
0.00015134
0.000149738
0.000179441
0.00014375
0.00344268
0.000151302
0.000111733
0.00647504
0.00775715
0.000140582
0.000145503
0.000151203
0.000134336
5.19379e-05
0.00013304
0.000139465
0.0040985
0.000157198
0.000156752
0.000133371
0.000131527
0.000170086
0.0185434
0.0139684
0.000207273
0.0189634
0.000197396
0.000154347
0.0139913
0.00013054
0.000173666
0.00417257
0.00692418
0.000145578
0.0163835
0.0199585
0.000188895
0.0063389
0.0029158
0.000147071
0.00197353
0.000140992
0.000198716
0.0193484
0.0178968
0.000149001
0.000132343
0.0152084
0.0334612
0.000150609
0.000152093
0.000159274
0.000153045
0.000148904
0.00352379
0.000204276
0.000179708
0.000163162
0.00520571
0.000152325
0.00994219
0.000176514
0.000197301
0.000170474
0.000186051
0.000157845
0.00977332
0.00014668
0.000152949
0.00015466
0.000221391
0.000190384
0.000138526
0.000147098
0.000145572
0.000165744
0.000154202
0.000160531
0.000165972
0.000158734
0.00370798
0.0016746
0.0193807
0.000255548
0.000157309
0.000147011
0.000161062
0.000195777
0.000144377
0.000185484
0.000135986
0.000151582
0.00015132
0.000136835
0.0179597
0.000144196
0.000141901
0.000131986
0.000147477
0.000147927
0.000140634
0.000163062
0.000144769
0.000154717
0.000152676
0.000143721
0.00310008
0.0111185
0.00014229
0.00499739
0.000912531
0.000145087
0.00017986
0.000215756
0.000141929
0.000129635
0.000148911
0.00346238
0.00014523
0.00869508
0.000249285
0.000200989
0.00155695
0.000138693
0.000198228
0.000142268
0.000140319
0.000149923
0.000159793
0.000145861
0.00838202
0.00015286
0.000168626
0.0128155
0.000142058
0.000141035
0.000148742
0.00377777
0.000143836
0.000168349
0.000181434
0.000194274
0.000152183
0.000144875
0.0182774
0.00015104
0.000151434
0.000188057
0.00102675
0.000160499
0.000171436
0.000144633
0.000155133
0.00018436
0.000183632
0.000130341
0.000171104
0.00314757
0.000166333
0.000150606
0.000133553
0.000124345
0.000146873
8.19189e-05
0.00921974
0.000145413
0.0162497
0.000171068
0.00016733
0.0194212
0.000140937
0.00118836
0.000168542
0.00184037
0.000143209
0.0325787
0.000144293
0.000151491
0.0135085
0.000143695
0.0155343
0.000150538
0.000178958
0.0163532
0.000144029
0.000166425
0.000212038
0.000150639
0.000136292
0.000147028
0.0277302
0.00251959
0.00963414
0.000141461
0.000190474
0.000156504
0.000144288
0.000142878
0.000145389
0.000140529
0.000160251
0.00692149
0.000146448
0.000144343
0.000936337
0.0208053
0.000136094
0.0001663
0.000162626
0.000186834
0.012576
0.000143524
0.0153204
0.0133368
0.000151647
0.000148512
0.000138823
0.000150407
0.000235385
0.0148721
0.000149984
0.000180322
0.000172676
0.000176241
0.000143986
0.000144152
0.0001436
0.000187788
6.29407e-05
0.0269503
0.00014117
0.000133
0.0129372
0.000132515
0.000137468
0.000148459
0.000155582
0.0121508
0.000143641
0.00473617
9.53422e-05
0.000146
0.000220328
0.000147099
0.000165444
0.000155286
0.000159977
0.00016191
0.000182289
0.0191862
0.0111313
0.000152597
0.000173727
0.0171314
0.00282653
0.000159118
0.0001664
0.0290442
0.000173078
0.0187974
0.000145699
0.000143535
0.000143494
0.000146338
0.01449
0.0146533
0.000143852
0.00423354
0.00636681
0.00151747
0.000103593
0.000143255
0.000132822
0.000158586
0.0001321
0.000140885
0.000153737
0.000144548
0.00565967
0.0133238
0.000148389
0.000178895
0.00016381
0.00537348
0.000172621
0.0106556
0.000145707
0.000154029
0.000206811
0.000319766
0.000192817
0.000168568
0.000132183
0.000217792
0.000592751
0.000175192
0.0186
0.000143
0.00417694
0.000166672
0.000135166
0.000144685
0.000144025
0.000143402
0.00439703
0.00013305
0.000146286
0.0107453
0.0201566
0.000151412
0.000154163
0.00015085
0.000611732
0.000152425
0.000166288
0.00396764
0.000142534
0.00779457
0.000182506
0.0113042
0.00362019
0.0290254
0.000142927
0.00018906
0.000146228
0.0187689
0.00016909
0.000187593
0.0163945
0.00015546
0.000176499
0.0148682
0.0189623
0.000178872
0.0192372
0.000162323
0.00014774
0.000193191
0.000176108
0.00016876
0.000167514
0.000151087
0.000144916
0.000167793
0.000150359
0.0170442
0.000157904
0.000137725
0.000166723
0.0001347
0.00015084
0.000153771
0.000153549
0.000163329
0.000149544
0.000243812
0.000134921
0.000179195
0.000149254
0.000144129
0.000164719
0.000170491
0.000204219
0.000178713
0.014501
0.000139395
0.0167244
0.000125901
0.000160012
0.000152444
0.000185543
0.000175701
0.000144886
0.0184414
0.000144911
0.000176898
0.0179796
0.000144439
0.000219483
0.0034996
0.000144618
0.000108277
0.000157517
0.000146177
0.00018302
0.000159372
0.000191566
0.000143749
0.000167305
0.0484013
0.000149229
0.0171149
0.000174157
0.0142792
0.000181905
0.000199133
0.000180303
0.000149047
0.000134503
0.000141928
0.000148336
0.000143
0.000170599
0.00014147
0.025955
0.000159627
0.000150031
0.00013826
0.000146761
0.000166841
0.000139773
0.000203707
0.000188242
0.000154101
0.000174598
0.000104854
0.000156683
0.000143473
0.000176496
0.017051
0.028469
0.000204218
0.000138492
0.000143281
0.000144046
0.0178268
0.000147653
0.0162421
0.000137383
0.000173049
0.000156888
0.000146723
0.000139195
0.000147805
0.000181558
0.000155007
0.000140022
0.000142437
0.000181842
6.75971e-05
0.000178833
0.000141836
0.018399
0.000183699
0.000182346
0.000133207
0.000180234
0.0101857
0.00199813
0.000142048
0.0209482
0.000183814
0.000183802
0.000854804
0.000144426
0.00017656
0.000147351
0.000152923
0.00018739
0.000147458
0.000151783
0.000141052
0.000187846
0.000474091
0.000181559
0.0131283
0.000142832
0.000143747
0.000143832
0.000136158
0.00578353
0.000147132
0.0161721
0.000136142
0.000205664
0.000141803
0.000150401
0.000143326
0.000156266
0.0170818
0.000173875
0.0200749
0.0132715
0.000147653
0.000164261
0.032138
0.0216132
0.00208579
0.000187115
0.000147274
0.0105807
0.00483854
0.000180253
0.000160308
0.00239253
7.83135e-05
0.0235195
0.000136159
0.000147917
0.000180314
0.0026437
0.000161103
0.000147396
0.01708
0.000174314
0.0191832
0.000163212
0.000182023
0.00024984
0.000185655
0.000144837
0.000191345
0.0181097
0.0169502
0.000144504
0.000190007
0.0001715
0.000158858
0.000148372
0.000149494
0.000166006
0.00017558
0.000178626
0.00017697
0.000180341
0.000182016
0.000183743
0.000153646
0.000181861
0.000180909
0.000173209
0.019396
0.000162298
0.000162449
0.000139676
0.000155513
0.000144496
0.000164965
0.0025415
0.0409321
0.000180246
0.00170792
0.0179894
0.000178152
0.000177353
0.000219541
0.00214072
0.000181873
0.0171013
0.00014231
0.000148224
0.000160745
0.00016262
0.00395677
0.000145266
0.000140158
0.000167698
0.00014438
0.000181266
0.000142438
0.0024751
0.0175401
0.0138371
0.00015384
0.000168807
0.000164289
0.000151117
0.000145251
0.000143908
0.000171142
0.000147491
0.0149948
0.0149169
0.000144264
0.000187245
0.000151484
0.000147649
0.000186003
0.000155806
0.0169784
0.000148517
0.000177557
0.000148774
0.000177976
0.000138116
0.00017868
0.000157328
0.0152338
0.00750077
0.00013975
0.000186223
0.0172846
0.000179176
0.000183969
0.0178632
0.0195976
0.0166118
0.000176618
0.000143591
0.0191987
0.000175504
0.000170057
0.0174513
0.000189555
0.00229637