/*--------------------------------*- C++ -*----------------------------------*\
| =========                 |                                                 |
| \\      /  F ield         | OpenFOAM: The Open Source CFD Toolbox           |
|  \\    /   O peration     | Version:  v2012                                 |
|   \\  /    A nd           | Website:  www.openfoam.com                      |
|    \\/     M anipulation  |                                                 |
\*---------------------------------------------------------------------------*/
FoamFile
{
    version     2.0;
    format      ascii;
    class       surfaceScalarField;
    location    "100";
    object      phi;
}
// * * * * * * * * * * * * * * * * * * * * * * * * * * * * * * * * * * * * * //

dimensions      [0 3 -1 0 0 0 0];
oriented        oriented;


internalField   nonuniform List<scalar> 
20823
(
0.123849
0.0316456
-0.155495
0.332842
-0.243509
-0.0893327
0.66386
-0.0925934
-0.571267
0.599686
-0.119534
-0.480153
0.615688
-0.0521049
-0.563583
0.505853
-0.375506
-0.130347
-0.496875
0.385874
0.275935
0.112371
-0.388305
0.547576
0.0521097
0.123973
0.00510606
-0.12908
0.640599
-0.572138
-0.0684617
-0.150062
0.150043
1.91019e-05
0.206517
-0.338886
0.132369
-0.134607
0.341124
-0.731162
0.425508
0.305654
0.141668
-0.216217
0.074549
-0.319
0.205271
0.113729
-0.0463198
0.0955914
-0.0492716
0.353129
0.00452174
-0.357651
-0.190301
0.312595
-0.122294
-0.109713
0.197087
-0.0873741
-0.0120182
-0.138044
-0.0230346
0.136053
-0.113018
0.0387406
0.576947
0.489318
0.151282
-0.0940525
0.447182
0.1195
-0.118491
-0.00100922
0.119846
0.106636
-0.128576
0.0219398
0.0180738
0.0872762
0.147307
-0.199837
0.0525295
0.389915
-0.11398
0.125397
-0.0953951
-0.0300019
-0.0188273
0.155443
-0.136616
-0.134688
0.194441
-0.059753
-0.534657
-0.0716303
0.606288
-0.0932515
0.0728747
0.0203769
0.149726
-0.0257526
-0.249617
0.695501
-0.445884
-0.0513422
0.302431
-0.251089
0.073266
-0.133395
0.0601288
-0.225496
0.115782
0.786352
-0.403033
-0.383319
0.699896
-0.261159
-0.438737
0.743022
-0.327642
-0.41538
0.351773
0.434579
0.0496134
-0.0455851
-0.00402833
0.407782
0.0980706
-0.154662
0.0899061
0.0647558
0.124971
-0.076035
-0.0489363
-0.135146
-0.22153
0.356676
-0.00403351
-0.52313
0.527164
-0.0876617
0.0247574
0.0629043
0.142101
-0.0977947
-0.0443066
-0.195292
-0.123708
-0.239521
-0.0993654
0.0637419
-0.0943339
0.030592
0.0631507
-0.131177
0.0680261
0.127578
-0.146406
-0.0578152
0.205123
-0.626356
0.491196
0.13516
0.0335554
0.091416
-0.109382
-0.0377654
0.147147
-0.405013
-0.179207
0.58422
0.401018
-0.645744
0.244726
-0.473795
-0.0944365
0.568231
-0.0413182
0.165167
-0.0561534
0.103595
-0.0474416
0.597115
-0.488274
-0.108841
0.0449826
-0.241735
0.196752
0.458525
-0.662643
0.204117
-0.635923
0.273468
0.362455
0.0509668
-0.00135338
0.168251
0.167006
-0.335257
0.180651
0.0318486
0.606572
-0.170649
-0.435922
-0.0904167
-0.276328
0.366745
0.218339
-0.173356
-0.0585535
0.0989731
-0.0910065
0.0980797
-0.00707315
-0.765677
0.352438
0.413239
-0.0893645
0.030811
-0.0448664
-0.0427952
-0.333264
-0.151376
0.484639
0.0407901
-0.532592
0.491802
0.462549
-0.66561
0.203061
-0.438393
0.331568
0.106825
0.0455429
0.0965584
-0.00693612
0.0456798
-0.0387436
0.0663069
-0.256608
0.489592
-0.618397
0.128805
-0.413905
0.571208
-0.299818
-0.271391
0.00981471
0.0576675
-0.0674823
0.459697
0.137417
0.0855922
-0.307368
0.221775
-0.303545
0.168398
-0.0119704
0.67583
0.00448012
0.0734058
-0.077886
-0.134198
-0.381268
0.515466
0.0703231
-0.544118
0.491706
-0.0839239
0.665318
-0.205621
0.0865935
0.347882
-0.434475
-0.00758681
0.0511898
-0.043603
0.0858094
0.0339246
-0.119734
-0.0506245
0.0436884
-0.463847
0.130583
0.06991
-0.126063
-0.703213
0.502192
0.201021
-0.00482976
-0.0434567
0.0482865
-0.590706
0.0372499
0.553456
-0.402525
0.443315
0.149595
0.329343
-0.478938
-0.590706
-0.37422
0.283803
0.0947313
-0.0202812
-0.0744501
-0.126664
0.55855
-0.431886
-0.0781109
0.0879256
0.0237891
0.101608
0.615709
-0.505744
-0.109965
0.117424
-0.148283
0.0308588
-0.00198874
-0.00143815
0.00342689
0.422598
-0.259651
-0.162947
0.000411703
0.0785687
-0.0789804
0.222894
0.348315
-0.516217
0.651426
-0.135209
0.462516
-0.312921
0.00308683
0.0255455
-0.0286323
-0.490615
0.298841
0.191774
0.039272
0.0116948
-0.479544
-0.106166
0.58571
-0.32898
-0.265197
0.594177
0.0589018
0.0196963
-0.0785981
0.049182
-0.00991006
0.0670977
-0.245928
0.17883
0.115811
-0.101787
-0.0140236
0.567322
-0.166304
-0.317807
-0.172808
-0.483845
0.165028
0.318817
0.0707102
0.102437
-0.173147
-0.0107564
0.0778188
-0.0670624
-0.0138384
-0.114631
0.128469
-0.224211
0.167748
0.056463
0.134475
-0.0278385
0.315147
0.427875
0.609605
0.00610394
0.0134589
0.124602
-0.138061
-0.0596962
-0.122349
0.196243
-0.0738942
0.297177
-0.211585
0.207744
-0.137033
0.573477
-0.114952
0.279235
0.11068
0.353624
0.138082
0.00315674
0.035636
-0.0387928
0.0158609
0.321801
-0.337661
-0.273967
-0.352237
0.626204
-0.387887
0.403748
-0.337138
-0.275359
0.612497
0.235095
0.0881418
-0.323236
0.113116
0.00638449
-0.0681641
0.0762773
-0.0081132
0.518551
-0.479639
-0.0389127
-0.165241
-0.032352
0.197593
-0.254738
-0.331494
0.586231
-0.0850085
-0.124717
0.209725
-0.0250887
-0.126808
0.151896
0.0310623
-0.00352647
-0.0275358
-0.0360551
-0.311704
0.34776
0.171251
-0.0295826
0.0962447
0.0195663
0.109517
0.040526
0.0313978
-0.00610107
-0.0252968
0.435966
0.170606
-0.360718
0.324663
-0.0767584
-0.0220984
0.0988568
-0.0279345
5.81126e-05
0.0278764
0.137868
-0.0283509
-0.0764329
-0.147778
-0.119847
-0.054428
0.174275
-0.0296197
0.00168522
0.0492588
-0.215285
0.166026
-0.0866355
-0.395442
0.482077
-0.506508
-0.196705
0.0519013
-0.0469979
-0.00490337
0.0685333
-0.0109595
-0.0575738
-0.489133
0.330329
0.158804
0.0391812
-0.0279869
-0.0111943
-0.0511025
0.0435157
-0.0916997
0.00358818
0.0881116
-0.137456
0.235112
-0.0976555
0.380216
-0.100981
-0.185437
-0.303696
0.0766838
-0.0867846
0.0101007
-0.0729671
-0.0776849
0.150652
0.0470852
-0.156467
0.0343291
-0.00165113
-0.032678
0.323674
0.223903
-0.629234
0.131133
0.498101
0.0534295
0.337097
-0.390527
-0.226225
0.0887692
-0.474157
0.493758
-0.0196009
-0.161165
0.122735
0.0931651
0.145033
-0.0276091
-0.00527648
0.0690184
-0.130695
-0.0948013
0.353427
-0.508707
0.15528
-0.0229645
0.0260513
-0.0439711
-0.0503628
-0.0724847
0.0788532
-0.00636847
0.0850124
-0.00832853
0.59943
-0.204904
-0.394526
0.32099
-0.0858958
-0.256468
0.634066
-0.377598
-0.540591
0.0894677
0.451124
-0.616241
0.0815839
0.177811
-0.0346762
-0.143135
-0.21731
0.086615
-0.0495461
0.434513
-0.384967
0.426338
-0.475884
0.198873
0.223725
0.152513
-0.473268
0.320755
-0.667876
0.467333
0.200544
-0.13522
0.112186
0.144355
0.0754928
-0.219848
0.506672
-0.182998
-0.74936
0.283753
0.465608
-0.637559
0.475237
0.162322
-0.0171324
0.102942
0.308233
0.123223
-0.431456
-0.508118
0.381454
-0.19184
-0.348752
-0.00279191
0.0713252
-0.0747537
-0.0799082
0.737096
-0.316946
-0.42015
0.385302
-0.502988
0.117686
0.547939
-0.530064
-0.0178753
0.00332904
-0.174637
0.427047
0.185805
-0.612852
0.153427
-0.632971
-0.0818701
0.328775
0.408321
0.0375086
-0.0495267
0.0120181
0.00881949
0.0225783
0.410378
-0.306293
-0.104085
-0.485371
0.620693
-0.135323
-0.0588434
-0.36542
0.424264
-0.0285423
0.0286853
-0.000143023
0.63567
-0.492543
-0.143128
0.00627189
-0.0787566
0.358522
0.148149
-0.245621
0.327174
-0.0815531
0.501568
0.0463705
-0.429071
0.139114
0.289957
-0.548422
0.670611
-0.122188
-0.133033
0.0261783
0.106854
0.570645
-0.513547
-0.0570984
0.0614267
-0.107747
0.456178
0.0733574
-0.529536
0.00538098
0.17243
-0.24201
0.0591769
0.182833
0.598414
-0.508947
-0.148023
0.456256
-0.0878499
-0.00315661
0.0769025
0.521512
0.00394751
0.0303816
-0.0672998
0.235551
0.0647656
-0.06764
0.0028743
0.185147
0.514749
0.0788083
0.0940252
-0.172833
0.11807
-0.0465256
-0.0715447
0.510069
-0.124767
-0.301754
-0.335805
0.0231305
0.096715
0.12689
0.283488
-0.121734
0.0279668
0.0937673
0.108595
-0.0746701
0.574906
-0.440311
-0.134595
0.311092
-0.21494
-0.0961521
0.133059
-0.221484
0.0884253
-0.000247151
0.0394283
0.058722
-0.181071
0.00560465
0.0872477
0.0972992
-0.0341485
-0.0921688
0.000469033
-0.260951
-0.114961
-0.0182476
0.133209
0.116461
-0.1303
-0.165163
0.0304747
0.0933036
-0.3822
0.288897
-0.0536388
-0.432512
0.486151
-0.0235725
0.432071
-0.408499
-0.144466
-0.451038
0.397399
0.410738
-0.238239
-0.172499
0.410941
0.108375
0.0201877
-0.128562
-0.277046
-0.167299
-0.0987142
0.266013
0.164871
-0.251751
0.0868799
0.609981
-0.533078
-0.264257
0.385509
-0.121251
-0.463277
0.376641
0.0468841
-0.00937558
-0.109491
-0.197592
0.307083
0.106019
0.0140474
-0.120067
0.629014
-0.127446
-0.129487
-0.00807208
0.137559
-0.139209
0.0245783
-0.0857943
-0.0427817
0.0592801
0.550701
0.565316
-0.0757235
0.261543
-0.177104
-0.0844387
-0.321892
0.148183
0.17371
-0.0266097
0.0316623
-0.00505258
0.175331
0.157511
0.0903172
-0.10745
-0.0542508
-0.178685
0.232935
-0.142922
-0.483434
0.30248
-0.06336
-0.23912
0.131228
-0.0856848
-0.254414
0.0871156
0.189335
0.475983
-0.0437596
-0.00734292
0.107609
-0.178083
0.070474
-0.201517
-0.120375
-0.0361662
0.110666
-0.0739587
-0.000835624
0.0747943
-0.0106885
-0.154553
-0.539539
-0.012733
0.552272
-0.0714425
0.00327841
-0.11114
0.00935228
0.244618
0.16612
-0.0701337
0.0648926
0.00524117
0.173227
-0.269922
0.0966951
-0.0275373
-0.001005
0.121799
-0.109694
-0.0121045
0.145296
0.483718
-0.114522
0.28775
-0.369198
0.489085
-0.119887
-0.139411
0.628729
-0.0583226
-0.0579517
0.116274
0.3339
0.115553
-0.449452
0.138131
-0.0648648
-0.0758438
-0.421031
0.0474788
0.384593
0.31835
0.0250492
-0.343399
0.0411996
0.00448013
0.170339
-0.0627301
-0.332622
-0.0699317
0.402554
-0.61537
0.365753
-0.386523
0.122265
-0.0559989
-0.00415665
0.0601556
-0.478541
-0.301293
0.0629712
-0.395593
0.592513
-0.533233
0.0013403
0.11077
0.233612
-0.344382
0.549573
-0.087024
0.142697
0.121376
-0.264073
0.049895
0.542618
0.0816643
0.519352
-0.601017
0.237902
-0.0341925
-0.203709
-0.0545253
0.451439
-0.396914
-0.597076
0.464884
0.132192
-0.455184
0.400659
0.574969
-0.574969
-0.0162621
0.315103
0.10171
0.00430978
-0.118769
0.0826032
-0.00551122
0.17866
-0.173149
0.134004
0.151745
-0.0846446
-0.0752325
0.159877
0.418555
0.202725
-0.621279
-0.687999
0.523494
0.164505
-0.2006
0.268786
-0.0681857
-0.306624
-0.122447
0.134554
-0.503753
0.0400511
0.0911765
0.291461
-0.423954
0.132494
0.0452165
-0.0500462
-0.672816
0.35587
0.204791
-0.0717321
-0.0833564
-0.0339731
0.11733
-0.415798
-0.0284323
0.00182261
0.267814
-0.222137
-0.0456777
0.187248
0.133743
0.493299
-0.0371204
-0.0333323
0.198759
-0.112202
-0.0865573
0.0412843
-0.0324648
-0.0244331
0.133865
-0.109432
0.105847
-0.405779
0.299932
-0.492076
0.345989
0.146087
0.415485
-0.276371
0.449772
-0.609496
0.159724
0.472364
-0.617151
0.144787
0.0439619
-0.244562
0.437184
-0.284671
-0.192773
0.265992
-0.0732186
0.556786
0.138715
-0.443045
0.136421
-0.0677481
0.0681598
-0.0460309
0.0491877
0.0945206
0.000210766
0.519185
0.122614
-0.641799
-0.0736873
-0.0574896
-0.129744
0.247596
-0.388877
0.141281
0.625015
-0.57512
0.330678
-0.0327403
-0.297938
-0.267415
0.00338646
-0.234433
0.107869
0.126564
-0.369025
-0.129063
0.498088
-0.0652432
-0.0811965
0.14644
-0.309941
-0.325982
0.532184
-0.105137
-0.268373
0.0325792
-0.225353
-0.306565
-0.424597
0.0575044
-0.167167
0.109663
-0.23952
0.252444
0.127772
0.259792
-0.311134
-0.0820266
-0.140364
0.22239
-0.438146
0.30808
0.130066
0.036482
0.588533
-0.333843
0.42863
-0.0947868
0.0512392
-0.225025
0.173785
0.431423
-0.0975237
-0.0903198
0.172682
-0.082362
0.633595
-0.327557
-0.306038
-0.081518
-0.0515147
-0.399377
-0.273439
0.40403
-0.0856795
-0.59619
0.56745
0.0287404
0.367825
-0.257055
0.542263
-0.546297
-0.168053
0.10973
0.00450967
-0.0762785
0.0717689
0.317818
0.315777
0.335573
0.151275
-0.486848
0.0472904
-0.0031214
0.630175
-0.488569
-0.141605
-0.417287
-0.211947
-0.349393
0.508253
-0.15886
-0.626891
0.626891
-0.0929042
0.0937527
-0.000848499
0.104362
-0.453755
0.0816625
0.258105
-0.339767
-0.186938
-0.00490446
0.163974
-0.15907
0.278344
0.024087
0.00572532
-0.128937
0.14413
-0.015193
-0.0716693
0.0630596
0.00860965
0.548601
-0.130047
0.442991
-0.151531
0.0748988
-0.159543
-0.59635
0.0732194
0.104377
-0.596919
-0.0955558
-0.176535
0.227774
0.135904
-0.0783993
-0.0767799
0.438163
-0.361383
0.261891
-0.455684
0.193793
-0.535656
0.00764708
0.0336372
-0.420686
0.128257
0.292429
0.000192496
-0.0718618
0.280086
-0.0928379
0.121718
-0.093751
-0.571661
0.429011
0.14265
-0.0432891
-0.00614727
0.0494363
0.463766
-0.201875
0.0651637
0.0081417
0.134739
-0.539751
0.0588563
-0.0340988
0.392316
-0.463946
-0.0364555
0.106365
0.505035
0.0135168
0.218101
0.125189
-0.34329
0.0564864
0.00236983
0.0657575
-0.0571071
-0.00865042
0.0229069
0.363761
-0.440541
0.218063
-0.223574
-0.0880092
0.245523
-0.0202274
-0.225296
0.212589
-0.16333
0.226541
0.0759393
-0.0558446
-0.127491
0.379935
-0.089316
-0.356778
0.568185
-0.211407
0.0989299
-0.123363
-0.535191
0.0189739
-0.465101
0.330903
0.0739961
-0.149229
0.376525
-0.294863
-0.079974
-0.0444997
0.124474
-0.444754
-0.121521
0.566274
-0.561758
0.369632
0.192126
-0.0399135
0.0482701
-0.00835661
-0.420585
-0.293796
0.0747207
-0.234109
0.159389
-0.122201
0.13566
-0.619088
0.199335
0.419753
-0.244222
0.350809
-0.106588
-0.292754
0.356596
-0.0638415
-0.0688182
0.466657
-0.397838
0.383958
-0.589079
0.205121
-0.484341
0.415523
0.156895
0.25859
0.093251
-0.438661
0.34541
-0.0195443
0.257446
0.23452
0.00572274
-0.240243
-0.167971
-0.28924
0.457211
0.343665
-0.125564
0.387776
-0.158312
-0.229463
-0.135811
-0.0838045
0.219615
-0.0704196
0.401988
-0.00145253
-0.0545464
0.331418
-0.458525
0.127107
-0.0753111
0.594496
-0.381878
0.262384
0.119495
-0.398475
-0.108712
0.507188
0.612068
-0.587546
-0.0245226
-0.535134
0.280396
0.0169379
-0.0936963
0.235893
-0.160131
-0.0757617
0.0259399
0.0921304
-0.61325
0.073711
-0.346898
0.440149
0.538904
-0.154946
-0.0551111
-0.186899
0.288139
-0.212031
-0.0761076
0.0390537
-0.458985
0.419931
-0.081655
0.0708986
0.357726
-0.209543
-0.597777
0.479062
0.118715
-0.00404522
0.0295907
0.242109
-0.571089
-0.41613
0.26518
-0.377253
0.112072
-0.105072
-0.0244142
-0.125407
0.456826
-0.220937
0.13891
-0.160363
0.0951199
0.0704473
-0.00568166
0.110506
-0.215969
0.105463
-0.00579828
-0.00820891
0.16527
-0.157061
0.0965306
0.191505
-0.288036
-0.200141
0.043273
0.156868
0.175896
0.338716
0.108765
0.0899938
-0.171207
-0.392142
0.497612
-0.162039
0.071839
0.00597985
-0.00398217
-0.0523686
0.0563507
0.102041
-0.0734804
-0.0285611
0.0769345
0.00785175
0.0579058
0.547449
-0.323699
-0.22375
0.00307536
0.0284189
-0.0324641
-0.127537
0.261541
-0.00704587
-0.0605941
-0.170718
-0.0294236
0.187724
-0.305058
0.117334
0.00994047
0.441498
0.582917
-0.133145
0.439502
0.13127
-0.570772
0.0169058
-0.116969
0.100063
-0.0519452
0.265195
-0.21325
0.0242076
-0.0989614
0.667987
-0.506831
-0.161155
-0.406848
0.132438
0.27441
-0.239437
-0.0040717
0.182309
0.0855051
-0.322349
-0.259913
0.582262
-0.164611
-0.0547731
0.219384
0.276304
0.0620035
-0.338307
0.2448
0.302649
0.538572
0.0199778
0.0496149
-0.0678084
0.0181935
0.192405
-0.514753
-0.0622576
0.296778
0.163343
-0.4953
0.331956
-0.441098
0.135879
0.221847
0.35441
-0.0943653
-0.260044
0.131121
0.0908933
-0.222015
-0.0210982
-0.00544961
0.0265479
0.0914368
-0.114955
0.0235183
0.0393333
0.00362953
-0.0429628
-0.0698443
-0.0361297
0.105974
0.376583
0.162321
0.350298
-0.0851175
0.309783
0.0763506
-0.386134
0.219413
-0.271358
-0.539866
0.141391
0.275916
0.0784932
0.207346
0.444079
-0.125413
-0.391734
0.297681
0.0581372
-0.0487014
-0.00943583
-0.00390948
-0.0193848
0.0232943
-0.0222431
-0.00737669
-0.634577
0.476668
0.157909
-0.272371
0.0127202
-0.0861882
0.457029
0.138064
-0.595093
-0.153628
0.128539
0.549441
-0.172857
-0.147813
-0.036437
0.18425
0.153301
0.0825918
0.0965824
-0.138802
0.0422193
-0.631779
0.173679
0.4581
0.122208
-0.610481
-0.415457
-0.216321
0.0383891
0.0596905
0.237811
0.0140793
-0.25189
0.189141
0.0496754
-0.238816
0.465321
0.0514779
-0.516799
0.296785
-0.109062
0.117124
-0.0929165
-0.150647
0.590149
0.0452961
-0.12527
-0.202246
-0.2359
0.613404
0.059671
0.00929482
-0.0689658
0.0502138
0.0464802
-0.096694
-0.00613428
0.0513508
-0.1063
-0.496705
0.115436
0.0952674
-0.654421
0.166867
0.487553
-0.0472182
0.185503
-0.138285
-0.0637754
0.228647
-0.133553
0.300559
-0.278591
0.227682
-0.329329
0.101648
0.230596
0.0575431
-0.588847
0.549121
0.0397264
0.150303
-0.483572
0.333269
-0.0728544
-0.00110432
0.0258535
0.440803
0.392043
0.207386
-0.148216
0.519444
-0.371228
-0.0873359
0.276476
0.00287604
-0.00279267
-0.198867
-0.13639
0.0777332
0.00727919
0.454994
-0.63982
0.184827
0.103022
0.0914192
0.481131
-0.61731
0.136179
-0.508822
0.360606
0.621402
-0.166408
0.0271347
0.0684567
-0.205173
0.106606
0.0985668
-0.0770679
0.314879
-0.403775
-0.309925
0.0119876
0.405687
-0.417675
-0.0316997
0.140074
0.0612225
-0.225834
-0.0298548
0.274644
-0.244789
-0.00821592
0.156024
0.155068
-0.584452
0.247314
0.487981
-0.00970912
-0.119227
-0.404247
-0.280653
0.250799
-0.0172256
0.0668405
-0.0462532
0.096467
-0.433131
-0.00223628
-0.206731
0.257611
-0.0508797
-0.0125407
-0.0997618
0.17857
-0.1224
0.369029
-0.246629
-0.0692314
0.0737411
0.0284895
-0.00308292
-0.0254066
-0.0837748
0.0634936
0.285176
-0.600748
0.315571
0.497337
-0.00314971
0.00428547
-0.00113576
0.30227
-0.106014
-0.196256
0.081566
-0.117696
0.339074
-0.244379
-0.0946954
-0.22535
0.0925541
0.132795
0.37203
-0.194091
-0.177939
0.49497
-0.18876
-0.306211
-0.338923
0.298282
0.0406409
0.246206
-0.195807
-0.0503987
0.317654
-0.0899719
0.005669
0.0836501
-0.0893191
0.378341
-0.633586
0.456149
0.177438
-0.296095
0.636455
-0.34036
-0.00940418
0.0871374
-0.0671106
-0.167323
0.180206
-0.234457
-0.345769
-0.272628
-0.310234
-0.352409
0.189718
0.00736966
-0.624782
-0.0999327
-0.0733862
0.173319
-0.0221875
0.11877
0.162085
-0.45818
0.118125
-0.0266882
0.57137
-0.53412
-0.154361
0.030574
-0.157382
0.190775
0.439399
0.421873
-0.177839
-0.244034
-0.255113
-0.379464
0.0967823
-0.0871656
-0.00961667
0.173485
-0.622162
0.448677
0.209448
-0.201292
-0.00815672
0.286056
-0.189525
0.175815
0.0857285
-0.197673
0.247349
0.194235
-0.409148
0.214912
0.0566847
-0.134449
-0.117302
0.0707221
-0.012522
-0.0582
-0.157835
0.254229
-0.096394
0.477772
0.0011043
0.0625311
0.02976
-0.0308479
0.00108795
-0.157114
-0.236391
0.393505
-0.463645
0.128651
-0.558861
0.430209
-0.0275464
0.0236369
-0.112026
0.132214
0.27181
-0.118508
0.185615
0.286722
-0.472337
-0.229719
0.190362
0.0902487
-0.280611
0.0163195
-0.164133
0.0263197
0.00216982
-0.59667
0.490504
-0.344877
0.222478
0.00697066
0.0676554
-0.526273
0.431836
-0.157982
0.248229
-0.0902466
-0.0808268
-0.306192
0.102902
0.20329
0.4557
-0.270085
0.303626
-0.471597
-0.00338234
0.0457938
-0.0424115
0.357258
0.158208
0.0879854
-0.122341
0.0136553
0.108686
0.358645
0.138967
-0.532501
0.614165
0.0993006
-0.165721
-0.342986
-0.740689
0.290287
0.450402
-0.0831191
0.19555
-0.112431
0.0163537
-0.102148
-0.0964074
-0.61446
0.192618
0.421842
0.354186
-0.300756
-0.0866079
-0.138742
0.202691
-0.312182
-0.000606994
0.030367
0.0457436
0.529225
-0.311712
-0.428635
-0.193775
0.62241
-0.0504375
0.441576
-0.582794
0.141218
-0.0674693
-0.435743
-0.304946
0.0653504
-0.0608702
-0.0102699
-0.101932
-0.633343
0.186567
0.446775
-0.167571
0.0772511
-0.00291975
0.0763256
0.341769
-0.27117
-0.0705986
0.0864963
-0.0164754
0.0189005
-0.00242506
-0.0752921
-0.00976495
0.0850571
0.112423
-0.0955174
0.11148
0.0103187
0.0210096
0.0106527
-0.134315
0.225208
0.0921282
0.0986012
0.0740806
-0.00217604
-0.0189222
0.475901
-0.158176
-0.317725
-0.0108575
0.0464935
0.200886
0.0453199
-0.0947746
0.285137
0.286406
-0.107745
-0.105574
0.101771
-0.390123
0.288352
0.125991
-0.0134913
-0.1125
-0.0160979
0.211424
-0.195326
0.58899
-0.131961
0.273136
0.114639
-0.132279
0.193465
-0.0611868
-0.156694
0.0790086
-0.127826
0.0444693
0.151853
-0.516363
0.36451
0.365996
-0.650054
0.284058
-0.413547
0.566696
-0.153149
0.288472
0.133401
0.113418
-0.482443
0.242028
0.130431
-0.13864
-0.414018
0.0480546
0.192971
-0.241026
0.126642
-0.136912
-0.406501
0.5964
-0.189898
0.0522763
-0.259007
-0.0573542
-0.41871
0.541421
-0.122711
-0.214696
-0.381494
0.299694
-0.156996
0.00240522
0.00125859
-0.00366381
0.606107
-0.127046
-0.0383778
-0.0402203
0.363297
-0.568201
-0.377791
0.284167
0.0936233
-0.573755
0.0584522
0.515302
0.454055
-0.0967969
0.0786256
-0.0794612
0.128083
-0.0116213
-0.199404
0.116285
0.19354
-0.320311
0.12677
-0.126154
0.518979
-0.392825
0.268222
-0.2637
-0.581999
0.175497
0.16822
0.118185
-0.253428
-0.376713
0.00194831
-0.0546425
0.519964
0.238962
0.102807
0.236851
0.135179
0.225258
-0.241356
-0.600917
0.462388
0.138529
-0.0675191
0.0980682
-0.0305491
-0.169908
-0.136938
-0.355137
0.506642
-0.330747
0.126762
0.00929073
0.368072
-0.105688
-0.579692
0.325629
-0.113503
0.361099
-0.163483
0.0740403
0.0894423
0.146999
-0.181192
-0.0140824
0.0794327
0.236239
-0.279852
0.0436129
-0.509451
0.207697
-0.471468
0.313623
0.157845
-0.000518521
-0.00219911
0.00271763
0.297448
-0.112255
-0.185192
0.101271
0.0893063
-0.190577
-0.0291501
-0.0878189
0.0514162
-0.0637001
0.0122839
-0.0125128
-0.0532619
0.0657747
-0.109674
-0.0203595
0.130034
0.145424
0.330477
0.0812197
-0.180982
0.0444074
-0.00507415
0.156854
-0.032252
-0.11003
-0.106187
-0.0278242
0.00558116
0.302503
0.0278262
-0.0169688
-0.183122
0.0985806
0.0968097
-0.286288
0.189478
0.208155
-0.0638444
-0.14431
0.58807
-0.227882
-0.360188
0.224469
-0.359076
-0.0731421
0.287898
-0.398807
0.110909
0.275764
0.0850123
-0.360777
0.419506
-0.131034
0.0325449
-0.0435044
0.442575
0.106026
0.46897
-0.02999
-0.43898
0.00498101
0.0197729
0.00405691
-0.0238298
0.18318
0.438222
-0.252949
0.402498
-0.149549
0.524328
-0.0347968
-0.489531
0.21762
-0.250902
0.0332818
-0.00849201
0.0503556
-0.0418636
-0.0789671
-0.155142
-0.167842
0.0211719
0.220395
-0.241567
-0.47483
-0.158513
-0.588856
0.232078
0.192951
-0.187228
-0.251858
0.0731736
0.226976
-0.0715333
-0.579277
0.444158
0.135119
0.471277
-0.0331147
0.102628
-0.34685
0.0733739
0.225212
-0.298586
0.136806
-0.554445
0.417638
-0.0759
-0.00875563
0.0846556
0.385872
-0.265038
-0.120834
0.304203
-0.110663
-0.187492
-0.295766
0.483258
0.0140438
0.0827385
-0.158365
0.219587
0.606977
-0.169008
-0.437969
-0.466335
0.135568
0.166702
0.203632
-0.4601
0.117591
-0.328624
0.211033
0.113965
-0.209233
0.095268
0.0986097
0.370361
-0.0835063
0.00821416
-0.527474
0.108764
-0.118518
0.599649
-0.431714
0.568521
0.636641
-0.117289
0.396779
-0.505491
0.121827
-0.098038
0.131895
-0.00512229
-0.126773
0.0294421
-0.0270908
-0.00235137
-0.223989
0.0896744
-0.145444
0.159619
-0.0847199
-0.461449
0.282242
-0.269401
0.0843803
0.185021
-0.0811283
0.164188
-0.0830592
-0.169205
-0.136987
-0.0817324
0.0352068
-0.116398
-0.0288674
0.145265
-0.161321
0.446497
-0.0959046
0.355697
0.113968
0.441942
-0.55591
-0.105048
0.0883728
0.0166749
0.206085
-0.363199
-0.435594
-0.0589488
0.117833
0.390952
-0.508786
0.00190481
0.12233
-0.54929
0.42696
-0.434487
0.0399523
0.586939
0.625322
-0.222569
-0.402753
0.0446635
-0.0508108
0.106612
-0.265242
-0.264821
0.0449175
-0.112437
0.0992188
-0.518207
0.418988
0.186459
0.438863
-0.396685
-0.115522
0.512207
-0.432114
-0.525432
0.365436
0.159995
-0.0274956
-0.170178
0.0581899
-0.350944
0.130919
0.254953
-0.0121647
0.0529713
0.0490702
-0.282556
0.174362
-0.02072
-0.505553
0.492408
-0.342105
-0.211825
-0.0783809
0.290206
-0.257165
0.401114
-0.143949
0.001674
0.124581
-0.126255
0.174526
-0.215971
0.288519
-0.0725477
0.130885
0.0653579
-0.370718
0.117071
0.253647
0.385828
-0.510057
0.124229
-0.567824
0.207309
0.360515
0.509297
-0.123469
0.612763
-0.462234
-0.150529
-0.289963
-0.132758
0.0987846
-0.0293172
0.000884826
0.400068
0.220051
-0.48121
0.605914
-0.0163943
-0.58952
-0.586939
0.284414
0.108811
-0.393225
0.573862
-0.42167
-0.152192
-0.193451
0.0804131
-0.0346584
-0.0457548
-0.137402
0.110976
0.0264268
-0.389796
-0.171962
0.0250287
0.545617
0.459407
0.000907416
-0.0887573
0.0952582
-0.0193328
-0.0759254
0.0142808
0.11171
-0.206735
-0.388152
0.505985
0.188857
-0.322409
0.137325
0.436537
-0.271434
0.291899
-0.0204652
0.000529997
0.446034
0.15988
0.153284
0.0548712
-0.119262
0.11119
0.0105111
0.109861
-0.120372
-0.0440491
-0.00657541
0.207049
0.0384744
0.242944
-0.262489
0.564009
-0.513564
-0.0504448
0.149121
-0.154025
-0.218255
-0.129193
0.347448
0.11048
-0.197037
0.00809261
-0.230052
-0.337772
0.0814177
0.0218913
-0.103309
-0.280632
0.182351
-0.456318
-0.0871055
-0.0179422
0.0540412
0.0263719
-0.445309
0.588344
-0.143035
-0.0913812
0.197724
-0.106342
-0.0927689
0.455224
-0.0932419
-0.0702407
0.586589
-0.45185
0.152267
-0.176008
0.0237409
-0.467169
-0.150141
0.237156
-0.0848888
0.142238
-0.41761
0.275372
0.133433
-0.010752
0.0704229
-0.121665
-0.0422157
0.163881
-0.364518
-0.120017
0.484535
0.576123
-0.100886
-0.240277
0.313651
0.0435995
-0.0359524
0.200477
-0.0938715
-0.19902
0.156321
0.0426989
-0.0151663
-0.0996603
0.0803275
0.0248003
-0.00295191
-0.118713
-0.071564
-0.012683
0.084247
-0.569303
0.146559
0.422744
-0.346951
-0.109836
0.456788
-0.0415192
-0.333987
-0.212632
-0.0590041
0.271636
0.320282
-0.417833
0.550101
-0.132268
0.500041
-0.0574663
-0.221807
0.242979
-0.00178117
0.0306926
-0.0289114
0.0502306
-0.0135262
-0.0367044
-0.0864192
-0.0469755
0.092822
0.224832
0.126538
0.411519
-0.538057
0.0211716
0.225377
-0.106269
-0.119109
0.0828703
-0.223234
-0.222372
0.304621
0.114886
-0.218638
0.159397
0.0592412
0.0635305
-0.173258
0.109727
0.0144737
-0.118276
0.103802
-0.271756
-0.0360184
0.307775
-0.118284
0.0626628
0.00805924
0.133032
-0.135984
0.0506543
-0.278865
0.228211
-0.044363
0.287307
-0.178249
-0.210628
0.405199
-0.29439
-0.11081
0.180703
-0.121526
-0.102026
0.159497
0.474569
-0.208623
0.0869719
0.121651
-0.168303
0.0750609
0.230315
0.110809
-0.43128
-0.448909
0.594205
-0.145296
0.0960402
0.0521256
-0.0484961
0.254373
-0.0614225
-0.307977
0.42246
-0.114483
-0.00925009
-0.548552
0.557802
-0.0731994
-0.265724
-0.493277
-0.0280932
0.52137
0.00533843
0.116489
-0.0152231
-0.0718718
-0.197481
0.269353
0.328811
-0.089849
0.409245
-0.158165
-0.25108
-0.0693729
-0.412409
-0.0794389
0.0851079
-0.116354
0.23773
0.195396
-0.0967949
-0.124281
0.19883
0.0862465
-0.0711892
-0.0150573
0.0873954
0.182728
-0.0797056
-0.120707
0.231213
-0.254934
-0.115784
0.13256
-0.031978
-0.105424
0.451822
0.17167
-0.623492
0.033441
-0.491284
0.457842
0.480765
-0.12212
0.553933
-0.566666
-0.581924
0.112151
-0.111434
0.576318
-0.0582365
0.0542543
0.454609
-0.607347
0.152738
0.120731
0.434442
-0.555173
-0.0097234
0.0611396
-0.126472
-0.433961
0.560434
0.135216
0.274029
0.0484807
-0.0546149
-0.000750511
-0.200767
-0.408763
0.608099
-0.439971
0.291948
0.0616018
0.144424
0.370102
-0.514527
0.625617
-0.0714423
0.081543
-0.438695
0.559426
-0.113152
0.392939
0.0961465
0.00235752
0.185516
-0.104296
0.227283
-0.089782
-0.137501
0.412094
0.149734
-0.561828
0.17722
-0.0132454
-0.47569
0.61448
-0.13879
0.509291
-0.395323
0.0313092
-0.0295532
-0.00175596
0.569923
-0.157829
0.154282
0.489623
-0.0966839
-0.169101
0.432451
-0.26335
0.132456
0.223884
-0.356339
0.287521
-0.522444
0.234923
-0.521506
0.219743
0.301763
0.119978
-0.564731
-0.0173255
0.371511
0.502267
-0.220646
-0.281621
-0.0503207
0.0592868
-0.00896614
-0.653891
0.263701
0.39019
0.595641
-0.421229
-0.174412
-0.440935
-0.108768
0.549703
-0.252335
0.231319
0.0210157
0.136621
-0.0256453
0.431351
0.0757334
-0.507085
0.0633942
0.35368
-0.207582
0.561454
-0.353872
0.00295317
-0.171385
0.240696
-0.0693111
0.424597
-0.551069
-0.220597
0.384903
-0.450522
0.0656188
0.0343382
-0.0337123
-0.000625877
-0.154515
-0.111489
-0.10448
0.0289758
0.130561
-0.159536
0.0256808
-0.142079
0.52339
-0.424172
-0.38679
0.507425
-0.120635
0.447341
0.148301
-0.410298
0.294683
0.115616
-0.34378
-0.0904051
0.434185
-0.22214
-0.104188
-0.453058
0.557246
0.0875653
-0.129781
-0.509686
0.113001
-0.1594
-0.0592382
0.13736
-0.140095
-0.3031
0.443195
-0.157012
0.478909
-0.321897
-0.24772
0.380158
0.283396
-0.579755
0.236665
0.34309
-0.515912
0.389758
0.0529976
-0.00833416
-0.348475
0.249645
0.09883
-0.0119671
-0.0986537
0.110621
0.62787
0.0444323
-0.529898
0.520648
0.0792431
-0.0821629
-0.57183
0.467641
0.0818912
-0.425672
0.402885
-0.118717
0.0638148
-0.0374497
-0.0263651
0.484478
-0.0130939
0.0796445
-0.0665506
-0.570385
0.340332
-0.325954
-0.223627
0.0363786
0.187248
-0.134498
0.559096
-0.424155
0.28406
-0.177669
0.560545
-0.382876
-0.0131754
0.114556
-0.101381
0.489265
0.345813
-0.46841
0.122596
-0.224951
0.27319
-0.0482395
-0.278229
-0.0801343
0.239531
0.0805105
-0.0387894
0.0333398
-0.0826975
-0.0706287
0.0581159
-0.0347145
0.0720394
0.205464
-0.277504
-0.0107378
-0.0510092
0.061747
0.36298
0.122506
-0.467528
0.61158
-0.144052
-0.104187
-0.391398
0.495585
-0.427919
-0.0901487
0.518068
-0.17697
0.085146
-0.146293
0.10133
-0.181095
0.239445
-0.0583496
-0.351777
-0.157908
-0.600003
0.0975591
0.199226
-0.203903
0.282262
-0.0783592
-0.34173
-0.291856
-0.292713
-0.361178
-0.436193
0.571369
-0.135175
0.428584
0.141339
-0.189698
0.0587272
0.130971
0.150823
-0.5026
-0.00435156
0.0659533
0.422772
-0.55727
0.184087
-0.255959
0.426945
0.185818
0.136207
-0.39069
0.254483
-0.0782177
0.179489
-0.132351
0.506452
-0.374101
0.125921
-0.245873
0.348501
0.561469
-0.421704
-0.139765
0.345173
-0.0438532
0.254666
-0.0184275
0.0628251
0.24572
-0.308545
0.371315
-0.0987304
0.323199
0.0864781
-0.107833
0.0213547
0.0134941
-0.591794
0.411685
0.180109
-0.0140923
-0.0940581
0.10815
0.184416
-0.120885
-0.23707
0.0656843
-0.185152
-0.214643
0.269494
-0.0548507
0.287148
0.110004
-0.397152
0.0157836
0.103717
-0.119501
-0.134524
-0.424429
0.558953
0.00903136
0.0877118
-0.0967431
0.0747837
-0.0835393
-0.26608
0.0888052
0.177275
-0.480297
0.312454
-0.131311
0.43872
0.12275
-0.50252
0.370169
-0.129619
0.116128
-0.0497065
0.127444
-0.545277
-0.715931
0.267825
0.448106
0.464863
-0.393794
0.587709
-0.159125
0.0706786
0.0862858
-0.156964
-0.0207029
-0.107144
0.127847
-0.224337
0.0665016
0.119254
-0.432955
0.313701
-0.420639
-0.00734181
-0.0543579
0.0616997
0.256714
-0.370217
0.00727642
0.0738123
-0.0810887
0.0828647
-0.00423915