/*--------------------------------*- C++ -*----------------------------------*\
| =========                 |                                                 |
| \\      /  F ield         | OpenFOAM: The Open Source CFD Toolbox           |
|  \\    /   O peration     | Version:  v2012                                 |
|   \\  /    A nd           | Website:  www.openfoam.com                      |
|    \\/     M anipulation  |                                                 |
\*---------------------------------------------------------------------------*/
FoamFile
{
    version     2.0;
    format      ascii;
    class       surfaceScalarField;
    location    "100";
    object      phi_0;
}
// * * * * * * * * * * * * * * * * * * * * * * * * * * * * * * * * * * * * * //

dimensions      [0 3 -1 0 0 0 0];
oriented        oriented;


internalField   nonuniform List<scalar> 
20823
(
0.123842
0.0316064
-0.155448
0.332502
-0.243194
-0.089308
0.663862
-0.0925938
-0.571268
0.599685
-0.119533
-0.480152
0.61569
-0.0521048
-0.563586
0.505852
-0.375505
-0.130347
-0.496724
0.386247
0.275775
0.112423
-0.388197
0.547576
0.0521087
0.123875
0.00528571
-0.129161
0.640577
-0.572038
-0.0685392
-0.150063
0.150044
1.91619e-05
0.206516
-0.338883
0.132368
-0.134606
0.341122
-0.731166
0.42551
0.305656
0.141668
-0.216217
0.074549
-0.319
0.205271
0.113729
-0.0461381
0.0952803
-0.0491421
0.353128
0.00452239
-0.35765
-0.190301
0.312594
-0.122294
-0.109713
0.197087
-0.087374
-0.0120199
-0.138044
-0.0230315
0.136043
-0.113012
0.0387404
0.57695
0.489175
0.151402
-0.0940526
0.447181
0.119501
-0.118486
-0.0010147
0.119849
0.106613
-0.128555
0.0219415
0.018075
0.0872781
0.147306
-0.199837
0.0525314
0.389801
-0.114026
0.125393
-0.0953954
-0.0299973
-0.0188327
0.155456
-0.136623
-0.13459
0.194425
-0.0598351
-0.534658
-0.0716304
0.606288
-0.0932741
0.0728826
0.0203915
0.149895
-0.0260199
-0.249618
0.695504
-0.445886
-0.0513431
0.302431
-0.251087
0.0732917
-0.13323
0.0599379
-0.225495
0.115782
0.786363
-0.403024
-0.383339
0.699899
-0.26116
-0.438739
0.743119
-0.327642
-0.415477
0.351763
0.4346
0.0496165
-0.0455823
-0.00403412
0.407781
0.0980704
-0.154654
0.0898952
0.0647584
0.124991
-0.0760426
-0.0489489
-0.135145
-0.22153
0.356675
-0.00403362
-0.52313
0.527164
-0.087739
0.0248048
0.0629342
0.142095
-0.0977658
-0.0443292
-0.195292
-0.123708
-0.239519
-0.0993645
0.0637476
-0.0943391
0.0305915
0.062734
-0.130954
0.0682196
0.127586
-0.146419
-0.057817
0.205123
-0.626232
0.491151
0.135081
0.0335701
0.0914214
-0.109376
-0.0377694
0.147146
-0.405002
-0.179218
0.58422
0.401018
-0.645744
0.244726
-0.473798
-0.0944349
0.568233
-0.0412775
0.16512
-0.0561571
0.103596
-0.0474388
0.597081
-0.488257
-0.108824
0.0449879
-0.241735
0.196748
0.458526
-0.662643
0.204117
-0.635922
0.273468
0.362455
0.0509657
-0.00134923
0.16825
0.167006
-0.335256
0.18065
0.031848
0.606573
-0.170649
-0.435924
-0.0904169
-0.276327
0.366744
0.218341
-0.173353
-0.0580917
0.098952
-0.0910109
0.0980823
-0.00707141
-0.765698
0.352436
0.413262
-0.0892847
0.031193
-0.044911
-0.042828
-0.333265
-0.151374
0.484639
0.0407903
-0.532593
0.491803
0.462549
-0.665609
0.203061
-0.438402
0.331564
0.106838
0.0455821
0.0965129
-0.00694022
0.0456802
-0.03874
0.0663069
-0.256608
0.489591
-0.618396
0.128805
-0.413935
0.571254
-0.299868
-0.271386
0.00980595
0.0576746
-0.0674805
0.459675
0.137406
0.0852162
-0.307199
0.221983
-0.303544
0.168398
-0.0119704
0.675832
0.00449594
0.0734224
-0.0779184
-0.134198
-0.381268
0.515465
0.0703209
-0.544119
0.491705
-0.0839238
0.665282
-0.205607
0.08663
0.347864
-0.434494
-0.0075917
0.0511906
-0.0435989
0.0858066
0.0339274
-0.119734
-0.0506247
0.0436845
-0.463847
0.130582
0.0699077
-0.126065
-0.703214
0.502193
0.201021
-0.00483604
-0.0434533
0.0482893
-0.590707
0.03725
0.553457
-0.402526
0.443316
0.149332
0.329319
-0.478651
-0.590707
-0.37422
0.283803
0.0947339
-0.0202796
-0.0744543
-0.126666
0.558553
-0.431887
-0.0781162
0.0879221
0.0237847
0.101608
0.615708
-0.505743
-0.109965
0.117423
-0.148282
0.030859
-0.0019853
-0.00144445
0.00342975
0.422606
-0.259657
-0.162949
0.000419724
0.0785631
-0.0789828
0.222881
0.348372
-0.516219
0.651426
-0.135208
0.462224
-0.312892
0.00308639
0.0255402
-0.0286266
-0.490615
0.298841
0.191774
0.039267
0.0116987
-0.479546
-0.106166
0.585712
-0.328981
-0.265199
0.59418
0.0589054
0.0197018
-0.0786072
0.049183
-0.00991598
0.0671007
-0.245928
0.178827
0.115813
-0.101789
-0.0140237
0.567322
-0.166304
-0.317807
-0.172808
-0.483913
0.165057
0.318855
0.0707098
0.102439
-0.173149
-0.0107641
0.0778255
-0.0670614
-0.0138401
-0.114629
0.128469
-0.224211
0.167746
0.0564641
0.134461
-0.0278476
0.315196
0.427923
0.609604
0.006104
0.0134585
0.1246
-0.138058
-0.059704
-0.122555
0.196416
-0.0738609
0.296988
-0.211771
0.207746
-0.137036
0.573478
-0.114952
0.279148
0.110653
0.353623
0.138082
0.00315765
0.0356415
-0.0387991
0.0158176
0.321822
-0.337639
-0.273966
-0.352238
0.626204
-0.387902
0.40372
-0.33714
-0.275361
0.6125
0.235121
0.0881154
-0.323236
0.113112
0.00638852
-0.06817
0.0762877
-0.00811773
0.518551
-0.479639
-0.0389117
-0.16524
-0.0323526
0.197593
-0.254737
-0.331493
0.58623
-0.085009
-0.124719
0.209728
-0.0250879
-0.126808
0.151896
0.0311256
-0.0035118
-0.0276138
-0.0360546
-0.311704
0.347759
0.17125
-0.0295828
0.096246
0.0195672
0.109521
0.040523
0.0314029
-0.0061026
-0.0253003
0.435967
0.170606
-0.360717
0.324662
-0.0767551
-0.0221015
0.0988566
-0.0279352
5.68454e-05
0.0278784
0.13787
-0.028349
-0.0764327
-0.147778
-0.119859
-0.054388
0.174247
-0.0296209
0.00168573
0.0492587
-0.215284
0.166026
-0.0866494
-0.395421
0.482071
-0.506509
-0.196705
0.0519011
-0.046993
-0.0049081
0.0685454
-0.0109611
-0.0575842
-0.489132
0.330328
0.158804
0.0392412
-0.0280851
-0.0111561
-0.0511038
0.0435121
-0.0916946
0.003583
0.0881116
-0.137459
0.235114
-0.0976548
0.380106
-0.100958
-0.185436
-0.303696
0.0766773
-0.0867834
0.0101061
-0.0730341
-0.0774784
0.150512
0.0470866
-0.156463
0.0343225
-0.00164994
-0.0326726
0.323674
0.223902
-0.629235
0.131133
0.498102
0.0534305
0.337094
-0.390524
-0.226227
0.0887678
-0.474157
0.493758
-0.0196011
-0.161137
0.122737
0.0931652
0.145031
-0.027608
-0.00527427
0.0690219
-0.130694
-0.0948011
0.353504
-0.508301
0.154797
-0.0229594
0.0260458
-0.0439732
-0.0503659
-0.0724828
0.078857
-0.00637427
0.0850123
-0.00833495
0.599433
-0.204905
-0.394527
0.321
-0.0858789
-0.256468
0.634066
-0.377598
-0.540571
0.0889887
0.451582
-0.616242
0.081584
0.177834
-0.0346758
-0.143158
-0.217309
0.0866149
-0.0495529
0.434521
-0.384968
0.426336
-0.475889
0.198882
0.223724
0.152513
-0.473268
0.320755
-0.667836
0.467382
0.200454
-0.135213
0.112181
0.144357
0.0754917
-0.219849
0.506671
-0.182997
-0.749348
0.283744
0.465604
-0.63756
0.475239
0.162322
-0.017135
0.102942
0.308233
0.123223
-0.431456
-0.508122
0.381455
-0.191585
-0.348986
-0.0027941
0.0713395
-0.074754
-0.0798995
0.737092
-0.316948
-0.420144
0.385302
-0.502987
0.117685
0.547938
-0.530063
-0.0178744
0.00333479
-0.174635
0.427047
0.185805
-0.612852
0.153427
-0.632973
-0.0818697
0.328776
0.408317
0.0375086
-0.0495238
0.0120152
0.00882204
0.0225808
0.41038
-0.306289
-0.104091
-0.485287
0.620639
-0.135352
-0.0588434
-0.365419
0.424263
-0.0285371
0.0286797
-0.000142572
0.635665
-0.492542
-0.143123
0.00627901
-0.0787618
0.358523
0.148149
-0.245706
0.327121
-0.0814156
0.501569
0.0463692
-0.42907
0.139114
0.289956
-0.548428
0.670609
-0.122181
-0.133034
0.0262025
0.106832
0.570648
-0.513549
-0.0570986
0.0613938
-0.107532
0.455693
0.0740141
-0.529708
0.00537608
0.172457
-0.24201
0.0591765
0.182833
0.598278
-0.509289
-0.148023
0.456256
-0.0878519
-0.00315897
0.0764093
0.521869
0.00394564
0.0303769
-0.0673
0.23555
0.0647743
-0.0676508
0.00287649
0.185148
0.514751
0.0788105
0.0940206
-0.172831
0.11807
-0.046535
-0.0715354
0.510068
-0.124766
-0.301755
-0.335806
0.0231322
0.0967163
0.126898
0.283482
-0.121734
0.0279842
0.0937493
0.108594
-0.0746669
0.574906
-0.440311
-0.134594
0.310829
-0.214867
-0.0959619
0.133059
-0.221484
0.0884251
-0.000342736
0.039584
0.0586254
-0.181181
0.00560824
0.0872366
0.097207
-0.034473
-0.092169
0.000474366
-0.261031
-0.114959
-0.0182492
0.133208
0.116458
-0.130298
-0.165153
0.0305627
0.093303
-0.382199
0.288896
-0.0536477
-0.432516
0.486164
-0.0235872
0.432077
-0.408489
-0.144465
-0.451045
0.397397
0.410723
-0.23823
-0.172492
0.410933
0.108343
0.0201705
-0.128514
-0.27723
-0.167299
-0.0987141
0.266013
0.16492
-0.25179
0.0868696
0.60984
-0.533431
-0.264257
0.385508
-0.121251
-0.463276
0.376627
0.0468808
-0.00937215
-0.109491
-0.197591
0.307082
0.106021
0.0140478
-0.120069
0.629013
-0.127445
-0.129477
-0.00807416
0.137551
-0.139208
0.0245789
-0.0857928
-0.0427618
0.0588508
0.550989
0.565315
-0.0757234
0.261549
-0.177123
-0.0844262
-0.321872
0.148158
0.173713
-0.0266064
0.0316582
-0.00505179
0.175084
0.157418
0.0903145
-0.10745
-0.0542553
-0.178682
0.232938
-0.142895
-0.483336
0.302311
-0.0632333
-0.239078
0.131235
-0.0856526
-0.254414
0.0871152
0.189285
0.475997
-0.0437554
-0.00734843
0.107605
-0.178078
0.070473
-0.201499
-0.120373
-0.036381
0.110928
-0.0739901
-0.000891935
0.074882
-0.0106881
-0.154552
-0.539542
-0.0127324
0.552274
-0.0714514
0.00328135
-0.111143
0.00935367
0.244614
0.166108
-0.0701438
0.0648998
0.00524399
0.173227
-0.269922
0.0966955
-0.0275316
-0.00100552
0.121797
-0.10969
-0.0121071
0.145294
0.483719
-0.114523
0.287749
-0.369327
0.488913
-0.119586
-0.139464
0.62864
-0.0583242
-0.0579508
0.116275
0.333899
0.115553
-0.449451
0.137982
-0.0646898
-0.0752957
-0.421429
0.0474916
0.384585
0.318349
0.0250491
-0.343398
0.0411977
0.00448251
0.170333
-0.0627278
-0.332619
-0.0699317
0.402551
-0.615373
0.365755
-0.386522
0.122265
-0.056018
-0.00415761
0.0601756
-0.47855
-0.301272
0.0629714
-0.395591
0.592367
-0.533516
0.00134949
0.110793
0.233595
-0.344388
0.549573
-0.0870239
0.142756
0.121255
-0.264011
0.0496283
0.542739
0.0816427
0.519374
-0.601017
0.2379
-0.0341916
-0.203709
-0.054528
0.451445
-0.396917
-0.597068
0.464942
0.132125
-0.455189
0.400661
0.57497
-0.57497
-0.0162623
0.315103
0.101712
0.00430943
-0.119047
0.0826656
-0.00551226
0.17866
-0.173148
0.134004
0.151745
-0.084518
-0.0753059
0.159824
0.418557
0.202725
-0.621282
-0.687982
0.523492
0.164491
-0.20042
0.268696
-0.0682758
-0.306623
-0.122447
0.134161
-0.503488
0.0401042
0.0911305
0.29146
-0.423954
0.132493
0.0452146
-0.0500506
-0.672817
0.355869
0.20479
-0.0717315
-0.0833553
-0.033975
0.11733
-0.415785
-0.0284276
0.0018212
0.267814
-0.222136
-0.0456779
0.187265
0.133735
0.493184
-0.0374907
-0.0337222
0.198798
-0.112168
-0.0866295
0.0412915
-0.0324695
-0.0244279
0.133852
-0.109424
0.105847
-0.405778
0.299931
-0.492223
0.345414
0.146809
0.415485
-0.276371
0.449774
-0.609497
0.159723
0.472431
-0.617163
0.144732
0.0440689
-0.244489
0.437184
-0.284671
-0.192756
0.265995
-0.0732386
0.556789
0.138715
-0.443044
0.13642
-0.0677433
0.068163
-0.0460384
0.0491961
0.0945254
0.000208523
0.519186
0.122614
-0.6418
-0.0737762
-0.0571773
-0.129686
0.247595
-0.388875
0.14128
0.624891
-0.575262
0.330677
-0.0327399
-0.297938
-0.267414
0.00339326
-0.234437
0.107872
0.126566
-0.368559
-0.129263
0.497822
-0.0652437
-0.0811949
0.146439
-0.30994
-0.325982
0.532184
-0.105137
-0.268372
0.0326004
-0.225357
-0.306567
-0.424599
0.0574991
-0.167165
0.109666
-0.23952
0.252434
0.127672
0.25979
-0.311134
-0.0820255
-0.140365
0.22239
-0.438145
0.308079
0.130066
0.0363517
0.588539
-0.333842
0.428628
-0.094786
0.0512408
-0.225025
0.173784
0.431422
-0.0975234
-0.0903527
0.172689
-0.0823361
0.633535
-0.327711
-0.305824
-0.0815001
-0.0515342
-0.399381
-0.273436
0.404028
-0.0856792
-0.596192
0.567452
0.0287405
0.367821
-0.257028
0.542263
-0.546297
-0.168053
0.109729
0.00451352
-0.0762868
0.0717732
0.318102
0.315434
0.335573
0.151274
-0.486847
0.0472851
-0.00311769
0.630207
-0.488628
-0.14158
-0.417288
-0.211947
-0.348927
0.50838
-0.159453
-0.626893
0.626893
-0.0928983
0.0937522
-0.000853891
0.105506
-0.454433
0.0816625
0.258104
-0.339767
-0.186939
-0.00490483
0.163973
-0.159068
0.278343
0.0240877
0.00572967
-0.128897
0.144104
-0.0152067
-0.0716724
0.0630638
0.00860867
0.548604
-0.130047
0.442991
-0.15153
0.0749622
-0.15948
-0.59635
0.0732195
0.104368
-0.59691
-0.0955311
-0.176534
0.227774
0.1359
-0.0784013
-0.0767785
0.438159
-0.361381
0.261891
-0.455684
0.193793
-0.535686
0.00764974
0.0336418
-0.420688
0.128268
0.29242
0.000192907
-0.0718653
0.280097
-0.0928321
0.121715
-0.0937312
-0.571644
0.429022
0.142623
-0.0432869
-0.00614632
0.0494332
0.463765
-0.201874
0.0649474
0.00814564
0.134745
-0.539748
0.0589556
-0.0341507
0.392316
-0.463946
-0.0364583
0.106366
0.505035
0.0135161
0.2181
0.125189
-0.343289
0.0565665
0.00238906
0.0659356
-0.0571669
-0.00876864
0.0229112
0.363759
-0.440538
0.218061
-0.223574
-0.0880109
0.244899
-0.019699
-0.2252
0.21259
-0.163331
0.226563
0.0757483
-0.0558444
-0.127424
0.379858
-0.0893153
-0.356444
0.568343
-0.211899
0.0989252
-0.123353
-0.535192
0.0189727
-0.4651
0.330903
0.0738616
-0.149167
0.376524
-0.294862
-0.0799731
-0.0445007
0.124474
-0.444757
-0.12152
0.566277
-0.561758
0.369632
0.192126
-0.0399122
0.0482667
-0.00835454
-0.420572
-0.29379
0.0747238
-0.234109
0.159386
-0.122199
0.135657
-0.619089
0.199335
0.419754
-0.244111
0.350138
-0.106026
-0.293219
0.356278
-0.0630587
-0.0688149
0.466659
-0.397844
0.383801
-0.588764
0.204963
-0.484341
0.415526
0.156895
0.25859
0.0932658
-0.43868
0.345414
-0.0195449
0.257445
0.234513
0.00572794
-0.240241
-0.167971
-0.289239
0.45721
0.343664
-0.125564
0.387774
-0.158311
-0.229463
-0.135812
-0.0838058
0.219618
-0.0704287
0.401993
-0.0014565
-0.0545615
0.331418
-0.458526
0.127108
-0.0753112
0.594497
-0.381878
0.262385
0.119493
-0.398474
-0.108708
0.507182
0.612067
-0.587545
-0.0245225
-0.535133
0.280396
0.0169415
-0.0936966
0.235935
-0.160162
-0.0757736
0.0259528
0.0921177
-0.613253
0.073711
-0.346909
0.440175
0.538532
-0.154731
-0.0551114
-0.186898
0.288179
-0.212272
-0.0759062
0.0390541
-0.458988
0.419933
-0.0816619
0.0708978
0.357697
-0.209538
-0.597807
0.479087
0.118719
-0.0040447
0.0295849
0.242111
-0.571092
-0.416135
0.265296
-0.377205
0.111908
-0.105068
-0.0244096
-0.125408
0.456826
-0.220938
0.138912
-0.160363
0.0951194
0.0704595
-0.00568514
0.110515
-0.215982
0.105467
-0.00579521
-0.0082074
0.165268
-0.157061
0.0965305
0.191505
-0.288035
-0.200141
0.0432724
0.156868
0.175895
0.338716
0.108703
0.0900945
-0.171204
-0.392142
0.497611
-0.162038
0.0718372
0.00598839
-0.00398651
-0.0523671
0.0563536
0.102039
-0.0734838
-0.0285556
0.0769344
0.00801294
0.0579226
0.547448
-0.323698
-0.223749
0.00304055
0.0284137
-0.0324583
-0.127536
0.26154
-0.0070495
-0.0606013
-0.170717
-0.0294231
0.187722
-0.305056
0.117334
0.00994452
0.4415
0.582918
-0.133145
0.439503
0.13127
-0.570774
0.0169125
-0.116962
0.100049
-0.0519461
0.265193
-0.213247
0.0242019
-0.098956
0.667988
-0.506833
-0.161155
-0.406848
0.132451
0.274397
-0.239211
-0.00398328
0.182308
0.0855057
-0.32235
-0.259914
0.582263
-0.1647
-0.0547456
0.219445
0.276305
0.0620015
-0.338307
0.244799
0.302649
0.538575
0.0199787
0.0496193
-0.0678129
0.0181936
0.192405
-0.514755
-0.0622613
0.296774
0.163343
-0.495299
0.331956
-0.4411
0.135851
0.221845
0.353877
-0.0935841
-0.260293
0.131121
0.0908932
-0.222014
-0.0211015
-0.00544719
0.0265487
0.0913656
-0.114957
0.023591
0.0393394
0.00362659
-0.042966
-0.0698423
-0.0361319
0.105974
0.376531
0.162001
0.350283
-0.0849864
0.30978
0.0762803
-0.38606
0.21941
-0.271356
-0.53986
0.141386
0.276478
0.0773988
0.207345
0.444081
-0.125376
-0.391733
0.29768
0.0581603
-0.0487146
-0.0094457
-0.00391023
-0.0193827
0.023293
-0.0222429
-0.007378
-0.634576
0.476668
0.157908
-0.272375
0.0127176
-0.0861882
0.45703
0.138093
-0.595124
-0.153627
0.128539
0.549143
-0.172613
-0.147805
-0.036451
0.184256
0.153321
0.0826139
0.0965823
-0.138802
0.0422193
-0.631781
0.173679
0.458102
0.122176
-0.610433
-0.415459
-0.216322
0.0383896
0.0596927
0.237808
0.0140817
-0.251889
0.188761
0.0503604
-0.239122
0.465323
0.0514786
-0.516802
0.296784
-0.109062
0.117116
-0.0929143
-0.150647
0.59015
0.0452923
-0.125265
-0.202246
-0.235899
0.613327
0.0596752
0.00929554
-0.0689708
0.0502094
0.0464849
-0.0966942
-0.00614134
0.0513559
-0.106301
-0.496704
0.115436
0.0952666
-0.654481
0.166917
0.487564
-0.0472179
0.185503
-0.138285
-0.0637572
0.228677
-0.133553
0.300559
-0.27858
0.227683
-0.329302
0.101619
0.230862
0.0573168
-0.588849
0.549123
0.0397267
0.150302
-0.483571
0.333269
-0.0729253
-0.00106475
0.0258524
0.440806
0.392045
0.207388
-0.148211
0.519426
-0.371215
-0.0878668
0.276628
0.0028838
-0.00278974
-0.198866
-0.13639
0.0777282
0.00728406
0.454935
-0.639829
0.184893
0.102921
0.091504
0.481131
-0.617331
0.136199
-0.508815
0.360603
0.621376
-0.16644
0.0270109
0.0682694
-0.205233
0.106692
0.0985406
-0.0770692
0.314877
-0.403773
-0.309924
0.0119871
0.405687
-0.417674
-0.0316735
0.140017
0.0611956
-0.225895
-0.0298547
0.274643
-0.244788
-0.00822031
0.155996
0.154833
-0.584455
0.247315
0.487665
-0.00968328
-0.119214
-0.404238
-0.280653
0.250798
-0.0172259
0.0668452
-0.0462568
0.0964662
-0.433135
-0.0022387
-0.20668
0.257534
-0.0508547
-0.0125459
-0.0997589
0.178569
-0.122631
0.369113
-0.246482
-0.0692382
0.0737518
0.0284895
-0.00308411
-0.0254053
-0.083779
0.0634994
0.285176
-0.600748
0.315572
0.497339
-0.00317804
0.00430813
-0.00113009
0.302226
-0.10594
-0.196286
0.081564
-0.117696
0.339073
-0.244378
-0.0946957
-0.225349
0.0925537
0.132795
0.372029
-0.19409
-0.177939
0.494969
-0.188759
-0.30621
-0.338584
0.298761
0.0398226
0.24619
-0.195794
-0.0503958
0.317626
-0.0899431
0.00567305
0.0836455
-0.0893186
0.37834
-0.633586
0.456149
0.177438
-0.296095
0.636455
-0.340361
-0.00940845
0.0871366
-0.0671132
-0.167324
0.180203
-0.234459
-0.345769
-0.272628
-0.310234
-0.352409
0.189717
0.00736995
-0.624751
-0.0999486
-0.073353
0.173302
-0.0221865
0.118769
0.162086
-0.458181
0.1181
-0.0267342
0.571371
-0.534121
-0.154337
0.0305731
-0.157381
0.190781
0.439427
0.421872
-0.177839
-0.244033
-0.255112
-0.379464
0.0967844
-0.0871648
-0.00961957
0.173555
-0.622199
0.448644
0.209435
-0.201305
-0.00812948
0.286055
-0.189525
0.175802
0.0857468
-0.197677
0.248037
0.194235
-0.409147
0.214912
0.0567038
-0.134455
-0.117335
0.0707481
-0.0125318
-0.0582163
-0.157835
0.254229
-0.0963941
0.477743
0.0011083
0.0625336
0.0297639
-0.0308513
0.00108744
-0.157114
-0.236392
0.393506
-0.463701
0.128651
-0.558862
0.430211
-0.0275442
0.023634
-0.111982
0.132153
0.271864
-0.118542
0.185625
0.28671
-0.472335
-0.229718
0.190361
0.090249
-0.28061
0.01633
-0.164135
0.0263191
0.00217034
-0.596671
0.490505
-0.344976
0.222345
0.00696857
0.0676654
-0.526274
0.431839
-0.158097
0.248327
-0.0902296
-0.0806363
-0.306189
0.102912
0.203277
0.455703
-0.270078
0.303625
-0.471596
-0.00338674
0.0457999
-0.0424132
0.357258
0.158207
0.087986
-0.122342
0.0136603
0.108682
0.358645
0.138966
-0.532527
0.614169
0.0993016
-0.1655
-0.3428
-0.74069
0.290287
0.450402
-0.0831196
0.19555
-0.112431
0.0163463
-0.102139
-0.0965296
-0.614381
0.192601
0.42178
0.354183
-0.300752
-0.0866078
-0.138741
0.20269
-0.312181
-0.000606863
0.0303707
0.0457437
0.529226
-0.311711
-0.428637
-0.193774
0.622411
-0.050442
0.441577
-0.582795
0.141218
-0.0674253
-0.435743
-0.304946
0.0653887
-0.0608928
-0.0102019
-0.101966
-0.633369
0.186596
0.446773
-0.167568
0.0772155
-0.00294006
0.0763625
0.341765
-0.271172
-0.0705931
0.0864929
-0.0164316
0.0189879
-0.00255628
-0.0752942
-0.00976668
0.0850609
0.112422
-0.0955097
0.111476
0.0103209
0.0210063
0.010652
-0.134315
0.225208
0.092131
0.0986541
0.0740347
-0.00217737
-0.0189241
0.4759
-0.158176
-0.317724
-0.0108604
0.0465019
0.200872
0.0453177
-0.0947747
0.285136
0.286405
-0.107744
-0.105573
0.101771
-0.390122
0.288351
0.125991
-0.0134922
-0.112499
-0.016098
0.211422
-0.195324
0.589004
-0.131973
0.273136
0.114638
-0.132265
0.193468
-0.0612027
-0.156584
0.0791059
-0.127826
0.0444709
0.151837
-0.516241
0.364404
0.365997
-0.650056
0.284059
-0.413548
0.566696
-0.153148
0.288471
0.133401
0.113868
-0.482427
0.242035
0.130432
-0.138639
-0.41402
0.0480558
0.19297
-0.241026
0.126702
-0.136903
-0.406503
0.596401
-0.189898
0.0522618
-0.258942
-0.0575097
-0.418712
0.54142
-0.122708
-0.214697
-0.381496
0.299586
-0.15683
0.00240745
0.00125783
-0.00366528
0.606144
-0.127056
-0.0383797
-0.0402276
0.363299
-0.568204
-0.3778
0.284151
0.0936488
-0.573757
0.0584514
0.515305
0.454055
-0.0967968
0.0786223
-0.0795142
0.128082
-0.0116241
-0.199402
0.116283
0.193539
-0.32031
0.126771
-0.126154
0.51898
-0.392825
0.268222
-0.2637
-0.582
0.175497
0.16822
0.118185
-0.253428
-0.376718
0.00194881
-0.0546431
0.519966
0.238964
0.102801
0.23685
0.135179
0.225256
-0.241354
-0.600919
0.46239
0.138529
-0.0675199
0.098069
-0.0305491
-0.169907
-0.13739
-0.354833
0.506642
-0.330747
0.126755
0.00928881
0.368072
-0.105687
-0.579578
0.325614
-0.113502
0.361097
-0.163469
0.0740422
0.0894273
0.147
-0.181191
-0.0140704
0.0794591
0.236238
-0.279851
0.0436132
-0.509452
0.207697
-0.471468
0.313622
0.157845
-0.000531053
-0.0021923
0.00272335
0.297446
-0.112255
-0.185191
0.101271
0.0893073
-0.190578
-0.0291514
-0.0878105
0.0514281
-0.0637134
0.0122853
-0.0125135
-0.0532665
0.0657801
-0.109647
-0.0203623
0.130009
0.145423
0.330477
0.0812204
-0.180979
0.0444121
-0.00507267
0.156851
-0.0322512
-0.110031
-0.106186
-0.0278247
0.00558177
0.302502
0.0278262
-0.0169682
-0.183123
0.0985799
0.0968093
-0.286287
0.189478
0.208154
-0.0638445
-0.14431
0.588069
-0.227882
-0.360188
0.224468
-0.359073
-0.0731444
0.287897
-0.398806
0.110908
0.275757
0.0850342
-0.360791
0.419505
-0.131034
0.0325512
-0.0435124
0.442577
0.106027
0.46897
-0.0299926
-0.438977
0.00497983
0.0197687
0.00405631
-0.023825
0.183236
0.43814
-0.252948
0.402497
-0.149549
0.524331
-0.0347976
-0.489533
0.218044
-0.250616
0.0325725
-0.00849427
0.0503547
-0.0418605
-0.0789694
-0.15514
-0.167842
0.0211719
0.220395
-0.241566
-0.47484
-0.158529
-0.589011
0.232567
0.192952
-0.187224
-0.25186
0.0731777
0.226993
-0.071537
-0.579406
0.444217
0.135189
0.471274
-0.0331151
0.102098
-0.346209
0.073372
0.225214
-0.298586
0.136806
-0.554446
0.41764
-0.0758955
-0.00876205
0.0846575
0.386264
-0.264964
-0.121301
0.304202
-0.110663
-0.188194
-0.295164
0.483358
0.0140474
0.082737
-0.158431
0.219626
0.606985
-0.169027
-0.437958
-0.466273
0.135595
0.166631
0.203632
-0.4601
0.117591
-0.328624
0.211032
0.113432
-0.2086
0.0951675
0.0986118
0.370358
-0.0835092
0.00821505
-0.527472
0.108761
-0.118536
0.599667
-0.431716
0.568522
0.636655
-0.11728
0.396779
-0.505488
0.121824
-0.0980396
0.131892
-0.00512092
-0.126771
0.0294364
-0.0270849
-0.00235146
-0.223989
0.0896742
-0.145446
0.159597
-0.0846351
-0.461443
0.282225
-0.269397
0.0843848
0.185012
-0.0811414
0.164172
-0.0830311
-0.1692
-0.136988
-0.0817361
0.0352011
-0.116395
-0.0288694
0.145264
-0.161321
0.446497
-0.095905
0.355695
0.113962
0.441948
-0.55591
-0.105057
0.0883663
0.0166905
0.206084
-0.363198
-0.435603
-0.0589813
0.117829
0.390955
-0.508784
0.00190477
0.12233
-0.549292
0.426962
-0.434487
0.0399524
0.58694
0.625323
-0.222559
-0.402764
0.0446615
-0.0508078
0.106612
-0.265241
-0.264822
0.0449173
-0.112437
0.0992178
-0.518206
0.418989
0.186442
0.438881
-0.396686
-0.115522
0.512207
-0.432116
-0.525431
0.365437
0.159994
-0.026939
-0.170738
0.0571592
-0.350378
0.131527
0.254737
-0.0121981
0.0529758
0.0490636
-0.282555
0.174361
-0.020718
-0.505556
0.492407
-0.342105
-0.211824
-0.0783814
0.290206
-0.257164
0.401113
-0.143949
0.00166885
0.124578
-0.126247
0.174526
-0.215965
0.288514
-0.0725495
0.131061
0.0653556
-0.370711
0.1171
0.253611
0.385838
-0.510054
0.124216
-0.567814
0.207298
0.360516
0.509299
-0.123461
0.612699
-0.462262
-0.150437
-0.289962
-0.132759
0.0987837
-0.0293129
0.00088524
0.400065
0.220052
-0.481212
0.605915
-0.0163945
-0.58952
-0.58694
0.284413
0.10881
-0.393224
0.573864
-0.421672
-0.152193
-0.193451
0.0804132
-0.0346528
-0.0457604
-0.137372
0.110928
0.0264443
-0.389796
-0.171962
0.0250288
0.545619
0.459282
0.000909016
-0.0887609
0.0952601
-0.0193377
-0.0759223
0.014285
0.111706
-0.206734
-0.388154
0.505983
0.188856
-0.322409
0.137325
0.436539
-0.271428
0.2919
-0.0204718
0.000521346
0.446034
0.15988
0.153283
0.0548709
-0.119253
0.111179
0.0105094
0.109855
-0.120365
-0.0440458
-0.0065789
0.207305
0.0375931
0.242943
-0.262488
0.564048
-0.513572
-0.0504755
0.149119
-0.154024
-0.218254
-0.129192
0.347447
0.110419
-0.197049
0.00809523
-0.230046
-0.337768
0.0814153
0.0218955
-0.103311
-0.280632
0.182351
-0.456318
-0.087097
-0.0179598
0.054048
0.0263652
-0.445312
0.588346
-0.143034
-0.0913818
0.197725
-0.106343
-0.0927688
0.455223
-0.0932292
-0.0702403
0.586592
-0.451846
0.152269
-0.176008
0.0237388
-0.467164
-0.150167
0.237156
-0.0848867
0.142978
-0.417944
0.274966
0.133433
-0.0107529
0.0704281
-0.121664
-0.0422158
0.16388
-0.364518
-0.120016
0.484534
0.576124
-0.100886
-0.240279
0.313651
0.0436076
-0.0359579
0.200542
-0.0938497
-0.19902
0.156321
0.0426984
-0.0151724
-0.0996628
0.080325
0.0248135
-0.00295178
-0.118712
-0.0715616
-0.0126907
0.0842523
-0.569272
0.146395
0.422877
-0.346951
-0.109836
0.456787
-0.0415191
-0.333986
-0.212625
-0.0589954
0.27162
0.320281
-0.417834
0.550102
-0.132268
0.500044
-0.057467
-0.221806
0.242978
-0.00178228
0.0306958
-0.0289135
0.0502258
-0.0135226
-0.0367032
-0.0862617
-0.0469679
0.0927799
0.224846
0.126537
0.41152
-0.538056
0.021108
0.225397
-0.106277
-0.11912
0.0828695
-0.223234
-0.222374
0.30462
0.114885
-0.218642
0.159395
0.0592465
0.0635341
-0.173257
0.109723
0.0144748
-0.118276
0.103801
-0.271805
-0.0360368
0.307842
-0.118284
0.0626792
0.00806895
0.133032
-0.135983
0.0506493
-0.27886
0.22821
-0.0443634
0.287306
-0.178249
-0.210627
0.404933
-0.294002
-0.110932
0.180703
-0.121526
-0.102043
0.159497
0.474569
-0.208622
0.0869729
0.121649
-0.16829
0.0750609
0.230314
0.110807
-0.431145
-0.448912
0.594207
-0.145295
0.09604
0.052129
-0.0485025
0.254371
-0.0614198
-0.307976
0.422458
-0.114482
-0.0092502
-0.548555
0.557805
-0.0723225
-0.266261
-0.493278
-0.0280931
0.521371
0.00533577
0.116488
-0.0152392
-0.071887
-0.197472
0.269359
0.328808
-0.0898439
0.409217
-0.158151
-0.251067
-0.0693649
-0.412489
-0.0794353
0.0851084
-0.116373
0.237628
0.19542
-0.096766
-0.12428
0.198829
0.0862521
-0.0711865
-0.0150656
0.0873912
0.18275
-0.0798291
-0.120716
0.23123
-0.254907
-0.115804
0.132561
-0.03199
-0.105382
0.451711
0.171721
-0.623432
0.033441
-0.491283
0.457842
0.480764
-0.122119
0.553936
-0.566668
-0.581927
0.112114
-0.111381
0.576323
-0.0582409
0.0542544
0.454637
-0.60721
0.152573
0.120731
0.434443
-0.555174
-0.00972585
0.061154
-0.126472
-0.433962
0.560434
0.135198
0.274019
0.0484797
-0.054621
-0.000744623
-0.200754
-0.408765
0.6081
-0.439971
0.291948
0.0616136
0.144424
0.370102
-0.514526
0.625658
-0.0714368
0.0815429
-0.438696
0.559427
-0.11315
0.393158
0.095755
0.00235275
0.185514
-0.104294
0.227285
-0.0897812
-0.137504
0.412095
0.149733
-0.561828
0.177218
-0.0132452
-0.475711
0.614508
-0.138796
0.509288
-0.395326
0.0313129
-0.0295559
-0.00175703
0.569924
-0.157828
0.154281
0.489653
-0.0964943
-0.169089
0.432444
-0.263355
0.131547
0.224281
-0.355828
0.287525
-0.522447
0.234922
-0.521505
0.219743
0.301762
0.119977
-0.564733
-0.0173222
0.371505
0.502266
-0.220646
-0.281621
-0.0503154
0.0592905
-0.00897509
-0.653894
0.263702
0.390192
0.595643
-0.421231
-0.174412
-0.440936
-0.108768
0.549703
-0.252307
0.231831
0.020476
0.136579
-0.0256517
0.431352
0.0757333
-0.507086
0.0633934
0.35368
-0.207582
0.561454
-0.353872
0.00296157
-0.171433
0.240721
-0.069288
0.424598
-0.55107
-0.220597
0.384543
-0.451369
0.0668268
0.0343422
-0.0337167
-0.0006255
-0.154494
-0.111494
-0.104487
0.0289742
0.130562
-0.159536
0.0256837
-0.142078
0.52339
-0.424172
-0.386805
0.507432
-0.120627
0.447343
0.1483
-0.410619
0.294308
0.116312
-0.34378
-0.090406
0.434186
-0.222188
-0.103826
-0.453437
0.557263
0.0875641
-0.12978
-0.509686
0.113
-0.159406
-0.0592357
0.137409
-0.140094
-0.303104
0.443198
-0.157011
0.478908
-0.321897
-0.247702
0.380153
0.283955
-0.579666
0.236714
0.342952
-0.515912
0.389758
0.0529954
-0.00833386
-0.34849
0.24966
0.0988301
-0.0119801
-0.0986429
0.110623
0.62786
0.0444306
-0.529901
0.520651
0.0792521
-0.0821921
-0.571812
0.467986
0.0818919
-0.425672
0.402883
-0.118732
0.0638173
-0.0374441
-0.0263732
0.484478
-0.0131009
0.0796515
-0.0665506
-0.570378
0.340331
-0.325954
-0.223164
0.0354793
0.187684
-0.134499
0.559096
-0.424161
0.284067
-0.177669
0.560544
-0.382875
-0.0131709
0.114549
-0.101378
0.490049
0.345579
-0.468333
0.122754
-0.225088
0.272959
-0.0478705
-0.278226
-0.0801396
0.239535
0.0805106
-0.0387947
0.0333475
-0.0827227
-0.0706345
0.058121
-0.0342637
0.0720353
0.205464
-0.277499
-0.0106717
-0.0509409
0.0616126
0.362979
0.122493
-0.46753
0.611581
-0.144052
-0.104005
-0.391679
0.495685
-0.427919
-0.0901487
0.518068
-0.176969
0.0847152
-0.14687
0.100946
-0.181093
0.239448
-0.0583549
-0.351778
-0.157908
-0.600009
0.0975603
0.199223
-0.203897
0.282182
-0.0782854
-0.34173
-0.291856
-0.292715
-0.36118
-0.436196
0.571371
-0.135175
0.428586
0.141338
-0.189698
0.058726
0.130972
0.150823
-0.5026
-0.00435464
0.0659683
0.422773
-0.557271
0.184076
-0.255963
0.426997
0.185702
0.136207
-0.390689
0.254482
-0.0782196
0.179491
-0.132354
0.506457
-0.374103
0.125923
-0.245813
0.347911
0.561471
-0.421706
-0.139765
0.344684
-0.0433106
0.254666
-0.0184279
0.0628101
0.245774
-0.308584
0.37099
-0.0987294
0.323197
0.0863257
-0.107704
0.021378
0.0135019
-0.591617
0.411509
0.180108
-0.0140983
-0.0940498
0.108148
0.184415
-0.120881
-0.237097
0.0656633
-0.185571
-0.214642
0.269493
-0.0548508
0.287147
0.110004
-0.397151
0.015784
0.103717
-0.119501
-0.134523
-0.42443
0.558953
0.0090548
0.0877143
-0.0967691
0.0747805
-0.0835426
-0.266073
0.0888185
0.177255
-0.480296
0.312454
-0.131306
0.438722
0.122749
-0.502524
0.37017
-0.12962
0.116127
-0.0505196
0.127444
-0.545278
-0.715931
0.267825
0.448106
0.464425
-0.394072
0.58771
-0.159124
0.0706879
0.0862761
-0.156964
-0.0206979
-0.107131
0.127829
-0.224337
0.066502
0.118972
-0.432549
0.313577
-0.420641
-0.00734315
-0.0543621
0.0617052
0.256714
-0.370216
0.00727712
0.0738147
-0.0810918
0.0829169
-0.00429465
0.0883069
-0.0221403
0.103556