/*--------------------------------*- C++ -*----------------------------------*\
| =========                 |                                                 |
| \\      /  F ield         | OpenFOAM: The Open Source CFD Toolbox           |
|  \\    /   O peration     | Version:  v2012                                 |
|   \\  /    A nd           | Website:  www.openfoam.com                      |
|    \\/     M anipulation  |                                                 |
\*---------------------------------------------------------------------------*/
FoamFile
{
    version     2.0;
    format      ascii;
    class       volVectorField;
    location    "100";
    object      U_0;
}
// * * * * * * * * * * * * * * * * * * * * * * * * * * * * * * * * * * * * * //

dimensions      [0 1 -1 0 0 0 0];


internalField   nonuniform List<vector> 
14033
(
(1.03305 -0.0695835 0)
(0.892453 -0.183042 -1.31416e-21)
(1.01632 0.00010317 0)
(1.01695 -0.00126079 -9.85501e-22)
(1.02616 0.00182014 0)
(1.0211 -0.00189241 -7.09731e-22)
(0.878371 0.0879283 2.32277e-21)
(1.02356 -0.0192806 -8.67374e-22)
(1.01687 -0.00119663 2.1006e-21)
(0.758891 0.0421739 1.56063e-20)
(1.03709 -0.00314756 0)
(1.05898 -0.00500723 0)
(1.02359 -0.0100275 -2.2632e-22)
(1.02336 -0.00967103 -3.52158e-22)
(1.02576 0.00101296 3.7898e-24)
(1.04791 -0.00510096 0)
(1.03083 -0.00382206 -1.24163e-21)
(0.542314 -0.141918 0)
(1.01868 -0.00456095 0)
(1.03406 -0.000527585 3.15548e-21)
(1.04448 -0.00448414 4.20809e-21)
(1.05889 -0.00458912 6.63416e-21)
(1.05419 -0.0342752 -1.67313e-20)
(1.02628 0.00185222 3.43787e-24)
(1.03714 -0.00399078 0)
(1.01862 -0.00447582 0)
(1.0673 -0.0218689 -2.54344e-22)
(1.06344 -0.00329087 -1.35639e-20)
(1.07374 -0.0492561 7.21704e-21)
(1.0654 0.000335387 0)
(1.03564 -0.0123634 -1.83785e-21)
(1.0209 -0.0224021 8.60026e-22)
(1.07187 -0.0197343 0)
(1.0324 -0.0227649 1.57911e-21)
(0.996582 -0.0491967 -1.23656e-21)
(1.01387 -3.45498e-05 2.31528e-22)
(0.97843 -0.0323521 -1.70645e-20)
(0.716713 0.0488075 -1.73689e-20)
(1.026 0.00233447 -2.12245e-22)
(1.02819 -0.00653704 2.88184e-21)
(0.776037 -0.115034 -2.7772e-21)
(1.04421 -0.00372868 -6.64114e-21)
(1.01895 0.00339878 0)
(1.02103 0.00043466 3.75915e-22)
(1.01546 0.0140612 8.7454e-22)
(1.01941 0.00353705 0)
(0.793869 0.0046574 1.13677e-20)
(1.02102 -0.0019694 3.34378e-22)
(1.06804 -0.0296837 2.56164e-20)
(1.03936 -0.0315917 1.28051e-20)
(1.02395 -0.00375761 2.61094e-22)
(1.01381 -0.000117508 0)
(0.723639 -0.0155053 -2.16614e-20)
(1.05042 -0.0699588 2.88268e-20)
(1.03111 -0.00352916 1.51173e-21)
(1.024 -0.0100033 0)
(1.07008 0.000718537 -2.81633e-20)
(0.575722 -0.0207469 -1.87586e-20)
(1.03203 -0.022988 -1.15883e-21)
(1.0351 -0.0122437 -1.72423e-21)
(1.02191 -0.00557871 -8.21953e-24)
(1.04024 -0.0320626 -3.80352e-20)
(1.04636 -0.0273027 3.85188e-21)
(1.01925 0.00250885 -1.13765e-22)
(1.01597 -3.01341e-05 0)
(1.02028 0.00218977 -1.06935e-21)
(1.02909 -0.0711671 0)
(1.06513 -0.00940046 -2.7508e-20)
(1.02073 -0.000976843 -5.10567e-22)
(1.02892 -0.0154777 -6.63211e-22)
(1.01561 -8.65196e-05 8.29892e-23)
(1.01749 0.00014144 -1.95754e-23)
(0.786434 0.00452366 -7.2766e-21)
(1.03238 0.000941303 0)
(1.04691 -0.000568175 -8.88638e-21)
(1.02027 0.00175357 3.80516e-22)
(1.02219 -0.000484429 -1.55986e-23)
(1.02893 -0.0163746 -1.05633e-21)
(0.399801 0.0620511 0)
(1.0665 -0.0011671 -1.04479e-20)
(1.01929 0.00475126 -6.89369e-22)
(0.44031 0.0477576 5.59848e-21)
(0.721089 -0.0166105 -4.17997e-20)
(1.01713 -0.00121044 -1.491e-21)
(1.01889 0.000265573 0)
(1.01715 1.62131e-05 -4.94584e-22)
(1.01787 -0.00545571 0)
(1.05216 -0.0725353 -1.8841e-20)
(0.817828 0.00484724 1.1398e-20)
(1.03376 1.24718e-06 -6.05152e-21)
(1.01603 -0.000246315 2.12092e-21)
(1.01863 0.00499194 0)
(1.0113 0.00504034 0)
(1.08282 -0.00418175 -2.79196e-22)
(1.01941 -0.000534858 1.05589e-21)
(0.951893 -0.0195305 0)
(1.02425 -0.00396088 0)
(1.01511 9.33477e-05 5.07381e-22)
(0.862142 -0.0278876 0)
(1.01545 -0.000326177 1.32402e-21)
(1.02024 0.00216598 1.43345e-21)
(1.02078 -0.00200031 -2.3775e-22)
(1.01908 5.8544e-05 -2.98142e-22)
(1.02017 0.000434644 0)
(0.787462 0.00518953 1.20619e-20)
(1.06892 -0.0119648 -1.44909e-20)
(0.854778 0.00531569 0)
(1.01709 -0.00134233 0)
(1.06453 -0.00928251 1.37638e-22)
(1.0141 -4.28659e-05 -5.73053e-22)
(0.816547 0.00263676 0)
(1.0093 1.95131e-06 0)
(1.0182 0.000166419 -8.41987e-22)
(1.03807 -0.0516905 0)
(1.00612 4.6388e-05 0)
(1.02197 -0.000265228 3.60959e-23)
(1.06924 -0.00154376 2.04947e-20)
(1.02699 0.00283374 7.70276e-23)
(1.08036 -0.00509032 -4.29997e-20)
(1.07139 -0.0202025 0)
(1.01732 -0.000676692 0)
(1.05516 -0.0097542 3.46236e-21)
(-0.0157687 0.0573901 2.62773e-20)
(1.01764 -0.00571606 -6.99426e-21)
(1.08616 -0.00985009 -1.54787e-20)
(1.01286 0.0065617 0)
(1.01955 0.0015804 -8.47299e-22)
(1.03063 -0.0445168 1.10991e-22)
(0.593145 0.0131952 1.12667e-20)
(1.02167 -0.00172658 0)
(0.784553 0.00525594 6.46346e-21)
(1.01811 0.000258441 3.45849e-22)
(1.02701 0.00258574 -1.16646e-24)
(0.972726 -0.0123857 -2.88935e-21)
(0.807933 0.00376725 0)
(1.02934 -0.0148296 -8.90121e-22)
(1.06451 -0.00380586 1.16571e-20)
(1.01539 -3.42933e-06 0)
(1.02182 -0.00175215 -3.0967e-22)
(1.01401 0.0100661 -1.70132e-22)
(1.03633 -0.0184405 0)
(1.07783 -0.00212038 1.81145e-20)
(1.06071 -0.0141541 -5.9741e-21)
(1.04824 -0.00700133 0)
(1.07056 -0.0502131 1.14427e-20)
(1.01899 0.0134108 -1.09922e-21)
(1.01721 -0.000666317 -5.85909e-22)
(1.05485 -0.0180311 0)
(0.990859 -0.0309129 5.73363e-20)
(0.976256 0.0299772 -5.88793e-21)
(0.939238 -0.0121162 8.76935e-21)
(1.03604 -0.0180531 1.7151e-21)
(1.01519 -5.39722e-05 -6.62009e-22)
(1.0166 -0.0233148 2.69985e-21)
(1.0207 -0.00205134 4.58604e-22)
(0.750321 -0.00401237 1.83199e-20)
(1.02199 -0.000746088 1.97966e-22)
(1.01821 0.00119229 1.39285e-21)
(1.02128 -0.00091538 -1.96328e-21)
(1.02589 0.00136076 0)
(1.01263 -0.0108885 0)
(1.06777 -0.0230005 -1.47651e-20)
(1.00533 -0.0164352 4.97885e-21)
(1.01707 0.000422913 0)
(1.04491 -0.0104033 2.24778e-21)
(1.01653 -0.000299033 0)
(1.03524 -0.0176024 1.79024e-21)
(1.05294 -0.00580547 0)
(0.289478 0.0198665 4.2186e-20)
(1.0202 -0.00475334 -1.37155e-21)
(1.04822 -0.00536667 4.03527e-22)
(1.06488 -0.00405025 -1.51597e-20)
(1.05882 -0.00538109 -7.37486e-21)
(0.512989 0.0231623 -9.00045e-22)
(1.02039 0.00177042 -3.86267e-22)
(1.0202 -0.00446477 1.23224e-21)
(1.07121 -0.0127256 1.04804e-20)
(0.630646 0.0148629 -1.17251e-20)
(1.05835 -0.00572872 0)
(1.04838 -0.00656653 -5.72086e-21)
(1.03268 -0.059289 -3.38503e-22)
(0.612448 0.0162023 -5.97151e-21)
(1.03528 -0.0106196 3.03889e-21)
(1.02264 0.000664043 1.09629e-21)
(1.01403 -3.48492e-05 -4.89452e-22)
(0.824245 0.00468383 1.1039e-20)
(0.872183 -0.0168988 0)
(1.02195 -0.00127898 0)
(0.29062 0.0192922 0)
(0.821683 0.00452549 -1.24624e-20)
(1.08206 -0.0230116 -1.31714e-20)
(1.03501 -0.0166099 3.1165e-21)
(1.01417 -0.0235403 -1.83636e-21)
(1.0221 -0.00122701 -6.33903e-23)
(1.08677 -0.0119745 0)
(0.859363 -0.0836441 1.03447e-20)
(1.04688 -0.0254475 0)
(0.618461 0.0130188 -1.40655e-20)
(1.01687 -0.00109306 -1.87076e-21)
(1.01406 3.11724e-05 1.54341e-21)
(1.01758 -0.00456888 -1.19163e-21)
(1.0352 -0.015999 -4.07202e-23)
(1.01559 -1.30867e-05 -1.30868e-21)
(1.03502 -0.0574953 0)
(1.03549 -0.0182014 1.62296e-21)
(1.01547 4.32695e-06 1.00438e-21)
(1.05453 -0.0101343 3.27677e-21)
(1.07069 0.000329325 4.03631e-20)
(1.04448 -0.00324093 3.86856e-21)
(0.953012 -0.0372547 0)
(0.567095 0.0144097 -1.98571e-20)
(1.06938 0.000576731 0)
(1.07776 -0.00527686 0)
(1.08624 -0.0121369 0)
(1.02551 0.00199877 7.32867e-23)
(1.01308 -0.0092398 9.04931e-23)
(1.01509 -0.000214923 2.25834e-21)
(0.948283 0.0649196 -1.11865e-21)
(1.0126 -5.33152e-05 1.48407e-21)
(1.02888 -0.0225492 -2.81961e-22)
(1.04415 -0.00279376 7.03518e-21)
(1.02083 0.00276565 0)
(1.02052 0.00243926 -1.10035e-21)
(1.01773 -0.00569883 4.3748e-22)
(1.01942 -0.000793407 -1.01697e-21)
(1.01548 0.00149494 0)
(1.0538 -0.0311871 -3.20118e-21)
(1.03598 -0.0153172 -3.4072e-21)
(1.0168 -0.0010212 1.89632e-21)
(1.02424 0.00301598 -9.09306e-23)
(1.01812 0.000351737 -8.49025e-22)
(1.06846 -0.0127249 1.56375e-20)
(1.02133 0.000427312 0)
(1.02712 0.00297248 3.61874e-23)
(0.936215 0.0786792 2.88579e-21)
(0.890354 -0.0188155 2.04215e-20)
(1.06841 -0.0298247 1.58361e-20)
(1.02444 0.00339953 1.06419e-22)
(1.01667 -0.000831518 5.47362e-22)
(1.01709 0.00010637 -7.31653e-23)
(-0.0231728 0.0481886 1.2067e-20)
(1.02951 -0.0152072 1.79502e-21)
(1.01605 -0.000411581 -1.55716e-21)
(1.01835 0.000254116 -3.69506e-22)
(1.03584 -0.0158882 0)
(1.02435 0.00342084 -5.39676e-22)
(0.788552 0.00557646 -2.45557e-20)
(0.491717 0.0192426 2.78537e-20)
(1.01798 -0.00552737 -3.20601e-21)
(1.02577 -0.00301866 6.60594e-22)
(1.01972 -0.00118548 5.98228e-22)
(0.572026 0.0153205 1.05896e-21)
(1.02364 0.00358286 6.14096e-22)
(1.07782 -0.0050361 -1.62942e-20)
(1.01677 -0.000948036 -2.01088e-21)
(0.894811 -0.171884 1.20149e-22)
(1.01714 0.00018906 -1.95559e-21)
(1.0198 -0.00552888 0)
(1.02354 0.00415118 0)
(1.07852 -0.0511027 0)
(1.02209 0.000199458 4.90071e-23)
(0.638884 -0.132227 0)
(1.03664 -0.040581 7.87828e-22)
(1.0286 -0.0211231 -6.12415e-23)
(1.0365 -0.00859799 1.50089e-21)
(0.974256 0.0603923 -1.659e-21)
(1.02108 0.00024666 -6.51375e-23)
(1.06583 -0.00113774 0)
(0.985609 0.032904 1.22912e-21)
(0.631138 0.0128663 2.13547e-20)
(1.03259 0.000300794 -1.81937e-21)
(0.930768 -0.0175908 2.33841e-20)
(1.02125 0.00041584 0)
(1.04574 -0.020423 -1.30257e-22)
(1.08461 -0.0357464 -2.0661e-20)
(1.01661 -0.000744805 0)
(1.01802 0.000362814 9.6555e-22)
(1.06375 -0.00363748 3.59694e-20)
(1.01791 -0.00559987 -1.55171e-21)
(1.08291 -0.0565771 0)
(1.06991 -0.0121865 8.00059e-21)
(1.01702 0.000325831 -9.41692e-22)
(1.04089 -0.080302 -1.38993e-21)
(1.047 -0.00315601 0)
(0.368573 0.000785547 2.93256e-20)
(0.954905 0.0289734 0)
(0.775732 0.00506721 -4.05081e-20)
(1.02348 0.00369101 0)
(0.497291 -0.0118808 0)
(1.08257 -0.021435 2.93348e-20)
(1.01198 0.00955006 -3.49706e-21)
(1.05807 -0.00650491 1.85906e-20)
(1.05994 -0.0137502 -1.73159e-20)
(1.00343 -0.0544513 -1.31515e-23)
(1.02041 -0.00433601 0)
(1.02302 0.0037508 6.72304e-22)
(1.02139 0.002205 0)
(1.0167 -0.000877955 1.96098e-21)
(1.0225 0.0033406 0)
(1.01641 -0.00600108 0)
(1.02102 0.00231767 0)
(1.04661 -0.0797565 0)
(0.880782 -0.177556 0)
(1.03425 -0.00126723 0)
(1.03258 -0.0207318 -6.48678e-23)
(1.01135 0.0381059 3.90238e-22)
(1.02473 3.68021e-05 0)
(1.02188 0.00125928 0)
(0.814789 0.00521799 1.55897e-20)
(1.02903 -0.00418775 1.74826e-21)
(1.06437 -0.00487452 1.4499e-20)
(1.01712 0.000236521 9.71091e-22)
(1.06497 -0.0335569 1.96076e-20)
(1.06135 -0.0134115 -2.05235e-21)
(1.07556 -0.0469314 2.65323e-20)
(1.02021 0.0148235 0)
(1.01511 -0.000272468 -2.51041e-21)
(1.03085 -0.0214278 -1.01338e-21)
(1.01526 -0.0187042 -2.62005e-21)
(0.57818 0.0148955 0)
(0.884046 -0.187102 6.05425e-21)
(1.06765 -0.0128259 2.91273e-20)
(1.03218 -0.0167466 2.67348e-21)
(1.02548 -0.00704613 6.97762e-22)
(0.9608 -0.0385359 0)
(1.00289 -0.0722913 0)
(1.03473 -0.00111862 2.53233e-21)
(1.01817 5.89602e-05 -7.11361e-22)
(0.833985 0.0044141 -1.19038e-20)
(1.04997 -0.0247969 0)
(1.01624 -0.0203182 1.44342e-21)
(0.472663 0.148337 -3.62662e-21)
(0.783604 -0.027953 2.95281e-20)
(1.04495 -0.0101243 -7.18027e-22)
(1.02404 0.00101332 -1.70428e-22)
(0.984145 -0.0147303 -1.6214e-21)
(1.06442 -0.00344547 -1.60548e-20)
(1.01593 -0.00552025 -1.81853e-21)
(0.91963 -0.0125909 0)
(1.03112 -0.00139063 -4.22466e-21)
(0.587433 0.0145332 -1.90329e-20)
(1.06121 -0.020486 8.44375e-21)
(1.01716 0.00029906 0)
(1.03067 -0.00162717 3.83028e-21)
(0.972924 -0.0012699 3.15178e-21)
(1.0326 -0.00692404 1.06553e-22)
(1.05424 -0.0054016 1.36664e-20)
(1.02029 -0.00181931 2.95324e-22)
(0.826058 -0.104873 0)
(0.876276 0.0662842 -9.20523e-22)
(1.02142 0.00189186 0)
(1.02341 -0.00488801 0)
(0.816777 0.0046669 -1.12518e-21)
(1.04995 -0.0258975 8.51407e-21)
(1.01759 -0.00419392 1.73895e-21)
(1.02582 0.00219003 0)
(1.02503 0.000290835 0)
(0.795934 -0.0187977 0)
(1.01576 0.000559738 -3.17592e-22)
(1.02107 0.000202768 2.25096e-21)
(1.01763 -0.00423773 0)
(1.03493 0.0153406 8.28128e-22)
(-0.0186637 0.0530147 1.12958e-20)
(1.01952 -0.00608597 -2.43581e-21)
(1.01662 2.0265e-05 9.71535e-22)
(1.03323 -0.0431734 9.95619e-22)
(1.03852 0.00220503 -4.21337e-22)
(1.02727 0.00511504 0)
(1.03117 -0.00787211 0)
(1.02161 0.00339646 0)
(1.01627 0.0056099 4.09619e-22)
(1.02141 0.00306112 -8.20765e-22)
(1.00602 2.62088e-06 6.10512e-22)
(1.02175 -0.00186637 0)
(1.06434 -0.00512791 -1.44457e-20)
(0.537766 0.133765 3.74526e-21)
(1.03221 -0.00713138 1.90038e-21)
(1.04001 0.00192309 0)
(0.979035 -0.075106 -2.27769e-22)
(1.02226 0.000938739 -2.37897e-22)
(1.02366 0.00276817 0)
(0.974411 -0.0391379 -7.32392e-21)
(1.01998 -0.0056365 8.55754e-22)
(0.970782 -0.0174144 -2.5324e-21)
(0.995952 -0.0804601 -2.13136e-20)
(1.01798 -0.00162531 -2.63095e-22)
(0.849958 0.00130111 0)
(1.02391 0.00350675 4.54254e-22)
(1.04739 -0.0039871 -2.29939e-21)
(1.06267 -0.00751161 -1.04113e-20)
(1.02198 0.00155911 -1.04833e-21)
(0.600661 0.0149093 0)
(1.03852 0.000333043 3.87039e-21)
(1.01307 -0.0085391 -3.00914e-21)
(1.03873 -0.0574162 0)
(0.437292 0.147651 0)
(1.00639 -0.0341634 7.2871e-22)
(0.632464 -0.00202514 2.36225e-20)
(1.05406 -0.0402434 -1.45271e-20)
(1.02166 0.000121975 0)
(1.05209 -0.0508983 0)
(1.0197 -0.00568912 0)
(1.01991 0.0017692 -8.48431e-22)
(1.02219 0.00889404 2.45935e-22)
(0.98193 -0.0411372 7.51302e-21)
(1.01958 -0.000897446 5.55992e-22)
(1.02997 -0.0234171 4.31233e-23)
(1.02615 0.00233939 1.86434e-22)
(1.0201 -0.0058848 -2.50261e-21)
(1.08745 -0.00788147 -2.94742e-22)
(0.775018 -0.00643978 -2.97114e-22)
(1.06966 -0.00159587 -1.03981e-20)
(1.01451 -2.40085e-05 1.85361e-21)
(0.594134 -0.0366694 8.84679e-21)
(1.01629 0.00509962 0)
(1.02256 -0.00687787 -4.17223e-22)
(1.04283 0.00269568 4.65606e-22)
(1.0253 0.000641858 1.27256e-22)
(1.02041 -0.00455755 0)
(-0.0160194 0.0534024 -4.73938e-20)
(1.03613 -0.0195625 -1.86963e-21)
(1.05141 -0.0580574 0)
(1.05312 -0.00899337 4.73753e-21)
(1.01737 0.00015038 0)
(1.01563 -0.000369398 1.30784e-21)
(1.02193 -8.74996e-05 0)
(1.03065 -0.0237508 -1.81299e-23)
(1.02566 0.00106478 -3.39308e-23)
(1.04474 -0.0214468 0)
(1.01769 -0.0053795 0)
(1.00945 -0.0198654 1.84201e-21)
(1.02796 -0.00601308 4.38573e-22)
(1.0346 -0.0146422 2.71465e-21)
(1.02168 -0.003824 -1.4248e-22)
(1.04248 -0.00055553 -3.9905e-22)
(1.01765 -0.00387019 0)
(1.03093 -0.0116512 -1.5583e-21)
(1.02009 -0.00182761 0)
(1.02006 -0.0362683 1.64482e-21)
(0.893507 0.0874256 -1.73625e-21)
(1.07952 -0.0478829 -1.78909e-20)
(1.02397 0.00355844 5.29447e-22)
(1.02307 -0.00478572 0)
(1.01499 7.89236e-05 0)
(1.02034 -0.00666462 -4.48234e-21)
(1.01525 -0.000135333 1.27144e-21)
(1.05402 -0.00443287 -5.12776e-21)
(1.04845 -0.0193376 0)
(0.892402 0.0839731 -1.82372e-21)
(1.01732 -0.00184856 1.52543e-21)
(0.801099 0.00422285 0)
(1.0202 0.00738114 -6.32687e-22)
(1.0136 -3.28246e-05 -6.79366e-22)
(1.06839 -0.00634107 -1.70618e-21)
(1.00643 6.1229e-05 5.94914e-22)
(1.08002 -0.0239593 0)
(1.05327 0.0185917 3.89295e-22)
(1.01858 -0.00241709 1.32271e-21)
(1.02584 0.000960356 0)
(1.04809 -0.0143955 -1.16891e-20)
(1.02795 -0.00642521 -2.12152e-21)
(0.796858 0.00382735 -3.59199e-21)
(1.07431 -0.0635578 0)
(1.06841 0.000939451 -9.28099e-21)
(1.02226 0.000940363 6.83168e-22)
(1.01787 -0.00156172 0)
(0.998987 -0.0749861 8.60431e-22)
(1.01266 -0.000115671 -4.30389e-22)
(1.02369 0.00338203 -5.41619e-22)
(1.08286 -0.0521347 0)
(1.03104 -0.0121071 0)
(1.04481 -0.0221558 -7.66949e-21)
(1.01753 -0.000227364 -3.06137e-21)
(1.02101 0.00170666 1.74853e-22)
(1.04018 0.00168881 0)
(0.660516 -0.00324605 0)
(1.0179 -0.00574092 0)
(1.0679 0.000621528 1.49819e-20)
(1.0139 -0.00815113 -7.30374e-23)
(1.08793 -0.0575733 0)
(1.01598 5.43149e-05 6.80571e-22)
(0.833814 0.00516383 5.05338e-21)
(1.02076 0.00148729 0)
(0.812262 -0.0952318 -1.11415e-20)
(0.810567 0.00558939 1.26493e-20)
(1.0196 0.00205405 5.45941e-22)
(0.583041 -0.0133487 -2.64123e-22)
(1.01566 -8.55692e-05 -2.96845e-21)
(1.06418 -0.00990496 6.92331e-21)
(1.01711 0.000467673 6.03656e-22)
(1.02753 -0.000907312 3.10579e-21)
(0.520223 -0.00925703 4.94768e-20)
(0.632465 -0.036979 3.39596e-20)
(1.05834 -0.00627814 -1.96286e-20)
(1.01751 -0.000221983 -7.42031e-22)
(1.03207 -0.0066621 0)
(1.06403 -0.00325313 -7.79978e-21)
(0.750041 0.0195264 2.38994e-21)
(1.03538 -0.0112916 0)
(0.9532 -0.0409898 7.65364e-21)
(1.02502 0.000380391 0)
(1.00719 -0.0188673 -3.63456e-21)
(1.08065 -0.0227588 0)
(0.950518 0.0354449 -1.16358e-21)
(1.05359 -0.0373351 0)
(1.01955 0.00157353 5.47988e-22)
(1.01595 -0.000411044 8.12851e-22)
(0.977592 -0.0910804 -1.71185e-21)
(1.01852 -0.0023132 0)
(1.06329 -0.0251404 1.64911e-20)
(1.02209 0.00248578 0)
(1.01552 -0.000269263 2.69564e-21)
(0.825342 0.00499173 0)
(1.02453 0.00281643 9.3951e-22)
(1.01797 -0.00560051 3.19313e-21)
(1.02984 -0.0140053 0)
(1.05561 -0.0191297 0)
(1.02047 0.00172049 -3.68562e-22)
(0.821399 -0.0953399 -1.00751e-21)
(0.825538 0.0469854 4.80957e-21)
(1.02047 0.00256587 8.96858e-22)
(1.02094 -0.0595063 0)
(1.02043 0.00238446 -8.82215e-22)
(1.01951 -0.00558208 9.70423e-22)
(1.01742 0.0020625 0)
(1.0307 -0.00788098 0)
(1.02701 -0.0163218 0)
(1.0206 0.00114403 0)
(1.02713 -0.00100235 -2.07192e-21)
(1.02065 -0.00636641 0)
(1.0343 -0.0170525 0)
(1.018 -0.00550469 8.14893e-22)
(0.777485 -0.0166653 0)
(1.01736 -0.000457448 -1.75053e-21)
(1.0128 2.62199e-05 -1.75897e-21)
(1.01952 -0.00684369 -2.92415e-22)
(1.01722 0.000239024 1.97441e-21)
(1.01719 -0.000364548 -1.85483e-21)
(1.01716 -0.000383304 -1.18899e-21)
(1.07165 -0.0119557 -3.43614e-20)
(1.02867 -0.0197119 2.18506e-22)
(1.08447 -0.0368747 9.95798e-21)
(1.02388 0.000968629 0)
(1.01768 0.00365591 0)
(1.01218 -0.057644 0)
(1.03679 -0.00816541 0)
(0.944814 0.0135572 0)
(1.02097 0.00283644 -1.01674e-22)
(1.07671 -0.00345862 -1.53142e-20)
(1.01344 -0.020707 2.55377e-21)
(1.02478 0.0107365 0)
(0.609628 0.0124064 -1.36294e-20)
(1.02679 0.00244132 1.71497e-23)
(1.02102 0.0031504 9.07258e-22)
(0.994122 -0.0108905 0)
(1.06638 -0.0341714 -3.0845e-20)
(1.01738 -0.00041986 2.3163e-23)
(1.03498 -0.0150985 0)
(1.05273 -0.00847695 0)
(0.953212 -0.0192684 -4.23262e-20)
(1.03247 -0.0216586 2.01596e-21)
(0.808045 0.00578294 1.07875e-21)
(1.0461 -0.0130855 -5.1421e-21)
(1.03298 0.00287708 -3.73402e-21)
(1.04433 -0.0083335 0)
(1.01789 0.00129767 -8.63388e-22)
(1.00666 -0.0343239 3.11017e-21)
(1.02988 -0.0143741 0)
(1.01694 6.19341e-05 1.07458e-21)
(1.01727 -0.00173522 -3.0771e-21)
(1.07903 -0.00320115 0)
(1.02697 0.00620377 0)
(1.0907 -0.0284738 -2.47095e-22)
(1.01714 -0.000367301 2.28801e-21)
(0.589168 -0.0413143 -2.92297e-20)
(1.01753 -0.00211415 -1.59956e-21)
(0.37173 0.00687363 -4.08047e-20)
(0.633085 0.0110719 0)
(1.03923 0.00129867 0)
(0.948372 -0.016635 2.11612e-20)
(1.04439 -0.00837137 0)
(1.0279 -0.012135 -9.18997e-22)
(1.02195 0.00323958 6.81555e-22)
(1.01989 0.0017573 1.13891e-21)
(1.02046 0.001942 0)
(1.07179 -0.0369832 -1.37876e-20)
(1.02592 -0.0101181 0)
(1.06801 -0.0276284 6.79453e-21)
(1.02001 0.00162252 3.53795e-22)
(1.01793 -0.00610617 0)
(0.936915 -0.186184 0)
(1.03835 0.000155585 0)
(1.01521 0.000130992 0)
(1.03601 -0.0147774 -7.63117e-22)
(1.01985 -0.00723111 0)
(1.01745 -0.00206419 1.4228e-21)
(1.02708 0.00291684 -3.28211e-24)
(1.06224 0.00785847 0)
(1.01409 7.13943e-05 0)
(1.02637 -0.0163167 2.44383e-23)
(1.01929 -0.000593625 0)
(1.02205 0.00356194 4.49669e-23)
(1.01253 -0.0188672 0)
(0.800415 -0.0444327 1.13876e-21)
(1.04412 -0.00180667 -6.88454e-21)
(0.464482 -0.00451551 -1.06593e-20)
(0.928605 -0.0868816 2.19032e-20)
(0.801122 -0.000624652 -4.31173e-20)
(1.06326 -0.010262 0)
(0.998066 -0.0427255 -7.64863e-22)
(0.993665 -0.00627495 -1.30592e-21)
(0.996851 -0.0153734 0)
(1.02594 -0.00972531 0)
(1.01726 0.000112623 -2.42282e-21)
(0.791634 -0.014322 9.12512e-22)
(1.01965 0.0016004 0)
(1.0235 0.0101055 0)
(1.01868 -0.00421995 1.93417e-21)
(0.729313 -0.0145277 -1.28127e-20)
(0.585603 0.0153355 -1.84639e-20)
(0.621862 0.015116 5.14588e-21)
(1.01557 -0.000313881 0)
(1.01773 -0.00584338 4.77823e-21)
(1.04446 -0.00221109 3.80723e-21)
(1.02364 0.00694151 -2.43e-22)
(1.05254 -0.00533878 -1.67544e-20)
(0.992074 -0.0374561 7.15094e-22)
(1.03461 -0.0295924 0)
(1.02915 -0.0191745 1.72019e-22)
(1.05587 -0.00450228 2.68783e-20)
(1.02063 0.000446554 -5.20209e-22)
(1.02102 -0.00132118 0)
(1.02043 0.000478928 0)
(1.06678 -0.00141915 1.24755e-20)
(1.02855 -0.0112419 -7.69714e-22)
(1.06685 -0.0246874 0)
(1.02472 0.00157342 1.05291e-22)
(1.02748 -0.0118329 8.66833e-23)
(1.06642 -0.0275278 -2.80839e-20)
(1.02045 0.00189529 -1.67927e-22)
(1.06277 -0.0236371 -2.33579e-20)
(1.02184 -0.00382488 4.86873e-22)
(1.01958 -0.00421882 -3.26943e-22)
(1.07019 0.00509721 -8.18198e-21)
(1.06688 -0.00621364 9.48611e-21)
(0.871854 0.000214042 0)
(1.06363 -0.00984691 -6.7856e-21)
(1.01537 -0.000329168 -1.4515e-21)
(1.01706 0.000394708 5.5583e-22)
(1.0223 0.00885114 -2.50634e-22)
(1.04751 -0.00161033 -5.00309e-21)
(1.0339 -0.0202595 2.68019e-22)
(1.03183 0.000434048 0)
(1.01808 -0.00581217 0)
(1.00914 -0.0185694 -1.73448e-21)
(0.946192 0.019379 5.23546e-21)
(1.01839 0.000179459 -4.83443e-22)
(1.01826 -0.00104387 1.95773e-23)
(0.744062 -0.0208036 -5.11326e-20)
(1.02071 0.00266931 -8.28667e-22)
(1.02559 0.00199645 -1.88109e-22)
(1.02222 0.00132513 1.46958e-21)
(1.08231 -0.0417167 0)
(-0.0277049 0.0421564 0)
(1.03238 0.000884669 -2.58712e-21)
(1.08741 -0.0142043 0)
(1.03502 0.0027435 2.0632e-22)
(0.992338 -0.04887 -2.82864e-22)
(1.02826 0.0073419 0)
(1.02212 0.00192033 5.47767e-25)
(1.03197 0.000693551 -1.2597e-22)
(0.504766 -0.141645 0)
(0.999987 -0.0240876 -5.35543e-21)
(1.02805 -0.0111958 5.12777e-22)
(1.0177 -0.003963 -1.68418e-21)
(1.01947 -0.00069648 -5.01243e-22)
(1.01758 -0.00208443 1.24703e-21)
(1.04213 -0.0727146 3.33567e-21)
(1.03364 -0.0163221 4.7377e-22)
(1.02531 0.00200571 1.39434e-22)
(1.08563 -0.00994983 3.42709e-20)
(1.03043 -0.0747289 -1.76825e-22)
(1.02587 0.00137533 0)
(0.954896 -0.0203718 0)
(1.0777 -0.0615766 2.202e-20)
(1.0241 0.00226708 0)
(1.02565 0.00209184 -1.97471e-21)
(1.06591 0.00747444 0)
(1.06665 -0.00686317 -8.2314e-21)
(1.0207 0.00285318 0)
(0.790659 0.00420528 0)
(1.00651 -0.0361978 1.14134e-21)
(1.00086 -0.0136872 -5.92111e-21)
(1.04504 -0.0201029 -2.80374e-21)
(1.05525 0.00381961 0)
(1.01052 -0.0190586 2.20628e-20)
(0.602398 0.0148475 -3.91047e-20)
(1.06953 -0.000822195 0)
(1.01747 0.000766579 -2.19512e-21)
(1.02011 0.00161793 0)
(0.0389253 0.0334701 2.94994e-21)
(1.03184 -0.0314312 -4.34218e-22)
(1.06269 -0.0102454 -1.20556e-20)
(1.02889 -0.00628046 -1.51511e-21)
(1.04052 -0.00254847 -5.58224e-21)
(1.02377 -0.00669565 -4.55774e-23)
(1.01999 -0.00106004 8.90896e-22)
(0.792944 0.117497 1.03357e-22)
(1.02139 -0.021208 1.057e-21)
(1.00908 -0.0176543 0)
(1.08235 -0.019008 -2.9251e-20)
(1.01954 -0.00100332 -1.14374e-21)
(1.01438 -0.000170484 -1.43818e-21)
(1.01743 0.00072691 3.42286e-22)
(1.08662 -0.0145045 0)
(1.03677 -0.0195182 -7.42964e-21)
(1.03219 -0.0162132 0)
(1.01578 -0.000242805 1.44676e-22)
(1.01547 -7.59736e-05 -3.36785e-21)
(1.04438 -0.00446776 0)
(1.02801 -0.0013517 -6.64528e-22)
(1.03396 -0.0523206 5.85113e-21)
(1.05546 -0.00518366 -1.33303e-20)
(1.01734 0.000678439 0)
(0.959553 -0.0903178 -2.17142e-20)
(1.01351 6.95953e-06 8.58618e-22)
(1.03596 -0.0517905 0)
(1.05352 -0.00534165 4.5545e-21)
(1.02155 0.00805388 -2.63481e-22)
(1.02387 -0.00180106 0)
(1.01547 -0.000328855 2.20021e-24)
(1.07317 -0.00808109 -1.22365e-20)
(1.03026 0.0057101 5.09392e-22)
(1.03174 -0.0237924 -9.49742e-24)
(1.03348 0.00239357 1.87727e-21)
(1.03049 -0.0223623 0)
(0.984406 -0.0180938 2.3913e-20)
(1.01821 -0.00173079 1.01417e-21)
(0.744289 -0.0149075 0)
(1.03228 -0.0203506 0)
(0.863708 -0.025111 1.00292e-20)
(1.03849 -0.006426 0)
(1.02371 -0.00325494 -2.6209e-22)
(1.06427 0.00769292 0)
(0.656287 0.013626 -2.7681e-20)
(1.01925 -0.00612391 -2.07464e-21)
(1.02041 0.0102464 -9.06153e-24)
(1.01977 0.000854393 3.40374e-22)
(0.617304 0.0141277 5.33248e-21)
(1.05085 -0.086066 -1.8611e-20)
(1.03094 -0.0192751 -1.23759e-22)
(1.02103 0.00254103 5.49038e-24)
(1.01807 -0.00162661 -2.34163e-22)
(1.02731 -0.00741664 1.41925e-22)
(1.03571 -0.0288391 0)
(0.594349 0.0156529 1.10891e-20)
(1.01739 0.000130107 3.4769e-22)
(1.04262 0.0111509 -1.39225e-21)
(0.800226 0.00539415 2.77429e-21)
(0.935161 -0.0201186 4.33844e-20)
(1.02017 0.00201059 2.34325e-22)
(1.03886 -0.00831222 0)
(0.955087 -0.0259212 -7.97095e-21)
(1.02671 -0.0185642 -4.4408e-24)
(1.02123 0.00277938 -3.61755e-22)
(1.0203 0.00127863 0)
(0.798492 0.000470003 1.49281e-20)
(1.01549 -0.000327451 8.61368e-22)
(1.02864 -0.00626481 -6.29514e-22)
(1.05968 -0.0178833 0)
(1.01724 -0.00160723 -1.32248e-21)
(1.02682 0.00580901 -5.15576e-23)
(1.03441 -0.0167013 0)
(0.967942 -0.0449892 2.48888e-21)
(1.00938 -5.06469e-05 1.27915e-21)
(1.04453 -0.013601 1.65584e-20)
(1.07462 -0.0453403 -4.28636e-20)
(1.00004 -0.0269702 -9.87343e-21)
(1.02935 -0.0069178 -4.52974e-22)
(1.01748 -0.00483257 1.42519e-21)
(1.0408 -0.00213748 -6.11574e-21)
(1.02881 -0.003647 -7.12461e-22)
(0.642316 0.0160508 2.77851e-20)
(1.00936 -1.60225e-05 7.65674e-23)
(1.01757 -0.00209427 3.28831e-21)
(1.02 0.00179902 0)
(0.934314 -0.011938 0)
(1.01925 0.00173773 6.05025e-22)
(0.995785 -0.0151855 0)
(1.00887 5.42588e-05 1.75225e-22)
(0.824531 -0.0244191 0)
(1.01178 -0.0381639 0)
(1.02552 0.00612734 -3.63246e-22)
(1.02019 -0.037902 1.39011e-21)
(0.886584 -0.0318143 3.35156e-20)
(1.01939 -0.0111511 0)
(1.07027 -0.013217 -2.73501e-20)
(0.191563 0.02524 0)
(1.06803 -0.0031342 -1.14872e-20)
(1.07353 -0.0378992 -1.65791e-20)
(1.06118 -0.0206815 -5.06926e-21)
(0.586314 0.0140142 0)
(1.04348 -0.00184301 6.77424e-21)
(1.06543 0.000770047 0)
(1.01915 -0.0339478 -3.855e-22)
(0.366458 -0.00163057 0)
(1.01813 -0.00114811 -8.22168e-22)
(0.740242 -0.00513043 0)
(1.02011 -0.0212699 -4.78946e-22)
(1.02697 -0.00715565 0)
(1.03208 -0.0073126 4.45246e-23)
(1.01979 -0.00705169 -7.84212e-22)
(1.01891 -0.0042054 -2.80488e-21)
(1.05884 -0.0157266 1.87474e-20)
(1.02502 -0.0112015 -7.23422e-23)
(1.02411 0.00651262 0)
(1.02043 -0.00623399 0)
(1.03335 -0.0321972 -6.63735e-21)
(0.930535 -0.0841433 -4.09526e-21)
(1.06301 -0.00687722 2.2394e-20)
(1.0313 -0.0176775 1.00817e-21)
(1.01584 3.84919e-05 0)
(1.0185 0.0013912 -7.07549e-22)
(1.02377 -0.00187217 -4.6365e-22)
(1.06109 -0.0468988 -1.45598e-21)
(1.03134 -0.0240967 0)
(1.04572 -0.0129371 0)
(1.02025 0.00228023 -2.5012e-22)
(1.03123 -0.0109051 1.41385e-21)
(1.01348 -0.0367445 0)
(1.02084 0.00192386 7.1682e-22)
(1.00771 -0.0363533 1.19593e-21)
(0.54592 -0.0205728 3.53675e-20)
(1.01741 0.000579907 0)
(1.01603 8.06751e-05 2.86768e-22)
(1.03336 -0.0525848 -6.07524e-22)
(-0.0253449 0.0609013 -3.37237e-20)
(1.02609 0.0103301 0)
(0.980446 -0.0118899 -2.61075e-20)
(1.02532 0.00188162 0)
(1.01883 -0.00550201 3.72753e-21)
(1.02636 0.00238331 9.40269e-23)
(1.01509 -0.000305613 0)
(0.827381 -0.0355115 -6.05645e-20)
(1.05942 -0.0144233 1.66293e-20)
(1.04518 -0.0141403 -9.26291e-21)
(1.03011 -0.00382297 -3.57923e-21)
(1.01638 0.00012125 -6.50851e-22)
(1.01859 -0.00457226 1.47427e-21)
(1.02087 0.00197097 -5.68385e-22)
(1.03177 -0.00768356 0)
(1.0158 -2.58933e-05 7.0078e-22)
(1.01796 -0.00557873 2.53158e-21)
(-0.0143253 0.0578412 -3.01935e-20)
(1.02477 0.00152332 0)
(1.01892 -0.010397 0)
(1.02343 -0.0067667 5.34142e-23)
(1.02498 -0.0106947 -5.45881e-23)
(1.02223 0.00267787 5.4888e-22)
(1.06359 -0.00624501 4.35795e-21)
(1.02031 -0.00599363 0)
(1.05186 -0.0323304 0)
(1.01813 0.00142922 0)
(1.05369 -0.0336378 1.70318e-20)
(1.0195 -0.00659819 -5.58717e-22)
(0.893677 0.0480488 -6.37739e-23)
(1.02231 -0.00667222 5.72331e-22)
(1.04745 -0.0399059 0)
(1.03145 -0.00802376 -3.52203e-21)
(0.80621 -0.0229449 -1.54008e-20)
(1.03191 -0.00505282 0)
(1.0179 0.0002918 0)
(1.02017 0.000925942 -3.92076e-22)
(-0.0204032 0.0409494 -1.66215e-20)
(1.033 0.00161419 -3.37313e-21)
(1.03871 -0.0178665 3.39966e-21)
(1.07191 -0.0353547 0)
(0.815767 -0.0158294 -2.54532e-20)
(1.06895 0.00732487 0)
(1.06659 -0.0542523 3.6293e-20)
(1.01806 -0.00114968 1.72822e-21)
(1.04516 -0.0188481 -6.33367e-21)
(0.793159 -0.000631739 4.46782e-20)
(1.05393 -0.0184735 -3.02411e-21)
(1.04824 -0.00459569 6.43108e-21)
(0.59785 0.0164768 0)
(1.02201 -0.00147497 0)
(1.02619 0.00232602 -1.73448e-22)
(1.02036 0.00171814 0)
(1.03301 0.00142783 1.52501e-21)
(1.02481 -0.00404721 6.55405e-22)
(1.04398 -0.00664156 0)
(1.01755 -0.000149141 0)
(1.02356 -0.00918186 3.51229e-22)
(1.04568 -0.0209144 6.67521e-21)
(1.02195 -0.0032729 7.37294e-22)
(1.01856 -0.00485172 -2.17621e-21)
(1.0234 -0.00203928 1.75597e-22)
(0.842559 -0.0152179 0)
(1.02241 0.000917252 4.92218e-23)
(1.01661 -0.0025399 0)
(0.810864 0.00523612 2.67011e-21)
(0.55306 0.014892 7.22237e-21)
(1.03121 -0.000385235 -7.89548e-23)
(1.02437 -0.00028859 0)
(1.0264 0.00205479 8.7889e-24)
(0.733453 0.0914742 0)
(0.861018 0.00502058 0)
(1.03029 -0.0136608 1.32499e-21)
(1.02009 0.00108578 4.85069e-22)
(1.02359 -0.0060028 0)
(1.02537 0.00626407 1.76184e-22)
(0.954566 0.0261727 8.61538e-22)
(1.02719 -0.0168857 0)
(1.03261 -0.0171769 -4.53341e-21)
(1.03231 -0.022604 -5.71944e-22)
(1.02617 0.0108178 -8.47257e-22)
(1.01745 -0.000219616 3.92433e-21)
(0.826771 -0.117119 -2.16115e-22)
(1.01935 -0.00710336 7.73315e-22)
(1.0202 0.00111899 3.53794e-22)
(1.07901 -0.00725189 3.57131e-21)
(1.06925 0.029834 0)
(1.02965 -0.00387302 9.54599e-23)
(0.986971 -0.0869327 2.02819e-21)
(1.07384 -0.00894769 6.28127e-21)
(1.03467 -0.0182051 -4.90892e-22)
(1.02926 0.00581586 0)
(1.03445 0.00396733 -2.51592e-22)
(1.0306 -0.0337657 1.4751e-21)
(1.01481 -0.000219499 5.00833e-22)
(1.02809 -0.00337955 -1.25224e-21)
(0.723301 -0.112801 -5.79565e-21)
(1.01661 -0.00244861 0)
(1.0679 -0.00278219 -1.49574e-20)
(1.01735 0.000513737 0)
(1.02865 0.00708465 0)
(1.0203 0.00121253 -3.39566e-22)
(1.02759 0.0054176 0)
(1.0173 0.000253347 0)
(1.07002 -0.020575 0)
(1.06525 -0.0240685 2.16545e-20)
(0.580236 0.0143359 -3.96385e-21)
(1.04316 -0.00126312 0)
(1.03562 -0.0149924 3.57971e-21)
(0.997587 -0.0664756 -5.949e-22)
(1.01904 0.00187867 -3.0952e-22)
(1.02571 -0.0200635 -2.40758e-22)