/*--------------------------------*- C++ -*----------------------------------*\
| =========                 |                                                 |
| \\      /  F ield         | OpenFOAM: The Open Source CFD Toolbox           |
|  \\    /   O peration     | Version:  v2012                                 |
|   \\  /    A nd           | Website:  www.openfoam.com                      |
|    \\/     M anipulation  |                                                 |
\*---------------------------------------------------------------------------*/
FoamFile
{
    version     2.0;
    format      ascii;
    class       volScalarField;
    location    "250";
    object      k;
}
// * * * * * * * * * * * * * * * * * * * * * * * * * * * * * * * * * * * * * //

dimensions      [0 2 -2 0 0 0 0];


internalField   nonuniform List<scalar> 
13726
(
0.000174991
0.0210849
0.00015678
0.000166186
0.000210203
0.000165511
0.000159666
0.000157519
0.000214624
0.000179745
0.000211491
0.000148831
0.000151095
0.04185
0.000165494
0.000158997
0.000216057
0.000164658
0.0553009
0.000549308
0.064698
0.000134621
0.000157694
0.000157322
0.000137513
0.000141438
0.000173243
0.000141461
0.000136965
0.0154761
0.0769343
0.000147738
0.0512527
0.000181532
0.00267953
0.0424098
0.000166931
0.0232595
0.000158183
0.000160209
0.00127739
0.0024303
0.000150279
0.000156292
0.000173071
0.000156542
0.00420547
0.000146061
0.000192341
0.000146625
0.050154
0.000146454
0.000129697
0.000164557
0.000159153
0.000171183
0.000119042
0.000128394
0.000174675
0.0001558
0.0428949
0.000156161
0.0304299
0.000134331
0.0161922
0.000145337
0.0617391
0.0451249
0.000147345
0.000215367
0.00383373
0.000157275
0.000156535
0.000152647
0.0546987
0.0459577
0.000216884
0.0609238
0.0528977
0.000205723
0.000207945
0.000191563
0.000204637
0.00015485
0.000158702
0.0337926
0.000212413
0.000155648
0.000150567
0.0670338
0.00014454
0.000213089
0.000156366
0.000158858
0.0276759
0.0489497
0.000188362
0.000148795
0.000156397
0.020618
0.000156436
0.000180708
0.000134612
0.000142704
0.000203058
0.000215597
0.000204349
0.000152982
0.000159957
0.00018767
0.000189604
0.00014277
0.0710353
0.0578168
0.053476
0.000159142
0.00700385
0.0771097
0.000134925
0.000156656
0.00755706
0.000157627
0.000157374
0.0542944
0.0698035
0.0264883
0.000156978
0.00011709
0.000142775
0.000174398
0.0427425
0.0546225
0.000174637
0.000192136
0.0390551
0.000209756
0.0184838
0.00573846
0.0210834
0.0346708
0.00019964
0.0400442
0.000153153
0.000145113
0.000167101
0.000166863
0.0648478
0.000157973
0.000155973
0.0535675
0.000157473
0.000157512
0.000193168
0.000157433
0.000146809
0.000169339
0.00016307
0.00317946
0.0273552
0.000139743
0.00014846
0.000153656
0.0318567
0.0461043
0.000143492
0.000226933
0.0341445
0.000160153
0.00015582
0.000146871
0.000133055
0.00016834
0.00573985
0.000159046
0.063012
0.00141609
0.000144605
0.0749009
0.0721184
0.000156703
0.0669459
0.000151289
0.0290231
0.0186119
0.000144864
0.000152629
0.000155484
0.000155417
0.000157561
0.000163975
0.0561564
0.00202628
0.0169055
0.0178687
0.000156545
0.000144099
0.000159039
0.0416625
0.00239095
0.000168509
0.0186511
0.00565298
0.0194522
0.000179807
0.000154982
0.000153361
0.000156925
0.0296739
0.000155868
0.000195956
0.000212538
0.028479
0.0175
0.000133905
0.0637715
0.053432
0.000157508
0.000151464
0.00016582
0.0687124
0.000159222
0.000175401
0.00222176
0.0433121
0.000151685
0.0449826
0.0179643
0.0639635
0.0652585
0.000154867
0.0330631
0.0216532
0.0651119
0.0627926
0.000152916
0.000148747
0.0234862
0.078781
0.00877433
0.0688327
0.000142608
0.000159155
0.000153216
0.0449674
0.0042191
0.0590006
0.000174635
0.000176361
0.00014704
0.000209669
0.0699015
0.000152865
0.0678283
0.000174291
0.000196778
0.000404035
0.000157923
0.069096
0.0450218
0.000173503
0.00100734
0.0237693
0.000183836
0.000147632
0.0490189
0.0772588
0.000158018
0.000149023
0.000138922
0.000197983
0.00382999
0.000174532
0.0699037
0.000179164
0.0346842
0.0450904
0.0551927
0.0107776
0.000157397
0.000148336
0.0356522
0.000159206
0.0258282
0.000176445
0.0423967
0.000157122
0.0291535
0.00680133
0.000174021
0.000144923
0.0247361
0.000176252
0.000136834
0.0441722
0.0305219
0.000158365
0.000310513
0.000153127
0.0582538
0.000146901
0.00629286
0.0473676
0.00019738
0.000147598
0.000113699
0.0125831
0.0234789
0.0676276
0.0128087
0.000166641
0.0658217
0.00100006
0.077448
0.0100877
0.000155548
0.00610436
0.00015316
0.0333164
0.069384
0.0316235
0.0536581
0.000175275
0.000151563
0.000171096
0.000446766
0.000175557
0.000147477
0.0353387
0.00014627
0.0303309
0.000133658
0.0184656
0.0001597
0.000177286
0.000197405
0.000146452
0.000160641
0.00017329
0.000160947
0.000191074
0.0120536
0.0436529
0.0649434
0.0301763
0.0147276
0.000206033
0.000170932
0.000197375
0.000462506
0.000152026
0.038775
0.0440397
0.0510922
0.000154652
0.00016667
0.000155235
0.000155637
0.0276823
0.000164452
0.000159943
0.000158847
0.000175893
0.0210372
0.000156105
0.000181128
0.0661126
0.0724335
0.000156912
0.000161277
0.000161845
0.000217193
0.000151345
0.000153783
0.000165919
0.00335727
0.00016215
0.000138049
0.0711838
0.000190761
0.000207965
0.00015216
0.000152402
0.000156099
0.0427235
0.0719358
0.0757017
0.0658955
0.000176085
0.000157693
0.000165856
0.000153624
0.000146396
0.000156615
0.000157051
0.000150566
0.000166474
0.0643084
0.0432393
0.000185232
0.000154234
0.000153854
0.000153823
0.000160763
0.000189483
0.000155545
0.000176636
0.000166684
0.000156127
0.0713755
0.0114688
0.0265237
0.000163356
0.0566714
0.0646036
0.000136254
0.000155876
0.0692657
0.0338898
0.0263187
0.0493191
0.0669919
0.00501934
0.000133673
0.000200422
0.0279667
0.000160039
0.027446
0.000153394
0.000151973
0.000191653
0.0742781
0.0690814
0.048835
0.067612
0.000162065
0.00015489
0.000154951
0.000160181
0.000169855
0.000201723
0.000157512
0.0275394
0.000153707
0.0524162
0.000458297
0.000156361
0.0335688
0.000140463
0.000145128
0.000219628
0.00015843
0.0390678
0.0483464
0.00014836
0.0378096
0.000148116
0.0694871
0.0358512
0.000147768
0.0001575
0.000174446
0.0601218
0.0001803
0.048733
0.000901333
0.000161917
0.0687641
0.0329596
0.000151402
0.0722316
0.000190291
0.000143431
0.000161259
0.000153721
0.0562367
0.000143703
0.00690366
0.00100274
0.0448866
0.000190073
0.0050394
0.000151541
0.000142268
0.0305057
0.000136378
0.000158065
0.000153949
0.000161979
0.0460896
0.057474
0.000163187
0.00021375
0.000159353
0.0481741
0.0428397
0.000171402
0.0001643
0.0572653
0.0378867
0.000144323
0.000151115
0.0051386
0.000166208
0.000197211
0.000167126
0.000143655
0.0447043
0.0231004
0.000150582
0.000152919
0.000153292
0.0318442
0.000147701
0.000192711
0.000142441
0.0398043
0.000213609
0.000158146
0.000171144
0.000172246
0.000156523
0.000197407
0.0304436
0.00686907
0.000201845
0.000198598
0.0541974
0.000208388
0.000134004
0.00349734
0.00019034
0.000180475
0.0546167
0.000153278
0.0709268
0.000178573
0.000141975
0.0441309
0.00018305
0.000158635
0.0261312
0.000150872
0.000121434
0.000162339
0.000218176
0.0314338
0.00017374
0.000142162
0.00225806
0.000146441
0.000147239
0.00543115
0.000161846
0.0508858
0.000153317
0.000179113
0.00015499
0.048163
0.048706
0.0495939
0.0182608
0.000176528
0.0584785
0.000157245
0.0749505
0.00181257
0.000189825
0.000156802
0.0596057
0.000185832
0.0715661
0.000144986
0.000150022
0.0694785
0.000155797
0.0322652
0.000179312
0.000168091
0.000206248
0.000177337
0.0480176
0.0279054
0.000162538
0.000150461
0.0112488
0.000147261
0.0561344
0.00487843
0.000144039
0.0421679
0.000161665
0.000188348
0.000161581
0.000158046
0.0311726
0.000157883
0.0701261
0.000157677
0.000376979
0.0476941
0.000177636
0.000144467
0.000158348
0.000154685
0.000159087
0.0553293
0.0690319
0.0136181
0.000154013
0.0105649
0.0532647
0.056893
0.000177675
0.0349904
0.0285564
0.000167548
0.000154488
0.000142811
0.064426
0.000165077
0.000151003
0.000137572
0.065965
0.0619071
0.000198525
0.000143973
0.000167054
0.000198171
0.000142236
0.000178207
0.0470792
0.000160753
0.0531166
0.000151668
0.0300838
0.000184194
0.000143449
0.0147714
0.0193053
0.000153473
0.00841988
0.000156467
0.00018256
0.0253241
0.000208097
0.0655033
0.00015908
0.000124579
0.0303105
0.000167814
0.000216867
0.000177707
0.0675792
0.000137049
0.0137066
0.000170994
0.000145138
0.000157544
0.0458428
0.000137041
0.000146565
0.000153468
0.0120217
0.0104627
0.000110782
0.000149065
0.000164513
0.0577748
0.0585169
0.000151664
0.0463266
0.000207376
0.0634746
0.0474627
0.000218622
0.000194438
0.00333192
0.000143709
0.000151662
0.0693792
0.000171598
0.000170927
5.77619e-05
0.00248629
0.000146995
0.000151565
0.00015769
0.000160572
0.0727145
0.000193519
0.000146186
0.000172451
0.000155302
0.000158186
0.000156756
0.000157428
0.000158605
0.0757842
0.000151301
0.00017868
0.000189654
0.000152155
0.000148973
0.000183234
0.000149895
0.000202169
0.000171389
0.0579069
0.000151293
0.0472811
0.000148359
0.0549514
0.0386992
0.000192156
0.000162381
0.000165397
0.000151538
0.000152114
0.000130413
0.000149962
0.000151711
0.0737425
0.0776507
0.00192684
0.0411135
0.000152075
0.0176761
0.000149613
0.000150151
0.000143126
0.000155726
0.0178608
0.000183192
0.0676687
0.00017807
0.00150922
0.073026
0.00578022
0.00156764
0.000191953
0.000162564
0.0001546
0.000155374
0.000145166
0.0566077
0.0655366
0.0001936
0.000157377
0.000144244
0.0705138
0.000155901
0.000151859
0.000152755
0.00015804
0.0431567
0.000211913
0.000194819
0.000162945
0.0347734
0.0311767
0.00015467
0.0249399
0.00070188
0.000153998
0.0702116
0.0465049
0.0488566
0.000149381
0.000199899
0.0449045
0.000146378
0.0249376
0.000164891
0.000195795
0.000156089
0.000153358
0.000211666
0.0298711
0.000147466
0.000153349
0.000155988
9.57748e-05
0.000142099
0.0551125
0.00803465
0.00014234
0.000135608
0.000152567
0.0591036
0.000146437
0.0145122
0.0631088
0.0771196
0.0212747
0.0470915
0.0690721
0.0583619
0.000157087
0.000154181
0.0658132
0.000146578
0.0460275
0.0562305
0.0451229
0.000143673
0.000160462
0.000151094
0.00777715
0.000147082
0.0555817
0.00816138
0.00546423
0.0665047
0.000143168
0.0444205
0.000171372
0.0681861
0.000179765
0.04721
0.000159219
0.000228587
0.000154641
0.000464381
0.00016789
0.000190491
0.000170219
0.000153762
0.000151719
0.0575485
0.000148006
0.000154178
0.0303545
0.000169808
0.000151287
0.000154538
0.0167023
0.000152448
0.000171519
0.000199229
0.000141532
0.000180537
0.000146985
0.0582817
0.000150762
0.000140623
0.000211078
0.0207532
0.000152848
0.00016422
0.058341
0.0233895
0.000188988
0.000144074
0.0543728
0.0503535
0.02619
0.000218155
0.0330518
0.000148532
0.000176005
0.000190507
0.000139686
0.000163521
0.0229833
0.000190772
0.0445569
0.00014996
0.00021106
0.000152611
0.000183444
0.0194215
0.0267862
0.000142362
0.000156749
0.000203488
0.000160744
0.000145514
0.000149459
0.0545534
0.0468362
0.000185003
0.000149294
0.000170911
0.000143673
0.0478079
0.000164899
0.000143593
0.0272672
0.000180249
0.00021138
0.000160094
0.0804068
0.0079558
0.000157355
0.00014641
0.0176862
0.00574618
0.000148799
0.026096
0.0315969
0.0504662
0.0666865
0.0683515
0.0256561
0.000306289
0.00253509
0.000147553
0.000150698
0.0533129
0.000150955
0.0506887
0.000151794
0.0168618
0.0400679
0.000167898
0.0637907
0.0192486
0.031176
0.000160796
0.000151254
0.00014228
0.000213442
0.0216021
0.00015174
0.0589328
0.000172499
0.0146946
0.000195848
0.000173048
0.00687728
0.000148747
0.00753366
0.000179912
0.000147159
0.000152689
0.0647375
0.000188779
0.000153328
0.0693075
0.000149846
0.0138276
0.000150128
0.0162106
0.0557862
0.0518952
0.000160214
0.000147704
0.000183251
0.000154877
0.0556749
0.0480442
0.000147668
0.000191479
0.00019774
0.0355272
0.00246063
0.000153602
0.0161697
0.000159794
0.000151847
0.055266
0.0538154
0.0540425
0.000160431
0.0752066
0.000185174
0.0484168
0.000718952
0.0217062
0.0609457
0.000166208
0.017318
0.0515717
0.0699693
0.0452972
0.000147012
0.0691547
0.000195683
0.000198352
0.000153456
0.00015052
0.0106451
0.000150957
0.0730878
0.0550303
0.0178749
0.0430921
0.0307913
0.059465
0.0593998
0.0643877
0.000152272
0.0120013
0.000141808
0.0312223
0.025882
0.000142122
0.0253721
0.000147697
0.000149084
0.000154256
0.000145859
0.0763438
0.0309307
0.000152287
0.000164693
0.00423212
0.0291566
0.000169493
0.000201147
0.0149212
0.000144937
0.000168861
0.000152114
0.0229908
0.0001678
0.000153698
0.00821711
0.000158474
0.00776687
0.0465265
0.000150049
0.0635848
0.000158675
0.0590721
0.0327462
0.0580013
0.000156158
0.00417023
0.000176752
0.0512756
0.000161601
0.00202836
0.000144723
0.000142858
0.0469338
0.000159835
0.000145267
0.0147293
0.000183905
0.0001583
0.0453473
0.000156654
0.000159283
0.017041
0.0667014
0.000172811
0.0192579
0.000143741
0.0798363
0.000158922
0.000156312
0.000156297
0.000144035
0.000151889
0.00289704
0.0445954
0.00015106
0.0317019
0.000170687
0.0403842
0.000143381
0.000151781
0.000549088
0.00184374
0.000150398
0.000156098
0.0274399
0.000147954
0.000202738
0.000148032
0.0291359
0.00591344
0.000186659
0.000208799
0.0705048
0.000134149
0.000158265
0.000450478
0.0623725
0.000187861
0.0441533
0.000151825
0.069451
0.062119
0.000149424
0.000167071
0.0451251
0.000200018
0.000155392
0.00833982
0.000183552
0.000155116
0.000197463
0.00015201
0.00168611
0.00114672
0.000143309
0.0753627
0.0279109
0.000150071
0.000198644
0.0310259
0.0593331
0.00280488
0.00016715
0.000170425
0.0693778
0.000154124
0.000131906
0.0526974
0.000143579
0.0249987
0.000155021
0.000152348
0.0542539
0.000479345
0.00889118
0.000195305
0.000157833
0.000140259
0.0526783
0.0162726
0.000152376
0.000142074
0.0478312
0.000149264
0.000167832
0.000162687
0.000164711
0.0464477
0.000160102
0.000146107
0.000188773
0.00016669
0.0546739
0.0736485
0.0651997
0.000197929
0.000136065
0.000147226
0.0465541
0.000219677
0.0440188
0.000192497
0.000163236
0.000165094
0.000150874
0.00016743
0.000209365
0.0743129
0.000160922
0.0272262
0.0754718
0.000141259
0.0552972
0.0413199
0.0249866
0.0135006
0.000137384
0.0149845
0.000416573
0.0259808
0.000163173
0.000181776
0.0730452
0.000155974
0.000155759
0.0776027
0.000206542
0.0459669
0.0480441
0.000200465
0.0500118
0.0679418
0.000148714
0.0545245
0.00866579
0.000151421
0.000165417
0.0408791
0.000155264
0.000157228
0.000159439
0.000146274
0.075483
0.000145688
0.000209823
0.00801987
0.00153614
0.000153787
0.000181612
0.0685717
0.00013721
0.000152178
0.000161105
0.000154019
0.00017361
0.0602283
0.000150649
0.000146559
0.0230935
0.000145174
0.0675201
0.000153948
0.0772996
0.000167778
0.0599829
0.0174723
0.000152588
0.0437653
0.00150586
0.000169545
0.000158467
0.00014938
0.0316283
0.00014801
0.00822419
0.0001507
0.000167362
0.00171412
0.0328131
0.000147718
0.000168611
0.000155688
0.000185835
0.000146315
0.000176599
0.000154608
0.0745611
0.0120096
0.000162399
0.000154501
0.070514
0.0204039
0.000146003
0.000140676
0.0688594
0.0238142
0.0733259
0.00017439
0.000178386
0.00766469
0.000191369
0.0661043
0.076816
0.000158984
0.00014738
0.0454001
0.000210589
0.000154258
0.0736502
0.0370055
0.0746547
0.000144715
0.000195244
0.000168632
0.000158568
0.000156206
0.00722941
0.000179469
0.000149454
0.0523649
0.000147126
0.000152185
0.000188909
0.0101928
0.000156635
0.0760589
0.000153852
0.000165738
0.000160276
0.00016135
0.000151494
0.0637998
0.0559997
0.00015068
0.034788
0.000151168
0.000145217
0.0260191
0.0650591
0.000147403
0.0593699
0.000164158
0.000150843
0.000146251
0.0523672
0.0292251
0.000135824
0.0671492
0.0623713
0.0461143
0.000185653
0.0736316
0.0326412
0.000162729
0.0106799
0.000151537
0.00015429
0.000145919
0.0657852
0.0505057
0.0426109
0.011141
0.000141587
0.00014742
0.00015026
0.000179039
0.000166163
0.000135197
0.000148621
0.000153317
0.0464546
0.000142456
0.000146098
0.000134485
0.0367147
0.000151048
0.000136356
0.000156365
0.0506541
0.000155073
0.00015965
0.000181591
0.00517724
0.000151431
0.000199073
0.000185111
0.000176994
0.000193595
0.0120714
0.000165869
0.00671244
0.0524426
0.000166613
0.000146779
0.000154788
0.000161421
0.000183626
0.000177893
0.000153354
0.0317294
0.00013554
0.000174752
0.000170405
0.000153299
0.000146633
0.00014571
0.000172917
0.000152096
0.000210704
0.00128586
0.0411567
0.00287471
0.00182008
0.000196491
0.000140402
0.000202861
0.0492976
0.000152164
0.00144346
0.0200849
0.0338933
0.00014655
0.0472331
0.000157719
0.0163349
0.000155816
0.000151932
0.000151669
0.000163642
0.0129545
0.00015932
0.0481949
0.0616866
0.077755
0.000155565
0.000146896
0.000179355
0.0704533
0.000151796
0.000153976
0.0480433
0.000143936
0.064662
0.000173879
0.00019912
0.000149735
0.00015249
0.0307186
0.000143018
0.0254722
0.0802987
0.000910148
0.000151214
0.000163551
0.0645845
0.0417004
0.0218774
0.000145333
0.000202456
0.012527
0.0751031
0.0787783
0.000153808
0.000145744
0.000151355
0.000149892
0.000213796
0.00019039
0.000139831
0.000161791
0.058114
0.066522
0.00859692
0.000197691
0.00293113
0.000146137
0.000148177
0.000278128
0.000156897
0.00019695
0.000203084
0.000168671
0.000159038
0.0257004
0.0694284
0.0508158
0.000170426
0.0631159
0.000143831
0.000175059
0.00547189
0.00013379
0.000149534
0.0343491
0.0232426
0.000169839
0.000845942
0.000163329
0.0523997
0.000163896
0.0119808
0.000155481
0.000186835
0.057929
0.0582633
0.0286626
0.000167704
0.000148596
0.000207042
0.000179894
0.000160687
0.000210434
0.0454605
7.95969e-05
0.00016083
0.000193291
0.000175364
0.000190505
0.000173488
0.000159414
0.000153817
0.0465905
0.00494984
0.000161791
0.000128603
0.000189765
0.000156814
0.000190042
0.000205148
0.000145493
0.0291251
0.0310963
0.000149358
0.00014553
0.000158816
0.0700946
0.000195378
0.000147945
0.000151284
0.000135825
0.00015882
0.0739654
0.000537594
0.000160301
0.018795
0.000174796
0.000182902
0.00010657
0.00019374
0.0553777
0.000135178
0.067027
0.0311701
0.000188815
0.00016085
0.000173787
0.000153721
0.000173384
0.0663713
0.000213051
0.0239501
0.000146456
0.000152432
0.0298384
0.0573602
0.0258408
0.012723
0.000211735
0.000157749
0.0196787
0.048433
0.000137027
0.0626449
0.0611799
0.000159235
0.000206189
0.000146133
0.000152555
0.000146116
0.000155149
0.000147035
0.0414578
0.000153996
0.000138298
0.0702663
0.000566743
0.0118853
0.062366
0.0687902
0.000183447
0.000169089
0.000162573
0.000140954
0.000143107
0.000135041
0.0346328
0.000191501
0.00015786
0.0441089
0.000139667
0.00119405
0.000156724
0.0495631
0.00314066
0.000152079
0.000166305
0.0787414
0.0331431
0.043495
0.0324495
0.00477847
0.0725038
0.000209979
0.0118317
0.0432966
0.000157665
0.00014549
0.0295226
0.00013995
0.00015949
0.000158154
0.000148848
0.000193316
0.0688802
0.000173589
0.000175151
0.000187884
0.000166041
0.0644694
0.0106739
0.000166764
0.0153376
0.00019465
0.0104658
0.000152766
0.0599789
0.000180185
0.0517507
0.067903
0.000165843
0.000177224
0.00866121
0.000178011
0.0609746
0.00653064
0.0568173
0.000176432
0.000188202
0.000157287
0.0509188
0.0113333
0.0636234
0.000151017
0.000201843
0.000163185
0.0551786
0.0223403
0.012009
0.0121431
0.00408968
0.0674651
0.0538884
0.000147772
0.000226965
0.0558782
0.0692558
0.000195466
0.000171768
0.0269555
0.000158442
0.000154596
0.000149389
0.000168462
0.0259425
0.0103116
0.000141563
0.000166213
0.000160311
9.41366e-06
0.0520599
0.000149965
0.0296576
0.0254057
0.0439361
0.000157815
0.00015485
0.000144281
0.0319287
0.00368332
0.0485504
0.000148557
0.000149751
0.0122525
0.000163864
0.0510404
0.000153617
0.0632449
0.0287432
0.000147978
0.000169103
0.0233846
0.000149953
0.000147912
0.0266649
0.00066832
0.000161003
0.0636835
0.000229811
0.0311165
0.0501795
0.0497111
0.000195824
0.0469746
0.0140483
0.0276613
0.032131
0.0458729
0.000156603
0.000203333
0.000147091
0.000150535
0.0139287
0.000130391
0.0245412
0.000148358
0.000207192
0.00593114
0.000165996
0.000161274
0.000147595
0.0725477
0.000153311
0.0673429
0.000135115
0.0662109
0.0347589
0.000155943
0.0168517
0.051338
0.00929354
0.000151773
0.000148839
0.000146576
0.0516946
0.000183203
0.000222833
0.000154993
0.00795306
0.00017998
0.0273657
0.0453426
0.0120261
0.0225996
0.020878
0.000178945
0.00015592
0.0492747
0.000163811
0.0167672
0.000176517
0.0200763
0.000157088
0.000150333
0.0473526
0.000148535
0.000482141
0.0428722
0.0714647
0.000151063
0.05927
0.000163102
0.0502119
0.00171861
0.000162235
0.000156976
0.000145887
0.0693846
0.0582119
0.0508604
0.0291476
0.000157007
0.000180953
0.0729975
0.000146316
0.0586713
0.000143401
0.0752679
0.00018532
0.000197389
0.000153416
0.0325567
0.0103231
0.000197161
0.000168194
0.000149858
0.015705
0.000154947
0.000160054
0.000199368
0.0207377
0.0223694
0.000153709
0.000151861
0.000195964
0.0735292
0.000200824
0.0612236
0.000177972
0.000180234
0.0748434
0.0600402
0.000190531
0.0270534
0.000148166
0.0553204
0.0346592
0.0606661
0.000150892
0.000167535
0.0216077
0.000166774
0.050146
0.000159837
0.000147323
0.00015824
0.000153135
0.000228407
0.0274516
0.000147212
0.000154632
0.0459057
0.000171019
0.000142983
0.000155993
0.0200982
0.00014834
0.000165201
0.000151615
0.000149274
0.0248782
0.000183147
0.0493841
0.000149194
0.0226175
0.0454799
0.000157786
0.000150737
0.0602044
0.000161564
0.000161618
9.26917e-05
0.0216465
0.000193548
0.0347018
0.000163583
0.0277751
0.000174422
0.000155367
0.000156309
0.0246133
0.000147647
0.0318562
0.0488259
0.0642841
0.000198182
0.0280372
0.018886
0.0360857
0.0194421
0.0266104
0.00018952
0.000160335
0.0548728
0.000152078
0.0514488
0.00865519
0.000163489
0.0136485
0.0667287
0.000152403
0.000144201
0.0213556
0.0425468
0.000146606
0.069688
0.000160593
0.000142074
0.017398
0.071254
0.000145101
0.000191063
0.000153897
0.0541761
0.000156134
0.031273
0.00329972
0.000172037
0.000146792
0.000186332
0.0530761
0.000157239
0.000178085
0.0457686
0.000147826
0.000176456
0.0664147
0.00015686
0.0468503
0.000144254
0.000159159
0.0405382
0.000154619
0.0173377
0.0255911
0.0591172
0.000150302
0.0552595
0.0585894
0.000155105
0.000152515
0.00603282
0.000103441
0.000150141
0.000208698
0.0335482
0.000161582
0.0712979
0.0336436
0.0560051
0.0689793
0.000165571
0.000146721
0.000145808
0.000141114
0.0547344
0.000155488
0.032546
0.000150782
0.028153
0.000143506
0.000189538
0.0114117
0.000154688
0.0225403
0.000194676
0.000187936
0.0298566
0.0556225
0.000170273
0.000145191
0.0317798
0.000164687
0.000145459
0.0568268
0.0765229
0.0745556
0.0342143
0.0322957
0.000191768
0.0782059
0.0699671
0.07376
0.000171581
0.00890661
0.000176435
0.000154725
0.0191954
0.052757
0.0331924
0.000150366
0.000153589
0.000184197
0.000148966
0.00014438
0.000173372
0.000174863
0.000137923
0.00017056
0.0596402
0.0643383
0.0246121
0.000152271
0.0613505
0.0533673
0.000171477
0.00198932
0.000140568
0.000146348
0.000159345
0.000206941
0.0344332
0.000187925
0.000136862
0.0345101
0.000172912
0.000140941
0.0441907
0.000155619
0.0208145
0.000151368
0.0481224
0.0280357
0.0281429
0.000154468
0.000149349
0.000150102
0.000175024
0.000138882
0.000155489
0.064747
0.00017438
0.0246338
0.000919849
0.000213588
0.000200123
0.032453
0.0334468
0.000150993
0.000178836
0.000157641
0.00435344
0.0485799
0.00016533
0.030974
0.000161257
0.000153033
0.00107958
0.0704611
0.00015304
0.000165494
0.000180889
0.000153726
0.000152005
0.000164462
0.0268653
0.000150838
0.000148391
0.000179711
0.00720843
0.000161325
0.0330459
0.074016
0.000189323
0.000202439
0.000154086
0.000180645
0.000179898
0.000131669
0.00015352
0.0559248
0.0552802
0.0342925
0.0791044
0.000153254
0.000145382
0.000201885
0.0495751
0.0492909
0.029763
0.000143248
0.0070373
0.0533258
0.0529566
0.056382
0.000167225
0.00015918
0.0512892
0.0137317
0.000161439
0.00014991
0.000159132
0.0735164
0.0001409
0.000154076
0.0699717
0.000190953
0.000171529
0.0339029
0.00016362
0.000177514
0.000167598
0.0442145
0.0496583
0.0564839
0.0760343
0.0364988
0.0290746
0.0744171
0.000151546
0.0498366
0.00015381
0.0672281
0.0691643
0.0242482
0.0293277
0.0150056
0.000185055
0.0418075
0.0323021
0.000129929
0.000149568
0.0686947
0.0254752
0.0138977
0.0554343
0.00588956
0.000180873
0.000186215
0.000142623
0.000143419
0.000188041
0.0357182
0.000168357
0.0693234
0.000167232
0.000217715
0.000126475
5.52034e-05
0.000144607
0.0304492
0.075976
0.000184663
0.0422888
0.00018411
0.024354
0.020194
0.0769553
0.000158149
0.00016428
0.000171668
0.0769782
0.000194266
0.0335593
0.000162696
0.000156602
0.000186177
0.0667156
0.000186007
0.000142078
0.0742729
0.000175126
0.0490085
0.00945748
0.000150739
0.0142735
0.0623081
0.00015735
0.057364
0.0333181
0.0483264
0.0460704
0.000178304
0.0782134
0.000187051
0.000169845
0.00020507
0.00014838
0.000188577
0.0321515
0.000211479
0.000224463
0.0460077
0.000202374
0.000149888
0.000180491
0.000299657
0.000163719
0.0468361
0.000150999
0.000206594
0.0548826
0.0254521
0.0349331
0.036826
0.075542
0.000146576
0.000218224
0.069295
0.0628339
0.000157638
0.000150468
0.0308432
0.00015012
0.00015955
0.000210364
0.000192786
0.0781132
0.000158243
0.0375656
0.000215528
0.0346995
0.000210913
0.000165059
0.000200709
0.000144261
0.000161263
0.0592455
0.00015242
0.0677819
0.0362383
0.000152345
0.000167316
0.0371712
0.00021939
0.000196349
0.000203608
0.000181765
0.0571698
0.000204789
0.0496137
0.0323764
0.0391661
0.0330492
0.0692418
0.0156343
0.0264638
0.0497652
0.000157208
0.000164654
0.000210513
0.068544
0.000212144
0.0653914
0.0454831
0.000172309
0.000161826
0.0050119
0.025384
0.0503545
0.00386842
0.0780481
0.000173316
0.000169929
0.000163772
0.0165633
0.000209747
0.0573878
0.000162793
0.0695181
0.0523518
0.000149035
0.000165485
0.0088221
0.000206066
0.0451325
0.000158575
0.000160516
0.000150231
0.000181889
0.000142511
0.0447343
0.000151621
0.0329271
0.000153267
0.0342836
0.000154618
0.000214486
0.000190185
0.00020423
0.000145961
0.0434526
0.000237314
0.00235259
0.000288963
0.00336836
0.0789102
0.000214625
0.0684977
0.0533277
0.0586854
0.021244
0.000189313
0.000157031
0.000144537
0.000139813
0.000189185
0.000159572
0.00401796
0.0679751
0.000203661
0.0468226
0.00794466
0.000149957
0.000166156
0.0595711
0.000175948
0.0796372
0.0327115
0.000155035
0.0489381
0.0390391
0.000189288
0.000231649
0.000108211
0.0347629
0.000148067
0.057229
0.0355765
0.000157734
0.033535
0.0114771
0.000207994
0.0686368
0.000146541
0.044084
0.00918516
0.000208517
0.0271214
0.000146164
0.000147146
0.000199971
0.000178645
0.0351145
0.0147369
0.0306395
0.000160933
0.000153361
0.058958
0.0466771
0.0714344
0.00018689
0.0413005
0.000182046
0.000139135
0.0597903
0.000218062
0.0591715
0.000196838
0.000165298
0.000188045
0.05114
0.000205563
0.038015
0.0494314
0.0495863
0.0616106
0.0610278
0.00466805
0.0489825
0.00368741
0.0664888
0.000194275
0.000186478
0.000144716
0.000128501
0.000164815
0.000205615
0.000149636
0.078461
0.0805661
0.0764763
0.000224806
0.000187252
0.0349038
0.000189282
0.0652864
0.000172804
0.027399
0.00106877
0.000351594
0.000219195
0.0315505
0.000201843
0.000147748
0.000158127
0.0544863
0.000187707
0.000142244
0.000198672
0.00176402
0.000147795
0.00015102
0.031945
0.0534989
0.000188861
0.00018109
0.000136969
0.000160092
0.0479299
0.0299587
0.000147788
0.0793165
0.000150567
0.000171536
0.0475249
0.00018508
0.000171465
0.000190839
0.031969
0.0432907
0.064056
0.000159557
0.0764481
0.000152994
0.000169572
0.000158271
0.0219269
0.000205111
0.0685962
0.011855
0.0135072
0.000192336
0.0221526
0.0475012
0.00778622
0.000186058
0.0715224
0.00020102
0.000176142
0.000223351
0.000186922
0.000143284
0.000195436
0.000198519
0.000150831
0.000185218
0.000209347
0.000185428
0.000206947
0.000138845
0.000165848
0.00679602
0.000151908
0.000196114
0.0105322
0.00016159
0.000150248
0.000183614
0.0565283
0.0717576
0.0165757
0.000184843
0.00018049
0.0528754
0.000145757
0.0352527
0.000203178
0.0135877
0.000185996
0.0777619
0.000168128
0.00657724
0.000142845
0.000168249
0.0655912
0.0563933
0.0750703
0.000178844
0.0624401
0.0544948
0.0747133
0.000207096
0.000198893
0.000148269
0.0641934
0.00356394
0.000187538
0.00015084
0.000524283
0.0730426
0.000149305
0.0491691
0.000190977
0.000149998
0.000147666
0.000159695
0.0523967
0.0315315
0.0571929
0.000155891
0.000151005
0.000192939
0.000147677
0.0671935
0.000152838
0.0796202
0.00017078
0.057486
0.000205639
0.0476339
0.0622447
0.0424068
0.0538048
0.0729503
0.000146907
0.00976985
0.000174911
0.00015385
0.0485676
0.000175712
0.000158745
0.000157945
0.000186199
0.0168216
0.0251964
0.000147378
0.00014818
0.000173775
0.000175353
0.000156379
0.0214386
0.0201316
0.000147724
0.000171047
0.0525215
0.0254133
0.000187548
0.0687598
0.0271691
0.0151064
0.0455573
0.000174115
0.000165449
0.054645
0.000154725
0.000155504
0.056974
0.000142462
0.000171643
0.000186444
0.000147
0.0766605
0.000179046
0.000166901
0.000154246
0.000153177
0.00016881
0.02221
0.000148864
0.000185927
0.000165883
0.0589465
0.000150783
0.000161316
0.000192272
0.000148851
0.000186232
0.0693843
0.059874
0.000159975
0.000157083
0.000164839
0.0680019
0.0755698
0.0332594
0.000158843
0.000163755
0.000149105
0.051363
0.000157841
0.000273012
0.000178644
0.00762068
0.0795927
0.000209435
0.00017822
0.00020606
0.0174836
0.0398201
0.000274774
0.000159701
0.000157194
0.000174206
0.0341602
0.00853999
0.000166437
0.0537568
0.0208975
0.000172229
0.0184245
0.000148199
0.080765
0.0416887
0.000151147
0.0715473
0.0723383
0.000173013
0.00109414
0.000163094
0.013535
0.0250896
0.000157161
0.000152353
0.0608744
0.000142855
0.0192607
0.00152425
0.060762
0.063841
0.0240654
0.000158961
0.00017109
0.0159703
0.000145025
0.000187181
0.0677006
0.03121
0.000152759
0.000174346
0.000184491
0.000153554
0.000207103
0.0703244
0.000159693
0.000155061
0.0220571
0.0511566
0.000199166
0.000163545
0.0792226
0.07827
0.000158147
0.000198569
0.000164352
0.0114655
0.0643637
0.000158626
0.0226275
0.0702734
0.0553031
0.00020395
0.000165504
0.049512
0.000174768
0.000180972
0.0708791
0.000147495
0.0281029
0.0747264
0.000184736
0.0138132
0.000209783
0.000184086
0.0227745
0.00016252
0.000162819
0.00777282
0.000153881
0.000185378
0.000202801
0.000143269
0.000160266
0.000144659
0.000157643
0.055695
0.000145636
0.03416
0.000188417
0.000146107
0.00014683
0.0508381
0.0651791
0.000198856
0.000156567
0.068355
0.000159004
0.000168626
0.000146612
0.065433
0.0231302
0.000160785
0.000165222
0.000259473
0.000191707
0.000186869
0.000145439
0.0488813
0.000152941
0.000150652
0.0408673
0.0492832
0.000218013
0.00213399
0.0465999
0.000149749
0.0154168
0.0537756
0.0101772
0.000159655
0.0248137
0.000158926