/*--------------------------------*- C++ -*----------------------------------*\
| =========                 |                                                 |
| \\      /  F ield         | OpenFOAM: The Open Source CFD Toolbox           |
|  \\    /   O peration     | Version:  v2012                                 |
|   \\  /    A nd           | Website:  www.openfoam.com                      |
|    \\/     M anipulation  |                                                 |
\*---------------------------------------------------------------------------*/
FoamFile
{
    version     2.0;
    format      ascii;
    class       volScalarField;
    location    "250";
    object      p;
}
// * * * * * * * * * * * * * * * * * * * * * * * * * * * * * * * * * * * * * //

dimensions      [0 2 -2 0 0 0 0];


internalField   nonuniform List<scalar> 
13726
(
-0.00136211
-0.196973
-0.0674624
-0.00559449
-0.189287
-0.00196939
-0.00567501
-0.00826812
-0.18549
-0.122355
-0.18729
-0.000772544
-0.00267608
-0.174774
-0.00593877
-0.00734667
-0.151372
-0.0268481
-0.21831
-0.139392
-0.16073
-0.000429914
-0.0257998
-0.0689201
-0.000976581
-5.21806e-05
-0.0652838
-4.96234e-05
-0.00101734
-0.223963
-0.189379
-1.21691e-05
-0.196447
-0.0199297
0.00203826
-0.155632
-0.0841488
-0.198007
-0.0154615
-0.027749
-0.0451215
0.00244927
-0.0426582
-0.0137476
-0.00128658
-0.044035
-0.00345194
-0.000757572
-0.118442
-0.00164203
-0.0112724
-0.000739047
-0.0006932
-0.0256594
-0.0757351
-0.0362214
-0.000727895
-0.00087533
-0.102239
-0.0686644
0.0128989
-0.0134743
-0.183788
-0.000394983
-0.199145
-4.7022e-05
-0.165267
-0.220787
-0.000736362
-0.17943
-0.00326273
-0.00806513
-0.0136948
-0.0624627
-0.215126
0.00166554
-0.1818
-0.0154436
-0.213582
-0.086176
-0.0468812
-0.110518
-0.0934349
-0.00651725
-0.0147225
-0.17626
-0.0793297
-0.0573959
-0.00136479
-0.14287
-0.0409539
-0.190197
-0.0448027
-0.0737372
-0.159395
-0.197433
-0.0520765
-0.000735545
-0.0221197
0.00566114
-0.051407
-0.122219
-0.000736436
-0.00453685
-0.00137393
-0.147966
-0.0967516
-0.0044491
-0.0288868
-0.0548079
-0.138543
-0.00401398
-0.218036
0.00106218
-9.73339e-05
-0.0164002
0.00148978
-0.229445
-0.00105678
-0.0672661
-0.212735
-0.0132759
-0.0648565
-0.220102
-0.209665
-0.205021
-0.0214316
-0.000697508
-0.00417828
-0.00317135
0.0141905
-0.146073
-0.00268294
-0.115498
-0.123618
-0.191623
-0.198587
-0.000467002
0.00642975
0.012814
-0.100953
-0.121056
-0.00646932
-0.000807009
-0.00187806
-0.0861667
-0.145997
-0.0859502
-0.0588084
-0.21623
-0.0214489
-0.00591704
-0.111804
-0.0838604
-0.000759977
-0.0463225
-0.0943516
0.00615691
-0.158735
-0.000898773
-0.00158668
-0.00277261
-0.182569
-0.171671
-4.3986e-05
-0.00149125
0.0105843
-0.00532982
-0.050889
-0.00233869
-0.000999448
-0.0456163
0.00745128
-0.0720208
-0.028624
0.00399174
-0.000925731
-0.189225
-0.201854
-0.00603682
-0.18735
-0.0526844
-0.205213
-0.156159
-0.000847487
-0.00667979
-0.00426085
-0.0499613
-0.0249423
-0.0960978
-0.00196568
-0.00269066
-0.224945
-0.222993
-0.00842136
-4.75704e-05
-0.0156651
-0.0591629
-0.00292632
-0.0355534
-0.189486
-0.000956346
-0.211097
-0.0207363
-0.00627991
-0.00823081
-0.0442656
-0.151436
-0.0728138
-0.111854
-0.191955
-0.160351
-0.211954
-4.14583e-05
-0.0269311
-0.213866
-0.069126
-0.0427176
-0.030146
-0.138027
-0.0819028
-0.136028
0.000509523
-0.153449
-0.0046543
-0.0542594
-0.162632
-0.0360379
-0.121562
-0.0495189
-0.158817
-0.188783
-0.182885
-0.015879
-0.0623552
-0.0488488
-0.154375
-0.230965
0.00046497
-0.122624
-0.00439314
-0.0290885
-0.00451584
-0.233867
0.000835973
-0.14587
-0.105027
-0.0541564
-8.68899e-05
-0.125387
-0.220529
-0.0630741
-0.122922
-0.060124
-0.0614962
-0.000592839
-0.0648098
-0.17925
-0.169023
-0.0609249
-6.93522e-06
-0.154769
-0.0814732
-0.000307603
-0.0124593
-0.201855
-0.00803313
-0.049246
-0.00108144
-0.0336089
-0.00141651
-0.057714
-0.232095
-0.0198267
-0.15922
0.01392
-0.223477
0.00193536
-0.0714295
-3.07818e-05
0.0110224
-0.0735054
-0.158981
-0.0493764
-0.216351
-0.00757606
-0.19153
-0.134374
-0.0637721
-6.08838e-05
-0.203797
-0.051786
-4.804e-05
-0.169843
-0.15069
-0.0828939
0.0025759
-0.00883582
-0.150004
-0.00310163
-0.179006
-0.151685
-0.140773
-0.0393296
-0.000916927
-0.152393
-0.00563587
-0.189694
-0.147961
-0.109146
-0.153698
-0.137455
-0.191327
-0.211647
-0.0124112
-0.00190868
-0.00417642
-0.178705
-0.122868
-0.152646
-0.149433
0.00296726
-0.0535306
-0.000990018
-0.000666926
-0.0566491
-0.0384837
0.00910975
-0.0446315
-0.178677
-0.000910248
-0.193389
-0.00566075
-0.0483495
-0.157922
-0.0447524
-0.00548977
-0.100407
-0.00404691
-0.152486
-0.137077
-0.21985
-0.0320911
-0.192411
-0.149159
-0.0896602
-0.0174918
-0.0318155
-0.0226806
-0.0245711
-0.124908
-0.218739
-0.222052
-6.63045e-05
-0.0499867
-0.0502472
-0.0108003
-0.00232017
-0.0864326
-0.0823956
-0.0300075
-0.132625
0.00564339
-0.0106321
-0.083532
-0.188575
-0.231748
-0.0250707
-0.00468673
-0.00591641
0.000675556
-0.0026176
9.03741e-06
-0.0291673
-0.17648
-0.0043033
-0.000886744
-0.215814
-0.0430191
-0.0838549
-0.0045413
-0.00132562
-0.022087
-0.173787
-0.205666
-0.202707
-0.167154
-0.137267
-0.0146628
-0.0655357
-0.00763508
-0.0445245
-0.0510224
-0.00883685
-0.00882657
-0.0729573
-0.143186
-0.167065
-0.0707089
-0.0426657
-0.00733048
-0.0247266
-0.0561426
-0.150344
-0.0696512
-0.135731
-0.0706241
-0.0238664
-0.18084
-0.00268463
-0.158118
-0.0592695
-0.150947
-0.153993
-0.206381
-0.0443631
-0.0936805
0.0183505
-0.198225
-0.00768438
-0.146126
-0.00199632
-6.09087e-05
-0.139444
-0.166448
-0.00116071
-0.16723
-0.0239565
-0.0506531
-0.155601
-0.202007
-0.206404
-0.22258
-0.203481
-0.0974477
-0.000507843
-0.0126712
-0.00126709
-0.0855746
-0.139648
-0.0143149
-0.162949
-0.000601085
-0.1881
0.00453931
-0.0082142
-0.153225
-0.00106851
-3.45426e-05
-0.128772
-0.0012444
-0.122752
0.00131085
-0.000811939
-0.162244
-0.00900749
-0.123718
-0.161937
-0.00341983
-0.0829071
-0.109733
-0.150442
-0.0816179
-0.0408527
-0.130218
-0.0991615
-0.121977
-0.171875
-0.00803203
-0.207617
-0.107862
-0.00384079
-0.0036811
-0.00785991
-0.231786
-0.000902098
0.000545286
-0.190865
0.00372452
-0.0244905
-0.0019046
-0.00149164
-4.54323e-05
-0.15324
-6.1459e-05
-0.00138721
-0.00353937
-0.00341667
-0.153249
-0.229295
-0.0577081
-0.0771012
-0.000150114
-0.15661
-0.17483
-0.0394816
-0.0842676
-0.161785
-0.192183
-0.0405325
-0.00192142
-0.000745247
7.44463e-06
-0.137499
-0.0297723
-0.0261741
0.0127834
-0.15493
-0.00149851
-0.0239317
-0.0614589
-0.178239
-0.00331077
-0.0430315
-2.83335e-05
-0.0354952
-0.12907
-0.0300699
-0.03783
-0.0645433
-0.0229872
-0.114796
-0.166022
-0.00242886
-0.102173
-0.1602
-0.0704394
-0.0783711
-6.16312e-05
-0.190316
-0.137921
-0.125201
-0.000141951
-0.0611639
-0.219088
-0.00167853
-0.000113372
0.00637583
-0.0836043
-0.0825407
-0.155474
-0.0019861
-0.000785783
-0.0742064
-0.19794
-0.169181
-0.111493
-0.0164044
-0.00199035
-0.0434754
-0.0354724
-0.000794258
-0.00423822
-0.00915617
-0.0624826
-0.00160253
-0.00416905
-0.105727
-0.184679
-0.0410456
0.00294989
-0.00190604
-0.149845
-0.044995
-0.180918
-0.00183886
-0.0229899
-0.0244017
-0.137058
-0.129921
-0.155411
-0.000881959
-0.00153577
-0.1055
-0.0361834
-0.153604
-0.00182806
-0.0906606
-0.0806523
0.00143798
-0.189795
-0.215853
-0.00396008
-0.00571664
-0.000564664
-0.0401367
-0.221757
-0.00114832
-0.000936213
-0.00155305
-0.0057516
-0.135546
-0.00373629
-0.0830286
-0.148503
-0.0309209
-0.155378
-0.0619004
-0.0190706
-0.0684608
-0.0206107
-0.0411002
-0.0159434
-0.00914276
-0.00666065
-0.112092
-0.233461
0.00374021
-0.0502333
-0.00192389
0.00549424
-0.224769
-0.0820708
0.00904777
-0.163924
-0.0488027
-0.0572042
-0.000874377
-0.141673
-0.06438
-0.0421844
-7.19078e-05
-0.106839
-0.136921
-0.143079
-0.0239094
-0.106344
-0.0978822
-0.000882643
-0.0169623
-0.102519
-0.000629691
-0.20302
-0.0338274
-0.197169
-0.0768603
-0.0264685
-0.221732
-0.192674
-0.061968
-0.00184072
-0.0692789
-0.0209037
-0.155432
-0.123637
-0.166846
-0.0832586
-0.125343
-0.149703
-0.0882238
-0.17266
-0.0900742
-0.0978769
-0.000538441
0.00348137
-0.00418357
-0.0432992
-0.0482361
0.00028808
-0.000508002
-0.0439368
-0.00846464
-0.000780253
-0.00272007
-0.000615038
-0.00165045
-0.00168325
-0.00225451
-0.00320093
-0.0042535
-0.123142
-0.123781
-0.137378
-0.00738433
-0.17644
-0.0930375
-0.000225103
-0.00375369
-0.0331141
-0.142283
-0.0362038
-0.00395096
0.000742627
-9.94689e-05
-0.0365604
-0.000695694
-0.0468057
-0.0581486
-0.216981
-0.0224648
-0.0093427
-0.0353517
-0.0426228
-0.00711473
-0.0497015
-0.0611801
-0.025118
-0.20921
-0.000731767
-0.0831924
-0.00032854
-0.0225838
-0.00419593
-0.00253167
-9.94212e-05
-0.1563
-0.0939035
-0.110006
-0.00539887
-0.220395
-0.0485413
-0.204278
-0.161945
-0.0495331
-0.0722927
-0.0969314
-0.0226378
-0.00507109
0.001507
-0.00121835
-0.00531133
-0.210551
-0.199352
-0.186646
-0.157231
-0.00147441
-0.216468
-0.00161564
-0.00354411
-0.000909836
-0.0723211
-0.21746
-0.128881
-0.205343
-0.092962
-0.210263
-0.181253
7.8639e-05
-9.12751e-05
-0.0238609
-0.0758754
-0.0225926
-0.042764
-0.000483901
-0.227603
-0.140382
-0.110414
-0.0268896
-0.0110358
-0.213363
-0.0715754
-0.00152373
-0.00623955
-0.0840189
-0.157071
-0.194369
-0.0614629
-0.01406
0.00795663
-0.157615
-0.0583899
-0.157094
0.00077173
-0.0375094
-0.173638
-0.166319
-0.177836
-0.000338157
-0.0180155
-0.126147
-0.0439863
-0.156565
-0.00166807
-0.0963296
-7.62354e-05
-0.00150452
-0.0493654
-0.176916
-0.0400482
-0.00422547
-0.050396
0.00049603
-0.0174458
-0.0555386
0.00153366
-0.00469415
-0.00083025
-0.00611018
-0.18741
-0.00242968
0.00342464
-0.152709
-0.216812
0.00496745
-0.158199
-0.10509
-0.231011
-0.0494974
-0.0232866
-0.144994
-0.00321935
-0.149936
-0.0656435
-0.0360413
-0.00162352
-0.0359845
-0.048427
-0.129891
-1.01691e-05
-0.058028
-0.0468638
-0.00103948
-0.0786694
-0.138425
-0.166297
-0.000960415
-0.208556
-0.0343079
-0.0683909
-0.0543335
-0.0471238
-0.00634041
-8.69653e-05
-0.0794956
-0.157655
-0.0430116
-0.023251
-0.000641026
-0.22269
-0.00392369
-0.0478424
-0.230628
-0.000743302
-0.0381212
-0.00438377
-0.209765
-0.00499633
-0.00158599
-0.0167874
-0.00173741
-0.0103255
-0.00462146
-0.0516467
-0.0484833
-0.000811855
-0.00135845
0.00556539
-0.00835278
-0.00214182
-0.121451
-0.187545
-0.147826
-0.0107344
-0.190718
-0.189869
-0.15767
-0.168104
-0.192245
-0.0487491
-0.00158742
-0.00120254
-0.000841043
-0.0161539
-0.154379
-0.0519216
0.0126413
-0.000743032
-0.0278663
-0.00432892
-0.0700573
-0.155767
-0.159914
-0.0167953
-0.0709931
-0.0798915
-0.000573283
-0.00456722
-0.000771721
-0.212049
-0.214614
-0.0217231
-0.00404283
-0.041675
-0.0107479
-0.0878765
-0.046875
-0.026995
-0.197288
-0.0709085
-0.0850004
-0.0382016
-0.229582
-0.000761185
-0.0700306
-0.0448433
-0.150266
-0.00259436
-0.0492045
-0.15607
-0.171344
-0.165509
-0.115068
-0.108338
-0.157154
-0.00110728
-0.179936
-0.000271537
-0.00398574
-0.203038
-0.00563889
0.00820728
-0.0240892
-0.148734
-0.191411
-0.0839316
-0.0934001
-0.18865
0.00808366
-0.069761
-0.0130264
-0.00373951
-0.0826005
-0.207144
-0.00139606
-0.214424
-0.0958224
-0.147736
-0.174593
-0.00116632
-0.0028432
-0.00730266
-0.00295178
-0.0324684
-0.00963702
-0.00810136
-0.0811403
-0.154361
-0.060937
-0.170446
-0.0375832
0.00243495
-0.0477434
0.00362451
-0.201471
-0.191333
-0.0126085
-0.000757402
-0.130122
-0.02276
-0.211465
-0.0717435
-0.000160019
-0.00112925
-0.175954
-0.160387
-0.128612
-0.0274391
0.00382133
-0.00581783
-0.023878
-0.21659
-0.168479
-0.061282
-0.0374126
-0.217577
-0.130998
-0.133149
-0.000605228
0.00530473
-0.0758306
-0.109672
0.00375699
-0.106361
-0.137791
-0.172644
-0.023783
-0.110011
-0.172246
-0.0283766
-0.0015328
-0.0126131
-0.0028362
-0.0138639
-0.231432
-0.0254879
-0.20686
-0.215228
-0.20641
-0.224091
-0.178275
-0.102065
-0.000670153
0.000320798
-0.00470828
-0.212178
-0.158549
-0.000773575
-0.155711
-0.00418265
-0.00138826
-0.0511094
-0.0428357
-0.207227
0.00734353
-0.0232064
-0.00822379
-0.186274
-0.214701
-0.105007
-0.133634
0.0044519
-0.0431533
-0.0858205
-0.000665631
-0.154252
-0.00166821
-0.0281333
-0.00262597
-0.0839899
-0.21381
-0.155638
-0.0419313
-0.13818
-0.0837259
-0.161015
-0.213591
-0.0765215
-0.065864
0.000442651
-0.0180253
-0.176365
-0.0033796
-0.0955742
-0.0109917
-0.003721
-0.00658036
-0.0404095
-0.0324767
0.00319713
-0.0747435
-0.000565467
-0.214123
-0.00960489
-0.00332359
0.0039633
-0.140171
-0.00768157
-0.151539
-0.0294907
-0.231265
-0.0526868
-0.0531628
-0.0245598
-0.00111819
-0.0362862
0.000388484
0.00372783
-0.00142476
-0.198338
-0.107783
0.0101252
-0.00394201
-0.000575884
-0.00122684
-0.00158726
-0.0138537
-0.0655594
-0.15706
-0.0278114
-0.159316
-0.0478731
-0.201613
-0.183268
-0.101614
-0.0647295
-0.140346
-9.06597e-05
-0.000476358
-0.199181
-0.181004
-0.00527561
-0.230621
-0.05349
-0.0982421
-0.0969568
-0.00515638
-0.0140428
-0.0784545
-0.153942
-0.0709431
0.000271844
-0.0584358
-0.0694967
-0.0634922
-0.0538503
0.000628833
-0.17025
-0.0272219
-0.226332
-0.156786
-0.00141342
-0.163168
-0.0436823
-0.0573193
0.000427645
-0.000764786
-0.107425
-0.214724
-0.0384703
-0.001742
-0.223852
-0.0295445
-0.155822
-0.0119465
-0.00463977
-0.219454
-0.133214
0.000915754
-0.135218
-0.0809044
-0.00473223
-0.198787
0.00387114
-0.0295676
0.00187286
-0.0650662
-0.00230221
-0.0131486
-0.0739767
-0.0951776
-0.230444
-0.00309326
-0.00108465
-0.106307
-0.000923738
-0.164225
-0.216412
-0.196181
-0.16033
-0.000383013
-0.0372487
-0.190393
-0.171364
-0.155887
-0.0694557
0.000608612
-0.0841927
-0.0536064
-0.0468643
-0.202842
-0.18979
-0.0577877
-0.221611
-0.169962
-0.000746297
0.000708321
-0.18974
-0.221456
-0.000345611
-6.06216e-05
0.00434808
0.0026019
-0.155149
-0.00223006
-0.0717404
-0.187151
-0.0522231
-0.0432292
-0.215093
-0.035711
-0.0883216
-0.188409
-0.0871127
-0.130944
-0.113225
-0.0132645
-0.160218
0.000575826
-0.0220749
-0.00762584
-0.161949
-0.057367
-0.0779052
-0.000594665
-0.0425256
-0.178272
-0.0106066
-0.142796
-0.000474925
0.00267783
-0.0260638
-0.0345207
-0.137097
-0.000390204
-0.00824606
-0.0559955
-0.0491969
-0.00688632
-0.0173021
-0.0530027
-0.042951
-0.153746
-0.0319074
-0.1994
-0.0302759
-0.19553
-0.0186496
-0.195245
0.00259397
-0.024614
0.0118128
0.00258078
-0.0834258
-0.0143594
-0.00722366
-0.201578
-0.00350968
-4.16496e-06
-0.0129285
-0.0128405
-0.153012
-0.230516
-0.00360677
-0.079098
-0.00058284
-0.0016544
-0.0445946
-0.130906
-8.15205e-05
-0.167989
0.0063577
-0.0031275
-0.00889733
-0.196595
-0.225762
-0.0440666
-0.000749844
-0.21135
-0.155907
-0.222552
-0.132245
-0.031978
-0.0012263
-0.0716828
-0.077684
-0.197192
-0.00619368
-0.0361307
0.00547504
-0.0624793
-0.00651566
-0.200473
0.0121048
-0.221936
-0.0011243
-0.0292339
0.000679584
-0.0165046
-0.0666662
-0.00225883
-0.117481
-0.00307175
-0.176875
-0.0411587
-0.000593549
-0.0714524
-0.0148328
-0.00762619
-0.188855
-0.0470981
-0.0474268
-0.0548263
-0.0711361
-0.00455152
-0.163424
-0.206988
-0.0146718
-0.149773
-0.00435423
-0.0222089
0.00886916
-0.206671
-0.000682572
-0.205168
-0.0164949
-0.00153444
-0.0342727
-0.107638
-0.159819
-0.000855763
-0.0730072
-0.161792
-0.0258782
-0.102926
-0.183504
-0.217861
-0.0981857
-0.00108388
-0.00922738
-0.0489399
-0.0416149
-0.185036
-0.191232
-0.211219
-0.00146062
-0.00483708
-0.00445346
-0.0134239
-0.1337
-0.0824212
-0.000183165
-0.0490187
-0.0260395
-0.00258163
-0.0178478
-0.0442443
-0.000441888
0.0112141
-0.0315327
-8.76102e-05
-0.000614114
-0.032772
-0.0160215
-0.028243
-0.0368179
-0.00242296
-0.000624885
-0.168719
-0.0591937
-0.0196974
-0.203669
0.00109457
-0.0492537
-0.00199868
-0.181364
-0.0190729
-0.035243
-0.0124261
-0.00487612
-0.000332922
-0.133564
-0.0617107
-0.214512
-0.000164937
-0.0194266
-0.00322341
-0.0466742
-0.0345409
-0.0437341
-0.012247
-0.0123874
-0.0253339
-0.09973
0.0114144
0.00319129
-0.205827
-0.177693
-0.000716485
-0.123791
-0.076023
-0.0358893
1.64302e-05
-0.156143
-0.193038
-0.0445007
-0.00346854
-0.0797789
0.00412144
-0.0125704
-0.00214845
-0.0499254
-0.0990063
-0.151143
-0.00355925
-0.205385
-0.0227641
-0.206205
-0.0158711
-7.19427e-05
-0.0115546
-0.223845
-0.00861231
-0.00706133
-0.122179
-0.0244038
-0.095258
-0.0112615
-0.150911
-0.00118192
-0.000623978
-0.156976
-0.00383364
-0.157337
-0.22668
0.00023082
-0.0159095
-0.0973997
-0.18766
-0.12139
-0.0452866
-0.0212286
-0.137402
0.00795746
-0.20511
-0.214425
-0.0119545
-0.042827
-0.00179762
-0.0127306
-0.00107498
-0.147977
-0.000719401
-0.0708084
-0.218388
-0.0935086
-0.000406794
-0.086105
-0.00229007
-0.00453383
-0.00342555
-0.196362
-0.0771935
-0.168313
-0.0250111
-0.103054
-0.000633624
0.00828129
-0.0751336
-0.0371261
-0.000568584
-0.123347
-0.0238698
-0.0898385
-0.017835
-4.80272e-05
-0.0508194
-0.0916429
0.00695167
-0.103526
0.00189257
-0.0167638
-0.181069
-0.00701875
0.000386892
-0.038025
-0.0448387
-0.136089
-0.0280361
-0.216515
-0.000495323
-0.00710877
-0.185555
-0.0684526
-0.0953778
-0.175621
-0.218025
-0.00108155
-0.00559187
-0.0639243
-0.0203343
-0.000239254
-0.0954774
-0.0520179
-0.00701418
-0.0765445
0.000894761
-0.0253104
-7.47268e-05
-0.0179041
-0.0145987
-0.145274
-0.191737
-0.0202674
-0.0883296
-0.147428
-1.07288e-05
-0.0435757
-0.079942
-0.163436
-0.066276
-0.00717654
-0.00874862
-0.000316863
-0.0361616
-0.188226
0.00202399
-0.0932912
-0.208954
-0.0228494
-0.00123455
-0.000997387
-0.087147
-0.188527
-0.000401546
-0.215508
-0.18555
-0.017036
-0.035345
-0.0880774
-0.0422374
-0.0200893
-0.216585
-0.166089
-0.155531
-0.0448142
-0.00209755
-0.203996
-0.191472
-0.160535
0.00291964
-0.0304496
-0.00163267
-0.152471
-0.168383
-0.000916449
-0.174583
-0.175251
-0.00344712
-0.125447
-0.0420077
-0.00192502
-0.026124
-4.62676e-05
0.00474056
-0.0242057
-0.00909228
-0.000404062
-0.17124
0.00489503
0.000429618
-0.020978
-0.0713284
-0.0229725
-0.101334
-0.0249647
-0.00047649
-0.0104527
-0.000233148
-0.191187
-0.119658
-0.00911336
-0.112291
-0.000623643
-0.195133
-0.0142384
-0.0647084
0.00335084
-0.041084
-0.00381004
-0.223607
-0.206332
-0.150098
-0.224715
-0.00159568
-0.22634
-0.0269487
0.0011588
-0.189213
-0.00312117
-0.0217325
-0.156655
-0.00484629
-0.0506465
-0.00287626
-0.0121865
-0.0313043
-0.110492
-0.0066438
-0.00127757
-0.122966
-0.0805934
-0.169898
-0.000243407
-0.00385674
-0.0942071
-0.16017
0.00151592
-0.000832963
-0.0944544
-0.128364
-0.220501
-0.195062
-0.0862914
-0.0327345
-0.000249733
-0.0757652
-0.189931
0.00549727
-0.199296
-0.128615
-0.0740704
-0.00301165
-0.0694982
0.000972909
-0.152745
-0.000583431
-0.0821264
-0.0995152
-0.123647
-0.15465
-5.9474e-05
0.00142039
-0.1715
-0.182454
-0.186742
-0.00698474
-0.0979524
-0.226967
-0.18659
-0.0881007
-0.110138
-0.18858
-0.00292677
-0.0561804
-0.0131733
-0.106673
-0.154878
-0.000440822
-0.000778691
-0.0888779
-0.0395839
0.00289907
-0.174695
-0.051579
-0.152414
-0.158299
0.011651
-0.00953385
-0.0551257
-0.0162084
-0.146093
0.000695453
-0.178282
-0.00142308
-0.0454865
-0.13299
-0.086351
-0.156568
-0.0473771
-0.0785925
-0.212168
-0.046855
-0.037184
-0.225772
-0.0219175
-0.0476563
-0.160183
-0.040859
-0.0123284
-0.114762
-0.120577
-0.188535
-0.0761734
-0.035181
-0.0911094
0.00812345
0.000553874
-0.213268
-0.159846
-0.22408
-0.0799513
-0.0911289
-0.00705288
-0.00435111
0.00527845
-0.000586922
-0.156719
-0.0480346
-0.120569
-0.154737
-0.00449523
-0.0126582
-0.0470688
-0.170886
-0.00906023
-0.116615
-4.22678e-05
-0.0983321
-0.224581
-0.00203797
-0.152002
-0.187308
0.00166795
-0.0209136
-0.00160816
-0.0304279
-0.201339
-0.0559688
-0.115745
-0.0688008
0.000483785
-0.109448
-0.200434
-0.0959095
-0.000144232
0.00776167
-0.154311
-0.126127
-0.0646651
-0.0284112
-0.0914352
0.00217534
-0.0242903
-0.15147
-0.0662986
-0.00922334
-0.174156
-0.0129161
-0.00125852
-0.165022
-0.230753
-0.0538803
-0.234082
-0.0844933
-0.18055
0.000185297
-0.00237913
-0.068464
-0.0108869
-0.179417
-0.218355
-0.172555
-0.156002
-0.00297416
-0.112372
-0.204408
-0.00466067
-0.131549
-0.0110726
-0.184984
-0.073551
-0.148767
-0.00655627
-0.161248
0.00109568
-0.00482485
-0.0581541
-0.0478149
-0.146724
-0.0562424
-0.0569927
-0.131525
-0.153564
-0.15511
-0.0116588
-0.00434932
-0.0653706
-0.191552
-0.090203
-0.0100423
-0.110731
-0.135977
-0.175666
-0.227663
-0.0319014
-0.190244
-0.0284699
-0.197783
-0.186237
-0.0536849
-0.00911242
-0.093683
-0.155496
-0.00348377
-0.173727
-0.0685677
-0.00433761
-0.0793123
-0.0597054
0.00169673
-0.156105
-0.0270328
-0.049822
-0.19298
-0.00297216
-0.011066
-0.00786676
-0.213526
-0.00138369
-0.0789565
-0.0154257
-0.0096664
-0.212967
-0.0784109
-0.200544
-0.001532
0.00758904
-0.164308
-0.0773949
-0.000553764
-0.168286
-0.00825132
-0.0115873
-0.0386281
-0.155013
-0.0842571
-0.161149
-0.0077062
-0.155492
-0.0058814
-0.0671712
-0.078212
-0.156541
-0.00070121
0.0121072
-0.174378
-0.215176
-0.206782
-0.0246699
-0.152509
-0.152137
-0.150193
-0.195253
-0.000316751
-0.0699384
-0.185322
-0.0480682
-0.0475393
-0.000700861
-0.08973
-0.193347
-0.192634
-0.0612331
-0.000853265
-0.19421
-0.149063
-0.00106696
-0.137564
-0.068036
-0.00364055
0.00253146
-0.193561
-0.0106555
-0.0635548
-0.0605516
-0.18159
-0.0590176
-0.160944
-0.00878614
-0.10091
-0.000698727
-0.0429116
-0.178403
-0.000481138
-0.000833765
0.00737067
-0.00141178
-0.0746828
-0.22504
-0.00778124
-0.177815
-0.0398924
-0.056499
0.0113842
-0.0676911
-0.152987
-0.202517
-0.209253
-0.0461159
-0.0727247
-0.16142
-0.0444934
-0.00199441
-0.00348616
-0.00116191
-0.0406564
-0.11914
-0.188048
-0.0291656
-0.174189
-0.181019
-0.157463
-0.0723657
-0.0619784
-0.0269086
-0.0266066
-0.00178905
0.00314095
-0.0632625
-0.158323
-0.0220699
-0.202522
-0.0104391
-0.145408
-0.00232591
-0.0677961
0.00695491
-0.132187
-0.1113
-0.187723
-0.116669
-0.0450768
-0.0222165
-0.150264
-0.0649799
0.0018498
-0.0976906
-0.18703
-0.164577
-0.148677
-0.151013
-0.0471651
-0.223907
-0.189846
-0.185366
-0.0198059
0.000897872
-0.022228
-0.016619
-0.153528
-0.153241
-0.202789
-0.00179284
-0.00150132
-0.0509923
-0.00149466
-0.0154101
-0.0249916
-0.00117851
-0.000303972
-0.0011022
-0.173676
-0.220487
-0.194272
-0.0505206
-0.0106947
-0.183618
-0.108861
0.00515734
-0.000376081
-0.0366598
-0.0175762
-0.116194
-0.15168
-0.131819
-0.00073425
-0.182977
-0.0192393
-0.00087495
-0.0990819
-0.0662481
-0.155895
-0.0312359
-0.223463
-0.15574
-0.209815
-0.0541246
-0.0455425
-0.00594547
-0.0818881
-0.00495442
-0.0450095
-0.210383
-0.028348
-0.159179
0.00108128
-0.114312
-0.142532
-0.200522
-0.185373
-0.00425928
-0.00105128
-0.0810069
-0.00154391
-0.116497
-0.0748166
-0.196247
-0.00807886
-0.00205652
0.00123754
-0.17445
-0.00156477
-0.00258591
-0.0196182
-0.0613962
-0.0014274
-0.00143794
-0.155254
-0.0533666
-0.0460533
-0.114689
-0.0355281
-0.0112646
-0.160963
-0.172481
-0.0143847
-0.12084
-0.00265382
-0.0644121
-0.12559
-0.000204492
-0.0444548
-0.192183
-0.144084
-0.218608
-0.226299
-0.0457206
-0.0424576
-0.132145
-0.170201
-0.0733392
-0.189822
-0.00180201
0.000768537
-0.126246
-0.172521
-0.195732
-0.00346582
-0.0329689
-0.162784
0.000373031
-0.000960717
-0.00957606
-0.0621308
-0.1739
-0.00166471
-0.0571178
-0.183251
-0.103093
-0.0604341
-0.2051
-0.0421568
-0.086732
-0.0383479
-0.202571
-0.196382
-0.202366
-0.182544
-0.149665
-0.225864
-0.213919
-0.00123016
-0.0265122
-0.0088712
-0.176172
-0.104836
-0.224187
-0.195191
0.00116457
-0.127165
-0.118193
-0.147872
-0.000872032
-0.19275
-0.168959
-0.189647
0.00134004
-0.209981
-0.0110782
-0.119961
-0.109667
-0.00304891
-0.000764986
-0.103223
-0.174954
-0.0816914
-0.111622
-0.00496951
-0.143514
-0.000511305
-0.0437752
-0.0394909
-0.158059
-0.224744
-0.0541537
-0.163179
-0.149508
-0.210645
-0.155025
-0.191029
-0.0461294
-0.00656034
-0.0330186
-0.211509
-0.157931
-0.190285
-0.0939108
-0.0100337
-0.152582
-0.173919
-0.0555383
-0.00733637
-0.176588
-0.092606
-0.010576
-0.000742073
-0.0410835
0.000523611
-0.17577
-0.00277263
-0.202535
-0.216097
-0.178894
-0.141214
-0.120233
-0.218801
-0.120338
-0.106034
-0.181767
-0.00216373
-0.170803
-0.211153
-0.16314
-0.144611
-0.14482
-0.152487
-0.00634252
-0.130946
-0.0460784
-0.0110701
-0.188224
-0.0142508
-0.15776
-0.194072
-0.226738
-0.221039
0.0143629
-0.184763
-0.0262582
-0.140164
-0.135768
-0.228046
-0.00280516
-0.000434772
-0.199331
-0.000400206
-0.00335229
-0.134853
-0.0919234
-0.231996
-0.0057989
-0.16083
-0.147457
-0.145999
-0.145676
-0.0888123
-0.129122
-0.0139467
-0.0529096
-0.108257
-0.0488145
-0.17699
-0.178523
-0.0120589
-0.0574028
-0.150795
-0.143051
-0.14932
-0.133526
-0.133436
-0.101469
-0.188852
-0.170384
-0.203884
0.0105564
-0.227022
-0.0963133
-0.0877371
-0.208522
-0.0895016
-0.0800684
-0.072887
-0.120589
-0.133336
-0.137906
-0.202535
-0.148846
-0.059423
-0.0919334
-0.00265438
-0.157387
-0.044173
-0.00234001
-0.203436
-0.0858555
-0.0577494
-0.0640017
0.00579439
-0.0212418
-0.128527
-0.0115106
-0.225801
-0.169926
-0.0125026
-0.0604092
-0.000324827
-0.133159
-0.198074
-0.0609224
-0.0921239
-0.000327966
-0.0601904
-0.00733089
-0.162776
-0.0252064
-0.145268
-0.0426973
-0.231733
-0.000625218
-0.128824
-0.0151647
-0.130121
-0.0363304
-0.206934
-0.000175988
-0.202514
-0.180313
-0.0336303
-0.212297
-0.123725
-0.197958
-0.224063
-0.213428
-0.152789
-0.173936
-0.00127118
-0.0157933
-0.130413
-0.165556
-0.0170094
-0.00245492
-0.153292
-0.155592
-0.216318
-0.00295734
-0.00409407
-0.11291
-0.101326
-0.0886994
-0.220285
-0.14902
-0.0116877
-0.200951
-0.163175
-0.110256
-0.125445
-0.189245
-0.188859
-0.0477231
-0.0944093
-0.223566
-0.0167148
-0.219777
-0.151145
-0.160849
-0.163852
-0.0362894
-0.152411
-0.000880378
-0.17175
-0.164223
-0.0435693
-0.00116603
-0.15009
-0.143772
-0.170423
0.000234812
-0.209876
-0.00583441
-0.000630583
-0.114757
-0.0806831
-0.202757
-0.115643
-0.215467
-0.0626733
-0.00062496
-0.219839
-0.168625
-0.21693
-0.152448
-0.110258
-0.0408109
-0.167736
-0.176946
-0.222848
-0.0968676
-0.00944247
-0.229081
-0.225759
-0.00254319
-0.103498
-0.00266404
-0.0924505
-0.146955
-0.203858
-0.00502268
-0.000524128
-0.197087
-0.185657
-0.0067686
-0.208337
-0.231218
-0.193221
-0.171715
-0.0386071
-0.0847449
-0.207267
-0.0266531
-0.0885895
-0.224458
0.00175737
-0.192511
-0.164229
-0.225826
-0.128092
-0.000186823
-0.0805678
-0.128774
-0.119294
-0.00342982
-0.132818
-0.0896169
-0.0474417
-0.05233
-0.222561
-0.172513
-0.044984
-0.0668848
-0.00131358
-0.0226517
-0.231674
-0.207502
-0.0290085
-0.216172
-0.000357964
-0.0626407
-0.0108192
-0.0466313
-0.103544
-0.111641
0.0143776
-0.156371
-0.109166
-0.0792448
-0.213278
-0.0599244
-0.0991321
0.00158555
-0.223042
-0.022298
-0.0645462
0.00108623
0.00163795
-0.16878
-0.198921
-0.095393
-0.000333363
-0.123606
-0.224501
-0.125208
-0.0227609
-0.165539
-0.159893
-0.000728248
-0.171198
-0.146897
-0.0295587
-0.113835
-0.0349964
-0.0486809
-0.181549
-0.00504558
-0.00154312
-0.00240679
-0.0214688
-0.145665
-0.097127
-0.0728601
-0.00610613
-0.0633997
-0.226381
-0.166392
-0.153432
-0.110963
-0.0752204
-0.076593
-0.0423733
-0.147281
-0.116303
0.00101338
-0.200955
-0.221373
-0.101263
-0.0135259
-0.0107495
-0.043776
-0.0686724
-0.104213
-0.225368
-0.0721866
-0.233001
-0.137888
-0.168388
-0.188833
-0.0810861
-0.0265994
-0.114857
-0.00249048
-0.0491505
-0.00260783
-0.149876
-0.169555
-0.00142427
-0.0303645
-0.10619
-0.0469084
-0.0471128
-0.0669892
-0.1947
-0.208814
-0.0902346
-0.0383365
-0.0251225
-0.143936
-0.0264895
-0.158446
-0.000603103
-0.222776
-0.0377462
-0.215307
-0.0187052
-0.209507
-0.0901146
-0.160725
-0.0310913
-0.211992
-0.00687205
-0.0905545
-0.0794761
-0.00260107
-0.109866
-0.130341
-0.00151777
-0.00317874
-0.0204522
0.00375064
-0.0352973
-0.0467169
-0.0480331
-0.0827726
-0.00291756
-0.0413374
-0.22776
-0.154363
-0.0466819
-0.0968159
-0.0258043
-0.195993
-0.162771
-0.0932184
-0.210843
0.00103446
-0.0858299
-0.0850622
-0.0557717
-0.174534
-0.0483695
-0.0559323
-0.198134
-0.00351917
-0.038805
-0.0685218
-0.0409012
-0.228763
-0.0743806
-0.0407424
-0.0167515
-0.00269532
-0.104576
-0.155939
-0.0011377
-0.0663976
-0.108477
-0.0973856
-0.00239831
-0.0929407
-0.171429
-0.0449851
-0.126386
-0.190294
-0.183773
-0.0354207
-0.0781895
-0.0770412
-0.0568575
-0.171051
-0.146571
-0.0349823
-0.0734187
-0.00940921
-0.020059
-0.0367787
-0.0908372
-0.123149
-0.00192137
-0.232363
-0.0593614
-0.123425
-0.153946
0.00121896
-0.219156
-0.0150324
-0.0574621
-0.0169333
-0.129517
-0.1115
-0.00194448
-0.0582593
-0.00348203
-0.155568
-0.0574301
-0.153871
-0.00211272
-0.232964
-0.164487
-0.0085232
-0.197241
-0.183161
-0.0500127
-0.000851581
-0.0700408
-0.00201059
-0.157054
-0.0809386
-0.00284453
-0.154391
-0.00312823
-0.0331632
0.00114388
-0.231373
-0.144724
-0.156187
-0.0640971
-0.0989727
-0.207636
-0.00472785
-0.15692
-0.104121
0.0118714
-0.00208455
-0.0219241
-0.0430606
-0.045425
-0.174392
-0.138052
-0.0712884
-0.0433531
-0.229845
0.00983614
-0.136568
-0.0880492
-0.218249
-0.210488
-0.0612272
-0.00632503
-0.0530409
0.00612451
-0.151221
-0.00303289
-0.151751
-0.195538
0.00425827
-0.114848
-0.108876
0.0120929
-0.129972
-0.128368
-0.187655
-0.0468854
-0.22689
-0.193555
-0.156783
0.00177127
-0.167072
-0.0658483
-0.049419
-0.0946714
-0.0826493
0.000635067
-0.0560248
-0.0390304
-0.0851619
-0.000434158
-0.0499223
-0.0139165
-0.0586324
-0.177894
-0.0207555
-0.22232
-0.151104
-0.033579
-0.0293842
-0.0369389
-0.225114
-0.157704
-0.0661435
-0.180982
-0.0786927
-0.103329
-0.0403593
-0.134631
-0.21159
-0.00781439
-0.0825017
0.00124201
-0.166506
-0.00403888
-0.0419746
-0.171461
-0.00264393
-0.0215113
-0.169064
-0.024635
-0.146786
0.000877106
-0.136456
-0.000537553
0.000382234
-0.0958158
0.00804865
-0.0723831
-0.15639
-0.0765483
-0.0226068
-0.0574096
-0.056623
-0.134883
-0.0571054
-0.0758504
-0.0136238
-0.182061
-0.0520061
-0.0466713
-0.0638269
-0.174695
-0.0728767
-0.200263
-0.0215054
-0.00651305
-0.0282523
-0.000517796
-0.0548488
-0.0143698
-0.0470216
-0.191057
-0.165306
0.0147033
-0.194369
-0.0925303
-0.0785297
-0.0407482
-0.0326047
-0.127822
-0.00162334
-0.0143206
-0.0809486
-0.0413142
-0.00103812
-0.0299134
-0.220961
-0.126178
-7.91139e-06
-0.0507034
-0.0117094
-0.110047
-0.151854
-0.03708
-0.00371859
-0.10009
-0.16901
-0.0235726
-0.159991
-0.017832
-0.066906
-0.0393616
-0.000280051
-0.00365975
-0.00528224
-0.0594157
-0.00822431
-0.0685741
-0.141418
-0.0341976
-0.200658
-0.00323433
-0.165281
-0.0505492
-0.0987634
-0.140059
-0.0168597
-0.0908039
-0.0178699
-0.0843722
-0.055242
-0.0670442
-0.023675