/*--------------------------------*- C++ -*----------------------------------*\
| =========                 |                                                 |
| \\      /  F ield         | OpenFOAM: The Open Source CFD Toolbox           |
|  \\    /   O peration     | Version:  v2012                                 |
|   \\  /    A nd           | Website:  www.openfoam.com                      |
|    \\/     M anipulation  |                                                 |
\*---------------------------------------------------------------------------*/
FoamFile
{
    version     2.0;
    format      ascii;
    class       surfaceScalarField;
    location    "250";
    object      phi_0;
}
// * * * * * * * * * * * * * * * * * * * * * * * * * * * * * * * * * * * * * //

dimensions      [0 3 -1 0 0 0 0];
oriented        oriented;


internalField   nonuniform List<scalar> 
20362
(
0.368141
0.11222
-0.48036
0.00495694
0.000826728
-0.00578367
-0.121199
-0.279385
0.400584
0.331679
0.112536
-0.444215
0.156199
-0.168893
0.0126935
0.382323
0.0603591
-0.442683
0.295428
-0.523599
0.228171
0.640929
-0.476867
-0.164062
-0.17636
-0.00935113
0.185711
0.245685
-0.289453
0.043768
-0.179716
0.00335624
0.696301
-0.348842
-0.347459
-0.476002
0.647886
-0.171884
-0.00477559
0.00546927
-0.000693679
0.478035
-0.146356
-0.601268
0.606925
-0.00565612
0.213347
-0.0685865
-0.144761
0.532115
-0.257364
-0.274751
0.00359307
-0.0010059
-0.00258718
0.208278
-0.0882137
-0.120064
-0.0942308
0.0971361
-0.00290522
0.66167
-0.352064
-0.309606
0.503487
-0.398772
-0.104715
0.278359
-0.399557
-0.593364
0.600289
-0.00692425
0.641854
-0.585517
-0.0563369
0.308251
-0.00535445
-0.302896
0.0644876
0.577366
-0.563766
-0.0295979
0.0114792
-0.0113615
-0.000117724
0.00285722
-0.0410385
0.0381813
-0.377479
-0.226392
0.60387
0.00287052
0.00111981
-0.00399032
0.0555028
-0.340102
0.284599
0.609272
-0.28828
-0.320992
-0.0046497
0.000573405
0.0040763
-0.336595
0.265172
0.0714231
-0.00328474
0.00824168
0.34438
-0.531112
0.186732
-0.453903
0.0260719
0.427831
-0.0939452
-0.129883
0.223828
0.305819
0.303454
0.29406
0.383327
0.534299
-0.435124
-0.0991748
-0.125776
0.493916
-0.3399
-0.0616561
0.401557
0.755948
-0.337214
-0.418734
-0.0630713
-0.383198
0.446269
0.238515
-0.24731
0.0087951
0.426223
0.128614
-0.554837
0.0595434
-0.030875
-0.51354
0.450468
-0.695307
0.556496
0.138811
0.304271
0.227844
0.363992
-0.343788
-0.0202038
0.606776
-0.0654589
-0.541317
0.545117
-0.73415
0.189033
-0.15019
-0.27137
0.0285388
0.242831
-0.429388
0.315355
0.114033
-0.166682
0.0364468
0.130236
0.0794039
0.454895
-0.00513077
0.00687846
-0.00174769
0.254487
0.407183
-0.00788071
0.000142122
0.00773858
-0.428358
0.622528
-0.19417
0.00083068
-0.0950615
-0.00339535
-0.00333814
0.00673349
0.0635844
-0.535378
0.471794
-0.193187
0.179366
0.0138207
0.367361
0.388587
0.230714
0.410215
0.706348
-0.523239
-0.183109
0.356518
0.107159
-0.000680964
0.00353058
-0.00284961
-0.00629352
0.070719
-0.0644255
-0.0082903
-0.184897
-0.0102285
-0.0588428
0.0690714
-0.00366925
0.00298829
-0.27286
0.252203
0.0206569
0.133395
-0.22734
-0.0135082
0.211538
-0.198029
-0.268787
0.17497
0.0938166
0.650987
-0.445961
-0.205026
0.508446
-0.164066
0.00735741
-0.00788484
0.000527427
0.235829
0.00591444
-0.241743
-0.185854
-0.270669
0.456523
0.281591
-0.647989
0.366398
-0.077594
0.0881515
-0.0105575
0.636786
-0.440546
-0.196241
-0.0235169
0.135682
-0.475582
0.307788
0.0562038
-0.00631497
0.00130841
0.00500655
-0.00233662
0.00520714
-0.313369
0.0322226
0.281147
0.388752
0.307548
0.269059
0.285424
-0.554483
0.0817705
0.262449
0.139431
-0.40188
0.245094
0.00059096
-0.606218
0.549711
0.0565078
0.671684
-0.436319
-0.235365
-0.339666
0.507522
-0.167856
0.0419849
0.171363
-0.120819
-0.147968
-0.663627
0.467579
0.196047
-0.0260121
-0.427891
-0.124344
-0.189025
0.200057
-0.00276917
-0.197288
-0.557442
0.117285
0.440157
-0.0112077
0.0119766
-0.000768867
-0.0096692
-0.12299
0.13266
0.0901741
-0.109793
0.0196186
0.568936
-0.273385
-0.29555
0.350087
-0.520834
0.170747
0.00434301
0.0145269
-0.0188699
-0.0986577
-0.507561
0.101109
-0.380494
-0.0117595
0.0117595
0.413155
0.293193
0.292805
-0.38743
0.0946253
0.000739505
0.00285357
-0.00145498
0.0112594
-0.00980442
-0.00362764
-0.00461508
0.00824273
-0.250291
0.51935
-0.52188
-0.21227
-0.500458
-0.0569842
0.522294
-0.487741
-0.0345526
-0.142898
-0.0237839
0.114902
-0.109514
-0.00538779
0.469744
0.0525498
0.210716
0.0277997
-0.0119976
-3.01568e-05
0.0120278
0.151738
-0.176022
0.0242835
-0.00153634
-0.00634437
0.102784
0.384957
-0.487741
-0.276206
0.351158
0.249915
-0.14273
-0.107185
-0.0341175
0.228902
-0.194784
-0.000736871
-0.0112608
0.126994
-0.508531
0.381537
-0.369527
0.548505
-0.178977
-0.100254
0.482577
-0.090114
-0.246481
0.00784174
-0.0854357
0.0862569
0.255878
0.185907
-0.37176
0.00252468
-0.453327
0.203036
-0.541277
0.599348
-0.0580715
0.213467
-0.226975
0.359905
-0.449955
0.120658
0.234945
-0.355603
-0.0672684
-0.216358
0.283627
-0.211485
0.458371
-0.246886
0.000877037
-0.007192
0.0123912
0.487348
-0.499739
0.601815
-0.175592
-0.578335
0.102333
-0.00651849
0.00138773
-0.0036229
0.00395963
-0.000336725
-0.102114
-0.478295
0.580409
0.338668
-0.678333
0.108246
0.141669
0.463303
-0.167874
0.137739
0.259228
-0.396967
-0.629305
0.256403
0.372903
-0.372996
0.526443
-0.153447
-0.246877
0.367535
0.215768
-0.427254
-0.367245
0.284531
0.0827136
0.0548989
-0.06194
0.00704104
0.467501
-0.235308
-0.232193
0.407632
0.168147
-0.575779
0.0559014
-0.0530442
0.000895214
0.0123363
-0.0132315
-0.498314
-0.0429622
0.00833255
-0.00784353
-0.000489016
-0.151715
-0.263154
0.41487
0.00582843
-0.00945607
-0.00275686
-0.601638
0.232111
-0.385932
0.512926
0.576851
-0.574743
-0.00210725
-0.268481
0.40622
0.169805
0.333682
-0.276541
0.209273
0.141019
-0.150688
-0.664408
0.413346
0.251062
0.00420922
0.00726999
-0.00898794
-0.00237355
0.558965
-0.328251
-0.590412
0.488298
0.232367
0.336569
0.199777
-0.0687316
-0.131045
-0.297047
0.606776
-0.00706367
3.85994e-05
0.00702507
0.43998
-0.337196
0.0103186
-0.00855895
-0.00175964
0.366286
-0.310783
0.383453
0.267534
0.29292
-0.529232
0.236312
-0.331491
0.269835
-0.0163182
0.0112155
0.00510264
-0.333304
0.433267
-0.0999628
-0.207622
0.00486295
0.202759
-0.0171542
-0.00361119
0.0049196
0.00158308
0.0087355
-0.386898
0.573206
-0.186308
0.0640844
-0.00918543
-0.00311318
-0.00055607
-0.10125
0.379608
-0.448356
0.625334
-0.176978
0.401762
-0.0781686
-0.323593
-0.0465069
0.0114461
0.0350608
0.244229
-0.345778
0.101549
0.172135
0.0604245
-0.142438
-0.335517
0.477955
-0.00280318
-0.00184653
-0.21702
0.563767
-0.346747
0.0364242
0.163353
-0.00420484
-0.00432339
0.00852823
0.0470053
0.0144932
-0.0614984
-0.0120785
-0.0790213
0.0910998
-0.157263
-0.281278
0.438541
-0.000185242
0.00661373
-0.00642849
-0.0067453
-0.000318363
0.007256
0.00107655
0.0759187
-0.0861472
-0.43748
0.0695048
0.367975
0.337628
-0.489787
0.152159
-0.00450401
0.00289881
0.0016052
-0.0237634
0.0281064
-0.513258
0.589215
-0.0759564
0.0155866
0.0243323
-0.0399189
0.331186
0.340498
-0.450171
0.424159
-0.164406
-0.499221
-0.00291657
-0.0050611
0.321137
-0.463575
0.122744
0.037164
-0.308534
0.323676
-0.331293
0.00761708
-0.341543
0.648206
-0.306663
-0.183522
-0.00753273
0.191055
0.00131981
-0.0125275
-0.080962
0.0544531
-0.0665316
-0.261044
0.329086
-0.0680423
0.0165872
-0.257943
0.241356
0.397954
-0.165832
-0.232122
0.414515
-0.12171
0.000674573
-0.00973467
0.0090601
0.00343412
-0.00349694
6.28243e-05
-0.375177
0.114133
0.368855
-0.501459
0.132605
-0.00155858
-0.00294543
-0.29409
0.282711
0.0113792
-0.560548
0.684352
-0.123804
0.0471013
0.0124421
-0.000450867
0.0267174
-0.0262666
-0.0542947
0.521343
-0.467048
-0.151101
0.488728
0.343974
0.302689
-0.646663
0.319856
-0.30937
-0.0104861
0.382976
0.164103
-0.547079
0.21799
0.111096
-0.000317907
-0.00779489
0.0081128
0.0952058
0.27108
0.00597999
-0.00616523
0.186552
-0.150106
-0.00301303
0.00027857
0.00273446
0.451702
-0.101615
-0.288921
0.397099
-0.108178
0.255382
-0.632861
0.288661
-0.180415
-0.0594572
0.00173538
-0.00594022
-0.306792
0.14063
0.166162
0.00219636
-0.00616254
0.00396618
-0.510193
-0.0910758
0.00830949
-0.00721811
-0.00109138
-0.155527
-0.0143135
0.169841
-0.0669265
0.154467
-0.582825
-0.00617891
0.00156382
0.0168834
-0.284313
-0.308462
0.592775
-0.000188787
-0.0099851
-0.00633307
-0.348732
0.254085
0.0946477
-0.503478
0.203149
0.300329
0.34787
-0.526847
0.178977
-0.0997092
-0.0098051
-0.639166
0.273738
0.365428
0.143871
-0.13861
-0.00526013
0.0013487
0.00113265
-0.00248136
0.208901
-0.0341327
-0.174768
0.48405
-0.492942
0.00889219
0.680667
-0.12681
-0.553857
-0.00218057
-0.00144481
0.270376
-0.119865
-0.150511
0.00996402
-0.00312728
-0.00683674
0.000130991
-0.00108055
0.000949562
0.287386
-0.286624
-0.00076238
-0.0953142
0.0161888
0.0791254
0.025796
0.182482
-0.000488667
-0.0405499
-0.0101764
0.084304
-0.458743
0.374439
0.530252
-0.147277
-0.611087
0.24391
0.367176
0.00254678
0.00481064
-0.0363682
0.0519548
0.00947947
0.00380557
-0.013285
-0.108685
0.0089758
-0.202241
-0.301237
0.254849
-0.406564
-0.498771
0.0969614
0.497589
-0.59455
-0.113302
0.0337865
0.450263
0.120489
0.168172
0.330472
0.182237
-0.512709
0.00397172
-0.00886428
0.00489257
0.187192
0.362518
-0.00798152
0.00323555
0.00474597
0.727181
-0.265967
-0.461215
0.295644
-0.155013
-0.18709
0.179751
0.007339
-0.288231
0.487393
-0.199162
0.44982
0.277361
-0.242776
0.271315
0.380718
0.14151
-0.522228
0.0244303
-0.204306
0.179876
-0.167581
0.0120539
-0.00625003
0.00285469
-0.0149347
0.000239553
0.00806994
-0.00180133
0.00193232
-0.188014
-0.0848458
0.614052
-0.614052
0.270826
0.04903
0.303931
-0.0633504
-0.240581
0.50233
-0.177994
-0.324336
-0.0152611
0.0129303
0.00233082
-0.00405367
0.00313472
0.00137825
-0.00451297
0.13127
-0.48262
0.35135
0.250742
0.108218
-0.35896
-0.425744
-0.328883
0.490695
-0.161812
0.0387141
0.231662
0.36527
-0.203821
-0.161449
-0.0935299
0.337759
-0.0212108
-0.428961
-0.216387
-0.00910275
0.22549
-0.00821035
-0.267996
0.229733
-0.558617
0.150732
0.0811504
-0.231882
0.00212049
0.0134027
-0.0137206
0.572321
-0.402515
0.300161
-0.48589
0.185729
0.547594
-0.3378
-0.209794
0.102501
0.295453
0.34717
0.300716
-0.336241
0.467511
0.323544
0.0782184
0.00952434
0.134346
0.517572
-0.217411
-0.392095
0.404487
-0.0612939
0.00717839
0.0541155
-0.0845617
-0.223835
0.308397
0.246795
0.0054081
0.315996
-0.533016
-0.179581
0.461172
0.417195
-0.131771
-0.000324324
-0.00445127
0.00267872
0.0568452
-0.0595239
0.0189102
-0.019361
0.0167135
-0.0118947
-0.00481877
0.238888
-0.0667527
0.529213
-0.150584
-0.378629
0.062854
0.232031
-0.294885
0.268121
-0.479757
0.211636
-0.495528
0.207297
0.391588
-0.129139
-0.0426379
-0.434229
-0.51024
-0.0440474
0.554287
0.304295
-0.00569395
-0.298601
0.0328051
-0.0250594
-0.00774569
-0.000173058
-0.00332388
0.0793912
-0.320144
0.240753
-0.55787
0.109514
0.490977
-0.222856
-0.438337
0.654282
-0.215945
-0.368952
0.164439
0.204514
0.201677
-0.177247
-0.15734
-0.272047
0.0225008
0.00416743
0.300127
0.358496
-0.500874
0.142379
-0.0154062
0.0160807
-0.348224
0.480573
-0.132349
-0.00466766
0.0055447
0.361111
-0.261837
-0.0992737
0.000735999
-0.109421
-0.0429498
-0.0523644
-0.133461
-0.00635166
0.139813
0.429629
-0.293947
0.0135779
-0.0599185
0.0463406
0.202745
-0.0318648
-0.00899354
0.0057088
-0.0648817
0.0115044
0.0533773
0.0587861
0.0293654
0.405047
0.125206
0.244574
-0.631472
0.145374
-0.193382
0.0480074
0.00501382
-0.0059273
0.000913478
-0.639391
0.393839
0.245551
0.00674919
0.186873
0.286562
-0.473435
0.114278
0.331764
-0.446041
-0.0316573
-0.172649
0.0198054
0.00994872
-0.009256
-0.00069272
-0.00260847
0.00574319
0.00229065
0.00765806
-0.266578
0.261532
0.00504573
-0.101593
-0.375035
0.476628
0.504632
-0.420328
-0.415163
-0.224228
-0.256425
0.325974
-0.0695487
0.205538
-0.0601636
0.199114
0.330099
0.000311952
-0.00448924
0.00417729
0.362861
-0.464454
0.111861
-0.0178843
-0.0939763
0.265261
0.330643
0.228323
0.00593684
-0.0114228
0.00548599
-0.222477
0.566451
0.183978
0.43855
-0.00567512
0.182284
-0.176609
-0.0540493
0.447889
-0.0152913
0.069111
-0.0754045
0.102131
-0.450973
0.000151276
-0.00435491
0.00420363
-0.46085
-0.0493897
0.0154584
-0.0518266
-0.00509675
0.00524803
0.634033
-0.413571
-0.220462
0.25826
0.101646
-0.279432
0.126717
0.152715
0.0132385
-0.00112793
-0.0121106
-0.1656
0.316332
-0.00159134
0.0147002
-0.0131089
0.17318
-0.178855
-0.265991
-0.000586406
0.0699115
-0.0040991
-0.00378574
0.428618
-0.482913
-0.0150956
0.0136406
0.00387779
0.20766
0.120637
-0.455218
0.334581
0.333065
-0.491519
0.158454
-0.186836
-0.00267549
0.00117005
0.00150544
-0.556956
0.121098
0.435858
-0.45446
-0.0587979
0.139511
-0.13718
-0.00233121
0.0816365
-0.0109175
0.391555
-0.180386
-0.211169
0.539636
-0.0897616
-0.449874
-0.580635
0.146872
0.433763
0.533828
-0.469341
-0.00114844
0.0106279
-0.615433
0.33112
-0.431035
0.376986
-0.0267248
0.48703
-0.460305
0.488385
-0.15532
-0.00145447
-0.000286332
-0.00238916
0.232821
0.12829
0.00597958
0.229849
0.687189
-0.297034
-0.390155
-0.00061656
0.00175558
-0.00113902
0.00180873
0.00366054
0.369476
-0.350445
-0.0190307
0.269448
0.0958222
-0.0107279
0.010237
0.000490862
-0.000931994
-0.00584471
0.00677671
0.343922
0.292864
-0.634318
0.286916
0.347402
-0.409197
-0.0422137
0.45141
0.282176
0.405013
0.0185378
0.190363
-0.383606
0.305437
-0.366941
-0.175829
0.54277
0.0511632
0.135389
0.00407305
-0.00391704
-0.000156005
0.205022
0.380227
-0.585249
-0.300427
0.4873
-0.4044
0.332376
0.0720242
0.327126
0.306907
-0.274455
0.189893
-0.0347601
0.568588
-0.174562
-0.00106853
0.17563
0.033459
-0.216981
-0.423764
0.402553
0.334973
0.0345023
0.226283
-0.231637
-0.195987
-0.00367898
-0.203943
0.00487392
0.000267606
-0.00514153
0.523763
-0.118716
-0.201546
0.167428
-0.182467
-0.00462374
0.00516185
0.00589005
-0.0110519
-0.2399
0.245814
-0.637133
0.351909
0.285223
0.146836
-0.00732519
-0.0138445
0.213901
-0.197694
-0.0917588
0.101745
-0.0115707
-0.438366
0.335437
0.102929
0.0608725
-0.0517344
-0.00913816
-0.381466
0.450809
-0.0693429
-0.506647
-0.0500675
0.556715
-0.0600372
-0.0230362
0.0830734
-0.21294
0.244194
-0.344611
0.100417
0.00827399
0.00148907
-0.00976307
-0.487605
-0.146713
0.158787
-0.355539
0.293228
0.0623105
0.0261531
0.154378
0.00557963
-0.000705703
-0.0990523
-0.180379
-0.569841
0.163359
0.406482
-0.479318
-0.097477
0.576794
-0.55443
0.197351
0.357079
-0.573993
0.188782
0.385212
0.105348
-0.514545
0.36582
0.151752
-0.368695
-0.0357049
-0.504762
0.197062
0.3077
0.19636
0.380491
-0.0046538
-0.0050095
0.0096633
0.111476
0.000384357
0.0121416
-0.0137329
0.331186
-0.236039
0.0562372
-0.437703
0.00138594
0.0118526
0.0420456
-0.373536
5.5854e-06
0.0225328
-0.0225384
-0.5484
0.0690824
0.245179
0.146376
0.201187
0.371134
0.000122514
-0.0113057
0.0111832
-0.238567
0.0397385
0.198829
-0.0727344
-0.000210386
0.0729448
-0.194007
-0.369757
0.574779
-0.000222045
-0.0501438
0.0503658
0.468713
-0.534172
0.00974241
-0.194014
-0.310747
0.347135
-0.276801
-0.0703334
0.00689504
0.485602
-0.282454
-0.00299157
-0.00196906
0.00496063
-0.00968144
0.00880194
0.000879498
-0.135944
0.501764
-0.216323
-0.319077
0.5354
-0.105287
-0.326337
0.431624
0.309154
0.209432
-0.518586
-0.00227353
0.497422
-0.388809
0.200008
-0.161294
0.267319
0.280275
0.188112
-0.190881
-0.110801
-0.360881
0.245866
0.115015
0.0144653
-0.00891854
-0.0055468
-0.444035
0.0202709
-0.0565456
-0.129713
-0.206654
0.336367
0.0313507
0.27258
0.000516013
-0.00349759
0.00298158
0.361658
-0.266452
0.11841
-0.558956
-0.298745
0.540477
-0.232014
-0.308463
0.119452
-0.565413
-0.00558776
0.00628336
-0.0006956
0.00118783
-0.00898272
0.486788
-0.229144
-0.257644
-0.14146
0.444025
-0.302565
0.119454
0.332991
-0.452445
0.0512873
0.0504575
-0.00218991
0.00246848
-0.0893806
0.294645
-0.205265
0.309912
-0.189423
0.00476045
-0.0044485
0.359939
-0.109197
-0.132012
0.409301
-0.277288
0.128892
-0.51502
0.386129
0.0136529
0.0191521
-0.277313
0.340167
0.634625
-0.447355
-0.18727
0.0707913
-0.577438
-0.00122425
0.0906656
-0.0894413
-0.018368
0.0184905
0.159931
-0.194064
0.208241
0.339808
-0.548049
0.248877
0.0385093
0.0416578
0.187244
-0.404923
0.533815
0.528324
0.0857288
-0.00906606
0.00441226
0.636824
-0.400796
-0.236028
-0.00209335
0.00368514
-0.00159179
0.435339
-0.0132977
-0.422042
0.00262
0.0054039
-0.0080239
0.282486
-0.233843
-0.048643
-0.476734
0.109793
0.000660325
-0.00964827
-0.0023568
-0.00562472
-0.10599
-0.362309
0.481763
-0.090488
0.405843
0.0175547
-0.357657
0.0067754
-0.00994879
0.00317339
-0.20824
0.200707
0.00832431
0.00838918
-0.101584
0.00265118
0.179633
0.00448024
0.257021
-0.181745
0.169712
0.0120327
-0.293111
0.0434038
0.249707
0.0383627
-0.0247849
0.67742
-0.406065
-0.271354
0.217217
0.26957
0.564953
-0.330066
-0.234886
0.578706
-0.211616
-0.36709
0.418689
-0.38191
-0.0367794
0.027582
0.172426
0.419697
0.257723
-0.422484
-0.131946
-0.181362
0.307036
-0.412323
0.135388
-0.483612
-0.31987
0.507062
-0.205088
0.594664
-0.389576
0.289019
0.235259
-0.524279
0.0250184
0.0546787
-0.0796971
-0.097972
0.190316
-0.55316
0.362844
0.0109716
-0.00584431
-0.00512726
0.186599
-0.183948
-0.000272408
-0.0180956
0.053765
-0.0422606
-0.00237869
-0.249833
0.229656
0.0201767
-0.350885
-0.110953
0.461838
-0.286117
0.406754
0.0110795
0.42426
-0.00754664
-0.0389602
0.130594
0.20438
0.322197
0.242756
0.0902297
0.394723
-0.484953
0.475635
-0.106781
-0.499077
0.411841
0.0872352
-0.148806
-0.34172
0.490526
0.295961
0.122728
0.259426
0.106554
-0.36598
-0.000421316
-0.129832
-0.162224
0.292056
-0.613492
0.373194
0.240298
0.285017
-0.154423
0.481
-0.18694
0.182132
0.424792
0.209103
0.182484
-0.331637
0.201924
0.109446
-0.547783
0.000523858
0.0201024
-0.0206263
0.36037
-0.509176
-0.25498
-0.477899
0.574861
0.174415
-0.52129
0.346876
0.338457
0.168302
-0.506759
0.306467
-0.421771
0.115304
-0.490624
0.149081
-0.181925
0.00580502
0.17612
-0.0705834
0.284759
-0.214175
-0.0119173
0.00632956
-0.240101
-0.304614
0.544714
-0.00594661
0.156303
0.331215
-0.487519
0.000898529
-0.00299188
-0.000371754
-0.00398315
-0.29413
0.293252
0.000878293
-0.381364
0.125362
0.256002
0.0663777
0.197187
-0.263565
0.515923
-0.341509
-0.250548
-0.311634
0.562183
0.195149
0.290453
0.171519
0.354924
-0.490649
-0.0145718
0.0263194
0.000397986
0.120527
0.0263096
-0.00204603
0.00386419
-0.00181816
-0.239023
0.494221
-0.255197
0.0110648
-0.00522644
-0.00583832
-0.574845
0.417047
-0.443772
-0.393922
-0.0428287
-0.290475
0.00561389
0.00545087
-0.280905
0.0450399
0.235865
-0.0678122
0.0704909
-0.00448235
-0.288629
-0.147331
0.0138695
-0.0154006
-0.189665
0.574622
0.124751
-0.310218
-0.098725
-0.256814
-0.209171
-0.292346
0.501518
-0.126426
-0.312899
0.439325
0.695584
-0.333066
-0.000995303
0.00216535
-0.025099
0.0248266
0.21833
-0.0953283
-0.303444
0.555136
-0.191918
-0.363218
-0.00971389
0.0111891
-0.00147524
0.275926
-0.0948917
-0.485743
0.488785
-0.321166
-0.16762
-0.102621
-0.00258373
0.000537695
-0.240184
0.256772
0.0352347
-0.558473
0.124582
0.18533
-0.00660121
-0.00113735
0.00773856
0.276038
-0.40805
-0.00620861
0.00261483
0.00359378
0.117593
-0.283426
-0.473354
0.348228
0.125126
0.0819575
-0.0602423
-0.0217152
-0.000171485
0.00110058
-0.000929097
-0.00119958
-0.00234141
0.003541
0.00261452
-0.563162
0.325959
-0.110869
-0.21509
0.00703778
0.00393379
-0.524447
0.101962
-0.00468505
-0.000534922
0.00521997
0.415405
-0.126385
-0.208175
0.39855
0.2086
-0.447623
0.124169
0.0893609
-0.21353
-0.00742206
-0.00144223
-0.183788
-0.143507
0.398659
0.48004
-0.38981
-0.581216
0.151963
0.429253
0.153821
-0.117397
-0.303617
0.132963
-0.569282
-0.464947
0.583982
-0.119035
0.154094
0.334692
-0.0856287
0.0677444
-0.180663
-0.448642
0.314656
-0.437344
0.122689
0.0798614
4.98458e-05
0.0221433
-0.0221931
-0.307637
0.299426
-0.00179552
0.00117896
-0.067089
0.066867
-0.00206268
0.00106738
-0.172807
0.218376
-0.427547
0.0920951
-0.0847542
-0.0073409
-0.177312
-0.461854
0.00325887
-0.00212621
0.0141342
-0.00897239
0.0204536
-0.195015
-0.370389
0.499002
-0.40565
0.205719
0.19993
-0.377285
0.449271
-0.0719863
0.00506496
-0.167565
0.1625
-0.500703
0.274311
-0.00972888
-0.00604599
0.0157749
0.134373
-0.264255
0.545328
-0.0948211
0.0867647
0.00805637
-0.178418
0.0902041
-0.00154859
0.0013771
0.259671
-0.445879
0.186209
0.0020034
0.384512
-0.139817
-0.244695
0.000490996
2.50161e-05
0.434009
-0.267632
-0.166377
-0.0919531
0.216122
0.195001
0.323655
-0.518656
0.350146
0.124577
-0.474723
0.230529
-0.325519
0.0949901
0.0267656
-0.183904
0.157138
0.208846
-0.344993
0.136147
0.504938
0.607733
-0.200747
-0.406986
0.0878508
-0.0822616
-0.0055892
-0.36016
-0.205912
0.566072
0.144249
-0.452253
0.308004
-0.00236015
-0.00838874
0.0107489
0.465243
-0.205572
0.659877
-0.239707
-0.42017
-0.086185
-0.488558
-0.00963686
0.00107792
-0.402107
0.0904725
0.48874
-0.37652
0.0932808
0.232679
0.629996
-0.185205
-0.444791
-0.327655
0.386701
-0.0590467
0.356158
0.20239
-0.558548
0.132643
0.0211776
0.0518888
-0.429174
-0.486494
0.546508
-0.0600135
-0.252865
0.355366
0.0888665
0.558003
-0.321691
0.411579
-0.35122
-0.00330142
-0.101215
0.104516
0.00656738
0.000147409
-0.00671479
0.181283
0.0203943
0.218377
0.336759
0.00276034
-0.00246452
-0.000295823
0.00124909
-0.00424066
0.00224659
-0.00691425
-0.171396
0.00730698
0.164089
0.00707463
-0.00683508
0.343777
-0.488119
0.144342
0.361878
0.175502
-0.537381
0.428953
-0.126974
-0.301979
-0.482675
-0.00381889
-0.504641
-0.0428357
0.547476
0.00251446
-0.261907
0.212466
-0.161302
-0.159023
-0.355436
0.514459
-0.207061
0.283819
-0.0767584
0.559906
-0.214413
0.293805
-0.00386111
0.00110425
0.000431901
-0.00492114
-0.181724
-0.388117
-0.379409
-0.229493
0.236388
0.266257
0.370567
-0.221509
-0.341813
0.563322
-0.506482
-0.0034142
0.000924182
0.00249002
-0.00452432
0.0998194
-0.0952951
-0.0820013
0.286598
-0.204596
-0.157116
0.495573
-0.141599
-0.348796
0.567174
0.00370088
0.00171572
-0.0054166
-0.116804
-0.253778
0.370581
-0.249792
-0.226942
-0.00637354
-0.0761397
0.300507
-0.224368
0.234224
-0.228816
0.279616
-0.40281
0.123195
-0.00236567
0.0342876
-0.031922
-0.362194
0.42147
-0.059276
0.0956891
0.30141
0.508081
-0.177609
0.000566998
-0.00194289
0.00137589
0.37755
0.146212
-0.14601
0.00217253
0.00610146
0.00148052
-0.100118
0.0997595
0.000358149
0.0330742
-0.0441706
0.0110964
-0.0683133
-0.00571086
0.00102581
-0.509131
0.583634
-0.0745023
-0.127388
-0.0112228
0.358077
0.326274
-0.488146
0.127986
-0.00327674
-0.000839579
0.00411632
-0.520937
0.0898908
-0.0386035
0.269653
0.384629
0.0011404
-0.000573401
-0.00582273
0.00489074
-0.064205
0.329377
-0.0148659
-0.00880442
0.0236703
-0.000177926
0.348403
-0.223822
-0.11069
-0.251049
0.361739
-0.229577
0.642732
-0.209326
0.570987
-0.361661
-0.00751912
0.00184086
-0.00865263
0.00681177
0.18281
-0.579463
0.396653
-0.0821626
-0.00190592
0.0840685
0.201974
-0.272558
0.00129172
-0.000151326
-0.031526
0.16967
-0.138144
-0.46924
0.639183
-0.169943
0.374857
-0.528567
0.153711
-0.21243
0.550554
-0.338124
0.512938
0.200055
0.184457
-0.42212
-0.191372
0.208903
0.3491
-0.0832881
-0.011533
0.199945
-0.173179
-0.445719
0.125294
0.320425
0.0218578
0.0600997
0.373344
0.286533
0.400564
-0.0579593
-0.342605
-0.458311
0.5102
0.421076
-0.10642
-0.00186419
-0.00141255
0.00400943
-0.32657
-0.278217
0.604787
0.0804878
-0.615866
-0.110155
-0.17075
0.0871809
-0.379527
-0.00251567
-0.00379206
0.000294468
-0.59492
0.352277
0.242642
0.296506
0.132447
0.120585
0.0419191
-0.162504
0.0067299
-0.00074991
0.178245
-0.456494
0.141326
0.315168
0.311088
0.109987
-0.196612
-0.326987
0.316958
0.185373
-0.0866869
-0.00680745
-0.0933102
0.00440536
-0.126034
0.0161378
-0.016088
-0.193527
-0.00533397
0.00491968
0.000414291
0.657454
-0.159866
-0.0912191
-0.216418
0.00408148
-0.0230218
0.0189404
-0.0928145
-0.19381
0.115591
-0.405398
0.289807
-0.000700822
-0.00430868
0.0655816
-0.0803668
0.0147852
0.0036353
0.477894
0.00169079
-0.0518346
0.15488
-0.0342951
0.0586451
-0.315444
0.256798
0.529086
-0.167208
-0.550187
0.201445
0.348743
0.150381
0.330192
0.269493
-0.47732
0.207827
0.00366514
0.00973756
-0.00903846
-0.128836
0.137875
0.00907912
-0.00723826
-0.00275057
0.00739708
-0.00464651
-0.00316398
0.0089924
-0.00203754
-0.000152367
-0.0780323
-0.00275208
0.0807843
0.0922301
-0.0015645
0.639987
-0.21176
-0.428227
-0.406735
0.290789
0.115945
-0.456624
0.589587
0.00681316
0.002277
-0.00909017
0.00364548
-0.00321358
0.150573
0.376206
-0.526779
0.00826448
-0.316931
0.516068
-0.199137
0.184802
-0.580791
0.395988
-0.435665
0.294205
-0.385608
0.539504
-0.153895
0.000457771
0.0196446
0.133831
0.214572
-0.204333
0.303173
-0.414318
0.111145
0.150869
-0.0303424
-0.00200943
-0.00767201
-0.0563677
0.283596
-0.227228
-0.169052
-0.0229977
0.19205
0.453291
-0.3377
0.212263
0.366443
-0.32063
0.298267
0.00320855
-0.00236389
-0.000844656
0.359834
0.169253
-0.134897
-0.321598
0.499389
-0.124532
-0.102866
0.00787654
0.00388293
0.00201032
-0.000254739
0.333525
0.3011
-0.00190776
0.0940029
-0.0905269
-0.00352889
-0.00719897
0.00957981
-0.00276665
0.0113033
-0.00722185
-0.290075
0.391184
0.0845395
-0.451485
0.366946
-0.10539
-0.508662
-0.00196473
0.00076515
0.331831
0.156554
-0.23132
0.0342906
0.197029
0.36517
-0.557087
-0.597096
0.387769
0.0474792
0.00628579
0.293134
0.106209
-0.399343
0.594458
-0.43347
-0.160988
-0.34014
-0.0972041
0.210261
0.0722252
0.634591
-0.368335
0.00371119
-0.00646175
-0.526882
0.454111
0.0727707
0.172169
-0.443163
0.270994
-0.0943091
0.304966
0.0879725
-0.392939
-0.00131921
-0.000623677
-0.143309
0.469623
-0.326314
-0.026129
0.310609
0.1234
0.135263
0.275825
-0.411087
-0.299688
-0.610381
0.387904
0.311358
0.13191
-0.443268
0.466436
-0.381897
0.0215993
0.563037
0.0082001
-0.0027962
-0.204046
-0.0599664
0.264012
-0.116425
0.0777701
0.0386547
-0.337932
-0.590712
0.168174
0.422538
0.389526
-0.548909
0.159383
0.553629
0.580034
-0.310541
-0.403946
0.11387
-0.00816253
0.00304363
0.0051189
-0.507742
0.162786
0.344956
-0.00979461
-0.17213
0.499782
-0.343479
-0.00283554
-0.00580377
0.00863931
0.0234815
-0.217123
-0.0131811
0.230304
0.214595
-0.225877
0.0112825
0.0503399
-0.0578866
-0.35815
-0.278983
0.276379
0.358212
0.00872572
-0.142458
0.133733
0.00873437
-0.0867666
-0.0957564
0.350189
-0.254433
-0.00245972
0.00782683
-0.00536711
0.209881
0.193075
-0.402956
-0.0547551
-0.00516338
0.0074569
-0.0223228
-0.594708
0.0105694
0.584138
0.341268
0.0304566
-0.371725
0.138004
-0.0119358
-0.126068
0.189373
-0.183568
0.255112
-0.29794
0.355421
-0.477523
0.122102
-0.0677237
0.298754
-0.231031
0.419877
-0.164765
-0.234267
-0.0236754
0.361681
-0.1518
0.220562
-0.383688
0.163126
-0.00069469
-0.129835
0.130529
-0.470643
0.220851
0.018192
-0.00519944
-0.00296309
-0.153768
0.212816
-0.0750152
-0.137801
0.0998727
-0.17661
0.076737
0.0202277
-0.0262737
-0.162373
0.382935
0.36009
0.201229
-0.561319
-0.260413
0.00226266
-0.364852
-0.108502
-0.158905
0.518739
0.00411271
0.324382
-0.467691
0.000689063
-0.00689767
-0.350793
0.521372
-0.170579
-0.336968
0.00453984
0.0833109
-0.193168
-0.47233
0.362518
0.109812
0.199188
-0.18065
0.352913
-0.258265
-0.437068
0.542228
-0.10516
0.00424053
-0.00312072
-0.416415
0.314142
0.102274
-0.61621
0.364133
0.252077
-0.137792
0.416137
-0.278345
-0.00223728
0.00272827
0.45727
-0.200868
-0.0482448
0.389513
-0.0881358
0.261515
-0.195138
0.00397445
-0.00643417
0.422179
-0.25001
-0.185538
0.541008
-0.35547
0.223406
-0.219529
-0.113612
0.473702
0.10059
0.0153689
-0.0617705
0.00108712
0.0606834
0.0303492
0.342226
0.358452
-0.700678
-0.458482
-0.040595
-0.00464801
0.00420142
0.00044659
-0.00168354
-0.268242
0.0122964
0.255945
0.478759
-0.283609
-0.0694771
0.338925
-0.297277
0.417118
-0.11984
0.113062
-0.139225
0.136005
0.00321972
0.0175571
-0.00108991
-0.0164672
-0.109526
-0.000946309
0.00879796
-0.00785165
0.0546257
-0.00159322
-0.0530325
0.112603
-0.508231
0.395628
-0.055114
-0.00132578
-0.00449696
0.00640314
-0.00734945
-0.465302
0.338064
0.127238
0.347596
-0.656058
0.315008
0.138283
0.240172
0.202623
-0.442795
-0.00652202
-0.00342678
-0.0333617
0.444941
-0.290553
0.0157192
0.00183784
-0.261705
0.303203
0.000538261
0.021605
-0.0192696
0.249979
-0.23071
0.0081523
-0.00445142
-0.000994261
-0.00365375
0.0177346
-0.242532
0.224797
-0.00499188
-0.000342091
0.034765
-0.207751
0.549469
-0.341718
0.0878677
-0.101269
0.0134013
-0.116909
0.170301
0.345622
-0.118022
0.421195
0.00262754
-0.00299929
0.138316
-0.408985
-0.099234
-0.25474
0.353974
0.640066
-0.369641
-0.270426
-0.156183
0.514937
-0.358754
0.0225787
-4.59307e-05
-0.544502
0.194055
0.350447
-0.183778
0.155835
0.0279438
0.198313
0.390901
0.404115
-0.163943
0.150187
0.323443
-0.473629
-0.377689
0.237873
0.0748374
-0.00925578
-0.158627
0.500853
-0.330146
0.539049
0.335215
-0.170776
0.299595
0.14443
0.401011
-0.0960446
-0.0666224
0.00777953
0.131713
0.36487
-0.521053
0.00249828
0.00071027
0.21706
0.377399
-0.0692661
0.00749562
-0.426189
-0.190021
-0.0248081
0.0252423
-0.000434167
0.0687467
-0.372558
0.303811
0.0806812
-0.079594
-0.315343
0.401883
-0.0865409
-0.478421
0.0549602
0.157505
0.228869
0.175246
0.0869278
0.239046
0.357862
0.332592
-0.545022
0.00549817
-0.00833371
-0.172433
0.447701
-0.275268
-0.123921
-0.353602
-0.373537
-0.176651
-0.471016
0.144446
-0.0137603
0.155325
-0.141565
0.00749533
-0.00985548
-0.42393
0.251497
-0.087465
0.317994
-0.608535
0.19258
0.415955
-0.123958
0.430426
0.321925
0.186156
-0.0168853
0.235152
-0.218267
-0.0904747
-0.392145
0.0513592
0.00326647
-0.400864
0.29895
0.101915
0.475079
-0.143248
0.205389
0.335088
0.0120201
0.000316238
-0.00463926
0.00884848
0.32985
0.201009
-0.530859
0.51036
-0.397757
0.00138472
0.000153074
-0.00407011
-0.0591274
0.00739303
0.272256
-0.211831
-0.110559
0.310614
-0.443261
0.0810667
-0.0366433
-0.231598
0.0309187
0.00658534
-0.037504
0.00151131
-0.114862
-0.162152
0.062788
-0.0858243
0.213226
0.00136874
0.384068
-0.189067
-0.00367984
0.0605251
0.204093
-0.0559553
-0.148137
-0.0156638
-0.000424168
-0.102608
-0.507773
-0.265429
0.324074
0.190527
0.288231
-0.448123
-0.0565178
-0.282908
-0.121038
0.137079
0.265229
-0.0293305
-0.235898
-0.19022
0.463958
0.0954774
-0.0982295
0.024158
0.50388
-0.528038
-0.422737
-0.167974
-0.299126
0.262483
-0.264817
0.258198
0.00661898
0.173868
-0.521946
0.348078
0.0231344