/*--------------------------------*- C++ -*----------------------------------*\
| =========                 |                                                 |
| \\      /  F ield         | OpenFOAM: The Open Source CFD Toolbox           |
|  \\    /   O peration     | Version:  v2012                                 |
|   \\  /    A nd           | Website:  www.openfoam.com                      |
|    \\/     M anipulation  |                                                 |
\*---------------------------------------------------------------------------*/
FoamFile
{
    version     2.0;
    format      ascii;
    class       volScalarField;
    location    "200";
    object      k_0;
}
// * * * * * * * * * * * * * * * * * * * * * * * * * * * * * * * * * * * * * //

dimensions      [0 2 -2 0 0 0 0];


internalField   nonuniform List<scalar> 
14315
(
0.000159504
0.000198958
0.000149798
0.000152958
0.000154801
0.000144362
0.000141822
0.000151987
0.00631822
0.000149217
0.000147731
0.000161725
0.000156796
0.000146542
0.000142287
0.000147872
0.000142632
0.00940499
0.000141283
0.000148082
0.000163341
0.000148303
0.000159673
0.000147838
0.000137109
0.000147137
0.00018457
0.000149445
0.000188283
0.00013591
0.000162116
0.000137
0.0263157
0.000172884
0.000151855
0.000136904
0.000138985
0.000151601
0.000165712
0.000150263
0.00478048
0.000146956
0.000160581
0.000173985
0.000175932
0.000154847
0.000149256
0.000148809
0.000148806
0.00016004
0.000138794
0.000174636
0.000139494
0.000143884
0.000139626
0.000151358
0.000162027
0.000147115
0.000146995
0.000808321
0.000143476
0.000154884
0.000160018
0.000141747
0.000141928
0.000141226
0.000150295
0.000161775
0.000152095
0.000136677
0.000143388
0.00014219
0.000142305
0.000149649
0.000141911
0.000155006
0.000142192
0.000162436
0.000136598
0.000175576
0.000154962
0.029413
0.000148778
0.000142657
0.000139957
0.0365581
0.00017607
0.000142796
0.000142743
0.000143965
0.0001676
0.00925567
0.000131207
0.000148697
0.00016107
0.000153096
0.000139904
0.000140219
0.000160003
0.000146785
0.000144932
0.000162754
0.000162773
0.000157639
0.000143282
0.0001429
0.000150106
0.000158459
0.000153295
0.000171045
0.000164071
0.00016961
0.000157379
0.000183447
0.00014871
0.000173842
0.000162292
0.000152126
0.0070659
0.0341103
0.000148957
0.000142737
0.000140959
0.000168106
0.000182622
0.00014328
0.0424971
0.000158822
0.000147766
0.000145059
0.000167285
0.000528126
0.020068
0.0213266
0.000154997
0.000147715
0.00823441
0.000182619
8.51322e-05
0.0328388
0.0001778
0.000183339
0.000136003
0.000563696
0.0100714
0.000149419
0.000156868
0.000147079
0.000166106
0.000170619
0.000144922
0.000131216
0.000143349
0.000172836
0.00014556
0.000153042
0.000152512
0.000166094
0.000173273
0.000174793
0.000155002
0.000147783
0.0178892
0.000166127
0.000162054
0.0415426
0.000165985
0.000153419
0.000160012
0.000144325
0.00744624
0.00998698
0.00016728
0.000158404
0.000144539
0.013683
0.000160643
0.000143218
0.000172191
0.000179294
0.0298141
0.000168173
0.000144813
0.000163524
0.000162863
0.0257043
0.000164701
0.000164451
0.000149256
0.000166251
0.00015265
0.0222278
0.000186237
0.000131178
0.000139658
0.000154131
0.0209249
0.000145198
0.000155177
0.000166684
0.0259704
0.000145033
0.000158564
0.000149099
0.000152981
0.000144047
0.000152335
0.000174461
0.000141821
0.0001315
0.000148868
0.000149963
0.000177551
0.000153261
0.0258257
0.000156475
0.000181147
0.000145068
0.000144788
0.000166279
0.000185187
0.000151124
0.000188858
0.0175999
0.00016221
0.000153684
0.000162377
0.000165368
0.000140667
0.000154079
0.000154176
0.00779627
0.000148805
0.00022431
0.000153324
0.000157592
0.000173107
0.000158455
0.000158201
0.0083567
0.04929
0.000162245
0.000141374
0.0116063
0.000185699
0.000141324
0.0498321
0.000142809
0.000140393
0.000141544
0.000152428
0.000143373
0.00422667
0.000139166
0.000152396
0.00835274
0.0105836
0.000174333
0.00902832
0.000148882
0.000165941
0.000153973
0.000156257
0.00654737
0.000156334
0.000178279
0.000167564
0.0286655
0.000162313
0.000161413
0.000188644
0.00014588
0.000151446
0.000141812
0.000169019
0.000142347
0.000180472
0.000131106
0.000153096
0.000161818
0.000141711
0.000166389
0.000149
0.000160451
0.000154473
0.00941207
4.77707e-06
0.000157003
0.000140195
0.00014373
0.000178899
0.00014509
0.000168006
0.000181211
0.000135876
0.00014793
0.000142581
0.0109994
0.000145709
0.0198739
0.000169657
0.000146317
0.000146723
0.000161415
0.000153138
0.00014339
0.000158242
0.000169377
0.000156143
0.000160279
0.000136268
0.000136322
0.000164942
0.000169806
0.000164279
0.0062676
0.0350242
0.000165888
0.000165235
0.0105786
0.000148587
0.000146534
0.00027607
0.000145558
0.000143955
0.000157664
0.000182107
0.000141824
0.0213188
0.000142603
0.0121893
0.000187697
0.00833537
0.000196511
0.00369178
0.000149034
0.000111043
0.000154453
9.56895e-05
0.000153635
0.000161081
0.00221839
0.00981944
0.000152787
0.000146492
0.0102652
0.0166269
0.00619104
0.000138641
0.000153628
0.000722872
0.000194889
0.00014785
0.000140602
0.000160206
0.000177409
0.00016198
9.1651e-05
0.0076908
0.000143193
0.000161137
0.0168929
0.000137657
0.000143329
0.00013761
0.000156953
0.000169338
0.000157588
0.000159102
0.000141756
0.000185931
0.0140829
0.00016099
0.0081736
0.000172307
0.00014753
0.000173276
0.0128645
0.000161665
0.000145393
0.000167544
0.000149022
0.00018113
0.000157475
0.000140615
0.000171609
0.00010053
0.000157506
0.00349444
0.000174112
0.000204252
0.000165637
0.000142041
0.000167807
0.000155811
0.000176163
0.000148822
0.000157832
0.000155799
0.000168357
0.00014228
0.00014277
0.000188648
0.000154016
0.00371167
0.000188884
0.00938483
0.000169228
0.000170112
0.000161185
0.000136848
0.000147766
0.000139667
0.0087517
0.00016499
0.000165049
0.000167132
0.000173547
0.00015737
0.0213129
0.000119171
0.00375794
0.000176368
0.000146379
0.000132903
0.000164495
0.000169246
0.000150228
7.18253e-05
0.000209476
0.000187637
0.00015336
0.000143144
0.000182314
0.000158915
0.000136905
0.00516113
0.000177862
0.000167998
0.000144376
0.000182475
0.000135922
0.000145047
0.000188094
0.000132326
0.000178443
0.000135976
0.000135942
0.000145023
0.000144225
0.000156717
0.000143082
0.0324157
0.0211665
0.000136063
0.0243486
0.000131145
0.000179148
0.000158536
0.000167345
0.0189719
0.000170716
0.00017419
0.00973751
0.00018296
0.000131388
0.00846541
0.00106408
0.000168913
0.000146556
0.000178725
0.000165555
0.000149145
0.000153688
0.000141278
0.000158242
0.000174606
0.0201129
0.000149785
0.000146882
0.000174266
0.000153584
0.0337743
0.000162811
0.000153257
0.0205566
0.000180148
0.000149406
0.000185312
0.000157885
0.00123888
0.000170504
0.000144121
0.000164603
0.000128358
0.000170691
0.00018085
0.00015156
0.000157563
0.00016187
0.0235513
0.00014355
0.0579218
0.00014499
0.000184074
0.000142901
0.000132689
0.000158812
0.000157546
0.000141735
0.000181769
0.000151656
0.00015433
0.0353237
0.000147746
0.000169262
0.000165393
0.000192226
0.000148512
0.000188006
0.000154198
0.00493671
0.000186906
0.00811666
0.0102129
0.000161678
0.000160306
0.000172212
0.0123727
0.000172454
0.000161416
0.000435651
0.000146806
0.000138576
0.000148573
0.000149403
0.000157536
0.000136489
0.00684666
0.000136552
0.000152862
0.012919
0.0160328
0.00014274
0.000148249
0.000142349
0.00014791
0.000144289
0.00877329
0.000148611
0.000148096
0.000144434
0.000157593
0.000141669
0.000177175
0.000153371
0.000147205
0.000160823
0.000149792
0.000147902
0.000151673
0.00015931
0.000167867
9.60575e-06
0.000194409
0.000143278
0.000152669
0.000179884
0.0250285
0.000167265
0.000142291
0.000163503
0.000168434
0.00014496
0.000221948
0.000171506
0.000172958
0.000146326
0.000183397
0.0113662
0.000156049
0.000112626
0.000180223
0.000154399
0.000148794
0.00894818
0.000137145
0.000650393
0.000141393
0.020772
0.000141023
0.000147165
0.00017215
0.00533738
0.0105546
0.0112331
0.000171578
0.000144751
0.00727906
0.000163204
0.00507782
0.0001452
0.000157733
0.000148201
0.000138331
0.000152968
0.000146966
0.00016789
0.000146108
0.000146206
0.000174311
0.000145693
0.000157391
0.000142324
0.000139793
0.000148513
0.000155367
0.0584071
0.000167706
0.000147885
0.00989836
0.000148159
0.00018498
0.00829149
0.000156688
0.000145771
0.000148039
0.000208541
0.000160901
0.000155802
0.0160929
0.000181783
0.000151896
0.0521906
0.000142244
0.000166954
0.000153977
0.00020427
0.00015808
0.000136063
0.000172689
0.000144478
0.000160534
0.000161545
0.000173868
0.000182615
0.000155761
0.000148894
0.000158252
0.000155748
7.20357e-05
0.000157548
0.0144474
0.000141246
0.000172487
0.000131878
0.00219057
0.000157151
0.000173044
0.000143244
0.0494703
0.000142689
0.000161431
0.0258179
0.000158396
0.000139349
0.0224056
0.00018253
0.000142468
0.000146385
0.000176823
0.00531182
0.00129132
0.000143258
0.00617973
0.000149662
0.000170746
0.000153006
0.0265385
0.000136132
0.000148891
0.000145553
0.000154268
0.000163633
0.000202864
0.0301137
0.000152345
0.000149161
0.000149666
0.000148519
0.000132447
0.0109893
0.000152227
0.000163688
0.000151186
0.000139298
0.000150787
0.0120721
0.000179165
9.9111e-05
0.000140175
0.000152122
0.000144557
0.000152976
0.000150834
0.000179901
0.0001323
0.000145999
0.0111925
0.000198717
0.000271507
0.000144991
0.000139744
0.0102835
0.000119774
0.000147272
0.0315915
0.000151975
0.000134027
0.000174424
0.000149607
0.000146519
0.0107818
0.00019833
0.000158083
0.000163993
0.000158654
0.000155443
0.000172764
0.00587763
0.000144127
0.000174611
0.000187408
0.000178676
0.000177821
0.00505238
0.0103801
0.000142564
0.000157839
0.00017076
0.000164623
0.000145826
0.000132044
0.000167748
0.0252678
0.000148512
0.000153164
0.000169853
0.0280211
0.000142956
0.000171164
0.000121853
0.000167432
0.000172963
0.000154804
0.00895026
0.000205532
0.000151199
0.000155349
0.00014026
0.0341753
0.00350311
0.0192786
0.000160798
0.000168844
0.0104637
0.000136558
0.000142772
0.000175928
0.00223876
0.000152545
0.000136384
0.000139164
0.000136794
0.000141786
0.000140631
0.0101013
0.000135559
0.000151275
0.00929847
0.000147317
0.000184667
0.000138696
0.000156779
0.00014539
0.000135599
0.000219382
0.00870789
0.000148604
0.000144342
0.000144782
0.000210472
0.000142726
0.000141865
0.000160884
2.93205e-05
0.00928963
0.000136856
0.000188375
0.000142418
0.000140602
0.00017024
0.000457685
0.000355988
0.00017797
0.000139844
0.000143138
0.000140003
0.00050748
0.00014561
0.000169662
0.000151158
0.000194268
0.00545396
0.00014816
0.000157701
0.00607909
0.000161302
0.000140548
0.000166454
0.000174042
0.00564642
0.000152595
0.000162582
0.000154153
0.00067389
0.000164261
0.000152745
0.000173693
0.000156598
0.000157818
0.000158271
0.000153084
0.000286531
0.000186814
0.000183965
0.000154112
0.000147873
0.0306211
0.000173493
0.000156822
0.00665458
0.000178365
0.000155252
0.000136794
0.000167094
0.000158142
0.00037133
0.000145127
0.000139738
0.00015824
0.000143719
0.000179758
0.000167889
0.000153106
0.000150283
0.00617395
0.000148611
0.0107153
0.000146281
0.000159689
0.000139986
0.000149822
0.000171316
0.000151817
0.000167425
0.000155734
0.00017557
0.0536144
0.000140281
0.000156578
0.00015467
0.00016711
0.0100958
0.000148386
0.000168869
0.000141258
0.000145555
2.14078e-05
0.0207234
0.000168852
0.000180526
0.000141834
0.0140948
0.0427691
0.000117282
0.000177163
0.000142317
0.0156334
0.00233789
0.000142468
0.000143862
0.000154455
0.000174741
0.0351338
0.000149232
0.000155783
0.000143976
0.000163793
0.00016876
0.000947954
0.000186099
0.000156763
0.0116288
0.000152107
0.0549302
0.000142162
0.000179618
0.000150644
0.000143754
0.000171627
0.000153987
0.00301975
0.000137879
0.000149955
0.000166497
0.000139653
0.000139451
0.000536
0.00015588
0.000142083
0.000139515
0.00015388
0.000143257
0.000171243
0.000144284
0.000185633
0.000141302
0.000145828
0.000140189
0.000168494
0.000166745
0.000144309
0.000189717
0.000203618
0.000155907
0.050452
0.000146916
0.000142568
0.000153473
0.000146561
0.000152947
0.000155755
0.000183682
0.000244005
0.0360057
0.023467
0.047931
0.000157871
0.000173068
0.000149838
0.0438037
0.020953
0.000142103
0.000148426
0.0230594
0.000156749
0.000135085
0.0252242
0.000170557
0.000207388
0.000143228
0.000149943
0.000196325
0.000170764
0.000146236
7.00619e-05
0.000139626
0.000144593
0.000159035
0.000155221
0.0001661
0.00013673
0.000140018
0.00880972
0.000157427
0.00013135
0.000150096
0.00015664
0.00015649
0.000137165
0.000154852
0.0216136
0.000187883
0.000181363
0.000143822
0.000150361
0.00015172
0.00115544
0.000155283
0.000144122
0.000158611
0.000151469
0.000163599
0.019593
0.000147701
0.000143729
0.000156596
0.000131464
0.000201913
0.000152711
0.000160745
0.000156673
1.06311e-05
0.000152513
0.00017124
0.000100405
0.00014009
0.000157794
0.000170849
0.000183343
0.000172425
0.000140879
0.000192116
0.00015814
0.00015525
0.000154679
0.000149395
0.000164758
0.000192425
0.000174614
0.00865166
0.000160742
0.000139878
0.0105006
0.000144345
0.000149556
0.000142383
0.000176552
0.000153771
0.000142954
0.000153154
0.000141815
0.00722366
0.00156128
0.000144889
0.000119111
0.000160377
0.000138338
0.000141128
0.000176724
0.000171454
0.000158592
0.000141198
0.000149309
0.000158984
0.0176597
0.000170483
0.000189763
0.000166801
0.000159934
0.00536385
0.000152117
0.000143972
0.000163975
0.000143096
0.000175036
0.000149505
0.000151754
0.000156367
0.000165596
0.000112279
0.000155532
0.0108461
0.000185573
0.0315052
0.000149256
0.000179238
0.000154531
0.000153281
0.000182941
0.0107749
0.0108864
0.000153489
0.000152558
0.000181113
0.000162885
0.000173161
0.000142892
0.000146913
0.000144935
0.000151379
0.000153805
0.000148347
0.0187879
0.00917665
0.000173122
0.000156269
0.000148877
0.000172133
0.000142402
0.000142829
0.000163735
3.6096e-06
0.0280228
0.000152588
0.0188895
0.000167157
0.000146577
0.0222962
0.000182796
0.000166735
0.000153182
0.000175356
0.000138932
0.000147686
0.000177181
0.000143683
0.000138895
0.0105282
0.000179054
0.000143047
0.000150513
9.10766e-05
8.91057e-05
0.000149626
0.000146987
0.000572398
0.000130199
0.000141331
0.000162041
0.000143104
0.00851188
0.000157255
0.00013502
0.00916663
0.0221331
0.000158643
0.000149579
0.000166785
0.000164715
0.000168489
0.00605819
0.000145019
0.000144087
0.000141492
0.000182004
0.000151001
0.00938417
0.000208662
0.000138357
0.000147041
0.000182398
0.000136182
0.000138459
0.0187726
0.000135355
0.000157334
0.000163275
0.00773945
0.000139011
0.00637339
0.000140728
0.000141087
0.000143125
0.0210667
0.000181189
0.000144722
0.000141813
0.00900573
0.000174915
0.000146575
0.000171248
0.000146611
0.000158322
0.00291158
0.000155551
0.000143619
0.000138422
0.0129282
0.000153163
0.00013869
0.000142297
0.000148679
0.000137219
0.000143817
0.000153963
0.00014845
0.00015072
0.000157592
0.000153041
0.00300138
0.000146296
0.000158272
0.0001635
0.00016516
0.00015803
0.000148871
0.000148114
0.000157699
0.0178267
0.000141749
0.000170989
0.0221252
0.000170471
0.000103325
0.000134366
0.00944901
0.000149065
0.000157022
0.00016633
0.000196406
0.000148577
0.000168318
0.000147619
0.000166255
0.000158432
0.000173525
0.000519588
0.0213496
0.000173962
0.000171568
0.000138656
0.000142066
0.000154063
0.000153297
0.000208626
0.000153188
0.0438467
0.000139685
0.0125678
0.000143542
0.000140397
0.000168911
0.000162433
0.000146751
0.0001411
0.000151324
0.000142929
0.000144084
0.000207833
0.000143389
0.000156733
0.000145219
0.000148665
0.0198651
0.000117353
0.000166036
0.000142436
0.00460707
0.000151504
0.00014466
0.000151582
0.00014183
0.000147464
0.000182474
0.000141077
0.000148931
0.000150432
0.000142572
0.000181805
0.00013881
0.0110066
0.00972335
0.00014763
0.000143425
0.000144517
0.000154963
0.000158762
0.000163588
0.000133746
0.000138188
0.000156383
0.0170846
0.000149603
0.00862212
0.00014852
0.000145703
0.0247696
0.000569678
0.000156985
0.000131183
0.00949131
0.000170826
0.000160953
0.0105878
0.000233789
0.000140781
0.00542841
0.000173522
0.000140004
0.000146265
0.00999382
0.000146652
0.000140928
0.000174093
0.00313114
0.000175903
0.000160238
0.0001495
0.000135615
0.000158058
0.000146016
0.000154928
0.000171836
0.000170482
0.000149463
0.000173101
0.000162839
0.000238248
0.000210124
0.000149081
0.0023377
0.000160634
0.0214241
0.000194879
0.0093743
0.000144395
0.000154765
0.000165186
0.000152928
0.000141168
0.000143898
0.0111954
0.000176364
0.00017501
0.000146572
0.000148617
0.000180138
0.00790714
0.000158882
0.000155861
0.000148857
0.000151537
0.00948651
0.00018616
0.000156807
0.0079358
0.0129723
0.000148312
0.00014623
0.00017013
0.000138773
0.000135938
0.000144167
0.000165181
0.044908
0.000137354
0.000141597
0.00015267
0.000142263
0.000137262
0.000144601
0.000167466
0.000206352
0.000163803
0.000158859
0.000140757
0.00264597
0.000176277
0.000176854
8.7338e-06
7.3606e-05
0.000142144
0.000153923
0.000209585
0.000132035
0.000165545
0.000157655
0.000146387
0.000163538
0.000139313
0.000142004
0.000139981
0.00015413
0.000146685
0.000186301
0.000165178
0.000137789
0.0130713
0.000144652
0.000154754
4.18389e-05
0.000158739
0.000139656
0.000188605
0.000415445
0.000140684
0.00164745
2.73607e-05
7.41021e-05
0.000193027
0.000151834
0.000171993
0.000171534
0.000169445
0.000178679
0.00015568
0.000184952
0.000159417
0.000143777
0.000147407
0.000168511
0.000166319
0.000149519
0.000139731
0.000138418
0.000158193
0.000157506
0.000170375
0.000152374
0.000138386
0.000167085
0.000155661
0.000146295
0.000177197
0.000195681
0.000147615
0.000167475
0.000153611
0.000152044
0.000154365
0.00015351
0.000152251
0.000143862
0.000198602
0.000142433
0.00016017
0.000160172
0.00564326
0.000176392
0.0281904
0.000137615
0.000183913
0.000158893
0.000144934
0.000189974
0.000140837
0.000515551
0.000140055
0.000166619
0.000148377
0.00014348
0.000148665
0.000165872
0.000153264
0.0145758
0.000146435
0.000172385
0.000134021
0.00015772
0.0108816
0.000203946
0.0207646
0.000152165
0.000183988
0.000186787
0.000143699
0.000159182
0.000154369
0.0001494
0.000152821
0.028033
0.000182765
0.0231512
0.000160632
0.000156102
0.000169768
0.00017661
0.000148609
0.000137326
0.000161584
0.000170506
0.000143023
0.000166652
0.00014624
0.000144335
0.000168386
0.000157461
0.0588141
0.000190402
0.00803822
0.000148131
0.000146129
0.000173306
0.000144767
0.000147931
0.000185979
0.000148936
0.000187017
0.000147465
0.000185143
0.000142574
0.000146796
0.000142176
0.000148502
0.000161963
0.000139776
0.00121178
0.000140074
0.000168579
0.000138024
0.000160984
0.000961446
0.000182842
0.000175283
0.000175735
0.000490618
0.000162786
0.000129021
0.034743
0.000184263
0.000181066
0.000151463
0.000146306
0.000147924
0.000147882
0.00017903
0.000150224
0.0094538
0.000153521
0.000180477
0.000164535
0.000153586
0.000143355
0.000137785
0.000142445
0.00707327
0.000174943
0.000165219
0.000163337
0.000148816
0.000175974
0.00018237
0.000183221
0.000144715
0.000141493
0.000131054
0.000160699
0.000204484
0.000143623
0.000181165
0.000151929
0.000165024
0.0330009
0.00016063
0.000188889
0.00018371
0.000163829
0.00161368
0.000143484
0.00166671
0.000184179
0.0106907
0.000147782
0.000142878
0.00014696
0.00752925
0.000132472
0.00192744
0.000171536
0.00015325
0.000166177
0.000163257
0.0116721
0.000146699
0.000148366
0.000153046
0.000167241
0.00014686
0.000144632
0.0190729
0.000180328
0.000154164
0.000165685
0.000147045
0.000154087
0.000177257
0.00407451
0.000146487
0.000149317
0.000198523
0.00704536
0.000142243
0.000146402
0.000148167
0.000145221
0.000143485
0.000154449
0.000153322
0.000196224
0.000148207
0.000147024
0.000178774
0.0593396
0.000146942
0.000144951
0.00769265
0.00904675
0.000149425
0.000141842
0.000114699
0.000164439
0.000150763
0.000143414
0.000175409
0.000144682
0.00015551
0.00015048
0.000160557
0.000180249
0.0148267
0.000151256
0.00014706
0.000140159
0.000134684
0.000182812
0.000138473
0.000153685
0.000139939
0.00016604
0.000166137
0.0109635
0.0109952
0.000165057
0.000152628
0.0001421
0.000248687
0.000138421
0.00198075
0.000173966
0.000138715
0.00014731
0.000143222
0.0001596
0.000169195
0.000140738
0.000185411
0.000106425
0.000178381
0.000154227
0.000159029
0.000147336
0.000167444
0.000170535
0.00015856
0.000138928
0.00014767
0.000163049
0.000139278
6.41842e-05
0.00014073
0.0103819
0.000144287
0.000186204
0.000158236
0.000154257
0.029246
0.000154359
0.000151134
0.000173355
0.000152689
0.000115662
0.0106362
0.00321269
0.000153338
0.00867662
0.000142102
0.000158018
0.0105564
3.53998e-05
0.0208881
0.000142767
0.000168055
0.00014953
0.000141437
0.00014324
0.000151151
0.000163059
0.000158699
0.0595463
0.000169723
0.000203299
0.000181995
0.000173546
0.000143602
0.000157219
0.000172842
0.00269586
0.000153421
0.000135268
0.000156033
0.000137442
0.000164237
0.000138363
0.000138408
0.000148289
0.000197854
0.000175298
0.000158552
0.000146971
0.000134684
0.000150616
0.00017977
0.000160185
0.000153212
0.00764706
0.000174214
0.000154219
0.00015141
0.000163939
0.00393245
0.000137232
0.000149073
0.000160012
0.00192303
0.000140814
0.000164093
0.00014747
0.000158378
0.00850776
0.000150487
0.000160687
0.000175982
0.00014727
0.00175484
0.000155285
0.00999336
0.000177682
0.000153673
0.000178631
0.00737398
0.000170393
0.00015313
0.000146929
0.000147641
0.000142763
0.000146185
0.000172853
0.000148605
0.000140179
0.000141323
0.000141018
0.000139909
0.00399908
0.000164088
0.000160731
0.000155125
0.000174737
0.000162669
0.00418907
0.000138464
0.000168761
0.0171719
0.000160221
0.000161048
0.027449
0.000149045
0.000146469
0.000144791
0.000148109
0.000167886
0.00609935
0.000144717
0.000152099
0.000156398
0.000159683
0.000155618
0.00016244
0.000166126
0.0068745
0.000172202
0.000146009
0.0385206
0.00014842
0.000147329
0.000137438
0.000148232
0.000147548
0.00016968
0.000138946
0.000146519
0.000154933
0.000137316
0.000171161
0.000145809
0.00653119
0.000460546
0.0276155
0.000184793
0.000158959
0.000174069
0.0129951
0.000152842
0.000166241
0.000148744
0.000173704
0.0208065
0.000149802
0.000181031
0.000157963
0.000166176
0.000137313
0.000143162
0.000161325
0.000182962
0.000154658
0.000175368
0.000155363
0.0012978
0.000147385
0.00597597
0.000131699
0.00858626
0.000159939
0.000137901
0.000147774
0.000167224
0.0334248
0.0108359
0.00015425
0.0187934
0.000152613
0.000176556
0.0244768
0.000156105
0.000156801
0.000137079
0.000160911
0.0457644
0.0218454
0.000142902
0.010255
0.00017277
0.0216879
0.000167959
0.000145056
0.0183252
0.000149261
0.000153525
0.000147968
0.000142649
0.00014615
0.000172198
0.0001472
0.00015204
0.000143891
0.000173352
0.000154038
0.000191206
0.00015113
0.00014961
0.000138768
0.000183702
0.000159925
0.00828415
0.000150285
0.00013759
0.000194577
0.000151201
0.000150763
0.000146301
0.00016306
0.000143793
0.000160754
0.000143374
0.0228098
0.000142968
0.000178872
4.21938e-05
0.00413598
0.000150279
0.000138118
0.000149776
0.0458049
0.000148702
0.000157225
0.0339201
0.000138156
0.000153094
0.000141805
0.0164114
0.000149988
0.0102509
0.000156047
0.000153681
0.000160193
0.000140532
0.0363474
0.000170989
0.0371476
0.00631949
0.0110957
0.0327013
0.000154995
0.00014791
0.000159686
0.00390601
0.000168723
0.0197087
0.00016558
0.010848
0.000154738
0.000147553
0.0185366
0.000175373
0.0236033
0.000150065
0.000163497
0.0108448
0.000146895
0.000152047
0.000151898
0.000168814
0.000172136
0.000139922
0.00015029
0.000174634
0.012877
0.000150138
0.000181466
0.0147023
0.000170405
0.000146468
0.000188599
0.0192642
0.000144762
0.000171281
0.000155917
0.000179751
0.000204264
0.000146462
0.000157609
0.000155632
9.62283e-05
0.000147443
0.000146518
0.000150924
0.000146496
0.0351169
0.000143142
0.011026
0.000142218
9.51876e-05
0.000157321
0.0113068
0.000153356
0.000145763
0.000169387
0.000116897
0.00018022
0.0211407
0.000185407
0.000200345
0.00016074
0.000173887
0.000138624
0.000150372
0.00793666
0.00995311
0.000140798
0.00015755
0.000134815
0.0234609
0.000172876
0.00013798
0.000143282
0.000169759
0.000141548
0.000148608
0.000137397
0.000159092
0.000164921
0.000147768
0.000165579
0.000176114
0.000152502
0.00016621
0.000161059
0.00014565
0.0047145
0.00696928
0.00014836
0.000137382
0.000150003
0.000136239
0.000152635
0.0391718
0.000146446
0.000152437
0.0144522
0.000140028
0.000135878
0.000147247
0.000150568
0.00909275
0.000947659
0.000141729
0.000132802
0.000154598
0.000151076
0.000170786
0.000147198
0.00565137
0.000143818
0.000147105
0.0118694
0.000179282
0.000147611
0.000132909
0.000158125
0.000133076
0.00528826
0.000185722
0.000147088
0.000146911
0.00752788
0.000407188
0.0233867
0.000151036
0.000146265
0.000165838
0.000178492
0.000175826
0.00020411
0.000133283
0.000150858
0.000155385
0.00014977
0.000105417
0.000155267
0.0205756
0.000177706
0.000897243
0.000162335
0.000151657
0.0569134
0.000157978
0.000174947
0.000171355
0.000147616
0.00014459
0.000169631
0.0309149
0.00015817
0.000150967
0.000179428
0.000146157
0.000146209
0.000146075
0.000151632
0.0390443
0.0051046
0.000182563
0.000146502
0.000143405
0.0124018
0.000149248
0.000169661
0.00014597
0.000185269
0.00015635
0.0371832
0.00017914
0.00236542
0.00015428
0.000163483
0.000162092
0.000152182
0.000147693
0.0441769
0.00230155
0.000168786
0.000180649
0.000142603
0.000138975
6.35422e-06
0.000140161
0.0309835
0.000111902
0.000173341
0.0115993
0.000157735
0.00021218
0.000143605
0.000138117
0.0163811
0.000150241
0.000144918
0.000116434
4.26397e-05
0.00014484
0.000150663
0.000156839
8.928e-06
0.000151725
0.000158457
0.000166143
0.000146355
0.000184836
0.00015706
0.000162527
0.000158818
0.000145863
0.00016158
0.000127291
0.000178088
0.000153556
0.000162935
0.0384772
0.000147852
0.000148748
0.000146939
0.000182383
0.00829183
0.021883
0.0001525
0.0216167
0.0115385
0.000154461
0.000181522
0.000149196
0.000185098
0.000148526
0.000128061
0.00996576
0.0233492
0.032733
0.0373294
0.000154504
0.000138
0.000148938
0.000145949
0.0123318
0.000135608
0.00246868
0.000952312
0.0001482
0.000142822
0.000161564
0.000152853
0.0118018
0.0001428
0.000147127
0.000157738
0.0548697
0.000135275
0.000152632
0.000160872
0.000138518
0.000160086
0.000172821
0.000181361
0.000138514
0.000147129
0.000142604
0.0104463
0.000137985
0.000152294
0.000152113
0.000171926
0.0441554
0.000142478
0.000136609
0.000155136
0.000167577
0.000201903
0.000166449
0.000153297
0.000138697
0.000146693
0.000137115
0.000151296
0.000183497
0.00744004
0.000138195
0.0396502
0.0032738
0.00018681
0.00017382
0.00420287
0.000184862
0.00554943
0.000157142
0.000142587
0.000177319
0.000150678
0.000156832
0.00450092
0.0106776
0.000141323
0.000170635
0.000156696
0.000138644
0.000174439
0.000152756
0.000152455
0.000178402
0.000176336
0.00017345
0.00979084
0.000175536
0.000150993
0.000146792
1.58238e-05
0.000145751
0.00260629
0.000186406
0.000146491
0.000151047
0.000179115
0.00019337
0.000142529
0.000149928
0.000143331
0.000180393
0.000176772
0.00015251
0.0116442
0.000179101
0.000148187
0.000194588
0.0109189
0.000160098
0.000152237
0.000145912
0.000161182
0.000165492
0.000155845
0.0148848
0.00355643
0.00016855
0.000161746
0.000189675
0.000177693
0.000363821
0.000142315
0.000176226
0.0223248
0.000151474
0.0144604
0.00861406
0.000102664
0.000181954
0.000248191
0.000165323
0.000162364
0.000186544
0.00414033
0.000164862
0.000146369
0.000157944
0.000133473
0.000195448
0.000153808
0.000139986
0.0527153
0.000161047
0.00263943
0.000182044
0.000151032
3.67305e-05
0.00890598
0.0106796
0.000146327
0.000151982
0.000156271
0.00843623
0.00197301
0.000160727
0.000148631
0.0001754
0.000174706
0.000548592
0.000148967
0.0119252
0.000148046
0.00205029
0.000172077
0.0593675
0.000156948
0.000146759
0.000155858
0.000144777
0.000147022
0.000150236
0.000145838
0.000142095
0.000183363
0.000188825
0.000151483
0.000168076
0.000151261
0.00018425
7.99392e-05
0.000160477
0.00015466
0.0102875
0.000164382
0.000492749
0.000144181
0.000185029
0.000175645
0.011294
0.000143257
0.00153496
0.00904332
0.000174573
0.00014616
0.000140517
0.000149049
0.000157443
0.000147669
0.000180065
0.000180791
0.000141001
0.00798339
0.000141149
0.0128263
0.000155573
0.000189531
0.0111328
0.000152736
0.000147512
0.00469651
0.000144628
0.000137673
0.000155604
0.000145181
0.000175775
0.000151465
0.000177098
0.000147425
0.000184277
0.0109229
0.000163028
0.000145717
0.000143184
0.000182642
0.000374041
0.000154791
0.000156641
0.000147257
0.00017874
0.000154791
0.0114771
0.0118296
0.000184931
0.000163329
0.000175225
0.000167241
0.000156983
0.0100898
0.000181029
0.000137061
0.0360083
0.000112887
0.000164518
0.00014421
0.000176614
0.00015623
0.000168251
0.0183958
0.000189287
0.000151103
0.00014477
0.0116312
0.00893473
0.000166406
0.000174031
0.000158151
0.010924
0.0175148
0.000143446
0.0114836
0.000162422
0.000158146
0.000154664
0.00114319
0.0129122
0.000145394
0.0515786
0.00014867
0.00202458
0.0166849
0.000157749
0.000162495
0.000164761
0.000144004
0.000142281
0.00806491
0.00214304
0.000148854
0.000175652
0.000169993
0.000162119
0.000150083
0.000177099
0.000151567
0.0121542
0.000184166
0.00014192
0.000157048
0.000142813
0.000155029
0.000137374
0.000179839
0.000153952
0.00728594
0.000183306
0.000166671
0.000165873
0.000135903
0.000181312
0.000183993
0.00013672
0.000151997
0.000174405
0.000157386
0.000138677
0.000106335
0.000146996
0.000148258
0.00017009
0.000140828
0.000147663
0.000186096
0.000142862
0.00018218
0.000170801
0.000496404
0.00432128
0.000185566
0.00016724
0.00870244
0.0106905
0.007145
0.000186888
0.000162192
0.00635709
0.000170492
0.000151465
0.000147387
0.000142449
0.000146807
0.000160035
0.000149825
0.000154899
0.000150732
0.000168339
0.000162263
0.027851
0.000169447
0.000167301
0.0114651
0.000178923
0.000148724
0.000185705
0.00730743
0.000168456
0.000179686
0.000160693
0.000184546
0.000151444
0.00016531
0.000138201
0.000164421
0.000186461
0.000185478
0.00017786
0.000173203
0.000151418
0.000160942
0.000152229
0.000180123
0.000186321
0.000166311
1.96415e-05
0.01061
0.000143592
0.000178124
0.000166293
0.000170561
0.000175375
0.000146324
0.000172779
0.0133259
0.000184273
0.000172843
0.000144901
0.000180947
0.000141596
0.000168352
0.000179213
0.0101337
0.00827918
0.000136318
0.000135277
0.0311012
0.000172356
0.000140158
0.000178409
0.000166397
0.000151873
0.000151557
8.07714e-05
0.000144097
0.000160292
0.0108281
0.000143698
0.000151303
0.000154786
0.0329614
0.000140786
0.000208798
0.000186524
0.000151941