/*--------------------------------*- C++ -*----------------------------------*\
| =========                 |                                                 |
| \\      /  F ield         | OpenFOAM: The Open Source CFD Toolbox           |
|  \\    /   O peration     | Version:  v2012                                 |
|   \\  /    A nd           | Website:  www.openfoam.com                      |
|    \\/     M anipulation  |                                                 |
\*---------------------------------------------------------------------------*/
FoamFile
{
    version     2.0;
    format      ascii;
    class       volScalarField;
    location    "200";
    object      omega;
}
// * * * * * * * * * * * * * * * * * * * * * * * * * * * * * * * * * * * * * //

dimensions      [0 0 -1 0 0 0 0];


internalField   nonuniform List<scalar> 
14315
(
0.0243811
0.102976
0.022046
0.0229272
0.0234788
0.021404
0.0208526
0.0224457
2.71869
0.0222172
0.0218262
0.0272981
0.094494
0.0215892
0.0209723
0.0216178
0.0211968
4.33567
0.0208286
0.0216482
0.0287468
0.0216888
0.0233813
0.0218517
0.608783
0.0216288
0.0992779
0.0222692
0.105414
0.0202511
0.0285294
0.020351
1.98409
0.0224287
0.0224355
0.0203409
0.0206198
0.022364
0.0237922
0.022126
2.47381
0.0215668
0.0260086
0.0484762
0.0464241
0.0235656
0.0219158
0.022096
0.0217616
0.0257168
0.0206022
0.0461811
0.0205004
0.0210666
0.0205175
0.0223215
0.0532095
0.0216865
0.0216153
1.15231
0.0210159
0.0235733
0.0266189
0.0207809
0.0210859
0.0209693
0.0221626
0.0282554
0.022495
0.0203256
0.0210081
0.020839
0.0208586
0.0219213
0.0210637
0.0233308
0.0208413
0.0274973
0.0203169
0.0530447
0.0239142
1.25551
0.021757
0.0209199
0.0205491
4.48755
0.046469
0.0209279
0.0209213
0.0210998
0.0334551
5.03278
0.0648613
0.0220396
0.0244203
0.0235181
0.0205385
0.0206202
0.0240762
0.0215554
0.0214657
0.0170797
0.0236732
0.0246345
0.0210047
0.021176
0.0220937
0.0253565
0.0229003
0.0389469
0.0284799
0.0384838
0.0241991
0.0740936
0.0217588
0.0442358
0.0270324
0.0225105
2.57246
1.17718
0.022124
0.0212074
0.0208023
0.0331041
0.080911
0.0211702
2.16792
0.0255807
0.0216111
0.0214781
0.0350385
0.987366
1.56873
0.643031
0.0233159
0.0216036
5.33062
0.0702958
0.103572
2.18562
0.0507552
0.0865654
0.0202602
0.788434
2.04882
0.021877
0.0240112
0.0216804
0.0324314
0.0381335
0.0214615
0.0196084
0.0210239
0.0242936
0.0216204
0.0228187
0.0227357
0.023688
0.0539604
0.0513229
0.0236606
0.0216896
1.28695
0.0325815
0.0236602
4.40694
0.0237663
0.0231655
0.0238023
0.0214047
2.58898
5.32729
0.0309812
0.0250949
0.0648753
1.38577
0.0267403
0.0211634
0.0393833
0.0583652
1.9504
0.0330927
0.0214506
0.0277051
0.0283976
1.26622
0.0289448
0.0287962
0.0218993
0.0325977
0.0226155
1.62937
0.0977926
0.0195992
0.0205283
0.0231549
0.615913
0.021498
0.0237442
0.0341762
1.70553
0.0214955
0.0114736
0.0218194
0.0229369
0.0212266
0.0225371
0.0497864
0.0208693
0.0196358
0.0218205
0.021981
0.0559262
0.0231052
2.10599
0.024359
0.081583
0.0214823
0.0214451
0.0244663
0.126767
0.0222585
0.162108
1.4709
0.0273133
0.0231868
0.0270534
0.0315361
0.0207847
0.0233882
0.0231585
2.4951
0.0218239
0.0244326
0.0229779
0.0247852
0.0460939
0.0249935
0.0246453
4.74907
4.59497
0.0284393
0.0209835
1.26659
0.118279
0.0215857
4.01242
0.0209623
0.0207613
0.0211105
0.0227142
0.0210062
17.6308
0.0206308
0.0225518
2.73476
2.97238
0.0513748
2.47733
0.0217812
0.0286771
0.0231965
0.0242511
10.6335
0.0244636
0.0653977
0.0308672
1.70852
0.0280398
0.0278857
0.054347
0.0216377
0.0231247
0.021239
0.0247078
0.0209615
0.0717597
0.0195987
0.0230711
0.0276638
0.0210427
0.0329211
0.0217968
0.0273053
0.0233622
3.04128
0.373064
0.0246254
0.0205535
0.0210563
0.0592814
0.0215026
0.0242474
0.0773806
0.0202439
0.0217085
0.0209472
3.9669
0.0215062
0.629074
0.0348625
0.0215674
0.0216013
0.0264784
0.02299
0.0210392
0.024919
0.0345651
0.0243563
0.0268291
0.0202035
0.0202115
0.0297292
0.0368713
0.0282193
2.82847
1.12819
0.0286075
0.0243122
3.46021
0.0218449
0.0215415
0.0328146
0.0214922
0.0210981
0.0249499
0.0861161
0.0210754
0.639672
0.0209179
3.2577
0.124729
7.30795
0.144836
2.12546
0.0223791
0.0125689
0.0235264
0.0352869
0.023008
0.0276391
1.84599
4.84358
0.0228276
0.0220279
3.74556
1.3091
2.69798
0.0205926
0.0229956
1.36186
0.151702
0.0220639
0.0206006
0.0271012
0.0499516
0.0282199
0.0496067
2.45799
0.020991
0.0274246
1.25298
0.0203465
0.0210123
0.0203402
0.0246035
0.0361419
0.0243687
0.0253055
0.0210732
0.0947375
4.11826
0.0270501
3.07822
0.0246747
0.0215762
0.0286192
2.68575
0.0283296
0.0213583
0.0309474
0.0218015
0.0760017
0.024815
0.0205961
0.0389094
0.00119509
0.0245771
1.92152
0.0487638
0.195038
0.0295657
0.0208239
0.0242167
0.0236013
0.0247935
0.0226677
0.0248916
0.0235845
0.02996
0.0208575
0.0211636
0.0639021
0.0233728
2.0828
0.16104
3.41646
0.037795
0.0364728
0.0279298
0.0202942
0.0216065
0.0207844
4.21794
0.0311427
0.0292587
0.0309262
0.0417873
0.0245141
0.684443
0.00525123
2.27364
0.0554162
0.0215691
0.0197148
0.0293183
0.0353085
0.0220333
0.00341914
0.158392
0.134337
0.0230147
0.021168
0.0625747
0.0255474
0.0203025
2.54674
0.063702
0.0338874
0.021413
0.0734642
0.0202394
0.021494
0.120276
0.069437
0.0594077
0.0202468
0.0202341
0.0218771
0.0212626
0.0243575
0.0211604
1.16725
0.637597
0.020244
3.60132
0.0195999
0.0254992
0.0252494
0.0306061
0.688158
0.0242538
0.0512531
2.61129
0.0726218
0.0196287
6.69434
1.4619
0.0303436
0.0215851
0.0575811
0.0295937
0.021836
0.023097
0.0209526
0.0252519
0.0502084
0.642543
0.0220197
0.0216501
0.0295602
0.0234794
1.13456
0.0272447
0.0231334
0.704566
0.0615348
0.0218699
0.104118
0.0248516
1.55977
0.0255265
0.0212361
0.0283999
0.0926544
0.037435
0.0737994
0.0223253
0.0247506
0.0251802
3.81934
0.0210383
3.04269
0.0218327
0.0728123
0.0209395
0.0196963
0.023509
0.0248906
0.0207826
0.0601864
0.0224038
0.0233209
1.04316
0.0216336
0.0355506
0.0295896
0.0708839
0.0219097
0.027988
0.0225358
0.234054
0.0234171
6.85725
3.11698
0.0269693
0.0267962
0.0446231
3.29011
0.0277094
0.026524
0.104956
0.0215606
0.0205957
0.0217609
0.0218687
0.0251303
0.0202112
15.8006
0.0202198
0.0233995
3.30363
1.28455
0.0209329
0.0216962
0.0208725
0.0222188
0.0214087
2.9929
0.0217684
0.0216938
0.0212764
0.0243381
0.0210641
0.0518173
0.0228767
0.0215414
0.0271443
0.0219412
0.0216373
0.0225688
0.0277868
0.0333276
0.374469
0.160843
0.0212863
0.0227188
0.0223025
1.49771
0.0294083
0.0210752
0.025599
0.0302023
0.0215937
0.0992104
0.0312622
0.0289915
0.0215786
0.0730139
3.37601
0.0237975
0.135367
0.0516686
0.025073
0.0223833
5.58436
0.0202261
0.143001
0.0210397
0.614178
0.0206438
0.0215154
0.0453333
0.935947
2.89937
2.16794
0.0245724
0.0214708
2.63544
0.0283037
2.64537
0.0214938
0.024407
0.0219486
0.020327
0.0227516
0.021516
0.0295446
0.0215518
0.0217786
0.047836
0.0217057
0.0250646
0.0208687
0.0209964
0.0218242
0.0236008
3.00687
0.0308391
0.0216907
2.5768
0.021707
0.105418
20.4863
0.0243275
0.0214297
0.0217116
0.11772
0.0276898
0.0237526
1.26873
0.0794802
0.0226389
4.07314
0.0210689
0.0309332
0.0236579
0.0933124
0.0246136
0.0201964
0.0448907
0.0214143
0.02644
0.0264313
0.049839
0.0692827
0.0240657
0.0218368
0.0252068
0.0243086
0.00484396
0.0243994
4.24111
0.0210145
0.0451064
0.0196524
1.71368
0.0241576
0.0461436
0.0212322
1.66769
0.0210781
0.0274149
5.30767
0.0251755
0.020742
4.47832
0.0695827
0.0210601
0.0215758
0.0540458
0.238986
1.39263
0.0212875
0.254645
0.0219993
0.036116
0.0229483
1.69167
0.0202058
0.0218433
0.0219708
0.0234004
0.0286393
0.378198
1.1574
0.0226742
0.0218416
0.0220008
0.0218224
0.0196899
3.67104
0.0225989
0.0273015
0.0222337
0.0207341
0.0221312
2.01878
0.0585215
0.0728225
0.0207533
0.0226017
0.0212136
0.0228107
0.022188
0.0634643
0.0196768
0.0215412
1.98823
0.178591
0.0159762
0.0214827
0.0207874
3.62954
0.0619912
0.0215484
1.13754
0.0225761
0.0206709
0.047775
0.0219562
0.0215918
4.09973
0.164204
0.0251321
0.0279277
0.0247257
0.0238696
0.0446849
14.6383
0.021115
0.0481874
0.1265
0.0566011
0.0560233
11.8663
3.26169
0.0211798
0.0248642
0.0407843
0.0278357
0.0214516
0.0196629
0.0357922
5.97443
0.0217707
0.0229867
0.0339009
1.49565
0.020662
0.0343794
0.00417584
0.0328508
0.0247847
0.0243118
4.94723
0.119038
0.0811012
0.0235404
0.020609
3.39498
0.227992
1.99809
0.0265907
0.0350658
3.00499
0.0202531
0.021217
0.0564432
0.473328
0.0226928
0.0202398
0.0784286
0.0202091
0.0210601
0.0208884
3.1419
0.020221
0.0224519
3.85192
0.0216421
0.101273
0.0206026
0.024086
0.0214734
0.0202256
0.985588
2.76633
0.0218433
0.0214174
0.0214733
0.098493
0.0212142
0.0210643
0.0272692
0.0190281
2.79878
0.0202183
0.0235518
0.0211683
0.0206689
0.0397406
0.120363
0.171488
0.0477738
0.0207383
0.0216073
0.0207486
0.119924
0.0214334
0.0336605
0.0224387
0.18764
2.40926
0.0216616
0.0250215
0.247997
0.026316
0.0206569
0.0311345
0.0465343
13.694
0.022673
0.0267268
0.0233491
1.15148
0.0285794
0.0227538
0.0406612
0.0243771
0.0248968
0.0252519
0.0228965
0.0744712
0.10703
0.140895
0.0232233
0.021618
2.28752
0.0412984
0.0235096
2.89546
0.0652412
0.0234387
0.0202284
0.0318866
0.0236251
0.165732
0.0214942
0.0207381
0.0247171
0.0212005
0.0538045
0.0296604
0.0230828
0.0230426
0.250624
0.0217354
3.04343
0.0215807
0.0266963
0.0207415
0.0219474
0.0419299
0.0225101
0.0269485
0.024157
0.0479094
1.72539
0.00955924
0.0246755
0.0233508
0.030182
25.9482
0.0217002
0.0245356
0.0209213
0.0214874
0.0944666
0.681633
0.0348727
0.0802145
0.0208824
1.84884
1.44568
0.0913428
0.0488771
0.0211582
7.82164
0.221938
0.0211697
0.0210657
0.0234569
0.0181322
1.18635
0.0219352
0.023609
0.0216751
0.0278319
0.034532
0.162313
0.0845728
0.0236491
3.21814
0.0227087
3.85932
0.0209454
0.0711778
0.0229399
0.021052
0.0347236
0.0232982
0.231538
0.0204183
0.0220796
0.0305931
0.0207389
0.0204847
0.766255
0.0234373
0.0208331
0.0205035
0.0230495
0.0209856
0.0367122
0.0214148
0.108637
0.0208348
0.0225929
0.0205623
0.0371004
0.0330222
0.0212389
0.0530078
0.188788
0.0237567
1.74284
0.0214802
0.244785
0.0231084
0.0227593
0.0228428
0.0238958
0.128165
0.0826479
1.1479
2.84148
3.56416
0.0250877
0.0343639
0.0220529
1.62299
0.722544
0.0208294
0.0218177
8.5742
0.0246643
0.0202293
4.45037
0.0357828
0.169349
0.0211854
0.218126
0.0487594
0.0403333
0.0213915
0.00328032
0.0205458
0.0212528
0.0252256
0.0680537
0.0266414
0.0202205
0.0208338
3.71282
0.0243632
0.0196169
0.0225212
0.0238918
0.0241026
0.0202332
0.0234932
0.697017
0.0892986
0.0843732
0.0210711
0.022599
0.0228224
0.999244
0.0219918
0.0213604
0.0263561
0.0225098
0.0294851
0.680839
0.0216352
0.0212168
0.023883
0.019629
0.135299
0.0228535
0.027318
0.0240589
0.168068
0.0227344
0.0336486
0.0828558
0.0208366
0.0260018
0.0389347
0.0718683
0.0413802
0.0209202
0.0579253
0.0244948
0.0235187
0.0236217
0.021878
0.0298638
0.0769767
0.0406019
6.36687
0.0270263
0.0207469
2.99613
0.0212454
0.0219491
0.020393
0.0459619
0.0224647
0.0207691
0.0229874
0.0208025
0.760025
0.182229
0.021484
0.277734
0.0270284
0.0203315
0.0209391
0.0508575
0.0371257
0.0254425
0.0206809
0.0219003
0.0261771
11.5282
0.0381721
0.153759
0.0300392
0.0264574
0.250287
0.0225686
0.0213993
0.0285675
0.0211776
0.0309277
0.0219858
0.0224625
0.0245814
0.0277904
0.0358824
0.0237943
3.93855
0.0820785
2.91907
0.0219374
0.061826
0.0235391
0.0228521
0.0581235
2.90408
3.49608
0.0231126
0.0226038
0.0655942
0.0291588
0.0429807
0.0209364
0.0214919
0.0214919
0.0225047
0.0230325
0.0217057
0.56361
1.32585
0.0458192
0.0243228
0.0217879
0.0368695
0.0210945
0.020439
0.0284175
0.0330373
1.7289
0.0227302
3.15695
0.0338709
0.0214329
1.88291
0.0732859
0.0331931
0.0229839
0.0475384
0.020605
0.0216367
0.0470453
0.0213598
0.0205973
3.76589
0.0518294
0.0242244
0.0221032
0.0237549
0.0139834
0.0223396
0.0214944
0.303215
0.00579501
0.0206665
0.0236284
0.0214783
3.00693
0.0241832
0.0199218
2.91575
5.09819
0.0250315
0.0219157
0.0323308
0.0290523
0.0349857
2.74709
0.0215004
0.0213542
0.0210493
0.107315
0.0221915
5.28175
0.162697
0.0205705
0.0216532
0.0808925
0.0207978
0.0205524
2.83576
0.0199893
0.0242024
0.0267857
7.37217
0.020649
0.25464
0.0208934
0.0209787
0.0209756
6.23172
0.0651678
0.0214708
0.0218932
2.9649
0.0457612
0.0214413
0.0356874
0.0101116
0.0253137
0.228965
0.0237046
0.0212581
0.0205466
3.37778
0.0227642
0.0205784
0.0210889
0.0220862
0.0204486
0.0210621
0.0239876
0.0217574
0.0221193
0.0249442
0.0227688
0.236751
0.0215889
0.0255451
0.0285018
0.0302702
0.0244446
0.0217956
0.0216607
0.0243192
2.27529
0.0207816
0.0345124
2.22934
0.0275665
0.0965483
0.0198689
3.07058
0.0218315
0.0240649
0.0326761
0.149594
0.0221159
0.0367725
0.0217997
0.0297239
0.0249128
0.0409431
1.19119
0.640763
0.0423089
0.0385714
0.0205714
0.0211366
0.0231988
0.0230621
0.167903
0.0229234
2.05119
0.0203338
3.38668
0.021191
0.0207559
0.027135
0.0269679
0.0214859
0.0209708
0.0222699
0.0214185
0.0211318
0.115339
0.0785891
0.0242101
0.0216952
0.0217533
1.92421
0.00800793
0.0320039
0.0213414
2.5056
0.0223827
0.0213913
0.0224401
0.0210729
0.0215711
0.0975947
0.0209304
0.0217839
0.0203659
0.0210813
0.111837
0.0206261
3.25815
2.97978
0.0216501
0.0210069
0.0212046
0.0236057
0.0251005
0.0273132
0.0198266
0.0204848
0.0242939
1.32809
0.0219843
6.82628
0.0217216
0.0219066
5.41977
0.136016
0.024045
0.0196088
2.43867
0.0335984
0.0271656
2.93067
0.0151183
0.0209146
1.09055
0.0387993
0.0208403
0.0215397
2.84175
0.0214459
0.0209164
0.0422045
1.84952
0.0560053
0.0266922
0.0225075
0.0199876
0.0243978
0.0215963
0.0236525
0.0404191
0.0333963
0.0218831
0.0398518
0.0288611
0.0245058
0.125802
0.0218735
0.205179
0.0269071
3.01774
0.127104
2.70171
0.0214502
0.0235434
0.0288002
0.0228575
0.0209597
0.0213912
3.32636
0.0578779
0.0530099
0.0214307
0.0217486
0.070625
3.28206
0.0259211
0.0238277
0.0218333
0.0223982
3.15499
0.0508747
0.0241237
3.03723
3.32173
0.0216835
0.0213876
0.027371
0.020619
0.0200412
0.0557639
0.0314856
2.38133
0.0204709
0.0210617
0.0228423
0.0211569
0.0204604
0.0212577
0.0351907
0.120168
0.0290956
0.0149578
0.0209203
2.00275
0.15909
0.0519182
0.246569
0.0135986
0.0211432
0.0230207
0.145939
0.019658
0.0318734
0.0243816
0.02147
0.0290761
0.0204857
0.0210895
0.0208415
0.0236082
0.0214904
0.130651
0.028872
0.0204545
3.34298
0.0214592
0.0235986
0.43583
0.0258469
0.0205254
0.124322
0.10372
0.0208973
1.68371
0.513115
0.0040635
0.0602198
0.0228177
0.0427364
0.041966
0.0621632
0.0597703
0.023741
0.118731
0.026511
0.0211154
0.0216728
0.0366659
0.0286477
0.0218938
0.020531
0.0205104
0.024579
0.024238
0.0393867
0.0227628
0.0205038
0.0335947
0.0236047
0.0214977
0.0536813
0.160031
0.0118198
0.0292383
0.0229347
0.0224632
0.0233961
0.0228656
0.0226525
0.0210668
0.117005
0.0210526
0.0263943
0.0266044
2.44234
0.0580101
6.91294
0.0204437
0.0698102
0.0251419
0.0214805
0.131463
0.0209244
0.116584
0.0208479
0.0344163
0.0218144
0.0210901
0.0217967
0.0330571
0.0229628
2.44071
0.0215972
0.0445574
0.0198514
0.0245776
3.15683
0.155531
0.637829
0.0226912
0.0612207
0.10869
0.0213616
0.0257596
0.0233134
0.0219565
0.0227856
3.57923
0.109117
1.9373
0.0268639
0.0237696
0.0330878
0.0510411
0.0218268
0.0202275
0.0273297
0.0299758
0.0211835
0.0253429
0.0214857
0.0214235
0.0315693
0.0242672
2.47609
0.111918
2.80034
0.0216746
0.021448
0.0380328
0.0214789
0.0216243
0.0946112
0.021789
0.0901618
0.0216347
0.128844
0.0211878
0.0214861
0.0208439
0.021805
0.0267138
0.0207466
0.282038
0.0208434
0.0315989
0.0204488
0.0264668
1.53015
0.0719468
0.0402113
0.0408555
1.04383
0.013724
0.00826418
3.19023
0.0840076
0.0639587
0.0224203
0.0217063
0.0216902
0.0216288
0.0565079
0.0221421
0.331972
0.0228728
0.0179548
0.0263197
0.0231622
0.0213102
0.020429
0.0208775
0.715405
0.0461773
0.0264452
0.0276253
0.0218633
0.0210715
0.0675229
0.0920435
0.0214768
0.0210276
0.0195936
0.0267585
0.141368
0.0216207
0.0761149
0.0226226
0.0293464
1.04893
0.0260134
0.122786
0.0724529
0.027989
0.286519
0.0210267
0.195176
0.107274
2.97995
0.0216717
0.0210451
0.0214901
3.00906
0.0198506
1.49783
0.0379683
0.0234198
0.0301901
0.0295714
3.12155
0.0215648
0.0217894
0.0230363
0.0353733
0.0215529
0.0213808
0.588346
0.0608234
0.0128518
0.0314983
0.0215161
0.023684
0.220438
2.07091
0.0215509
0.0219058
0.138286
2.59855
0.0209711
0.0219175
0.0221005
0.0214549
0.0212741
0.0231706
0.0231633
0.172909
0.0217851
0.0216496
0.0597878
2.64306
0.0214971
0.0214759
15.2541
5.9785
0.021966
0.0208025
0.00845677
0.0251021
0.0221774
0.0212819
0.0466335
0.0213972
0.0874775
0.022113
0.0238066
0.0716124
3.65946
0.131786
0.0215146
0.0207356
0.0198922
0.0925407
0.0205769
0.023337
0.0208303
0.0331592
0.0333545
3.54917
2.95453
0.0300749
0.0228357
0.0208477
0.0797572
0.0205958
0.204196
0.0439179
0.0206743
0.0215464
0.0212935
0.0264407
0.0350164
0.0209274
0.0727975
0.0176776
0.0542055
0.0234013
0.0263875
0.0216467
0.0269129
0.0365266
0.0251867
0.0205446
0.0215882
0.0273638
0.0207236
0.0452643
0.0209351
2.9979
0.0214217
0.101845
0.0246976
0.0233393
1.11935
0.0232062
0.0206325
0.0468456
0.0227785
0.203937
2.9691
0.41628
0.0228198
5.0528
0.0211361
0.0245148
1.99865
0.0139876
3.28954
0.0212248
0.0318282
0.0219857
0.0210259
0.0215486
0.022229
0.0274683
0.0253847
2.64714
0.0366153
0.116732
0.0730068
0.0493652
0.0207653
0.0248251
0.039197
0.449408
0.0229913
0.019929
0.0238929
0.020428
0.0297047
0.0204754
0.0205798
0.0218214
0.154178
0.0204376
0.025157
0.0220193
0.0198978
0.0221346
0.0678669
0.0257095
0.0230211
2.90664
0.0493374
0.0232525
0.0223814
0.0311158
0.25355
0.0204041
0.0439706
0.0267362
0.20393
0.0209304
0.0261604
0.0215618
0.0251147
6.523
0.0221936
0.0268501
0.0459235
0.0215451
0.307826
0.0236971
3.11363
0.0546841
0.0230748
0.0636578
16.9986
0.0390911
0.0229564
0.0239435
0.021587
0.0212317
0.0213817
0.0434832
0.0223825
0.0210581
0.0209612
0.0210897
0.0208096
0.561727
0.0299835
0.0268336
0.0234143
0.038889
0.0287763
2.52105
0.0210336
0.0343049
5.84125
0.0256085
0.0272835
2.10497
0.0218871
0.0215536
0.0213943
0.0219531
0.0335395
2.71599
0.0214839
0.0225689
0.0240246
0.0259644
0.0239869
0.0250172
0.0295213
0.307231
0.0387452
0.0215589
1.60218
0.0216775
0.021661
0.0203906
0.0216763
0.0216873
0.109948
0.0205497
0.0214258
0.0236913
0.0203797
0.0267908
0.0214647
2.81092
0.290691
1.13667
0.0927579
0.0253209
0.0504201
3.35264
0.0228369
0.0338035
0.0218378
0.0385565
2.34379
0.021956
0.0636852
0.0262245
0.03062
0.0204652
0.0210685
0.0266931
0.0889433
0.0232549
0.0443936
0.0236159
0.28606
0.0216531
2.42233
0.0196363
3.1786
0.0256548
0.0203354
0.0224554
0.0317843
5.56152
3.68837
0.0233301
12.3093
0.0228682
0.0499784
7.37684
0.0240291
0.0243453
0.0201674
0.0258151
4.98498
11.137
0.0210124
3.83608
0.0283236
11.6207
0.0342011
0.0214452
11.9567
0.0219048
0.0229186
0.0216491
0.0212089
0.0215759
0.0396659
0.0215221
0.0225971
0.0210695
0.0425509
0.0232522
0.158221
0.0223087
0.0219358
0.0202913
0.0594581
0.024915
4.355
0.0220326
0.0204984
0.139595
0.0223029
0.0221337
0.0215809
0.0281585
0.0213723
0.0253992
0.0212823
1.23087
0.0212601
0.0509172
0.125918
2.37636
0.0221453
0.0204608
0.0219528
2.58153
0.0217502
0.0244339
1.41395
0.0204789
0.022988
0.0210821
10.8346
0.02203
3.04195
0.0238693
0.0232936
0.0254582
0.0206496
4.17579
0.038488
1.2059
0.28053
2.97454
1.01151
0.0235785
0.0216234
0.0261637
2.23357
0.0319766
9.51544
0.0300285
2.9281
0.0234251
0.0215693
1.17583
0.0402641
2.01344
0.0219888
0.0289469
2.97878
0.0215638
0.0225204
0.0216422
0.0297655
0.0389808
0.0207205
0.0220319
0.0518716
3.30531
0.0220454
0.0662662
1.57719
0.0375445
0.0214658
0.119176
11.2017
0.0214851
0.0277452
0.0241417
0.0757408
0.151843
0.0214813
0.0247091
0.0236357
0.0043422
0.0216372
0.0214596
0.0223535
0.0215201
5.38882
0.0212847
2.9713
0.0210346
0.0802473
0.0248501
3.30541
0.0230741
0.021459
0.0342741
0.0868858
0.0529569
2.07595
0.0826805
0.139726
0.0260035
0.0498185
0.0206047
0.022058
5.4375
2.94277
0.0209375
0.0243781
0.0198576
1.34636
0.0360494
0.0201803
0.0212241
0.0330669
0.0210145
0.0218099
0.0204192
0.0257414
0.0305511
0.021638
0.0328936
0.0511591
0.0227092
0.0315643
0.0270369
0.0213142
1.8608
13.1214
0.0217034
0.0201623
0.0219779
0.020107
0.022693
4.90998
0.0214203
0.0714805
9.2755
0.0208452
0.0200395
0.0216213
0.0224216
2.65394
0.24694
0.0197338
0.0197907
0.0233839
0.0223012
0.0399845
0.021571
1.96487
0.0211052
0.021517
3.75263
0.0222897
0.0215791
0.0198143
0.02548
0.019796
0.26973
0.0715229
0.0215051
0.021487
11.6439
0.970605
1.24076
0.0222598
0.0213897
0.0305736
0.0646749
0.0215908
0.180554
0.0198069
0.0223563
0.0234826
0.0219338
0.0688351
0.023959
3.1855
0.0498343
0.594416
0.0286546
0.0223612
3.42744
0.0253537
0.0465698
0.0167444
0.0215957
0.0213644
0.0377082
1.28477
0.0240828
0.0223659
0.0674577
0.0215722
0.0214429
0.0214126
0.022447
1.53615
2.61332
0.0912589
0.021618
0.0212698
3.21183
0.0218666
0.0327396
0.0213512
0.0971376
0.0245211
6.30386
0.072009
0.27313
0.0234351
0.0281089
0.0270948
0.022702
0.0216149
2.52733
1.93236
0.0334726
0.0776186
0.0209874
0.0206417
0.443417
0.0205821
7.45779
0.0245661
0.0447553
15.5734
0.0246124
0.0946947
0.0213056
0.0204639
1.75543
0.0221063
0.0212704
0.0378218
0.524941
0.0214644
0.0221122
0.0246392
0.456268
0.0225543
0.338681
0.0331203
0.0214037
0.086303
0.0244796
0.0278128
0.0260387
0.02155
0.0274319
0.065862
0.0614089
0.0230425
0.027696
2.57238
0.0216678
0.0218067
0.0214819
0.0238938
3.11708
1.60036
0.0227826
0.689913
3.11645
0.0233203
0.0206384
0.0219156
0.0736147
0.0217169
0.00667319
3.01937
1.67555
5.35115
5.56108
0.0234281
0.0201931
0.0218739
0.0213513
3.22383
0.0200734
1.76363
1.31901
0.0216653
0.021238
0.0267287
0.0228778
3.12681
0.0213722
0.0215172
0.0244668
2.01358
0.0199284
0.022703
0.0270703
0.0201242
0.0255687
0.0438241
0.0584903
0.0206234
0.0216451
0.0212091
3.66594
0.0204722
0.0226885
0.0226763
0.0430143
2.48815
0.0213932
0.0201366
0.0233621
0.0356296
0.172041
0.0294056
0.0234552
0.0442236
0.0214508
0.0203979
0.0223816
0.0872626
3.56797
0.0200929
5.93966
1.6945
0.123286
0.0298404
2.45753
0.110078
2.73445
0.0243459
0.0211654
0.0451161
0.0222061
0.0240528
2.55055
3.20985
0.0210152
0.0380161
0.0240009
0.0206965
0.0275881
0.0228533
0.0227576
0.0550357
0.0420015
0.0207235
3.60898
0.0394742
0.0222178
0.021463
0.434267
0.0215241
1.53834
0.0800988
0.0214892
0.0223081
0.0573684
0.147247
0.0210735
0.0220001
0.0212981
0.0702846
0.0312194
0.0226141
13.6817
0.0718577
0.0216789
0.142335
3.10016
0.0264615
0.0223385
0.0214813
0.0260987
0.0150836
0.0240431
1.88319
0.409881
0.036557
0.0266052
0.119639
0.0552688
0.116939
0.0209532
0.0578634
1.44976
0.0224963
4.71415
2.91037
0.0677061
0.0639345
0.0833131
0.0327324
0.0267351
0.0789562
0.258565
0.0286883
0.0217363
0.0251482
0.0198072
0.0973554
0.0231296
0.0208315
2.74453
0.0264345
1.52274
0.0604389
0.0223808
0.0528532
2.71682
3.44729
0.021476
0.0224513
0.0238338
2.83691
1.36593
0.0923179
0.0217775
0.0448454
0.0477548
1.01109
0.0218757
3.13478
0.0219086
1.3539
0.0421749
2.48158
0.0248256
0.0215995
0.0236695
0.0214615
0.0217828
0.0221284
0.0214561
0.0209956
0.0764991
0.117005
0.0223117
0.0344998
0.0223679
0.0885847
0.0174791
0.0258951
0.0234826
2.93632
0.0185196
0.401228
0.0213975
0.0878981
0.0503214
3.05741
0.0212707
1.17936
2.85885
0.0516837
0.0214463
0.020653
0.0218844
0.0242203
0.0218235
0.0564366
0.0735186
0.0209825
2.52648
0.0209944
3.45384
0.0240932
0.148733
3.08231
0.0229404
0.0216639
0.341524
0.0214745
0.0206212
0.0241293
0.0214384
0.056293
0.0224105
0.0602265
0.0215548
0.0968305
3.07904
0.0279367
0.0214692
0.0212188
0.0658729
0.622609
0.0232969
0.0241586
0.0215323
0.0661555
0.0234661
3.34434
3.16624
0.0693092
0.0269353
0.0513444
0.0346
0.0241254
2.55398
0.062642
0.020402
6.39398
5.51931e-05
0.0296311
0.0213853
0.0560592
0.0239723
0.0360139
1.88954
0.119355
0.0224276
0.0213798
3.28678
3.05942
0.0948255
0.0477297
0.0248137
3.04343
4.95417
0.0212667
3.62809
0.0255266
0.0244713
0.0235744
1.01668
3.35748
0.0214829
3.26789
0.021743
0.20336
9.93584
0.0250072
0.0258077
0.0294362
0.0213582
0.0211646
5.47583
1.4419
0.0218479
0.0530165
0.027193
0.027496
0.0220928
0.0580499
0.0226157
3.71681
0.089442
0.0211049
0.0247076
0.0212305
0.0233902
0.020177
0.0549692
0.0233178
2.76683
0.0760416
0.0294897
0.0293778
0.0200884
0.0676482
0.0898056
0.0201428
0.0225454
0.0489267
0.0244919
0.020209
0.00315354
0.0216222
0.0217098
0.0362441
0.0209111
0.0216144
0.0835356
0.0204478
0.0637234
0.0397154
0.449076
2.55325
0.0742151
0.0333599
2.96685
3.09277
2.2874
0.0966178
0.02689
2.15509
0.0685675
0.0223891
0.0215505
0.0211861
0.021527
0.0245876
0.0220405
0.0153674
0.0221833
0.0372252
0.026404
1.67133
0.0391885
0.03561
3.20856
0.0553398
0.0218204
0.0798847
6.52343
0.0298173
0.0681411
0.0257396
0.0874006
0.0224915
0.0280382
0.0205558
0.0292167
0.112292
0.0760855
0.0632917
0.045521
0.0223233
0.0277055
0.0227021
0.046833
0.0768955
0.0340366
0.266084
3.04859
0.0213446
0.0622583
0.0300958
0.0370111
0.0220859
0.021524
0.0453363
3.45499
0.0670422
0.0443381
0.0217465
0.061144
0.0207671
0.0352282
0.0536702
2.08786
6.61135
0.0183351
0.00963527
4.66263
0.0408242
0.0207463
0.0626066
0.0338509
0.0225419
0.022591
0.0393105
0.0211777
0.0270944
2.94364
0.0213169
0.0223618
0.0232896
2.654
0.0208906
0.112467
0.0831213
0.0233103
0.0216896
0.0793839
0.0211562
0.062791
0.0656209
1.7338
0.0226113
0.0303086
3.37328
0.0452665
0.0479179
0.0220078
0.020407
0.111679
2.3876
0.117015
0.0204066
0.284225
0.0567251
0.0208843
0.022085
0.0375678
0.0245042
3.75054
0.329681
0.0214496
0.0364093
0.0212777
0.0216699
0.0414748
0.0212751
0.0236706
2.43
1.58272
0.0691068
0.023802
0.0337139
0.0167287
0.0214412
3.19547
0.0334796
0.0728039
3.35364
0.0801156
0.0219644
0.025529
0.0216694
0.0318723
0.0218064
0.134164
2.95349
0.15826
1.75101
0.0223514
2.78899
0.0236508
0.0858064
0.0212577
0.0222694
0.0235904
0.300306
0.0308695
0.0222641
0.0229948
0.020769
0.0228919
0.0679991
0.0725541
0.0336086
3.24717
0.0215494
0.0235443
0.0459464
0.0214696
0.0255775
3.99004
0.335092
1.14017
2.93846
0.0204133
0.0309845
0.020929
3.24311
0.0444621
0.0346598
3.37723
4.46796
0.0216139
3.23667
0.0204891
2.6401
2.87138
0.022875
1.31558
0.0204923
0.0212459
0.0224946
0.0506277
0.0217315
0.0206886
0.0434187
0.0199362
0.0424337
3.37093
0.0216511
0.055184
0.0230474
0.0215656
0.0201312
0.019921
0.0210592
0.0203645
0.0203245
0.308359
0.0422913
0.0215927
0.0210496
0.0413383
1.33578
0.0222407
2.66264
0.0212542
0.0491177
0.0216445
0.0345988
0.0324946
0.0202839
0.0253718
0.042919
0.0202134
0.0695803
3.32492
3.43214
0.0465326
2.48699
0.0217929
0.0216703
3.48352
0.100512
0.0374614
0.0226122
0.0247079
0.0218289
0.0314484
0.0438513
0.0215414
0.0682812
2.04643
0.0324993
0.0229822
0.0217466
2.88906
0.0875335
0.0222222
0.0447282
0.0247465
3.44478
0.0231244
4.78287
0.0282174
0.0343508
0.0214917
0.0244779
3.53038
5.23749
0.0216365
0.0223354
0.0310152
1.19937
2.85695
3.00919
0.0680115
0.0518554
0.0214894
0.0285721
0.026946
0.0261244
0.180686
0.0241566
0.0285317
3.48743
0.026534
0.0330735
0.021724
0.0347714
1.18716
0.0647737
0.0493552
0.0214891
0.0257015
0.0246479
0.0215557
0.0596217
0.03969
0.0414143
0.0477144
0.0214881
0.0682516
0.0407135
0.0247246
0.0321377
0.0197996
0.0485034
0.0556472
0.123832
0.0214728
0.120075
2.16793
0.0358251
0.0249783
0.0344655
1.80567
0.118151
0.0441135
0.070672
0.0214046
0.0515147
0.0259472
18.0574
0.0215714
0.0197917
0.0283608
0.0272787
0.0215145
0.0215022
0.021767
0.0101642
0.274514
0.137002
0.0432306
0.0216921
0.059296
3.14924
0.0211097
0.0231733
0.0214599
0.0246105
0.0219888
0.0224204
0.0698345
1.4786
0.0211271
0.113052
0.0308088
0.0558076
0.154762
0.0302919
0.033051
0.0214688
0.022463
0.0243949
1.35602
0.0329093
0.0314346
0.0722406
0.0227545
0.0228703
0.0362477
0.135008
0.0303625
0.0233535
2.81342
0.0206742
0.034668
3.72442
1.47392
0.147861
0.033084
0.0323767
0.0215025
0.0212414
0.0331867
0.0214932
0.0214608
0.0883327
2.04312
0.0215406
0.0279245
0.02135
0.0226152
0.0249046
0.021662
0.0213184
0.0242833
0.0232254
0.0216051
0.807754
0.0216571
0.0264288
0.0210318
0.02142
0.166085
0.0211367
0.167406
0.020687
0.153044
0.0201834
0.0228957
0.0155586
0.126661
0.0215839
0.0240055
0.0214506
0.0232914
0.0223472
0.0832495
0.0219202
0.0205329
0.0489505
0.0223283
0.032298
2.7312
3.17186
1.94913
0.0267106
0.30159
0.0230466
0.0372447
0.032759
0.0381722
0.026629
0.0226651
0.0425146
0.02183
0.021652
0.0215039
0.0758922
0.0225991
0.0225226
0.0224709
0.0214866
0.0477839
0.0225894
0.0221363
0.022352
0.0759289
0.0230969
8.73464
0.121994
0.0212447
0.0218675
0.0247567
0.0218142
0.0244687
0.0239807
0.0227128
0.0209891
0.0216342
0.0316482
0.0210155
0.0434267
0.0222495
0.0217019
0.0222321
0.165008
0.0217047
2.16664
3.31275
0.0620082
0.0274939
0.0219085
0.0358325
0.0226485
0.0260464
0.0222392
0.0403808
1.38928
0.111035
0.0198134
2.97044
0.0317099
0.0477336
0.0205154
0.0693719
0.0388655
0.0213625
0.023424
0.0163541
0.0231244
0.0201053
3.80049
0.0223175
1.53309
2.41234
3.2847
0.0216427
0.0223088
0.0224002
0.0208951
0.0217664
2.40201
0.0675139
0.036312
0.0235578
0.319195
3.71371
0.0220725
0.0209437
0.0220882
0.019803
0.0362505
0.022039
0.0208309
0.0247848
8.66848
0.0238675
0.0223309
0.0252775
0.0214605
0.0465772
0.023514
0.0215876
0.0217724
0.0247023
0.0218523
0.0226781
0.0214923
0.0311408
0.0214655
0.295424
0.0361103
0.0273408
0.0239212
0.159627
0.0221273
0.0219501
0.0418878
0.0214464
0.064398
0.0213393
0.806054
0.0219624
0.0245939
0.0253375
0.0207266
0.0221448
0.0214494
0.0236596
0.0241622
0.021485
0.0233019
0.0229678
0.270226
0.0260639
0.0223196
0.0205507
0.0228166
0.0213228
2.4521
0.0274993
0.0214588
0.0220696
0.0198835
0.0275684
0.0216208
0.00574948
0.0215908
2.11039
0.0221729
0.0212032
0.0234761
0.021429
16.3084
0.0214224
0.0242472
0.021916
0.0213952
0.0226544
0.0230167
0.0244243
0.0208482
0.0235555
1.94798
2.2309
1.45401
0.0602303
0.0212877
3.36045
0.0219357
0.046503
0.0319218
0.0226573
2.13448
0.0226032
0.0214529
0.0744079
0.0217498
0.148532
0.0235938
0.0250765
0.048099
0.0396958
0.132293
2.32979
0.0274441
0.0306507
0.0214719
0.0214123
0.0320997
0.0250596
0.0255552
0.0235083
0.038059
0.0220217
0.021616
0.0211392
0.053145
3.33516
0.0211821
0.0223737
0.0220083
0.0200993
0.41052
0.0230871
1.42363
0.0229285
0.0270995
0.253283
0.0526779
0.0221896
0.0216471
0.0240401
0.0344456
0.023893
0.022547
0.0220029
0.110172
0.0234425
0.0239145
1.72537
0.0211626
0.0210055
0.714194
0.0326011
0.0216325
0.0496279
0.0217128
1.76506
0.0201127
0.0217614
2.39389
0.0214919
0.0215902
0.0199108
0.0912786
1.10733
1.53293
1.35165
0.0312676