/*--------------------------------*- C++ -*----------------------------------*\
| =========                 |                                                 |
| \\      /  F ield         | OpenFOAM: The Open Source CFD Toolbox           |
|  \\    /   O peration     | Version:  v2012                                 |
|   \\  /    A nd           | Website:  www.openfoam.com                      |
|    \\/     M anipulation  |                                                 |
\*---------------------------------------------------------------------------*/
FoamFile
{
    version     2.0;
    format      ascii;
    class       surfaceScalarField;
    location    "200";
    object      phi;
}
// * * * * * * * * * * * * * * * * * * * * * * * * * * * * * * * * * * * * * //

dimensions      [0 3 -1 0 0 0 0];
oriented        oriented;


internalField   nonuniform List<scalar> 
21240
(
-0.35942
0.568209
-0.208789
-0.0454651
0.15734
-0.111875
-0.160568
-0.344593
0.505161
0.251829
-0.181712
-0.0701168
-0.0915184
0.250458
-0.158939
-0.258351
-0.214562
0.472913
0.615894
-0.481544
-0.13435
-0.253159
-0.11908
0.372238
0.0454803
-0.0669925
0.0215122
0.5695
-0.476045
-0.0934552
-0.639982
0.373459
0.266523
0.387596
0.0236076
-0.411204
0.192789
-0.0235979
-0.169191
0.141895
0.23642
-0.378315
0.499367
0.116527
0.0169844
-0.347358
0.330374
-0.385577
0.535784
-0.150207
0.0372139
-0.031964
-0.00524995
0.410528
-0.569126
0.158598
0.281432
-0.264448
0.00694109
0.145348
-0.152289
0.0774217
-0.407622
0.3302
-0.668671
0.475571
0.1931
-0.309304
-0.330678
0.0443157
0.047814
-0.0921297
0.322154
-0.0580562
-0.264097
0.17222
-0.062159
-0.110061
0.421908
0.147592
0.155646
0.0165744
-0.573488
0.616068
-0.0425799
-0.0532412
0.153086
-0.0998453
0.627625
-0.164894
-0.462732
-0.00261129
0.00535568
-0.00274439
0.627955
-0.453249
-0.174706
-0.0348116
0.242172
-0.207361
0.103692
0.523933
0.410018
0.146462
-0.55648
-0.300927
0.266115
-0.739059
0.391472
0.347587
-0.188873
0.282193
-0.0933207
0.0719344
-0.0264541
-0.184727
-0.134202
0.318929
0.0125716
0.172838
-0.185409
-0.10918
-0.0186819
0.127862
0.240089
-0.13844
-0.101649
0.294147
-0.162202
-0.131944
0.352232
-0.5128
0.57856
-0.156652
0.456711
-0.208779
-0.247933
0.23488
-0.222308
-0.160176
0.570194
0.0012421
-0.11979
0.118547
-0.696562
0.37535
0.321212
0.391264
-0.564787
0.173523
-0.439641
-0.256921
0.2177
0.0766323
-0.294332
0.374106
-0.273755
-0.100351
0.665681
-0.491337
-0.174344
-0.0388669
0.361021
0.110363
-0.0660469
0.624553
-0.233289
0.154725
0.139421
-0.168364
0.19178
-0.0234161
0.210603
-0.621199
0.410595
0.396481
0.0911598
-0.48764
-0.379798
0.551445
-0.171647
-0.491726
0.147133
0.0868366
-0.140078
-0.358717
0.171273
0.187443
0.671783
-0.568091
0.199409
-0.650754
0.451344
-0.612045
0.220565
0.39148
0.174637
-0.56616
0.391523
0.262608
0.0926025
-0.355211
0.626028
-0.437782
-0.188246
0.46155
-0.222035
-0.239515
-0.401442
0.245362
-0.0434043
-0.201958
0.538168
0.133615
-0.0420403
-0.0628771
0.104917
0.557735
0.0144269
-0.572162
0.0703172
-0.307384
0.237066
0.273338
0.183374
0.640414
-0.419849
0.780152
-0.404802
0.106598
-0.0522464
-0.0543519
0.0850116
0.155077
-0.621344
0.160131
0.461213
-0.446707
0.664495
-0.465085
0.180379
-0.0451178
-0.135261
0.0289076
0.00418801
-0.0330956
0.0259566
0.166833
0.0685566
0.487987
0.596918
-0.60735
0.0104312
0.553614
0.00412164
0.419923
0.360229
0.461867
-0.671756
0.209889
-0.25009
0.637347
-0.387257
-0.382602
0.197875
-0.401942
0.545936
-0.143994
-0.438258
0.593891
-0.155633
-0.357145
-0.311526
0.0476003
-0.23822
0.19062
0.582267
-0.422136
0.35608
0.0752201
-0.4313
-0.318659
0.129787
-0.228105
0.19591
0.0321952
-0.0253962
0.218368
-0.192971
0.127578
-0.13601
0.00843211
-0.184809
0.252145
-0.0673355
0.115343
-0.00181
-0.113533
0.364069
-0.379675
0.015606
0.132383
0.00132958
-0.133713
0.357072
-0.27965
-0.120908
0.12215
0.33394
-0.177792
-0.156148
-0.116545
0.0787775
-0.000847303
-0.0779302
0.275762
-0.205445
0.145779
0.432781
-0.583209
0.197632
-0.198461
0.608989
0.256709
-0.13682
-0.119889
-0.0475547
-0.0515113
0.0990659
0.558318
-0.265782
-0.292536
0.0369849
0.114827
-0.151812
-0.531732
0.172312
0.615152
-0.377272
-0.23788
-0.559393
0.157451
-0.0484509
-0.0889877
0.137439
0.149568
-0.030161
-0.119407
-0.315683
0.208001
0.107682
-0.0985797
0.205452
0.256098
0.36004
0.255112
-0.0428758
0.000166246
0.0427095
0.155408
-0.0230251
-0.00994485
-0.119372
0.129317
0.191265
-0.15428
-0.196911
0.151374
0.0455373
-0.0831222
0.0355675
-0.152376
-0.421112
0.149255
0.000312939
0.00237112
-0.00463718
0.00226606
-0.0950227
0.357631
-0.0673629
0.431431
0.356377
0.152502
-0.1381
-0.0144011
-0.0154299
0.143008
0.400831
0.145106
-0.278551
0.70591
-0.427358
-0.603502
0.280566
0.322936
-0.477434
-0.103334
0.580768
-0.673798
0.510634
0.163164
0.242077
-0.267474
-0.260128
0.167421
0.0927062
-0.625573
0.148139
0.297543
0.0765632
0.0801596
-0.1222
-0.175807
-0.0142732
0.19008
-0.217958
0.353058
-0.135101
0.00365645
-0.0241619
0.152403
-0.128241
0.39808
-0.630816
0.232736
0.0241679
0.0824304
-0.317602
-0.421457
0.118952
-0.184697
0.0657448
0.599691
-0.125851
-0.473841
-0.553551
0.2952
0.0800239
-0.00124642
0.043279
-0.0318618
-0.0114171
-0.308105
0.146529
0.161576
-0.0120234
-0.191749
0.203772
-0.0616353
0.0911148
-0.0294795
-0.32554
0.10556
0.21998
-0.117768
0.505364
0.174573
0.383745
0.0177168
-0.159526
0.14181
0.0233004
-0.142197
0.118897
0.00405046
0.00385845
-0.00790891
0.0999163
0.156792
0.504692
-0.103862
0.200112
-0.294128
0.0940162
-0.152699
0.15964
-0.223279
-0.0841046
-0.244714
0.0599052
-0.188815
-0.0558998
0.0641339
0.328715
-0.392849
0.158449
-0.00594771
-0.279011
-0.0863324
0.365344
0.286303
-0.0400412
-0.246262
0.108809
-0.00173153
-0.107078
-0.395826
-0.210309
0.606135
0.635814
-0.173947
0.334416
-0.150789
-0.183628
-0.371969
0.264488
0.487458
-0.213825
-0.273633
-0.180544
0.00473681
0.104388
-0.152839
0.00495248
-0.00756378
-0.501942
0.35861
0.143332
-0.649814
0.211556
0.267205
-0.362228
0.148219
0.103609
-0.54192
0.286542
0.255378
-0.303523
0.0245115
-0.12666
0.0174804
-0.119032
0.618398
-0.181008
0.624174
-0.443166
-0.334715
0.398848
-0.241563
0.334165
-0.0688291
-0.0735666
0.142396
-0.0770208
0.195973
0.00369387
0.00166181
-0.146526
-0.0528421
0.199368
0.0269533
0.0683478
-0.0953011
-0.362638
-0.196755
0.161181
0.343511
0.592483
0.00720876
0.0266629
-0.103737
0.077074
-0.0823887
0.300089
0.0964076
-0.0697447
-0.217294
-0.098389
-0.0065156
0.251877
0.0411475
0.186328
-0.227475
0.154197
0.179744
-0.154609
0.130447
0.41437
-0.612831
0.112294
-0.273709
0.161415
0.201099
0.133318
0.0129483
-0.11207
0.0991216
0.484334
-0.132102
-0.36306
-0.180469
0.543529
0.0807951
0.193558
-0.274353
0.231885
-0.207133
-0.0247528
0.108274
-0.126956
-0.262057
0.0823244
0.179732
0.229198
-0.356008
0.12681
-0.00615388
-0.0367219
0.0219563
0.025834
-0.0477903
0.0464978
0.0864656
-0.132963
-0.569042
0.189244
-0.11754
-0.0645799
-0.039157
0.455611
-0.667483
0.211872
-0.0131353
0.0350916
-0.747822
0.296639
0.451183
0.538864
-0.124494
0.467951
-0.602995
0.135044
-0.155858
-0.10427
-0.445468
-0.205286
0.011765
-0.031428
0.0196629
-0.402943
0.549405
0.126525
-0.379684
0.0538263
-0.106095
0.052269
0.05377
-0.0466935
-0.00707655
-0.138628
0.100409
0.0382188
0.00351803
-0.0011469
-0.0980682
0.365273
0.395914
-0.228776
-0.167137
0.168901
0.0783413
-0.247242
0.045159
-0.191685
-0.030779
0.042544
0.180317
-0.00217471
-0.178142
-0.117217
0.0195259
0.0976914
-0.322619
0.137362
0.185257
0.00938749
-0.00664918
-0.146049
-0.0613728
0.148209
0.370109
-0.281666
-0.0884426
-0.414587
0.483144
0.678854
-0.372213
-0.306641
0.619652
-0.164042
0.655485
-0.586301
-0.0691843
0.127814
-0.609358
-0.0890556
0.115439
-0.0263831
-0.602584
0.324033
-0.153904
-0.0880533
0.241958
-0.161393
0.154743
0.50861
0.117418
0.0143024
-0.48264
0.198618
0.284022
0.131745
0.016685
-0.14843
-0.240827
0.149309
-0.0596834
0.00557756
0.0541059
-0.139342
0.129397
0.223943
-0.0259663
-0.197977
-0.422759
0.594637
-0.171877
-0.453255
-0.110711
0.563966
-0.0500314
-0.0532703
0.103302
-0.199844
-0.302097
0.536727
-0.138647
-0.0333442
-0.0634455
0.0967897
0.177689
0.438379
-0.351385
0.133427
0.751794
-0.351116
-0.400677
0.000296532
0.00332396
0.281735
0.142683
-0.424418
-0.410152
0.118203
0.291949
-0.225636
0.170908
0.0547279
0.34248
0.0608904
-0.403371
0.40968
-0.267785
-0.322088
0.144296
-0.243078
0.0613658
-0.255652
-0.34785
-0.214456
-0.12572
-0.0244859
0.204803
-0.151081
-0.017283
-0.692898
0.28623
0.406668
-0.270683
-0.422214
0.164388
0.0166534
-0.181042
0.130909
-0.146339
0.294777
-0.206602
-0.0881753
-0.037428
0.0667644
-0.0293364
0.211333
0.064429
0.238054
0.157859
0.543696
0.111788
-0.0361266
0.00717579
0.0289509
0.353011
-0.125405
-0.227606
0.117147
0.255232
-0.372379
0.638472
-0.489885
-0.148588
0.4281
-0.146365
0.241581
0.422914
0.213977
-0.00866376
-0.205314
0.0920955
-0.0651423
-0.0669035
0.463384
-0.0947984
0.319547
0.432246
-0.0451563
0.0130474
0.0321089
-0.096001
0.0314211
0.0340497
-0.00514213
-0.0821807
0.07734
0.00484064
-0.110758
0.0648707
0.0458875
0.540141
-0.486698
-0.0534429
0.587
-0.421108
-0.165891
0.224086
-0.111791
-0.0918868
0.0302516
0.344292
-0.125924
0.103274
-0.164647
0.00598897
0.0616513
-0.0676402
0.028385
0.0148939
0.00954326
-0.389564
0.380021
0.489576
0.0505648
-0.037963
0.00183633
-0.00100366
-0.00173097
0.00273463
-0.004866
-0.0621265
-0.564562
0.404386
0.193503
-0.0929199
0.0989088
-0.0823603
0.000179622
0.453428
-0.649843
0.196415
-0.609657
0.186897
-0.0220872
0.153833
-0.1119
0.126337
-0.0798392
0.0917944
9.66373e-05
-0.091891
0.112156
-0.0583296
-0.428274
0.141216
-0.175807
0.0345907
0.00248035
-0.00348401
0.67854
-0.29752
-0.38102
0.420994
0.161273
0.333943
0.344596
0.171101
-0.0215405
0.15245
0.349565
-0.120368
0.249594
-0.167269
0.487104
-0.554007
-0.00757589
0.116385
-0.003474
0.000924928
0.00254907
0.0220423
-0.170154
0.148112
-0.0558434
0.0184154
0.5077
0.0290261
0.0760185
-0.350974
0.274955
-0.496025
0.318461
0.177564
-0.00332106
-0.000152938
0.00163288
-0.120535
0.118902
-0.447062
0.49149
-0.0444273
-0.196752
-0.125867
-0.234482
-0.248159
-0.109948
0.020892
-0.318928
-0.139296
0.458223
-0.467041
-0.142615
-0.0378009
0.16555
-0.127749
0.350195
0.236804
0.25442
-0.175872
-0.0785483
-0.0786379
0.142451
-0.0638135
-0.103807
-0.0228533
0.0791723
-0.104553
0.0253806
0.121118
-0.282391
0.161274
0.607381
-0.445181
-0.1622
0.483375
0.024326
0.435106
-0.229653
0.52958
-0.489899
-0.0396805
0.449414
0.229439
0.186011
0.0458747
0.205066
0.230039
0.393338
-0.0754204
-0.317918
-0.149628
-0.416532
-0.0903796
0.44646
-0.197932
0.263596
-0.0656639
-0.137094
-0.136614
-0.049107
0.0729938
0.0234138
0.101425
-0.0884769
-0.00872516
0.124068
-0.0379842
-0.126132
0.164116
-0.1393
0.140933
-0.664359
0.391971
0.272388
-0.27134
0.144968
0.388841
-0.533809
-0.00388379
0.000166996
0.0037168
-0.11702
-0.037589
-0.24511
0.0562958
-0.186988
-0.127256
0.144972
0.0162
0.0698303
-0.388975
0.319144
-0.156712
0.506908
-0.0488916
0.0716801
-0.0227885
-0.0974497
0.0345726
-0.0483846
0.390865
0.472326
0.148858
-0.621184
-0.0275344
0.191923
-0.174974
0.13699
-0.33199
0.0904268
0.150746
-0.571854
0.0855204
-0.130985
0.0804615
-0.00885497
-0.0716065
-0.339084
0.348627
0.599092
-0.332196
-0.266895
0.214896
-0.184986
-0.0299102
0.331652
-0.44942
-0.278404
-0.385955
0.0230429
-0.105046
-0.0121715
0.0466826
0.133697
-0.176277
-0.377274
-0.0364094
0.146662
-0.110252
-0.662245
0.385118
0.277126
0.304868
0.0537416
-0.0292536
-0.0667474
0.104262
-0.0124679
-0.118861
-0.484555
-0.114139
0.499258
-0.215367
-0.331546
0.546913
0.122205
0.309378
-0.431583
-0.500058
0.333775
0.166283
0.33331
0.312455
-0.101122
0.354117
-0.284286
0.31401
-0.42815
-0.0055367
-0.0006782
0.0062149
0.310084
0.257844
0.370111
0.219755
-0.182383
-0.037372
0.298016
-0.198774
-0.0992423
-0.323383
0.428259
-0.104876
0.492264
0.0373152
-0.068183
-0.0704453
0.0877916
-0.0199155
-0.0678761
-0.132187
0.00671383
0.125473
-0.608366
0.0384321
-0.00121819
0.0775415
-0.0244761
-0.0530654
0.314944
0.0783938
-0.535055
-0.017161
0.552216
0.169991
-0.0524173
-0.117573
-0.0759219
-0.206469
-0.39208
0.22463
0.16745
0.249696
0.388719
-0.531551
0.142832
-0.165227
-0.062878
-0.121876
0.0180695
-0.122471
-0.287681
-0.134071
-0.153904
0.287975
-0.147764
-0.387291
0.27397
-0.637031
-0.0945769
0.548005
0.22053
0.0919259
-0.104217
0.304329
-0.225616
0.0717116
-0.288315
-0.100659
-0.0998272
0.123128
-0.458103
0.170767
0.287336
0.151244
0.00609581
0.210555
-0.222579
0.0625719
0.0149697
0.21247
-0.46256
-0.345441
-0.196479
0.210026
0.0847515
-0.0983084
-0.0086023
0.106911
-0.163933
-0.0992435
0.0658993
0.262166
-0.381246
0.224381
-0.0383708
-0.572012
0.0446776
0.527334
-0.00168863
-0.00384807
0.446519
0.133374
-0.579893
0.0509677
-0.0392283
-0.0117394
-0.117704
0.585656
0.217786
-0.0465249
-0.171261
-0.434225
0.584333
-0.150108
-0.102072
0.574398
0.468752
-0.631824
0.163071
0.188011
-0.456769
-0.16443
0.0155594
0.199337
-0.212943
0.289575
-0.162486
0.0255817
-0.198049
-0.355657
-0.133428
0.489085
-0.172512
0.14444
0.0280718
0.0582412
0.173676
-0.231917
0.0756149
-0.273547
-0.545529
0.507112
0.0384164
0.552147
-0.173917
-0.37823
-0.604356
0.0588279
-0.576446
0.217965
0.358481
0.375577
0.176571
-0.0359403
0.00397635
-0.00298953
-0.000894263
0.34354
-0.319932
0.0355953
0.156185
0.113105
-0.0194429
-0.093662
-0.0131084
-0.0320479
0.0181598
-0.496422
0.478262
-0.14925
-0.471509
0.632161
-0.160652
-0.265455
0.159842
0.423738
-0.583581
-0.586626
0.251911
-0.259485
-0.200539
0.0398164
0.160723
-0.721805
0.30493
0.416875
0.0530588
-0.037106
-0.0159528
-0.435575
0.655024
-0.293707
-0.361317
-0.0467332
0.0336248
0.000185
0.00229535
0.500697
0.139717
0.343435
0.0337969
-0.377232
0.680226
-0.179528
0.543962
-0.608889
0.0649265
-0.496574
0.320297
-0.0491639
-0.0105195
-0.243191
0.485178
-0.360109
-0.12507
0.406291
-0.284086
0.520567
0.0107716
-0.531339
-0.00723496
0.494339
-0.16462
0.133999
0.0306206
0.20769
-0.325472
0.117782
0.300877
0.0874465
-0.388324
-0.0354857
0.176702
0.415568
-0.244801
0.393837
0.008944
-0.206021
0.197077
-0.24845
-0.247575
-0.175427
0.0318263
0.143601
0.093364
-0.04555
-0.0487672
0.0802428
-0.0314757
-0.210003
0.485739
-0.275736
0.0628713
-0.260399
0.197528
0.106474
-0.559723
0.282776
-0.177216
-0.0519242
0.289978
0.560079
-0.205423
-0.354657
-0.572012
0.216859
-0.268783
-0.37716
-0.258754
0.102261
0.156493
-0.501734
0.315543
0.186191
0.0854036
0.459734
-0.545138
0.120821
-0.390302
0.269481
0.134436
0.0209719
0.0403796
-0.0273322
-0.314302
0.107539
0.206762
-0.0521893
-0.0774679
0.129657
0.195147
0.0661462
-0.261294
-0.328311
0.602282
0.363725
-0.0106891
-0.0252512
-0.640415
0.41729
0.223125
-0.644796
0.173287
0.483315
0.0810813
-0.564396
0.280471
0.073646
-0.586073
0.41144
0.042464
-0.453904
0.0611399
0.0631334
-0.246485
0.345854
-0.0993696
0.033858
0.019912
0.00399485
-0.00448012
0.000485268
0.586235
-0.110664
0.638448
0.00942405
0.0601319
-0.069556
-0.161454
0.195178
-0.0337235
-0.0453805
0.0661429
-0.0207624
0.12482
0.241087
0.108478
0.441755
-0.0682964
-0.640456
0.391894
0.248561
0.360651
-0.152962
-0.112477
0.413354
0.373127
-0.0581828
0.386358
-0.325468
-0.655196
0.189033
0.466164
0.110074
0.00166628
-0.11174
-0.241363
-0.413833
-0.0726644
-0.127875
0.514235
0.165991
-0.520724
0.305358
0.316898
-0.250218
-0.0666805
0.509201
0.0877168
0.0234416
0.0275261
0.211245
0.0867711
-0.219616
0.349707
-0.130091
0.0305836
0.057208
0.129521
0.0992584
-0.0246115
-0.0746469
-0.030625
-0.00438588
0.0350109
-0.253187
-0.246871
-0.464223
0.122117
-0.341733
0.14334
-0.147909
0.00456925
-0.122616
-0.414531
-0.192819
-0.0028907
0.0030757
0.0220793
-0.0735906
0.163199
-0.154255
0.0657991
-0.0416312
0.374299
0.18578
-0.227417
0.176775
0.0506418
0.474849
0.0457183
-0.150878
-0.107876
-0.206827
-0.149181
-0.668756
0.398073
0.123326
-0.0150524
-0.425597
0.211035
0.179279
-0.0340842
-0.145195
-0.288967
0.0894212
0.199546
0.116315
-0.0159053
0.15673
-0.0222931
-0.619001
0.286938
0.332063
0.122281
-0.307704
0.185422
-0.451402
0.132475
-0.257842
-0.361159
-0.640357
0.424483
0.215874
0.0968913
-0.302693
0.205802
-0.00324119
0.104666
-0.0832336
0.566548
0.0278424
0.0852625
0.143161
0.441408
-0.58457
-0.108799
0.357592
-0.116505
-0.0365227
0.115864
-0.0793416
-0.216481
-0.328984
0.545466
-0.141845
0.100184
0.357944
-0.538214
0.18027
-0.13935
-0.0136807
0.0119921
0.0083335
0.211422
0.563697
-0.336529
-0.227169
0.00879275
-0.00803751
-0.000755238
0.17391
0.0438757
0.530291
-0.172348
-0.166951
0.0352012
-0.108768
-0.290284
-0.286161
-0.0506734
0.108549
-0.0578756
-0.473028
0.263025
-0.321916
-0.151177
0.473093
0.582423
-0.253708
0.199555
-0.162534
-0.0370209
-0.0727547
-0.170323
0.0690088
-0.268762
-0.399994
0.355239
0.129095
-0.603559
0.577228
0.0263306
-0.144584
-0.304979
0.449563
-0.188989
0.0740669
-0.122508
0.0484407
0.317378
-0.0968487
0.197691
-0.281193
0.0835017
-0.151362
-0.240718
0.201401
0.381022
0.288288
0.0286098
0.47604
-0.578112
0.036305
-0.032117
0.0790261
-0.263327
0.1843
0.0217398
0.287809
-0.309548
-0.115296
0.377462
0.38876
0.174937
-0.383289
0.267993
-0.0608194
0.219432
-0.158613
0.140882
0.0291086
0.00595382
-0.10719
0.540692
-0.433502
-0.0781936
0.275885
0.444633
-0.613218
0.168585
-0.198324
0.261196
-0.310581
0.228192
0.0718702
-0.125141
-0.0302396
0.50628
-0.0461793
0.432538
0.000702416
0.00329244
-0.0215957
0.100768
0.318843
-0.499312
-0.19796
-0.296841
0.494801
0.519026
-0.374058
0.043635
-0.0410825
-0.00255251
-0.246281
0.0706595
0.175622
0.357674
-0.491102
0.0779067
0.239472
0.1047
-0.412883
0.308183
-0.604785
0.276474
0.11075
-0.000676036
-0.366938
0.239789
0.12715
-0.257494
0.109149
-0.0334625
-0.0756868
-0.0793511
0.0305839
-0.119751
-0.31612
0.115772
0.200349
-0.431784
0.449944
0.132191
0.309036
-0.441227
-0.111655
-0.0145183
0.126173
0.0457867
-0.0178181
-0.0279686
-0.55481
0.101555
0.0839629
0.0267873
0.085776
-0.00531447
-0.001315
0.104228
0.0381679
0.0201779
0.0256088
0.015938
0.027697
0.417408
-0.566761
0.149353
0.0399307
0.184451
-0.098265
-0.0222682
0.120533
-0.207037
0.302146
-0.443242
0.141096
0.565617
-0.422455
-0.128146
0.0391585
-0.00488795
-0.495056
0.134947
0.187034
-0.0388143
0.280166
-0.0738561
-0.20631
0.0999312
0.182845
0.650705
-0.406557
-0.244148
0.294078
-0.102338
-0.19174
-0.595821
0.44521
0.150611
-0.146976
-0.0284516
0.12623
-0.647435
0.209352
0.438082
0.0150534
0.0233787
-0.0209011
0.164241
-0.0809995
0.138618
-0.0576186
0.124829
-0.311781
0.186952
-0.283092
-0.388665
-0.00377873
0.00581797
-0.00203924
-0.585752
0.251547
0.334205
-0.00259874
0.000597627
0.00200111
0.0349979
0.144281
-0.125829
0.0548876
-0.00650738
-0.0483802
0.0876602
0.349309
-0.436969
0.116795
0.322649
-0.439444
-0.0935074
-0.0157791
0.109287
0.30283
0.161312
-0.464142
-0.181373
0.402207
-0.314547
-0.14402
-0.670124
0.263122
0.407002
0.114058
0.325502
-0.43956
0.162177
-0.540676
0.378499
-0.0147749
-0.0418262
0.056601
-0.73199
0.510962
0.221028
0.0627593
0.167999
-0.230758
0.0432511
0.0658983
-0.265946
0.20789
-0.0640284
0.0906998
-0.0266714
-0.40472
0.108492
-0.307468
0.198976
-0.276339
0.42223
-0.145891
-0.19088
-0.541109
0.0473979
-0.0980714
0.0595727
-0.0501487
0.102793
-0.168706
-0.327868
-0.286874
-0.159982
0.446856
0.0142405
-0.0952401
-0.344813
0.461608
0.439985
-0.325927
-0.140211
-0.450602
-0.139245
0.589848
0.000247552
0.0593252
-0.31892
-0.351203
-0.375079
0.460483
0.41726
0.0560606
-0.473321
0.673635
-0.185694
-0.48794
-0.100075
-0.602664
0.456524
0.14614
0.455643
-0.323601
-0.132041
-0.0744739
0.269621
0.111351
-0.499349
0.387999
-0.228091
-0.439392
0.494218
-0.382867
-0.448487
-0.154177
-0.145175
0.447321
0.0594735
0.220692
0.082084
-0.235245
0.153161
0.479784
-0.296083
-0.183701
0.0829726
-0.0397893
-0.0431832
0.310692
0.102646
-0.413338
0.199993
-0.054627
-0.145366
-0.572196
0.281912
-0.209163
-0.0798037
0.287383
0.386252
-0.0197111
-0.162023
0.181734
-0.0330406
0.117003
0.0224337
-0.164345
0.429522
-0.265178
0.100029
0.207516
-0.307545
0.0189468
-0.198175
0.179228
-0.225806
0.164986
0.176223
-0.134115
0.419849
-0.285734
-0.188178
0.152894
0.0352841
-0.440523
0.301227
-0.198799
0.187247
0.267702
-0.0741438
0.21507
0.423402
0.0336951
-0.0977235
0.0595602
0.0290479
-0.0886081
-0.201274
0.273818
-0.0725438
0.420523
-0.109831
-0.0004735
0.00433195
-0.158272
0.178447
-0.0201751
-0.665136
0.278743
0.386393
0.0213839
-0.0256427
-0.079403
-0.326952
-0.0783973
0.405349
0.647735
-0.342805
-0.156531
-0.366408
-0.298728
0.196272
0.283512
-0.411785
0.111286
-0.517141
0.405855
-0.199623
0.296514
-0.277782
0.564325
0.193453
-0.177894
0.0526506
0.320477
-0.143376
-0.0822395
-0.557306
0.200298
0.357008
-0.306372
-0.265825
0.269333
-0.367401
-0.0141372
0.0587004
-0.0445632
-0.363804
0.592693
-0.22889
-0.158718
0.136631
0.387028
0.277242
0.138326
0.0696529
-0.0919211
0.189651
-0.267844
0.612729
-0.612729
-0.191348
0.166862
0.0378329
-0.148293
0.11046
0.0169174
-0.0443437
-0.366727
-0.229094
0.0323692
0.0965408
-0.72207
0.390524
-0.31895
0.115315
0.203634
0.00881906
-0.0132049
-0.107214
0.376547
-0.0874307
0.556183
0.221045
0.398608
0.151761
-0.327178
0.442458
-0.11528
0.100063
-0.423446
-0.0305344
0.0305013
0.0659975
0.708972
-0.295448
-0.413525
0.00280512
-0.00267712
-0.000128
-0.0608324
0.142161
0.0751495
-0.0616328
-0.0135166
-0.0302654
0.181639
-0.119576
0.536836
0.00964029
-0.00871536
0.464846
-0.63001
0.165164
0.473469
-0.592904
0.400258
0.192646
0.194312
-0.175366
0.214218
0.379673
-0.217933
-0.0572818
0.275215
0.265004
-0.0140582
-0.250946
-0.394315
0.0572645
-0.106094
0.168817
0.19383
-0.642317
0.161359
-0.0642613
-0.097098
0.502721
0.134626
0.0460847
0.00549615
-0.0515808
-0.19585
-0.361456
0.015678
0.0501211
0.281608
0.427364
0.114385
-0.0948593
0.181025
0.474
-0.58349
0.242809
0.340681
0.209219
0.084859
-0.157027
0.620992
-0.170464
-0.450528
-0.436967
-0.140629
0.577596
0.231412
-0.275567
0.0441547
-0.169176
0.146067
0.388534
-0.534602
-0.697662
0.41457
0.120896
0.0652289
-0.186125
-0.382294
-0.339776
0.16842
0.345814
-0.411997
-0.285664
-0.316323
0.121324
0.194998
-0.544936
0.166944
0.0326106
-0.491723
0.323017
0.0700048
-0.376416
-0.192709
-0.64134
0.232728
0.408612
0.417326
0.177311
0.113996
0.0127988
-0.126795
-0.027504
-0.125487
0.152991
-0.569193
0.232408
0.336785
-0.35933
0.125856
0.233474
-0.0627048
-0.0418481
-0.189472
-0.0848406
-0.0570043
-0.0683594
0.4798
-0.0436511
0.117718
0.247694
-0.420295
-0.084348
-0.185239
0.269587
0.15007
0.0329085
-0.182979
-0.0308227
0.0903829
-0.145558
0.602081
-0.192351
-0.0013983
0.000720098
0.00502388
-0.0181592
0.0503767
0.149616
0.503818
-0.367942
-0.135876
0.275666
-0.0442537
-0.156529
0.0956963
0.372148
-0.26806
-0.104088
0.150613
-0.325802
0.200397
-0.0114132
0.0186992
-0.00728597
-0.14236
0.140186
0.101725
0.492854
-0.594579
0.035224
-0.0874704
-0.0326215
0.199565
-0.0988432
0.0604308
0.0384123
-0.115834
-0.306988
0.422822
0.0257383
-0.221155
0.195417
-0.0569209
-0.432964
0.0141905
0.112576
-0.126767
0.504553
-0.370634
-0.133919
-0.664227
0.37838
0.285847
0.45012
-0.522172
0.163926
0.358246
0.193513
-0.243767
0.050254
-0.112339
0.0601495
0.529235
0.0834937
0.406962
0.240773
0.136487
-0.514391
0.377904
-0.0460308
0.0282127
-0.194201
-0.513946
0.303637
0.577224
-0.431446
-0.430313
0.163059
0.267254
-0.226625
-0.03497
0.261595
-0.377294
0.189208
0.0612499
0.273568
-0.205748
-0.00769751
0.213445
0.0940836
0.118498
0.422145
0.155079
0.698188
-0.285641
-0.412547
0.2053
-0.0844036
0.26952
0.428668
0.480647
-0.197136
-0.283511
0.583294
-0.41393
-0.169365
-0.143262
-0.0412156
-0.115128
0.156343
0.305788
-0.364581
0.227326
0.137254
0.29659
-0.513071
-0.225247
0.110228
-0.101459
0.0928563
-0.237193
0.164439
-0.0485311
0.151805
-0.199928
0.128465
-0.284864
0.104971
0.398847
0.0192646
0.0558849
-0.387314
0.523802
0.43747
0.145824
0.120858
0.0125173
-0.133375
0.128209
0.0285208
-0.000562329
-0.121675
0.122237
-0.142583
0.537752
-0.395169
0.243194
0.126914
0.274816
-0.399447
0.124631
-0.188107
-0.123674
0.466374
-0.637069
0.170695
-0.0820169
0.306647
-0.0782385
0.169408
-0.0911695
-0.180009
-0.0776608
0.229026
-0.151365
-0.0300927
0.174007
-0.0286595
-0.145348
-0.388063
0.0526585
0.00222913
-0.313816
-0.169939
-0.197
-0.698627
0.277631
0.420997
0.194432
-0.164377
-0.0300546
0.526375
-0.0192625
-0.417019
0.18828
-0.00124599
-0.416812
0.573069
-0.156257
-0.434633
0.308075
0.126557
0.631933
-0.167087
-0.49076
0.203886
-0.155926
0.109115
-0.157646
-0.234024
-0.406432
0.549088
-0.160368
-0.126787
0.045249
-0.207783
-0.207036
0.0418084
-0.707544
0.412096
-0.3566
0.186662
0.0232514
0.135703
-0.158954
0.0144301
-0.00478979
-0.0151522
0.0936533
-0.115249
-0.107704
-0.151046
0.177747
-0.0267018
0.291999
-0.613915
-0.432689
0.298574
-0.136432
0.483366
-0.346935
-0.242839
0.0715512
0.171288
-0.414533
0.298699
-0.688502
0.256143
0.432359
-0.497518
0.358816
0.138701
0.20717
0.0756588
-0.282829
0.171203
-0.278704
-0.409799
-0.197613
-0.202285
0.399898
-0.0491052
0.199176
0.0401794
-0.0117943
0.162689
-0.00150311
-0.00227562
0.265106
-0.000101984
0.115831
-0.140553
0.0247228
0.140538
0.0835476
-0.131687
-0.193785
-0.203272
0.239652
-0.0363802
0.0408757
-0.00701768
0.0351296
-0.44241
0.297826
-0.226775
-0.076748
-0.136237
-0.109223
-0.0336855
0.142909
-0.12147
0.379047
0.48598
-0.128306
-0.322913
-0.167847
-0.153316
0.2354
-0.115224
0.0958609
0.251979
-0.34784
0.242884
-0.330643
-0.286526
0.0116715
0.188068
0.380141
-0.137635
0.305084
-0.127154
-0.117683
0.244837
-0.184604
0.472618
-0.288015
0.422614
-0.127506
-0.115333
-0.59616
-0.0478641
-0.198397
-0.268687
0.184339
-0.074834
0.15921
-0.0843758
0.115222
-0.143449
0.0282265
0.509225
-0.185313
-0.323912
0.00340652
-0.00409834
0.000691827
0.0144748
0.152831
-0.0376085
-0.00412436
0.192404
-0.0309041
-0.117389
0.551506
-0.15605
-0.395456
-0.267268
-0.0973124
0.0324477
0.161984
0.276429
0.30112
-0.577549
0.384696
0.166809
-0.0380213
-0.0147815
0.208234
0.112732
-0.310345
0.453367
0.0730078
-0.668439
0.215932
0.452508
-0.256345
-0.412094
-0.13044
-0.345605
0.345377
-0.491175
0.145797
-0.451096
0.127495
-0.639325
0.253429
0.385896
-0.420161
-0.441783
0.602372
-0.479696
-0.122675
-0.0611051
0.0463302
0.125916
0.231676
0.149088
0.439906
-0.588994
0.0560616
-0.0625689
-0.00258687
-0.00545064
0.266653
-0.07314
0.204024
-0.286041
0.102727
-0.147844
-0.0714347
0.13183
-0.153371
0.0467626
0.0180595
-0.0648221
-0.328903
0.00598942
0.155348
0.325299
-0.508612
0.589693
-0.0665621
0.0954935
-0.0289313
0.0735498
0.23333
-0.30688
-0.0245142
-0.0128301
0.0373443
-0.0368052
-0.0620379
0.169179
-0.582718
0.41354
0.165408
-0.529211
0.0356205
0.141602
-0.578569
0.547276
-0.39523
-0.152046
-0.00240426
0.00203606
0.000368197
-0.352495
0.598374
-0.245879
0.395814
-0.120998
0.658681
-0.198947
-0.0330585
0.00137104
0.0316875
0.607375
-0.201691
-0.405683
-0.457548
0.53882
-0.376643
0.464604
-0.547837
0.607775
-0.161256
-0.0109373
-0.000475875
0.129841
-0.474883
0.314901
-0.695946
0.410305
-0.00282729
-0.103268
0.151219
-0.0224276
-0.128791
-0.353955
-0.138102
0.492057
-0.20101
-0.345384
-0.156659
-0.422052
-0.174812
0.596864
-0.202699
0.279803
-0.0771043
-0.49855
0.330988
0.167561
0.476693
0.0705823
-0.0326337
0.0387797
-0.00614604
-0.193723
-0.0894721
0.283195
0.560641
-0.175945
-0.452594
0.267991
-0.182122
-0.363208
0.545331
0.169334
-0.578578
0.409244
-0.396578
-0.186912
0.133159
0.352765
-0.485924
-0.139817
-0.109057
-0.274232
0.210005
-0.0603888
0.135869
0.224782
0.44508
0.175911
0.130522
0.262851
-0.393374
0.0500116
-0.190573
0.140561
0.167307
0.0278712
0.0802303
-0.158469
-0.144102
-0.255345
0.0753566
0.238107
-0.313464
0.266839
-0.374053
0.293204
-0.403476
0.110272
1.08888e-05
-0.00241515
0.467073
-0.298653
0.187668
-0.300855
0.113188
0.00200822
0.534815
-0.534815
0.0835964
-0.0302865
-0.0533099
-0.148829
-0.449482
0.598311
-0.0161449
0.0619698
-0.0458249
-0.209598
0.284954
0.287329
0.111232
0.047217
-0.056475
0.04762
-0.53475
0.352628
0.0153682
0.0986279
0.104064
-0.595401
-0.111946
0.249308
-0.190397
-0.0825293
0.272927
-0.151205
-0.0255846
0.176789
0.019983
-0.0734261
0.0534431
-0.0988115
0.363299
-0.137174
-0.0210976
-0.136679
-0.0228477
0.165411
0.108014
-0.540193
0.432179
-0.577249
0.319407
0.06574
0.162151
-0.227891
-0.0798882
0.0559525
0.0239357
0.0824633
-0.00166777
-0.691235
0.412531
-0.0405516
0.00791789
-0.570318
0.426697
0.112167
-0.536332
0.518875
0.0174572
-0.216154
0.305575
0.137164
0.344382
-0.481546
0.5275
-0.0628964
0.29493
-0.221381
-0.611374
0.444073
0.167301
0.578007
0.129712
-0.15397
0.0242574
0.0991786
0.0394396
-0.210425
-0.344057
-0.267316
-0.380824
0.24319
-0.000287604
-0.00231113
-0.425107
0.129394
-0.156898
-0.418315
0.0660482
-0.0192857
-0.252953
-0.174119
0.427072
-0.433753
0.291046
0.142707
0.278695
-0.0890445
0.147953
-0.585735
-0.263527
0.0736539
0.0819918
0.38269
0.166397
0.263853
0.00948501
-0.421715
0.555334
-0.341317
-0.214017
-0.0973849
0.605927
-0.447926
-0.158
-0.0202745
0.0479715
0.0466433
-0.0607805
-0.125298
-0.226687
0.351985
0.250882
0.37367
-0.371637
0.491123
-0.358928
-0.132195
-0.0730204
-0.170746
0.296655
-0.196625
-0.435566
-0.148428
0.583994
-0.426404
0.516862
-0.0904579
-0.308332
0.00192548
0.153401
-0.287472
-0.034891
0.00302913
-0.306051
0.408697
-0.330145
0.0598259
-0.0630671
0.171642
0.460519
-0.0864709
-0.205769
-0.396816
-0.0586528
0.0208883
0.0377645
-0.321734
0.11045
0.211284
0.141963
0.0320444
0.0439943
-0.00311863
-0.686953
0.430608
-0.529063
0.38648
0.247465
-0.195344
-0.525379
0.118032
0.407347
0.125401
0.251504
-0.376906
0.0445535
-0.0443059
-0.132683
0.47806
-0.152881
0.535571
0.0272426
0.108734
0.0291649
-0.137898
0.102315
-0.0844023
-0.017913
-0.186531
-0.353253
-0.443346
-0.146725
0.590071
-0.411912
0.562911
-0.150998
-0.628973
0.202285
0.426688
-0.448805
0.143826
-0.113243
-0.112515
0.408042
-0.1308
-0.145365
-0.0428135
-0.170781
0.129566
-0.43081
0.143904
0.0400034
-0.183908
0.279621
-0.15734
-0.31616
-0.269592
0.172271
-0.0303079
-0.00161407
-0.002234
0.13981
-0.160711
-0.0498854
0.0804689
0.310998
0.175996
-0.486994
0.0859396
0.405183
-0.193066
0.308838
0.108914
0.174493
-0.283407
0.370981
0.180464
-0.523434
0.387002
0.0258566
-0.0186808
0.00880792
-0.109583
0.0938036