/*--------------------------------*- C++ -*----------------------------------*\
| =========                 |                                                 |
| \\      /  F ield         | OpenFOAM: The Open Source CFD Toolbox           |
|  \\    /   O peration     | Version:  v2012                                 |
|   \\  /    A nd           | Website:  www.openfoam.com                      |
|    \\/     M anipulation  |                                                 |
\*---------------------------------------------------------------------------*/
FoamFile
{
    version     2.0;
    format      ascii;
    class       volVectorField;
    location    "200";
    object      U_0;
}
// * * * * * * * * * * * * * * * * * * * * * * * * * * * * * * * * * * * * * //

dimensions      [0 1 -1 0 0 0 0];


internalField   nonuniform List<vector> 
14315
(
(1.0264 0.00301924 1.07339e-21)
(1.12764 -0.0206123 -3.95307e-20)
(1.03118 -0.00607526 -6.74433e-24)
(1.06035 0.00637083 -2.17189e-21)
(1.06055 -0.00483776 -8.38123e-21)
(1.03229 0.00261301 4.68266e-22)
(1.03009 0.000584721 -5.6261e-23)
(1.03981 -0.011089 -1.95865e-21)
(1.04809 0.0618279 8.18639e-20)
(1.03008 -0.00357074 0)
(1.02888 -0.00160241 1.6872e-22)
(1.03241 -0.00767747 4.88363e-22)
(1.11051 -0.0452579 -6.50647e-21)
(1.03805 0.00723865 2.13417e-21)
(1.03038 0.000497903 0)
(1.03831 -0.0057495 3.51355e-21)
(1.03027 -0.000737886 -1.52676e-21)
(0.752368 0.0591529 2.63637e-20)
(1.02758 -0.00169003 -9.47563e-24)
(1.0385 -0.00618811 0)
(1.08456 0.00275057 0)
(1.03461 -0.00705467 0)
(1.01903 -0.000130556 2.30353e-23)
(1.02889 -0.0017097 -4.21855e-22)
(1.14092 0.0269559 -6.03235e-20)
(1.04004 0.00724774 -1.87223e-21)
(1.12302 -0.0138041 1.87874e-20)
(1.02971 -0.00330685 -1.85245e-22)
(1.12279 -0.015727 0)
(1.02462 -0.000512294 0)
(1.0816 0.0273283 0)
(1.02551 -0.000673934 -1.23571e-22)
(-0.0552958 0.0220201 8.66393e-20)
(1.03816 -0.00197536 -8.43555e-23)
(1.04734 -0.00863353 -1.01453e-20)
(1.02548 -0.000664877 1.16198e-22)
(1.02613 -0.00107556 -5.29355e-24)
(1.04703 -0.00797716 0)
(1.0177 -0.000126907 -7.79457e-23)
(1.05151 0.00373373 1.39817e-20)
(1.06638 0.0611747 -5.59146e-20)
(1.04044 0.000882187 -6.49382e-21)
(1.05798 -0.0195688 1.58506e-20)
(1.10167 0.029836 -3.13411e-20)
(1.09792 -0.0164838 1.90807e-20)
(1.06418 0.00106462 0)
(1.03122 -0.00588136 0)
(1.02949 -0.00313265 6.56976e-22)
(1.0389 -0.00698861 8.07591e-21)
(1.05778 -0.0183768 -6.23316e-21)
(1.02599 -0.00102733 0)
(1.1049 0.00412712 -2.86519e-22)
(1.02744 -0.000534434 1.3439e-22)
(1.02874 -0.00187046 -1.99411e-22)
(1.02743 -0.000518128 1.46007e-22)
(1.04905 -0.00595809 0)
(1.02997 -0.0389359 -2.64489e-22)
(1.02905 -0.001927 0)
(1.03985 0.00705155 0)
(1.13811 0.0264381 5.76056e-20)
(1.02857 -0.0017589 1.69757e-22)
(1.06398 0.0015544 1.10229e-20)
(1.07867 0.0182001 0)
(1.02883 -0.00122283 -5.89292e-23)
(1.02947 -0.0017147 -1.04686e-21)
(1.02813 -0.00208479 0)
(1.03125 -0.00625876 3.6893e-23)
(1.08059 0.0266431 0)
(1.04664 -0.00910948 0)
(1.02518 -0.000629997 1.34342e-22)
(1.02889 -0.000828994 -1.06541e-22)
(1.02911 -0.00140893 0)
(1.02889 -0.000855649 -8.377e-23)
(1.0432 -0.00618764 -1.86046e-21)
(1.02883 -0.000569443 9.26819e-22)
(1.03951 -0.0140307 -4.97898e-22)
(1.02916 -0.00134699 0)
(1.07051 -0.0150878 1.24467e-20)
(1.02518 -0.000625774 -1.06121e-22)
(1.10197 0.0352051 -2.87493e-20)
(1.02499 -0.000436747 9.80353e-22)
(0.787985 -0.00817077 0)
(1.0385 -0.00725597 -2.2136e-21)
(1.02941 -0.00152879 0)
(1.02764 -0.000340235 1.36668e-22)
(0.660516 -0.0591312 -3.88168e-20)
(1.09742 -0.0179865 -2.17859e-22)
(1.02932 -0.000840837 0)
(1.02923 -0.000789953 0)
(1.02911 -0.000620876 1.02523e-22)
(1.09152 0.000564893 -2.01274e-20)
(0.721886 0.0571688 -6.00465e-20)
(1.10979 -0.0467961 0)
(1.02463 0.000689325 0)
(1.02034 -0.000392464 -2.80141e-23)
(1.02491 -0.000418645 -1.11944e-21)
(1.02774 -0.000346063 1.12183e-22)
(1.02841 -0.00176554 -5.95232e-23)
(1.02009 -0.000308204 0)
(1.04004 0.00135259 2.90559e-21)
(1.03311 0.00458597 0)
(1.03818 -0.00604986 5.31533e-23)
(1.01823 -0.00010079 -5.01811e-23)
(1.05888 -0.0129883 0)
(1.02973 -0.000788456 0)
(1.0313 -0.00226865 1.63413e-21)
(1.05102 0.00473523 -6.97378e-21)
(1.07466 0.00627849 -9.52541e-21)
(1.05202 -0.00900518 1.26457e-21)
(1.09874 0.00826911 0)
(1.06467 -0.0214387 0)
(1.093 0.0303194 -1.71307e-20)
(1.03484 -0.0139439 -8.80769e-22)
(1.11461 -0.0102905 4.91655e-20)
(1.03467 -0.00753761 -1.80562e-21)
(1.10309 0.00444052 2.79245e-22)
(1.05661 -0.0216974 -1.0556e-20)
(1.04728 -0.00888476 6.46239e-21)
(1.05101 0.0285382 0)
(0.700127 -0.00770062 7.78735e-21)
(1.02925 -0.00263379 -2.22269e-22)
(1.03048 -0.000623167 1.36663e-21)
(1.0274 -0.00157936 -4.37278e-25)
(1.08388 -0.0144979 -3.90351e-20)
(1.10396 0.0470104 -3.82681e-20)
(1.03114 -0.00330198 5.95406e-22)
(0.71654 -0.0357919 -9.14748e-23)
(1.02503 0.00262469 -9.14502e-22)
(1.03238 -0.00607972 0)
(1.03339 0.00490498 0)
(1.0883 0.0319935 0)
(1.13614 -0.0142809 0)
(0.859839 -0.0482553 -3.94204e-21)
(0.706196 -0.020686 7.64502e-22)
(1.03877 -0.013741 -2.86966e-21)
(1.03217 -0.00625772 0)
(0.793562 0.0602596 -5.22296e-21)
(1.11281 -0.0129784 -2.32466e-20)
(1.12666 -0.032138 0)
(0.815329 -0.038952 0)
(1.09814 -0.0212565 4.05962e-20)
(1.10395 0.0477825 -6.05252e-21)
(1.02468 -0.00052978 0)
(1.13526 -0.0162134 0)
(-0.0125017 0.0772519 9.04162e-20)
(1.04265 -0.00613876 1.66722e-21)
(1.03462 -0.013893 -2.1823e-22)
(1.02899 -0.00166412 1.99669e-22)
(1.09051 0.0188162 0)
(1.09792 0.00710862 0)
(1.03336 0.00424512 2.38459e-21)
(1.02426 -0.000127266 7.46582e-24)
(1.02898 -0.00228883 8.29694e-23)
(1.01513 -0.000105517 1.47237e-23)
(1.03071 0.00146492 6.18789e-23)
(1.05162 -0.00824507 -1.0311e-21)
(1.0569 0.000674342 -7.83657e-21)
(1.01793 -0.000132443 -9.81451e-25)
(1.02651 -0.0371848 0)
(1.1005 0.0357003 6.03762e-21)
(1.06578 0.00536671 -1.308e-20)
(1.04243 0.00758991 -2.55866e-22)
(-0.0408656 0.0344807 -5.72103e-20)
(1.09007 0.0208311 -2.60763e-20)
(1.01883 -0.000185905 0)
(0.604434 -0.0601842 -3.09401e-20)
(1.01741 -0.000105028 0)
(1.06173 0.018105 -1.70648e-20)
(1.01946 -0.000233564 -4.30053e-23)
(1.03182 0.0027682 0)
(1.04686 0.0260201 0)
(0.722943 0.0578416 1.59268e-20)
(1.06154 -0.0265455 7.74727e-21)
(1.06637 -0.00935123 0)
(1.13061 0.041922 0)
(0.910427 -0.0407805 -4.71893e-21)
(1.0323 -0.00802832 0)
(1.03098 -0.00341377 -2.80179e-21)
(1.0944 -0.0101914 1.97754e-20)
(1.11085 -0.00365041 -3.47745e-20)
(-0.0674404 0.0196265 0)
(1.08299 -0.0152655 1.20208e-20)
(1.0331 0.00403327 -2.49469e-21)
(1.05284 -0.0234043 0)
(1.08306 0.00265086 -2.56562e-20)
(0.821268 -0.00980132 8.99925e-21)
(1.06578 -0.0217782 5.83403e-21)
(1.0667 -0.0209289 -1.18284e-20)
(1.03172 -0.00622565 1.20661e-22)
(1.09118 0.0172553 7.80776e-21)
(1.04175 -0.0113704 -2.00784e-21)
(0.847022 -0.0510186 0)
(1.12524 0.00433918 -3.04478e-20)
(1.02441 -0.000118485 2.03141e-25)
(1.02808 -0.00161098 0)
(1.05156 -0.0106681 -1.15594e-20)
(0.709554 -0.00380168 0)
(1.03315 0.00580652 1.15906e-21)
(1.06637 0.00609192 1.57433e-20)
(1.08717 0.0316567 2.14432e-20)
(-0.0749483 0.0226385 -5.57393e-20)
(1.03155 0.00595525 -1.3816e-22)
(1.03945 -0.0051962 0)
(1.04234 -0.00537296 -4.88875e-21)
(1.06042 0.00636058 8.20487e-21)
(1.03187 -0.0038787 -2.41414e-21)
(1.04227 -0.0111882 3.6071e-21)
(1.10193 0.0310938 5.62939e-20)
(1.03035 0.000214808 0)
(1.02457 -0.000115211 1.10622e-23)
(1.03173 -0.0061296 -1.19744e-22)
(1.0434 -0.00677979 2.96331e-21)
(1.1111 0.0130171 0)
(1.06132 0.0174392 3.49423e-21)
(-0.0454759 0.0221909 -7.54907e-20)
(1.06936 0.00408993 0)
(1.09711 0.0513776 0)
(1.03313 0.00518439 0)
(1.03333 0.00367515 0)
(1.01804 -0.000239537 4.17096e-23)
(1.10318 0.054484 0)
(1.04828 -0.00589143 -3.25104e-21)
(1.10389 0.0560825 0)
(0.874696 -0.0492314 4.3021e-21)
(1.06899 -0.0156977 -2.45676e-20)
(1.0627 0.00782272 0)
(1.05535 -0.0219497 6.36313e-21)
(1.08856 0.0203625 1.20669e-20)
(1.02721 -0.0015891 -4.80598e-23)
(1.06415 0.0142798 0)
(1.051 -0.010878 5.80588e-21)
(0.989012 -0.0331059 -2.99973e-20)
(1.03109 -0.00572159 0)
(1.02243 0.00640259 -3.43837e-23)
(1.05798 -0.00199909 -1.16118e-20)
(1.06785 -0.00466546 0)
(1.10022 0.02931 5.14372e-20)
(1.05885 -0.0145803 -1.2742e-20)
(1.04392 -0.0178356 -3.55316e-21)
(0.795494 0.0599745 -1.75869e-20)
(0.345207 -0.0353788 5.07215e-20)
(1.08328 0.0195751 -1.02295e-20)
(1.02831 -0.00216301 0)
(0.916136 -0.0441955 0)
(1.10192 0.0552587 0)
(1.03273 -0.00185438 5.65214e-24)
(0.244943 -0.0319702 2.365e-20)
(1.02968 0.00107554 0)
(1.02705 -0.00149204 3.46383e-23)
(1.02492 -0.00057384 5.36307e-22)
(1.05699 0.00129236 -8.89397e-21)
(1.0288 -0.000823579 9.43131e-23)
(0.778931 0.0375649 -2.68243e-20)
(1.02633 -0.00108638 1.05884e-23)
(1.04026 -0.0113077 3.00597e-22)
(0.973124 -0.0266659 -3.88422e-20)
(0.878301 0.0518542 0)
(1.09255 0.0439021 1.95221e-20)
(-0.0130968 0.0830417 0)
(1.04176 -0.00550481 0)
(1.03334 -0.0215933 -3.13007e-22)
(1.05945 -0.00247793 -1.57722e-20)
(1.069 0.00504058 0)
(0.797714 0.0394775 5.77045e-20)
(1.07016 0.0175802 2.44405e-20)
(1.1063 0.0367072 0)
(1.05117 -0.0280524 -4.13337e-21)
(-0.0848573 0.0222089 0)
(1.08278 0.00431355 -2.66048e-20)
(1.08038 0.0257354 0)
(1.02654 -0.0338157 -7.62414e-22)
(1.02517 0.00115729 0)
(1.02293 -0.000378244 -3.24343e-22)
(1.03204 -0.00221806 0)
(1.01775 -0.000163287 -3.35898e-23)
(1.03008 0.000892699 6.22189e-23)
(1.11444 0.0298614 4.61552e-20)
(1.0241 -0.000142825 -1.46046e-23)
(1.06025 0.0197647 1.46416e-22)
(1.08152 0.00478968 1.20518e-20)
(1.02882 -0.000566636 1.00843e-21)
(1.09072 0.0197913 2.73057e-20)
(1.03758 -0.00756817 -4.65645e-23)
(1.07647 0.0294691 0)
(1.05994 -0.0036103 1.63631e-20)
(0.994015 0.06046 -3.93738e-20)
(1.12938 -0.035491 3.58581e-20)
(1.07079 0.00518459 4.47108e-21)
(1.02945 -0.000549945 -1.01617e-22)
(1.02873 -0.000936359 3.55731e-22)
(1.11371 0.0140189 3.15772e-20)
(1.0314 0.00593668 -1.65731e-21)
(1.0165 -0.000128996 -8.82035e-24)
(1.10523 0.0451883 0)
(1.02464 -0.000513175 0)
(1.04293 0.00800433 4.5135e-21)
(1.02871 0.000796776 -1.01453e-23)
(-0.0164563 0.0632764 0)
(1.03691 0.0042689 -1.84681e-21)
(0.786007 0.0302952 0)
(1.08323 -0.0178275 0)
(1.03793 0.00651215 -1.13028e-21)
(1.03876 0.0073616 -6.47334e-21)
(1.0566 -0.0208281 1.05521e-20)
(1.061 0.00749755 0)
(1.02928 -0.0022076 0)
(1.05948 -0.0142567 6.75162e-21)
(1.08391 -0.0170585 -3.12333e-20)
(1.0698 0.0169978 -1.76808e-20)
(1.07909 0.0185034 3.97468e-21)
(1.02609 -0.000457144 7.34914e-23)
(1.0261 -0.000455593 1.16001e-22)
(1.08118 -0.00982129 -2.52429e-20)
(1.09641 0.00760411 0)
(1.05067 -0.0248107 3.90811e-21)
(1.03187 0.0664618 6.88013e-20)
(0.671661 -0.00418154 3.45413e-21)
(1.03277 -0.0215416 -5.57758e-22)
(1.0176 -0.000173152 -7.63918e-24)
(0.796627 0.0599849 -5.09764e-20)
(1.04438 0.0132893 0)
(1.03952 0.00202032 -5.22294e-21)
(1.0088 0.00908418 5.87322e-22)
(1.03646 0.00381614 0)
(1.02925 -0.000646394 0)
(1.07266 0.00576554 0)
(1.09781 0.0516535 1.81701e-20)
(1.02929 -0.00169695 2.87678e-21)
(0.718541 -0.0100531 -1.72372e-21)
(1.02892 0.000591816 1.95504e-23)
(0.81106 0.0588406 2.44649e-20)
(1.10173 0.0560485 2.28569e-20)
(0.702784 0.057316 6.15553e-20)
(1.10883 0.0539741 -8.0741e-21)
(1.11324 0.0165111 0)
(1.02154 -0.000314091 -4.02324e-24)
(1.03351 0.0132791 0)
(1.06526 0.0136731 0)
(1.13091 0.0420083 -8.02401e-21)
(1.05195 -0.00935007 4.58712e-21)
(1.07939 0.0256914 0)
(1.13192 0.0190282 4.06801e-20)
(0.724577 0.0579625 -5.35223e-20)
(1.0321 -0.00751737 -2.53792e-24)
(1.02153 -0.000282578 -5.42294e-24)
(0.786299 0.0599615 3.5402e-20)
(-0.0353996 0.0428489 0)
(1.04704 0.0616393 -2.77386e-20)
(1.02581 -0.00101212 0)
(1.05126 -0.00966421 7.8692e-21)
(1.13946 0.0210668 5.42893e-20)
(1.10718 0.0551542 1.85702e-21)
(1.028 -0.000180713 -9.48466e-22)
(1.02968 -0.000236661 8.79073e-25)
(1.07638 0.0289112 -2.35141e-20)
(1.09893 -0.0193338 -1.58139e-22)
(1.08255 0.0183304 1.07292e-20)
(1.13946 0.023376 -2.16408e-21)
(0.993644 -0.0294744 0)
(1.02933 0.00123287 -1.83949e-22)
(1.08138 0.0158494 0)
(-0.0371118 0.0415663 0)
(1.02656 -0.000486724 0)
(1.02984 -0.000861728 2.39793e-22)
(1.02656 -0.000486301 0)
(1.07036 0.00494939 0)
(1.09554 0.00632278 0)
(1.04325 -0.017559 0)
(1.05915 -0.0167482 1.44229e-20)
(1.02912 -0.00150775 1.39786e-21)
(1.12369 0.00212311 3.95012e-21)
(0.0444247 0.035721 -1.60759e-20)
(1.08012 0.00602896 -1.39195e-20)
(1.00685 0.0657426 -3.7851e-20)
(1.01642 -0.000106724 5.82432e-24)
(1.03832 -0.005094 2.02701e-21)
(1.03549 -0.00761428 0)
(0.0195097 0.0445751 0)
(1.07884 0.0299205 -1.08383e-21)
(1.02901 -0.000618275 0)
(1.0525 -0.0273011 -4.90923e-21)
(1.03801 -0.00756912 0)
(1.11476 0.0309647 -3.81642e-20)
(1.0315 -0.00803113 6.49045e-22)
(1.02957 -0.000141481 4.91782e-23)
(1.09614 -0.0064789 9.75086e-21)
(1.03727 0.0099623 0)
(1.06019 -0.0122025 -1.05281e-20)
(1.10066 -0.0172883 0)
(1.10083 0.0321251 -3.15616e-20)
(1.13018 0.0304881 -1.29445e-20)
(1.06276 -0.024508 8.99764e-21)
(1.02903 -0.00104189 6.61313e-23)
(1.01664 -9.50171e-05 2.44673e-24)
(1.03849 -0.0147223 0)
(1.01529 -0.000104406 3.49359e-23)
(1.02311 -0.000384168 2.35493e-22)
(1.06794 -0.0051128 6.2344e-21)
(1.03788 -0.0143631 0)
(1.02671 -0.0141062 0)
(1.0288 -0.00081585 8.57337e-23)
(1.03104 -0.00227084 -1.58907e-21)
(1.04832 -0.0379013 1.66846e-21)
(1.06399 0.0147256 -1.28108e-20)
(1.10942 0.0165983 -6.39614e-20)
(1.10583 0.0549114 0)
(0.935002 -0.0336539 -3.16373e-20)
(1.09296 0.0296347 -1.31205e-20)
(1.0932 -0.00723463 8.71456e-21)
(1.07811 0.0290158 -1.35774e-20)
(1.02593 -0.000529953 1.51249e-22)
(1.03855 -0.00548397 4.18912e-21)
(1.02616 -0.00126518 2.55567e-22)
(-0.0141987 0.084536 1.55857e-20)
(1.08782 0.021687 -1.27066e-20)
(1.06793 -0.0213161 1.20844e-20)
(1.06253 -0.0252139 -8.49085e-21)
(1.09557 -0.012299 0)
(1.05926 -0.0121766 0)
(0.795595 0.0123417 9.18541e-22)
(1.04014 0.00778433 -1.97183e-23)
(1.08241 0.0603977 2.02233e-20)
(1.10235 0.0364384 2.80014e-20)
(1.03833 0.00587916 -6.11403e-22)
(1.02614 4.91705e-05 -3.75606e-24)
(1.07975 -0.0101755 2.42097e-20)
(1.09204 -0.0048219 -8.74746e-21)
(1.044 -0.00677845 0)
(1.03192 0.0135462 0)
(1.12502 -0.0205013 -1.15261e-20)
(1.09814 0.0586878 -2.11821e-20)
(1.032 -0.00765779 1.5461e-22)
(1.03119 -0.00308649 3.56266e-22)
(1.09293 -0.034157 0)
(1.03197 -0.00777332 -1.31224e-21)
(1.02594 -0.000533104 -5.22209e-23)
(1.06656 0.0612442 1.31696e-21)
(1.10509 0.0381848 2.17804e-20)
(1.09167 -0.000287419 -9.82928e-21)
(1.03162 0.00293165 0)
(1.11675 -0.00444249 0)
(1.02484 -0.000511936 -8.90643e-23)
(1.03187 0.00561833 6.53481e-22)
(1.10054 0.056802 0)
(1.13781 0.0222721 -2.48585e-20)
(1.11181 0.0152166 -1.42211e-20)
(1.02484 -0.000508453 1.24256e-22)
(1.02495 -0.000496022 1.21773e-22)
(1.02216 -0.000408527 -4.58881e-23)
(1.0329 -0.00364431 -1.85916e-23)
(1.03173 -0.00771862 3.37156e-22)
(1.03102 -0.00313448 -1.55236e-21)
(0.739313 0.000536832 0)
(0.750556 0.0138465 0)
(1.02506 -0.000515046 0)
(0.0525715 0.0164275 -9.54317e-20)
(1.02427 -0.000124325 0)
(1.03804 -0.0022819 2.67527e-22)
(1.07052 -0.00375658 -4.0618e-21)
(1.04797 -0.0275585 -5.07207e-21)
(0.860984 0.0226954 -2.69479e-22)
(1.01625 -9.24963e-05 -4.5379e-23)
(1.09163 0.0452302 -4.03102e-20)
(0.970938 0.0196418 2.11554e-20)
(1.11529 -0.00683607 3.32742e-20)
(1.02436 -0.000131236 0)
(0.739381 0.0586596 -3.15777e-20)
(1.12191 0.0541571 6.11632e-20)
(1.02605 -0.0130902 -5.16491e-22)
(1.02897 -0.000588685 0)
(1.1113 0.00147838 -1.84106e-20)
(1.06392 -0.0234318 4.65455e-21)
(1.04379 -0.00412359 0)
(1.0586 -0.0025958 8.01689e-21)
(1.02805 -0.00226677 6.98198e-22)
(1.07433 0.00711716 3.95069e-20)
(1.10113 0.0333192 4.54874e-20)
(0.797723 0.0281473 -8.70353e-23)
(1.04961 0.00312745 1.6725e-21)
(1.02893 -0.000796803 2.21662e-22)
(1.02265 0.00458662 2.76916e-23)
(1.02722 -0.00017468 0)
(0.715449 0.00343896 5.43933e-21)
(1.05176 -0.0232332 0)
(1.06066 0.0205716 6.45476e-22)
(0.817001 0.00798646 -9.50384e-22)
(1.11236 -0.00465125 0)
(1.03726 -0.00815132 -1.4264e-21)
(1.12749 -0.0230539 2.24671e-20)
(1.06553 -0.00787464 0)
(1.12338 0.054245 2.26859e-20)
(1.01772 -0.000302272 -1.46196e-23)
(1.03214 -0.00389402 0)
(1.04976 -0.0247498 0)
(1.13847 0.0189963 -1.11146e-20)
(1.09465 -0.00456929 8.68685e-21)
(1.10427 0.0436051 0)
(1.03994 -0.0104031 1.98841e-21)
(1.06693 -0.00562942 -2.70752e-20)
(1.0254 2.43458e-05 -1.45073e-21)
(0.0610613 0.0153019 3.5786e-20)
(1.02934 -0.000661138 -1.0424e-22)
(0.25916 -0.0550668 0)
(1.02433 -0.000545798 -4.33074e-22)
(1.07554 -0.0465785 0)
(1.02851 -0.000978875 9.35944e-23)
(1.02608 4.31244e-05 0)
(1.01954 -0.000223646 3.8291e-23)
(1.07196 0.00516341 -4.72854e-21)
(1.02884 -0.00119927 -2.67403e-22)
(1.0902 -0.0348271 -3.38411e-21)
(1.04943 -0.00662155 0)
(1.06019 -0.00291401 -4.83463e-23)
(0.562538 -0.0181067 1.5171e-20)
(1.03028 -0.00461105 4.65166e-23)
(1.09327 -0.00210175 2.09778e-20)
(1.07013 -0.0205297 -7.49578e-21)
(1.04813 -0.0384854 -1.58524e-21)
(1.02045 -0.000151858 -1.6916e-23)
(1.02724 0.0110869 0)
(1.02007 -0.000208483 1.16927e-23)
(0.886511 0.0220221 1.24024e-22)
(1.02938 0.0118271 0)
(0.728425 0.0588658 -1.63643e-20)
(-0.0158455 0.0782352 -2.35423e-22)
(1.03267 -0.00740061 1.30208e-21)
(1.07939 0.0166565 0)
(1.09593 0.0352675 3.81187e-20)
(0.816536 0.0585657 -2.60988e-20)
(1.02093 -0.000212711 -8.05253e-22)
(1.05773 -0.0196458 6.37077e-23)
(1.0386 0.0222845 -8.66922e-23)
(1.04003 0.00147499 0)
(1.02566 -0.00101376 0)
(1.03187 -0.00640891 0)
(1.03762 -0.00820115 3.16558e-21)
(1.07224 0.0230654 -2.8825e-20)
(1.02637 -0.00047698 0)
(0.738034 0.0338136 8.26301e-20)
(1.02638 -0.000475776 -9.09695e-23)
(1.02468 -0.000408381 8.74821e-22)
(0.842815 0.0589841 1.30841e-20)
(-0.0322296 0.0463084 6.52818e-20)
(1.02937 -0.00161434 0)
(1.03209 -0.00632278 0)
(1.02905 -0.00161902 0)
(1.02168 -0.000331906 2.6153e-23)
(1.03111 0.00292696 1.62914e-21)
(1.00405 0.0612882 5.09777e-20)
(1.032 -0.00619959 0)
(1.03051 -0.004998 -2.34254e-23)
(1.03305 -0.00385694 -9.40417e-22)
(1.0224 -0.000366297 1.9522e-22)
(1.02899 -0.00151351 -2.0934e-21)
(1.10719 -0.00268861 3.10801e-20)
(1.04711 -0.0112053 0)
(1.03832 -0.0045322 1.84756e-23)
(1.08071 0.0150349 0)
(1.03727 -0.00866413 -1.63428e-21)
(1.03205 -0.00605895 0)
(1.05675 0.0128815 -1.55622e-20)
(1.03566 -0.00714254 8.53293e-23)
(1.08897 -0.00493811 8.33792e-21)
(1.14076 0.0254866 3.71091e-20)
(1.11249 0.0551313 0)
(1.0306 0.000405437 0)
(1.0526 -0.00624762 9.50489e-21)
(1.03869 0.000622609 0)
(0.797683 -0.0424542 9.69707e-21)
(1.03131 -0.0204747 -1.42535e-22)
(1.02969 -0.00273552 1.04575e-21)
(1.02405 0.000231598 1.41072e-21)
(1.0308 -0.0215995 0)
(1.0302 0.00190495 -1.74941e-22)
(1.06074 -0.0497477 -5.73758e-21)
(1.03126 0.00353032 2.60363e-23)
(1.03636 0.0040641 0)
(1.03713 0.0076371 -6.74302e-21)
(1.11295 -0.0140696 0)
(0.788642 0.0585465 -2.63813e-20)
(1.04968 -0.014737 7.1677e-21)
(1.14038 0.000469485 3.90437e-20)
(1.04326 -0.0353793 0)
(1.024 0.00487902 2.45942e-23)
(1.02145 -0.000335353 0)
(0.737445 0.0583238 -1.37591e-20)
(1.02707 -0.000659378 0)
(1.03599 0.023734 9.45371e-24)
(1.02859 -0.00109564 0)
(0.735308 0.0194629 4.92299e-22)
(1.02966 6.96101e-05 0)
(1.03254 -0.00590159 -1.92414e-22)
(1.08896 0.0433487 0)
(0.977478 -0.0474178 -2.31496e-21)
(0.878496 0.0515147 -4.04085e-20)
(-0.016665 0.075191 0)
(1.01607 -8.47147e-05 -2.39148e-23)
(1.03075 0.00125874 0)
(1.05138 0.0375088 7.11208e-20)
(1.0776 -0.00999391 -2.77796e-20)
(1.04915 0.0666562 -5.03498e-21)
(1.03344 0.00552716 6.40724e-23)
(1.04246 -0.0173989 1.6589e-21)
(1.02865 -0.00131614 1.4495e-22)
(1.02783 -0.000915462 0)
(1.0464 -0.0109113 2.48062e-21)
(1.03781 -0.0045481 0)
(1.0267 -0.0116476 0)
(1.03713 0.00604074 3.81058e-21)
(1.0211 -0.000192256 8.55516e-23)
(1.10473 0.0201884 -3.28672e-22)
(1.02106 -0.000184303 -3.46183e-23)
(1.07174 0.0238521 0)
(1.02899 -0.00160226 0)
(1.02281 -0.000380808 4.89729e-23)
(1.04449 0.0122421 8.09736e-21)
(1.02093 -0.000404563 4.83698e-24)
(0.261156 -0.0501707 0)
(1.04686 -0.0270955 -1.60254e-21)
(1.04305 0.00598172 4.03148e-22)
(0.962039 0.0175908 -3.62885e-20)
(1.03039 -0.00477292 -3.80387e-23)
(1.09876 0.0562905 5.18513e-21)
(0.666389 0.0297966 1.13633e-20)
(1.03169 -0.00774324 -1.24091e-21)
(1.02901 -0.000704238 0)
(1.04354 0.00631422 5.05734e-21)
(1.11608 -0.0357776 0)
(1.07733 0.0305027 0)
(1.0209 -0.000396945 4.05255e-23)
(-0.0317248 0.0452496 -7.00663e-20)
(1.10266 0.0462715 5.26347e-20)
(1.05756 0.0127069 1.04089e-20)
(0.446369 -0.0571316 0)
(1.02955 -0.00278968 0)
(1.06971 -0.0231883 0)
(1.02239 -0.000366243 4.85925e-23)
(1.06407 -0.049428 7.59009e-21)
(1.04498 -0.0178576 0)
(1.02581 -0.000441734 8.52665e-23)
(1.0999 0.0284753 -4.00723e-20)
(1.03261 0.0029048 2.60729e-21)
(1.07617 -0.00267715 -1.30728e-20)
(1.05021 -0.0216484 3.93797e-21)
(1.09253 0.0435851 -1.01404e-20)
(1.11102 -0.016187 0)
(1.02553 -0.00132111 4.84828e-22)
(1.04664 0.00344607 -3.18396e-21)
(1.03169 -0.00804015 0)
(1.02547 -0.0015029 -1.23932e-21)
(1.03661 -0.0161723 -4.53153e-23)
(1.0481 -0.0172112 -2.78748e-21)
(0.877495 -0.0377683 -8.52688e-20)
(1.02842 -0.00107838 -4.36443e-22)
(1.09684 0.034053 -5.4522e-20)
(1.02515 -6.57314e-05 0)
(1.12616 -0.0152449 0)
(1.042 -0.0169565 1.5125e-21)
(1.0986 0.0327644 1.39946e-20)
(1.0288 -0.000218407 -2.10793e-21)
(0.438149 -0.0168192 3.73804e-22)
(1.02957 -0.00319524 -9.98114e-22)
(1.08122 0.00589673 -1.5359e-20)
(0.137425 0.00677273 -8.01191e-20)
(1.06963 -0.00508691 -8.54897e-22)
(1.02586 -0.00117347 2.18543e-22)
(0.088265 0.0157478 0)
(1.07434 -0.0441105 6.64116e-21)
(1.02937 -0.00308367 0)
(1.03775 0.00673952 -5.19319e-21)
(1.10947 0.0140726 -6.85778e-21)
(0.888586 0.0142819 -4.12737e-22)
(1.13591 0.00901027 0)
(1.03036 0.000498153 7.56739e-22)
(0.918581 -0.00510909 3.89789e-22)
(1.03163 -0.00640694 0)
(1.08186 -0.0214777 2.61697e-20)
(1.06086 0.00833873 0)
(0.80433 -0.051508 1.72442e-21)
(1.02581 -0.000444949 1.59256e-22)
(1.03094 -0.00549862 0)
(1.02298 -0.000497747 1.20882e-22)
(1.03113 -0.00727792 2.52915e-22)
(1.07871 -0.00933404 3.50566e-20)
(1.14266 0.00766342 1.0718e-20)
(0.786369 0.00701479 -8.39195e-21)
(1.05594 -0.000247475 0)
(1.04409 -0.00362187 0)
(1.03146 -0.00626784 0)
(1.04485 0.0114795 -8.15398e-22)
(1.02577 -4.07857e-06 0)
(0.755672 0.0580309 0)
(1.05243 -0.00500391 0)
(1.03528 -0.0203544 0)
(1.03941 -0.0100225 2.06229e-21)
(1.02581 -0.0011464 -1.16826e-23)
(1.03941 -0.00953454 -6.13163e-21)
(0.943715 -0.0456818 1.11903e-21)
(1.11186 0.00013552 0)
(1.13956 0.0184888 2.53874e-20)
(1.02688 -0.00148462 -7.58601e-23)
(1.05516 -0.000673695 5.6837e-21)
(1.02962 -0.000424346 -2.13789e-22)
(1.05305 -0.00689015 -4.8466e-21)
(1.04787 -0.0054663 3.03051e-21)
(1.11485 0.0167466 0)
(1.02573 -6.8803e-07 3.34538e-25)
(1.03693 0.0058954 -2.21225e-21)
(-0.0160207 0.074499 2.72446e-20)
(1.1295 0.0282745 0)
(1.02095 0.00649043 4.22778e-23)
(1.0323 0.00526985 -1.29565e-21)
(1.02626 -0.0013589 5.59272e-22)
(0.807129 0.0593708 -6.35805e-20)
(1.05967 -0.0492053 1.03413e-20)
(1.03027 -0.00455302 2.4443e-23)
(0.762843 0.00916031 2.55316e-21)
(1.03232 -0.0076287 -1.64736e-22)
(1.02473 0.00373433 -6.71702e-23)
(1.10558 0.0181469 0)
(1.04765 -0.000514715 0)
(1.03778 0.00785163 4.94268e-21)
(0.897465 -0.0175468 5.69029e-20)
(1.11112 0.0554556 1.5734e-20)
(1.03186 -0.00781922 1.45649e-21)
(1.04802 -0.0239345 0)
(1.02368 -0.000376835 -8.82461e-22)
(1.0316 -0.00753857 0)
(1.10071 0.0260483 -1.99678e-20)
(0.699751 0.0550481 -2.07339e-20)
(1.02878 -0.000987956 -1.7976e-22)
(1.1055 0.0175804 5.52139e-20)
(1.09886 0.0584828 3.13276e-20)
(1.11014 -0.00186284 0)
(1.11154 0.0121303 4.53053e-20)
(0.70944 0.058538 0)
(0.81205 0.060078 2.13426e-20)
(1.03039 -0.00101952 8.36093e-23)
(1.06678 -0.00643484 1.7269e-20)
(1.09517 0.0298812 -1.79586e-20)
(1.035 -0.0209281 1.11656e-21)
(1.03754 -0.00140304 -4.01297e-21)
(1.02538 -4.42698e-05 0)
(1.08849 0.0329024 -9.4296e-21)
(0.164455 0.00719686 -2.08779e-20)
(1.03063 -0.00516291 0)
(1.0608 0.0053728 5.91058e-21)
(1.06409 -0.0287186 1.1459e-20)
(0.767438 -0.0442028 -4.8259e-21)
(1.03194 -0.00090612 -8.36967e-23)
(1.04486 -0.0301728 0)
(1.0436 0.0022863 3.35517e-23)
(1.08891 -0.0045639 0)
(1.01646 -0.00015799 0)
(1.03104 -0.00636009 0)
(0.750996 0.0597887 -2.07256e-20)
(1.1136 -0.0358473 0)
(1.13599 -0.00746723 6.0849e-20)
(1.05017 -0.0134707 -9.4397e-21)
(1.02865 -0.00165802 2.09948e-24)
(0.0634828 0.00585471 -2.63574e-20)
(0.956685 -0.00507722 1.18966e-21)
(-0.015865 0.0297402 0)
(1.07616 -0.00323504 -6.81283e-21)
(1.09323 -0.00185968 -1.0858e-20)
(0.971179 0.0530446 -6.19401e-20)
(1.02596 -0.000460472 -5.87277e-23)
(1.03039 -0.000446855 1.40014e-21)
(1.09744 0.0424842 -3.93396e-20)
(1.0398 -0.0156523 1.14626e-21)
(1.05292 -0.00554756 -1.06175e-20)
(1.02586 -0.000459176 -1.81762e-22)
(1.06162 -0.0520278 -2.32477e-20)
(1.0268 -0.000585276 9.26328e-23)
(1.02919 -0.00189009 6.32022e-22)
(1.02726 -0.00182074 0)
(0.977364 0.061615 2.35118e-20)
(1.02419 -0.000477947 0)
(1.05557 0.0136135 3.84859e-21)
(0.910172 -0.016284 -2.75093e-20)
(1.04058 0.00727449 2.08608e-21)
(1.10843 0.0509561 -1.81294e-20)
(1.02581 -0.0010199 0)
(1.04893 -0.0160127 -3.20344e-21)
(1.03611 0.00317252 1.79707e-21)
(1.0242 -0.000480266 0)
(1.1427 0.010947 -2.61748e-20)
(1.02112 0.0375908 -1.58821e-20)
(1.04473 0.0127297 -6.03735e-21)
(1.03092 0.00312081 0)
(1.03057 0.00486344 -1.64399e-21)
(1.13411 -0.00594742 -2.17115e-20)
(1.03019 -0.000454908 -1.3426e-21)
(1.02931 -0.00202111 6.03261e-22)
(1.08077 0.0171039 0)
(1.0393 -0.00836094 0)
(1.00747 0.0346491 5.69369e-20)
(1.02683 -0.000579715 -5.7344e-23)
(1.03654 0.0053349 -4.99591e-23)
(1.03005 -0.00087166 0)
(1.02781 -0.00179256 0)
(1.09402 0.0314772 0)
(1.04794 -0.0101148 -4.76002e-22)
(1.03831 -0.0188088 0)
(1.04303 -0.0351804 0)
(1.02658 -0.00144662 0)
(1.03284 -0.00167917 -5.87405e-24)
(1.02672 -0.00146785 -1.27914e-22)
(1.04854 -0.00770156 5.86535e-22)
(1.03704 -0.00159233 4.69086e-21)
(1.06239 -0.0293499 -5.08875e-21)
(1.05452 0.0173324 7.784e-21)
(1.04321 -0.00716209 0)
(1.08022 0.0340295 0)
(1.03547 -0.0069724 0)
(1.07343 0.0100812 0)
(0.894633 0.00574666 -4.93619e-22)
(1.05118 -0.0214708 0)
(1.02768 -0.00136047 0)
(1.08225 -0.0127841 -5.72056e-21)
(1.10476 0.015964 -5.53245e-20)
(0.760599 0.0376848 -4.28496e-20)
(1.03373 -0.00954622 0)
(1.0384 -0.0211447 -1.13959e-21)
(1.06379 0.00685695 2.18305e-20)
(1.03057 -0.0414532 -4.22822e-21)
(1.06377 -0.0220805 -5.23286e-21)
(1.03298 -0.00894265 0)
(1.08652 -0.0227901 -1.53291e-20)
(1.03141 -0.00776379 -6.81721e-22)
(1.06865 -0.00362643 8.09866e-21)
(1.07385 0.00551398 1.05468e-20)
(1.05714 -0.00236982 1.92839e-20)
(1.01074 0.0113982 0)
(1.10829 0.0514474 -1.74772e-20)
(1.11205 0.0491019 -2.36927e-20)
(1.05775 -0.00525702 0)
(1.03511 -0.00681809 1.0441e-21)
(-0.0372716 0.0171813 -4.22095e-20)
(1.09353 -0.0154515 0)
(1.02023 -0.000277715 8.03305e-23)
(1.03061 0.0663595 -2.65738e-21)
(1.10495 0.0384566 -3.6548e-20)
(1.03502 -0.0126632 -1.58789e-21)
(1.02666 -0.000510381 0)
(1.08364 -0.0133889 3.32978e-20)
(1.01991 -0.00024648 4.95712e-23)
(1.0435 -0.0103878 0)
(1.03263 0.00575009 1.29166e-21)
(1.02643 -0.00143791 -9.86677e-23)
(1.04809 -0.017842 3.28799e-21)
(1.03154 -0.00377564 5.26869e-22)
(1.08926 -0.0321118 3.29677e-20)
(1.0265 -0.0108941 -1.25291e-21)
(1.06025 0.0217843 -6.26918e-22)
(1.0348 0.00097745 0)
(0.896552 -0.00420902 0)
(1.04146 -0.00494586 0)
(0.96228 0.0547211 4.08331e-22)
(1.02898 -0.00379988 1.00283e-22)
(1.07538 0.0282725 -2.18328e-20)
(1.02672 -0.00145828 -1.05325e-22)
(1.0369 -0.0086328 2.88825e-21)
(1.09586 0.030676 0)
(1.05456 -0.000225174 5.63475e-21)
(1.02334 -0.000125193 1.49927e-21)
(1.06876 0.01683 1.84504e-20)
(1.10523 -0.00134003 -3.57798e-20)
(0.24974 -0.0184605 -4.96326e-21)
(1.04221 0.00429668 -5.01217e-23)
(1.06868 0.0261139 0)
(1.0207 -0.000339195 0)
(1.04506 -0.0262899 -2.48132e-21)
(0.284147 0.0214963 -1.32463e-20)
(1.0409 -0.00501746 0)
(1.01712 -0.00014258 9.87551e-25)
(1.03186 -0.00219169 1.39247e-23)
(1.03649 0.00342915 -3.85203e-21)
(1.03488 -0.0210911 0)
(0.81863 0.0205772 -1.13318e-21)
(1.0919 -0.00417359 0)
(1.09394 0.0525682 3.54205e-20)
(1.02723 -0.00106097 -1.8471e-22)
(0.00284794 0.0460996 -2.03961e-21)
(0.473245 -0.0257212 -2.46607e-21)
(1.11062 0.0607454 0)
(1.09596 -0.0216548 -2.99302e-20)
(1.02986 -0.000909812 0)
(0.114124 0.0210592 5.22983e-20)
(1.04459 0.0159115 0)
(1.03022 -0.00104713 0)
(1.02865 -0.00166603 2.3709e-22)
(1.06466 0.00647417 9.87258e-21)
(1.03711 -0.00706982 5.95317e-23)
(0.666173 -0.0170586 -9.76419e-21)
(1.04851 0.00841252 8.32719e-21)
(1.03523 -0.0128356 1.24148e-21)
(1.02195 -0.000333248 -2.676e-23)
(1.04909 -0.0243713 3.40284e-21)
(1.09042 -0.00654807 -8.96723e-21)
(1.04959 -0.00510687 -5.53775e-22)
(1.11784 -0.0112348 -5.09626e-20)
(1.0203 -0.000275243 6.05253e-24)
(0.938838 0.0594763 -5.21049e-20)
(1.0343 0.00159146 1.69066e-22)
(0.396688 -0.0564843 -8.15562e-21)
(1.02708 -0.00103021 0)
(1.10792 0.0378665 -1.43902e-20)
(1.02471 -0.000379597 0)
(1.0288 -0.00196971 5.14368e-23)
(1.04363 -0.0297146 0)
(1.06356 0.0077094 -1.25422e-20)
(1.04451 0.00120949 -3.72958e-22)
(1.03182 0.00170871 -2.22238e-23)
(1.05087 0.00758113 -4.95309e-21)
(1.0706 -0.0216756 2.38744e-20)
(1.02631 -0.00140836 1.27672e-22)
(1.02851 -0.00129091 -2.22232e-22)
(1.08405 -0.0622597 -4.54373e-20)
(1.02051 -0.00031282 0)
(1.0288 -0.00158773 1.41372e-22)
(1.02865 -0.00126004 -1.04024e-22)
(1.04967 -0.011151 0)
(1.02859 -0.00104372 0)
(1.0811 -0.0227352 2.34525e-20)
(1.03047 0.00303698 0)
(1.09994 0.055655 -4.77414e-20)
(1.02759 -0.00169362 2.50574e-23)
(1.03182 -0.00362905 0)
(1.02948 -0.000693047 1.01172e-22)
(1.08861 0.0353554 -2.16408e-20)
(1.09179 0.0125691 0)
(1.03182 -0.00410655 -1.14126e-21)
(1.02262 -0.0274163 2.09718e-22)
(1.12941 0.031726 4.9628e-20)
(1.05036 -0.0143691 -3.79711e-21)
(0.453698 -0.019824 0)
(1.03231 -0.00580965 3.7616e-22)
(1.14172 0.00634735 2.00542e-20)
(1.06204 0.00718711 0)
(1.03265 -0.0031401 -1.89224e-23)
(1.05614 -0.00327214 3.20051e-21)
(1.06478 -0.00181562 0)
(1.11209 0.0485728 3.00079e-20)
(1.04435 -0.0124493 6.4932e-22)
(0.622097 -0.0202295 1.17287e-20)
(0.0127674 0.0199549 -3.43327e-20)
(0.153999 -0.0219966 0)
(1.07374 0.00907549 0)
(1.03413 -0.00738898 8.2796e-22)