/*--------------------------------*- C++ -*----------------------------------*\
| =========                 |                                                 |
| \\      /  F ield         | OpenFOAM: The Open Source CFD Toolbox           |
|  \\    /   O peration     | Version:  v2012                                 |
|   \\  /    A nd           | Website:  www.openfoam.com                      |
|    \\/     M anipulation  |                                                 |
\*---------------------------------------------------------------------------*/
FoamFile
{
    version     2.0;
    format      ascii;
    class       volVectorField;
    location    "250";
    object      ddtCorrDdt0(U);
}
// * * * * * * * * * * * * * * * * * * * * * * * * * * * * * * * * * * * * * //

dimensions      [0 1 -2 0 0 0 0];


internalField   nonuniform List<vector> 
13749
(
(6.58122e-07 1.31511e-07 1.24442e-22)
(0.00169415 -0.000161041 -6.9238e-23)
(-2.1023e-06 -2.81555e-06 0)
(-1.30723e-05 2.03473e-05 -2.65611e-22)
(-1.2079e-05 5.95176e-06 0)
(0.000179369 0.000175092 2.09961e-22)
(-0.000366152 0.000234012 -3.57572e-22)
(1.17581e-05 -2.55684e-06 0)
(-3.00083e-06 5.23937e-07 -5.54943e-24)
(-1.15409e-05 2.09126e-05 2.64975e-22)
(9.40506e-05 0.000452096 0)
(-1.10267e-06 -1.67001e-06 -1.33792e-22)
(-3.97903e-05 4.3485e-05 -5.4369e-23)
(0.00296461 0.0014913 0)
(0.000216323 2.50867e-06 0)
(2.72447e-05 -6.6613e-07 -9.42113e-23)
(-5.3999e-06 -1.27451e-06 7.33215e-23)
(-0.00313735 0.00089334 0)
(-7.55464e-07 -3.45048e-07 -1.1891e-22)
(-1.51862e-06 -1.66514e-06 8.92164e-24)
(-0.00742617 -0.000115134 -1.22938e-21)
(7.18308e-05 -0.000217289 7.04855e-23)
(-0.0016514 0.000264318 -7.78915e-23)
(0.000683296 -3.74903e-05 0)
(-1.2544e-05 5.38353e-06 0)
(6.86269e-05 -6.25084e-05 2.93245e-22)
(5.86674e-05 -3.15433e-05 1.11353e-22)
(6.52198e-06 5.07771e-05 -3.31447e-22)
(9.9635e-07 3.07152e-07 -1.74055e-22)
(-9.35781e-06 -2.24854e-06 1.39902e-23)
(-0.012133 -0.00587046 6.55982e-23)
(-0.000453078 -0.00019897 0)
(-1.01017e-05 -1.07594e-05 1.12151e-22)
(0.000137337 0.000116887 1.43188e-22)
(1.41625e-07 1.60239e-06 -1.52946e-23)
(8.27261e-07 1.94662e-07 0)
(-2.33297e-06 -2.41692e-06 -1.76434e-23)
(-5.47698e-06 1.53577e-06 1.23999e-22)
(8.82357e-06 4.02132e-06 -1.37734e-22)
(-0.00011162 0.000145995 1.11226e-22)
(0.000154761 0.000176505 -2.49229e-22)
(-0.000304422 -0.000119814 4.6387e-23)
(-1.26579e-05 -6.43625e-06 0)
(-1.33256e-05 -7.04629e-06 0)
(-0.00298357 0.000359833 -1.65931e-24)
(1.98159e-05 2.52272e-05 0)
(-1.12975e-06 -1.32509e-06 0)
(0.000231107 -0.00048295 7.63188e-23)
(1.36455e-06 1.50842e-06 0)
(-0.00937996 -0.00247368 -2.78751e-21)
(0.000774357 2.1603e-05 2.68891e-23)
(-0.00733464 -0.000131058 1.11235e-21)
(-0.000131255 0.000149974 -1.29114e-22)
(0.000257826 0.00130104 -4.25431e-22)
(-1.78433e-05 1.05734e-05 0)
(1.67108e-06 1.97689e-06 9.30822e-23)
(-3.35196e-05 6.46294e-05 -4.48247e-25)
(-1.1274e-05 -9.30381e-06 0)
(2.29093e-07 1.85978e-06 -1.69998e-22)
(0.000608841 0.00235666 5.41637e-22)
(-3.29326e-06 2.65968e-06 -8.10301e-23)
(2.06564e-06 1.30677e-05 0)
(0.000665326 -0.000370197 0)
(-1.00794e-06 -1.22317e-06 1.39051e-22)
(2.50679e-06 6.97398e-06 -1.7717e-22)
(-1.07267e-05 -6.19676e-06 -2.82655e-23)
(-3.58197e-06 5.49951e-07 4.53671e-24)
(-5.25711e-06 1.45814e-06 0)
(3.80703e-05 5.05779e-06 1.95181e-22)
(2.12519e-05 2.14048e-05 0)
(-0.0045272 -0.000799886 -4.30629e-22)
(3.1998e-07 2.01425e-07 -1.37957e-22)
(-0.00614209 0.000138331 4.39763e-22)
(1.55068e-06 3.04667e-06 -2.1331e-22)
(0.00423405 -0.000357784 -7.97882e-23)
(0.000164883 -0.000571376 -1.44877e-22)
(1.66606e-05 1.05452e-05 0)
(2.06344e-07 1.98921e-06 0)
(-2.62843e-05 6.82355e-05 2.16715e-22)
(-8.10934e-08 -7.0189e-07 0)
(8.63447e-07 2.21611e-07 -8.22753e-23)
(-1.26387e-05 3.95203e-06 1.57232e-22)
(0.000684695 -0.000161052 2.89485e-23)
(9.79762e-07 2.49616e-07 1.1324e-22)
(-4.6538e-05 0.000185556 -1.09137e-22)
(0.000250931 -0.000259043 3.99468e-22)
(0.00541262 0.00225734 1.25026e-22)
(0.00328955 -0.00799478 1.91839e-23)
(1.55692e-07 1.56934e-06 1.49691e-23)
(0.000115531 -0.000510217 -1.04354e-24)
(-1.89794e-07 1.11685e-06 -5.03212e-23)
(-0.00557425 0.0012207 0)
(4.88029e-06 9.29498e-06 0)
(-0.00746161 -0.000696993 0)
(-0.000993895 -0.00857662 0)
(-0.000628 -0.000138203 6.79062e-23)
(-6.06754e-06 2.21165e-05 0)
(-1.22351e-06 -2.70596e-06 1.36897e-23)
(2.77979e-07 2.07835e-07 0)
(-9.93026e-06 -6.11064e-06 -5.08467e-23)
(0.00154667 -0.000562966 -1.4619e-22)
(7.87951e-07 2.00804e-07 0)
(8.84869e-06 1.41627e-05 6.97592e-23)
(0.00185538 6.29957e-05 -1.80656e-23)
(-1.39473e-07 -5.26476e-06 7.05097e-25)
(0.00210011 0.000149244 2.31225e-23)
(0.0004192 -0.000355452 0)
(-2.93459e-06 8.54806e-07 -1.0837e-22)
(6.43015e-05 -0.000559605 1.80982e-24)
(-2.29955e-06 -3.67422e-06 -7.87982e-23)
(-1.17464e-06 -1.95281e-06 1.29838e-22)
(-1.24924e-05 -6.36183e-06 5.09876e-23)
(0.000473893 -0.000350268 -5.40024e-23)
(-0.00190203 0.00219803 -2.98095e-22)
(-0.00316855 -0.00149852 -1.0939e-22)
(4.77641e-06 2.96599e-06 2.95644e-22)
(8.04442e-07 1.39633e-07 1.53023e-22)
(-1.88114e-05 9.45727e-06 9.82987e-23)
(-3.29461e-06 -7.92366e-06 0)
(6.92182e-07 1.70297e-06 1.37821e-22)
(1.13082e-05 -2.37912e-06 -2.12143e-23)
(-6.7047e-08 -8.065e-09 5.10104e-23)
(4.59102e-07 -5.28083e-08 -1.10803e-22)
(9.63916e-07 2.58012e-07 3.93158e-23)
(-1.21634e-05 4.68493e-06 4.13818e-23)
(-0.00472178 -0.000883481 3.96541e-22)
(0.000202978 0.000145293 0)
(-0.000494756 -0.000839234 -1.70696e-24)
(-3.50044e-06 -1.18658e-05 4.40306e-23)
(-0.00781587 -0.00189098 -1.09973e-21)
(-6.10924e-06 3.33166e-05 3.29438e-22)
(-0.000202417 -0.000124994 -7.68906e-23)
(0.0041181 0.00223983 2.67215e-23)
(0.00283144 -0.00261319 -4.0698e-22)
(1.16175e-05 9.2672e-05 -2.87454e-22)
(-5.46125e-06 -4.2841e-06 -1.57531e-22)
(0.00408346 0.001145 0)
(2.10306e-06 1.9016e-06 -1.92788e-22)
(7.10073e-06 4.47069e-06 -1.20464e-24)
(0.00646577 -0.00155008 0)
(2.05017e-05 1.0543e-05 -2.60007e-22)
(-5.94711e-05 -7.59724e-06 1.1895e-24)
(9.21168e-06 -1.74373e-06 7.67303e-23)
(-0.000629659 0.00430504 1.03394e-21)
(4.67306e-07 2.12177e-07 -5.84059e-23)
(0.00426221 -0.000730165 0)
(-7.22187e-06 5.84827e-05 1.87057e-22)
(-1.55219e-05 3.10201e-05 2.09113e-22)
(-5.22851e-06 -6.80808e-06 -3.90598e-23)
(-0.000678648 0.000801941 8.84304e-23)
(4.48336e-07 2.06481e-07 0)
(0.000120401 8.24138e-05 0)
(0.00274818 0.000389576 -1.24365e-22)
(0.00430556 -0.00299081 -8.8371e-22)
(3.49162e-05 1.38885e-05 0)
(0.00192109 0.000391718 0)
(-1.40489e-07 5.88938e-05 -8.48417e-24)
(-4.9581e-05 6.42287e-05 0)
(0.00262475 -3.43879e-05 5.90015e-23)
(-2.44064e-06 6.18896e-07 -2.3831e-22)
(-0.0150996 -0.00161231 -9.50224e-24)
(-2.93218e-07 4.20446e-07 6.51529e-23)
(0.0110296 0.00197921 -1.49095e-21)
(-1.08822e-05 -9.03684e-06 -1.32664e-22)
(-1.50983e-06 -1.083e-06 -1.94971e-24)
(-3.40985e-06 7.72557e-07 3.17005e-22)
(0.0035047 -0.0060309 3.6299e-23)
(-1.74121e-06 -3.39256e-06 0)
(-9.73818e-06 -2.08665e-06 2.15191e-22)
(-4.31018e-05 3.99535e-05 -1.26235e-22)
(9.27254e-06 -3.4672e-06 0)
(-2.39173e-06 -3.27203e-06 0)
(1.43818e-06 1.53668e-06 0)
(-2.29913e-05 6.41134e-05 0)
(-7.95865e-06 -6.20038e-06 -2.37298e-23)
(-0.000401772 0.000360004 0)
(0.000224765 -0.000678296 2.14283e-22)
(3.22319e-05 1.48215e-05 -5.53222e-23)
(-0.000326001 -0.000552762 -3.5661e-23)
(-0.000211903 0.000896048 -2.87177e-23)
(1.37221e-08 -4.41091e-06 -6.36588e-25)
(0.000136337 0.000102496 -5.5166e-23)
(-1.10433e-05 1.12029e-05 -1.07705e-22)
(0.000435252 -0.00221578 -1.65685e-22)
(-0.00665147 0.00150309 -1.66855e-22)
(-9.27018e-06 -6.90483e-06 0)
(-0.000582114 0.00405178 -1.66754e-21)
(-5.52922e-06 9.35077e-06 2.01953e-22)
(0.00217276 -0.0212907 -4.03394e-21)
(-3.32916e-06 2.91958e-06 3.02247e-23)
(-1.38901e-05 9.15293e-06 2.02406e-22)
(-0.00204146 -6.13916e-05 3.31881e-22)
(1.59691e-05 4.07988e-07 6.73327e-23)
(0.00016181 0.000673104 -2.17786e-22)
(-0.00115576 0.00195896 3.49235e-22)
(0.000196297 -0.000358709 -5.32856e-22)
(0.000199995 0.000118024 1.0507e-22)
(0.00278603 0.00103288 0)
(4.92171e-07 -5.31703e-08 0)
(2.85774e-08 -1.11432e-05 8.33723e-23)
(1.62827e-06 1.65334e-07 0)
(0.000610679 0.000145193 1.14885e-22)
(-4.22451e-05 6.94171e-05 4.06907e-25)
(-1.40089e-05 -5.9458e-06 -1.46242e-23)
(0.00125059 0.000311565 1.27047e-22)
(5.77639e-06 4.79125e-06 -9.12093e-23)
(1.12247e-07 1.76983e-06 1.0272e-22)
(0.000248564 0.000712065 1.84723e-22)
(-0.0064963 -6.86999e-05 0)
(0.000582809 5.58075e-05 0)
(5.06272e-06 3.20168e-06 -2.28257e-22)
(0.000314744 -0.000320893 2.97837e-23)
(-0.00552689 -0.000437124 -1.00454e-21)
(0.000152743 0.0021648 -1.24768e-22)
(6.68595e-05 -3.98107e-05 -1.16627e-22)
(0.000495424 0.000433301 1.56914e-22)
(-0.00292691 0.000393436 0)
(0.000137533 0.000232233 0)
(0.00168555 0.000146816 -3.85791e-22)
(9.72177e-07 2.56355e-07 0)
(-0.00955961 -0.00545804 1.871e-22)
(-1.26022e-05 -6.44166e-06 0)
(0.000804549 -0.00104323 1.90343e-21)
(-0.0113054 -0.00557052 0)
(-3.34676e-05 -7.12935e-06 -1.65094e-22)
(-0.00981403 -0.0032058 0)
(5.50954e-06 4.92456e-06 0)
(2.43218e-05 1.22372e-05 2.84494e-22)
(-0.00244388 0.000271253 0)
(-0.000910767 -0.000533532 6.27133e-23)
(-2.18401e-06 -4.89411e-06 -6.62221e-23)
(-7.94106e-09 -3.54404e-07 3.2496e-23)
(-1.0034e-07 -6.81969e-08 0)
(-1.12188e-06 -1.4555e-06 0)
(-0.00580339 0.000727389 5.54513e-22)
(-1.3005e-05 3.94005e-06 -2.16201e-22)
(-0.00011236 0.000193066 2.95824e-22)
(-0.00484499 0.00162706 5.04158e-22)
(-1.3405e-06 -1.70342e-06 -8.15838e-24)
(-5.18092e-06 -1.09363e-06 0)
(-1.37326e-05 6.9548e-06 4.87286e-23)
(-0.0115798 -0.00603916 0)
(-0.00611175 -0.000474647 -7.89044e-23)
(-0.000460573 -0.00088196 3.89558e-23)
(-1.79711e-05 0.00028105 -2.9084e-22)
(-0.000976343 0.00189388 -2.64522e-24)
(-1.25557e-05 3.40206e-06 -3.85036e-22)
(0.00157236 0.000135869 1.78584e-23)
(2.26989e-05 1.64793e-05 5.44442e-23)
(-2.33745e-06 -3.88514e-06 -2.69963e-24)
(0.00647225 -0.00280855 1.73178e-22)
(-6.81989e-06 -3.24512e-06 1.50744e-22)
(9.15089e-08 9.21753e-08 1.17971e-22)
(4.40747e-06 1.11962e-05 7.95041e-23)
(4.6107e-05 -4.79469e-06 0)
(-4.71582e-05 -3.24868e-06 9.57032e-23)
(-3.03327e-06 9.03019e-07 1.07207e-22)
(0.0116177 0.00145303 8.76523e-22)
(0.000364045 -0.000227932 -2.20031e-22)
(0.00410164 0.00598257 0)
(2.09002e-06 5.8458e-07 -9.52259e-23)
(-1.99539e-05 -2.26999e-05 -7.30164e-23)
(0.000183113 -0.000541813 8.02639e-23)
(-2.16085e-06 1.20121e-05 -1.2892e-22)
(-5.74632e-06 -6.54484e-06 -7.40701e-23)
(0.00336769 0.00209635 -8.69433e-23)
(-0.00275845 -0.00610161 1.20847e-21)
(8.05795e-05 -6.17261e-05 -1.66518e-22)
(-0.000133488 -0.0002093 -3.45093e-22)
(5.61845e-05 4.63074e-06 -7.84636e-22)
(6.81654e-07 6.25174e-08 -2.96192e-22)
(-0.00550986 -0.0011887 8.72759e-23)
(0.00011979 0.000409832 -1.19861e-22)
(-0.000175184 0.00495614 0)
(-5.09022e-06 8.79546e-06 -2.79498e-24)
(0.000665516 0.000670886 -8.55955e-23)
(-0.00598028 -0.000349041 -7.61376e-23)
(1.04281e-05 9.39163e-05 1.17645e-22)
(3.61142e-05 9.0756e-06 2.76337e-22)
(-1.68431e-05 5.80668e-05 -8.08788e-23)
(-3.32021e-06 4.66174e-07 -1.32679e-22)
(1.0773e-06 2.48686e-06 -1.17864e-23)
(0.00441753 0.00158974 -2.24794e-22)
(0.00040729 0.00252808 -5.31581e-23)
(-7.68744e-05 -1.65593e-05 -1.7137e-22)
(-5.18968e-06 -7.32024e-06 4.30639e-23)
(9.02791e-05 9.10955e-05 -1.91512e-22)
(3.80118e-07 1.87405e-06 0)
(0.00951033 -0.0204454 1.27129e-21)
(-1.14942e-05 6.65952e-06 0)
(0.000309901 0.0020824 8.97756e-23)
(1.00613e-06 1.7593e-06 0)
(0.00170951 9.96092e-05 5.25669e-22)
(0.000144016 0.000484422 -5.00886e-23)
(-0.00519468 -0.000942476 0)
(-0.0059275 -0.000628758 -1.40971e-22)
(-1.50986e-06 -3.23206e-06 -4.73719e-23)
(6.72328e-07 9.77351e-08 0)
(6.11426e-06 5.29806e-06 -2.64169e-22)
(5.43006e-07 7.20168e-08 -1.6469e-22)
(1.60139e-05 1.1588e-05 -6.84914e-23)
(1.75596e-07 1.40177e-06 1.29658e-22)
(0.000127695 6.1689e-05 0)
(0.00749051 -0.00202064 -2.90251e-21)
(0.000131202 7.37374e-05 0)
(2.00122e-06 4.66342e-07 -3.05708e-23)
(4.53314e-06 1.80296e-06 -6.75874e-23)
(-1.3363e-06 -1.06546e-06 4.8659e-23)
(1.17472e-05 5.73865e-07 0)
(-1.77176e-05 9.11184e-05 0)
(-0.00540427 -0.000887728 0)
(0.000104203 0.000201463 -8.99229e-23)
(4.89017e-07 8.60814e-06 0)
(0.000128526 0.000775109 -5.20469e-23)
(7.24532e-07 1.02211e-07 1.9159e-22)
(-1.16223e-05 5.99603e-06 0)
(7.69286e-06 1.48703e-05 8.15735e-23)
(-0.00474337 0.00244913 1.08117e-22)
(8.51239e-07 1.68466e-06 0)
(2.00571e-05 2.39208e-05 6.947e-23)
(-0.00131947 0.00253988 0)
(0.000761868 -4.42305e-06 -9.17073e-23)
(-0.000177963 -0.00014571 3.82401e-25)
(-2.06651e-09 -4.38915e-08 0)
(-0.0106629 -0.000577742 2.30994e-21)
(-7.49035e-08 -2.60325e-06 2.91504e-23)
(1.13661e-07 1.37973e-06 -1.21546e-22)
(1.66063e-06 4.37681e-07 0)
(-4.08588e-06 -4.40565e-07 0)
(-5.9819e-06 -7.21465e-06 -5.34678e-23)
(1.44921e-06 7.39741e-07 0)
(-9.07997e-07 -8.22037e-07 -1.5008e-22)
(9.38754e-07 2.2083e-07 -8.40694e-23)
(1.1333e-05 5.33579e-05 -1.37248e-22)
(8.44333e-08 8.18587e-06 1.04075e-22)
(7.00156e-06 4.44068e-06 0)
(1.39756e-06 2.85428e-06 1.99956e-22)
(6.10081e-05 -2.14362e-05 0)
(-3.88829e-06 -1.42968e-07 3.16377e-24)
(-3.54957e-05 -7.81626e-06 2.18748e-22)
(-9.93014e-07 -3.13196e-06 7.01822e-24)
(-0.00903767 -0.00516504 -2.42124e-23)
(-2.37024e-06 1.13661e-05 1.73094e-22)
(0.00268849 -0.000425459 -7.69328e-23)
(0.000598644 2.10469e-06 -8.79117e-23)
(7.26466e-06 4.8816e-06 -8.67339e-23)
(1.8493e-05 2.08896e-05 0)
(-8.41362e-06 -6.70579e-06 -1.12291e-22)
(-1.98745e-07 2.95781e-06 -1.891e-22)
(-3.32775e-06 -1.23559e-07 6.46255e-23)
(-4.49048e-06 3.23673e-06 -1.46523e-22)
(-4.70814e-06 3.51182e-06 0)
(0.00622018 0.00368949 2.48153e-23)
(-0.0129714 0.00446088 -1.26877e-21)
(2.66351e-06 1.37141e-05 -3.46448e-23)
(-1.74852e-06 3.1926e-06 -1.19732e-22)
(-0.000112927 0.000154136 2.58903e-22)
(0.00433157 0.00165054 0)
(-2.19023e-05 -3.07129e-05 -4.3762e-22)
(-0.0290062 -0.0150242 6.48537e-21)
(-2.17736e-06 -5.44921e-06 0)
(-2.94304e-08 -1.21338e-06 -2.90975e-23)
(1.08514e-06 1.92606e-06 0)
(0.000484866 0.00183686 0)
(1.32222e-05 4.08655e-05 0)
(-2.46074e-06 2.97615e-07 5.20747e-25)
(-7.85649e-06 3.46225e-05 0)
(-0.00189597 -0.000838926 -6.44451e-23)
(0.00288656 0.000440939 0)
(-1.57054e-06 -2.38934e-06 -6.01757e-23)
(-0.00540851 -0.00108422 0)
(-6.23797e-05 -1.8331e-06 8.73116e-23)
(-9.71076e-06 -1.67516e-05 -5.3157e-22)
(-4.71001e-08 -4.80109e-07 9.1275e-23)
(-2.42047e-06 3.03679e-07 5.98278e-23)
(5.49234e-06 9.00091e-06 0)
(-6.62887e-06 -2.02791e-05 2.40473e-22)
(0.00237837 0.00178302 0)
(0.0007428 0.00124772 2.84208e-23)
(-9.84421e-06 1.6769e-05 0)
(-4.39817e-07 -2.44332e-06 -8.67332e-24)
(-1.26055e-06 -2.91576e-06 0)
(0.00126202 6.3967e-06 -2.92619e-22)
(-6.91905e-06 -6.24073e-06 1.03387e-22)
(-2.10863e-07 -3.42065e-06 -4.24315e-23)
(8.677e-07 -3.70027e-08 -1.05172e-22)
(-0.00087949 -0.00016453 3.32923e-23)
(-3.90169e-06 2.51379e-06 1.46384e-22)
(-2.30236e-06 8.6403e-07 2.42709e-22)
(1.00362e-05 1.44706e-05 0)
(-0.00156892 -0.00353957 0)
(-0.0008856 -0.00760792 1.44944e-21)
(-3.4421e-05 0.00456133 0)
(-3.78189e-06 4.05505e-06 1.42897e-22)
(-1.24038e-05 -2.57391e-06 -6.62697e-23)
(0.0122726 0.00559994 -1.63843e-21)
(-0.00680923 0.00287125 -8.2937e-22)
(-0.00648309 -0.00565837 -3.14215e-23)
(-0.00120368 3.22314e-05 3.54198e-23)
(-0.0090481 -0.00462997 0)
(-2.44579e-07 4.42068e-07 1.5324e-22)
(-7.35185e-05 0.000187113 0)
(-1.81603e-07 -5.08409e-08 0)
(0.000336231 0.000954179 0)
(1.09912e-05 3.89689e-07 7.68817e-23)
(-7.83589e-05 -4.92173e-06 5.76284e-23)
(0.00782799 0.00820393 7.09449e-22)
(-0.00118263 -0.000274575 1.51743e-22)
(0.000468527 0.000989758 8.5172e-23)
(-2.04654e-07 3.00725e-06 0)
(5.92308e-06 5.24719e-06 -1.0875e-22)
(3.91457e-06 2.79466e-05 -7.37477e-23)
(-0.00124364 0.000160139 -4.60208e-23)
(-0.000434908 0.00068152 0)
(-4.16425e-06 -1.35394e-05 1.05614e-22)
(-4.1468e-07 -2.54888e-06 5.75872e-23)
(-0.00504571 0.0020229 0)
(-0.00555826 0.00155325 -3.60841e-22)
(0.000121583 9.61367e-05 0)
(-0.00058548 -0.000203099 -7.73149e-23)
(-3.37287e-06 -3.19348e-07 -7.97422e-23)
(5.0537e-05 0.000210901 0)
(0.0110981 -0.0157026 0)
(1.02793e-05 1.27138e-05 -1.43549e-22)
(-0.00531588 -0.005991 -3.90705e-22)
(-6.64938e-07 1.36558e-06 -1.47251e-22)
(-8.50677e-05 -0.000135361 6.57776e-22)
(-0.0138466 0.0104244 0)
(-0.000244705 0.000121549 2.14334e-22)
(-0.000401053 0.000129741 -8.05205e-24)
(-0.00334738 0.00267904 -1.96206e-23)
(-5.99112e-08 -5.05364e-07 1.00838e-22)
(-0.000554806 -0.000932602 -8.53337e-23)
(-1.91419e-05 -2.38834e-05 2.15985e-22)
(0.00812437 -0.00127885 0)
(2.25918e-05 1.97424e-05 6.08782e-23)
(6.22237e-06 9.01188e-06 -1.39288e-22)
(1.32723e-06 7.75467e-06 2.14811e-22)
(-5.65952e-06 1.48097e-06 7.07738e-23)
(0.00288733 -0.00139626 3.47256e-23)
(-3.06844e-06 7.10217e-07 0)
(-6.44327e-06 -3.86879e-06 2.22628e-22)
(-3.85312e-08 -5.26089e-07 9.93945e-23)
(-1.24502e-05 1.48746e-05 -4.97372e-25)
(-9.84827e-06 2.28187e-05 2.99509e-22)
(2.00668e-06 6.85219e-07 0)
(-3.93678e-07 5.26791e-07 2.22897e-22)
(0.00258129 0.00466928 1.54243e-22)
(0.000413084 -0.000567054 -8.54853e-23)
(0.000921916 0.00135537 -3.78761e-25)
(0.00285627 8.12285e-05 -1.7446e-22)
(-1.02681e-05 -5.06255e-06 -1.3551e-22)
(0.0137431 0.012525 0)
(1.28965e-06 2.45531e-06 2.93824e-22)
(-0.00072487 0.00585999 3.55691e-22)
(1.16278e-05 -6.32971e-05 1.15056e-22)
(-1.11197e-05 2.26405e-05 -2.8103e-22)
(-1.60087e-05 5.06571e-05 -1.79695e-22)
(0.00387693 0.00724065 5.72613e-22)
(-1.41311e-06 -2.171e-06 3.05663e-24)
(-2.17612e-07 5.12477e-08 -1.01821e-22)
(-2.09515e-09 -2.46919e-07 9.37576e-23)
(1.14493e-05 1.22838e-05 6.79651e-23)
(-0.00208993 -0.00107078 -8.12692e-23)
(9.11571e-06 4.30246e-06 1.46344e-22)
(9.77841e-05 2.03865e-05 -7.58879e-23)
(0.00103851 0.00133511 0)
(0.000842176 -0.00575533 0)
(-0.00482972 0.00309709 1.311e-21)
(-1.22407e-05 -9.44287e-06 -4.13025e-23)
(-0.00362302 -0.000355673 -1.60055e-24)
(-5.15365e-07 1.09878e-06 -6.78981e-23)
(0.000676783 -0.00401523 0)
(0.00241916 -6.87831e-05 0)
(-3.72986e-06 2.44231e-06 3.76146e-24)
(-3.20917e-06 7.44525e-08 0)
(-0.000396577 0.00082187 0)
(-0.000131542 0.000210995 -1.31023e-22)
(-2.57324e-06 -3.68102e-06 0)
(-6.38613e-06 -3.85377e-06 -1.37394e-22)
(2.4865e-06 5.25198e-05 2.95323e-22)
(1.20762e-05 -4.16537e-07 6.0603e-23)
(1.85009e-06 7.79161e-07 1.5543e-22)
(0.00185 3.80466e-05 -1.8587e-22)
(0.000200285 0.000604985 8.45886e-23)
(0.0120671 0.0012356 -1.00915e-21)
(0.00716705 0.00267297 0)
(0.000886201 -0.000378868 1.72747e-24)
(-1.52971e-05 7.57114e-06 0)
(6.01925e-06 3.07006e-05 0)
(6.43128e-06 5.32351e-06 0)
(1.23595e-05 -9.86282e-07 -2.32291e-22)
(-2.49731e-07 -3.03751e-07 0)
(-8.33769e-05 0.00016102 3.18329e-23)
(1.74645e-06 6.59255e-07 0)
(-3.05754e-06 9.25603e-06 2.91659e-22)
(0.000525016 0.00520805 0)
(2.06012e-06 7.27971e-06 -1.95562e-22)
(0.00584633 0.00408093 0)
(-1.5762e-06 3.3527e-06 0)
(-5.82508e-06 -7.09228e-06 -4.6376e-23)
(-0.0015703 6.13414e-05 9.50848e-23)
(1.9905e-05 1.87677e-05 6.18078e-23)
(-0.00514715 -0.00495725 -1.02949e-21)
(2.22665e-06 6.6334e-06 3.20905e-22)
(-0.000193001 0.000185837 -2.80779e-22)
(-2.2522e-07 0.000348891 -1.63261e-22)
(0.000328222 0.000879589 0)
(-4.97778e-06 1.94841e-06 1.41907e-22)
(7.52791e-07 -3.27684e-08 6.59555e-23)
(-2.58144e-07 -2.99797e-06 3.53863e-23)
(5.41211e-06 4.52621e-06 0)
(2.02632e-08 1.86077e-06 -2.20153e-23)
(-0.000707345 -1.30831e-05 7.41088e-24)
(1.82736e-05 2.63716e-05 3.87943e-23)
(0.00771079 0.00192279 0)
(-1.03058e-05 -1.67456e-05 2.09824e-22)
(-0.0012945 -8.85422e-05 6.96156e-22)
(0.000149809 0.000215517 7.28671e-23)
(-7.91978e-07 -1.2165e-07 1.22071e-22)
(-0.000260475 0.00491397 1.15815e-21)
(0.000971838 0.00326766 2.81316e-22)
(-8.01964e-06 1.02681e-06 -1.82952e-22)
(3.33959e-05 0.000331441 2.69212e-24)
(-9.63962e-06 -9.36791e-07 0)
(4.34541e-06 -9.85304e-07 -4.02983e-23)
(-1.85338e-06 -3.01047e-06 -9.70917e-23)
(5.18415e-05 -1.69163e-05 -1.20251e-22)
(-3.11136e-06 9.21072e-06 0)
(-4.38997e-05 0.000684838 -8.76297e-23)
(-4.67598e-06 3.9025e-06 0)
(-0.0075245 -0.0228333 -1.5566e-22)
(-2.09285e-05 2.62021e-05 1.03553e-22)
(9.33481e-05 2.56848e-05 2.40525e-23)
(9.88532e-06 7.01745e-05 -1.10333e-22)
(0.000134718 0.000207208 9.49431e-23)
(-2.3903e-06 -2.75008e-06 2.03775e-23)
(-0.000278141 0.000820786 -5.56562e-22)
(0.00188131 8.77896e-05 1.90245e-22)
(-0.00524819 0.00159813 3.79086e-22)
(-0.00349069 -0.000225341 2.45385e-22)
(0.00746108 -0.0203845 1.35164e-21)
(0.00114808 0.0025936 0)
(0.00270906 0.00318506 -3.65937e-24)
(-0.00954386 -0.00319406 2.56777e-21)
(4.56158e-05 0.000459572 0)
(-1.90241e-05 3.30109e-06 -1.54914e-22)
(0.00146087 -0.00016261 -1.00921e-22)
(-0.00284272 -0.00139414 2.39726e-22)
(0.00163765 0.00553974 7.77135e-22)
(0.000267564 0.000444108 -9.77065e-26)
(-8.68553e-06 -7.71166e-06 0)
(-0.000730767 -0.000101741 3.05338e-23)
(-2.9555e-05 0.000325905 -1.44173e-22)
(-0.000156684 -0.000126542 -7.94774e-23)
(6.02703e-06 5.58297e-06 1.35419e-22)
(-1.91211e-06 -2.98698e-06 1.11583e-24)
(-0.000103382 0.000164806 0)
(2.23712e-05 3.33038e-06 -6.85038e-23)
(0.00123117 -0.000731124 -5.79766e-23)
(0.00227618 0.000929311 -1.07217e-22)
(6.97457e-07 9.66732e-08 7.8484e-23)
(2.12113e-06 7.35134e-07 0)
(0.00407801 0.000705927 -9.56875e-23)
(-7.68429e-06 -6.73364e-06 4.93649e-23)
(0.00212072 -0.0013363 4.98425e-23)
(-1.47885e-06 -2.71526e-06 4.79789e-23)
(-1.45464e-06 -5.64098e-06 -1.50331e-25)
(-1.6007e-06 5.24423e-06 -1.8485e-22)
(-2.44276e-05 0.00224108 -8.8073e-23)
(-1.65288e-07 -3.33727e-06 1.04637e-23)
(0.00355204 0.005309 8.13184e-23)
(0.00149766 -0.000146544 1.34373e-22)
(-1.3831e-07 3.83519e-11 1.44888e-22)
(6.09683e-06 4.824e-06 0)
(4.31577e-06 1.60523e-06 -1.12099e-22)
(-0.000320989 0.000731754 2.66068e-23)
(0.00183494 -0.000432031 -4.62504e-23)
(4.5266e-05 4.63138e-05 2.33342e-22)
(-3.7695e-05 -1.51319e-05 1.00822e-22)
(6.24678e-06 9.33228e-06 1.41892e-22)
(0.000428195 0.00113012 -9.95364e-23)
(-0.00810381 0.00134522 2.74196e-21)
(-1.24128e-05 -8.13616e-06 -1.54187e-22)
(-1.74115e-05 5.20424e-06 0)
(-1.10551e-08 -1.29175e-06 0)
(-0.00420879 -0.00126013 4.74674e-21)
(-2.52186e-05 0.00183853 2.63219e-22)
(-6.24013e-07 1.29374e-06 -7.77111e-23)
(-7.93043e-06 2.50548e-05 -3.21712e-22)
(6.17843e-06 -1.24476e-05 -1.76056e-22)
(1.34746e-05 9.00991e-06 0)
(-1.42001e-05 7.54391e-06 0)
(-1.24326e-05 -2.84936e-06 1.94589e-22)
(-0.000954632 -9.10732e-05 1.87913e-22)
(0.00573063 0.00138294 -3.7572e-23)
(4.89321e-08 2.04644e-06 1.70745e-22)
(9.83355e-06 -0.00221785 -3.217e-21)
(0.000413704 0.00563725 3.30743e-22)
(3.16472e-05 1.8177e-05 0)
(2.87762e-05 1.85356e-05 3.65428e-23)
(0.00109313 0.00799813 2.98174e-22)
(-0.000477675 -0.0034896 -4.64506e-23)
(0.00225754 0.000354894 0)
(-0.00695855 0.00223775 0)
(9.78874e-06 4.22429e-06 0)
(1.08741e-05 -5.35602e-05 1.04163e-22)
(-0.000467753 0.000474086 0)
(-0.0106288 -0.0022261 0)
(-2.08706e-07 -1.5142e-06 -3.84705e-23)
(-2.95749e-06 1.54862e-06 9.74767e-23)
(5.20944e-06 1.08214e-05 1.36358e-22)
(-8.96709e-08 1.11519e-06 2.24759e-23)
(0.00112481 -0.000196597 -2.31851e-22)
(0.000597287 0.000219535 -1.43417e-22)
(4.06897e-05 5.02597e-05 -1.86696e-22)
(-1.98039e-05 9.79221e-06 0)
(-1.99549e-05 8.78295e-06 0)
(-3.7963e-06 -3.69492e-07 -9.971e-23)
(1.79361e-05 2.82711e-05 0)
(0.00107967 0.000786569 1.39938e-22)
(-2.94067e-06 2.93325e-07 2.14167e-22)
(0.00166883 -0.00555765 -1.04629e-21)
(-1.54573e-06 5.59886e-06 1.00005e-22)
(-0.0211571 -0.00479392 2.79809e-22)
(0.000997859 0.00162611 1.03857e-21)
(-4.37468e-07 -4.4917e-06 0)
(0.0100605 0.0101638 -2.44115e-22)
(1.56289e-05 1.00999e-06 2.16478e-23)
(-3.24909e-06 -1.68069e-07 0)
(0.00217442 0.00744036 1.26537e-22)
(2.02247e-06 9.87354e-07 -9.51584e-23)
(3.09279e-05 1.13356e-05 5.19857e-22)
(-1.27962e-06 9.66901e-07 1.19275e-22)
(1.414e-05 2.25406e-05 1.26678e-22)
(-6.01578e-07 -1.12315e-07 0)
(2.4024e-05 1.64165e-05 -2.96052e-23)
(6.50412e-06 3.87348e-06 -1.57067e-22)
(0.000776095 0.00747819 -1.08632e-22)
(2.14844e-07 2.61006e-06 0)
(1.38828e-06 7.94832e-07 -7.60277e-23)
(-3.62603e-06 -6.9765e-07 0)
(-1.40896e-06 1.83697e-06 0)
(0.00235514 0.00129949 1.16399e-21)
(0.00114664 -0.000201472 0)
(1.02148e-05 6.32189e-05 1.4635e-22)
(0.00104781 -0.000295418 0)
(-8.01602e-06 7.85519e-07 -6.62378e-23)
(-0.0078479 -0.000618198 -2.91136e-22)
(0.00266909 0.00041587 -3.66237e-23)
(8.04256e-07 5.33059e-08 -1.41492e-22)
(-8.8339e-06 9.10458e-05 -7.82525e-23)
(0.000749329 0.000129267 -5.77061e-23)
(2.16062e-06 3.87987e-07 1.13939e-22)
(-2.01847e-07 -1.52611e-08 1.05561e-22)
(1.58117e-06 -7.21474e-05 -1.60737e-22)
(0.0051796 0.00321043 6.06255e-23)
(0.00190536 0.000396841 0)
(-0.000530061 0.000909702 0)
(-1.20073e-07 -1.92563e-06 4.14695e-23)
(2.44563e-06 7.20474e-06 0)
(5.41994e-05 0.000750338 2.85575e-22)
(-2.40228e-07 -4.71768e-06 2.40231e-23)
(-0.00392834 0.00087027 -2.13801e-23)
(-2.49255e-07 -1.87853e-07 0)
(0.00165554 -0.000470834 1.44647e-22)
(-7.97894e-06 7.22275e-06 0)
(-1.69149e-06 1.32101e-06 -1.26281e-22)
(-9.88688e-07 -1.16646e-06 0)
(1.01158e-06 2.59973e-06 0)
(-0.0058666 0.000974313 2.09755e-22)
(-0.000607591 -0.000904692 0)
(-0.000116202 -0.00620967 1.1848e-21)
(1.7989e-06 7.43436e-07 0)
(2.20263e-05 4.91698e-06 6.36617e-23)
(-0.0042315 -0.00108703 -3.68274e-24)
(-1.0411e-05 -4.7484e-06 6.6329e-23)
(9.08074e-06 5.16428e-06 -2.25714e-22)
(0.00186061 -6.62348e-05 6.21862e-24)
(-0.00114695 0.000377573 -2.2775e-22)
(-0.00325941 0.00144638 -6.07717e-23)
(-1.32696e-07 3.93575e-07 -5.91109e-23)
(-0.0047778 -0.00172349 1.94159e-22)
(-3.13786e-07 1.35951e-05 -5.92156e-23)
(-3.27852e-06 -3.58401e-06 -6.81355e-24)
(2.20197e-06 1.06856e-06 5.83802e-25)
(0.000306305 -0.000488778 6.97994e-22)
(0.000578259 0.000175123 -4.81007e-23)
(9.11682e-07 2.22617e-07 1.92153e-22)
(0.00245345 -0.000198715 -1.21517e-22)
(-0.00181676 -0.00351328 2.88387e-21)
(1.47216e-05 0.000101665 6.48665e-23)
(-8.36725e-06 7.08935e-06 2.74915e-22)
(1.74793e-06 2.43804e-06 1.15316e-22)
(1.45317e-06 8.78729e-07 1.61848e-22)
(0.000693574 -0.000257573 1.69069e-22)
(2.44753e-06 -3.49517e-06 1.96502e-22)
(5.62541e-07 1.31639e-07 0)
(-3.05888e-05 -6.33362e-06 -2.83637e-22)
(-6.18296e-07 3.02521e-06 1.4429e-23)
(2.70435e-05 1.55137e-05 0)
(1.71105e-06 3.97194e-07 1.12301e-22)
(-1.18964e-05 5.26505e-06 0)
(-8.74402e-06 2.48093e-05 3.21948e-22)
(-1.92592e-07 -2.1147e-06 0)
(1.861e-05 8.33021e-06 1.05798e-22)
(-1.9591e-05 2.48929e-05 -3.51664e-22)
(0.00567299 -7.54349e-05 -1.79129e-22)
(0.000202403 0.000440694 -1.51944e-22)
(0.00187849 -0.00277441 8.70194e-23)
(0.000135233 5.21778e-05 0)
(8.13675e-05 0.000227521 9.73179e-23)
(0.00246371 0.000294791 -2.36451e-23)
(-1.03844e-05 5.18638e-05 -4.32153e-23)
(2.30201e-05 1.89355e-05 -6.34783e-23)
(0.00222102 -0.00340304 8.30448e-22)
(0.00136416 0.000588333 0)
(-1.32326e-06 -2.27333e-06 5.19553e-23)
(-0.00043883 -0.000433825 3.55026e-23)
(3.13577e-05 4.53136e-05 -4.45231e-22)
(-1.74113e-05 1.33464e-06 2.24756e-22)
(-6.26266e-06 -7.31675e-06 1.35145e-22)
(-3.90743e-06 2.63994e-06 -1.50538e-22)
(0.00825295 -0.00317731 1.13561e-22)
(6.22999e-08 9.25619e-08 -1.35715e-22)
(1.1024e-05 0.000688522 -1.42283e-22)
(0.000117455 -0.000222397 0)
(-4.70437e-06 2.5626e-06 -1.43132e-22)
(-1.15821e-05 2.05889e-06 2.34127e-22)
(0.00109919 -0.000772999 -8.56383e-23)
(-1.26485e-06 2.4525e-06 0)
(-0.00535004 0.00257945 5.22929e-23)
(0.0010931 0.00137326 -1.42939e-22)
(0.00285714 0.00727569 1.63315e-22)
(0.0128602 0.00662731 2.5097e-22)
(-0.00063826 -0.000830317 0)
(1.58067e-06 4.00362e-07 0)
(-3.71231e-05 2.22265e-05 -2.20666e-22)
(5.79326e-06 8.21579e-06 3.16242e-23)
(-2.2e-06 5.67407e-06 4.54201e-23)
(0.00253615 0.00169914 1.84486e-22)
(-3.30592e-06 -4.11519e-06 3.62325e-24)
(-1.8114e-05 7.24371e-05 -9.18111e-23)
(-2.52721e-06 3.5793e-07 0)
(-0.0165686 -0.0118803 0)
(7.19687e-07 2.22599e-08 0)
(-5.8706e-06 -6.56057e-06 7.13092e-23)
(-4.5158e-06 2.90132e-06 -1.43262e-22)
(-2.75332e-05 -9.93337e-06 2.20846e-22)
(7.84254e-06 2.58852e-05 -6.15507e-23)
(-0.000376069 -1.40026e-07 6.4872e-23)
(-0.000244486 0.000860403 0)
(-3.61015e-06 4.33617e-06 8.93652e-23)
(-5.26266e-07 8.77162e-07 -4.93346e-23)
(-0.000827775 0.000820899 -1.30351e-22)
(-0.00980615 -0.00423288 0)
(5.69655e-06 4.83419e-06 0)
(-1.63543e-06 1.65982e-06 -2.25026e-22)
(-1.77031e-07 2.04445e-06 3.99079e-23)
(3.47746e-05 4.82414e-05 2.15737e-22)
(5.52575e-07 1.96614e-06 -1.83452e-22)
(0.00166458 0.00634911 0)
(-4.94515e-07 -1.84235e-06 7.18937e-23)
(0.000102874 0.000179561 -7.48268e-23)
(-0.0043998 -0.00593416 6.19055e-24)
(-0.00400212 0.00292492 4.18841e-22)
(-3.92733e-08 -3.0091e-06 0)
(-1.45009e-06 1.02833e-06 -1.33087e-22)
(-7.97654e-07 -2.90351e-06 -3.1636e-23)
(-1.31914e-05 7.02937e-06 -5.33374e-23)
(0.0010585 -0.00635317 2.80571e-21)
(0.000550709 -0.000287919 0)
(-0.000284855 -0.000184388 0)
(-0.000174987 -0.000984113 0)
(-1.95776e-05 -2.30747e-05 0)
(0.0008779 -0.000185932 1.73851e-22)
(-4.05257e-06 -2.8363e-07 0)
(-1.1758e-05 7.06877e-06 1.96174e-22)
(-0.00207257 -1.70241e-05 1.22922e-23)
(1.14579e-05 2.21938e-05 0)
(-3.67655e-07 8.53325e-06 -2.39271e-22)
(5.53966e-05 5.63454e-05 0)
(-0.000841936 0.000344214 0)
(1.05091e-05 9.22424e-07 1.60374e-22)
(0.0045342 0.00635564 9.13607e-22)
(1.41246e-05 7.96115e-06 0)
(-0.000761969 -0.00474596 -1.43541e-21)
(-2.21727e-06 -2.15154e-06 0)
(0.00119036 -0.000655837 3.53937e-23)
(0.00166582 0.000536614 0)
(-0.00564029 0.000993591 -5.50861e-22)
(-0.00323904 -0.000262322 -1.82577e-22)
(0.000285069 0.00316765 0)
(-4.89992e-05 0.000170568 -6.44273e-23)
(0.00182649 -0.0033431 2.32519e-21)
(-1.15245e-08 1.83348e-06 -3.76176e-23)
(-1.82355e-05 5.49256e-06 0)
(-1.87254e-06 -2.35605e-06 2.05797e-23)
(0.00189933 0.00572765 0)
(-4.32866e-07 4.84307e-07 -7.89022e-23)
(0.00135929 0.00497567 2.80802e-22)
(0.000712457 0.00176132 -2.85303e-22)
(-3.0466e-05 2.0047e-05 3.07456e-22)
(-3.67761e-06 2.30141e-06 1.11807e-22)
(-7.05507e-06 1.4267e-06 0)
(0.000823195 4.2891e-05 4.15841e-22)
(-1.33936e-05 6.34575e-06 0)
(-1.89389e-05 2.30063e-06 9.06364e-23)
(-1.16367e-06 1.77294e-06 0)
(-0.000426137 -0.000145826 -5.07285e-23)
(-0.0037057 -0.000513137 0)
(0.000837729 0.00187033 0)
(0.00038104 0.000559698 1.76356e-22)