/*--------------------------------*- C++ -*----------------------------------*\
| =========                 |                                                 |
| \\      /  F ield         | OpenFOAM: The Open Source CFD Toolbox           |
|  \\    /   O peration     | Version:  v2012                                 |
|   \\  /    A nd           | Website:  www.openfoam.com                      |
|    \\/     M anipulation  |                                                 |
\*---------------------------------------------------------------------------*/
FoamFile
{
    version     2.0;
    format      ascii;
    class       surfaceScalarField;
    location    "250";
    object      phi;
}
// * * * * * * * * * * * * * * * * * * * * * * * * * * * * * * * * * * * * * //

dimensions      [0 3 -1 0 0 0 0];
oriented        oriented;


internalField   nonuniform List<scalar> 
20424
(
-0.571344
0.592923
-0.0215782
-0.0693283
0.100566
-0.0312381
-0.350072
0.0199371
0.330135
0.146028
0.0248217
-0.170849
-0.198887
-0.0255441
0.224431
-0.125565
0.125816
-0.000251375
0.0952132
-0.121221
0.026008
-0.206679
-0.0783737
0.35908
-0.248055
-0.111025
0.179401
-0.0333731
0.12748
-0.11777
-0.00970969
-0.548507
0.335568
0.212939
-0.140459
0.153957
-0.0134981
-0.0643924
0.0549527
0.00943971
-0.0311077
0.0444948
-0.0133872
-0.213883
-0.145335
0.287761
-0.142427
-0.0664303
0.099342
-0.0329117
0.298543
-0.596938
0.298395
-0.539897
0.338906
0.200991
0.0197788
-0.00256486
-0.0172139
-0.0444294
0.0133218
0.0705724
-0.0610138
-0.00955854
-0.10556
0.113768
-0.008208
-0.209734
0.0108473
-0.110386
-0.0377071
0.148093
0.0492399
-0.176015
0.126775
0.20239
-0.182629
-0.0197612
0.0953097
-0.468284
0.372975
0.24273
-0.100904
-0.141826
-0.130879
0.0983116
0.0325673
-0.0237691
0.0306973
-0.00692813
-0.150687
0.144417
0.00626967
0.117411
-0.135494
0.0180826
-0.246406
-0.150535
0.396941
0.20688
-0.496956
0.290075
-0.370022
0.329265
0.0407576
-0.141408
-0.153315
0.294724
-0.246662
0.213514
0.0331476
-0.118669
0.138906
-0.0202365
-0.133605
0.00804089
-0.0161602
0.0161602
0.132415
0.0653865
-0.197801
-0.151716
-0.00756554
0.159282
0.027348
-0.0937783
0.144322
-0.189202
0.0448801
0.11089
-0.391032
0.280142
0.123169
-0.111761
-0.0114081
-0.393889
0.329167
0.0647215
0.00229701
-0.00294538
0.000648374
-0.124892
0.0193317
0.00726894
0.0125099
-0.141103
0.0224342
0.0170212
-0.082454
0.0654328
-0.185404
0.0124262
0.172978
-0.0955785
-0.29831
0.14261
-0.0102304
-0.13238
-0.00501349
-0.145673
-0.179288
0.414407
-0.235119
-0.0277575
-0.0415094
0.0692669
0.386633
-0.212102
-0.174531
0.258759
-0.0869913
-0.171768
0.0347216
-0.0294583
-0.00526325
-0.288278
-0.260229
-0.113425
-0.149342
0.262767
-0.169954
0.195642
-0.0256874
0.188896
0.170184
0.159013
-0.300421
-0.119492
-0.0783595
0.197851
0.188312
-0.04399
-0.0357707
0.0423005
-0.00652977
0.000453929
-0.467664
0.46721
-0.085579
0.0578216
-0.211514
0.338402
-0.126888
-0.084787
-0.0203305
0.0630235
-0.127944
0.064921
-0.118155
-0.0822141
0.200369
-0.416299
0.237011
0.136871
0.00573933
-0.421558
-0.141416
0.562974
0.464471
-0.25759
-0.2602
0.239609
0.0205913
0.015187
0.392586
-0.297277
-0.127155
0.141294
-0.0141387
0.13325
-0.10633
-0.0269201
0.00888103
-0.0581551
0.0492741
-0.0308117
-0.0514534
0.0822651
0.189573
-0.435979
0.132279
-0.110086
-0.0221931
0.242788
-0.463375
0.220587
0.0801478
-0.0631266
-0.134044
0.244895
-0.110851
-0.088013
0.0675933
0.0204197
0.0702811
-0.0237952
-0.0464859
-0.135235
0.120387
0.0148481
-0.150579
0.186605
-0.0360264
0.240556
0.218002
-0.458558
0.436922
-0.436468
0.0645198
-0.234474
0.0270143
-0.0210847
-0.00592965
-0.219668
-0.277288
-0.137785
0.220595
-0.0828091
0.0400271
-0.0458411
0.00581399
-0.664403
0.435836
0.228567
-0.00215861
0.0421857
-0.0853016
0.118918
-0.0336168
-0.240305
0.417781
-0.177475
0.133258
-0.000978356
0.447071
-0.152501
-0.29457
-0.15909
0.494658
-0.0346887
0.167103
-0.118959
0.0336572
0.00829833
-0.0247299
0.0164315
0.0233577
-0.015656
-0.00770167
0.0991843
-0.293303
0.194119
-0.523376
0.303708
-0.166401
-0.0190029
-0.031354
0.266677
0.471686
-0.272684
-0.199002
-0.212928
0.0062494
0.69241
-0.456495
-0.235916
-0.0109815
0.429578
-0.418596
0.187293
-0.484189
0.296896
0.015346
0.185756
-0.201102
0.00375387
-0.0395246
0.0938361
0.0319798
-0.0325505
-0.00903665
0.0415872
-0.20239
0.0251585
0.177231
-0.0177263
-0.0678527
0.187713
-0.210637
0.0229236
0.0553619
-0.0656723
0.0103104
0.0528761
-0.0439951
0.0195334
-0.0906264
0.0710931
0.0815802
-0.167711
0.0861311
0.204508
-0.283998
0.0794898
-0.0932531
0.00846609
-0.140491
-0.236693
0.377183
-0.0494074
0.207167
-0.15776
-0.00215487
-7.11277e-05
0.002226
0.0933295
-0.124985
0.0316552
-0.0109654
0.145025
-0.134059
-0.147722
0.204589
-0.0568664
0.0412498
-0.0280307
-0.0132191
-0.558372
0.499295
0.0590763
-0.00215487
0.161691
-0.15771
-0.00398017
0.147485
-0.0521291
-0.0953557
0.17865
0.120168
-0.298819
0.120701
-0.10575
-0.0149514
-0.57395
0.0155779
0.145594
-0.135229
-0.0103651
0.0400105
-0.0421691
-0.0147163
-0.0642328
0.0789491
-0.207788
0.189864
0.0179244
0.0291819
-0.023568
-0.00561383
0.00766528
0.154025
0.158018
-0.170495
0.0124777
0.0317826
-0.101111
-0.231384
0.453202
-0.221819
0.041948
-0.0336497
0.642675
-0.371771
-0.270904
-0.00666257
-0.00544391
0.0121065
0.0739123
0.0705048
-0.558439
0.212579
0.34586
-0.241467
-0.069518
0.310985
0.0571942
-0.0880059
0.0143549
-0.364427
0.139451
0.103279
-0.171155
0.0306961
-0.207687
0.0599648
0.305253
0.141818
0.188677
-0.0071037
0.136041
-0.128937
0.220182
-0.281499
0.0613173
-0.0111528
0.106366
0.0958648
-0.0328413
-0.167704
-0.0400846
-0.0419272
0.00937665
0.0417213
-0.0343667
-0.00735467
-0.327977
-0.336426
-0.0214285
0.13884
-0.164554
0.190873
-0.0263196
-0.00209543
-0.0722456
0.074341
0.0541161
-0.0805929
0.0264768
0.00241865
0.217763
0.00979742
0.0314524
-0.0923422
0.208464
-0.116122
-0.0433388
-0.0330851
0.0764239
0.276807
0.109827
-0.19067
0.0261166
0.0121168
0.0584556
-0.262567
0.173297
0.0892696
0.118731
-0.113249
-0.00548151
0.0223459
0.00927334
-0.0316193
0.03971
0.0935405
0.131638
-0.0378017
-0.00319902
0.00282687
-0.466334
0.455352
-0.168806
-0.0335833
0.449004
-0.277381
-0.171623
-0.126187
0.0472172
0.0789699
0.147787
-0.137227
-0.0364065
0.173634
-0.0265137
-0.00568407
0.0321978
-0.143863
-0.103743
0.247605
-0.428456
0.236814
0.191642
0.123489
-0.00475762
-0.0761135
0.0640571
0.0120564
0.133311
-0.111581
-0.0217303
0.284433
-0.185249
0.0467306
0.0198083
-0.0665389
-0.0132176
0.0132176
-0.0261411
-0.0569791
0.0831201
0.16075
-0.11151
-0.104685
-0.0155283
0.120214
0.0301638
-0.0298914
-0.000272408
0.134611
-0.11409
-0.0205208
0.0296005
-0.0294005
-0.000200031
-0.17408
-0.294204
-0.0915391
0.0311958
0.0603433
-0.197968
0.060741
-0.0629206
-0.0350966
-0.0371988
0.0722954
0.0139167
-0.131443
0.117526
-0.0784214
0.060695
0.0949971
-0.23886
-0.0175397
0.110869
0.0327747
-0.00261089
0.0661575
-0.0194269
-0.44004
0.28186
0.15818
0.333527
0.263488
0.324864
0.367546
0.460209
-0.349318
-0.0049437
-0.0429446
0.0478883
-0.104231
0.119577
0.0544484
-0.126694
0.072246
-0.0219975
-0.252949
-0.286949
-0.297698
0.152364
0.234758
-0.181228
-0.0535301
-0.0576532
0.0225566
0.0764216
-0.0634762
-0.0129455
0.106046
-0.00924914
-0.0967967
-0.134819
0.118791
0.0160278
0.0320059
-0.00965998
-0.207635
-0.0525649
-0.0304389
0.0039252
-0.160876
0.192462
-0.0315854
0.193444
-0.360783
0.167339
0.00704381
-0.00190811
-0.00513569
0.206927
-0.579932
0.565397
0.0145356
-0.227492
0.0934477
-0.0463757
-0.0502254
0.0966011
-0.152543
0.141577
0.140357
-0.380663
-0.00893325
0.00227068
-0.116442
0.0101119
0.0359276
-0.0290249
-0.00690269
0.282182
-0.474787
0.192604
-0.119519
-0.0190257
0.138544
0.0130831
-0.288197
0.130717
0.15748
0.135129
0.137155
-0.272284
-0.00858859
-0.0846645
0.0142299
-0.0755245
0.0612946
0.0233159
-0.133702
-0.100643
-0.00649992
0.107143
-0.121484
0.0751087
-0.361932
0.533774
-0.171842
0.0134846
0.00310977
-0.0165944
0.118058
-0.1029
-0.0151585
0.0355796
-0.0262182
-0.00936141
0.121089
-0.213431
0.00503048
0.0197946
-0.0248251
-0.0124841
0.0124841
-0.00917237
0.13089
-0.121718
-0.00143021
-0.120054
-0.154055
0.146952
0.143709
-0.385177
0.395462
-0.225278
-0.170184
0.0715642
-0.0910447
0.0194804
-0.00847179
-0.0066859
0.0151577
0.162542
-0.0527758
-0.109766
-0.0679249
0.246575
0.154659
-0.169415
0.0147562
0.170548
0.243859
-0.0919773
0.0486385
-0.201062
0.221579
-0.0205169
-0.059971
-0.0220491
0.0820201
-0.385551
0.323731
0.06182
-0.000838391
0.0954885
0.0319914
-0.0166913
0.0416111
-0.0249197
0.071858
-0.00780089
-0.305706
0.431634
-0.125928
0.202523
0.324221
-0.526744
0.0598027
-0.234356
0.174553
-0.43172
-0.139625
0.0646
-0.182755
-0.222755
0.412328
-0.119795
0.146048
-0.0262528
0.000184156
0.00685965
0.0257991
0.372501
-0.0903183
-0.172586
-0.0947678
0.267354
-0.340412
-0.218027
-0.0779521
0.242983
-0.165031
0.148188
-0.102751
-0.0454363
0.0165525
-0.00306788
0.147406
-0.128144
-0.0192621
-0.33143
0.100204
0.231227
-0.0377186
0.0314217
0.00629689
0.325898
-0.68783
-0.226606
0.0598843
-0.19767
0.048791
-0.0449357
-0.00385531
0.201084
0.270603
-0.0364971
-0.145182
0.18168
0.00614597
0.0705558
-0.0767018
-0.0191456
0.0191456
-0.020447
0.117428
-0.0969806
0.309734
0.287281
-0.00117991
-0.00382137
-0.594254
0.340558
0.253697
0.20509
-0.427845
-0.462538
0.304895
0.157643
-0.289193
0.0234611
0.265732
-0.122835
0.257965
-0.337568
-0.12497
0.228697
-0.516974
0.484567
-0.297274
0.0707027
0.131687
-0.216233
-0.115197
-0.252038
0.202631
0.166765
-0.378279
-0.0235399
-0.152475
-0.00859571
-0.280597
-0.0861196
0.100036
-0.475556
0.288159
0.187398
-0.0742275
-0.0566514
-0.128478
-0.159719
-0.0276056
-0.0443731
0.0719787
0.0115472
0.121764
-0.0451824
0.25235
0.167781
-0.204278
0.134888
-0.266563
0.131675
0.142599
-0.363219
0.22062
0.164873
-0.352284
0.187411
0.132627
-0.329636
0.197009
0.306568
-0.173941
-0.00704087
0.00664649
0.000394383
0.0363631
0.0165025
-0.0528656
0.0270744
0.231685
-0.108986
0.297648
-0.188662
0.10719
0.04607
-0.15326
0.0151408
-0.0772114
0.0620707
-0.116155
-0.0134236
0.129579
-0.00673216
-0.082712
0.0894441
-0.265787
-0.174253
-0.260728
-0.095581
-0.28997
-0.0117777
0.0033059
0.126799
-0.10465
-0.490546
0.150876
0.339669
0.140108
0.00737659
-0.0159679
0.018601
-0.0026331
-0.00479634
0.0448068
-0.506632
0.291864
0.214769
-0.0524949
0.0358036
0.0371419
0.107883
-0.157225
0.0795244
0.0777004
-0.648171
0.226613
-0.286757
-0.203789
0.0900976
0.158088
-0.248186
-0.136787
0.125934
0.0108532
-0.00305263
-0.000146386
0.0268561
-0.103237
0.0763808
-0.152537
0.179899
-0.0273619
-0.226471
-0.22927
0.455741
0.494568
-0.254012
0.0475749
-0.0378368
-0.00973813
-0.128105
0.262993
-0.26156
0.602118
-0.740477
0.561332
0.179145
-0.0282574
0.00448829
-0.141302
0.334041
-0.192739
-0.428422
0.197038
0.0328253
0.187769
-0.101742
0.0129662
0.0887755
0.0899417
-0.080355
-0.0095867
0.00754893
0.324809
-0.169292
-0.155517
-0.179274
0.160111
0.019163
-0.116417
0.0503171
0.0660995
-0.0349148
0.0250203
0.00989457
0.0998658
-0.00155429
0.110428
-0.0893464
-0.0210812
-0.00843269
-0.0699887
0.277481
0.365194
-0.132782
0.00562682
-0.651421
0.252588
0.398834
-0.114856
0.0633918
0.0514637
-0.249127
0.171175
0.0617065
0.100835
-0.0408631
-0.0313237
0.0721869
0.107964
-0.00810309
-0.0998611
0.029372
-0.0963048
0.0669328
0.331113
-0.188514
-0.119122
-0.104886
0.224009
0.190863
-0.154943
-0.0359202
0.0825974
0.0278301
-0.0350379
0.0443062
-0.00926828
-0.124658
-0.0121295
0.420273
-0.638721
0.218448
0.0502554
-0.00146445
-0.038535
0.0475228
-0.00898777
-0.156658
-0.0611754
-0.0740595
-0.202256
-0.127843
0.330099
0.127968
-0.121032
-0.00693569
0.0881317
-0.0859097
-0.00222201
0.217695
-0.18487
-0.0588501
0.07308
0.58345
-0.307002
-0.276448
0.0133434
-0.113986
0.0760868
-0.0397237
0.0292288
-0.00319914
-0.0260296
-0.075989
-0.0452322
-0.0925917
0.0947767
-0.00218501
-0.32544
-0.267904
0.593344
0.101133
0.00491301
0.00977868
0.0659148
-0.080631
0.0274357
-0.147185
0.237283
0.142145
0.102493
-0.244638
-0.291709
0.138394
0.00802491
0.0286969
-0.0367218
-0.0286318
-0.219423
-0.14914
0.246086
-0.0969462
-0.701239
0.301109
0.400129
0.0383363
-0.158716
0.189073
-0.0303578
-0.347987
-0.1268
0.289717
-0.540091
0.250374
-0.0682419
0.0421009
-0.119264
0.104879
0.0143847
-0.0653445
0.0922007
0.0785425
-0.00697831
0.121045
0.0878328
-0.208878
0.0216918
0.0613898
-0.0830816
0.211158
0.184304
0.0081427
0.0257313
-0.033874
-0.00130947
0.135505
-0.134196
0.0206851
0.154908
-0.000851785
-0.154056
-0.0656469
0.0247838
-0.270984
-0.235648
0.372496
0.277601
-0.650097
-0.301484
-0.399755
0.131267
0.0864279
-0.0165842
0.000616224
-0.174923
-0.0717391
-0.139333
0.0149356
-0.0827825
0.109481
-0.0266984
-0.013357
-0.0794809
0.0928379
-0.0024632
-0.0324516
-0.193261
0.00209858
0.0743231
-0.367469
0.556679
-0.189211
-0.0943836
0.0810266
0.0267945
-0.0214725
-0.00532194
-0.348328
0.207025
-0.36302
0.160764
-0.0898435
0.113262
-0.0234187
0.128284
-0.144759
0.0164749
0.335252
-0.141808
0.104926
-0.254066
-0.174964
0.300636
-0.205543
-0.0950938
-0.451604
0.298027
0.153577
-0.032594
0.00319351
-0.0171976
0.022228
-0.0646028
-0.0518138
-0.00667764
-0.00588277
0.0125604
0.0239732
0.0107484
-0.153453
0.175308
-0.0218551
0.0092083
0.181655
0.144382
-0.263504
0.223463
0.0771729
-0.306698
-0.253646
0.560343
-0.112971
0.132669
-0.0196984
-0.146709
-0.239047
0.132482
0.106566
-0.027067
0.000848743
0.253516
-0.111372
-0.00950407
-0.328568
0.219582
-0.134446
0.26825
-0.133804
0.0074381
-0.0684519
0.192913
-0.0251317
-0.0761813
0.0677487
0.157444
-0.270869
0.0120461
0.0171827
-0.100555
0.0822631
0.0182917
-0.0371579
-0.0776976
0.297161
-0.138148
-0.427675
-0.312802
0.665195
-0.348935
-0.31626
0.102926
0.159002
-0.261929
-0.255324
-0.173131
-0.0196194
0.0196194
-0.174477
0.0292949
-0.0093991
0.00272146
-0.132502
-0.024723
-0.0614977
0.00765837
0.0538393
0.0165227
0.118088
-0.26529
0.563833
-0.00972183
0.0628494
-0.0531276
0.073871
-0.0521792
0.245608
-0.149637
-0.0959709
-0.0816717
-0.018883
-0.195797
0.254604
-0.0588076
0.241629
0.0773683
-0.318997
-0.171531
0.404816
-0.233285
-0.157515
0.133975
-0.0466723
-0.192375
0.126248
-0.0215221
-0.104726
0.122807
0.183761
0.0529589
0.0173222
0.0600271
-0.112156
-0.0219712
-0.117362
-0.0197345
-0.112255
0.13199
0.0138003
-0.275497
-0.0945255
-0.0531684
-0.00832931
-0.00534219
-0.0272518
0.0117205
0.0116738
-0.0673057
0.0556318
0.0776464
0.0104854
-0.0878914
0.00340079
0.0844906
-0.0804476
0.0204765
0.00324547
-0.000948464
-0.097312
-0.0204583
0.0570738
-0.182195
0.125121
-0.0360511
0.0164809
0.0195702
0.0128671
0.0104906
-0.0664963
0.0567745
-0.121023
0.0295855
0.0914378
-0.262461
0.114025
0.148436
-0.0226143
-0.00564314
0.133225
-0.102867
-0.0303574
-0.108114
0.0876672
0.200169
-0.140367
0.218292
-0.389823
0.0259347
-0.187923
0.0514094
0.136514
0.0225963
-0.0193707
-0.00322562
-0.0145035
-0.0498889
0.519697
-0.317173
0.400112
-0.0746957
-0.325417
-0.0519223
0.067063
-0.142588
-0.119873
0.03297
-0.0249451
0.150408
-0.456114
-0.444595
0.269261
0.175335
0.325774
-0.214991
-0.110782
-0.0630721
0.0692181
-0.431175
0.204704
0.0714833
-0.0962838
0.0248005
-0.00563524
-0.0304159
-0.297339
-0.354082
-0.152822
-0.0999032
0.252725
-0.324892
0.152305
0.0066834
0.0157623
0.011252
-0.182162
0.0631337
0.119028
-0.0715881
-0.0328317
0.10442
-0.232574
0.0853883
-0.0609033
0.0902753
-0.00119807
0.00266398
-0.00146591
-0.15999
0.154977
0.0501349
-0.183516
0.133381
0.392153
0.181715
-0.573869
0.0614863
-0.00736018
0.0689993
-0.0637229
-0.00527632
0.215982
-0.148713
0.174958
-0.0262448
0.187547
-0.0368549
-0.150692
0.159263
0.0574183
-0.216681
0.0144242
-0.167877
-0.0308071
-0.148467
0.0628
-0.00922659
0.063441
-0.0542144
-0.203942
-0.212357
-0.00488375
0.00463711
0.000246645
-0.0189243
-0.187438
0.0197346
-0.0388149
-0.148623
-0.0510475
-0.0107845
0.061832
-0.0815565
-0.0201852
0.024835
-0.0222364
-0.00259856
0.00239658
-0.00359465
-0.230776
0.0558529
-0.153678
0.152369
0.0358725
0.0084337
-0.00265596
-0.000289423
0.148562
0.455454
-0.604016
-0.156539
-0.196586
0.353126
0.187049
-0.0313263
-0.155723
-0.237983
0.480771
-0.012099
0.0285799
-0.0722523
-0.0539348
-0.115964
-0.0661975
-0.17383
0.00742897
-0.0218962
-0.151934
0.143741
-0.329246
0.185505
-0.13728
-0.0519216
-0.0905737
0.0991367
-0.00856297
-0.203927
-0.159094
-0.0753214
-0.015305
0.213516
0.112258
-0.0897289
0.0512372
0.0384917
-0.0147306
0.0319917
-0.0172612
-0.0435097
0.479346
-0.111751
0.0286519
0.0830996
-0.121936
-0.14063
0.362627
-0.197755
0.0598847
-0.0465364
-0.0133483
-0.189027
-0.171827
0.360854
-0.0742588
0.0728286
0.482126
-0.27875
-0.203376
-0.218063
0.066754
0.151309
0.224687
0.33739
-0.562077
-0.172419
0.209321
-0.0369017
0.0877911
0.1774
-0.265192
0.00883721
0.213109
0.192787
-0.405896
0.149081
0.232545
-0.381625
-0.343966
0.25078
0.093186
0.281483
-0.469149
0.187666
-0.0284715
0.0137409
0.115168
-0.0587415
-0.0564261
0.127742
-0.147477
0.0695029
0.0456646
0.197747
0.0478606
-0.0017156
-0.011502
0.0498816
-0.011499
-0.0383826
-0.535849
0.136697
0.399152
0.128539
0.0196484
-0.0776746
0.349522
0.0505908
0.62934
-0.256844
0.165205
-0.0296999
0.0899926
-0.0185093
0.017334
0.0118479
0.0308578
0.540715
0.104175
0.0129989
0.252284
0.305176
-0.55746
-0.0796022
-0.0129895
0.258143
-0.564841
0.00151167
-0.0364186
0.204648
-0.168229
0.484985
-0.243994
-0.240992
0.268239
-0.52001
0.251771
-0.381268
0.15599
0.0424306
-0.0473743
0.0523796
0.0487532
0.0146203
-0.021275
-0.326712
0.00711557
-0.195038
-0.0897617
0.0828748
0.00688685
0.185565
-0.0622347
-0.168541
-0.0273497
0.0275931
-0.000243478
-0.0265608
-0.00100736
0.0275681
0.0147714
0.0845707
0.508293
-0.545038
0.0367449
-0.0751548
-0.0163842
0.107178
-0.126199
0.0190205
0.198786
-0.342068
0.143282
-0.266005
0.453143
-0.187138
-0.0882345
0.117439
-0.102701
-0.0147385
0.290391
-0.0189725
0.0224474
-0.00347484
-0.00359513
-0.00128862
-0.0393139
0.120894
0.241208
-0.261818
0.0206102
-0.21022
0.388033
-0.177813
0.363993
-0.214912
0.0288494
-0.0409484
0.137852
-0.0222786
-0.115573
0.467078
0.125845
-0.115131
-0.0163117
0.166927
-0.345091
0.178164
0.183377
0.00908402
0.197868
0.251136
-0.023978
0.0403605
0.0144301
0.441024
-0.15087
-0.0472927
0.198163
0.151486
-0.0914592
-0.0177595
-0.039595
0.0573544
-0.0255349
-0.0113471
-0.0830365
0.0309416
0.115106
-0.000175666
0.00126693
-0.0028028
0.0204939
0.0208874
-0.0851202
-0.0187148
0.0229954
-0.00428056
-0.4815
0.210516
-0.00254515
-0.0136151
0.00288931
0.143298
-0.146188
0.175884
-0.144787
-0.0310976
-0.0334104
-0.075557
0.108967
0.141238
0.192803
-0.00136062
-0.00512523
0.00648585
-0.155651
-0.424281
-0.0808766
0.110752
-0.0298752
0.0066507
0.0095095
0.323659
-0.193502
-0.130157
0.22875
-0.0429663
-0.185783
0.0732347
0.0301879
-0.103423
-0.200948
-0.167267
0.368215
0.0899729
-0.0206061
-0.0693668
-0.105051
0.0144768
-0.0116477
-0.0548486
-0.0614344
0.0940537
-0.041674
-0.404181
0.160809
-0.1501
-0.0107092
-0.0772312
0.23532
0.313992
-0.147501
-0.166492
-0.00618408
0.0611367
-0.0955364
0.294322
0.162823
-0.0267821
0.166445
-0.0809597
-0.550477
0.0146282
0.269432
-0.132277
-0.181103
-0.148533
0.159397
-0.0187608
-0.140637
-0.0178064
-0.0374356
0.0448658
-0.00743018
0.0901284
0.0231337
0.239033
0.0857757
0.142938
0.413742
-0.0955848
-0.0101651
-0.0395414
-0.0484716
0.25718
-0.154254
0.264965
0.22002
0.476388
-0.166008
-0.31038
-0.113075
-0.400931
0.241791
0.15914
0.011878
-0.0584144
0.287423
-0.539008
0.251585
0.117564
-0.0011492
-0.116415
0.00414127
-0.0803226
0.0504914
-0.0409012
-0.00959022
0.275522
-0.603499
0.256127
0.226
-0.242844
0.481885
-0.239041
0.118107
0.116651
0.0672836
-0.0927447
0.0254611
-0.00125451
-0.0282038
0.00705928
0.0745047
-0.0895928
0.0150882
-0.120067
0.000548406
0.0390544
0.00852051
0.307559
-0.163818
0.173742
0.0478371
0.0890818
-0.0807769
-0.00830486
-0.130381
-0.0876822
-0.304359
0.088126
0.122843
0.0253039
-0.148147
-0.051654
0.0633279
-0.0857156
-0.163412
0.0735967
-0.0275752
-0.0460214
0.202139
-0.042876
0.0113051
-0.0349854
0.0236803
-0.0733315
0.355126
-0.281795
-0.0213927
0.00202202
-0.021623
0.00290815
0.00457814
-0.0324964
0.0352949
-0.00279853
-0.0455208
-0.0423706
-0.111827
0.133072
-0.0212443
0.0285533
-0.0172482
0.221064
0.162672
-0.112537
-0.397774
0.346309
0.0514647
0.109723
-0.016211
-0.0935119
0.482703
-0.192986
0.0391319
-0.0842442
0.0451123
0.0892452
-0.0525394
-0.0367057
-0.16464
0.0986255
0.0660146
-0.188498
-0.159829
-0.066841
0.215185
-0.148344
0.0438804
-0.00482598
0.0393654
-0.220594
0.144733
-0.0876589
-0.23152
0.488855
-0.257335
-0.0654307
0.0562135
0.0092172
0.0979757
-0.0214134
-0.0765623
-0.0793817
-0.0916113
0.113839
-0.0222279
-0.0195731
0.00391707
0.290638
-0.0771224
-0.0213265
0.00235396
-0.0823508
0.03683
-0.000712061
0.0683054
0.02932
0.0318773
0.11563
0.100711
-0.216341
-0.087577
0.0921969
-0.00461986
-0.173488
-0.423449
0.158654
0.0279514
0.050461
0.207099
0.252435
-0.459535
0.0110926
0.038789
0.00555575
-0.0243341
-0.00233729
0.0266714
-0.000549021
0.0899883
-0.000906494
-0.0503465
-0.0139711
0.0643176
0.259647
-0.138533
-0.121114
0.0190685
-0.10178
0.449844
0.0584486
0.0532721
-0.0670559
0.0137838
0.098103
-0.0775961
-0.0205069
0.0374949
0.150218
0.0883298
-0.0190441
-0.0692856
-0.0926272
0.0356481
-0.0960092
0.0944634
0.00154574
0.346136
-0.14681
-0.199326
0.100508
-0.0460596
0.0125008
0.00989311
-0.0223939
0.231922
0.221373
-0.0480775
-0.173296
0.240404
-0.525067
0.284662
-0.507015
0.115983
-0.331069
0.555756
-0.0408791
-0.00678686
0.047666
-0.27878
0.531064
-0.199686
0.370187
-0.170501
0.0186178
0.489811
-0.262167
-0.227643
0.111211
-0.120383
-0.142082
-0.186485
0.102017
-0.135427
0.173012
-0.258728
0.0510624
-0.0748577
0.524641
-0.27143
-0.253211
0.0235026
-0.0212536
0.0381193
-0.0168657
0.00915397
-0.0803606
0.0943235
-0.013963
-0.1105
0.0577244
-0.0528762
-0.0368527
-0.0242625
0.0974972
0.049799
-0.00937077
-0.0404283
-0.0886776
0.102021
-0.550456
0.210044
-0.0224433
-0.0106628
0.0331061
0.203463
-0.0240604
0.00182403
-0.0571848
-0.153452
0.010526
0.0499995
0.0338346
-0.0838341
-0.0151583
0.089663
0.581323
-0.317835
0.179663
-0.208888
0.0292254
0.00216368
0.030335
-0.0324987
0.0320597
0.189314
-0.0605904
-0.00805472
0.0686451
0.167013
-0.214498
0.0474848
0.0848254
-0.0697339
-0.0150914
0.0548554
0.0783693
-0.0057881
0.0902787
-0.053314
0.565676
-0.244286
-0.32139
-0.00833802
-0.0358794
0.0442174
0.0780521
-0.0174783
-0.0605738
-0.451231
0.309161
0.14207
-0.108516
0.287096
-0.17858
0.0453238
-0.00945126
0.253492
0.0371454
0.114676
-0.0999894
-0.0146863
-0.0163411
0.0288418
0.496071
-0.227832
-0.0761599
0.0950658
-0.0189058
-0.0532984
-0.108679
0.161978
0.146268
-0.115326
-0.299745
0.191229
-0.260157
-0.191074
0.29939
0.297625
0.00585829
-0.0103146
-0.0335679
0.0438825
0.372785
-0.166986
-0.205798
0.431729
-0.22463
0.101522
0.0630485
-0.16457
0.0814726
-0.0314731
-0.0255918
0.433333
-0.215331
-0.230384
0.318011
-0.104902
0.558367
-0.331225
-0.227142
-0.381442
0.177516
-0.100482
-0.0641583
-0.163449
0.155974
0.00747449
0.061685
0.0275602
-0.0995109
0.0274015
0.0721094
-0.145908
0.130884
0.0150243
0.098337
-0.0835656
0.266735
-0.13064
-0.136095
0.511454
-0.0911808
-0.302129
0.24032
0.0618085
-0.0171715
0.0704436
-0.173751
0.0670177
-0.0887357
-0.0302231
-0.0717193
0.0600717
-0.587685
0.262244
0.0137137
-0.0215004
-0.131042
0.103745
-0.0801241
-0.0236207
-0.0705051
-0.327269
0.00774093
0.0805888
-0.165291
-0.0468866
0.212177
0.389366
0.275829
-0.116059
0.251082
-0.135023
0.506353
0.023406
-0.529759
-0.0317252
0.110695
0.15011
-0.132011
-0.0180996
0.0289694
-0.117647
0.23575
-0.566819
0.0383319
-0.0466699
-0.338437
-0.00226549
-0.0168801
0.00954845
-0.383864
-0.0437415
0.427606
-0.023248
0.0355537
-0.0123057
-0.630106
0.374107
0.255999
-0.382187
0.181239
-0.221853
0.155012
0.596001
-0.30872
-0.202081
-0.100048
-0.17114
-0.0927736
0.263914
0.339769
-0.172842
0.254491
0.163289
0.200369
0.322991
-0.52336
-0.276842
0.0810452
0.0777603
0.0227477
0.0399179
-0.0502325
-0.386947
0.157434
0.229513
-0.024612
0.00199769
0.32577
0.271245
0.134986
-0.0229009
-0.131154
0.124147
0.0262726
-0.021824
-0.00444865
0.0434105
-0.0426901
-0.000720335
-0.00131374
-0.100727
0.253896
-0.153169
0.366656
-0.125028
0.0116668
0.0573325
0.143588
-0.557548
0.292094
0.265454
0.0131941
0.142556
-0.216741
0.134527
-0.0319726
0.0076544
0.0243182
0.118194
-0.0163047
-0.10189
0.482685
-0.207057
-0.275629
0.0251665
0.130748
-0.155915
-0.096675
0.0791295
0.0175455
0.499915
-0.243788
0.0741456
-0.089498
0.0153524
-0.277147
0.22423
0.0529171
-0.0129936
0.0326048
-0.0196112
-0.132816
-0.0271749
0.0690335
0.0961719
-0.0575943
-0.0319986
-0.0492161
-0.0366936
0.165897
0.399779
-0.00408693
-0.157708
0.00429874
0.304863
-0.0999736
-0.0164686
0.359508
0.231559
-0.591067
-0.237002
-0.2433
0.480302
0.089073
-0.260213
-0.203934
0.541324
0.00552689
0.155282
0.00451281
0.040811
-0.356711
0.167684
-0.0653021
0.049246
0.016056
-0.029967
0.0169734
0.299539
0.200375
-0.00221158
0.0100799
0.0334661
-0.043546
0.0429652
0.140412
0.0442664
0.0101429
0.0257847
-0.0361483
0.0928971
-0.0567489
-0.0267396
-0.000610112
0.0595123
0.0388247
-0.120075
0.277519
0.0946757
-0.0155462
-0.320339
-0.230117
-0.00912097
-0.0228516
0.00650576
-0.118267
0.0159175
0.0260305
-0.200363
-0.244232
-0.0282872
-0.00861283
0.0369001
-0.222777
-0.205645
-0.0404373
0.0494927
-0.00905546
-0.0732795
0.0793652
-0.0060857
0.0745766
0.0153963
0.198383
0.147752
-0.0290284
0.00246766
-0.0981106
0.0379473
0.0601633
-0.197575
-0.106784
-0.0308815
0.000990018
-0.0846881
0.18621
0.096025
-0.0782839
-0.0177411
0.137127
-0.119597
-0.0175308
-0.0324352
-6.1266e-05
0.328097
-0.017429
-0.11739
-0.226809
-0.254691
0.0964824
0.0210819
0.0282157
-0.185024
0.156808
-0.258349
-0.217207
0.0300378
0.0647389
-0.296053
0.0742006
0.0858531
-0.0972002
0.0891269
0.0289312
0.442272
-0.00233385
-0.0101502
-0.108097
0.267099
0.261815
-0.185276
-0.0765382
0.014658
-0.0431199
0.0284619
0.166959
0.172688
-0.339647
0.216209
-0.244529
0.02832
0.348611
-0.17353
-0.175081
-0.00681218
0.0443458
-0.0375336
0.174885
-0.30169
0.126805
0.000290413
-0.128262
-0.248771
0.377032
-0.0861801
0.230562
0.473337
-0.274662
-0.198675
-0.165298
0.00184917
-0.559963
0.434539
0.125424
-0.00399045
-0.00523728
0.00922772
-0.0130152
0.131806
0.112866
-0.0832803
0.180241
0.0894447
-0.269685
0.330871
0.163587
-0.494458
-0.562201
0.28342
0.0646274
0.175693
-0.204325
-0.302689
0.123241
0.0314179
0.00991922
-0.315681
0.494693
-0.179012
-0.158433
0.0389411
0.00821399
0.0187405
0.0208422
0.184209
-0.326291
-0.0230606
0.0211148
-0.173693
-0.103454
-0.0334819
0.00104676
0.29876
0.260583
-0.559343
-0.233613
-0.110353
0.0182498
-0.0224937
0.00424384
0.110388
-0.032628
-0.164247
0.0950042
-0.126729
-0.206996
0.106269
-0.115187
0.133035
-0.0178479
-0.13172
0.124154
-0.430524
0.18653
-0.00631075
0.0498871
-0.00745644
0.0167313
0.0100632
-0.0480826
-0.121332
-0.184138
0.192908
-0.00876993
-0.00636217
0.0910284
-0.24385
-0.0524371
0.33392
0.0849305
0.0149353
0.471799
-0.140928
0.082196
0.0215488
-0.067001
0.0577744
-0.073452
0.0896595
-0.0162075
0.0485332
-0.0506286
-0.257174
0.00637412
0.250799
-0.0924938
-0.0104058
-0.0185876
0.185336
-0.166748
-0.019182
-0.0693858
0.0885678
0.141326
0.143556
-0.284882
-0.0597587
0.53304
-0.273246
-0.259794
-0.428936
0.163149
-0.0436188
0.00578199
-0.477561
0.234717
-0.280761
-0.28144
-0.0139332
-0.100503
0.114436
0.0370542
0.156459
-0.193513
0.216524
-0.0427819
-0.377923
0.167702
-0.0426992
-0.0234285
0.0661277
0.0119751
0.0494991
0.0220629
-0.0557126
-0.114019
0.088614
0.0254051
-0.503176
0.119312
0.0498729
0.0457773
-0.0956502
0.146982
0.0031279
-0.145874
0.0675144
-0.0444058
0.0664687
0.060401
-0.00229659
-0.0581044
0.632241
-0.521132
-0.111109
-0.0509019
0.0900338
-0.0422893
0.0921622
-0.00138922
0.000209317
0.46705
-0.230462
-0.236587
-0.0385393
0.0454321
-0.00689288
-0.407659
-0.152303
0.00097486
-0.232153
0.409714
-0.177561
0.519905
-0.261292
-0.258613
-0.000509609
-0.00213822
0.00264783
-0.496205
0.259203
0.186506
0.239294
-0.4258
-0.258788
0.0115458
-0.00675533
0.00033642
0.00641892
-0.0880629
-0.0259561
0.321266
0.308074
-0.0971431
0.0209831
-0.384234
0.143335
0.240899
0.0330992
-0.0133935
-0.0197057
-0.312684
0.54702
-0.234336
-0.210622
0.28799
-0.0954822
0.0378879
0.0604676
0.209041
-0.269508
-0.169017
-0.224531
0.393548
-0.0163058
0.114659
-0.0983534
0.000856593
0.33805
-0.140849
0.446025
-0.151707
0.179923
-0.222003
0.0632669
0.158736
0.143739
-0.416423
0.184803
0.00224616
-0.390472
0.124467
-0.0880895
-0.207964
-0.20857
-0.0486036
0.141628
-0.194926
0.437527
-0.29717
-0.112075
-0.0130407
0.125116
-0.00360385
0.0350255
0.167981
0.107074
-0.275056
0.0285522
0.0329341
0.0561571
0.273108
-0.0315555
-0.138208
0.169763
-0.492114
0.260594
-0.34425
0.187711
-0.154419
0.175994
-0.021575
0.046631
-0.00322054
0.0200581
0.113998
-0.134056
0.596993
0.308281
-0.303982
-0.0885575
-0.0109534
-0.00676442
0.0484623
-0.0416978
-0.129065
-0.212756
0.341822
0.0105572
0.0941703
-0.104728
0.220979
0.0298005
0.18994
-0.0229265
-0.0405851
0.0115602
-0.0736823
-0.0916157
-0.00901795
0.0517193
-0.0427014
-0.166683
0.369934
-0.203251
0.462595
0.171067
-0.300132
0.283576
-0.544181
0.260605
-0.0325262
0.123881
0.127201
0.206131
-0.497489
0.291357
-0.310522
-0.236951
0.547473
0.530027
-0.289079
-0.240949
-0.223454
-0.20707
-0.0275834
-0.00329806
-0.367471
-0.262635
-0.00583296
0.00390766
0.0019253
0.286124
-0.155768
-0.130356
0.00155577
0.0665515
-0.00287262
-0.0636788
-0.336078
-0.237541
0.573619
-0.299687
-0.137027
0.0942217
-0.0690553
0.0776861
-0.0406582
-0.0370279
0.0611665
0.0100553
-0.0712219
-0.266638
-0.0314298
-0.0342425
0.0164469
-0.0973236
0.0642398
0.0701272
-0.0893092
0.296193
0.300822
-0.261331
0.111694
0.143592
-0.244495
0.0176516
-0.0796307
0.0619791
0.0335151
0.18167
0.234784
-0.118104
0.0300411
-0.0213145
0.0249324
-0.00361783
0.301119
0.0087579
0.0229569
0.0506397
0.205383
-0.214717
0.0093333
0.160113
0.0705849
0.00746722
0.00880891
0.128318
0.268616
0.198434
0.0121334
-0.0624799
0.280091
0.143559
0.142565
0.167816
-0.167879
6.24488e-05
-0.191842
-0.0301606
0.166979
-0.336271
-0.610496
0.461898
-0.162358
-0.229321
-0.056033
0.0736845