/*--------------------------------*- C++ -*----------------------------------*\
| =========                 |                                                 |
| \\      /  F ield         | OpenFOAM: The Open Source CFD Toolbox           |
|  \\    /   O peration     | Version:  v2012                                 |
|   \\  /    A nd           | Website:  www.openfoam.com                      |
|    \\/     M anipulation  |                                                 |
\*---------------------------------------------------------------------------*/
FoamFile
{
    version     2.0;
    format      ascii;
    class       volVectorField;
    location    "250";
    object      U;
}
// * * * * * * * * * * * * * * * * * * * * * * * * * * * * * * * * * * * * * //

dimensions      [0 1 -1 0 0 0 0];


internalField   nonuniform List<vector> 
13749
(
(1.01419 0.000670147 -3.06887e-21)
(1.06216 0.0206567 -1.42641e-20)
(0.987372 -0.00631961 0)
(1.02337 0.0593849 3.0506e-22)
(0.990807 0.048219 0)
(1.06119 0.0464375 1.67098e-20)
(0.96728 0.194314 1.05511e-20)
(1.03719 0.00957869 0)
(0.992665 0.00724481 6.93635e-22)
(1.02427 0.0578333 -4.67291e-22)
(1.06129 0.0168427 0)
(1.00069 0.00464247 1.01893e-20)
(1.042 0.0669298 -1.21869e-21)
(0.913835 0.0150643 0)
(0.751122 0.0111217 0)
(1.04382 0.00961879 -5.86078e-21)
(0.989551 0.0162514 -7.31475e-21)
(1.06196 0.0239551 0)
(1.00211 0.00379477 7.28638e-21)
(0.997175 3.41541e-05 -1.90743e-21)
(0.3316 0.000476848 -2.12429e-20)
(0.730946 0.0121334 3.46808e-21)
(0.975432 0.0172576 -2.5315e-21)
(1.06368 0.0119465 0)
(0.988679 0.0480063 0)
(1.05314 0.0348623 2.04837e-20)
(1.05108 0.0359512 6.98305e-21)
(1.04206 0.0528545 -8.99078e-21)
(1.01638 0.00606839 3.17662e-21)
(0.970979 0.0210662 -1.81457e-21)
(1.13521 0.211836 2.72055e-21)
(0.562763 0.0166428 0)
(0.922229 0.0483707 -1.46572e-20)
(1.05702 0.0133504 1.4525e-20)
(1.011 0.0120448 5.00569e-22)
(1.01499 0.0055512 0)
(0.986061 -0.0051914 8.90735e-21)
(0.99396 0.0208152 -9.7176e-21)
(1.03843 0.0295672 -3.84188e-21)
(1.05614 0.0210397 1.08772e-20)
(1.06051 0.0473255 -1.96535e-20)
(0.253752 0.00587258 1.4524e-20)
(0.940475 0.0245779 0)
(0.924096 -0.00378343 0)
(1.06196 0.0241162 -2.33298e-22)
(1.04048 0.0435701 0)
(1.00024 0.00454109 0)
(1.06165 0.0308501 9.14442e-21)
(1.01885 0.0144752 0)
(0.036328 -0.017119 -5.78127e-20)
(1.06387 0.0124605 2.65127e-21)
(0.343383 0.000169159 1.87832e-20)
(1.0564 0.0214156 -1.26222e-20)
(1.07156 0.0243717 9.15803e-21)
(1.00108 0.0830289 0)
(1.01829 0.0144727 -1.57303e-21)
(1.04595 0.0630781 -1.42071e-23)
(0.925371 0.0459539 0)
(1.01314 0.0150158 4.92386e-21)
(1.03283 0.0202049 -1.24402e-20)
(1.00246 0.0199337 4.46792e-21)
(1.026 0.0384936 0)
(0.578386 0.0146491 0)
(1.00058 0.00435961 -1.06631e-20)
(1.02417 0.0287075 8.83316e-22)
(0.947569 0.0145853 5.69315e-21)
(0.992525 0.00778419 -5.67119e-22)
(0.994515 0.0200704 0)
(1.04654 0.0101282 1.39463e-20)
(1.04017 0.0424338 0)
(0.749531 0.0143588 -2.03853e-20)
(1.00809 0.001488 5.17641e-21)
(1.05437 0.0223816 -1.0512e-20)
(1.01898 0.018596 3.39775e-21)
(1.06818 0.0128733 -3.98606e-21)
(1.07194 0.147754 -4.24505e-21)
(1.04307 0.0148569 0)
(1.01299 0.0155855 0)
(1.04623 0.061308 7.29863e-21)
(1.00002 0.000502245 0)
(1.01528 0.00584653 1.68323e-21)
(0.981733 0.0449681 -1.15941e-20)
(1.06408 0.0115385 2.99638e-21)
(1.01664 0.00630635 -2.0523e-21)
(1.05988 0.0588523 -6.78494e-21)
(1.05593 0.148082 9.86079e-21)
(0.948959 0.0143732 6.66084e-21)
(1.06496 0.0254257 5.36081e-21)
(1.01066 0.0115783 -5.22979e-22)
(1.0611 0.0300362 -7.40017e-23)
(1.00787 0.00790325 2.08828e-21)
(1.07229 0.0240677 0)
(1.02818 0.0334239 0)
(1.12875 0.0425844 0)
(0.774667 0.288928 0)
(1.05952 0.024946 8.42076e-21)
(1.04744 0.0208374 0)
(0.995783 -0.00345532 -7.77434e-21)
(1.00812 0.0017267 0)
(0.950114 0.0146995 9.32989e-21)
(0.452179 0.00775778 2.47057e-20)
(1.01454 0.00563825 0)
(1.04334 0.0185019 3.47394e-21)
(0.684776 0.0109921 -1.57644e-21)
(0.999783 -0.00107697 -2.18552e-21)
(0.701531 0.0107115 1.60965e-21)
(1.06301 0.032616 0)
(0.994832 0.00835024 1.19414e-20)
(1.06107 0.0295309 2.24373e-22)
(0.996423 0.00462027 1.0075e-20)
(1.00064 0.00491024 -9.89303e-21)
(0.937422 0.0248715 -8.98242e-21)
(1.06365 0.0327772 -6.66232e-21)
(0.453164 0.0488201 6.10121e-20)
(0.410971 0.00450368 -3.2071e-21)
(1.02848 0.018228 2.10299e-21)
(1.01428 0.00527947 -3.57486e-21)
(0.998937 0.0809306 -2.56595e-21)
(0.973121 -0.0119347 0)
(1.01469 0.0141202 -3.44634e-21)
(1.03679 0.00980308 -7.81242e-22)
(1.00015 0.000129527 -3.29596e-21)
(1.01499 0.00099494 2.39136e-21)
(1.01762 0.00470972 -6.12388e-22)
(0.985978 0.0449948 -2.64046e-21)
(0.758784 0.0148677 1.90164e-20)
(1.06088 0.0450253 0)
(0.728329 0.00707961 -1.0932e-20)
(1.04698 0.0279863 2.36995e-21)
(1.0583 0.0228552 1.97242e-20)
(1.0338 0.0549763 4.27576e-21)
(0.899923 0.0142229 -6.94176e-21)
(0.913181 0.0122611 -9.55435e-23)
(1.0696 0.0248362 4.48462e-21)
(1.05023 0.0544126 -1.21761e-20)
(0.959168 0.00308198 4.04909e-20)
(1.06862 0.0133342 0)
(1.01899 0.0136525 2.90681e-21)
(1.03444 0.0183807 4.90751e-23)
(0.0663197 -0.00754562 0)
(0.857383 0.0394759 4.84002e-20)
(1.05206 0.0250721 -2.2337e-23)
(1.04247 0.0296663 2.97197e-21)
(0.565796 -0.0149454 2.28722e-20)
(1.00907 0.00204444 2.04466e-21)
(0.0218153 -0.00860936 0)
(1.04333 0.0572917 5.43638e-21)
(0.995382 0.113866 -4.92438e-21)
(0.972896 -0.0054511 1.73225e-20)
(1.0606 0.0227829 1.21829e-20)
(1.0088 0.00189401 0)
(1.05585 0.0124696 0)
(0.731197 0.0101958 -8.48486e-21)
(1.07931 0.0218997 -2.23747e-20)
(1.04697 0.0119877 0)
(0.490803 0.0106492 0)
(1.04358 0.0554397 1.05608e-22)
(1.04795 0.0664219 0)
(1.06234 0.0207801 1.31337e-20)
(0.998873 0.0100527 1.92746e-20)
(0.678346 0.0989241 1.7831e-20)
(1.00305 0.00139777 -3.49898e-21)
(0.225565 -0.00746649 5.34696e-20)
(0.922559 0.0522138 1.73428e-20)
(0.997523 0.0015946 -7.23346e-23)
(0.998837 0.0158284 -2.23282e-20)
(1.06502 0.0259292 9.74402e-21)
(0.988041 -0.00671081 0)
(0.970261 0.0226896 -2.73151e-20)
(1.04227 0.0692292 -3.13543e-21)
(1.04282 0.0304786 0)
(0.996163 0.00485018 0)
(1.01912 0.0141083 0)
(1.05207 0.0195743 0)
(0.962012 0.00712295 4.83635e-21)
(0.97302 0.203174 0)
(1.07786 0.148693 6.59656e-21)
(1.04669 0.0124178 -3.7633e-21)
(0.70679 0.00774692 2.06508e-20)
(0.675969 0.00541327 3.50839e-21)
(0.999898 -0.000780412 1.97456e-21)
(1.05674 0.0129076 -5.54832e-21)
(1.04724 0.0231224 -6.46172e-21)
(0.82801 0.351739 -7.0949e-21)
(1.07136 0.0237955 -1.56785e-20)
(0.960218 0.00699578 0)
(0.551361 -0.0134215 -3.88066e-20)
(1.01292 0.0416759 -4.58466e-21)
(1.15656 0.0657923 4.631e-20)
(1.0029 0.0205201 -1.59267e-21)
(1.04757 0.0236944 1.22834e-20)
(0.96311 0.0167903 1.60152e-20)
(1.03968 0.0113868 3.16274e-21)
(1.07272 0.0493873 -2.99358e-20)
(0.534195 -0.0104269 6.44352e-21)
(1.06172 0.145992 -1.44691e-20)
(1.05999 0.0442436 8.29621e-21)
(-0.0873235 -0.0139502 0)
(1.01531 0.000719172 0)
(1.04655 0.0284672 4.44718e-21)
(1.01981 0.00833392 0)
(1.06311 0.0128368 1.16944e-20)
(1.04786 0.0643452 1.28962e-23)
(0.948283 0.0356845 1.86836e-21)
(0.609796 0.017953 5.15228e-21)
(1.03191 0.0235783 -1.20473e-21)
(1.01189 0.0139545 -3.23395e-21)
(1.07316 0.0482216 2.58058e-20)
(1.07143 0.0238276 0)
(1.06682 0.0381622 0)
(1.02907 0.0185417 -1.89779e-21)
(0.94534 0.0162542 1.52173e-21)
(0.212461 0.00305605 -1.8563e-20)
(0.863754 0.267211 5.1512e-21)
(1.052 0.0357849 -7.31455e-21)
(1.06994 0.043656 2.11249e-20)
(0.635248 0.0183409 0)
(1.05879 0.0154762 0)
(0.602521 0.0189612 -1.48767e-20)
(1.01596 0.00607639 0)
(1.18179 0.153447 -7.92926e-20)
(0.950828 0.0348863 0)
(1.07143 0.024452 -2.45456e-20)
(1.02672 0.0130899 0)
(0.950003 0.088125 1.18955e-20)
(1.06977 0.0235867 0)
(1.03217 0.0242918 0)
(0.849637 0.0400131 -5.35471e-20)
(0.619802 0.0177406 0)
(0.966724 0.0173545 5.32595e-21)
(0.991055 -0.00234962 2.23277e-20)
(0.999996 -5.10845e-05 -8.4937e-21)
(1.0002 0.000150708 0)
(1.00036 0.00455754 0)
(0.802382 0.0121139 1.61234e-20)
(0.984715 0.045767 1.36328e-20)
(0.983646 0.166495 -6.16647e-21)
(1.07171 0.0240014 1.47792e-20)
(0.997475 -8.2852e-05 1.74406e-21)
(0.990339 0.0160461 0)
(0.990943 0.0520381 -2.37936e-21)
(1.00181 0.0118634 0)
(1.02861 0.0201187 -5.144e-21)
(1.06125 0.0262841 5.77526e-21)
(1.06397 0.0556931 -2.1926e-20)
(0.569987 -0.0115311 -4.67563e-23)
(0.981587 0.0429078 2.7126e-20)
(0.590764 0.0214835 7.25035e-22)
(1.04112 0.040743 1.62277e-21)
(0.993062 0.00175085 5.18962e-22)
(0.147158 -0.0122326 -2.18732e-20)
(0.958985 0.00438838 -3.71173e-20)
(1.00625 0.000628622 -5.16533e-21)
(1.0283 0.0343591 2.89325e-22)
(0.855277 0.0740427 0)
(1.05132 0.0249739 7.05051e-21)
(0.994478 0.00799646 -1.18135e-20)
(0.191061 -0.00206667 -3.45028e-20)
(1.054 0.15512 -6.24937e-21)
(0.617502 0.0143415 0)
(1.02084 0.00876935 8.41161e-22)
(0.920492 0.0791736 7.20973e-21)
(1.06163 0.0302688 9.63655e-21)
(1.0202 0.0395516 1.2159e-21)
(0.972274 -0.00100692 2.10842e-20)
(1.06805 0.0136739 -2.16391e-21)
(1.06822 0.0240656 -2.63852e-20)
(1.05361 0.0355321 -1.17007e-20)
(0.896036 0.161395 2.56442e-20)
(0.848837 0.0683487 1.19428e-19)
(1.01554 0.00196973 5.81855e-21)
(0.376273 0.00568019 2.04826e-21)
(1.06098 0.0199079 -1.30866e-20)
(0.538395 -0.0148317 0)
(1.01256 0.0405861 5.56046e-23)
(0.523807 0.0119742 5.31309e-21)
(0.191008 0.00256548 -1.25638e-21)
(1.05348 0.0173696 1.04514e-20)
(0.850568 0.0582784 -4.21912e-20)
(1.05143 0.0195287 -6.3689e-21)
(0.999068 0.0151805 9.4962e-21)
(1.01728 0.0171656 2.16049e-22)
(1.09394 0.0240991 -3.72148e-21)
(0.283997 -0.00298372 -2.56645e-21)
(1.05302 0.0253439 -1.38119e-20)
(0.971646 -0.00644879 -1.91041e-20)
(1.05452 0.047079 -1.11654e-20)
(1.0137 0.015051 0)
(1.15452 0.0693528 -1.63075e-20)
(0.993538 0.0458795 0)
(1.06758 0.0249792 -4.69247e-21)
(1.01717 0.0149317 0)
(0.589784 0.0191247 2.16074e-20)
(1.06159 0.0165279 -4.80721e-21)
(0.7884 0.0120564 0)
(1.07128 0.0238404 -5.09874e-21)
(0.994935 -0.00267389 1.84713e-20)
(1.01396 0.0033933 0)
(1.03682 0.0253773 -6.9161e-21)
(1.01407 0.000816399 4.06463e-21)
(1.04347 0.0152427 -3.71448e-21)
(1.01091 0.0112024 -4.38544e-21)
(1.05582 0.0114785 0)
(0.128139 -0.00974284 2.02796e-20)
(1.05614 0.0119581 0)
(1.02127 0.00882873 2.25308e-22)
(1.02737 0.0147349 -3.74492e-22)
(0.997706 0.00141311 -7.67164e-21)
(1.03737 0.0125402 0)
(1.05334 0.0189019 0)
(0.357989 0.0053893 0)
(1.06058 0.0499931 -6.60976e-21)
(1.02094 0.032347 0)
(0.599696 0.00693357 3.84668e-21)
(1.01535 0.00171582 -3.76331e-21)
(0.991713 0.0458312 0)
(1.04377 0.0188399 4.3265e-21)
(0.787646 0.0128139 3.51968e-21)
(1.01523 0.0140637 0)
(1.04684 0.0154706 4.66933e-21)
(1.07042 0.0280588 0)
(0.308917 0.00835594 2.48331e-20)
(1.05685 0.026878 -1.0048e-22)
(1 9.37572e-05 0)
(-0.0767387 -0.017005 7.11756e-20)
(0.99993 -0.000136253 -7.74511e-21)
(1.01062 0.0107607 4.10705e-21)
(1.01935 0.0100078 0)
(0.993576 0.0111694 0)
(0.970885 -0.00195946 1.80602e-20)
(1.01908 0.010235 0)
(1.00063 0.00417149 1.151e-20)
(1.01793 0.00490626 1.17625e-21)
(1.04342 0.0519987 -4.39217e-21)
(1.02014 0.0324072 -1.26189e-21)
(1.03379 0.0182229 0)
(1.01839 0.0181907 -3.18503e-21)
(1.05057 0.0367427 0)
(0.993378 0.0107967 -3.36831e-22)
(0.946031 0.0897286 -1.5761e-20)
(0.995089 -0.00512386 -1.10665e-20)
(1.12544 0.219325 -3.16028e-21)
(1.01896 0.0396516 -2.36563e-21)
(1.02792 0.0136017 -3.03609e-21)
(1.06676 0.0372037 -1.07584e-20)
(1.03492 0.01821 -2.04886e-21)
(1.04619 0.0155447 0)
(0.966323 0.00359044 2.62294e-20)
(1.01324 0.0190223 5.2682e-21)
(0.994087 0.00988663 -6.88757e-21)
(1.00099 0.0241595 7.93657e-21)
(1.00064 0.0250588 0)
(0.131288 0.000664265 -2.12152e-21)
(0.815908 0.210472 7.06265e-20)
(1.02712 0.0383738 -1.0315e-22)
(1.00707 0.0177833 5.3445e-21)
(1.06052 0.0640118 1.42094e-20)
(1.06242 0.015609 0)
(1.03845 0.102432 -5.97e-21)
(1.14982 0.244696 6.52657e-20)
(0.991659 -0.00237245 0)
(0.999976 -6.90367e-05 7.65396e-21)
(1.01663 0.0148784 0)
(0.250988 0.00209434 0)
(0.8376 0.0275088 0)
(0.999542 0.0111645 -5.23815e-23)
(0.999603 0.115946 0)
(0.385112 0.00711612 -3.96523e-21)
(0.748607 0.010336 0)
(0.995531 -0.00139078 1.77994e-20)
(0.806381 0.0124634 0)
(1.05228 0.0247704 6.76321e-21)
(0.914261 0.0669235 6.23508e-20)
(1.00002 0.000381932 -6.92922e-21)
(0.999439 0.0106828 -4.51789e-21)
(1.03 0.031587 0)
(1.0325 0.106114 2.73519e-21)
(-0.0355224 -0.00978372 0)
(1.07856 0.0435028 7.91569e-21)
(1.04737 0.0219736 0)
(0.999511 -0.00120407 5.99056e-21)
(0.995481 -0.00392411 0)
(0.729417 0.0108947 -1.89537e-20)
(0.966705 0.00528386 -2.42287e-20)
(0.999894 -0.000111525 9.34071e-21)
(1.01218 0.000237122 2.99196e-21)
(0.54144 0.0188235 -4.77328e-21)
(1.00019 0.0203901 -9.00493e-21)
(0.999202 0.00977002 -1.91687e-20)
(1.04345 0.0179961 0)
(1.06136 0.0251069 0)
(1.07038 0.0244565 -1.17867e-20)
(0.517216 -0.0147767 0)
(1.00349 0.0243684 -7.07135e-21)
(0.963316 0.0383118 6.4445e-21)
(1.17286 0.146667 3.96651e-20)
(0.544573 0.087346 1.31753e-19)
(1.12726 0.197293 1.09096e-21)
(1.06047 0.0243307 5.79458e-21)
(1.07152 0.0236969 0)
(1.00327 0.00143842 -8.00974e-21)
(1.06058 0.0604294 0)
(1.00172 0.000451683 0)
(1.06395 0.0169843 0)
(1.03678 0.0125413 2.60342e-21)
(1.05298 0.0248492 4.46084e-21)
(1.04313 0.0139043 1.98643e-20)
(1.06048 0.0247548 2.23986e-20)
(1.06418 0.0153927 7.41599e-21)
(1.01354 0.0196166 0)
(1.03798 0.0239461 -3.31127e-21)
(1.04759 0.0186373 -4.86286e-21)
(1.06056 0.0242002 -6.871e-21)
(0.687861 0.00599146 0)
(1.02863 0.105684 5.67672e-22)
(0.999637 -0.000287371 -1.41888e-20)
(0.778493 0.0126821 0)
(0.796895 0.0119149 -1.11817e-20)
(1.05614 0.0129724 0)
(1.05949 0.025222 -9.57168e-21)
(0.99504 0.0112215 7.7923e-21)
(1.06044 0.0527175 0)
(1.16231 0.0796294 0)
(1.04278 0.0176632 -7.04366e-21)
(1.07056 0.024215 5.44889e-21)
(1.00278 0.00463118 8.57523e-21)
(0.897939 0.150995 -4.52384e-20)
(0.978241 0.253778 0)
(0.516714 0.0131414 -2.03667e-20)
(0.955219 0.194251 2.04975e-21)
(1.06338 0.0256755 -8.73228e-21)
(1.00003 0.000406848 -7.3532e-21)
(1.06125 0.0261041 -1.23081e-20)
(1.03505 0.102084 3.58504e-21)
(1.0795 0.0230348 0)
(1.04121 0.0417658 1.8987e-21)
(1.0309 0.0320225 -1.4269e-21)
(1.02314 0.0307178 -1.3376e-21)
(0.993137 0.0206742 -5.89171e-21)
(0.660396 -9.05378e-05 -4.10054e-21)
(0.9931 0.0072145 0)
(0.977191 0.0115457 -3.51054e-20)
(1.00001 0.000325419 -8.78809e-21)
(1.04768 0.0225555 7.21389e-23)
(1.02689 0.0563939 6.91441e-22)
(1.0204 0.00903937 0)
(1.00375 0.0045976 -1.18828e-20)
(0.847726 0.2727 -6.69915e-21)
(1.06315 0.0308556 -1.08337e-20)
(1.07968 0.0422831 1.34389e-23)
(1.09284 0.0246919 -3.9774e-21)
(0.953688 0.0175658 2.29401e-20)
(1.21391 0.206454 0)
(1.0179 0.0170144 -5.06248e-21)
(0.578245 -0.0143326 1.59881e-20)
(1.05204 0.0312808 8.17083e-21)
(1.02626 0.0578574 -7.19809e-22)
(1.04113 0.0596759 -4.0604e-21)
(1.01377 0.0113778 1.28021e-20)
(0.995966 -0.00146592 1.44392e-24)
(1.00138 0.000869682 6.04184e-21)
(1.00001 0.000166233 -8.28763e-21)
(1.0427 0.0172181 3.4763e-21)
(0.403399 0.00661553 -3.9166e-21)
(1.0378 0.0299781 4.082e-21)
(1.05357 0.00949361 -7.52037e-21)
(1.06195 0.0214353 0)
(1.10897 0.0799696 0)
(0.483225 0.0874158 -1.62618e-19)
(0.926157 -0.00703888 1.61682e-20)
(1.01883 0.0191191 -7.26879e-22)
(1.00327 0.00478126 3.79479e-21)
(1.10506 0.0817043 0)
(0.467856 0.0090747 0)
(1.00053 0.0196456 -2.31255e-22)
(0.995519 0.0108596 0)
(1.06061 0.0222135 0)
(1.06385 0.0623077 -8.13037e-21)
(0.993123 0.00222282 0)
(0.978406 0.0115513 2.1415e-20)
(1.04196 0.0544065 8.07556e-21)
(1.0373 0.0114935 2.40412e-21)
(1.02005 0.0100041 -1.63553e-21)
(0.579857 0.0180755 -8.06042e-21)
(0.500992 0.0137572 -5.94042e-21)
(1.17251 0.154469 2.72867e-20)
(0.245278 -0.00538839 0)
(0.571307 0.0135675 3.48078e-22)
(0.99871 0.0579271 0)
(1.04793 0.0181959 0)
(1.03719 0.0239906 0)
(1.03752 0.0111635 -8.78086e-21)
(1.00172 0.00134821 0)
(1.05619 0.0202086 3.22402e-21)
(1.01982 0.0102061 0)
(1.01701 0.0370295 -4.7829e-21)
(0.500886 -0.0140546 0)
(1.02309 0.0298775 1.21774e-21)
(0.225456 0.0288084 0)
(1.00716 0.0173376 0)
(0.970897 0.00257833 1.12092e-20)
(0.956525 0.0158391 9.82562e-21)
(1.04583 0.0150234 3.96479e-21)
(1.07324 0.0238972 1.03483e-20)
(1.02333 0.0280968 -1.60992e-21)
(0.526217 0.0125289 2.32843e-20)
(1.06138 0.018439 -1.65132e-20)
(1.06371 0.0173191 0)
(0.995323 0.020252 -1.05071e-20)
(1.01071 0.000246831 -1.87636e-21)
(0.999917 1.84221e-05 -6.64341e-21)
(1.03157 0.0221462 0)
(1.01142 0.0139425 7.07345e-22)
(0.314826 0.00934099 -7.49454e-22)
(1.04715 0.0159617 2.63984e-21)
(0.21216 -0.000486225 0)
(0.913659 0.0616036 -2.49652e-20)
(0.98085 0.0125111 1.90285e-20)
(1.05869 0.0150694 7.3972e-21)
(1.00212 0.00405582 -7.48004e-21)
(0.978577 0.0134513 2.17585e-20)
(1.20079 0.193507 1.86861e-20)
(0.98736 0.027505 1.5427e-20)
(1.06117 0.0186726 2.09095e-23)
(0.974609 0.0251017 0)
(1.02834 0.00982631 -3.94702e-22)
(0.99839 0.00540019 9.9033e-21)
(1.04962 0.0366176 -6.51346e-21)
(1.01621 0.0372683 0)
(1.07377 0.0524051 -1.18568e-20)
(1.00125 0.0257904 0)
(0.781884 0.318173 7.57644e-20)
(0.994161 0.10977 -1.94788e-21)
(1.05334 0.00996327 2.31123e-21)
(1.05197 0.0173205 -9.22497e-21)
(1.06131 0.0489594 7.33447e-21)
(0.986929 -0.00486716 -1.02907e-20)
(0.989069 0.0128456 -1.4386e-20)
(0.593801 0.0174844 9.02722e-21)
(0.780525 0.0131833 1.1621e-20)
(1.00207 0.0191817 1.69733e-20)
(1.16203 0.0741274 -3.16411e-20)
(1.06248 0.0217381 0)
(1.06866 0.0250827 1.4796e-21)
(0.0751522 -0.020868 5.43445e-20)
(1.06131 0.0172271 0)
(0.973404 0.0597575 1.02545e-20)
(0.616247 0.0153641 -5.46492e-21)
(0.411245 0.0039994 1.11087e-20)
(1.00055 0.014192 1.49148e-20)
(1.06167 0.015714 -1.57734e-23)
(0.960865 0.000205406 0)
(0.54992 0.0168196 -5.0886e-21)
(1.05902 0.0192409 -1.53645e-20)
(1.05641 0.0269069 -7.74243e-21)
(1.03764 0.0255742 3.84121e-21)
(0.99821 0.00520424 1.11462e-22)
(1.05643 0.0205944 0)
(1.04293 0.0117364 -3.94056e-21)
(0.441697 0.00928119 1.95695e-20)
(0.926192 0.015666 -5.67181e-21)
(1.01419 0.00369412 -1.77609e-21)
(1.02206 0.00885763 0)
(1.05234 0.0151103 -6.53993e-21)
(0.962701 -0.000459569 -1.43016e-20)
(0.622108 -0.00060741 -4.1044e-21)
(0.995314 -0.00223009 -1.87095e-20)
(0.992453 -0.00688977 7.22133e-22)
(1.01364 0.0287378 4.64295e-21)
(1.0701 0.0283533 -1.06685e-20)
(0.999609 -0.00121201 -7.22765e-21)
(1.08198 0.031621 6.05766e-21)
(0.61161 0.0150963 7.58353e-21)
(1.00156 0.000418327 -8.51521e-21)
(1.03366 0.0219482 0)
(1.02684 0.0146883 -4.46514e-22)
(0.662871 0.00596521 -3.68612e-21)
(0.448068 0.00811307 5.08951e-21)
(1.04797 0.0459992 1.01923e-20)
(0.938485 0.0920853 -7.61808e-21)
(1.03094 0.0329186 1.45357e-21)
(1.06459 0.0154597 -8.13377e-21)
(-0.0357787 -0.01837 8.99112e-20)
(0.930342 0.0468414 1.86062e-20)
(0.984188 0.0629062 0)
(0.999971 0.000341457 0)
(0.639595 0.657921 4.06775e-20)
(0.98181 0.0178235 1.2934e-20)
(1.00302 0.00485069 4.47065e-21)
(1.02908 0.0547764 -1.8324e-21)
(1.0463 0.0297913 -9.2221e-21)
(1.04153 0.0157735 0)
(0.997776 0.0568694 0)
(0.964069 0.0369623 -2.137e-20)
(0.921299 0.0146912 1.51673e-20)
(0.983915 0.0169993 1.11142e-20)
(1.01242 0.015591 -5.25528e-21)
(0.0843513 -0.0120661 -6.00914e-20)
(0.523551 -0.0138623 1.81089e-20)
(1.04706 0.0130271 0)
(1.04679 0.0134352 2.46065e-21)
(0.968142 0.0144064 6.69548e-21)
(1.06146 0.0250952 -6.84713e-21)
(0.482868 0.0120647 0)
(0.0425265 -0.023254 0)
(1.03803 0.0309365 0)
(1.05121 0.0312268 6.82184e-21)
(0.676136 0.00620417 0)
(0.0499287 -0.0213401 0)
(0.99997 0.000315793 4.68112e-21)
(1.00066 0.015749 -6.36352e-21)
(1.04246 0.0204898 6.43401e-21)
(1.00802 0.00761574 -8.91005e-22)
(0.634316 0.0142712 -1.05319e-20)
(1.06293 0.0132472 -1.42975e-20)
(1.04754 0.0469314 -7.52501e-21)
(0.995294 0.0823955 0)
(0.993108 0.0798953 0)
(0.995946 0.0149069 8.02226e-21)
(1.03996 0.0443283 0)
(1.05158 0.204884 7.71326e-21)
(0.995533 0.0102008 -2.08499e-20)
(1.06925 0.0248514 9.28197e-21)
(1.01444 0.0289342 -2.44631e-21)
(0.940444 0.387976 -4.91729e-21)
(0.586724 -0.0160028 -1.96343e-20)
(0.999686 -0.00117139 0)
(1.18305 0.133944 4.42639e-21)
(1.03965 0.0118561 9.76344e-22)
(0.994587 0.0102097 0)
(0.962348 0.0150483 3.31976e-21)
(1.02045 0.0130387 1.10932e-21)
(0.844285 0.0538094 -9.02474e-20)
(1.00429 0.0103464 -6.56e-21)
(1.04628 0.0166481 7.91563e-21)
(1.00231 0.00311425 0)
(1.04582 0.0139767 -1.86897e-21)
(1.0326 0.0185664 -2.79651e-21)
(0.953379 0.0141803 -3.49435e-21)
(1.01435 0.018491 0)
(1.0177 0.0103885 1.24362e-21)
(0.993074 0.00965771 0)
(1.00506 0.0129705 0)
(0.527731 -0.0152054 -2.21675e-20)
(1.07296 0.0346066 0)
(1.05141 0.0173661 1.18715e-20)
(1.0723 0.034214 0)
(0.987772 0.0284411 5.34382e-21)
(0.306391 0.00789725 -4.20703e-21)
(0.757436 0.0104919 -3.20338e-21)
(1.01572 0.00112514 2.78879e-21)
(1.05327 0.0184217 -6.95269e-21)
(1.0636 0.012839 -5.71343e-21)
(1.02246 0.00875723 -5.18317e-22)
(1.00149 0.000776178 -6.26375e-21)
(1.05247 0.030782 -1.14894e-20)
(1.08042 0.0317375 1.04834e-20)
(0.486422 0.0106798 0)
(1.06076 0.0225436 0)
(0.999953 0.000415618 -5.04591e-21)
(1.02408 0.0295644 0)
(1.07412 0.0510046 3.8405e-20)
(0.999815 -0.000635225 -1.03034e-20)
(1.06348 0.0259 -4.07816e-21)
(1.0016 0.0014426 0)
(0.429229 0.00995889 -2.55553e-20)
(1.00063 0.0412352 0)
(1.0038 0.0124257 7.14019e-21)
(0.998248 0.000264461 0)
(1.01719 0.0177358 0)
(0.82625 0.0115987 5.71687e-21)
(1.06107 0.0258544 0)
(1.07097 0.024492 -9.64489e-21)
(1.02032 0.00932452 0)
(1.04313 0.0121214 3.58293e-21)
(1.10328 0.0593744 -4.7495e-22)
(0.951319 0.0175163 -1.21706e-20)
(1.03735 0.0314282 -5.62781e-21)
(0.572385 0.0166551 4.10955e-22)
(0.621133 0.0198586 -5.79371e-21)
(1.06208 0.0237591 -1.49794e-20)
(1.00361 0.00173969 2.97276e-21)
(1.19145 0.17003 1.12077e-19)
(0.869003 0.0316667 1.1403e-20)
(0.983035 -0.00429652 2.82006e-21)
(1.02087 0.00775122 6.67355e-23)
(1.06695 0.151452 2.09287e-20)
(1.06782 0.0397867 -5.96721e-21)
(1.01571 0.00577087 -3.86321e-21)
(0.458757 0.0107859 1.08872e-20)
(0.10575 -0.0144741 5.36007e-20)
(1.05161 0.0543525 3.02959e-21)
(0.997169 0.0398365 -1.31872e-20)
(1.0191 0.0167292 -1.7532e-21)
(1.01806 0.0106837 -2.63084e-21)
(0.652801 0.0143723 7.74444e-21)
(1.02136 0.109153 3.80833e-23)
(1.01468 0.000789656 0)
(0.94955 0.0833094 2.20089e-20)
(1.01117 0.0186479 -4.90678e-22)
(1.04202 0.040083 0)
(1.02019 0.00812383 -1.13699e-21)
(0.988063 0.0453978 0)
(1.02868 0.0561638 1.83375e-21)
(0.999935 0.000390489 0)
(1.04297 0.0137823 5.68433e-21)
(0.996451 0.107536 8.21593e-21)
(0.953809 0.0149029 -1.86521e-20)
(1.06141 0.0160431 -1.47837e-20)
(1.10413 0.0860639 7.65268e-21)
(1.05606 0.0109631 0)
(1.06134 0.051499 7.12997e-21)
(0.469692 0.0126433 2.50559e-21)
(1.04155 0.0578293 -1.05444e-21)
(1.04618 0.0144636 -4.07177e-21)
(1.07845 0.0209384 3.11991e-20)
(0.494013 0.0142537 0)
(0.996091 -0.00183042 -1.7723e-20)
(0.367312 0.0116438 -2.24182e-22)
(1.04511 0.0469572 -1.6106e-20)
(0.971253 0.0551275 -1.71068e-20)
(0.903868 0.0456142 -2.00387e-20)
(1.00063 0.0210641 8.88723e-21)
(0.0857211 0.0650758 7.19776e-20)
(1.00593 0.000780192 5.94227e-21)
(1.06297 0.0175423 -1.23886e-20)
(0.354582 0.00715274 0)
(0.999032 0.0228139 8.73775e-21)
(0.979496 0.0400736 -1.80027e-20)
(1.06596 0.0294496 -1.33034e-20)
(1.00731 0.0152123 0)
(1.09743 0.0510179 -1.65326e-20)
(1.04781 0.215172 -6.61695e-21)
(1.00898 0.0151674 3.06353e-21)
(1.18296 0.142237 -4.88351e-21)
(1.06083 0.0258277 0)
(1.01986 0.00871133 0)
(1.03505 0.0740275 -3.92568e-21)
(1.02995 0.0306463 2.91829e-22)
(1.01214 0.029253 -1.23545e-21)
(0.932493 0.0158573 8.93655e-21)
(0.982281 -0.00506203 -1.56774e-21)
(1.05244 0.0191573 -7.68126e-21)
(0.998981 0.0105246 0)
(1.13084 0.235868 0)
(1.01561 0.00104079 0)
(0.9722 0.000387263 -2.02282e-20)
(1.00041 0.0234206 8.18612e-21)
(0.944727 0.0757095 -1.89845e-20)
(0.861483 0.0306713 1.28209e-20)
(0.760215 0.0115812 3.25145e-21)
(1.06076 0.021991 0)
(1.00421 0.0246289 -4.17303e-21)
(1.00348 0.00493463 2.73431e-21)
(1.06068 0.023036 -1.76588e-20)
(1.13125 0.0447642 0)
(1.03236 0.0223423 0)
(1.0042 0.0128745 1.2088e-20)
(1.01069 0.0133494 -1.35248e-21)
(1.0464 0.0472493 8.58083e-21)
(1.01472 0.0156587 4.51338e-21)
(0.946304 0.0147181 0)
(0.999799 0.000491164 -1.04577e-20)
(1.05747 0.0154095 -7.52363e-21)
(1.07327 0.0239132 -6.18203e-22)
(0.781708 0.012479 1.36669e-20)
(0.999931 -0.000672171 0)
(1.00465 0.010632 7.0346e-21)
(0.999147 0.000847327 4.84981e-21)
(0.991986 0.0534905 2.60443e-21)
(1.14064 0.0573091 -3.61332e-20)
(0.560335 0.0157772 0)
(0.742854 0.0114826 0)
(1.0622 0.0271148 0)
(0.917688 0.0762884 0)
(0.719956 0.0110604 1.06377e-20)
(0.99543 0.0153235 0)
(0.994459 0.0476066 -9.20205e-21)
(1.0616 0.0243944 1.93139e-21)
(1.04618 0.0171411 0)
(1.01965 0.0335217 3.04729e-21)
(1.05222 0.0136924 0)
(0.976042 0.0178604 0)
(1.03652 0.0130784 5.22905e-21)
(1.0141 0.0118363 2.29406e-20)
(1.04122 0.0152389 0)
(0.564786 -0.0160225 2.37156e-20)
(0.996465 0.00555726 0)
(0.416937 0.0101578 -1.18903e-20)
(0.470867 0.0147672 0)
(0.787918 0.012327 -1.62361e-20)
(0.672905 0.0187551 -1.1529e-20)
(1.06246 0.0221378 0)
(1.05619 0.0193827 -6.37425e-21)
(0.487172 -0.018395 -3.71074e-20)
(1.01115 0.0133761 1.27486e-21)
(0.98298 0.0651648 0)
(0.996351 0.00214451 -3.34889e-21)
(1.1158 0.108304 0)
(1.00388 0.00491772 4.19018e-21)
(1.14644 0.474159 -8.3019e-20)
(0.767619 0.167038 1.75196e-20)
(0.981097 0.102724 -1.1237e-20)
(1.00011 0.0189784 -6.97835e-21)
(0.99016 0.0251564 0)
(0.737795 0.0117179 2.01458e-20)
(0.988833 0.0522764 0)
(0.975708 0.0591158 -6.24395e-21)
(1.00194 0.00707707 0)
(0.915547 0.0144553 -2.84488e-21)
(1.1062 0.0642636 0)
(1.06211 0.0216612 0)
(1.07089 0.0459184 2.51865e-20)
(0.382499 0.00827709 -1.81821e-22)
(1.01508 0.0282142 -1.94682e-21)
(0.434998 0.0116974 -1.48881e-20)
(1.06263 0.0222868 -7.96895e-21)
(1.12871 0.0428621 0)
(1.04774 0.0214507 0)
(1.07231 0.0464744 -3.21987e-20)
(0.957265 0.0199508 1.23943e-21)
(1.08364 0.0341032 -2.35458e-20)
(1.00194 0.00359164 0)
(1.0478 0.0203361 2.6052e-21)
(0.832485 0.0353632 0)
(1.00543 0.00663435 0)
(0.748615 0.0109621 3.29801e-21)
(0.772626 0.0124596 -2.1438e-20)
(0.567959 0.0173423 -2.57554e-21)
(0.727579 0.0115128 -1.76518e-20)
(1.06168 0.0243497 0)
(0.97329 0.0167612 0)
(0.968913 0.00759948 0)
(1.15522 0.26053 -6.76888e-20)
(1.00379 0.00187529 -8.94582e-21)
(1.10385 0.0288708 8.39251e-21)
(1.0858 0.03575 -2.38327e-20)
(1.03427 0.0538364 -4.27323e-21)
(1.06766 0.0245231 1.22301e-22)
(0.865937 0.246895 -2.01177e-20)
(1.11446 0.0981235 -1.81618e-20)
(0.990911 0.0005098 0)
(0.987412 0.161518 7.44527e-21)
(0.412779 -0.0253802 0)
(0.996198 0.0053973 0)
(1.04131 0.0249919 2.50498e-21)
(1.00336 0.00409382 -3.13209e-21)
(1.00012 0.00426798 0)
(1.00239 0.00338501 5.07633e-22)
(0.833054 0.0120439 -4.04645e-21)
(0.999733 -0.00064574 2.32051e-20)
(1.01543 0.0173171 2.43836e-21)
(1.0606 0.0245802 -1.78713e-20)
(0.996246 -0.00490992 8.11932e-21)
(1.05299 0.0173066 -1.24021e-21)
(1.00658 0.0168141 4.75269e-21)
(0.900478 0.0421909 3.37165e-20)
(1.0359 0.0130832 -1.26831e-21)
(0.793366 0.274677 4.68691e-21)
(0.99859 0.00127009 6.89553e-21)
(0.735773 0.125497 8.1046e-20)
(0.649037 -0.00610214 9.95944e-21)
(1.07096 0.0442363 -2.60994e-20)
(1.0669 0.0138924 0)
(1.05349 0.0253353 -1.16129e-22)
(0.913988 0.386316 -1.89371e-21)
(1.0654 0.0295094 1.72552e-20)
(0.816511 0.0126444 3.99316e-21)
(0.908379 0.148866 0)
(0.997993 0.00153505 1.1849e-20)
(0.622819 -0.0134961 0)
(0.954847 0.0198159 -2.21134e-20)
(0.460289 0.0131098 5.18404e-21)
(1.03206 0.0553502 -1.59515e-21)
(1.08529 0.0346124 0)
(1.12213 0.0432784 -2.59386e-20)
(1.0619 0.0270694 0)
(0.999977 -0.000117599 -1.13026e-21)
(1.04408 0.0125493 1.68365e-21)
(0.671225 0.0168134 8.15576e-21)
(1.04178 0.0245246 -1.00913e-20)
(1.03248 0.0136823 -6.17701e-21)
(1.04437 0.0287005 3.42087e-21)
(1.06656 0.0230552 9.15206e-21)
(1.05903 0.0189353 1.0008e-20)
(1.06267 0.0215315 2.85017e-21)
(0.928415 0.014693 -1.09899e-20)
(1.00745 0.00626285 -1.00712e-20)
(0.769178 0.0118653 1.0748e-20)
(1.0675 0.0210792 1.02644e-20)
(1.00191 0.00904869 9.25233e-21)
(1.02741 0.0196753 -5.90365e-22)
(0.701429 0.00593213 6.72247e-21)
(1.0158 0.0284196 7.4509e-21)
(1.06885 0.0415836 6.01175e-21)
(0.488388 -0.0246982 -8.99342e-22)
(0.998034 4.56745e-05 1.18532e-22)
(1.06326 0.018636 0)
(1.01186 0.0721792 1.41764e-21)
(1.05666 0.0109633 -1.20359e-20)
(1.02679 0.0193245 0)
(1.00175 0.00875761 3.87682e-21)
(1 7.92811e-05 0)
(1.06782 0.0387218 1.2433e-20)
(0.783469 0.0129272 0)
(1.00357 0.0141332 1.00001e-20)
(1.00553 0.00698126 0)
(0.933873 0.0107074 4.53541e-21)
(1.11753 0.0433276 2.18598e-20)
(1.05939 0.0620793 -1.40753e-20)
(0.995562 -0.00316744 1.39879e-20)
(1.01412 0.0156132 3.47586e-23)
(1.01479 0.019042 0)
(0.999948 0.000285196 0)
(0.996014 0.00997092 1.29955e-20)
(0.977273 0.101821 3.66316e-21)
(0.966215 0.0465316 1.06524e-20)
(0.766117 0.184888 -6.04102e-20)
(1.15016 0.0919994 1.3147e-21)
(1.05767 0.0101476 1.32982e-20)
(1.06199 0.0235458 -2.19518e-21)
(0.964553 -0.00295661 1.03833e-22)
(0.999574 -0.00020813 1.38683e-20)
(1.02998 0.0172523 4.80984e-22)
(1.10137 0.0289115 0)
(0.906358 -0.00325474 -1.45397e-20)
(1.06396 0.0333338 3.72189e-21)
(1.02932 0.0162286 -2.06167e-20)
(1.00002 0.000315258 8.02828e-21)
(1.11805 0.10399 1.90387e-20)
(1.05095 0.0256052 0)
(1.06218 0.0150029 0)
(0.996638 0.00209413 6.2113e-21)
(1.06751 0.024208 2.04056e-20)
(0.970164 0.0323804 8.32015e-21)
(0.999854 4.53096e-05 -1.22942e-20)
(0.968275 0.0105011 1.16949e-20)
(1.01657 0.00103378 2.29589e-21)
(1.06287 0.0123152 -1.02348e-20)
(1.05304 0.0321363 -2.21806e-21)
(0.9104 0.139196 2.23042e-20)
(1.00224 0.00347626 -4.95445e-21)
(0.795887 0.011748 -1.78372e-20)
(1.00001 0.000201758 0)
(0.449672 0.0151691 -8.20802e-21)
(0.574637 -0.0152687 -1.14532e-20)
(0.99904 0.00302514 0)
(0.59554 -0.0108651 0)
(1.00743 0.000901819 0)
(1.00715 0.0146103 0)
(0.990941 0.0247029 -8.33633e-21)
(1.00001 0.000173823 0)
(1.0295 0.0174804 -1.10798e-22)
(0.986579 0.00315982 5.84111e-21)
(1.01144 0.0193004 0)
(0.994655 0.00886745 0)
(1.01284 0.00339777 -2.12855e-21)
(0.97335 0.0238468 0)
(0.99536 0.159918 0)
(0.807661 0.0123921 0)
(1.0208 0.0166999 -8.20965e-23)
(0.52782 0.0174265 0)
(1 4.16531e-05 0)
(0.970752 0.00113208 2.26722e-20)
(1.0511 0.0201169 7.45095e-21)
(0.962791 -0.00234057 -1.41771e-20)