/*--------------------------------*- C++ -*----------------------------------*\
| =========                 |                                                 |
| \\      /  F ield         | OpenFOAM: The Open Source CFD Toolbox           |
|  \\    /   O peration     | Version:  v2012                                 |
|   \\  /    A nd           | Website:  www.openfoam.com                      |
|    \\/     M anipulation  |                                                 |
\*---------------------------------------------------------------------------*/
FoamFile
{
    version     2.0;
    format      ascii;
    class       surfaceScalarField;
    location    "200";
    object      phi_0;
}
// * * * * * * * * * * * * * * * * * * * * * * * * * * * * * * * * * * * * * //

dimensions      [0 3 -1 0 0 0 0];
oriented        oriented;


internalField   nonuniform List<scalar> 
21222
(
0.0469275
-0.0788854
0.0319579
0.0323506
-0.00117039
-0.0311802
-0.232609
0.207716
0.0248931
0.194114
-0.0944496
-0.0996644
0.0391654
-0.122226
0.083061
0.302501
-0.26901
-0.033491
-0.0106558
0.0040929
0.00656285
0.0310036
0.130286
-0.16129
0.0698846
0.110403
-0.180288
-0.0141461
-0.264655
0.278802
-0.0979055
0.0509744
0.0469311
0.0160464
-0.00951482
-0.00653161
0.0512472
-0.00431969
0.434371
-0.584499
0.150128
-0.0131746
0.0147143
-0.0015397
-0.0244177
0.529457
-0.505039
-0.15978
0.190784
-0.333172
-0.0902352
0.423407
-0.137149
0.186647
-0.0494979
-0.180934
0.0437853
0.343652
0.0913092
-0.434961
-0.0228831
0.0207164
0.00216677
-0.161236
0.192936
-0.0316993
0.00724677
0.00879966
-0.0924786
0.149532
-0.0570533
0.035467
-0.0031164
0.387245
-0.4538
0.0665555
-0.00869218
-0.00196358
-0.10021
-0.00885908
0.109069
0.156281
-0.179859
0.0235781
0.254224
-0.259645
0.00542116
-0.0790705
-0.325627
0.404697
0.544391
-0.393142
-0.151248
-0.0626049
0.00946091
0.053144
-0.00118456
0.000608866
0.000575695
0.0255832
-0.0248814
-0.000701781
0.0380357
-0.020644
-0.0173917
0.030125
-0.17655
0.146425
-0.0916012
0.136596
-0.0449946
-0.107994
-0.00355777
0.111552
-0.0137039
0.0137039
-0.00465036
0.0118475
-0.00719716
-0.086326
0.246715
-0.160389
-0.576495
-0.0104702
0.586965
-0.194346
-0.0278559
0.222202
0.047819
-0.140298
-0.101997
0.0434358
0.0585611
-0.015596
-6.23742e-05
0.0156583
-0.0152651
-0.000330817
0.201553
-0.534725
-0.0128696
0.015478
-0.00260846
0.0962554
0.0978585
-0.00106266
0.0139283
-0.0128657
0.0166872
-0.0103541
-0.00633308
0.184616
0.0923145
-0.27693
0.0259364
-0.000353289
0.0267782
-0.0301208
0.00334256
-0.170518
0.00742647
0.163091
0.463806
-0.155041
-0.308766
0.0207838
-0.253393
-0.0368508
0.146711
-0.109861
0.0580742
-0.0668959
0.00882171
-0.0292072
0.0247276
0.00447953
-0.282329
-0.182848
0.465177
0.0380075
0.110016
-0.148024
0.0287632
0.0122625
-0.0410257
-0.0438319
0.06255
-0.0187181
-0.512126
0.0642799
0.447846
-0.475587
0.193258
0.26838
-0.0837643
0.00804388
0.00864335
0.034735
-0.175108
0.140373
-0.00161097
0.000426413
-0.00198119
-0.00391081
0.005892
-0.245032
-0.117122
0.362153
-0.00386206
-0.00361411
0.00747617
0.00424336
0.197684
-0.201928
0.0408841
-0.0351692
-0.00571487
-0.220025
0.0256784
-0.0808416
-0.380495
0.312263
-0.520582
0.208319
0.022743
-0.008068
0.187546
-0.152811
0.034781
0.0061031
0.314283
-0.422054
0.107771
-0.382269
0.115322
0.266946
0.0118412
-0.0157033
-0.00703406
0.00749151
-0.000457455
-0.0147621
0.00158757
-0.0315004
-0.066405
0.188155
-0.228785
0.0406295
-0.130972
0.0861945
0.044778
0.501699
-0.189436
0.104095
0.225327
-0.329422
-0.0116249
0.0128105
-0.00118562
0.0117
-0.0101009
-0.00159912
-0.245662
0.159336
-0.010784
0.0121997
-0.00141571
-0.00166341
0.00154263
0.000120782
0.0880495
-0.0455741
-0.0424755
0.0294638
-0.54159
-0.0155262
0.0162401
-0.000713992
-0.00327071
0.266305
0.257595
-0.5239
0.048481
0.0395685
-0.137107
0.0455059
-0.00779647
-0.000421062
0.00821753
-0.01032
0.0107279
-0.000407873
0.21416
-0.231275
0.0171151
-0.146562
-0.0165917
0.163154
0.00121489
0.0104851
-0.0533237
0.26137
-0.208046
-0.00826952
0.000473056
-0.284315
-0.0993679
0.383683
-0.270077
0.391125
-0.121048
-0.00956244
0.000110265
0.00945218
-0.447369
0.163054
-0.0134587
0.0141601
-0.000701359
0.00742981
-0.00859134
0.00116153
0.00924188
-0.00924188
0.146181
-0.102782
-0.043399
0.217334
-0.262491
0.0451564
-0.533946
0.116992
0.416954
-0.0114244
0.0132138
-0.00178938
-0.112708
0.0124979
-0.572111
-0.00438428
0.0131344
-0.0425856
0.0294512
-0.137886
0.516871
-0.378986
0.113196
0.282312
-0.395508
-0.0571116
-0.0738608
0.00306116
-0.00187389
-0.00118727
-0.000964614
-0.0033244
0.00428901
-0.0800215
0.0697733
0.0102481
-0.00421425
0.00660484
-0.00239059
0.0100531
0.146228
0.129559
0.241983
-0.371543
0.180827
-0.299411
0.118584
-0.0349651
0.0363283
-0.0013632
-0.365534
-0.00105849
0.366592
-0.351778
0.106746
-0.0382153
0.00325019
-0.0103368
0.0121926
-0.00185584
-0.222335
0.169012
-0.0110352
0.000251268
-0.16788
0.0213176
0.0017249
-0.00056232
-0.00116258
-0.134978
-0.00536172
0.14034
0.0592729
-0.085467
0.026194
-0.209854
-0.0313527
0.241206
-0.107125
0.0233108
0.0838144
-0.0181636
-0.214069
0.232232
-0.014119
0.014119
-0.328122
0.254719
0.0734031
-0.279481
0.069627
0.1145
-0.0753346
-0.0143173
0.000858609
0.169868
0.0676671
-0.237535
0.371384
-0.395802
0.242619
0.059882
-0.0345593
0.00250506
0.0320543
0.239375
0.224431
-0.0142257
0.00135611
0.078512
-0.0663443
-0.0121677
-0.0129623
0.0139378
-0.000975436
-0.0550469
-0.17642
0.231467
-0.00948923
-0.00083077
-0.00463686
0.00578751
-0.00115066
-0.00759499
0.0858756
-0.0782806
0.0074926
-0.00947378
-0.000297458
-0.000667156
-0.0999854
0.0808472
0.0191382
-0.596475
0.588755
0.00771955
-0.00652619
-0.000507865
0.246793
-0.260939
-0.246918
0.211238
0.0356798
0.0265854
0.0114503
-0.42443
-0.0620467
0.486476
-0.0257375
0.0225992
0.00313837
0.0147446
-0.0139688
-0.000775809
0.00246407
0.000597091
0.0744466
0.0499831
-0.12443
0.227531
-0.223288
-0.0952442
-0.438702
0.120108
-0.000320286
-0.119788
-0.211999
0.21448
-0.00248141
-0.127409
0.176485
-0.0490761
0.0164526
-0.124447
0.000544418
-0.132851
0.132306
0.00184036
-0.00216476
0.000324398
0.113613
0.0112099
-0.124823
-0.1983
0.0370641
-0.0326414
-0.0677479
0.100389
-0.00671608
0.0075704
-0.000854316
-0.0154382
0.0107878
-0.207854
0.474333
-0.26648
0.00179983
-0.00922582
0.00742599
-0.133231
0.0963797
0.18175
0.194095
-0.375845
-0.272367
0.424199
-0.151832
0.0783957
-0.0625404
-0.0158553
0.0133545
-0.011932
-0.00142247
0.199183
-0.228401
0.0292175
-0.0149941
0.00203175
0.000255674
-0.00697176
0.257953
-0.376231
0.118278
0.155878
-0.155231
-0.000647509
-0.119699
0.157706
-0.0393072
0.204463
-0.165155
0.617354
-0.38562
-0.231735
0.00695926
-0.00970014
0.00274088
0.13067
-0.145139
0.0144686
-0.445505
0.336293
0.109212
-0.0119432
0.00160642
-0.182812
0.150179
0.0326327
0.00193748
-0.0045596
0.00262212
0.00724269
-0.00850056
0.00125787
0.0304403
-0.0442854
0.0138451
-0.00286403
0.00120062
-0.000385098
0.00232258
0.0178094
-0.162143
0.144334
-0.0543283
0.253511
0.207945
0.00621509
-0.00555864
0.168957
-0.163398
0.0119812
-0.185783
0.173802
0.0652877
-0.00721346
-0.236518
0.279848
-0.0433304
-0.589008
0.589008
0.129163
-0.00905425
0.000229389
-0.0113824
-0.0200416
0.031424
-0.0653319
-0.523676
0.204576
-0.259623
0.00194361
-0.109069
-0.137775
-0.499962
0.637737
0.172585
-0.00181596
0.0469721
-0.0451561
0.195749
-0.225229
0.0294803
0.158547
-0.197854
-0.000452241
0.000567253
-0.000115012
0.000935101
0.000956342
-0.00189144
-0.240168
0.344263
0.203976
-0.24363
0.039654
-0.0418003
0.0327369
0.00906344
-0.0111279
9.41802e-05
0.0110337
-0.0542329
-0.0459355
0.100168
-0.0691041
0.0615091
0.043334
0.00315249
-0.0464865
-0.603402
0.140198
0.463204
0.00166178
-0.000726682
0.133563
-0.0231305
-0.110433
0.394343
-0.43303
0.0386866
0.383297
0.00983215
-0.00788941
-0.00194274
-0.0198695
-0.000137748
0.0200072
0.184741
0.0469899
-0.231731
-0.0137493
0.0136885
6.08594e-05
-0.165448
0.236414
-0.0709659
-0.00149926
0.157378
-0.00827803
-0.000258216
0.00853624
-0.16745
-0.00731584
-0.0558254
-0.024196
0.257754
-0.0404197
-0.0121429
0.000718518
0.0943106
0.0392529
0.100999
-0.0933871
-0.00761174
-0.2244
0.0589523
-0.0282498
0.121363
-0.0931127
-0.0344012
0.238377
-0.0464439
-0.335825
-0.01095
0.0116435
-0.000693551
0.030661
0.00174646
-0.0324075
0.298818
-0.264635
-0.0341832
-0.0182418
0.131855
-0.00843023
-0.00113221
-0.142879
0.196034
-0.0531558
-0.037401
0.0450243
-0.00762334
0.00238555
0.00685633
-0.0242761
0.0099599
0.000445782
-0.0104057
0.0856128
0.043708
-0.129321
0.226931
0.027293
-0.146254
0.312721
-0.166467
0.00294285
-0.00207282
-0.000870023
0.0163997
0.108756
-0.378833
-0.0118617
-0.00141065
0.0132724
-0.0010099
0.00729529
-0.00779872
0.000503431
-0.00657191
0.00235766
-0.0213468
0.00087182
-0.0267965
-0.220121
-0.00117375
0.0106019
-0.00942819
0.00523933
-0.00749566
0.00225634
0.00963391
0.000325992
-0.0358513
0.145867
-0.0441584
0.192096
-0.147938
-0.0108145
0.00132522
-0.00452358
-0.178289
-0.374942
0.308561
0.0663805
-0.454987
0.182621
0.225441
-0.0372858
0.00967198
-0.0108457
-0.0133225
0.0725954
0.000971073
0.0247965
-0.0257676
0.0697648
-0.197173
-0.0446247
0.358907
0.00306983
-0.00189226
-0.00117757
-0.000283986
-0.351203
-0.182908
0.53411
-0.15053
0.383053
-0.232523
0.0152696
-0.00176288
-0.0135068
0.075773
0.349412
-0.425185
0.00883941
-0.00159673
-0.0090738
0.0103833
-0.0013095
-0.0752419
-0.0560513
0.131293
-0.0955179
0.0960623
0.397605
-0.284409
-0.18998
-0.0344197
-0.338026
0.132339
0.205688
-0.0206289
-0.575846
0.0017296
0.130665
-0.118365
-0.0123007
0.00869463
-0.00173537
0.049166
-0.23867
0.189504
-0.0955031
0.0596967
0.0358064
0.21303
-0.420883
-0.00916178
-0.00165267
-0.111958
-0.0251488
0.0468952
0.243813
0.0199551
-0.209936
-0.00567459
0.00505507
0.00061952
-0.691797
0.500825
0.190972
0.000156625
0.00472914
-0.00292931
-0.518212
0.239003
0.27921
0.00761283
-0.0023735
0.00538916
0.00444299
0.0107875
-0.00944795
-0.00133958
0.00857363
-0.00733524
-0.0012384
-0.235391
0.417141
0.0714207
-0.0902999
0.0188792
-0.219183
0.570043
-0.35086
0.0162646
-0.619667
-0.000806343
-0.0495292
0.0503355
0.0694358
-0.52835
0.458914
-0.406314
-0.0267161
0.056048
0.000946781
-0.0569948
0.00665745
-0.141635
0.0102972
-0.00891104
-0.00138616
0.449488
-0.633854
0.184366
-0.0463689
0.227196
-0.0028467
0.00135896
0.00148774
-0.0094233
0.00990108
-0.000477786
-0.0349031
0.0353919
-0.000488835
-0.397435
0.152242
0.245193
0.397579
-0.139626
0.356252
0.240763
-0.316864
0.499096
-0.182231
-0.00982166
-0.00112831
-0.020496
-0.081501
0.104126
-0.00312732
-0.0140463
-0.0990804
0.00569329
0.0427584
-0.0472571
0.00449865
-0.000974235
-0.505904
0.368018
-0.0106492
-0.000478683
0.000870052
0.0020728
-0.216823
-0.0428225
-0.0794547
0.15043
-0.0709751
-0.0242567
-0.303865
0.429713
0.188503
-0.618217
-0.042769
0.00536796
-0.0043976
-0.001277
0.120216
-0.148465
-0.0947249
-0.243301
-0.334936
-0.183276
-0.170628
-0.226807
-0.00449746
-0.00385611
0.00835357
0.00999857
-0.0137072
0.00370866
0.0357261
0.15182
-0.440364
0.5098
-0.0177376
-0.0822478
-0.0869733
-0.0313443
0.118318
-0.0141729
0.0154089
-0.00123599
-0.152777
0.147218
0.00176351
-0.0155128
-0.0152821
0.00110921
-0.103607
0.130859
-0.0272513
-0.364027
0.187608
0.00207604
0.00289812
-0.0621526
-0.000452328
0.00143265
-0.0105064
0.00863425
-0.00825477
-0.000379483
0.0898128
-0.156785
0.0669725
0.0165181
0.43297
-0.144636
-0.0866388
-0.00338807
0.0010487
-0.231689
0.159835
-0.0612495
-0.0985856
-0.11404
-0.28789
0.40193
-0.00181874
-0.0137074
-0.0165937
0.00131154
0.149515
-0.153659
0.0041445
-0.00574596
-0.00189161
0.00763757
0.111154
0.0195108
0.00275049
0.101376
-0.0230029
0.00723922
0.0157637
-0.221251
0.449676
-0.228424
0.00103562
0.00154831
-0.00258393
-0.0126116
0.011549
0.11039
-0.154548
-0.189591
0.452638
-0.263047
-0.406889
0.482662
-0.133337
0.127975
0.00959668
-0.00919033
-0.000406349
0.116145
-0.467348
0.0529169
-0.10715
0.239371
0.059447
0.0268284
-0.0158603
-0.0109681
0.0226381
-0.134596
0.0591101
0.100725
-0.500824
-0.190973
-0.0115981
0.000562806
-0.00107075
-0.131692
0.166448
-0.0347567
0.187078
-0.218131
0.0310523
0.0373372
-0.252236
0.0119595
-0.0118045
-0.000155007
0.00176897
0.446232
-0.146343
0.216228
-0.129239
0.025632
-0.288357
0.158307
0.130049
-0.134483
0.178051
-0.0435677
0.00967442
-0.00825639
-0.00141803
0.128822
-0.0359089
-0.0929133
-0.314948
-0.0599943
-0.0306944
0.0108249
0.232999
0.185867
-0.418866
-0.00285229
0.00478533
-0.00193304
-0.131935
0.178993
-0.148868
0.00864454
0.128905
-0.137549
0.0346549
-0.121628
-0.0107291
-0.000868986
0.509537
-0.315353
-0.194184
-0.208711
0.220692
0.0601913
-0.0041433
0.00816771
-0.0110529
0.00288516
-0.184437
-0.274738
0.459175
0.199459
-0.213522
0.0140627
-0.243483
0.0972291
0.0116853
-0.000928961
-0.0107563
-0.0607603
0.103355
-0.0425951
-0.0099876
0.0107894
-0.000801849
-0.00154732
0.00258294
-0.153146
-0.014734
-0.35008
0.27826
0.0718196
-0.00352587
0.0473638
-0.0438379
-0.0121499
-0.00261223
-0.173249
0.0387654
-0.014753
-0.00184062
-0.0209958
0.0941521
-0.0731563
0.0138814
-0.00388286
-0.165477
0.0123315
-0.0143239
0.213783
0.00119594
-0.0306615
0.252856
-0.222194
-0.129475
0.169183
-0.0397081
0.0100163
0.000280942
0.171487
-0.204576
0.0330885
-0.0119712
3.92079e-05
-0.23222
0.123463
0.108757
0.559661
-0.407007
-0.152653
-0.297918
0.241046
0.0568715
0.0115162
-0.0014999
-0.00377549
0.167386
-0.0120399
-0.155346
-0.0131851
0.000819812
0.0123653
0.0302676
-0.159743
0.00401816
-0.00471077
0.000692609
-0.000775809
0.0103725
-0.0794382
0.153885
0.645436
-0.278753
-0.366683
0.00748565
0.00108798
0.0614765
-0.201773
0.140296
0.169031
-0.151222
0.209662
-0.430913
-0.118624
0.0578635
0.0119355
-0.252298
0.240362
-0.131245
0.0560036
-0.145927
0.152355
-0.00642802
0.00121179
0.000513114
0.443336
0.126269
-0.569605
-0.0459896
0.192655
-0.146665
-0.00664591
-0.00653921
-0.0286628
-0.00955247
0.0532341
-0.000378069
-0.00884775
0.0130221
-0.0141946
0.00117241
-0.00712606
0.211702
0.528837
0.191355
-0.380946
-0.00344596
-0.000156319
0.00360228
-0.153885
0.0200214
0.133864
-0.010309
-0.13257
0.283565
0.0368107
-0.0403366
0.0606996
-0.325355
-0.207401
0.296941
-0.08954
0.194997
0.110381
-0.305378
-0.00571622
0.019538
-0.00426839
0.109583
-0.0699978
-0.039585
0.00129901
0.0714278
-0.0722342
-0.194916
0.108762
0.0861536
0.0129836
3.85029e-05
-0.207751
-0.0806063
0.290187
-0.13188
-0.1068
-0.00590748
0.0401326
-0.109908
0.0697749
0.00141526
-0.0276608
0.274454
0.0065595
0.436777
0.156157
-0.175205
0.0190482
0.0274558
-0.392989
-0.060695
0.293694
0.0240896
0.143296
0.133838
0.331064
-0.464902
-0.120146
0.441061
-0.320915
0.100517
-0.122836
0.0223183
0.00201017
0.247774
-0.0630331
-0.00201043
-0.128265
0.160345
-0.0320797
-0.618346
0.451053
0.167293
0.00135588
-0.285036
0.0772858
0.0064348
-0.00499726
-0.00143754
0.124703
-0.133239
0.00853517
-0.29659
0.0891891
0.159866
-0.200455
0.0405888
-0.271093
0.240337
0.0307565
-0.0900891
0.1451
-0.0550105
-0.16132
0.0296279
-0.00917265
-0.000250651
0.164419
0.132522
0.239957
-0.247083
-0.0037777
0.0101246
-0.00634693
-0.0115988
0.00710139
0.0063804
-0.0350432
-0.0759526
0.111079
-0.0351264
-0.107324
0.000524099
0.0739842
-0.333409
0.259424
-0.33253
0.261227
0.0713027
0.194273
0.00220279
-0.000424809
-9.75654e-05
0.000522374
-0.00288517
0.000992915
-0.117765
-0.0361203
0.14251
-0.0568976
-0.122215
0.155314
-0.033099
0.0359407
0.351304
-0.345618
-0.272728
-0.226347
0.202796
0.0235505
-0.223772
0.320206
-0.0964336
0.0465166
0.0173934
-0.06391
-0.140678
0.520413
-0.379736
-0.00150634
-0.0126882
0.142174
-0.155589
0.0134154
-0.00894738
0.0103521
-0.00140475
-0.579833
0.579833
-0.202887
0.184793
0.0180935
0.292622
-0.371692
0.0391253
0.0127361
-0.0518614
-0.119593
0.553964
-0.0415093
0.0394515
0.00205777
-0.0589689
0.143545
-0.0845765
-0.306717
-0.147083
-0.112078
0.0780983
0.0339794
-0.499772
-0.2397
-0.0313936
0.509745
-0.555107
0.0453621
-0.204223
0.148576
-0.129805
-0.0187712
-0.27642
0.246957
0.0294629
0.00486796
-0.000849795
0.442931
-0.351621
-0.151159
0.0610702
0.145297
-0.175629
0.0303324
0.137527
-0.152288
0.0147616
0.32469
0.174406
-0.0635545
0.0730154
-0.14759
0.0206333
0.126957
0.0316321
-0.00760079
0.00616015
0.00144064
0.0211519
-0.207535
0.186383
-0.0727334
0.111803
-0.0390699
0.00745229
-0.00809017
0.000637877
-0.000823151
-0.0105592
0.302321
-0.137902
-0.411236
0.537505
0.00180453
0.0029246
0.215447
-0.319326
0.103879
0.161635
0.0209336
-0.182569
0.0523219
-0.0217309
-0.0305909
-0.00500572
0.000368865
0.131552
0.00149899
-0.133051
-0.00543447
0.00646524
-0.00103076
-0.194158
-0.390342
-0.0186179
-0.0436536
0.0622716
0.0917465
-0.156863
0.0651168
-0.0136326
-0.034319
-0.00970686
0.0440259
-0.482944
0.298507
0.13559
-0.486342
0.350752
0.137259
0.00491514
-0.0229891
0.243287
-0.270948
-0.143283
0.0210679
-0.00207271
0.00353511
-0.00146239
0.127057
-0.418867
0.467511
-0.157757
-0.309755
-0.000655816
0.0160197
-0.0153639
0.0162618
-0.0505808
-0.00713243
0.00868974
-0.00155732
-0.167625
0.493842
-0.326217
-0.104342
0.16068
-0.0563378
-0.41937
0.0824975
0.336873
0.281277
0.263113
-0.00167338
0.120471
-0.531707
0.00139347
-0.00195579
-0.0381505
-0.0078853
0.0506437
0.13646
-0.371851
-0.268985
-0.0325914
0.301576
0.192099
-0.0322331
0.231187
-0.182021
0.0108571
-0.0112685
0.000411389
-0.00405248
-0.0311975
0.0352499
-0.00414174
-0.000863979
-0.235846
0.217683
0.187235
-0.208526
0.0212912
0.350281
0.240186
-0.590468
-0.253955
0.0371323
0.0485234
-0.0197602
-0.0177671
0.00745507
-0.00740265
-5.2418e-05
0.173749
-0.0284518
-0.124692
-0.0232186
-0.0411364
0.064355
-0.0468136
-0.165185
-0.225697
0.22366
0.00203735
-0.155893
0.027628
0.00967759
-0.0134553
-0.320962
0.0971896
-0.252349
0.0266523
-0.113753
0.0410194
0.0211432
-0.0320567
0.0109134
0.0933633
0.0529917
-0.146355
0.0178129
0.00901557
-0.0371053
0.502658
-0.465552
0.227238
-0.0725894
-0.154649
-2.57174e-05
-0.0465715
0.21644
-0.000388969
0.218364
0.249147
0.030811
-0.309463
-0.0230671
0.00835133
-0.334436
-0.111069
-0.0134338
-0.0308696
0.0443034
-0.000738394
0.00138132
-0.00064293
0.62007
-0.258015
-0.362054
0.0679273
-0.028802
0.415436
0.204634
-0.3921
0.330054
-0.0960542
0.0501187
0.00221209
0.0318682
0.195604
-0.227473
0.0100971
-0.000882817
-0.00921424
-0.0045359
-0.0037731
-0.00190819
0.00568129
0.031885
-0.00510674
-0.449812
0.331971
0.117841
-0.0625041
-0.183158
-0.168004
-0.379129
0.272775
0.106354
0.198534
-0.177382
-0.33311
-0.0460193
-0.0367395
-0.0587636
-0.0459584
0.0394838
0.00647466
0.184031
-0.227166
0.0431351
0.0302035
0.205747
-0.235951
-0.0775349
0.292982
-0.290631
0.401706
-0.111075
-0.00218978
-0.000656921
-0.548319
0.548795
-0.000476533
-0.138895
0.0799266
0.062106
-0.192333
0.0103964
-0.000917674
-0.00947876
0.0405806
-0.0552141
0.0146335
0.145215
-0.00242308
-0.142792
-0.020186
0.0195302
-0.103212
-0.00257229
0.105785
-0.00488533
-0.00881856
-0.142034
-0.0389001
-0.512735
-0.0376989
-0.381672
-0.270525
0.267047
0.00347784
-0.165639
-0.00487833
-0.0386778
-0.25924
-0.179295
0.202702
-0.0234069
-0.223184
-0.0165158
0.164702
0.0625359
-0.00824419
0.0113185
-0.0030743
-0.471737
0.304112
-0.121131
-0.111089
0.173727
-0.121166
-0.0525608
-0.100909
0.326236
0.219012
-0.156677
-0.0623355
-0.0207045
-0.141439
-0.27887
0.0729166
0.205953
0.031742
0.0205798
0.406455
-0.535511
0.315928
0.219583
-0.0026244
0.0022352
-0.00285263
0.000617431
0.00132575
-0.00339846
0.0154797
-0.0361237
-0.240211
0.369771
0.00186686
-0.13294
0.10389
0.0290499
0.152703
-0.392915
0.00228133
0.0130545
-0.0153358
-0.646702
0.426506
0.220197
-0.504361
0.178734
0.185093
-0.191508
0.00641463
0.174601
-0.0044761
0.00569477
-0.00121867
-0.270158
0.206861
0.0632971
-0.0223288
-0.0194715
0.0646295
-0.250413
-0.0032852
-0.147024
0.0675693
-0.0832595
-0.111656
0.201973
-0.126769
-0.0752046
-0.015276
1.08919e-05
0.0584768
-0.0119603
0.00269615
-0.0888522
-0.00642887
0.108344
-0.101915
-0.000634321
-0.106718
0.107352
-0.000346423
0.448963
0.196472
-0.00148702
0.00513894
-0.00365191
-0.000825015
0.0128953
-0.0120703
-0.0495049
0.102422
0.0372584
-0.0068181
-0.54466
0.400262
0.144397
0.00590147
0.00780243
0.136111
0.121642
-0.0153618
-0.0503036
0.0368697
0.00312763
-0.00215978
-0.000967849
0.047397
-0.283915
-0.351238
0.273703
-0.00207771
-0.0209252
-0.0078408
0.00835284
-0.000512035
0.0741674
-0.0633512
-0.502134
0.282951
0.0693085
-0.119067
0.0497586
0.000809437
0.00146635
-0.00227579
0.00139253
-0.000583093
0.0873994
-0.0900939
0.00269447
-0.258196
0.035012
-0.0226406
0.0505796
-0.0536241
0.00304448
0.00313063
-0.00201897
-0.00111166
-0.0262872
-0.0183139
0.0143988
-0.117762
-0.0151774
-0.435659
0.315512
0.1158
-0.390595
-0.0235529
0.414148
-0.162546
-0.0369427
0.199489
-0.0628253
0.156189
-0.0502645
0.053417
0.268586
0.185227
-0.453813
-0.157976
0.225643
-0.19742
0.229289
0.0159551
-0.017718
-6.5289e-05
-0.128396
0.032878
0.00100033
-0.00876529
0.000924481
0.0905458
-0.314935
0.224389
0.0129497
-0.0157641
0.00281443
-0.314125
-0.221385
-0.250171
0.257271
-0.00710012
0.214837
-0.019233
-0.0667199
0.0508552
0.0158647
-0.0146596
-0.000616467
0.307947
0.309407
-0.00795744
0.00948879
-0.00153135
-0.143575
0.122642
0.0209329
-0.000258349
0.000409092
-0.000150744
0.0387647
-0.0917223
0.126377
-0.00513464
-0.00670748
0.0118421
-0.163482
0.109257
0.0542254
-0.00542378
-0.00617506
-0.169301
-0.313643
-0.0899832
-0.249953
-0.0923355
0.0917012
-0.0170914
-0.0954303
0.299272
-0.203842
-0.273525
0.00300025
-0.18722
0.024674
-0.180676
-0.00732512
0.188001
-0.0150955
-0.000764827
-0.401933
0.111302
-0.264814
0.27675
-0.00479976
0.0215561
-0.0167563
0.00809179
-0.00117035
-0.00692143
-0.0112229
0.00297872
0.0657089
0.0150677
-0.0807766
0.21119
-0.250127
0.0389368
0.00275243
-0.029821
-0.363456
0.499046
0.000192418
-0.00433416
0.153788
-0.0309817
-0.122807
0.010238
-0.00886155
-0.00137646
0.00399249
0.00346258
0.00156221
-0.106509
-0.00245263
0.108962
-0.000988323
-0.0128323
0.0138207
-0.144556
0.126949
0.0176073
0.0256793
-0.0695111
-0.000516459
0.00190899
-0.162299
0.159727
-0.411697
-0.0852147
0.496912
-0.135398
-0.289464
0.424862
-0.0499871
0.0436023
0.00638481
0.00351507
-0.0541556
-0.125703
0.00188331
0.0143568
0.0474044
0.14525
0.000819945
-0.00993675
0.00911681
-0.0240706
0.037205
-0.232323
0.216661
0.0156615
0.0339408
0.0286092
-0.0958555
0.0977991
0.00825363
-0.00105898
-0.00719465
0.111096
0.0426928
-0.213645
0.121557
0.0920874
-0.202759
0.232963
-0.50508
0.367305
0.146169
-0.14026
-0.00590942
-0.198895
-0.0165711
0.215466
0.0849906
0.0611901
-0.167682
0.591231
-0.265787
-0.325444
-0.0593655
-0.291873
-0.00220766
-0.00156544
0.243735
0.150912
-0.394648
-0.471357
-0.0837504
-0.0687801
-0.420526
0.489307
0.0223049
0.123864
0.232988
0.00847345
-0.241461
-0.0412477
0.131061
0.00214475
-0.228492
-0.0135228
0.0130564
0.000466389
-0.165737
-0.113133
-0.508281
0.367603
0.150932
0.240194
0.02521
-0.0492806
0.2384
0.102108
-0.340508
-0.0122357
-0.190405
0.429541
-0.239136
-0.000255712
0.0250522
0.427697
-0.306176
-0.121521
0.00628776
0.000177476
0.0079309
-0.00817836
0.00024746
-0.654826
0.149746
-0.057037
0.0369955
0.0385572
0.0991849
-0.0260453
-0.0731396
0.0010548
0.21249
-0.229783
0.0172933
-0.14791
0.028211
-0.0847817
-0.0142987
0.00842112
-0.000490222
-0.0939838
0.371907
-0.277923
-0.037039
0.0304592
-0.133241
-0.251811
-0.0246087
0.00837837
0.00496612
-0.0133445
-0.0494838
-0.53035
-0.0140285
0.000505631
-0.00924516
0.0103352
-0.00109006
0.00306654
0.00272097
-0.0552359
0.00211879
-0.0503182
0.0481994
0.00994483
-0.390643
0.0562072
0.000465467
0.0136535
-0.251878
0.404581
-0.338061
0.0978932
-0.00343268
0.0049237
-0.00149102
0.0199854
0.0024161
-0.0224015
0.294674
-0.0509389
-0.16562
0.0353719
0.130248
0.0669513
-0.0827396
0.0157883
-0.139951
-0.0736933
-0.000136501
0.000496695
-0.000360194
0.377016
-0.0684545
-0.0120235
0.0316423
-0.443339
0.0231521
0.0553599
-0.0845503
-0.0597981
0.0452167
-0.113519
-0.237741
-0.417085
-0.00227125
0.0528508
0.0142453
-0.205894
0.191649
-0.105378
0.107802
-0.00242378
0.0292224
0.12794
-0.157162
-0.420318
0.266477
0.153841
-0.0393034
-0.00328216
0.120205
-0.126835
0.00662918
0.00141061
0.0105489
-0.00270775
-0.10267
0.287906
0.139791
-0.0907796
0.00599797
0.0201701
0.225852
-0.246022
0.262371
-0.321737
0.135789
-0.025312
-0.110477
-0.0299892
-0.0428645
0.0728537
0.00092339
-0.00350303
-0.00151426
0.00501728
0.0189668
0.0815506
-0.140082
-0.000177541
0.0572468
0.00294456
0.0276988
-0.00655559
0.00528442
-0.00964343
0.00435901
-0.032947
-0.0231085
0.0540054
-0.0308969
-0.246447
0.0323781
0.535733
-0.187552
-0.34818
-0.431857
0.296459
0.145256
-0.16754
0.0222847
0.0140544
-0.0140544
-0.00956802
0.010388
0.538785
0.00600937
-0.0103949
0.00438553
-0.00629658
-0.098665
0.104962
-0.522626
0.298997
0.223629
-0.0850085
0.0708117
0.0141968
-0.0255855
-0.024049
0.0239113
0.0802231
-0.0580217
-0.0222014
0.134339
-0.146733
0.0123941
0.0894073
-0.0958362
0.00996292
-0.0763072
0.62174
-0.367575
-0.254165
0.00170249
-0.0156713
0.331524
-0.165271
-0.0864174
0.251689
-0.0261808
-0.0699622
0.0810511
-0.0295446
-0.0515065
0.203358
-0.224696
0.021338
0.412839
0.157204
-0.0381487
0.0414297
-0.003281
-0.370604
0.27662
0.0102974
-0.001919
-0.341605
0.236947
0.104658
-0.0083418
0.00962197
-0.00128017
0.132644
-0.122591
-0.315614
-0.104704
0.000308904
0.00155703
-0.00565519
0.00409816
0.0116185
-0.0124435
0.014682
-0.000535102
-0.0141469
0.00277044
0.0519112
0.0533042
-0.105215
0.0986192
-0.0316679
-0.0137602
-0.104819
0.121272
-0.179588
0.23568
-0.0560915
0.010598
0.00328342
0.00882128
-0.0364806
-0.0700284
-0.14863
0.0620562
0.0865741
-0.22743
0.317976
0.0224189
-0.0473627
0.152747
-0.105384
0.00135265
0.245613
0.249837
-0.0636715
-0.186166
0.00871978
-0.0059006
-0.00281918
0.0006502
0.0110351
0.000275387
-0.0341003
-0.00956756
0.00994165
-0.000374091
-0.0168037
-0.0499163
0.011298
0.0657041
-0.0770021
0.0398712
-0.00713431
0.00113814
0.0783589
-0.138332
0.0599733
0.145797
0.0164187
-0.162215
-0.0450728
-0.208882
0.146241
-0.45904
0.312798
0.110729
0.0912442
0.00263463
0.00608515
-0.0125323
0.0140052
-0.00147299
-0.26778
0.00016339
-0.000588198
0.0109962
-0.000615712
-0.0103805
-0.493304
0.133485
0.359819
-0.139696
-0.0186741
0.15837
0.00685851
-0.00778748
-0.365934
-0.00164143
-0.00338024
0.143188
0.292456
-0.435644
-0.367801
0.259895
0.107906
0.11753
-0.123827
0.18199
-0.214816
0.0328262
-0.0493153
-0.00168161
0.00107226
0.00060935
0.44268
-0.479785
-0.0360299
-0.14273
0.0785288
0.0642011
-0.08712
-0.324176
0.411296
0.656108
-0.318262
-0.337845
0.190668
-0.129191
-0.122521
-0.040961
-0.140671
0.409256
-9.11249e-06
0.132627
0.00316252
-0.0290589
0.23719
-0.208131
0.00483659
-0.067347
0.0625104
-0.00844629
-0.000837878
0.00928417
-0.0392841
0.22318
0.189688
-0.412868
0.0727619
0.0460329
-0.118795
0.145511
0.236239
-0.38175
0.202923
-0.0101909
-0.00178039
0.198472
0.145959
-0.169719
0.0237604
0.00287665
-0.371269
0.284149
-0.00408237
-0.00320965
0.00729202
0.00318757
-0.00215754
-0.00103003
0.11595
-0.0431882
0.0216202
0.434951
-0.456571
0.0229622
-0.162658
0.0316032
-0.0172495
-0.0143537
0.460621
-0.538891
0.0782704
0.0163595
-0.21378
-0.00206451
0.00875229
-0.00723378
-0.00151851
-0.139634
0.0525461
0.0870882
-0.0782527
0.0482635
7.04351e-05
0.00261378
0.04475
0.142915
0.026116
0.0744504
0.0197017
-0.0544796
0.00449249
-0.00737135
-0.00140711
0.00877847
-0.0555398
0.0414098
0.0141299
-0.253952
0.274122
0.00715377
0.0316102
-0.038764
0.210435
-0.101437
-0.108998
0.0100613
0.064106
0.115495
0.0582542
0.00987223
-0.209389
0.0496083
0.00693543
0.00854261
-0.054393
-0.0614882
0.115881
0.339301
0.113337
0.169575
-0.200237
-0.257801
-0.26131
0.519111
-0.0766518
0.116784
-0.102935
-0.000434306
0.00089439
-0.000460084
0.0122357
-0.0419463
0.00661266
0.0353337
0.204601
-0.383452
0.178851
0.00468874
-0.00507841
0.000389667
-0.000252749
-0.406918
-0.00944708
0.00984585
-0.000398768
-0.193602
0.183696
0.00990598
-0.00263018
-0.0110795
0.0137097
0.219285
-0.20504
0.00226995
-0.00135657
-0.000913381
-0.000475882
-4.05778e-05
-0.355527
-0.0351165
-0.00741837
-0.000759992
0.438716
-0.220351
0.000784569
-0.183702
0.230692
0.0401368
0.0894896
-0.129626
0.0340561
-0.110009
-0.0966252
0.291622
-0.0988809
0.107388
-0.00850734
-0.0666498
0.158396
-0.128606
0.0368836
0.00766862
0.0966036
0.113832
-0.0265716
0.0231515
0.00342009
0.0137957
-0.00319769
-0.0166923
-0.143478
0.16017
0.0353692
0.093453
0.132553
-0.125895
-0.00150245
0.00567689
-0.000988146
0.00663077
0.0030253
-0.00718267
0.00415736
-0.113978
0.0150971
0.188092
-0.0131432
-0.0169776
0.0152319
-0.00632822
0.0028252
0.331583
-0.257599
0.0387165
-0.250044
0.211328
0.0544062
-0.0497239
-0.00468233
-0.00131725
-0.0538968
0.194552
-0.289982
-0.000217653
0.000824638
-0.000606985
0.0831974
-0.0687747
-0.0144228
0.13967
-0.0572217
-0.0824482
-0.00953562
0.00861795
-0.0855089
0.0912589
-0.00575008
0.0619013
-0.000125747
-0.0617756
0.574297
-0.262311
-0.311986
0.0440835
0.08045
-0.124533
0.0010425
0.373276
-0.179181
0.0688591
-0.0442615
-0.0245975
0.164345
0.42091
-0.585255
-0.00375672
0.0022697
-0.0235046
0.0381381
0.360659
-0.501578
0.140918
0.0149813
0.0394249
0.136551
0.0190834
-0.155635
-0.229812
0.51359
-0.283778
-0.0102171
-0.0638378
0.0354982
0.0283396
0.0770069
0.243107
-0.262468
0.0193609
-0.0163344
0.00119472
-0.00141237
-0.0193833
-0.0890595
-0.0273485
0.116408
-0.0247683
0.559776
-0.409329
-0.150448
0.297755
-0.514346
0.216591
0.391525
0.00397532
0.00592577
-0.0487904
0.311162
0.00131839
0.25501
-0.256069
-0.0936022
-0.0163053
0.206901
-0.159497
0.000164643
-0.000375772
0.00021113
0.0523215
0.0981082
0.250717
-0.212001
-0.474729
0.0841347
0.230406
-0.0224609
-0.0714495
0.0865171
0.100212
0.00758977
-0.15658
0.424863
-0.268283
-0.00683223
0.00857937
-0.00174714
0.119928
0.0342116
-0.15414
-0.306011
-0.148976
0.0112935
-0.0106433
-0.00580698
-0.0356492
0.0414562
-0.013541
0.00200177
-0.61449
0.349687
0.264803
-0.0543519
0.0502994
0.00978138
-0.00958816
-0.000193217
0.0691191
-0.11976
0.050641
0.00601004
-0.00445302
0.00409876
0.104245
0.0811254
-0.35011
0.0408292
-0.0594471
-0.271029
-0.0967718
0.0404787
-0.0940266
-0.0456078
0.365503
0.0229104
-0.12773