/*--------------------------------*- C++ -*----------------------------------*\
| =========                 |                                                 |
| \\      /  F ield         | OpenFOAM: The Open Source CFD Toolbox           |
|  \\    /   O peration     | Version:  v2012                                 |
|   \\  /    A nd           | Website:  www.openfoam.com                      |
|    \\/     M anipulation  |                                                 |
\*---------------------------------------------------------------------------*/
FoamFile
{
    version     2.0;
    format      ascii;
    class       volScalarField;
    location    "150";
    object      nut;
}
// * * * * * * * * * * * * * * * * * * * * * * * * * * * * * * * * * * * * * //

dimensions      [0 2 -1 0 0 0 0];


internalField   nonuniform List<scalar> 
14033
(
2.8769e-05
0.0149257
0.000440052
0.00044292
0.000426464
0.000448021
0.0170243
0.000451563
0.000443004
0.00828279
0.000425163
0.000469372
0.00044845
0.000448282
0.000426368
0.00045491
0.000450161
0.0106178
0.000445374
0.000450867
0.000453809
0.000469167
0.000507358
0.000426427
0.000421251
0.000445387
0.00055334
0.000522226
0.0159308
0.000782632
0.000451976
0.000452515
0.000522984
0.000467702
0.00350438
0.000446288
0.00752958
0.00844991
0.000427218
0.000449103
0.00867906
0.000453534
0.000436797
0.000430412
0.000373861
0.000436677
0.00862893
0.000447892
0.00142522
0.00707777
0.000448008
0.000445663
0.00381804
0.00615587
0.000450236
0.000448562
0.000691684
0.00973627
0.000469613
0.000451764
0.000424913
0.00715444
0.000472395
0.000435426
0.000438005
0.000433895
5.50308e-05
0.000510257
0.00044134
0.000451311
0.000439501
0.000449659
0.0084755
0.000450969
0.000454066
0.000432662
0.000449154
0.000452062
0.0147383
0.000665588
0.000433455
0.0137717
0.00349229
0.000443047
0.000433042
0.000450046
0.00044745
0.00651314
0.00892194
0.000451055
0.000448427
0.000434848
0.000447262
0.00379682
0.00044311
0.000590984
0.000448
0.000444285
0.00722076
0.000444064
0.000433965
0.000447691
0.000438257
0.000443461
0.00860863
0.000555101
0.00897936
0.000442823
0.000505113
0.000444968
0.00863948
0.000471787
0.00043449
0.000285818
0.000497675
0.000449097
0.00057925
0.000426808
0.0016925
0.0005279
0.000445479
0.000464089
0.00409492
0.000447412
0.00555546
0.000447821
0.000433934
0.000601267
0.0039809
0.000447999
0.00843388
0.00043388
0.000426496
0.00849049
0.00863904
0.000450939
0.000531516
0.000440265
0.000448098
0.000446041
0.000455508
0.000647057
0.00048372
0.00045506
0.0159333
0.000370509
0.000445532
0.000470833
0.00747415
0.00448871
0.000605651
0.000455104
0.000440312
0.000449342
0.000447441
0.00591618
0.000444495
0.000436861
0.000444058
0.000426349
0.000450678
0.000551422
0.00818778
0.000439241
0.000454546
0.000447523
0.0004545
0.000458454
0.00604189
0.000445994
0.00045493
0.000532506
0.000469066
0.000310534
0.000432576
0.00044598
0.00056819
0.00230705
0.000468723
0.0004549
0.000538642
0.00169512
0.000451487
0.000437096
0.000445224
0.00889926
0.00790602
0.000448221
0.00682091
0.00886963
0.00583196
0.000453678
0.000451876
0.000448479
0.00589508
0.00820428
0.000470955
0.00438801
0.000442636
0.00044662
0.000445495
0.000453381
0.00043911
0.000617799
0.000454952
0.000439612
0.000463188
0.000648546
0.000453499
3.29229e-06
0.00236602
0.000681185
7.90155e-05
0.00551652
0.000427255
0.000450458
0.000441839
0.0066993
0.000451504
0.000484211
0.000453323
0.000436295
0.000436081
0.000447513
0.000447752
0.000415215
0.000495357
0.000453448
0.000442551
0.000430639
0.00043393
0.000550151
0.000449361
0.000426824
0.00863208
0.00797525
0.00124947
0.000431246
0.000442058
0.000439909
0.00551135
0.000451313
0.00044439
0.000433711
0.000453613
0.000431053
0.00881415
0.000329274
0.000446516
0.000443783
0.000447149
0.00199787
0.000430445
7.12732e-05
0.00044223
0.0205953
0.000439621
0.000446305
0.000429799
0.00704422
0.000432226
0.00944016
1.69043e-05
0.000484362
0.000450969
0.0115904
0.000449256
0.000641797
0.00731063
0.00491132
0.000450936
0.0082206
0.000430325
0.000462151
0.00744643
0.000442163
0.000434104
0.000522533
0.000446458
0.00311444
0.000572048
0.000439519
0.00800594
0.000454322
0.0065635
0.00652827
0.00844246
0.000429398
0.0113584
0.00505672
0.000448177
0.000468452
0.000479274
0.00267588
0.000446229
0.000433804
0.000436126
0.000442301
0.000433317
0.000446085
0.000436308
0.000515462
0.0210775
0.000450705
0.000476672
0.0112616
0.000449601
0.000436432
0.00884534
0.000449428
0.000518462
0.000439867
0.00300517
0.00048497
0.0163422
0.00829416
0.000452098
0.000459748
0.000453248
0.00160999
0.015947
0.000534663
0.000453092
0.000428067
0.000393861
0.00702471
0.00045078
0.000440791
0.00892798
0.000472818
0.000453283
0.0159781
0.00488181
0.000454569
0.000427766
0.00834419
0.000533278
0.000446064
0.00843021
0.000450171
0.00280724
0.000495341
0.000439511
0.000450152
0.000364339
0.00042502
0.000459441
0.00044741
0.00856268
0.01702
0.000436245
0.000447752
0.00889928
0.000475042
0.000444821
0.000427231
0.000449376
0.00646209
0.000424984
0.00044414
0.000445138
0.00374545
0.00492645
0.000448957
0.000451609
0.000411296
0.00336365
0.000426571
0.000450036
0.000433755
0.000410388
0.000433795
0.000503041
0.000448323
0.000517937
0.0149805
0.000450109
0.000452259
0.00574543
0.000429039
0.000431453
0.00055393
0.000446419
0.0001895
0.00713335
0.000444946
0.00886659
0.000430866
0.000454683
0.000490841
0.000436546
0.00290475
0.000451972
0.000449954
1.05514e-05
0.0173643
0.00280724
0.00117155
0.000496384
0.000448965
0.00401913
0.000446466
0.000433541
0.000441134
0.000595385
0.000447689
0.000461042
0.000427079
0.000446428
0.00660777
0.00669879
0.00054881
0.000443544
0.00986132
0.000418193
0.000447507
0.000441751
0.00044997
0.000446172
0.0037603
0.000456898
0.00949221
0.000460238
0.000449925
0.000445039
0.000449122
0.000462297
0.000426463
0.000463353
0.000447597
0.000451327
0.000449058
0.000452762
0.000446664
0.000464156
0.000444602
0.00045021
0.000447215
0.00052309
0.0150706
0.00715732
0.000431016
0.000447719
0.000446685
0.000449685
0.000440342
0.000459258
0.0078119
0.0161391
0.000443254
0.00882248
0.00043516
0.000446591
0.0185579
0.000498339
0.00418808
0.0486839
0.000445327
0.000426321
0.000458697
0.000449219
0.00848438
0.00205003
0.000613151
0.000429121
0.000445042
0.00518796
0.000451457
0.000430403
0.00352718
0.000450439
0.000463781
0.000441228
0.000450221
0.000423345
0.00155926
0.000446525
0.000536829
0.000449869
0.00374398
0.000441388
0.0089179
0.000450232
0.00881981
0.00885123
0.000434981
0.00327519
0.000438668
0.000501311
0.000439181
0.000449901
0.00358127
0.00418368
0.000468739
0.0004411
0.00044998
0.000531401
0.00959039
0.00045168
0.000507568
0.000449906
0.000452133
0.00311245
0.0260222
0.000525958
0.00043401
0.000443481
0.00647667
0.00044541
0.000508547
0.000430725
0.000442326
0.00888791
0.000430789
0.000446526
0.000450786
0.000473508
0.000432372
0.0209258
0.0108711
0.000434089
0.000147265
0.000433943
0.000446282
0.000444429
0.000450095
0.00045184
0.000450022
0.00044959
0.000446504
0.000453787
0.000447189
0.00604081
0.000442102
0.000451179
0.000447019
0.000440989
0.000446853
0.000446594
0.00059264
0.000485419
0.00756202
0.000427834
0.00044507
4.7848e-05
0.000450878
0.000656777
0.000433848
0.000132596
0.000454444
0.000444039
0.00469679
0.000426591
0.000433808
0.000455014
0.00286664
0.000442153
0.00045292
0.000459072
0.00814153
0.000462052
0.0088335
0.000457189
0.000451571
0.000453766
0.000450845
0.0043722
0.000451008
0.000450174
0.000443248
0.00141756
0.00742664
0.00651285
0.000446818
0.00483438
0.0004434
0.00580315
0.00590905
0.000452223
0.00828048
0.000453837
0.00044976
0.000433809
0.000433533
0.000432814
0.0187244
0.000449018
0.000466514
0.000432756
0.000446907
0.0127163
0.000451938
0.000443777
0.000528368
0.000447066
0.000443
0.00042673
0.00589794
0.000447283
0.000451425
0.000448111
0.000434297
0.000454576
0.0198994
0.000453223
0.000716704
0.0072366
0.00797277
0.000494129
5.47169e-05
0.000449022
0.000474758
0.00044886
0.000441179
0.0201895
0.000433817
0.00043516
0.00044539
0.00423186
0.00156005
0.00214388
0.000443062
0.000447514
0.000453381
0.000426779
0.00045773
0.000162517
0.000480208
0.000484766
0.000462477
0.000430869
0.000444521
0.000430946
0.000659624
0.000449527
0.00618587
0.000427438
0.000449639
0.000519959
0.000432752
0.000502447
0.00044686
0.000428833
0.00257245
0.000544396
0.00893044
0.000496685
0.000444813
0.000439444
0.000442283
0.000454437
0.000482399
0.000450721
0.000446879
0.000456391
0.000540798
0.000435376
0.000446535
0.00422939
0.000433743
0.000427171
0.00043476
0.00551045
0.00610304
0.000451079
0.00629566
0.000392095
0.00429228
0.000437446
0.000433715
0.000409555
0.0113738
0.00720305
0.00044952
0.000444826
0.000447957
0.000443495
0.000242217
0.000504975
0.000450787
0.00507034
0.0102636
0.000426367
0.000121448
0.00255768
0.000432706
0.000450389
0.00531075
0.000542797
0.000434035
0.00881659
0.000469475
0.0083418
0.000461119
0.000438392
0.00801889
0.00180493
0.000403409
0.000437096
0.000432666
0.00650806
0.000486353
0.000489407
0.000449055
0.000452168
0.000447787
0.000447541
0.0165015
0.000453134
0.000455316
0.00292135
0.00044748
0.000442806
0.000436755
0.00601567
0.000457161
0.000452668
0.000450321
0.00043956
0.00045379
0.00044362
0.000585379
0.000461946
0.000436794
0.0072653
0.000446897
0.000627736
0.000458815
0.000430044
0.000448563
0.000443236
0.000392538
0.000456889
0.000465875
0.000451644
0.00046035
0.00812682
0.000445173
0.00460384
0.000477952
0.00738729
0.000451689
0.000444795
0.00543411
0.00234815
0.000446828
0.000428643
0.000431722
0.0031453
0.00283042
0.000481626
0.000432999
0.000445329
0.000449177
0.000477675
0.00148025
0.000435958
0.000466936
0.00885154
0.00808551
0.000433809
0.000591619
0.00053096
0.000453343
0.000432459
0.00045002
0.00804624
0.000444014
0.000449182
0.000484547
0.000442894
0.000444601
0.000453431
6.9765e-05
0.000474102
0.000456789
0.0193581
0.00454019
0.000276485
0.000445387
0.0004521
0.000449486
0.00162461
0.00047521
0.000443334
0.00043329
0.00850336
0.000435501
0.000468412
0.000478322
0.00662227
0.000424702
0.000451211
0.000485654
0.0073367
0.000448627
0.000580949
0.00885166
0.000615677
0.0196085
0.000495373
0.00191564
0.00045299
0.000771569
0.00044665
0.000709146
0.000445885
0.00519758
0.000453235
0.000449032
0.000450184
0.00044718
0.000445367
0.000478761
0.000449118
0.000429045
0.000446453
0.000488917
0.00740205
0.00049281
0.000503679
0.000441108
0.000436464
0.000448322
0.0376684
0.000465126
0.000456765
0.000434205
0.000450216
0.0004085
0.000432226
0.00047224
0.00444788
0.000440292
0.000442766
0.000678462
0.0019851
0.000436344
0.00851283
0.00042725
0.000448376
0.000426885
0.000445108
0.00634895
0.000479006
0.000457169
0.000450013
0.00043723
0.000445321
0.000432253
0.000450142
0.000438549
0.00044699
0.00340503
0.000427328
0.000448637
0.000447707
0.000449048
0.000430747
0.000501029
0.00044646
0.00227712
0.000450965
0.000507908
0.000447132
0.0297358
0.000447485
0.000512263
0.000450233
0.00631474
0.000450528
0.000434264
0.000449812
0.00484577
0.000451377
0.000456074
0.015909
0.00721551
0.00513526
0.014025
0.000445806
0.000460017
0.00774927
0.000469888
0.000455045
0.00136591
0.000448253
0.000427015
0.000432487
0.000451241
0.000448169
0.000453799
0.000448502
0.000448235
0.000462913
0.000447139
0.000448773
0.000448274
0.00767985
0.000428948
0.000444155
0.00887724
0.00223328
0.000405673
0.000449602
0.000426504
0.0107046
0.0089709
0.000450882
0.000449916
0.000447675
0.000440876
0.0159992
0.000452071
0.000453192
0.000466174
0.000473157
0.000441204
0.0216425
0.000447063
0.000431478
6.67852e-05
0.000847911
0.000449935
0.00185101
0.000385748
0.00049691
0.000430669
0.000388794
0.000488385
0.000442812
0.000449394
0.0176223
0.000443962
0.000632616
0.000440349
0.000433299
0.000431525
0.000428248
0.000440754
0.000576124
0.000523757
0.00259253
0.000452679
0.000453155
0.00413182
0.000435592
0.000453578
0.000553496
0.000453566
0.0111866
0.00046419
0.000437043
0.000449
0.000427381
0.00578823
0.000446701
0.000455023
0.00577802
0.000437372
0.00200707
0.000431589
0.000473432
0.000470374
0.000430648
0.00882218
0.00819532
0.000449667
0.000439681
0.000497818
0.000439367
0.000432272
0.00043787
0.000431692
0.000443127
0.00934413
0.0153886
0.000969506
0.00976031
0.00629366
0.000449099
0.000452241
0.000433944
0.00044631
0.000450521
0.000449503
0.000475785
0.000450036
0.000450453
0.00496359
0.000449361
0.000440862
0.000441518
0.000440707
0.000231525
0.000445443
0.000485534
0.00188883
0.00044511
0.000431252
0.000437656
0.000472785
0.000446652
0.000430273
0.00045614
0.00722489
0.00398737
0.000442451
0.00043211
0.00186351
0.000652472
0.000430382
0.000479273
0.000448001
0.000437473
0.000450771
0.000430098
0.00044919
0.007341
0.000437645
0.000453716
0.000537704
0.00053699
0.00898173
0.0124494
0.000449712
0.000440198
0.000459148
0.000449148
0.00357411
0.000417564
0.000441683
0.000582935
0.000443261
0.000436892
0.00564849
0.00725421
0.000431611
0.000455978
0.000449577
0.000510342
0.000434877
0.000452174
0.000436089
0.000452263
0.000138085
0.000454144
0.00184188
0.000458799
0.000442293
0.000433968
0.000447048
0.00331913
0.00596382
0.00045541
0.000751313
0.000628725
0.0156155
0.000458433
0.000315813
0.00794816
0.000444785
0.000448106
0.000451665
0.000449392
0.000435462
0.000428948
0.000447693
0.00226957
0.00845305
0.00821957
0.000455262
0.000439598
0.00967737
0.000469068
0.000452464
0.000454077
0.000448182
0.000455205
0.00046417
0.000480979
0.000456795
0.000485639
0.0072175
0.000457963
0.000448988
0.000449583
0.000447637
0.00031589
0.000451163
0.000448528
0.000441763
0.000459614
0.000515459
0.000448225
0.000287612
0.000431113
0.000444739
0.0083428
0.000452417
0.000444434
0.000427623
0.0163514
0.000438638
0.000569018
0.00738857
0.000450336
0.000448371
0.000447138
0.000516001
0.000474522
0.00541952
0.000439488
0.000479679
0.000454673
0.000392914
0.000524875
0.00419308
0.000464155
0.000449416
0.000449679
0.00325226
0.00442743
0.000475994
0.000442766
0.000427689
0.000426457
0.00188857
0.000418852
0.00678937
0.0147892
0.000432128
0.00746165
0.000435242
0.000446964
0.00896987
0.0004524
0.000432363
0.000449294
0.00782197
0.000443703
0.00043884
0.00690801
0.000432152
0.0005541
0.000249829
0.00533513
0.000459429
0.000452781
0.000436371
0.000458596
0.000428356
0.000426656
0.00237082
0.000436246
0.000433366
0.000258922
0.000444719
0.0219347
0.000426911
0.000443101
0.00043074
0.000445256
0.000446265
0.00748137
0.000428084
0.00043088
0.000441213
0.00963773
0.00293211
0.000434443
0.000451122
0.000439037
6.10914e-05
0.00047773
0.000435238
0.000426935
0.00596379
0.00368436
0.000569684
0.000462509
0.000457247
0.000465154
0.000439378
0.000440626
0.000430708
0.00679409
0.000436969
0.000487165
0.0017557
0.000459205
0.000437857
0.000455116
0.000481306
0.000431369
0.000441188
0.000447491
0.0132256
0.000428735
0.000438871
0.00872162
0.000450533
0.0188961
0.000431144
0.00856667
0.00042724
0.00746204
0.00490674
0.000437052
0.000448167
0.00751839
0.000439258
0.000337917
0.000441458
0.000451251
0.0172257
0.000435083
0.000431441
0.00044471
0.000483953
0.00355208
0.000381311
0.00493846
0.000450757
0.000454725
0.00045452
0.00113636
0.00718603
0.00412397
0.00742937
0.00044874
0.0106732
0.00044631
0.000440607
0.000433475
0.00228847
0.000449302
0.000450341
0.000696612
0.0164266
0.0004535
0.000438034
0.000436638
0.000449628
0.000470071
0.000444387
0.000428205
0.000430722
0.000435935
0.000456444
0.000438115
0.00789031
0.000435174
0.000450553
0.000215824
0.000448915
0.000456595
0.000436625
0.000454193
0.0230762
0.000431281
0.0218101
0.00866081
0.000450404
0.000454934
0.0555378
0.000448283
0.00656451
0.00776826
0.000454687
0.0173441
0.000463211
0.000472799
0.0161779
0.000448473
0.000445385
0.00047697
0.000439133
0.00719616
0.000176889
0.00045418
0.000449941
0.000430841
0.000431108
0.000436407
0.00047514
0.0163237
0.000435493
0.000473951
0.0206858
0.000435748
0.000472808
0.00103512
0.000451759
0.00147354
0.000431752
0.00503951
0.000447449
0.00074335
0.00657537
0.00745584
0.00058268
0.000448697
0.00714733
0.000439132
0.00452
0.000367493
0.000474066
0.00570146
0.00043646
0.00785348
0.000769236
0.000445971
0.0137332
0.000299015
0.000477022
0.000303971
0.000429011
0.000435608
0.000426518
0.00542061
0.000434792
0.000457494
0.000393782
0.000437934
0.00173361
0.000557936
0.00038603
0.000468778
0.000449762
0.000456254
0.000431613
0.000446136
0.000458342
0.000594599
0.000433795
0.000449452
0.0142938
0.000435075
0.0135734
0.00841894
0.000448102
0.0052445
0.000453958
0.000209299
0.000433799
0.000427932
0.000447632
0.00941786
0.000434814
0.000441394
0.00049415
0.00289584
0.00045626
0.00652462
0.00540988
0.000508522
0.000495631
0.000460399
0.000459392
5.12457e-05
0.00311853
0.000450413
0.00884254
0.000431146
0.000398511
0.00690839
0.00133285
0.000464831
0.000490088
0.000430523
0.000456305
0.000431708
0.000142764
0.000431178
0.000430863
0.00722456
0.000450911
0.000449195
0.000440698
0.000446856
0.000450857
0.0037025
0.00840231
0.00728513
0.00700047
0.000458232
0.000452551
0.000444888
0.000437492
0.0207223
0.000431179
0.000451263
0.000439625
0.000436984
0.000435533
0.000479481
0.000448784
0.000450683
0.000430015
0.000493009
0.000503021
0.0166425
0.000459921
0.00687522
0.00062232
0.00711545
0.000484822
0.00731534
0.000428669
0.00466395
0.000457836
0.000703613
0.000431867
0.000449044
0.000446521
0.000431447
0.000444266
0.000429255
0.0189333
0.000461168
0.00883305
0.00242311
0.000513228
0.000456607
0.00139078
0.000441679
0.0187449
0.000494997
0.000876005
0.000440072
0.000452691
0.000445663
0.012047
0.000436843
0.000337429
0.000432762
0.0030558
0.000432052
0.000554559
0.00872708
0.000450654
0.0107266
0.00480771
0.00045054
0.0072258
0.000482956
0.000449422
0.000448073
0.000454047
0.000426475
0.00872899
0.0212205
0.000441021
0.00572905
0.000469123
0.000444515
0.000438101
0.000447051
0.0070128
0.000448373
0.00881777
0.000449756
0.000454845
0.000440008
0.00044983
0.000488459
0.0234104
0.00390009
0.000449428
0.00043769
0.00414893
0.00463371
0.0004497
0.00895991
0.000456555
0.00727364
0.00428089
0.000484754
0.0051311
0.000430497
0.000446315
0.000453641
0.000448828
0.00843532
0.00449767
0.000450544
0.00214427
0.000430741
0.000447522
0.00395496
0.000442686
0.000452683
0.000454478
0.0184439
0.00456074
0.000455351
0.000449396
0.00802955
0.00333789
0.00045038
0.000497195
0.00043741
0.000434537
0.000476258
0.000450691
0.000448978
0.000226866
0.00045138
0.000560887
0.00044665
0.000453497
0.00796501
0.000451824
0.000461643
0.0114645
0.000360639
0.000580015
0.000442279
0.000404317
0.0133481
0.000446806
0.000450151
0.000427973
0.000449784
0.000455948
0.000447576
0.000237043
0.000432873
0.000444424
0.000441269
0.00274815
0.000430407
0.000465875
0.000480232
0.000430406
0.000428234
0.0131787
0.000456551
0.0082692
0.000462842
0.000487356
0.000449503
0.00633548
0.00777399
0.0004307
0.00545864
0.000449729
0.000450103
0.00872178
0.000442457
0.00044084
0.000782955
0.00044547
0.000584673
0.000469381
0.000445492
0.000437517
0.000428797
0.000435242
0.000450984
0.000444495
0.000622238
0.000446427
0.00757249
0.000447342
0.0167257
0.0100759
0.000380741
0.00044992
0.0105622
0.000443781
0.00515125
0.00376772
0.000450438
0.00899899
0.000441729
0.0188173
0.000929946
0.000473979
0.000443038
0.000448547
0.000126316
0.000447253
0.0037954
0.000451667
0.000440399
0.00345623
0.000445779
0.000435116
0.00898239
0.000432861
0.000431706
0.000442986
0.000446281
0.000469655
0.000457467
0.000450802
0.0219881
0.000446764
0.00646731
0.00367385
0.000449883
0.00247879
0.000449856
0.0189011
0.011233
0.000441339
0.000450539
0.00492452
0.00630976
0.00887304
0.0166513
0.000428585
0.000427952
0.000445314
0.000545036
0.000449085
0.0006216
0.000446904
0.000449126
0.000432257
0.00606395
0.000452568
0.00439489
0.000454431
0.00692144
0.000442582
0.000472237
0.000449627
0.000450096
0.000427011
0.00780789
0.000446783
0.000445435
0.00621808
0.000452128
0.000450019
0.000431182
0.000454777
0.00403476
0.00512817
0.000441296
0.00431685
0.000451229
0.000447764
0.000448154
0.000444004
0.0149076
0.000720535
0.000442392
0.00153537
0.000821368
0.000452377
0.00761632
0.00427776
0.0072509
0.000471434
0.000441289
0.000446971
0.000430841
0.00043959
0.00619228
0.00244652
0.000450786
0.000519994
0.000495241
0.000423784
0.0055821
0.000450443
0.00746483
0.00358297
0.000441227
0.0159959
0.000438275
0.0154635
0.000452306
0.000475497
0.00278303
0.0084725
0.000439094
0.00121921
0.000437845
0.00953236
0.000471704
0.00045508
0.00747821
0.000448381
0.00048922
0.0194581
0.000486911
0.000432429
0.000479404
0.000183646
0.0150465
0.000480494
0.000449675
0.000391841
0.000531831
0.000474268
0.000471236
0.000612641
0.000529135
0.000480892
0.000426426
0.0105857
0.0117779
0.000451358
0.000589083
0.000441654
0.00044119
0.00656365
0.000443265
0.000462878
0.00140424
0.00653284
0.000431548
0.00684044
0.0134239
0.00332547
0.000437036
0.00044436
0.000467696
0.000457987
0.000216667
0.0004398
0.00894565
0.00045667
0.000426897
0.000451725
0.000449776
0.00400393
0.000442751
0.000462174
0.0255582
0.000476546
0.00044937
0.00674962
0.000445807
0.000475355
0.00879198
0.000441543
0.00263999
0.000446395
0.000451478
0.000435372
0.00043922
0.00053432
0.000439798
0.00144579
0.000504034
0.008656
0.000436447
0.000472282
0.00719071
0.00043073
0.000455145
0.000434772
0.00045029
0.000451548
0.000448102
0.000450677
0.00395095
0.0243747
0.00170582
0.000441728
0.000450052
0.000988548
0.00044315
0.000441811
0.00045008
0.000448156
0.000442406
0.000433589
0.000449539
0.000447018
0.00695311
0.000438836
0.000482783
0.000452295
0.00391603
0.00361732
0.000472197
0.000449118
0.000451243
0.000449568
0.00671731
0.000443647
0.00220208
0.000252461
0.000449337
0.000447907
0.000443694
0.000430638
0.000444346
0.00326338
0.0285434
0.000439335
0.00766924
0.000451476
0.00800174
0.000428401
0.0045305
0.00565745
0.000463876
0.000433374
0.000448948
0.00212427
0.000439401
0.000453747
0.000434602
0.000456343
0.000395494
0.000450494
0.00883034
0.000531254
0.000433136
0.000450129
0.000448824
0.00023761
0.000451007
0.000449753
0.000154322
0.000471961
0.000451133
0.00446402
0.000452068
0.00047091
0.000448309
0.000448285
0.000500896
0.000440653
0.00623614
0.000456273
0.000474243
0.0173863
0.00338425
0.000450757
0.000454562
0.000453341
0.000450592
0.000449772
0.000431723
0.0259423
0.0151459
0.000397485
0.000449119
0.000430316
0.0258983
0.00370179
0.00397597
0.000445485
0.00658974
0.000393243
0.000432348
0.000437034
0.000290672
0.0160905
0.000702527
0.000454839
0.000444124
0.000516852
0.000430018
0.000447308
0.000326329
0.00347506
0.010857
0.000439446
0.00579532
0.000453904
0.0004422
0.000451262
0.000450243
0.000444671
0.000471004
0.00606115
0.000449156
0.000466698
0.000455744
0.000435265
0.000427895
0.00562454
0.000442613
0.000440139
0.000444692
0.000404903
0.000450427
0.000430202
0.000446314
0.000355229
0.000441265
0.000447679
0.000435309
0.000430921
0.000649305
0.000448898
0.000448056
0.017949
0.000449883
0.000441037
0.000448143
0.00711616
0.0101275
0.000441642
0.00858832
0.000465942
0.0209801
0.000473385
0.000428222
0.000448077
0.000450395
0.000450614
0.000449781
0.00794228
0.000982388
0.000478074
0.00045909
0.000239384
0.000447977
0.000455335
0.000444195
0.000453922
0.00100173
0.000389608
0.0071428
0.000450276
0.000439272
0.0004417
0.00044042
0.0226762
0.000449642
0.000429049
0.00817202
0.00703651
0.00044122
0.000450758
0.000444361
0.000431401
0.000402584
0.000430125
0.000441033
0.00539493
0.000450281
0.000441854
0.000428015
0.000428758
0.000474332
0.0062396
0.0037035
0.000226562
0.00808492
0.00054128
0.00044002
0.00491189
0.000426519
0.00048613
0.00777849
0.00837922
0.000447721
0.0053359
0.0192737
0.018943
0.00187319
7.3032e-05
0.000450791
0.000425718
0.000443396
0.000316357
0.00874349
0.00884162
0.000447223
0.000429739
0.00353599
0.00733768
0.000436806
0.000451302
0.000451897
0.000451387
0.000449316
0.0104407
0.00935997
0.000520202
0.000461447
0.00684109
0.000451386
0.00787132
0.000496541
0.0084491
0.000472465
0.000643031
0.000454925
0.00733527
0.00045023
0.000445524
0.000448573
0.000440346
0.000470012
0.000440168
0.00044874
0.000449471
0.000463122
0.000448757
0.000456344
0.00044032
0.000452096
0.00031535
0.000295662
0.00781494
0.00030058
0.000453004
0.000449694
0.000456681
0.000463427
0.000439388
0.000630193
0.000434823
0.000450609
0.000447556
0.000436496
0.00769679
0.000447511
0.000445449
0.00043231
0.000448226
0.000448578
0.000442972
0.000458307
0.000434322
0.000451942
0.000451256
0.000449363
0.021876
0.00205504
0.000447683
0.00662165
0.0088002
0.000446334
0.000534413
0.000530653
0.000445359
0.00594898
0.000470972
0.0125669
0.000448993
0.013584
0.000377619
0.000385212
0.00757345
0.000439511
0.0075983
0.000424702
0.000443005
0.000452171
0.000455654
0.000444311
0.00706043
0.000451431
0.000470509
0.00738671
0.000439474
0.000444341
0.00044932
0.000123597
0.000445829
0.000469344
0.00060043
0.000222946
0.000448264
0.000436118
0.00252601
0.000448047
0.00730612
0.000364346
0.000779488
0.000455878
0.000478639
0.000450289
0.000449637
0.000605559
0.000584118
0.000426439
0.000459453
0.0222183
0.000464808
0.000449303
0.00043065
0.000449403
0.000450907
0.000192405
0.0154151
0.000444512
0.00634718
0.000462833
0.000477569
0.0088114
0.000441731
0.00572936
0.000468452
0.00773073
0.000444262
0.00776655
0.000449143
0.000448307
0.0079558
0.000446952
0.00775026
0.000450222
0.000509546
0.00923609
0.000445498
0.000475198
0.00524165
0.000451859
0.000448718
0.000451309
0.0121918
0.00563501
0.00735766
0.00043838
0.000300092
0.000454153
0.000445256
0.000448188
0.000449311
0.000442876
0.00045265
0.0069765
0.000447623
0.000449204
0.00754298
0.00740523
0.000434937
0.000462648
0.000468081
0.0167322
0.00799993
0.000449061
0.00472468
0.00225831
0.000450359
0.000450008
0.000439654
0.000451873
0.000264662
0.00432587
0.00044609
0.000537092
0.000482903
0.000494669
0.000447793
0.000447739
0.00044955
0.000484527
0.00510138
0.0048107
0.000442423
0.00042985
0.00262152
0.000426903
0.000437763
0.000449194
0.000450011
0.00731867
0.000445583
0.00796983
0.000305698
0.000446881
0.00613639
0.000444526
0.000473133
0.000452175
0.000455653
0.000458551
0.000437926
0.00807873
0.00185002
0.00045015
0.000486209
0.00598703
0.00447911
0.000456491
0.000464675
0.00735514
0.000479939
0.0086033
0.000446933
0.00044681
0.000449527
0.000444249
0.0084339
0.00715164
0.000450175
0.00669543
0.00715406
0.00744357
0.00264734
0.000442932
0.000427376
0.000454377
0.000427116
0.000442471
0.000447354
0.00045057
0.00820322
0.00438199
0.000449162
0.000518538
0.000456269
0.0081217
0.000481946
0.00868945
0.000446831
0.000453497
0.000412141
0.00627504
0.00357027
0.000471527
0.00042778
0.000484488
0.00129759
0.000495746
0.00722504
0.000448402
0.0189801
0.00046531
0.00043189
0.0004509
0.000445172
0.000445454
0.00763608
0.000429918
0.000444293
0.0029456
0.00880127
0.000450634
0.000449788
0.00045166
0.00416626
0.000452619
0.000464255
0.0210749
0.000446756
0.00727696
0.00055373
0.00736845
0.0063183
0.0154057
0.000442554
0.00616401
0.000445291
0.00783495
0.000471646
0.0195279
0.00595046
0.0037469
0.000502958
0.00437036
0.00894336
0.000508087
0.0088834
0.000457555
0.000447737
0.000864544
0.000488844
0.000471111
0.000468463
0.00044791
0.00044509
0.000466952
0.000264162
0.00600981
0.00387705
0.000432526
0.00046659
0.00043145
0.000445186
0.000451012
0.000451502
0.000458994
0.00044972
0.000506982
0.000431695
0.000530192
0.000443144
0.000443968
0.000461622
0.000474881
4.90582e-05
0.000527395
0.00889879
0.00044065
0.00899226
0.00534587
0.000456834
0.00450279
0.00806427
0.00449173
0.000445282
0.00543974
0.00044782
0.00050491
0.00830424
0.000444204
0.000438105
0.0206995
0.000444777
0.00301738
0.000455015
0.000447584
0.000543824
0.000441399
0.000505884
0.00044657
0.000468344
0.0117024
0.000449671
0.00885252
0.000489598
0.00350828
0.000533327
0.000552175
0.000515489
0.000444476
0.000431112
0.000440312
0.000449768
0.00044706
0.000475378
0.000445521
0.0159456
0.000457949
0.000451803
0.000439032
0.000449967
0.000466033
0.000441519
0.0016659
0.00200261
0.00045065
0.000491332
0.00398333
0.000454363
0.000448907
0.000502201
0.00570053
0.00709454
0.00124672
0.000437403
0.000448632
0.0004503
0.00900107
0.000445625
0.00593231
0.000437792
0.000484259
0.000452828
0.000450178
0.000441478
0.00045145
0.000528577
0.000449466
0.000442429
0.000441063
0.000522102
0.00504724
0.00050489
0.000440199
0.00883916
0.000589021
0.000440667
0.00042949
0.000510583
0.00163911
0.00661067
0.000446937
0.00329679
0.000581814
0.00261822
0.000224633
0.000447862
0.000496511
0.000449986
0.000448809
0.0147234
0.00506588
0.000444372
0.000444402
0.00055622
0.00666631
0.000521884
0.00227911
0.000441009
0.000443205
0.000450383
0.000435093
0.00130706
0.000448845
0.00898069
0.000435522
0.00247871
0.000444724
0.000443367
0.000447847
0.000453898
0.00586652
0.000486894
0.0045005
0.00275143
0.000451171
0.000462917
0.00631166
0.0179659
0.000496406
0.0005958
0.000451055
0.0046235
0.0068798
0.00051668
0.000456359
0.00666931
0.00341599
0.00510902
0.000435674
0.000449323
0.000535547
0.00602588
0.000465254
0.000439536
0.00506148
0.00049036
0.00847295
0.000454181
0.00054736
0.00051933
0.00342274
0.000445373
0.00042457
0.00854553
0.00548769
0.000449518
0.000496048
0.000457998
0.000455086
0.000449573
0.000449826
0.000473185
0.000497966
0.000516718
0.000505743
0.000531743
0.000539283
0.000578934
0.00045343
0.000527654
0.00359852
0.000484386
0.00615606
0.00139239
0.000467429
0.000440485
0.000453579
0.000449147
0.000471536
0.00773747
0.00827687
0.000511289
0.000536696
0.00880166
0.000513033
0.000501658
0.00280519
0.00783338
0.000508583
0.00580631
0.000444703
0.000450239
0.000456474
0.000458646
0.0174899
0.000450877
0.00043754
0.000467944
0.000449507
0.000539207
0.00044566
0.00685511
0.00889432
0.00827398
0.000450403
0.000471774
0.00210028
0.000450633
0.000443785
0.000447426
0.000478928
0.000449196
0.00893539
0.00455521
0.000449113
0.000333513
0.000447602
0.000442775
0.000622977
0.000452905
0.00557368
0.000450745
0.000510651
0.000449569
0.000509885
0.000438522
0.000515604
0.00242127
0.0083325
0.00839045
0.00043519
0.000601406
0.00899864
0.000529911
0.00399168
0.0078924
0.00675964