/*--------------------------------*- C++ -*----------------------------------*\
| =========                 |                                                 |
| \\      /  F ield         | OpenFOAM: The Open Source CFD Toolbox           |
|  \\    /   O peration     | Version:  v2012                                 |
|   \\  /    A nd           | Website:  www.openfoam.com                      |
|    \\/     M anipulation  |                                                 |
\*---------------------------------------------------------------------------*/
FoamFile
{
    version     2.0;
    format      ascii;
    class       volVectorField;
    location    "150";
    object      U_0;
}
// * * * * * * * * * * * * * * * * * * * * * * * * * * * * * * * * * * * * * //

dimensions      [0 1 -1 0 0 0 0];


internalField   nonuniform List<vector> 
14033
(
(1.04741 -0.0329094 0)
(0.69695 -0.0134704 -1.57353e-21)
(1.02235 1.39153e-05 0)
(1.0224 -0.00013425 -8.46611e-23)
(1.02139 -0.000236342 0)
(1.02365 0.00106502 3.82858e-22)
(0.807196 -0.0125879 2.67197e-22)
(1.02292 0.000222468 -3.02501e-22)
(1.02243 -0.000128244 1.78839e-22)
(0.827081 -0.0283816 4.63432e-21)
(1.0246 -0.000928464 0)
(1.05692 0.00898914 0)
(1.02844 -0.0029146 4.11045e-22)
(1.02828 -0.00271455 6.91487e-22)
(1.02068 -0.000109583 -6.10603e-25)
(1.04591 0.00539826 0)
(1.03148 0.00239637 -1.10736e-21)
(0.506569 -0.0456589 0)
(1.02504 -0.00110399 0)
(1.03302 0.00573368 2.37608e-21)
(1.04271 0.00511847 3.28039e-21)
(1.05658 0.00931563 5.29778e-21)
(1.05457 -0.0181135 -1.30528e-20)
(1.02143 -0.000244772 -4.87938e-25)
(1.02402 -0.00044071 0)
(1.02493 -0.00103155 0)
(1.06738 -0.00914085 -2.37062e-22)
(1.06367 0.0119621 -1.12136e-20)
(1.06206 -0.0330929 4.54422e-21)
(1.06775 0.0150568 0)
(1.03684 -0.00341712 -1.76848e-21)
(1.02319 0.000181443 2.7008e-22)
(1.07217 -0.00661999 0)
(1.03536 -0.0155542 2.27003e-21)
(1.02319 -0.0353596 1.34541e-21)
(1.02234 -0.000213995 3.41217e-24)
(0.921645 -0.0347108 -1.24023e-20)
(0.788075 -0.0301755 -5.1039e-21)
(1.02226 -0.000317026 2.20893e-23)
(1.03027 -6.00049e-05 3.64972e-21)
(0.776836 -0.0441571 1.2462e-21)
(1.04227 0.00536293 -5.10734e-21)
(1.02626 -6.75201e-05 0)
(1.02174 -9.64458e-05 -2.3814e-23)
(1.0277 -0.000591388 -1.05241e-22)
(1.02628 -0.00012854 0)
(0.819303 0.0130454 9.62623e-21)
(1.02372 0.000954023 -1.66306e-22)
(1.06803 -0.0185594 1.83135e-20)
(0.96424 -0.0288217 1.02871e-20)
(1.0265 0.000682347 9.92843e-22)
(1.0223 -0.000253998 0)
(0.72865 -0.0554062 -1.5114e-20)
(0.951091 -0.0454656 1.5264e-20)
(1.03163 0.00264275 1.32912e-21)
(1.02865 -0.00289365 0)
(1.07277 0.0127097 -2.32816e-20)
(0.673422 -0.0346216 -2.44918e-21)
(1.0353 -0.0159368 -2.01208e-21)
(1.0364 -0.00336984 -1.66775e-21)
(1.02594 0.000498668 1.51512e-24)
(0.957176 -0.030773 -2.97266e-20)
(1.04846 -0.0138914 3.24268e-21)
(1.02609 1.2434e-05 7.51098e-24)
(1.02249 -3.13846e-05 0)
(1.02435 -8.8587e-05 4.50006e-23)
(1.04611 -0.0317532 0)
(1.065 0.00418127 -2.28944e-20)
(1.02653 -0.000100015 6.36203e-23)
(1.03166 -0.00595858 -1.10702e-21)
(1.02219 -4.75324e-05 4.16487e-24)
(1.01951 0.00060575 9.6233e-24)
(0.812491 0.0131531 -6.03935e-21)
(1.03126 0.00626072 0)
(1.04354 0.00931996 -6.62422e-21)
(1.02307 -0.000143408 -1.83312e-23)
(1.02345 0.00250386 -9.67828e-23)
(1.03163 -0.00636856 -2.30053e-21)
(0.46287 -0.0235807 0)
(1.06831 0.0131331 -8.64801e-21)
(1.02636 -0.000255818 6.69831e-23)
(0.520958 -0.0274683 1.45135e-21)
(0.740179 -0.0536884 -3.26786e-20)
(1.02428 -0.000210372 -1.89685e-22)
(1.02204 -9.31137e-05 0)
(1.02044 0.000226631 -2.66856e-22)
(1.02477 -0.00198873 0)
(0.940394 -0.0461845 -9.76895e-21)
(0.830563 0.0122469 9.61021e-21)
(1.03266 0.00598578 -4.54155e-21)
(1.02252 -0.000137518 2.15994e-22)
(1.02637 -0.00017929 0)
(1.02524 -0.0002202 0)
(1.04948 0.00554129 -1.29425e-22)
(1.02683 -0.000150095 -1.29113e-22)
(1.02253 -0.0057064 0)
(1.02676 0.000662862 0)
(1.02108 6.36451e-05 -4.75808e-23)
(0.850193 -0.0424536 0)
(1.02198 -7.07084e-05 1.41577e-22)
(1.02447 -7.94066e-05 -5.99262e-23)
(1.02353 0.000893704 8.63895e-23)
(1.02647 -0.000241838 3.7457e-23)
(1.02497 0.000261103 0)
(0.814132 0.0130759 1.00308e-20)
(1.06899 0.00130282 -1.18026e-20)
(0.850744 0.0120842 0)
(1.02437 -0.000236795 0)
(1.06435 0.00436391 1.11187e-22)
(1.02199 -3.24275e-06 -3.0502e-23)
(0.834098 0.0111996 0)
(1.01728 -6.71738e-05 0)
(1.02264 -8.99152e-05 1.83232e-23)
(1.02391 0.00193383 0)
(1.01088 1.83286e-05 0)
(1.02317 0.00248927 -5.46084e-23)
(1.07051 0.0115893 1.76486e-20)
(1.02268 -0.000394699 -6.09122e-24)
(1.06636 0.00625285 -3.91294e-20)
(1.0717 -0.00755573 0)
(1.02085 0.000140984 0)
(1.05382 0.0025052 2.75798e-21)
(-0.0224038 0.0686328 2.70448e-20)
(1.02506 -0.00222534 -9.26835e-22)
(1.04307 -0.000277358 -1.23696e-20)
(1.0252 -0.00025911 0)
(1.02324 -5.18468e-05 1.81089e-23)
(1.02048 0.00217556 1.15647e-22)
(0.68657 0.0203209 1.06472e-20)
(1.02397 0.00136077 0)
(0.814479 0.0133918 5.38803e-21)
(1.02212 -5.78916e-05 -1.19145e-23)
(1.0222 -0.000346981 9.7101e-26)
(0.926497 -0.00463048 -2.25491e-21)
(0.828181 0.0116933 0)
(1.03205 -0.00544369 -1.39584e-21)
(1.06487 0.0109221 9.64849e-21)
(1.0225 -7.78925e-06 0)
(1.02402 0.00145622 4.48769e-22)
(1.02513 -0.000392752 -1.17888e-23)
(1.03825 -0.00879523 0)
(1.07431 0.00917371 1.49055e-20)
(1.06031 -0.00119717 -4.92009e-21)
(1.04661 0.00359951 0)
(1.06155 -0.0327322 6.99389e-21)
(1.02766 -0.000796578 1.97544e-22)
(1.02084 0.000122564 -7.99406e-23)
(1.05478 -0.00555776 0)
(0.929525 -0.0322196 4.1034e-20)
(0.962881 -0.0293696 -6.99491e-22)
(1.02546 -0.00559723 1.82807e-21)
(1.03794 -0.00840281 1.78942e-21)
(1.02244 -1.34183e-05 -1.86668e-23)
(1.02336 0.000514813 8.15064e-22)
(1.0236 0.000789004 -1.76374e-22)
(0.800269 -0.000380536 1.60196e-20)
(1.02483 0.000421297 3.52845e-23)
(1.02355 0.000165503 5.11928e-23)
(1.0249 0.00040575 -3.30669e-22)
(1.02091 -0.000155306 0)
(1.02509 -0.00437904 0)
(1.06783 -0.0104135 -1.14801e-20)
(0.945748 -0.00981405 3.96372e-21)
(1.02286 0.000101377 0)
(1.04449 -0.000287098 1.93051e-21)
(1.02185 0.000152629 0)
(1.03698 -0.00811862 1.83603e-21)
(1.05066 0.00604369 0)
(0.27989 -0.0507091 2.62784e-20)
(1.02529 -0.00086251 2.05508e-22)
(1.04628 0.00502258 3.10595e-22)
(1.06533 0.0105476 -1.25315e-20)
(1.0568 0.0082895 -5.98119e-21)
(0.43977 0.0251313 -4.95927e-22)
(1.0231 -0.000152493 1.86173e-23)
(1.02517 -0.000770207 -1.89422e-22)
(1.07132 0.000183151 8.53952e-21)
(0.715031 0.021521 -1.04619e-20)
(1.0564 0.00789753 0)
(1.04658 0.0041151 -4.40315e-21)
(1.04426 -0.0300692 -2.9817e-22)
(0.693747 0.0224593 -5.05407e-21)
(1.03638 -0.00214105 2.89866e-21)
(1.02617 0.000151292 -5.46944e-23)
(1.02225 -9.43757e-05 -9.24712e-24)
(0.834783 0.0117338 9.41393e-21)
(0.871493 -0.014724 0)
(1.02383 0.00178279 0)
(0.262269 -0.0547421 0)
(0.834346 0.0122941 -1.03309e-20)
(1.0773 -0.0127652 -9.98717e-21)
(1.03674 -0.00716737 3.2173e-21)
(1.02361 0.000462238 -5.84167e-22)
(1.02388 0.0018923 2.83503e-22)
(1.04514 -0.00299276 0)
(0.84989 -0.0409517 -1.48027e-21)
(1.04867 -0.012897 0)
(0.704796 0.0183822 -1.27251e-20)
(1.02239 -0.000118784 -1.67606e-22)
(1.02241 -0.000231397 -8.91595e-24)
(1.02493 -0.00102899 -1.5064e-22)
(1.03683 -0.00664648 -5.33375e-23)
(1.02252 -5.95634e-05 -4.90502e-23)
(1.04479 -0.0309137 0)
(1.03732 -0.00852327 1.74086e-21)
(1.02256 -1.84414e-05 3.33285e-23)
(1.05332 0.0021701 2.58903e-21)
(1.07389 0.0126785 3.22635e-20)
(1.0424 0.00599963 2.91815e-21)
(1.04299 0.00987071 0)
(0.667762 0.0215674 -1.87745e-20)
(1.07261 0.0132431 0)
(1.08531 0.00726132 0)
(1.0538 -0.00379671 0)
(1.02182 -0.000261538 -8.30607e-24)
(1.02515 -0.00417521 1.1483e-23)
(1.02197 -6.95421e-05 1.89633e-22)
(0.995924 -0.00954007 -7.355e-22)
(1.0209 -0.00034121 7.60334e-24)
(1.0329 -0.0184959 -7.78034e-22)
(1.04196 0.00626853 5.29284e-21)
(1.02565 0.000177378 0)
(1.02551 0.000178145 1.68373e-23)
(1.02498 -0.00209873 6.12461e-23)
(1.02173 0.00110177 -1.73258e-22)
(1.02774 -0.000395988 0)
(1.05405 -0.0172219 -2.54891e-21)
(1.0375 -0.005952 -3.38849e-21)
(1.02228 -0.00010384 1.70678e-22)
(1.02528 -0.000394376 1.15119e-23)
(1.02129 -3.46447e-05 6.45261e-24)
(1.0685 0.00039763 1.28867e-20)
(1.0223 0.0028311 0)
(1.02284 -0.000407046 -6.81499e-24)
(0.98835 -0.0106847 7.15137e-22)
(0.881543 -0.0172927 1.69328e-20)
(1.06854 -0.017339 1.16126e-20)
(1.02523 -0.00038266 -1.25369e-23)
(1.02222 -7.81257e-05 5.01024e-23)
(1.02324 8.73386e-05 -6.81294e-24)
(-0.0343686 0.0531234 1.23355e-20)
(1.03206 -0.00580209 2.89222e-21)
(1.02172 -2.16102e-05 -1.27959e-22)
(1.0218 -4.54516e-05 1.13704e-23)
(1.03739 -0.00646923 0)
(1.02526 -0.000386855 6.51889e-23)
(0.809178 0.0142332 -2.2799e-20)
(0.51356 0.0131573 2.47792e-20)
(1.02496 -0.00168187 -5.01218e-22)
(1.02628 -0.000229223 -1.09981e-22)
(1.02222 0.00101852 2.87876e-23)
(0.666847 0.0199756 9.98931e-22)
(1.0252 -0.000438555 -6.44484e-23)
(1.08381 0.0080292 -1.3583e-20)
(1.0223 -9.33286e-05 -1.79619e-22)
(0.711493 0.00395696 -1.17659e-22)
(1.02333 0.000102897 -1.75969e-22)
(1.02563 -0.00136217 0)
(1.02515 -0.000475765 0)
(1.05883 -0.0346308 0)
(1.02197 1.0641e-05 -5.97531e-23)
(0.620964 -0.0469894 0)
(1.03275 0.000250939 -5.24773e-23)
(1.03199 -0.0185084 -6.62629e-22)
(1.03695 -0.00028029 1.3443e-21)
(1.01858 -0.0089971 -3.89593e-22)
(1.02216 0.00265189 -2.33135e-23)
(1.06779 0.0133287 0)
(1.02268 -0.00827274 3.2642e-22)
(0.714075 0.0182662 1.87738e-20)
(1.03161 0.00609631 -1.34098e-21)
(0.903836 -0.0132729 1.88226e-20)
(1.02164 -9.7654e-05 0)
(1.047 -0.008614 -1.07263e-22)
(1.06094 -0.0285568 -1.60583e-20)
(1.02214 -7.01819e-05 0)
(1.02134 -3.14234e-05 -1.23821e-24)
(1.06406 0.0115957 2.94357e-20)
(1.02489 -0.00156184 -2.52674e-22)
(1.04465 -0.0365613 0)
(1.06993 0.0010978 6.57939e-21)
(1.02289 9.88523e-05 -7.75299e-23)
(1.02126 -0.0124368 2.39518e-21)
(1.0446 0.00670305 0)
(0.329779 -0.0611648 1.2814e-20)
(0.934672 -0.0308808 0)
(0.806732 0.0133751 -3.32127e-20)
(1.02524 -0.000465689 0)
(0.584138 -0.0350157 0)
(1.07659 -0.0112797 2.18653e-20)
(1.02521 -0.000341182 -5.43838e-22)
(1.05638 0.00685371 1.49194e-20)
(1.05955 -0.000877343 -1.42331e-20)
(1.03343 -0.0341745 -1.49817e-22)
(1.02512 -0.000617656 0)
(1.02587 -0.00039076 -7.34139e-23)
(1.0258 0.00015279 0)
(1.0222 -8.64658e-05 1.75365e-22)
(1.02575 -0.000355042 0)
(1.02477 -0.000821974 0)
(1.02571 0.000160937 0)
(1.04011 -0.0378954 0)
(0.690311 0.00371673 0)
(1.03341 0.00509441 0)
(1.02852 -0.0157078 4.44361e-22)
(1.0288 -0.00738787 5.94035e-23)
(1.02531 0.00372235 0)
(1.02607 0.00014446 0)
(0.823629 0.0130951 1.47554e-20)
(1.03017 0.00169843 1.77193e-21)
(1.06457 0.00973038 1.18895e-20)
(1.02322 0.000102853 8.85838e-23)
(1.06404 -0.020899 1.48504e-20)
(1.06092 -0.000628005 -1.79541e-21)
(1.06363 -0.0320765 1.63254e-20)
(1.02803 -0.00653939 0)
(1.02168 3.62702e-05 -2.47375e-22)
(1.03044 -0.0117013 -2.47947e-21)
(1.02575 -0.0062271 -2.28738e-22)
(0.66254 0.0165492 0)
(0.694409 -0.0109532 5.33275e-21)
(1.06762 0.000370611 2.39361e-20)
(1.0342 -0.00740311 3.24763e-21)
(1.02579 0.000216767 -1.33163e-22)
(1.02293 -0.00526734 0)
(0.905782 -0.0488308 0)
(1.03378 0.00525721 1.93487e-21)
(1.02665 -0.000361915 8.94372e-23)
(0.840798 0.0120466 -9.78156e-21)
(1.05108 -0.0116099 0)
(1.02597 -0.00644918 6.85506e-23)
(0.515633 -0.0176117 3.40386e-21)
(0.769839 -0.0587318 1.78923e-20)
(1.0444 0.000160742 -6.13472e-22)
(1.0209 -0.00013594 2.23404e-23)
(0.933114 -0.00810937 -1.26599e-21)
(1.06499 0.0114866 -1.32649e-20)
(1.02478 -0.000732986 -3.37685e-22)
(0.897182 -0.00584897 0)
(1.03097 0.00418329 -3.44416e-21)
(0.682296 0.0206667 -1.76596e-20)
(1.06088 -0.00696522 7.37313e-21)
(1.02329 0.000112428 0)
(1.03066 0.00402854 3.11189e-21)
(1.03061 0.00456641 -2.70051e-23)
(1.02498 -0.000211788 -3.64651e-23)
(1.05191 0.00719686 1.12624e-20)
(1.02317 0.000787468 -6.99132e-23)
(0.818736 -0.0436509 0)
(0.812577 -0.00953374 -3.23804e-23)
(1.02585 0.000141907 0)
(1.02668 -0.000122272 0)
(0.827273 0.0121025 -8.66373e-22)
(1.05118 -0.0126557 7.26679e-21)
(1.02482 -0.000877364 2.10324e-22)
(1.0221 -0.000302128 0)
(1.02557 0.00389378 0)
(0.824897 -0.0282749 0)
(1.02749 -0.00021481 4.69246e-23)
(1.02491 0.000257838 3.75134e-22)
(1.02487 -0.000944212 0)
(1.02721 -0.00472047 2.66105e-23)
(-0.0268905 0.0602228 1.17014e-20)
(1.02409 -0.00141867 -5.40432e-22)
(1.02016 0.000275796 5.86191e-22)
(1.0224 -0.0118529 1.36581e-21)
(1.02548 -0.00378091 -2.13089e-23)
(1.02454 -0.000619609 0)
(1.03267 -0.000542533 0)
(1.02551 -0.000265788 0)
(1.02755 -0.000715704 -3.97453e-23)
(1.02538 -0.000244054 6.07685e-23)
(1.01035 -1.64914e-05 -4.42112e-23)
(1.02413 0.00126895 0)
(1.06441 0.00913709 -1.19028e-20)
(0.579445 -0.0219918 -3.50548e-21)
(1.03335 0.000261375 1.91064e-21)
(1.03711 0.00912317 0)
(0.960711 -0.0401646 1.98071e-21)
(1.02106 -0.000135242 1.85226e-23)
(1.02556 -0.000366564 0)
(1.02043 -0.00592107 -1.93369e-21)
(1.02571 -0.00136417 -1.00219e-22)
(1.03444 0.00593934 5.85617e-24)
(0.895123 -0.0493008 -8.81732e-21)
(1.02217 5.74353e-05 -1.0987e-23)
(0.853284 0.009973 0)
(1.02507 -0.000383716 -4.8761e-23)
(1.04506 0.00625009 -1.75835e-21)
(1.06204 0.00635642 -8.59842e-21)
(1.02601 0.000143035 4.08873e-23)
(0.687895 0.0189806 0)
(1.03654 0.00758505 2.84432e-21)
(1.02495 -0.00395764 -4.27187e-22)
(1.03246 0.00147407 0)
(0.473201 -0.0128341 0)
(1.03503 -0.0304297 -8.73421e-22)
(0.687711 0.00277909 1.99802e-20)
(1.05383 -0.0218076 -1.09893e-20)
(1.02275 0.00266875 0)
(1.02396 0.00230236 0)
(1.02568 -0.00147991 0)
(1.02354 -8.28988e-05 2.71025e-23)
(1.02574 -0.000747044 -1.58543e-23)
(1.02036 -0.00628452 1.99494e-21)
(1.02192 0.00110909 8.67039e-23)
(1.02868 -0.0113479 -1.44099e-22)
(1.02229 -0.00032545 -1.92669e-23)
(1.02587 -0.00147208 2.87437e-22)
(1.02645 -0.000289753 -2.25998e-22)
(0.815455 -0.0022833 -3.21053e-22)
(1.0707 0.0109565 -8.82722e-21)
(1.02238 -9.26814e-05 4.23486e-23)
(0.680923 -0.0369624 6.05104e-22)
(1.02739 -0.000531771 0)
(1.02712 -0.00145054 3.812e-22)
(1.02375 -0.00243926 7.31624e-23)
(1.02554 0.0042916 9.1142e-23)
(1.02523 -0.000713905 0)
(-0.0228511 0.0635113 -4.7687e-20)
(1.03826 -0.00987151 -1.98349e-21)
(1.02181 0.00255115 0)
(1.05169 0.00311526 3.82328e-21)
(1.0193 0.00058856 0)
(1.02208 -1.71157e-05 1.05104e-22)
(1.02303 0.00270586 0)
(1.02877 -0.0118407 -2.31637e-22)
(1.0207 -0.000106115 7.49067e-24)
(1.04639 -0.00991321 0)
(1.02485 -0.00211818 0)
(1.02386 0.000703296 4.79501e-22)
(1.02997 0.000136405 5.9362e-22)
(1.0362 -0.0054697 2.78351e-21)
(1.02532 -4.80123e-06 1.2315e-22)
(1.02317 -0.00174421 -6.68676e-23)
(1.02473 -0.00079512 0)
(1.03305 -0.00338297 -1.83176e-21)
(1.02301 0.000739206 0)
(1.03794 -0.0263868 3.72568e-21)
(0.851197 -0.0137595 2.92984e-23)
(1.0611 -0.0337154 -1.15792e-20)
(1.02508 -0.000387239 -6.05942e-23)
(1.02644 -0.00012156 0)
(1.02035 -3.70747e-05 0)
(1.0239 -0.00138211 -1.08612e-21)
(1.02244 -4.42263e-05 8.61845e-23)
(1.05147 0.00750032 -3.93843e-21)
(0.970482 -0.0136603 0)
(0.852648 -0.010502 6.62695e-23)
(1.02377 -0.000297717 1.56896e-22)
(0.816125 0.0138684 0)
(1.02578 -0.000711063 7.28851e-23)
(1.02174 -0.000245675 -1.83157e-23)
(1.02432 -0.00217912 5.48195e-22)
(1.01078 -7.28081e-05 -6.23736e-23)
(1.07858 -0.0126386 0)
(1.02602 -0.00337149 -3.46276e-22)
(1.02319 -0.000142562 -5.06002e-24)
(1.0206 -8.63076e-05 0)
(1.04795 -0.00315932 -9.72625e-21)
(1.0302 -0.000228342 -2.77827e-21)
(0.821894 0.0120502 -2.92377e-21)
(1.04905 -0.0369797 0)
(1.07146 0.0138101 -7.68904e-21)
(1.02102 -0.000130481 -5.26618e-23)
(1.02207 5.45275e-05 0)
(0.99018 -0.0396737 -2.31213e-21)
(1.02108 -0.000339712 -2.35195e-23)
(1.02526 -0.00042888 5.762e-23)
(1.05034 -0.0357766 0)
(1.03318 -0.00371242 0)
(1.04652 -0.0105038 -6.61299e-21)
(1.02486 0.000268281 -3.76941e-22)
(1.0213 0.00384566 2.0357e-22)
(1.02411 -0.00127635 0)
(0.73104 -0.00061939 0)
(1.02473 -0.0014406 0)
(1.07066 0.0139725 1.27483e-20)
(1.02501 -0.00380021 -3.06129e-23)
(1.02508 -0.0382649 0)
(1.02561 0.000546243 6.53721e-23)
(0.835701 0.0127169 4.4709e-21)
(1.02112 0.00361977 0)
(0.810673 -0.0430267 1.59719e-21)
(0.826668 0.0128312 1.02777e-20)
(1.02591 7.01995e-06 -3.33615e-23)
(0.596099 -0.0636464 7.24297e-22)
(1.02276 -4.74819e-05 -1.49897e-22)
(1.06387 0.00361132 5.62523e-21)
(1.02293 0.000107526 4.69859e-23)
(1.02793 0.00369952 2.71709e-21)
(0.53929 -0.0643034 3.42347e-20)
(0.598696 -0.0648108 1.31632e-20)
(1.05672 0.00728486 -1.67829e-20)
(1.02476 0.000235527 -9.06513e-23)
(1.03309 0.000428614 0)
(1.06458 0.0117972 -6.43829e-21)
(0.845679 -0.00712356 4.2282e-22)
(1.03657 -0.00254393 0)
(1.02362 -0.00540744 1.63283e-21)
(1.02537 0.00414794 0)
(1.02409 0.000607715 -9.71797e-22)
(1.07922 -0.0110825 0)
(0.966305 -0.00293929 -6.81753e-22)
(1.05382 -0.0210314 0)
(1.02336 -4.68773e-05 -1.24703e-23)
(1.02147 -2.31735e-05 7.98819e-23)
(0.933002 -0.0410568 1.97915e-21)
(1.02305 -0.000119606 0)
(1.06324 -0.0115928 1.41024e-20)
(1.02322 -0.000262594 0)
(1.02158 -1.2352e-05 2.21028e-22)
(0.830182 0.0128266 0)
(1.02526 -0.00039077 -1.17551e-22)
(1.02478 -0.00157126 5.61413e-22)
(1.03239 -0.00493029 0)
(1.05553 -0.00601842 0)
(1.02299 -0.00016282 1.88803e-23)
(0.793358 0.00425154 -1.7554e-22)
(0.9488 -0.00665502 3.17516e-23)
(1.02488 -0.000120693 -4.90774e-23)
(1.03363 0.00648713 0)
(1.02473 -0.000112476 4.20868e-23)
(1.02558 -0.00145352 -2.40704e-23)
(1.02504 -6.85446e-05 0)
(1.03234 -0.00060294 0)
(1.03039 -0.00636433 0)
(1.02118 0.00323507 0)
(1.02763 0.00357077 -1.8095e-21)
(1.02621 -0.00157787 0)
(1.03603 -0.00781513 0)
(1.02483 -0.00183599 1.26474e-22)
(0.815059 -0.0259953 0)
(1.02451 -2.60027e-05 -2.27151e-22)
(1.02077 9.71087e-05 -4.00903e-23)
(1.02603 -0.00206279 1.94769e-23)
(1.02494 0.000306845 2.19835e-22)
(1.02131 0.000162436 -4.36491e-22)
(1.02131 0.000164754 -2.37616e-22)
(1.0718 0.00101149 -2.82354e-20)
(1.03046 -0.0188231 -9.27444e-22)
(1.05818 -0.030327 7.46558e-21)
(1.02088 -0.000130672 0)
(1.02504 -8.90777e-05 0)
(1.02995 0.00625094 0)
(1.03706 0.00020114 0)
(1.02444 -0.005615 0)
(1.0252 -0.000193085 6.99514e-24)
(1.08286 0.00945483 -1.3879e-20)
(1.02538 -0.00638907 2.17453e-22)
(1.0255 -0.00062117 0)
(0.698631 0.0196577 -1.30269e-20)
(1.02207 -0.000333518 -2.46441e-24)
(1.02534 -0.000209458 -6.67415e-23)
(1.02544 0.000878589 0)
(1.06608 -0.0207416 -2.42783e-20)
(1.02444 -8.15069e-06 6.74749e-24)
(1.03657 -0.00581291 0)
(1.05115 0.00340334 0)
(0.915956 -0.0154791 -3.39005e-20)
(1.0343 -0.0135767 2.89647e-21)
(0.825731 0.0127941 8.84413e-22)
(1.04595 -0.00220414 -4.38535e-21)
(1.03119 0.00805778 -2.44444e-21)
(1.04356 0.00135504 0)
(1.01827 0.00231084 -8.29127e-22)
(1.03378 -0.0305485 -1.78092e-21)
(1.03241 -0.00528377 0)
(1.02002 0.000149988 7.57184e-22)
(1.02366 -0.000270653 -3.12403e-22)
(1.06777 0.00798992 0)
(0.949794 0.0107045 0)
(1.02508 -0.0238397 -3.47272e-22)
(1.02122 0.00015116 5.4366e-22)
(0.53387 -0.0647078 -1.13935e-20)
(1.02356 -0.000330003 -1.31866e-22)
(0.358541 -0.0576141 -2.55829e-20)
(0.715012 0.018412 0)
(1.03661 0.0087346 0)
(0.913418 -0.0111211 1.6908e-20)
(1.04354 0.00167926 0)
(1.03111 -0.00374074 -1.8613e-21)
(1.02555 -0.000296854 -5.99295e-23)
(1.0234 -8.62045e-05 -3.68789e-23)
(1.02351 -0.00015543 0)
(1.06915 -0.0250291 -9.60676e-21)
(1.02968 -0.00271378 0)
(1.06748 -0.0159602 5.37889e-21)
(1.02282 -0.000118339 -1.36303e-23)
(1.02458 -0.00128888 0)
(0.762642 -0.0112557 0)
(1.03637 0.00730593 0)
(1.02199 -0.000258504 0)
(1.0254 -0.0179777 7.98107e-23)
(1.02628 -0.00221433 0)
(1.02353 -0.000315453 1.25426e-22)
(1.02261 -0.000388185 2.87629e-25)
(0.979527 0.0149533 0)
(1.02066 -0.000188482 0)
(1.03012 -0.00609902 6.95119e-22)
(1.02145 0.00117545 0)
(1.02572 -0.000328594 -4.02792e-24)
(1.02514 -0.00617115 0)
(0.818405 0.000269236 4.82178e-23)
(1.04168 0.0071859 -5.09707e-21)
(0.45175 -0.0092077 -1.05725e-20)
(0.849751 -0.0516523 8.28344e-21)
(0.828655 0.00735418 -3.53916e-20)
(1.0628 0.00308531 0)
(1.03414 0.00768894 -1.07342e-22)
(1.02551 0.000679534 -2.35463e-22)
(1.02478 0.00116373 0)
(1.02962 -0.00245266 0)
(1.025 0.000327358 -2.67329e-22)
(0.799717 -0.000836387 -1.05683e-22)
(1.02329 -6.23735e-05 0)
(1.02542 -0.000684915 0)
(1.02487 -0.000959625 8.68445e-23)
(0.784491 -0.0234836 -1.17497e-20)
(0.681793 0.024888 -1.6161e-20)
(0.707455 0.0223784 4.48336e-21)
(1.02177 -8.43159e-05 0)
(1.02516 -0.00220949 6.25026e-22)
(1.0421 0.00685096 2.83297e-21)
(1.02543 -0.000697422 3.18853e-23)
(1.05011 0.00618016 -1.37688e-20)
(1.03012 0.00669264 6.50443e-23)
(1.04098 -0.0187175 0)
(1.02952 -0.0185636 1.24523e-22)
(1.05344 0.00808243 2.03761e-20)
(1.02144 -8.3806e-05 2.79198e-23)
(1.0267 -3.04956e-05 0)
(1.02155 -7.84722e-05 0)
(1.06851 0.0127048 1.04052e-20)
(1.03141 -0.00320594 -1.15449e-21)
(0.933627 -0.0154631 0)
(1.02143 -0.000204959 -1.16815e-23)
(1.03083 -0.00354434 6.46356e-23)
(1.06593 -0.0154753 -2.22237e-20)
(1.02338 -0.000153984 8.35455e-24)
(1.06267 -0.0109808 -1.83383e-20)
(1.02536 8.10186e-05 -4.321e-22)
(1.02662 0.000307972 4.7667e-23)
(1.05109 0.0160797 -7.53053e-21)
(1.06713 0.00746945 7.88869e-21)
(0.865771 0.0089693 0)
(1.06324 0.00370487 -5.56299e-21)
(1.02219 -2.81554e-05 -1.54872e-22)
(1.02295 0.000107673 4.58311e-23)
(1.02661 -0.000820291 3.16331e-23)
(1.04436 0.00848894 -3.67094e-21)
(1.02784 -0.0159997 -3.61612e-22)
(1.0309 0.00592944 0)
(1.02462 -0.00143014 0)
(1.02453 -0.00605873 -2.94063e-22)
(1.02498 -0.00557011 9.09122e-22)
(1.02248 -6.03853e-05 1.89528e-23)
(1.0215 0.000416445 -3.77805e-25)
(0.741707 -0.0578785 -3.15207e-20)
(1.02496 -0.000147142 4.54101e-23)
(1.02183 -0.000262805 2.09449e-23)
(1.02573 -0.000310867 -1.69916e-22)
(0.960426 -0.0158338 0)
(-0.041473 0.0437881 0)
(1.03121 0.00658371 -1.87245e-21)
(1.04674 -0.00526618 0)
(1.02488 -1.59672e-05 -4.9042e-23)
(1.02438 -0.0349006 1.99621e-22)
(1.02529 -0.000376195 0)
(1.02564 -0.000317871 8.68094e-25)
(1.02559 -6.04998e-06 2.34756e-23)
(0.470266 -0.0418303 0)
(1.03133 -0.031285 1.72924e-21)
(1.03106 -0.00309003 8.62727e-22)
(1.02479 -0.000856633 -1.86314e-22)
(1.02165 0.00119762 -1.06147e-22)
(1.02338 -0.000304582 1.06882e-22)
(1.04557 -0.036125 2.04676e-21)
(1.02638 -0.0179377 -2.24052e-22)
(1.02493 0.00546858 7.57181e-23)
(1.05211 -0.00124866 2.65563e-20)
(1.02163 -0.0112595 -1.31965e-21)
(1.02103 -0.00017558 0)
(1.04365 0.00846259 0)
(1.04395 -0.0374235 1.28311e-20)
(1.02549 -0.000333846 0)
(1.02524 0.00557201 -1.10665e-21)
(0.994229 0.0145096 0)
(1.06675 0.00715764 -7.49189e-21)
(1.02513 -0.00015947 0)
(0.807449 0.0137243 0)
(1.02293 -0.00748342 2.85429e-22)
(0.942206 -0.00638317 -4.53929e-21)
(1.04624 -0.00838256 -2.39344e-21)
(1.02009 -0.00170455 0)
(0.948402 -0.0134381 1.71574e-20)
(0.693816 0.0206861 -3.43748e-20)
(1.0708 0.0119698 0)
(1.02246 0.000100188 -9.91099e-23)
(1.02287 -0.000131106 0)
(0.0049154 -0.00592254 3.02797e-21)
(1.02499 -0.0119152 -2.40919e-22)
(1.06216 0.00319484 -9.78202e-21)
(1.03069 0.000235266 -1.70628e-21)
(1.0388 0.00554893 -4.20287e-21)
(1.02762 -0.00110716 1.67126e-22)
(1.02227 0.00122042 3.10021e-23)
(0.859338 -0.00912971 -1.94836e-22)
(1.02714 -0.00731995 -1.73699e-22)
(1.02466 -0.00573217 0)
(1.07929 -0.007434 -2.23689e-20)
(1.02201 0.00100837 -1.24095e-22)
(1.02273 -0.000177678 -3.39188e-23)
(1.02225 8.19358e-05 1.32829e-23)
(1.05477 -0.00625524 0)
(1.03888 -0.00975675 -7.37925e-21)
(1.03425 -0.00683705 0)
(1.02212 -0.000232463 2.15431e-23)
(1.02217 -8.06602e-05 -2.07642e-22)
(1.04269 0.00473909 0)
(1.02618 -0.000335078 1.44513e-22)
(1.04493 -0.0279071 4.93906e-21)
(1.05308 0.00781624 -1.10567e-20)
(1.02213 7.16993e-05 0)
(0.869613 -0.0500748 -8.1661e-21)
(1.0214 -4.83938e-05 -4.86704e-23)
(1.04551 -0.0287382 0)
(1.05107 0.00650346 3.73126e-21)
(1.02573 -0.00075831 3.44182e-23)
(1.02549 0.00206156 0)
(1.02181 -9.72975e-05 -9.78747e-24)
(1.07343 0.00485558 -1.00172e-20)
(1.02603 -0.000342997 -7.06397e-23)
(1.02833 -0.0127442 9.43167e-23)
(1.03166 0.00802885 1.27124e-21)
(1.02989 -0.0115379 0)
(0.86793 -0.0165391 -2.75356e-21)
(1.02231 8.85437e-05 2.95589e-23)
(0.795425 -0.0254156 0)
(1.02903 -0.016184 0)
(0.85848 -0.0347856 7.81038e-21)
(1.03807 0.00190908 0)
(1.02646 -7.93037e-05 3.78006e-23)
(0.990325 0.0160231 0)
(0.731888 0.0177844 -2.36164e-20)
(1.02571 -0.00175153 3.97068e-23)
(1.02659 -0.000808547 3.32538e-24)
(1.02149 -0.000100836 -1.47176e-23)
(0.705505 0.021449 4.52352e-21)
(1.01744 -0.0402712 -9.96405e-21)
(1.02956 -0.0174944 5.80874e-22)
(1.02575 -0.000379387 -1.6314e-24)
(1.02218 9.10437e-05 -1.00849e-23)
(1.02988 -0.000815648 2.11369e-22)
(1.04141 -0.0179863 0)
(0.67579 0.0211759 9.31464e-21)
(1.02264 -3.62873e-05 -7.51117e-24)
(1.02084 -0.0017483 -5.40329e-22)
(0.816162 0.0132825 2.43237e-21)
(0.905483 -0.0177274 3.48558e-20)
(1.02415 -8.24138e-05 -9.64269e-24)
(1.02374 -0.0189309 0)
(1.02233 -0.00559139 -1.68885e-21)
(1.02971 -0.00749488 -2.034e-21)
(1.02563 -0.000373368 4.08841e-23)
(1.02086 0.00317118 0)
(0.825991 0.00865218 1.24568e-20)
(1.02202 -5.8896e-05 7.74935e-23)
(1.0306 2.09961e-05 -7.90672e-22)
(1.05931 -0.00529515 0)
(1.02367 -0.000246674 -1.3535e-22)
(1.02481 -0.000593396 1.32295e-25)
(1.03621 -0.00726694 0)
(1.04109 0.010166 2.49713e-22)
(1.017 -8.28947e-05 3.4325e-22)
(1.04482 -0.00313436 1.44476e-20)
(1.06502 -0.0308689 -2.61919e-20)
(1.03205 -0.0317184 4.95614e-21)
(1.02532 0.000842272 9.67987e-23)
(1.02492 -0.00104091 2.02534e-22)
(1.03894 0.00597747 -4.55419e-21)
(1.02991 0.00193818 -7.31299e-22)
(0.715977 0.0180941 2.35435e-20)
(1.01626 -5.48067e-05 -7.01032e-24)
(1.02349 -0.000321304 2.68576e-22)
(1.0233 -0.0001036 0)
(0.904973 -0.00462184 0)
(1.02414 0.000128024 3.13675e-24)
(1.02503 0.000963609 0)
(1.01613 0.000111469 3.17156e-23)
(0.827254 -0.0434138 0)
(1.03661 -0.0293951 0)
(1.02594 -0.000451169 5.50593e-23)
(1.03855 -0.0272093 3.57557e-21)
(0.861459 -0.0433255 2.27376e-20)
(1.0269 -0.00375087 0)
(1.07039 0.000217547 -2.19105e-20)
(0.135807 -0.0418801 0)
(1.06912 0.0101599 -9.71436e-21)
(1.06915 -0.026385 -1.07402e-20)
(1.06092 -0.00782336 -4.34646e-21)
(0.669067 0.0151998 0)
(1.04113 0.00698001 5.01676e-21)
(1.06831 0.015431 0)
(1.03662 -0.0264518 -2.8543e-21)
(0.328859 0.00763455 0)
(1.02157 0.000326935 -7.75745e-23)
(0.793319 -0.00153959 0)
(1.02679 -0.00721608 1.22779e-22)
(1.02961 -0.000760259 0)
(1.03334 -8.07186e-05 4.6001e-23)
(1.02616 -0.00209105 8.7536e-23)
(1.02485 -0.000919092 -4.99039e-23)
(1.05843 -0.0029735 1.52153e-20)
(1.02933 -0.0033907 1.38663e-21)
(1.0253 -0.000636493 0)
(1.02611 -0.00158691 0)
(1.04114 -0.0204205 -7.05684e-21)
(0.891128 -0.0405515 1.35107e-21)
(1.06242 0.00698459 1.83991e-20)
(1.02246 0.000606507 -9.06086e-23)
(1.02238 -0.000179157 0)
(1.02372 0.000168827 -1.80463e-23)
(1.02551 0.00189856 -1.09351e-21)
(1.02359 0.00161553 6.50136e-22)
(1.02819 -0.0122886 0)
(1.04549 -0.00196982 0)
(1.02466 -8.88504e-05 9.36872e-24)
(1.03321 -0.00278849 1.59565e-21)
(1.03702 -0.0285019 0)
(1.02337 -0.000194599 -4.17208e-23)
(1.02271 -0.00784814 3.58499e-22)
(0.522047 -0.0645017 1.71214e-20)
(1.02472 0.000255693 0)
(1.02138 -4.28973e-05 8.63567e-24)
(1.02132 -0.0121684 -9.2554e-22)
(-0.0201066 0.0871961 -3.53898e-20)
(1.02525 -0.000568662 0)
(0.929497 -0.00341947 -1.93729e-20)
(1.02169 -0.00024582 0)
(1.0243 -0.0016421 7.61998e-22)
(1.02222 -0.000325462 -9.57875e-24)
(1.02222 -5.66255e-05 0)
(0.802642 -0.0547176 -3.39569e-20)
(1.05896 -0.00147682 1.35363e-20)
(1.0454 -0.00331016 -7.79866e-21)
(1.0309 0.00213185 -3.36292e-21)
(1.02238 -1.4355e-05 -1.43789e-23)
(1.02509 -0.0011487 9.85524e-23)
(1.02351 -0.000197046 3.31104e-23)
(1.03311 -0.000230113 0)
(1.02242 -3.63858e-05 3.27959e-23)
(1.02495 -0.00180751 3.71701e-22)
(-0.0205258 0.0709862 -3.08684e-20)
(1.02134 -0.000196086 0)
(1.02668 -0.00369593 0)
(1.02748 -0.00115083 -1.92748e-22)
(1.02929 -0.00320143 -6.46023e-22)
(1.02366 -0.000287303 -4.27894e-23)
(1.0633 0.00795913 3.50524e-21)
(1.02595 -0.00146733 0)
(1.02433 -4.77456e-05 0)
(1.0185 0.00249516 0)
(1.05401 -0.0187806 1.28883e-20)
(1.02593 -0.00192878 4.65143e-23)
(0.873245 0.0103778 -8.5953e-23)
(1.02692 -0.00135117 -5.76542e-22)
(1.05031 -0.0226168 0)
(1.03296 -0.00072389 -3.62988e-21)
(0.81118 -0.0465828 -1.14524e-20)
(1.03261 0.0016079 0)
(1.02152 -2.28899e-05 0)
(1.02096 0.00280233 -3.07132e-22)
(-0.0222635 0.0426642 -1.76562e-20)
(1.03146 0.00731953 -2.38467e-21)
(1.04031 -0.00790181 3.17097e-21)
(1.07037 -0.0233589 0)
(0.838846 -0.0173171 -2.17516e-20)
(1.00012 0.0140862 0)
(1.0593 -0.0331857 2.20011e-20)
(1.0216 0.000287812 1.63038e-22)
(1.0462 -0.00748749 -5.41828e-21)
(0.821974 0.00720395 3.52846e-20)
(1.05403 -0.00582279 -2.43816e-21)
(1.04604 0.00592779 4.80066e-21)
(0.67653 0.0227317 0)
(1.02398 0.00169599 0)
(1.02217 -0.000312314 1.77941e-23)
(1.02296 -0.00015308 0)
(1.03159 0.0068692 1.10828e-21)
(1.02714 0.000812446 1.52754e-21)
(1.04276 0.00310944 0)
(1.02053 0.000304937 0)
(1.02828 -0.00249178 -6.85906e-22)
(1.04709 -0.00921218 5.67284e-21)
(1.02507 0.000452862 -8.55143e-22)
(1.02428 -0.0019737 -4.33961e-22)
(1.02525 0.00177972 3.68827e-22)
(0.854419 -0.0137562 0)
(1.021 -0.000130038 -4.30506e-24)
(1.02472 -0.000468243 0)
(0.822562 0.0130303 2.38483e-21)
(0.657434 0.0196335 7.20663e-21)
(1.02581 0.000165969 2.61101e-23)
(1.02515 0.00330308 0)
(1.02168 -0.000284017 -5.83986e-25)
(0.846891 -0.00704478 0)
(0.852632 0.011736 0)
(1.03273 -0.00477491 1.78107e-21)
(1.02076 0.00294922 4.20597e-22)
(1.02732 -0.000693883 0)
(1.02583 -0.000552022 -2.58837e-23)
(0.979976 -0.00519972 6.47177e-22)
(1.03038 -0.00656915 0)
(1.03458 -0.00766345 -5.5218e-21)
(1.03482 -0.015054 -8.6849e-22)
(1.02609 -0.00111013 9.84085e-23)
(1.02495 0.000312748 4.66631e-22)
(0.752606 0.00715242 -1.66421e-22)
(1.02612 -0.00229617 -2.58689e-23)
(1.02179 -0.000127468 -1.6803e-23)
(1.08552 0.00553781 3.22531e-21)
(1.02 -0.00241506 0)
(1.03055 0.00207698 6.74975e-23)
(0.973026 0.00115506 -3.11852e-22)
(1.07407 0.00422561 5.09095e-21)
(1.0268 -0.0169913 2.3154e-22)
(1.0251 -0.000374992 0)
(1.02491 -0.000343728 7.57191e-23)
(1.02467 -0.0115584 4.46052e-22)
(1.02227 -4.68262e-05 5.63127e-23)
(1.02925 0.00199062 -1.28826e-21)
(0.643216 -0.00698645 -1.54659e-21)
(1.02469 -0.000437944 0)
(1.06917 0.0107795 -1.26227e-20)
(1.0248 0.000270481 0)
(1.02513 -0.000383106 0)
(1.02191 -0.000135888 1.62101e-23)