/*--------------------------------*- C++ -*----------------------------------*\
| =========                 |                                                 |
| \\      /  F ield         | OpenFOAM: The Open Source CFD Toolbox           |
|  \\    /   O peration     | Version:  v2012                                 |
|   \\  /    A nd           | Website:  www.openfoam.com                      |
|    \\/     M anipulation  |                                                 |
\*---------------------------------------------------------------------------*/
FoamFile
{
    version     2.0;
    format      ascii;
    class       volScalarField;
    location    "250";
    object      ddt0(omega);
}
// * * * * * * * * * * * * * * * * * * * * * * * * * * * * * * * * * * * * * //

dimensions      [0 0 -2 0 0 0 0];


internalField   nonuniform List<scalar> 
13308
(
-0.00359225
-0.412442
-0.235217
-1.2774e-05
0.000696435
1.65137e-05
0.0085388
0.000479416
0.00798498
0.130454
0.44341
0.0137224
1.69194e-05
3.76784e-05
2.26919e-05
-0.355677
0.00434655
-0.582872
-0.24774
0.209275
0.000961262
-0.61921
0.15833
0.000346497
-0.378972
-0.0111828
0.00897542
0.340494
0.00834456
-0.00616446
-1.31244
-0.00168851
0.164596
0.0219498
-0.402197
-0.000178619
0.00996175
0.209341
0.000213961
-0.288624
-6.99119e-06
0.000802013
-1.16771
2.01586e-05
-5.32647e-05
0.0280808
2.29666e-05
-1.0719e-05
0.00331311
-0.211233
-0.000131996
0.000232242
-0.743705
0.00305461
0.0830848
0.0288631
1.67121e-05
0.000149495
0.000192518
0.00020784
-0.0334847
0.0283022
9.26475e-05
-2.0223e-05
7.19873e-06
0.114387
3.17401e-06
0.0353924
-6.47781e-06
0.00808047
1.53244
0.000868336
0.0026821
-0.00191789
-1.07189
-6.32393e-05
7.44131e-06
0.0621499
4.99348e-05
0.00357426
-0.000119683
1.58543e-05
-0.000114129
0.000226454
0.051939
0.00128691
0.657538
-0.384881
-0.0394891
0.217592
0.000164517
-1.13169e-05
0.00301291
0.000398045
0.00026106
0.000125096
0.000663457
0.00523084
5.27176
0.00162363
0.000227099
-1.21035e-05
5.27135e-05
0.00041659
0.126381
-1.02159
-0.222715
5.70806e-07
-0.100699
0.0060836
0.000402045
0.0312405
0.00162991
5.24333e-05
0.000678113
-0.308093
0.0266413
-0.294335
0.00789387
0.000162524
0.00232755
0.00180366
-4.83804e-05
0.0546988
-0.178283
-0.0643834
-0.231652
-0.0798728
0.00159843
-0.307551
3.09694
0.00392145
-3.6997e-05
0.000112851
0.0173806
0.0409377
-2.23214e-05
-0.188308
-0.149303
0.000372722
-0.184629
-0.000255456
-9.03241e-07
0.00133136
0.00109382
-0.00634693
0.0179372
0.177644
0.00013676
0.00488996
0.278402
-5.50809e-05
0.00414697
-0.0455741
-2.41165
-0.156802
-2.41822e-05
-5.04798e-05
-7.67815e-06
0.0668786
0.0900416
8.77601e-05
5.56555e-06
-0.0272454
-0.253619
0.0713382
-0.61041
-5.1695e-05
-0.11265
0.00343154
-0.00113186
-0.137346
-6.90363e-05
-0.204548
0.83328
-0.202529
-0.572879
-0.215937
-0.0448589
5.34459e-05
0.0134033
-0.977892
-4.61789e-05
0.154019
-0.0736282
3.44474e-05
-0.0382717
-1.31061
-0.00189108
-0.0144419
-0.0129783
0.221258
0.00142478
0.0144313
-0.0020815
-0.147686
-0.000840314
0.00906678
0.209114
0.000623078
-0.3764
-0.81695
-0.0611943
0.0158894
-0.360631
0.0256053
-0.316028
-1.07852
0.0014479
0.413528
-0.0294426
-0.00757435
-0.0155621
-0.185506
-0.0700898
0.000108446
-2.96316e-05
-0.249789
0.0991481
-1.15213
0.496976
7.36661e-05
-0.123487
-1.39079e-05
0.00229301
-0.524666
-0.00421998
-0.00272548
0.0233048
0.0248036
-0.258883
-0.00129105
-0.229446
-0.130236
-0.00262371
0.0242392
-0.153664
-0.0139401
-2.73996
-0.000947008
0.000460506
-0.0019213
0.00103846
-5.25044e-06
0.0229721
-0.935706
-0.0104816
0.558584
-1.6151e-05
0.123551
-0.0784363
0.176287
-9.56732e-06
0.0278634
0.110095
0.00050869
-0.0442142
6.64436e-05
0.177988
0.069364
-0.00803695
0.478723
0.0215227
-8.96543e-05
-0.16785
0.00316847
0.0121118
-3.08868e-05
0.694987
-0.487928
0.00533753
0.00225356
1.33783e-05
-0.33743
7.81478e-05
-4.18032e-05
0.000433419
0.0129718
-0.00504164
-0.00612854
-0.106361
9.35445e-07
-0.0242782
-0.000388585
-1.56349
0.777361
-5.81522e-05
-0.00551212
-0.00512527
0.63615
-0.00220395
-2.24914e-05
1.1291
-0.850864
-5.47302e-05
-0.712146
-0.067232
-0.00464898
-0.0064124
-0.499279
0.151306
-0.00157053
-0.0271519
-0.120615
-0.192892
-0.00104895
0.00301225
-0.200281
0.374284
2.95854e-05
-0.188001
-8.17215
-0.000891695
-0.0227484
-0.772889
0.908958
2.69588e-05
-6.30132e-05
3.25467e-05
1.48206
-1.87199e-05
1.32105e-05
-0.284287
1.10584e-05
-1.04204
0.0019214
-0.00137519
7.10155e-05
0.000929164
0.0277336
0.111397
-4.39833e-05
0.3852
-0.000128176
1.90251e-07
-0.234312
-0.440948
-7.6254e-05
-0.00342704
0.483443
0.00104246
-4.52552e-05
3.27368e-05
0.0151571
-0.631278
0.637461
-0.00660906
-0.00574509
1.22553e-06
0.00124754
-0.0298193
0.244501
0.743325
-1.38877e-05
0.00686612
-0.000136557
0.676904
0.00106573
-0.00608534
0.0769104
-1.28484
0.0105553
0.00122609
-0.00928124
-0.920877
0.0232653
1.37949e-05
-6.66255e-06
0.000405717
0.000597036
-0.363364
-3.82837
0.0328695
-0.000416661
0.000487659
-0.00432661
-0.037297
0.135435
0.000127113
0.0257361
-0.000636464
-0.000131201
0.045234
-0.00252346
0.000354578
-0.969553
0.0354001
-0.00140286
-4.93532e-06
0.153203
0.00105807
0.0110108
0.0139417
-0.427217
-0.392024
-0.000994523
-0.029607
-1.29437e-05
-0.593064
-0.000265953
0.00416102
5.17787e-05
0.000834487
0.0357792
-3.15233e-05
-0.908801
-2.44343e-05
-3.65914e-05
4.56495
0.107408
-0.00145175
0.0141017
-0.0114254
-1.07435e-05
-9.25387e-06
-0.828221
-0.00148587
-7.54053e-06
-0.000444379
-0.00570387
-0.00714021
0.000484364
0.000610955
-0.00021423
0.00116043
-0.22704
0.607083
-0.00187908
-0.00997761
0.161466
0.888858
2.60599e-05
0.0760265
0.111774
5.8514e-06
6.99523e-06
-0.109657
-2.31694e-05
-0.000158382
-0.276346
-0.167728
-0.535564
-0.192347
0.000324202
-0.0203494
0.00162418
-0.0610531
-0.721066
-1.47291e-05
-0.0075868
-0.00452946
-0.440971
-0.0120171
-0.788865
-0.000187593
0.00195309
0.00858139
-0.0081657
0.23226
-0.00129639
-0.0824032
-0.0599054
5.89186e-06
0.0657611
0.000208476
0.705426
-7.70672e-05
-0.000542096
4.39144e-05
-0.477546
0.0373954
-0.000133104
0.249382
-0.000497065
-0.0131975
0.103208
-0.0253923
0.00148314
-0.041255
3.65381e-05
-0.0702991
1.35587e-06
-0.122454
-1.27771e-06
-0.0126736
0.000309279
0.00155547
-0.0959877
0.00113341
-9.35456e-06
-1.87129e-05
0.00241222
-0.104587
8.29309e-06
-2.59853e-05
0.000829672
2.31035e-05
0.0156966
4.35949
-0.132753
0.340433
-0.0728652
-1.09917
0.00505787
-0.00133768
0.000202023
-0.0132494
-0.186141
-2.94231e-05
-0.105519
-0.0408936
-0.0475153
0.000570203
-2.86696e-05
0.000545864
0.0171116
0.0104307
3.95074e-05
0.0467697
0.0875919
0.0506467
0.450403
-0.0865198
0.00689774
-6.94793e-06
1.78692
2.98201e-05
8.01194e-06
-0.0405021
-0.0856077
-0.0103881
0.027967
-0.0951723
-0.676531
2.42862e-05
-0.103926
0.013496
0.754829
9.03321e-06
-0.639793
4.9522e-06
0.178053
-1.2006e-05
0.0116067
0.0012551
-0.876488
6.19224
-0.0238663
-3.05657e-05
4.29563e-05
-0.062284
0.000457927
2.52604
-0.0154174
0.0256789
-0.0268575
-0.510465
-0.0484672
0.0907248
-0.484222
0.00131536
-1.22453e-05
-1.34672e-05
-0.80025
8.58346e-05
0.337123
-0.147656
-0.000142271
-0.35284
-0.0398681
3.17299
1.92385e-06
8.64521e-05
1.03814e-05
0.147475
0.00205078
-1.78613e-05
-8.12112e-05
0.196357
6.82015e-05
-0.477058
-0.0760948
0.000622173
-0.0162427
-2.18927e-05
5.56688e-07
-8.68408e-06
-0.00632842
0.000106792
-3.63873e-05
-0.00108734
-1.2663e-05
-0.00013248
-1.26179e-05
0.000105385
-0.120331
0.117924
-2.42082e-05
-0.0632982
-0.000714172
0.000108779
-2.09823e-05
0.000433112
-0.000494263
-0.0012834
-0.00157371
-2.56934e-05
-0.0775676
0.00144461
0.497557
-1.20555
0.00456418
0.00631556
2.69588e-05
-1.04511
0.159362
0.00382779
-9.17628e-06
0.0761257
0.0212517
-0.00300064
7.77385e-06
0.000455409
0.00177931
-0.105059
0.945683
2.85002e-05
-6.08967e-05
0.00390063
0.494584
-0.00112129
-0.454586
0.0528701
-0.251447
0.0160636
-0.101261
-0.0036185
-0.00062721
-0.718422
-0.114758
-0.000874622
-8.56517e-06
-0.10654
-0.958561
0.0137228
-0.0377811
0.000221888
-0.000244469
-9.85577e-06
-0.0343108
0.0753753
1.90424e-05
-0.687026
-0.000524529
0.228521
-1.54918e-05
-7.18901e-06
-0.428314
-0.115161
-0.00143978
-0.10472
0.0627213
-0.0138776
-0.0199962
-0.0008624
-0.539152
-1.0946
-1.00517e-05
-0.305233
-0.159645
0.222932
-0.000233271
-0.0220932
2.05925e-05
5.62689e-06
-0.102362
0.216796
0.0328203
-0.011463
0.172339
0.000431511
-0.0108256
-0.000999204
-1.06224e-05
0.000497653
-6.28524e-06
-0.105625
-0.108643
0.0372101
0.234865
2.01147e-05
0.222111
-0.000982432
0.0201693
-0.0809177
0.000584818
-6.96407e-05
0.000206546
-7.09245e-05
0.101743
-0.000131974
-0.00185617
-0.658606
0.000720907
0.0017545
0.000196158
-0.00113631
0.0569164
-0.00309364
0.000174416
1.93416e-05
1.67159e-05
0.31632
-2.4266e-05
0.0368973
0.00249666
-0.000162028
1.94993e-05
-1.66749e-05
-1.14437e-05
0.000334361
0.0010282
0.0138782
-0.00267015
0.0496775
2.74721e-05
-0.060053
-1.29541
0.0199663
-0.00854163
-0.00285891
-4.61871e-05
-0.000739014
5.90599e-05
-0.24306
-0.00085949
0.0294257
0.024063
-2.00436
-0.000186753
1.63162e-05
0.378172
0.000139256
-0.100232
8.62899e-05
-2.72653e-05
0.133099
-0.00166178
3.42757e-05
-0.00262935
0.0060562
0.203872
0.183103
-1.51486
0.358104
-2.90308e-06
2.65836e-05
0.00320294
-0.0227026
0.0293889
-0.000694705
-6.06335e-05
-0.0162837
-0.125298
-5.17037e-05
-1.3862e-05
0.141231
-0.117072
0.019056
-0.000165402
1.07406e-05
3.83608e-05
5.37127e-05
-0.000511096
9.7955e-06
0.000193707
-0.000139046
-0.030667
1.41299e-06
-0.0066936
0.0103663
-0.170338
0.021343
-7.89437e-05
4.89989e-05
0.207957
0.182243
-0.00951104
-0.1177
-0.0359239
-0.809409
-0.000565497
-0.115809
-0.000434662
-0.847644
-4.89222e-05
-0.302984
7.92366e-06
0.0018651
0.0342304
-0.0500457
-1.4046e-05
-2.22581e-05
-0.00110513
-7.82616e-06
-0.16753
-0.803294
-0.181339
-0.00227378
-4.66839e-05
-0.389047
0.000657837
3.2275e-05
0.0540622
0.622207
-0.365847
0.0234346
-0.249715
-0.00117147
0.000596169
-1.54964
1.88683e-05
-0.0010483
-0.194666
0.000996211
7.3608e-05
-0.206644
-0.210253
-1.0825e-05
0.308356
2.08456e-05
0.00364184
-0.0518079
-0.141671
-0.0270088
-0.00245855
2.01701e-06
-0.00102536
0.00108488
0.0137876
0.110716
2.29794e-05
0.0424107
-0.053276
0.0320737
7.38348e-06
-1.54301e-05
-0.336191
-1.80296e-05
-0.00237792
-0.112955
-0.00434899
2.72916e-06
0.033884
0.195712
-0.923586
-0.0030178
0.140279
3.16538e-05
-1.79165e-05
1.85846e-05
0.00215768
-0.165203
-0.123033
-0.00301845
-0.0111167
-0.289766
0.0402514
-0.274327
-1.10192e-05
0.445721
0.000455991
0.122642
-0.00117015
-0.000204499
0.261783
-0.00044719
1.01433
-0.0858694
0.00283432
-0.308384
0.259461
0.0238668
-0.964141
0.00427338
-0.00183249
2.58825e-05
-0.928711
-2.28813e-05
-0.102996
0.00014685
-1.28286e-05
-0.000183761
-3.86445e-05
0.256225
-1.5796e-05
-0.510166
-0.0403464
-0.313544
0.00314297
6.87488e-06
-0.129989
-0.00021584
-0.000151458
-0.113773
-8.52261e-07
-6.17262e-06
-0.00599413
0.00155145
1.71155e-05
-0.1192
-0.0861471
0.0769345
0.211074
8.16505e-06
-9.57043e-05
0.00213624
0.0202081
-0.170975
8.66611e-07
-0.155021
0.0010562
0.00033167
0.246063
4.39286e-05
5.80463e-06
0.00101192
-1.0294e-05
-3.06082e-06
0.000176118
0.0284933
-0.159387
-4.2027e-05
0.175725
0.368814
-0.00543232
-0.0014727
8.69615e-05
5.90453e-05
0.000120723
0.0871038
-0.0133604
-0.50226
-0.077227
0.0482998
0.000130013
0.000744719
0.984118
0.00251829
-1.00723e-05
0.00035167
0.000592802
-0.0644388
0.000160675
-1.02242
-0.045338
3.0082e-05
0.000479693
-4.95204e-06
0.0221461
0.00484617
0.100355
0.000468681
0.0462989
-0.00246448
-0.00097381
-0.00742348
-0.000322265
0.0587829
-0.00439584
-0.00183478
-0.00114093
0.00103209
0.00203367
-8.03488e-07
-7.69364e-07
-0.000302026
3.03434e-05
0.299177
0.000760336
-0.000657526
-0.0388062
3.90378
3.66548e-05
-6.52525e-07
-0.00426213
0.000411731
0.000292897
3.81217e-06
-0.0475649
-1.44628
0.0155936
0.0235459
-0.320999
4.32388e-05
-5.06163e-07
0.00309698
-0.20668
-0.0590232
0.000983208
-0.00368792
-3.17007e-05
-0.00254652
0.304592
0.000529437
-1.53215e-05
-0.00138141
0.322204
4.78944e-05
-2.67681e-05
0.000920337
-0.00111605
0.0280051
2.48268e-05
-0.0722639
-0.00416783
0.195856
5.54845
-0.00230219
-0.112754
-0.000136704
-0.090132
0.00408742
-0.0706435
7.3024e-06
-0.388903
-0.000714693
-0.00691068
0.000665072
0.000343711
0.121389
-0.000296792
0.000176117
-2.24385e-05
0.19324
-0.00631549
0.0668808
-0.228836
0.247308
-0.338728
3.34287e-06
-0.483174
8.26321e-06
-1.62318e-05
-0.000177555
0.000223124
0.638733
-0.694787
2.49961e-05
-0.765427
0.00452147
-0.544872
-0.263637
-0.426827
-5.39275e-05
-1.01685e-05
0.0138692
-7.92583e-06
7.72823e-05
-9.24229e-05
-0.594037
0.000315786
-0.010995
-0.00598965
-0.000431742
-0.216177
-8.8941e-05
-0.110076
-0.000881346
-0.00708311
0.0167344
0.0226938
0.000411905
0.593984
-0.158138
0.327953
-0.00151494
0.000217421
-0.459467
0.000858998
-0.0357511
0.000353574
5.95984e-06
2.27568e-05
0.243916
-0.0472259
-0.176703
-0.0972495
-0.324877
-0.596494
2.27946e-06
0.582513
-0.00224577
0.000154109
0.496743
-0.780377
-5.59554e-07
0.152937
-0.00671053
-1.0916e-05
-0.204686
0.000240292
-0.000157182
-0.155753
4.34476e-05
0.00131295
0.022499
-0.00476165
-0.190987
-6.31332e-05
-8.65963e-06
-0.00150965
-0.0999517
-0.00188915
-0.00434491
0.245648
-5.81851e-05
4.08664e-06
-0.00165345
0.0733836
3.89785e-05
0.171424
8.62277e-05
0.00485562
-0.785491
-0.00128683
-0.00454833
-1.51978e-06
0.000491654
-0.0845688
2.89526e-05
-0.00129247
-0.388888
-0.992631
0.327669
-0.000114003
-0.115385
0.000917879
-2.14465
0.00107698
0.00412116
-0.00235284
-0.00125596
-0.147716
0.152371
8.06164e-05
0.00889767
-0.000491482
7.837e-05
0.000466193
-0.0112951
-1.015e-05
-9.08747e-05
-5.28948e-05
0.000938766
0.000215133
-2.39562e-06
3.87698e-05
-0.000476204
-0.103094
0.00334003
-0.000304016
0.121847
0.0798795
-0.000494636
-0.0682537
-0.00901413
7.06671e-07
0.147546
0.00137797
0.00956151
0.00229921
-0.0550003
-0.11201
-0.517779
-0.393346
-0.000124368
-0.000199826
-0.000162281
0.000185102
0.000233674
-0.18286
5.36931e-05
0.000312795
0.00753223
0.210506
0.0116453
0.181126
-1.02589
-0.00599892
-0.000383809
0.000129167
-0.0270229
0.000126403
-0.00274196
0.151958
0.000997417
-2.93726e-06
-2.45759e-06
-7.86491e-06
0.031499
0.304221
0.828521
-0.0142885
0.000391647
2.81685e-05
-1.79894e-05
-0.000211876
-0.0172533
-0.000788687
7.10987e-07
-0.000401671
0.0366097
-0.116763
-6.97273e-06
-8.49354e-06
0.0040722
0.0905291
1.90587e-05
0.000400813
-0.0218127
0.117645
-0.00383742
-0.29705
0.00289273
-0.0860338
-0.00264922
-0.254679
-0.00094658
-0.369216
-3.37923e-05
0.140195
-0.389378
-0.755421
-0.000365369
0.0331007
0.00128029
-0.244672
-0.122014
-0.175771
-0.193102
-0.22062
-0.0008874
0.0158117
0.0146405
-0.0061245
-0.0164716
-0.00581862
-0.986413
0.257372
-0.635614
0.0124257
-0.0817413
-0.000196659
-0.182585
-0.00611382
0.911248
0.000130492
0.0076695
-0.165607
0.00241298
0.119795
0.00101486
-0.099447
-0.00245414
-0.040793
0.154639
-0.000205095
-0.105411
-0.0154368
-0.000377998
-0.0482589
8.32304e-05
0.431207
0.0283213
-0.000126941
1.01351
-0.128521
0.000191877
0.216994
-0.025603
-9.48897e-06
-0.00515657
0.023017
-0.0639038
-0.17982
2.04965e-05
-0.000134982
-0.0465885
4.09924e-06
-1.11598
-0.0138533
-0.72948
-0.803689
1.76865e-06
0.0273484
0.000805636
-0.230328
-0.431512
-0.0627584
-0.00464356
-8.82737e-06
0.345657
-0.102367
-0.00209694
-0.0378966
4.84683e-05
0.199953
-5.54705e-05
0.000439793
-0.00426375
4.43737e-05
0.000169913
-0.00118253
-0.0799429
-0.552558
1.64606e-05
1.98149e-05
0.193281
-0.20815
-0.00744601
-0.00342763
-0.28471
9.27756e-06
-0.32189
0.130817
0.111954
-0.000166198
-0.000570897
0.000157089
-0.177378
0.0564347
5.15271e-06
-0.122006
-9.50325e-06
-0.150896
-0.105745
-2.26876e-05
-0.360211
-0.516911
-0.00186607
0.0268697
-1.24698e-05
0.000243577
-0.705571
-0.00319425
0.00120932
5.15562e-05
-7.77376e-05
-0.0293139
-0.000163042
-0.00886757
-0.173696
0.000186839
-0.392449
0.00856668
-3.38328e-06
-1.07551
-0.025709
-1.83704e-05
0.0371634
0.107376
0.109952
0.000132414
5.21751
8.18417e-05
-8.79828e-06
-0.105914
-0.152355
-0.532265
3.33547e-05
-0.134721
2.05833e-05
0.00430998
7.88057e-05
0.442312
-0.00496142
-0.125739
-0.00312591
-0.000634238
-0.00312565
-0.377775
0.0758555
-0.0253917
0.0818293
6.71331e-05
3.26251e-06
-3.91796e-05
0.0195474
-0.00046837
-0.00704579
-0.411125
-9.25722e-06
0.0291714
0.15418
0.00501664
0.113823
8.45581e-05
-2.19574e-05
0.060273
0.0328406
4.47066e-05
-6.4329e-05
0.0135131
0.0375462
-1.04179
-0.0654787
-0.104753
-3.77367e-06
-0.271276
-0.0136998
0.000860097
2.45409e-05
-0.360639
0.0329139
-0.000100039
-0.00313227
-0.266971
0.0315991
-9.76552e-06
0.901077
0.000170211
-4.99884e-05
-0.0400828
-0.0175003
0.00424377
-0.674201
0.0103054
0.050231
-0.17543
0.000247515
-0.134511
-0.0728348
-0.00167972
0.000468554
-5.71812e-06
-3.6369e-05
-0.285599
3.24404e-05
0.0509301
0.0385395
0.0117223
0.00515973
5.56182e-05
2.29937
0.000469758
0.00634627
-0.0441753
-0.00760193
0.0352639
-8.17772e-05
0.0763899
0.000116902
-0.096007
-0.205368
0.0196997
-0.0807034
-1.07638e-05
0.0855061
-9.44944e-05
-0.00127821
-0.000229309
-0.0111718
-1.1591e-05
-0.0930011
-1.7952e-05
-0.365695
0.00010699
-0.01153
0.0363072
-0.0294639
0.000430014
0.0201103
0.171765
0.384141
-7.07847e-05
0.121896
0.0215559
5.88498e-05
-0.141624
4.14782e-09
0.00174867
0.236942
0.564453
-0.00717038
-3.66349e-05
0.0927835
0.599948
0.250576
3.07278e-05
-7.27661e-05
-0.245934
0.0170051
0.00280406
-0.121211
-0.000737425
-0.763453
-0.00057746
-0.000125321
1.13869
-0.585221
0.00174767
-0.00466322
-8.48217e-05
0.00110781
0.000411688
0.0020386
0.316986
-0.0482801
-0.000178873
3.60161e-05
0.0562926
5.80532e-05
-0.00129006
-4.04334e-05
0.557814
-0.190246
-0.272121
0.00042306
1.32236e-05
1.26008e-05
-0.137182
-0.67013
0.14052
0.0132191
-0.00523764
0.104256
-0.106449
-0.00178705
-0.00804933
2.58859e-05
-5.57558e-05
-5.24437e-05
0.172987
-0.000106512
0.00259891
-0.43403
-0.399417
0.0164578
0.0795122
-8.34464e-06
-0.230512
-0.00139832
-0.444296
-8.59346e-06
-0.16344
2.72955e-06
5.3187e-05
0.00292327
-0.156857
0.000196231
-0.000167926
-2.16686e-05
0.00510004
0.00152256
-0.46412
0.00502981
0.210228
0.277931
-0.0637484
-0.399447
3.58982e-05
-0.0110506
-0.120866
-0.00260975
0.000621802
0.000909527
-1.91781e-05
0.000147707
-1.04055e-05
-6.47154e-06
0.000485696
0.000174797
8.26516e-05
-0.0201981
-0.573405
-0.201676
0.00018986
-2.96648e-05
-0.0326381
-3.28761e-05
-0.314496
-9.71851e-06
0.0825333
0.234396
-0.0565933
-0.0035734
-0.00752898
-0.00670775
-0.00533744
-0.0751533
0.0213935
-0.384308
-0.681304
0.061955
-0.000189553
-0.0732438
-0.000434901
-7.64499e-05
-0.00742412
9.26042e-05
-0.000945205
0.000141909
-0.243224
0.000536847
1.06711e-05
-0.167945
0.000175148
0.00120658
-1.84038
-1.40744e-06
0.260693
0.000151373
-0.000130331
-0.000142264
-0.0326858
-1.1759e-05
0.212402
-0.0442083
-1.72842e-05
0.0715192
-0.0014705
-0.136653
-0.459997
3.0882e-06
2.45324e-05
0.000117278
9.02996e-06
-5.49343e-05
-2.66996e-05
1.12467e-05
0.00131612
-1.18082e-05
-0.0832883
-0.260271
2.90735e-05
0.000400492
0.00196712
3.86478e-05
0.0522919
-0.05338
-0.272066
-0.0750568
1.08845e-05
-0.567771
0.269474
-1.88668e-05
-0.0183644
-0.000125247
-0.000529143
1.48412e-05
-0.60775
-1.21203e-05
1.61756e-05
-0.00676017
-0.493999
-0.228954
-0.170928
0.00230254
-1.09636e-05
-0.145733
0.335869
-0.000694508
3.34624e-05
-0.0012469
6.82926e-05
0.00830782
-0.0959677
1.51831e-05
0.088875
-0.433716
0.210711
-1.81083
-0.00014351
4.62082
0.00013041
-0.213498
-0.320243
-1.32604e-05
9.49077e-06
-0.548229
0.00271884
-0.867223
0.000114943
-0.176179
-0.092396
0.0927663
1.55554e-06
-0.0748351
0.125897
0.203136
0.000424656
0.0232701
-0.374843
-0.0048842
0.0459095
-0.00181051
0.196633
-0.759759
0.0122323
-0.416324
0.309215
-0.166425
0.255994
-0.0246965
-0.281339
-0.0389161
-2.32063e-05
-0.290489
0.0766552
-0.0110941
0.00510756
1.18264e-05
-0.238682
-0.0028936
0.0173988
-0.15102
0.490886
-0.0691831
1.11655
-1.70513e-05
2.9423e-05
0.0733427
-0.201734
-0.373965
-0.00106312
-0.0314426
0.000513486
0.155179
-0.135538
-0.194776
-0.000142326
-5.19705e-05
-0.0148897
-4.05119e-05
2.18918
0.0423972
7.34407e-05
-0.0865916
1.62194e-05
-0.0817291
0.17745
-0.269237
0.148854
7.1875e-05
-2.61947e-05
-0.0271018
0.136167
-4.94617e-05
-0.0606727
-1.43026
0.000190886
-0.0323123
2.29835e-05
5.44945e-05
5.35488e-05
-0.241682
7.67441e-05
-0.343929
0.000131646
3.83693e-05
-0.972401
-0.0982606
2.89032e-05
-0.463033
0.0636301
-0.771406
-0.642426
0.000187075
-0.0779728
1.2407e-06
-0.000210103
-0.187219
-0.000295493
0.0590412
-3.18951e-05
0.177548
-0.00545469
-0.076667
-1.62847
0.0717403
0.0066187
-0.0457326
-0.0703848
0.1398
0.0237288
-0.271404
1.73906e-05
-0.437329
0.163213
0.0596671
6.30212e-05
4.12554e-05
-4.70945e-05
0.221316
0.0289177
0.000347601
-1.16963
-0.143387
0.776153
0.0309404
0.029689
0.0125349
-0.0965654
-0.000101276
-0.00987117
-0.213431
-4.4286e-06
0.824627
-6.51957e-05
0.000181648
0.00075055
0.0338523
-0.692361
3.30791e-05
0.00266278
2.67319e-05
-1.06404
0.214325
-0.190241
-0.178658
-0.491667
0.0817557
0.0270355
-0.116079
-0.410728
-0.000279872
3.49711e-06
-5.95665e-06
0.000340531
-7.21884e-06
0.131552
0.0516847
-0.115535
6.82115e-06
-0.00234715
-4.68394e-05
0.0481998
0.0167456
0.210514
0.244928
-0.0802526
0.0129174
-0.00024487
1.10615e-05
0.000337744
-0.0625541
-0.0640135
3.89129e-05
0.00105291
-0.000578149
-0.715503
0.183644
-0.0933307
0.072765
0.000656817
-0.0930701
3.00227e-05
-0.28893
-0.153773
-1.8007e-05
0.573576
0.263061
-0.0633032
-0.012846
-0.0823438
-0.133343
9.66443e-05
-0.436531
2.98384e-05
2.76179e-05
-0.350638
0.191054
1.11407
-0.000491912
0.233936
-0.0284957
-0.241628
-0.176082
-1.85238e-05
-0.118977
-0.00623772
0.00380115
-0.417546
1.183e-05
0.88363
0.0208789
-0.190548
-0.426615
-0.00391416
-5.94443e-06
0.0152716
1.11858
-0.00518989
0.0988988
0.309265
-0.29243
2.22685e-05
-0.0170473
0.0608617
-1.61652e-05
-0.000164921
-0.0941447
0.0184431
-0.156371
-0.000499643
-0.00455521
-0.0471127
-4.33755e-05
-0.241061
-2.20071e-05
-0.114442
-0.00116101
7.29312e-06
-0.504271
0.000121395
-0.323543
-1.17321e-05
-5.51477e-05
-0.328989
2.08448e-05
-0.000512856
3.35308e-05
-0.969262
-0.144118
-0.00303218
0.0231438
-0.185485
-0.420329
0.00316792
-2.24379e-05
0.025606
0.00132416
-0.100921
-2.7263e-05
0.0356324
-0.261084
0.000798586
-0.00249472
0.0922717
-0.000882111
0.000567096
-0.576949
-0.165973
-0.00253039
0.127481
0.00155819
-1.04258
0.55065
-1.16069e-05
4.9852e-05
1.52269e-05
-0.0536372
-2.07493
0.0290766
-0.892874
-0.640187
-0.505946
-0.205309
-0.629956
-6.67549e-06
0.250198
0.246503
-8.32102e-05
-0.109416
0.0313024
0.000801708
-0.0209165
-0.322289
-0.0525804
-0.0575435
-0.000663294
-0.00606291
0.707526
0.0710997
0.0104324
-0.042586
0.0444248
-0.273004
-1.01303
-0.921603
-0.0891907
-0.68129
-0.402754
8.09871e-05
0.262625
0.000966954
-0.000763599
0.0904141
-8.44818e-06
4.78403e-06
-0.679024
-8.91705e-05
-0.00341639
1.07206
0.00983158
-5.47251e-05
-0.0850215
-0.327112
-0.175152
0.000231643
-0.478799
-0.000291686
0.00249398
-0.523459
-0.0397468
0.226942
-0.000188023
-0.101848
8.54641e-05
-0.480387
0.000261199
0.0047808
0.00127438
-0.835704
-0.000139516
-0.013464
-0.136099
-3.12154e-06
-0.177739
-0.198904
-0.269627
0.0246524
-6.03529e-06
-0.00862791
-0.289012
0.0486329
9.66909e-05
0.318854
1.01733
0.0230835
-0.158265
0.000422086
0.276613
0.316728
-0.10353
-0.00143002
-0.327946
-1.63012e-05
-0.256878
-1.1761e-05
0.0223061
0.000196151
-1.04262
0.198346
-0.280318
-0.0708902
0.0927126
0.000179235
-0.118185
0.000305093
-0.726008
8.13719e-05
0.164011
0.000271719
-0.151186
-0.0809143
0.203437
-0.102154
-0.00594898
0.257777
0.000439957
-0.000761042
-0.000145701
-0.00734841
0.213568
0.00278836
-0.132691
-0.0668102
0.0443368
-0.268257
0.233558
-0.0051814
-0.406225
0.158683
3.47098e-05
0.000366184
-0.21737
-3.33523e-05
-1.44347e-05
0.574542
-0.495029
-0.624281
-5.46207e-05
-0.0914283
0.015752
0.0241538
-0.191186
0.0809529
-9.64031e-06
-0.185684
0.0109682
0.131546
-0.000868127
-0.558744
0.272716
0.00622859
-0.281943
3.96587e-05
-1.38177
-0.142678
-0.112311
0.155922
-0.230035
-0.0822505
-0.128395
-0.152517
-0.000933323
-0.0754099
-0.00275005
0.0516014
-0.000188502
-0.268282
-0.277753
0.000763214
1.98181e-05
-0.203263
0.00150661
8.69473e-05
-0.074057
-1.64283
-6.08033e-06
0.0016433
0.182848
0.049901
-0.486342
0.0142996
0.152264
-0.199959
3.03509
0.107786
-0.00196545
-0.201988
0.519796
-0.00088994
-0.165482
-0.126148
-0.00187355
-0.351687
-0.00940521
-0.000484067
-1.77698e-05
-0.258392
-0.0616787
6.23862e-05
-0.156435
-0.152057
-0.0212762
0.298119
-0.0329951
-0.0180323
0.140732
0.171342
-0.0891809
-3.81823e-05
-0.247359
-1.74213e-05
0.0746083
-0.000111709
-0.718037
0.170573
-9.55646e-06
-0.130533
1.06757
-0.190529
-0.204277
-0.00447198
-1.12414
-0.175429
-5.97595e-06
0.92029
0.028105
0.000183925
-0.135332
-5.9425e-05
-0.937048
1.19818e-05
-6.16513e-05
1.85615e-05
-1.91446
-0.231304
-0.544828
-0.742664
0.0114255
0.120221
-1.36274
-8.28986e-05
0.000116291
-0.9191
-0.0682493
0.000303042
0.442627
-0.795697
-0.725224
-0.23528
0.201092
1.06931
0.00123707
-0.16537
0.00156404
-1.7564
0.0006315
-0.00149443
-0.554789
0.0159766
0.029406
-0.010992
6.77163e-05
-3.53514e-06
1.30577e-05
4.23324e-05
-0.115349
-0.359545
-0.000100724
0.0121909
1.46401
0.00778199
0.140901
-0.221988
1.33366e-05
0.0119493
-0.000136349
-0.811822
-0.000455871
-0.000515053
6.49918e-06
-0.000327181
0.0397024
-1.68586e-05
0.0047801
0.172371
-0.124269
-1.38732e-06
-0.00143342
-0.151879
0.293865
-0.121136
0.000911377
-0.0511477
0.00775553
-2.13427e-05
-0.111262
-0.0778978
-0.146537
0.00404467
0.00700263
-0.17683
-0.190893
0.0249805
0.0166434
-0.169975
-0.158144
-0.174264
0.0269328
0.017835
0.0590407
0.161165
-0.138042
-0.000283233
0.383075
-0.150833
-0.135829
-0.498143
-0.283843
2.02496e-05
-1.44123
0.00137074
3.90926e-06
0.0216377
0.00214702
-0.00253942
-0.00362723
-0.24457
-0.244407
0.508445
0.475692
-0.230875
0.00144389
0.0278103
-0.29625
0.0340496
-5.50049e-05
-0.145395
0.000875154
-1.26106
0.0408851
-0.159791
-0.00571889
-0.317688
0.529722
0.201429
-0.00730472
-0.159463
0.970643
-0.291858
0.029669
-1.49015
0.0169835
-0.254959
0.0512407
-0.181755
0.147875
0.0167709
0.0318361
0.262243
-0.00227947
-0.00642703
9.37596e-05
0.125571
-0.100683
-0.234685
0.00485727
-8.92397e-05
-0.181225
-0.491531
-0.0134138
-0.300831
-0.00578742
3.48869e-05
-0.469872
2.77172e-05
-7.67624e-08
-0.0826021
0.00117746
0.00180794
-0.371355
0.130902
-0.194336
2.06048e-05
0.129955
-0.146225
0.000149191
-0.000793805
2.62636e-05
-0.000162355
-0.00260815
0.000209846
-0.00287799
-0.000748013
0.0450955
0.0214954
-0.28736
-0.415585
0.0739685
0.00110691
-0.223439
-0.0092142
0.058728
3.49329e-05
-0.102635
0.00025834
-0.133925
1.46918
3.43407e-05
0.147774
0.000811126
-0.0737346
0.206517
-6.90362e-06
-0.0169073
0.189239
0.0271718
0.0293851
-0.480936
0.0122053
6.83254e-05
0.0280805
0.0187326
0.00062099
0.0104541
0.112598
0.0532956
-0.701707
-0.127326
0.0125124
-0.0585666
-0.166357
-0.244202
-0.457868
0.0342701
0.00138229
-0.12233
-0.00141761
-0.703981
0.0515911
-0.0710602
-0.133164
5.68373e-05
0.213757
-0.331247
-0.000851849
0.0661068
-0.72854
0.302418
0.00659874
-1.11233e-05
-0.17669
0.0996699
0.000104812
0.000166822
-0.0438429
-4.97207e-05
-0.00364714
0.02679
-0.00981522
-0.060492
0.0801966
-0.083841
-0.0927908
-1.73739
0.0857492
-0.153071
-0.356287
-0.00092113
0.256
-0.154926
0.00127082
-0.00082741
0.00246776
0.0338665
-0.000154237
-5.51646e-05
-0.176048
0.290163
-0.165915
-5.35893e-05
-0.00960325
-0.141291
0.139568
-0.0327299
-0.0476588
0.148203
0.188994
-5.11431e-05
-0.000995794
-0.106764
2.6609e-05
-0.408597
-0.109463
-0.007815
0.0015245
0.0994716
0.0108867
-3.00905e-05
0.262645
-2.47271e-05
-1.22164e-05
-0.890241
0.00533784
0.228759
-8.79771e-05
0.0305572
-0.362916
-1.12662
-0.359952
0.219548
0.187525
-5.58736e-06
-0.00342358
-0.177844
-0.125167
-0.139782
-0.00359588
-0.000951587
-1.07899
-5.78099e-06
-0.370992
-0.411589
0.000199617
-0.0014404
0.00366507
0.107614
0.45003
0.218248
3.03165e-05
0.0339569
0.162245
-0.31688
0.0373798
-0.00553419
5.40042e-06
3.76877e-05
-0.409169
-1.01312
0.0132575
0.0663434
0.374856
0.00506282
-2.12407e-05
0.00298238
0.0458957
4.75804e-05
-1.51464
-0.137015
-0.0641312
-2.18925e-05
0.00170157
6.55539e-05
0.0408457
-0.766755
-0.464044
-0.321891
0.00274166
-0.0715179
0.000103109
-0.0469093
0.297868
-0.249993
0.117716
-3.6005e-05
0.000187865
0.0184616
0.00153537
0.000413527
-0.00115341
-0.000117177
-0.0724489
2.14111e-05
-0.180838
-0.00164988
-1.80578e-05
0.0101184
-2.91417e-05
-5.57708e-05
-0.348069
0.000258482
5.58411e-05
1.42304e-05
-0.00954962
-0.285598
-1.45852
3.01635e-06
-0.000457177
1.01928
-0.323285
-0.113313
-0.26899
-0.926683
-0.134268
0.00120385
-1.73134e-05
-0.617096
-0.27586
0.0114407
-1.94519
0.00191698
-0.00311088
-0.000391677
0.00233398
-0.0578797
2.33514e-05
-3.37095e-05
-0.205602
-0.000218787
-0.0843518
0.000811289
-0.135731
0.0200167
8.43572e-05
1.99415e-05
-0.346699
0.0151744
0.000810305
0.182887
0.000613582
1.81323e-06
0.029499
-0.266736
-5.2575e-05
0.242192
0.122671
-0.000722289
-0.000117192
-0.0190133
0.114413
-0.000476064
-1.13174e-05
0.00226185
-5.25499e-05
0.0509504
-0.423174
1.14064e-05
3.38651e-06
0.0019868
-0.0123568
0.054384
0.000343999
0.0901903
0.605272
2.0899e-06
0.0178917
-9.9265e-06
0.0327379
0.439784
5.71833e-05
5.26528
-0.526942
0.0190831
0.134129
0.132794
0.00388288
-0.111534
0.0216284
-1.67034e-05
-0.923915
-0.0011803
0.00125026
-0.0147923
-0.0759505
0.026179
-0.243476
1.10129
3.47475e-06
0.00138637
-1.41928e-06
0.0335701
-0.00109187
-0.0232285
-0.000134583
0.00031974
-5.4505e-05
0.0777514
1.07132e-05
0.154015
0.0604329
0.0747411
3.09241
0.108868
0.00188828
-0.268897
0.0115707
0.00308018
0.070442
-0.00336636
0.109428
0.18871
-1.3374e-06
0.0125795
-0.051923
-0.197064
1.59178e-05
0.0876099
0.0250774
0.0317438
-0.0321639
-1.79762e-05
-0.8998
-2.40787
1.00099
-8.85718e-05
0.000782667
-0.00116665
-0.000135274
-1.90134e-05
1.61731
-0.294464
-0.412373
-8.54579e-06
-0.0900428
-0.0320397
0.00708598
-2.63788e-05
0.502063
-1.42187
-0.240467
0.243497
-0.00976062
-0.0033483
-1.56902e-05
-0.0320771
0.197054
0.0817968
0.000350785
0.0113996
-0.00072223
-0.518836
-0.160006