/*--------------------------------*- C++ -*----------------------------------*\
| =========                 |                                                 |
| \\      /  F ield         | OpenFOAM: The Open Source CFD Toolbox           |
|  \\    /   O peration     | Version:  v2012                                 |
|   \\  /    A nd           | Website:  www.openfoam.com                      |
|    \\/     M anipulation  |                                                 |
\*---------------------------------------------------------------------------*/
FoamFile
{
    version     2.0;
    format      ascii;
    class       volScalarField;
    location    "250";
    object      k;
}
// * * * * * * * * * * * * * * * * * * * * * * * * * * * * * * * * * * * * * //

dimensions      [0 2 -2 0 0 0 0];


internalField   nonuniform List<scalar> 
13308
(
0.000200614
0.0189709
0.0706748
0.000159738
0.000195892
0.00015184
0.000211789
0.000166299
0.000222477
0.0663583
0.013497
0.0276144
0.00015188
0.000149451
0.000152409
0.0847719
0.000263263
0.0188695
0.0133299
0.0633501
0.000186032
0.106793
0.0873067
0.000183298
0.0873337
0.0719554
0.000198581
0.0163465
0.000200437
0.000202157
0.0190691
0.000197365
0.0803468
0.000222297
0.000852435
0.000234809
0.000212609
0.081062
0.000174321
0.0780563
0.00014734
0.000163572
0.00509051
0.000152973
0.000174421
0.000374901
0.000152957
0.000157303
0.000213862
0.0669433
0.000162583
0.000171309
0.0995429
0.0385524
0.0721418
0.0555021
0.000152062
0.000173201
0.000178969
0.000177975
0.0280092
0.073688
0.000172419
0.00015571
0.000160233
0.0838427
0.000147841
0.000401349
0.000152364
0.000261601
0.00965975
0.000174083
0.000209926
0.000198901
0.000359852
0.000165264
0.00014346
0.0484085
0.000162887
0.000564811
0.000172
0.000147595
0.000165007
0.000181347
0.00022044
0.000166684
0.0753318
0.0331013
0.00878579
0.0474153
0.000166019
0.000149066
0.000197594
0.000191329
0.000155557
0.000172422
0.000163995
0.00056401
0.00306284
0.000254523
0.000165519
0.000148612
0.000152814
0.000197764
0.0146037
0.0184147
0.0693215
0.000158405
0.0660305
0.073092
0.000169826
0.000268975
0.00025655
0.000162254
0.000243299
0.01012
0.000383093
0.0129467
0.000199002
0.000172844
0.000191745
0.000205142
0.000159357
0.000673255
0.0033823
0.0194874
0.000720921
0.000268254
0.000214218
0.0953477
0.00473416
0.000273152
0.00015623
0.00017689
0.000222818
0.000504905
0.00014873
0.00116775
0.000938197
0.000164012
0.0563243
0.000169413
0.000155487
0.000233095
0.000170141
0.000314627
0.000543887
0.0413319
0.000171003
0.000100948
0.0842239
0.000162194
0.0670705
0.0245356
0.0044333
0.000366285
0.000157168
0.000156684
0.000148029
0.000575415
0.0660351
0.00017238
0.000154679
0.0718864
0.00106859
0.00508555
0.104711
0.000156502
0.0660264
0.00018902
0.000168807
0.0191953
0.000166194
0.0665162
0.0608777
0.0847202
0.106604
0.0677576
0.000427869
0.00015733
0.0228
0.0911742
0.000148119
0.0682473
0.0242236
0.000151946
0.0576684
0.018866
0.000202166
0.000421208
0.000410275
0.069307
0.000170547
0.0271009
0.000168891
0.0824614
0.00016788
0.000403472
0.106298
0.000163432
0.0845702
0.0973639
0.0213841
0.000220661
0.0957469
0.000372159
0.0850307
0.00307841
0.000432072
0.065102
0.000465771
0.000298994
0.000202854
0.0561739
0.0818322
0.000198798
0.000160529
0.0452718
0.000569086
0.00691511
0.0145033
0.000160381
0.000257321
0.000142755
0.000209418
0.0992135
0.00027584
0.015966
0.0517352
0.000371795
0.078169
0.000217915
0.0699328
0.000463844
0.000272461
0.00020064
0.00957274
0.0164541
0.00302858
0.000225859
0.000182318
0.00029514
0.000191433
0.000140193
0.0212324
0.00605587
0.000303961
0.00197999
0.000143635
0.0157913
0.0830071
0.0772471
0.000150778
0.0755179
0.117403
0.000203951
0.0615522
0.000160216
0.0163864
0.0521346
0.00020341
0.000748907
0.000199172
0.000174582
0.00064536
0.000252371
0.0269753
0.000155229
0.0104496
0.0932777
0.000334804
0.000193137
0.000151328
0.000225241
0.000163436
0.000164113
0.000196432
0.019039
0.00019569
0.00032504
0.0823599
0.000154889
0.00936339
0.000209464
0.019339
0.000177464
0.000173481
0.000214252
0.000366414
0.00978834
0.000198161
0.000155501
0.00118449
0.0953493
0.000158832
0.00995428
0.0484881
0.000206355
0.000331188
0.097593
0.0795974
0.000239702
0.0711675
0.00909386
0.0159031
0.000179252
0.000193572
0.0648115
0.0195208
0.00015153
0.0160184
0.125095
0.000198633
0.0226946
0.000172565
0.0556406
0.000158913
0.00015881
0.000150148
0.000295488
0.000148814
0.000146697
0.0933056
0.000142546
0.125439
0.000216907
0.000210385
0.000159177
0.000174562
0.00650645
0.0775444
0.00014943
0.0182492
0.000164768
0.000157005
0.0124709
0.0896831
0.000158595
0.000267849
0.0180323
0.000187121
0.000158732
0.000154436
0.000217861
0.00466027
0.0106703
0.000332183
0.000314376
0.00017043
0.000191574
0.000206517
0.0151873
0.00648351
0.000153402
0.000232822
0.00016667
0.0256087
0.000196974
0.00033136
0.11804
0.00166801
0.000218254
0.000190116
0.000319649
0.0951449
0.0783996
0.000153758
0.000139977
0.000173846
0.000181313
0.0834034
0.123268
0.000214901
0.000159326
0.000172824
0.000312835
0.0685942
0.075239
0.000172873
0.0173893
0.000171217
0.000165421
0.00278329
0.000198354
0.000187979
0.0937268
0.00025981
0.000181353
0.000147534
0.0651913
0.000187658
0.000378367
0.0153107
0.0894412
0.00917957
0.000206749
0.0247093
0.000153245
0.00538982
0.000161672
0.000730396
0.000160299
0.000244542
0.0775071
0.00015095
0.000792528
0.000158115
0.000158586
0.00393918
0.0145716
0.000201338
0.000233527
0.00036301
0.000152382
0.000151672
0.0158407
0.000171496
0.000152043
0.000180019
0.000329774
0.000356163
0.000173595
0.000185101
0.000170284
0.000255593
0.0702706
0.0136876
0.000169462
0.0401793
0.0034426
0.00177299
0.000154474
0.0102279
0.123832
0.000167682
0.000140718
0.0647661
0.000149224
0.000199318
0.0773134
0.0518868
0.121558
0.063984
0.000172697
0.0418839
0.000179944
0.021631
0.100146
0.000147545
0.0102628
0.000204967
0.0208231
0.000356052
0.0108877
0.00018231
0.000193596
0.000191712
0.000399104
0.0741951
0.000238385
0.000602374
0.0088412
0.000153482
0.0660595
0.000171473
0.0225615
0.00015873
0.0001711
0.000161701
0.091869
0.000490218
0.000157782
0.0678914
0.000167357
0.000397863
0.0756457
0.000268014
0.000170041
0.0119972
0.000154205
0.000627961
0.000169436
0.000374275
0.000168609
0.000258356
0.000169967
0.00021378
0.0105936
0.000170493
0.00014934
0.000154372
0.000194376
0.0098548
0.000142983
0.000151388
0.000170074
0.000153854
0.0349951
0.00455986
0.0327971
8.35882e-05
0.0282315
0.00321415
0.0258701
0.000180512
0.000176677
0.000285476
0.0625653
0.000162589
0.0680064
5.94206e-05
0.0207342
0.00017164
0.000159515
0.000182923
0.000215213
0.000220264
0.000158208
0.00515672
0.0759374
0.000516221
0.0110806
0.0170247
0.000352501
0.000151469
0.0002714
0.000154865
0.000140411
0.00411421
0.017227
0.000252482
0.00021549
0.077096
0.10301
0.000150317
0.0158558
0.00301971
0.0246839
0.00014437
0.000540965
0.000152546
0.00933927
0.000148002
0.0163451
0.000171382
0.120183
0.00273564
0.0247548
0.000148597
0.000171251
0.0756721
0.0260542
0.00824061
0.0118881
0.0735931
0.0147477
0.122957
0.0500258
0.118407
0.122612
0.000209
0.000148549
0.000171895
0.000967287
0.000162555
1.27836e-05
0.0457107
0.000158076
0.00682374
0.000883234
0.00798476
0.000152273
0.00016227
0.000152489
0.122288
0.000198542
0.000154269
0.000161298
0.0673034
0.00015283
0.0924256
0.000387237
0.000184574
0.000215893
0.000154546
0.000152847
0.000156214
0.000205974
0.000180296
0.000161419
0.0248229
0.000151226
0.000157673
0.000142257
0.000159903
0.0646453
0.0755328
0.000155752
0.06039
0.000164121
0.000158242
0.000154203
0.000228143
0.000228294
0.000173731
0.000193369
0.000156271
0.0809411
0.000202445
0.0172642
0.084958
0.000189917
0.000196789
0.000161382
0.00875333
0.120906
0.000194285
0.000149779
0.015341
0.0149915
0.000233217
0.000156744
0.000247257
0.0192513
7.51873e-05
0.0367699
0.00017013
0.00015057
0.000212683
0.040803
0.000233808
0.1232
0.0188128
0.074417
0.0273391
0.00487112
0.000207502
0.000173581
0.0986982
0.0671177
0.000191911
0.000159415
0.0487441
0.00515545
0.000239437
0.00338843
0.000176999
0.000160861
0.0001407
0.0231565
0.0139447
0.000155905
0.103634
0.000166899
0.0607842
0.00015377
0.000151331
0.00019387
0.0473821
0.000213068
0.00443774
0.0418365
0.000218258
0.000534343
0.000233272
0.0019173
0.0896427
0.000157941
0.0806072
0.0528306
0.102078
0.000167406
0.0144725
0.000154419
0.000148377
0.0649047
0.101342
0.00039058
0.0183644
0.0664888
0.000181588
0.0162948
0.0002468
0.000140973
0.000220373
0.000158739
0.0640117
0.0647837
0.000349295
0.044347
0.000153943
0.0662127
0.00024407
0.000362767
0.000419631
0.000183069
0.000154977
0.000174051
0.000154861
0.131289
0.000165691
0.0542857
0.00100852
0.000210916
0.000187502
0.000173057
0.0499342
0.0166408
0.0341499
0.000173476
0.00014923
0.000153273
0.0564816
0.000154757
0.000278166
0.000195009
0.000166256
0.000150029
0.000150001
0.000152174
0.0001837
0.000170221
0.000398824
0.000514733
0.000377477
0.000149653
0.021713
0.0638558
0.000241902
0.0798959
0.000203809
0.000166923
0.000232546
0.000165958
0.0728593
0.000180765
0.000349076
0.0154119
0.00246527
0.000166711
0.00015181
0.0187933
0.000164348
0.0846032
0.000163621
0.000170981
0.0602267
0.000189236
0.000151735
0.000227483
0.000219532
0.0586132
0.0129036
0.0181004
0.011813
0.000158157
0.000162476
0.000191173
0.0318096
0.000330061
0.000181552
0.000157124
0.000414292
0.0654479
0.000155866
0.000154255
0.0353916
0.0699034
0.000221923
0.000165333
0.000143354
0.000162985
0.000167215
0.000167464
0.00014173
0.000164877
0.00016669
0.0801738
0.00014144
0.000363635
0.105512
0.0189444
0.00567461
0.000150405
0.000162347
0.0472687
0.115454
0.0178797
0.0148287
0.00745495
0.00684284
0.000183911
0.063339
0.0001796
0.108599
0.000148471
0.0824605
0.000153135
0.000200163
0.000684278
0.00620172
0.000151675
0.000154854
0.000171217
0.000160965
0.0475613
0.106132
0.0635716
0.00024564
0.000159418
0.098691
0.00019518
0.000152094
0.0158219
0.0255562
0.00460079
0.0225456
0.0760286
0.000167104
0.000329495
0.0057551
0.000149899
0.0001812
0.0915668
0.000171796
0.0001764
0.0537105
0.0692622
0.00014985
0.0116333
0.000149552
0.000190606
0.0219142
0.00580033
0.00183876
0.000267255
0.000160943
0.000186316
0.000169628
0.0196648
0.0678574
0.000148942
0.0486119
0.0309439
0.000259164
0.000141359
0.00016982
0.0857808
0.000164902
0.00021471
0.00732167
0.00909392
0.000165613
0.110959
0.0817839
0.0921841
0.0222085
0.00829076
0.00016076
0.000144415
0.000170026
0.000202405
0.0555293
0.0689589
0.000335619
0.000397632
0.00933178
0.0740206
0.0790359
0.000150032
0.0171368
0.000167827
0.0763878
0.000232048
0.000175425
0.0050492
0.000161464
0.000416552
0.000567822
0.000255014
0.0793171
0.00179049
0.0214238
0.00137236
0.000196094
0.000215068
0.000158837
0.0928138
0.000155087
0.0694289
0.000167348
0.000149853
0.000158736
0.00018491
0.0304561
0.000150081
0.000910832
0.00100414
0.00989116
0.000254291
0.000147443
0.0598254
0.000167637
0.00016752
0.0848295
0.000152484
0.000156109
0.000280899
0.000170773
0.000144548
0.00679439
0.0832715
0.0368801
0.0160616
0.000147736
0.000165438
0.000217077
0.000368533
0.0524448
0.000153284
0.0610606
0.0001811
0.000171216
0.0189662
0.000148632
0.000160196
0.000184782
0.000154199
0.000153396
0.000169256
0.00138635
0.0657258
0.000160391
0.0157696
0.000200689
0.000313862
0.000183736
0.000167308
0.00015953
0.00016919
0.0128933
0.000277155
0.0934416
0.00922002
0.0167029
0.000166373
0.000179143
0.000223108
0.000179587
0.000176836
0.000164355
0.0155885
0.00176148
0.000168932
0.0187315
0.00383955
0.000158035
0.000177792
0.000153926
0.000247045
0.00334229
0.0116151
0.000179287
0.0122831
0.000256922
0.000164806
0.0175632
0.000168945
0.000572761
0.000206815
0.000173187
0.000187365
0.000179364
0.000196834
0.000151506
0.000159994
0.025085
0.000150758
0.078411
0.000183769
0.00024591
0.0225903
0.00470791
0.000159041
0.000140479
0.000234296
0.0181157
0.000164842
0.00016672
0.0333973
0.00803591
0.000202005
0.000204612
0.0248698
0.00015781
0.00015259
0.00016697
0.0143873
0.0326998
0.000162033
0.000304014
0.000160972
0.000192762
0.0716225
0.000167741
0.000149624
0.000286817
0.0144108
0.000159734
0.000156369
0.000172364
0.000242889
0.000530216
0.000157543
0.0527947
0.000199066
0.109631
0.00195668
0.00019426
0.0118514
0.000171995
0.0293046
0.000518106
0.0134761
0.000153327
0.088298
0.000247314
0.000305344
0.000183105
0.000201529
0.078226
0.000168367
0.000163132
0.000160772
0.00117954
0.00439881
0.0766429
0.0550061
0.0139986
0.0839274
0.000161374
0.092346
0.000159356
0.000154492
0.000166644
0.000160803
0.00425053
0.000242923
0.000147728
0.100686
0.00410412
0.0189513
0.0892698
0.00516128
0.000151045
0.000149767
0.00021192
0.000143684
0.000158529
0.000162908
0.109575
0.000205313
0.0101433
0.00034936
0.000236695
0.000841567
0.000154735
0.0636998
0.000168464
0.000228927
0.0432553
0.0733335
0.00017955
0.00143028
0.0037455
0.00846409
0.0147915
0.000172737
0.105166
0.000196087
0.000601625
0.000162699
0.000150249
0.000164431
0.0635376
0.0892602
0.0810256
0.0206714
0.0804738
0.115372
0.000152265
0.000190674
0.00025878
0.000166779
0.00625428
0.0623596
0.000140165
0.0649473
0.000283617
0.000148989
0.0778225
0.000160454
0.000163443
0.0560873
0.000166358
0.000196454
0.127592
0.000220199
0.06473
0.000159511
0.000139702
0.000167826
0.0782189
0.000195376
0.000275208
0.00282257
0.000159446
0.000148186
0.000189179
0.000468466
0.000154593
0.0682672
0.000166202
0.000223446
0.099658
0.000172868
0.0975167
0.000141634
0.00019803
0.0671836
0.000160381
0.000256007
0.104165
0.0795506
0.000810821
0.000204259
0.00549668
0.000166426
0.00246584
0.000356223
0.000191882
0.0310089
0.000223077
0.0790083
0.017196
0.000158993
0.000221228
0.000198613
0.000165674
0.00018212
0.0228017
0.00015
0.000157195
0.000165782
0.000161726
0.0001601
0.000151557
0.000164111
0.000171818
0.000780696
0.000266739
0.000172808
0.0562288
0.00140268
0.0134392
0.00418948
0.0214118
0.000156581
0.122459
0.000190811
0.0144799
0.00023564
0.0779729
0.054164
0.00404768
0.00471971
0.000164367
0.000171287
0.000166618
0.000168468
0.000229751
0.0524365
0.000163117
0.00137023
0.0139191
0.105187
0.000227738
0.0483273
0.0787035
0.000287521
0.000219532
0.000168997
0.0152665
0.000172251
0.00019201
0.107969
0.000186253
0.000166522
0.000152334
0.000147753
0.000293279
0.079041
0.00241504
0.000200819
0.000176035
0.000153805
0.000153112
0.000163785
0.0762671
0.000233274
0.000147941
0.00017225
0.0190031
0.0628551
0.000156558
0.000153619
0.000256217
0.0121229
0.000165343
0.000180531
0.000210588
0.0755135
0.0077892
0.0993338
0.000212115
0.00507588
0.000190294
0.0860057
0.000238157
0.0536614
0.000163571
0.0170203
0.025728
0.101543
0.000164142
0.0212424
0.000189227
0.0491013
0.0620994
0.0563658
0.000640198
0.097581
0.000257169
0.000206615
0.0668024
0.00371332
0.00729622
0.000284774
0.0898768
0.0739104
0.114404
0.0234483
0.067936
0.000170235
0.08861
0.000227259
0.0199107
0.000170711
0.000238358
0.0797606
0.000294025
0.130922
0.000194057
0.00352517
0.000196994
0.0448127
0.0499786
0.000179862
0.0730765
0.0141832
0.000168964
0.0138062
0.000161524
0.000892734
0.000335894
0.000179606
0.000758459
0.0899394
0.000170617
0.0818281
0.00599017
0.000152003
0.0730735
0.076206
0.0334016
0.0517401
0.000167255
0.000150947
0.00677502
0.000157911
0.0170787
0.0117046
0.103367
0.0957197
0.000181315
0.00021124
0.000173976
0.0850682
0.0991428
0.0691017
0.000193512
0.000158175
0.000265631
0.0156845
0.000192705
0.00967802
0.00016291
0.107387
0.000158643
0.000165203
0.000323585
0.00015589
0.000188162
0.000508114
0.0123697
0.0968821
0.000148955
0.000148116
0.0177705
0.0590125
0.000331156
0.000187948
0.0873075
0.000142567
0.0807058
0.0505354
0.133574
0.000166766
0.000166853
0.0143563
0.0641129
0.00881871
0.000153947
0.00235844
0.000142808
0.0112339
0.0614828
0.000155321
0.0317249
0.00128075
0.000210808
0.000220984
0.000157549
0.000174217
0.107132
0.000213248
0.00462042
0.000162268
0.00015736
0.000325432
0.000159782
0.000277182
0.0500059
0.000164153
0.000288451
0.00955898
0.000150334
0.0147451
0.00489591
0.000163328
0.0156408
0.00308162
0.0171855
0.000169011
0.004089
0.000165076
0.000139903
0.00306806
0.0694674
0.0851912
0.00015148
0.000709666
0.000151797
0.000260236
0.000164274
0.00389654
0.0192694
0.0688218
0.000211406
0.000249493
0.000197791
0.106565
0.0956644
0.012319
0.0526505
0.000167272
0.000152955
0.000150641
0.000226319
0.000194808
0.000288047
0.114693
0.000152542
0.0129519
0.0770476
0.000346536
0.0522747
0.000175772
0.000166835
0.0760198
0.00744836
0.000163228
0.000163696
0.000385377
0.000311274
0.0878204
0.0311093
0.0761035
0.000174028
0.013896
0.0118861
0.000174634
0.000152635
0.0834271
0.000295374
0.000158619
0.000197658
0.00681826
0.0018568
0.000142761
0.003701
0.000187977
0.000162344
0.0362463
0.00656529
0.0995309
0.104067
0.000230094
0.012623
0.0616699
0.000166365
0.077479
0.00277818
0.000292826
0.000186508
0.000160135
0.000172514
0.0285856
0.000159356
0.0606499
0.00025702
0.000259091
0.00866011
0.000162222
0.00625899
0.000182893
0.00487811
0.000388721
0.0145696
0.000221196
0.000158056
0.0800742
0.000159548
0.0555706
0.0911316
0.000281172
0.0233923
0.000144393
0.0547824
0.000162173
0.000191246
0.000176739
0.000360415
0.000149793
0.0289714
0.00015827
0.118294
0.00017717
0.0764751
0.0143066
0.000210988
0.000201595
0.000332931
0.0742302
0.00284033
0.000155865
0.0762491
0.000320835
0.000160808
0.00398502
0.000152991
0.000180855
0.093763
0.043505
0.000338901
0.000160437
0.0169857
0.000894315
0.0118566
0.000169526
0.000158146
0.0822902
0.0478191
0.000189134
0.00402663
0.00019232
0.100585
0.000172694
0.000163617
0.000507238
0.0181358
0.000203251
0.000196353
0.000155902
0.000190086
0.000166048
0.000204648
0.00612796
0.000500498
0.000284315
0.000150464
0.0768008
0.000165741
0.000328624
0.000161684
0.000162804
0.0517241
0.000880941
0.000184793
0.000148755
0.000152794
0.0769183
0.0138096
0.0757672
0.000237566
0.0798097
0.000449515
0.0846805
0.000190121
0.000289229
0.000166195
0.000165089
0.000161258
0.0159256
0.000163135
0.000279524
0.00309971
0.0871364
0.0692321
0.0160387
0.000153991
0.092944
0.000254658
0.00985334
0.000150208
0.0010825
0.000142656
0.000188637
0.0209033
0.0111864
0.000168175
0.000159384
0.000148077
0.0112815
0.00019592
0.10954
0.000292296
0.106165
0.0143062
0.0607957
0.0904606
0.000162893
0.00873817
0.0106446
0.000274783
0.000187667
0.000169224
0.000154407
0.000166545
0.000148499
0.000151018
0.000166739
0.000167837
0.000163489
0.0106807
0.100336
0.0650154
0.000168918
0.000169943
0.0199685
0.000158936
0.0796229
0.000148801
0.00260682
0.0989367
0.0663088
0.000199091
0.000268194
0.000315744
0.000278665
0.00040605
0.000215905
0.0849252
0.0217766
0.000803641
0.000174186
0.084027
0.000163318
0.000162618
0.000216155
0.000159204
0.000187619
0.00016977
0.0136121
0.000188359
0.000147682
0.0908085
0.000167928
0.000188353
0.0192322
0.000148643
0.00279973
0.000174317
0.000193074
0.000191781
0.00682904
0.000148111
0.0692944
0.0904372
0.000159639
0.00353169
0.000184518
0.072304
0.0993237
0.000159727
0.000148015
0.000164802
0.000158612
0.000157339
0.000164086
0.000145003
0.00019231
0.000150858
0.000695585
0.0747699
0.00030188
0.000171674
0.000183254
0.000158142
0.00358801
0.000364653
0.00363341
0.0034495
0.000147844
0.097551
0.0733091
0.000168652
0.0212121
0.01478
0.000183033
0.000158237
0.0118832
0.000185592
0.000157391
0.000267147
0.0222388
0.100704
0.000893377
0.0249903
0.000159109
0.0769081
0.0428421
0.000197704
0.00015455
0.000172593
0.000159391
0.000203253
0.0291387
0.000151818
0.0061504
0.116761
0.00325697
0.000792507
0.000166006
0.00234896
0.000167744
0.0740745
0.0813203
0.000149365
0.000159868
0.112577
0.000204193
0.0993691
0.000167977
0.0585376
0.0140508
0.000577648
0.000151613
0.0722029
0.127581
0.0636477
0.000252736
0.0217876
0.114614
0.135584
0.0353883
0.000315187
0.109185
0.0993088
0.0122885
0.115472
0.0394732
0.0617936
0.00856435
0.000241998
0.0962098
0.0614824
0.000158662
0.0673632
0.0108187
0.0120124
0.000208087
0.000148864
0.0880468
0.00025588
0.000961473
0.0572876
0.000627851
0.0641368
0.000948816
0.000153179
0.000162594
0.114914
0.00106154
0.0848516
0.000179097
0.035886
0.000166099
0.0540072
0.00104484
0.0522305
0.00947674
0.000160252
0.0899823
0.000159844
0.00641861
0.000422173
0.000164577
0.0833687
0.00016012
0.000441906
0.0529817
0.00577411
0.0586195
0.000165761
0.000160914
0.0749427
0.0744486
0.000160415
0.0904217
0.00196912
0.000175444
0.02681
0.000160197
0.000151619
0.000180317
0.0152581
0.000160055
0.00216904
0.000168093
0.0001508
0.0125127
0.0656276
0.000152724
0.00202553
0.0506008
0.0104815
0.102716
0.000165292
0.000520135
0.000143144
0.000213936
0.0920948
0.000168663
0.000109313
0.000160499
0.0914141
0.000194274
0.000389393
0.0183153
0.126832
0.0136033
0.000458102
0.00335737
0.114894
0.000301178
0.0794469
0.000153424
0.0890054
0.104061
0.039811
0.000175901
0.000155858
0.000159839
0.10338
0.000332355
0.000166633
0.00322973
0.0875085
0.00618127
0.0180097
0.000295142
0.000346117
0.0050806
0.000153602
0.0228838
0.0702824
0.000180807
0.011484
0.000158853
0.00016521
0.000183826
0.0774429
0.105459
0.000161757
0.000224298
0.000152501
0.0870448
0.0878896
0.0534774
0.118444
0.012791
0.0519979
0.000307108
0.00244378
0.112446
0.000318409
0.000155999
0.000147805
0.000232353
0.000152792
0.000902609
0.0769576
0.000251473
0.000152007
0.000185584
0.00015419
0.000218429
0.000294437
0.00998685
0.00214811
0.00212521
0.000275737
0.000178009
0.000149197
0.00016511
0.00240292
0.0186362
0.000157164
0.000209129
0.000192767
0.103483
0.0435234
0.113659
0.000404424
0.000175198
0.0830528
0.000160955
0.0767554
0.0542305
0.000173822
0.00608674
0.0639983
0.074895
0.000358265
0.115579
0.000452414
0.000180835
0.0894316
0.000160403
0.000155397
0.097543
0.0733289
0.0022873
0.00026724
0.087875
0.0144603
0.0733409
0.0740493
0.00015859
0.0859492
0.00026159
0.000346718
0.0877322
0.000149243
8.93845e-05
0.000211957
0.0619538
0.0597561
0.00793001
0.000149164
0.000214148
0.000752007
0.0779919
0.00332274
0.000728281
0.0771505
0.000162266
0.0125629
0.000345899
0.000163616
0.000163732
0.0115368
0.000308537
0.0578794
0.000189702
0.000221226
0.0652715
0.000156209
7.3736e-05
0.000155766
0.0837131
0.00017238
0.000151397
0.107937
0.000177906
0.00592238
0.000148825
0.000162014
0.0945048
0.000162736
0.000168184
0.000151756
0.0772504
0.00359836
0.000246662
0.0630997
0.0698802
0.0876801
0.000191483
0.000156935
0.0373479
0.000170285
0.00236187
0.00017093
0.0173354
0.000168621
0.000174981
0.0002075
0.0116139
0.000178941
0.000165717
0.0987622
0.0575017
0.000194478
0.0152385
0.00019048
0.000411825
0.0117459
0.000145304
0.000158829
0.000152609
0.000342716
0.117736
0.0743052
0.103341
0.112033
0.0941981
0.0673588
0.0190839
0.000148351
0.0822486
0.0622577
0.000161951
0.00788909
0.000309358
0.000176232
0.00418579
0.10622
0.0797475
0.0821812
0.000176874
0.000196632
0.0685183
0.127189
0.000322164
0.000369114
0.000243455
0.0767364
0.102538
0.0228851
0.00617177
0.117901
0.107633
0.000160179
0.0664898
0.000249521
0.000174214
0.13164
0.000157086
0.000151549
0.106348
0.000160408
0.000204107
0.00434064
0.000259521
0.000163507
0.072274
0.0805735
0.0651538
0.000238251
0.0648529
0.000193146
0.000188494
0.0971455
0.000780329
0.0182334
0.000167516
0.0718665
0.0001645
0.108387
0.000196235
0.000243527
0.000218056
0.0145677
0.000163823
0.000227749
0.0926508
0.00016191
0.0561327
0.064116
0.0755384
0.000353458
0.00015282
0.005043
0.0909776
0.00788511
0.00016456
0.0186609
0.00453964
0.0779251
0.00249633
0.000203008
0.0590439
0.0629361
0.00560453
0.000317645
0.109636
0.000156022
0.0868214
0.000148332
0.0136764
0.000168614
0.017551
0.068698
0.0757178
0.0735438
0.0130595
0.000248902
0.000399941
0.000130447
0.00428385
0.000177858
0.0609846
0.000287652
0.0102661
0.000446874
0.0554443
0.0172993
0.000201974
0.0824133
0.000192119
0.0810037
0.000181203
0.000331665
0.0624085
0.000249222
0.000109457
0.0566864
0.0752137
0.0182457
0.0799423
0.0793616
0.118721
0.0645013
0.000164834
0.000167487
0.00120949
0.000158143
0.000182975
0.0103448
0.0166383
0.102751
0.000156202
0.0767982
0.000279855
0.000274283
0.0675706
0.053678
0.000148261
0.0829219
0.000299557
0.0636079
0.000184991
0.0990091
0.00924221
0.000370893
0.07631
0.000161956
0.018833
0.0849525
0.0853131
0.084636
0.0826952
0.0725771
0.0010816
0.0590436
0.000215865
0.0681645
0.000188885
0.000212827
0.000163097
0.093631
0.0406142
0.000196064
0.000148521
0.00075603
0.000185728
0.000165616
0.000400534
0.0189947
0.000156141
0.0738754
0.0707168
0.0181643
0.099212
0.0111556
0.0734619
0.00079563
0.00161235
0.0744601
0.000198173
0.0932217
0.0061394
0.000236052
0.0629039
0.0782416
0.000327347
0.0306762
0.000231933
0.000168144
0.000161319
0.0892529
0.0124018
0.000191703
0.0608866
0.0709191
0.0257171
0.071705
0.0149787
0.00891893
0.0162571
0.000680459
0.0667108
0.000157743
0.072408
0.000150947
0.132169
0.000159041
0.105878
0.00430533
0.000150258
0.0129029
0.00197706
0.0665858
0.0665108
0.000197973
0.0157388
0.0748275
0.000143904
0.000640693
0.0180938
0.000159625
0.0672029
0.000160818
0.0827148
0.000162325
0.000161785
0.000150757
0.0198869
0.0783009
0.0010975
0.105918
0.000273019
0.00616547
0.0172422
0.000162055
0.000166935
0.0789103
0.075976
0.000179677
0.0103092
0.0137267
0.10374
0.0850298
0.0751104
0.00168967
0.000190471
0.0510749
0.000241168
0.0183077
0.000188514
0.000210589
0.0983046
0.0911464
0.000151448
0.0154568
0.000158976
0.000148438
0.000151084
0.000163872
0.0461433
0.124508
0.000162427
0.0114723
0.0017456
0.000190141
0.0135661
0.0815228
0.000150473
0.00018852
0.000165429
0.0253913
0.000189928
0.000302884
0.000152267
0.000167539
0.000370347
0.000148517
0.00030664
0.0182402
0.0566753
0.00018461
0.000190151
0.0556633
0.0638863
0.0601243
0.000176429
0.0239251
0.0788845
0.000145533
0.0774188
0.0192979
0.0694974
0.000288248
0.00565039
0.0848052
0.0467747
0.000244431
0.000282143
0.0563106
0.0499253
0.0505818
0.0153925
0.0183779
0.101688
0.000469054
0.0860106
0.000168735
0.000605261
0.00329216
0.0788644
0.102726
0.00734349
0.000161122
0.00548657
0.000207562
0.000150653
0.000314693
0.000192229
0.000222813
0.000188049
0.000800784
0.0890425
0.000616535
0.000839763
0.106956
0.000365498
0.0190302
0.0902702
0.00792404
0.000157369
0.0982752
0.000186384
0.00698047
0.0182039
0.0644713
0.0003419
0.116375
0.00108503
0.000227422
0.000197259
0.0597719
0.039457
0.0839472
0.000321193
0.00465733
0.0142138
0.0733904
0.000456193
0.0547467
0.0922925
0.0787331
0.000327574
0.0575107
0.000187513
0.0145942
0.000158185
0.00184097
0.0662907
0.0933315
0.000299098
0.000166419
0.00135617
0.0101512
0.000301364
0.00564033
0.000218133
0.000152794
0.102145
0.000156077
0.000158949
0.0754214
0.000200645
0.000169451
0.0796182
0.06155
0.0919814
0.000147431
0.108675
0.072758
0.000163611
0.00034327
0.000164211
0.000240768
0.000239624
0.000174727
0.000248081
0.000243844
0.116024
0.0128208
0.0924926
0.00959399
0.0597104
0.000277241
0.093941
0.000269442
0.0102027
0.000158743
0.012498
0.000194214
0.053153
0.000127615
0.000159159
0.018689
0.000194458
0.00043838
0.0541235
0.000151561
0.0373221
0.018267
0.000311572
0.100815
0.0933674
0.000293055
0.000186184
0.000298784
0.000363285
0.000181505
0.000294487
0.00521359
0.0190425
0.107879
0.0714325
0.000316025
0.000382611
0.00124866
0.0880072
0.11169
0.000387203
0.000191169
0.0767741
0.000200381
0.000196912
0.119865
0.035292
0.000183439
0.000156409
0.00433135
0.0555806
0.000195133
0.0633942
0.102369
0.000418402
0.000274531
0.000144799
0.00279124
0.0974022
0.000265254
0.000170982
0.0540225
0.000162695
0.000205987
0.0038421
0.000277477
0.0906582
0.000293014
0.0711488
0.00817067
0.019297
0.113198
0.000383439
0.00270646
0.00021591
0.0441411
0.0545203
0.000187927
0.000188957
0.000188516
0.000292242
0.000182636
0.000160445
0.000448411
0.0184972
0.051104
0.000180633
0.000207832
0.0780091
0.0530973
0.0135785
0.0530845
0.0137265
0.0632133
0.000154664
0.00020879
0.057931
0.000149984
0.103459
0.0651361
0.000242212
0.000197371
0.0201429
0.103338
0.000158718
0.082042
0.000158461
0.000157533
0.0906009
0.0137167
0.00126891
0.000191486
0.00031576
0.0248571
0.0185849
0.129248
0.0715867
0.0889536
0.000152141
0.000222695
0.0908599
0.0636237
0.0162873
0.0129845
0.000207611
0.00978927
0.000172188
0.000159236
0.0122794
0.000163326
0.000200839
0.000191624
0.0959624
0.0190468
0.0743038
0.00015989
0.000277748
0.000555742
0.0791966
0.136567
0.000281729
0.000159878
0.000178418
0.0883602
0.0182202
0.000246247
0.0544738
0.0462719
0.020006
0.000149539
0.0845572
0.0454597
0.000158186
0.00327052
0.000430744
0.00045342
0.000157714
0.000183713
0.000166503
0.106104
0.000515657
0.0160848
0.0341638
0.000182827
0.00184861
0.000188958
0.0049022
0.000169542
0.01264
0.000410287
0.000155456
0.000169604
0.000283802
0.000187564
0.000269763
0.00019293
0.000154468
0.00329424
0.000157158
0.0573044
0.000192198
0.00015743
0.0158947
0.000147601
0.000152689
0.0831602
0.000196055
0.00018278
0.000159437
0.0737198
0.0796419
0.000947696
0.000149764
0.000168342
0.00116301
0.0303866
0.0857661
0.000592103
0.104241
0.0507655
0.000187088
0.000158282
0.101849
0.00277575
0.000280887
0.00210184
0.000188486
0.000214242
0.000178481
0.000189083
0.085957
0.000161361
0.000155274
0.100676
0.000160576
0.0683614
0.000162934
0.00316014
0.000285418
0.00016329
0.000158585
0.0837017
0.0155738
0.000218025
0.0393844
0.000181767
0.00014341
0.0185689
0.0420679
0.000162581
0.00748185
0.121504
0.000186818
0.000182004
0.00723496
0.000341573
0.000218936
0.000148231
0.00024347
0.000159834
0.0801061
0.0214924
0.000149482
0.000160818
0.000195199
0.000823154
0.0730866
0.000207619
0.0165407
0.00218189
0.000160433
0.000288867
0.000149081
0.129794
0.0184581
0.000162763
0.000156816
0.0958962
0.000290851
0.000195337
0.0716671
0.000192941
0.00302718
0.00027917
0.000185545
0.0151669
0.000185834
0.000181396
0.00500533
0.0359411
0.000282583
0.0111333
0.00126894
0.000150867
0.000210908
0.000151811
0.0160209
0.000213857
0.000202212
0.000167503
0.000179428
0.000163488
0.0732999
0.00016817
0.104373
0.0982726
0.000871873
0.000872308
0.000241623
0.000186369
0.0394215
0.000473674
0.00018414
0.0771557
0.000204475
0.127377
0.113682
0.000171022
0.000212477
0.00174008
0.0535909
0.000157605
0.0612161