/*--------------------------------*- C++ -*----------------------------------*\
| =========                 |                                                 |
| \\      /  F ield         | OpenFOAM: The Open Source CFD Toolbox           |
|  \\    /   O peration     | Version:  v2012                                 |
|   \\  /    A nd           | Website:  www.openfoam.com                      |
|    \\/     M anipulation  |                                                 |
\*---------------------------------------------------------------------------*/
FoamFile
{
    version     2.0;
    format      ascii;
    class       volScalarField;
    location    "250";
    object      omega;
}
// * * * * * * * * * * * * * * * * * * * * * * * * * * * * * * * * * * * * * //

dimensions      [0 0 -1 0 0 0 0];


internalField   nonuniform List<scalar> 
13308
(
0.0303258
2.30513
2.11951
0.0242771
0.0556799
0.023275
0.0820839
0.0267393
0.0879222
1.42584
1.23577
0.783469
0.0232181
0.021938
0.0233953
2.38849
0.0376253
2.31491
0.695629
1.79478
0.03306
2.64967
2.64253
0.0404695
2.4664
1.98466
0.0574264
1.2701
0.0596891
0.0622987
2.73594
0.0563473
2.42898
0.0860337
0.177045
0.0332036
0.0813144
2.66951
0.0307362
2.29991
0.021403
0.0257714
0.676363
0.0217907
0.0306366
0.205432
0.0233628
0.0236871
0.0278827
2.13274
0.0260985
0.026086
3.21446
0.809619
6.11784
3.73959
0.0217471
0.0266762
0.035316
0.0343614
0.771353
2.73944
0.0264142
0.0222604
0.0255538
2.40062
0.021263
0.222773
0.0236694
0.117061
3.54911
0.0305015
0.0288616
0.0586064
0.528061
0.0248667
0.0204006
4.11047
0.023127
0.0591537
0.0272832
0.0208006
0.0247528
0.0380635
0.156545
0.02703
9.74572
1.6124
0.464779
1.75037
0.0258393
0.0213731
0.0569189
0.0344002
0.0241489
0.0257097
0.0260721
0.056488
2.09236
0.107332
0.0255498
0.0218041
0.0229161
0.0359444
0.975761
2.50523
2.04843
0.0247678
1.84826
2.04427
0.0296366
0.1527
0.0379421
0.0229477
0.0375424
0.650791
0.213606
0.692278
0.0585908
0.0268393
0.0497668
0.0368864
0.0223943
0.102893
0.292759
0.806453
0.351667
0.226677
0.0292426
3.25618
2.51032
0.0554973
0.0223419
0.0264455
0.0871871
0.078167
0.0213342
0.208656
0.137135
0.026192
2.22491
0.0294071
0.0221259
0.0355892
0.0288811
0.0899381
0.0646688
1.72413
0.0268736
0.0557923
6.86651
0.0260982
1.5472
0.762329
1.19577
0.135173
0.0247302
0.0220039
0.0216286
0.169329
1.44683
0.0264636
0.0220594
2.83866
0.16419
0.500348
2.60737
0.0219452
1.84683
0.0492075
0.0291742
0.786646
0.0274206
2.26593
11.8442
2.08126
2.57935
2.10244
0.117279
0.0248464
0.575214
3.47223
0.021386
1.43669
2.88582
0.0213313
3.29611
2.8629
0.0640366
0.143888
0.141772
1.78555
0.0290948
0.792873
0.0283287
2.05111
0.0285995
0.0529671
2.2975
0.0256152
2.30817
3.30807
1.43027
0.0843122
3.08264
0.202178
2.55991
0.693223
0.156467
7.83809
0.160705
0.107414
0.0693422
2.15504
2.44522
0.0350982
0.0251402
1.68697
0.158072
1.16488
1.19447
0.0251898
0.124129
0.020256
0.0383425
2.79194
0.0720002
0.973542
3.75364
0.202277
2.48465
0.0375801
2.15253
0.285896
0.0378746
0.0661907
3.44019
0.35929
1.23096
0.0391213
0.0390286
0.0397342
0.0347352
0.0204761
0.539517
2.1664
0.112689
1.02147
0.0203605
2.55996
2.49618
2.42061
0.0225433
2.67996
2.32853
0.0362602
1.54878
0.0252567
1.13147
4.06249
0.0626144
0.59751
0.0644631
0.0261075
0.137682
0.0499829
0.784797
0.0222019
1.08877
2.48473
0.123958
0.0513747
0.0226138
0.187829
0.0233197
0.0268983
0.028571
0.548025
0.0555641
0.0862474
2.06822
0.0238925
0.469328
0.0368649
3.19988
0.221053
0.0257918
0.0325717
0.098365
1.10139
0.0580911
0.0218513
1.17012
3.34471
0.0227755
0.833813
3.32202
0.0621852
0.0915117
2.7176
2.38044
0.0402144
1.95866
1.47954
1.65957
0.0267206
0.0519561
2.21626
1.65667
0.0212843
0.756613
10.3597
0.0587746
1.45504
0.219708
11.6964
0.0252841
0.0227446
0.0222638
1.05731
0.0215978
0.0207205
3.22643
0.0202971
4.98865
0.0366295
0.0367734
0.0231627
0.0308456
0.538981
2.24836
0.0219131
1.57438
0.0237965
0.0240361
0.862713
2.4089
0.0223783
0.068228
1.46749
0.0462766
0.0230301
0.0219338
0.0814656
0.589568
1.08304
0.0939607
0.0886062
0.029931
0.0341699
0.0735723
2.66082
0.948333
0.0217056
0.0269549
0.0258083
3.58498
0.0275337
0.0930281
2.35705
0.407475
0.0831549
0.050271
0.11886
3.30109
2.43774
0.0218896
0.0203061
0.0269318
0.0418236
2.24274
6.91076
0.131361
0.0252229
0.0265426
0.0801039
2.88971
2.42506
0.0277969
0.536772
0.0282912
0.0240092
0.370043
0.0592659
0.0276494
3.35033
0.142229
0.0368783
0.021142
1.40398
0.0329862
0.0420977
0.786016
2.43631
0.603709
0.0616561
0.784539
0.0216877
0.631195
0.0243942
0.160307
0.0256611
0.099892
2.38186
0.0213015
0.315365
0.024869
0.0222297
2.31893
0.95601
0.0287711
0.136659
0.122441
0.0216312
0.0216447
2.65383
0.0282644
0.0216636
0.0360062
0.0857555
0.0991905
0.0269052
0.0439252
0.0269053
0.0386437
2.03196
1.41832
0.0285932
0.820466
0.400732
0.615707
0.0215917
0.668801
2.82209
0.024113
0.0201262
2.97304
0.0213897
0.0601267
2.32826
1.95007
2.95112
2.02631
0.0266314
3.55159
0.0400247
0.808915
3.16409
0.0211241
2.28356
0.0312683
2.04747
0.11773
3.70661
0.0395665
0.0515479
0.0525349
0.132246
2.69901
0.0921149
0.148461
3.51962
0.0232266
1.4668
0.0263407
10.1913
0.0223923
0.0272802
0.0228427
2.41529
0.285893
0.0227928
2.77593
0.025875
0.135735
2.42328
0.093474
0.0296778
0.359712
0.0219092
0.125155
0.0295621
0.168404
0.0243775
0.0868008
0.026788
0.0291374
0.419682
0.0300762
0.0214298
0.0217977
0.0531599
0.413288
0.0203489
0.0213918
0.0269594
0.0235117
0.797605
2.55981
2.19295
0.476578
6.73188
0.518286
0.790032
0.0359834
0.0264985
0.108052
2.012
0.0261601
1.85694
0.0718851
0.812529
0.0287343
0.0230446
0.0399286
0.0812581
0.0873441
0.0251152
0.430038
2.37504
0.177899
1.09081
2.6937
0.041324
0.0233188
1.17024
0.0219555
0.0201133
0.323646
0.785436
0.0836419
0.0815648
2.83347
2.84093
0.0211828
0.946253
0.377195
3.59356
0.020499
0.360229
0.0217779
0.659184
0.0215579
1.00311
0.0285505
4.29441
1.97238
0.809861
0.0213148
0.0250507
2.81295
0.806364
3.50217
0.481288
2.06896
0.369867
2.96857
3.36176
2.90223
3.08525
0.0404389
0.021739
0.0252398
0.301948
0.0230082
0.663853
3.07823
0.0228954
2.04757
1.37447
3.46803
0.0217408
0.0229431
0.021759
2.71228
0.0591221
0.0217576
0.0241937
2.69413
0.0229093
2.48857
0.109652
0.0321315
0.0646324
0.0221284
0.0218024
0.0221803
0.0525884
0.0364146
0.0252911
0.775914
0.0215391
0.0228164
0.0201945
0.0251711
1.8862
2.37256
0.0218807
3.137
0.0259268
0.0246894
0.0217779
0.0481594
0.038328
0.0292083
0.0538159
0.021904
2.12054
0.0380179
2.94053
3.82047
0.0504268
0.0561462
0.0251313
3.70637
2.64884
0.0529415
0.0230457
0.546586
0.911324
0.0738532
0.0222273
0.0338422
0.524865
0.105892
11.0662
0.0264225
0.0223332
0.0661136
7.58751
0.0400128
3.10718
0.44544
2.31294
0.792217
0.348239
0.052694
0.0300042
4.15038
1.8538
0.0276666
0.0226171
3.08514
0.633218
0.107415
0.385504
0.0351853
0.0241107
0.0200279
0.786389
1.65025
0.0239391
2.86067
0.0261586
2.73399
0.022052
0.0216846
0.36924
3.52956
0.0756958
0.342111
1.41971
0.0650266
0.306673
0.0400323
0.564725
3.72481
0.0241415
2.3694
1.92007
2.1768
0.0245719
0.892564
0.0236997
0.0212599
1.84806
2.24162
0.219567
0.5084
1.4648
0.0384589
0.795967
0.0418774
0.0200493
0.0452196
0.0242548
1.85183
1.8437
0.184862
1.83118
0.0215242
1.84397
0.0413879
0.19613
0.126435
0.0313865
0.0219078
0.0258773
0.0218542
2.86639
0.0240095
1.42278
0.35637
0.0651045
0.0470189
0.0249574
1.43573
0.422646
1.41282
0.0270266
0.0218599
0.0218175
6.00493
0.0238536
0.162852
0.0534313
0.0241944
0.0211524
0.0218059
0.0216137
0.0262738
0.0297737
0.042141
0.181582
0.193781
0.0220279
0.802029
4.30427
0.109602
2.54228
0.0297546
0.0262729
0.0343681
0.0252133
2.28859
0.035917
0.132867
0.944347
0.856407
0.028007
0.0217291
2.45657
0.0244464
2.50315
0.0233096
0.0250571
1.43734
0.0283345
0.0212916
0.0819101
0.085214
5.08367
3.42493
3.32624
1.0921
0.0242542
0.0263604
0.0489984
1.43997
0.1798
0.0268326
0.022617
0.106319
1.90319
0.0224122
0.0231029
3.56719
1.87236
0.0856105
0.0249176
0.0203891
0.0232137
0.0248476
0.0284977
0.0202035
0.0252368
0.0256826
2.60735
0.0208386
0.0858312
2.26183
0.740172
0.446575
0.0221954
0.0229982
1.82133
2.34094
0.505885
0.908171
0.45089
0.720612
0.0333376
1.85899
0.0348991
3.62169
0.0215909
2.48121
0.0218592
0.0367574
0.0818572
0.46955
0.0229231
0.0218122
0.0303229
0.0245533
2.82357
3.58187
1.82694
0.0413402
0.0230129
3.2231
0.0276346
0.0213381
0.533094
2.85313
0.434558
0.569389
2.42625
0.0271832
0.0450281
1.16089
0.021182
0.0369926
2.21998
0.024631
0.02642
1.93491
1.97702
0.0218296
3.47684
0.0211508
0.0485076
0.807157
0.36003
0.227165
0.0668722
0.0246398
0.0415826
0.0284818
0.539034
4.86231
0.0216226
1.33281
0.773127
0.141342
0.0201591
0.024719
2.51681
0.0268958
0.0494799
0.384943
0.485273
0.0235441
2.32018
2.85712
3.3672
0.585172
0.629131
0.0231413
0.0204361
0.0262908
0.0373185
1.95719
1.86574
0.0788096
0.0999477
0.598491
2.06309
2.43827
0.0218319
3.45225
0.0273001
2.2871
0.0877734
0.0327322
0.488422
0.0243617
0.853736
0.191019
0.0332997
2.11131
1.14612
1.8
0.405662
0.05453
0.0491167
0.0227349
3.52039
0.0218381
1.7777
0.0247834
0.0222046
0.0228503
0.0433718
7.28824
0.0218141
0.270659
0.156432
0.621377
0.0504449
0.0209394
3.00512
0.0259999
0.0260972
2.11348
0.0217349
0.022179
0.0962793
0.0302164
0.0217448
0.379491
2.45204
5.19582
1.13772
0.0211671
0.0268048
0.0804729
0.196198
1.96985
0.0219686
2.01892
0.0305139
0.0304542
2.40818
0.021588
0.0230867
0.0416377
0.0239039
0.0217831
0.0262614
0.162954
1.96017
0.0256061
0.76322
0.350919
0.100866
0.0358424
0.0241906
0.0226636
0.0258821
0.512357
0.105183
2.43843
3.54239
0.551414
0.024471
0.0369572
0.844672
0.0393922
0.0334946
0.0249573
0.496386
0.224276
0.0262479
2.4484
0.3194
0.0247782
0.0360523
0.0220042
0.127294
0.34883
0.705107
0.0369492
0.842953
0.0436483
0.0262417
0.362473
0.0263832
0.191241
0.0638903
0.0291156
0.0426444
0.029689
0.0575986
0.0216972
0.0247379
0.77854
0.0224054
2.6191
0.0406184
0.0405663
0.809213
2.6087
0.0227031
0.0203205
0.0730396
0.505766
0.0246976
0.0285779
0.787239
1.21044
0.0687219
0.0716681
7.25279
0.0227429
0.0234219
0.237935
0.721761
0.782632
0.024851
0.0726054
0.0253619
0.0455922
7.16832
0.0271521
0.0217918
0.0671173
3.26026
0.0229093
0.0219248
0.0293199
0.0402378
0.0655662
0.0226148
3.13618
0.059537
2.72329
1.67873
0.0463446
3.29955
0.0289668
2.28474
0.0630346
0.443715
0.0233379
2.4675
0.0571365
0.095485
0.0396889
0.0403061
2.2922
0.0259612
0.0265068
0.0258648
0.215333
0.394597
2.42822
3.59279
0.750222
2.40967
0.0241669
2.37607
0.0223809
0.0221132
0.0277164
0.024138
0.645854
0.169034
0.0213138
3.17307
0.386423
1.91587
2.94302
0.562779
0.0224896
0.0218197
0.077899
0.0204787
0.0249301
0.0233955
2.65695
0.042399
0.48402
0.0921648
0.0522876
0.208298
0.0235308
1.8451
0.026354
0.0713418
4.14978
2.03328
0.0358178
0.328877
0.306975
0.996017
0.911834
0.0256559
2.48821
0.0279525
0.172819
0.0251512
0.0230121
0.0232447
5.69047
2.19584
3.20113
0.751623
2.16798
2.79995
0.0217174
0.442848
0.0634548
0.0265845
0.838471
3.75716
0.0203101
1.41516
0.0956706
0.0219104
2.96215
0.0240188
0.0235927
1.91794
0.0254561
0.0559701
2.95223
0.0858643
1.99392
0.0229972
0.0199915
0.0277128
1.99288
0.0473101
0.0733111
0.370578
0.0224391
0.0209972
0.0436282
0.176404
0.0218768
1.45878
0.0252224
0.100318
3.17802
0.0312024
2.56606
0.0209884
0.0387193
1.86176
0.0231947
0.0349045
2.45339
3.99459
0.250737
0.0422213
0.350781
0.0269093
0.893953
0.194748
0.0498109
0.789441
0.0959118
3.31637
2.88714
0.0227579
0.0877949
0.0575359
0.0268948
0.0386265
0.802526
0.0222454
0.0226162
0.0252152
0.0246479
0.0238383
0.0218153
0.0231806
0.032027
0.37828
0.0542855
0.0254931
1.45062
0.209845
0.485427
0.304398
0.58913
0.0225267
2.79729
0.0380782
3.14019
0.0317382
2.01148
2.87012
0.506111
0.44916
0.0243979
0.0254979
0.0244303
0.0277045
0.0493741
2.0436
0.02319
0.213853
0.86235
2.15328
0.0934327
4.9158
3.97103
0.101833
0.0308156
0.0242757
0.899998
0.0276192
0.045512
2.84257
0.0442541
0.0237958
0.0229951
0.021545
0.157875
2.66921
0.45436
0.0767593
0.0305971
0.0217098
0.0220035
0.0247494
2.00824
0.0394301
0.0209748
0.0277619
0.770474
1.85
0.0225477
0.0218048
0.0543435
0.512208
0.0234809
0.0400893
0.0771457
2.5767
0.348397
2.35839
0.0776398
0.322733
0.0446368
2.95816
0.0535122
3.70838
0.023605
2.95298
2.89496
3.12367
0.02497
0.77138
0.0338117
1.74624
1.85697
1.70783
0.208253
2.34024
0.061966
0.0711294
3.86454
0.360814
0.448711
0.0856056
3.57015
2.76631
2.84863
0.782776
3.18989
0.0252187
2.16104
0.0795937
10.2383
0.0244742
0.11883
2.8887
0.160749
2.78963
0.0524286
0.280625
0.0464708
3.75098
2.56448
0.0326893
1.83529
0.491055
0.0264818
0.50561
0.0259174
0.283912
0.180177
0.0347021
0.593046
2.21658
0.0251343
2.69922
0.460354
0.0217173
1.64441
2.04838
0.782978
2.01313
0.0240106
0.0225097
0.44634
0.0224681
3.6536
0.484122
3.11837
3.28903
0.0266379
0.0768659
0.0249919
3.02697
3.08771
3.38156
0.0506049
0.022529
0.318151
0.765399
0.0526364
0.466679
0.0234569
2.23131
0.0222711
0.0261997
0.0790847
0.0221217
0.0332082
0.139713
0.435145
2.49964
0.02107
0.0208549
2.83813
1.88086
0.105775
0.03855
3.00401
0.02118
2.11838
2.51005
2.80082
0.0242719
0.0255974
0.490993
1.94139
0.624838
0.0219101
0.272994
0.0204051
0.507874
2.87432
0.0218305
1.58186
0.242347
0.0545193
0.0874108
0.0251214
0.0319323
3.29112
0.0523212
0.341893
0.022965
0.0226954
0.205026
0.0231814
0.0907542
1.96199
0.0248274
0.229801
0.360546
0.022296
2.64388
0.418869
0.0229775
3.04481
0.327143
2.92942
0.0257185
2.46336
0.0243667
0.0200028
0.306402
1.89788
3.40621
0.0212796
0.156732
0.0218372
0.0360299
0.0238017
0.636152
0.510199
2.91882
0.054319
0.0586698
0.0482554
4.69272
2.65166
0.529905
1.30864
0.0248303
0.0236522
0.0224113
0.0937538
0.0397705
0.0856893
3.23876
0.0219729
0.508095
2.37461
0.0561347
1.50224
0.0262427
0.0270691
2.58184
0.474027
0.0229724
0.0243074
0.108186
0.166954
3.48778
0.774179
2.12799
0.0311139
0.923277
0.482693
0.0322185
0.0234501
2.18437
0.167371
0.0228679
0.0477227
0.5238
0.198274
0.0203734
0.777807
0.0278336
0.0235917
1.3682
0.477265
2.60744
2.79474
0.101711
0.843202
1.97062
0.0260022
2.15611
0.286609
0.0492635
0.0448664
0.0257713
0.0254921
2.02393
0.0229285
2.37835
0.0717147
0.136594
0.480562
0.0230127
3.03341
0.0393134
0.345834
0.14159
0.868571
0.0883823
0.0225243
2.50832
0.0232768
3.00156
3.55768
0.15615
0.803728
0.0205643
1.30878
0.0231268
0.0493781
0.0336728
0.0623679
0.0218074
1.51591
0.0223712
4.64227
0.0262204
2.7181
0.512807
0.0960173
0.0365943
0.177819
2.51901
0.492376
0.022036
3.12671
0.171654
0.0233532
0.29912
0.0217528
0.0406456
2.61193
8.00465
0.110503
0.0225996
0.781826
0.72841
0.715304
0.0284326
0.0225329
2.97801
3.85518
0.0467426
0.29308
0.0380743
3.13484
0.032834
0.0233938
0.58069
2.69762
0.0559879
0.054333
0.0220693
0.0480706
0.0262262
0.0648094
0.505339
0.2323
0.0660459
0.0211236
2.37084
0.0249944
0.0532157
0.0229979
0.326222
2.09677
0.20713
0.0444369
0.0210519
0.0236677
2.90008
3.70226
2.37512
0.109839
2.46437
0.125702
2.46171
0.0477941
0.108217
0.0237201
0.0247289
0.0228481
3.05433
0.0232033
0.0811719
0.4746
2.39081
2.34704
0.73941
0.0220178
3.55454
0.042827
0.813384
0.0217939
0.165177
0.0212794
0.0277385
0.421211
0.508289
0.0253377
0.0230065
0.0214527
0.385189
0.0550158
4.29395
0.167855
2.57462
3.09953
2.97156
2.53212
0.0232544
3.32637
0.737917
0.046466
0.0269723
0.028163
0.021776
0.0246259
0.021684
0.0215244
0.0256738
0.0250597
0.0265711
0.48578
2.81173
2.0948
0.0254324
0.0247988
0.587061
0.0224772
2.25122
0.0217032
0.307188
2.09427
1.62027
0.0477726
0.0382336
0.0416293
0.040987
0.255354
0.0829543
2.25317
2.85825
0.0819745
0.0317621
1.97093
0.025453
0.0232982
0.0800247
0.0230832
0.0425364
0.0268545
0.905198
0.0260815
0.0209593
2.62179
0.0245429
0.0461066
3.28696
0.0210279
0.309898
0.0251566
0.0288314
0.0277801
0.344033
0.0216519
3.01405
2.03942
0.0226021
0.356254
0.0367515
1.89884
2.3873
0.0230257
0.0213882
0.0241714
0.0222271
0.0222281
0.0231742
0.0205625
0.0497183
0.0218381
0.145385
2.26049
0.0416562
0.0262776
0.0426184
0.0252015
0.258969
0.243476
0.393034
0.273297
0.0213502
2.55848
2.78816
0.0244087
0.783004
0.491147
0.0278938
0.0221563
3.76041
0.0320475
0.0220049
0.0858771
1.47383
2.4064
0.151668
0.805662
0.0241973
3.18845
3.72619
0.040868
0.0237656
0.0311996
0.0224779
0.0632195
1.51109
0.0218176
0.444293
3.21334
1.98051
0.500795
0.0254276
1.74079
0.025852
3.00245
2.33744
0.0217497
0.023121
2.67988
0.0660059
3.94791
0.0251818
3.86585
0.841709
0.175391
0.022734
2.01578
2.65894
1.67537
0.0547089
0.779146
4.2712
3.03786
1.20013
0.0706078
2.67344
3.19178
0.40258
2.68846
3.76896
1.92808
3.30972
0.286365
2.29542
3.31671
0.025082
3.85799
3.39769
0.48676
0.0784719
0.0212604
2.90852
0.064503
0.167883
1.90149
0.216802
3.15914
0.667019
0.0220156
0.022805
2.86996
0.772665
2.19392
0.0320407
1.34236
0.0253216
1.60664
0.197693
2.27689
0.363848
0.0227466
1.9574
0.0257032
2.80482
0.0908975
0.0236556
2.63032
0.0255231
0.138386
1.63989
0.480642
1.48882
0.0242999
0.0227284
1.97725
2.52363
0.0225764
2.11849
0.669417
0.0328916
3.51475
0.0223447
0.0226889
0.0324188
0.738289
0.0229251
0.310169
0.0257771
0.0211629
1.36925
1.86939
0.0215097
0.387748
1.28673
1.89358
2.68881
0.0258006
0.168841
0.021359
0.076889
2.69541
0.0264465
0.261827
0.0256248
2.74508
0.0506553
0.0660358
3.62682
2.6713
0.384714
0.131454
0.50669
2.27255
0.164924
3.03834
0.0234866
2.33117
2.82499
1.21368
0.025876
0.0221322
0.0224547
2.5206
0.179477
0.0251291
1.71309
2.4735
0.915348
0.423454
0.153015
0.182461
0.373107
0.021953
0.801143
1.96881
0.0353028
3.05025
0.0223427
0.0241119
0.0357752
2.0844
2.84983
0.0226347
0.0399978
0.0215045
3.54677
1.76093
2.23452
5.72321
3.70684
1.3344
0.069253
0.272713
4.64366
0.0437288
0.0238483
0.0211805
0.0341693
0.0217345
0.852612
2.52241
0.207647
0.0215778
0.0369742
0.0217387
0.0998379
0.154428
3.20986
0.453098
0.249375
0.141035
0.034202
0.0212889
0.0260682
0.267576
2.33186
0.0224118
0.0628282
0.0507069
2.97337
1.56674
2.73786
0.167679
0.0299361
2.04678
0.0239625
2.11151
1.89514
0.0257233
0.592521
2.74477
1.95185
0.104758
2.78363
0.217303
0.03556
2.29073
0.0230826
0.0220233
2.32131
2.56648
0.72144
0.0382757
2.13661
0.856164
2.00553
2.96193
0.0254066
2.5054
0.0814548
0.0476218
2.26978
0.021296
0.594439
0.077204
2.2204
3.66063
0.349397
0.0210641
0.0776681
0.486895
2.65526
0.341421
0.497633
2.19044
0.0230719
0.486692
0.226104
0.0245594
0.0235931
0.763763
0.162012
1.91785
0.0286229
0.0734272
3.34506
0.0219179
0.111779
0.0223809
2.71328
0.0307199
0.023167
3.75189
0.0267339
0.57805
0.0217326
0.0243408
2.26159
0.0237219
0.0266558
0.0212707
3.58911
0.380134
0.060227
3.78375
2.99709
2.32538
0.0495955
0.0219219
3.60637
0.0288765
0.264198
0.0250071
0.434002
0.29955
0.0325504
0.0495715
0.497068
0.0349503
0.0265039
2.53905
1.95851
0.0523392
3.11517
0.0485863
0.486233
3.30399
0.0207113
0.0224767
0.0218615
0.139094
6.10046
2.03471
3.96212
2.78072
2.4066
2.00525
1.48064
0.0216684
2.76519
2.82597
0.0228622
0.626119
0.162365
0.028302
0.389629
2.49743
2.04827
2.587
0.033213
0.0527985
9.56831
2.61953
0.0583894
0.138177
0.137774
2.05247
3.82576
2.77594
0.406487
4.16471
2.52538
0.0226564
2.80793
0.0361339
0.0320692
2.71538
0.0222429
0.0215563
2.79419
0.0238025
0.0473133
0.849899
0.048326
0.0236425
2.0189
2.2379
1.92379
0.049285
3.93578
0.0282003
0.0483663
2.64855
0.254673
2.67423
0.0244859
3.22738
0.0256949
3.54572
0.0284926
0.0339474
0.0308101
1.39037
0.0241555
0.0725835
2.27396
0.0243685
2.03365
2.13524
2.05379
0.188484
0.0220116
0.422756
3.02749
0.475156
0.0236559
2.66331
0.876145
2.56177
0.313442
0.0549739
5.77647
2.70548
0.339599
0.19613
2.56801
0.02179
2.95498
0.0216862
0.360078
0.0277044
3.4552
2.71703
2.1207
1.92701
0.524002
0.0532446
0.249732
0.0402748
1.84024
0.0265213
2.86756
0.0406581
3.28424
0.157359
5.0039
1.22593
0.0677565
2.78142
0.0289512
2.11863
0.0383939
0.0861222
1.71587
0.042354
0.0651102
3.10644
2.06775
1.33619
2.08499
2.07879
2.75849
2.82382
0.0243524
0.0255221
0.232525
0.0226883
0.026956
1.37015
3.52131
2.63099
0.0223662
2.15623
0.158111
0.147776
1.94207
1.28801
0.021697
2.87607
0.172632
1.38575
0.0407777
2.72983
3.50292
0.0475431
2.21015
0.0229447
3.44048
2.75224
2.62778
5.95555
2.89848
2.88299
0.194494
1.90164
0.0361232
1.87107
0.0424771
0.136785
0.0244783
2.9211
2.75485
0.0374587
0.0215967
0.180193
0.0438836
0.0239615
0.145647
2.86555
0.0221538
2.08768
2.66916
2.49649
2.40435
0.360432
2.57351
0.296463
1.31138
2.57936
0.0287051
2.73087
1.93508
0.0400867
1.91501
2.18081
0.0550325
4.70025
0.0764876
0.0276402
0.022552
3.09192
3.65046
0.050076
1.90416
2.82319
0.777009
2.81872
0.50627
0.37259
3.07334
0.151675
1.8786
0.0225664
2.07942
0.0216049
2.97489
0.0235331
3.00984
0.388968
0.0215567
3.74238
0.596352
1.95343
2.02829
0.0528527
3.538
2.85179
0.0211892
0.734085
2.76564
0.0236681
2.79863
0.0231942
3.50424
0.0261503
0.0256577
0.0212189
3.48483
2.99173
0.894005
3.34182
0.155803
0.438191
3.7046
0.0228406
0.0254658
3.77598
2.14
0.0254208
2.44839
0.982067
3.0151
2.93471
2.51281
1.16569
0.0487504
1.92951
0.0404989
3.85548
0.0261686
0.0322087
2.48457
2.42717
0.0809889
0.496635
0.0253981
0.0210069
0.0212629
0.0247336
3.23239
2.87398
0.0230217
0.3795
1.28641
0.0511139
0.697064
2.95043
0.0211867
0.0470161
0.0250485
2.88601
0.0410278
0.0707141
0.0215979
0.0262688
0.236512
0.0209961
0.189823
2.82799
2.74082
0.0445624
0.0474488
1.9033
2.85271
2.76044
0.0309154
0.784621
2.40923
0.0205534
2.16475
1.12291
2.9667
0.168692
0.265427
2.83131
2.72332
0.124552
0.148153
1.98145
2.71955
1.96957
0.397639
0.770535
2.56358
0.213684
2.70977
0.0259126
0.595371
0.548363
2.19211
2.46277
3.63179
0.0224956
0.711121
0.0375443
0.0217692
0.16677
0.0507294
0.0339888
0.0369123
0.381357
2.90685
0.739566
0.813693
2.53534
0.0478681
0.435451
3.01969
0.47047
0.0222091
2.39562
0.0467768
0.772318
2.40608
3.00661
0.217554
2.70323
0.747092
0.21921
0.0544786
1.92004
11.3558
3.04059
0.177871
2.07336
0.388912
2.06723
0.201012
2.06166
2.7481
2.51329
0.176941
2.88632
0.0409325
0.494012
0.0227837
0.39576
1.88686
2.83659
0.158908
0.0270945
0.204456
3.62553
0.169361
0.589698
0.0571403
0.0214293
3.10722
0.0242849
0.0225056
2.11484
0.0542553
0.0291819
3.40124
1.3579
2.73304
0.02079
2.82051
2.94997
0.0267649
0.057837
0.0240856
0.0374474
0.05629
0.029818
0.0600652
0.0365811
3.09252
0.367766
2.9799
3.06147
4.0896
0.147495
2.79706
0.150157
0.502209
0.0225525
0.813736
0.0527059
2.75395
0.416421
0.0249628
2.46676
0.0531945
0.1475
2.91286
0.0215839
4.63137
2.64052
0.166088
2.0825
2.35211
0.175755
0.0320668
0.155345
0.19776
0.0317698
0.153443
2.88757
0.788523
2.95906
2.01147
0.20017
0.246462
0.201735
2.13878
3.75551
0.255312
0.0481897
2.14144
0.042001
0.387309
2.56434
1.31206
0.241485
0.0248346
0.387918
3.4874
0.0318885
4.13134
3.03157
0.194853
0.151016
0.0215328
0.334184
3.05267
0.0594433
0.0258807
3.28595
0.023671
0.0573889
0.432852
0.156361
2.28283
0.167066
1.88967
0.645594
3.18076
2.69648
0.240046
0.3506
0.0362306
5.62004
1.89499
0.0454561
0.046458
0.0459185
0.149999
0.0314248
0.0225258
0.274247
2.58562
1.93347
0.031037
0.0579158
2.16796
2.93969
0.54727
2.213
3.24647
1.60128
0.0221677
0.0605553
2.8521
0.0217154
3.77332
1.87783
0.073356
0.0560085
3.43802
2.17141
0.0233772
2.79174
0.0221885
0.0248915
4.0235
0.379397
0.221709
0.0489387
0.170971
1.49116
4.1126
3.03352
1.63841
1.76331
0.0219631
0.0652111
2.69473
2.77698
0.970689
0.378032
0.0344434
0.900905
0.0305517
1.10756
3.65884
0.0244698
0.0550568
0.0520676
2.67626
2.60514
2.55815
0.0222967
0.162712
0.146165
2.16991
2.99764
0.0811328
0.0229976
0.0322648
2.23616
3.184
0.0565399
2.9588
2.86959
0.415501
0.021058
2.20559
1.41517
0.0221542
1.04646
0.268293
0.297019
0.0247554
0.0425662
0.0250139
2.53072
0.522362
3.49982
3.95385
0.0419008
0.232283
0.0286151
0.44132
0.356474
3.57633
0.200149
0.0223789
0.024967
0.145955
0.0455246
0.060573
0.0513241
0.0221752
0.350651
0.0221237
2.06174
0.0491854
0.0222515
0.345061
0.021217
0.0217134
2.30702
0.0295435
0.0331213
0.0224262
2.07621
3.06022
0.370713
0.0210596
0.0249608
0.4215
1.53513
2.58757
0.581713
3.67944
2.83427
0.0448229
0.0223486
2.90618
0.344031
0.15284
0.972184
0.0459829
0.0521449
0.0385437
0.0466586
2.17831
0.0227913
0.0222924
4.71613
0.0239619
1.86351
0.0253171
0.355947
0.151979
0.0239484
0.0223141
2.14163
0.345596
0.0440908
1.64574
0.0411271
0.0214495
0.447318
2.58285
0.0232662
0.449662
2.89213
0.0411201
0.0416014
0.348982
0.242222
0.0881023
0.0216664
0.121433
0.0224326
2.16104
1.46669
0.0213127
0.0259646
0.0538427
0.333829
1.5778
0.0311561
1.07894
0.627403
0.0225562
0.146289
0.0217812
3.04891
1.59127
0.0230986
0.638243
2.57642
0.148912
0.207071
2.67729
0.0516371
0.308888
0.148732
0.0277725
3.66429
0.0396245
0.0327762
0.42187
1.31006
0.141388
0.818767
0.608298
0.0217584
0.0292535
0.0215761
0.416035
0.0360026
0.0669791
0.0243051
0.0312257
0.0242157
2.6852
0.029237
2.04965
1.9927
0.780428
1.00537
0.6452
0.0471224
3.10198
0.0545955
0.0432247
2.13894
0.0501318
2.58393
2.52533
0.0301359
0.074861
0.226749
3.05286
0.0222858
1.39886
0.0700818
0.136206
1.89559
0.0216746
1.3737
9.57002
0.556112
0.0296944
0.0281438
0.0354742
0.0242907
0.0221636
0.775576
2.06614
0.50149
0.0217369
1.87506
0.786353
0.0773584
0.0219491
0.719103
1.78149
3.2508
2.06053
0.0650656
0.0405714
0.022071
0.154416
2.0652
2.04748
0.0255058
0.0746295
0.0243856
0.709522
1.91002
0.0215721
0.0312566
0.0233213
0.0227055
0.0398177
0.02208
0.0321742
1.89693
0.853119
0.0228173
2.80342
0.16586
0.024936
3.06082
0.0228925
0.0699375
0.0217606
0.0727748
0.0253199
2.12945
0.363465
0.719539
0.523631
0.0393957
0.02373
1.43691
0.0316603
0.0256351
0.361222
0.077441
1.45912
0.0317911
5.00183
0.0254614
0.14503
1.57591
0.032688
0.045642
0.153896
2.7227
0.0304489
4.07281
0.0245339
1.96295
0.886774
0.0263575
1.90688
0.0228308
3.8806
0.0220384
2.91372
0.0215761
1.56104
3.0638
0.138117
3.48844
0.143614
1.64125
0.270725
0.0743514
0.88525
0.335903
2.0108
2.75979
0.0245463
3.11538
0.0209357
0.077387
0.038391
0.225888
2.00639
0.0323984
0.0350514
0.0258193
0.027428
0.0258225
0.740546
0.250947
2.42237
0.0277149
0.0618143
0.0336448
0.0371325
0.0263255
0.0360631
2.12962
0.770528
0.0253393
0.207864
0.45716
0.0395098
0.0209065
0.0274716
1.48218
0.0265584
0.502035
0.0406018
0.728695
3.22315
0.0245347
0.0221561
0.0439617
0.0305721
1.53985
0.022358
0.025012
1.53366
0.132591
0.0227376
0.0225164
0.0320336
0.0636421
3.05854
0.0222309
0.0454483
0.0237992
1.38156
0.0234826
0.0255651
0.0209514
0.047938
0.149517
0.0484408
0.0311756
0.0330173
0.0217833
0.0499879
0.570926
0.0247358
0.0231677
0.0231828
1.71927
0.0590693
1.36567
1.54265
0.0286386
0.162891
0.135439
0.0220369
1.35102
0.0277547
0.39188
0.140275
0.0329745
2.1398
0.021984
0.0261975
0.246994
0.117352
0.794788
0.0441213
0.0216683
1.63468
0.021766
2.89783
0.138332
0.0222903
0.0255517
0.0306875
0.0269054
0.0316173
0.134637
0.0255462
0.0218865
3.05098
1.96175
0.021689
0.0357311
0.0745951
0.0252103
0.0251256
2.14008
0.108135
0.0224623
0.033124
0.0223696
0.243818
1.89856
0.0336522
0.0265347
0.0350772
0.12309
0.0276571
0.0227819
0.0259425
2.586
0.102979
0.0230165
0.035955
0.0300126
0.0226045
0.0308499
1.49481
3.60821
0.317791
0.0553548
1.32443
0.0299381
0.790882
1.90306
0.0382366
0.0287986
1.37895
0.0289615
0.352044
0.0300819
0.199052
0.410947
0.0221145
0.0517552
0.0222248
0.0262315
0.423011
0.0251602
0.872659
3.60963
0.0913417
0.0277741
0.0309045
2.15906
2.8414
0.981742
0.034051
2.65472
0.141326
0.09967
4.47264
0.435366
0.0271674
0.0220238
0.0223165
0.0228622
0.0209966
0.0222995
0.0272481
3.08392
0.052506
0.0324694
0.137867
0.0531949
0.075131
0.118551
0.0215143
2.23197
0.0226882
2.80409
0.0819156
0.021113
0.0289523
3.10378
0.0292573
2.70491
0.132252
0.94562
0.32281
0.0275219
0.024484
0.146018
2.1747
0.227719
1.37356
0.0244241
1.34163
0.0251514
0.022769
0.0253605
0.0218242
0.0312576
0.0238624
3.04396
1.8986
0.83908
0.0219759
0.236827
0.0216409
1.92868
0.0250625
0.0323626
0.0214909
2.67894
0.0521914
0.02378
0.0615114
0.0253454
0.26503
0.0235978
0.0349289
0.334921
1.55456
0.989677
0.441991
2.83668
2.55327
0.329053
1.13408
0.0388838
0.0258012
0.0255279
0.024098
0.172659
0.801885
0.139287
0.0265773
0.162098
0.462561
0.351837
0.0464834
0.0257467
0.0234249
0.0339799
0.0248138
2.03169
0.0224205
0.0242283
2.8485
1.90284
1.62537
0.0421982
0.0233491
0.0226817
0.0347321
3.01879
0.0214053
0.48414
0.089595
0.0503433
4.78825
0.0227391
2.1786
3.60679
0.0208073
0.141557
0.0224379
0.024877
0.022303
0.0219702
0.0509555
0.0327042
0.655136
0.0263632
2.14395
0.156969
0.0327854
0.495893
0.0802898
2.81877
0.0238744
0.0806676
0.0217041
0.02544
0.0288256
0.0216809
0.0360622
0.415009
1.68026
0.0247247
0.0249191
3.16465
0.40765
1.01346
0.0242668
0.0252838
0.0244101
4.92902
0.0267663
1.90423
0.0219492
0.0233457
2.05343
0.0219272
0.0491704
1.11237
0.0243816
0.0742069
0.0260943
0.0249292
0.0819912
0.413898
0.819085
1.90966
1.68588
0.999372
0.024541
0.0295967
0.790564
0.0347215
0.0749515
2.86244
0.130372
0.0257811
2.93201
0.0417526
0.18802
0.971321
2.89306
1.33673
0.0217993
0.97873
0.0241364
3.56645
0.71749
0.027625
0.0223735
0.0226549
0.0254099
0.087329
1.52417
3.24458
0.0202259
3.09039
0.605012
1.88954
3.36813
0.0233772
0.0220915
0.0498558
0.0216723
2.19773
0.0225133
0.0225207
0.0647355
1.09597
0.0312425
0.0244078
0.0219377
0.15897
0.52208
0.157564
0.0227516
0.294325
4.87778
0.0217216
0.0260761
1.32434
1.7878
0.572553
0.0494273
0.912812
1.31774
2.41992
0.0260604
0.0250936
0.0220358
0.387268
0.0225545
1.33299
0.722441
0.71881
0.846687
0.0210989
0.24649
0.0220848
1.40558
0.0454679
1.06773
0.0690815
0.0216345
1.33555
0.0469227
0.716098
0.0258515
3.20921
0.0220209
0.0220945
0.0304278
0.022106
1.92182
0.0237995
0.329196
0.668873
0.0216893
1.88073
2.21246
3.38113
0.783936
0.021922
0.968693
0.0257125
0.160313
0.0221256
2.52327
0.0220065
2.76794
3.07668
0.828762
0.298271
3.90489
0.0295832
0.0328252
0.174249
0.0345563
0.613197
0.536319
0.0604918
0.0681401
1.51504
0.0235917
0.022547
1.07645
1.13191
0.0377823
2.51654
0.0226968
0.0320143
0.0390837
2.65821
0.0217607
0.0372753
0.0253805
1.06298
1.34756
0.0222182
0.0311081
2.223
1.14031
2.18391
0.0475855
0.0307356
1.38762
0.0237727
2.78971
0.0219726
1.27609
1.0169
0.0260045
1.29341
0.0373664
2.12378
0.0435251
4.70361
1.8755
0.0307376
1.93874
0.0342555
3.03457
0.058159
0.0250441
0.112585
0.0242432
3.29832
0.0244568
0.181454
0.758852
0.0297265