/*--------------------------------*- C++ -*----------------------------------*\
| =========                 |                                                 |
| \\      /  F ield         | OpenFOAM: The Open Source CFD Toolbox           |
|  \\    /   O peration     | Version:  v2012                                 |
|   \\  /    A nd           | Website:  www.openfoam.com                      |
|    \\/     M anipulation  |                                                 |
\*---------------------------------------------------------------------------*/
FoamFile
{
    version     2.0;
    format      ascii;
    class       volScalarField;
    location    "400";
    object      nut;
}
// * * * * * * * * * * * * * * * * * * * * * * * * * * * * * * * * * * * * * //

dimensions      [0 2 -1 0 0 0 0];


internalField   nonuniform List<scalar> 
14479
(
0.000451511
0.000260812
0.000712521
0.0101447
9.15436e-05
0.0029322
0.00672883
0.00678886
0.00299868
0.0318074
0.000108397
0.0092294
0.00184281
0.000873048
0.00636019
0.00137968
3.61381e-05
9.49556e-05
0.0197831
0.00117032
0.00675504
0.00133619
0.00137635
0.000656817
0.00171453
0.000111963
0.000113361
0.0320668
0.00105473
0.00690173
0.000389695
0.00833383
0.0198341
0.00679212
0.00189482
0.00676954
0.0067576
0.00197437
0.000582076
9.35947e-05
0.00692183
0.000663323
0.000351265
0.000753406
0.00119062
0.000655025
5.34514e-05
0.005358
0.00121202
0.00011205
0.00611944
0.0164434
0.000129583
0.000460818
0.00191999
0.00187756
0.000317683
0.0220115
0.0065724
0.000609641
0.000760335
0.00337477
3.80622e-05
0.000308605
0.000909585
0.0113825
0.000706972
0.000403301
0.0109427
0.0131008
0.0171676
0.0014539
0.0151754
0.00524068
0.0067532
0.0016038
0.0168074
0.00623678
0.0215066
0.0160077
0.00588094
0.00672493
0.00085683
0.00137874
0.00220458
0.000574879
0.00189914
0.00422511
0.0155778
0.00355426
0.024408
0.0119688
0.0018208
0.0123629
0.00108909
0.0200989
0.00239361
0.0231716
0.000860364
0.0306269
0.00043824
0.0225211
0.000534344
0.0067613
0.000831587
0.00656896
0.000880587
0.0147193
0.000172483
0.0064686
0.000839884
0.00122745
4.25195e-05
0.000422915
0.000161723
0.000548736
0.00304244
5.66806e-05
0.0007354
0.00159282
0.00165547
0.00674812
0.00957589
0.000561495
0.020467
0.00692347
0.00122281
0.002271
0.00692457
0.021274
0.00461581
0.000291305
0.00539252
0.00541668
0.000799316
0.000125408
2.44577e-05
0.00143193
0.0162183
0.0106929
0.00243608
0.00117777
0.000909374
2.17923e-05
0.00028674
0.00251884
0.0257941
0.00219912
0.000415362
0.00166929
0.0206486
0.00110143
0.0067592
0.000872417
0.00043292
0.000890995
0.0309268
0.00672978
0.0233135
0.0203846
0.0313718
0.0153275
0.020544
0.00165595
0.0261549
0.0081475
0.00695418
0.000160674
0.00477951
0.00178085
0.00386434
0.00058436
0.00316734
0.00148937
0.00332207
0.000111311
0.00648771
0.00206929
9.36957e-05
0.00105845
4.10386e-05
0.00674948
0.000868266
0.00341967
0.00675446
0.000210222
0.000391884
0.000564206
3.1045e-05
4.7216e-05
0.00674918
0.0286991
0.000819937
0.00672809
0.00131416
0.0219454
3.93876e-05
0.0289083
0.000637072
0.00441752
0.000692985
0.00037554
0.00734803
0.000420115
0.00228715
0.0010793
0.00142908
0.00130346
0.00195459
0.000172384
0.0229771
0.0306491
0.00112974
0.000517436
0.00523745
0.000773065
0.0329587
0.00100764
0.00443318
0.000406002
5.43637e-05
0.00963555
0.0255409
0.000885004
3.3861e-05
0.0119827
0.00129002
0.00103747
0.000127321
0.00676875
0.000865456
0.00673034
0.000372357
0.000696034
0.000432562
0.000839026
0.000235219
3.60178e-05
0.00590602
0.00109418
0.012909
0.000462219
0.000860681
9.44864e-05
0.0288719
0.0226094
0.00280534
0.00389159
0.000677192
0.0143076
0.00679602
0.000643267
0.00675974
0.00692524
0.0132013
0.000865199
0.00555888
0.000645088
0.00010572
0.00081577
0.00630744
0.0142694
0.00208894
0.000648607
0.005371
0.000255008
0.00518554
0.0275678
0.0154812
0.0105584
0.0254612
0.00237639
0.0052762
0.000891224
0.000990207
0.00093503
0.0141421
0.00234168
0.00696379
0.0216784
0.00441263
0.00882912
0.0324373
0.00577514
0.00673326
0.00602783
5.52815e-05
0.00200043
0.0113737
0.00223802
0.000206772
0.00110788
0.000145187
0.00161035
0.00229101
0.000397673
0.00276115
9.79233e-05
0.0069542
0.00032704
0.00377304
0.0125665
0.00350569
0.000810517
0.000487319
0.000687521
0.0226086
0.000459556
0.00132597
0.00129154
0.0105053
8.68209e-05
0.000117616
0.0025643
0.00153022
0.00672944
0.00976855
0.000172433
0.00661516
0.0067628
0.00096665
0.00580278
0.0010658
0.00296135
0.000824403
0.000952638
0.0185647
7.01342e-05
0.00244927
0.00286262
0.000784853
0.0009587
0.0250698
0.00117343
0.000645135
0.00677057
0.000439341
0.000476789
9.45256e-05
0.000330375
0.0186985
0.000670177
0.0029732
0.00678988
0.015871
0.00533414
0.0114904
0.0275375
0.00596223
0.00031593
0.0120984
0.00799114
0.000664991
0.00469358
0.00153135
0.00674579
0.00313103
0.00825759
0.00143783
0.00240905
0.00290929
0.0193153
0.010296
0.00201546
0.00677183
0.000868855
8.78858e-05
0.000977104
0.00207819
0.0108937
0.00102333
0.0149762
0.000673731
4.52289e-05
0.00466018
0.0136081
0.00118516
0.0001683
0.0021265
0.00145624
0.0023485
0.000823908
6.44059e-05
0.000119219
0.0158621
0.000307834
0.00674025
0.000691265
0.00593169
0.000752372
0.000460352
0.000797073
0.000188102
0.000684585
0.0108501
0.0317322
4.02419e-05
1.11294e-05
0.00367316
0.0067282
0.0149718
0.00438061
0.0147671
0.00060797
0.00816863
0.00131938
0.00115219
0.0119024
7.76575e-05
0.00429232
0.0310947
0.0174421
0.00675821
0.00672839
3.43857e-05
0.00677879
0.000191084
0.000162337
0.00672508
0.000481102
0.000639504
0.000371152
0.00667996
0.00087766
0.0196392
0.000322383
0.00952974
0.00676506
0.000435721
6.49289e-05
0.00376129
0.000320215
0.0013961
0.00103219
0.000314773
0.0270234
0.000929077
0.0284359
0.0010618
0.000785454
0.00544198
0.0313876
0.00409674
0.00676362
0.000462673
0.000789708
0.000150302
0.0152193
0.000961406
0.0011139
0.00674773
4.28443e-05
0.000685658
0.000440134
0.00672695
0.00080911
0.00332873
0.000654693
0.00884843
0.0202
0.00114769
0.00209442
0.0191464
0.00010705
0.00870915
0.00109721
0.000590062
0.014565
0.00101948
0.00692971
0.00678021
0.00674762
0.00190312
0.0214994
0.00152976
4.74639e-05
0.01879
0.00121233
0.000133999
0.000735384
0.000974308
0.0114817
0.000970633
3.82597e-05
0.00115172
8.71628e-05
0.00285076
0.0110965
2.78756e-05
0.0316472
0.00804972
0.00673925
0.00677582
0.0309571
0.000200041
0.00241215
0.000427676
0.011523
0.00133533
0.000895539
0.000427257
0.00121965
0.00077696
0.00305434
0.00605775
0.00482892
0.0195977
0.00105411
0.00213779
0.00584195
0.000321738
0.000627332
0.00113275
0.000673671
0.00513944
0.00674747
0.00673463
0.00484788
0.00369231
0.000281951
0.0226435
0.0181762
0.0213124
0.00812416
0.0288998
0.0270368
0.00413589
0.000989764
0.0122079
0.00845126
0.00675063
0.00031892
0.00590408
0.00935576
0.000925643
0.00124893
9.26504e-05
0.000929737
7.2931e-05
0.0139442
0.00139367
0.0110966
0.00132001
0.00785126
0.00251339
0.00506188
0.0188767
0.00674818
0.00102973
0.00106995
0.000973146
0.000107645
0.00683891
0.00480537
0.000822208
0.00228674
0.00348542
0.000932493
0.0117286
0.00128451
0.000319209
0.0210581
0.000295279
0.02691
0.00360121
0.000767849
0.000182214
0.00474889
0.00277206
0.000839527
0.000385487
0.00559301
0.0294392
4.79631e-05
0.000849661
0.00839851
0.00103937
0.00454196
0.000332542
0.000553826
0.00446943
0.00432303
0.000268408
0.00106158
0.0105264
0.0031935
0.00684829
0.0275899
0.00236608
0.00894011
0.000124401
0.00672849
0.00305501
0.0102203
0.000765307
0.00554641
0.00676079
0.00675251
0.000754885
0.00224466
0.0229228
0.0067588
2.09989e-05
0.0247424
0.00389942
0.00635086
0.00203692
0.02158
0.00118064
0.000193314
0.00113113
0.0134413
0.000270952
0.00571764
0.00545849
0.00431547
0.00272177
4.24677e-05
0.0201543
0.00261555
0.00685262
0.000991533
0.000905292
0.000807853
0.0248521
0.00550058
0.00306559
0.00675946
0.00104456
0.0288325
0.000575659
0.000733605
0.00672915
0.000442118
0.000257439
0.006761
0.00683553
0.000983623
0.00315373
0.00529146
0.00552068
0.000790715
0.00675934
0.0133387
0.00155122
0.00528566
0.000608398
0.00153886
0.000896001
0.0113751
0.00882054
0.00149285
0.00572638
0.0125456
0.0162565
0.00674027
0.021828
0.000230579
0.0039992
0.00138311
0.000908102
0.00676367
0.0031562
0.0277576
0.0116844
0.000876546
0.00158836
3.38919e-05
0.0180815
0.00674665
0.00675823
0.000494779
0.0108661
0.00626997
8.80862e-05
3.23898e-05
0.0201736
0.000305397
0.00182964
0.000913767
0.00426122
0.00114567
0.0137968
0.00511481
0.0130435
0.000849778
0.0229383
0.00583583
0.000189216
0.010371
0.00126988
0.000317961
0.0242692
0.00103395
0.000725342
0.0155825
0.019782
0.0123473
0.000352925
0.000546748
0.0197602
0.0182222
0.0245916
0.00464109
0.00180903
0.0191947
0.000745229
0.0160161
0.00136662
0.00454198
0.00676543
0.000449404
0.0176604
0.0148955
0.0165558
0.00242969
0.00176
0.0137282
0.00321656
0.00109141
2.52569e-05
0.00102843
0.000849122
0.0229804
0.00596821
0.00101306
6.92745e-06
0.0307744
0.012468
0.00678233
0.00142833
0.00283412
0.00672751
0.00458063
0.00682666
0.00421694
8.98845e-05
8.87505e-05
0.000930503
0.00675166
0.00375892
0.00507359
0.00672911
0.00672703
0.00108072
0.00846621
0.00102147
0.00682073
0.0192077
0.010961
0.000152783
0.00033979
0.00216165
0.00104745
8.90315e-05
0.00329435
0.00136882
0.0025531
0.000245187
0.000982906
0.000354556
0.000293361
0.000725611
0.0202025
0.00417316
0.0116129
0.006729
0.00212219
0.0155443
0.000587148
8.90626e-05
0.0102262
0.011032
0.000458342
0.00310854
0.000462098
0.00878349
0.0110281
0.00100635
0.0152695
0.0153534
0.00343398
0.000153136
0.00105752
0.00676723
0.000405833
0.00725738
0.00131477
0.000682094
0.0244318
0.0067428
0.000197959
0.000514363
0.0351026
0.0146793
7.04133e-05
0.00652436
0.000533478
8.29602e-05
0.000391513
0.0211638
0.000138707
0.000720794
0.00056596
0.00370593
0.0128895
0.00694008
0.00676875
0.00964486
0.00267185
0.00654254
0.0175394
0.00113765
0.000431523
0.00167031
0.032314
0.000153982
0.00134795
0.000501901
0.000611339
0.000613174
0.0019919
0.000488066
0.0267945
0.000321723
0.000427835
0.000991304
0.00100408
0.000233425
0.00371469
0.000524652
0.0137405
0.00187011
0.0163993
0.0199092
0.00071415
0.00903397
0.000793777
0.0281776
7.73635e-05
0.005797
0.00441065
0.000303193
0.000559837
0.00115606
0.000931037
0.0131384
3.86862e-05
0.0067649
0.000413469
0.00831231
0.000932982
4.71606e-05
0.000721634
0.00773973
0.001486
0.0322565
0.00100756
0.00678569
0.000343106
0.00398054
0.000592221
0.00125163
0.0163365
0.000992416
0.0284327
0.00261136
0.00676219
0.00469601
0.00387439
0.00105567
0.0146896
0.0181379
0.0308049
0.0155241
0.0136471
0.000317815
0.0196811
0.00908957
0.0271278
0.00246234
0.000466095
0.0128985
0.00025766
0.00260172
0.00240597
0.00243259
7.61591e-05
0.000853872
0.00451385
0.000835318
0.00050758
5.94298e-05
0.0188719
0.0045754
0.00672664
0.00061697
0.00346628
0.0249418
0.000855478
0.00690313
0.00676846
0.000726617
0.00177428
0.000822542
0.00597897
0.000990445
0.000500399
0.00605053
0.0252963
0.00619635
0.00863873
0.00676207
6.30044e-05
0.0073412
0.00615373
0.00674529
0.00631651
0.0149902
0.000736755
0.000704543
2.19715e-05
0.0306804
0.00011668
0.00675018
0.00674172
0.0103332
0.00075518
0.00796754
0.000334966
0.0336026
0.000990869
0.00142026
0.00691589
0.000362381
0.0187963
0.00773967
0.0158318
0.0251039
2.65625e-05
0.00100021
0.000231585
0.00672566
0.000191641
0.00677561
0.00120013
0.0103918
0.034871
0.000417193
0.00674815
0.0146076
0.00108019
0.0269153
0.019858
0.00031158
0.00139948
0.000158887
0.0305037
0.00672814
0.000849082
0.00396546
0.0151381
0.00684898
0.00672588
0.000581858
0.000699273
5.31258e-05
0.000565716
0.00677535
0.00323035
8.57811e-05
0.000825186
0.0210178
0.00672595
0.00122439
0.0178397
0.00112225
0.00678996
0.000299589
0.00154
0.000587437
0.0122016
0.000955926
0.00659603
0.00157333
0.000808929
6.92205e-05
0.00113032
0.00675256
4.23615e-05
0.00335386
0.000506487
0.0109666
0.00837064
0.004599
0.00020727
0.00296114
0.0011741
0.00411313
0.00105437
0.00538293
0.00240693
0.0211328
0.00107429
0.0167384
0.00675836
0.000777737
0.0133144
0.00674667
0.00059586
0.0270792
0.0292732
0.000117834
0.0118391
0.00020476
0.000661751
0.00266733
0.00050339
0.0211733
0.000112925
0.00675332
0.00207425
0.0328467
0.00676032
0.00823522
0.000300466
0.000385182
0.000908466
0.000240617
0.00100901
0.0221207
0.00318417
0.000192062
0.000205653
0.000804752
0.00505785
0.000764678
0.00278595
0.000469399
0.00105667
0.00203264
0.00655327
0.000212171
6.13365e-05
0.000928291
0.000404225
0.00303909
0.000378632
0.000344977
0.0173619
0.00611337
0.00155644
0.00316225
0.0188034
9.46654e-05
1.84418e-07
0.00059591
4.17021e-05
3.79713e-05
0.00276609
0.000165721
0.0031085
0.00540097
0.000253072
0.00374982
0.0183647
0.029444
0.00295948
0.00323923
0.02152
4.53121e-05
0.0211487
0.000499242
0.000178365
0.00026684
0.00407738
0.0284345
0.0053673
0.00601647
0.00672789
0.0279762
0.00114363
0.000217806
0.00676131
0.000970495
0.00169084
0.00880045
0.000512322
0.00150164
0.000307625
0.0304338
0.000286057
0.0105597
0.0067283
0.00132652
0.00057807
4.85685e-05
0.00253075
0.000362316
0.000518978
9.6274e-05
0.0282445
0.00129903
0.00677691
0.000499454
0.000762644
0.00476347
0.00022037
0.000408848
0.00720554
0.0071513
0.00045931
0.00756822
0.00690325
0.00672565
0.00062296
0.00013462
0.000419921
0.00532363
6.75451e-05
0.024714
0.0206132
0.000903195
0.00165748
0.00533737
0.000102893
0.0248343
0.00132133
0.0214895
0.00057539
0.00673057
0.000484723
0.00332754
0.00282979
0.0270421
0.00129358
0.00118883
0.0142393
5.08045e-05
0.0181697
0.00672677
0.000437281
9.26221e-05
0.000220797
0.030932
0.0223662
0.000729252
0.00028618
0.000218914
0.00100202
0.00106394
0.00385495
0.000780909
7.08687e-05
0.00674371
4.29492e-05
0.00168131
0.0048629
0.000132376
0.0285638
0.0309813
4.60322e-05
4.42543e-05
0.00103642
0.000415662
0.00675378
0.000308783
0.00681332
0.0141798
5.77423e-05
0.000523594
0.000405732
0.00057711
0.00185141
0.000570843
0.00685246
0.00742895
0.00224046
0.0191959
0.00581815
0.00411238
0.00232888
0.00973657
0.00091053
0.0248322
5.20708e-05
0.000762416
0.00121444
0.00281707
0.000821232
0.000502962
0.0128617
3.29612e-05
0.00827368
0.000936471
0.000312332
0.00123676
0.00678708
0.00621727
0.0068277
0.00677601
4.21603e-05
0.00102422
0.000114965
0.00262003
0.0164041
0.00134241
0.00102959
0.000960196
0.00456373
0.000537055
3.26163e-05
0.00675761
0.006466
0.000765614
0.0135124
0.00674854
0.00149303
3.11829e-05
0.00674852
0.00674592
0.0177163
0.00187817
4.05551e-05
0.000498228
0.00674898
0.000392301
0.000511159
0.00678345
0.0269859
0.00226748
0.000379629
5.69448e-05
0.0208952
0.000687477
0.0228918
0.000552475
0.00686759
0.00109031
0.0153643
0.00115817
6.07491e-05
0.000702325
0.000894318
0.0214545
0.00278393
0.00657269
0.00754797
0.00438009
0.0137471
0.0261083
0.00682135
0.000234596
5.55892e-05
0.000338157
0.000728458
0.000424573
0.000711613
0.000130843
0.00120032
0.000621132
0.00074446
0.00492555
0.000786373
0.000495363
0.00539162
0.00167763
3.95515e-05
4.66841e-05
0.0139582
0.000853433
0.00673025
0.0110516
0.000183825
0.0244286
0.000552316
0.0194067
4.27326e-05
0.00240819
0.000405395
0.0108359
0.00182546
0.000506184
0.00953345
0.0314137
4.37415e-05
0.00678203
0.00691383
0.000603909
0.0261428
0.00464476
0.0133611
0.000791568
0.00682045
0.00672585
0.0263465
0.00142765
0.000155549
0.000691901
0.00111779
0.0235243
0.000128244
0.000502046
0.00933764
0.00467814
0.000710722
0.000403178
0.000634525
0.000343817
0.000665264
0.0053298
0.0143829
0.0127965
0.0296468
0.000147867
0.00246331
0.00039089
0.000427833
0.00937124
0.00118762
0.00495063
0.000362556
0.000884208
0.00675137
3.67001e-05
0.000447921
0.00108937
0.0197805
0.0121171
3.42063e-05
0.000410741
3.33489e-05
0.00256311
0.00672865
0.000382265
0.00227817
0.0185453
0.0160356
0.00673025
0.000837985
0.00370855
0.00676077
0.0150504
7.64063e-05
0.0140457
0.00258003
0.000570631
0.00675413
0.00892059
0.00411626
0.000631436
0.0214594
0.00300326
0.0207315
0.00117581
9.22732e-05
0.00278783
0.0259271
0.000529523
0.00679449
0.0156907
0.000272727
0.00300506
0.000476074
0.000761366
0.00674098
0.0203841
0.0167343
0.000322418
0.0115384
0.0203999
0.000120421
0.00656311
0.0218947
0.000646822
0.0189143
0.00674674
0.00129681
0.000335572
0.00059609
0.00103096
9.55795e-05
0.000739553
6.81181e-05
0.00109074
0.000365785
0.020454
0.000157037
0.00263028
0.00598435
0.00116408
0.000678459
0.000257455
4.39591e-05
0.00035412
0.00428761
0.000156502
0.00101944
0.000369795
0.00037287
0.000199895
0.000123279
0.0153815
0.000264175
0.00429119
0.000818191
0.0184452
0.000500262
0.00676205
0.0103074
0.000384171
0.00071054
0.00632862
0.027322
0.0190898
0.000430764
4.24601e-05
7.91371e-05
0.0016963
0.0110965
0.000377597
0.0340101
0.00172037
0.0234706
0.0161857
0.00494498
0.000566232
0.000630785
0.000452221
0.000739651
0.022285
0.00672635
0.0178295
0.00215212
0.0166116
0.00486488
0.00156233
0.000238484
0.001176
0.00388669
0.000580136
5.05481e-05
0.000944985
9.02025e-05
0.014486
0.000761814
0.00451685
0.00678509
0.00661484
0.000242278
0.000718113
4.02827e-05
0.000377129
0.000586059
0.00118864
0.00995868
0.00147431
5.31307e-05
9.79037e-05
0.0067609
0.000665424
0.0202494
5.0785e-05
0.0279617
0.0133561
0.00202385
4.10636e-05
0.024325
0.0279657
0.00672571
0.00461309
0.000926108
0.000449137
0.0205742
0.00694833
0.000406234
0.000650076
0.00515064
0.00278457
0.0325414
0.00476643
0.00873487
0.00254741
0.00110403
0.015706
0.00674856
0.00176755
0.0214772
0.000959965
0.000867861
0.000532881
0.00999685
2.61365e-05
0.0189561
0.0273812
0.0119843
0.0176617
0.00129037
0.00640579
0.00043273
0.000355522
0.00100224
0.0132436
0.001003
0.00126913
0.00232065
0.00100778
0.0101874
0.000412584
0.0252136
3.43127e-05
0.000351381
0.00308004
0.000761291
0.00124842
0.00675737
3.83117e-05
0.00204657
0.0144875
0.0239172
0.000928883
0.0278056
0.000392159
0.000877984
0.0151033
0.00676002
8.62923e-05
0.0109798
0.00671692
0.000431605
0.00050275
0.000101831
0.0252925
0.0017827
0.000124562
0.000972502
0.00672769
0.00103822
0.00141477
0.000948057
5.16494e-05
4.0128e-05
0.00416428
0.0033555
0.000116958
0.0137246
0.00103551
0.000552983
0.00851634
0.022124
0.000103869
0.00673684
0.00119009
0.0119166
0.00827524
0.000318536
0.0109871
0.00315995
0.00135909
0.0144412
0.0235257
0.026795
0.00126877
0.00170685
0.000655564
0.000170669
0.000128759
0.0283403
0.000263604
0.0229864
0.000786125
0.000135864
0.0236907
8.37609e-05
0.0248128
0.000183836
0.000430455
0.0167732
0.0259167
0.00466222
0.000313579
0.000271236
3.96918e-05
0.00672851
0.00263788
0.0010964
0.00248253
0.000764884
0.00296669
0.00587004
0.0166508
0.025937
0.000355302
0.000387332
0.000890311
0.000968046
0.000670099
0.00315038
0.0037991
0.00246629
0.0247791
0.0165684
0.00110412
0.0222264
0.00201017
0.000898198
0.00674698
0.0068269
0.00623757
8.01877e-05
0.000120306
5.30792e-05
0.000139808
0.000632201
7.64365e-05
0.00165902
0.00674627
0.00154649
0.000227276
0.000289855
0.00910934
4.11137e-05
0.0067281
0.000328908
0.000774693
0.000757027
0.000124283
0.000960158
0.000928584
0.00532075
0.00336957
0.00672637
0.00320841
0.00479732
0.00066337
0.00629844
0.000428328
0.0050446
0.000537447
0.0237881
0.0172174
0.00674702
0.0142371
0.00679271
0.00491282
0.000181767
0.0237542
0.00393034
0.0274795
0.0138073
0.000207745
0.00434818
0.00115071
4.03264e-05
0.000115212
0.00764934
0.00899662
0.00606489
0.0202983
0.00051851
0.0135794
0.000395539
0.0033817
0.000169366
0.000366473
0.0031411
0.00111506
0.00675758
3.33894e-05
0.000106415
0.00362107
0.000504612
6.36528e-05
0.000327399
0.000720009
0.0117464
0.00683207
0.00586216
0.000506257
0.000511749
0.000697107
0.00675732
0.00352808
0.00674899
0.000887051
0.00100448
0.00531712
3.64726e-05
0.0269037
0.000608864
0.0020797
0.000517325
0.0142503
0.00681333
0.0115311
0.000285446
0.0146837
0.000954588
6.60187e-05
0.00481453
0.0194481
0.000183845
0.00674757
0.00672595
0.00147301
3.82092e-05
0.00672604
0.00607795
0.00155897
0.00602354
0.000560882
0.0179453
8.54821e-05
0.00693792
0.00670159
0.0175676
0.0139949
0.0212108
0.00287148
0.00865455
0.00291804
0.000333538
0.000162739
0.00460439
0.00132207
0.000476153
0.00336344
0.00107425
0.000719607
0.000370562
9.85308e-05
0.0209672
3.66468e-05
0.00168582
0.0207857
0.00684974
0.00102427
0.000970825
0.000268457
0.0209044
0.0024359
0.0194046
0.00652106
0.00283307
0.000421453
0.0018105
0.0267449
0.00653754
0.00845675
0.0139181
0.000429687
0.000181853
0.000666248
0.000617476
0.000264985
0.0129401
0.000831278
0.000282322
0.00512837
0.00672992
0.000311975
0.0005324
0.00476497
0.000125953
0.00674191
0.00425356
0.00298171
0.0116814
0.000102431
0.000596448
0.000529524
0.00168014
0.0111385
0.000166848
0.000508922
0.00251171
0.00333218
0.0192277
8.26973e-05
0.00675845
0.0019
0.00157168
0.00677094
0.0242547
0.00114005
0.00190173
0.00250656
0.000323296
0.00362388
0.00224096
0.00385119
0.000943521
0.0214966
0.0167863
0.000730027
0.00011132
0.0201474
0.000520113
0.00103416
0.011045
0.000126335
0.0278184
0.000505646
0.00672559
0.00163539
0.00195815
0.00640498
0.000785518
0.000797182
0.00123596
0.000246789
0.000985214
0.000112134
0.000845129
7.53104e-05
0.000981389
0.00132718
0.00100764
0.00025657
0.0264617
0.0135558
0.00315843
0.000654134
0.00672885
0.000955991
0.00391232
0.0022993
0.00349907
0.000475476
0.000382323
0.000161988
0.0139003
0.0152004
0.00203199
0.0322006
0.000289698
0.00290766
0.0025705
0.00135421
3.69691e-05
0.00114296
0.000775617
0.00130645
0.000910659
0.00965294
0.00149536
0.00933904
0.0105515
0.00595119
0.0242691
0.0263883
0.00043258
0.0283915
0.00140911
0.000831431
0.000226444
0.00153614
0.000814488
0.000104463
0.000526886
0.000325903
0.00675013
0.0109328
0.000403934
0.000587742
0.0144516
0.000462596
0.000394204
0.00120827
0.00383933
0.00144474
0.00834312
0.00499938
0.000343821
0.000410875
0.00370039
0.000809741
0.0129005
0.0100401
0.00020843
0.000215644
0.0154365
0.00904935
0.00726685
0.0020118
0.00246018
0.000652748
4.76381e-05
0.000133991
0.000457507
0.000248666
0.00228387
0.000505733
0.00246826
0.000124617
0.00184457
0.000178734
0.000954609
0.000117252
0.00113533
0.0191256
0.000463041
0.00431086
0.00201888
0.00130349
0.0115138
0.00505656
0.008224
0.0151673
0.000250644
0.000655559
0.00933994
0.022064
0.00492101
0.00032756
0.00451482
0.00169992
3.71902e-05
0.00019948
0.0249984
0.0285183
0.0163489
0.00294348
0.000999053
0.00374854
0.000313877
0.017798
0.00830167
0.00258256
0.00119062
0.00023308
0.00201426
0.00154643
0.00330152
0.0154382
0.00297845
2.87625e-05
0.0305001
0.000491765
0.0191339
0.00273757
0.00674653
0.000181727
0.000671638
0.00503638
0.0142043
0.0303237
0.00675521
0.000108624
0.000125975
0.000406625
0.000263374
0.000518722
0.00024719
0.00491521
0.000445973
0.000308461
0.00853816
0.0118422
0.00316992
0.000218408
0.0108016
0.0138693
0.000369666
0.0267042
0.00198568
0.000441559
0.000141551
0.00626209
0.00141074
0.00297818
0.0286588
0.000101803
0.0172097
0.00112974
0.025671
0.0137758
0.0067573
0.00057665
0.00064119
0.00675558
3.4195e-05
0.0307351
0.013994
0.000686094
3.54896e-05
0.0044429
0.00145528
0.00771171
0.0143267
0.0190743
0.00166625
0.00412481
0.00033682
0.000767931
0.00676003
0.00900427
0.00150703
0.00672498
0.00536415
2.34641e-05
7.93628e-05
0.00139215
0.0241055
0.00674283
0.0172442
0.000133731
0.0106532
0.00190104
0.00673842
0.000519495
0.00029545
0.0181857
0.000289502
0.00128121
0.000416576
0.000539141
0.000102148
0.000544075
0.000896024
0.00688103
0.027504
0.000914339
0.00695855
0.000875969
0.00678235
0.00707
0.00360553
0.0212381
0.0295393
0.0207504
0.0247764
0.0120205
0.00102889
0.00523381
0.0148306
0.0280289
0.0022871
0.0114806
0.00144415
0.00032073
0.0111141
0.00903784
0.0171706
0.00366982
0.000321482
0.000194405
0.00394799
0.000945077
0.00926543
0.00185519
0.000644189
0.00185272
0.00192042
0.00673255
0.000173392
0.00091893
0.00253365
0.0147763
0.00168477
0.000296715
0.00669421
0.0105465
0.00182035
0.00675246
0.00118041
0.0127219
0.00945684
0.0129442
0.00166113
0.0111391
0.00673278
0.0253845
3.82622e-05
0.00340725
0.000193042
0.00040908
0.000830778
0.000191014
0.000207502
0.000327921
0.00145506
9.87809e-05
0.00678964
0.00244408
0.00676661
0.00674691
0.00359035
0.002651
4.50475e-05
0.00811963
4.35709e-05
0.000426507
0.00151457
0.000846157
0.000146525
0.00253819
0.000852833
0.00402309
0.0145985
0.00121229
0.0018387
0.000932702
0.00535004
0.00129115
0.00011451
0.00104299
0.00151603
0.00673147
0.00681708
0.00290604
0.000737383
0.000115653
0.00227569
0.000510203
0.000245844
0.00335727
0.0144166
0.00117851
3.84795e-05
0.0043765
0.00174252
0.00669825
0.028221
0.0189192
0.00286713
0.000916607
0.0166752
0.00675112
0.00676231
0.000756869
0.0174183
0.0125801
0.00287739
0.000430312
0.00674649
0.0245334
0.000191032
0.00169357
0.0280688
0.000265584
0.000334633
0.0313687
0.000109078
0.00430665
0.000624834
0.00672492
0.0141469
0.00672983
0.00114089
0.00672479
0.000485253
0.00672798
0.00534254
0.000911491
0.000721136
0.000490815
0.00174447
0.000332754
0.000157356
0.000267099
0.00557421
0.0259073
0.00139459
0.00674663
0.000130349
0.00138501
0.000311826
4.16709e-05
0.00564125
0.0010193
0.00226928
0.00676858
0.0175067
0.00261058
0.0265995
0.00157948
3.99029e-05
0.00675755
0.000402817
0.0001567
0.000445251
0.00103741
0.0194469
0.00086697
0.000948289
0.000665816
0.0278474
0.000519388
0.000574896
0.000832656
0.00130186
3.34264e-05
0.000267066
3.86322e-05
0.000430573
0.000147427
2.93422e-05
0.00142889
0.000446866
0.00111513
0.0125156
4.74618e-05
0.0296948
0.00120961
0.000595933
0.000567121
0.000368397
0.00687896
0.000114954
0.000924
0.00109936
0.000259446
0.000524008
0.0107431
0.0262795
0.000180053
0.00193288
0.00410061
0.0190896
0.0258001
0.00413617
0.00131153
0.00674751
0.00349651
0.00057186
3.53829e-05
0.00029602
0.0119131
0.0282576
0.00102439
0.000437417
0.0024707
0.00886639
0.00207844
0.00346843
0.00673641
0.00112203
0.00118383
0.00148815
0.000960143
0.000261476
0.0170232
4.01242e-05
0.0125855
0.0257741
0.0110689
0.00167495
0.00151013
0.000295194
0.00395033
0.00032886
0.00368211
4.44415e-05
0.00672911
0.00694427
0.000252368
0.00478549
8.44974e-05
0.00101374
0.0183362
0.00163319
0.0271043
4.22749e-05
0.0207369
0.0034699
0.000715987
0.0048584
0.000212925
0.0284151
3.25873e-05
0.000787993
0.00796079
0.0122481
0.0069517
0.0119108
0.00109211
0.00674094
0.00675519
7.89892e-05
6.81245e-05
0.00690122
0.00576107
0.0156008
0.00163582
6.57972e-05
0.0026749
0.00262724
4.19446e-05
0.00345004
0.00264362
0.00359522
0.00014475
0.00675992
0.000396966
0.000527087
0.000422907
0.00116819
0.000169251
0.00119321
4.03715e-05
0.0177192
3.73119e-05
0.000873523
0.0253883
0.00119524
0.000170531
0.00198886
3.67812e-05
0.000376039
0.00149562
5.47799e-05
0.0219909
0.000762608
0.00674604
0.000249654
4.18528e-05
0.0208204
0.0151099
0.000483487
8.80386e-05
0.0103083
0.0094246
0.00305075
0.00713539
8.58552e-05
0.00042978
0.0257129
4.26818e-05
0.000253743
0.0128158
0.00042507
0.000767125
0.0134378
0.00357899
0.003903
2.79395e-05
3.94181e-05
0.00055362
0.00108261
0.0137837
0.0260489
0.00339992
0.00237737
0.013137
0.00672948
0.015633
0.030062
0.0214511
0.000454952
0.000439508
4.05992e-05
0.0203557
0.00681062
0.00672761
0.000767075
0.000541648
0.0152025
0.0255747
3.82472e-05
0.0277541
0.000939104
0.00621948
0.0155756
0.00244524
0.000115011
0.000142097
0.0134579
7.57351e-05
0.00254604
0.0219591
0.000943338
0.000182753
0.00351793
0.0194729
0.0282847
0.00431286
0.003853
0.00301049
0.00305916
4.33002e-05
0.0275314
0.000279356
0.0254333
0.000623429
0.0045642
3.36771e-05
0.00147815
0.000726386
8.327e-05
0.00674874
0.000518007
0.00949427
0.000784689
0.000978952
0.00296435
0.00239442
0.0250604
0.000319199
0.0179746
0.0113771
0.0280877
0.023829
0.00685909
0.0146098
0.00113728
0.0238442
0.00551653
0.000703694
0.0197849
0.000591794
0.0291317
0.0284176
0.00120277
5.34249e-05
0.00680484
0.001458
4.21974e-05
0.000364877
0.00676151
0.00033912
0.00672785
0.00598457
0.000260358
0.00676637
0.00393237
0.00862802
5.84848e-05
0.00086872
0.00689087
0.000124282
0.00608982
4.20715e-05
0.00100985
0.000488647
0.000595421
0.000166426
0.0029783
5.02328e-05
0.00102877
0.029591
0.00100139
0.00115818
4.50616e-05
0.0165143
0.00123614
0.00735111
0.00145811
0.000463894
0.0043802
0.0007904
7.34381e-05
0.000369577
0.0264436
0.00672956
0.0013072
0.000827355
0.00049529
0.00014924
0.00577928
2.51569e-05
4.60712e-05
0.000107872
0.00684624
0.000375911
0.000102276
0.00635079
0.00685784
0.00064514
4.25251e-05
0.00478573
0.00154023
0.000140965
4.78568e-05
0.000936836
0.0122836
0.00372052
0.00642536
0.000551724
0.000809398
0.00253516
0.000931648
0.000855181
0.000450772
0.0011209
0.000153458
0.00160343
0.000725103
0.00136415
0.00309442
0.00176578
0.000826075
0.000470357
0.00392017
0.00158893
0.00220321
4.55657e-05
0.00819422
0.000922014
0.00692707
0.000847953
4.25708e-05
0.00103333
0.00309779
0.00393549
0.000105432
0.00685247
4.37156e-05
0.00289346
0.000134651
0.006779
0.000992726
9.16305e-05
0.000934246
0.000211186
0.0011345
0.0273861
0.000618179
0.0067404
0.00674536
0.0031947
0.0223355
0.00319633
4.6141e-05
0.000275318
4.94075e-05
0.00678303
0.00166706
4.64631e-05
0.000727064
0.00257637
0.000179797
0.000104041
0.0053642
4.26947e-05
0.00679714
4.55126e-05
0.000144518
0.0258082
0.00107302
0.000189363
0.00674302
4.46025e-05
0.00173481
0.0010315
0.0206338
0.0268114
0.0108004
4.84387e-05
0.000542607
0.000852829
0.00672865
0.00233251
0.0010721
0.000845833
4.96073e-05
0.000243374
0.00519469
0.000517439
0.00366398
0.000625342
0.000574941
0.00145513
0.00138456
0.00676145
0.000936231
0.000757049
0.00131811
0.00130534
0.00213886
0.000142409
0.000748857
6.57222e-05
0.00239046
0.0035508
3.24286e-05
4.61241e-05
0.0169294
0.00037713
5.0761e-05
0.0297955
0.00673996
0.00329189
0.0013903
0.000554347
4.23917e-05
0.00121704
0.000100929
0.00132301
0.00159703
0.00344672
0.0101246
0.000470292
0.000214215
0.00613781
0.00148856
0.0171826
0.00057007
0.00013025
0.00132178
0.000468912
4.89493e-05
0.00582494
0.000483536
0.00621795
0.000767354
0.00220161
0.00662194
5.98387e-05
0.000616661
0.00386258
0.000111231
0.000466543
0.00298871
0.0136667
0.0144668
0.000522329
0.0118449
0.000147518
0.0136559
0.000901097
0.000140465
0.0144814
0.000231771
0.000479146
9.65397e-05
0.00109226
0.00178287
0.006732
0.00672657
3.52256e-05