/*--------------------------------*- C++ -*----------------------------------*\
| =========                 |                                                 |
| \\      /  F ield         | OpenFOAM: The Open Source CFD Toolbox           |
|  \\    /   O peration     | Version:  v2012                                 |
|   \\  /    A nd           | Website:  www.openfoam.com                      |
|    \\/     M anipulation  |                                                 |
\*---------------------------------------------------------------------------*/
FoamFile
{
    version     2.0;
    format      ascii;
    class       volScalarField;
    location    "200";
    object      ddt0(epsilon);
}
// * * * * * * * * * * * * * * * * * * * * * * * * * * * * * * * * * * * * * //

dimensions      [0 2 -4 0 0 0 0];


internalField   nonuniform List<scalar> 
14033
(
-1.24199e-05
0.000126116
-8.32006e-12
-3.0394e-12
2.68539e-12
-8.75941e-11
-2.2607e-07
6.97042e-11
3.03429e-11
0.000134818
-1.59708e-09
-3.06853e-10
-4.12465e-11
-4.14632e-11
1.03103e-12
-1.75064e-10
1.14098e-11
0.00018659
-5.52858e-12
4.52513e-11
-1.18686e-10
-3.69667e-10
-2.34837e-09
5.90022e-13
-2.10438e-09
-4.00058e-12
-3.96938e-09
-1.24975e-09
-7.7893e-06
2.55293e-06
7.89695e-11
1.39974e-10
-2.04585e-08
2.88315e-10
2.98441e-05
-9.6862e-12
3.4981e-05
8.87228e-05
2.66737e-12
-6.02962e-11
-5.62382e-05
-2.75049e-11
-4.93834e-12
-1.01977e-12
1.60271e-12
1.01724e-11
-1.04464e-05
-9.2333e-11
-1.72167e-08
1.33187e-05
4.30571e-11
-2.05407e-12
0.000158165
5.0964e-05
-2.08211e-11
-1.8983e-11
-4.0901e-05
0.000369819
2.35644e-10
5.88412e-11
9.0465e-10
2.85643e-05
-4.53027e-10
-3.87029e-12
-1.56538e-12
4.05777e-13
-8.80246e-06
1.72669e-09
4.13766e-11
1.88215e-11
-4.38284e-13
7.71398e-12
-8.78787e-06
-1.42839e-11
1.78858e-10
-5.58212e-12
4.52452e-11
-4.5179e-11
-2.81036e-05
7.26926e-07
-1.2069e-11
-1.54902e-05
0.000155919
2.4163e-11
-1.63518e-12
1.93894e-12
-1.93488e-11
3.53485e-05
-2.17242e-05
1.04168e-11
4.07183e-14
-9.81121e-13
8.70941e-11
0.000187173
-1.25976e-10
4.98716e-08
1.12965e-10
-1.2789e-11
2.13168e-05
-1.78682e-12
5.53893e-12
-1.13301e-10
-4.11488e-11
1.81114e-10
-1.17163e-05
3.07447e-08
-2.54169e-05
8.05639e-12
3.92528e-11
-5.87461e-12
-4.67486e-06
-6.86356e-11
-1.48203e-12
-1.06715e-07
-1.10342e-10
5.22294e-11
-7.82188e-06
2.70879e-12
-2.80713e-05
-1.70245e-08
1.67267e-12
2.21383e-10
1.71519e-06
-1.43219e-12
0.000152207
-7.34629e-11
-4.07467e-13
-2.1064e-08
1.41889e-05
4.34006e-11
-8.38127e-06
-1.43899e-12
2.1593e-12
-1.04471e-06
-6.92903e-06
1.50524e-10
-1.58309e-08
-3.77406e-12
2.34027e-10
8.49123e-10
3.20247e-10
-0.000101092
1.57104e-10
-1.67783e-10
-1.20632e-05
-5.99172e-10
-1.59095e-12
-1.3708e-11
3.53087e-05
-1.22267e-05
-4.73098e-08
2.91176e-10
-9.02815e-13
-1.37748e-09
-6.13478e-11
6.86837e-06
1.35265e-10
-4.5528e-12
-9.17318e-11
1.14266e-12
2.01887e-11
-6.21172e-09
-4.78566e-06
9.31107e-12
2.38842e-10
4.6376e-12
1.613e-10
1.1665e-10
9.03486e-05
-7.04386e-11
-2.26477e-10
-1.91311e-08
-3.65582e-10
-0.000170141
-3.96733e-12
-2.56665e-11
2.96083e-08
-0.000124976
-2.8802e-10
-1.70376e-10
-1.3616e-06
-0.000157848
4.89019e-12
2.36425e-11
-7.24556e-12
-2.10089e-05
2.25258e-05
1.03607e-11
5.00705e-05
-1.50991e-05
3.10644e-05
7.57824e-11
-2.8135e-10
-7.05616e-11
0.000133132
-1.6286e-05
-4.03414e-10
-3.48055e-05
3.36862e-11
-1.0503e-11
-4.03269e-11
5.42338e-11
-7.3784e-13
-1.84067e-06
1.7965e-10
-7.88262e-13
1.97245e-10
-4.55233e-05
-3.2032e-11
2.39779e-06
4.0164e-05
-4.24605e-05
-5.99453e-05
0.000172737
1.68988e-12
2.19681e-11
1.18844e-15
-3.98446e-08
-1.08366e-11
4.34481e-09
3.0025e-11
1.65854e-12
-4.60338e-12
-1.55001e-11
-4.19366e-11
1.42522e-09
-9.06031e-10
1.73031e-11
-7.19523e-13
-1.52342e-11
-1.41612e-12
2.78288e-08
8.06669e-11
5.86514e-12
-4.29993e-07
2.43874e-05
-1.9349e-08
-8.2336e-12
-3.79066e-12
-1.04291e-11
6.61742e-07
4.03938e-11
5.37425e-12
-1.38338e-12
4.53499e-11
5.48574e-14
-2.83873e-05
-0.000140604
-2.83052e-11
4.51762e-10
-1.3511e-11
-2.50055e-05
3.72371e-11
-8.28034e-05
-1.07751e-11
1.45256e-05
-5.9808e-12
-3.06103e-11
2.18274e-11
-6.73229e-05
-8.03808e-12
5.28617e-05
-9.33625e-07
-2.21136e-09
-1.90629e-10
-6.49923e-07
5.97184e-11
3.91455e-07
-1.99307e-07
-3.26043e-05
-3.2571e-11
2.34786e-05
-7.44e-13
1.25113e-10
-4.44973e-05
-3.17415e-13
-1.16059e-12
-1.69684e-09
-3.45369e-11
-7.08597e-05
-2.75303e-08
-1.1102e-11
-1.00965e-06
-1.28499e-10
-2.33368e-05
-1.32542e-05
-1.10792e-05
2.08825e-11
0.000165277
4.27632e-05
3.80405e-12
-1.98572e-10
6.90057e-11
1.94187e-05
-4.67973e-11
-2.14137e-12
-5.12712e-12
-8.49541e-12
-2.35363e-11
-5.89459e-12
-7.01717e-12
-1.01652e-05
5.53573e-06
5.42287e-11
-4.13777e-09
-4.50831e-08
-2.95966e-12
1.67897e-11
-2.37237e-05
6.60756e-11
-3.27875e-09
-5.87965e-12
-4.91153e-09
3.654e-10
-4.95646e-06
-1.47318e-08
4.78586e-12
5.71588e-11
-2.88801e-10
-8.15187e-05
0.000111145
3.08291e-09
1.472e-10
-7.80425e-10
3.17179e-07
8.21256e-06
1.05138e-10
-2.85227e-10
-2.04734e-05
-2.67152e-10
-2.90482e-10
-7.96761e-05
9.39864e-05
2.00055e-10
6.49601e-13
2.17963e-06
-1.62298e-08
-1.68866e-11
1.70633e-05
3.95285e-11
-1.5264e-05
2.8739e-10
-2.26031e-12
8.07359e-11
-1.55362e-09
-1.35254e-09
-1.22059e-10
-7.13249e-12
-2.843e-05
6.09344e-09
-8.17657e-12
-7.86291e-11
-2.02534e-05
-3.32012e-10
-1.3683e-11
1.70799e-12
6.38424e-12
2.90914e-05
1.45422e-10
-1.36627e-10
-5.55918e-11
1.46557e-09
8.27664e-07
-1.46927e-11
6.58489e-13
2.83445e-08
-4.03266e-11
4.48346e-11
-1.13672e-10
-1.13269e-12
1.42885e-09
-2.8964e-12
-1.33879e-10
7.39081e-11
-2.71423e-09
-0.000129411
-9.4996e-11
5.60518e-11
-1.84564e-06
-2.9788e-13
-4.37945e-11
3.40839e-08
-2.79029e-11
1.95586e-07
1.51428e-06
-8.88388e-12
-9.36889e-06
5.89607e-12
-1.60231e-10
3.01782e-10
2.61884e-11
-6.15656e-05
-6.56802e-11
1.41273e-11
-1.00373e-06
-2.61721e-05
2.45066e-06
-6.879e-05
1.29253e-09
1.1784e-10
-8.49802e-09
-4.51e-12
-6.62031e-12
-1.10994e-10
5.18329e-09
-4.02477e-12
2.54599e-10
2.12158e-12
1.83097e-12
5.91991e-05
1.04411e-05
-6.65938e-06
-8.02802e-12
0.000310571
6.64363e-10
-8.61592e-12
7.28258e-09
3.75962e-11
-4.78843e-11
2.79531e-06
4.08145e-10
6.60335e-07
8.06702e-11
8.09633e-12
6.2871e-12
1.33824e-10
2.58431e-10
1.46488e-12
3.82862e-11
-2.29939e-11
-4.52633e-09
-5.33652e-11
-1.1732e-11
5.64191e-11
1.05286e-08
-8.44064e-12
-5.2198e-11
2.34622e-11
-1.34321e-07
-8.0471e-07
-6.66801e-05
3.81064e-12
-1.32073e-10
-7.05551e-12
2.47805e-12
-1.03347e-12
1.85088e-11
-2.48785e-05
-9.27272e-07
2.41843e-11
-2.70472e-05
-8.84897e-11
-1.04715e-11
-5.77947e-08
-1.32105e-10
1.0923e-06
-4.18914e-08
3.09874e-11
3.47321e-13
-1.05308e-10
-2.23613e-12
-4.49469e-06
-5.2734e-05
-3.07328e-05
-4.02085e-13
4.9919e-12
3.40714e-05
-6.15408e-12
2.45482e-11
-8.46432e-05
-1.17602e-10
2.48582e-11
1.46355e-11
-6.77273e-13
-1.46723e-09
-4.42311e-05
-2.75307e-11
-2.22451e-05
3.13299e-11
1.32821e-05
7.34541e-12
-2.23316e-05
4.02567e-11
-3.27212e-05
-1.61106e-05
2.11299e-11
0.000253786
-1.11466e-12
7.5936e-10
1.26969e-11
-1.94137e-11
0.000224935
4.17419e-05
-3.05242e-10
1.26208e-11
-1.98087e-11
-8.49213e-09
-9.53361e-05
1.31902e-10
2.39716e-07
4.78871e-11
-1.81818e-09
4.62355e-07
3.64951e-06
-7.36383e-09
3.93514e-13
-2.88721e-12
-2.47217e-05
6.53562e-12
4.30669e-09
-1.29407e-12
2.23882e-12
-2.3192e-05
-3.93472e-11
-1.40648e-11
1.1025e-10
-6.03104e-11
1.34215e-12
-3.79988e-05
-7.89537e-05
-5.62933e-12
1.86099e-06
-4.5009e-12
1.62795e-13
-4.73388e-12
-8.59721e-11
4.87673e-12
-8.69947e-11
5.6877e-11
-6.50861e-13
9.53218e-11
-1.64454e-11
2.87733e-05
1.12394e-13
-1.97456e-11
9.47942e-11
-7.32923e-12
6.35087e-12
7.77944e-12
-5.5468e-09
-5.32578e-09
-5.56182e-05
8.72539e-13
4.08677e-13
7.48426e-07
-1.03045e-10
-3.02966e-07
7.10791e-12
-9.36337e-05
-3.89398e-10
6.8997e-11
4.80997e-06
1.94468e-12
4.3817e-12
1.70113e-08
-7.18824e-09
1.57086e-12
-2.96902e-11
1.19028e-10
2.3789e-05
3.17332e-10
-1.79265e-05
2.152e-10
1.00242e-10
1.66648e-10
-1.77138e-11
1.65735e-06
1.33997e-10
4.44726e-12
1.88252e-11
-7.84625e-05
7.71234e-05
-8.48016e-05
5.49788e-12
-0.000113397
1.66027e-11
4.77296e-05
-2.47519e-06
2.24131e-11
2.0076e-05
1.42754e-10
9.75308e-12
-1.3979e-11
-1.04258e-11
-5.32801e-12
5.10886e-07
4.99842e-11
3.08501e-09
-5.55375e-12
-4.15058e-11
0.000135561
-4.58822e-11
-1.20198e-11
4.15787e-10
4.45056e-12
4.03047e-11
2.59881e-12
2.75193e-05
-1.856e-11
2.91131e-12
-1.53702e-11
-1.92125e-11
-3.86133e-10
-4.10383e-05
-1.34908e-11
-0.000245085
-5.11916e-06
5.98236e-06
5.30913e-10
3.28201e-07
9.35865e-09
1.77368e-08
4.06719e-11
-1.4143e-11
-3.12488e-05
-3.47296e-12
-2.43565e-11
-3.38899e-11
4.3768e-05
-0.000111075
-0.000125116
-9.62604e-13
2.87325e-11
-8.83999e-12
3.5817e-11
1.81598e-10
6.60242e-07
1.91554e-10
-8.39578e-09
-3.33123e-10
-9.52529e-13
6.71522e-11
-1.29159e-12
1.39422e-06
-1.10317e-10
-3.91969e-05
1.1415e-12
1.44086e-11
8.90392e-09
-3.74511e-12
4.61393e-09
2.32602e-11
-8.85741e-10
-0.000215102
-1.93171e-08
-7.2401e-06
8.43245e-10
-1.78147e-12
-2.34118e-12
7.31269e-10
1.11141e-10
-8.73047e-09
-1.05044e-10
-2.86615e-11
-1.2905e-10
-4.10981e-07
-2.61851e-12
-3.49749e-11
0.00013689
1.10153e-12
1.23377e-12
6.7399e-12
-3.04557e-05
-7.03905e-07
2.20885e-11
0.000121635
7.86211e-10
3.58357e-05
-4.27836e-11
-8.35696e-12
9.13436e-10
0.00015549
4.61438e-06
-8.89827e-11
-2.63611e-11
-3.48697e-11
-1.47232e-11
-1.74264e-05
5.46747e-08
-1.04732e-10
0.000186552
-1.14766e-06
1.31061e-12
4.36689e-07
-5.85382e-05
9.42207e-13
-1.75446e-11
-8.34967e-06
3.3349e-10
5.63785e-12
-2.97133e-05
2.16116e-09
-1.1031e-05
2.33366e-10
1.17064e-07
1.67921e-06
-0.000130478
-1.30163e-05
-2.61986e-12
-4.80685e-12
2.63823e-05
2.66942e-09
9.17977e-10
-1.07006e-10
-1.52813e-10
6.0681e-11
-3.95646e-11
-4.37079e-05
2.93795e-10
-9.88639e-11
-3.43861e-06
2.10472e-12
-6.87052e-13
-3.18133e-12
0.000149207
3.65189e-10
1.7419e-10
6.6259e-13
-8.27025e-13
-1.47209e-10
8.09996e-10
-1.02663e-07
-2.77542e-10
-3.95181e-13
-9.7372e-06
-1.66854e-11
-7.33809e-08
9.25914e-11
-8.04934e-11
1.03226e-11
1.77502e-14
-2.33201e-06
-2.6318e-09
2.73512e-10
8.70367e-11
2.92561e-10
-0.000164736
-5.34054e-12
3.97331e-05
-9.57054e-10
2.24916e-05
3.1032e-10
4.55723e-10
-4.18527e-05
-9.31062e-05
-2.44996e-11
5.93579e-10
-1.04319e-12
-8.50863e-05
7.5673e-05
-2.16904e-09
-8.95496e-12
-8.88124e-12
1.19967e-10
3.43977e-10
-0.000151886
-2.56353e-12
-3.09981e-09
-2.49044e-05
2.58556e-05
-6.67455e-12
-2.34385e-07
1.70038e-07
-4.28168e-11
1.04181e-11
-1.20985e-11
4.36103e-06
-1.08908e-12
-7.79666e-11
-3.29296e-10
-5.22478e-13
-2.23065e-10
7.18251e-11
2.85407e-06
-2.89435e-11
6.76832e-11
2.22228e-05
7.30076e-06
-1.56473e-09
-1.58944e-11
-9.42666e-11
-2.60877e-12
-0.000113874
-8.39825e-11
1.11758e-12
-4.96694e-12
1.2215e-05
4.35332e-12
1.30742e-08
-3.32843e-11
3.1792e-05
2.40986e-07
4.1313e-10
-1.57087e-07
1.85943e-05
2.6651e-11
-2.62919e-08
1.74501e-05
8.3855e-08
2.49746e-06
2.3753e-10
-8.25097e-05
4.26388e-11
2.30083e-05
-1.25087e-07
-5.12668e-05
1.76356e-11
6.42735e-06
1.31411e-10
1.15427e-10
-8.07249e-11
3.67681e-11
-4.30952e-11
-1.00876e-10
4.04029e-11
7.29082e-11
-1.07145e-12
4.20937e-10
-5.43814e-07
2.63617e-11
3.50166e-09
-3.62237e-12
7.12076e-12
-5.51365e-11
1.59499e-07
2.26502e-10
2.01908e-10
-2.10525e-12
6.6342e-11
-4.22181e-08
1.70028e-12
3.97837e-09
4.21615e-05
1.5982e-11
-7.24902e-12
2.97266e-09
3.38403e-06
6.01231e-11
-1.08788e-05
2.34616e-12
-1.93005e-11
1.5663e-12
-2.34938e-13
3.61461e-05
-4.09175e-11
1.47122e-10
2.74376e-11
-1.48945e-12
1.59617e-11
3.30929e-13
-1.18446e-10
-1.84414e-12
-3.51731e-11
2.61759e-06
1.74825e-12
6.18898e-11
7.1775e-11
8.91116e-11
9.43993e-16
-5.88524e-10
1.85939e-11
1.03731e-06
3.63902e-11
-6.63856e-10
5.80244e-11
1.28561e-07
-4.15036e-11
1.06589e-08
-8.40841e-11
3.68909e-05
1.13104e-10
-8.66861e-13
1.20101e-11
9.62133e-07
1.05573e-10
1.78709e-10
6.03392e-08
1.97981e-05
1.95794e-05
-1.15579e-05
2.90101e-11
2.15771e-10
4.61777e-06
-2.73545e-11
-1.75444e-10
-0.000166873
-4.24633e-11
1.5793e-12
3.35412e-13
8.14518e-11
7.33217e-11
3.87136e-11
6.82663e-12
-4.70362e-11
1.43452e-10
2.9619e-13
-1.43345e-11
-6.5408e-11
2.08808e-05
8.49314e-13
-2.59439e-11
-2.46094e-05
7.83338e-05
7.5624e-10
-9.99499e-11
2.72009e-12
-0.000155125
-2.66029e-05
6.58645e-11
5.13801e-11
5.74948e-11
-2.52176e-11
3.43871e-06
-2.48128e-12
1.20104e-10
2.95155e-10
-2.92058e-10
7.45428e-12
-3.0621e-05
2.4375e-11
-7.39292e-13
-5.17958e-05
-1.51111e-08
7.95208e-11
6.63902e-05
-2.23589e-06
3.18226e-08
-2.02928e-11
3.03017e-09
-7.04253e-09
-1.31087e-12
-4.2069e-11
-1.79953e-06
-3.0289e-11
2.45977e-07
4.70364e-12
-7.12984e-11
-2.29136e-13
2.51434e-11
-1.15877e-11
-3.811e-10
5.71477e-09
3.19291e-06
3.46992e-11
-1.28206e-11
3.61073e-05
-1.93336e-11
5.89083e-12
3.03899e-08
-1.11893e-10
8.66818e-05
7.31324e-11
5.23818e-11
8.20568e-12
1.10005e-11
-1.79521e-05
1.78636e-11
-2.3608e-09
5.44907e-05
1.09361e-12
-1.9331e-06
-2.59602e-12
-8.70398e-11
-7.93558e-11
-4.4097e-11
-1.6353e-05
8.0437e-06
4.43622e-11
1.74341e-12
-1.56754e-10
-1.62376e-12
-3.45503e-11
3.30062e-12
-2.37819e-12
2.73648e-11
-0.000197036
-0.000103454
1.10897e-08
4.219e-05
-0.000106104
1.23469e-10
1.79734e-11
-1.44253e-12
-8.02387e-12
-6.34103e-11
9.28563e-11
-5.29459e-10
-7.75073e-11
-3.20958e-11
-1.39128e-05
1.97894e-11
-6.35758e-12
3.85456e-12
-2.83785e-12
-1.41382e-09
-2.68467e-11
4.16113e-10
-6.96786e-05
-2.73798e-11
-1.32521e-12
-2.59556e-12
-8.28364e-11
-9.37101e-11
-1.71934e-12
-2.25032e-10
4.31126e-05
6.28782e-05
2.0561e-12
-5.8184e-12
-1.85803e-07
1.01804e-06
-3.32069e-06
-1.35316e-10
1.81072e-10
-1.54564e-11
-1.38391e-10
-2.14756e-12
2.72199e-11
4.92084e-06
-1.1548e-12
6.55435e-11
-1.00523e-08
-9.51076e-10
-2.71034e-05
-9.37963e-05
-1.86194e-10
4.8432e-10
-2.12603e-10
1.21095e-10
4.51182e-06
-3.86206e-06
4.02303e-12
-4.18219e-08
2.09504e-11
1.25511e-12
-5.5737e-05
3.83417e-05
6.27666e-13
-1.36529e-10
5.59252e-12
-1.89937e-09
1.95669e-11
-3.97542e-11
1.37753e-12
-2.30629e-11
-4.89546e-07
9.28343e-11
-0.000224042
-2.47157e-10
-9.93642e-13
-1.43309e-12
-2.80362e-12
-1.27186e-05
2.56979e-06
9.26304e-11
-1.92638e-08
-1.25095e-06
-1.3038e-05
-1.26517e-10
-2.69441e-05
-3.01312e-08
6.84612e-12
-4.84255e-11
-9.93503e-11
4.13596e-11
-4.92368e-12
3.74213e-13
-2.99194e-11
-0.000117828
-1.56542e-05
-5.49437e-05
4.31846e-11
-9.8754e-13
2.42136e-05
2.11862e-10
-3.01325e-11
1.19233e-10
-4.33759e-11
7.0401e-11
-6.17562e-11
3.34547e-10
3.53291e-10
3.32958e-10
2.26324e-05
-6.99179e-11
-3.58526e-11
-1.45241e-10
3.83004e-11
1.69555e-07
-1.11464e-10
-1.38036e-11
6.136e-13
-1.28874e-10
-4.65864e-09
-1.16661e-11
-1.57082e-09
-5.05699e-12
8.51505e-12
8.37963e-06
-2.44723e-11
-4.75998e-12
-8.48253e-13
-6.66264e-05
-3.92644e-12
9.60395e-09
2.09697e-05
1.43663e-11
8.7684e-11
-3.03436e-11
-4.90067e-09
-2.29722e-09
0.000217004
3.41476e-08
-9.47184e-08
-2.11081e-10
-3.19773e-05
1.0956e-09
3.08638e-05
2.99941e-10
-4.54859e-11
-1.49808e-11
5.3062e-05
-2.15984e-08
-3.09019e-12
-3.02194e-11
-2.3377e-13
2.44808e-12
-4.76134e-05
7.16299e-10
0.000111468
3.99256e-10
-1.2541e-12
2.10144e-05
-4.65687e-12
-2.04168e-11
-2.14892e-05
-2.24512e-10
2.48211e-12
8.16664e-11
2.34396e-05
9.5774e-12
3.5299e-10
3.6797e-05
-1.59628e-12
-1.50945e-09
1.23534e-07
-4.45953e-07
9.72062e-11
3.54499e-11
-7.03609e-12
-4.03881e-11
3.16601e-11
1.4576e-12
-0.000104278
-8.74567e-12
6.93844e-13
1.69162e-07
2.1673e-11
-9.41839e-06
5.6013e-12
-1.9403e-11
-1.02453e-12
-1.02517e-11
-2.15241e-11
4.25191e-05
-4.22767e-14
-1.82323e-12
-1.43405e-12
-0.000153115
5.93314e-05
-5.62947e-13
-5.0072e-11
-1.59343e-12
-7.06157e-05
-3.50588e-09
3.89278e-14
4.77575e-12
-1.39175e-05
-4.87679e-05
6.94767e-08
3.07469e-10
2.94353e-10
9.15825e-11
6.64493e-12
-4.98035e-12
-5.62491e-13
-1.57349e-06
4.69696e-12
-1.43524e-08
-6.06895e-08
-1.53703e-10
5.98641e-12
1.5496e-11
-4.28514e-09
1.32476e-12
-8.66523e-12
-5.29562e-11
-9.50284e-05
-4.78966e-10
-2.6881e-12
-8.66756e-06
4.19474e-11
2.46749e-05
-7.11615e-11
-1.45135e-05
-6.43445e-13
2.19759e-05
-1.2656e-08
8.42804e-12
-3.11455e-11
5.24578e-05
1.41201e-11
-0.00010172
-5.74397e-12
-1.13489e-11
-6.56746e-05
7.53357e-13
2.61672e-12
7.23289e-12
-7.75243e-10
-3.41222e-06
-1.88356e-08
-1.37197e-05
2.07383e-12
1.23357e-10
-2.15609e-10
-6.38404e-05
-8.2624e-06
-9.22865e-05
-0.000113259
-8.31036e-11
-0.000191749
-3.50881e-11
-1.36058e-11
-7.84886e-13
7.12564e-08
-1.36887e-12
-4.897e-11
-3.84548e-07
-4.77539e-05
1.30145e-10
5.35201e-12
-2.28298e-10
2.48677e-11
-5.19837e-09
-7.35211e-13
2.11461e-13
2.3473e-12
-7.22715e-12
1.55469e-10
5.92494e-13
2.59525e-05
-2.66767e-12
3.8222e-11
-1.08435e-09
1.52439e-10
2.47902e-10
7.84983e-12
8.31844e-11
-1.83018e-05
-9.15863e-13
-6.12077e-06
-0.000105995
1.74757e-10
4.11505e-10
-5.41918e-08
-4.03584e-11
-0.000139662
2.58736e-05
7.71574e-09
1.6449e-05
-4.98721e-11
-1.60686e-09
-6.40006e-05
-3.00299e-11
2.51417e-11
9.79531e-11
-4.40368e-12
3.72493e-05
-2.58762e-05
5.07638e-11
-2.52573e-11
1.64662e-11
-2.27065e-12
-1.72043e-11
-3.10766e-11
-6.36884e-05
-1.26736e-12
-1.66381e-11
-3.4752e-07
-7.44335e-13
-1.32588e-10
8.1607e-08
3.17519e-10
1.91381e-05
-1.39493e-12
5.34575e-05
-7.5262e-11
3.48619e-06
2.41251e-05
2.32233e-05
-1.81834e-08
-5.72259e-11
1.41691e-05
-8.25374e-12
-9.35437e-09
-3.56247e-05
3.48357e-10
3.19984e-05
7.77051e-12
1.87701e-05
6.2587e-08
4.88828e-12
-1.16214e-06
2.16991e-07
-7.00098e-11
-1.53292e-05
2.2644e-11
5.25956e-12
3.76582e-12
-0.000103748
2.07748e-11
2.15373e-10
-3.33072e-08
3.61827e-10
-0.000125501
4.45612e-08
1.61126e-07
-1.08788e-10
6.97652e-11
9.52648e-11
1.51021e-12
-7.78927e-12
1.86183e-10
-3.64412e-08
-8.37078e-13
-1.17922e-10
-6.05614e-05
-1.21061e-12
2.34934e-05
7.99688e-06
1.81137e-11
1.95136e-07
-6.79899e-11
7.74832e-08
4.97346e-12
7.9932e-13
-3.82366e-11
8.2623e-05
-1.5959e-12
-1.14615e-11
1.79181e-08
-1.56722e-05
-1.57691e-10
-9.14597e-05
-8.8738e-09
4.13691e-09
-2.22715e-10
-2.07601e-10
4.42964e-10
2.9579e-06
3.66266e-05
9.20335e-13
-2.16104e-05
-1.98608e-10
-1.10581e-08
-0.000133382
-4.46696e-05
-3.63777e-11
-8.43365e-10
3.43965e-11
-1.98651e-10
-6.37142e-13
-2.10432e-05
-3.02307e-12
2.64656e-13
4.00538e-05
1.44376e-11
4.01167e-11
1.24346e-12
4.32931e-11
2.28464e-11
-5.719e-09
1.63889e-05
-1.11633e-05
2.45229e-06
2.21067e-10
-2.92008e-10
1.17142e-11
9.74902e-13
3.1516e-06
-5.20124e-12
-1.41636e-10
-1.55705e-11
6.68086e-12
7.2195e-13
-1.86501e-11
2.32137e-11
-1.10635e-10
-3.90702e-13
-4.72078e-10
-5.93523e-09
-5.81687e-05
-8.83162e-11
4.68649e-05
-1.96547e-08
2.60386e-06
3.92672e-10
3.21397e-05
-1.04764e-13
4.06318e-05
1.85399e-10
-1.2738e-05
-3.51548e-13
-4.61807e-12
-1.63013e-11
5.4688e-13
8.67694e-12
1.69585e-11
-1.80345e-05
-1.0835e-09
-1.98384e-05
0.000165181
-9.89393e-10
1.82247e-10
0.000107098
5.69682e-12
4.50155e-06
1.17945e-09
4.46349e-06
-6.94852e-12
5.27799e-11
-8.72215e-11
-1.23173e-08
5.77602e-15
-1.5183e-07
-4.00835e-12
-2.59582e-06
1.14194e-12
-6.36743e-05
-1.09605e-05
-1.5107e-10
-1.04274e-08
9.43669e-05
2.4411e-11
9.48151e-05
-1.31186e-10
-8.83972e-12
-7.58901e-11
2.72347e-10
1.00665e-12
-1.38943e-05
-3.84785e-05
-1.09802e-11
0.000149776
-1.12873e-08
-8.48315e-12
-3.16213e-09
-1.08949e-11
-1.68665e-09
5.56474e-13
3.55023e-05
1.66875e-11
-2.05907e-10
5.54685e-12
-2.92338e-12
1.09362e-08
-1.43328e-05
-7.59268e-05
2.4333e-12
1.37272e-13
3.12995e-05
-4.93578e-05
1.46612e-11
-2.65735e-05
1.11648e-10
-1.55379e-05
2.36444e-05
-4.13707e-10
-4.50214e-05
2.96141e-12
-3.36016e-11
1.22065e-10
-3.4207e-11
1.17042e-05
-0.000155316
3.24962e-12
6.42846e-05
-1.68196e-12
-9.36567e-11
2.06132e-05
1.6962e-12
6.66393e-11
-3.63988e-11
-5.48764e-05
4.75764e-06
6.60093e-11
7.54197e-11
1.33527e-05
0.000211529
6.9519e-12
-2.81996e-09
9.1216e-12
-4.81236e-13
-1.01004e-10
-2.1374e-10
-2.09047e-11
-1.29524e-07
3.23039e-10
7.77708e-08
-7.95807e-11
8.8321e-11
-9.19027e-09
-3.88299e-11
2.47696e-10
-0.000139482
-6.35673e-09
3.69197e-08
1.90166e-11
-7.86143e-09
-4.90912e-08
1.25525e-12
6.11118e-11
-3.48494e-12
4.34306e-11
-1.01774e-10
-6.03307e-11
-4.89363e-08
2.66583e-13
3.58362e-12
-3.51213e-12
-3.32309e-05
-3.75663e-12
2.7156e-10
-5.25027e-10
5.34402e-13
-1.07668e-12
-4.05854e-08
-1.4151e-10
-1.44294e-06
-9.18189e-11
2.30613e-10
-6.68818e-11
2.6453e-05
-3.31305e-05
-2.72698e-12
-4.39611e-05
-8.00991e-12
-1.82385e-11
-5.75735e-06
-1.42708e-11
3.0017e-06
5.93294e-06
8.20336e-12
-7.2622e-07
-8.97223e-11
-7.51303e-11
-2.41926e-12
-2.52123e-13
-8.28963e-12
2.29584e-12
-2.78928e-13
-1.29751e-06
7.08895e-11
-1.94905e-05
-6.00304e-12
-1.13181e-06
-1.53558e-08
-1.51325e-08
5.32051e-11
8.09914e-06
6.72139e-11
-5.423e-05
0.000121593
7.30172e-11
-2.71728e-05
-3.31134e-11
-3.56652e-05
-0.000131232
-4.9128e-10
1.4064e-08
-8.02501e-11
-6.32505e-09
-2.99313e-11
-7.24911e-05
-4.78729e-11
-1.75474e-11
-4.15446e-05
1.84483e-11
2.12303e-12
-2.66623e-05
-4.74933e-12
1.98468e-13
-9.67154e-12
-1.22112e-10
-3.40391e-09
2.6012e-10
-3.20995e-11
-4.47253e-07
-5.40185e-11
-6.25207e-06
-0.000162117
-2.19683e-12
3.44937e-05
-5.49373e-11
3.44627e-06
0.000120952
-6.69371e-12
1.37784e-12
-5.41689e-05
-9.43017e-07
-1.45987e-05
-4.25402e-05
2.56766e-11
1.92247e-12
-2.50825e-11
-5.15422e-09
3.55397e-11
9.73597e-07
2.36494e-11
5.18104e-11
2.39616e-11
1.14205e-05
-1.77473e-10
0.000117881
-6.60672e-11
-1.29617e-05
-2.86963e-11
2.59018e-10
-1.06692e-10
1.38162e-10
1.10511e-12
3.24721e-06
-7.77936e-12
-4.09786e-11
-5.44831e-05
7.87503e-12
4.13544e-12
-3.19122e-12
-2.22141e-10
-5.35128e-05
0.00013499
-1.02806e-11
-3.25202e-05
-1.08749e-10
-1.90075e-11
6.7475e-11
4.47782e-12
-5.1653e-05
2.18661e-05
-2.86882e-11
-0.000212888
-8.33992e-06
1.83098e-10
2.66295e-05
0.000113
-1.6519e-06
-6.44752e-11
1.15866e-11
2.69795e-11
5.31154e-13
-3.0007e-13
-2.86749e-05
-0.000259119
1.541e-10
-2.23285e-09
-3.75125e-11
-1.38208e-09
1.22746e-05
-4.49869e-11
-4.13795e-07
5.81004e-05
4.71139e-12
-9.74749e-05
-2.00747e-12
2.92225e-05
-2.28836e-11
3.41601e-10
-0.000235872
1.46542e-05
-2.62076e-12
-2.02064e-06
-4.94919e-12
1.49116e-06
1.33708e-10
4.97652e-11
0.000166354
2.77667e-12
8.39963e-09
-7.66729e-07
-4.5652e-09
-4.48816e-12
-7.53386e-11
-1.75998e-05
-1.22231e-07
-5.50059e-10
-5.42803e-11
-5.67116e-08
4.41017e-09
2.77501e-10
1.40713e-11
1.32521e-07
8.03472e-09
2.61607e-10
3.64758e-11
-1.73287e-08
2.48724e-05
-4.13487e-11
-1.81475e-08
7.0226e-13
7.28352e-12
4.24515e-05
-5.23447e-12
-1.20634e-10
0.000101518
-7.98348e-06
5.60283e-11
3.20901e-05
3.48285e-05
4.32694e-06
-4.44042e-12
-9.41285e-12
-1.59456e-11
4.54446e-09
2.05597e-09
-1.22932e-11
-1.99171e-05
-1.26479e-10
1.56565e-11
7.34906e-11
5.46625e-11
4.1516e-06
6.85212e-10
-2.56042e-10
-1.0772e-06
2.72617e-10
3.5725e-11
2.86985e-05
7.44792e-12
-7.20563e-11
-1.7314e-05
-1.92745e-13
3.62133e-05
3.72849e-11
1.04601e-10
-5.47821e-12
-1.11693e-11
2.17785e-08
-8.99904e-12
1.68817e-07
-3.58283e-09
-4.20621e-05
-1.49335e-13
2.25891e-10
-4.9911e-06
1.55121e-11
-1.01695e-10
-1.64172e-12
1.13832e-10
5.74886e-11
-2.74281e-11
1.62988e-10
4.76881e-05
-9.98508e-07
-0.000142077
5.44653e-12
2.47286e-11
2.45537e-08
1.34921e-11
4.52439e-12
-9.94075e-12
-6.11065e-11
-3.63826e-12
-4.11705e-12
-1.54211e-11
3.84314e-11
2.26057e-06
9.72477e-12
3.65316e-09
-1.64146e-11
-8.17227e-05
2.08618e-06
-4.2829e-05
4.70841e-11
-3.27705e-11
-3.68462e-11
-9.62646e-06
2.42288e-11
-0.00012636
2.44008e-09
-6.96142e-11
-2.00468e-10
-1.37737e-11
7.60245e-13
8.8352e-12
1.2858e-05
-5.35409e-07
-8.13488e-13
-3.84147e-05
5.49181e-11
-1.49459e-05
-2.65112e-12
0.000152745
0.000133834
-1.67666e-10
-1.28912e-12
-9.49949e-11
-0.000244026
2.52565e-10
-8.03118e-11
-1.07188e-12
-2.06264e-10
1.24102e-08
-5.61376e-12
-1.72108e-05
1.8337e-09
-3.30088e-12
-2.77022e-11
-2.79834e-11
-1.68388e-06
3.15949e-09
5.72402e-11
-1.19336e-05
2.03555e-10
-9.33719e-11
7.03935e-05
-6.46669e-11
6.24521e-11
-1.36299e-11
5.85149e-11
6.88282e-09
-5.30585e-13
-4.20438e-06
-1.75822e-10
-3.64185e-10
-5.13848e-05
3.25667e-05
-1.26511e-10
-1.72917e-10
5.29047e-11
2.01506e-10
4.11015e-11
6.72287e-13
-6.41629e-07
5.33365e-07
1.58218e-10
1.50499e-11
-3.6938e-12
-2.70838e-07
1.07361e-05
0.000151471
5.16507e-11
-1.07125e-05
3.26321e-09
-2.52345e-07
-2.23435e-12
-1.10957e-06
2.41002e-05
-2.02996e-07
-1.68894e-10
-4.49693e-12
2.20103e-09
-1.11637e-12
-5.01952e-12
7.00489e-10
-0.00014046
-3.04232e-07
1.04044e-11
0.000142513
1.89476e-10
-8.00885e-12
-9.24498e-11
1.49111e-11
-3.40243e-12
-1.00407e-10
-8.57287e-06
-9.676e-11
-3.54391e-10
5.25919e-11
4.16266e-12
-2.73948e-12
0.000126988
-8.31599e-12
1.02299e-11
1.14009e-11
1.66168e-10
-1.0757e-11
-9.61197e-13
-1.04366e-10
-1.40237e-05
1.40259e-11
-3.79527e-11
-2.84697e-12
-4.58534e-12
-1.4275e-08
1.37286e-11
-4.694e-12
6.21517e-07
-3.66883e-11
-9.13747e-12
2.48384e-12
2.86466e-06
1.85398e-09
4.69314e-12
-4.01363e-05
-3.5327e-11
5.17472e-08
-1.80108e-10
-4.01675e-11
-8.7334e-11
2.55731e-11
-1.64073e-13
3.737e-11
2.0548e-05
1.32271e-07
-1.97041e-09
2.63179e-11
-2.98535e-07
6.82525e-11
-2.09217e-10
-2.49118e-12
1.92561e-10
-7.47332e-05
4.41264e-10
2.56256e-08
2.24557e-10
1.81174e-10
3.59546e-10
9.99247e-12
-1.22982e-07
-1.03693e-12
-6.35382e-10
-3.40358e-05
4.42982e-05
-1.85077e-11
-1.92044e-10
1.54926e-12
-3.19361e-12
2.2258e-10
-8.48086e-13
-5.13683e-12
-5.25312e-07
3.33195e-11
-1.14227e-10
1.23061e-11
4.64667e-14
1.71759e-10
-2.30737e-05
-8.41451e-05
-9.01697e-10
1.78166e-06
-5.83665e-05
3.12266e-10
8.08759e-05
1.68919e-12
1.59698e-10
-4.35099e-05
-4.67119e-05
-4.94127e-11
-5.0037e-05
-1.9704e-05
3.6843e-06
3.96361e-06
-1.33223e-06
-4.50292e-11
-2.78839e-08
2.26683e-12
2.16112e-09
-1.21419e-05
-1.9679e-05
3.18557e-11
-3.06794e-13
4.67514e-05
-4.3337e-05
-5.03337e-12
1.21311e-10
-1.85807e-10
6.16265e-11
-1.25582e-10
-6.33776e-07
0.000155273
-2.42442e-09
1.05454e-10
3.43274e-05
3.295e-11
1.93888e-05
-1.06012e-10
7.31479e-05
1.02162e-10
-1.59024e-07
-1.31898e-10
3.66843e-05
4.06426e-11
-3.99e-12
-5.63982e-12
1.3046e-10
-7.53867e-06
3.75674e-13
9.16389e-12
-3.69683e-11
1.90567e-10
1.98465e-11
3.86797e-10
1.87599e-10
-1.85592e-10
9.19631e-07
-1.20947e-07
1.0582e-05
-6.22997e-09
1.46153e-11
-1.494e-10
2.06779e-10
2.26081e-09
-2.86822e-12
-2.08532e-07
-1.88578e-12
-9.19815e-11
4.75755e-11
-1.9166e-12
7.72636e-06
1.0501e-12
7.94505e-12
-3.83607e-11
-5.98464e-11
5.14817e-11
1.0079e-11
2.21509e-10
-1.93578e-12
-1.82793e-11
-1.41747e-10
1.65557e-10
-2.19485e-06
-0.000124075
-3.70219e-11
7.03978e-07
-1.1456e-08
-8.28808e-13
1.38213e-09
-8.6127e-05
-2.75241e-11
0.000102426
9.15454e-10
-7.24797e-07
2.6609e-11
3.56951e-05
-9.57334e-10
-1.36962e-08
-6.24611e-05
-5.38701e-12
7.02422e-05
5.87103e-11
-9.58876e-12
-1.66844e-10
1.33654e-10
2.59553e-11
3.60543e-05
-1.48221e-11
1.27772e-10
1.889e-05
-3.95992e-12
7.31325e-12
-9.41935e-11
-7.66327e-08
3.41738e-11
-4.12257e-10
1.77321e-08
-2.39565e-07
1.03278e-10
-1.51421e-12
0.000289879
9.17031e-11
-3.3877e-05
-1.30552e-06
5.42118e-09
1.60461e-10
-1.21467e-10
-9.33321e-11
2.3342e-11
5.56356e-08
7.85435e-08
1.1083e-12
-6.67755e-10
-6.57611e-07
5.98985e-11
-1.6016e-10
-3.9039e-13
-1.67143e-10
-1.84242e-11
-4.99754e-09
1.95413e-05
-1.82504e-11
8.55196e-06
-7.16153e-11
-2.3684e-11
-1.71442e-05
-2.50783e-11
-1.67471e-05
4.82717e-11
-5.98052e-05
3.04148e-12
-0.000135014
1.12134e-10
1.02926e-10
2.82997e-05
4.28297e-12
2.44931e-05
2.58114e-12
1.56077e-09
0.000205211
4.67289e-11
-2.0666e-11
-4.69355e-05
-5.64792e-11
-6.87205e-11
2.7009e-10
-5.78853e-05
5.48914e-05
-1.46203e-05
1.13275e-11
-4.93039e-07
2.13808e-10
-4.60057e-11
2.62933e-11
-1.30188e-10
3.03483e-12
8.68876e-11
-4.1461e-06
6.19908e-11
-1.63481e-10
-6.549e-05
-1.09703e-05
-4.81755e-12
2.93036e-10
1.99714e-11
1.72989e-07
2.73472e-05
-5.87352e-11
8.37033e-05
0.000254052
1.58886e-10
9.2705e-11
1.43914e-11
-5.50256e-11
-5.38447e-10
-6.36468e-05
-2.11434e-11
6.66066e-08
-2.4309e-10
1.46353e-09
4.08195e-11
6.15365e-11
2.05814e-11
2.16486e-09
0.000155436
-4.51216e-05
-2.26889e-12
-1.05881e-12
-5.1213e-05
6.65666e-12
-6.40698e-12
-7.43475e-11
-6.81211e-12
1.4569e-05
7.15996e-11
-4.54076e-05
6.99437e-10
2.16751e-11
-5.97984e-05
1.0846e-11
4.96333e-12
1.09341e-10
1.70182e-10
-1.12181e-10
-1.02688e-09
-1.76137e-06
2.25146e-05
2.27402e-11
-1.04363e-09
-3.52954e-05
-1.02559e-08
1.15095e-11
-5.5405e-11
2.84795e-05
-6.47664e-10
3.26221e-06
1.35295e-13
-4.85695e-11
1.60322e-11
3.12262e-11
1.4805e-05
1.88556e-05
-6.01084e-11
1.74349e-05
-6.77539e-08
8.12954e-06
-0.000283112
1.01458e-11
2.36757e-14
1.49997e-10
8.70807e-12
2.05343e-11
-1.52712e-12
-3.33122e-10
-4.18603e-05
7.07154e-05
-5.59649e-11
2.23087e-09
2.86866e-10
-4.63927e-05
5.18505e-10
-4.32198e-05
5.46127e-11
9.35411e-12
-6.73537e-09
0.00010457
8.4082e-07
-1.82498e-10
1.21067e-12
1.10625e-09
-1.88565e-05
-2.80199e-10
-1.39295e-05
-3.75079e-12
-8.92683e-07
1.94848e-10
2.18821e-13
1.08605e-10
-3.65621e-11
5.93723e-12
-1.08379e-05
-3.61003e-12
3.29649e-11
4.06809e-05
-1.67021e-05
-2.16226e-10
-5.65046e-12
7.23299e-11
4.9257e-05
1.80532e-10
-1.33301e-10
-5.80097e-07
2.70226e-12
-1.70171e-05
-1.74498e-08
1.98777e-05
5.11519e-05
-8.41457e-05
1.02328e-11
1.86115e-06
5.83392e-11
4.44719e-07
2.51724e-10
6.25701e-07
-8.96573e-06
1.47806e-05
-1.25614e-09
-5.86552e-05
-1.86039e-05
-1.17062e-08
-1.26754e-05
1.3646e-10
-4.02274e-11
-5.11067e-06
-8.94576e-09
1.49004e-10
1.70067e-10
6.67323e-11
1.55733e-12
-4.79393e-11
6.37915e-10
-3.08228e-05
5.07622e-06
-5.34849e-12
-2.99367e-10
-4.27608e-12
-3.33804e-12
4.08158e-12
-8.73595e-11
2.27693e-10
-1.45187e-10
1.18896e-08
-1.67501e-12
1.09621e-09
1.31105e-10
1.51088e-12
-1.10064e-10
-4.59413e-11
-4.52215e-05
4.31035e-08
-2.30049e-05
-3.12641e-12
-3.11669e-05
-6.41674e-06
-1.34253e-10
0.000209508
-2.56194e-08
3.37691e-07
-2.56898e-11
2.1186e-05
-1.72249e-10
6.26852e-11
1.1236e-05
-2.25146e-12
2.14126e-09
-1.05078e-06
1.10197e-11
-0.000257445
-5.72845e-11
-5.94932e-11
-5.51129e-08
-1.6186e-10
-3.91505e-05
4.60922e-12
-9.8749e-11
8.45184e-05
-1.43875e-11
-5.46209e-07
3.77491e-10
-7.46241e-05
-1.0957e-08
8.89603e-06
-1.98345e-08
-1.2416e-11
-1.56732e-12
7.13758e-13
1.04846e-10
-5.14664e-12
2.07238e-10
-9.82913e-12
-2.59593e-05
1.96021e-10
8.01981e-11
2.24271e-12
-9.69151e-11
1.2588e-10
-2.40611e-12
2.35444e-05
4.70553e-07
1.33863e-10
-5.10897e-10
-0.000181084
1.07972e-10
-7.15957e-11
1.381e-09
-4.88637e-05
-0.000230141