/*--------------------------------*- C++ -*----------------------------------*\
| =========                 |                                                 |
| \\      /  F ield         | OpenFOAM: The Open Source CFD Toolbox           |
|  \\    /   O peration     | Version:  v2012                                 |
|   \\  /    A nd           | Website:  www.openfoam.com                      |
|    \\/     M anipulation  |                                                 |
\*---------------------------------------------------------------------------*/
FoamFile
{
    version     2.0;
    format      ascii;
    class       surfaceScalarField;
    location    "200";
    object      ddtCorrDdt0(phi);
}
// * * * * * * * * * * * * * * * * * * * * * * * * * * * * * * * * * * * * * //

dimensions      [0 3 -2 0 0 0 0];
oriented        oriented;


internalField   nonuniform List<scalar> 
20823
(
-0.000568786
4.91536e-05
0.000519627
0.002557
-0.00258899
3.19998e-05
8.18115e-06
-1.08037e-06
-7.10082e-06
-2.20691e-06
8.32718e-07
1.37401e-06
-2.82628e-06
-1.23006e-05
1.51269e-05
-1.44943e-06
1.59105e-06
-1.4166e-07
0.000615045
-0.000995564
-0.000389204
0.000772326
-0.000383119
-1.42332e-06
-7.83501e-07
-0.000196169
-0.00022694
0.000423118
4.0842e-05
-0.000109038
6.81968e-05
-4.37648e-07
1.78642e-05
-1.74276e-05
-2.45025e-06
3.68419e-06
-1.23394e-06
1.44572e-06
-3.89625e-06
1.34947e-05
-1.41354e-05
6.40769e-07
5.14399e-06
-4.55524e-06
-5.88547e-07
1.75699e-06
-9.17924e-07
-8.39134e-07
-0.000863598
0.00173379
-0.000870193
2.14595e-06
-6.74687e-08
-2.07886e-06
-1.18604e-06
-1.01514e-06
2.20091e-06
-3.78415e-06
3.01843e-06
7.65792e-07
1.45282e-05
-1.49653e-05
7.10549e-05
-1.88317e-07
-7.08654e-05
1.24312e-05
-1.52574e-05
4.07879e-05
5.45361e-08
-1.04284e-06
3.18953e-06
-5.1403e-05
0.000131496
-8.00919e-05
-4.23529e-05
0.00136294
-0.000417958
-0.000944985
-0.000578376
-1.81489e-05
-5.52766e-06
3.57097e-06
1.9568e-06
0.000157091
-0.000546291
-0.000182895
-4.20372e-05
0.000224929
1.37366e-05
-5.21024e-05
3.83657e-05
-0.00109209
0.00100841
8.36826e-05
-1.94045e-06
-8.88858e-07
2.82904e-06
0.000196377
-0.000102794
-9.36103e-05
-0.000344511
0.000148363
-1.98819e-05
7.17589e-06
1.2706e-05
-9.52958e-07
-1.65987e-06
2.61274e-06
-0.000443911
-0.00049686
0.000940773
-2.41931e-06
-1.36499e-06
-0.000102204
2.629e-05
7.59134e-05
5.93202e-06
-3.2165e-06
-2.71556e-06
-0.00026513
0.000248189
1.69415e-05
-6.09654e-05
-4.12389e-05
-1.09927e-05
6.85772e-05
-5.75844e-05
-1.64395e-06
1.94503e-07
0.000296783
-0.000108078
-0.00018871
-0.000381234
0.000187699
0.000193541
1.51756e-06
3.83019e-07
-1.90066e-06
-4.0128e-07
-5.93878e-07
9.94931e-07
0.000202156
-7.85244e-05
-0.000123622
-3.81281e-05
3.45451e-05
3.56909e-06
7.93574e-07
9.63447e-07
2.3067e-06
1.37757e-06
-9.79968e-05
-0.000551467
0.000649455
0.00173061
-0.0011134
-0.000617209
-4.78817e-05
6.16184e-05
-1.34076e-06
-4.18672e-06
6.26852e-06
4.67623e-05
-5.3032e-05
-0.000133177
-0.00024806
-2.35011e-05
4.06761e-06
1.94339e-05
-5.03413e-06
5.10123e-05
-4.59786e-05
2.47193e-06
-2.83005e-06
3.57904e-07
-2.60774e-06
2.82433e-06
-2.14868e-07
-0.000273256
-0.000295532
-7.70833e-05
9.33425e-05
-1.62591e-05
0.000137505
-0.000154021
1.65156e-05
-5.79116e-06
4.97876e-06
8.12058e-07
1.48293e-06
-1.37e-06
-1.12841e-07
1.39327e-06
-6.14457e-07
-7.78629e-07
-5.80802e-05
4.70891e-05
9.90499e-07
-1.54405e-06
5.53568e-07
2.04607e-06
-4.12359e-07
8.74254e-06
3.80831e-07
-9.12347e-06
5.25301e-07
5.54859e-07
-1.08014e-06
-4.69914e-06
-1.09239e-06
-0.000671416
-0.000463183
0.000343469
0.000120596
-0.000463961
0.00011112
-9.8792e-05
-1.23304e-05
0.00015262
-0.000824023
9.91008e-05
0.000103057
-2.78515e-06
6.71459e-06
-3.92925e-06
5.45014e-07
-6.4366e-06
5.89155e-06
-1.02932e-06
1.46461e-06
-4.35087e-07
-4.05103e-05
5.11463e-05
-1.06345e-05
-5.21133e-06
-3.29343e-05
-5.18827e-05
1.38184e-05
3.80658e-05
-1.75594e-06
5.69758e-07
-1.23808e-06
1.67512e-06
-4.36914e-07
5.01529e-05
-0.000151142
-8.62608e-05
0.000237402
-0.000585175
-0.000187162
0.000772373
0.000133254
4.25066e-06
-0.000343905
0.00167161
-0.00132785
1.66191e-06
-1.44404e-07
-1.38553e-07
8.31977e-06
-5.93803e-05
2.2288e-05
3.70891e-05
1.60159e-07
8.81116e-07
-1.04154e-06
-2.19208e-06
-4.15198e-07
-1.50935e-06
-1.34511e-07
0.000160905
-2.76498e-05
6.36447e-05
6.0877e-05
-0.000124522
-5.44973e-05
-2.61943e-05
8.06915e-05
-1.30384e-05
0.000128309
-0.000115271
-4.35468e-05
-8.33878e-06
4.69648e-06
-7.48155e-06
2.3788e-05
-0.000100873
-4.22331e-06
2.77914e-06
1.44388e-06
-3.70133e-05
7.033e-05
-3.33147e-05
-4.21999e-06
1.20874e-07
4.09922e-06
-4.84608e-06
5.39104e-06
-0.00350007
0.00210278
0.00139737
-4.22003e-06
1.15402e-06
-6.28675e-07
0.000628296
-0.000760091
0.000131773
3.1091e-05
-2.65614e-05
-4.52959e-06
0.000960812
-0.001546
-0.000191163
8.26529e-06
-1.35596e-06
1.3459e-06
1.00523e-08
5.42492e-06
-1.3921e-05
8.4961e-06
-8.24553e-06
3.36167e-05
-2.53719e-05
2.59408e-05
4.27934e-06
-3.02202e-05
8.07917e-05
-0.000278087
0.000197285
-0.000323664
0.000172524
-6.01618e-06
5.48216e-06
5.34181e-07
-0.00115917
-0.00234096
1.6064e-05
-8.02236e-05
6.41582e-05
1.64575e-06
-4.89332e-07
-1.1563e-06
-8.42708e-05
2.61919e-05
-5.85712e-06
-8.61395e-07
6.71843e-06
-1.3689e-05
2.9457e-05
-1.5768e-05
1.71412e-08
-2.65092e-05
2.64888e-05
-4.22479e-05
-4.20232e-05
-3.7808e-06
4.75197e-06
-9.70388e-07
1.16303e-05
-0.000128754
0.000117122
2.83461e-06
-3.62768e-07
4.14599e-07
1.23127e-06
0.000128907
-0.000412116
0.000283211
-1.40028e-05
-7.66033e-07
1.47688e-05
-0.000331777
-0.000950364
0.00128213
-4.05931e-05
1.46074e-05
2.59851e-05
-6.65281e-06
1.79279e-06
4.86039e-06
0.000258065
0.00110487
-0.000270096
4.96687e-06
-1.56337e-06
2.07418e-07
1.53561e-05
-1.06638e-05
-4.69295e-06
6.32044e-05
0.00168884
-0.00178255
9.37216e-05
-0.00168775
0.00134376
-1.55448e-05
1.5421e-06
1.34531e-06
1.37374e-07
-0.000624268
0.000781357
-1.41945e-06
-8.98278e-08
2.23475e-05
3.01115e-05
-5.24574e-05
-0.000124161
0.000265562
-0.000141402
4.47025e-06
-3.58448e-06
-8.86129e-07
-0.000170707
4.65459e-05
1.53297e-05
-3.96386e-06
-1.13658e-05
-2.39437e-05
-3.39534e-05
5.78971e-05
-0.00014729
9.58903e-05
4.09926e-05
-0.000106794
6.57956e-05
-1.84559e-06
-8.06833e-07
2.65251e-06
-5.68186e-06
5.15039e-06
5.31648e-07
7.35276e-07
8.71735e-07
-1.60691e-06
1.09628e-05
3.52435e-06
-1.44869e-05
-1.23565e-06
-6.59217e-06
7.82777e-06
-0.000561561
7.27068e-05
0.000488846
2.11732e-06
-3.68336e-07
-1.74877e-06
3.72162e-06
1.42249e-06
0.000161358
-0.000149725
2.57477e-05
-7.88341e-06
0.000102926
-1.33288e-05
-8.95981e-05
8.96896e-06
-2.26398e-07
1.52349e-06
5.94293e-07
7.004e-05
-0.000111278
4.1238e-05
-7.11933e-05
-7.13121e-06
7.83223e-05
1.65782e-05
9.16936e-06
-4.47116e-06
-2.18158e-06
3.62147e-05
-0.000597361
0.000561145
-8.28508e-05
1.16554e-05
2.07104e-06
2.17035e-06
-4.24124e-06
-7.84379e-05
-6.87766e-05
0.000147214
-2.57611e-06
-1.64727e-06
-1.34416e-05
7.01938e-05
-5.675e-05
-3.21215e-05
-1.80165e-05
5.01399e-05
1.54003e-06
-5.39892e-07
-1.00049e-06
-0.000675826
0.000573111
0.000102713
3.82951e-06
-5.83261e-05
0.000831413
-0.000576307
-0.000255097
3.3162e-06
-1.23459e-05
9.02984e-06
-9.76337e-05
-0.000526637
1.03834e-06
5.01512e-07
-7.23394e-05
7.34571e-05
-1.12212e-06
0.000844625
-0.000808345
-3.62727e-05
-5.94674e-06
-1.75543e-05
-6.42177e-05
3.21419e-05
3.20732e-05
4.49006e-08
-1.46833e-06
-3.98878e-06
3.93211e-07
3.59525e-06
1.72737e-05
-7.51905e-06
-9.75536e-06
1.0347e-05
-7.03088e-06
-1.95558e-06
2.75307e-06
-7.97634e-07
-0.000237041
-4.58202e-06
8.78999e-07
1.27952e-05
-7.37051e-06
-0.000356455
0.000258427
-3.21943e-06
8.00145e-07
-0.000224622
0.00340358
-0.00317896
6.25101e-05
-4.64466e-05
-0.00082146
0.00027005
0.000996477
-0.000637177
-0.000359323
2.55725e-05
-9.7916e-05
1.65368e-06
-1.1844e-05
1.01902e-05
-5.28647e-05
2.8921e-05
4.02011e-07
-2.6932e-07
-1.32625e-07
0.00114419
-0.000335488
-0.000808703
-2.34541e-06
4.04851e-07
-0.00014619
4.74036e-05
9.87867e-05
-1.88003e-06
-1.33944e-06
2.20165e-05
3.83938e-05
-6.04108e-05
4.10384e-05
-1.90218e-05
-6.07737e-06
3.20186e-05
2.01036e-07
1.06508e-06
-1.26616e-06
-0.000137135
5.36554e-05
8.34802e-05
2.80887e-06
6.82464e-05
-1.648e-06
-6.9735e-06
8.62151e-06
-1.24213e-06
1.28695e-06
6.85975e-05
-5.73679e-05
-1.12289e-05
-6.34275e-06
5.45035e-06
8.92287e-07
-0.00013188
0.000118843
-5.50353e-07
-6.43772e-07
1.19412e-06
1.1683e-05
1.9408e-05
0.000662386
0.000481804
8.98978e-06
-4.1112e-05
0.000126128
0.000170652
-4.16018e-05
1.36101e-05
2.7992e-05
3.98002e-07
1.10852e-06
-1.50641e-06
-2.16568e-06
8.70878e-07
1.2945e-06
-3.97349e-05
1.19775e-06
-8.89891e-07
-3.97732e-07
1.28742e-06
1.30146e-06
-7.1587e-06
8.69903e-06
-3.05135e-05
-1.1088e-05
0.000165531
-0.000148429
-1.709e-05
6.65307e-06
9.62719e-05
3.57419e-05
-3.09008e-05
-4.84137e-06
-0.000168066
0.000123574
4.44909e-05
-4.04554e-07
1.34384e-06
-9.39454e-07
8.84432e-06
-2.64965e-05
1.76532e-05
-2.25256e-05
-9.19291e-06
3.17187e-05
0.000409334
0.000587149
2.68287e-07
-1.51029e-06
0.00304636
0.0025372
-0.00558356
-3.3164e-07
-1.83473e-06
8.39469e-07
-3.50388e-06
2.66412e-06
-3.10011e-05
3.84569e-07
3.06165e-05
-0.00118052
-0.000366556
0.00154708
-7.66307e-06
8.74458e-06
-1.08145e-06
-0.000202401
-0.000661196
-0.00634842
0.00669024
-0.000341741
-4.76493e-05
-9.85404e-05
1.19159e-06
2.25093e-06
-3.44256e-06
-0.000983702
0.000648214
6.79569e-07
-1.22994e-06
-0.000125484
0.000469023
-0.000131019
-0.000852684
-4.22998e-05
-2.19174e-05
1.60582e-06
-6.15392e-07
-0.000111317
0.00011183
-5.12063e-07
3.00312e-06
2.92882e-06
-1.09958e-05
1.50253e-05
-4.02931e-06
0.00210805
-0.000402627
-0.00170545
-1.18354e-06
1.58151e-06
-2.39169e-06
-3.95115e-06
-0.000133873
9.15195e-05
1.76033e-05
1.81388e-05
0.000121819
-8.32948e-05
-3.85234e-05
4.92441e-05
7.90655e-05
-1.25124e-06
-7.50597e-07
2.00179e-06
0.00154947
2.23864e-05
-0.00157182
3.57406e-06
-3.38245e-06
-1.91501e-07
0.000193194
-0.00086902
0.000158449
0.00153039
4.23826e-05
-5.35269e-05
0.000372149
0.00135844
0.000347525
0.000483889
-0.000194755
-2.24983e-05
5.48676e-06
1.70114e-05
-7.14673e-06
-3.34465e-05
5.36402e-06
-0.00109746
-1.91197e-06
1.51522e-06
3.97659e-07
5.67367e-05
-4.59978e-05
-1.07393e-05
6.25917e-06
6.22721e-05
-6.8532e-05
1.37675e-06
2.56846e-05
3.1052e-05
9.36515e-06
3.48339e-05
-4.41996e-05
4.46526e-05
-0.00105647
0.000295648
0.000760806
-0.00207981
1.93046e-06
-1.1145e-06
-8.1622e-07
-0.000156669
8.0718e-05
7.59515e-05
0.00018989
-0.000320908
9.45924e-07
-1.28181e-06
3.36053e-07
-9.23655e-05
1.39274e-05
0.000109519
5.60139e-05
3.17815e-07
1.40258e-06
-1.7206e-06
0.000130692
-9.54559e-05
-3.5238e-05
-2.16667e-06
1.83466e-06
0.000108052
0.000165482
-0.000273533
-3.19182e-05
4.65256e-05
0.000947486
-0.00136544
-7.2699e-05
0.00026259
-1.45709e-06
2.18983e-07
-5.44314e-06
4.43547e-05
-3.89116e-05
-1.28568e-06
4.85097e-05
-4.72242e-05
-3.02281e-05
2.74484e-05
2.78066e-06
0.00259261
-3.56045e-05
-1.3022e-05
-0.000118859
4.60294e-06
6.3619e-06
-1.09645e-05
3.5206e-05
-2.89379e-05
-0.000926668
-0.000831139
0.00175775
0.000167793
-0.000173007
6.37385e-07
1.29316e-06
5.46821e-05
0.000106223
6.38502e-05
-6.00205e-05
5.66115e-06
-9.54674e-06
3.88557e-06
-3.26883e-05
3.14024e-05
0.00233797
-0.0010256
0.000129494
0.000127229
-0.000256726
-4.76369e-06
-9.18101e-07
-3.23757e-06
6.63429e-06
-3.39672e-06
5.12468e-05
-1.02556e-05
4.08387e-05
-0.000169596
-4.6713e-05
5.60775e-05
8.84563e-05
-9.02139e-05
1.76083e-06
-1.34696e-06
9.59709e-07
3.87583e-07
3.68782e-05
-2.80349e-05
-3.06652e-06
3.9894e-05
-3.68285e-05
-2.43808e-06
2.71221e-07
-1.79716e-07
-1.16701e-06
0.00195434
-0.00336483
0.00141048
4.11498e-05
-3.62141e-07
-5.66422e-07
-5.97122e-06
6.53739e-06
-1.34841e-06
-3.24974e-08
1.38101e-06
0.000242291
-0.0006862
0.000362608
0.000252435
3.35116e-05
2.87604e-05
-1.83418e-06
2.35416e-08
1.81067e-06
-2.40141e-05
3.78335e-05
1.91348e-05
-1.34735e-05
7.3296e-06
-9.57978e-06
2.25018e-06
-4.90577e-06
-1.49762e-05
1.24299e-06
-2.97054e-07
-7.97572e-05
3.75513e-05
4.22003e-05
-8.24534e-05
-0.000107062
1.28795e-05
-5.55022e-06
0.000479313
-0.000552012
-4.79805e-05
6.97582e-05
5.32164e-05
-0.000122975
-1.20859e-06
1.79255e-07
2.45111e-06
0.000256052
-0.0002585
-2.45664e-05
0.000503878
0.000191061
-0.000110542
-8.05187e-05
-3.0666e-06
1.41841e-06
1.6482e-06
3.41191e-05
-1.80037e-05
-1.61157e-05
-0.000143205
-6.54756e-07
0.00014386
1.87802e-05
1.53388e-05
5.48039e-06
-5.48027e-06
7.23311e-07
-1.21284e-06
5.37459e-05
7.69434e-05
0.00152457
0.000813411
-1.06934e-06
-9.87605e-07
2.05695e-06
-1.36749e-06
1.60052e-06
-0.000549495
-0.000325782
0.000875271
7.55417e-07
4.55649e-06
-5.31201e-06
6.96394e-05
2.02874e-05
-8.99269e-05
-0.000783835
-0.000541121
0.00132492
-2.19122e-06
3.03074e-06
-0.00235258
0.00430692
-0.000108596
0.000276378
-1.02704e-07
9.80861e-07
-8.78178e-07
-3.7984e-05
9.69602e-07
3.02489e-05
-1.66388e-05
3.32347e-06
2.50599e-07
-6.0556e-05
3.59103e-06
5.69573e-05
-5.88538e-05
-7.31636e-07
-2.94958e-05
-4.89175e-07
-1.05339e-06
1.54226e-06
1.14152e-05
-6.42799e-05
-0.00202773
-0.00432058
0.0026137
-0.000802891
-0.000135588
0.000938477
6.1088e-05
-5.44356e-05
0.000112621
8.29053e-05
-0.000195526
-6.93661e-07
1.21653e-06
-5.2291e-07
-0.00208913
-0.00356383
0.00565296
-1.16908e-07
-3.38679e-06
6.81176e-06
-4.79317e-06
-2.01891e-06
3.37587e-05
-4.55295e-05
1.17706e-05
-0.000822135
3.8289e-05
-1.0022e-06
1.20318e-06
-6.0754e-05
1.96049e-05
4.11497e-05
-1.54267e-05
2.26026e-05
1.76947e-06
-3.9607e-06
-0.000285931
0.000366719
-2.04411e-05
4.27874e-05
0.000271403
0.000356871
4.68279e-06
5.53772e-07
-5.23676e-06
0.000270303
-0.00138371
-8.95494e-05
-1.00231e-06
2.87549e-06
-1.87344e-06
0.000108368
-0.000132936
-1.41085e-06
5.91227e-07
8.19569e-07
-3.88208e-07
-3.91206e-05
2.12131e-05
-1.80925e-05
-3.12059e-06
0.000247226
-0.00288358
0.00263635
-8.3904e-06
-2.02154e-06
1.04117e-05
7.2496e-07
6.68407e-07
-1.14804e-06
2.5843e-07
4.60368e-07
-5.87355e-05
-2.01858e-06
1.11833e-05
2.31148e-06
1.86561e-05
-8.34345e-06
-1.03126e-05
-4.65875e-05
-0.000784681
0.000687037
-2.81379e-06
1.86081e-06
6.05412e-06
2.18335e-06
-8.2375e-06
1.81235e-06
-1.24957e-06
-5.62967e-07
1.95329e-05
8.8835e-05
6.4115e-06
3.41775e-07
-6.75332e-06
-1.22914e-07
3.25961e-06
-3.13672e-06
-1.35059e-06
2.08209e-09
0.000372518
-0.000218248
-0.00015427
-0.0017344
7.46658e-05
0.00165973
-0.00162549
0.000444966
5.52997e-06
2.47191e-05
-2.11097e-06
2.76909e-07
-6.08659e-06
5.95943e-06
1.27187e-07
0.000178204
-0.000108447
6.72089e-07
-1.07344e-06
-7.24771e-06
6.68133e-06
-5.36461e-05
3.37647e-05
1.98802e-05
-0.000108225
-0.00162618
-1.54532e-06
-1.7644e-06
3.3098e-06
9.36026e-05
6.8819e-05
9.6349e-05
-5.60676e-06
-9.07422e-05
-2.83579e-06
-1.15318e-06
-0.00404059
0.00533644
-0.00129585
-6.10747e-06
6.10735e-06
0.000100296
0.000440299
-0.000540584
0.00171312
-0.00575373
6.61316e-07
-1.13534e-06
4.74467e-07
-2.3025e-06
9.14564e-06
-2.53215e-06
-6.6132e-06
-2.51234e-06
8.5246e-07
2.80824e-05
0.000573647
-0.00055328
-2.03708e-05
0.000259859
0.000611696
-0.000871527
3.77678e-06
-3.0214e-06
-1.0438e-06
9.41138e-07
0.000338225
-0.000887713
-7.82464e-07
1.88427e-07
-4.90583e-05
3.98656e-05
-0.000244736
3.61695e-06
-3.74033e-06
1.16889e-05
6.96728e-06
-1.55117e-05
1.28017e-06
1.42309e-05
-1.31191e-06
1.17878e-06
1.33256e-07
-8.9505e-05
1.06706e-05
5.04164e-05
-5.28973e-05
3.56372e-05
1.72615e-05
0.00091246
-0.000652518
-2.50802e-05
3.64953e-05
-0.000560523
0.000477241
8.98691e-05
-5.9895e-05
-2.99742e-05
-0.000114707
4.21932e-05
7.25124e-05
-1.1274e-06
-1.84506e-07
0.00108692
5.04079e-05
-3.0528e-05
2.54937e-05
-0.00035291
0.000274384
1.18529e-06
-2.0743e-06
-4.79097e-05
7.16978e-05
6.79949e-07
-2.52516e-06
-9.00925e-07
-4.57014e-07
1.35791e-06
-0.000360943
8.025e-06
-0.000746581
0.000396972
0.00034961
-5.91994e-06
-1.23387e-05
-3.17311e-06
-2.49443e-06
1.425e-06
-9.30323e-05
-0.00298787
0.00121522
0.00177272
-3.37458e-06
5.44567e-06
-0.00186848
0.000941713
-1.67829e-07
-0.00045991
-0.000324783
-0.000476012
-0.00348555
0.00217031
0.00131524
0.00014836
-3.57382e-05
-4.73311e-06
-1.28406e-06
9.45984e-07
-7.85904e-07
0.000510093
-0.000835864
-5.41103e-07
1.20246e-06
1.92213e-05
5.97998e-05
-7.90206e-05
-1.89841e-06
-5.60738e-06
7.50579e-06
7.50042e-07
-2.03938e-07
-5.45979e-07
-0.000137959
9.17811e-05
4.61789e-05
3.80841e-05
-3.52936e-05
-2.75066e-06
4.45532e-06
-1.70281e-06
1.28681e-05
2.48793e-06
-9.60522e-06
1.34871e-06
8.2565e-06
0.00361558
-0.00203239
-0.00158317
-0.000158604
-0.00549158
0.00565017
6.71242e-06
-8.16964e-06
1.45742e-06
-0.00767449
0.00435861
0.00331596
3.97976e-06
2.73314e-06
-3.7388e-06
3.62177e-06
-0.000101867
1.77666e-06
0.00010009
-8.88597e-07
-2.17801e-06
3.39752e-06
-4.28411e-06
8.86361e-07
-3.25391e-08
1.14223e-06
-1.10962e-06
-1.37919e-06
4.78334e-07
-2.34415e-06
3.40948e-06
-1.0656e-06
5.7201e-06
7.56328e-06
-1.32833e-05
4.39482e-06
4.67519e-05
-2.55003e-05
-5.42573e-05
8.5535e-06
-3.62567e-06
-4.92802e-06
-4.23185e-07
5.10566e-06
1.86948e-06
5.38739e-06
-7.25639e-06
2.23288e-05
-1.78785e-06
-2.05414e-05
-1.58228e-06
1.59161e-06
-9.32604e-09
1.43747e-06
-7.02185e-07
0.000162643
-9.26035e-05
-0.000185421
7.36336e-05
0.000111788
-0.000188714
0.00229677
6.12578e-07
-3.85015e-06
-0.00015158
4.9713e-05
-0.00482777
-0.00284675
-1.66901e-06
2.86057e-06
-0.00169553
0.000708877
0.000986532
-2.2388e-05
1.32381e-05
9.14973e-06
0.000598025
-0.000929783
-7.17289e-06
5.56815e-05
-3.93082e-05
3.26002e-06
3.60481e-05
-2.44526e-05
-5.57713e-05
-2.04801e-05
6.79119e-06
-3.60779e-06
-0.000647774
0.000745689
-9.79165e-05
0.00020299
-9.49381e-05
3.31161e-06
5.24177e-06
8.94411e-06
-2.89009e-06
-1.03838e-05
1.99336e-06
-0.000121993
1.06779e-05
-3.91921e-05
5.1082e-05
-1.18901e-05
4.61798e-05
-8.25761e-06
6.80393e-06
1.45384e-06
1.45074e-06
-1.58183e-06
1.31074e-07
-4.55598e-06
4.66843e-06
-1.12589e-07
2.55662e-07
-1.00378e-06
1.39495e-06
-0.000804287
2.00181e-06
8.50148e-07
-3.11312e-06
1.56786e-06
-0.00137015
0.00041976
-5.96852e-05
3.22087e-05
2.74785e-05
0.000337685
-0.00022077
-0.000116898
-1.44813e-07
-0.000440421
-0.000306158
-2.66608e-06
1.10199e-06
1.56389e-06
1.15479e-05
-8.09361e-05
5.64836e-05
-1.88868e-06
5.21371e-07
1.46521e-05
9.71771e-05
-4.68514e-07
-4.08766e-06
-2.08534e-06
3.52294e-06
-1.43737e-06
-4.66312e-05
2.86275e-05
5.19904e-06
1.61259e-06
1.1077e-05
-2.98368e-06
-8.09392e-06
-0.000423549
0.000575417
-0.000151865
4.00422e-08
-2.44419e-06
2.40249e-06
-4.99268e-05
0.000176055
8.58754e-06
-8.98335e-06
3.95837e-07
-7.09751e-05
6.32505e-05
7.72674e-06
-0.00129465
-0.00129435
1.04797e-06
-1.53711e-06
-4.0243e-06
-3.22124e-06
7.24537e-06
0.000249211
-0.000237748
-1.14638e-05
3.95984e-06
-7.97807e-06
4.01827e-06
-1.07837e-06
-1.58786e-06
-2.96036e-06
-2.36011e-05
-0.000344447
0.000439829
-9.53854e-05
2.2194e-06
-6.24378e-06
1.98483e-06
1.4127e-06
1.94141e-07
1.04997e-06
-1.24409e-06
-2.09469e-05
6.42738e-05
-7.14472e-05
-0.00415415
0.00186443
0.00228977
2.70989e-06
-1.07109e-06
-1.63881e-06
-1.7651e-05
-1.10067e-05
2.86561e-05
0.00037627
-0.000107672
-0.000268594
-1.45681e-05
-1.22268e-05
2.67909e-05
-1.75024e-05
-4.10177e-05
5.85199e-05
-0.00564274
0.000814965
-0.000677401
2.96414e-05
-0.000997335
0.000457634
0.000539696
-2.43409e-06
2.47401e-06
1.47408e-05
7.58744e-06
-0.000721728
-0.0034324
-6.33907e-07
6.11526e-06
-5.54953e-06
-1.55098e-06
5.08304e-07
3.65328e-05
-3.02296e-05
-6.30368e-06
-2.17716e-05
-3.51632e-05
5.69343e-05
-5.8128e-05
-2.47239e-05
1.176e-06
-6.46432e-07
-5.29756e-07
-1.90978e-05
2.33767e-05
8.29846e-07
-8.41182e-05
0.00012381
-3.96915e-05
-6.35741e-06
5.12177e-06
-0.00493076
-0.000711997
-5.39636e-05
9.63273e-05
-4.23635e-05
-2.12298e-06
-0.000183298
1.08344e-05
-9.35711e-06
-1.47737e-06
-6.72268e-06
2.61109e-06
4.1115e-06
-2.42847e-05
-0.000129737
-3.88574e-06
-2.83704e-06
0.000412288
-0.000291689
-2.92075e-06
1.37395e-07
2.78363e-06
0.00256461
-0.00202388
-0.000540688
-6.81256e-06
9.82981e-06
-3.01731e-06
-2.93036e-06
8.45627e-07
-0.000145467
9.55401e-05
2.16898e-06
8.90782e-06
-3.86554e-05
5.78763e-05
7.42995e-07
1.06932e-06
2.24766e-05
-0.000372638
-0.000171396
0.00054403
8.43961e-05
0.000100407
-0.000184796
-3.10623e-05
-6.92536e-06
-6.54128e-05
1.05518e-06
-1.74162e-07
-2.05801e-06
-7.86734e-05
0.000204928
-0.000126255
-1.31935e-06
2.69725e-06
-1.37784e-06
-0.000126239
-3.04307e-05
-1.18608e-06
-3.58012e-07
-3.53372e-05
-0.000113521
2.72925e-05
8.62291e-05
-0.000315136
-0.0013804
-6.46024e-06
6.29167e-06
1.68418e-07
-3.22452e-07
1.31263e-06
-9.90123e-07
0.000198586
-6.90947e-05
-1.35242e-05
5.3545e-06
-8.80342e-06
1.04571e-05
9.61117e-06
4.67391e-05
-5.63504e-05
0.00131671
0.00124791
-5.19753e-05
-3.0669e-06
1.78046e-06
-1.22693e-06
0.000129675
-0.000104103
-0.000276799
0.000301378
-2.45787e-05
0.00116605
-0.000157633
-2.58569e-05
-1.47734e-05
4.06301e-05
-3.04541e-05
4.0065e-05
-0.000322743
4.5944e-05
0.000609711
0.00112404
0.000226944
-0.000180484
-4.64608e-05
3.51139e-07
-3.27174e-06
-3.16819e-06
1.25925e-06
6.06546e-07
-1.95243e-06
1.34593e-06
-0.000144995
-0.000911488
0.000158414
9.07965e-05
1.45299e-06
-1.18103e-06
-2.72058e-07
-0.000204632
0.00013526
0.00141423
1.13399e-05
3.98981e-06
-0.00257721
0.000260803
0.000312852
1.22715e-05
1.23262e-06
2.2034e-07
0.000141805
-0.000486251
-4.80769e-05
0.000132477
-2.86109e-07
-5.48231e-05
8.51251e-05
0.000154484
-0.000239613
5.12591e-05
-1.23134e-05
1.31764e-06
0.000127727
0.000946888
-0.00107461
9.21417e-05
-0.000145788
7.90701e-05
-1.87088e-05
-6.03638e-05
-0.000539463
-0.000220644
-2.41813e-06
-1.10088e-06
3.51888e-06
8.96843e-06
0.00021087
-0.000236215
2.53459e-05
0.000153137
-0.00014117
-1.19704e-05
1.77901e-05
-5.88079e-05
-2.24076e-06
2.51645e-06
-2.75732e-07
-9.17404e-08
-1.94664e-06
2.03827e-06
-2.69161e-06
1.3788e-06
1.31343e-06
-1.20526e-06
-1.31481e-07
1.33662e-06
0.00653504
0.00169939
-0.00823445
3.01171e-05
-1.0519e-05
-1.95981e-05
-6.91764e-05
-4.43447e-05
0.000295922
-0.000778363
0.000482437
-1.4068e-06
-2.00819e-07
3.84905e-07
-1.84295e-07
1.50682e-06
2.30471e-06
-3.8117e-06
-2.80233e-06
0.000132478
1.68275e-05
4.38553e-06
-5.3934e-06
9.99615e-06
1.00999e-06
6.65227e-07
-1.02094e-06
-3.4909e-07
8.85097e-07
2.13337e-06
-0.000126916
0.000107159
-0.000416637
0.000309475
3.25253e-06
7.58171e-06
3.18951e-06
-1.68279e-06
0.000245835
0.00013044
5.51157e-06
-5.39075e-06
-0.000490203
7.66303e-07
-7.35861e-06
0.000145598
-4.92492e-05
-1.32077e-06
1.93976e-07
1.12711e-06
5.90297e-07
5.8553e-07
0.000613563
-0.000337648
-0.000275916
5.04633e-05
8.89258e-05
-0.000139389
6.7248e-05
1.21818e-05
-7.94303e-05
-8.32677e-08
1.534e-06
4.38645e-05
-4.93074e-05
-0.00118674
-0.00083712
1.94992e-07
9.37027e-07
-1.13222e-06
1.10327e-05
-3.04357e-05
0.000111154
-4.75857e-06
6.38582e-05
-5.91022e-05
-1.6498e-06
-8.81358e-07
2.53123e-06
0.00015878
-5.19236e-05
-0.000398792
6.3618e-05
-7.46423e-05
1.10232e-05
5.55763e-06
-6.1181e-06
5.60761e-07
6.69247e-05
1.64828e-06
-7.15543e-06
5.50708e-06
-2.87085e-05
6.9368e-06
0.000270818
2.47867e-05
-0.000144397
0.000142275
5.26066e-06
4.41701e-05
-4.94305e-05
1.17577e-06
-2.46319e-06
2.46141e-07
2.21719e-06
-6.75802e-05
1.36165e-05
6.56177e-05
1.34527e-05
-6.7861e-06
5.92464e-06
-0.000480762
0.000608491
-2.8441e-05
-0.000113003
-1.53509e-06
4.35951e-06
0.000279409
0.000119717
-0.000399128
-0.000196904
-4.89792e-06
-5.08125e-06
9.97902e-06
3.67745e-05
-3.15139e-05
-1.04485e-06
1.01232e-06
-9.2777e-06
-2.28404e-05
3.21111e-05
-6.08996e-07
-4.32641e-07
3.72047e-07
-9.07274e-06
3.51399e-05
-2.60677e-05
-6.73402e-07
-2.43938e-06
0.000103059
8.80042e-05
-6.62578e-06
0.00145457
0.00194901
-2.06414e-06
8.69389e-07
1.19448e-06
7.8335e-06
1.06848e-07
-7.94036e-06
0.000530821
0.000416666
0.000228339
0.00044468
-0.000344604
-0.000100076
1.31656e-05
4.10743e-06
1.74777e-06
-1.83952e-06
-1.31029e-06
1.628e-06
-9.27488e-06
7.28933e-05
5.58549e-07
4.92189e-06
1.70857e-06
-8.22098e-06
1.26599e-06
6.95516e-06
6.19462e-05
1.32054e-05
-7.66299e-06
-5.54249e-06
-0.00025165
-9.62079e-07
-1.10213e-06
-7.64644e-05
1.7086e-05
-0.000589256
0.000453667
6.59426e-05
6.94553e-05
-0.000135398
0.000103881
0.000268636
9.0094e-05
-6.78068e-05
-1.25553e-05
9.50865e-06
3.04642e-06
-6.20332e-05
-1.66374e-05
-0.000372075
0.000388715
-0.000305751
0.000166907
0.000138818
-0.000620645
0.000197101
-3.52572e-05
3.21902e-05
1.87648e-06
2.55719e-05
-2.4652e-06
1.39433e-06
-0.000824726
-0.000367911
0.000149661
2.52128e-05
-4.28641e-05
-1.39139e-06
5.3587e-07
8.55568e-07
-2.73199e-05
5.74314e-05
-4.2813e-07
3.05448e-05
-2.0033e-07
-2.26276e-06
-2.85591e-06
1.86832e-06
5.82935e-06
-1.66744e-07
-7.11086e-07
8.77804e-07
1.37346e-05
-2.80588e-05
1.43236e-05
-4.30279e-07
-1.62754e-06
2.05763e-06
-8.25642e-06
-7.58617e-05
1.3274e-06
-3.67155e-06
-9.11042e-05
-4.04941e-05
0.000131598
-0.000389391
-0.000418963
-6.2559e-05
1.99753e-06
0.00140623
-0.000654045
-0.000752177
4.56014e-06
-7.96264e-06
3.40237e-06
-5.98757e-06
-1.7177e-07
6.1593e-06
-1.4707e-06
1.49993e-07
0.00430481
-0.00405759
8.51284e-06
-3.76543e-06
-4.49216e-06
1.78771e-06
4.28711e-07
-3.57573e-06
3.14702e-06
-0.000605343
1.60867e-05
-9.97964e-06
1.18296e-05
-1.8495e-06
0.00029667
-0.000211549
0.000590166
7.89108e-06
-1.45124e-05
6.62179e-06
-1.9201e-06
-4.16647e-06
0.000343771
-0.000341319
-2.84021e-05
1.52774e-05
1.31241e-05
2.81344e-05
-2.48743e-05
7.4897e-06
1.90006e-05
-9.11292e-06
-2.73115e-06
-8.99372e-05
6.45508e-05
2.53869e-05
-6.28688e-06
2.19086e-05
-1.56217e-05
-8.74336e-07
2.65204e-07
-6.44815e-05
0.000191712
2.22993e-05
-2.94465e-05
5.08854e-07
7.32469e-06
-1.30522e-06
1.78626e-06
-4.80987e-07
-3.22425e-07
3.66648e-06
-3.34432e-06
2.65555e-06
-2.72448e-06
-1.10396e-05
1.06028e-06
-9.4454e-07
-1.91141e-06
-1.64485e-06
-2.65059e-05
-5.50411e-06
-8.14388e-06
1.33135e-06
-6.18781e-06
-6.36737e-06
-1.90207e-06
-7.89527e-07
-2.58396e-06
2.15324e-06
-9.82588e-06
9.30535e-07
8.89523e-06
1.48393e-06
6.0247e-05
-6.17305e-05
3.09675e-06
-0.00316456
0.00107542
-8.03795e-07
1.05952e-06
7.99043e-05
-8.00916e-05
-2.6023e-07
5.64793e-06
0.000381992
-0.00632624
1.60054e-06
-2.6029e-06
-0.000202043
5.93929e-05
0.00014265
-7.58055e-07
2.17647e-06
6.98693e-06
-8.34517e-05
-1.90871e-06
1.62297e-06
2.85597e-07
-5.01317e-06
2.62144e-06
1.07602e-06
-8.16994e-07
-2.58934e-07
5.49291e-05
-9.36968e-06
-4.55583e-05
-1.73001e-07
-1.43418e-06
1.60713e-06
5.73826e-06
-1.27007e-05
6.96244e-06
0.000265782
0.000309638
7.08878e-05
-4.46696e-05
-2.62169e-05
0.000116275
0.000402378
-0.000518655
-0.00084651
0.0006639
0.00018261
-6.3668e-07
-7.54677e-07
-1.00563e-05
-2.25715e-06
-1.78988e-05
3.33642e-06
-6.72957e-07
-9.99104e-06
-3.34329e-06
-1.21184e-06
-8.48198e-05
2.66921e-05
-1.17293e-06
6.33085e-07
-2.17136e-05
-6.36132e-07
1.60743e-06
-1.54474e-06
1.83959e-06
-2.95012e-07
3.77858e-06
-3.7335e-06
-4.51455e-08
-1.22922e-06
3.92103e-07
8.37037e-07
-2.23118e-06
3.67665e-06
6.6818e-06
-1.36382e-06
1.52267e-06
-1.58792e-07
8.933e-05
-2.35993e-05
-6.57299e-05
-1.21659e-06
-2.5467e-07
-3.78485e-06
-1.42317e-05
5.40063e-06
-1.62384e-06
-1.72056e-05
4.88522e-06
1.23199e-05
-2.29268e-05
-5.11472e-05
-3.16229e-05
8.27697e-05
-0.000161229
-0.000161514
6.03979e-07
-1.35231e-06
7.48451e-07
-2.04612e-05
1.87042e-05
1.75695e-06
-0.000305598
0.00377452
-0.00346891
-1.65142e-05
4.39726e-05
-2.74577e-05
1.91165e-06
2.54425e-06
3.11604e-08
-1.01454e-07
-1.48886e-06
1.59064e-06
0.000150092
-8.41493e-05
-0.00165016
-0.00183539
-2.05907e-06
-2.22502e-06
1.30933e-05
-6.73134e-06
-7.27071e-05
2.06046e-05
-0.000138241
-0.000134657
0.000272898
-2.5124e-05
2.64035e-05
0.00355228
6.32737e-05
-9.88585e-06
4.57833e-06
5.30773e-06
2.34741e-06
-7.63921e-06
5.2918e-06
0.00104981
-0.000318978
-0.000730818
0.000957805
-0.00111902
0.00016121
-1.74729e-06
4.42042e-07
-0.00653057
0.00187123
0.00465939
0.000309998
0.000303565
0.000193344
-3.49296e-05
-8.5643e-07
-2.00541e-05
2.09107e-05
0.000351841
7.4552e-06
0.00014568
1.09219e-07
2.92737e-07
-3.7546e-07
1.6474e-06
-1.27222e-06
0.00334371
-0.00114459
-0.00219912
-3.59217e-06
-1.3613e-05
-5.86439e-06
-0.000299904
1.46537e-05
-6.7624e-06
-2.7702e-05
1.84502e-06
-5.77049e-06
8.11791e-06
3.10048e-06
-0.000113643
-1.29839e-05
1.11963e-05
-0.000147134
-4.40294e-05
-0.000118566
6.7065e-05
5.15042e-05
-2.30274e-05
4.74299e-05
-2.44033e-05
-1.15037e-06
-1.31493e-06
1.97048e-06
0.000816986
-0.000478762
4.87991e-05
2.21311e-06
-9.98057e-06
-3.06822e-06
1.30489e-05
0.000201759
4.16312e-05
-0.000243391
-1.03517e-05
5.4538e-06
-0.00095018
0.000547526
-1.46123e-06
-1.08475e-05
1.23085e-05
-2.99861e-06
5.80303e-07
-5.32131e-07
-2.28167e-06
6.30417e-05
-4.59417e-05
-1.70999e-05
0.000270609
-0.000139197
-0.000131411
4.93351e-06
6.24191e-07
0.000158381
0.000106088
-1.40661e-05
-4.96648e-06
1.90321e-05
1.3851e-05
1.84043e-06
-7.27963e-06
5.43913e-06
-3.88812e-06
4.88496e-07
5.61881e-06
2.87745e-05
3.05058e-05
-5.92807e-05
0.000134495
-9.23012e-05
-3.44686e-07
1.58905e-06
-7.1826e-07
5.07408e-05
-4.92571e-05
-2.05073e-06
7.98417e-07
1.25236e-06
-3.16326e-05
6.04068e-05
-2.34606e-06
1.65937e-06
6.8622e-07
-5.79875e-06
2.95989e-06
-1.87393e-06
-1.08614e-06
-0.0020836
0.000896869
-0.00504405
0.00488546
0.000337552
0.000620256
0.000166497
-4.85216e-05
0.000386219
5.72765e-07
-1.19121e-06
1.6095e-06
-3.14408e-06
-1.39292e-06
1.07051e-06
1.45953e-06
-1.14888e-06
-3.10821e-07
5.38758e-07
-1.35214e-06
8.13274e-07
-3.1162e-06
1.94426e-05
-1.63264e-05
1.48155e-08
-1.11989e-06
3.13956e-07
8.05926e-07
-0.00151179
-0.000270783
-0.000163225
0.000175431
-1.22051e-05
-1.18328e-05
7.77914e-05
-6.59587e-05
5.34913e-05
-8.66563e-06
-4.48272e-05
-5.59941e-05
4.41622e-05
0.00054796
-0.000238929
-0.000309031
-1.71774e-06
-4.37571e-05
4.73473e-05
-1.71108e-05
1.63793e-05
5.36033e-06
9.71658e-07
-4.18822e-06
2.25059e-06
-1.21194e-06
-1.03867e-06
-5.61881e-06
-1.18249e-07
-1.39175e-06
1.50978e-06
6.99571e-06
-3.86424e-06
-3.13141e-06
9.15655e-05
0.000176218
-3.69488e-05
-0.000139216
0.000415163
-0.000649156
0.000233964
3.1003e-07
4.39848e-07
1.97044e-06
-9.6335e-06
0.000740985
-0.000462866
0.000337443
0.000569349
-0.000277818
-0.000291533
3.18707e-05
-1.81369e-05
1.17207e-07
1.38614e-05
-2.79278e-05
-1.58624e-06
4.00171e-07
3.17917e-06
3.81659e-06