/*--------------------------------*- C++ -*----------------------------------*\
| =========                 |                                                 |
| \\      /  F ield         | OpenFOAM: The Open Source CFD Toolbox           |
|  \\    /   O peration     | Version:  v2012                                 |
|   \\  /    A nd           | Website:  www.openfoam.com                      |
|    \\/     M anipulation  |                                                 |
\*---------------------------------------------------------------------------*/
FoamFile
{
    version     2.0;
    format      ascii;
    class       volScalarField;
    location    "200";
    object      p;
}
// * * * * * * * * * * * * * * * * * * * * * * * * * * * * * * * * * * * * * //

dimensions      [0 2 -2 0 0 0 0];


internalField   nonuniform List<scalar> 
14033
(
-0.019976
0.0152292
2.41267e-05
0.000731628
-2.00598e-05
-0.000274322
-0.000125439
0.00347452
0.000745583
0.0150954
-0.000239514
-0.0319848
-0.0021845
-0.00210407
-6.34602e-06
-0.0198692
-0.00583433
0.000383093
0.00059646
-0.00734263
-0.0165741
-0.0315745
-0.0303245
-1.86277e-05
-0.000172885
0.000639241
-0.042152
-0.0398818
-0.0424636
-0.0449971
-0.0104531
0.00335229
-0.0470051
-0.00929254
-0.00614146
0.000295186
-0.0702774
0.0133252
-4.89577e-05
-0.00452923
-0.00262274
-0.0161013
-2.20187e-05
-2.274e-05
-0.000148722
-2.5602e-05
-0.0616507
-0.000308477
-0.0418076
-0.0683543
-0.00186946
0.00039212
-0.0682244
-0.0455892
-0.00598152
-0.00240328
-0.0493069
0.0135332
-0.00923388
-0.0100247
-0.000186138
-0.0679477
-0.0231756
1.19988e-05
0.000458884
6.11646e-05
-0.0192224
-0.0406425
-0.000144047
-0.00516582
0.000471645
0.00259736
-0.0612959
-0.00582685
-0.017411
3.00712e-05
-0.000121493
-0.00511552
0.0133105
-0.0451487
-5.02045e-05
0.0116747
-0.0735004
0.00115011
3.61318e-05
0.00224579
0.00177931
-0.0436504
-0.0563238
-0.00705843
0.000795605
-4.60575e-05
0.00196
-0.0582933
-0.000141943
0.00700748
-0.002029
-2.14187e-05
-0.0722107
0.000722993
6.75246e-05
-0.000208376
-0.000142028
0.00145966
-0.0603485
-0.0448927
-0.0567441
0.00118251
-0.0400126
0.000330659
-0.0656902
-0.000200659
6.212e-05
0.000944775
0.000152926
4.42466e-05
-0.0477282
-1.79242e-05
-0.0583595
-0.0464078
0.000807085
-0.0282688
-0.105494
0.00147089
-0.0622458
0.00190669
0.000118266
0.00085006
-0.0519456
-0.000460307
-0.0654913
8.58244e-05
-1.21292e-05
-0.0737214
-0.0643502
-0.00555858
-0.0411671
0.000414884
-0.000509731
0.0018607
-0.0119074
-0.056294
-0.0352868
-0.0205765
-0.0402992
-6.37573e-05
0.000798898
-0.0294627
-0.070155
0.00540987
0.00761356
-0.0115829
0.000412323
0.00346681
-0.00024024
-0.0863547
0.00149365
0.000411448
0.00147249
-1.41628e-05
0.00164129
-0.0425213
-0.0737147
0.000701477
-0.0183247
0.000922448
-0.010606
-0.0249653
-0.0722445
-0.000249577
-0.020284
-0.0416763
-0.0316716
-0.104485
2.91692e-05
-0.000241281
-0.0472529
-0.0694985
-0.0312507
-0.0205508
-0.0194584
-0.0683072
-0.0100804
6.70106e-05
0.000290449
-0.0597591
-0.0816356
-0.000395129
-0.0677701
-0.0605481
-0.0573105
-0.0103082
0.0033247
-0.00043945
-0.0630647
-0.000545345
-0.0232267
-0.0564337
0.000767915
0.000250666
0.00127951
-0.0103945
0.000354562
-0.0203726
-0.0109386
0.000421964
-0.027711
-0.0499909
-0.0162522
0.000557449
-0.0518
-0.0490575
-0.0561554
-0.0625613
-4.95334e-05
0.00155372
0.000689288
-0.00196978
0.000285364
-0.00683445
-0.0158153
0.000159127
0.000170575
0.00154129
0.000676362
-0.00011231
-0.0296247
-0.0110913
0.00075815
-0.000127977
0.000147229
-0.0442468
0.000652918
-3.2514e-05
-0.00330489
-0.0799734
-0.0423649
-0.000115349
0.00077057
0.000798607
-0.104786
-0.00555368
0.000643544
7.64594e-05
-0.010972
-0.000106836
-0.0527819
-0.0965152
0.00153821
-0.000179334
0.000422832
-0.0569225
-0.000128357
-0.0561661
0.000763225
0.00663829
0.000797519
-7.16361e-06
-0.000126577
-0.0456624
-0.00017502
-0.00131682
0.00130577
-0.00602963
-0.0107026
-0.00177995
0.000707112
-0.04456
-0.00134744
-0.0567252
-0.00612348
-0.0778389
-4.52687e-05
-0.021126
-0.0561589
0.000766258
0.000181559
-0.0402792
0.00163912
-0.0460271
-0.0458071
0.000722463
0.00606339
-0.0185698
-0.0598902
0.00703659
-0.0606569
-0.000127956
0.0117395
-0.0583392
0.00193982
-0.0312545
-0.0345252
-0.00754167
-0.000348066
-7.45313e-05
0.000129101
0.000760114
-6.38326e-05
0.00192875
0.000136552
-0.0251415
0.00564648
-0.00763884
-0.0027839
-0.000816192
-0.00127889
7.57193e-05
-0.0517435
-0.00473152
-0.0406739
0.000776078
-0.0388075
-0.0359235
-0.0440834
-0.000376628
0.000553584
-0.00415223
0.000925825
-0.0573724
0.0116592
-0.043273
-0.00772686
-0.000258098
0.00705293
-0.0437028
-0.00796261
-0.000139662
-0.0594063
-0.0257939
0.000690628
0.00876199
-0.0633941
-0.0182571
-6.28439e-05
-0.0743165
-0.0413572
0.00195362
-0.0771255
-0.00553718
-0.0561146
-0.0358295
0.000771613
-0.0052714
9.32743e-05
-0.000261464
-0.0263702
-3.78403e-05
-0.00288911
-6.58224e-05
0.000107625
-0.00172896
-0.0553259
-0.0260015
0.00115977
-4.58413e-05
-0.00146132
-0.0840017
-0.000183024
0.00149141
0.00117425
-0.00015051
-0.105852
0.00247805
0.00199402
0.00303833
-7.10653e-05
-3.86216e-05
-0.00659076
-2.59624e-05
-0.00012024
-1.83489e-05
-2.62999e-06
-0.000568519
-0.0404046
0.00730077
-0.00733257
-0.011033
-0.00579887
-4.97677e-05
-0.000135291
0.00648425
-0.00011923
0.000311516
-0.0418848
0.000485857
-0.0650976
-0.00010423
-0.0189985
-0.0375392
9.7693e-05
-0.0563714
-0.0105263
0.00176039
0.00107863
0.0100082
-0.00654947
-0.0930986
-0.0305565
0.000331234
0.00299599
5.54077e-05
8.51532e-05
-0.00015572
0.00614174
0.000577346
-0.00245849
-4.24675e-05
-0.000184907
-0.0631102
-0.0853984
-0.0478722
0.000378599
0.00868606
-0.000151611
-0.0014412
-0.00015999
-0.00136652
-0.000352194
-0.103253
-0.0119705
0.00234651
-0.0260013
0.00279839
0.000638607
0.000155738
-0.00260688
-1.81923e-05
-0.0205394
0.00169871
0.00338534
-0.00432366
-0.00978544
-0.000878885
-0.000213425
0.00107129
-0.00670016
4.15213e-05
-0.0107258
-0.000812778
-0.0470359
-0.000104492
-0.00155856
2.24519e-05
0.00260823
0.000567988
-0.0259083
-0.0718717
-0.00159414
0.000933505
-0.0498178
-9.59135e-05
0.000272627
0.00169301
9.46952e-05
-0.0545295
0.00148889
0.000313708
1.68361e-06
-0.0220785
-0.0044598
-0.0648482
-0.040355
-0.0482213
-4.37186e-05
0.000509754
-0.00750816
0.000369057
-0.000119129
-0.0477255
-0.00678986
-0.0208205
0.00110711
0.00157877
-0.000240895
-0.0922083
0.00184774
-0.0476415
0.00165513
-0.0472811
0.00104694
-0.0527191
0.00167653
0.0016025
-0.0582028
2.69758e-05
-0.0745246
0.000455473
-0.0394074
0.000688058
-0.00314366
-0.0742695
-0.0549315
-0.0316244
0.0010899
-0.00709778
-0.0409327
0.00539239
-0.010219
0.00740376
-0.00126571
0.00322404
-0.0555339
0.000104687
-0.0300332
0.000124438
0.000713015
-0.0060707
0.000336832
-0.0384116
-4.83531e-05
0.000666767
-0.0515359
-0.000132294
0.00177529
-0.00592579
-0.0302311
2.10669e-05
0.00349033
-0.00103385
3.90014e-05
0.0010452
4.59528e-05
0.000178125
0.00160516
-0.00626074
-0.00382108
0.00153752
-0.00292183
-0.000493889
-0.00962629
0.00170899
-0.0860028
0.00119907
0.00018028
7.80371e-05
0.00100117
0.001025
0.000870775
-0.0478807
-0.00473537
-0.0551364
-6.46385e-05
0.0016392
0.000633087
-0.0107902
0.00687567
5.45479e-06
-0.0553803
0.00127685
-0.000155118
-0.0528149
-1.76942e-05
-3.68184e-06
0.0031243
-0.0402456
0.00116473
-0.0101525
-0.0255069
-0.0765844
-0.00806185
-0.0618798
-0.0198883
-0.00573643
-0.0174359
0.00365239
-0.0055208
-0.00591949
0.00245671
0.000917364
-0.0570521
-0.0545694
-0.0648637
0.000992836
-0.0502235
0.000790372
-0.0694249
-0.0527265
-0.01062
-0.0764736
-0.0173981
-0.00469079
-3.66357e-05
8.48364e-05
3.31814e-05
-0.0438823
-0.00348343
-0.042027
5.15017e-05
0.00205041
0.0150312
-0.0103364
-0.000147277
-0.000480917
-0.000147996
0.000813992
-1.33526e-05
-0.0515643
0.000218329
-0.00355737
0.000845835
-4.68439e-05
0.0015513
0.000954358
-0.0155557
-0.107578
-0.0401116
-0.0748685
-0.0381954
0.00112533
0.00291457
0.00336273
-0.00347611
0.0010345
0.000141099
0.000100332
-0.000134121
0.000570462
-0.0916997
-0.0595276
-0.0664247
0.000653241
0.00133498
-0.01597
-0.000105951
-0.0243769
0.000561349
-0.0149919
-0.00388682
-0.0278748
-2.10124e-05
-0.000146958
5.26769e-06
-0.0452305
-0.00507974
0.00390936
-5.52036e-05
-0.00446159
-0.0408946
3.25695e-05
-0.0378704
-0.000940279
-0.000237678
-0.0508719
-0.0433347
-0.0654773
-0.0387173
0.000774736
0.00071257
-7.94589e-05
-0.0183342
-0.00224769
-0.00550869
0.00198443
0.00218271
0.00682884
6.0762e-06
0.000651376
-0.0712009
2.82345e-05
-4.51542e-05
-0.000109943
0.00484818
-0.105151
-0.00576475
-0.0634312
-5.73551e-05
-0.00405704
-0.000153031
-9.71088e-05
-0.000170188
0.00231378
-0.00258442
-0.00473969
0.00108252
0.000742004
0.000739497
-0.0231919
-0.00117538
-0.000855166
-0.0617655
0.00651245
-1.45731e-05
0.000189067
-0.0429301
-0.000126091
-0.00103717
-0.0510285
-0.0428731
1.93721e-05
-0.0485772
0.00348962
-0.0725703
-0.0203288
0.00372805
-0.0738134
-0.0630647
-0.0482526
0.000447018
3.80697e-05
-0.0944702
0.000955147
-0.0375243
-0.00493947
-0.0126742
-0.00206604
0.000411905
-0.00269436
-0.000586734
0.00204617
-0.0586717
0.000529785
0.000558463
0.00041188
-0.0627758
-0.0125926
-0.00777575
0.000817577
0.000510603
-0.0164875
-0.000144399
-0.019525
-0.0274995
0.000420605
-0.0371276
-8.36529e-05
-0.0205913
-0.0254269
-0.00012629
-0.00140309
0.000730626
-0.0501413
-6.57259e-05
-0.00229506
-0.00614428
-0.00363271
0.00192136
0.000439856
-0.0886959
-0.0033031
-0.0768893
-0.0118709
-0.00014794
-0.0495713
-0.078559
0.000280332
-0.000101282
3.60725e-05
-0.057795
-0.0249226
-0.00384328
-0.00010136
0.000466886
-0.00406272
-0.0154518
-0.0627857
0.000105273
0.00361921
-0.0515085
-0.0775125
7.11677e-05
0.000580341
0.00692744
-0.00313884
-9.92234e-05
0.00174953
-0.0728428
0.000677289
-0.00484581
-0.0342262
0.000940886
-2.53335e-05
-0.00976377
0.00039052
0.0014989
-0.0187273
-0.0442341
-0.00420824
-0.000155284
0.00137316
-0.0128241
-0.00454158
-0.0797623
-6.62561e-05
0.000751697
6.97528e-05
-0.0752908
0.000244572
0.00313702
0.000435839
-0.074281
-0.00846554
-0.000101752
-0.0112335
-0.0694685
-0.000376746
-0.046182
-0.0564697
-0.0458488
-0.0453002
-0.0359244
-0.0538503
-0.0150015
-0.0454701
-0.00928247
-0.112497
0.000614524
-0.0880065
-0.00023169
-0.00384454
-0.00722808
-7.70617e-05
0.000432828
-0.0332661
-0.0029988
-9.64817e-05
-0.000364762
-0.0151586
-0.00214821
-0.0379486
-5.6493e-05
0.000121853
0.000363233
-0.00140555
0.00269077
-0.00208154
-0.0194066
5.80374e-05
-0.00688725
-0.00912603
2.27761e-06
0.0036004
-0.0581627
0.000907593
0.000157607
0.00372421
-0.107587
-0.00014048
-0.0721725
-5.18029e-05
0.00227146
-3.22651e-05
0.000664856
-0.0624496
-0.0338596
-0.0192811
-0.00532429
0.000289808
0.000634674
1.78138e-06
-0.00700063
0.000430012
0.0015622
-0.104892
-5.7656e-05
-0.000141043
-0.00191705
-0.00298374
-5.41282e-05
-0.0390858
-0.00029743
0.00130738
0.00349624
-0.0298096
0.000100374
0.000233642
-0.00133573
-0.0260227
-0.0068746
-0.0738388
-0.0067717
0.000169669
0.00158614
-0.106469
-0.00598592
-0.0140439
-0.0445976
-0.0848603
-0.0513463
-0.0372899
0.000601282
-0.0202709
-0.0748669
-0.0286491
-0.0199861
-0.0646927
-0.000499539
-3.61769e-05
3.13155e-05
-0.00609376
-0.0023044
-0.0165688
0.0017344
-0.00217072
-0.0212646
-0.000911276
0.00226507
-0.00123127
-0.0827916
-5.32394e-05
0.00137376
-0.0522571
-0.0499456
-8.88651e-05
-0.00117844
-1.41777e-05
0.0047451
-0.0551098
-0.00627411
0.00177333
-0.00197491
-9.18945e-05
0.0012744
-0.0038328
-0.00808019
-0.0086316
-6.09401e-05
0.00109262
0.00335495
0.000113519
1.70836e-05
-0.0570496
0.00380345
-0.00505662
0.00353228
-0.0508209
-0.00142013
-0.000137077
-0.000163178
0.00121395
0.000759303
-0.00402318
0.0106731
0.00135143
-0.0458948
0.000938712
-0.000135031
1.44135e-05
-1.48228e-05
0.000991355
-0.0451128
-0.040226
-0.0545091
-0.0145986
-0.010676
-0.0084371
1.71979e-05
-0.00253004
-0.0193729
-0.00359815
-0.0546454
-0.028063
0.000444083
-0.0040266
-3.50809e-05
-0.0613521
0.00019385
-0.000113183
-0.0736654
0.000386954
-0.0544254
2.69431e-05
0.000571053
-0.000316104
-0.000140099
-0.0525616
-0.0744181
-0.00499552
0.000826255
-0.0385677
0.000696744
-0.00014524
0.000556223
2.39033e-05
0.000869845
0.00102631
-0.000371835
0.00350698
-0.063248
-0.0639043
0.000458806
-0.0101746
8.29036e-05
0.000601956
-0.00530956
-0.00108258
-0.0251343
0.00148702
-0.00347533
0.00618258
0.00261605
0.000975113
0.00106595
0.000935573
-0.00014352
0.000483095
-0.0368857
-0.056583
0.00126294
-1.16578e-05
0.000523159
-6.24814e-05
-0.00042706
-2.06398e-05
0.00192618
-0.0610483
-0.0368917
0.000666241
-0.000194046
0.00255109
-0.0444491
-0.0498887
-0.0333619
-0.00215274
0.000377554
-0.00515795
-2.19962e-05
-0.000357813
-0.097391
0.00051821
-0.0166006
-0.0378591
-0.0372165
-0.0564194
0.00692867
-0.00612005
1.05444e-05
-0.0226874
-0.00273589
-0.00580103
-0.0504716
0.00108759
-0.0459598
0.000843664
0.00042394
-0.0614199
-0.0610908
-3.26442e-05
-0.0152204
0.00252525
-0.027254
2.98928e-05
-0.00913975
-0.000137399
-0.00895145
0.00414122
-0.0177836
-0.0509272
-0.0233347
0.000932753
0.000156305
0.000198829
-0.0936256
-0.00294634
-0.0192198
-0.0405387
-0.0488632
-0.0392489
-0.0233054
-0.0515236
-0.000243084
0.000544672
-0.000358949
-0.00019491
-0.00422572
0.000241388
-5.10303e-05
-0.00187593
-0.07349
-0.0591368
-0.00371277
0.00232241
0.000699646
-0.0536461
-0.00729627
-0.00988134
-0.0107548
-0.00125136
-0.00692754
-0.0194707
-0.0357179
0.00337517
-0.0364815
-0.076498
-0.0227893
-0.000808299
-0.00584232
-0.00162786
0.0042375
-0.0109795
0.00219456
0.000646464
-0.0223237
-0.0272831
-0.00188633
-0.00019565
-4.15361e-05
0.000522498
-0.0746547
-0.00360478
0.000875316
-8.44722e-05
-0.0012499
0.000161303
-0.0444071
-0.0729215
0.000508838
-0.000100778
0.00226292
-0.028428
-0.00011532
-0.0605092
0.00278274
-0.00893589
-0.0192061
-0.0509323
-0.0393136
-0.00380357
-0.00759705
0.00257408
-0.00134906
-0.0393728
-0.000331731
0.000765947
0.000927086
-5.91265e-05
-2.3671e-05
-0.0380194
-0.000111865
-0.0543218
-0.000410921
5.92297e-05
-0.0830179
0.000220273
0.00228495
-0.0648717
0.000338043
1.49283e-05
0.000890695
-0.0803495
0.000670167
-8.75827e-05
-0.0650874
5.63208e-05
-0.0430142
-5.57626e-05
-0.106228
-0.0195495
-0.0091436
0.000319596
-0.0214819
-0.000137062
-4.06951e-05
-0.07579
0.000311282
6.97444e-05
-4.26758e-05
0.00172828
-0.000682369
-2.73861e-05
0.000695895
-4.76849e-05
0.00145016
0.000191896
-0.0586239
-7.1002e-05
-6.48084e-06
0.000514089
0.00310718
-0.0341436
0.000176813
0.00172506
0.000572091
-0.0570778
-0.00181094
0.000229346
-2.61704e-05
0.000494792
-0.0798265
-0.0203459
-0.00881127
-0.0236392
-0.0286651
0.000702716
0.000873821
-8.21931e-06
0.00453904
0.000422975
-0.00210869
4.5902e-06
-0.023948
0.000568803
-0.0073915
-0.00328645
-9.10974e-05
0.000906225
0.00217583
-5.90907e-05
0.000717251
0.000327266
-0.0525114
0.00219808
-0.0464861
-0.00011997
-0.0600797
-5.57583e-05
-0.0679109
9.86889e-05
0.000434177
0.00219562
-0.0566382
0.000694657
-0.0540792
0.00107603
0.000553036
0.00461214
0.000222252
-9.29773e-05
0.000764351
-0.0269941
-0.000513457
0.00162004
0.00605257
-0.00373449
-0.00659273
-0.0188135
-0.0965825
-0.00429229
-0.0508813
0.00231844
-0.00124056
-0.0179474
0.000243673
0.000901742
9.11786e-05
-0.000178562
0.000382574
-0.00699541
0.00781919
0.00737911
-0.00641109
0.000581333
-0.000115498
-0.00419214
0.00450219
0.000556809
-6.45643e-05
-3.51449e-05
0.000294066
-0.0212936
0.000594895
-0.0789925
0.000230366
0.000641568
-8.14073e-05
-0.00137015
-0.0140113
0.000211658
-0.00997251
0.0034115
5.9856e-06
8.136e-06
0.00635428
-0.00649462
0.00314382
0.00245386
-0.00202942
-0.0187579
-0.0579144
0.000612255
-0.0487111
-0.0189744
-0.00232713
0.0049127
-0.00344476
0.0003038
-0.0347054
0.000662464
-0.0628728
-0.0558713
-0.00183028
0.00197188
-0.000121244
2.06932e-06
0.000223668
-0.0324757
0.00786948
0.000249816
0.00163014
-0.000580313
0.000287368
-0.0182721
-0.0300031
-0.0116488
0.00224549
3.33036e-05
-0.0521187
-0.0013514
-0.0465591
-0.0584844
-0.0643656
-0.0455677
-0.00367534
-0.067238
0.000659851
-0.000132774
-0.0515618
-0.0148782
-0.100932
0.000372985
-0.0893895
0.00150501
0.000278395
-0.0366747
0.00405672
-0.0297492
-0.0506263
-0.000134838
0.000240533
-1.39918e-05
-0.0574151
2.49074e-05
-0.0198374
0.000158855
2.34437e-05
-0.0774434
-0.0446229
0.00436071
-0.0065831
-0.00124667
-0.000139927
-3.4473e-05
0.000213745
-0.0246555
-0.000242151
9.66388e-05
-0.00473217
0.002724
0.000224088
0.0029522
-0.0722072
-0.0017451
-0.106708
-0.00294453
0.00171658
8.76618e-05
-6.12369e-05
0.000366183
0.00511068
-3.99368e-06
-0.00014464
0.00559278
0.00501946
-0.0172487
-0.0190145
-0.00037459
-0.0250196
-0.0366965
-0.0267669
-0.0046907
0.00243695
0.0117704
0.00328148
-0.0548029
-0.000147483
0.00168201
-0.0537842
-0.0973997
-0.0202092
-0.0374129
-7.79123e-05
-0.0158075
-3.05626e-05
-0.0234052
-0.000140373
-5.17553e-05
-0.0674192
-0.00261242
0.00181716
0.000958253
0.00074825
-0.0029751
-0.000206581
-0.0764894
-0.0339154
0.00138461
-0.0247502
-0.0123811
0.000763724
0.000492551
-0.0448614
-4.24729e-05
-0.0104825
0.000705508
0.000309253
0.00025801
0.000578776
-0.00390662
-0.00450344
-3.40116e-05
-0.0379212
0.00522258
0.0014091
-0.0228005
-0.0598903
-0.0296979
-0.0549991
-0.0359684
0.0081051
-5.84701e-05
-0.0048672
-0.0242301
-0.0470362
-1.75888e-05
-0.000654622
-0.000160589
-3.86578e-05
0.00104721
-0.000129668
0.0103762
-0.000113355
-0.00319357
-0.0915144
-0.0381913
-0.0220671
-0.0495265
0.00109209
-0.047208
-0.0349946
1.977e-05
0.00085803
-0.00875284
0.00110867
-0.0389742
0.000319544
-0.05014
3.58485e-05
-0.0577773
-1.08386e-05
-0.0530712
-0.0535478
-0.00796323
-0.00040644
-0.0714681
-0.000218366
-0.0724817
-0.0341696
0.00149084
-0.00298022
-0.00104645
-8.53174e-06
-0.0543865
0.00124255
-0.000104132
-0.0562653
0.00467144
0.000877125
0.000643138
-0.000765326
-0.000118428
0.00158658
0.00179626
-0.00383748
-0.0150971
0.000884801
0.000255087
-0.00596521
0.00298318
-0.0620392
0.00149329
0.000477037
-0.0508149
-0.0388846
0.00161295
-0.0559841
-0.0211596
-0.0312378
-0.000824283
-0.0156746
-0.0586948
-4.80574e-05
-0.000330513
-0.00669239
-0.00429849
-0.0749064
-0.0500784
-0.00735719
-0.0505571
-5.22261e-05
-0.00148106
-0.0457377
0.000687695
-0.0146996
-0.00225679
-0.00135455
0.00508069
-0.0195248
-0.00294801
-0.0744968
-0.0732085
-0.000858723
-0.0241134
0.000488075
0.00017056
-0.0289381
-0.00829849
-0.00108858
0.00413017
-0.0116195
-0.0442508
-0.000440843
-0.0059539
-0.0374086
-0.000300077
-0.00992216
-0.0211782
0.00176743
-0.0465523
0.000965088
0.00130591
-0.0437701
-0.000845266
-0.00445419
-3.37257e-05
-0.000636427
-0.0171275
-0.00129263
3.62828e-05
5.96116e-05
0.0016046
0.000764898
-0.0564694
-4.38248e-05
-0.0077754
-0.0257799
-4.82714e-05
-0.000108461
-0.0409133
-0.0178787
-0.0536656
-0.0182206
-0.0349878
-0.00407745
-0.0633829
-0.067551
-4.40781e-05
-0.0672489
-0.00499301
-0.00543696
-0.0507506
0.0012399
0.00382972
-0.045009
0.00153209
-0.0174237
-0.0266225
0.0010978
0.00049118
-5.96218e-05
0.000252096
-0.00640674
0.000642558
-0.0482769
-0.000457274
-0.0556372
0.000357274
-0.00107274
-0.0394492
0.00172959
-0.00473394
-0.0537056
-0.000159758
-0.0622194
-0.062247
0.00206237
-0.060477
0.000893872
0.00610269
-0.0973511
-0.0238694
0.00282426
-7.83429e-05
-0.000318882
-0.00123367
-0.0732446
-0.00934428
0.000813339
-0.0366371
0.000270637
0.000231012
-0.0585869
6.20916e-05
-4.22111e-05
0.000697079
-0.000169806
0.00475707
0.00026945
-0.0104979
-0.000522481
0.000455758
-0.0532351
-0.0500749
0.000784982
0.00940017
-0.00439019
-0.0397365
0.00822575
0.00075644
-0.00704109
-0.0582504
-0.0521681
-0.0621442
0.0100967
-0.000165172
-6.93471e-05
0.000390753
-0.0178715
0.00195029
-0.0439442
0.000685716
-0.00156173
-0.000135637
-0.0505266
-0.0128666
-0.0607016
-0.0186085
-0.0314815
0.00086264
-0.0324935
-0.00414703
-0.00418363
-4.1283e-05
-0.0737677
0.000340107
0.000346971
-0.0238236
-0.0106706
-0.00648563
-4.93573e-05
-0.0199655
-0.0516437
-0.05456
0.0010531
-0.0806599
-0.000440045
0.000521255
-4.68201e-05
0.00159375
0.0068109
-0.0459225
0.00094596
-0.0502618
0.00365713
-0.0142749
-0.072059
-0.0612522
-0.041621
-0.0177067
0.00103963
0.000239148
-3.49603e-05
0.000519702
-0.0625237
-0.0495994
0.000264143
-0.0400139
0.000336715
-0.00022406
-0.0511377
-0.00312146
-0.00095901
-0.0314498
0.00111394
0.00821782
0.000455527
0.00415832
-0.00956298
-0.033733
-0.049599
-0.0508614
0.000646957
0.00961006
-3.07086e-05
-0.00175226
-0.0315841
-0.0015688
0.00836864
0.00124529
0.00521502
5.19563e-05
-0.0051502
6.04562e-06
-0.0339954
-0.0556158
0.000282147
-0.0265367
-0.00518718
3.8296e-05
-0.0426782
-0.0332231
0.000847457
-0.0434131
-0.0423544
-0.0353825
-0.000150739
-0.0421175
-0.0522125
-0.00956552
-0.0464373
0.00107183
0.00100884
-0.062417
0.00068124
-0.0166727
-0.0487075
-0.0289002
-9.11056e-05
0.00461317
0.00413557
-0.104871
0.000426321
0.00093259
-0.0257566
0.00064863
-0.000264585
0.000837588
-0.0610966
0.0029
-0.000145858
-0.00993853
0.00138847
-0.106932
0.000553357
-0.0277963
-0.000498942
-0.0343551
0.00189564
-0.0959154
-0.000249559
0.0007936
-0.0505901
0.0011024
0.0112486
-0.000340731
-0.0102999
0.00022561
0.000675216
0.00113701
0.000810029
6.24081e-05
-0.0251851
-0.0662615
0.000385755
-0.0329044
-0.0521295
-0.000151602
-0.0165425
0.000220954
-0.00442096
-0.00922772
-0.00109853
-0.00518273
-0.0541592
3.34052e-05
-0.074244
0.000749737
0.00303368
0.00190257
0.000688816
0.000765572
-0.00514117
-0.00310757
0.00120539
9.23547e-05
-0.000886339
0.000188273
-0.050589
0.000624089
0.00539679
-0.000112946
-0.0656287
-0.106022
-0.050952
-0.0027261
-8.29477e-05
0.00122684
0.00663545
0.000666137
-0.0705147
-0.000205103
-0.00492458
-0.00158233
0.00129637
-3.86151e-05
0.00099185
-0.106904
0.00108121
0.000537266
-0.0678258
-0.00316044
-0.0559158
-3.67499e-05
-0.0946443
-0.0543774
-0.0172875
7.53077e-05
-0.00446003
-0.0488785
0.000514383
-0.0160717
0.000200049
0.00266827
-0.00018213
-0.00736199
-0.0532255
-0.000181057
0.000103295
-0.00359152
-0.00402707
-0.0192358
0.00265777
-0.00102789
-0.022128
-0.0320793
-0.000353516
-0.0412653
-0.010333
-0.0309089
-0.000162595
9.01751e-05
-8.03373e-05
0.000981768
-0.00103417
0.00329677
-0.0251256
0.00487922
-0.0438581
-0.00555494
-0.01917
-0.0155948
-3.72336e-05
-0.000156429
-2.98724e-05
-0.00011112
-0.0376729
-0.000145408
-0.00253545
-4.14455e-05
-0.000742443
-0.107947
-0.0659499
-9.39537e-05
-0.0543676
-9.4032e-05
-0.00768612
0.000162354
-0.0500421
0.00451409
0.00190641
0.00317921
0.000966329
-0.0413856
-2.64311e-05
-0.000118879
-0.000208556
-0.0513529
0.00538005
0.000764803
-0.0569976
-0.0171355
0.000905407
-0.00357201
0.00309817
0.000387866
-0.0267761
-0.0538352
-0.001135
-0.0307874
0.00332994
0.000245075
-0.000139134
-0.0532897
4.22605e-05
0.000901911
0.00167248
-0.000163899
-0.00243104
-3.87874e-05
-0.000251437
-0.0499212
0.00107106
-0.00143268
2.55891e-05
-4.7201e-05
0.00419649
-0.000243648
0.000718999
-0.0392965
-0.00336296
0.000758724
0.00151417
-0.0797965
-0.000133839
0.000755084
-0.0674384
-0.0255233
-0.000771563
-0.0263548
-0.000136904
-0.00294668
-0.00470652
-0.00671334
-0.00415932
-0.0577094
-0.000356622
-0.00727298
-0.018952
0.00400448
0.000151755
-0.0156628
0.00103261
-0.000668411
-0.096477
-0.000145125
-0.0418598
-0.00701805
0.000467934
0.000549877
0.000945402
-0.000108916
0.00105585
-0.000212937
-0.0706255
-0.0639037
0.000892574
-0.000895765
0.00163289
-3.75394e-05
-0.000166337
-4.71643e-05
0.000748851
0.00448886
0.00209999
0.00105664
-7.51417e-05
-6.26609e-05
-0.0328498
-0.0570257
-0.0689542
-0.000192167
-0.0705529
-0.0524741
0.000504919
-0.056378
-1.91152e-05
-0.036737
-0.0707217
-0.0655241
-0.00183409
-0.0657837
0.00423631
-0.0404257
-0.107928
-0.000145746
-0.0044329
0.00104104
0.000681203
-7.63016e-05
-0.0507593
-0.0540066
-4.91282e-05
-4.66037e-05
-0.0510042
-0.0538639
0.000110032
-0.00899641
0.000153699
-0.00880844
-0.00567498
-0.000914556
-0.0583169
-0.0404403
-0.0265271
-0.0657304
-0.00939805
-0.074517
-0.0229222
-0.056826
-0.0154693
-0.0473394
-0.0146069
-0.0667851
-0.00410681
0.000599616
0.000454053
-0.000163378
-0.0491339
0.000665156
-0.00387836
-0.00273621
-0.0101861
0.00188173
-0.0116284
0.000525808
0.000278835
-0.000283378
0.00418217
-0.0934499
-0.000206808
-0.00297399
-0.00436562
-0.00470599
0.00173197
0.000372137
-0.0468178
0.000226354
-0.0100976
0.00119265
0.000391678
-0.0787791
-0.00112595
0.000371487
-0.000162537
-0.00306077
-0.00348422
0.000705765
-0.00276841
1.76065e-05
-0.00812933
-0.0107983
0.0010423
-0.00106744
-0.065621
0.00125412
-0.0346833
-7.96168e-05
0.00120579
-0.0428848
-0.0570127
0.000349102
0.0110747
-0.000157875
0.000203936
-0.00232039
0.00475403
-0.000233857
0.00155348
-0.0689079
0.000684646
-0.0579694
-9.43545e-05
0.000693106
-0.00982816
-0.00595303
0.00113114
-0.0585682
-0.010234
-0.0321925
-0.0629998
0.000787713
0.000650621
-0.00540452
0.000248415
-0.000250197
-0.03182
0.00408195
0.00218145
0.000106719
8.91013e-05
-0.0919667
-0.000195544
-0.0663941
-0.0511417
-0.000138233
-0.00440706
-0.0326119
-0.000536357
0.000282609
-0.026506
-0.0458689
-1.5661e-05
0.00359795
-0.000375785
-0.0246893
-0.00497664
-4.30892e-05
-8.10458e-05
-0.00408833
-0.000204262
0.00147931
0.00100169
-0.101867
0.00293211
0.000315334
-0.0513094
0.000912823
-0.0488998
-0.0166326
-0.0688225
0.000730153
-0.0491664
-0.00057405
-0.000253383
-0.076787
-0.00070911
-0.0795895
0.000807759
-0.0171095
0.00713992
-0.000162517
0.000417252
-0.0401464
-0.0110234
-3.49284e-05
-0.00382336
0.00330476
-0.0421666
-0.0281513
0.000567412
0.00181985
-0.0176715
0.000424531
0.000926809
-0.00253429
0.000709042
-8.3494e-05
-0.0373113
-0.00177507
-0.000871355
-0.068187
-0.0542109
0.000231513
-0.000925706
0.000984872
-0.0399953
-0.0764298
0.000142225
-0.0522725
-0.0858017
-0.00714818
-0.00594876
0.000703124
-0.0106734
-0.000236052
-0.069625
0.00158565
-0.00990165
-0.0334386
-0.0134944
-0.00105867
-0.00119587
0.00144882
0.00495464
-0.0553622
0.00729624
0.000854834
-5.56786e-05
-0.0565211
-2.98014e-05
0.000527192
-0.0052408
0.000902617
-0.0582634
-0.000171746
-0.0707995
-0.000157591
-0.0009655
-0.0423246
0.00130883
0.00079687
-0.00776324
-0.00547123
-0.0182552
0.000913528
-0.06905
-0.0545453
-0.00588336
-0.0363392
-0.0682159
-0.000139766
-0.0182593
-0.0257882
0.0061737
-0.0241961
-0.0690609
-0.00109327
-0.000607964
0.00166125
0.00125767
-0.0523819
-0.0678647
0.00216721
-0.0665762
-0.000441333
-0.0631843
-0.048716
0.00110885
-7.55229e-05
-0.00580899
-2.46115e-05
0.000827721
0.000832461
-0.000274149
-0.0644371
-0.0876396
-0.00534031
-0.0419474
0.000284008
-0.0701934
-0.0356544
-0.064846
-0.000972528
-0.016931
0.00131808
-0.0622429
-0.00435946
-0.00522421
-7.68858e-05
-0.000150359
0.00456239
-0.0367442
-0.0687437
0.00110141
-0.000830431
-0.0057095
-3.77443e-05
0.000369373
0.000457871
0.000761799
0.0016559
-5.28464e-05
0.00120476
-0.103462
-0.0508066
-0.00953459
0.000688214
-0.010539
-0.0429893
-0.0143539
-0.0180625
-3.30686e-05
0.000242293
-0.0258085
-0.0448313
-0.059929
-0.0584412
0.0076733
0.00108044
-0.0521835
0.000795247
-0.0719749
-0.0323169
-0.0417006
-0.0807124
-0.00227591
-0.0357171
-0.0717282
-0.0626567
-0.0158029
-0.0633013
-0.00381556
-0.00125959
-0.0470399
-0.0123591
-0.0314604
-0.00514914
4.79487e-06
0.000672282
-0.0161143
-0.00021827
-0.0703102
-0.00156292
-8.33042e-05
-0.0305794
-4.45273e-05
0.000592837
0.000629632
-0.00861944
-0.00350598
-0.00661714
0.000973012
-4.11258e-05
-0.0359439
0.00142092
0.00100848
-0.0168053
-0.0318066
-0.0583114
-0.00969744
-0.066936
0.000746766
-0.0609485
-0.0577654
-0.0228538
-0.060993
-0.0366744
-0.000673647
0.000594637
-0.049776
-0.00149944
-0.0397344
-0.0754645
0.000976742
-0.000201779
-0.000878116
0.000688642
-0.0493708
-0.0164021
-0.00161399
-0.0268013
0.00113472
-0.0503388
-0.000599428
-0.0310538
0.0116161
-0.00657907
-0.0688959
-0.0350317
-0.0568969
-0.0171447
-0.0161349
-0.0151383
0.00166076
-4.77477e-05
0.000870981
-0.00565393
0.0010536
-0.0334151
0.000656403
0.00865151
-0.0238652
-0.00999503
0.000633357
-0.00416803
-0.00643382
0.000753679
-0.0595861
-0.00446769
-0.00481243
-0.0373412
-0.050158
-0.0168781
0.000298569
-0.0395754
-0.0631247
-0.0448881
-0.0586254
0.000476998
0.000839197
0.00189657
-0.058597
0.000972393
-0.0824454
0.000521293
-0.0334628
-0.00695087
-0.00415915
0.000692231
-0.00546656
-0.0257204
0.000866066
0.00070746
0.00103076
-0.0157044
-0.0568489
-0.0133165
0.000578831
-0.0666187
-0.00667691
0.000592648
-7.52857e-05
-0.013807
-0.0721348
-0.00216038
0.00109843
-0.0909732
-0.0456608
-0.0365219
-0.000208956
-0.00149212
-0.0263742
-0.00497654
-0.000441701
-0.0359159
-0.0613951
0.0015583
0.000638006
-0.0168248
-0.0618497
-0.0243505
-0.0496718
0.00104213
0.000617563
0.00235764
0.000244891
0.00146362
-0.00365105
-0.0624893
0.000322148
-0.0597303
0.000441717
0.0014857
-0.000248953
-0.0162844
-0.0664942
-0.0366862
-0.0477553
-0.0577732
-0.0052973
-0.0279955
0.00236515
0.00420996
-0.000258282
-0.0484394
-0.00461133
-0.105098
-0.0262694
-0.0233127
-0.00627013
-0.0558825
-0.0525476
-0.0901019
0.000337408
-0.00508429
-0.0429816
-0.0595138
0.0016193
-6.37592e-05
-0.054956
-0.0374647
-0.0685713
0.00220826
-0.044324
0.00124403
-0.000122122
0.000344827
-0.0493491
-0.0723374
-0.0597603
-0.000953926
-0.0484548
0.00346706
-0.0135273
-0.00557876
-0.00674438
0.000682308
-0.0386083
-0.040861
-0.0397458
-0.0419291
-0.042926
-0.0437714
-0.0154493
-0.00565343
-0.00514766
-0.0362829
-0.0513224
0.00158073
0.00200817
0.000797833
-0.016456
-0.00133537
0.000816175
-0.063332
0.00660026
-0.0219195
-0.000102061
-0.0683185
-0.037709
-0.0116719
-0.0348585
-0.068316
-0.0361599
-0.0647308
0.000417617
-0.00601446
-0.00526164
-0.00611457
-0.000376287
-0.000411963
0.00041725
-0.026993
-0.000794231
-0.043404
0.000133315
0.00246205
-0.0672073
-0.0513521
-0.0041912
-0.00597557
-0.0502275
-0.00928451
0.0012509
-0.000952804
-0.00540939
-0.00461064
-0.0653212
-0.0762201
-0.000978885
-0.0505316
0.00131866
0.0013479
-0.0475029
-0.0107864
-0.0613755
-0.00697045
-0.0365829
-0.00608115
-0.0389558
0.000602488
-0.01206
-0.0515477
-0.0497394
-0.0639826
7.17213e-05
-0.0433832
-0.0597225
-0.0374933
-0.0385627
-0.0790098
-0.0551892
-0.0511103
-0.0276014
-0.00069725
-0.0683245
-0.0243085
-0.0323659
-0.0618593
-0.000187715