/*--------------------------------*- C++ -*----------------------------------*\
| =========                 |                                                 |
| \\      /  F ield         | OpenFOAM: The Open Source CFD Toolbox           |
|  \\    /   O peration     | Version:  v2012                                 |
|   \\  /    A nd           | Website:  www.openfoam.com                      |
|    \\/     M anipulation  |                                                 |
\*---------------------------------------------------------------------------*/
FoamFile
{
    version     2.0;
    format      ascii;
    class       surfaceScalarField;
    location    "200";
    object      phi_0;
}
// * * * * * * * * * * * * * * * * * * * * * * * * * * * * * * * * * * * * * //

dimensions      [0 3 -1 0 0 0 0];
oriented        oriented;


internalField   nonuniform List<scalar> 
20823
(
0.12989
0.0268577
-0.156748
0.256655
-0.162291
-0.0943636
0.668115
-0.092996
-0.575119
0.602525
-0.119588
-0.482937
0.614081
-0.0529434
-0.561138
0.506646
-0.377155
-0.129491
-0.476004
0.324425
0.284124
0.103758
-0.387882
0.55072
0.0518049
0.147017
-0.0072909
-0.139726
0.633251
-0.565058
-0.0681926
-0.148251
0.149963
-0.00171227
0.209462
-0.340809
0.131347
-0.133137
0.3426
-0.728277
0.423323
0.304954
0.139726
-0.215882
0.0761568
-0.319551
0.204148
0.115403
-0.0300165
0.0823615
-0.052345
0.356278
0.00307324
-0.359351
-0.188467
0.312432
-0.123965
-0.107522
0.196033
-0.0885105
-0.0100359
-0.138215
-0.0206648
0.134852
-0.114188
0.0396082
0.574473
0.487544
0.145708
-0.0932009
0.449479
0.11862
-0.118947
0.000326393
0.119404
0.107683
-0.127407
0.0197238
0.0168644
0.0883205
0.149156
-0.199748
0.0505914
0.391735
-0.107611
0.125758
-0.0946578
-0.0311007
-0.0205488
0.156859
-0.13631
-0.135186
0.200586
-0.0653993
-0.539208
-0.0721746
0.611382
-0.087899
0.0681725
0.0197265
0.161731
-0.0147137
-0.25037
0.694049
-0.443679
-0.0492944
0.301973
-0.252678
0.0832157
-0.132397
0.0491808
-0.224803
0.117281
0.792014
-0.407107
-0.384907
0.70081
-0.261847
-0.438963
0.75306
-0.337191
-0.415869
0.356026
0.435988
0.0509716
-0.0474132
-0.00355846
0.409682
0.0969645
-0.154262
0.0909443
0.0633182
0.115622
-0.0708411
-0.0447811
-0.137197
-0.220741
0.357937
-0.00406707
-0.527581
0.531648
-0.0900264
0.0288568
0.0611697
0.128
-0.0893111
-0.0386888
-0.194415
-0.125136
-0.239383
-0.101426
0.0633266
-0.0946854
0.0313588
0.0739095
-0.149107
0.0751974
0.126931
-0.14748
-0.055979
0.205135
-0.627229
0.496296
0.130933
0.0312616
0.0843605
-0.10753
-0.0401778
0.147708
-0.408605
-0.179418
0.588023
0.403787
-0.650043
0.246256
-0.47492
-0.0960117
0.570932
-0.0375148
0.167405
-0.0544199
0.103042
-0.0486226
0.601196
-0.491708
-0.109488
0.0418547
-0.241185
0.19933
0.461732
-0.667068
0.205336
-0.637175
0.274305
0.36287
0.0528475
-0.00187589
0.166628
0.167969
-0.334597
0.179437
0.0335699
0.608662
-0.172111
-0.43655
-0.0889667
-0.277574
0.36654
0.217296
-0.175441
-0.0839389
0.114009
-0.0906214
0.0988634
-0.00824202
-0.771764
0.357946
0.413818
-0.10389
0.0199514
-0.0479641
-0.0420623
-0.336146
-0.151866
0.488012
0.0407839
-0.534305
0.493521
0.464257
-0.66767
0.203412
-0.441267
0.334805
0.106461
0.0392631
0.0887368
-0.00645308
0.046177
-0.039724
0.0677942
-0.256261
0.492908
-0.622308
0.1294
-0.415738
0.579181
-0.302847
-0.276335
0.0104845
0.0554742
-0.0659586
0.463135
0.138061
0.0865483
-0.325517
0.238969
-0.304556
0.167359
-0.0120498
0.680165
0.00594729
0.0713989
-0.0773462
-0.135217
-0.383618
0.518834
0.0720125
-0.546933
0.492761
-0.0830794
0.670751
-0.207617
0.0871212
0.349704
-0.436826
-0.00729976
0.052884
-0.0455842
0.0866436
0.0325494
-0.119193
-0.0500521
0.043599
-0.467255
0.131109
0.0709807
-0.125401
-0.708926
0.506129
0.202797
-0.00432999
-0.0450897
0.0494197
-0.594502
0.0375377
0.556964
-0.404672
0.445456
0.176478
0.30386
-0.480338
-0.594502
-0.374125
0.285158
0.0957035
-0.021459
-0.0742445
-0.124668
0.555709
-0.431042
-0.0769844
0.0874689
0.0249854
0.100773
0.618202
-0.507388
-0.110813
0.118396
-0.147703
0.0293068
-0.00258949
-0.00160019
0.00418968
0.425625
-0.260604
-0.165021
-0.000563802
0.0771655
-0.0766017
0.22869
0.350492
-0.517698
0.654221
-0.136523
0.46982
-0.293342
0.00335521
0.0296407
-0.0329959
-0.491743
0.29859
0.193153
0.0410442
0.0118034
-0.481326
-0.106825
0.588152
-0.329142
-0.262749
0.591891
0.0562122
0.0184843
-0.0746965
0.0506025
-0.00955831
0.0647465
-0.24569
0.180943
0.115364
-0.102662
-0.0127026
0.571408
-0.167621
-0.317516
-0.174226
-0.491203
0.172037
0.319167
0.0730994
0.101039
-0.174139
-0.00999749
0.076665
-0.0666675
-0.0119615
-0.115883
0.127844
-0.223082
0.168476
0.054606
0.132826
-0.0251422
0.326842
0.426218
0.611699
0.00650252
0.0113778
0.125969
-0.137346
-0.0566373
-0.111846
0.193536
-0.0816891
0.323097
-0.236549
0.208549
-0.13545
0.577536
-0.115803
0.290651
0.101084
0.355501
0.13726
0.00370678
0.0380104
-0.0417172
0.0164606
0.321982
-0.338442
-0.275908
-0.353762
0.62967
-0.389319
0.40578
-0.335114
-0.275005
0.610119
0.239836
0.0873077
-0.327143
0.113614
0.00500658
-0.0647625
0.0718533
-0.00709074
0.521659
-0.482396
-0.0392629
-0.163803
-0.0341073
0.197911
-0.256219
-0.333073
0.589291
-0.0873239
-0.123183
0.210507
-0.0230715
-0.127846
0.150917
0.0271691
0.00285623
-0.0300253
-0.034476
-0.314092
0.348568
0.170968
-0.0312422
0.097114
0.0182504
0.111057
0.0389057
0.0307136
-0.00631146
-0.0244022
0.436541
0.172121
-0.361804
0.327328
-0.0773859
-0.0209182
0.098304
-0.0319454
0.000351671
0.0315937
0.137427
-0.0263702
-0.0745683
-0.148514
-0.125065
-0.0513258
0.176391
-0.0336653
0.00171995
0.047081
-0.21463
0.167549
-0.0875535
-0.396362
0.483916
-0.510738
-0.198188
0.0526689
-0.0482305
-0.00443838
0.068466
-0.0113228
-0.0571432
-0.490089
0.330103
0.159986
0.0319837
-0.0295076
-0.00247613
-0.0515506
0.0442509
-0.0922247
0.00466893
0.0875558
-0.135721
0.235362
-0.0996413
0.384999
-0.094348
-0.186861
-0.303228
0.0753675
-0.0843618
0.00899434
-0.079904
-0.0681097
0.148014
0.049098
-0.156628
0.0391172
-0.00204445
-0.0370727
0.326055
0.224665
-0.634497
0.132208
0.502288
0.0522102
0.340708
-0.392918
-0.226626
0.0909055
-0.47753
0.497226
-0.0196967
-0.16258
0.121225
0.0938779
0.144407
-0.026011
-0.00583144
0.069158
-0.128676
-0.096126
0.404082
-0.544925
0.140843
-0.027319
0.0306742
-0.0446745
-0.0500109
-0.0727268
0.0783245
-0.00559769
0.082694
-0.00732647
0.597985
-0.205341
-0.392644
0.324868
-0.0850323
-0.258219
0.63833
-0.38011
-0.541963
0.0571719
0.484791
-0.621369
0.0821616
0.17777
-0.033635
-0.144135
-0.21681
0.0881338
-0.0514527
0.437374
-0.385921
0.427583
-0.479035
0.199218
0.226407
0.151853
-0.474049
0.322195
-0.67588
0.471075
0.204805
-0.134397
0.113732
0.14268
0.0776285
-0.220309
0.509517
-0.183462
-0.750607
0.285635
0.464972
-0.639848
0.476761
0.163087
-0.0156924
0.102336
0.309463
0.122122
-0.431585
-0.506184
0.381517
-0.155979
-0.385984
-0.00249228
0.0709583
-0.0733802
-0.0808823
0.738403
-0.319037
-0.419366
0.387833
-0.505792
0.11796
0.551282
-0.533335
-0.0179473
0.00383477
-0.176438
0.429782
0.186547
-0.616329
0.154131
-0.635458
-0.0839461
0.330679
0.407724
0.0388962
-0.0509083
0.0120121
0.00949152
0.0212221
0.412802
-0.309418
-0.103383
-0.486768
0.621801
-0.135032
-0.0578581
-0.366889
0.424747
-0.0331973
0.0334225
-0.0002252
0.637495
-0.492058
-0.145437
0.00546409
-0.0781909
0.361
0.148517
-0.224985
0.243027
-0.0180412
0.504635
0.0466477
-0.431049
0.138324
0.292725
-0.547722
0.67258
-0.124858
-0.13026
0.0238841
0.106376
0.571162
-0.513905
-0.0572565
0.0715028
-0.101519
0.469189
0.0496384
-0.518828
0.00469445
0.173076
-0.241366
0.056986
0.18438
0.607365
-0.550193
-0.147137
0.456599
-0.0888646
-0.00175684
0.0576257
0.549739
0.00466375
0.0344534
-0.0686541
0.235282
0.0628584
-0.0653392
0.00248072
0.185587
0.515223
0.0809765
0.0920469
-0.173023
0.115899
-0.0449427
-0.0709561
0.512859
-0.125026
-0.303038
-0.33681
0.0217191
0.097685
0.126268
0.286534
-0.116673
0.0247558
0.0919176
0.108174
-0.0756247
0.578315
-0.442877
-0.135438
0.308248
-0.199179
-0.109069
0.131049
-0.220948
0.0898989
-0.00576111
0.0377449
0.0673147
-0.179161
0.0054708
0.0897731
0.112481
-0.0385713
-0.0917301
-0.000494595
-0.262514
-0.116088
-0.0164164
0.132505
0.117401
-0.129363
-0.170201
0.0350142
0.0919917
-0.383391
0.2914
-0.056203
-0.432411
0.488614
-0.0252042
0.43462
-0.409416
-0.144792
-0.453835
0.397632
0.413824
-0.241487
-0.172337
0.41217
0.110717
0.0144992
-0.125216
-0.208538
-0.168596
-0.0971536
0.26575
0.163205
-0.250915
0.0877108
0.613122
-0.555497
-0.265693
0.385761
-0.120068
-0.465542
0.377989
0.0477182
-0.00882201
-0.107648
-0.199513
0.307161
0.106831
0.0127521
-0.119583
0.632859
-0.128224
-0.130282
-0.00606213
0.136344
-0.138893
0.0230105
-0.0833812
-0.0440258
0.050146
0.562976
0.568966
-0.076058
0.261592
-0.175152
-0.0864405
-0.324727
0.14607
0.178657
-0.0305627
0.0362286
-0.00566587
0.103376
0.153279
0.0910752
-0.106768
-0.0520511
-0.180921
0.232972
-0.140846
-0.486383
0.3154
-0.057472
-0.257928
0.118194
-0.0789307
-0.254182
0.085586
0.191532
0.479219
-0.0447004
-0.00685021
0.105833
-0.178066
0.0722332
-0.200492
-0.124234
-0.0708254
0.11933
-0.0714092
-0.00338756
0.0747967
-0.00904298
-0.15476
-0.538724
-0.0120124
0.550736
-0.0674737
0.00271114
-0.110719
0.00805678
0.248054
0.16577
-0.0681021
0.0633801
0.004722
0.174633
-0.269784
0.0951509
-0.0322139
-0.000983369
0.12052
-0.110351
-0.0101686
0.146247
0.486612
-0.11302
0.287653
-0.399059
0.520257
-0.121198
-0.137214
0.624758
-0.056394
-0.0595401
0.115934
0.335643
0.114822
-0.450465
0.1369
-0.0536845
-0.102638
-0.373366
0.0488163
0.385803
0.320721
0.0232785
-0.344
0.0419171
0.00425994
0.170651
-0.0648185
-0.336077
-0.0690579
0.405135
-0.614029
0.36366
-0.386608
0.120915
-0.0581875
-0.00478275
0.0629702
-0.484348
-0.302198
0.0619803
-0.398057
0.585033
-0.534887
0.00124528
0.109653
0.235784
-0.345438
0.551437
-0.0871794
0.132476
0.128816
-0.261293
0.0473199
0.537713
0.0850477
0.515435
-0.600483
0.239486
-0.0360263
-0.20346
-0.0569521
0.454297
-0.397345
-0.604509
0.466635
0.137875
-0.45813
0.401178
0.578392
-0.578392
-0.0174952
0.316085
0.101164
0.00566682
-0.130206
0.0593803
-0.00319343
0.177665
-0.174472
0.135198
0.149849
-0.0777402
-0.0776527
0.155393
0.417788
0.203282
-0.62107
-0.689798
0.523513
0.166285
-0.198077
0.280033
-0.0819558
-0.309453
-0.121596
0.130045
-0.529104
0.0342768
0.0839169
0.293503
-0.425813
0.13231
0.0455361
-0.0498661
-0.673963
0.354926
0.20455
-0.0735008
-0.0846127
-0.0321389
0.116752
-0.416726
-0.0328153
0.00225259
0.267842
-0.220747
-0.0470941
0.190893
0.133975
0.484469
-0.0152802
-0.0695624
0.204019
-0.113226
-0.090793
0.0451855
-0.035694
-0.0217483
0.13247
-0.110722
0.104578
-0.40578
0.301202
-0.474408
0.35224
0.122169
0.417476
-0.279152
0.450708
-0.612024
0.161316
0.469826
-0.621221
0.151395
0.0551743
-0.253251
0.437856
-0.286002
-0.194827
0.265347
-0.0705198
0.554247
0.139801
-0.445046
0.135593
-0.0645844
0.0640206
-0.0481724
0.0518791
0.0945338
0.00116972
0.523432
0.123591
-0.647023
-0.0871855
-0.0619214
-0.133434
0.250442
-0.390607
0.140165
0.613477
-0.566157
0.331876
-0.034131
-0.297745
-0.269812
0.00412089
-0.235224
0.109947
0.125277
-0.373594
-0.105259
0.478853
-0.0629925
-0.0826202
0.145613
-0.310678
-0.326498
0.535439
-0.105657
-0.269546
0.0300294
-0.224856
-0.304932
-0.423344
0.0553274
-0.166911
0.111584
-0.242049
0.264414
0.120586
0.26183
-0.311125
-0.0844484
-0.138713
0.223161
-0.439467
0.310281
0.129186
0.0354163
0.578061
-0.337146
0.431328
-0.0941817
0.0490847
-0.224562
0.175477
0.432479
-0.0968358
-0.0934727
0.175008
-0.0815348
0.589299
-0.341973
-0.247326
-0.0810475
-0.0492127
-0.401564
-0.272399
0.405009
-0.0842875
-0.599664
0.570786
0.0288786
0.368572
-0.258919
0.546111
-0.550178
-0.167192
0.110798
0.00380051
-0.0704602
0.0666597
0.32008
0.269219
0.338282
0.151526
-0.489807
0.0480574
-0.00248719
0.634693
-0.488892
-0.145801
-0.42063
-0.213866
-0.333557
0.487549
-0.153992
-0.630697
0.630697
-0.0932805
0.092953
0.000327527
0.119811
-0.453368
0.0831673
0.258567
-0.341735
-0.18664
-0.00696972
0.165213
-0.158243
0.279447
0.0225258
0.00551275
-0.125885
0.138141
-0.0122567
-0.0715037
0.0636318
0.0078719
0.548212
-0.130424
0.44491
-0.151408
0.0801536
-0.157894
-0.601323
0.0737422
0.106384
-0.598442
-0.0927892
-0.178294
0.227379
0.135314
-0.0799863
-0.0770186
0.441227
-0.364208
0.262964
-0.456009
0.193045
-0.529642
0.0086185
0.036567
-0.423076
0.127529
0.295547
0.00118783
-0.0726915
0.283522
-0.0926294
0.112941
-0.0881855
-0.576847
0.433126
0.14372
-0.044172
-0.00561262
0.0497847
0.464021
-0.201058
0.0569962
0.00796849
0.134617
-0.543222
0.0625296
-0.0336728
0.395038
-0.467213
-0.0349005
0.105881
0.507943
0.0137163
0.219613
0.12378
-0.343393
0.0548783
0.00765129
0.0630176
-0.0521746
-0.010843
0.0213389
0.366553
-0.443572
0.219781
-0.222975
-0.0889995
0.277959
-0.0316072
-0.246352
0.212405
-0.165324
0.247641
0.0677597
-0.0547313
-0.122541
0.386955
-0.0886116
-0.389747
0.579369
-0.189622
0.100826
-0.122574
-0.537586
0.0198877
-0.467722
0.332505
0.0639526
-0.141605
0.37871
-0.295543
-0.0782083
-0.0457551
0.123963
-0.444451
-0.12312
0.567571
-0.565187
0.372115
0.193072
-0.040979
0.0488307
-0.0078517
-0.419927
-0.296808
0.0725266
-0.233924
0.161397
-0.12318
0.134558
-0.621152
0.200894
0.420257
-0.256515
0.32197
-0.0654548
-0.320025
0.413452
-0.0934268
-0.0707254
0.46953
-0.398804
0.423045
-0.588463
0.165418
-0.487136
0.41641
0.156184
0.261292
0.0952797
-0.442698
0.347418
-0.0177021
0.257188
0.237096
0.00313521
-0.240231
-0.167116
-0.29027
0.457386
0.343902
-0.124289
0.389444
-0.157542
-0.231902
-0.134014
-0.0861228
0.220137
-0.0695464
0.404352
-0.000960951
-0.0572265
0.33394
-0.461729
0.127788
-0.0758562
0.599288
-0.384137
0.26544
0.118697
-0.401615
-0.109435
0.51105
0.61428
-0.589907
-0.0243729
-0.53738
0.281161
0.0158811
-0.0932669
0.236267
-0.160843
-0.075424
0.0243289
0.0915699
-0.611877
0.0731526
-0.348485
0.443765
0.549683
-0.126637
-0.0532968
-0.188069
0.314522
-0.230279
-0.0842437
0.0412407
-0.46192
0.42068
-0.0810612
0.0710637
0.361098
-0.215028
-0.600638
0.474629
0.126009
-0.00429685
0.0339375
0.240165
-0.569307
-0.41689
0.27749
-0.388057
0.110566
-0.104137
-0.0261446
-0.126024
0.459964
-0.221728
0.13728
-0.159393
0.0964007
0.0679456
-0.00508717
0.109206
-0.216434
0.107227
-0.00631343
-0.00603429
0.16407
-0.158035
0.094945
0.192244
-0.287189
-0.198896
0.0415961
0.157299
0.175443
0.339209
0.110841
0.0931782
-0.173163
-0.393365
0.500685
-0.162404
0.0715203
0.00514466
-0.00324516
-0.0490102
0.0522554
0.096112
-0.0692065
-0.0269055
0.0768999
0.0110823
0.0519353
0.550778
-0.325042
-0.225736
-0.00233856
0.0321712
-0.0364681
-0.12539
0.260588
-0.00632128
-0.0590179
-0.171145
-0.0277509
0.190298
-0.305928
0.11563
0.0123489
0.441948
0.585208
-0.134499
0.439928
0.132766
-0.572694
0.0149289
-0.115669
0.10074
-0.050005
0.265579
-0.215574
0.0261606
-0.0995408
0.670341
-0.507821
-0.16252
-0.409015
0.131498
0.277517
-0.193309
0.0310172
0.18109
0.0867516
-0.324817
-0.261441
0.586258
-0.163908
-0.0534006
0.217309
0.27956
0.0604217
-0.339982
0.245635
0.305143
0.53716
0.0185489
0.0464262
-0.0628307
0.0164046
0.193569
-0.518386
-0.0598102
0.296906
0.162779
-0.496071
0.333292
-0.441486
0.133696
0.227402
0.349642
-0.0745809
-0.275061
0.129139
0.0923823
-0.221521
-0.0192811
-0.00596783
0.0252489
0.0855059
-0.104411
0.0189049
0.0405089
0.00423923
-0.0447481
-0.0708533
-0.0345462
0.1054
0.413864
0.135818
0.361396
-0.0839055
0.324594
0.0701674
-0.394762
0.221714
-0.271719
-0.543844
0.142229
0.285254
0.0643878
0.209096
0.445125
-0.130812
-0.393743
0.300542
0.0619684
-0.0524919
-0.00947643
-0.00417593
-0.0228284
0.0270044
-0.0255746
-0.00809076
-0.638516
0.479864
0.158653
-0.274837
0.0142323
-0.0876712
0.455095
0.142664
-0.597759
-0.15244
0.129369
0.571159
-0.157295
-0.146867
-0.0384677
0.185335
0.153633
0.0826337
0.0979923
-0.13875
0.0407576
-0.632787
0.174162
0.458625
0.121816
-0.613524
-0.415844
-0.216943
0.0395383
0.0593251
0.240012
0.0118968
-0.251909
0.169082
0.0441941
-0.213276
0.463557
0.0522974
-0.515854
0.297213
-0.106914
0.117886
-0.091725
-0.152278
0.592206
0.0466037
-0.124812
-0.201778
-0.237689
0.618112
0.0585732
0.00843257
-0.0670058
0.0515492
0.0455438
-0.097093
-0.00549246
0.0510286
-0.105754
-0.50004
0.116422
0.0959189
-0.659822
0.174147
0.485676
-0.0450243
0.184026
-0.139002
-0.0641526
0.227357
-0.131781
0.29975
-0.281486
0.233977
-0.333105
0.0991281
0.24412
0.0704024
-0.591507
0.551645
0.0398627
0.150038
-0.484849
0.334811
-0.0740813
0.00267213
0.0278313
0.441698
0.39036
0.207625
-0.149906
0.52206
-0.372154
-0.0752761
0.244358
0.00310707
-0.00370955
-0.199898
-0.134699
0.0764682
0.00622572
0.45164
-0.635214
0.183575
0.1035
0.0970855
0.476459
-0.617139
0.14068
-0.51117
0.361264
0.618596
-0.166956
0.0110795
0.071282
-0.211585
0.10938
0.102205
-0.0750431
0.315056
-0.406204
-0.31127
0.0110251
0.408625
-0.41965
-0.0265646
0.137282
0.0609184
-0.224826
-0.0313633
0.27506
-0.243697
-0.0071963
0.139899
0.16835
-0.582166
0.247052
0.534127
-0.0111571
-0.114728
-0.404163
-0.28106
0.249697
-0.0156173
0.0620435
-0.0452171
0.0967663
-0.434089
-0.00285087
-0.215235
0.259725
-0.04449
-0.0112614
-0.0980761
0.179053
-0.123531
0.35832
-0.234789
-0.065532
0.0693325
0.0325956
-0.00325538
-0.0293403
-0.0844258
0.0629668
0.286939
-0.603866
0.316928
0.498229
0.000748638
0.00115496
-0.00190359
0.301048
-0.108983
-0.192065
0.0824441
-0.11699
0.33902
-0.246006
-0.0930138
-0.225245
0.0940009
0.131244
0.373662
-0.196407
-0.177255
0.495787
-0.188136
-0.307651
-0.379021
0.285362
0.0936597
0.246101
-0.198995
-0.0471057
0.321634
-0.0876567
0.00469934
0.0841719
-0.0888712
0.379998
-0.638796
0.460053
0.178744
-0.297824
0.63962
-0.341796
-0.00841528
0.0848835
-0.068868
-0.166356
0.182025
-0.234076
-0.347974
-0.274334
-0.312207
-0.354861
0.190035
0.00599797
-0.623982
-0.104141
-0.0708966
0.175038
-0.0202886
0.118281
0.162625
-0.460449
0.106095
-0.0205888
0.575871
-0.538333
-0.155467
0.0286318
-0.156478
0.196923
0.43777
0.422117
-0.176668
-0.24545
-0.256685
-0.381831
0.0963826
-0.0876896
-0.00869295
0.175195
-0.621289
0.446094
0.210674
-0.200302
-0.0103722
0.285193
-0.190248
0.178224
0.0833685
-0.171212
0.215406
0.195935
-0.410993
0.215058
0.0610074
-0.134769
-0.116147
0.0710732
-0.0129967
-0.0580765
-0.156208
0.254127
-0.0979188
0.480954
0.00167077
0.0575636
0.033216
-0.0345868
0.0013708
-0.156278
-0.239195
0.395473
-0.462899
0.129479
-0.560237
0.430758
-0.0313568
0.0271808
-0.110822
0.125321
0.271416
-0.117783
0.184615
0.289631
-0.474246
-0.229878
0.192462
0.0886869
-0.281149
0.0181097
-0.164977
0.0302169
0.00237878
-0.600166
0.493341
-0.340019
0.216488
0.00673925
0.0654533
-0.528845
0.432833
-0.158282
0.245027
-0.0867452
-0.0778768
-0.306311
0.100279
0.206032
0.457337
-0.272721
0.304545
-0.471662
-0.00294339
0.0473005
-0.0443571
0.359826
0.159008
0.0863415
-0.121475
0.0118261
0.109648
0.361496
0.139189
-0.529826
0.614874
0.101348
-0.153059
-0.391865
-0.74597
0.292771
0.453199
-0.0852131
0.195811
-0.110598
0.0185361
-0.101917
-0.100744
-0.610104
0.185991
0.424112
0.356195
-0.303985
-0.0880129
-0.137232
0.204343
-0.311991
-0.000715622
0.0339316
0.0460597
0.532332
-0.314016
-0.429253
-0.195371
0.624623
-0.0496179
0.443152
-0.585915
0.142763
-0.0634625
-0.438433
-0.307537
0.0668628
-0.0609155
-0.00823549
-0.10499
-0.634817
0.189715
0.445102
-0.169838
0.0763656
-0.00369597
0.0750949
0.343866
-0.274945
-0.0689205
0.0872559
-0.00705141
0.0157445
-0.00869305
-0.0761402
-0.00871091
0.0848511
0.110958
-0.0960287
0.111781
0.00873873
0.024195
0.0120336
-0.132382
0.224764
0.091978
0.10142
0.0735877
-0.00289692
-0.0163841
0.477314
-0.158003
-0.319311
-0.0119968
0.0500073
0.204281
0.04182
-0.0933672
0.28583
0.287005
-0.109339
-0.104577
0.100968
-0.392
0.291032
0.125179
-0.0117203
-0.113458
-0.0136758
0.211088
-0.197412
0.590826
-0.135731
0.275642
0.113802
-0.131125
0.194621
-0.0634962
-0.148817
0.0807076
-0.127628
0.0430154
0.138784
-0.507938
0.369154
0.368587
-0.654538
0.285951
-0.415308
0.569842
-0.154534
0.289854
0.132264
0.0859057
-0.4595
0.240704
0.131818
-0.137852
-0.415123
0.0457686
0.194917
-0.240685
0.130516
-0.138752
-0.406856
0.598369
-0.191512
0.044976
-0.260211
-0.0579357
-0.4217
0.545363
-0.123663
-0.215743
-0.383921
0.295334
-0.162858
0.00377325
0.000910223
-0.00468347
0.607166
-0.132538
-0.0371034
-0.0375931
0.36163
-0.566971
-0.379681
0.286974
0.0927068
-0.572641
0.0596748
0.512966
0.457212
-0.0973864
0.0750538
-0.0784414
0.127272
-0.00987045
-0.200073
0.11486
0.195646
-0.32086
0.125214
-0.12702
0.522093
-0.395073
0.268988
-0.265914
-0.583972
0.177115
0.167257
0.119748
-0.255005
-0.378965
0.0025207
-0.0552681
0.518825
0.242393
0.101473
0.236657
0.137005
0.227777
-0.241452
-0.602465
0.462086
0.140379
-0.0661758
0.0978968
-0.031721
-0.169404
-0.12487
-0.349539
0.506715
-0.331272
0.127417
0.00743519
0.370212
-0.104771
-0.556156
0.286207
-0.112029
0.362471
-0.164
0.076527
0.0874734
0.145934
-0.18196
-0.0116206
0.0784834
0.237731
-0.279692
0.0419605
-0.511479
0.208441
-0.471638
0.314632
0.157006
-0.000353612
-0.00242912
0.00278273
0.296593
-0.110554
-0.186039
0.0996959
0.0910506
-0.190746
-0.0272043
-0.0884643
0.0526961
-0.0655105
0.0128144
-0.0113198
-0.0498923
0.0612121
-0.110638
-0.0176168
0.128255
0.145229
0.332086
0.08316
-0.181236
0.0461923
-0.00568336
0.156617
-0.0306481
-0.108511
-0.107371
-0.031552
0.00597744
0.303445
0.0266574
-0.0183936
-0.184611
0.0966949
0.0988315
-0.287555
0.188724
0.206975
-0.0620701
-0.144905
0.58975
-0.22841
-0.36134
0.227111
-0.360248
-0.0748642
0.289987
-0.399584
0.109597
0.27812
0.084696
-0.362816
0.419742
-0.129889
0.0331331
-0.0444559
0.44272
0.105491
0.473115
-0.0311009
-0.442014
0.00465862
0.0234293
0.00495235
-0.0283817
0.180708
0.437888
-0.254474
0.402772
-0.148298
0.521633
-0.0333784
-0.488255
0.225602
-0.295968
0.0703661
-0.00790793
0.0499923
-0.0420844
-0.0769378
-0.156986
-0.167093
0.0232032
0.219799
-0.243002
-0.472837
-0.16198
-0.616223
0.226477
0.191431
-0.188296
-0.252244
0.0713224
0.227248
-0.0703895
-0.583732
0.440129
0.143602
0.474971
-0.0337436
0.0388183
-0.295333
0.072017
0.227828
-0.299844
0.137782
-0.555829
0.418047
-0.0761925
-0.00791835
0.0841108
0.369558
-0.243529
-0.126029
0.30464
-0.108994
-0.140747
-0.316644
0.457392
0.0131496
0.083233
-0.157113
0.218031
0.605596
-0.171853
-0.433743
-0.460019
0.130374
0.170673
0.205318
-0.463537
0.115956
-0.328566
0.21261
0.0658981
-0.173378
0.10748
0.100155
0.372961
-0.0833596
0.00721944
-0.53134
0.10964
-0.122146
0.598605
-0.432131
0.569913
0.635128
-0.119693
0.399725
-0.50916
0.122227
-0.0972416
0.132195
-0.0066297
-0.125566
0.0343259
-0.0318035
-0.00252233
-0.223549
0.0911676
-0.1441
0.162471
-0.0823174
-0.464467
0.285049
-0.269405
0.0814232
0.187982
-0.0844109
0.165502
-0.0810907
-0.171617
-0.134694
-0.0812964
0.0363537
-0.117377
-0.0271656
0.144543
-0.161923
0.448862
-0.09423
0.35606
0.115836
0.439055
-0.554891
-0.0972378
0.0821826
0.0150553
0.20871
-0.364988
-0.431574
-0.0595847
0.119225
0.392967
-0.512192
0.00211191
0.123252
-0.55067
0.427418
-0.437128
0.0402552
0.590442
0.627686
-0.225467
-0.402219
0.0440984
-0.049711
0.105127
-0.266811
-0.266524
0.0459564
-0.112132
0.099848
-0.521157
0.421309
0.189975
0.437711
-0.398641
-0.116492
0.515133
-0.432577
-0.528602
0.368331
0.160272
-0.0155212
-0.155691
0.0657374
-0.385763
0.130549
0.239009
-0.00885514
0.0492184
0.0468936
-0.283658
0.175101
-0.0218914
-0.506954
0.493784
-0.343746
-0.21263
-0.0765759
0.289206
-0.258551
0.401324
-0.142772
-0.000748677
0.125472
-0.124724
0.173752
-0.218764
0.289025
-0.070261
0.116815
0.0767205
-0.371633
0.11493
0.256703
0.389101
-0.51488
0.125779
-0.572526
0.208739
0.363786
0.514001
-0.1249
0.616298
-0.463253
-0.153045
-0.292775
-0.131826
0.0996871
-0.033898
0.00108264
0.402688
0.220478
-0.482325
0.608825
-0.0164108
-0.592414
-0.590442
0.286763
0.107744
-0.394507
0.574575
-0.421603
-0.152973
-0.199409
0.0746728
-0.0324933
-0.0421796
-0.127838
0.106908
0.0209296
-0.392224
-0.172963
0.0250922
0.54607
0.438145
-0.000346533
-0.088518
0.0949588
-0.0184135
-0.0765453
0.0125045
0.112674
-0.205724
-0.390265
0.50949
0.189857
-0.321639
0.138152
0.436423
-0.272437
0.295943
-0.0235062
0.00381686
0.448219
0.160606
0.153764
0.0532116
-0.118228
0.112166
0.00856589
0.110832
-0.119398
-0.0440552
-0.00599683
0.222208
0.0557509
0.244784
-0.262486
0.561811
-0.51535
-0.0464616
0.147854
-0.154823
-0.21982
-0.127741
0.347561
0.111999
-0.202792
0.00726913
-0.231574
-0.340951
0.0821242
0.0208562
-0.10298
-0.282968
0.182927
-0.458835
-0.0808134
-0.0164245
0.0497143
0.0249585
-0.445457
0.590094
-0.144638
-0.093259
0.197992
-0.104733
-0.0932211
0.456091
-0.0911273
-0.0728732
0.589604
-0.454986
0.150778
-0.176533
0.0257554
-0.462497
-0.154642
0.237645
-0.0868671
0.133454
-0.395572
0.262117
0.134412
-0.00998645
0.0685597
-0.120485
-0.0442689
0.164754
-0.367301
-0.120177
0.487477
0.578238
-0.101477
-0.243277
0.315294
0.0477684
-0.0391499
0.205512
-0.0961321
-0.199163
0.154698
0.044465
-0.0131928
-0.0993639
0.0809504
0.0221875
-0.000844827
-0.11964
-0.0721005
-0.0119401
0.0840406
-0.577617
0.153081
0.424536
-0.349159
-0.109549
0.458708
-0.0428048
-0.33435
-0.216335
-0.0559834
0.272318
0.3203
-0.419275
0.552915
-0.13364
0.499523
-0.0568029
-0.221379
0.244582
-0.00179143
0.0344724
-0.032681
0.0526548
-0.014657
-0.0379978
-0.0774513
-0.0549453
0.090852
0.230782
0.127261
0.413814
-0.541075
0.0123201
0.225832
-0.104842
-0.12099
0.0850508
-0.223763
-0.222825
0.305873
0.113869
-0.219004
0.161384
0.0576205
0.0658396
-0.174331
0.108491
0.0126956
-0.117435
0.10474
-0.276379
-0.0322686
0.308648
-0.11913
0.061719
0.00935423
0.134212
-0.135057
0.048237
-0.279993
0.231756
-0.0426181
0.287402
-0.180388
-0.21022
0.384507
-0.287501
-0.0970065
0.179868
-0.122882
-0.101561
0.16039
0.47794
-0.209046
0.0888588
0.120187
-0.168414
0.0772869
0.233193
0.109407
-0.429396
-0.448793
0.595702
-0.146909
0.0957516
0.0531507
-0.0489115
0.255026
-0.0635945
-0.310872
0.424919
-0.114047
-0.00901232
-0.547814
0.556826
-0.117816
-0.261206
-0.496428
-0.028315
0.524743
0.00663409
0.115593
-0.0156273
-0.0756329
-0.19769
0.273323
0.330833
-0.08844
0.412081
-0.157221
-0.25486
-0.0675882
-0.409585
-0.079838
0.0845373
-0.110757
0.239573
0.198025
-0.0966053
-0.122476
0.198633
0.0861617
-0.0717811
-0.0143806
0.0864403
0.186709
-0.0832085
-0.122406
0.231613
-0.25731
-0.114323
0.131286
-0.0272265
-0.100611
0.453788
0.16243
-0.616218
0.0335759
-0.493666
0.46009
0.483742
-0.122246
0.552955
-0.564968
-0.579937
0.110915
-0.11644
0.583074
-0.0536636
0.0504185
0.469589
-0.616695
0.147106
0.121498
0.435166
-0.556664
-0.00980255
0.0624987
-0.127831
-0.435409
0.56324
0.133918
0.278163
0.0474811
-0.0529736
0.00321685
-0.203709
-0.409205
0.6101
-0.440172
0.293036
0.0611557
0.144585
0.372117
-0.516703
0.62834
-0.0680376
0.077032
-0.439406
0.560904
-0.112313
0.414993
0.105263
0.00275346
0.185834
-0.102674
0.227982
-0.0916879
-0.136294
0.413705
0.151278
-0.564983
0.17686
-0.0116471
-0.471561
0.614697
-0.143136
0.509138
-0.393301
0.0350378
-0.0332747
-0.00176315
0.573019
-0.159314
0.155955
0.521385
-0.106392
-0.169579
0.436378
-0.266799
0.0630744
0.243868
-0.306943
0.284913
-0.520229
0.235316
-0.52443
0.221465
0.302965
0.121663
-0.566114
-0.0190818
0.375277
0.503703
-0.220408
-0.283295
-0.0470312
0.0548736
-0.0078424
-0.652699
0.263536
0.389162
0.596759
-0.421408
-0.175352
-0.444182
-0.109586
0.553768
-0.305336
0.226444
0.0788924
0.127888
-0.0209804
0.432925
0.0761921
-0.509117
0.0642089
0.353214
-0.20873
0.564475
-0.355745
0.00213201
-0.168913
0.239091
-0.0701777
0.426008
-0.553839
-0.221272
0.365313
-0.476078
0.110764
0.0379008
-0.0370671
-0.000833684
-0.155308
-0.11022
-0.106214
0.0268794
0.131424
-0.158304
0.023964
-0.141341
0.526423
-0.426575
-0.389611
0.511877
-0.122266
0.447501
0.149258
-0.386735
0.286206
0.10053
-0.345925
-0.0904921
0.436418
-0.221265
-0.119925
-0.461368
0.581292
0.0861639
-0.130433
-0.512617
0.113976
-0.158095
-0.0609096
0.136647
-0.137659
-0.305743
0.443402
-0.157801
0.4819
-0.324098
-0.250537
0.382035
0.295637
-0.575153
0.230222
0.344931
-0.519649
0.392629
0.0516768
-0.00757842
-0.352275
0.252802
0.0994735
-0.0101111
-0.0988202
0.108931
0.629897
0.0463414
-0.528272
0.51926
0.0749655
-0.0786615
-0.587329
0.467405
0.081944
-0.42787
0.404911
-0.117938
0.0591901
-0.0352251
-0.023965
0.48716
-0.0124418
0.0790496
-0.0666079
-0.574871
0.343297
-0.328598
-0.246367
0.0596453
0.186721
-0.135824
0.561832
-0.424496
0.286837
-0.178173
0.562859
-0.384686
-0.0109231
0.113404
-0.102481
0.485125
0.342745
-0.453567
0.110822
-0.245969
0.319138
-0.0731693
-0.278574
-0.0780396
0.239423
0.082073
-0.0421473
0.0361794
-0.0848647
-0.0671426
0.0558228
-0.0797341
0.069913
0.20877
-0.278683
-0.0207463
-0.0351922
0.0559385
0.364894
0.12439
-0.468604
0.614
-0.145396
-0.119485
-0.402514
0.521999
-0.431493
-0.0907397
0.522233
-0.178793
0.0928186
-0.1431
0.0794121
-0.183045
0.239283
-0.0562376
-0.353503
-0.159115
-0.605331
0.0956314
0.201581
-0.214585
0.288117
-0.0735317
-0.344647
-0.294149
-0.291797
-0.360901
-0.436032
0.572591
-0.136559
0.430147
0.142872
-0.188719
0.0569031
0.131816
0.15204
-0.505542
-0.00418604
0.0653418
0.424173
-0.559997
0.18427
-0.259903
0.426075
0.190222
0.135021
-0.390882
0.255861
-0.0799861
0.179682
-0.134401
0.509836
-0.375436
0.124384
-0.245385
0.284204
0.562737
-0.422022
-0.140715
0.291008
-0.0737604
0.254536
-0.0168042
0.0661198
0.247204
-0.313324
0.362679
-0.0971599
0.324271
0.0888256
-0.097058
0.0082324
0.0121588
-0.583143
0.415708
0.167435
-0.0122598
-0.0943817
0.106642
0.185151
-0.119311
-0.236048
0.0671349
-0.190616
-0.216853
0.269955
-0.0531025
0.289753
0.109228
-0.398981
0.0140845
0.104593
-0.118678
-0.13531
-0.426738
0.562048
0.00873041
0.0808712
-0.0896017
0.0752081
-0.0831264
-0.265894
0.0857189
0.180175
-0.480437
0.313344
-0.13347
0.439002
0.123736
-0.505831
0.37143
-0.128799
0.117079
-0.0719947
0.128855
-0.548129
-0.720795
0.270073
0.450722
0.4126
-0.365378
0.590811
-0.160664
0.0728978
0.0848937
-0.157791
-0.0179457
-0.10862
0.126566
-0.224368
0.0681595
0.0899599
-0.457534
0.367574
-0.421192
-0.00647402
-0.051037
0.057511
0.259196
-0.371225
0.00618097
0.0747084
-0.0808894
0.0801882
-0.00513445
0.0836959