/*--------------------------------*- C++ -*----------------------------------*\
| =========                 |                                                 |
| \\      /  F ield         | OpenFOAM: The Open Source CFD Toolbox           |
|  \\    /   O peration     | Version:  v2012                                 |
|   \\  /    A nd           | Website:  www.openfoam.com                      |
|    \\/     M anipulation  |                                                 |
\*---------------------------------------------------------------------------*/
FoamFile
{
    version     2.0;
    format      ascii;
    class       volVectorField;
    location    "200";
    object      U;
}
// * * * * * * * * * * * * * * * * * * * * * * * * * * * * * * * * * * * * * //

dimensions      [0 1 -1 0 0 0 0];


internalField   nonuniform List<vector> 
14033
(
(1.04368 -0.0381757 0)
(0.70063 -0.0244649 -2.0519e-21)
(1.02282 3.54883e-05 0)
(1.02243 -9.29222e-05 -1.56239e-22)
(1.02239 8.64642e-05 0)
(1.02365 0.00108223 1.86333e-22)
(0.805981 0.00037398 3.22187e-23)
(1.02164 -0.00180761 -3.34069e-22)
(1.02245 -8.49653e-05 3.326e-22)
(0.823196 -0.0175258 5.20738e-21)
(1.02658 -0.00030955 0)
(1.05695 0.00870328 0)
(1.02847 -0.002848 3.55528e-22)
(1.02831 -0.00265116 5.98348e-22)
(1.02173 0.000110489 -9.36997e-25)
(1.04582 0.00534156 0)
(1.03145 0.00242902 -1.05251e-21)
(0.510024 -0.053453 0)
(1.02506 -0.0011076 0)
(1.03299 0.00574638 2.28242e-21)
(1.04263 0.0050949 3.22335e-21)
(1.05661 0.00904875 5.25983e-21)
(1.05492 -0.018076 -1.29309e-20)
(1.02245 9.59473e-05 -6.00375e-25)
(1.02605 -0.00034828 0)
(1.02494 -0.00103328 0)
(1.06555 -0.00885848 -2.40244e-22)
(1.06433 0.011428 -1.11495e-20)
(1.06613 -0.0309577 4.87199e-21)
(1.0704 0.0148784 0)
(1.03677 -0.00332425 -1.71518e-21)
(1.02184 -0.0014796 3.08817e-22)
(1.06973 -0.00743827 0)
(1.03519 -0.0149074 2.16775e-21)
(1.02461 -0.0332109 9.14465e-22)
(1.02253 -0.000204367 2.1163e-23)
(0.923331 -0.032694 -1.24698e-20)
(0.78185 -0.0197905 -5.65977e-21)
(1.02311 1.90846e-05 2.8019e-23)
(1.03025 -1.45393e-05 3.4111e-21)
(0.774254 -0.0485115 4.84913e-22)
(1.04219 0.00534066 -5.02163e-21)
(1.02625 0.000360371 0)
(1.02238 -4.18758e-05 -9.2619e-24)
(1.02799 0.00068748 -4.47122e-23)
(1.02632 0.000349158 0)
(0.820007 0.0127321 9.55003e-21)
(1.02373 0.000971923 -7.85939e-23)
(1.06561 -0.015934 1.83878e-20)
(0.964544 -0.0270303 1.03329e-20)
(1.0265 0.000710478 8.46048e-22)
(1.02243 -0.000245477 0)
(0.729393 -0.0519814 -1.54315e-20)
(0.954817 -0.046972 1.582e-20)
(1.0316 0.00267425 1.26039e-21)
(1.02868 -0.00282623 0)
(1.07355 0.00992655 -2.07856e-20)
(0.66242 -0.026425 -3.81031e-21)
(1.03508 -0.0152481 -1.90015e-21)
(1.03634 -0.00327711 -1.61519e-21)
(1.02708 -0.000426844 -3.31763e-25)
(0.957792 -0.0289262 -2.9878e-20)
(1.0482 -0.0139291 3.19366e-21)
(1.0261 0.000327493 -5.09447e-25)
(1.02268 -1.22659e-05 0)
(1.02462 0.000141327 -2.82663e-23)
(1.04348 -0.0369478 0)
(1.06468 0.00319701 -2.27869e-20)
(1.02715 -0.000332911 3.98157e-23)
(1.03168 -0.00583862 -1.04379e-21)
(1.02233 -2.86829e-05 1.02775e-23)
(1.01951 0.000607624 9.73614e-24)
(0.813234 0.0128226 -5.99535e-21)
(1.03124 0.00627156 0)
(1.04349 0.00927158 -6.52652e-21)
(1.02344 3.79291e-05 5.30115e-24)
(1.02344 0.00251748 -4.65277e-23)
(1.03166 -0.00624294 -2.15753e-21)
(0.456975 -0.0109743 0)
(1.07032 0.0121309 -8.60499e-21)
(1.02648 0.000397218 1.44506e-23)
(0.512447 -0.0157054 1.55876e-21)
(0.740912 -0.0504651 -3.28857e-20)
(1.02428 -0.000120976 -2.80048e-22)
(1.02247 -5.3539e-05 0)
(1.02044 0.000227984 -3.19261e-22)
(1.02494 -0.00217359 0)
(0.94463 -0.0480347 -1.01473e-20)
(0.831893 0.0122683 9.52439e-21)
(1.03263 0.00599709 -4.35953e-21)
(1.02254 -0.000134667 4.25596e-22)
(1.02641 0.00042183 0)
(1.02544 0.000580942 0)
(1.05646 0.00587616 -1.49632e-22)
(1.02728 -0.000404816 -7.90417e-23)
(1.02018 -0.000423122 0)
(1.02676 0.000692145 0)
(1.02154 8.09431e-05 -1.9871e-23)
(0.852251 -0.0401833 0)
(1.02202 -6.35459e-05 2.53671e-22)
(1.02473 0.000151534 3.90029e-23)
(1.02354 0.000911295 3.52344e-23)
(1.0268 -0.00035426 2.43897e-23)
(1.02516 0.000160334 0)
(0.81487 0.0128127 9.95129e-21)
(1.06811 -4.04586e-05 -1.1753e-20)
(0.852606 0.0122175 0)
(1.02437 -0.000144635 0)
(1.06407 0.00345049 1.13175e-22)
(1.0222 7.82627e-06 -7.32755e-23)
(0.834864 0.0107829 0)
(1.01754 -6.33608e-05 0)
(1.02308 -5.72945e-05 -3.18074e-23)
(1.02203 -0.000167959 0)
(1.01105 2.0583e-05 0)
(1.02317 0.00250243 -6.15774e-24)
(1.07375 0.00944874 1.66586e-20)
(1.02357 7.05171e-05 -1.05864e-23)
(1.06665 0.00525856 -3.81527e-20)
(1.0692 -0.00809531 0)
(1.02086 0.000149526 0)
(1.05362 0.00232443 2.73319e-21)
(-0.022167 0.0681832 2.69955e-20)
(1.02523 -0.00231049 -1.19217e-21)
(1.05313 0.00140127 -1.26337e-20)
(1.02555 0.000479972 0)
(1.02353 0.000107764 -4.06392e-23)
(1.0205 0.000619919 2.13409e-22)
(0.687471 0.0200823 1.05117e-20)
(1.02397 0.00137806 0)
(0.815215 0.0130461 5.34812e-21)
(1.02249 -2.2855e-05 1.01359e-23)
(1.02317 0.000105182 1.63994e-25)
(0.927043 -0.00480714 -2.25713e-21)
(0.828918 0.0113175 0)
(1.03206 -0.00532757 -1.31824e-21)
(1.06557 0.0100969 9.59739e-21)
(1.02269 8.15048e-06 0)
(1.02403 0.00147335 2.75723e-22)
(1.02581 0.000409899 -1.1443e-23)
(1.03811 -0.00860074 0)
(1.06722 0.00623185 1.39878e-20)
(1.05977 -0.00152052 -4.88851e-21)
(1.04649 0.00354569 0)
(1.06491 -0.0311396 7.47019e-21)
(1.02825 0.00061032 7.00086e-23)
(1.02086 0.000130676 -1.38424e-22)
(1.05442 -0.00555379 0)
(0.930965 -0.0302498 4.12225e-20)
(0.961744 -0.0210683 -9.49268e-22)
(1.02243 0.00117208 2.38048e-21)
(1.03781 -0.00821475 1.73394e-21)
(1.02258 2.33574e-06 -6.7653e-23)
(1.02154 -0.000835639 9.60831e-22)
(1.0236 0.000806937 -7.79021e-23)
(0.802551 0.00011294 1.59689e-20)
(1.02509 0.000100089 5.42278e-23)
(1.02374 0.000279436 1.55833e-22)
(1.02507 0.000149793 -4.32837e-22)
(1.02195 9.95953e-05 0)
(1.02523 -0.0041144 0)
(1.06585 -0.0098588 -1.14173e-20)
(0.946119 -0.0096666 3.96846e-21)
(1.02297 0.000203944 0)
(1.04434 -0.000283637 1.89885e-21)
(1.02187 0.000155268 0)
(1.03688 -0.00792793 1.77954e-21)
(1.05056 0.00591244 0)
(0.282178 -0.0450234 2.72569e-20)
(1.02532 -0.000838872 7.84233e-23)
(1.04618 0.00496406 3.06438e-22)
(1.06602 0.00959881 -1.24643e-20)
(1.0568 0.0079902 -5.93806e-21)
(0.440175 0.0251042 -4.94968e-22)
(1.02349 3.28536e-05 -5.38386e-24)
(1.02519 -0.000746601 -6.93055e-23)
(1.06989 -0.00133346 8.50913e-21)
(0.716978 0.0216771 -1.03559e-20)
(1.05638 0.00760974 0)
(1.04647 0.00405787 -4.3439e-21)
(1.04395 -0.0335305 -2.84016e-22)
(0.695683 0.0226053 -4.9968e-21)
(1.03631 -0.00206485 2.81032e-21)
(1.02626 6.67224e-05 2.78743e-23)
(1.02246 -8.27399e-05 -4.51935e-23)
(0.835975 0.0116474 9.33277e-21)
(0.873612 -0.0137053 0)
(1.02383 0.001798 0)
(0.266399 -0.0491455 0)
(0.835236 0.0120813 -1.02432e-20)
(1.0808 -0.0120942 -1.04371e-20)
(1.03665 -0.00700067 3.1134e-21)
(1.02185 -0.000581912 -6.80181e-22)
(1.02388 0.00190741 1.75849e-22)
(1.05566 -0.00108323 0)
(0.844099 -0.0418735 2.54149e-22)
(1.04842 -0.0129024 0)
(0.705901 0.0182331 -1.25624e-20)
(1.02242 -7.39073e-05 -3.03758e-22)
(1.02264 -0.000222567 1.03626e-22)
(1.02489 -0.00107385 -2.10053e-22)
(1.03674 -0.00649308 -5.23818e-23)
(1.02272 -4.25414e-05 -1.46123e-22)
(1.04532 -0.0350377 0)
(1.0372 -0.00832507 1.68147e-21)
(1.02276 -3.20756e-06 1.07539e-22)
(1.05312 0.00200708 2.56452e-21)
(1.07293 0.00941447 2.78076e-20)
(1.04232 0.00597321 2.87012e-21)
(1.04333 0.0124666 0)
(0.668951 0.0214152 -1.85099e-20)
(1.0733 0.010716 0)
(1.07492 0.0034986 0)
(1.06485 -0.00196163 0)
(1.02268 2.39939e-05 -9.28966e-24)
(1.02532 -0.00393791 1.47833e-23)
(1.02204 -5.75548e-05 3.59699e-22)
(0.995321 -0.000812286 -9.36998e-22)
(1.02107 -0.000336231 1.15049e-22)
(1.03281 -0.0173337 -7.20595e-22)
(1.04189 0.00624372 5.19969e-21)
(1.02589 0.00022666 0)
(1.02574 0.000242216 -6.58985e-23)
(1.02514 -0.00221225 7.78022e-23)
(1.02173 0.00111241 -3.39619e-22)
(1.02746 -0.000458466 0)
(1.05425 -0.0171867 -2.52276e-21)
(1.0374 -0.00581688 -3.28598e-21)
(1.02231 -6.00401e-05 3.09328e-22)
(1.026 3.988e-05 9.77492e-24)
(1.02161 1.36649e-05 -5.10315e-23)
(1.06754 -0.000801471 1.28335e-20)
(1.02229 0.00284256 0)
(1.02372 7.23968e-05 -8.98231e-24)
(0.985301 -0.000876318 1.10793e-21)
(0.883572 -0.0161096 1.69078e-20)
(1.06605 -0.0150357 1.15931e-20)
(1.02589 4.60741e-05 -1.00733e-23)
(1.02226 -3.05537e-05 8.93339e-23)
(1.02331 0.000189869 -1.20585e-23)
(-0.0339851 0.0528176 1.23227e-20)
(1.03207 -0.00567928 2.72915e-21)
(1.02175 -1.47375e-05 -2.63447e-22)
(1.02216 -4.81557e-06 -1.23463e-23)
(1.03729 -0.00632241 0)
(1.02594 3.92553e-05 5.36815e-23)
(0.811816 0.0142876 -2.2537e-20)
(0.513723 0.0131222 2.47323e-20)
(1.02503 -0.00182781 -6.27047e-22)
(1.0277 -0.000192772 -8.70673e-23)
(1.02223 0.00103124 1.38246e-22)
(0.668363 0.0198885 9.85254e-22)
(1.02595 -2.77661e-05 -6.1992e-23)
(1.07321 0.00436296 -1.25082e-20)
(1.02233 -4.71597e-05 -3.25656e-22)
(0.708684 -0.0109662 -1.93878e-22)
(1.0234 0.000210746 -3.14939e-22)
(1.02566 -0.00134528 0)
(1.02592 -7.63493e-05 0)
(1.06075 -0.0343789 0)
(1.02305 7.32134e-05 -6.25198e-23)
(0.626115 -0.0529331 0)
(1.02212 -0.00349254 -8.95021e-23)
(1.03205 -0.0172882 -6.06253e-22)
(1.03688 -0.00022732 1.30673e-21)
(1.02685 -0.00101344 -5.68684e-22)
(1.02216 0.002663 -4.6283e-23)
(1.0695 0.0125163 0)
(1.03303 -0.00138497 4.65761e-22)
(0.715089 0.0181049 1.85393e-20)
(1.03158 0.00610796 -1.2809e-21)
(0.905331 -0.0125515 1.88051e-20)
(1.02229 -3.94468e-05 0)
(1.04675 -0.00856613 -1.0669e-22)
(1.0707 -0.0236205 -1.68006e-20)
(1.02218 -2.34317e-05 0)
(1.02165 1.4647e-05 6.43091e-23)
(1.06472 0.0109667 2.9267e-20)
(1.02493 -0.00173011 -3.1712e-22)
(1.04151 -0.038781 0)
(1.06885 -0.000345235 6.55607e-21)
(1.02298 0.000199992 -1.45272e-22)
(1.02354 -0.0144673 2.31958e-21)
(1.04453 0.00665412 0)
(0.334628 -0.0567525 1.38208e-20)
(0.934239 -0.0217623 0)
(0.807451 0.0130884 -3.29267e-20)
(1.026 -5.70324e-05 0)
(0.572754 -0.0266227 0)
(1.08209 -0.0110092 2.27636e-20)
(1.02571 0.000586121 -6.86683e-22)
(1.05631 0.00656097 1.48084e-20)
(1.05906 -0.00117898 -1.41345e-20)
(1.0352 -0.0326432 -1.25177e-22)
(1.02514 -0.000593032 0)
(1.02641 8.78441e-05 -2.96188e-23)
(1.026 0.00016331 0)
(1.02224 -4.11071e-05 3.17947e-22)
(1.02623 8.05004e-05 0)
(1.02456 -0.000955486 0)
(1.02592 0.000195215 0)
(1.03607 -0.0415999 0)
(0.688757 -0.0131167 0)
(1.03338 0.00511047 0)
(1.02921 -0.0151213 4.11578e-22)
(1.04043 -0.000875297 9.73395e-23)
(1.0253 0.00373885 0)
(1.02623 0.000120003 0)
(0.826615 0.0132366 1.45785e-20)
(1.03016 0.00173201 1.66003e-21)
(1.06503 0.00884499 1.18255e-20)
(1.0233 0.000209449 1.57023e-22)
(1.06302 -0.0185822 1.4935e-20)
(1.06037 -0.00101397 -1.78396e-21)
(1.06869 -0.0284008 1.80499e-20)
(1.03924 -0.000974854 0)
(1.0217 3.82685e-05 -4.94362e-22)
(1.03068 -0.011425 -2.32798e-21)
(1.02568 -0.00611037 -3.61706e-22)
(0.664241 0.0165129 0)
(0.696308 -0.0215336 6.90465e-21)
(1.06667 -0.000709467 2.38317e-20)
(1.03418 -0.00722867 3.11659e-21)
(1.02733 -0.000367741 -1.25367e-22)
(1.01762 -0.00323782 0)
(0.910135 -0.0505757 0)
(1.03374 0.00527229 1.86716e-21)
(1.02685 -0.000396088 5.11475e-23)
(0.841861 0.0119102 -9.68924e-21)
(1.05086 -0.011563 0)
(1.02591 -0.0063671 1.48401e-22)
(0.514375 -0.00877805 2.41754e-21)
(0.773096 -0.0562779 1.8461e-20)
(1.04426 0.000160973 -6.03458e-22)
(1.02173 9.4742e-06 2.00167e-23)
(0.933669 -0.00806819 -1.26707e-21)
(1.06579 0.0107123 -1.31896e-20)
(1.02454 -0.000830651 -4.17264e-22)
(0.898408 -0.00574818 0)
(1.03095 0.0042056 -3.26375e-21)
(0.683676 0.020552 -1.74156e-20)
(1.06013 -0.00687277 7.32374e-21)
(1.02337 0.000223619 0)
(1.03063 0.00405163 2.94361e-21)
(1.03037 0.00555313 1.06135e-22)
(1.02698 -0.000319968 -3.6135e-23)
(1.05184 0.00704072 1.11567e-20)
(1.02317 0.000804251 -1.42173e-23)
(0.814323 -0.0471343 0)
(0.810009 -0.000307994 9.79384e-23)
(1.02601 0.000144686 0)
(1.02669 -8.95983e-05 0)
(0.82849 0.0120311 -8.61216e-22)
(1.05099 -0.0126209 7.1773e-21)
(1.02479 -0.000887832 3.02041e-22)
(1.02296 1.79813e-05 0)
(1.02556 0.0039103 0)
(0.826495 -0.0266324 0)
(1.02741 -0.000442903 2.43623e-23)
(1.02515 0.000102034 4.9144e-22)
(1.02484 -0.000965632 0)
(1.03159 -0.000506565 4.13303e-23)
(-0.0265941 0.0598176 1.1678e-20)
(1.02418 -0.0019996 -6.07061e-22)
(1.02016 0.000276713 6.90523e-22)
(1.02309 -0.0124907 1.34015e-21)
(1.02926 -0.000414587 2.28559e-23)
(1.02497 4.77698e-05 0)
(1.03265 -0.000486601 0)
(1.02585 0.000139762 0)
(1.02732 -0.000368221 -1.41037e-23)
(1.02573 0.000133736 4.18569e-24)
(1.0106 -1.31229e-05 -1.05703e-23)
(1.02413 0.001287 0)
(1.06478 0.00823432 -1.18409e-20)
(0.57823 -0.0134208 -2.48864e-21)
(1.03331 0.000311258 1.83166e-21)
(1.03707 0.00910978 0)
(0.955785 -0.0414239 1.42831e-21)
(1.02172 -2.66987e-05 1.07606e-23)
(1.02615 4.48145e-05 0)
(1.01666 -0.00548459 -2.37316e-21)
(1.02575 -0.00134378 -3.33979e-23)
(1.03382 0.00733151 -9.12947e-23)
(0.899502 -0.0515948 -9.26571e-21)
(1.02219 7.70002e-05 -3.60228e-23)
(0.854032 0.00954998 0)
(1.02569 1.97919e-05 -3.69616e-23)
(1.04497 0.00619861 -1.73349e-21)
(1.062 0.00567974 -8.54814e-21)
(1.02621 0.000120833 -3.55565e-23)
(0.689456 0.0189173 0)
(1.0365 0.00758027 2.76912e-21)
(1.02518 -0.00372719 -5.30037e-22)
(1.02345 -0.00148096 0)
(0.472295 -0.00654966 0)
(1.03161 -0.0268465 -6.93019e-22)
(0.688847 0.0028529 1.98909e-20)
(1.05496 -0.0224448 -1.09098e-20)
(1.02275 0.00268114 0)
(1.01942 -0.00834714 0)
(1.02572 -0.00146464 0)
(1.02384 0.000101577 -2.97279e-23)
(1.02674 -0.000305019 -2.64511e-23)
(1.01752 -0.0060292 2.4486e-21)
(1.02192 0.00112043 1.80057e-22)
(1.02898 -0.0112125 -1.30603e-22)
(1.02316 2.89633e-05 -2.47548e-23)
(1.0259 -0.00144965 9.03161e-23)
(1.03489 0.00145326 -2.30876e-22)
(0.817821 -0.00175244 -3.25422e-22)
(1.07375 0.00866612 -8.28122e-21)
(1.02264 -8.10848e-05 1.74742e-22)
(0.671588 -0.0299046 1.4952e-21)
(1.02724 -0.000375525 0)
(1.02714 -0.00140913 3.05727e-22)
(1.02447 -0.000336293 7.04925e-23)
(1.02553 0.00430676 7.15477e-23)
(1.02525 -0.00068918 0)
(-0.0226064 0.063149 -4.76471e-20)
(1.0381 -0.00964853 -1.91902e-21)
(1.02018 -0.00298478 0)
(1.05153 0.00298099 3.78501e-21)
(1.0193 0.000590333 0)
(1.02212 -1.13928e-05 2.1743e-22)
(1.02303 0.00271872 0)
(1.02911 -0.011677 -2.13923e-22)
(1.02174 0.000108255 8.72658e-24)
(1.04612 -0.00986071 0)
(1.02504 -0.00226027 0)
(1.0218 9.78929e-05 5.77541e-22)
(1.02996 0.000179409 5.48994e-22)
(1.03613 -0.00533928 2.69209e-21)
(1.02534 2.07231e-05 9.05822e-23)
(1.02423 -0.000296672 -6.46929e-23)
(1.0247 -0.000789633 0)
(1.03303 -0.00329251 -1.74872e-21)
(1.02301 0.000755588 0)
(1.03494 -0.0252902 3.40808e-21)
(0.849036 0.000800779 -5.24494e-23)
(1.0654 -0.0318482 -1.19583e-20)
(1.02569 2.23642e-05 -4.34079e-23)
(1.02645 -9.00838e-05 0)
(1.02091 -2.31158e-05 0)
(1.02401 -0.00208216 -1.19659e-21)
(1.02257 -2.98089e-05 1.80481e-22)
(1.0514 0.00735296 -3.90193e-21)
(0.970539 -0.0131808 0)
(0.850606 0.00154048 -1.25095e-22)
(1.02377 -0.000239781 2.54143e-22)
(0.819222 0.0139493 0)
(1.02599 -0.000223271 3.67693e-23)
(1.02196 -0.000238384 -6.83821e-23)
(1.02904 -0.0082382 4.45996e-22)
(1.01103 -7.01833e-05 -2.97843e-23)
(1.07645 -0.0125171 0)
(1.03188 -0.0103215 -3.88999e-22)
(1.0232 -0.000119595 1.1879e-22)
(1.02168 0.00012105 0)
(1.04774 -0.00316537 -9.59274e-21)
(1.03019 -0.000181268 -2.59134e-21)
(0.82269 0.0116676 -2.90618e-21)
(1.04508 -0.0405566 0)
(1.07354 0.0122244 -7.06695e-21)
(1.02169 -2.78103e-05 -3.01486e-23)
(1.02209 7.36643e-05 0)
(0.988559 -0.0403241 -1.60499e-21)
(1.02121 -0.000334461 -5.46363e-23)
(1.026 -8.70148e-06 5.49896e-23)
(1.04808 -0.0369207 0)
(1.03315 -0.00361689 0)
(1.04625 -0.0104546 -6.50411e-21)
(1.02486 0.000364584 -5.76082e-22)
(1.0213 0.00385305 2.51437e-22)
(1.02584 -0.000302507 0)
(0.732366 -0.000460462 0)
(1.02475 -0.00167254 0)
(1.07357 0.0129768 1.21131e-20)
(1.02526 -0.00360084 -2.87453e-23)
(1.02337 -0.0404979 0)
(1.02548 0.000783128 1.15248e-22)
(0.838492 0.0129473 4.4135e-21)
(1.02111 0.00362735 0)
(0.806177 -0.0447728 -2.71362e-22)
(0.827605 0.0126723 1.01803e-20)
(1.02598 0.000293957 6.05459e-24)
(0.594048 -0.0599063 6.43179e-22)
(1.02294 -3.22059e-05 -3.72779e-22)
(1.06352 0.0027779 5.59579e-21)
(1.02304 0.000212844 9.10834e-23)
(1.02791 0.00372087 2.47084e-21)
(0.537518 -0.0600792 3.498e-20)
(0.601474 -0.0635838 1.43728e-20)
(1.05668 0.00698051 -1.66579e-20)
(1.02478 0.000336595 -1.38542e-22)
(1.03306 0.000476918 0)
(1.06535 0.0111376 -6.39979e-21)
(0.835695 0.00348364 4.05684e-22)
(1.0365 -0.00246333 0)
(1.0187 -0.00165591 2.12646e-21)
(1.02536 0.00416335 0)
(1.02221 0.000276717 -1.18292e-21)
(1.07795 -0.011831 0)
(0.970391 -0.00779743 -1.98179e-22)
(1.05439 -0.0214926 0)
(1.02364 0.000114523 2.54662e-23)
(1.02151 -1.42848e-05 1.47746e-22)
(0.926953 -0.0435302 1.20456e-21)
(1.02306 -9.6806e-05 0)
(1.06227 -0.0108573 1.39931e-20)
(1.02376 -2.89374e-05 0)
(1.02164 -2.45532e-07 4.28032e-22)
(0.833082 0.0130206 0)
(1.02597 5.18477e-05 -9.7619e-23)
(1.02484 -0.0017815 6.80939e-22)
(1.03239 -0.00481969 0)
(1.05514 -0.00600235 0)
(1.02339 1.99657e-05 -3.25389e-24)
(0.781776 0.015098 -4.21467e-22)
(0.940767 0.00660499 -1.77354e-22)
(1.02515 0.000158158 1.29677e-23)
(1.0273 0.00608611 0)
(1.02499 0.000150126 -1.90711e-23)
(1.02562 -0.00144294 4.10701e-23)
(1.02527 0.000134614 0)
(1.03231 -0.000547144 0)
(1.03043 -0.00625897 0)
(1.02117 0.00324349 0)
(1.02761 0.00359255 -1.64136e-21)
(1.02625 -0.00154778 0)
(1.03596 -0.0076277 0)
(1.02496 -0.00202197 1.57101e-22)
(0.816614 -0.0245393 0)
(1.02454 7.05747e-05 -3.30527e-22)
(1.02102 0.000106301 -1.65426e-22)
(1.02609 -0.00204056 -7.1918e-26)
(1.02494 0.000457934 3.56177e-22)
(1.02132 0.000165452 -6.45967e-22)
(1.02132 0.000168349 -3.68109e-22)
(1.07036 -0.000600399 -2.81226e-20)
(1.03089 -0.0175244 -8.43526e-22)
(1.06508 -0.026376 7.65329e-21)
(1.0217 2.88497e-06 0)
(1.02534 0.000138778 0)
(1.02556 0.00584273 0)
(1.03699 0.000248808 0)
(1.02428 0.00125935 0)
(1.0255 0.000143753 -3.97818e-26)
(1.07147 0.00548828 -1.26994e-20)
(1.02526 -0.00627603 3.43857e-22)
(1.02647 -0.000308093 0)
(0.699479 0.0194085 -1.28679e-20)
(1.02304 9.34494e-05 -3.25338e-24)
(1.02564 0.000154634 -4.07078e-24)
(1.02334 0.00257542 0)
(1.06434 -0.0180769 -2.45958e-20)
(1.02447 8.53778e-05 6.91015e-24)
(1.03649 -0.00567731 0)
(1.05099 0.00327501 0)
(0.917269 -0.0146095 -3.38749e-20)
(1.03427 -0.0130932 2.75867e-21)
(0.826796 0.0126889 8.78424e-22)
(1.04577 -0.0021975 -4.32105e-21)
(1.03116 0.00806011 -2.32792e-21)
(1.04344 0.0013517 0)
(1.01827 0.00231364 -9.05334e-22)
(1.03078 -0.0258065 -1.26777e-21)
(1.03241 -0.00516718 0)
(1.02002 0.000151262 8.67073e-22)
(1.02367 -0.000212249 -5.09828e-22)
(1.06503 0.00611901 0)
(0.95568 0.0115577 0)
(1.02571 -0.0216033 -3.75034e-22)
(1.02123 0.000154801 8.05273e-22)
(0.53848 -0.0637808 -1.24259e-20)
(1.02356 -0.000287286 -2.4034e-22)
(0.361135 -0.0526472 -2.65309e-20)
(0.715766 0.0181321 0)
(1.03657 0.00872437 0)
(0.914595 -0.0106652 1.69038e-20)
(1.04342 0.00167249 0)
(1.03111 -0.00365302 -1.73737e-21)
(1.02594 0.000111555 -1.48602e-23)
(1.02371 9.38335e-05 3.93773e-23)
(1.02388 4.87011e-05 0)
(1.06801 -0.0211316 -1.06806e-20)
(1.0297 -0.00264401 0)
(1.06562 -0.0139851 5.34121e-21)
(1.02319 4.71217e-05 9.0777e-24)
(1.02454 -0.001594 0)
(0.768827 -0.0209952 0)
(1.03632 0.00730321 0)
(1.02242 -0.000247138 0)
(1.02699 -0.0172514 6.21237e-23)
(1.02635 -0.00218135 0)
(1.02354 -0.000270173 2.20574e-22)
(1.02352 8.42715e-05 5.09241e-25)
(0.980786 0.0140624 0)
(1.02108 -0.000181204 0)
(1.03016 -0.00599725 6.3388e-22)
(1.02145 0.0011848 0)
(1.02613 0.000119507 -9.34131e-25)
(1.025 -0.00600326 0)
(0.80667 0.0153348 9.18182e-23)
(1.04162 0.0071587 -5.00672e-21)
(0.450982 -0.0090654 -1.05304e-20)
(0.854028 -0.0549547 8.8067e-21)
(0.830329 0.00719692 -3.52719e-20)
(1.06243 0.00238056 0)
(1.03022 0.0087055 -2.27118e-22)
(1.02383 0.00243817 -3.12682e-22)
(1.02222 0.00213229 0)
(1.02963 -0.00238583 0)
(1.02499 0.000467712 -4.35339e-22)
(0.789401 0.015633 -2.87128e-22)
(1.02359 0.000103947 0)
(1.02631 -0.000303669 0)
(1.02488 -0.000955953 2.11533e-22)
(0.785742 -0.0223608 -1.16976e-20)
(0.683712 0.0249527 -1.59379e-20)
(0.709395 0.0225016 4.4335e-21)
(1.02182 -7.4697e-05 0)
(1.02532 -0.00227464 8.1279e-22)
(1.04204 0.00682225 2.78603e-21)
(1.02584 -6.37273e-05 1.75176e-23)
(1.05002 0.00605943 -1.36246e-20)
(1.02763 0.00767218 1.28053e-22)
(1.04017 -0.0184851 0)
(1.03013 -0.0173305 1.2662e-22)
(1.0534 0.00789363 2.01984e-20)
(1.022 -2.43408e-05 4.13271e-24)
(1.02755 -0.000358318 0)
(1.0221 -2.20289e-05 0)
(1.07036 0.011472 1.03523e-20)
(1.03141 -0.00312389 -1.08668e-21)
(0.937805 -0.0191432 0)
(1.02226 1.30937e-05 -1.124e-23)
(1.03084 -0.00346028 6.47546e-23)
(1.06454 -0.0137009 -2.20484e-20)
(1.02375 4.3567e-05 -2.17396e-24)
(1.06177 -0.0103856 -1.81972e-20)
(1.02537 0.000106602 -3.16938e-22)
(1.02752 -0.00041343 3.59714e-23)
(1.04062 0.012684 -7.06945e-21)
(1.06729 0.00601009 7.85559e-21)
(0.866537 0.00852899 0)
(1.06292 0.00293942 -5.53297e-21)
(1.02223 -2.23529e-05 -2.77471e-22)
(1.02305 0.000211907 8.64097e-23)
(1.02682 -4.87526e-05 1.46988e-23)
(1.0443 0.00843715 -3.61809e-21)
(1.02868 -0.0154322 -3.30539e-22)
(1.03087 0.00594209 0)
(1.02463 -0.00171838 0)
(1.02431 -0.00579593 -3.69283e-22)
(1.02599 0.00162476 1.07305e-21)
(1.02303 -3.18924e-05 -5.53518e-24)
(1.02151 0.000428336 -2.6999e-25)
(0.74361 -0.0547965 -3.24566e-20)
(1.02524 0.000150507 -1.19988e-23)
(1.0227 3.34018e-05 2.33472e-23)
(1.0263 -0.000128911 -9.10632e-23)
(0.965931 -0.019688 0)
(-0.0409592 0.0435556 0)
(1.03118 0.00659284 -1.77823e-21)
(1.0574 -0.00332949 0)
(1.02671 0.000585574 -4.05561e-23)
(1.02598 -0.031407 1.3288e-22)
(1.02601 -0.00025918 0)
(1.02617 -0.000105166 1.65519e-24)
(1.02722 0.00051015 1.77351e-23)
(0.471784 -0.0495504 0)
(1.03059 -0.024913 1.05069e-21)
(1.03106 -0.00301023 8.07189e-22)
(1.02476 -0.000860114 -2.7767e-22)
(1.02165 0.00120767 -1.92697e-22)
(1.0234 -0.000264594 1.9416e-22)
(1.04061 -0.040488 2.00544e-21)
(1.02769 -0.0171036 -2.00595e-22)
(1.02492 0.005478 5.71984e-23)
(1.0624 0.000451759 2.70476e-20)
(1.02292 -0.0145176 -1.34996e-21)
(1.02205 9.14079e-05 0)
(1.04397 0.0105418 0)
(1.04037 -0.0407898 1.28697e-20)
(1.0261 7.08742e-05 0)
(1.02523 0.00558201 -8.70634e-22)
(0.994012 0.013354 0)
(1.06681 0.00577384 -7.45886e-21)
(1.0254 0.000158174 0)
(0.810194 0.0137329 0)
(1.02224 -0.00780339 3.39643e-22)
(0.942575 -0.00651874 -4.54675e-21)
(1.046 -0.00833076 -2.35418e-21)
(1.02239 -0.00466484 0)
(0.948791 -0.0129427 1.71875e-20)
(0.695739 0.0207462 -3.39448e-20)
(1.07411 0.00971116 0)
(1.02264 0.000189095 -2.61977e-22)
(1.02325 3.91808e-05 0)
(0.00675731 -0.00311743 3.01309e-21)
(1.0255 -0.0121655 -2.41567e-22)
(1.06183 0.00254899 -9.72501e-21)
(1.03067 0.000279664 -1.60647e-21)
(1.03874 0.00554673 -4.10795e-21)
(1.02764 -0.00106397 1.43387e-22)
(1.02227 0.00123268 2.05338e-22)
(0.852982 0.000911117 -9.69707e-22)
(1.02717 -0.00728987 -9.54162e-23)
(1.02451 -0.0054334 0)
(1.08189 -0.00877636 -2.25599e-20)
(1.02201 0.00102036 -3.1071e-22)
(1.02283 -0.000168299 -1.4014e-22)
(1.02244 0.000162896 3.84446e-23)
(1.06643 -0.00429843 0)
(1.03869 -0.00954858 -7.16461e-21)
(1.03423 -0.00667752 0)
(1.02214 -0.000230017 3.63643e-23)
(1.02231 -6.27943e-05 -4.54207e-22)
(1.0426 0.00471771 0)
(1.02796 -0.00021743 1.23002e-22)
(1.04303 -0.0300152 4.81556e-21)
(1.05302 0.00763368 -1.09605e-20)
(1.02232 0.000149551 0)
(0.873579 -0.0537955 -8.68322e-21)
(1.02168 -3.86964e-05 1.00586e-23)
(1.04438 -0.0314427 0)
(1.05098 0.00636301 3.6946e-21)
(1.02599 -0.000173633 1.91285e-23)
(1.02548 0.00208035 0)
(1.02186 -8.85654e-05 -9.80225e-24)
(1.07386 0.00218752 -9.42155e-21)
(1.0272 0.000361492 -5.33312e-23)
(1.02877 -0.0125514 8.69271e-23)
(1.03163 0.00803097 1.21199e-21)
(1.03014 -0.0113077 0)
(0.871245 -0.0205927 -7.1419e-22)
(1.02232 0.000108223 1.31424e-22)
(0.79671 -0.0240889 0)
(1.02968 -0.0154734 0)
(0.860357 -0.0327 7.83549e-21)
(1.038 0.00193772 0)
(1.0278 -0.000291378 2.94246e-23)
(0.989118 0.0143809 0)
(0.733859 0.0180034 -2.34568e-20)
(1.02577 -0.00174401 -9.25604e-23)
(1.02669 -0.000140353 3.95664e-24)
(1.02191 -3.34931e-06 5.11244e-24)
(0.707168 0.0214519 4.46089e-21)
(1.01863 -0.0433286 -1.00615e-20)
(1.03016 -0.0165001 5.29534e-22)
(1.02616 -0.000180841 -1.63947e-24)
(1.02219 0.000110264 -3.34571e-23)
(1.02987 -0.000764383 1.96211e-22)
(1.04069 -0.017795 0)
(0.677765 0.0212504 9.19184e-21)
(1.02302 -9.08901e-06 1.48493e-23)
(1.02325 -0.004035 -5.00843e-22)
(0.818731 0.013382 2.39725e-21)
(0.907113 -0.0166093 3.48286e-20)
(1.02443 0.000131415 6.3743e-24)
(1.02623 -0.0181841 0)
(1.0189 -0.00154002 -2.19935e-21)
(1.02978 -0.00739136 -1.84926e-21)
(1.02603 -0.000150929 2.02681e-23)
(1.02085 0.00317895 0)
(0.827474 0.00841084 1.24009e-20)
(1.02207 -5.13461e-05 1.48215e-22)
(1.03059 6.6975e-05 -7.37836e-22)
(1.05871 -0.00532279 0)
(1.02369 -0.000184381 -2.21436e-22)
(1.02497 2.63423e-05 4.03614e-24)
(1.03613 -0.00709482 0)
(1.04086 0.0130975 4.31704e-22)
(1.01715 -8.01755e-05 4.37351e-22)
(1.04465 -0.00310721 1.42121e-20)
(1.06783 -0.0268539 -2.9457e-20)
(1.03096 -0.0258806 3.40978e-21)
(1.02602 0.000701305 9.26688e-23)
(1.02488 -0.00109996 2.70488e-22)
(1.03888 0.005972 -4.4571e-21)
(1.02989 0.00197017 -6.85493e-22)
(0.717748 0.0183026 2.3386e-20)
(1.01665 -4.93011e-05 -2.87306e-24)
(1.0235 -0.000280728 4.96328e-22)
(1.02363 7.78841e-05 0)
(0.905939 -0.00468425 0)
(1.02436 0.000238637 4.73442e-23)
(1.02284 0.00209687 0)
(1.01626 0.000115867 4.47861e-23)
(0.829093 -0.0410005 0)
(1.03151 -0.0272892 0)
(1.02649 0.000185341 3.73314e-23)
(1.03506 -0.0264566 3.24374e-21)
(0.863755 -0.0412384 2.30713e-20)
(1.02697 -0.00366212 0)
(1.06915 -0.00121513 -2.18285e-20)
(0.138907 -0.0375356 0)
(1.07026 0.00808177 -9.68524e-21)
(1.06902 -0.0219247 -1.20981e-20)
(1.06017 -0.00763175 -4.3149e-21)
(0.670812 0.0151569 0)
(1.04107 0.00695709 4.92784e-21)
(1.07039 0.0154136 0)
(1.03375 -0.0246471 -2.52935e-21)
(0.327911 0.00758663 0)
(1.02158 0.00034013 -1.69294e-22)
(0.795479 -0.00104706 0)
(1.0268 -0.00719039 8.3621e-23)
(1.02961 -0.000710395 0)
(1.03331 -2.76891e-05 4.58614e-23)
(1.02622 -0.0020626 2.99946e-23)
(1.02486 -0.000909857 -2.43467e-22)
(1.05793 -0.00312737 1.51045e-20)
(1.02935 -0.00331499 1.24307e-21)
(1.02578 -3.32892e-05 0)
(1.02615 -0.0015593 0)
(1.04007 -0.0202527 -6.7937e-21)
(0.884474 -0.0419749 5.08132e-22)
(1.06244 0.00627159 1.82917e-20)
(1.02301 -0.000361759 -1.14612e-23)
(1.02281 -0.000164795 0)
(1.02393 0.000281062 -7.0987e-23)
(1.02551 0.00191795 -8.88293e-22)
(1.02235 -0.00522646 6.75775e-22)
(1.0286 -0.0121397 0)
(1.04532 -0.00196214 0)
(1.02491 0.000155508 -8.41682e-24)
(1.03318 -0.00270571 1.52555e-21)
(1.03252 -0.0266553 0)
(1.02378 1.0018e-05 7.33725e-25)
(1.02205 -0.00835846 4.17213e-22)
(0.523895 -0.0614415 1.81782e-20)
(1.02476 0.000423084 0)
(1.02195 -2.50886e-05 2.27104e-23)
(1.02217 -0.0128185 -9.0442e-22)
(-0.0201466 0.0865369 -3.53079e-20)
(1.02611 -0.000297197 0)
(0.930004 -0.00368021 -1.94251e-20)
(1.02255 2.42912e-05 0)
(1.02445 -0.00206721 8.75773e-22)
(1.02312 5.29564e-05 -1.2343e-23)
(1.02226 -5.0161e-05 0)
(0.806237 -0.0528355 -3.51231e-20)
(1.05847 -0.00172414 1.34418e-20)
(1.04521 -0.00328728 -7.67258e-21)
(1.03088 0.00216513 -3.17721e-21)
(1.02261 7.40929e-06 -6.11611e-23)
(1.0251 -0.00115599 1.85037e-22)
(1.02392 1.37392e-05 -4.02269e-25)
(1.03308 -0.000176068 0)
(1.0226 -1.77293e-05 8.46486e-23)
(1.02505 -0.00195701 4.72984e-22)
(-0.0203061 0.0705379 -3.08163e-20)
(1.02219 1.84366e-05 0)
(1.02676 -0.00360478 0)
(1.02749 -0.00110847 -1.65362e-22)
(1.02931 -0.00312784 -5.84176e-22)
(1.02419 -3.03888e-05 -1.82331e-23)
(1.06345 0.00717517 3.48624e-21)
(1.02599 -0.00144197 0)
(1.02195 -0.0103954 0)
(1.0185 0.0024983 0)
(1.0544 -0.0188957 1.27675e-20)
(1.026 -0.00191062 7.11571e-24)
(0.851213 -0.00491602 -5.90908e-23)
(1.02695 -0.00131221 -4.68124e-22)
(1.05032 -0.0236218 0)
(1.03293 -0.000665749 -3.47019e-21)
(0.813196 -0.0438447 -1.15485e-20)
(1.03258 0.00164678 0)
(1.02183 1.78076e-05 0)
(1.02095 0.0028108 -3.90441e-22)
(-0.0219063 0.0423511 -1.75904e-20)
(1.03144 0.00732505 -2.27652e-21)
(1.04013 -0.00775736 3.092e-21)
(1.06839 -0.0195694 0)
(0.841029 -0.0161444 -2.1708e-20)
(1.0004 0.0130152 0)
(1.06165 -0.0333818 2.31344e-20)
(1.02161 0.000301689 3.53615e-22)
(1.04596 -0.00743733 -5.32951e-21)
(0.823849 0.0071445 3.51516e-20)
(1.05369 -0.00581465 -2.41341e-21)
(1.04595 0.00586668 4.73563e-21)
(0.678502 0.0228346 0)
(1.02398 0.00171189 0)
(1.02305 4.41178e-05 2.29539e-23)
(1.02335 2.6252e-05 0)
(1.03156 0.00687675 1.05916e-21)
(1.02714 0.00084197 1.33933e-21)
(1.04266 0.00309755 0)
(1.02053 0.000307198 0)
(1.0283 -0.0024312 -5.93513e-22)
(1.04683 -0.00916526 5.58251e-21)
(1.02508 0.000476588 -6.26279e-22)
(1.02457 -0.00232853 -4.94888e-22)
(1.02525 0.00179878 3.0418e-22)
(0.85668 -0.0127315 0)
(1.02168 -2.70184e-05 -2.84984e-24)
(1.02465 -0.000388848 0)
(0.825053 0.0131612 2.35475e-21)
(0.658327 0.0194336 7.11018e-21)
(1.02741 0.000525906 2.3269e-23)
(1.02514 0.00332005 0)
(1.02266 8.48186e-05 -1.02854e-24)
(0.841604 0.000721071 0)
(0.855052 0.0120026 0)
(1.03272 -0.00466456 1.69259e-21)
(1.02075 0.00295708 5.06225e-22)
(1.02734 -0.000655424 0)
(1.02631 0.000115838 -1.68206e-23)
(0.992547 -0.006339 2.48369e-22)
(1.03043 -0.00646049 0)
(1.03455 -0.00747905 -5.29567e-21)
(1.03471 -0.0144499 -8.24848e-22)
(1.0269 6.41387e-05 5.19285e-23)
(1.02494 0.000421422 7.27446e-22)
(0.743296 0.0152658 -3.13432e-22)
(1.0262 -0.00226762 2.18859e-23)
(1.02224 -5.35459e-06 3.00501e-24)
(1.0762 0.00206621 2.99379e-21)
(1.02419 -0.00568236 0)
(1.03053 0.00210996 6.74736e-23)
(0.972622 0.00405477 -6.89988e-22)
(1.07436 0.00152357 4.77599e-21)
(1.02792 -0.0163459 2.07295e-22)
(1.02567 -0.000246047 0)
(1.02664 0.000481001 6.02164e-23)
(1.02512 -0.0118789 4.91121e-22)
(1.02235 -3.72968e-05 9.41627e-23)
(1.02923 0.00202063 -1.1973e-21)
(0.638714 0.000111781 -1.93068e-21)
(1.02464 -0.000352388 0)
(1.07067 0.0088105 -1.25693e-20)
(1.02482 0.000435623 0)
(1.02578 -0.000255003 0)
(1.02237 -4.84831e-06 -2.89898e-24)
(1.02501 0.000112582 0)
(1.02481 0.000415804 0)
(1.06811 -0.00785243 0)