/*--------------------------------*- C++ -*----------------------------------*\
| =========                 |                                                 |
| \\      /  F ield         | OpenFOAM: The Open Source CFD Toolbox           |
|  \\    /   O peration     | Version:  v2012                                 |
|   \\  /    A nd           | Website:  www.openfoam.com                      |
|    \\/     M anipulation  |                                                 |
\*---------------------------------------------------------------------------*/
FoamFile
{
    version     2.0;
    format      ascii;
    class       volScalarField;
    location    "400";
    object      k;
}
// * * * * * * * * * * * * * * * * * * * * * * * * * * * * * * * * * * * * * //

dimensions      [0 2 -2 0 0 0 0];


internalField   nonuniform List<scalar> 
13749
(
0.0143961
6.48679e-05
8.82562e-05
7.21621e-05
0.0387483
4.62781e-05
0.0234099
8.3949e-05
0.000160851
7.17634e-05
4.64471e-05
8.91268e-05
8.83849e-05
0.0252326
7.67222e-05
0.025381
8.01469e-05
8.31779e-05
0.00434878
5.21438e-05
0.0312478
0.0423397
5.41649e-05
9.22605e-05
9.2934e-05
4.62345e-05
7.79024e-05
0.000120167
0.0450499
0.0289374
0.00041004
7.35241e-05
0.000165651
7.68778e-05
0.00983051
0.0270443
0.0430947
7.90143e-05
0.00971566
0.0222599
8.45208e-05
0.000181559
6.59675e-05
0.0432234
5.14835e-05
6.52e-05
5.04681e-05
7.0851e-05
0.000100368
8.3077e-05
9.25572e-05
5.13664e-05
0.0205593
6.84232e-05
8.38295e-05
0.0274015
0.0443042
9.41936e-05
5.11261e-05
0.000127995
7.32703e-05
0.00166618
7.20192e-05
5.36505e-05
0.00011388
0.00701571
9.19294e-05
0.000194841
0.0233191
0.0135062
9.29859e-05
0.00117266
8.07917e-05
0.0391265
8.44384e-05
0.0383048
7.28436e-05
4.44274e-05
0.0241248
6.52303e-05
0.00163762
9.34438e-05
9.45928e-05
5.00246e-05
0.0476853
5.9364e-05
0.0171752
9.20098e-05
0.0335202
0.000112438
6.94505e-05
0.00205948
4.62551e-05
9.07814e-05
8.39901e-05
0.0353351
0.0238969
9.58238e-05
0.0317146
5.10864e-05
7.33876e-05
0.0221764
7.82899e-05
0.000171828
4.63125e-05
8.611e-05
6.91708e-05
0.00349817
4.45558e-05
0.0304019
7.86967e-05
0.00183314
0.0202311
8.34804e-05
0.000115519
0.000151794
7.24064e-05
8.92078e-05
0.000121667
8.30382e-05
6.80623e-05
8.52003e-05
4.58298e-05
6.35815e-05
5.07434e-05
0.0461468
9.07097e-05
8.44643e-05
6.34313e-05
0.00806939
5.03707e-05
0.017661
0.000121809
0.0306886
0.00018612
0.0425537
0.030029
0.000124739
4.545e-05
6.14096e-05
0.03195
5.13011e-05
6.80649e-05
0.0124359
7.83419e-05
4.481e-05
0.0340743
0.0227875
0.0385391
0.0427275
5.11625e-05
0.030695
4.58086e-05
0.000420037
0.0472676
8.54503e-05
0.0169305
0.000208603
7.49567e-05
7.58507e-05
8.82422e-05
4.6072e-05
0.000123584
4.94838e-05
0.000668047
8.76989e-05
5.0883e-05
7.86351e-05
0.039558
0.000234991
7.94898e-05
4.59846e-05
0.0451198
0.0312462
0.000139336
8.77126e-05
0.000192802
0.00198296
0.000120133
0.0394794
9.07688e-05
8.44809e-05
0.000198993
0.0129271
8.81248e-05
6.13695e-05
6.80641e-05
5.53494e-05
0.0088327
7.09092e-05
0.0385162
0.000571586
8.72633e-05
8.76612e-05
5.91105e-05
5.49386e-05
0.000121593
9.71626e-05
0.000102805
0.00206674
0.02449
8.81211e-05
0.0475221
0.0214828
6.96062e-05
0.0161017
0.000181049
0.0440084
5.05858e-05
5.08196e-05
8.47351e-05
0.0100154
9.44779e-05
6.63331e-05
0.0197569
0.00808192
8.79989e-05
0.0242726
8.49687e-05
6.81772e-05
5.05066e-05
0.0297663
0.000170822
9.08399e-05
0.00915439
0.0381568
0.0124973
5.27416e-05
0.0158579
6.77492e-05
0.00935013
0.0109657
6.73236e-05
4.59803e-05
8.18742e-05
4.45859e-05
0.0334924
6.80341e-05
0.000607624
4.57071e-05
0.0183677
0.000256953
6.81554e-05
7.03436e-05
4.72926e-05
4.8318e-05
7.11454e-05
6.66576e-05
0.00182692
0.00115544
7.90966e-05
5.96117e-05
0.0374351
0.0280358
8.35683e-05
4.75422e-05
0.0320456
0.000148828
8.45377e-05
6.39166e-05
0.0193796
0.0453433
7.91612e-05
9.4432e-05
6.44959e-05
4.45439e-05
4.49864e-05
0.000550589
0.0413803
8.86668e-05
5.0962e-05
8.69454e-05
0.0291557
0.0226177
7.13739e-05
0.0235541
0.00642091
9.33105e-05
0.0407616
7.82395e-05
0.00426796
0.0123726
0.0325051
8.7499e-05
0.0135969
8.84946e-05
0.000281891
0.000474402
6.37379e-05
0.0160873
0.0368292
0.00015794
8.41023e-05
9.39554e-05
0.0458159
0.0446255
6.09384e-05
8.39116e-05
0.0181185
8.60378e-05
0.0466831
0.000383673
0.0370444
8.62315e-05
0.000123963
0.0404827
0.0417185
6.54423e-05
0.0393399
6.10743e-05
6.30214e-05
9.494e-05
0.0132891
0.000103743
9.80668e-05
7.21147e-05
0.00236061
6.31806e-05
0.000178122
5.1791e-05
6.77473e-05
6.81824e-05
8.65845e-05
0.00696805
8.05397e-05
8.70559e-05
0.0341719
6.75608e-05
7.28442e-05
0.0411783
0.0508438
8.19258e-05
5.8848e-05
0.0151262
8.43398e-05
6.96773e-05
0.00639897
8.34548e-05
0.0267932
0.0204805
4.43265e-05
0.0316665
0.0156543
8.90691e-05
4.75152e-05
0.00010524
9.52864e-05
9.48135e-05
7.3935e-05
0.00911443
8.69778e-05
0.0250599
8.07103e-05
6.48803e-05
9.98665e-05
0.000100379
9.02166e-05
7.15372e-05
9.44948e-05
0.00416756
7.47451e-05
6.93679e-05
0.000117603
0.0377241
4.75632e-05
0.00105598
5.78597e-05
0.00013191
8.42248e-05
7.93381e-05
0.00130569
4.64146e-05
8.31561e-05
0.00261663
8.10678e-05
6.47758e-05
4.9447e-05
6.86224e-05
0.0416713
9.71622e-05
7.84741e-05
5.09534e-05
6.13196e-05
0.0145493
0.000103666
0.00655999
0.0311606
0.000142284
0.0260077
0.0320224
8.6107e-05
7.42036e-05
6.84645e-05
0.00958427
0.0281551
6.82017e-05
7.06319e-05
8.00162e-05
0.0360873
5.07221e-05
0.000103842
8.09481e-05
0.000754585
0.000336017
0.00442383
0.010138
0.0524447
7.4878e-05
0.00160793
0.0150449
4.56451e-05
0.00186263
7.79833e-05
0.00754567
4.45528e-05
0.0131067
0.0410301
8.3943e-05
0.0219509
0.0329667
7.10261e-05
9.31876e-05
0.0398299
9.28574e-05
7.71462e-05
8.72283e-05
4.88874e-05
7.7184e-05
8.96068e-05
7.95584e-05
0.000118476
7.37932e-05
6.47955e-05
6.08453e-05
8.09023e-05
8.04743e-05
7.96396e-05
0.0111975
0.000315877
0.00025621
0.0127148
0.0322081
9.45085e-05
0.0284676
0.0197541
0.0294072
8.53181e-05
8.29454e-05
0.0343439
0.00745012
0.000111469
0.000584978
4.47234e-05
5.01546e-05
8.80786e-05
9.32738e-05
9.05927e-05
0.0347244
0.0323269
0.0532854
4.98061e-05
7.02926e-05
0.0176279
5.11654e-05
0.035184
0.00814946
8.25596e-05
9.59496e-05
0.000116309
0.0306839
9.31182e-05
0.0303656
6.8707e-05
8.37057e-05
5.28437e-05
0.0218396
0.000451898
0.00033952
9.08438e-05
0.0152527
6.2219e-05
9.20278e-05
7.05684e-05
6.13188e-05
7.08723e-05
5.00074e-05
7.57673e-05
8.2711e-05
8.48424e-05
0.019377
5.93466e-05
0.000127526
0.00012778
6.4448e-05
0.0483063
0.0331854
0.0386605
7.69285e-05
0.000195181
0.000101967
0.0119278
6.76557e-05
9.84855e-05
5.08414e-05
0.0465675
8.06414e-05
5.965e-05
0.0202358
0.0253206
8.2628e-05
0.00900431
0.0349187
9.62529e-05
0.0255039
0.0231641
5.59597e-05
0.0363918
6.24426e-05
0.039116
0.00654715
6.30032e-05
8.5614e-05
0.0198153
9.16654e-05
7.01644e-05
0.0361115
0.0517263
0.00896824
9.66006e-05
0.0153138
8.81579e-05
8.20224e-05
0.0290487
0.020863
9.78766e-05
0.0358462
0.031621
6.51372e-05
0.0405572
9.04882e-05
7.19596e-05
0.036432
0.0327263
8.8948e-05
7.8631e-05
0.0462709
8.90718e-05
8.25376e-05
0.0392023
0.0215883
0.0459511
7.94281e-05
0.0427222
0.000101986
0.0172422
5.50267e-05
0.000146614
0.0357942
7.67683e-05
8.94255e-05
7.97854e-05
0.0303467
0.0101444
4.45968e-05
0.000223865
7.18426e-05
0.0136471
0.00624111
9.03755e-05
0.000109153
8.99681e-05
8.10252e-05
0.0436301
0.000167765
9.19584e-05
0.0321135
0.000108015
0.0370378
8.90124e-05
7.01601e-05
0.0146061
9.47371e-05
9.69854e-05
0.03469
8.24767e-05
0.0102856
0.00819415
9.19465e-05
0.0459328
9.50608e-05
0.0253633
0.000130406
0.00824263
0.000351445
0.000425653
0.0132946
9.89889e-05
0.0492108
0.0397593
7.76586e-05
0.013942
8.33272e-05
0.0431684
0.0379596
0.0313851
0.0314684
8.17334e-05
4.9412e-05
8.58264e-05
0.00874405
8.99351e-05
8.86471e-05
9.532e-05
0.000559964
0.000115265
0.000161817
7.74642e-05
0.000115344
0.0267171
8.35344e-05
7.05381e-05
0.0181541
6.85421e-05
8.70622e-05
0.00809756
7.77375e-05
0.0410391
8.11819e-05
6.76588e-05
4.46437e-05
6.88805e-05
0.0240453
0.000766509
0.000160152
0.000109982
0.0387137
4.74876e-05
6.86491e-05
7.94884e-05
0.0324976
0.000118003
0.0247161
0.0248924
0.0294667
5.08188e-05
0.0366143
7.16293e-05
0.00330445
7.79651e-05
0.000106742
0.0455142
0.000864055
0.0121761
0.000159503
8.42051e-05
0.000120004
7.29426e-05
0.00035454
0.010398
0.0094771
6.83563e-05
0.00867368
0.0394726
0.0356718
0.0291275
0.034629
0.0382021
0.0269544
8.31987e-05
9.81439e-05
0.000117194
9.69309e-05
6.86741e-05
5.75185e-05
8.82399e-05
8.70515e-05
0.00121803
9.23384e-05
0.0374947
0.0125629
4.83107e-05
7.86093e-05
0.0257342
0.0399934
0.0189504
8.38627e-05
0.0256711
9.03247e-05
8.55818e-05
0.0256293
0.000117616
0.0482703
5.02731e-05
4.4439e-05
0.0488101
7.25988e-05
0.0481371
5.50378e-05
0.0476794
9.87988e-05
7.77016e-05
4.88486e-05
0.000128947
5.861e-05
0.0488041
8.65458e-05
0.00841798
0.00657685
4.97505e-05
8.58699e-05
0.0100618
0.0247881
8.21899e-05
0.0259766
5.65854e-05
6.98718e-05
9.04231e-05
0.0148801
0.0391164
0.00809499
6.01193e-05
7.44126e-05
0.000588527
8.7042e-05
7.95452e-05
0.00922389
6.88302e-05
0.0270267
7.17533e-05
0.037862
0.0112795
8.44774e-05
0.046355
0.0402248
0.000113075
8.43204e-05
0.0152673
0.000267117
0.0125798
9.17117e-05
0.000291243
0.00626939
6.72718e-05
0.000168717
7.30045e-05
0.0319499
0.000148806
4.99017e-05
7.96458e-05
8.63075e-05
0.00672554
9.07944e-05
6.99184e-05
9.34141e-05
0.0306944
8.70407e-05
4.82874e-05
8.4614e-05
0.0406143
6.2523e-05
6.85599e-05
5.58653e-05
0.00188579
8.4484e-05
0.0373703
0.000100678
0.0382738
0.0355286
0.000132482
0.0391035
4.6188e-05
0.0332797
7.57474e-05
8.85473e-05
7.95082e-05
0.00031329
0.0063259
0.0277965
0.0314299
0.00420928
5.17339e-05
0.00312751
0.0283362
4.61716e-05
9.79665e-05
6.45172e-05
7.94914e-05
5.42913e-05
6.68273e-05
0.0311121
6.67704e-05
5.50264e-05
6.68762e-05
6.13183e-05
6.54551e-05
0.0142985
0.000582711
0.0206822
0.0320886
0.029298
0.0384253
0.0228308
6.01842e-05
0.0247828
8.878e-05
0.00171427
8.91419e-05
5.78214e-05
0.0459802
7.1942e-05
0.000197936
5.81379e-05
0.0301359
0.0321717
4.68446e-05
0.0442664
8.62426e-05
0.0278284
0.0353497
6.39175e-05
8.56248e-05
4.77352e-05
0.000113207
0.000199527
0.000278467
5.05644e-05
5.45783e-05
4.68355e-05
0.000108265
0.0400404
9.84909e-05
0.00127712
0.0459788
9.21753e-05
0.0515629
7.46032e-05
0.00777086
7.4502e-05
6.68928e-05
8.00293e-05
0.0402915
8.78044e-05
0.00213019
0.000157808
4.53594e-05
9.39274e-05
8.67407e-05
0.0410706
0.0406751
7.76645e-05
6.00873e-05
0.0474245
0.00198272
4.68974e-05
7.44103e-05
8.24526e-05
7.38449e-05
5.5333e-05
0.0422886
4.85704e-05
0.000113062
0.0329047
0.011303
0.00909287
9.13958e-05
0.0282619
0.000177165
0.0235282
0.0393394
8.81138e-05
9.04353e-05
0.000758855
8.50391e-05
7.06214e-05
0.000285787
6.6268e-05
0.000546257
9.41404e-05
6.48569e-05
0.0237478
8.06665e-05
8.59338e-05
8.76772e-05
4.80183e-05
8.25291e-05
0.0437857
7.97756e-05
9.34245e-05
0.0193272
0.00647198
7.39392e-05
0.000233295
0.0348579
4.46099e-05
7.89351e-05
0.000107932
9.05275e-05
0.0434504
7.79156e-05
0.000163033
8.73013e-05
0.000197743
5.09775e-05
6.43513e-05
5.91926e-05
9.25947e-05
9.32922e-05
8.94737e-05
9.36415e-05
8.56281e-05
7.83075e-05
8.8765e-05
9.16753e-05
8.07528e-05
6.76746e-05
0.000103259
4.44449e-05
0.0341335
7.8715e-05
8.72682e-05
0.0421838
0.000129325
5.05422e-05
6.69879e-05
8.64334e-05
4.70748e-05
0.000401768
0.0404952
7.40615e-05
8.76476e-05
0.019636
0.000365491
0.00143874
6.69948e-05
0.0248421
4.55129e-05
0.0441689
7.62534e-05
0.0315813
6.83941e-05
0.000103886
8.75609e-05
9.00918e-05
0.0306318
0.0210393
4.70561e-05
0.0156382
0.028909
9.11941e-05
8.60059e-05
0.0256994
0.00810389
4.80474e-05
9.43909e-05
4.77392e-05
9.53522e-05
4.51266e-05
0.0258809
0.0337165
8.06259e-05
0.0071663
8.37928e-05
0.0310664
0.00010119
6.06971e-05
4.73184e-05
8.74071e-05
0.0241919
7.44333e-05
8.76798e-05
7.72303e-05
0.00032326
8.8555e-05
0.0351934
4.83801e-05
4.85977e-05
0.000266366
0.0393749
4.45822e-05
0.0435254
0.0296871
4.4776e-05
4.45294e-05
4.47105e-05
6.10825e-05
7.81565e-05
0.0021811
0.00752341
0.0205832
4.72778e-05
0.0245724
8.86195e-05
9.2306e-05
9.11753e-05
6.33838e-05
8.80897e-05
5.6195e-05
0.000180009
7.27356e-05
0.0301845
8.31573e-05
5.76508e-05
9.26564e-05
0.0125755
4.91367e-05
9.85995e-05
4.64e-05
0.0289964
9.20348e-05
0.0290015
0.0464834
8.41146e-05
0.0506025
0.0104169
0.0371939
0.0387004
5.02473e-05
4.63894e-05
0.0372251
0.00698937
0.0286979
0.0240336
8.94366e-05
6.25509e-05
0.0115418
8.79594e-05
0.000127183
8.95339e-05
8.96146e-05
0.0356344
0.0149004
8.41874e-05
7.50743e-05
0.000233185
0.0447876
0.00503316
0.0458912
4.6845e-05
0.000153159
4.86233e-05
8.96331e-05
0.0167547
4.99397e-05
0.0385114
9.05599e-05
0.0384263
7.85079e-05
9.37251e-05
0.00668926
0.00598497
0.0154934
0.0257045
4.53253e-05
7.86165e-05
5.97071e-05
0.0429703
0.0474327
8.78832e-05
7.39762e-05
0.000102847
0.0327555
9.25725e-05
8.28626e-05
4.8209e-05
7.78023e-05
5.86795e-05
4.53178e-05
9.15755e-05
6.40344e-05
6.64106e-05
0.00138936
8.86397e-05
0.00675691
8.58941e-05
9.17447e-05
0.00142246
5.5778e-05
0.0276614
5.73812e-05
0.00873222
8.37511e-05
8.34147e-05
7.7944e-05
0.0278801
7.96503e-05
7.90991e-05
0.00146635
0.000132845
0.000122616
0.0378952
9.3514e-05
6.47912e-05
0.0097312
5.67248e-05
5.95674e-05
5.75602e-05
7.93168e-05
8.87015e-05
9.08995e-05
0.00700896
0.0161238
0.0539043
9.49957e-05
4.88629e-05
9.49794e-05
0.00279937
0.0391643
6.86403e-05
0.0111384
0.000162826
0.0341582
6.34843e-05
4.66189e-05
6.31405e-05
0.0277745
6.42407e-05
9.41148e-05
0.0130438
8.33476e-05
7.37557e-05
0.0326284
4.86028e-05
8.31972e-05
9.04511e-05
0.0307243
0.00610942
0.0291947
0.0332124
0.000170622
4.76707e-05
7.76711e-05
5.72488e-05
0.00423931
0.0423479
6.53928e-05
0.00373718
6.63002e-05
0.000100161
8.95158e-05
0.000122536
8.32924e-05
8.98077e-05
0.000281445
0.0211925
4.57982e-05
5.36395e-05
0.000107453
8.40082e-05
0.0133191
9.02782e-05
8.87243e-05
5.36523e-05
0.0296999
0.0353852
4.60727e-05
4.94738e-05
0.0150102
6.85281e-05
0.0235359
9.04686e-05
7.42188e-05
0.0411298
0.0112706
5.34847e-05
6.0977e-05
6.69052e-05
0.0506098
8.7244e-05
0.000286354
0.000558252
9.00793e-05
4.91641e-05
8.74216e-05
0.0328375
5.40031e-05
0.0214868
0.0119992
9.24919e-05
0.000151133
5.72304e-05
0.000100153
0.0167482
9.35288e-05
0.0370014
0.0465268
7.29231e-05
6.42051e-05
7.58927e-05
8.36139e-05
0.000326443
5.35529e-05
6.29992e-05
7.75817e-05
4.66104e-05
0.00709747
7.76445e-05
0.000113559
0.000241134
7.68078e-05
0.000301479
0.0321951
5.46583e-05
7.91216e-05
6.17096e-05
0.000285775
8.93552e-05
9.24276e-05
7.31506e-05
0.011217
7.38643e-05
0.00786213
0.0324877
0.00575711
0.0336638
8.26742e-05
0.00835866
0.028244
5.37741e-05
4.84446e-05
0.000266145
6.03364e-05
0.0463668
9.54505e-05
0.017907
0.0274264
6.81973e-05
0.0397576
7.60874e-05
7.73877e-05
8.30777e-05
0.03376
0.0326419
0.0366486
0.0422459
0.0510931
8.26714e-05
0.0452573
6.32789e-05
4.99735e-05
0.000101578
7.68354e-05
0.0183822
0.00247714
0.0034262
0.000110981
0.000590649
4.65386e-05
0.0378928
0.0366275
0.000115081
4.93314e-05
5.37767e-05
0.000110795
8.51743e-05
6.75882e-05
0.000735017
0.0271728
5.52565e-05
8.28149e-05
5.49926e-05
7.14594e-05
4.83329e-05
5.82435e-05
0.0287952
0.000277196
0.00675816
8.77574e-05
0.00148787
0.000265963
8.86836e-05
0.0396292
9.7196e-05
0.0060324
7.28318e-05
0.000109755
6.72463e-05
6.29046e-05
8.65462e-05
9.26859e-05
8.53995e-05
0.00160977
0.000148702
0.025949
0.0249156
6.39794e-05
0.000165555
0.0392957
4.49345e-05
7.82965e-05
0.000117162
0.0320323
0.000109243
7.59485e-05
0.0235952
4.91807e-05
0.00915711
0.0312264
5.84805e-05
8.48341e-05
0.0061959
8.40375e-05
7.26443e-05
0.000280696
0.0248559
0.000183248
0.0304291
8.4011e-05
5.49089e-05
0.0270655
8.09166e-05
0.0087287
0.000507059
9.1492e-05
0.0433049
8.92354e-05
0.00392079
9.3459e-05
0.00397445
0.000102136
9.86389e-05
4.59821e-05
0.00603889
8.7641e-05
0.0060777
0.000285477
9.86766e-05
8.8289e-05
0.000249319
8.22026e-05
0.0376721
7.10984e-05
0.000377652
0.0339046
6.3729e-05
7.86564e-05
0.0410418
5.28948e-05
0.00554001
0.000416476
0.0367798
9.62943e-05
4.45462e-05
9.56761e-05
7.89589e-05
9.34452e-05
0.0496895
6.56565e-05
0.00197235
9.36456e-05
9.05414e-05
7.81071e-05
4.59436e-05
0.0263717
5.95672e-05
6.90975e-05
0.0313069
0.00874424
6.74862e-05
0.000132622
0.00013801
0.0344448
5.16934e-05
9.80106e-05
6.75556e-05
0.0305386
8.21899e-05
0.000115534
8.86138e-05
0.0274702
0.0269472
7.24015e-05
5.29797e-05
0.0287689
0.0340622
7.36849e-05
8.7097e-05
0.000726918
0.000266648
5.9608e-05
6.76038e-05
9.20707e-05
0.0210381
0.000149712
5.37287e-05
0.00602212
0.0337932
0.0351609
4.81125e-05
5.96312e-05
8.10956e-05
8.75101e-05
8.88826e-05
0.0498466
7.64171e-05
7.29105e-05
8.97816e-05
5.16254e-05
8.51603e-05
4.47366e-05
4.94224e-05
0.0239121
9.09205e-05
0.000117926
0.0343524
4.65384e-05
4.71272e-05
0.0343999
6.45678e-05
0.0454772
5.553e-05
5.92498e-05
8.15453e-05
0.0299192
0.03748
7.29106e-05
8.53258e-05
6.99849e-05
0.00331715
5.05898e-05
6.78203e-05
8.48107e-05
7.5942e-05
6.77718e-05
4.47247e-05
7.53722e-05
6.54243e-05
0.0359062
0.0142629
0.0053659
0.000797053
9.07843e-05
8.5825e-05
8.20505e-05
0.00100164
0.0250157
0.000188489
8.65391e-05
9.19207e-05
9.69538e-05
8.70625e-05
0.0335117
9.31439e-05
6.36007e-05
6.85239e-05
0.0428942
0.0513801
8.40961e-05
0.0485571
9.58731e-05
6.49437e-05
8.33275e-05
0.000350863
8.72137e-05
4.96919e-05
7.6966e-05
9.30022e-05
9.29563e-05
8.6419e-05
0.000287814
7.91383e-05
0.0329098
6.54321e-05
0.00592391
0.0338854
0.000116071
0.0280772
0.000301353
7.74014e-05
5.81143e-05
7.5491e-05
7.77936e-05
0.0130102
9.20338e-05
6.65061e-05
0.0128079
0.0201572
0.0277408
9.962e-05
8.74008e-05
5.92554e-05
0.000203437
0.0248824
7.8799e-05
0.0345207
8.33101e-05
7.37185e-05
0.005914
0.00258258
0.0324724
8.72737e-05
7.91014e-05
8.56356e-05
6.51277e-05
8.69552e-05
0.0388081
8.41169e-05
9.26071e-05
9.33355e-05
0.000111043
4.60448e-05
8.7185e-05
0.0358386
0.000184716
7.13172e-05
0.0186445
9.90786e-05
8.44334e-05
9.27606e-05
7.24941e-05
7.90064e-05
0.000498578
7.30604e-05
9.41178e-05
0.00651635
6.19805e-05
0.00882787
0.0213435
0.000145783
0.0357293
0.0236694
0.0259317
0.000569745
9.42214e-05
5.38146e-05
0.0344249
8.60134e-05
0.0458079
4.83898e-05
6.74733e-05
8.74145e-05
0.0356813
0.0115489
0.00573165
7.55429e-05
0.0248745
0.0367681
0.0367628
0.000158394
0.00219108
0.0255786
0.000686615
0.0250926
9.5168e-05
0.000151576
8.77925e-05
5.40919e-05
0.000224498
0.028457
0.00572752
8.87206e-05
6.96833e-05
8.20865e-05
0.0228546
0.0268537
8.69464e-05
6.45155e-05
0.000203027
0.0393164
8.76696e-05
6.66571e-05
5.92438e-05
7.62812e-05
0.000608381
0.037149
7.43068e-05
0.00995292
6.42686e-05
6.68997e-05
9.20963e-05
0.0372072
0.00435272
8.99694e-05
6.35872e-05
4.72052e-05
0.00592315
0.0265491
5.76733e-05
5.99292e-05
0.0271314
8.29938e-05
5.38094e-05
8.78533e-05
0.0346936
6.38877e-05
6.97951e-05
8.99852e-05
4.75858e-05
8.06801e-05
0.00527055
0.0335693
8.59897e-05
6.93437e-05
4.4163e-05
0.0131614
6.77567e-05
0.000208221
0.026963
8.64331e-05
0.0385393
0.0439919
0.000168032
6.20775e-05
0.000758338
0.0305099
0.000226137
6.36146e-05
9.0639e-05
9.9546e-05
0.00010019
9.25876e-05
0.000104171
5.39356e-05
0.00528419
0.000110273
0.0477608
8.63458e-05
8.49801e-05
0.0435147
6.05536e-05
0.0479303
0.0301409
7.30954e-05
8.80169e-05
4.91739e-05
9.3619e-05
8.6279e-05
0.0375411
0.0302648
9.28553e-05
5.50099e-05
7.34061e-05
4.73303e-05
0.00337662
8.81382e-05
0.0340711
0.000108925
0.0115409
0.00585344
9.15924e-05
0.0241895
0.0132503
0.0315483
0.0362033
7.72029e-05
6.29581e-05
4.42972e-05
0.0002893
0.0338985
5.88163e-05
0.00519474
0.0129825
0.00117176
0.0322308
6.92924e-05
0.030662
7.6088e-05
0.000259459
8.8386e-05
0.000162232
0.000456686
0.0446541
7.45683e-05
4.54616e-05
0.0353281
8.72593e-05
0.00400889
8.36741e-05
0.00756217
0.036284
6.77094e-05
8.76408e-05
0.0117641
7.15213e-05
5.68407e-05
0.0247751
0.00567693
9.35338e-05
7.30105e-05
0.04719
0.000190962
8.85766e-05
0.000123158
0.000120916
0.0280042
0.0293884
0.0113693
0.00200599
0.000180129
6.92999e-05
0.000153522
0.031438
9.41484e-05
9.50335e-05
4.69111e-05
9.02313e-05
8.6752e-05
8.85553e-05
0.000180103
0.0143169
0.0541057
0.0223418
0.0405916
9.2703e-05
0.000167082
6.65856e-05
0.0313497
0.0103652
0.00531655
0.00552829
0.025483
9.51264e-05
9.79292e-05
5.67561e-05
0.0256312
8.30941e-05
6.72517e-05
8.95464e-05
8.53434e-05
0.011905
0.00324428
0.0161267
4.46017e-05
0.00712283
0.0345829
4.8925e-05
5.92082e-05
0.000142643
0.0143166
6.51452e-05
8.84466e-05
0.0356575
6.97913e-05
7.49346e-05
9.15811e-05
6.75462e-05
6.04331e-05
7.6992e-05
6.85286e-05
0.00706418
7.47938e-05
4.94177e-05
9.23879e-05
0.00595277
9.64707e-05
0.023518
9.9539e-05
9.7988e-05
8.64323e-05
8.90054e-05
0.00811638
9.38088e-05
0.0121033
0.0358849
0.0149545
0.0129014
6.84265e-05
0.0435765
0.000106118
6.35328e-05
0.0334272
0.0360815
0.0247461
8.86663e-05
6.33201e-05
0.0401962
0.0287197
6.79666e-05
8.72849e-05
9.70375e-05
7.65156e-05
0.0304356
5.34981e-05
7.77612e-05
0.0380444
8.83937e-05
0.0405845
9.19088e-05
6.7235e-05
8.24993e-05
7.84106e-05
0.0259135
0.0188806
0.000263579
0.0229517
4.77578e-05
6.58573e-05
7.0466e-05
0.000100345
6.10147e-05
7.39437e-05
5.90874e-05
7.00233e-05
0.0340179
6.46573e-05
0.0146456
0.0278224
0.00895794
0.0141529
0.000128107
8.07849e-05
8.12521e-05
0.0141424
0.0137701
9.13972e-05
0.00597598
0.0207651
0.0189549
7.42949e-05
0.0174375
7.2856e-05
8.87196e-05
6.36399e-05
6.67479e-05
8.87565e-05
0.00730155
0.0316759
0.000323343
0.0237962
0.00680731
7.64932e-05
0.0262285
8.19277e-05
6.29972e-05
8.17938e-05
6.70162e-05
0.00603869
0.0167328
8.99143e-05
0.0181462
0.0306791
0.0278104
8.32963e-05
5.82661e-05
0.012971
7.80473e-05
0.0243466
0.000142422
0.000358584
0.00639619
0.0441561
0.033463
0.0198621
0.0145587
0.000140087
0.000113417
7.79475e-05
9.07818e-05
8.81611e-05
0.0275066
8.01217e-05
0.000143143
9.28592e-05
8.33297e-05
0.051955
0.000408007
8.99109e-05
0.0323486
0.000124845
0.027312
0.036258
0.000117094
0.00143807
0.0290348
6.85244e-05
8.84592e-05
0.0002606
0.0311163
8.82544e-05
0.0440081
9.22725e-05
0.01665
0.000169757
0.021882
6.12986e-05
0.0149404
8.77999e-05
8.46718e-05
0.0228315
9.02281e-05
7.35772e-05
0.0279853
0.0152989
6.33399e-05
0.0344952
8.34477e-05
0.0288667
9.69499e-05
0.0134001
7.79394e-05
0.0374093
8.88068e-05
0.00540977
0.000182394
0.0482041
8.81262e-05
0.0357591
4.93373e-05
0.0001383
9.72729e-05
6.16086e-05
0.0262866
0.000170379
7.86655e-05
0.00904391
0.00869527
8.13475e-05
0.0271782
0.00855056
9.024e-05
0.0329842
9.77181e-05
0.0278516
9.67743e-05
0.035079
0.0282506
5.15757e-05
0.0416259
9.78132e-05
6.87201e-05
0.0192267
8.57073e-05
8.66321e-05
8.04768e-05
8.70848e-05
0.0312666
0.0202192
0.000147681
8.46757e-05
0.0452779
0.0363509
0.0087778
0.0257466
6.9801e-05
0.000293467
0.00530215
7.0568e-05
7.49574e-05
7.61881e-05
0.00192088
4.79806e-05
8.88553e-05
7.88043e-05
0.0133363
0.0103401
8.45224e-05
0.000117911
0.0277053
0.0223512
6.86577e-05
0.000341709
8.77413e-05
0.0311441
5.39087e-05
0.000336892
7.92744e-05
0.0250343
9.18691e-05
0.0261892
7.94538e-05
6.81564e-05
0.0274187
0.0418802
0.0412024
8.5296e-05
9.99566e-05
5.89592e-05
8.67446e-05
0.000177151
0.000109197
6.68475e-05
0.0127754
0.0241057
0.00861628
0.000276811
0.000159419
8.9595e-05
0.00013827
0.00666459
0.000100734
0.000434118
8.48153e-05
9.10087e-05
4.83621e-05
0.0281845
0.00568234
8.22971e-05
4.96369e-05
0.0230971
8.36614e-05
0.0141776
0.0234439
0.000138248
6.02773e-05
7.2977e-05
6.90352e-05
6.60233e-05
6.76927e-05
0.0377809
0.0286553
0.000115298
8.90073e-05
4.78089e-05
0.0320163
0.0399366
0.00521531
6.8395e-05
5.92395e-05
6.52298e-05
0.000277917
4.75393e-05
9.08657e-05
6.82252e-05
8.27399e-05
6.76544e-05
7.96072e-05
0.000361267
4.93513e-05
0.0201964
9.28513e-05
9.20228e-05
8.00287e-05
0.0403532
0.0347973
8.71074e-05
0.032264
0.000253352
0.000161045
8.91945e-05
0.000123257
0.00011139
0.000525973
0.0384309
0.0290908
0.0299692
6.68114e-05
0.00517309
4.82099e-05
0.0324898
5.88648e-05
0.00561291
5.91921e-05
9.06663e-05
8.02056e-05
4.77619e-05
6.82793e-05
0.0102225
0.0279249
8.91456e-05
8.68166e-05
0.0361131
0.0377207
0.00551416
6.48547e-05
5.95574e-05
4.48751e-05
0.0294687
0.0051291
0.00872888
5.71252e-05
0.0389725
8.49723e-05
6.60401e-05
0.0248887
0.0282437
0.000111858
0.0331203
0.0126313
0.000880723
8.25513e-05
6.46718e-05
0.000252669
5.71726e-05
5.9522e-05
5.93701e-05
0.000111454
0.0298846
8.23714e-05
9.22358e-05
0.000444898
0.0349612
0.0280801
0.0363684
0.000100763
0.0113296
8.331e-05
7.80045e-05
0.031659
0.00766776
8.96486e-05
8.87852e-05
0.0260773
0.000270128
9.47092e-05
7.91146e-05
9.6938e-05
0.0285672
9.6976e-05
0.0214888
0.000109496
7.52172e-05
5.36568e-05
0.0319452
0.041151
0.000999942
0.000100496
0.0471018
4.47214e-05
6.41918e-05
0.0323446
0.0352017
0.00010461
0.000100138
7.57257e-05
8.65394e-05
0.0168258
0.0371948
0.0474836
0.0453903
0.000151275
7.43094e-05
0.000222585
0.0206547
7.89165e-05
8.8473e-05
9.05126e-05
0.0296213
8.01193e-05
8.41621e-05
0.0432757
0.000143467
0.0412562
0.00507958
8.4948e-05
0.000144072
8.56081e-05
6.61915e-05
0.0329716
9.36951e-05
6.48168e-05
0.0355845
8.47718e-05
6.30743e-05
4.44868e-05
0.0476976
0.000266838
4.88309e-05
5.85231e-05
0.000260945
0.0397427
0.0346059
0.000262158
7.55023e-05
0.0500637
0.0448204
0.0341574
9.04851e-05
6.68001e-05
0.044089
0.0333962
0.000379612
0.0205577
0.0290633
0.000144706
6.45916e-05
0.0359692
0.0140034
9.96218e-05
7.39255e-05
0.0297506
0.0212968
6.67474e-05
8.82709e-05
0.000948385
0.0258546
0.0335973
8.42484e-05
6.99874e-05
0.0366199
0.0312135
0.0151671
0.03674
0.00698386
0.0338949
9.29951e-05
0.00641519
0.00542813
0.0417459
4.48972e-05
6.98518e-05
0.0513381
0.0154844
5.54672e-05
0.0362422
0.0225765
0.00602583
0.000586343
6.89671e-05
9.38622e-05
6.43464e-05
0.00415314
9.25334e-05
7.44648e-05
6.38825e-05
0.0354704
5.86712e-05
0.0001987
6.96637e-05
0.0246295
7.7077e-05
0.0488487
8.1686e-05
6.91135e-05
8.73453e-05
6.94312e-05
0.0289647
0.038892
8.72521e-05
5.86831e-05
0.0255647
0.0360108
0.000220941
0.034266
0.000265282
0.00451259
0.0334588
5.90916e-05
0.0264272
0.0263606
0.000231527
7.66055e-05
0.000118099
0.0399082
0.0377901
0.0416847
0.00553788
0.000102392
0.0439526
0.00597355
0.000130158
5.49301e-05
0.000561623
5.51345e-05
0.0299289
0.0157946
0.0161883
8.61509e-05
8.97774e-05
0.000169362
9.19612e-05
0.0137552
0.0251891
0.0532383
8.59903e-05
0.000152155
0.027827
0.0222681
0.0380214
0.0380047
0.029536
0.00408948
6.97041e-05
0.0356012
0.0397481
0.0414887
0.0364392
0.00560752
7.29131e-05
0.000102288
9.10872e-05
0.021188
9.19874e-05
0.000100938
8.95538e-05
0.000153099
9.21087e-05
0.0234839
9.55064e-05
0.00696549
0.0396301
0.0507516
7.01857e-05
0.0320585
7.25861e-05
0.000336835
9.08384e-05
0.000223983
6.4125e-05
0.0249454
0.00011418
5.02644e-05
8.04982e-05
0.0250482
6.0258e-05
0.000101847
8.6572e-05
0.000122501
7.72604e-05
0.0208413
5.00568e-05
8.86917e-05
9.26196e-05
8.95601e-05
0.0349633
5.56901e-05
0.0136114
0.0368438
0.00314636
0.000266272
9.12596e-05
8.77597e-05
0.0426998
0.0379534
9.9232e-05
8.58751e-05
6.06291e-05
5.829e-05
8.42627e-05
0.000312386
0.0316722
0.0266064
7.77765e-05
0.023992
0.0425767
9.13885e-05
0.000269136
0.0519543
5.92727e-05
9.13452e-05
0.0140212
0.0312012
8.96343e-05
0.000340367
5.685e-05
0.0258898
9.17552e-05
0.0361515
0.0374014
6.96898e-05
0.00011234
6.75944e-05
0.0134945
0.00399834
0.0525291
8.21373e-05
6.6854e-05
0.0268645
4.69941e-05
8.3377e-05
0.000287349
0.00514981
0.00770256
0.0374715
0.0356181
6.71618e-05
8.89812e-05
0.0418614
0.036942
6.73039e-05
0.0280989
8.82776e-05
9.71808e-05
8.92041e-05
5.06348e-05
4.41947e-05
0.000161662
9.23599e-05
0.0498356
0.000116667
0.0117124
0.000280168
0.0167306
0.00058256
9.78195e-05
0.0357583
8.15719e-05
9.21244e-05
9.41806e-05
0.037919
0.012742
0.000174261
0.0312618
0.0264188
0.000112332
9.26589e-05
0.0376269
4.84461e-05
0.0311199
4.94151e-05
0.0433569
7.7119e-05
9.36017e-05
0.0178941
0.000112528
0.000266582
8.76745e-05
0.0309784
0.0508046
8.21105e-05
8.61149e-05
0.00711826
6.98528e-05
8.59088e-05
0.000161625
8.13091e-05
8.16359e-05
9.24906e-05
0.0108836
0.0361874
0.0342843
6.08048e-05
8.58147e-05
6.87529e-05
6.01939e-05
0.000141313
9.42771e-05
0.000141886
0.0384114
0.000149964
8.57813e-05
5.28988e-05
0.000226095
0.0410319
0.0314164
9.34949e-05
0.00526745
0.0298449
0.0161921
8.87086e-05
0.00486061
0.0323144
6.67238e-05
0.0446155
0.0381601
0.000136413
7.21892e-05
0.000141364
0.000133408
9.35881e-05
5.76102e-05
9.49914e-05
7.14815e-05
0.0269736
0.000717186
8.59192e-05
0.00156593
9.22137e-05
0.030762
9.17669e-05
8.94426e-05
9.546e-05
8.46358e-05
0.00014548
8.48706e-05
6.77294e-05
0.0386263
0.032126
9.2253e-05
0.0371993
0.0427574
0.0352979
8.58374e-05
9.16957e-05
0.0525643
0.0369041
6.21057e-05
0.030318
5.67962e-05
0.000108918
0.0127867
9.252e-05
0.0227375
0.0311953
9.2875e-05
0.000240455
0.0452594
6.30066e-05
0.000123462
6.76095e-05
0.00312905
0.0365558
0.0120612
0.00977487
0.0243134
0.00567866
0.000151953
5.07523e-05
0.000148785
0.0102677
0.0186738
0.000111103
0.000160045
6.84397e-05
9.64676e-05
0.00529965
0.0357514
8.58648e-05
9.01737e-05
9.65522e-05
5.91869e-05
9.63116e-05
9.42974e-05
0.00022742
9.6585e-05
0.0393775
0.0175837
0.0164995
0.000102152
0.0165083
8.90916e-05
6.2216e-05
0.000266592
0.0383321
6.89258e-05
0.0236239
0.0336367
0.0212407
7.61302e-05
8.75229e-05
0.000111422
0.000159907
0.0377027
0.00373408
0.0208632
0.0363044
9.85027e-05
0.0364973
0.0094366
9.10229e-05
0.000113743
0.00529236
9.40865e-05
0.0330792
5.64754e-05
0.000288229
9.71371e-05
0.000108547
0.0267116
0.000139186
0.0347311
0.000323542
0.0408119
9.5605e-05
0.0357396
0.00176705
7.47707e-05
0.0445022
0.0400113
6.34292e-05
0.011241
0.000316162
0.000146931
0.0254096
9.9414e-05
5.17677e-05
0.0201999
8.20268e-05
0.000127252
0.025357
0.000925808
0.000108086
0.00018
9.3529e-05
0.0328623
9.28107e-05
0.000133443
0.0346748
0.000108434
0.0298931
9.06694e-05
0.0452616
0.0375784
8.69086e-05
6.8316e-05
6.23211e-05
0.01392
0.0232161
9.14334e-05
0.000102506
0.000105911
9.4212e-05
0.0285278
4.83276e-05
9.37881e-05
8.66685e-05
9.7048e-05
5.75498e-05
0.0242034
0.000186495
6.98232e-05
0.0390515
0.000167873
8.23866e-05
0.00010287
8.17509e-05
0.000151008
0.0276166
6.44115e-05
8.38073e-05