/*--------------------------------*- C++ -*----------------------------------*\
| =========                 |                                                 |
| \\      /  F ield         | OpenFOAM: The Open Source CFD Toolbox           |
|  \\    /   O peration     | Version:  v2012                                 |
|   \\  /    A nd           | Website:  www.openfoam.com                      |
|    \\/     M anipulation  |                                                 |
\*---------------------------------------------------------------------------*/
FoamFile
{
    version     2.0;
    format      ascii;
    class       volScalarField;
    location    "250";
    object      ddt0(omega);
}
// * * * * * * * * * * * * * * * * * * * * * * * * * * * * * * * * * * * * * //

dimensions      [0 0 -2 0 0 0 0];


internalField   nonuniform List<scalar> 
13917
(
-0.568691
-0.00206427
0.059874
-6.0222e-06
-0.00172789
-0.00181833
9.23061e-05
0.983733
-5.20669e-05
3.15972
0.0485913
9.68025e-07
1.65837e-06
-0.433278
-0.000157518
-0.571822
-1.92705e-07
-0.0725304
0.0162491
-2.66184
0.00128604
-7.73074e-07
-0.00057202
1.08468e-06
4.3625e-05
0.00143073
-0.451566
8.79527
0.00662249
0.000139276
11.3469
0.00641018
-2.90773e-05
0.0532873
-7.33475e-06
1.48244
-7.70773e-05
4.55939e-08
0.000102617
0.000104205
-1.48327e-06
-0.000314982
4.06778e-05
0.00750709
-0.00321046
0.207719
0.000959872
2.7822
0.775956
-3.55887e-06
6.47704e-07
0.00608707
-0.0681079
7.97015e-07
4.15544e-06
0.0168225
-63.1362
-0.00324747
-1.72582e-05
0.302281
-1.22302
-0.0199477
1.26628e-06
6.98956e-05
-0.122946
0.0619119
0.0154623
1.54229
0.0804992
-0.280113
-0.899049
-0.0129154
6.79587e-06
-9.87248e-05
0.00134286
8.72141e-05
-5.29471e-05
-9.22797e-05
3.29778e-05
-5.3615e-05
-1.25465e-05
3.43938e-06
3.05512e-06
-0.710465
-7.72913e-07
-0.140023
0.00704177
-8.37965e-07
0.00020116
7.58848e-07
2.1904e-07
9.29599e-05
0.295009
-1.79543e-06
-5.66878e-06
0.0105714
-1.48794
-1.6716e-06
-5.85137e-07
-0.00767634
-1.37295e-06
-1.4345e-06
-9.00089e-06
6.42195e-06
-5.79249e-05
0.487287
-0.328299
-0.00260029
0.000972257
0.199044
3.43036e-07
0.05366
0.00382554
2.19037
-0.131882
7.22149e-05
0.0148566
-1.69918e-06
0.0456705
-1.9387e-06
3.52982e-06
-7.38804e-05
-0.000550631
0.0131777
-0.147628
-0.550703
-5.80148e-06
0.00148614
1.29932e-06
0.0132529
4.8166e-05
-0.113708
0.0511078
-1.58302e-05
-0.00233904
0.178538
-1.00892
0.0224855
0.00185025
9.31821e-07
-0.385224
6.54833e-05
0.596435
3.43908e-06
2.07862e-06
0.0147669
-1.09952
-0.299427
-0.529219
2.81289e-06
0.000102929
-8.00926e-07
4.58218e-06
6.32839e-06
-2.78943
-3.15074e-05
6.58184e-06
0.0833572
1.30221e-07
-1.60883e-06
-1.02076e-06
0.0561571
-1.96774e-05
-0.361881
-0.112087
-0.0565242
0.61397
0.167577
-8.39585e-07
0.00181236
1.36303e-06
0.107075
-0.00012226
0.158656
-0.011653
2.5264e-06
1.20072e-05
-0.00798774
-0.000141468
-6.91769e-05
2.69392e-06
1.50637e-06
-2.59501e-06
-0.0697115
-0.00124076
-0.103485
-3.16472e-06
-0.0643756
-4.27772e-06
-0.207422
-0.0101506
-0.00246373
-0.0163794
-0.636544
-3.55614e-06
-0.143529
-7.20234e-06
0.00324231
-7.388e-06
-1.95193e-05
0.000651891
-0.31573
-0.0903818
-2.55046e-07
-0.0536088
6.88004e-05
0.000483353
4.09607e-05
0.00393028
-8.50339e-06
2.64968e-06
-0.00169524
-0.0479309
1.32228
-0.00233808
0.00239551
0.0772194
3.85161e-05
-1.7017e-06
-2.09307e-06
0.336065
-0.0422376
0.0251042
-7.86444e-07
6.85053e-07
-0.89614
-0.202184
-1.05529e-06
-1.1736e-06
-1.05673e-06
-1.80804e-06
-3.1028e-06
-0.0651057
-2.40846
-1.47759e-06
-7.75371e-08
0.00228108
-0.0311656
2.79807e-06
-8.16221e-07
-0.121969
0.441405
-0.0438571
0.0801677
-0.00684299
2.62137e-06
0.248527
0.00447303
0.00251798
0.00787977
-3.78524e-06
-3.58616
3.33065e-06
-0.00213538
-0.00824923
4.78579e-06
-1.07838e-06
2.6574e-05
-0.000343755
-1.62368e-05
0.0117674
0.312008
-2.60264e-05
-3.88731e-07
-3.66087e-05
8.42773e-08
-6.62623e-06
6.30078e-07
-0.000985817
4.7795e-05
0.0535125
-0.304961
3.27523e-06
-8.41121e-05
1.07044
4.47732e-06
-0.0233062
0.0732004
3.92328e-06
-0.168028
-1.38651e-05
0.0598204
2.76895e-06
1.47372e-05
3.58604e-06
2.98495e-06
-0.0273949
-5.64808e-06
0.0292031
0.000325265
0.311118
0.0222251
-0.18819
0.0173559
2.72965e-06
0.00451589
-0.00103652
-7.96317e-05
-0.00071668
-2.1678e-05
-1.30811e-05
-8.77613e-06
-0.00237608
-0.169599
-0.000973455
-3.89306e-05
-5.96676e-07
0.0589264
-0.325495
2.9209e-06
0.00615694
-6.38671e-05
0.763346
-0.0133083
-0.160678
0.470597
0.0132439
0.0532856
-7.95245e-05
-0.949588
0.630208
-0.0280171
1.12386e-06
4.14709e-05
-0.143908
-3.97959e-06
-0.00191992
-0.0126662
-1.35227e-06
0.0957279
-7.59838e-07
0.00525631
-6.3815e-05
-1.55173
4.68332e-07
-0.00072839
0.000900754
0.0140506
-2.00488e-07
0.00892462
0.725359
-4.9654e-07
-6.97102e-06
0.126329
0.327383
0.219383
-0.498441
2.18613e-06
-6.28783e-06
0.868418
-0.00278244
1.84377e-06
-0.00142522
8.06788e-06
0.00464853
-0.000429077
-0.00720846
-0.0057992
-0.0135999
-0.000503324
-0.117003
1.09779e-06
2.34206e-07
0.0121094
0.0404767
1.90557e-06
-0.58342
0.00181231
-0.00721841
5.0184e-06
-0.00445659
0.00248388
0.228986
0.000576719
0.108339
0.852348
0.00151782
3.39088e-06
-1.36538
-0.000335085
-0.0157336
0.0246606
0.000248803
0.126906
1.14338e-05
0.0117177
2.38124e-06
-0.929883
0.0175643
9.05452e-05
0.485164
-0.00219316
-2.49224e-06
-0.0384299
-0.000462072
-2.82044e-05
-0.0466712
7.56894e-06
-0.00728959
0.0959487
-7.39979e-07
-7.15511e-06
-2.11178e-05
4.35611e-06
1.33986e-07
-7.14307e-08
-1.87891
-0.0270946
5.66888e-06
7.76456e-07
1.84977e-06
-0.00230138
0.572917
5.4354e-07
-9.16841e-07
-0.00437939
-0.00423092
3.96185e-06
6.65259e-05
1.17892
-0.0262908
0.045333
-0.00435867
-0.421559
-4.57526e-05
2.70645e-06
0.000333866
9.29162e-08
9.91386e-06
1.78183e-06
2.41055e-06
-5.708e-05
0.758224
6.81339e-06
-0.000598035
0.0722887
0.00475601
2.6085e-06
1.3124e-06
-0.153722
0.00077206
-0.231365
4.88168e-06
-1.15796e-06
-0.000442731
-3.88708e-06
-8.21356e-05
2.29842e-05
0.979725
0.0149756
0.755165
-6.41326e-07
-0.000533014
0.0205126
-3.39586e-06
0.0025079
0.274725
6.7041e-06
0.106442
2.18482e-06
-5.20004e-06
3.94843e-06
1.39441e-05
2.31214e-06
-1.15751e-05
0.0831628
-0.923408
2.01833e-06
-0.163053
0.000112323
-1.51439e-06
0.00263131
0.0222078
-0.665115
0.000198525
0.326591
0.0376258
0.0420779
2.05281e-05
0.0541235
0.033082
-5.63551e-06
0.0473811
1.80449e-06
1.89816e-06
-5.69189e-06
-4.49818e-05
0.000528153
-0.0370949
0.00686074
-0.00632531
2.71762e-05
-0.0862964
-0.00358696
5.29611e-06
-0.523786
0.000844679
0.000199165
-0.0374327
-7.21171e-07
-0.00338769
-0.0308775
-6.79329e-07
0.13368
-4.2864e-06
-1.83557e-06
-0.00517548
3.3424e-05
4.19064e-05
0.0114017
0.0341865
-2.71232
-1.03212e-06
-8.98987e-05
0.00242129
0.139459
0.606761
4.28124e-06
4.79149e-06
-4.3851e-07
-0.00183796
0.171643
2.28609e-06
2.94179e-06
-1.69553e-05
3.76804e-06
0.00166498
-5.93952e-05
-1.19516e-06
0.00588543
-8.61717e-07
-1.8868e-06
-1.3901e-05
-0.0874432
-3.40171e-06
7.50162e-05
5.45291e-06
-0.000242947
0.00328607
0.00401181
-0.00495571
-0.0472204
-9.47891e-05
0.0218032
-0.034707
0.622997
0.0907843
2.29583e-06
3.2732e-06
-0.00261754
-5.66455e-07
-0.14466
5.19223e-06
0.408467
-8.34802e-05
-0.151497
-0.0231059
-7.83697e-06
-5.54783
1.72443e-06
-0.00525862
-3.37736e-06
-0.000404236
-0.119839
2.98768e-06
0.0438135
6.02613e-07
-6.47105e-07
4.05657e-06
-0.014648
0.00177691
6.07544e-07
0.0176184
-0.00203387
0.321773
-1.38649
0.0432382
-0.787817
-1.24874e-06
-0.217084
-5.64505e-07
-1.10626
-0.268937
0.00126261
-0.00687753
-1.36786e-06
0.000441803
8.24669e-05
-1.22953e-05
-3.51951e-07
1.85899e-06
-0.904939
-2.26657e-06
0.0122808
3.57472e-07
3.02006e-07
-2.19398e-07
-0.207458
0.0160685
-0.702812
0.0066544
-0.000103022
-1.3528
0.011164
2.87322e-06
0.124941
2.29863e-06
-0.0112631
-5.70103e-07
-0.921008
3.28809e-06
-0.000624091
3.86788e-06
0.500371
-0.000814238
-0.0120001
-1.44971e-06
-0.00069666
-8.87961e-07
-9.10515e-07
-0.0742476
-0.108889
-5.45753e-06
-0.00825027
-7.18535e-07
-8.35957e-05
-9.61856e-07
-0.000411935
-1.91861e-06
-0.000661147
3.7056e-06
-6.17877e-07
0.0376611
-7.18346e-07
0.0231844
-5.26648e-06
-2.18604e-08
-1.67241
0.011833
3.14242e-06
-0.481945
0.0957894
-0.0168711
-0.0344451
1.30765e-06
-0.000229362
-0.15715
-0.0134342
0.000407162
-4.0734e-05
0.000701271
-5.58575e-06
-2.0228e-06
-0.0176675
-0.00280251
0.00010382
-0.188296
0.000184858
0.813351
0.332378
-0.230443
-0.000193029
0.016062
-0.114978
-3.21781e-06
0.0260455
-0.0580903
-1.93221e-07
4.82125e-06
2.74116e-07
0.0013238
-2.42831e-05
-0.22236
0.00113442
-6.11231e-06
-0.00921544
-2.28961e-06
-0.107999
-2.15433e-05
1.47008e-06
0.0593996
0.00452592
0.00945312
4.59994e-06
-0.00174506
3.38971e-06
-1.98336e-05
-0.000104479
6.83283e-07
-0.0841554
0.000604344
0.108526
-0.00371028
0.0460145
0.0312928
-7.39226e-05
2.73165e-06
-4.51312e-07
0.105593
-0.224341
1.90803e-05
-0.167887
0.764635
3.12681e-07
2.39285e-06
-5.14998e-05
0.463912
0.0382162
-0.0013896
-3.9662e-05
9.24585e-05
-0.00506611
-0.000110118
0.00665637
0.000153206
-2.68185e-06
-8.08213e-05
-6.7705e-07
-0.000241417
-0.000261089
-0.00315108
1.59329e-05
7.27344e-07
-0.0947139
0.000547116
1.02311
2.34633e-05
-0.000536112
3.8808e-06
-0.0392324
2.53324e-06
0.00443207
-0.0412677
0.0250144
-1.18981e-06
-1.69167e-05
-1.67275e-05
4.81042e-07
-1.87321e-06
0.00370953
0.0255384
-0.0331969
0.0221872
4.12267e-07
-0.0203891
7.49086e-05
-8.52041e-05
0.0104315
-3.37789e-06
-0.0114184
0.0590046
4.42822e-07
0.00440409
-0.00714131
-0.000657646
-1.51234e-06
2.47503e-06
-2.0757e-06
-0.290507
-4.35985e-05
2.26632e-05
0.00522284
9.36766e-07
2.60577e-06
0.0134586
-0.0338145
0.0244109
-0.168032
0.00289212
0.56241
-9.60121e-07
0.000147136
-0.0928696
0.00038104
0.054776
1.07353e-06
2.58565e-06
1.88767e-06
6.72757e-05
0.00137104
-8.66666e-07
0.0895652
-1.79015e-06
-0.253092
7.18542e-05
-8.38672e-06
-9.93462e-05
0.00458006
-9.57644e-05
0.0751407
0.0469856
8.87093e-07
-0.143979
-1.71163e-05
-0.0340331
2.94986e-05
-0.444085
-9.90641e-05
-8.46644e-07
-8.34664e-07
0.139544
-0.000402409
-0.0299792
0.185746
6.09061e-07
-0.0011214
-2.00039e-07
-0.00927035
-0.285765
-3.44618e-06
0.405358
2.22905e-05
-0.494599
0.0214628
0.147904
8.39358e-07
-3.71616e-06
-0.00750424
9.01769e-07
-9.09411e-07
-5.23899e-05
-2.29855e-07
0.00410322
1.31749e-06
-0.700929
-5.54239e-06
-0.420479
-0.0286083
0.504902
0.524569
-0.216808
-0.490337
0.734829
7.70445e-07
5.49871e-05
-1.94429e-06
-6.46957e-05
-6.28846e-07
-0.000415969
-2.54776e-06
1.14645
-6.13658e-07
-0.0498622
-6.5364e-06
0.000299667
0.00266771
-2.91362e-07
0.000210103
4.18505e-05
0.000548125
8.3333e-05
-0.000458221
0.025136
-0.00538713
0.0674979
3.39927e-06
1.15239e-06
-1.57288e-06
-7.29748e-06
0.0409443
1.00345e-06
0.0181901
2.93944e-06
0.0249911
-0.000203976
-1.29618e-06
0.00446982
-0.019239
1.07643e-06
-0.0207441
0.0996212
-9.07462e-05
0.0113141
-1.13948e-06
-0.0350414
-3.47417e-05
-1.23547e-05
-0.201957
-5.45674e-06
-4.59681e-05
-0.0110206
-0.271989
-0.00287079
0.623045
-1.06354
0.000858968
1.16948e-05
1.07058e-06
-0.153646
1.22755e-06
0.0107133
-4.92506e-06
0.119178
-5.76702e-05
0.165237
3.81252e-07
1.24448e-05
0.0206585
0.000108404
0.00112032
-0.0230413
6.67731e-07
-1.06897e-06
0.245997
0.000826954
-3.84402e-06
-0.000332876
8.10893e-06
-0.0904326
-6.14852e-05
-0.00518344
-0.0340643
0.000184551
0.171223
-1.66076e-05
0.00445389
-2.13029e-06
0.0641561
0.039405
-5.47654e-06
0.000461195
-0.00016047
4.79095e-06
0.000662709
-1.09998e-05
5.7258e-06
-7.09063e-07
-0.000292497
4.36198e-07
2.94248e-05
-0.00439597
-0.650542
0.0424383
-0.00491417
-1.45956e-07
0.0184514
-2.18597e-06
-0.204856
-0.086364
0.293705
-4.04449e-07
9.33176e-07
5.88436e-07
-4.86261e-06
-1.4606e-06
-9.06209e-05
9.66796e-07
0.000132311
-8.37235e-07
-2.11315
0.604184
-2.34602e-06
0.0684944
-1.514e-06
-1.03023e-06
0.000176128
-0.00195818
0.00339875
-2.0412e-06
0.050207
-1.99182e-06
9.41676e-07
-0.178142
-3.06811e-05
-1.47924
-4.53713e-05
-0.314065
2.37284e-06
2.05146e-05
0.000498251
0.0114681
-0.000116378
0.0757003
0.00768989
-3.27473e-06
1.93442e-05
2.04202e-06
2.41844e-06
0.00668265
0.00110027
8.76534e-06
0.160149
-1.43687
-0.011845
0.00252584
-1.92344e-05
0.123852
-4.11466e-05
1.46818
-0.00280624
3.9125e-05
-0.000101885
0.265912
-3.78355
0.82977
0.000431526
-0.0175383
0.000122825
-2.60355e-06
0.00172285
-6.13205e-06
-2.45222e-06
-0.146945
-0.220773
-2.47912e-05
4.20843e-06
-0.0275495
1.46507e-06
5.3536e-07
0.17509
-0.0132398
-3.14722e-05
2.37675e-07
9.05114e-05
-7.08383e-06
1.58409e-06
-0.0017667
-0.000325423
-4.6266e-07
0.176849
0.0071507
0.0934008
-0.253532
0.00157965
0.0615609
1.65184e-06
-2.149e-05
-0.0526443
-0.335387
0.00539375
0.00703044
0.000607499
-7.64192e-06
-6.77253e-05
-0.00312826
0.0288601
-0.00325182
-1.77391e-05
0.000524815
4.63183e-06
0.0282513
-0.00753329
-0.00505418
0.011868
-0.113089
0.00339087
0.452897
0.244296
-3.06123e-07
-0.226019
1.38839e-07
-0.00528928
0.00124468
-0.260986
0.000123191
-1.24633e-05
-0.000133665
1.27761
-1.72139e-05
-0.177012
0.000604793
-0.00628995
0.973382
4.44002e-06
-0.0187492
1.12905e-05
-5.28856e-06
0.000989426
0.0766328
8.23527e-05
-1.36748e-06
-0.000103106
0.483408
-1.18014e-06
-3.524e-05
7.29176e-05
-1.09152e-05
5.69858e-06
-0.00673512
0.0144362
-1.16936e-05
2.8148e-06
-0.366129
-0.0592781
-0.00140615
0.146786
-6.91343e-06
-1.16756e-06
-3.42544
4.2579e-05
-5.66433e-05
0.23615
0.0846459
0.00214529
-0.00462017
-1.18583e-05
-0.270423
-0.017405
0.000586237
-1.04062
2.969e-06
0.00343048
-1.28685
0.0960091
0.307708
-0.495278
-5.51471e-05
-5.60841e-07
4.04969e-06
5.00862e-06
-2.07384e-06
-0.0147501
-6.18086e-06
-0.00287125
1.05678e-07
0.0116955
-0.281539
4.7192e-05
0.145361
0.176979
-9.04912e-07
0.00768695
-0.000207458
-7.57236e-06
2.60775e-06
0.12046
0.000276099
-0.149747
0.000155254
-0.515143
-0.0036017
-0.00244176
0.290678
-0.000104755
-0.00619852
-3.80806e-06
0.117467
1.52797e-06
6.19919e-05
0.00102485
-0.000201712
-1.02198e-05
0.00189708
0.424057
-1.50718e-06
-0.0435516
-0.363627
1.13496e-06
-1.40918e-06
0.0121321
1.75937
-0.0903617
-2.32973e-06
0.000729187
0.0303478
0.266502
-0.103445
-4.70095e-06
-3.25511e-06
-3.55856e-05
1.69463e-06
-2.85033e-05
-1.97487e-05
1.64038
-1.65843e-05
0.000137927
0.0330745
0.0314723
-0.000569126
-0.00405577
-0.77319
-4.48033e-06
-7.25563e-06
-9.40476e-07
1.24325e-05
0.0231586
0.0505904
0.107265
0.000736607
0.000639322
-0.00349505
0.00010159
0.0422435
9.02706e-05
0.0154741
-2.54802e-06
0.0216792
0.0466763
-1.9646e-06
1.16952e-05
0.192277
-0.00304805
0.0337651
-0.151852
0.0122354
3.86944e-06
0.874745
5.03559e-05
2.29788e-07
0.143465
0.0264625
-2.64523e-06
0.00498499
0.00634641
0.000607012
1.60376e-05
1.72546e-06
-1.81757e-06
2.60012e-06
-3.0854e-07
-9.0779e-05
-0.00662301
-0.0159272
0.00070601
0.000168397
0.000340724
0.00183684
1.59655e-06
0.000677507
0.0258837
0.031068
-0.431261
-3.52718e-05
2.24167e-06
0.0838416
-3.54706e-06
-0.000878659
-5.58134e-05
-0.000156515
-6.27393e-07
-2.61555e-06
-0.00513912
3.64148e-05
-6.80433e-06
1.3521e-06
0.212348
0.00811119
0.0133093
-1.23797e-06
1.71566e-06
0.144053
-1.45322e-06
8.51666e-06
-0.00403548
0.298319
3.28372e-05
0.000341343
3.07761e-05
0.544961
1.22837e-06
6.76518e-05
-1.07981e-05
2.19448e-06
0.0819787
7.79339e-07
2.46564e-06
-0.154893
0.0118124
0.415846
-0.048507
1.6984e-07
1.23158e-05
2.43328e-06
2.8031e-06
7.93957e-06
3.85095e-08
5.68279e-06
0.12334
-2.35697e-06
-0.00128457
0.0022746
0.0042445
-3.62489e-06
-0.00584616
6.13559e-07
0.101227
-5.3592e-05
0.116504
-0.00814872
9.03938e-07
-0.00325621
0.000314719
-8.35026e-05
3.74149e-06
-0.00881876
-1.9004e-06
-1.10781e-06
-0.0197312
-0.00126511
0.000561131
4.93779e-06
-2.1202e-06
-0.000172742
0.0859351
4.04913e-06
0.0590746
-0.00288419
2.98163e-05
5.27493e-08
2.40188e-06
-0.00142751
0.0524741
-2.34956
0.0350612
0.0224477
-0.00373095
-0.00996347
-2.24916e-05
0.053866
-2.0784e-07
-4.08518e-05
-7.02041e-05
-0.0439997
2.70326e-06
0.153426
-1.80312e-06
5.25061e-06
-0.0151738
0.217488
-0.217279
0.106647
-5.19852e-05
0.0325423
0.0707821
1.69682e-05
0.0484437
-7.32037e-07
2.70818e-06
1.11211
6.66194e-07
0.175879
0.0638132
2.3655e-06
-9.37952e-07
1.12998e-05
0.0189168
-1.6453e-06
2.08875e-06
-0.00133286
2.89193e-07
2.66861e-06
0.00107111
-5.13084e-06
0.00395445
-7.98876e-06
-7.79428e-05
1.99097e-07
-0.2345
-0.0160312
6.03619e-07
6.72533e-07
-3.78866e-05
7.62082e-07
3.62164e-05
-9.41542e-06
-1.21045e-05
-1.9224e-06
-7.5404e-07
2.52798e-05
2.42224e-07
-0.0118088
2.17839e-06
-0.00178975
3.00658e-06
0.00617564
-2.66363e-06
5.01628e-06
1.82354e-06
-6.11918e-05
7.98702e-05
-0.000149095
0.000125623
0.189357
0.011522
0.13151
0.0154384
0.0038142
0.468372
-4.36934e-07
9.18493e-07
-0.163595
1.55846
-9.94178e-05
0.0150962
1.63751e-06
0.000874157
-0.325637
0.000156074
0.00318501
0.0364413
0.30994
-9.36669e-07
0.00342338
-2.02936e-06
-0.0716728
0.000126763
0.23639
-1.31029
1.10677e-06
-0.0280103
-0.0446369
1.02768e-06
0.214763
-0.00455576
-6.92902e-05
1.44597e-07
-0.0736417
0.0910605
1.11704e-05
0.000151268
5.48063e-06
-0.0975431
0.019237
2.29172e-06
-2.56593e-06
0.114711
9.09404e-07
9.23128e-08
2.03958e-05
-1.08781e-06
0.289718
-0.000348438
-0.000257225
0.14828
4.42146e-08
0.00551616
1.84478e-06
-0.0725914
-0.00368485
-0.136132
-2.78015e-06
-5.93145e-07
3.15239e-06
3.2786e-06
3.76032e-05
3.66111e-06
0.090876
-3.64639e-05
-3.65676e-07
-1.95828e-06
-0.0583302
1.71079e-07
0.00467928
0.31166
0.587385
-1.69368e-06
-1.4834e-06
1.10106e-06
0.775594
3.74729e-06
0.0700408
1.5036e-06
-2.20234
5.63842e-05
0.00015313
-0.045463
2.39561e-06
-9.06711e-07
0.0661369
0.0182161
0.135317
4.43044e-05
-0.124861
0.261082
-2.06249e-06
0.0824688
3.00373e-06
1.4651e-05
-0.208164
-2.06752e-05
0.00181096
-0.199277
4.31845e-05
5.81518e-05
3.11626e-06
0.754969
-2.37702e-06
-0.083602
1.0814e-06
-0.191594
-2.06286e-06
-3.82082e-07
-8.67569e-05
-0.139393
-1.64666e-07
0.0124106
0.00518053
1.29945
1.68759e-06
0.000500306
0.00369084
0.0109496
1.22495
-0.00138803
-2.84677e-06
0.0211435
-1.89439
-9.66792e-05
-1.33244
1.3676e-05
-0.0247772
-0.399559
-8.75899e-07
-0.0907385
-2.20033e-07
-0.0732881
0.299467
7.62284e-05
8.86852e-05
-0.150175
0.715471
1.11554e-06
-7.90703e-05
-1.54384e-06
-5.13056e-08
-0.472122
-0.00905692
0.0335964
-1.81691e-07
-1.8361e-05
0.198187
-0.00250235
0.442093
-0.72948
-5.6172e-07
-9.25715e-07
0.0116914
1.14103
0.757628
0.272549
0.026176
0.000756642
-0.270856
-0.0531985
-0.45145
0.389059
3.55745e-07
-0.00922264
0.000670825
0.00349837
6.2528e-06
0.000273847
0.000251513
-0.0712276
0.816269
0.00137896
-0.371916
0.148705
0.00141951
-2.16481e-06
-1.40923e-06
0.000961439
-2.08862e-06
0.0637164
5.7133e-05
0.000462275
-0.0612045
0.0630641
3.88617e-07
0.000554475
-1.36662e-05
5.6653e-06
0.0167797
0.00576784
0.0177891
2.62934e-06
0.0906776
-0.0510903
-0.0437166
-8.42741e-05
0.000142143
0.000186563
-0.759172
-0.00831633
-0.00714793
-0.424467
-2.15818
1.92815e-06
1.23676e-05
-0.00029547
0.0136101
-0.226229
-1.88539e-06
-2.91024e-07
-4.5221e-05
1.23107
-0.448102
-2.96698e-07
-0.00454088
-0.0550765
-4.07398e-07
0.0600705
1.28967e-06
0.0264984
-0.000418777
-0.00408543
1.92216
-6.46635e-05
-0.00010693
-1.16697
-1.00564e-06
0.00184121
-0.27139
6.71612e-06
-0.0196235
0.000528027
0.0070908
0.837338
-0.191144
-6.24479e-06
-0.869574
-2.03709
1.13429e-06
0.00277813
0.00150165
-0.00384336
0.0359534
-0.0678083
0.206302
0.00849017
-0.307312
-1.51522e-05
0.00436705
-1.74818e-06
-3.4478e-06
4.9243e-06
-1.90922e-06
-0.0103499
-0.262769
8.25433e-05
0.00250352
0.0323835
-5.92242e-07
0.448648
-0.0326391
6.1583e-05
3.02142e-06
-1.81958e-06
-2.33337e-05
0.00545867
-1.4471e-06
-0.305961
-0.000177032
-0.000521146
-0.000144032
0.00431742
-0.198751
-0.00102821
-0.354139
6.62529e-06
-1.94803e-05
8.31165e-05
-2.28452e-06
-0.0618476
-0.0182458
0.000429541
-0.874392
1.02866e-06
-4.1186e-06
7.92339e-05
-1.76027e-07
-1.0122e-05
-0.00187672
-6.18771e-05
-0.0965427
0.379237
-0.10578
1.12107e-06
1.25817
1.59434e-06
-0.0324869
-1.60097e-07
-0.0284008
0.340267
1.27358e-05
0.527611
-0.0261101
0.000830139
-4.69771e-06
-8.77208e-07
0.000403816
0.202184
-1.84056e-06
-7.36385e-06
-3.89397e-06
1.84365e-07
-0.0119057
6.10213e-07
-0.000114168
4.50167e-08
-7.80467e-06
-1.36796
0.000199351
7.11438e-05
0.00325085
0.00183057
0.218113
-0.92143
-6.58736e-05
-1.7646e-05
-0.239193
4.672e-06
-0.00444078
3.97806e-06
-0.352203
-6.65926e-06
-1.08788e-05
0.00979308
0.0621155
-1.10647e-06
-2.55815e-06
-5.65191e-07
-0.0282401
-2.23441
0.00727358
1.9254e-06
-2.84653e-05
-1.10679e-06
0.13652
-5.64902e-07
-1.02754
0.0111145
6.15146e-07
-0.00525455
-0.000573677
0.0213406
-1.19605e-05
9.65515e-06
0.000708745
0.00347788
0.00232384
-6.76967e-06
1.23855e-06
6.18671e-06
0.0645849
2.95304e-06
-7.50923e-07
-0.196715
2.85617e-05
-0.0134937
0.000216102
1.76868e-06
3.71165e-06
-0.142868
0.000133507
1.01779
-0.010199
-3.93686e-07
0.0785243
2.21736e-06
-0.000680258
-0.0040817
4.39161e-07
-5.92808e-05
-3.37289e-07
-5.76496e-07
0.0060541
0.00576596
0.0931768
-0.18386
-2.44306e-06
0.00530384
0.000501245
0.0627757
-1.41889e-06
-0.00147838
-0.165809
-0.426031
-4.22316e-06
-7.93034e-05
3.69977e-06
0.482195
-0.0553017
0.000300424
-4.85224e-07
-0.00037224
-0.012249
-4.8472e-06
-9.63163e-05
-1.10464e-06
0.00947717
0.0130701
9.27401e-07
-0.0509161
-0.00107804
-2.09818e-06
0.123167
0.00220226
0.0522343
-1.13977
0.000632245
-2.17329e-05
-1.54253e-06
8.4433e-06
-5.79073e-06
-0.0454725
-0.000703193
-1.42381e-05
2.51955e-05
-0.0339574
0.227956
-1.84646e-06
-0.00110327
1.43709
-1.97981
8.35584e-07
-3.39498e-06
-0.0513686
-0.127369
0.01069
9.25925e-08
1.21472
-0.00944993
-5.98719e-06
-0.0265167
0.000227693
-7.30287e-06
0.33116
-4.7563e-07
-0.00586924
-2.22364e-06
1.82034e-06
-1.54161e-06
-7.31118e-07
-0.113537
-6.95961e-05
4.12291e-06
0.00405159
5.48319e-05
-0.00012408
-0.0282568
1.57399e-06
1.78799e-06
-6.45183e-05
-2.0048e-05
0.0315654
0.0267897
-0.0251046
-1.15966
-0.00349318
-0.255665
-0.00840112
0.050152
0.367076
-0.0340517
1.22508e-06
-0.000129076
-4.00786e-06
-1.95096e-06
3.08295e-06
-0.000243078
0.0465896
-0.0122693
0.00130782
3.75577e-08
-1.25466e-06
0.00702259
-4.15379e-06
-3.47994e-06
-8.75402e-07
0.11906
0.000206791
-0.382656
5.7937e-06
-0.00952908
1.62672e-06
-8.41023e-06
6.72541e-06
0.00468236
1.81315e-06
-0.000217814
0.0429552
6.33803e-05
0.061866
-0.215827
-1.6208e-07
-3.88276e-05
0.0393047
0.00852198
-3.41091e-05
2.32308e-06
-1.15372e-06
-0.1565
1.31896e-06
0.0100452
0.010064
-0.000672943
-0.537663
-0.514112
-0.00841969
0.0449496
-3.70297e-05
-5.86691e-08
-0.186158
0.35421
5.96325e-06
5.50609e-06
-1.14286
4.14828e-07
0.0699629
7.57928e-07
-2.90659e-07
7.92296e-05
-3.32071e-06
-0.000126112
-0.0285319
-0.04099
0.000229746
-8.50635e-06
0.00536926
1.51525e-05
0.0035875
-1.39809e-06
-0.0152976
0.0157485
-4.10788e-06
-1.03713e-05
-5.94027e-07
-0.0199998
-0.0819235
-0.0478976
0.0625586
0.000426081
-0.827491
-0.000533688
0.0105066
-0.240104
1.91003e-06
-0.13442
6.14188e-06
0.101844
-0.0324458
-0.210383
-0.352297
1.53257e-06
-0.00386947
-0.148576
-3.56233e-07
-0.191798
1.53193e-06
-3.9867e-06
-0.000166661
-8.10578e-06
4.5716e-05
-0.0269756
0.176034
-0.454594
-0.000115225
0.000282886
-1.45912e-05
2.34552e-06
3.25701e-06
0.000982254
-0.000209989
1.73052
-0.00150453
6.26089e-05
-9.92411e-08
3.66896e-06
0.0706502
-5.07203e-05
1.24074e-05
-1.26174e-05
-0.00801385
-0.000100538
0.00309719
-0.0153454
-0.0352042
0.00018348
-0.000396258
-2.96277e-06
-8.26559e-05
0.697283
0.204592
0.00278218
9.14508e-07
0.16695
-4.08657e-05
-8.73092e-08
-0.0031047
0.117946
-0.00819247
0.000784629
6.45536e-07
0.0171523
-1.80231e-06
-1.53474e-07
6.89002e-05
1.16778
-1.33611
-1.43465e-06
0.180723
-0.491256
6.64828e-06
-0.0101829
-0.00680503
0.0211148
7.00174e-06
-0.0568141
4.55367e-06
0.197378
0.0164135
-0.042479
-9.78703e-05
2.81235e-06
0.221339
7.56582e-07
-9.26729e-06
0.344769
1.02254
-0.000756489
1.06716
2.1016e-05
-1.06178e-05
-1.51865
4.64181e-07
2.79651e-07
4.1071e-06
0.00225943
-1.4236e-07
-0.000939385
7.96807e-06
0.0193003
0.0141025
-2.09426e-05
-0.125528
5.22636e-06
0.173672
0.0615306
-7.18892e-06
-5.45753e-06
-0.000158686
-1.75259
-0.00348783
-0.00218384
0.107506
-0.345041
-1.32775
-1.18239e-05
0.697013
-0.336468
-0.0514602
-0.0556995
1.74317e-06
7.88735e-07
7.11259e-06
8.63632e-06
3.06378e-07
-0.000241313
-0.00378728
-0.000358939
-0.0601468
-0.215965
0.454237
0.621874
0.182257
0.00034753
-0.0310256
-0.00368906
0.000418663
-4.63243e-07
1.68696e-07
0.00678615
0.00244382
-3.00071e-05
0.08569
0.223343
1.70631e-06
-5.08873e-06
5.80361e-05
-0.00475792
-4.35993e-06
0.0011902
-0.119392
-1.73972e-06
-6.24861e-07
7.42305e-07
3.46627e-05
-0.0142399
0.0305209
0.00127154
0.552377
-0.00859729
-2.26063e-06
0.0281606
-0.00881562
-2.80163e-06
-0.0667069
-0.0748591
1.49628
1.31478
0.00529255
4.10508e-07
0.0251655
0.0842117
0.0170765
-0.442667
-2.22156e-06
-4.24481e-05
6.26635e-06
-4.23199e-06
-0.314764
-0.00227085
-7.12974e-06
3.60721e-05
-0.0016107
0.0978528
9.18341e-06
-0.00711255
0.0926313
0.165106
-1.08637e-07
0.000266928
-0.00565874
-8.29889e-07
-1.9056e-06
0.207541
-2.22961e-07
0.0286768
0.0182332
-0.184582
1.15666e-06
-0.0139279
0.0168132
-1.53805e-06
-2.6234e-05
0.196847
0.489457
2.07099e-06
-0.00172543
-0.00177101
-0.0321562
0.0590262
0.334797
-5.77136e-05
0.0292014
0.0514887
-0.000314175
-3.46562e-07
-0.172414
-9.91796e-07
-4.9409e-06
-0.0855265
0.000380261
0.00103932
-0.000120762
0.00068359
-1.79837e-06
-1.36749e-06
-2.48039e-05
2.50511e-05
0.153941
-0.000173132
0.413004
-0.0365901
-0.000744728
-0.00335634
0.347156
-0.0605771
0.184852
9.63096e-05
-0.000177372
-0.000436971
-4.01815e-06
0.0560379
0.00750534
6.70891e-06
0.134292
0.100949
0.000236689
0.013736
-0.0022924
0.0183128
0.0122807
7.28319e-05
-0.0012377
-0.0135538
-0.0117192
0.0107491
-0.0100538
0.00791491
0.00029269
1.23724e-06
-0.00032436
0.000486193
2.66886e-06
0.178656
0.00833783
-0.0326901
0.182837
8.81024e-06
3.20654e-06
0.176639
-0.636538
-1.6099e-05
-3.34179e-05
0.0135011
-0.94974
-1.01269
3.90391e-06
-5.61526e-05
-7.25065e-05
9.0166
0.0199273
-2.63286e-05
0.270723
0.0953568
0.000554264
0.0357974
-0.000803059
-0.00556934
-0.00692109
-5.88998e-07
0.0233683
0.158301
2.68904e-05
-0.000535714
-0.00547397
-4.05734e-06
-2.02524e-06
-1.10212
1.3919
2.31362e-05
2.75326e-05
0.939559
0.00538458
-0.00487055
3.43491e-06
-0.0595083
-0.0177089
0.232977
0.0659258
-3.42407e-06
-1.02657e-06
-1.24115e-05
1.82276e-05
-0.116643
-0.923886
0.0474581
0.00500498
-0.0395359
0.124578
-1.5721e-05
4.73832e-06
0.101881
-5.2168e-07
-0.0599617
1.9145e-06
0.0922985
5.79785e-05
1.89227e-05
-0.555238
1.78404e-05
-0.0153381
-0.00716073
3.4925e-06
-3.29157e-05
4.17101e-05
-0.0515577
-0.037857
-0.000700049
0.212744
-1.02873e-05
8.54343e-06
-0.000143637
7.98688e-05
0.0706609
-1.04717
0.00355829
-0.139282
-0.00110841
-1.19735
0.00201136
1.41914e-06
-1.99244e-06
-4.7689e-07
0.0393469
0.0156304
0.0108469
0.000442183
0.0262777
7.01092e-07
-0.0193481
-0.11379
1.27079
2.04875e-06
-8.79106e-05
1.81878e-06
0.149894
-0.039765
0.0397734
-0.0269646
-0.011637
-0.0550562
-8.52797e-07
6.63416e-05
-0.0175666
0.0131812
-0.0684572
7.92196e-07
0.00123925
-2.82082e-06
2.06934e-05
-0.00501674
-1.0646
0.951854
-1.09306e-05
0.00159505
-0.0581945
0.755723
-0.171472
-0.173396
0.00640725
4.07776e-06
0.00131928
-2.47212e-06
0.0178573
-2.92948e-06
-0.00111191
2.34709e-05
-0.00218309
-0.0048617
-0.0777486
-1.45993e-06
-0.0169537
0.171017
0.014247
1.22137e-06
0.412235
0.0096908
-2.79719e-06
3.40676e-05
-0.264022
-2.26051e-05
0.00577605
-0.016855
-0.00423659
-0.25553
5.00018e-06
-0.220509
0.0246777
-1.10286
-0.156225
0.000159654
-0.0193398
0.0121884
-0.21777
-0.0117637
-2.95135e-05
0.197393
-0.041995
-0.00315155
2.41338e-05
0.101331
0.794452
-0.0929611
0.000110896
-0.422197
-7.75838e-05
-0.0595505
0.0512093
-1.00006
-0.180205
1.09132e-07
1.74767e-06
0.0810878
0.017693
0.00434751
5.90401e-06
0.00074855
-0.000146984
-0.493026
-0.0939497
0.16336
8.99107e-05
0.142164
-0.0115197
0.638715
-2.65188e-05
0.136505
-0.350049
2.77324e-07
0.0175414
-9.20241e-06
0.000161001
-3.79917e-07
0.0198303
-1.23267e-06
-1.72905e-06
0.00307512
-0.271534
-6.47467e-07
0.0457543
2.82662e-05
3.63797e-07
2.07807e-06
-2.32312e-06
7.58804e-06
-0.0277707
0.109848
2.67162e-06
-0.916913
-0.00353096
0.00411629
-1.0524
0.00845476
6.27455e-05
-0.000222111
2.13455e-08
0.00655874
-2.88893e-05
0.0718215
3.49957e-06
-0.370452
-0.0946768
0.000584879
-0.158395
0.123459
6.88522e-07
-0.0339354
0.00264126
-0.00576044
0.0204372
1.53571e-06
0.0076369
0.0383663
-1.32223e-06
0.700639
-5.86025e-07
-0.225845
-0.0238472
0.428099
-0.07165
0.0245848
-0.0154095
5.99505e-06
-3.75872e-06
-0.00919688
8.15002e-05
-6.27782e-06
-6.97704e-06
0.000354487
5.79976e-07
5.94886e-07
4.16157e-05
0.00146459
6.84055e-05
6.10568e-06
-4.25981e-07
-0.0129437
-0.0118184
7.17614e-05
-0.0358524
-5.02222e-05
1.14027e-06
0.0143466
-0.00321934
-1.95259e-05
-1.00354e-06
-0.444861
9.80211e-05
0.0803383
1.02553e-05
-0.00584226
9.8844e-07
-1.87919e-06
-0.0557102
0.0241824
-0.00374466
0.00106663
1.17213e-06
0.241955
1.13223e-06
-1.04925e-06
-0.00277045
4.44097e-05
-0.0107615
0.175033
0.0182683
-1.51235
0.000694199
-0.210394
4.51548e-06
2.42373e-06
0.00425215
0.0367547
-0.00879999
-0.00449142
0.152024
0.00015237
2.38632e-06
-0.000240069
-0.0310729
-0.0135641
-6.49944e-07
0.0122565
0.0094988
-0.000442395
-5.46264e-06
3.35726e-06
0.00324004
0.00163489
0.192202
-0.275316
-2.35962e-06
-0.00456417
4.83252e-06
0.00181326
0.243378
3.29193e-06
-0.0328778
0.0578994
0.00261092
0.991258
-3.13457e-06
2.88853e-06
1.06136e-06
-0.0311314
-0.0285194
2.85718e-05
-0.00657481
0.00162776
5.47469e-06
3.79643e-06
-0.0284854
0.013828
0.0283849
0.152496
0.0437407
-0.000276289
-0.00195147
-0.00844467
0.000393431
-0.131467
-0.0040163
-0.156066
2.41738e-07
-0.00700539
-0.00732428
1.47723e-05
-0.199029
-0.000256363
0.0705088
0.000275452
0.00961067
6.62339e-07
0.051998
2.0954e-05
1.7364e-07
5.58248e-06
2.15396e-07
-5.11449e-05
3.61186e-06
-4.39565e-07
-6.74921e-05
5.07852e-06
-1.73322e-06
0.00200987
-0.000192995
-1.11917e-05
-0.00400065
-5.2311e-05
-0.00413086
1.30062e-07
-0.00443925
0.00207991
-0.188607
-2.28372e-06
7.13016e-07
0.00130702
0.0799155
3.02632e-06
1.37714e-06
0.00531229
-5.10878e-05
0.00102639
-0.00451925
-3.17841e-07
-7.58283