/*--------------------------------*- C++ -*----------------------------------*\
| =========                 |                                                 |
| \\      /  F ield         | OpenFOAM: The Open Source CFD Toolbox           |
|  \\    /   O peration     | Version:  v2012                                 |
|   \\  /    A nd           | Website:  www.openfoam.com                      |
|    \\/     M anipulation  |                                                 |
\*---------------------------------------------------------------------------*/
FoamFile
{
    version     2.0;
    format      ascii;
    class       volScalarField;
    location    "250";
    object      k;
}
// * * * * * * * * * * * * * * * * * * * * * * * * * * * * * * * * * * * * * //

dimensions      [0 2 -2 0 0 0 0];


internalField   nonuniform List<scalar> 
13917
(
0.0154949
0.00018082
0.000222514
0.000150548
0.000165408
0.00018005
0.000159647
0.000261116
0.000157269
0.00712335
0.000131161
0.000148504
0.000162592
0.0120259
0.000166493
0.0127205
0.000148021
0.000247591
0.000195673
0.0138463
0.000170359
0.000147979
0.000173594
0.000147942
0.000154026
0.000173115
0.000346343
0.00469956
0.000189169
0.00013636
0.00322004
0.000182876
0.00015078
0.0246178
0.000145777
0.0023538
0.000155595
0.000161498
0.000159806
0.000176162
0.000149197
0.000145886
0.000154591
0.000194888
0.000193988
6.20276e-05
0.000168426
0.0346959
0.000704515
0.000145793
0.000148256
0.00019632
0.00733049
0.000147996
0.000148542
0.000195956
0.00184923
0.000173539
0.000145334
0.000366084
0.0311848
0.000192137
0.000141859
0.000153582
0.0169169
0.000367858
0.00019752
0.00115097
0.00011729
0.0156508
0.0035706
0.0231314
0.000147805
0.000144182
0.000172091
0.000155196
0.000155742
0.000143789
0.000154734
0.000151048
0.000150848
0.000148678
0.000147658
0.00200236
0.000141627
0.0235621
0.00018192
0.000144571
0.000175211
0.000146837
0.000138556
0.000154914
0.00052304
0.000143687
0.000150797
0.000196661
0.0024332
0.00015049
0.000143462
0.000230208
0.00014547
0.000144378
0.000151166
0.000144023
0.000155198
0.00304162
0.0233584
0.000227422
0.000150738
0.000278415
0.000144204
0.0252079
0.000188256
0.0370053
0.015686
0.00015599
0.000193914
0.000139813
0.000207137
0.000146743
0.000147234
0.000142948
0.000216451
0.000188001
0.0179728
0.00455581
0.000153062
0.000174197
0.000143933
0.000188908
0.00016545
0.000223932
0.0292725
0.000155936
0.000186808
0.000546503
0.0266662
0.0201859
0.00017581
0.000159083
0.00689108
0.00014401
0.00305252
0.000143534
0.000147067
0.000170879
0.00328582
0.00458874
0.0266969
0.000148309
0.000172111
0.00014294
0.000146811
0.000146815
0.00209395
0.000150642
0.0001431
0.0322825
0.000145929
0.000141332
0.000142117
0.0285423
0.000158912
0.00800755
0.0358415
0.00031152
0.00732864
0.036033
0.000130365
0.000178576
0.000148573
0.027348
0.00015711
0.033141
0.000185921
0.000143932
0.000150528
0.0002014
0.000164789
0.000159506
0.00015446
0.000148195
0.00014828
0.000232828
0.000207228
0.000249676
0.000148053
0.000248702
0.00013625
0.0140198
0.000187288
0.000191921
0.000203576
0.0154865
0.000143711
0.0182008
0.000159261
0.0263852
0.000145391
0.000149936
0.00016541
0.015276
0.0175585
0.000154893
0.000154981
0.000170331
0.000173042
0.000143851
0.000200363
0.000150919
0.000140863
0.000215107
0.000190084
0.0299283
0.000186044
0.000175303
0.0267436
0.000151782
0.000137127
0.00013705
0.0356234
0.000202606
0.000127349
0.000143443
0.000144321
1.29103e-05
0.0154434
0.000136407
0.000136232
0.00014932
0.000137416
0.000137351
0.0218952
0.0264833
0.000148998
0.00013117
0.000185017
0.0222071
0.000146126
0.000143344
0.000270021
0.00358936
0.000193379
0.0267464
0.000194242
0.000143596
0.0386764
0.000185385
0.000182967
0.000183847
0.000154352
0.0253557
0.000146999
0.000175985
0.000183664
0.000149423
0.000149882
0.00015345
0.000165294
0.000145624
0.0227291
0.0163629
0.000143183
0.00013614
0.00015115
0.000136202
0.000147016
0.000161204
0.000170108
0.000143777
0.0238551
0.0245291
0.000146191
0.000157941
0.00129603
0.000136663
0.000240731
0.025147
0.000136733
0.0186744
0.000145116
0.0284205
0.000145383
0.000162449
0.000149737
0.000143234
0.000203661
0.000152972
0.000192333
0.00016313
0.0149233
0.000184077
0.000253895
0.0201028
0.000142346
0.000176905
0.00016529
0.000156647
0.00016404
0.000154567
0.000144147
0.000150217
0.000202237
0.0019626
0.000174972
0.000154142
0.000143179
0.0304756
0.0132881
0.000143273
5.2409e-05
0.000156666
0.00361935
0.000201307
0.0242
0.0324492
0.0002118
0.000241726
0.000157013
0.00118877
0.00671743
0.00021946
0.000160444
0.000165385
0.000222301
0.000149473
0.000183656
0.000191276
0.000147764
0.0267914
0.000141662
0.00017178
0.000139039
0.00767452
0.000139494
0.000173025
0.000171534
0.000223685
0.000145338
0.00018453
0.00117483
0.000150352
0.000149542
0.0265297
0.00156673
0.0296741
0.0154537
0.000136387
0.000148911
0.00495536
0.000231685
0.000136506
0.000166532
0.000148068
0.000198301
0.00017373
0.000193805
0.00019859
0.000237321
0.000170857
0.0214711
0.000144289
0.000150332
0.000180869
0.000210461
0.000147538
0.0137773
0.000170678
0.00368064
0.000148853
0.000209199
5.01757e-05
0.000374077
0.000145197
0.000167708
0.00172464
0.00017437
0.000146462
0.000129404
0.000139427
0.038272
0.000207551
0.000143905
0.000407633
0.000151019
0.00308987
0.000139887
0.0155165
0.00309267
0.000154692
0.000969748
0.000227129
0.000153417
0.0312362
0.000216913
0.000153661
0.000205515
0.000148453
0.000231259
0.000216065
0.000141624
0.000158521
0.000154029
0.000142978
0.00014047
0.000144664
0.0237491
0.000186458
0.000149582
0.000145122
0.000147145
0.000177232
0.000181651
0.000137555
0.000130413
0.000200293
0.000209207
0.000143566
0.000154287
0.0282383
0.0267256
0.00035301
0.000197487
0.000285268
0.000140943
0.00013712
0.000165898
0.0001404
0.000137636
0.000149324
0.000137224
0.000140641
0.0386339
0.000148774
0.000177787
0.0255726
0.000176747
0.000141116
0.000146557
0.0308974
0.000165574
0.0156262
0.000138427
0.000143623
0.000139783
0.000137753
0.000155252
0.00015159
0.0271628
7.05239e-05
0.00458752
0.000143578
0.000167611
8.31233e-05
0.000150515
0.000192692
0.0300403
0.000147845
0.0247854
0.000141465
0.000142097
0.000146797
0.000151138
0.00014037
0.000147914
0.0309771
0.0346476
0.000140146
0.000236512
0.000199014
0.000147375
0.000178452
0.000185322
0.0298418
0.000159713
0.00311216
0.00365358
0.00383337
0.000151692
0.000307072
0.000157663
0.000153951
0.0166095
0.000139589
0.000147651
0.000150742
0.000157837
0.000169748
0.00020621
0.000177348
0.000149879
0.000160469
0.000204439
0.000187382
0.000149526
0.0105132
0.000169248
0.000162984
0.038713
0.000141583
0.000189035
0.000199663
0.000139606
0.0348495
0.00014303
0.00013771
0.000177445
0.000138511
0.000149587
0.000201494
0.0357742
0.00262692
0.000142044
0.000151126
0.000158215
0.0140684
0.00991064
0.000149034
0.000148285
0.000141813
0.000181452
0.00200767
0.000144477
0.000146171
0.000149517
0.000142693
0.000176989
0.000162602
0.000141409
0.000177395
0.000139505
0.000147384
0.000153642
0.0235725
0.000136016
0.000154574
0.000145648
0.000166845
0.000181454
0.000208636
0.000184409
0.000272919
0.00015299
0.000216515
0.0236987
0.0374971
0.0283812
0.000142601
0.000146495
0.000190257
0.000144811
0.0160121
0.000137047
0.00845173
0.000159114
0.0152563
0.000253085
0.00015469
0.00800776
0.000140109
0.000180746
0.000148784
0.000149296
0.0186386
0.000138063
0.000210533
0.000144842
0.000152337
0.00014685
0.000205646
0.000178788
0.00013586
0.000196069
0.000178096
0.00551563
4.85654e-05
0.0301246
0.0299762
0.000136014
0.016074
0.000137735
0.0289375
0.00451473
0.000148566
4.59976e-05
0.000144571
0.000168742
0.000154097
0.000138086
0.000148925
0.000161072
0.000124884
0.000142498
0.000180806
0.000147352
0.000135723
0.000144568
0.000188774
0.0210444
0.00720478
0.000182597
0.000162245
0.000232728
0.0232383
0.000140242
0.0248227
0.000159863
0.000192061
0.000144812
0.000133972
0.000142448
0.000187872
0.000147329
0.00461549
0.000169888
0.0216458
0.000141762
0.000169048
0.000145633
0.000146403
0.0223361
0.000648099
0.000146576
0.000196285
0.000143279
0.000148515
0.000144942
0.0239834
0.000142516
0.000167076
0.000136966
0.000146121
0.000209
0.000144044
0.000194625
0.000149493
0.000139596
0.0288664
0.000181548
0.00014868
0.00952604
0.000212643
0.000256478
0.000206214
0.000139903
0.00016835
0.0221234
0.000214255
0.00016448
0.000155495
0.000205477
0.000148137
0.000144536
0.000120904
0.000182762
0.000157662
0.0389648
0.000170332
0.000286402
0.0135288
0.00143303
0.000170986
0.000201909
0.0200007
0.00014417
0.000247186
0.000240894
0.000139644
0.000143286
0.000144589
0.000156479
0.000149436
0.01641
0.000166679
0.000141247
0.000189579
0.00014099
0.0252736
0.000145144
0.000143977
0.0364169
0.000180485
0.00347294
0.000148362
0.000143474
0.000143787
0.000149977
0.000161687
0.000143238
0.017831
0.000165774
0.00734911
0.00356683
0.000233122
0.029949
0.000151269
0.000148353
0.000145972
0.0261979
0.000457144
0.000159872
0.0175841
0.00194361
0.000139619
0.00014364
0.000155432
0.00201723
0.00468502
0.000170446
0.000149843
0.000154661
0.000193144
0.000155534
0.000193139
0.000166949
0.000150484
0.000151188
0.000148631
0.000161427
0.000162251
0.000228047
0.000157389
0.000166786
0.0174597
0.000149305
0.00361022
0.000155
0.000171513
0.000158656
0.000211381
0.000147067
0.000179503
0.0182992
0.0033718
0.000145026
0.000157374
0.000155735
0.000143844
0.000147091
0.000187401
5.10834e-05
0.000240361
0.00019494
0.000139661
0.000236221
0.000157293
0.000157968
0.000198382
0.000149316
0.000180616
0.000459435
0.00013567
0.000180406
0.000191717
0.000166583
0.000142672
0.000140633
0.000144481
0.013659
0.000150599
0.000145748
0.000171037
0.000143551
0.000141726
0.000194442
0.000392235
0.000210853
0.0247052
0.000192631
0.00592955
0.000147096
0.000156504
0.000206869
0.000146882
0.000324651
0.000146015
0.000143122
0.000148223
0.000158153
0.00021554
0.000142603
0.000970647
0.000148891
0.00316595
0.000155042
0.000159445
0.000138893
0.000183745
0.000163547
0.0299555
0.000195474
0.000148876
0.0236866
0.000151525
0.0214076
0.000153673
0.00257051
0.000153802
0.000141933
0.000144821
0.0259789
0.000161509
0.000243804
0.0246849
0.000143738
0.000167004
0.000131011
0.000164947
0.00305029
0.0001313
0.039469
0.000154666
0.00320736
0.000192309
0.000317539
0.000137305
0.000142627
0.000200735
0.000139867
0.00014775
0.000153029
0.000146196
0.000171132
0.000137144
0.00452923
0.000150558
0.0148278
0.0213344
0.0075763
0.00582409
0.0236092
0.0135725
0.00219428
0.00013912
0.000148063
0.000146369
0.000151499
0.000141893
0.000161761
0.000143186
0.000652909
0.00014805
0.000123446
0.00015027
0.000163353
0.000200518
0.000143105
0.000178366
0.00015157
0.000149743
0.000158889
0.00013955
0.0315417
0.000183841
0.000469468
0.000143309
0.000144778
0.000148923
0.000149381
0.0374863
0.000139311
0.000108477
0.000142231
0.00364611
0.00016244
0.000143435
0.000180335
0.000189162
0.000139444
0.00370072
0.0214201
0.000155948
0.000184643
0.000139802
0.000355149
0.000140145
0.000149238
0.0194927
0.000144919
0.000150853
0.000188908
0.0183899
0.000139109
0.00152847
0.000235985
0.000148262
0.000152326
0.000146551
0.000100679
0.000144494
0.000198039
0.000147762
0.0352673
0.000162956
0.0157828
0.000145082
0.000136642
0.00333053
0.000153748
0.000147612
0.0195574
0.000152818
0.000140453
0.0107503
0.000145905
0.000148224
0.000182294
0.00015332
0.0177912
0.000176068
0.000184265
0.000189187
0.000154458
0.0334376
0.000151383
0.000181355
0.000143962
0.0249675
0.0038221
0.000148699
0.000141943
0.000148362
0.000149048
0.000142882
0.00014125
0.000143507
0.000144654
0.000163232
0.000135538
0.000152386
0.000183989
0.0330195
0.0303288
0.000187379
0.000148885
0.00342409
0.000142679
0.000210343
0.00212494
0.00641303
0.000137502
0.000139244
0.000145218
0.000147349
0.00013728
0.000139885
0.000143083
0.000171884
0.00014051
0.0125328
0.00737927
0.000141047
0.0239947
0.000144075
0.000144697
0.000229971
0.0245298
0.000192094
0.00014309
0.00372393
0.000144682
0.000144756
0.000236732
0.000148842
0.0146143
0.000151132
0.00827165
0.000141133
0.00014339
0.000166142
0.000269424
0.000152653
0.0250633
0.000198101
0.00015424
0.000152916
0.000144823
0.000140395
0.000190743
0.000166182
0.000157294
0.0280254
0.0152902
0.000262515
0.000192075
0.000143136
0.0283363
0.000142982
0.0280711
0.00018228
0.000158676
0.000152142
0.0197622
0.00240142
0.000101836
0.000154094
0.00231915
0.000142269
0.000143194
0.000167147
0.000150245
0.000147517
0.000204134
0.0184291
0.000143428
0.000159515
0.022138
0.000143713
0.000136501
0.0102536
0.0273649
0.000151135
0.000138792
0.000159162
0.000146361
0.000144424
0.000186297
0.000158804
0.00014612
0.00718152
0.000151645
0.000420372
0.00222559
0.00018541
0.0249034
0.000148577
0.00015006
0.000562156
0.0180769
0.00253055
2.95718e-05
0.000167167
0.000149323
0.0001513
0.000141366
0.0307189
0.000170509
0.000150244
0.000176985
0.000143194
0.00344568
0.000183026
0.00019725
0.000179502
0.000134259
0.00478633
0.0262636
0.0291432
0.000161647
0.000227144
0.000136737
0.000181053
0.000185923
0.0037844
0.00015655
0.000149083
0.000158145
0.000866967
0.000153275
0.0315086
0.000168581
0.000192158
0.0322421
0.000142193
0.00019228
0.000154116
0.000147676
0.00019342
0.000327625
0.000137822
0.000139224
0.000152268
0.000814812
0.000140506
0.000152956
0.000153988
0.00015128
0.000146676
0.000198474
0.000182963
0.00015009
0.000142961
0.00153796
0.000287585
0.000176386
0.0331734
0.000148779
0.000144337
0.00332683
0.000145757
0.000153444
0.028782
0.0261416
0.000175191
0.000182289
0.00015887
0.0142086
0.000108497
0.000168223
0.002105
0.000144092
0.000184922
0.0303013
0.00021088
0.00285001
0.000650194
0.00014041
0.000147083
0.000161667
0.000146932
0.000147649
0.000234475
0.000144828
0.000174232
0.000137438
0.000178813
0.0306444
0.000153454
0.0168883
0.0255465
0.000144403
0.000185165
0.000159855
0.000152538
0.000143907
0.0284611
0.000181754
0.0197426
0.000161497
0.0324378
0.000193249
0.000140016
0.00955864
0.000168625
5.18616e-05
0.000143673
0.000128264
0.000143948
0.000158125
0.00017263
0.000158464
0.000149482
0.000177876
0.0121304
0.000142258
0.000243313
0.00779992
0.000147791
0.000142494
0.000155791
5.94026e-05
0.000161359
0.000141329
0.000162678
8.11823e-05
0.000609914
0.0174514
0.000147146
0.000139479
0.000140475
0.000144853
0.000165698
0.000155085
0.000101167
0.000149695
0.000155651
0.000272189
0.000118077
0.000186654
0.0278513
0.0332507
0.000148516
0.000144501
0.00013953
0.000152036
0.000183919
0.0279856
0.000595589
0.000201339
0.000164409
0.000175468
0.000153825
0.000209078
0.000157529
0.000194279
0.000143709
6.96886e-05
0.000253814
0.000140468
0.000148095
0.0278056
0.000176028
0.000218716
0.0363222
0.000201656
0.000143746
0.000325985
0.000157605
0.000141921
0.0278079
0.00805388
0.00014378
0.000174994
0.000190897
0.00016957
0.000150662
0.000136993
0.000142656
0.000140851
0.000143707
0.00016367
0.00018304
0.0211262
0.000170628
0.000158428
0.000164326
0.000192683
0.000142624
0.000169989
0.000148989
0.000207811
0.0245953
0.000152773
0.000136872
0.0260883
0.000140078
0.00219564
0.000152613
0.000178672
0.000149241
0.00014052
0.000253198
0.000159221
0.000152702
0.000144649
0.0168905
0.00024569
0.02312
0.000148278
0.000146963
0.000340597
0.000141764
0.000141132
0.000215152
0.00568882
0.000160455
0.000166568
0.000150452
0.000219456
0.00014271
0.000156707
0.000149424
0.000136676
0.000208085
0.000142725
0.000140603
0.000161769
0.000179746
0.0118213
0.000207336
0.000142217
0.000163267
0.000141733
0.000143415
0.000153085
0.000149632
0.00014754
0.000208378
0.000147017
0.000183859
0.000181901
5.67105e-05
0.000146582
0.000134443
0.000144229
0.0296579
0.000137501
0.000237154
0.00018278
0.000152854
0.000176459
0.000166324
0.00016365
0.000146634
0.00017482
0.000140992
0.000140497
0.00404792
0.000173768
0.0001601
0.000142819
0.000145059
0.00014093
0.000210166
0.000143144
0.0272762
0.000174446
0.000143864
0.000142992
0.000138982
0.000174918
0.000241898
0.00969548
0.000301429
0.00308309
0.000116163
0.000194037
0.00015606
0.0252664
0.000137399
0.000137148
0.000157185
0.000458426
0.00013926
0.0271456
0.000147402
0.000143322
0.000216688
0.000121614
0.015122
0.000842916
0.000158277
0.000229442
0.000276853
0.000140975
0.0253124
0.00014413
0.000144007
0.00487924
0.000138221
0.0274947
0.000680729
0.000142019
0.00014483
0.000141282
0.0268722
0.000146036
0.000136986
0.000184726
0.00014228
0.00014143
0.000157086
0.000140988
0.00017303
0.000147823
0.000154823
0.000138732
0.000326116
0.000232511
0.000138927
0.000139052
0.000150913
0.000142811
0.000154795
0.000148509
0.000144753
0.000147999
0.000143121
0.000151621
0.00014614
0.00022389
0.00013898
0.000183747
0.000147503
0.000185824
0.000141028
0.000147348
0.000143207
0.000137676
0.000172775
0.000161829
0.000156707
0.0149755
0.000187809
0.0323025
0.027191
0.000185432
0.0074387
0.000147286
0.000145839
0.00039796
0.0263252
0.000140584
0.0230956
0.000139873
0.000198181
0.00130143
0.000154471
0.000184415
0.00121939
0.00985066
0.000142932
0.000173781
0.000141232
0.00325532
0.000155368
0.0283483
0.015801
0.000148202
0.00021599
0.000282244
0.000148609
0.0131764
0.003544
0.000153486
0.000140385
0.000826112
0.0261424
0.000140957
0.000164686
0.000149166
0.000328615
0.000204004
0.000147002
0.000141376
9.0529e-05
0.000143059
0.00014443
0.000150053
0.000139407
0.00611409
0.00016968
0.000161851
0.0292368
0.000143745
0.000200205
0.000147679
0.000531868
0.000179985
0.00252484
0.000140749
0.000160274
0.000140688
0.000145341
0.000154223
0.000146314
0.0171712
0.000152082
0.000139821
0.00014231
0.00272531
0.000140429
0.00553087
0.0243801
0.0072449
0.000146794
0.000141977
0.000142801
0.00261607
0.000148728
0.000633854
0.000143808
0.00814875
0.000153101
0.000149589
0.000248663
0.000147479
0.000146608
0.025133
0.00019244
0.0268562
0.000147263
0.0133397
0.0242972
0.000147071
0.025149
0.000148083
0.000159954
0.0378712
0.000155043
0.000175157
0.0192788
0.000162498
0.000180647
0.000146315
3.23417e-05
0.000144355
0.00524383
0.000142775
0.0182353
0.000144507
0.000144501
0.000153277
0.00248601
0.00014229
0.00018482
0.00019449
0.00364063
0.000143245
0.000163249
0.0235321
0.000201415
0.00281129
0.000185477
0.00014107
0.000192153
0.0107444
0.000155631
0.000794102
0.00013699
0.000201256
0.0146078
0.00014273
0.0175638
0.000143105
0.0093988
0.00364873
0.000154886
0.000153657
0.00434335
0.00579217
0.000144434
0.000152344
0.00013959
0.000147195
0.00628288
0.000183919
0.000247116
0.000147443
0.000161189
0.027776
9.8857e-05
0.000759279
0.000175306
0.000141767
0.000143856
0.000208542
0.0263029
0.00786372
0.00100015
0.00021009
0.00017514
0.000546794
0.0207491
0.0318664
0.00287268
0.00014026
0.000184091
0.000174517
0.00018823
0.000145591
0.000157824
0.000183413
0.000319644
0.00471971
0.000149839
0.02868
0.028207
0.000179081
0.000144126
0.000144213
0.000270396
0.000142443
0.0320501
0.000162102
0.000155974
0.000254526
0.00123392
0.000138862
0.000169116
0.000162686
0.000145901
0.0229114
0.000170345
0.0296903
0.000142919
0.0258084
0.000249166
0.000208228
0.000137745
0.000159672
0.00016331
0.0139811
0.000198391
0.00018223
0.00702881
0.0053836
0.000131763
0.000158515
0.000149122
0.000196365
0.0156306
0.000139627
0.00013854
0.000152282
0.000198555
0.0215147
0.000143264
0.000182919
0.000268106
0.000140438
0.00072611
0.000155247
0.0283383
0.000164585
0.00406624
0.00183592
0.000161523
0.000156523
0.000393861
0.000142467
0.000182937
0.0232362
0.000163778
0.000231173
0.000163802
0.000178817
0.0251855
0.0127342
0.000146108
0.000792469
0.005971
0.000138244
0.000200565
0.000180873
0.000204148
0.0133397
0.000298455
0.000828533
0.000192493
0.025767
0.000160335
0.000181455
0.000138
0.000148098
0.000146532
0.000140814
0.0002468
0.00068516
0.000137867
0.000182948
0.000207345
0.0001423
0.00414789
0.0204898
0.000136123
0.000148427
0.000139599
0.000151867
0.000172934
0.000144337
0.0343516
0.000162487
0.000183517
0.00015935
0.000187324
0.00068808
0.000170689
0.0288997
0.000145894
0.000152271
0.000137439
0.000142404
0.0209268
0.000190593
0.000162317
0.0312593
0.000147879
0.000149984
0.000164497
0.00014018
0.000143554
0.000200385
0.000157739
0.0215982
0.0111554
0.0310086
0.0001465
0.0197018
0.000143265
0.000248565
0.000138673
0.000200487
0.0200394
0.000142971
0.000155998
0.0220585
0.00016709
0.000149641
0.000140417
0.000161476
0.0285206
0.000139199
0.000148533
0.000151069
0.000162543
0.000212381
0.000152275
0.000158367
0.000141453
0.000151518
0.000333379
0.000167651
0.000155606
0.000195929
0.000252313
0.0273749
0.00557693
0.000155598
0.000151721
0.0221662
0.000145868
0.000180033
0.000146948
0.00561103
0.000148693
0.000148935
0.000185519
0.0294404
0.000143824
0.000140788
0.000137252
0.000203032
0.0130411
0.000196625
0.000144434
0.000155804
0.000140548
0.0294926
0.000144614
0.000182107
0.000178817
0.000147837
0.000195789
0.000170283
0.000425738
0.00014962
0.000141112
0.000164939
0.000175631
0.000220113
0.000148042
0.000149521
0.00014814
0.0256968
0.000145099
0.000150517
0.0122806
0.000153183
0.000140455
0.000156302
0.000143597
0.000144648
0.00685884
0.000153528
0.00161315
0.0032263
0.000134541
0.0275962
0.000149222
0.000191832
0.000179688
0.000150966
0.000138031
0.000134287
0.000144261
0.000131706
0.000174434
0.0296299
0.0267995
0.000141194
8.4658e-05
0.000174667
0.000155831
0.00014451
0.00388812
0.0147033
0.00234911
0.000142192
0.000152919
0.000149788
0.000970971
0.0210144
0.000150429
0.000144593
0.000163668
0.0337653
0.000147551
0.000153046
0.000153287
0.000197385
0.000186009
0.00013753
0.0307365
0.000168258
0.00014402
0.0231471
0.000177933
0.0262789
0.00299404
0.000167255
0.000160957
0.000151845
0.000159049
0.000150337
0.000242958
0.000184167
0.000144706
0.000156027
0.000224539
0.0150525
0.000139026
0.00019785
0.0190998
0.0102731
0.000145256
0.00014658
0.00351038
0.000386155
0.000235408
0.00014362
0.0173761
0.000181378
0.000135376
0.0206225
0.00016096
0.000148171
0.000224172
0.000146222
0.000195464
0.000141677
0.000133214
0.000147156
0.000137224
0.0173703
0.000137386
0.000141127
0.000183516
0.000156398
0.000156613
0.000198915
0.000146734
0.000144489
0.000152705
0.000151379
0.00349509
0.00318061
0.00024809
0.00104866
0.000180263
0.00441691
0.000142422
0.0277776
0.0193425
0.0205452
0.000140943
0.000163
0.00014467
0.000147101
0.00014288
0.000149189
0.000207501
0.000179412
0.000174473
0.000142095
0.000143903
0.000177812
0.000148468
0.000149326
0.000146848
0.0318575
0.000166008
0.0123154
0.00014632
0.00391654
0.000149846
0.000148632
0.000149951
0.000172118
0.000141983
0.000185832
0.0250778
0.000177936
0.0249596
0.00562614
0.000157065
0.000161034
0.0045536
0.000195452
0.00013866
0.000142531
0.000134537
0.0258515
0.000133106
0.000226225
0.000222549
0.00018412
0.0185723
0.0269337
0.000181138
0.0248127
0.000140932
0.00013642
0.000454491
4.73617e-05
0.000145302
0.000146316
0.0020435
0.000140136
0.000248683
0.000153291
0.000143035
0.000157578
0.000145832
0.00018295
0.0243108
0.0226147
0.000156678
0.00014413
0.000203515
0.000151779
0.000190854
0.000140638
0.000201975
0.00019037
0.000149262
0.000147836
0.000135044
0.000211018
0.000244327
0.000211921
0.006849
0.000164194
0.00142615
0.000184449
0.0001963
0.00794089
0.000143438
0.0276199
0.000151059
0.0319583
0.000253359
0.0276316
0.0101165
0.000149173
0.000179654
0.000116235
0.000146397
0.0192143
0.000146405
0.000145969
0.000157992
0.000150157
0.000163523
0.000251613
0.000127247
0.037109
0.000158509
0.00017651
0.000151785
0.000148448
0.000147315
0.000204015
0.000187674
0.0246839
0.000177517
0.000138272
0.000139627
0.000149494
0.000208841
0.000155574
0.00015053
0.00015736
0.000227256
0.000164223
0.000177164
0.000196294
0.0281169
0.000163537
0.000165295
0.000144521
0.000158089
0.000379546
0.00113986
0.000183833
0.000140195
0.0251946
0.000166465
0.000143285
0.000175304
0.0265837
0.00434917
0.000168408
0.0001401
0.0337243
0.000149595
0.000140502
0.000138685
0.00446011
0.000406596
0.000157047
0.0158582
0.00955105
0.000163212
0.000190965
0.000182369
0.0303051
0.000165184
0.020527
0.000149736
0.000958437
0.000200609
0.0167012
0.000166407
0.000141719
0.0283906
0.000144837
0.000151094
0.0158056
0.000425369
0.000240899
0.00025199
0.000155456
0.000151968
0.00037967
0.000143247
0.000142319
0.000146074
0.000174939
0.000144352
0.000167353
0.000164239
0.00349507
9.86586e-05
0.000150369
0.0197166
0.000162044
0.0276124
0.0249702
0.000145909
0.000148193
0.000157426
0.00118296
0.000207565
0.000181751
0.0262664
0.0297486
0.0140734
0.000151144
0.000295313
0.0211742
3.16406e-05
0.000131796
0.000147517
0.000145535
0.000146098
0.000151733
0.000142457
0.000165652
0.0231368
0.00017227
0.00287564
0.0315298
3.18038e-05
0.0290166
0.0267531
0.000167885
0.0224188
0.00019098
0.000184954
0.000138349
0.000146713
0.000182193
0.0221261
0.000150906
0.0278227
0.0279416
0.00014152
0.000146773
0.000146401
0.000207577
0.000150012
0.000183252
0.0267043
0.000138829
0.000143697
0.000141158
0.000150829
0.000192516
0.0243929
0.000171252
0.000774846
0.000196188
0.000142445
0.00363771
0.0002142
0.000146504
0.000240152
0.000124064
0.0237747
0.00282492
0.0228062
0.000145898
0.000133967
0.0257017
0.000208798
0.00117425
0.000142799
0.000153624
0.000154967
0.000153679
0.00581713
0.000182365
0.000148014
0.00016071
0.00455867
0.0259831
0.000150323
0.000115924
0.0337344
0.0263567
0.000147899
0.000161611
0.000192781
0.000143383
0.000143958
0.0175331
0.000142264
0.000223223
0.00375298
0.00703136
0.000141781
0.000202959
0.000201965
0.000142985
0.000136143
0.0169609
0.0109124
0.000148951
0.000172415
0.000203651
0.000208179
0.0260496
0.0121528
0.000158374
0.00327049
0.00418915
0.000168984
0.00014162
0.000226347
0.000136838
0.00013727
0.021477
0.000173748
0.000190101
0.00015587
0.000164909
0.000142409
0.000137808
0.000150182
0.000151075
0.0224448
0.000155394
0.00530041
0.0184627
0.000176887
0.000182081
0.0290686
0.014496
0.024164
0.000140386
0.000156656
0.000169461
0.00015796
0.000236752
0.00381899
0.000150078
0.00399471
0.0262276
0.000159829
0.000189667
0.000183051
0.000192519
0.000195446
0.000152159
0.000198431
0.000200646
0.000202856
0.000205419
0.000196157
0.000184912
0.00016192
0.000140916
0.000166008
0.00018868
0.000142084
0.000782924
0.0252288
0.00023756
0.0274644
0.000135788
0.000140248
0.00126119
0.00743932
0.000150776
0.0001551
0.00018163
0.0280072
0.00466702
0.000146349
0.000165197
0.00015738
0.010837
0.00446711
0.000154997
0.000220133
0.0258764
0.000191728
0.0228476
0.000189798
0.0039131
0.0250323
0.000130434
0.0196714
0.0289946
0.000151555
0.000187114
0.000195901
0.000160244
0.000141606
0.00214004
0.00417932
0.000142055
0.000142439
0.0243885
0.000210093
0.000190071
0.000148379
0.000219511
0.000197565
0.0283889
0.0255163
0.000146491
0.000143714
0.000150572
0.000154218
0.01773
0.000267282
0.0249524
0.00018731
0.000255361
0.00229638
0.00015423
0.000140146
0.0260721
0.000142446
0.0205497
0.000142717
0.0243686
0.000151657
0.000151325
0.00272327
0.000144451
0.00019464
0.00452409
0.000160683
0.000154864
0.000151907
0.000206772
0.0221307
0.000212926
0.0283918
0.00016376
0.000153003
0.000160522
0.00018967
0.0249456
0.0323478
0.000197002
0.000209216
0.000197624
0.00205571
0.00014726
0.000142168
0.000138999
0.000138486
0.000242072
0.000246693
0.00392842
0.000177192
0.000204136
0.000142908
0.00358061
0.0297174
0.00930881
0.000144325
0.000152496
0.000133401
0.0271675
5.50832e-05
0.00200941
0.000245988
0.000196339
0.000246193
0.000134793
0.000168879
0.000208172
0.000244529
0.000226137
0.000144506
0.000199628
0.000149638
0.000147756
0.000217153
0.00375277
0.001595
0.000148556
0.000194138
0.000260483
0.0267995
0.0178241
0.0137174
0.00787725
0.000142909
0.000181098
0.000147043
0.0002019
0.000144231
0.00019968
0.000153815
0.000175597
0.00285501
0.00426178
0.000159088
0.000254193
0.0288528
0.000197926
0.000154878
0.02066
0.000195661
0.000150633
0.000149428
0.0064049
0.000162454
0.000205191
0.000239445
0.00409826
0.0181007
0.000157806
0.014302
0.0248146
0.00057034
0.000511855
0.000165237
0.000193567
0.00019048
0.01134
0.000222681
0.00015026
0.000128875
0.000192806
2.65974e-05
0.000160999
0.0396411
0.000117515
6.32515e-05
0.000158013
0.0273398
0.000155499
0.0225092
0.000210075
8.13199e-05
0.0154717
0.00014047
0.000133301
0.0250805
0.0181503
0.000203296
0.000149956
0.000178703
0.000170005
0.00795156
0.000233156
0.0291271
0.00015894
0.02937
0.00020245
0.000462094
0.000150088
0.000110919
0.0380215
0.000162601
0.000189388
0.000135333
0.000155823
0.000146974
0.00308882
0.000143197
0.000146575
0.0238525
9.76991e-05
0.000138157
0.0219838
0.00015105
0.000146663
0.000143542
0.000142104
0.000148181
0.000236959
0.0280375
0.000139242
0.0191488
0.000182645
0.000175094
0.000157356
0.000188473
0.000158101
0.000164493
0.000142939
0.00297106
0.000164464
0.0228906
0.000164693
0.00250872
0.000195747
0.000184277
0.000126463
0.0295395
0.000139437
0.0215596
0.00017955
0.000180528
0.000139326
0.000143554
0.000204593
0.000209599
0.000146461
0.00227308
0.000143674
0.0086515
0.000203899
0.0244483
0.000208282
0.000211242
0.0228036
0.000147155
0.000144218
0.000180649
0.000152808
0.000148143
0.000148369
0.000160748
0.000142629
0.000142426
0.000152041
0.000179889
0.000153624
0.000160462
0.000153564
0.000190145
0.000193411
0.000154423
0.0102923
0.000153808
0.000143127
0.000190988
0.000172106
0.000153889
0.000142654
0.0225241
0.000153436
0.0251838
0.000153924
0.000194634
0.000143331
0.000146052
0.000281713
0.0277461
0.000183653
0.000170534
0.000135368
0.0287611
0.000147227
0.000142171
0.000185397
0.000154868
0.000203573
0.0287087
0.000190643
0.00326061
0.000177922
0.0181791
0.000146603
0.000147435
0.000185649
0.00353037
0.00017954
0.000191882
0.0376862
0.000160918
0.000146888
0.000160874
0.000218237
0.000178639
0.000146692
0.000193896
0.000193118
0.000181056
0.00014805
0.000146756
0.00023371
0.000182065
8.22476e-05
0.00352402
0.000155543
0.000182021
0.000147937
0.000173428
0.0143818
0.000148143
0.000206674
0.000446546
0.00018819
0.00121356
0.000145994
0.000145682
0.000142718
0.0214316
0.000210557
0.000154027
0.000233607
0.000196663
0.00014771
0.000146099
0.000272755
0.0210702
0.000255676
0.0281197
0.000236522
0.000163241
0.000238022
0.000199169
0.000163267
0.00665213
0.000189937
0.00544611
0.000146296