/*--------------------------------*- C++ -*----------------------------------*\
| =========                 |                                                 |
| \\      /  F ield         | OpenFOAM: The Open Source CFD Toolbox           |
|  \\    /   O peration     | Version:  v2012                                 |
|   \\  /    A nd           | Website:  www.openfoam.com                      |
|    \\/     M anipulation  |                                                 |
\*---------------------------------------------------------------------------*/
FoamFile
{
    version     2.0;
    format      ascii;
    class       surfaceScalarField;
    location    "250";
    object      phi;
}
// * * * * * * * * * * * * * * * * * * * * * * * * * * * * * * * * * * * * * //

dimensions      [0 3 -1 0 0 0 0];
oriented        oriented;


internalField   nonuniform List<scalar> 
20642
(
-0.0240426
0.0302049
-0.00616234
0.298563
-0.06304
-0.235523
-0.107414
0.0950357
0.0123779
-0.351422
0.140042
0.21138
0.38131
0.0357869
-0.417097
-0.0430247
0.341588
-0.224777
0.0231752
0.201602
-0.000135646
0.25805
-0.257914
-0.245629
0.223176
0.0224528
0.00521024
-7.90469e-05
-0.263656
0.26352
0.229294
0.133697
-0.362991
0.598583
-0.598583
0.301315
-0.145693
-0.155622
0.29719
0.039087
-0.336277
-0.0295669
0.00552429
0.585533
-0.590647
0.00511405
0.0431584
-0.281912
0.238754
-0.0290949
-0.0837404
0.112835
0.0040283
0.026753
-0.0307813
-0.0794932
-0.191044
0.270538
0.634695
-0.375032
-0.259663
0.203643
-0.146603
-0.0570395
0.345346
0.289349
-0.0519471
-0.185997
0.237944
0.0610239
-0.259161
0.198137
0.0647266
-0.195072
0.130345
0.00521024
0.0848765
-0.284708
0.199832
-0.683986
0.397319
0.286667
0.000809217
0.00440103
0.0244314
-0.107619
0.0831873
0.0438544
0.254107
-0.297962
-0.000802255
0.0331549
-0.0323526
-0.663024
0.482493
0.18053
0.423178
-0.165128
0.266957
-0.362663
0.0957061
0.619115
-0.100466
-0.518649
-0.0236045
-0.201173
0.226322
-0.00267614
-0.223646
-0.771368
0.603635
0.167733
0.412293
0.134306
-0.546599
-0.137097
0.251605
-0.114508
0.128067
-0.109935
-0.0181325
0.0171598
0.110907
0.202772
-0.0905685
-0.112204
0.226665
-0.306158
0.00792637
-0.0137867
0.00586032
0.405398
-0.253488
-0.151909
-0.409754
-0.25327
0.347851
-0.118558
-0.161446
0.0499941
0.111452
0.020007
-0.000663417
-0.0193436
-0.311036
-0.0911764
0.402212
0.013556
0.361307
-0.374863
-0.0865482
-0.074898
0.000809217
0.168254
0.0353889
-0.150242
0.562535
0.0693547
0.133417
0.0202472
0.0309086
-0.0511558
0.547766
-0.499678
-0.0480882
0.473018
-0.616231
0.143213
-0.262593
0.210646
-0.069654
0.0662011
0.00345288
0.120764
0.4563
-0.577064
-0.285395
0.0730688
0.212326
0.182703
0.240475
-0.220497
-0.00261064
0.0228764
-0.0202658
-0.112132
0.0756533
0.0364791
0.0226894
-0.0234916
-0.256924
-0.143351
0.400275
0.390502
-0.540744
0.0728874
-0.263932
-0.053524
-0.181083
0.234607
0.424922
-0.107779
-0.317144
-0.159717
0.55022
-0.259524
0.206
0.234766
-0.190912
-0.377666
0.441265
-0.0635983
-0.606283
0.578625
0.0276575
-0.420081
0.163157
0.0156156
0.0693009
-0.0849165
-0.230549
-0.300775
0.531324
0.0557409
-0.226239
0.170498
-0.0943368
0.118768
-0.638031
0.604021
0.0340097
-0.0277317
0.254054
0.483321
0.102212
-0.581424
0.406674
0.174751
0.115341
0.22414
0.181257
-0.617053
0.205984
0.411069
-0.412125
0.285744
0.126381
-0.200519
0.00890954
-0.15946
0.150551
0.589582
-0.589578
-3.58137e-06
-0.137817
-0.500213
-0.133813
-0.0902687
0.224082
0.528272
-0.533262
0.00498989
0.544128
-0.0158559
0.00158338
-0.37925
0.519373
-0.59295
0.0735767
-0.00620947
0.431132
-0.0849364
0.0810682
0.00386824
0.0316756
-0.0463751
0.0146996
0.417089
0.130677
0.541081
-0.406774
0.173981
-0.109255
0.531939
0.0723228
-0.00455853
0.0377134
-0.098257
-0.186451
-0.0609496
-0.00870436
0.386407
-0.180476
-0.205931
0.101822
-0.130917
0.420091
0.161766
-0.581857
0.10704
-0.0907602
-0.01628
-0.467204
0.277084
0.190119
-0.0948473
-0.511435
0.166226
-0.577635
0.411409
0.273533
-0.200464
-0.136748
0.141842
-0.00509447
-0.0200881
-0.00195012
0.0220382
0.0529529
-0.0373373
0.0760021
-0.269398
0.193396
0.25529
-0.182402
-0.424512
0.554453
-0.129941
-0.100304
-0.0364437
-0.0569279
0.158285
-0.101357
0.20452
-0.0770851
-0.127435
-0.0112073
-0.035017
0.0462242
0.168843
0.217564
-0.0684828
0.124394
-0.055911
0.065478
0.108503
-0.0245099
-0.0480698
0.0725797
0.0190943
-0.0177636
-0.00133069
0.0433669
-0.244624
0.201257
0.619115
0.159146
0.146339
-0.305485
-0.560163
0.400446
-0.0674911
-0.0174453
-0.541699
0.256573
0.285126
-0.151796
-0.233005
0.384801
-0.393427
0.58543
-0.192003
-0.0554697
-0.0566627
0.0414276
0.0133814
-0.0168298
0.00344843
-0.45883
0.147794
-0.194107
-0.0293397
0.223447
0.570367
-0.698091
0.127723
0.247661
-0.399457
-0.119282
0.128192
-0.136517
-0.334096
0.470613
0.542299
-0.0229262
0.0308172
-0.0415834
0.0107663
-0.614793
0.607484
0.00730855
0.569869
-0.149778
-0.175293
-0.329758
0.505051
0.0786252
-0.0521827
-0.0264425
0.0629345
-0.309314
0.246379
0.345666
0.0374431
-0.0422305
0.00478738
0.0355563
-0.183872
0.148316
0.020007
-0.0190172
0.0148264
0.00419075
-0.376702
-0.225955
0.602657
0.240818
-0.197451
0.0615746
0.309118
-0.370693
0.0546923
-0.0487446
-0.00594772
-0.0698101
-0.0113969
-0.0601321
0.0715289
0.194654
-0.104844
-0.0898094
0.601227
-0.106482
-0.494745
-0.144546
-0.206876
-0.162399
0.0217569
0.140642
-0.194533
0.137605
-0.232529
0.295464
-0.166255
-0.0838414
0.250096
0.406921
0.249887
0.097964
0.155536
-0.0707669
-0.0847696
0.10354
0.00350039
0.157906
0.0466139
-0.103638
0.353526
0.0447569
0.11078
-0.389362
-0.294624
0.258702
-0.202961
0.138729
0.0559243
0.128593
-0.111433
0.00807829
-0.117295
0.109216
-0.028047
0.000602294
0.0274447
-0.265687
-0.351366
0.0238352
-0.00301897
-0.0208162
-0.27172
0.108028
0.163693
0.0404458
-0.051653
0.507776
-0.0252828
0.3571
-0.493617
0.280138
-0.237378
-0.0427592
0.0202756
-0.0226404
0.00236473
0.0196794
-0.000585115
-0.0844404
-0.234069
0.318509
0.204243
-0.0663136
-0.137929
-0.274068
0.308403
-0.0343345
-0.221839
-0.393937
-0.112405
0.308332
0.132933
-0.428025
-0.117859
0.545884
-0.0457999
0.346375
-0.300575
0.290018
-0.335817
-0.0004053
0.0511706
-0.119653
-0.183601
-0.0577084
0.0531743
0.00453412
0.634136
-0.251428
-0.382708
0.725932
-0.413362
-0.31257
0.344908
0.381024
-0.00503089
-0.0239151
-0.107677
0.131592
-0.149994
0.0374831
0.112511
0.369297
0.180475
-0.549771
0.558908
-0.0858899
-0.107144
0.172622
0.0231718
0.125839
0.323251
-0.44909
-0.374644
0.500484
-0.314302
-0.457066
0.730256
-0.385348
0.312736
0.41752
-0.0107087
0.0333981
-0.0207211
0.0209545
-0.000233356
0.085971
0.299433
-0.385404
0.479737
0.0875505
-0.567288
-0.117285
0.15382
-0.0365356
-0.0278792
0.00236696
0.0255123
0.0128877
-0.514146
0.501259
0.526639
-0.157342
0.144696
0.0595473
0.0804249
-0.0642655
-0.0161595
-0.094682
-0.0491261
-0.00858223
-0.160983
0.133453
0.0275299
-0.342201
-0.199498
-0.0198388
0.0346653
-0.166226
0.0489412
-0.249305
0.151048
0.00886311
0.115266
-0.124129
0.23251
-0.31695
-0.0211264
-0.469221
0.219929
0.249291
0.054511
0.0979167
-0.152428
-0.0421201
-0.137751
0.179871
-0.0161603
-0.338953
0.355113
0.603635
-0.186591
-0.330829
-0.117337
0.448165
0.377838
-0.560536
0.182698
-0.00385495
0.0246551
-0.0208002
0.136462
-0.265026
0.128564
0.171363
-0.571186
0.399823
-0.667531
0.292886
-0.465231
0.131136
-0.281153
-0.386378
-0.192137
0.0621794
0.536403
-0.0215657
-0.162357
0.183923
0.586545
-0.415182
0.00245381
0.0160335
0.039543
-0.00786743
0.0792372
-0.40291
0.323673
0.313503
0.121633
-0.435136
-0.191764
0.145526
0.0462375
-0.741597
0.306732
0.434865
0.247415
-0.0876653
-0.15975
0.0226009
-0.0264559
-0.345427
-0.39617
0.0210567
-0.0236673
0.575282
-0.197444
0.0106367
0.0679885
0.604015
-0.00278802
-0.303468
0.386345
-0.0828767
0.281569
-0.297729
-0.331299
0.519569
-0.188271
0.10845
-0.00469441
-0.103756
0.546936
-0.586902
0.0399664
0.167873
-0.132316
-0.275808
0.0918063
0.184001
-0.546554
0.153127
-0.182155
0.205157
-0.0230022
0.017489
-0.43906
0.451948
0.161191
-0.0189261
-0.142265
-0.342803
0.467206
-0.124403
-0.354437
0.155095
0.199342
0.497465
-0.116155
-0.0743861
-0.185138
-0.597396
0.2111
0.386296
0.0491637
0.497772
0.168376
-0.0054345
-0.162942
-0.520178
0.164979
0.355199
-0.133132
0.187643
-0.247503
0.173117
-0.362221
-0.169271
0.531492
0.0439554
-0.0131383
0.0245894
-0.00431375
-0.425661
0.55583
-0.130169
-0.655452
0.196143
0.459309
-0.185594
-0.30715
0.473504
-0.166353
0.096625
0.0143944
-0.111019
0.0155307
-0.0449684
0.0294377
-0.0648139
0.053417
0.507829
-0.590769
0.0829402
-0.217726
0.14064
-0.119578
0.433081
-0.0124359
0.0817368
0.193858
-0.501009
-0.0700356
-0.037378
-0.205374
-0.393209
-0.051688
0.348878
-0.0503762
0.516038
-0.162671
-0.353367
-0.26061
0.19757
0.0163473
0.112245
-0.489531
0.57103
-0.0814994
0.0141459
0.0405464
-0.359263
-0.250806
0.610069
0.132877
0.0278006
-0.648881
0.449431
0.19945
0.0326401
-0.0286118
-0.396129
0.558276
-0.162147
-0.0011637
0.153393
-0.15223
-0.0283243
-0.245744
0.654923
-0.147094
0.18838
-0.677911
0.127439
-0.115532
-0.0119065
-0.0638515
-0.0120593
0.0759108
-0.487944
0.194922
0.293023
0.185589
0.330449
-0.0375328
0.0329742
-0.0562647
0.0766178
-0.0203531
0.118792
-0.0501657
-0.068626
0.0936323
0.207683
-0.703939
0.358512
0.0998742
0.297611
-0.397486
0.0786863
-0.063626
-0.0150603
-0.119627
-0.0980983
-0.327962
-0.375977
0.154662
-0.188645
-0.190127
0.378772
-0.00527657
0.204772
-0.199495
-0.134296
0.0203461
-0.134115
0.113768
0.0155179
0.153222
-0.16874
0.0562391
0.191176
-0.146035
0.156548
-0.0105127
0.0295728
0.00257708
-0.0321498
0.103579
-0.528091
-0.276209
-0.211736
0.314969
-0.279182
0.122564
-0.0923144
-0.0302493
0.61581
-0.0559413
-0.559869
0.00215793
-0.144834
-0.00120144
-0.360457
0.0663438
0.29324
-0.279684
0.18047
-0.0188185
-0.161652
-0.461064
-0.194388
-0.358694
0.202136
0.156559
0.541018
-0.403283
-0.137735
-0.105238
-0.122409
0.270128
-0.298453
0.364538
-0.285301
-0.0925283
0.0841883
0.00834003
-0.431195
0.62903
-0.197835
0.0501736
-0.0127304
-0.0995985
0.128548
0.41247
-0.134554
-0.48769
0.216274
0.271416
0.323533
0.244822
-0.568355
0.134398
-0.555263
0.420865
0.0346261
-0.0078731
-0.163336
0.486869
-0.00216553
0.227805
-0.225639
0.0646214
-0.171766
0.221823
-0.22486
0.00303709
0.101206
-0.343271
0.242065
-0.0694325
-0.000643916
0.0700764
0.0155032
0.0746201
0.236809
0.053369
-0.290178
0.00771257
0.100737
-0.304949
-0.0878559
0.392805
0.192065
0.0297579
-0.00310901
0.0981447
-0.497081
-0.198219
0.0229281
0.175291
-0.091867
-0.155636
-0.117866
-0.44661
0.564476
0.122893
0.33534
-0.458233
0.222075
-0.58904
0.366965
-0.0463401
-0.137532
0.45303
-0.125712
-0.327319
-0.572808
0.434602
0.138206
0.363083
-0.480856
0.117773
-0.138159
-0.0301092
0.168268
-0.367904
0.17688
0.191024
-0.757587
0.326016
0.431571
-0.673172
0.296469
0.106109
-0.00948425
-0.0131575
0.193628
-0.492959
0.161661
-0.273464
0.271298
0.119512
-0.0864795
-0.0330329
-0.12519
0.150589
-0.0253988
-0.418577
0.539341
0.040739
-0.124479
0.0658014
-0.0782374
0.266673
-0.514829
0.248156
0.334122
-0.703267
0.369146
-0.068756
-0.21141
0.280166
-0.344878
0.467771
-0.423466
-0.252982
-0.359747
-0.34352
0.514575
-0.247902
-0.0174893
0.0251434
-0.00765406
0.0878464
-0.392795
-0.0339571
0.205401
-0.171444
-0.00402957
0.0200631
-0.0185922
0.179783
-0.549971
0.121946
0.396289
-0.148628
4.08457e-05
-0.0694733
0.214668
0.0654699
-0.0220416
0.00195357
-0.707472
0.268173
0.439299
0.528344
-0.20758
-0.320763
-0.59793
0.166735
0.661235
-0.348499
0.326383
-0.0594262
-0.486876
0.196128
0.290747
0.00440535
0.115107
-0.438996
0.564189
-0.125193
0.0129339
0.189004
0.33934
0.00449128
-0.137196
0.132705
-0.4144
0.590571
-0.176171
-0.0959452
0.404277
-0.128361
-0.0326223
0.0997397
0.019052
0.169242
-0.357887
-0.150079
0.0973182
0.0527608
0.34803
0.209496
-0.557526
-0.630432
0.19996
0.430471
0.479774
-0.116691
-0.296449
-0.19124
0.427937
-0.554728
0.126791
0.439132
-0.619693
0.180561
0.00893847
-0.0398849
0.572521
-0.144584
-0.174697
-0.00745799
-0.0176103
-0.0854158
0.103026
0.361807
0.209086
-0.570893
0.154029
0.0262775
-0.180306
0.123357
0.00374423
0.0281919
0.0176252
-0.0458172
-0.214825
0.191076
0.0237495
0.0248035
-0.217734
-0.277876
0.49561
-0.515025
0.297291
-0.270601
-0.13447
0.155219
-0.569619
0.333716
-0.00679965
0.101317
-0.0945172
-0.41551
-0.165914
0.301588
-0.392765
-0.217203
0.208441
-0.176008
-0.0324325
-0.0812452
0.251894
-0.170649
-0.0759693
-0.026345
0.102314
0.132239
-0.018314
-0.113925
0.0863662
0.365803
-0.452169
0.436539
-0.314906
-0.0488153
-0.233097
-0.00345787
-0.169896
0.173354
0.11035
0.34268
-0.219259
0.0735658
0.0804599
-0.161213
0.0807536
-0.094419
-0.181389
-0.016129
-0.0416198
0.0577487
-0.481355
0.14124
-0.144698
0.1422
-0.120443
0.138845
0.329718
-0.468564
-0.0367678
0.0322329
0.00453483
-0.272969
-0.357463
0.396013
0.265222
0.0296471
-0.167806
-0.307741
-0.399731
0.505139
0.128998
0.17477
-0.00639423
0.0105438
0.0273362
-0.154572
0.0273141
0.127258
0.306036
-0.481328
0.280091
-0.0813676
-0.198724
0.119771
0.373907
-0.493678
0.120406
-0.113779
-0.00662706
-0.135312
0.155765
-0.0204531
0.257709
-0.40359
0.145881
-0.097523
0.153279
0.324887
-0.478166
0.00027685
0.154762
-0.155039
0.47192
-0.291115
-0.180804
-0.546357
0.409869
0.136487
0.0788771
0.536933
0.46782
-0.11072
0.373056
-0.490923
0.469314
-0.444098
-0.025216
-0.200568
0.170228
0.0303397
0.595054
0.0155721
0.116667
-0.345311
0.484157
0.391835
0.0306662
-0.422501
0.163071
-0.254938
0.00393238
0.0336078
-0.0375402
-0.504941
-0.019334
0.524275
0.266407
-0.194684
-0.0717224
-0.168585
-0.391951
0.156077
-0.151585
0.0478638
-0.183405
0.135541
-0.185235
-0.0667761
0.252011
-0.146964
-0.180153
-0.166051
-0.168997
0.335048
0.224717
-0.0114701
0.0519159
-0.0188353
0.00134597
0.0182836
-0.0223132
-0.436583
0.566488
-0.129905
-0.362
0.481292
-0.119292
-0.355715
0.442081
0.415446
-0.13414
-0.281306
0.0722805
-0.0153179
-0.0569626
0.647705
-0.340974
-0.269552
0.430023
-0.160471
-0.0657677
-0.205953
0.00486166
-0.0589646
0.0541029
-0.177934
0.0853501
-0.0132135
0.0184734
-0.00525995
0.427219
0.145302
0.148374
-0.0844795
-0.0638942
0.523067
0.066515
0.145909
-0.587179
0.44127
-0.0328075
0.0376691
-0.741142
0.433401
-0.0578898
-0.0255274
0.0834172
0.619601
-0.564624
-0.0549772
0.494533
-0.132726
0.117774
0.0318841
-0.107853
-0.002345
0.471659
0.426307
-0.512455
0.0861474
0.00826808
0.0989704
-0.107238
0.1484
0.00562881
0.480034
-0.331381
0.015653
-0.0711227
-0.0517747
0.0337249
0.0180498
-0.0223977
0.0505896
-0.520922
0.0159806
0.0279893
-0.018873
-0.00911629
0.588942
-0.482181
-0.106761
-0.061189
0.0131193
-0.366418
0.407846
0.548185
-0.402276
0.61347
-0.188678
-0.424792
0.314677
0.229451
-0.0898538
0.170314
-0.244238
0.160396
-0.415126
-0.210198
-0.37938
-0.759434
0.290126
0.469308
0.0822307
-0.0665777
-0.423264
0.432258
-0.00899417
-0.00151175
0.115291
-0.113779
-0.104544
0.406132
0.522417
-0.09611
-0.491782
-0.12301
0.0398563
-0.130425
-0.0534477
-0.0303451
0.0837929
-0.0294023
0.0161888
0.136647
-0.127783
-0.160038
-0.0405299
0.00988568
0.0834854
-0.093371
-0.00494938
-0.0229298
0.543802
-0.409404
-0.0763572
-0.0346451
0.111002
-0.447529
-0.311905
-0.0933252
-0.0179239
0.111249
0.124797
0.290649
-0.0168696
-0.0756588
-0.129634
0.50269
-0.192549
-0.251549
-0.364109
0.131104
0.158417
-0.167561
0.182657
-0.0150967
-0.070644
0.0582854
0.0123587
-0.625418
0.0884944
0.536924
0.155979
-0.177545
0.107716
0.338962
-0.446678
0.484018
-0.169341
-0.00375604
0.0333288
-0.199425
0.175881
0.0235438
-0.0590815
-0.359698
0.418779
-0.108169
0.128515
0.164417
0.568231
-0.427798
-0.140433
-0.0145452
0.584912
0.0319818
-0.0357379
-0.0765764
-0.346687
0.136377
0.378746
0.26896
-0.413126
0.354044
0.0882807
0.034283
-0.388923
-0.309167
0.133566
-0.0230299
-0.110536
-0.580853
0.55105
0.029803
-0.597379
0.453098
0.144281
-0.0302804
-0.0958486
0.405502
0.0139451
-0.000896297
-0.0130488
0.0170631
-0.074953
-0.229975
0.33713
-0.107156
0.117107
0.0250931
0.550053
-0.122835
0.298015
-0.258928
-0.0282072
0.0321396
0.0336352
0.040382
-0.0740172
-0.279499
0.210743
-0.164398
-0.198265
-0.398027
0.205479
-0.210043
-0.370811
0.567366
-0.315781
-0.251585
0.511093
-0.428153
0.0335657
-0.15866
0.125094
0.188423
0.0311424
-0.219566
-0.0422176
0.0260886
0.0226036
-0.190164
-0.370639
0.225088
0.145551
-0.149338
0.0140254
-0.289803
-0.230375
0.0118294
0.156204
-0.168033
-0.0159892
-0.101305
0.0234236
-0.391412
0.532892
-0.314808
-0.218084
-0.0811167
0.59221
-0.222793
-0.374586
-0.439306
0.344459
0.502372
0.105113
0.465271
-0.3455
0.406889
-0.593878
0.186989
0.012419
0.0155703
0.177191
-0.0403385
-0.136853
-0.633289
0.45615
0.177139
0.123953
-0.107606
-0.229061
-0.396357
0.0408895
-0.0253588
0.172479
0.402803
0.143104
0.411348
-0.0235838
0.0341276
-0.177284
0.064045
0.113239
0.37595
-0.475169
-0.212198
-0.121456
0.333654
-0.61056
0.184693
0.425867
-0.555948
0.417927
0.138021
0.17998
0.0921789
-0.272159
0.175135
-0.0088849
-0.16625
-0.373632
0.503821
-0.130188
-0.00221976
0.018147
-0.0159272
-0.0846921
0.217977
-0.133285
-0.323109
0.488636
-0.165527
0.477096
-0.101146
0.234136
0.298757
-0.0354852
-0.0162896
0.0851948
0.194896
-0.6535
0.268905
0.384596
-0.30541
-0.00531094
0.0279119
-0.0899509
0.232969
-0.124941
-0.0158501
-0.00619156
-0.452429
0.214389
0.23804
-0.562588
0.166459
0.130912
-0.556573
0.244908
0.081475
0.0127663
-0.52083
0.129869
0.390961
0.0203002
-0.105744
0.285724
0.194192
0.0722146
0.0203704
-0.438862
0.319284
-0.113195
-0.0209198
0.152326
0.0248649
0.39572
-0.109976
0.275218
-0.0404519
-0.36664
-0.286861
0.204694
-0.0295589
0.319203
0.0711059
-0.335451
0.120904
0.214547
0.129223
0.354615
-0.483838
0.0169375
0.000991413
-0.0179289
0.497912
0.0768927
-0.574805
-0.243857
-0.208572
-0.378397
0.213999
0.0632355
0.241392
-0.304627
0.0520407
0.165563
-0.217603
-0.0398859
0.0735212
0.495497
0.0831282
0.00816576
-0.121161
0.112995
-0.0819278
0.0284801
0.299173
0.263117
-0.562289
-0.135967
-0.292057
0.428024
-0.180356
0.515545
-0.108657
0.100401
0.267748
-0.368149
-0.406106
0.200952
0.205155
0.386337
-0.0918743
-0.294462
0.151575
-0.0890242
0.128881
0.0203713
-0.400952
0.559466
-0.158514
-0.0143989
0.0795075
-0.0651086
0.0660089
0.157167
0.205794
0.00264666
-0.124158
0.391112
-0.291238
0.0737082
0.0746654
-0.0187097
-0.140751
0.399223
0.131346
-0.53057
-0.127568
-0.0497155
-0.133736
0.175084
-0.0413489
0.157138
-0.00481206
0.553436
-0.394824
-0.158611
0.413027
-0.530886
0.346006
0.22136
0.000236032
-0.0968933
0.351001
-0.60384
0.383057
0.220782
0.162949
-0.0300721
-0.528805
0.155173
-0.565969
0.4206
0.145369
0.0170404
-0.103589
0.149163
-0.298732
0.390573
-0.0918414
0.0477664
-0.172956
0.212638
-0.217914
0.0733411
-0.292958
-0.113148
-0.309879
0.202101
0.00716469
-0.0944496
0.0872849
0.409435
0.138751
-0.573246
0.165894
0.407352
-0.375873
-0.302038
0.526197
-0.531807
0.00560941
0.241843
-0.343428
0.101585
-0.30509
0.198276
0.106814
0.0444172
-0.229652
0.391204
0.162232
0.614525
-0.194324
-0.420201
-0.355695
-0.129069
0.484764
-0.434693
0.0682742
-0.150592
-0.161313
-0.0535125
-0.380708
0.130233
-0.0149662
-0.355156
-0.0668037
0.0693483
-0.00254454
0.0685038
-0.367235
-0.477609
0.101737
-0.00592121
-0.0390472
0.282287
-0.0948903
-0.187397
0.0216361
0.0953984
0.169172
-0.356665
0.0107425
0.345922
0.124555
0.3168
-0.441355
0.550421
-0.417185
-0.133237
-0.418036
0.282069
0.0205663
-0.0419947
0.0214283
-0.177359
0.200582
-0.0232227
0.121808
-0.351782
0.127576
0.0230124
-0.297545
0.397946
0.0199387
0.1372
0.66907
-0.189333
-0.407944
0.49478
-0.0868358
-0.482623
0.198544
0.284079
0.483916
-0.396365
0.00530453
0.263487
-0.0973805
-0.166106
-0.0428524
-0.313813
0.114734
-0.0129112
-0.126742
-0.29265
0.419392
0.293112
-0.517013
0.223901
0.324035
-0.517954
0.193919
0.16909
-0.153572
0.149101
-0.300528
0.410824
-0.110296
0.0740582
0.228784
-0.302842
-0.36185
0.499786
-0.137935
0.0181151
0.492668
-0.199556
-0.014739
-0.197729
0.212468
0.281703
0.114017
0.0268092
-0.00253877
-0.0242705
-0.0227503
-0.471952
0.260296
0.211656
0.0144208
-0.0904631
-0.059616
-0.00275762
0.163355
0.310149
-0.414664
0.565736
-0.151072
0.548074
-0.446736
-0.101338
-0.101114
0.378843
-0.27773
-0.0717098
-0.244085
0.315795
0.459315
0.027335
-0.506081
0.360766
0.145315
-0.239771
-0.128133
0.101684
0.0122568
-0.0803154
0.0680587
0.2271
-0.323994
-0.0299733
-0.152378
0.182351
-0.157983
-0.0255894
0.183573
-0.554031
0.414604
0.139427
-0.186432
0.183756
0.260753
0.0215343
0.556477
-0.176911
-0.379566
-0.00657479
-0.178275
0.18485
0.179861
0.449169
-0.0107463
0.0471821
0.148421
-0.114855
-0.593709
0.169156
0.424554
0.150862
0.404969
0.233304
0.231118
-0.532054
0.369383
-0.469873
0.114178
0.0085538
-0.40012
0.560514
-0.160394
-0.051109
0.364431
-0.494064
-0.176566
0.523577
-0.347011
-0.412643
0.133742
0.278901
0.104325
0.333346
-0.437671
-0.0763137
-0.37672
-0.122958
0.156966
-0.557086
0.408848
-0.0831569
0.302145
0.0200235
-0.322169
0.00330936
-0.559267
0.414297
0.14497
0.172973
0.219478
-0.663255
0.443777
-0.352408
-0.117465
-0.0235941
0.0261712
0.484794
-0.16076
-0.149167
0.289209
-0.00239697
0.12635
-0.0297565
0.655885
-0.436406
-0.462346
0.280608
0.181738
0.0967112
-0.0895465
0.561154
-0.410762
-0.150392
0.0884175
0.30503
-0.393447
0.119442
0.0780582
-0.162531
-0.30559
0.468121
-0.089744
0.098012
0.289842
-0.34899
0.0591475
-0.0252513
-0.0115165
0.288863
0.0974818
0.125854
0.0327329
-0.158587
-0.350733
-0.459323
-0.116817
0.576139
-0.633025
0.469689
-0.098249
0.537381
0.653657
-0.155745
0.0462464
-0.0577164
-0.0880261
0.328974
-0.240948
-0.611443
0.236851
0.374592
0.293665
-0.445456
0.151791
0.15787
0.126482
0.421592
-0.110796
0.306007
-0.0691986
0.0113309
-0.206003
0.172046
-0.117005
-0.0044914
0.121497
0.111672
0.232224
-0.0380315
-0.00786826
0.0306235
-0.0227553
-0.380932
0.116992
0.26394
-0.11936
-0.248478
0.413519
-0.165041
-0.0218592
0.0042522
0.017607
-0.454443
0.202332
0.115056
-0.317387
-0.22031
-0.442946
-0.202083
-0.355472
0.557555
-0.630105
0.409796
0.603197
-0.178408
-0.424789
0.566994
-0.440928
-0.126066
0.12654
0.296489
-0.423029
-0.172428
-0.0314419
0.20387
0.54139
-0.142166
0.245742
-0.333768
-0.0126779
-0.114339
0.127017
-0.00841813
0.036926
-0.0285078
-0.0593738
-0.00742994
0.126631
-0.129028
-0.222936
-0.422159
-0.210865
0.477101
-0.33832
-0.138781
-0.00978951
-0.0846601
0.285113
0.186806
0.0139451
0.142735
-0.418441
0.275706
0.14585
-0.00794274
0.51134
-0.503398
-0.30381
0.415752
-0.111941
-0.284406
0.427141
-0.420794
-0.177136
-0.37226
-0.134044
0.506303
-0.149064
0.160893
-0.242931
-0.368513
0.0187933
-0.0306357
0.0118425
0.487523
-0.374194
0.526572
-0.152378
-0.0285195
0.0490858
-0.421171
0.172693
-0.280039
-0.309001
-0.0965625
0.513651
-0.00398412
0.035966
-0.0470123
0.188252
-0.203914
0.581117
-0.377204
-0.115946
-0.468255
-0.151979
0.620234
0.538181
-0.0195673
0.0766112
-0.0570439
0.121495
-0.0150157
-0.14941
0.164426
0.185406
-0.334573
-0.35734
0.314488
-0.201941
0.590212
-0.447407
-0.142805
-0.0674754
-0.169903
0.311471
-0.438213
0.0649851
-0.231036
0.02659
-0.0315394
0.292526
-0.435735
0.14321
-0.433126
0.332661
0.376154
-0.287737
-0.510918
0.35449
0.156428
-0.141701
0.00557915
-0.106928
0.101349
0.0262666
0.138643
0.224848
-0.0364241
-0.0298865
0.0245755
0.0328007
-0.0140074
-0.128623
0.440094
-0.0999587
0.105538
-0.420003
-0.151183
0.00445187
0.0222994
-0.0267513
-0.453883
-0.123752
0.104264
-0.00341219
-0.100852
-0.137474
0.00948033
-0.207699
-0.286049
0.306487
-0.0204376
-0.162031
0.103007
0.059024
0.0149562
-0.0794196
0.0644634
-0.644798
0.229153
0.415645
0.29079
-0.402058
-0.450244
-0.30919
-0.196891
0.16746
0.383173
-0.101471
-0.0759344
0.365777
-0.136066
-0.0401154
0.176182
-0.0213812
-0.00076287
0.0221441
0.136329
0.19369
-0.0272089
0.00427908
0.523392
0.0962096
-0.176792
0.464835
-0.288043
-0.376251
0.0409764
-0.0481297
0.00715327
0.218881
-0.290591
0.019875
0.569067
-0.137455
0.16063
-0.259623
-0.139275
0.398898
-0.403253
0.276661
0.109675
0.0556025
0.183829
-0.239431
0.301493
-0.402607
-0.098259
-0.426855
-0.217943
0.410843
0.155544
-0.566387
-0.197509
-0.128972
0.421497
-0.0232612
0.00265185
0.0206093
-0.329061
0.116863
-0.103487
0.330588
-0.4307
0.56289
-0.13219
0.0267735
-0.402738
0.64756
0.152406
-0.292135
0.0807243
-0.193839
-0.117804
0.311643
0.217603
-0.0321974
0.443673
0.212212
0.0693891
0.47342
-0.344197
-0.487376
0.1382
0.349176
0.0144574
-0.12888
0.114423
-0.438641
-0.00796843
0.563895
-0.264723
-0.101672
-0.0290915
0.130763
0.0824068
-0.100017
-0.0170761
-0.104085
-0.136477
0.016391
0.120086
-0.179795
-0.341035
0.115379
-0.110974
0.0374035
0.00688559
-0.0442891
0.528771
0.0903441
-0.0989938
0.248236
-0.425028
-0.0121207
0.166882
0.137647
0.016173
0.44879
-0.250246
-0.06347
0.227715
-0.164245
-0.404074
-0.183105
0.240017
-0.176536
-0.0634811
-0.193759
-0.250546
-0.0927256
-0.055377
0.0547331
-0.156129
-0.0221239
0.178253
0.0368537
-0.170589
-0.0783875
0.0878735
-0.00948597
0.0868913
-0.00950523
0.107112
-0.0976065
-0.220095
-0.410236
0.106426
0.362128
0.10045
-0.462579
0.562537
-0.151694
-0.593201
0.449308
0.143893
-0.402569
0.544289
-0.14172
-0.221064
-0.0653069
0.0802631
-0.594974
0.432409
0.162564
0.0800574
0.248916
-0.148839
-0.254551
-0.118001
-0.228519
0.346519
0.17589
-0.0226679
-0.136023
0.0390083
0.0970146
-0.301787
0.111284
-0.547867
-0.19989
0.185151
0.0549407
-0.48564
-0.302883
0.259858
0.0257011
-0.0335694
-0.103559
-0.22113
0.324689
0.148669
0.313914
-0.462583
0.185453
-0.0581945
-0.431361
0.327011
-0.246953
0.0438316
-0.00642804
-0.0188093
0.388921
-0.0964933
-0.292427
0.183272
-0.166046
-0.0172265
0.310958
-0.0868246
-0.224133
-0.0200521
0.00420205
-0.0125176
0.188399
-0.235337
0.154092
-0.00848359
0.0841369
0.540781
-0.0646144
-0.101612
-0.0308159
-0.0938692
-0.465346
0.269925
-0.326283
0.190883
0.1354
0.520692
-0.0061161
-0.0890204
-0.011752
0.519906
-0.508154
0.239188
-0.357188
-0.344366
0.0567069
0.274752
-0.146969
0.164069
-0.0170996
0.588068
-0.179611
-0.408457
0.11514
-0.0518481
0.253059
0.0529484
0.112188
0.00821765
0.145085
-0.444759
0.126376
0.318383
0.00635166
0.237274
0.125132
-0.362406
-0.0796017
0.318026
-0.238424
-0.497842
0.322671
0.175171
0.00466202
0.0201063
-0.0247683
-0.0129733
0.14962
-0.0320899
0.195943
-0.264019
0.0680763
0.0366716
-0.00783781
0.149788
0.0252963
-0.166887
-0.287536
-0.184416
0.178479
-0.0225002
0.388029
-0.576707
0.403121
-0.298797
-0.14938
-0.0179938
0.167374
-0.230094
-0.184186
-0.185592
-0.0735694
-0.196686
0.252289
-0.311387
0.117547
-0.120407
0.134864
-0.0348683
0.160722
-0.471259
0.141501
-0.14416
0.170972
-0.026812
-0.123234
-0.234106
0.299598
0.111226
-0.353234
0.489002
-0.135768
0.180187
0.405243
0.0807965
-0.0638361
-0.0169605
0.105456
-0.0955705
0.58072
-0.435002
-0.145719
0.155291
-0.620222
0.189911
0.430311
0.156696
-0.449346
0.0165927
0.356488
-0.432423
-0.160443
-0.338132
0.498576
0.0245947
0.496097
-0.277614
0.0346232
-0.498525
0.463902
0.321472
-0.0765638
0.0638465
0.01695
0.115411
0.168502
-0.226581
0.0580783
0.412067
0.15047
-0.424079
-0.000205331
0.126836
-0.00816165
0.0491381
0.0119934
0.0246782
-0.126729
-0.498679
0.547843
0.339576
-0.500019
-0.0914981
0.33724
0.0407867
-0.431409
-0.162301
0.017907
-0.0648315
0.00890618
0.128316
-0.137222
-0.0928319
0.253228
-0.598044
0.182501
0.415542
0.297657
-0.0993816
-0.0109644
0.454546
-0.392932
-0.0616142
-0.178197
0.194595
-0.0163982
-0.408133
0.558646
-0.424015
-0.134631
-0.364553
0.221201
0.00485753
0.0346598
-0.0395173
-0.181199
0.15109
-0.143122
0.555189
-0.135772
0.162334
-0.0265624
-0.405086
-0.0162662
0.161792
-0.463477
0.212049
0.400218
0.165457
-0.565674
-0.0848108
-0.421368
0.0782033
0.376343
0.274238
0.114683
-0.101619
-0.0137373
0.115356
-0.183494
0.241627
-0.0581334
-0.0916022
-0.206359
0.48718
0.00548763
0.123866
0.431237
0.114647
-0.542592
0.245047
-0.207735
0.0353074
0.168333
0.00673147
-0.175064
0.0159411
-0.0181609
-0.212833
0.191816
-0.198391
-0.146088
0.161033
-0.0149454
-0.0218382
0.171626
0.161743
0.404745
0.167003
0.0848906
0.135517
-0.0230061
-0.0870797
0.0687102
0.0183695
0.0298053
0.00973767
-0.115812
0.36142
-0.245609
0.282281
-0.497856
0.215576
-0.0171972
-0.627156
0.289023
-0.51471
0.111972
0.1947
0.0796484
-0.274348
0.0189686
-0.350994
0.129368
0.221626
-0.427195
0.0738473
0.019296
-0.0931433
0.206653
-0.154612
0.0947555
-0.35423
0.259474
-0.183273
0.414391
-0.0260502
0.156256
-0.130206
0.0734684
-0.0821881
0.00871977
-0.0232044
-0.00400447
0.360408
-0.489476
0.102801
-0.427943
0.325142
-0.124147
0.456689
0.113181
-0.494513
-0.0203164
-0.145329
0.180323
-0.0349946
0.194577
0.294059
-0.267627
0.0846664
0.18296
-0.198685
0.156243
0.0424423
-0.315009
0.223407
0.0631693
-0.0752287
0.130469
0.362707
-0.493176
-0.120407
0.381659
-0.261252
-0.131244
-0.180143
-0.224791
0.507072
-0.0157885
-0.0712912
0.112596
-0.474006
0.361409
0.558028
-0.18665
0.0505837
0.109228
-0.123831
0.0146037
-0.125339
0.178527
-0.0531879
-0.0125731
0.086677
-0.0741039
-0.157295
-0.274161
0.431456
0.105594
0.0824952
-0.18809
-0.356473
0.52921
0.0603788
0.315775
-0.529075
0.521132
-0.190766
0.360008
0.0773172
-0.0931058
0.0351635
0.321325
0.138471
-0.175007
0.451556
-0.0894279
-0.576815
0.41645
0.160365
0.136666
-0.444427
-0.14076
0.585187
-0.161125
-0.00527258
0.0235562
0.444442
-0.593096
0.148654
0.346895
0.111129
-0.123807
-0.540827
-0.119974
-0.0883268
-0.110358
-0.0711776
0.176772
0.289495
0.114823
-0.404318
-0.504507
-0.153735
-0.370486
0.52422
0.415375
0.143271
-0.544266
0.416492
0.127774
-0.239647
-0.135669
0.48764
-0.351971
0.325438
0.216861
0.0425926
-0.510847
-0.410392
-0.111843
0.522235
-0.0749163
0.292497
-0.217581
-0.182068
0.00538876
0.0477855
0.0139074
-0.160877
0.139138
-0.35774
0.527914
-0.170174
0.552695
-0.447969
-0.104727
0.147542
0.0165272
-0.560234
0.161729
0.398506
0.0973737
-0.29967
-0.273576
-0.257098
-0.312701
-0.396628
0.170307
-0.367591
0.2562
0.111391
-0.0845422
0.0541971
0.442407
0.145661
0.588111
-0.143669
0.24801
-0.05956
-0.18845
-0.607369
0.174491
0.432879
0.625117
-0.189949
-0.435168
-0.0326752
0.313844
0.101907
-0.324045
0.0294017
-0.174731
-0.165647
-0.00311463
0.183116
-0.0589319
0.224495
0.180143
-0.150742
-0.160533
-0.399701
-0.461984
0.529008
-0.0670237
-0.0739056