/*--------------------------------*- C++ -*----------------------------------*\
| =========                 |                                                 |
| \\      /  F ield         | OpenFOAM: The Open Source CFD Toolbox           |
|  \\    /   O peration     | Version:  v2012                                 |
|   \\  /    A nd           | Website:  www.openfoam.com                      |
|    \\/     M anipulation  |                                                 |
\*---------------------------------------------------------------------------*/
FoamFile
{
    version     2.0;
    format      ascii;
    class       volScalarField;
    location    "250";
    object      ReThetat;
}
// * * * * * * * * * * * * * * * * * * * * * * * * * * * * * * * * * * * * * //

dimensions      [0 0 0 0 0 0 0];


internalField   nonuniform List<scalar> 
13917
(
44.3867
453.363
475.371
557.914
566.203
445.507
513.795
390.941
539.364
33.3772
642.703
567.399
559.246
69.836
502.08
44.1206
589.89
510.25
551.483
46.6665
560.813
594.255
521.761
593.589
542.399
561.869
276.486
33.119
548.819
620.033
33.1804
497.506
559.028
42.9697
600.626
223.777
565.784
561.007
517.399
446.169
587.897
604.119
554.683
518.463
532.355
807.147
562.06
33.6697
234.759
599.848
571.131
574.973
37.7966
576.448
574.714
574.808
33.8137
515.285
605.001
716.703
35.4124
477.031
602.431
543.373
66.5222
330.386
541.229
253.19
662.966
41.158
147.291
42.7031
583.875
606.343
556.139
541.138
588.626
607.05
544.918
558.289
575.192
589.198
583.781
182.63
597.91
61.6516
498.676
590.605
455.181
593.552
609.013
551.185
250.262
604.791
568.301
537.353
180.173
584.24
594.296
304.391
594.94
599.146
571.861
596.841
587.901
152.11
44.017
439.988
596.009
300.327
605.683
43.4278
545.775
32.7571
70.3862
543.773
553.474
608.379
514.985
591.659
592.561
607.469
515.424
573.697
37.5753
121.034
544.223
552.697
603.067
572.111
516.591
380.851
49.1641
543.542
498.406
249.302
39.1709
33.9216
559.155
560.614
92.6603
606.065
172.862
594.469
584.983
557.913
192.616
105.476
36.5186
573.715
476.407
601.668
586.899
593.23
175.379
579.948
601.826
45.5194
595.231
604.658
596.78
48.8744
568.566
86.4953
35.8454
314.626
37.732
30.5566
629.517
554.252
594.104
50.6494
542.587
40.7774
462.027
599.42
560.535
572.831
515.688
571.755
554.922
593.139
573.537
510.527
516.793
370.746
574.668
511.24
620.338
75.044
445.429
530.708
559.75
44.9457
604.613
38.1708
510.739
53.2605
601.371
585.065
566.361
41.741
33.9753
563.362
400.04
575.75
464.695
606.193
573.24
574.687
606.799
459.113
526.502
35.5266
497.152
557.642
49.5629
579.726
616.483
616.8
30.6238
565.195
689.836
599.958
597.615
304.182
38.3782
617.613
617.819
586.362
616.172
616.412
42.7698
36.9028
586.903
628.445
559.101
41.44
594.763
599.956
339.888
150.683
577.743
48.969
454.91
594.915
31.1867
563.615
553.338
562.756
563.881
37.5618
589.425
446.75
457.533
589.356
584.479
543.497
505.945
602.562
38.0182
68.8562
606.32
617.965
581.204
617.74
589.748
564.167
495.786
605.336
33.1831
43.8868
580.065
548.993
249.598
617.813
320.38
38.2517
617.666
41.1266
603.299
49.6914
595.929
528.714
589.585
597.698
546.324
577.059
318.958
495.148
69.0071
547.609
313.994
32.9917
602.414
515.043
519.802
547.412
553.113
544.753
604.224
583.364
572.507
161.481
449.629
546.725
599.51
47.8238
41.6836
604.187
761.294
542.617
132.895
441.637
44.908
43.0492
480.048
371.95
543.958
318.925
103.906
472.364
566.836
509.951
298.723
592.462
448.836
539.595
590.715
51.8283
596.764
504.795
614.598
46.6096
606.88
454.888
574.995
470.935
596.072
555.246
261.358
566.047
591.351
44.037
232.637
51.8857
64.2949
618.215
582.778
133.544
379.91
617.947
537.657
573.84
493.441
452.778
571.887
403.206
319.165
504.963
44.0532
602.737
567.251
539.312
528.812
591.667
44.6783
506.354
111.311
572.43
398.899
783.655
273.61
605.026
656.96
323.141
572.487
579.049
494.431
614.955
34.3663
555.338
606.932
267.562
590.567
135.079
610.715
46.3995
134.209
559.686
253.925
350.742
565.105
43.8235
406.55
558.853
544.676
581.561
342.11
495.851
595.344
529.791
547.089
598.165
602.532
601.958
37.1596
324.868
570.251
601.547
592.753
525.63
406.837
616.681
629.352
452.547
393.316
596.892
560.643
53.2806
45.5703
341.019
546.559
629.874
610.938
617.26
573.154
602.578
616.361
587.617
616.689
611.502
31.6526
579.465
435.998
33.5627
496.347
606.676
587.854
44.8039
567.41
37.1898
615.605
592.137
614.45
615.853
567.924
590.52
55.782
674.783
123.335
589.358
516.57
671.501
576.546
475.432
51.747
574.285
45.3503
606.253
596.902
593.527
589.917
607.636
582.6
46.8831
36.892
607.772
366.472
472.936
589.838
502.928
465.183
41.5337
529.865
143.776
121.274
120.442
589.99
367.676
529.134
564.04
73.0591
609.11
577.151
566.701
536.057
546.482
526.005
525.591
600.217
532.729
546.067
404.701
568.484
74.8174
500.742
495.067
35.0373
597.181
398.385
581.926
606.511
39.4827
597.723
615.854
539.407
615.31
581.88
543.897
42.5602
167.537
596.651
559.593
578.611
80.3565
96.5438
573.092
574.155
596.812
465.71
146.462
602.458
595.083
584.604
598.332
553.379
501.751
604.804
530.152
606.243
593.488
549.898
45.263
617.175
542.068
602.329
517.254
563.911
486.322
467.105
299.458
548.776
519.551
56.8863
32.867
33.8996
605.114
594.341
534.538
585.69
69.5433
617.218
86.1854
511.856
71.2734
308.896
554.357
42.915
608.126
489.317
589.409
596.732
63.954
615.934
443.288
596.243
584.211
594.069
526.343
548.278
617.953
497.146
498.738
94.5008
342.515
49.0252
40.0684
616.83
39.4251
612.872
38.6813
106.779
596.369
828.073
596.684
501.954
555.389
615.736
587.693
561.11
663.74
592.447
496.584
578.002
618.181
598.17
639.15
61.1985
45.6452
559.778
504.009
576.758
41.2617
610.204
59.5184
569.43
450.421
585.701
571.821
598.479
538.937
584.042
105.083
499.756
58.7279
604.212
500.575
598.603
592.155
44.3054
264.728
594.696
568.992
599.744
585.401
596.503
44.4602
593.066
505.074
617.393
596.553
532.686
599.037
567.015
587.666
606.451
35.7427
497.591
576.158
32.7758
439.945
347.375
573.424
608.347
488.419
45.1857
405.819
573.059
562.548
511.379
590.047
600.973
610.977
570.192
526.01
32.7499
499.773
339.204
82.3563
234.242
470.394
559.651
41.3963
604.093
427.18
495.401
605.974
600.468
596.957
580.302
577.719
39.6958
518.322
601.242
534.937
605.743
45.2292
603.359
603.147
40.6023
545.857
114.112
576.853
607.361
603.355
569.053
522.516
598.807
35.6888
485.374
90.5299
114.29
450.971
49.1178
558.591
585.032
597.681
38.7301
226.754
512.363
36.9855
154.597
606.723
603.795
566.961
180.819
106.094
497.583
569.95
540.536
449.166
557.338
571.361
515.887
571.054
553.558
589.999
517.934
522.179
396.371
552.294
521.031
36.2763
593.038
120.754
558.558
490.173
520.401
414.861
593.104
484.341
66.984
118.242
585.455
547.698
571.674
590.874
583.851
529.516
718.714
535.253
567.895
609.076
383.06
539.456
535.958
564.783
583.209
482.011
248.702
617.947
543.853
432.139
515.491
604.267
606.892
600.973
41.2992
556.904
602.692
507.396
597.704
606.112
574.294
291.313
496.311
47.0215
507.587
116.985
590.188
587.359
538.213
590.26
351.411
595.321
600.289
575.689
558.858
467.666
603.954
212.84
589.291
121.706
557.271
532.139
614.878
565.124
518.843
48.6844
467.955
588.236
45.1068
553.801
38.2452
558.144
162.073
574.164
606.742
586.54
52.3611
516.485
368.133
44.9765
592.142
513.957
628.719
568.403
123.089
628.28
32.0664
544.903
163.439
557.737
302.639
615.662
600.613
400.505
608.662
578.159
558.884
594.481
506.146
615.899
115.311
571.087
43.636
37.6446
100.009
114.136
49.3144
43.6147
158.098
608.078
580.829
580.569
557.156
596.847
514.955
592.584
339.597
577.43
625.369
560.73
524.226
392.406
604.598
440.411
552.509
598.228
519.979
614.876
48.5369
571.684
288.22
603.827
602.762
593.908
586.706
36.1451
607.749
340.841
598.519
117.743
533.407
594.941
488.511
462.945
607.632
112.616
63.7984
559.83
559.777
609.949
275.71
614.377
586.14
44.1589
596.469
558.447
545.451
43.9689
618.981
177.406
541.49
599.97
591.106
594.297
755.988
600.87
492.25
573.25
39.9544
523.845
75.5278
601.408
618.569
130.444
573.248
596.398
63.3215
564.569
602.979
86.4972
604.067
580.153
569.021
558.801
65.6017
445.492
469.427
591.637
541.77
41.4448
568.301
562.347
595.505
35.3374
117.186
578.285
610.907
599.939
571.037
608.604
609.226
605.243
588.439
498.093
618.165
564.802
513.371
36.0879
47.1701
544.399
594.435
128.297
594.266
536.526
142.583
32.7795
616.401
608.075
591.424
583.045
616.718
613.88
589.82
469.603
602.415
46.4086
99.3963
603.711
55.6865
595.477
601.361
453.987
44.8208
392.613
601.683
110.979
602.517
602.139
378.675
581.116
67.4762
552.396
90.4584
606.408
606.47
563.535
328.358
551.802
41.5222
441.633
573.892
590.62
600.919
607.377
475.635
516.387
527.359
39.209
45.8473
329.431
472.104
606.347
36.7573
607.384
49.7881
462.201
528.986
551.358
65.9302
154.672
446.314
590.471
136.298
609.815
591.947
513.919
572.45
572.769
388.247
42.8048
606.636
537.843
40.9163
600.303
617.873
79.5502
45.6603
559.736
610.563
520.917
586.623
602.513
533.698
556.212
581.988
88.1023
588.417
294.802
141.534
466.185
36.4653
575.784
561.446
267.395
44.58
145.362
857.669
569.092
580.99
559.231
613.272
47.4575
510.963
587.864
518.612
598.39
119.423
567.569
472.134
482.681
481.592
104.609
58.5914
45.3808
561.189
526.51
617.543
458.194
543.546
111.464
529.21
597.771
519.2
274.275
565.484
41.0575
492.457
440.928
45.3777
603.568
454.181
558.078
581.806
502.438
331.919
616.72
610.687
553.147
299.53
603.933
564.549
556.73
567.497
580.246
399.378
472.179
589.752
604.551
206.257
395.719
461.091
43.0112
571.639
597.662
134.239
602.768
565.676
46.6549
36.3375
560.634
444.427
578.387
36.5889
327.069
545.494
245.086
603.064
572.396
38.5107
499.807
125.534
246.202
611.854
592.918
560.087
577.681
593.592
390.813
597.49
494.574
614.461
483.856
43.5007
560.58
72.5427
44.5071
596.02
463.848
545.734
560.809
587.929
35.5899
561.795
42.617
518.847
31.1043
422.999
615.377
92.294
495.916
833.03
594.926
527.005
588.283
554.213
560.069
550.932
579.927
519.386
84.6679
596.642
418.466
90.1978
578.706
595.601
592.954
493.119
599.468
607.999
527.492
620.282
243.818
33.0943
573.688
604.884
611.978
600.883
550.85
565.823
453.939
583.619
536.51
362.704
584.928
552.27
46.1311
31.7356
577.184
595.121
605.542
565.916
470.501
52.8749
261.8
394.367
571.266
516.423
556.172
453.932
561.755
508.337
604.165
382.412
423.78
609.676
579.676
45.1869
524.921
418.317
34.471
478.344
603.188
383.817
566.351
596.024
54.8512
86.425
604.294
561.466
562.654
487.572
560.188
616.151
595.305
607.031
589.572
499.896
415.404
35.8562
480.826
522.722
522.368
418.171
605.01
555.244
682.882
413.892
43.1158
563.862
616.448
35.2033
601.65
153.703
548.029
432.953
569.49
601.888
407.11
515.402
564.247
603.286
68.5058
477.292
40.7299
590.313
591.883
273.272
603.1
610.735
374.87
100.203
520.179
505.488
560.231
456.582
594.499
580.847
581.58
616.439
415.453
593.561
607.4
439.658
494.272
82.5714
461.837
596.337
514.906
605.93
603.992
590.303
582.798
575.04
417.557
574.753
539.546
505.046
837.252
586.767
601.331
602.825
34.4098
617.197
368.221
514.129
576.57
516.087
509.902
516.116
580.13
542.719
604.893
609.66
114.801
474.698
529.426
599.497
601.4
605.754
518.128
596.392
48.1954
503.31
605.567
598.003
612.317
488.824
398.329
83.7149
349.052
126.671
723.839
439.559
552.974
55.2072
614.645
617.77
529.732
298.195
611.782
44.1822
583.662
598.872
377.212
533.019
36.2609
222.933
520.686
368.549
385.726
609.175
54.3324
595.534
599.451
135.747
613.582
45.6442
245.134
599.05
587.008
609.394
52.8925
589.692
616.273
507.105
595.693
606.416
581.148
610.458
511.312
575.826
565.643
609.456
288.439
359.232
608.736
608.495
560.153
597.723
541.806
588.898
603.62
576.053
592.988
565.555
580.671
502.737
612.351
566.526
593.915
467.04
608.595
576.741
598.3
616.908
484.595
530.238
541.361
74.2138
523.42
44.4516
46.5671
550.772
101.453
592.518
581.589
260.768
53.507
603.69
40.2104
610.7
448.532
176.425
540.167
570.827
156.515
78.4918
602.517
510.839
603.151
128.603
539.385
47.2697
46.3492
572.41
365.885
300.512
588.512
85.532
122.943
558.488
601.145
220.029
37.5121
609.798
521.611
579.27
275.03
502.493
578.993
607.988
512.39
604.364
596.792
559.854
610.44
122.972
519.101
516.293
37.3455
590.677
488.988
583.67
285.663
457.463
140.221
609.152
522.732
606.226
595.882
553.068
580.661
72.8557
562.126
609.647
595.621
138.211
600.326
94.6279
61.872
94.7098
594.147
606.793
593.343
147.709
577.722
241.587
598.124
92.2696
562.36
598.382
425.597
580.106
593.949
37.6415
559.237
44.6632
601.083
75.9634
45.2742
584.966
40.4704
581.902
541.835
31.5248
553.794
571.461
43.6068
579.062
553.26
589.866
529.338
594.267
97.1434
593.812
41.703
594.958
601.091
569.709
133.804
605.962
525.104
389.6
110.071
590.284
572.43
56.1064
405.225
195.9
526.535
608.584
570.482
78.5549
557.813
431.99
618.019
563.947
42.4757
605.407
33.5396
598.194
88.9635
221.889
549.002
589.998
104.387
100.929
602.297
549.839
610.264
581.538
105.937
445.423
392.198
596.408
505.111
46.048
603.618
224.801
443.902
598.176
595.556
453.379
56.0901
100.14
182.206
410.877
482.694
351.335
60.3632
39.1242
129.128
601.159
571.296
480.438
429.184
582.326
541.306
439.817
318.517
112.432
597.578
58.1453
37.9751
556.461
598.073
597.045
328.121
606.099
46.0261
501.476
563.529
454.497
189.444
609.207
492.522
519.588
578.84
58.4787
522.741
50.2842
606.017
41.9864
454.936
460.053
616.807
531.146
578.91
70.7114
436.971
521.709
101.726
113.926
627.72
523.288
599.611
562.847
37.7778
608.61
610.094
553.081
361.03
59.5234
605.421
414.668
393.607
602.411
281.541
563.896
51.4643
532.282
121.391
203.899
516.687
558.946
446.479
595.786
549.957
44.5543
554.945
351.694
524.697
502.364
58.806
77.7941
588.317
215.451
100.004
613.481
464.121
554.626
394.532
82.1465
297.458
199.157
571
43.0028
515.485
483.918
612.346
579.647
576.652
604.839
413.815
285.099
616.554
463.497
455.027
595.946
109.369
60.7435
621.013
577.699
608.486
566.565
510.569
593.837
30.8651
517.027
535.795
539.408
427.058
334.161
477.806
58.721
578.687
565.133
617.313
606.656
60.2074
454.771
575.204
32.0108
594.746
576.304
578.433
610.177
605.439
372.579
522.411
43.5369
82.7049
41.6556
595.546
50.0106
590.564
390.43
609.888
539.32
65.3278
595.594
465.526
40.3891
566.732
582.102
607.182
535.802
54.7869
610.974
573.287
581.334
558.209
426.81
581.985
517.227
597.552
581.274
408.171
491.9
582.222
562.334
336.431
49.5949
98.9338
569.428
569.472
45.082
583.518
556.537
596.09
114.841
595.919
588.626
516.371
48.7865
597.127
609.135
614.84
425.826
46.4015
526.332
604.159
552.057
602.885
36.149
596.799
743.95
498.931
593.389
603.187
489.086
303.085
579.281
610.318
485.887
570.189
366.441
575.274
574.587
594.925
45.3226
590.698
585.554
79.2946
563.02
563.848
528.021
603.786
603.646
91.1729
558.276
137.406
128.813
621.85
45.3858
569.267
572.504
430.765
582.394
616.322
622.287
593.888
359.258
506.544
33.8489
43.8214
604.451
620.822
477.937
577.675
589.488
125.189
72.2906
175.584
603.075
544.618
563.771
219.312
60.1103
576.056
602.883
515.666
30.5588
577.458
545.885
562.301
447.465
569.841
614.24
44.8825
509.175
597.92
62.5478
506.967
45.4775
136.841
561.301
534.566
583.315
577.609
571.272
491.891
501.515
603.752
531.139
453.607
74.9836
611.197
427.887
54.0417
80.022
602.977
578.332
121.445
514.055
365.474
598.888
51.1719
491.215
620.558
36.4452
524.886
583.917
593.066
594.329
445.879
607.392
623.924
592.893
615.053
66.4329
617.393
598.71
570.095
543.056
554.088
541.192
580.293
603.632
559.569
563.84
123.163
123.306
463.35
193.28
454.173
103.905
519.272
47.859
63.4539
61.0215
606.275
576.235
589.502
585.301
606.018
589.493
420.213
497.104
554.134
596.541
595.709
486.685
571.088
574.712
581.818
34.9714
489.053
42.0822
595.832
118.213
574.457
587.903
592.203
512.5
599.345
574.349
43.9641
484.332
35.8931
99.017
569.437
506.151
111.038
510.234
615.239
606.622
621.905
44.5319
624.277
372.003
378.828
569.68
61.387
58.0612
519.42
56.3055
610.333
616.02
346.583
391.655
582.913
589.526
161.056
602.286
517.215
573.91
601.259
564.444
584.413
537.08
45.1493
43.2994
528.213
598.257
370.565
554.602
422.547
605.207
483.026
476.628
574.674
585.712
621.004
384.692
425.623
422.271
109.504
495.247
267.179
500.956
449.205
95.156
590.095
43.9613
561.203
34.373
417.177
43.0635
86.0998
588.181
453.451
547.25
594.655
43.1231
581.82
581.992
539.899
560.715
519.343
375.232
485.208
32.6009
518.779
512.813
563.31
594.423
585.029
463.341
527.407
54.3855
437.068
615.877
609.613
592.924
410.899
561.037
592.571
530.873
336.716
519.671
565.136
441.562
45.1392
499.608
518.406
589.559
537.71
373.639
197.107
527.985
610.175
59.4953
497.749
599.717
522.333
45.1124
117.786
561.013
603.155
39.7091
573.29
601.841
615.224
126.438
415.9
571.194
76.2941
87.0465
554.631
436.343
450.11
49.2025
493.029
60.7108
573.598
211.07
503.514
68.6063
506.825
607.869
45.0743
596.193
565.163
50.8117
275.761
336.29
337.003
543.183
553.208
594.927
599.275
595.125
590.676
478.455
589.581
496.978
552.883
130.193
570.031
563.73
41.9352
557.255
43.1966
37.0462
587.707
573.166
532.085
172.153
421.033
535.151
44.5113
42.5788
68.9813
579.975
371.014
45.0728
850.022
637.551
580.509
596.493
595.814
567.414
595.818
517.975
42.2546
478.072
133.147
34.7185
448.118
45.9115
50.86
544.038
58.5859
573.813
500.528
610.828
593.905
538.131
36.8145
584.348
52.3328
47.8297
605.888
580.471
601.894
369.401
572.077
555.825
44.6253
611.669
603.951
606.111
560.449
482.299
43.4987
567.056
302.795
455.937
594.482
123.221
385.403
594.162
439.082
581.649
57.3553
161.349
39.6755
595.78
610.982
42.4909
491.059
254.253
606.06
565.261
552.592
550.098
112.811
519.212
572.793
508.402
108.599
40.9375
587.714
635.822
43.6322
51.3477
579.894
540.132
574.83
593.306
599.04
70.4246
596.139
398.384
121.308
103.236
599.847
368.288
546.852
601.023
619.434
64.7134
89.7088
591.591
464.779
561.196
417.312
52.7718
90.4446
525.378
126.675
108.942
471.768
597.309
456.443
615.666
617.548
43.0035
492.962
534.553
532.673
559.519
606.121
614.806
564.621
555.266
63.6982
535.932
141.08
34.2794
435.411
567.229
54.0215
73.4635
61.4915
613.42
530.111
470.544
531.055
529.269
116.129
563.619
191.359
38.1276
531.479
514.433
569.875
502.875
489.444
548.608
482.882
476.903
467.964
465.413
478.797
571.537
541.237
599.074
509.524
525.002
598.227
498.868
54.9964
487.371
46.4893
619.941
610.223
199.506
100.564
559.008
561.17
476.798
32.7347
108.685
580.829
542.197
523.011
41.1675
108.09
547.186
525.739
41.4661
553.777
57.0008
573.327
124.71
54.8702
629.482
63.5392
38.5935
564.31
432.8
430.009
540.199
607.445
189.832
118.829
608.467
607.862
59.1867
459.941
434.014
573.914
456.625
568.854
46.5999
34.5995
582.399
597.029
558.944
572.477
66.1246
256.861
53.6002
522.199
429.327
135.721
572.569
602.215
40.4054
606.662
61.6124
602.218
54.6208
549.255
569.115
132.462
593.053
541.649
102.714
569.236
554.418
550.34
424.539
41.9473
438.159
44.1784
554.573
578.339
518.868
426.649
56.5913
33.0995
412.316
469.254
535.049
240.504
599.048
607.224
611.445
610.496
481.617
455.54
122.036
482.107
519.31
599.2
112.625
50.3211
41.8772
603.564
548.735
623.647
42.546
896.781
144.798
481.83
541.734
438.162
621.453
515.805
470.906
471.759
459.035
588.912
533.727
578.74
598.357
350.364
120.349
243.202
584.439
412.364
335.31
46.6898
38.7715
74.3976
97.9936
604.352
500.222
597.92
523.276
603.688
419.589
574.774
496.477
124.726
105.365
561.326
312.564
39.2175
442.608
564.779
46.2153
447.2
583.731
596.295
107.415
503.074
421.466
478.253
122.436
43.4251
569.206
73.7315
44.4164
223.239
292.732
501.414
547.026
557.515
81.6864
353.319
562.183
664.65
406.27
655.977
555.187
31.9843
463.71
633.15
537.053
58.7235
551.326
43.8193
508.295
709.687
35.8213
600.724
623.978
40.9967
66.1161
442.896
561.715
479.18
486.965
96.5161
407.389
37.9669
532.259
36.7381
438.588
252.803
561.75
748.39
34.168
555.462
481.187
620.581
530.736
580.398
126.595
594.735
587.153
56.3035
475.304
611.527
60.4539
557.997
594.06
590.634
606.717
576.784
430.555
50.194
611.883
57.2545
527.613
504.689
563.795
514.831
533.465
515.481
597.769
127.532
537.821
58.9468
552.382
161.729
564.136
536.798
470.256
35.5542
607.175
39.3432
490.387
558.209
660.54
597.842
404.104
415.498
582.928
157.638
603.021
92.5482
476.288
61.3837
422.893
429.751
57.6668
576.338
603.733
512.482
557.413
573.626
573.044
536.24
600.216
594.842
559.007
525.739
551.801
569.748
573.267
480.838
452.894
545.738
85.8042
547.276
591.533
506.071
505.599
575.244
601.227
53.7552
558.887
39.9416
554.769
572.356
593.547
596.634
320.36
51.6053
528.808
562.638
619.562
46.0064
580.144
594.83
525.243
541.691
563.824
39.8384
559.156
150.543
466.816
42.2456
591.319
576.89
432.147
123.03
512.993
553.312
37.1763
546.962
578.553
522.332
462.888
495.057
582.554
491.481
460.427
540.046
580.843
590.656
510.786
505.272
499.616
114.345
560.017
565.183
578.678
506.898
79.4831
574.867
563.829
315.407
525.258
189.521
585.085
594.469
595.01
60.0499
474.035
560.192
324.347
481.358
578.934
594.284
322.373
61.0243
512.353
38.5909
371.139
522.553
469.424
476.937
523.205
102.1
476.799
108.668
581.675
456.023
468.725
563.185
47.706
447.636
371.237
533.909
462.209
599.928
34.1742
548.621
607.159
606.466
609.209
561.606
560.262
607.182
549.262
577.243
564.816
125.12
520.45
562.078
527.568
530.724
719.558
615.451
516.135
548.862
674.909
584.575
591.586
422.318
519.144
577.907
579.66
487.891
554.717
419.683
524.268
596.082
42.8777
550.406
560.079
366.461
54.8208
584.817
483.372
608.547
533.21
600.122
561.763
592.663
591.395
461.275
528.333
36.1982
478.666
582.184
544.989
35.0065
518.266
422.126
546.472
586.775
449.197
80.5707
521.513
48.0287
533.269
35.0168
112.217
559.92
575.318
411.634
559.925
497.065
47.116
579.843
188.632
573.11
45.8417
429.888
553.54
542.766
43.0643
111.615
543.187
570.598
515.468
612.047
75.1168
614.078
567.986
596.943
542.413
41.9168
521.505
610.723
542.905
482.502
580.474
570.392
504.407
544.934
581.686
540.467
549.759
568.394
598.148
523.271
455.366
465.76
598.945
515.758
42.52
35.1264
617.108
578.194
544.928
558.093
567.403
600.774
593.866
607.283
536.457
524.045
553.126
531.737
546.931
615.194
562.397
504.401
473.221
443.218
560.62
551.148
39.405
567.699
547.734
37.0317
37.3621
455.042
567.809
444.214
597.589
188.729
538.859
33.2408
596.341
595.321
484.801
606.869
131.53
52.2246
563.561
46.0031
499.763
518.783
576.215
418.661
552.884
512.164
58.9847
605.661
549.88
39.8687
590.328
593.365
491.32
39.3154
561.62
561.693
50.1521
563.036
572.691
486.762
617.414
44.4229
538.804
565.525
380.007
494.299
84.2547
552.405
198.071
505.239
559.763
58.1476
579.265
508.051
452.967
559.532
127.322
565.556
560.599
44.0117
589.827
511.464
524.791
202.158
521.356
514.832
560.698
551.242
453.823
555.696
520.562
552.756
493.77
596.911
34.4573
513.527
615.063
561.786
595.126
609.05
617.469
582.328
580.836
493.826
540.867
436.037
618.819
615.973
576.342
572.877
607.925
504.256
432.585
579.186
493.87
594.157
559.979
533.418
565.08
530.999
549.66
45.7351
583.213
65.2692
540.823
463.094
362.868
584.29
499.747
519.053
39.8652
45.5744
533.429
571.631
552.96
528.085
516.429
593.736
181.231
481.918
603.344
540.461
417.02
438.858
534.153
527.909
373.192
534.84
112.74
570.436
487.469
553.262
589.807
482.588
575.247
597.571
412.237
600.027
578.131
581.57
563.942
580.455
597.676
588.384
576.972
512.606
581.886
596.064
592.604
560.707
413.134
46.0766
426.152
553.802
34.9846
583.505
595.883
170.272
505.64
581.234
570.196
575.687
471.297
582.254
535.432
568.911
569.933
34.74
600.766
553.984
552.601
537.254
430.977
610.855
573.121
390.699
51.3601
556.134
568.228
95.2672
575.85
609.104
54.5736
565.698
627.83
405.475
69.6184
594.526
609.759
559.869
571.487
576.532
594.731
563.297
530.875
573.798
579.655
531.394
61.0929
615.497
151.707
439.954
602.109
595.081
450.639
605.387
560.535
578.975
493.77
619.014
619.391
443.754
432.063
461.25
576.134
619.952
550.201
608.345
44.9466
567.152
559.808
562.503
436.984
518.006
546.181
560.024
516.351
580.021
594.977
541.7
561.128
235.806
595.33
525.902
571.315
580.949
470.965
571.448
45.3709
582.326
424.42
122.047
53.2016
54.9316
558.522
579.953
530.586
494.177
66.2341
576.175
522.564
507.523
522.196
618.485
512.339
496.066
207.549
561.197
576.286
409.207
260.508
620.244
528.501
517.805
622.033
562.499
516.327
606.698
583.568
574.032
534.823
534.612
459.772
556.976
611.354
571.714
356.214
624.352
607.868
571.16
562.969
520.22
45.6835
553.491
582.656
585.026
556.126
593.64
489.815
278.398
607.079
599.156
563.588
592.21
593.472
528.718
48.7924
576.979
575.549
565.616
590.638
433.482
543.995
71.1874
573.717
587.667
609.398
582.934
561.55
521.859
427.117
65.091
527.245
524.283
577.685
488.483
599.024
551.219
517.44
56.8929
61.6239
581.752
38.8421
65.065
508.512
47.6544
623.7
593.098
586.668
559.504
49.371
609.065
476.917
460.975
568.565
522.359
622.371
567.535
114.074
261.538
576
194.658
444.155
458.854
515.781
38.6429
554.396
143.464
411.603
615.047
435.182
574.883
547.933
119.236
522.989
606.908
585.139
209.144
574.324
401.899
590.962
624.808
585.955
519.875
583.254
550.993
521.311
582.447
623.915
585.485
118.962
408.217
364.032
496.861
526.41
515.999
536.442
583.301
560.652
572.884
549.034
539.238
616.045
520.929
65.6593
572.516
492.925
550.821
590.588
573.479
618.178
576.334
573.455
620.651
531.9
565.798
591.172
600.089
571.771
601.028
585.908
121.917
598.04
557.532
600.425
436.096
101.861
582.455
150.983
581.677
535.952
580.727
109.065
499.296
599.437
596.366
472.487
532.419
510.876
592.043
467.189
414.191
564.964
582.602
355.213
464.599
505.848
580.935
597.367
548.98
561.547
607.201
76.2427
554.878
534.103
612.069
502.629
615.842
482.336
586.645
495.364
605.715
523.538
609.751
201.15
620.996
63.9305
516.225
460.667
607.395
572.709
624.185
597.549
621.127
523.083
425.062
98.7161
593.03
363.927
108.238
580.884
479.716
581.492
494.046
609.709
604.765
597.579
376.19
418.871
595.294
512.053
541.96
77.3151
582.713
287.647
582.232
521.282
58.0489
570.922
624.35
574.472
52.3289
114.74
111.824
566.921
432.737
571.173
424.695
599.621
503.172
556.766
572.11
592.931
509.882
43.7104
594.556
481.603
595.386
570.139
492.326
564.566
523.566
607.922
570.315
527.18
473.217
615.815
607.464
599.02
409.257
62.5583
573.56
507.115
547.166
546.515
563.081
492.52
487.951
564.772
591.923
478.85
566.642
522.138
576.205
32.1295
611.797
561.773
495.717
578.258
517.848
507.328
593.292
623.485
569.297
567.981
393.639
51.0341
481.091
605.413
588.302
594.476
58.3152
573.732
524.479
507.801
47.6797
495.814
556.822
583.576
337.707
602.87
533.08
515.418
620.306
465.771
508.251
595.544
566.687
567.217
40.2814
579.821
603.352
575.783
42.6954
217.47
528.856
567.424
511.697
584.031
132.103
573.855
515.97
526.714
568.967
586.7
594.079
565.034
604.793
559.938
593.977
573.842
606.432
87.7353
555.171
565.547
434.222
594.923
54.8269
379.214
495.245
555.521
408.839
57.729
561.022
572.8
481.036
590.444
567.387
443.538
149.156
486.926
42.0202
114.271
75.5905
457.877
599.18
541.01
533.4
593.505
531.725
457.32
574.219
194.523
567.742
48.7239
518.059
554.44
570.671
570.964
484.803
608.597
581.764
472.051
567.089
619.299
523.066
592.247
556.423
605.925
567.03
449.453
489.362
591.939
118.565
512.208
618.575
48.7481
621.572
591.939
556.701
574.545
81.971
118.184
611.186
525.584
522.272
620.552
598.422
577.307
538.077
621.4
529.729
605.137
600.334
559.36
596.301
624.297
619.974
510.367
38.8737
584.043
78.69
567.69
100.723
499.313
138.169
521.826
68.4666
509.041
596.243
287.032
559.425
262.026
594.759
590.377
595.479
577.333
565.258
51.3755
49.2551
552.812
106.311
470.128
605.087
128.89
589.661
439.478
507.692
597.151
589.734
610.263
547.981
583.654
554.943
594.266
586.573
578.372
564.285
41.4806
549.579
593.092
604.254
576.398
583.672
439.014
536.354
544.696
545.705
134.256
595.904
49.0787
331.773
544.188
569.092
545.861
611.845
542.385
609.483
158.237
463.544
585.015
521.922
564.827
596.01
615.014
572.476
60.3491
558.161
575.268
576.523
530.742
581.004
596.249
592.108
542.954
293.85
594.707
193.427
579.293
544.871
603.394
518.582
605.689
598.966
594.319
522.511
598.374
585.391
545.287
551.476
78.1968
621.413
594.375
501.372
514.625
593.033
589.9
508.658
429.907
576.322
43.5516
586.124
540.855
495.104
594.741
547.473
576.506
42.0334
601.276
599.851
51.7124
575.307
589.188
427.627
614.709
601.822
519.764
593.146
526.77
36.1714
576.606
82.4494
542.939
574.318
448.528
437.236
497.431
600.028
536.377
169.67
59.1692
624.282
592.453
551.512
587.911
360.231
424.96
543.094
502.839
609.018
111.621
619.846
547.832
327.017
536.967
550.832
558.009
569.669
543.27
393.329
583.136
52.0081
502.773
75.2146
90.7027
411.868
98.5344
38.8212
467.697
40.9323
63.7594
48.1181
564.494
549.253
561.242
556.614
557.814
551.984
547.305
549.539
595.721
555.942
566.639
40.001
40.6433
49.9267
551.115
576.883
549.951
571.389
414.915
424.169
635.446
598.093
336.738
554.703
597.02
598.231
556.199
616.256
413.532
33.6738
514.48
596.2
33.4256
558.378
472.031
71.7196
457.093
599.972
531.678
579.329
601.937
207.215
594.803
621.944
245.508
604.059
524.96
510.831
447.606
68.4005
600.3
580.522
594.46
628.278
595.126
39.3536
574.179
425.865
130.683
593.369
525.227
595.065
588.984
519.506
595.285
619.016
596.382
498.844
596.852
523.737
623.947
596.895
504.356
478.05
597.574
521.032
38.6854
514.977
608.571
568.913
65.6386
38.024
420.645
440.733
410.98
621.653
425.051
609.367
478.826
520.813
609.754
579.901
637.65
505.862
43.2344
501.963
562.937
586.819
514.85
546.009
583.076
62.8006
528.346
551.334
552.821
412.548
144.83
598.02
609.685
598.702
556.427
564.295
620.388
606.121
604.992
610.202
529.402
524.815
602.555
351.294
595.072
579.345
119.702
597.06
407.994
508.868
598.636
173.577
529.805
172.249
327.756
179.532
55.908
562.623
591.975
611.876
161.406
610.999
394.4
483.834
176.321
597.772
143.749
36.1797
313.129
525.998
557.277
583.423
595.678
151.263
37.4022
558.295
606.521
598.684
566.82
557.323
584.249
584.62
599.952
490.533
37.5603
429.631
591.92
535.283
555.212
36.7904
539.354
598.687
590.646
587.513
488.806
442.744
466.565
533.376
486.574
595.994
518.338
461.863
541.256
606.019
521.037
625.123
576.185
592.093
595.522
582.885
563.933
625.828
616.679
573.51
237.125
597.812
607.891
35.7946
549.015
611.155