/*--------------------------------*- C++ -*----------------------------------*\
| =========                 |                                                 |
| \\      /  F ield         | OpenFOAM: The Open Source CFD Toolbox           |
|  \\    /   O peration     | Version:  v2012                                 |
|   \\  /    A nd           | Website:  www.openfoam.com                      |
|    \\/     M anipulation  |                                                 |
\*---------------------------------------------------------------------------*/
FoamFile
{
    version     2.0;
    format      ascii;
    class       volScalarField;
    location    "150";
    object      nut;
}
// * * * * * * * * * * * * * * * * * * * * * * * * * * * * * * * * * * * * * //

dimensions      [0 2 -1 0 0 0 0];


internalField   nonuniform List<scalar> 
13749
(
0.0067685
0.00177174
0.00516404
0.00102178
0.00114385
0.000877222
0.00010114
0.00622266
0.00673107
0.00100295
0.00270206
0.00672076
0.000705616
0.00323034
0.00675485
0.00447088
0.00393178
0.00141368
0.00671989
0.00672292
0.00385076
0.00738723
0.00153443
0.00251476
0.000789495
0.00126206
0.00144689
0.000834524
0.00672419
0.00165063
0.0001164
0.00441566
0.000545909
0.00421295
0.00672936
0.00672228
0.00438526
0.00324597
0.00275182
0.0033404
0.000595647
0.000374647
0.000544262
0.000541456
0.00136688
0.00134895
0.0067209
0.000927738
0.00614245
0.00215299
0.00243372
0.00441166
0.00277378
0.000686295
0.000304509
0.00615833
0.000562342
0.000418297
0.00674044
0.00112803
0.00507523
0.00149658
0.00387468
0.00672091
0.00306832
0.000922869
0.00646516
0.00407991
0.0048592
0.00121738
0.00701963
0.00671439
0.00051999
0.00599678
0.00145316
0.00017673
0.00342139
0.00674246
0.000761088
0.00672537
0.00672291
0.00109828
0.00246747
0.00672516
0.000556185
0.000194583
0.00303214
0.000721688
0.00672786
0.000940343
0.00672108
0.000293177
0.00208654
0.000823299
5.75743e-05
0.00124328
0.00274977
0.0067247
0.00671756
0.000754604
0.00553935
0.00672192
0.00327126
0.00808071
0.00672525
0.00800875
0.000797809
0.00672903
0.00105882
0.00672341
0.00672081
0.000412491
0.000847235
0.00116253
0.00542941
0.00456643
0.00672124
0.000671791
0.0016048
0.0067417
0.00469556
0.00672439
0.00673806
0.00672257
0.00104202
0.00706682
0.000702157
0.00684897
0.00264123
2.44355e-05
0.00103307
0.00410671
0.00420127
0.000681168
0.000732675
0.00147776
0.00139541
0.00675132
0.00330383
0.000795112
0.000170015
0.00236259
0.00183399
0.00899212
0.00671797
0.000239798
0.000735054
0.000326379
0.00217642
0.00222972
0.00671758
0.00453549
0.00777058
0.000314813
0.00466994
0.00530582
0.000754607
0.000652501
0.00170773
0.00672516
0.00158179
0.00671867
0.00437097
0.000360055
0.00672237
0.00507658
0.00077041
0.00434879
0.00153841
0.000557973
0.00208305
0.00672359
0.00675449
0.00333602
0.00130754
8.60726e-05
0.000153363
0.00394186
0.00804861
0.00839462
0.00672554
0.00430099
0.00254863
4.7581e-05
0.000405751
0.000915533
0.00918606
0.00174873
0.000246554
0.00439773
0.00239208
0.00176693
0.00487456
0.000448098
0.00927136
0.000194995
0.000584788
0.00133657
0.00675879
0.0019764
0.0067362
0.00258993
0.000546934
0.000554929
0.00322562
0.00259156
0.00673529
0.000500317
0.000496157
0.000693311
0.00446198
0.00210511
0.00038073
7.35108e-05
0.00113852
0.000661388
0.00356107
0.00356706
0.00332536
0.00672376
0.000264513
0.000677617
0.000789806
0.0021619
0.000377366
0.000357822
0.0029515
0.00017498
0.00209399
0.00157552
0.00582946
0.00672624
0.00672405
0.00672104
0.006654
0.00126748
0.000221571
0.000548487
0.00672297
0.00372176
0.000885593
0.0031018
0.000308375
0.00102843
0.000539322
0.00920168
0.001231
0.00238889
0.00139035
0.0067279
0.00355863
0.00178752
0.00672521
0.0024883
0.00020918
0.00199223
0.00662602
0.00250076
0.00015839
0.00354602
0.00674155
0.000455227
0.0010237
0.0017865
0.0022741
0.00142195
0.000722399
0.00109336
0.000121578
0.000203081
0.00671624
0.00444506
0.00235635
0.00910898
0.0018756
0.00549618
0.00039463
0.00443736
0.000219443
0.00284286
0.0067355
0.00675742
0.000162136
0.00460797
0.00198936
0.00262579
0.000769542
0.00674201
0.000132956
0.00112186
0.000835559
0.00593552
0.00278043
0.00266233
0.00652955
0.000729479
0.00672538
0.00671868
0.00253158
0.00675382
0.00319654
0.0067275
0.00459051
0.00261083
0.00449018
0.0067435
0.00545589
0.00672249
0.00430817
0.00357542
0.00300344
0.000657087
0.00262994
0.00887047
0.00671571
0.00125047
0.00254599
0.00682457
0.00674229
0.00392801
0.000777279
0.000362057
0.00182933
0.00672624
0.000569578
0.0067256
0.00672693
0.00673931
0.00646617
0.00206204
0.00673974
0.00672094
0.00672372
0.000762141
0.0022284
0.00355768
0.00504601
0.00143465
0.00592914
0.000391875
0.00672604
9.85081e-05
0.00166564
0.00045543
0.000748321
0.00395288
0.0044559
0.00135833
0.00637598
0.00670569
0.00347174
0.00357489
0.00181744
0.000841982
0.00196973
0.0067412
0.000540787
0.00107194
0.000188398
0.000104241
0.00673062
0.00672602
0.00628386
0.00253928
0.000173627
0.00672526
0.000204119
0.00303725
0.00706251
0.00672444
0.00665844
0.00265282
0.000363062
0.00672562
0.00672544
0.00244792
0.000218134
0.00197658
0.000471939
0.0028902
0.00672463
0.00672526
0.007642
0.0018581
0.00672542
0.00682044
0.00319972
0.00429265
0.00672433
0.00459769
0.00125095
0.000688668
0.00914083
0.00339991
0.00112257
0.00024164
0.00112786
0.000114229
0.00180508
0.000495674
0.00671871
0.00059504
0.00671961
0.00191719
0.00440565
0.00218493
0.00268705
0.00135639
0.00205129
0.00492819
0.00293343
0.00314497
0.00191632
0.00816219
0.000418762
0.00672463
0.00689879
0.00663555
0.00444436
0.00167706
0.00599839
0.000617996
0.000191355
0.00492367
0.00085064
0.00671934
0.000204585
0.000683338
0.0031679
0.000175843
0.00069598
0.00672544
0.00102449
0.000415687
0.000478295
0.00169644
0.0022985
0.00280806
0.00299162
0.00836166
0.00673019
0.0028831
0.00672587
0.00308059
0.000916892
0.00674075
0.00671932
7.71223e-05
0.000870832
0.000433484
0.000177544
0.00113799
7.34926e-05
0.00618169
0.00895855
0.00143361
0.00116437
0.000811074
0.00371741
0.00672417
0.00672062
0.00672614
0.00351986
0.00432926
0.0023419
0.00474469
0.00180538
0.000241102
0.00148573
0.000676021
0.000297716
0.00671913
0.000237942
0.00538326
0.00469554
0.0067317
0.002246
0.000584737
0.00672765
0.00260029
0.000814244
0.00491017
0.00674159
0.00230982
0.00359056
0.000295152
0.00419103
0.00365799
0.000864986
0.00402009
0.00303505
0.0058926
0.00672018
0.00348737
0.00674195
0.00340546
0.0090552
0.00271858
0.00116167
0.00673926
0.00206913
0.00205858
0.00398665
0.000388015
0.00274177
0.00391346
0.00243971
0.00193832
0.004249
0.00681793
0.0067255
0.00376172
0.00673494
0.000346933
0.00372698
0.00227516
0.000339403
0.000687866
0.00361888
0.00671964
0.000764113
0.000200995
0.00180516
0.00246512
0.00171299
0.00630146
0.00672178
0.00142038
0.00176673
0.000416459
0.00340826
5.71735e-05
0.000362227
0.00450513
0.00315536
0.00072408
0.00420607
0.000516628
0.00299404
0.00695992
0.000446658
0.000262739
0.00161586
0.000805411
0.00325364
0.00264016
0.000650451
0.00544863
0.00512336
6.23338e-05
0.0027171
0.00149735
0.00394917
0.00315311
0.00146186
0.00285762
0.00672205
0.00384066
0.00405664
0.00510893
0.00286426
0.00671897
0.00674779
0.00139028
0.00169562
0.00890133
0.0067248
0.00673051
0.003332
0.000320209
0.00672479
0.000332068
0.00518993
0.00672065
0.0037716
0.00594828
0.00887962
0.0050487
0.00115602
0.00026089
0.00226304
0.00196074
0.0018961
0.000362729
0.000746519
0.00672576
2.13626e-05
0.00105342
0.00671921
0.000936094
0.00194158
0.00390608
0.00133313
0.00103797
0.00340882
0.000591008
0.00674115
0.00180705
0.00867559
0.00422648
0.00422595
0.00105215
0.00134156
0.00514566
0.00350994
0.00219806
0.00145425
0.00878102
0.0028125
0.00672573
0.00650991
0.00316138
0.00672081
0.00634925
0.00259559
0.000932942
0.000361964
0.000678777
0.00550504
0.00102912
0.000201094
0.00673046
0.000743343
0.00229747
4.8563e-05
0.00696168
0.00672506
0.000271463
0.00452353
0.0067319
0.00125995
0.00675404
0.000178273
0.00672286
0.00318431
0.0067195
0.00400701
0.00384074
0.0015075
0.00585986
0.00673628
0.00625727
0.00672829
0.00695333
0.000645138
0.00393765
0.000714637
0.00262854
0.00101083
0.00685054
0.00672744
0.00340836
0.0024659
0.00674845
0.00672037
0.00231332
0.000358723
0.0049263
0.00218867
0.00672559
0.00305033
0.000455723
0.00672518
0.00113021
0.00672033
0.00396095
0.00246466
0.00672639
0.00672296
0.00553422
0.00616794
0.0013009
0.000695836
0.00674175
0.00500894
0.000264445
0.00122815
0.00214337
0.0024527
0.00304519
0.00132176
0.00671851
0.000353065
0.000194483
0.00335692
0.00673803
0.000153074
0.000639335
0.00672318
0.00500488
0.00273942
0.000574791
0.00150224
0.00676249
0.006738
0.00708816
0.000407111
0.00675947
0.000404411
0.00608529
0.00166607
0.00673657
0.00135381
0.00102863
0.00672552
0.00441813
0.0002461
0.00261344
0.00275245
0.000250735
0.00455155
0.000690456
0.00379411
0.000775128
0.00358809
0.000358075
0.00455335
0.00672405
0.00134294
0.00105827
0.000851756
0.000357885
0.00423765
0.000332883
0.00672374
0.00210024
0.00102962
0.00417217
0.00135442
0.000809659
0.00673415
0.000323098
0.000124302
0.000361667
0.000194286
0.00156752
0.00673755
0.000550278
0.00260413
0.00339684
0.00263321
0.00409012
0.00370815
0.00672553
9.81843e-05
0.00673239
0.00217494
0.0038906
0.000517669
0.000293422
0.00677387
0.00220239
0.00363459
0.00671907
0.00217416
0.000274589
0.00374468
0.0067277
0.00673212
0.00087774
0.00656933
0.0017226
0.00672473
0.00402946
0.000784574
0.00686523
0.00672578
0.0067237
0.00672327
0.00124489
0.000174916
0.00258367
0.00740199
0.00117114
0.000327631
0.00771139
0.00528437
0.00143377
0.00144806
0.0053136
0.0024764
0.00409098
0.00120049
0.00454164
0.00379775
0.0039549
0.00751024
0.00672369
0.00366487
0.00321166
0.0068569
0.00424637
0.00159054
0.00364775
0.0078856
0.00673312
0.000570768
0.00672346
0.000190059
0.00671913
6.98607e-05
0.000103946
0.000356705
0.00488935
0.00204117
0.00751699
0.000816571
0.000668435
0.00672016
0.00348153
0.000256444
0.00172175
0.000464417
0.00365133
0.00327705
0.00365104
0.00153419
0.00034027
0.00294715
0.000408916
0.00104404
0.000376927
0.00671993
0.00310392
0.000217291
0.00671953
0.00747083
0.00697671
0.00382872
0.00757694
0.00129885
0.00100145
0.00213548
9.31748e-05
0.00671852
0.000199595
0.000439451
0.00111075
0.000709189
5.71432e-05
0.000175612
0.00673245
0.000264496
0.00683893
0.0067242
0.00237256
0.00671902
0.00672106
0.0067195
0.00621827
0.00672496
0.00629565
0.00148673
0.00672518
0.00285908
0.00673742
0.000439647
0.00474963
4.34269e-05
0.00672267
7.44344e-05
0.00786462
0.000649007
0.00155594
0.00171332
3.8944e-05
0.000715865
0.00657121
0.000168214
0.00672233
0.00680419
0.000911527
0.00375595
0.000857101
0.000405203
0.00030702
0.00101257
0.00672603
0.00421461
0.00531343
0.00316235
0.000525089
0.00216947
0.00088226
0.00316918
0.00161743
0.00312214
0.00671973
0.00657324
0.000888798
0.00672166
0.00439103
0.00819147
0.00189333
0.000609959
0.00650238
0.00672297
0.00189992
0.000785569
0.00439444
0.00454276
0.00672125
0.00672624
0.000670137
0.00674873
0.00672992
0.00671968
0.000517049
0.000159679
0.000518612
0.00672477
0.0067453
0.00675514
0.00672555
0.00672882
0.00031719
0.00108217
7.07043e-05
0.000249187
0.00418751
0.00142207
0.00159914
0.00672443
0.00466053
0.000161897
0.000252026
0.00141815
0.000473636
0.00672564
0.000197251
0.00201845
0.00262134
0.00672298
0.000527086
0.00126567
0.00672524
0.00160667
0.00672949
0.00270955
0.00151053
0.000147087
0.00671958
0.00609664
0.00672602
0.00122322
0.00776184
0.00672212
0.00878861
0.00671385
0.00673288
0.00266475
0.00672604
0.00433465
0.00514112
0.00563928
0.00672986
0.00671839
0.00166271
0.00016125
0.00628785
0.00612648
0.00253364
0.00672625
0.00212112
0.00300832
0.00129431
0.00484548
0.00600049
0.000767243
0.0027896
0.00678808
0.00119953
0.00185279
0.00672128
0.000195572
0.00335001
0.00454693
0.00777729
0.000381405
0.00672409
0.000706323
0.000274296
0.00672304
0.00130932
0.00321733
0.00764078
0.000593592
0.00181757
0.00102981
0.000145804
0.00671988
0.000513875
0.0004217
0.00672121
0.000183851
0.00672576
0.00672165
0.00469504
0.00671938
0.00050319
0.00860572
0.00675686
0.00574101
0.00828611
0.00672355
0.000170583
0.00781884
0.00175323
0.000372057
0.00270582
0.00067783
0.00373632
0.00162342
0.00340793
0.000219608
0.00672252
0.00796088
0.00118023
0.00186259
0.00672968
0.0086162
0.00672349
0.00608587
0.000877238
0.000350291
0.00650087
0.00189498
0.000209592
0.00252317
0.0022032
0.000645935
0.000149965
0.00423343
0.00483944
0.00672565
0.000557677
0.00672379
0.00408288
0.00319351
0.00672567
0.000767003
0.00262521
0.000231927
0.0023137
0.00672488
0.000847404
0.00384352
0.00252392
0.0090215
0.0067793
0.00147302
0.00463389
0.00695236
0.00318943
0.00212388
0.0067221
0.00311357
0.00672304
0.0012187
0.00672412
0.00370704
0.000606438
0.00256423
0.00263131
0.00672348
0.00672511
0.00432257
0.00672129
0.000645275
0.00100734
0.00672223
0.00392931
0.000334437
0.00222767
0.00377259
0.00673549
0.00894475
0.00103165
0.00299854
0.00418726
0.0067217
0.00673366
0.00211637
0.000142535
0.00365152
0.00283105
0.0023949
0.00421077
0.000690708
0.0067275
0.000864411
0.00571092
0.00489809
0.000826198
0.00365113
0.003481
0.00320423
0.00672854
0.000137096
0.00672333
0.00258489
0.000396379
0.000358803
2.57239e-05
0.00385292
0.00230272
0.000991987
0.00019046
0.00301604
0.000361891
0.006723
0.00667697
0.00782247
0.00672339
0.00672546
0.00110689
0.00138405
0.00137473
0.00597073
0.000122398
0.000578708
0.00432672
0.00133894
0.00015614
0.00672212
0.00292732
0.00154831
0.00391979
0.000973126
0.000560421
0.00676294
6.47957e-05
0.00298616
0.0021578
0.00672152
0.0062331
0.0067242
0.00393358
0.00673949
0.0067197
0.00161639
0.00672167
0.00672009
0.00672155
0.000835858
0.00384989
0.000309309
0.0067201
0.00181988
0.00672849
0.00744034
0.0067193
0.00679101
0.000808727
0.00298729
0.00596154
0.000408531
0.00672363
0.00672502
0.00267247
0.00155192
0.00674266
0.00389797
0.00673968
0.00272195
0.0048342
0.000823085
0.00673147
0.000738075
0.00896741
0.00261551
1.47758e-05
0.00619022
0.00281711
0.00672039
0.00662778
0.0011289
0.00650078
0.00391026
0.00672563
0.00672219
0.000418373
0.00610445
0.00673345
0.000230735
0.0043993
0.00245797
0.00278559
0.000683742
0.00305808
0.00672372
0.00671941
0.00673363
0.00671924
0.00762558
0.00137001
0.00672095
0.00671913
0.00672127
0.00672602
0.00328653
0.00672615
0.00332971
0.00455821
0.000898712
0.00164931
0.0067255
0.00671927
0.00671798
0.000486216
7.31342e-05
0.000441942
0.00159469
0.00380079
0.00203323
0.00244701
0.000149495
0.00672628
0.00178328
0.00177449
0.000212875
0.00206382
0.00631399
0.000148756
0.00141341
0.006721
0.00930903
0.00410285
0.00136539
0.0047569
0.000845914
0.00420443
0.00672126
0.00144694
0.00672319
0.0035319
0.00108259
0.00188736
0.0033438
0.00672567
0.00672293
0.00399942
0.000331482
0.000217712
0.00157963
0.00144488
0.00226266
0.00078574
0.000300102
0.00478888
0.00786674
0.000632284
0.000669014
0.00202043
0.00466994
0.00671945
0.00668799
0.00207474
0.00138365
0.00243055
0.000863286
0.000562646
0.000361621
0.00672313
0.00262796
0.000944515
0.00672305
0.00672789
0.00124673
0.000617281
0.00108231
0.00357499
0.00672151
0.00166077
0.00672694
0.00250015
0.00113729
0.0067223
0.00672567
0.00672386
0.00835355
0.0015412
0.00672215
0.000689586
0.00157148
0.00611939
0.00230007
0.00148595
0.00672187
0.00673554
0.00672086
0.000968204
0.00671729
0.000800423
0.00184815
0.00913365
0.00672402
0.0028015
0.00502122
0.00672321
0.00151359
0.00147877
0.00484939
0.0025341
0.000821504
0.00672646
0.00672406
0.000852267
0.00673008
0.00134266
0.000985281
0.00277917
0.00154973
0.00671978
0.00672313
0.00671988
0.00310978
0.00228758
0.00633031
0.00525877
0.00672551
0.00672333
0.00671829
0.00100863
0.000852087
0.006034
0.00223143
0.00266734
0.00499366
0.001031
0.000852243
0.00672177
0.00088052
0.00305175
0.00330345
0.00672145
0.000602309
0.00671873
0.00174829
0.00894297
0.00675781
0.00063017
0.00673391
0.00672433
0.00672542
0.00916628
0.000323313
0.00672117
0.00085244
0.00076069
0.000713351
0.00672075
0.000229051
0.00022451
0.00671755
0.00697125
0.00174775
0.00193025
0.00672458
0.00452774
0.000664335
0.00288315
0.00671828
0.00256076
0.000652369
0.00671906
0.00127189
0.00282518
0.000594175
0.00672211
0.00382607
0.000559981
0.000105798
0.000196578
0.00813314
0.00472891
0.00124591
0.00633146
0.00306742
0.00641502
0.00153982
0.00543924
0.00672153
0.0035434
0.00472795
0.00026682
0.000629713
0.00626474
0.00672752
0.00676053
0.00671937
0.00393479
0.00672508
0.000978941
0.00105241
0.00671964
0.0018151
0.00283201
0.00658147
0.00182179
0.0015407
0.00372666
0.00156535
0.00672709
0.00672458
0.00218063
9.72721e-05
0.00808531
0.000179614
0.00672076
0.000616194
0.000580184
6.46364e-05
0.00365698
0.00846859
0.000108643
0.00125887
0.000404908
0.00671987
0.00672202
0.00672368
0.00672559
0.00134578
0.0018151
0.0066828
0.00106998
0.00672833
0.00672492
0.00318686
0.00624099
0.00305805
0.00374537
0.008996
0.00672583
0.00062556
0.00133334
0.00671945
0.000442035
0.00672551
3.56922e-05
0.00010684
0.00620637
0.00672349
0.00672563
0.00206738
0.00672482
0.00312673
0.00828035
0.00415264
0.000464578
0.00581598
0.00113719
0.00672872
0.00672565
0.00672568
0.00135168
0.00163686
0.00140201
0.00485113
0.000374579
0.00559111
0.00455354
0.00672933
0.00820634
0.00672416
0.00672123
0.000221201
0.00672136
0.00670134
0.00129659
0.0014126
0.00672035
0.00422754
4.43263e-05
0.00414893
0.00626908
0.000371496
0.00672545
0.000582514
0.0045371
0.00113257
7.72833e-05
0.000878381
0.00610761
0.00675552
0.000595928
0.000471287
0.000867655
0.00375157
0.00672609
0.000100628
0.00671933
0.00672521
0.00671702
0.000370122
0.00672218
0.00671644
0.00597452
0.00345075
0.00329722
0.00672003
0.000468421
0.00672616
0.00546732
0.00735585
0.00145492
0.00672528
0.00672547
0.000342299
0.00672058
0.000900721
0.00672606
0.00672525
0.00391361
0.000669624
0.00301069
0.000689726
0.00663477
0.00672571
0.000677353
0.00672606
0.00386273
0.0012078
0.00112312
0.000781553
0.00672246
0.00511628
0.00373231
0.000306678
0.00672024
0.00143321
0.00671954
0.00647891
0.00305188
0.000473621
0.00395311
0.00845131
0.00419232
0.000923318
0.00162859
0.000497051
0.00118205
0.00676525
0.00673094
0.000372873
0.00397727
0.00672552
0.000247836
0.0037896
0.00290679
0.00518187
0.00170804
0.000851304
0.00193827
0.000259774
0.000889763
0.000207523
0.00481229
0.00491442
0.00672628
0.00131166
0.000836317
0.00241837
0.00345151
0.00863161
0.00671936
0.000136452
0.00672587
0.00010136
0.00671793
0.00672208
0.00170181
0.00102155
0.00671954
0.000405469
0.00100086
0.000488483
0.000360615
0.00672098
0.00672576
0.000234606
0.00379951
7.13323e-05
0.000341221
0.00592666
0.00672604
0.00672604
0.00422593
0.000220981
0.00561323
0.00144062
0.00674597
0.000411615
0.000523352
0.00176662
0.00672656
0.000551737
0.000668939
0.00212995
0.00196678
0.00102277
0.000218252
0.00672549
0.00213674
0.00114373
0.00672462
0.00587475
0.00494072
0.000709281
0.000810839
0.00671974
9.705e-05
0.00672289
6.59762e-05
0.0067221
0.00136747
0.00516077
0.00547299
0.00409247
0.00157839
0.00266876
0.00595817
0.00315566
0.00537102
0.000330583
0.00366663
0.00571548
0.00672054
0.00671802
0.00435849
0.000777961
0.00900657
0.00693729
0.00672318
0.000144842
9.80176e-05
0.0067257
0.00671913
0.000516831
0.00672169
0.000809275
0.00672053
0.00569262
0.00121853
0.00672332
0.0013818
0.00186931
0.00501182
0.00641683
0.00675469
0.00144133
0.00672077
0.000467072
0.00283211
0.00674581
0.00464791
0.00595889
0.00671857
0.00486833
0.00317683
0.00859176
0.00672083
0.00672435
0.00672167
0.00671821
0.000629475
0.00263922
0.000148541
0.00672328
0.00037881
0.00439867
0.00672504
0.00134633
0.0012941
0.00527043
0.00113781
0.000712756
0.0067344
0.00391813
0.00674097
0.000138923
0.00674109
0.00087608
0.00014182
0.00672207
0.000769807
0.00908307
0.0014981
0.00783945
0.00711606
0.00603824
0.00674145
0.00757841
0.00447235
0.00620717
0.000211008
0.00930147
0.00392861
0.000254878
0.00360596
0.00124323
0.00176544
0.00202359
0.00888179
0.000182633
0.000267528
0.000654766
0.00518853
0.00268626
0.000452821
0.00611817
0.00672696
0.00278294
0.00338878
0.00390274
0.00672017
0.00672334
9.18722e-05
0.000473923
0.00336251
0.00671779
0.00464001
0.00248624
0.00224356
0.00621199
0.0010954
0.00672576
0.00672298
0.000900871
0.000535005
0.000837995
0.00674318
0.00230373
0.00114045
0.00673224
0.00114134
0.00614352
0.00269861
0.00456328
0.0017582
0.000101522
0.000149268
0.00887829
0.00113374
0.0036819
0.00341159
0.00405768
0.00646249
0.00299495
0.00115479
0.000478184
0.0075295
0.00387295
0.00672113
0.00561594
0.0031094
0.000636915
0.00518179
0.00672607
0.000270599
0.00673276
0.000126844
0.00672197
0.00301491
0.000473203
0.00163269
0.00638279
0.000113863
0.000210073
0.000184149
0.00169806
0.000625205
0.00111214
0.000442093
0.00633893
0.00123641
0.000466952
0.00671955
0.00580999
0.000548914
0.00107951
0.00307652
0.000399546
0.0027005
0.00671662
0.000281994
0.00583549
2.87079e-05
0.00159196
0.000442213
0.00672577
0.00679228
0.00349996
0.0035787
0.00326551
0.00025024
0.000971406
0.000689779
0.00679064
0.0083423
0.000559643
0.00672384
0.0035612
0.00800785
0.00169609
0.00672825
0.00143949
0.00155838
0.00118235
0.00671848
0.0035739
0.0067203
0.00672612
0.00554008
0.000407398
0.00726425
0.000467835
0.0011575
0.00544367
0.000941177
0.00022101
0.0067261
0.00672117
0.00425133
0.00224788
0.00672549
0.00671944
0.00672414
0.00672515
0.00672357
0.00672924
0.00672901
0.000660842
0.0067231
0.00213211
3.33556e-05
0.000120008
0.00238199
0.000441924
0.00672247
0.00468952
8.08682e-05
0.00346143
0.00672556
0.00277943
3.74645e-05
7.15174e-05
7.171e-05
0.00295579
0.00174022
0.0059828
0.00230084
0.00368374
0.00696499
0.00076883
0.00382007
0.00673712
0.000159002
0.00672117
0.00420711
0.00318184
0.00136647
0.00056983
0.000257044
0.0016682
0.000918358
0.00335023
0.00672478
0.00141657
0.000877273
0.00485364
0.00131567
0.000481094
0.00266708
0.000385052
0.00672694
0.000582108
0.000506656
0.000833019
5.54364e-05
0.00414933
0.00671902
0.00344606
0.00672498
0.00307828
0.00646805
0.000321598
0.00772329
0.00610767
0.00647664
0.000240822
0.00527241
0.00671959
0.00140154
0.00222604
0.00020134
0.000759306
0.0019208
0.000191068
0.00041967
6.3177e-05
0.00127194
0.000300458
0.00118549
0.00325812
0.00671924
0.00267201
0.00672328
0.00107916
0.00171602
0.00131404
0.00672312
0.000195649
0.00126024
0.0045387
0.000117338
0.000961503
0.000786572
0.000794248
0.000212268
0.00803816
0.00371691
0.00140526
0.00247636
0.000724264
0.00231456
0.00672223
0.000665068
0.00672144
0.00672557
0.000289953
0.00672449
0.00603456
0.00240837
0.000993178
0.00673055
0.00522652
0.0082055
0.00672185
0.000675257
0.000580135
0.0073465
0.00137294
0.00417967
8.73708e-05
0.000226609
0.000135206
0.00069081
0.00672624
0.00231378
0.0043397
8.60574e-05
0.00271423
0.00306677
0.00678901
0.0008711
0.000418055
0.00676363
0.000901914
0.00432418
0.0035335
0.00639235
0.00268656
0.00452158
0.00268161
0.000583937
0.00870578
0.00673838
0.00161172
0.00134695
0.00026125
0.000444337
0.00504071
0.00672352
0.00175463
0.00299619
0.00544567
0.00726963
0.00671987
0.000794776
0.00846388
0.00114894
0.00291683
0.000580085
0.00850748
0.000487532
0.00672023
0.00613594
0.00771904
0.00224366
0.000151376
0.000411939
0.00680461
0.00108751
0.00630694
0.00672346
0.000586191
0.00141541
0.00207984
0.00571846
0.00671967
6.68581e-05
0.000916391
0.00296846
0.00140001
0.000101117
0.00681296
0.000949021
0.00672279
0.00932285
0.000712286
0.00169704
0.00447167
0.00672018
0.000524114
0.0021532
0.00227038
0.000865536
0.000368884
0.000155882
0.00169703
0.00410165
0.00672483
0.00672266
0.000134566
0.00471951
0.000575367
0.00781862
0.000192479
0.000557631
0.000432792
0.000701348
0.00412471
0.00825893
0.00142581
0.00672404
0.00151542
0.00182312
0.000114287
0.00057306
0.0049042
0.00135059
0.00671918
0.000876395
0.00110559
0.00116591
0.00917995
2.33928e-05
0.00232341
0.000734606
0.00387873
0.00123321
0.000551744
0.0048067
0.0010557
0.00672607
0.00074825
0.00513153
0.00197699
0.000904665
0.00422425
0.00634081
0.000205851
0.00808411
0.00123122
0.00676054
0.00234829
0.00316614
0.00626076
0.00672862
0.00257829
0.00106222
0.00165747
9.69234e-05
0.00216193
0.00592927
0.0070936
0.000128171
0.000222416
0.00640917
0.00757472
0.000556364
0.00673118
0.00672773
0.00606996
0.00136627
0.00130143
0.006608
0.00156571
0.000515372
0.00353934
0.000279596
0.00488245
0.00666876
0.000670956
0.000637271
0.00134016
0.00673369
0.00672367
0.000482317
0.00102186
0.000539715
0.000481129
0.00294764
0.000321005
0.00633278
0.00468866
0.00674384
0.0034117
0.00153209
0.00671904
0.000130873
0.00121697
0.00675993
0.00377822
0.00182753
0.00343628
0.000448861
0.00673891
0.00672194
0.00681023
0.00672253
0.00108338
0.0019786
0.00388502
0.00420172
0.0045475
0.00109078
0.000472487
0.000602139
0.00612283
0.000541566
0.006721
0.000240168
0.0018843
0.00250536
0.00271867
0.00131685
0.00606022
0.00324727
0.00674347
0.000363717
0.00674321
1.57948e-05
0.00460232
0.000827156
0.000665894
0.00671926
0.00233426
0.000300571
0.00672034
0.00502936
0.0040739
0.00102681
7.80503e-05
0.00234925
0.000304164
0.00792877
0.00489327
0.00302279
0.00397056
0.00659351
0.000423005
0.00394155
0.00452465
0.00366661
0.00650083
0.00123297
0.00919792
0.00125757
0.000661043
0.000671778
0.00137358
0.000713434
0.0045898
0.00135119
0.0067189
0.00672227
0.00122863
0.00672763
0.00052104
0.00207474
0.00135249
0.00672232
0.00312733
0.00585132
0.0015117
0.00159743
0.00118008
0.000493904
0.00657254
0.00673196
4.8102e-05
0.00087386
0.000460552
2.21134e-05
0.00519537
0.00479244
0.000673902
0.00686878
0.00672024
0.00239272
0.00672361
0.0058192
0.00673206
0.00322345
0.0024565
0.00543886
0.00638829
0.000632576
0.0067314
0.00021202
0.00513663
0.000771877
0.00939986
0.000886479
0.00672348
0.0042971
0.00120278
0.000343086
0.000763935
0.00671958
0.00146267
0.00672103
0.00676423
0.00530491
0.00045368
0.00329126
0.000967028
0.00109886
0.000428625
0.00494349
0.00811297
0.00219341
0.00287187
0.00317574
0.000959238
0.000196925
0.00656471
0.0011837
0.00549478
0.00448783
0.00585639
0.00128676
0.00469101
0.00211546
8.15528e-05
0.00322173
0.00112577
0.00175568
0.0024347
0.00466207
0.000238503
0.00106585
0.00144046
0.0039559
0.00208588
0.00545971
0.00024781
0.000167593
0.00652348
0.000223484
0.00677525
0.000931005
0.00324457
0.00672024
0.00672199
0.00114916
0.000732417
0.00257162
0.000527423
0.00673291
0.000936816
0.00796417
0.000902785
0.001205
0.00626488
0.00672101
0.00118959
0.000590319
0.00127832
0.00498397
0.000584193
0.00521088
0.00347738
0.00306829
0.00462077
0.00321879
0.00277029
0.00569708
0.000248808
0.00519302
0.00130403
0.000582625
0.00132255
0.00486085
0.00578063
0.000765451
0.00676304
0.00147542
0.00554693
0.00672384
0.00112906
0.00138133
0.00107628
0.0071198
0.00133384
0.00184005
0.00151338
0.00536093
0.00713625
0.00061439
0.000333083
0.000932903
0.000930336
0.000305404
0.000949182
0.0017302
0.000444396
0.00181012
0.00148232
0.00077131
0.0001005
0.0063145
0.00351734
0.000481483
0.00198882
0.00303401
0.00267348
0.00672576
0.00567278
0.00313487
0.00110529
0.00639741
0.00149835
0.000500001
0.00672303
0.00672519
0.00673401
5.24735e-05
0.00674945
0.00152743
0.000272227
0.00588816
0.00671937
0.00313422
0.00134811
0.00025999
0.00217832
0.00934854
0.000576374
9.89843e-05
0.00119311
0.00225843
0.00672429
0.00672657
0.000368065
0.00155123
0.00269729
0.00672713
0.00129709
0.00165312
0.00700742
0.0013025
0.00114429
0.0014241
0.00697033
0.000312018
0.00802298
0.00043894
0.00673275
0.000177636
0.00142724
0.00450158
0.00736488
0.00514334
4.8715e-05
0.00672385
0.00191169
3.80092e-05
0.00657325
0.00409134
0.00320056
0.00468818
0.00671628
0.00186538
0.00681882
0.00234935
0.000168855
5.67552e-05
8.97099e-05
0.00230322
0.00221276
0.00225909
0.00353572
0.00627034
0.00671873
0.00112605
0.00221856
0.000815958
0.00547387
0.00238126
0.00243712
0.00453098
0.00675908
0.000101757
0.000127592
0.00672723
0.00430876
0.00677388
0.00257382
0.0067428
0.00672035
0.00226434
0.00289522
0.00688338
0.00325059
0.00119881
0.0067227
0.00652072
0.00233346
0.00351509
0.00672345
0.00672845
0.00127935
0.00619996
5.22602e-05
0.000229845
0.0038072
0.0028189
0.00267236
0.00348382
0.00673152
0.000146097
0.00692577
0.00633458
0.00672254
0.00649
0.00131482
5.38588e-05
0.000241504
0.00672133
0.00843769
0.000129455
0.00127268
0.00247816
0.00520516
0.00331246
0.000614903
0.00672001
0.00673222
0.00672281
0.00888459
0.00335898
0.0067565
0.00250789
0.00474376
0.00378626
0.00672489
0.00179413
0.000142401
0.00398482
0.00204886
0.00706868
0.00672315
0.000364453
0.00672098
0.00508365
0.00440062
0.00261714
0.00556807
0.00673126
0.00556038
0.00165081
0.00200253
0.0067228
0.0007717
0.00673728
0.00672465
0.00672028
0.000696355
0.00672385
0.00674106
0.00235137
0.00438177
0.00672237
0.000470438
0.00571951
0.00370873
0.00363505
0.00490323
0.00673151
0.0067236
0.00673829
0.000828662
0.00263244
0.00672106
0.000338157
0.00674361
0.00673019
0.00086812
0.00102798
0.00680831
0.00672285
0.00674391
8.5236e-05
0.000181424
0.000852667
0.00462777
0.00414269
7.23406e-05
0.000625783
0.00685251
0.000223465
0.00324292
0.00678945
0.00206771
0.00453923
0.00672946
0.00672389
0.00033069
0.00672139
0.000131763
0.00437027
0.000895138
0.00105237
9.84005e-05
0.00654985
0.00678325
0.00663773
0.000643084
0.00273112
0.000769811
0.000198479
0.00672762
0.000581832
0.000210317
0.00672403
0.00770863
0.000205313
8.47428e-05
0.00744515
0.00431281
0.00618164
0.0059016
0.000226113
0.000495107
0.00311582
0.00169145
0.00326043
0.00395991
2.33993e-05
0.00205567
0.00631105
0.00672141
0.00542851
2.462e-05
0.000308073
0.00672514
0.000378343
0.000551966
0.00672294
0.000125609
0.000741243
0.00788906
0.000903485
0.00544577
0.00672151
0.000282606
0.00673263
0.00672784
0.00268592
4.70862e-05
0.000629055
0.000651825
0.000264327
0.00672412
0.000339453
0.00077344
0.0012815
0.00686973
0.0067214
0.00672626
0.00339988
0.00631309
0.00672449
0.00645949
0.00672403
0.00026133
0.00619124
0.00673198
0.00267016
0.00214679
0.000498274
0.000391538
0.00705978
0.00101881
0.00830744
0.00459262
0.00164954
0.00287118
0.00368514
0.00206398
0.00391706
0.00336861
0.00197952
0.00136056
0.00672573
0.000109548
0.00137396
0.00540429
0.00491517