/*--------------------------------*- C++ -*----------------------------------*\
| =========                 |                                                 |
| \\      /  F ield         | OpenFOAM: The Open Source CFD Toolbox           |
|  \\    /   O peration     | Version:  v2012                                 |
|   \\  /    A nd           | Website:  www.openfoam.com                      |
|    \\/     M anipulation  |                                                 |
\*---------------------------------------------------------------------------*/
FoamFile
{
    version     2.0;
    format      ascii;
    class       volScalarField;
    location    "150";
    object      p;
}
// * * * * * * * * * * * * * * * * * * * * * * * * * * * * * * * * * * * * * //

dimensions      [0 2 -2 0 0 0 0];


internalField   nonuniform List<scalar> 
13749
(
0.0038993
-0.0429767
0.0395349
-0.0157336
0.0293125
-0.0803003
0.0418203
-0.0182715
0.0331884
-0.0168063
-0.0414997
0.0211467
-0.046956
-0.0361021
-0.0327749
-0.0251814
0.0355203
-0.048447
0.0176075
0.0293819
-0.193183
-0.0343958
-0.0440637
-0.0415639
0.0322947
-0.0557362
-0.0523117
-0.0430692
0.001511
0.0555706
-0.155404
-0.0370198
0.105153
-0.038655
0.0076744
0.00278101
0.0411887
0.0293925
-0.028753
-0.0441123
-0.0788003
-0.121693
0.0868356
0.105796
-0.0486528
-0.0389177
0.0222617
-0.0730712
-0.00090797
-0.321675
-0.041612
-0.191104
-0.0447882
-0.0751516
0.010106
-0.000132813
-0.0520869
0.102083
0.00549311
-0.0773101
0.0188673
-0.0147063
-0.0323949
0.0213231
-0.00950623
0.0811409
0.0332404
0.0288321
-0.02823
-0.0378391
-0.0360211
0.00934624
-0.076984
-0.00165979
-0.0430235
-0.0877083
-0.0266606
0.00571246
-0.05196
0.0208351
0.00251734
0.0403784
-0.0417823
0.00127501
-0.0791418
-0.0629759
-0.0630227
-0.0856264
0.00803595
-0.0700958
0.0108428
-0.0749112
-0.0161046
-0.22807
0.196605
-0.0541812
-0.0350807
0.0305056
0.00936269
0.0782931
-0.105097
0.00321685
-0.028609
-0.0373553
0.025801
-0.0374834
-0.0789225
0.0302906
-0.0692384
0.0291021
0.0213537
0.0915823
-0.0812356
-0.340822
-0.145761
-0.0118476
0.0034454
0.0146215
0.0559626
0.00369061
-0.0179581
0.0186203
0.00302966
0.000394843
0.0357727
-0.0372139
-0.0791461
-0.0546173
-0.0398678
-0.0803927
-0.0317317
-0.043332
-0.062632
-0.0774104
-0.0591678
0.0703775
-0.0427864
-0.0011167
-0.018773
-0.303519
0.166838
-0.0443219
-0.0342794
-0.211382
0.00827601
-0.30573
-0.04677
0.0199847
0.0553715
-0.0482438
0.00870823
-0.0375051
-0.037464
-0.115252
-0.0295242
-0.0713671
-0.0470129
-0.0567928
-0.0430364
0.0244463
-0.328229
0.0153127
-0.267764
0.103771
0.0286106
0.0239402
-0.08548
0.0386481
0.0561288
-0.0469394
-0.0353806
0.0293505
-0.00128517
-0.0391916
0.0662742
0.0326771
-0.0957737
-0.0294374
-0.0576661
-0.0647966
0.0256878
-0.0382757
-0.0362044
0.140269
-0.0708419
0.0687484
-0.208245
0.00220892
-0.252976
0.0181284
-0.0371125
-0.0430065
-0.0215198
-0.10816
-0.200084
-0.071917
-0.0765789
-0.333667
0.0030635
-0.0394646
-0.00154135
-0.0412891
-0.0557251
0.0792878
-0.029344
-0.0174503
0.00686696
-0.10986
-0.0680152
-0.0928693
-0.0126328
-0.0374689
-0.172454
0.128343
-0.0540336
-0.101655
-0.0325211
-0.0405468
-0.0284277
0.00190785
-0.286662
0.0757187
-0.0773588
-0.137381
0.0744286
-0.0804907
-0.018146
0.175659
-0.0323854
-0.038514
0.0359902
0.0263838
0.0185309
0.0219465
-0.0357045
0.0364616
0.0236524
-0.0698791
0.0289972
0.0346673
0.0283337
-0.139485
-0.0367478
-0.0636754
-0.0872098
-0.195353
0.0408164
-0.0285763
-0.0378478
0.033575
-0.300141
0.0704454
0.0116248
-0.0166436
0.167637
-0.0434096
0.0308201
-0.26965
-0.0599928
-0.328707
-0.00246449
0.102725
-0.0722438
-0.00721539
0.0558009
-0.042506
-0.0619693
-0.0576016
0.12154
0.172589
0.00194304
-0.158099
-0.0434211
-0.218719
0.00295978
-0.0544853
-0.194994
-0.0386893
0.172732
-0.0385673
0.0236684
0.000636089
-0.154205
-0.231017
-0.0459065
0.0567234
-0.0655955
0.00485675
-0.244636
0.026016
-0.0441196
0.000976337
-0.0271569
-0.0413763
-0.0368345
-0.0671981
0.0317145
0.00357392
-0.0246651
0.00419816
-0.0274305
0.00775145
-0.0371314
-0.298598
-0.0375033
-0.00301511
-0.00983215
0.0283887
-0.0195757
-0.0396679
-0.155877
-0.0788599
-0.00674013
-0.0669889
0.00208923
0.0282635
-0.0295034
-0.0336327
0.00295245
-0.0309565
-0.104564
-0.0552715
-0.0542698
0.0205821
-0.329084
0.0264433
0.00807149
-0.00134584
0.0312238
0.0572785
-0.00103409
0.0211124
0.000117259
-0.0460431
-0.00527175
-0.0178806
-0.000821249
-0.0519305
0.031605
0.0784543
0.031067
-0.144035
-0.00531523
-0.0399172
-0.0927861
-0.0192186
-0.0303008
0.0618124
0.00538989
0.0310398
0.0204253
0.0207602
-0.328576
-0.322851
-0.0167152
0.0130467
-0.080932
-0.0406447
-0.0418813
-0.156066
0.0351646
0.0263898
0.00171142
-0.232783
0.185639
0.023303
0.0122129
-0.133945
-0.036791
0.0311323
-0.0374624
-0.0441215
0.109686
0.0207062
0.0235361
-0.0178227
-0.0322343
-0.334691
-0.124987
-0.0357261
0.0265412
0.0307786
-0.0342371
0.0613482
0.0264533
0.00504383
-0.036225
0.0218458
0.0240156
-0.0285101
-0.0593258
-0.0835896
-0.2163
0.0170664
0.0633743
-0.212805
-0.332305
-0.150603
-0.052827
-0.0824881
0.0149597
-0.0810117
0.0167348
-0.0410214
-0.0188801
-0.0451209
-0.194572
-0.0546129
-0.0412533
0.00495346
-0.0253617
-0.0336899
-0.0520995
-0.0616851
-0.0263366
0.0267863
-0.031799
-0.0351363
-0.0378995
-0.0554043
0.0295516
-0.079181
-0.243381
-0.0278869
-0.0614554
0.0169123
0.119446
-0.320222
-0.0466611
0.0565697
-0.0725204
0.0202036
-0.0621718
-0.036327
-0.115163
-0.0387436
-0.0191775
-0.00847872
0.0306231
-0.116094
0.0328124
0.0497933
0.0223765
-0.036425
-0.0202025
-0.00200064
0.0152154
0.136958
-0.0783681
-0.128052
-0.14971
0.0743361
-0.266195
-7.47827e-05
-0.227597
-0.0506511
-0.0196144
-0.0433029
-0.198691
0.0306591
0.0172282
0.0223467
-0.0274762
-0.136201
-0.028008
-0.0345741
-0.0445042
-0.169881
-0.324333
0.103356
-0.036213
0.0162177
-0.162374
-0.0881818
0.0214578
0.0289542
-0.0470217
-0.0873534
0.0334609
0.0486158
-0.0435271
-0.0190133
-0.00201807
-0.027735
-0.0534143
-0.208743
-0.252617
-0.0311456
0.0178593
-0.0337826
-0.0243149
-0.0191136
0.0169313
-0.0432776
-0.0017905
-0.00229569
-0.224832
-0.00832989
-0.330095
0.012932
0.0572043
-0.044234
-0.0297555
-0.082907
-0.00838931
-0.0464288
-0.0421651
-0.0410619
0.0278228
0.00540356
0.0263288
-0.0166508
0.00741933
-0.045741
-0.031592
-0.254309
0.111326
-0.0382874
-0.0402538
0.0177049
-0.0365502
-0.280803
0.03621
-0.0423995
0.051444
-0.00955796
0.0259081
-0.0501939
-0.00161281
-0.1099
0.0199279
0.184033
0.0199503
-0.0345453
-0.0373397
-0.0807013
0.0402063
-0.0380415
-0.028309
-0.03539
-0.0384917
-0.249495
-0.044536
-0.0441207
-0.32047
-0.0416649
0.0479383
-0.0303846
-0.141589
-0.0368543
-0.0411935
0.0679993
-0.0373588
-0.0433294
-0.0535429
-0.0257898
0.0262586
-0.043809
-0.0250475
-0.109641
-0.0370098
0.00337234
-0.00362418
-0.0405119
0.066058
-0.113915
0.0313344
0.0337571
0.003928
-0.103335
0.0263535
-0.140159
-0.0294574
0.0169535
-0.0190014
-0.00921577
-0.0633521
-0.101114
-0.0523396
0.0863045
-0.0195579
-0.0412592
-0.332851
0.0965206
0.0350168
0.0244693
0.150809
-0.036436
0.0166158
-0.0230992
-0.0400548
-0.0255517
0.0193482
0.062441
-0.0433599
-0.0343693
0.00639477
-0.30909
-0.22687
-0.0300213
-0.0299219
-0.0351624
-0.0608569
-0.0742244
-0.332557
-0.028702
-0.0492481
-0.0602575
-0.322585
0.0249167
0.0216304
-0.0290399
0.0105009
-0.0292156
-0.0412164
-0.0513362
0.019492
0.0227855
0.0278707
-0.0379224
-0.0554986
0.0290902
-0.0793603
0.00278255
0.0422756
-0.268382
0.0260576
-0.233004
-0.0217312
0.0303998
-0.0345114
-0.00236855
0.177899
0.0161879
-0.0310782
0.0169066
-0.0292223
-0.0166324
-0.0345648
0.00380867
0.000411223
0.0321815
0.0153564
-0.274355
-0.111728
-0.0368848
-0.109436
0.03546
-0.174798
-0.0356747
0.00210165
-0.0391215
-0.0414669
-0.00403115
0.0170544
-0.0507323
-0.135336
-0.0684396
-0.04741
0.0246871
-0.00954435
-0.111475
0.0264308
-0.0742437
0.0171512
-0.106182
0.0185246
0.0172746
0.0281326
0.000756581
-0.0357076
-0.0607881
-0.0813445
-0.0020853
-0.0254718
-0.178049
0.0767426
-0.0278827
-0.0286706
-0.0305636
-0.04766
0.0145517
-0.280467
0.156709
0.0444553
-0.00250708
-0.0777372
-0.0957518
0.002132
-0.0922049
-0.310241
-0.0621856
0.0224474
-0.00134602
3.92642e-05
-0.0295932
-0.0150811
0.00358635
0.0741972
0.00793518
-0.0391033
-0.00191094
0.033418
-0.0228873
0.0250524
-0.0261016
0.0150975
-0.0547513
-0.0412583
-0.158499
-0.0371545
-0.0808553
-0.0717451
-0.043636
-0.0298394
-0.117684
-0.0627291
0.0305091
-0.1243
-0.0472673
0.0509083
0.123632
0.0212063
-0.334786
0.0120641
-0.041281
-0.119615
0.0230608
0.0438429
-0.088203
0.0127044
-0.168886
-0.0544812
-0.0367439
-0.226842
-0.0601863
-0.0015632
-0.0361638
-0.0175238
0.0057432
-0.0362798
0.0453567
-0.0391687
0.0242398
-0.143756
0.00240382
0.0557812
0.0212038
0.0786072
0.163726
-0.0323769
-0.0464721
0.0159207
0.015859
-0.0489635
-0.230795
-0.0176082
0.0167387
0.00834038
-0.0492452
0.00368737
-0.0339618
0.0258466
-0.0399426
-0.0851044
-0.0327493
0.0254082
0.015739
0.02675
0.0258434
-0.237923
-0.0318256
-0.0322599
-0.0700213
0.105401
-0.0333652
0.0284767
0.0244361
-0.0513655
-0.0313587
-0.00479585
-0.0353017
-0.0380064
-0.0188176
-0.210447
-0.0249389
-0.284579
0.0288231
-0.111397
-0.0633547
-0.0352436
-0.0387993
-0.0450804
-0.0424188
-0.28273
0.00773593
0.0366757
0.0298296
-0.1652
0.015114
-0.188097
0.229362
0.0338949
0.0220619
0.0335618
-0.0332742
0.0318349
0.0457927
0.019329
-0.0409883
-0.17984
-0.044814
-0.103034
-0.147195
0.00208337
-0.093555
-0.0450799
-0.222357
-0.0358312
-0.107342
0.0704332
-0.144499
0.0178278
-0.035044
0.189147
0.0137112
-0.0349939
-0.0327367
-0.0330963
-0.0301848
-0.050477
-0.0341481
0.0587993
-0.15641
0.0143621
-0.174898
-0.150263
-0.0323317
-0.0955771
0.133078
-0.169599
0.0359793
0.0191568
-0.31228
0.0291692
-0.0301116
0.0156589
0.0224617
0.0169295
-0.0394707
0.0265773
0.00280618
-0.0535999
0.0294541
-0.0382531
0.0136552
0.127273
-0.0181692
0.193422
0.0273007
0.25807
-0.147684
-0.103813
-0.0421545
-0.0469257
0.0667729
-0.0859165
-0.0416063
0.111249
0.0280024
-0.263312
0.0729898
-0.0751209
-0.0285748
-0.149726
-0.211768
-0.0687655
0.0264028
-0.0266737
-0.0345922
-0.0305674
-0.0408336
-0.0363493
-0.041669
-0.0428086
-0.0438814
-0.0422159
0.0109645
-0.0318334
-0.0383631
0.0196638
-0.0110732
-0.0591974
0.000843517
-0.0987402
-0.306662
0.0283978
-0.0411896
-0.00263079
-0.0375821
-0.0102662
0.0199277
0.0199528
-0.0960094
-0.0309443
0.0176522
0.01368
0.0948572
-0.205953
-0.0786992
0.0308817
0.00437719
0.00326222
0.0255113
0.0284843
0.0402152
0.0582604
0.228314
-0.219529
-0.0379741
-0.0478135
0.0637352
0.0268208
-0.0133139
-0.170782
0.124536
-0.0825408
-0.0369756
0.0200687
-0.171866
-0.0436112
-0.0411226
0.0294054
-0.0925632
0.0553364
0.0264033
0.0594123
0.00150694
-0.0411921
-0.0533836
0.109078
0.0172216
-0.0320725
0.020747
-0.0570343
-0.266567
0.0254978
-0.187359
0.0103319
0.0128989
0.0325921
0.020407
-0.0128387
0.0405987
0.00759284
0.0304076
0.00466493
0.0529171
0.011856
-0.0311363
-0.00318991
-0.0373495
0.0190855
0.0572098
-0.0386741
0.0658298
-0.0601644
-0.0309425
-0.336958
0.0139137
-0.00917489
-0.035647
0.0600474
0.0193154
-0.0217091
0.0223604
-0.0261239
-0.043726
-0.103508
0.00239866
-0.0387819
-0.176479
0.0151824
-0.0419491
-0.0154866
-0.109128
0.0940582
-0.0498143
-0.0710848
-0.246376
0.0104187
-0.144958
0.082547
0.0191797
-0.0503528
0.0240702
0.0228475
0.0398652
0.016634
-0.0404283
-0.0559866
-0.00250396
-0.207294
-0.110759
0.0147859
-0.176959
-0.0506149
-0.038556
0.0789077
-0.330235
-0.0965536
-0.0292393
-0.04725
-0.0082949
-0.171961
0.0278277
-0.0439338
-0.0749815
-0.329678
0.0329363
-0.0484002
0.0242252
-0.037138
-0.0409214
-0.168631
0.0365324
-0.0300343
-0.2253
-0.00349383
-0.0318468
0.0983124
-0.237785
-0.0397284
-0.0391077
0.0203889
-0.0852472
0.0300691
-0.0396457
-0.0326196
0.0304901
-0.0704598
0.0322392
-0.150646
-0.0430143
0.0315016
-0.197342
-0.0162914
-0.00177061
-0.0690483
-0.00749965
0.0303692
0.0235951
-0.0320291
0.0272354
-0.328392
0.0262526
-0.0235819
-0.000272828
0.0575366
0.026754
-0.287002
-0.0849659
-0.0412441
0.0464182
0.0230475
0.0265711
-0.0131435
0.0224953
-0.0639808
-0.192459
-0.000415788
-0.0279823
-0.182668
-0.0404736
-0.0429789
0.0136259
-0.0672596
0.0438579
-0.0145159
-0.0384727
0.0193712
0.0322597
-0.0384657
0.00573489
-0.0175162
-0.0409688
0.0147024
-0.0403085
0.104459
0.0179088
0.050585
-0.0359238
-0.0848759
-0.0640432
-0.0204948
-0.0383331
-0.019488
0.0152687
-0.163184
0.0228314
-0.0411218
-0.034957
-0.13032
0.162114
0.0140105
-0.0437599
-0.00161008
0.159011
0.045642
0.119273
0.0286171
0.0349067
-0.0342933
0.0268412
0.0264658
-0.0618571
0.00195229
0.022339
-0.00135137
-0.285372
-0.0986491
-0.026574
-0.319477
-0.0884605
0.0252554
-0.0459127
-0.0533563
-0.0288179
-0.313782
-0.0345368
0.00106928
-0.163884
-0.0455433
-0.328746
0.0214464
-0.040261
0.0265598
-0.0892593
-0.00320583
0.0181476
-0.335495
0.0226004
0.0124653
0.0194724
-0.0410394
-0.336784
-0.0818763
0.016833
-0.0411257
0.0323613
-0.274514
0.0163519
-0.0101281
-0.0725045
-0.0122875
0.0351435
-0.11118
0.0298124
0.0264039
-0.0335014
-0.0341867
0.00394937
-0.0293115
-0.00264519
0.0330976
0.0146095
-0.00119559
0.0316879
-0.0743522
-0.0664181
0.0443231
0.108209
0.0419692
-0.0309152
0.0191343
0.0224237
0.0564499
-0.0292596
-0.0346203
0.0251739
0.0189155
-0.212663
-0.0310051
0.013916
0.0483404
0.0328177
-0.0354231
-0.329555
0.0589117
-0.0471408
0.0284324
0.00201774
0.0143914
0.0163342
-0.0342212
0.0606932
0.00513392
0.0160793
0.00432213
0.0184149
-0.0316974
0.0107007
-0.312797
0.0355963
0.0562466
-0.0418716
0.0189274
0.0156658
0.00912096
-0.0411237
0.171916
-0.0357179
0.0594476
-0.0444862
-0.0412534
-0.00299677
0.150619
0.0234408
0.0380601
0.0537618
-0.141681
0.033287
0.0303052
-0.0796965
-0.0291023
0.0217407
-0.190611
-0.206898
-0.0198906
0.023028
-0.0381422
-0.0396333
0.0212403
-0.0336467
0.028955
0.0356729
-0.00647612
-0.0329056
0.0183815
0.0263753
0.0142802
-0.0199686
-0.143493
0.178426
-0.0400386
-0.0496731
0.0555518
-0.0303221
0.105411
-0.0383079
-0.15224
-0.0984988
0.00450278
-0.0588936
-0.0126277
0.0111443
-0.0420742
-0.0411792
-0.0362975
0.0570498
-0.0433596
-0.0731702
-0.181059
0.0278743
0.0477293
-0.064144
0.0183528
0.016
-0.0405743
-0.0810748
-0.0792706
-0.0273693
0.00490587
-0.0555931
0.0330994
-0.0346177
-0.0676343
0.0254735
0.0189976
0.0186249
-0.181753
0.0180704
0.0259132
-0.286305
-0.0490786
0.00368872
0.0489401
-0.0419496
0.0259314
0.0383268
0.0205714
-0.021438
0.002979
-0.0343417
-0.0386573
-0.0823846
0.00128063
0.0342972
-0.0315847
-0.000467406
-0.0424189
-0.0527495
-0.130158
-0.0329144
-0.0461607
0.0329032
0.0288158
-0.0572764
0.00795827
0.07201
-0.304128
0.0455775
-0.00923719
0.0168714
0.00098513
0.0169176
-0.0343841
-0.029196
-0.0108806
-0.0176182
0.0318024
0.0276105
0.0136232
-0.0761233
-0.0425233
-0.000738809
-0.02825
0.00456737
0.0407516
-0.0470272
-0.0478724
0.0251022
-0.0424565
-0.323748
-0.00728271
0.00395171
-0.00927104
0.00447598
-0.0367934
-0.0671657
-0.00369915
-0.0851826
0.0213826
0.0296637
0.0300126
-0.0816113
-0.106288
0.0194258
-0.0600378
-0.0456359
0.0619444
0.011379
-0.227212
-0.0323857
0.00268756
-0.0314788
-0.020079
-0.0410982
0.0186452
-0.0161591
-0.085141
-0.0343087
0.0140169
-0.029709
-0.313835
0.0159944
-0.0575954
-0.0135265
-0.0553486
0.0246702
-0.0153612
-0.0305093
0.148888
0.050859
-0.164588
0.0249862
-0.039329
-0.00807327
-0.0420681
-0.0373532
-0.324155
0.0395483
0.0191127
-0.323137
-0.179964
0.0060122
-0.0398178
-0.0106144
0.0207469
0.000886281
0.0164176
-0.337553
0.0262103
-0.0779489
-0.0371004
0.0166571
-0.049017
-0.0281229
-0.0324191
0.020391
-0.0247836
0.0155959
-0.0542352
0.0332002
0.0257386
-0.042519
-0.0757931
-0.271562
-0.0394434
0.0189921
-0.0367623
0.0946489
-0.0418731
0.0454076
-0.0451721
-0.0926318
-0.00329139
-0.15475
0.00818058
0.0224537
0.0267331
0.0242525
-0.0399626
-0.043855
0.0029871
0.00326633
0.0312301
0.026655
-0.0380303
-0.304477
-0.0423661
-0.018115
-0.0693733
0.000893157
-0.0552276
-0.04146
0.0162153
-0.10672
0.0211933
0.162037
0.174676
-0.036102
0.0234599
0.0264578
0.0431513
0.0265438
-0.0342507
-0.0460941
-0.0261597
0.0532357
-0.0089699
-0.0555747
0.0163265
0.0197946
0.0195528
-0.0422761
-0.00803905
-0.0590855
0.01037
-0.125935
0.0386966
-0.0204149
0.0156551
-0.0500264
-0.000365346
0.0198383
-0.0305174
0.0207165
-0.0499171
-0.0403328
0.0699286
0.0185786
-0.0379818
0.0825572
-0.0571608
-0.00834326
-0.114772
0.0210199
-0.0497155
-0.038796
-0.0675434
-0.00528939
-0.0383883
0.0377559
-0.00521094
-0.101612
0.00106433
-0.0448692
-0.0260273
0.0236416
-0.112606
0.0161389
0.0255786
0.000465591
-0.143015
0.00126675
0.00254079
-0.299387
-0.0401755
-0.036246
0.0124438
-0.0403507
0.00780581
-0.0412218
-0.0301551
-0.0581417
0.0319302
0.0196593
-0.158688
0.0190324
-0.0717584
0.0190114
0.0262414
-0.0421352
0.00591524
-0.0425682
-0.0430662
-0.286468
0.0188836
0.0542596
0.0314948
-0.0593911
-0.0603046
-0.0493908
-0.0494747
0.0274947
-0.301589
-0.0847277
-0.043454
0.0169625
0.0682191
0.0166052
-0.0388793
0.0475641
-0.259277
-0.0292148
-0.0452091
-0.040915
-0.169463
-0.067364
-0.104357
0.0195893
-0.00257352
0.0170984
-0.107428
-0.0197035
0.0188281
-0.147399
-0.0376668
-0.145033
-0.017025
-0.0129869
-0.0737797
-0.288551
-0.289914
-0.0496813
0.162407
-0.0846341
-0.0406757
0.0112208
-0.0399342
-0.0403356
-0.319499
-0.139573
-0.0494883
0.0166514
-0.18988
0.0323799
-0.0642476
0.0126717
0.0274604
-0.0416907
-0.0403516
0.0166078
0.0956898
-0.0715167
-0.078547
0.144331
0.0162368
0.0256541
-0.112927
-0.0371436
0.149749
-0.120172
-0.32264
0.0200937
0.019814
-0.0360256
-0.0368643
0.0372782
-0.0230708
0.00345478
-0.143845
-0.069046
-0.0426141
0.0315412
0.123404
-0.0854505
-0.0478884
0.0218656
0.00157059
0.0983615
0.0192273
-0.0372142
0.0570995
0.0293939
0.0275291
0.0245383
-0.0273218
-0.0434468
0.00854393
-0.19041
0.0286899
-0.0756747
0.019097
-0.03613
-0.1831
0.0281177
-0.0261159
0.0420294
-0.302845
-0.0307133
-0.0146456
0.0109009
0.0916894
-0.0119716
0.0379341
0.0188323
0.012799
-0.0375921
-0.0460169
-0.101147
-0.0331867
0.0278544
0.172158
-0.232137
0.0193372
0.0115916
-0.134125
0.0178107
-0.0447351
0.0171813
-0.0395161
-0.0546492
0.0184468
-0.040242
-0.0410313
-0.210393
-0.0312444
-0.00501091
-0.0547467
0.00554942
-0.103873
-0.0240038
-0.0037325
-0.0495186
-0.0347073
0.0137282
0.0379221
0.0319022
-0.16258
0.0207466
0.00201959
0.0190235
0.00581919
-0.0361621
-0.0270926
0.183202
0.0138422
0.0557133
-0.121834
0.025772
-0.0359783
-0.0634105
-0.00479455
-0.0404596
-0.128914
0.00180394
-0.0235376
0.00292371
-0.229095
-0.0033875
-0.0595023
0.0369744
0.0262818
-0.0954456
-0.0959898
-0.037376
-0.223497
-0.0312946
-0.287345
0.00239971
-0.0361277
-0.0350007
-0.041349
0.145067
-0.184329
0.0380101
-0.238828
-0.176104
-0.0573437
0.0217622
-0.0513624
-0.0769491
-0.203813
-0.162311
-0.0810928
-0.00551866
-0.0352256
0.000921209
-0.0315016
0.0200745
0.0494406
-0.0265875
-0.0347001
0.0057705
0.023253
-0.132382
-0.099643
-0.0403571
0.000286358
-0.33127
0.0307511
0.0603571
-0.0339933
0.0123281
0.0236228
0.0217897
-0.0411756
-0.0948257
-0.0764199
-0.00247357
0.0113057
-0.32837
0.0159924
0.0690386
0.0262534
-0.0030145
-0.035833
0.058642
0.244345
-0.0352821
-0.0761675
-0.015247
0.0241051
-0.0148852
-0.0347742
-0.0293284
-0.0412722
-0.0430062
-0.110037
-0.0418508
-0.335235
0.0212661
-0.0368494
-0.03593
0.0240486
-0.0387766
0.0191624
-0.140513
-0.00264092
-0.230567
0.0191767
-0.0310602
0.0282646
-0.0458006
0.00152249
-0.128731
-0.119999
0.13031
-0.0413859
-0.0307109
0.0171905
-0.034579
-0.00214802
-0.0402533
0.119001
0.017887
-0.321578
0.0890788
-0.33235
-0.323871
-0.21486
-0.0300557
0.00224691
-0.152572
-0.0396134
0.147872
0.0626883
-0.302266
0.0232058
-0.00983356
-0.0246241
-0.217348
-0.0324994
-0.171529
-0.066424
-0.111991
-0.00946521
-0.236058
-0.104616
0.0268168
0.0327242
-0.236959
0.0523586
0.0321571
-0.0561347
-0.335095
-0.0401752
0.00561968
0.0355589
0.00704989
0.0232109
-0.0378764
-0.150845
-0.0298312
-0.046144
1.20338e-05
-0.0413394
-0.0745279
-0.199551
0.00271157
0.0210686
-0.0388005
-0.0460278
0.0194335
0.0166163
0.0291946
0.0228185
0.0292379
0.031911
0.0175593
-0.033311
0.0283542
-0.0514111
-0.0183818
-0.176801
-0.036499
0.0741097
0.000686651
-0.0113692
0.218143
-0.314416
-0.000584759
-0.219438
-0.00649379
0.159457
-0.176782
-0.0283753
-0.335717
-0.0373101
-0.0171061
-0.058379
-0.0347778
-0.0464315
0.0273061
0.00484254
-0.204988
0.0204784
-0.156792
-0.140661
-0.0399831
-0.0493834
-0.178091
-0.0248664
-0.048914
-0.0204877
0.0298136
-0.0531398
-0.0757652
-0.0160506
-0.0409009
-0.0180225
0.04236
0.112669
0.0280109
0.0276811
0.0936811
-0.0402993
0.157685
-0.040759
0.0149523
-0.0317268
-0.000586345
-0.0358426
-0.00822982
-0.0738798
-0.0455397
-0.0364831
0.0267288
-0.236972
0.0198113
0.0172629
-0.041963
0.0377888
-0.135137
-0.047423
-0.336792
0.105008
-0.0366167
-0.0965296
-0.0610001
-0.0369121
0.00372337
-0.0256485
0.0163502
-0.0366468
0.00269253
-0.336814
-0.0379315
-0.0582802
0.0220159
-0.115128
-0.0395574
-0.151447
-0.267156
-0.0695287
-0.0611681
0.0294089
-0.143916
-0.0393779
-0.03733
-0.0346082
-0.0360652
0.0919492
0.0444577
0.0246478
-0.0896276
-0.00057519
0.0238342
-0.224311
0.0264957
-0.041437
-0.334832
-0.041111
0.0137335
-0.158108
-0.112951
0.0226682
-0.0412882
-0.302636
-0.11303
-0.0777858
-0.0401922
0.166523
0.145546
0.0612633
0.0211971
0.0327338
-0.0358983
-0.0365858
-0.10236
-0.0420309
0.0260757
-0.00931367
-0.0516958
-0.0491826
-0.0019441
0.0230245
-0.0399567
-0.0293516
-0.0342224
-0.0239387
-0.0341902
-0.0162116
-0.0236373
-0.144226
0.00418616
0.0384535
-0.0595939
-0.21659
0.0251255
-0.0314636
0.0185411
0.0565453
-0.0439677
-0.186854
-0.031684
0.0148017
-0.0699913
-0.0435128
0.066507
-0.0408404
0.123115
-0.0491693
0.00805885
0.0184167
-0.317051
-0.073191
-0.049393
-0.231113
-0.0693862
-0.300405
0.0126722
-0.068001
0.0294207
0.0194344
0.064802
-0.319077
-0.0382756
0.0180756
-0.0101076
-0.332197
-0.0268435
-0.0335789
-0.254823
0.00338871
-0.0758383
0.027386
-0.163751
-0.0732466
-0.0421223
0.0372245
0.0171569
-0.0982937
-0.0426992
-0.0512507
-0.0732558
-0.0588019
0.144425
-0.0488797
-0.0336841
0.0215445
0.0152257
0.182134
0.0124737
-0.0971118
-0.0528021
0.127248
0.101385
-0.105112
-0.0585614
0.0263116
-0.164925
0.0207966
0.0186109
-0.0510943
-0.0412678
0.170575
0.109238
-0.0252304
-0.0605655
0.0160766
-0.0404793
-0.0692815
-0.0489315
-0.163352
0.253148
0.0494866
-0.0636886
-0.331821
-0.052103
-0.0679718
0.0258963
-0.0658335
0.0322373
0.00937362
0.0375273
-0.0262742
-0.045888
-0.0357345
0.00208705
0.0990239
-0.0357113
-0.0502971
-0.00387256
-0.0414862
-0.0561068
-0.159933
0.0342699
-0.0184711
-0.0438629
-0.0418245
-0.0378388
-0.0596878
0.040878
-0.0309359
0.158338
-0.170204
0.00858661
-0.0304424
-0.0530813
0.0340627
0.0285712
-0.0345437
-0.0400637
-0.0399529
-0.0304074
-0.0490062
-0.0742359
-0.0264836
-0.0358846
-0.124563
-0.0407201
-0.0374495
0.0187588
-0.0395729
0.0152501
0.0294374
-0.0873285
-0.053594
-0.286121
-0.142272
-0.0408736
0.107115
-0.0503171
-0.0322171
-0.00239295
-0.061005
-0.0476046
0.0116965
-0.250255
-0.0619467
-0.0295205
-0.0314285
-0.0478554
-0.0162307
-0.0392147
-0.00235056
0.018885
-0.0519227
0.0253935
-0.0605194
-0.0368179
-0.0219177
-0.0266866
-0.0320184
-0.038831
0.100481
-0.07523
-0.0375772
-0.094688
0.0196837
-0.0371721
-0.0114144
-0.0422851
0.0482129
0.0572393
-0.0401431
0.0468019
0.00188293
-0.0959541
0.00889286
0.016729
-0.0288276
-0.0425023
-0.0939741
0.0162581
-0.0258637
-0.159358
0.020079
-0.313008
-0.0345274
-0.0431113
-0.0358633
-0.0357824
-0.16367
-0.0654284
-0.00562706
-0.0442361
-0.126238
-0.0614198
0.0830825
-0.0356703
-0.00968034
-0.0377961
-0.0419926
0.0122015
-0.163398
-0.0395788
0.0277706
-0.0753496
-0.0422745
0.0490811
-0.00890201
-0.0394738
0.0154762
0.0166984
-0.0176845
0.0334266
-0.0984621
-0.0344611
-0.0479015
-0.000625342
-0.0462902
-0.0349613
-0.0129684
-0.0657023
-0.0514342
-0.0971272
-0.00837908
0.0135808
-0.0596011
-0.0594225
0.0535941
-0.216591
-0.00478649
-0.0772733
-0.0735889
-0.0456777
0.0194169
-0.0428697
0.0298296
-0.0339338
-0.00173248
0.0245203
-0.0240861
-0.032476
-0.043042
-0.0308894
0.0216106
-0.268608
-0.0311502
-0.0641678
-0.16646
-0.0378549
0.0249703
-0.201665
0.0838912
-0.110438
-0.0590638
0.0164118
-0.0494482
0.00382198
-0.00633983
-0.031786
-0.0466108
-0.202384
-0.071182
-0.0524193
0.0822594
-0.0341453
-0.183342
0.0230894
-0.0147093
-0.0225676
-0.0693956
-0.178863
-0.181658
-0.00105933
-0.0342249
0.017133
-0.268867
-0.0403427
-0.313379
-0.0133203
-0.0418209
-0.0436
0.0761339
-0.0479961
-0.0228507
-0.0164869
-0.0451837
-0.0561161
-0.0336488
-0.0423902
-0.0102206
-0.0320321
-0.320723
-0.039662
-0.0319243
-0.0385411
-0.0311624
0.0734149
-0.0232276
0.0106483
0.0272612
-0.0464928
-0.0860775
-0.0420562
0.00503195
0.0218718
0.0438044
-0.141022
-0.0679126
-0.044413
-0.0322678
0.022529
-0.0354673
-0.105386
-0.042594
-0.0360375
-0.0280147
-0.0318615
0.0278731
0.0443569
-0.0385441
-0.273282
-0.0228734
-0.0324771
-0.0356999
-0.0344702
-0.0364895
-0.0967503
-0.0404129
-0.0329054
-0.0356977
-0.0964279
-0.00620403
-0.0410783
-0.305577
0.0298705
-0.0643031
-0.0399244
0.0380808
-0.242317
-0.0483073
0.00197856
-0.0570184
-0.0313415
-0.135668
-0.0215008
-0.216815
-0.0850433
-0.0111403
-0.314752
-0.071822
-0.0358838
0.0989353
-0.0372629
-0.0426764
-0.0814878
0.183101
-0.0407172
0.0201955
-0.307129
-0.021369
0.040384
-0.0181351
0.00269667
-0.1246
-0.00585286
-0.0663282
-0.0323291
-0.0473203
0.0118554
0.0238448
0.0315482
0.00121238
-0.0664136
0.000639326
-0.0568519
0.145088
-0.314285
0.0163463
-0.132186
0.0125218
-0.241404
0.00464692
-0.157548
-0.0296985
0.117558
-0.0614806
-0.0349897
0.0212414
0.0274002
-0.105995
-0.0551053
-0.0648962
0.0161994
0.0729218
-0.0465449
-0.0402798
-0.0661374
-0.042919
-0.0404048
-0.0467011
-0.213709
-0.0392946
-0.071073
0.00115204
0.118571
-0.0313901
-0.0411935
-0.12642
-0.195802
-0.0343745
0.0248207
-0.0516331
0.120098
0.00905045
-0.0421299
-0.0238844
0.0363799
0.0122086
-0.0551392
0.0101592
-0.041494
-0.0866763
-0.0560631
-0.0716003
-0.0246543
-0.0564874
-0.0486831
-0.237318
-0.0841848
0.0143641
0.0150463
-0.0517116
-0.0555399
-0.0289801
-0.0569755
-0.0462044
-0.031449
-0.00578275
0.203794
-0.284058
0.0273081
-0.0224643
0.00337867
-0.0487363
0.00120542
0.0198655
0.028668
-0.0345729
-0.0394649
-0.0372296
-0.321697
0.0212879
-0.100244
-0.0494439
-0.0438361
0.0288556
0.0278237
-0.0378058
-0.0418487
0.0755414
-0.0819389
-0.0157779
0.0117163
-0.0462517
-0.0421143
0.0310936
-0.10668
-0.0310614
-0.0327724
0.0214549
-0.0341351
0.0692843
-0.124794
-0.0553419
0.019707
-0.148717
-0.0350712
0.03951
-0.0449142
-0.0169273
-0.0330302
-0.0919058
0.00619161
0.00262409
0.0182783
-0.0588854
-0.0434025
-0.00555751
-0.0435563
-0.03318
-0.0109657
0.00300728
0.0566547
-0.0437042
-0.0249807
-0.0311514
-0.0325634
0.0293089
-0.210408
0.00984715
-0.0131239
-0.0387567
-0.033118
0.00627945
0.00250299
-0.0455517
0.0239789
-0.0221353
0.0265142
0.0992373
0.00652346
0.0039839
0.0103348
-0.00449975
0.0185256
0.00464791
0.054249
-0.0353717
0.0258293
-0.0744697
-0.296105
0.0314307
-0.006302
-0.0290994
0.0346602
0.0105256
-0.00277873
-0.0571964
0.0527755
0.0207409
-0.148895
-0.00331676
0.00411105
-0.0491894
-0.0712615
-0.0375737
0.01846
0.0012239
0.221246
-0.0903823
-0.0341498
-0.315991
-0.0260473
0.0824291
-0.092819
-0.277674
-0.231507
-0.0385339
-0.239927
0.0292379
0.0353797
0.00395276
0.00429062
0.11798
0.018441
-0.323914
-0.0420291
-0.132679
-0.0660575
-0.230317
-0.0378513
0.00131093
-0.00893263
-0.097977
0.0228851
-0.0666178
-0.232843
-0.00176223
-0.320986
-0.0885856
0.0128733
-0.0456575
-0.116123
0.198047
-0.253022
-0.0348874
-0.0337233
-0.0358208
-0.279519
-0.102033
-0.0335579
-0.0371647
-0.033594
-0.0148024
-0.26344
-0.313887
0.00618132
0.0252033
-0.0357287
0.257421
-0.163307
0.00808908
0.0329676
-0.330047
0.026815
-0.0174724
-0.0334456
-0.251581
-0.0382117
-0.289735
0.0166327
-0.207046
0.0264967
0.0054962
-0.000595931
0.111088
-0.0922978
-0.0654394
0.00875691
0.027116
-0.0978973
0.093928
-0.0620206
-0.197958
0.0228274
0.0263602
-0.0163035
-0.0382393
0.0266027
0.0229161
0.0284173
0.161585
-0.038905
0.0320623
0.0192413
-0.271235
-0.124414
-0.000445284
-0.0417674
-0.0643518
-0.206028
-0.114606
0.0633502
-0.0409738
-0.199113
-0.0537144
0.00403088
0.0434782
-0.337705
-0.335668
0.026194
0.0905515
-0.040613
-0.0351549
-0.0301601
-0.0358058
0.0186579
-0.187144
-0.332137
-0.0425942
-0.0289511
-0.308177
-0.338169
0.00145865
-0.0352324
0.0275638
0.0633592
-0.123061
0.00780484
-0.0299484
-0.0347202
0.0256355
0.1094
-0.0302424
-0.0416161
-0.00415821
0.00528782
0.0204849
0.0715692
-0.313133
0.0158473
-0.0566823
-0.108984
-0.0288656
-0.0289365
-0.29441
-0.0341645
0.00311741
0.00952425
-0.00204016
-0.0136207
-0.136834
-0.0447814
0.0834456
-0.0290386
0.0103352
-0.100351
0.0122767
0.026171
0.00737587
0.102847
0.0157491
-0.306581
0.0135629
0.0283085
-0.00508536
-0.034782
0.0971912
0.00387424
0.0172258
-0.029906
0.04382
-0.0961049
0.000657067
-0.108526
-0.0354251
0.0759325
0.0012329
0.0367895
0.0220739
-0.059987
0.127547
0.0132513
0.00807119
-0.303599
-0.314672
0.245589
0.00875402
0.0313578
-0.0420845
0.161087
0.0186519
-0.0372215
0.00619511
0.124716
0.0254689
0.115189
-0.0327478
0.0361376
-0.0145073
-0.0936784
-0.181308
0.0255836
-0.101636
0.0731535
-0.17053
-0.0310199
0.0876999
-0.232372
-0.0979433
-0.0834259
-0.086446
0.0162097
-0.0856911
-0.0167573
-0.00232672
-0.0308832
0.0248544
0.00748726
-0.131217
-0.0247027
-0.116543
-0.298511
-0.0348105
-0.123138
-0.153157
-0.112251
0.0289452
0.014005
-0.0426118
-0.0209804
-0.330854
-0.0332351
0.0238307
-0.0159146
-0.0506332
-0.166101
0.0132122
-0.0377102
-0.0481257
0.00476493
-0.0683385
0.00659253
0.0321535
-0.0418616
0.00705345
-0.0362337
-0.0691507
-0.0396407
0.120807
-0.0636397
-0.160798
-0.0600881
0.0429743
-0.0898348
0.0034186
-0.0687426
-0.328526
-0.0249328
-0.076599
-0.00275514
-0.223335
0.102918
-0.163667
-0.0577367
0.00393641
0.136093
0.234571
-0.0398918
-0.0669819
-0.317751
-0.0660948
0.0260905
-0.0459433
0.0437307
-0.0416108
-0.0389177
-0.0370527
-0.0383149
0.00507269
-0.0549304
-0.0124789
-0.0286821
0.0206143
-0.0479334
-0.0307524
0.018828
0.0175294
-0.0425975
-0.333682
0.00674089
-0.0501254
-0.0173048
-0.0362359