/*--------------------------------*- C++ -*----------------------------------*\
| =========                 |                                                 |
| \\      /  F ield         | OpenFOAM: The Open Source CFD Toolbox           |
|  \\    /   O peration     | Version:  v2012                                 |
|   \\  /    A nd           | Website:  www.openfoam.com                      |
|    \\/     M anipulation  |                                                 |
\*---------------------------------------------------------------------------*/
FoamFile
{
    version     2.0;
    format      ascii;
    class       surfaceScalarField;
    location    "150";
    object      phi;
}
// * * * * * * * * * * * * * * * * * * * * * * * * * * * * * * * * * * * * * //

dimensions      [0 3 -1 0 0 0 0];
oriented        oriented;


internalField   nonuniform List<scalar> 
20424
(
-0.571351
0.592923
-0.0215721
-0.0674292
0.100934
-0.0335051
-0.350175
0.0207577
0.329418
0.150148
0.0229062
-0.173054
-0.202037
-0.0230537
0.22509
-0.130351
0.130391
-3.99938e-05
0.0912943
-0.120585
0.0292907
-0.208929
-0.0775883
0.359152
-0.247372
-0.11178
0.182025
-0.0318766
0.128687
-0.116982
-0.0117042
-0.548746
0.335143
0.213602
-0.145538
0.157097
-0.0115589
-0.0685357
0.0564278
0.0121079
-0.0241471
0.0379643
-0.0138172
-0.215764
-0.144045
0.287635
-0.14359
-0.064119
0.099603
-0.035484
0.298253
-0.59716
0.298907
-0.539921
0.338468
0.201453
-0.00805628
0.0019177
0.00613858
-0.0363697
0.0122225
0.0763174
-0.0630869
-0.0132305
-0.104652
0.114372
-0.00972024
-0.209817
0.00778026
-0.112247
-0.0398253
0.152072
0.0515704
-0.180586
0.129016
0.206607
-0.18761
-0.0189973
0.0958193
-0.469382
0.373562
0.242305
-0.0991608
-0.143145
-0.128824
0.103716
0.0251075
-0.0117562
0.016266
-0.00450985
-0.148243
0.144003
0.00423998
0.116515
-0.136444
0.0199283
-0.246693
-0.151485
0.398178
0.207521
-0.498021
0.2905
-0.369119
0.329103
0.040016
-0.140092
-0.155392
0.295484
-0.250351
0.216156
0.0341947
-0.117884
0.140852
-0.0229676
-0.138577
0.00822608
0.00418375
-0.00418375
0.130242
0.066981
-0.197223
-0.151739
-0.00575498
0.157494
0.030629
-0.094748
0.14748
-0.193054
0.0455742
0.111596
-0.391468
0.279872
0.127934
-0.113703
-0.0142304
-0.39564
0.330613
0.0650267
-0.0115197
0.0123585
-0.00083887
-0.125416
0.0207643
-0.00302754
-0.00502874
-0.142712
0.0248282
0.0221688
-0.0860796
0.0639108
-0.184169
0.00908567
0.175083
-0.0959603
-0.29968
0.147429
-0.0125373
-0.134892
-0.00261343
-0.145629
-0.180433
0.416077
-0.235644
-0.0334157
-0.0405873
0.0740031
0.387796
-0.213853
-0.173943
0.261693
-0.0871702
-0.174523
0.0207929
-0.0169128
-0.00388012
-0.287908
-0.260838
-0.114003
-0.151306
0.265309
-0.167361
0.194851
-0.0274902
0.18989
0.169262
0.160821
-0.300913
-0.121694
-0.0775147
0.199209
0.192001
-0.0445208
-0.0321043
0.0373205
-0.0052162
0.000447615
-0.468217
0.467769
-0.0908078
0.0573921
-0.212551
0.340319
-0.127768
-0.0840326
-0.0214547
0.0588693
-0.129256
0.0703866
-0.117544
-0.0845293
0.202074
-0.418028
0.237594
0.139755
0.0076735
-0.421496
-0.141495
0.562991
0.465529
-0.258009
-0.25942
0.24137
0.0180495
0.0165688
0.393644
-0.297825
-0.132836
0.146135
-0.0132994
0.133166
-0.111062
-0.022104
0.0125512
-0.0620523
0.049501
-0.0352052
-0.0509717
0.0861769
0.190527
-0.43722
0.137263
-0.111863
-0.0254001
0.243688
-0.464352
0.220664
0.084659
-0.0624902
-0.136132
0.247847
-0.111715
-0.0961283
0.0753684
0.0207599
0.0689001
-0.0208666
-0.0480335
-0.138627
0.120743
0.0178847
-0.151288
0.189465
-0.0381771
0.239959
0.218424
-0.458384
0.437461
-0.437013
0.066061
-0.233422
0.00190485
-0.000123659
-0.00178119
-0.220239
-0.277782
-0.137801
0.222432
-0.0846316
0.0283558
-0.0339824
0.00562655
-0.664388
0.435939
0.228448
-0.0037315
0.0320873
-0.0866262
0.123594
-0.036968
-0.241624
0.418207
-0.176583
0.13583
0.0014329
0.44687
-0.151682
-0.295188
-0.159836
0.494979
-0.0359021
0.166144
-0.123102
0.0364756
0.00638145
-0.00410399
-0.00227746
-0.00246031
0.00300008
-0.000539771
0.100469
-0.29557
0.195101
-0.524445
0.304206
-0.168553
-0.0156157
-0.030613
0.265704
0.47365
-0.27414
-0.19951
-0.213944
0.0050151
0.692429
-0.45649
-0.235939
-0.0110637
0.429855
-0.418791
0.18803
-0.48515
0.29712
0.0122937
0.188341
-0.200634
0.00281178
-0.0349161
0.0968879
0.0335029
-0.0213637
-0.00973455
0.0310983
-0.206591
0.0269336
0.179657
-0.0228336
-0.0679742
0.192426
-0.214096
0.0216706
0.0549538
-0.0680164
0.0130626
0.0545459
-0.0419947
0.0243434
-0.0948586
0.0705153
0.0827811
-0.172033
0.0892521
0.204993
-0.282859
0.0778651
-0.0935158
0.00948322
-0.141025
-0.237763
0.378788
-0.050808
0.209442
-0.158634
0.0154361
-0.00181947
-0.0136166
0.0906133
-0.123768
0.0331544
-0.0133399
0.14849
-0.13515
-0.149401
0.208048
-0.0586465
0.00922342
-0.00403765
-0.00518578
-0.559051
0.499877
0.059174
0.0154361
0.166358
-0.160836
-0.00552219
0.145371
-0.0477915
-0.09758
0.176955
0.120827
-0.297781
0.123093
-0.105137
-0.0179558
-0.574741
0.0156899
0.147024
-0.134798
-0.0122264
0.0314677
-0.0351992
-0.0195099
-0.0646478
0.0841577
-0.21037
0.19065
0.0197198
0.00736146
-0.00483607
-0.00252539
0.00925843
0.1571
0.163815
-0.174585
0.0107701
0.0343494
-0.101779
-0.230658
0.453627
-0.222969
0.0219248
-0.0155434
0.643018
-0.371858
-0.27116
0.00786473
0.00288167
-0.0107464
0.0755005
0.0685022
-0.558639
0.213049
0.34559
-0.240893
-0.0709294
0.311822
0.056754
-0.0919592
0.0135804
-0.363756
0.140953
0.101352
-0.174939
0.0294016
-0.211116
0.0617153
0.305765
0.141105
0.189588
-0.00958764
0.138828
-0.12924
0.218301
-0.280674
0.0623728
-0.0156245
0.106919
0.0972761
-0.0384068
-0.168152
-0.042218
-0.0293254
0.00796172
0.0265844
-0.0192093
-0.00737513
-0.328016
-0.336371
-0.0235515
0.140067
-0.165309
0.19369
-0.0283812
-0.00253649
-0.0681693
0.0707057
0.0508766
-0.0815286
0.030652
0.00124411
0.217057
0.00261487
0.00660856
-0.0916145
0.210132
-0.118517
-0.040795
-0.041516
0.0823111
0.278698
0.109098
-0.193374
0.0280656
0.0156574
0.0606601
-0.264093
0.175432
0.0886612
0.124475
-0.118956
-0.00551871
0.00296117
0.00228319
-0.00524436
0.0359826
0.0971831
0.136409
-0.0395215
-0.00736792
0.00818456
-0.466283
0.455219
-0.171121
-0.0354698
0.450366
-0.277824
-0.172542
-0.126523
0.0487191
0.0778036
0.151277
-0.134659
-0.0378903
0.172549
-0.0183131
-0.00459275
0.0229058
-0.144809
-0.105206
0.250015
-0.430029
0.237287
0.192742
0.129478
-0.00500258
-0.0774777
0.0617765
0.0157012
0.13984
-0.115705
-0.0241354
0.286716
-0.186247
0.0477375
0.0230717
-0.0708091
0.00864833
-0.00864833
-0.0289582
-0.0522129
0.0811711
0.164868
-0.113298
-0.109183
-0.0168267
0.126009
0.023255
-0.0227338
-0.000521178
0.134084
-0.115496
-0.0185884
0.0210182
-0.0203495
-0.000668707
-0.174671
-0.29471
-0.0899744
0.0209091
0.0690653
-0.197293
0.0626338
-0.0617362
-0.0329617
-0.043068
0.0760297
0.0106613
-0.129377
0.118716
-0.082914
0.0600803
0.0963416
-0.24115
-0.0185757
0.109189
0.0250885
-0.00183358
0.0714703
-0.0237328
-0.439664
0.282258
0.157406
0.333563
0.263452
0.324849
0.36758
0.460559
-0.348963
-0.0055858
-0.0392535
0.0448393
-0.106448
0.118741
0.0595144
-0.127962
0.0684478
-0.0266011
-0.253472
-0.286449
-0.297694
0.153649
0.235764
-0.18438
-0.0513845
-0.0578947
0.0249331
0.0805667
-0.06478
-0.0157867
0.110524
-0.012716
-0.0978077
-0.139719
0.123878
0.0158412
0.00742928
-0.00446811
-0.209258
-0.0501618
-0.021368
0.00305493
-0.164168
0.19622
-0.0320518
0.19408
-0.360672
0.166591
-0.0104266
0.000928288
0.00949829
0.206238
-0.580357
0.565752
0.0146049
-0.230398
0.0942656
-0.0480247
-0.0473852
0.0954099
-0.155743
0.142403
0.13919
-0.380814
0.0108921
-0.00302737
-0.115828
0.00476655
0.0112077
-0.00816612
-0.00304154
0.283644
-0.476364
0.19272
-0.121054
-0.0162967
0.13735
0.0160704
-0.291371
0.131032
0.16034
0.133602
0.137946
-0.271548
-0.00975453
-0.0837613
0.0180724
-0.0780356
0.0599631
0.0251001
-0.137347
-0.0966309
-0.00999053
0.106621
-0.12056
0.0725355
-0.362631
0.534493
-0.171863
-0.00280005
-0.00146325
0.0042633
0.119614
-0.10212
-0.0174942
0.0059651
-0.00242828
-0.00353682
0.123482
-0.215097
0.00243799
0.00717548
-0.00961347
0.010574
-0.010574
-0.0114854
0.133227
-0.121742
-0.00405272
-0.116507
-0.156639
0.147052
0.145195
-0.386088
0.397515
-0.226694
-0.170821
0.0750394
-0.0980358
0.0229965
0.00675252
0.00235707
-0.00910959
0.164033
-0.051477
-0.112556
-0.0690035
0.245958
0.15916
-0.174428
0.0152679
0.170871
0.245206
-0.0975631
0.0567681
-0.204014
0.222204
-0.0181894
-0.0573077
-0.0253914
0.0826991
-0.387129
0.325185
0.0619444
-0.0003498
0.0945913
0.0340953
-0.0162118
0.038374
-0.0221622
0.0739011
-0.0121246
-0.305034
0.43145
-0.126416
0.202987
0.324648
-0.527634
0.061466
-0.237343
0.175878
-0.431682
-0.139669
0.0664025
-0.183947
-0.223008
0.413535
-0.119348
0.147463
-0.0281155
0.00113437
-0.0115609
0.0276766
0.373738
-0.0900937
-0.174205
-0.0947506
0.268955
-0.340036
-0.218603
-0.0798518
0.245061
-0.165209
0.148829
-0.104872
-0.0439566
-0.00456135
0.0017613
0.152698
-0.133032
-0.0196663
-0.334099
0.100259
0.23384
-0.018781
0.0144593
0.00432168
0.326167
-0.688798
-0.227068
0.0619848
-0.199785
0.0455206
-0.040878
-0.0046426
0.202129
0.271521
-0.0384962
-0.145202
0.183698
0.002778
0.0760653
-0.0788433
-0.00493284
0.00493284
-0.0234644
0.121087
-0.0976225
0.309709
0.287306
-0.000722123
-0.013041
-0.594263
0.340681
0.253582
0.206022
-0.42903
-0.464085
0.306195
0.15789
-0.29033
0.024761
0.265569
-0.123605
0.257207
-0.338865
-0.12522
0.229274
-0.517182
0.485589
-0.297559
0.0713382
0.135269
-0.218684
-0.115414
-0.254349
0.203541
0.167851
-0.380402
-0.0251082
-0.155478
-0.00976602
-0.280564
-0.0872546
0.0979158
-0.475159
0.288251
0.186908
-0.0779901
-0.0508335
-0.128984
-0.162388
-0.0291417
-0.0457853
0.074927
0.0135287
0.126311
-0.0448606
0.254303
0.168051
-0.206547
0.135846
-0.265909
0.130063
0.142457
-0.364864
0.222408
0.166391
-0.352762
0.186371
0.131694
-0.330669
0.198975
0.307558
-0.175864
0.00355601
-0.00394757
0.000391559
0.034439
0.00434769
-0.0387867
0.0266347
0.235058
-0.108282
0.298236
-0.189954
0.112484
0.0462282
-0.158712
0.0161834
-0.077547
0.0613636
-0.114558
-0.0173194
0.131878
0.00131681
-0.0874793
0.0861625
-0.266162
-0.173502
-0.2607
-0.0957916
-0.291337
0.0096233
-0.00287078
0.124656
-0.101593
-0.490952
0.150111
0.340842
0.141547
0.00382453
0.00177106
-0.00284152
0.00107047
-0.00633829
0.037806
-0.506431
0.291216
0.215215
-0.0496825
0.0334708
0.0392079
0.109282
-0.157271
0.0816542
0.0756172
-0.648197
0.226701
-0.287899
-0.203053
0.0910672
0.160052
-0.25112
-0.135947
0.128865
0.00708199
-0.00769328
0.000325358
0.0288399
-0.109177
0.0803374
-0.153288
0.182644
-0.0293568
-0.226616
-0.229051
0.455666
0.494207
-0.254248
0.0396162
-0.0293565
-0.0102597
-0.126399
0.262245
-0.261476
0.602157
-0.740979
0.562042
0.178937
-0.0143493
0.00259316
-0.140474
0.334948
-0.194475
-0.428827
0.198169
0.0319646
0.190468
-0.105726
0.0163812
0.089345
0.0941016
-0.0805089
-0.0135928
0.00192745
0.32625
-0.171392
-0.154858
-0.177534
0.160442
0.0170915
-0.118469
0.0447423
0.0737262
-0.0117303
0.0014557
0.0102746
0.0978395
0.00587655
0.113536
-0.0891732
-0.0243628
-0.013307
-0.0696069
0.277567
0.365451
-0.137271
0.00443534
-0.651555
0.252632
0.398922
-0.115102
0.0619974
0.0531049
-0.251084
0.171232
0.0605061
0.103527
-0.0396392
-0.0340747
0.0737139
0.111194
-0.0112391
-0.0999548
0.0309519
-0.0967217
0.0657698
0.332395
-0.189938
-0.121411
-0.105139
0.226551
0.19367
-0.155625
-0.0380456
0.0826569
0.0308792
-0.0207525
0.0296514
-0.00889889
-0.127965
-0.00798184
0.420498
-0.638731
0.218233
0.0459993
-0.000478729
-0.0346961
0.0441297
-0.00943361
-0.158349
-0.0649321
-0.0736953
-0.201284
-0.129174
0.330458
0.132456
-0.125888
-0.00656834
0.0915342
-0.0944595
0.00292531
0.21927
-0.187305
-0.057068
0.0751404
0.583864
-0.306828
-0.277037
0.0166194
-0.11325
0.0645442
-0.0301052
0.0117734
-0.00083124
-0.0109422
-0.0717008
-0.0488842
-0.0971064
0.0961236
0.000982832
-0.325389
-0.26797
0.593359
0.102341
0.00818267
0.0143063
0.0666273
-0.0861372
0.0278332
-0.149194
0.240261
0.144247
0.102992
-0.247239
-0.292731
0.137338
0.00667367
0.0133843
-0.020058
-0.0276263
-0.219746
-0.147637
0.245843
-0.0982067
-0.70122
0.301031
0.400189
0.0404023
-0.162897
0.191959
-0.0290622
-0.348703
-0.127661
0.289708
-0.540685
0.250977
-0.0683569
0.0393987
-0.124174
0.106778
0.0173951
-0.0689716
0.0978114
0.0844854
-0.00944604
0.118867
0.0890869
-0.207954
0.0111526
0.069945
-0.0810976
0.212086
0.185429
0.00274909
0.00625034
-0.00899943
-0.00310422
0.139283
-0.136178
0.0191277
0.159615
-0.0028268
-0.156788
-0.063843
0.0242038
-0.271346
-0.235085
0.372676
0.277597
-0.650273
-0.301438
-0.399782
0.133329
0.0859407
0.00256031
-0.000789246
-0.177165
-0.0731857
-0.140991
0.0166673
-0.08134
0.110723
-0.0293835
-0.00911151
-0.0877208
0.0968323
-0.00172991
-0.0100003
-0.191577
0.00418572
0.0763809
-0.368105
0.55689
-0.188785
-0.0980435
0.088932
0.00401944
-0.00205503
-0.00196441
-0.34927
0.208796
-0.363327
0.162044
-0.0890218
0.115417
-0.0263952
0.134128
-0.149668
0.0155402
0.335148
-0.141068
0.106191
-0.253828
-0.178351
0.303131
-0.205972
-0.0971586
-0.453163
0.299318
0.153845
-0.0228072
0.00245769
-0.00517687
0.00761487
-0.0599543
-0.0585143
0.00710338
0.00288463
-0.00998801
0.0142597
0.00653317
-0.151992
0.17651
-0.0245187
0.0109658
0.182705
0.145213
-0.266624
0.224365
0.0787652
-0.306959
-0.253644
0.560603
-0.112535
0.134645
-0.0221102
-0.146968
-0.24178
0.133181
0.1086
-0.00379567
0.00136739
0.256123
-0.111876
0.0018261
-0.329437
0.221156
-0.135205
0.267566
-0.132362
0.011104
-0.0741909
0.195039
-0.0269885
-0.0805517
0.0672447
0.15931
-0.273313
0.00462049
0.00715293
-0.101828
0.0814732
0.0203544
-0.0389454
-0.0761569
0.297846
-0.137025
-0.428052
-0.312927
0.665179
-0.349015
-0.316164
0.10448
0.159958
-0.264438
-0.255824
-0.174206
-0.00699765
0.00699765
-0.176378
0.0311762
0.0101861
-0.00308267
-0.129813
-0.0274585
-0.0661231
0.00877065
0.0573525
0.0146974
0.119387
-0.265862
0.564115
-0.0113054
0.0679295
-0.0566241
0.0720308
-0.0608783
0.246311
-0.151568
-0.0947437
-0.0807165
-0.0211111
-0.197526
0.254324
-0.0567981
0.241736
0.0789002
-0.320636
-0.172332
0.40505
-0.232718
-0.161453
0.136345
-0.0480838
-0.193697
0.132189
-0.0218117
-0.110377
0.121798
0.18576
0.0540655
0.0148345
0.0652774
-0.113069
-0.0238898
-0.117101
-0.0218669
-0.112028
0.133895
0.0141209
-0.275448
-0.0936706
-0.0566437
-0.0094794
-0.00433983
-0.0184673
0.0113032
0.015201
-0.0718925
0.0566915
0.0875556
0.00397854
-0.0876738
0.000665957
0.0870078
-0.0801395
0.0228317
-0.010471
-0.00104869
-0.0987203
-0.0182621
0.0601392
-0.183825
0.123685
-0.0244295
0.0108535
0.013576
-0.00120079
-0.00125952
-0.0705301
0.0592248
-0.12214
0.0315169
0.0906226
-0.261449
0.112367
0.149082
-0.0107382
-0.00361111
0.133554
-0.10533
-0.0282241
-0.111354
0.0878899
0.203009
-0.141543
0.217707
-0.390038
0.0283165
-0.188297
0.0503244
0.137973
0.000604379
0.000694376
-0.00129876
-0.0180122
-0.0505235
0.52061
-0.317624
0.401784
-0.0755
-0.326284
-0.0520873
0.0682707
-0.143176
-0.118273
0.0153384
-0.00866471
0.150861
-0.455895
-0.444166
0.268541
0.175625
0.327699
-0.217137
-0.110561
-0.068002
0.07078
-0.431201
0.204586
0.0747001
-0.102675
0.0279752
-0.00329563
-0.0211338
-0.297441
-0.354114
-0.153702
-0.101506
0.255208
-0.326839
0.152634
0.00583186
0.00092334
0.000981505
-0.186864
0.0645891
0.122275
-0.0690815
-0.0352641
0.104346
-0.235532
0.0863378
-0.0596987
0.0906506
-0.00189993
0.010002
-0.00810209
-0.15821
0.155597
0.0469311
-0.183003
0.136072
0.39204
0.181837
-0.573878
0.0555882
-0.00608319
0.0747081
-0.0668016
-0.00790654
0.215759
-0.152472
0.177549
-0.0250766
0.19141
-0.0387422
-0.152668
0.159391
0.0593936
-0.218785
0.0172073
-0.169199
-0.0281468
-0.149387
0.0660578
-0.0117648
0.0687557
-0.0569909
-0.205287
-0.21274
0.0105309
-0.0123144
0.00178348
-0.00104658
-0.189501
0.0213499
-0.0406426
-0.148859
-0.0541282
-0.0125858
0.066714
-0.0813921
-0.0243342
0.00548565
-0.00388899
-0.00159665
-0.00864941
0.00674947
-0.234316
0.0571508
-0.157449
0.154345
0.0226038
0.00704761
0.00409065
0.00826788
0.148677
0.455336
-0.604013
-0.158052
-0.19593
0.353982
0.189844
-0.0331054
-0.156739
-0.238062
0.48175
-0.0095409
0.0203944
-0.0735658
-0.0529569
-0.118602
-0.0682617
-0.17285
0.0042968
-0.0185657
-0.154284
0.142746
-0.329612
0.186866
-0.13976
-0.053294
-0.0935417
0.0965349
-0.00299318
-0.202989
-0.160338
-0.0751845
-0.0196741
0.215471
0.112228
-0.0872213
0.0534399
0.0337814
-0.00177688
0.00698131
-0.00520443
-0.0433738
0.479313
-0.11337
0.0221625
0.0912074
-0.123815
-0.140277
0.363099
-0.196708
0.0645937
-0.0490438
-0.0155498
-0.189673
-0.17274
0.362413
-0.0747537
0.070701
0.482956
-0.27848
-0.204476
-0.220107
0.0688606
0.151247
0.224544
0.337865
-0.562408
-0.172694
0.211492
-0.0387982
0.0893804
0.178105
-0.267486
0.0104654
0.213743
0.194237
-0.40798
0.149745
0.233204
-0.382949
-0.344482
0.250289
0.0941929
0.281565
-0.470479
0.188914
-0.00306906
0.00129217
0.12109
-0.0629166
-0.0581733
0.127643
-0.149509
0.0743584
0.0467315
0.196827
0.0494845
0.000185031
0.0084633
0.0430958
-0.0122838
-0.0308119
-0.536242
0.136922
0.39932
0.130982
0.0178469
-0.076697
0.35046
0.0513237
0.629511
-0.256834
0.168102
-0.0288193
0.0961271
-0.021427
0.004206
0.00315545
0.0340713
0.540717
0.104817
0.0132327
0.252402
0.30504
-0.557442
-0.08003
-0.0170764
0.25809
-0.565049
0.00048072
-0.0343024
0.20471
-0.170408
0.486025
-0.245361
-0.240664
0.267761
-0.519934
0.252173
-0.383243
0.156549
0.0407241
-0.0463099
0.0497832
0.0525578
0.0189171
-0.0208253
-0.327878
0.0086861
-0.196983
-0.0972255
0.0868584
0.0103671
0.184928
-0.0634673
-0.170849
-0.0177614
0.0176623
9.9137e-05
-0.0195355
-0.00116141
0.0206969
0.0125906
0.0870125
0.508555
-0.545438
0.0368829
-0.0822751
-0.00769934
0.104535
-0.125149
0.0206139
0.197528
-0.341382
0.143854
-0.266282
0.454441
-0.188158
-0.0932733
0.123106
-0.106601
-0.0165054
0.290858
-0.00110928
0.00257307
-0.00146379
0.00998169
0.000549218
-0.0414635
0.124245
0.244062
-0.262714
0.0186526
-0.211415
0.390086
-0.178671
0.365318
-0.215572
0.0206793
-0.0302202
0.137253
-0.0178623
-0.11939
0.467012
0.12591
-0.11647
-0.0129073
0.166964
-0.346578
0.179613
0.186912
0.00930726
0.198937
0.25143
-0.0214762
0.0394868
0.0142849
0.441051
-0.150711
-0.0493105
0.200022
0.155477
-0.0901994
-0.022373
-0.0387497
0.0611226
-0.0275482
-0.00697591
-0.0910676
0.0327968
0.114666
-0.000575306
0.000649576
-0.00122149
0.0223453
0.0254588
-0.0901066
-0.00457684
0.00665698
-0.00208013
-0.481324
0.209979
-0.000235987
0.00441974
0.00246985
0.146879
-0.149349
0.174741
-0.147108
-0.027633
-0.0353233
-0.072964
0.108287
0.140379
0.19457
-0.00746951
0.00342706
0.00404245
-0.155812
-0.424545
-0.079447
0.111236
-0.0317888
-0.0013839
-0.00279985
0.324607
-0.195412
-0.129195
0.227957
-0.0406095
-0.187348
0.073642
0.0338019
-0.107444
-0.200798
-0.168701
0.369498
0.0961075
-0.0206324
-0.0754751
-0.102315
0.00877366
-0.0132219
-0.0573082
-0.0686275
0.0953944
-0.0456113
-0.405485
0.162298
-0.154296
-0.00800241
-0.0780273
0.23808
0.31592
-0.147341
-0.168579
-0.00907276
0.0655005
-0.0962851
0.293813
0.163765
-0.024937
0.165728
-0.0766733
-0.550841
0.0145991
0.268723
-0.130777
-0.182987
-0.147682
0.157376
-0.0157304
-0.141646
-0.0192323
-0.030553
0.0392717
-0.00871865
0.0894118
0.0260052
0.23911
0.0871401
0.142716
0.414174
-0.0977103
-0.00742706
-0.0418813
-0.054247
0.259646
-0.155166
0.266589
0.219436
0.478051
-0.167019
-0.311033
-0.116132
-0.402625
0.24308
0.159545
0.0138917
-0.0629355
0.287603
-0.538993
0.251389
0.117112
0.000699231
-0.117811
0.000560226
-0.0811119
0.0466951
-0.0366343
-0.0100608
0.275471
-0.603487
0.257237
0.225719
-0.243254
0.481922
-0.238668
0.120804
0.11496
0.0760126
-0.100443
0.0244299
-0.000438939
-0.0164738
0.00741128
0.0739726
-0.0922915
0.0183189
-0.119223
-0.00183106
0.0313434
0.00827284
0.307934
-0.165188
0.176489
0.0457152
0.092059
-0.0804391
-0.0116199
-0.132763
-0.0873441
-0.306917
0.0882327
0.12252
0.027456
-0.149976
-0.0534581
0.0686591
-0.0875616
-0.163522
0.0702414
-0.0279567
-0.0422847
0.204124
-0.0447327
0.00175189
-0.00696064
0.00520876
-0.0743816
0.355487
-0.281106
0.000330327
0.000364049
-0.00555874
0.000981898
0.00487624
-0.0267863
0.02884
-0.00205372
-0.0425182
-0.0451556
-0.111406
0.135036
-0.0236302
0.00131415
0.000437737
0.222228
0.162271
-0.11534
-0.397365
0.346468
0.0508974
0.111118
-0.0110235
-0.100094
0.483214
-0.193506
0.0451558
-0.0831576
0.0380018
0.0867474
-0.0493988
-0.0373486
-0.164809
0.0966176
0.0681918
-0.190224
-0.159045
-0.0650308
0.215112
-0.150082
0.0374954
-0.006152
0.0365767
-0.220956
0.145734
-0.0855948
-0.230928
0.489092
-0.258164
-0.0693463
0.0572416
0.0121047
0.103421
-0.01976
-0.0836609
-0.080674
-0.0958474
0.119309
-0.0234616
0.00350051
-0.000500431
0.292064
-0.0765928
-0.00161382
0.00050454
-0.082036
0.0395178
0.000753507
0.0746149
0.0313568
0.0336302
0.113504
0.102201
-0.215705
-0.0934016
0.0996097
-0.00620813
-0.173248
-0.423911
0.159471
0.0299938
0.0515181
0.206953
0.253183
-0.460136
0.0109709
0.0321248
0.00581713
-0.0131439
-0.00203593
0.0151799
0.00112571
0.0903987
0.00166031
-0.0527265
-0.0166849
0.0694114
0.259076
-0.139621
-0.119455
0.0110676
-0.0985469
0.450181
0.0583736
0.0565443
-0.0725915
0.0160472
0.105584
-0.0829096
-0.0226741
0.0400613
0.152365
0.0938314
-0.0235488
-0.0702827
-0.090323
0.03811
-0.10207
0.0951041
0.00696556
0.345902
-0.14739
-0.198513
0.100941
-0.0414267
0.00030608
-0.00138069
0.00107461
0.231383
0.224839
-0.0498492
-0.17499
0.240268
-0.525506
0.285238
-0.507047
0.115579
-0.331577
0.556121
-0.0387094
-0.00733696
0.0460463
-0.278621
0.531024
-0.2011
0.372045
-0.170946
0.0220207
0.489511
-0.261718
-0.227793
0.110915
-0.122401
-0.141502
-0.187935
0.099689
-0.135012
0.173158
-0.26072
0.0504014
-0.071268
0.524722
-0.271932
-0.25279
0.0246517
-0.00627711
0.0169989
-0.0107218
0.0101262
-0.0794639
0.0946854
-0.0152215
-0.11177
0.0602932
-0.0488461
-0.0383753
-0.0280319
0.101674
0.0472172
-0.0096437
-0.0375735
-0.0850619
0.101681
-0.550562
0.210526
-0.00501514
-0.0041197
0.00913484
0.20259
-0.00458831
0.000699319
-0.0565054
-0.157591
0.0121821
0.0560471
0.0359862
-0.0920333
-0.0185448
0.0925174
0.581313
-0.317861
0.179908
-0.210899
0.0309907
0.00205691
0.0242867
-0.0263436
0.0335651
0.191274
-0.0623865
-0.00902123
0.0714077
0.168716
-0.218095
0.0493792
0.0859314
-0.0680139
-0.0179175
0.0534716
0.0800822
-0.00324352
0.0902514
-0.0536889
0.566591
-0.244369
-0.322223
-0.00946457
-0.0301419
0.0396065
0.0784384
-0.0195686
-0.0588697
-0.451698
0.310095
0.141603
-0.109689
0.289345
-0.179656
0.0320347
-0.00943083
0.25551
0.0365533
0.120233
-0.104054
-0.0161792
-0.00156118
0.00186726
0.496
-0.22824
-0.0745319
0.0955251
-0.0209931
-0.0510022
-0.112051
0.163053
0.147715
-0.114918
-0.302012
0.192323
-0.261157
-0.190541
0.29937
0.297645
0.0074018
-0.0109535
-0.029565
0.0405185
0.373665
-0.166455
-0.207209
0.43234
-0.225387
0.0992102
0.0641611
-0.163371
0.0885097
-0.0324626
-0.0247874
0.43325
-0.214826
-0.231754
0.319668
-0.105925
0.558344
-0.331314
-0.22703
-0.381687
0.178698
-0.0979812
-0.0668283
-0.161496
0.156799
0.00469724
0.0612042
0.0255432
-0.102293
0.022165
0.0801276
-0.147078
0.13052
0.0165582
0.0982672
-0.0856766
0.26572
-0.131171
-0.134549
0.511411
-0.0909135
-0.304609
0.241712
0.0628974
-0.0196456
0.07619
-0.172084
0.0676578
-0.0932453
-0.0298566
-0.0741138
0.0608919
-0.587687
0.262298
0.00904805
-0.0237187
-0.132024
0.104635
-0.0791765
-0.025459
-0.0698732
-0.327492
0.0112276
0.0826038
-0.166749
-0.0448774
0.211627
0.389189
0.27599
-0.117123
0.250513
-0.13339
0.506709
0.0233363
-0.530045
-0.0335373
0.111341
0.15409
-0.134017
-0.0200728
0.0319693
-0.117031
0.235544
-0.567121
0.034748
-0.0442126
-0.338488
-0.00104414
-0.0038887
0.00196617
-0.383431
-0.0442885
0.42772
-0.00427235
0.0103424
-0.00607002
-0.630677
0.374436
0.256241
-0.383395
0.182598
-0.221561
0.15653
0.596004
-0.308698
-0.203161
-0.101448
-0.169955
-0.0937622
0.263717
0.341309
-0.174345
0.253835
0.164372
0.200764
0.323474
-0.524238
-0.276513
0.0789873
0.0738525
0.0270886
0.0372014
-0.0481548
-0.388983
0.158286
0.230697
-0.0120253
0.00128707
0.325779
0.271236
0.133518
-0.0251571
-0.131482
0.122544
0.00828846
-0.00597572
-0.00231274
0.0416248
-0.0392654
-0.00235942
-0.00641486
-0.10325
0.255656
-0.152406
0.368216
-0.12648
0.0148526
0.0598556
0.141953
-0.557686
0.291897
0.265789
0.00928789
0.14162
-0.218878
0.134349
-0.0186779
0.00510341
0.0135745
0.12169
-0.0140008
-0.107689
0.483821
-0.207668
-0.276153
0.0227604
0.135433
-0.158194
-0.102562
0.0889023
0.0136598
0.500799
-0.243562
0.0729684
-0.0892662
0.0162978
-0.280009
0.226429
0.0535803
-0.00310756
0.0162225
-0.013115
-0.13361
-0.0246007
0.0689868
0.0991151
-0.0562069
-0.0360846
-0.0480194
-0.04644
0.165848
0.400744
-0.00306564
-0.156336
0.00535769
0.304738
-0.104098
-0.01173
0.359381
0.23169
-0.591071
-0.236597
-0.243785
0.480382
0.0899042
-0.259859
-0.203844
0.541708
0.00292679
0.159372
0.00498167
0.027053
-0.358317
0.168644
-0.0562517
0.0423153
0.0139364
-0.0121145
0.00900691
0.300634
0.200165
-0.00745801
0.00959476
0.0243968
-0.0339916
0.0437467
0.143166
0.0409058
0.00690253
0.00430512
-0.0403212
0.0974246
-0.0571034
-0.0168493
-0.000912161
0.0616224
0.0366448
-0.120713
0.280023
0.0993628
-0.0104605
-0.319958
-0.230604
-0.00673282
-0.0119451
0.00917885
-0.122882
0.014691
0.00723381
-0.19978
-0.244387
-0.0164889
-0.00769393
0.0241828
-0.222102
-0.206725
-0.0350953
0.0459385
-0.0108431
-0.0719129
0.0805723
-0.00865941
0.080618
0.0154895
0.197512
0.14839
-0.0215755
0.00203996
-0.10544
0.0375672
0.0678723
-0.20005
-0.106867
-0.0236332
0.000899416
-0.0852017
0.184412
0.103128
-0.0776676
-0.0254605
0.139494
-0.119631
-0.0198632
-0.0264061
-0.000380216
0.328034
-0.017026
-0.122693
-0.226307
-0.255017
0.0977246
0.0193875
0.0301624
-0.187658
0.157495
-0.258456
-0.216703
0.0279467
0.0681769
-0.297561
0.0759999
0.0929553
-0.0999312
0.0882392
0.0313749
0.442077
0.000891226
0.00968277
-0.109631
0.269589
0.263992
-0.187774
-0.0762179
0.00929045
-0.0237862
0.0144958
0.168529
0.172916
-0.341446
0.217935
-0.244313
0.026378
0.349492
-0.175185
-0.174307
-0.00737909
0.0405578
-0.0331787
0.176868
-0.302575
0.125707
-0.00264829
-0.127678
-0.249275
0.376953
-0.0879284
0.233141
0.474066
-0.274628
-0.199438
-0.165679
0.00418252
-0.559829
0.434678
0.125151
0.00726223
0.00398118
-0.0112434
-0.0128248
0.136702
0.113793
-0.0822757
0.178633
0.0908002
-0.269433
0.331137
0.163318
-0.494455
-0.562168
0.283547
0.0642288
0.177483
-0.203796
-0.303251
0.126893
0.0322675
-0.0086563
-0.31568
0.495431
-0.179752
-0.159309
0.0376144
0.00619539
0.0202887
0.0232394
0.185761
-0.327263
-0.00949058
0.0186995
-0.175558
-0.104451
-0.0274568
0.00105074
0.29856
0.260896
-0.559457
-0.23316
-0.111322
0.0081696
-0.0103538
0.00218421
0.11024
-0.0363875
-0.164969
0.0941897
-0.127727
-0.20879
0.10554
-0.115028
0.135038
-0.0200101
-0.129759
0.124004
-0.43142
0.186059
-0.0090832
0.0489402
-0.00821613
0.00228972
0.00172972
-0.0492032
-0.125225
-0.186509
0.194557
-0.00804723
-0.00385568
0.0926322
-0.246334
-0.0533489
0.334914
0.0902216
0.00761785
0.471836
-0.140699
0.0814492
0.0231863
-0.0708407
0.0590758
-0.076771
0.0957307
-0.0189598
0.0461076
-0.0486441
-0.257646
0.0053016
0.252345
-0.0940308
-0.00808911
-0.0161794
0.186141
-0.169962
-0.0163015
-0.0694964
0.085798
0.142251
0.142345
-0.284595
-0.0584028
0.532951
-0.272794
-0.260156
-0.428592
0.16243
-0.035278
0.00592149
-0.477649
0.234396
-0.280656
-0.281512
-0.0166317
-0.101389
0.118021
0.0349294
0.159742
-0.194672
0.217206
-0.0407178
-0.379937
0.168522
-0.0350157
-0.0277909
0.0628066
0.0136317
0.0513622
0.0239589
-0.0395022
-0.113363
0.092491
0.020872
-0.50329
0.119858
0.0474333
0.048431
-0.0958643
0.149261
0.00482955
-0.146681
0.0691659
-0.0330061
0.0569649
0.0656811
-0.00400966
-0.0616714
0.631905
-0.520981
-0.110924
-0.0424244
0.0875802
-0.0450056
0.0924389
0.00994734
-0.0106695
0.467499
-0.231429
-0.23607
-0.0321985
0.0385323
-0.00633383
-0.407791
-0.152038
0.000518045
-0.232237
0.410842
-0.178605
0.520236
-0.261042
-0.259194
-0.00756713
0.00401025
0.00355688
-0.496292
0.259696
0.186356
0.240019
-0.426375
-0.259125
0.0140185
0.0047761
0.00254274
-0.00731885
-0.0925169
-0.0208461
0.321428
0.308082
-0.0974339
0.022902
-0.384427
0.144127
0.2403
0.00382813
-0.00292458
-0.000903547
-0.313068
0.547361
-0.234293
-0.210869
0.289769
-0.0977418
0.0415349
0.061056
0.210973
-0.272029
-0.169351
-0.223924
0.393275
-0.0159601
0.11993
-0.103969
0.00041676
0.338051
-0.14095
0.445991
-0.152335
0.182498
-0.225832
0.0644751
0.161357
0.143941
-0.418081
0.186397
0.00344707
-0.391656
0.125374
-0.0898836
-0.207677
-0.210097
-0.0475491
0.145105
-0.196107
0.437189
-0.297999
-0.11551
-0.0140913
0.129602
-0.00398093
0.0184403
0.166381
0.108522
-0.274903
0.0270265
0.0285617
0.0567733
0.272329
-0.0333604
-0.139039
0.1724
-0.492548
0.26162
-0.345025
0.186973
-0.152234
0.176037
-0.023803
0.0433765
-0.00175166
0.021935
0.113719
-0.135654
0.59699
0.309285
-0.303928
-0.0969002
-0.00539243
-0.00821213
0.0459659
-0.0377537
-0.130483
-0.212456
0.342939
0.00680903
0.0961586
-0.102968
0.221505
0.0287838
0.193124
-0.0244084
-0.0176538
0.00948768
-0.0762722
-0.0894066
-0.012878
0.0554536
-0.0425756
-0.16775
0.370208
-0.202458
0.463089
0.170826
-0.301309
0.284124
-0.544564
0.26044
-0.024307
0.125128
0.125385
0.206543
-0.498478
0.291935
-0.310967
-0.236893
0.54786
0.531124
-0.289658
-0.241466
-0.223043
-0.208377
-0.0207586
-0.0028746
-0.36772
-0.262957
0.0119562
-0.00791464
-0.00404156
0.28612
-0.154598
-0.131522
0.0045649
0.0700672
-0.000427485
-0.0696397
-0.336096
-0.237528
0.573624
-0.300417
-0.13728
0.0949615
-0.072201
0.0752953
-0.0370947
-0.0382006
0.060769
0.012378
-0.0731471
-0.26602
-0.0349134
-0.033103
0.0184762
-0.0979232
0.0639415
0.0707208
-0.0870223
0.296161
0.300854
-0.261541
0.109973
0.145008
-0.244169
0.0217087
-0.0854631
0.0637544
0.0313703
0.183742
0.233925
-0.116886
0.024369
-0.0156524
0.0183304
-0.00267795
0.300723
0.00315693
0.0216595
0.0485819
0.208536
-0.217282
0.0087457
0.159268
0.0690266
0.00941179
0.0107244
0.128769
0.269581
0.197918
0.0147289
-0.0674554
0.279479
0.144818
0.141303
0.168472
-0.170725
0.00225312
-0.195177
-0.0306553
0.165985
-0.337376
-0.610491
0.462534