/*--------------------------------*- C++ -*----------------------------------*\
| =========                 |                                                 |
| \\      /  F ield         | OpenFOAM: The Open Source CFD Toolbox           |
|  \\    /   O peration     | Version:  v2012                                 |
|   \\  /    A nd           | Website:  www.openfoam.com                      |
|    \\/     M anipulation  |                                                 |
\*---------------------------------------------------------------------------*/
FoamFile
{
    version     2.0;
    format      ascii;
    class       surfaceScalarField;
    location    "150";
    object      phi_0;
}
// * * * * * * * * * * * * * * * * * * * * * * * * * * * * * * * * * * * * * //

dimensions      [0 3 -1 0 0 0 0];
oriented        oriented;


internalField   nonuniform List<scalar> 
20424
(
-0.571351
0.592923
-0.0215721
-0.067427
0.10093
-0.0335034
-0.350175
0.0207578
0.329418
0.150143
0.0229111
-0.173054
-0.202043
-0.0230423
0.225085
-0.130353
0.130387
-3.35686e-05
0.0912787
-0.120572
0.0292934
-0.20893
-0.0775884
0.359153
-0.247373
-0.11178
0.182023
-0.0318808
0.128686
-0.116983
-0.0117032
-0.548745
0.335143
0.213602
-0.145531
0.157103
-0.0115719
-0.0685396
0.0564268
0.0121128
-0.0241482
0.0379697
-0.0138215
-0.215764
-0.144044
0.287632
-0.143589
-0.0641098
0.0995939
-0.0354841
0.298253
-0.59716
0.298907
-0.539921
0.338468
0.201453
-0.00806024
0.00191875
0.00614148
-0.0363746
0.0122264
0.0763208
-0.0630857
-0.0132351
-0.104652
0.114371
-0.0097191
-0.209819
0.00777661
-0.112246
-0.0398256
0.152071
0.0515704
-0.180588
0.129018
0.206614
-0.187603
-0.0190113
0.0958194
-0.469381
0.373562
0.242305
-0.0991607
-0.143144
-0.128817
0.103713
0.0251038
-0.011757
0.016269
-0.00451193
-0.148239
0.144007
0.00423249
0.116516
-0.136445
0.019929
-0.246694
-0.151484
0.398178
0.207521
-0.498021
0.2905
-0.369119
0.329102
0.0400165
-0.140092
-0.155391
0.295483
-0.25035
0.216153
0.0341965
-0.117885
0.140852
-0.0229674
-0.138582
0.00822835
0.00418249
-0.00418249
0.130233
0.0669879
-0.197221
-0.151748
-0.00575534
0.157503
0.0306311
-0.0947409
0.14748
-0.193057
0.0455767
0.111596
-0.391468
0.279872
0.12793
-0.113703
-0.0142264
-0.39564
0.330613
0.0650265
-0.0115202
0.0123595
-0.00083937
-0.125416
0.0207636
-0.0030298
-0.00503044
-0.142712
0.0248274
0.0221724
-0.0860857
0.0639133
-0.184164
0.00907881
0.175085
-0.0959601
-0.29968
0.147433
-0.0125519
-0.134881
-0.0026128
-0.145627
-0.180433
0.416077
-0.235644
-0.0334173
-0.0405913
0.0740086
0.387797
-0.213852
-0.173944
0.261693
-0.08717
-0.174523
0.0208021
-0.0169196
-0.00388252
-0.287907
-0.260838
-0.114001
-0.151308
0.26531
-0.167359
0.194849
-0.02749
0.189891
0.169262
0.160821
-0.300913
-0.121695
-0.077514
0.19921
0.191997
-0.0445173
-0.0320999
0.0373158
-0.00521583
0.000447623
-0.468217
0.467769
-0.0908182
0.0574009
-0.212551
0.340319
-0.127768
-0.0840355
-0.0214551
0.0588735
-0.129258
0.070385
-0.117545
-0.0845296
0.202075
-0.418027
0.237594
0.139757
0.00767623
-0.421496
-0.141495
0.562991
0.46553
-0.258008
-0.25942
0.241364
0.0180556
0.0165681
0.393644
-0.297825
-0.132842
0.146139
-0.0132969
0.133164
-0.111066
-0.0220975
0.0125527
-0.0620512
0.0494985
-0.0352028
-0.050972
0.0861748
0.190526
-0.43722
0.137265
-0.111858
-0.0254071
0.243688
-0.464352
0.220664
0.0846686
-0.0624962
-0.136129
0.247847
-0.111718
-0.0961266
0.0753775
0.0207491
0.0689975
-0.0209902
-0.0480073
-0.138624
0.120743
0.0178807
-0.151286
0.189464
-0.0381775
0.23996
0.218424
-0.458384
0.437461
-0.437013
0.066071
-0.23343
0.0019052
-0.000124654
-0.00178055
-0.220239
-0.277782
-0.137797
0.222431
-0.0846341
0.0283545
-0.0339854
0.00563093
-0.664388
0.435939
0.228448
-0.00373687
0.0320914
-0.0866301
0.123599
-0.0369686
-0.241623
0.418206
-0.176583
0.135828
0.00143708
0.446869
-0.151681
-0.295188
-0.159836
0.494979
-0.0359098
0.166143
-0.123105
0.036475
0.00638748
-0.00410405
-0.00228344
-0.00245802
0.00299892
-0.000540901
0.100469
-0.295569
0.195101
-0.524445
0.304207
-0.168555
-0.0156085
-0.0306124
0.265702
0.47365
-0.27414
-0.19951
-0.213945
0.00501516
0.692429
-0.45649
-0.235939
-0.0110637
0.429855
-0.418791
0.18803
-0.485149
0.297119
0.0123007
0.188337
-0.200637
0.00281202
-0.0349119
0.096881
0.0335058
-0.0213657
-0.00973574
0.0311015
-0.20659
0.0269353
0.179655
-0.022835
-0.0679832
0.192422
-0.214097
0.0216757
0.0549539
-0.068022
0.0130681
0.054547
-0.0419943
0.0243515
-0.0948607
0.0705093
0.0827803
-0.172035
0.0892546
0.204997
-0.282861
0.0778633
-0.0935184
0.00948286
-0.141026
-0.237763
0.378788
-0.0508077
0.209442
-0.158635
0.0154357
-0.00182041
-0.0136153
0.0905764
-0.123758
0.0331814
-0.0133437
0.148491
-0.135148
-0.149402
0.208048
-0.058646
0.00921581
-0.00403287
-0.00518293
-0.559051
0.499877
0.059174
0.0154357
0.166356
-0.160838
-0.00551738
0.145368
-0.0477877
-0.0975807
0.176953
0.120828
-0.297781
0.123094
-0.105135
-0.0179587
-0.574741
0.0156899
0.147024
-0.134797
-0.0122262
0.0314673
-0.0352042
-0.0194941
-0.0646553
0.0841494
-0.21037
0.190651
0.019719
0.00735893
-0.00483422
-0.0025247
0.00925368
0.157102
0.16382
-0.174588
0.0107689
0.0343505
-0.101777
-0.230657
0.453627
-0.22297
0.0219183
-0.0155308
0.643018
-0.371857
-0.27116
0.00786098
0.00288159
-0.0107426
0.0754961
0.0685109
-0.55864
0.213048
0.345593
-0.240893
-0.0709284
0.311821
0.0567537
-0.0919565
0.0135803
-0.363756
0.140952
0.101353
-0.174939
0.0294075
-0.211118
0.0617163
0.305764
0.141105
0.189588
-0.00958772
0.138827
-0.12924
0.218299
-0.280672
0.0623729
-0.0157576
0.107036
0.097226
-0.0383525
-0.168152
-0.042218
-0.0293279
0.00796221
0.0265854
-0.0192103
-0.00737512
-0.328016
-0.336372
-0.0235516
0.140067
-0.16531
0.19369
-0.02838
-0.00256596
-0.0681294
0.0706954
0.0508902
-0.0815412
0.030651
0.00124168
0.217057
0.00261372
0.00660208
-0.091614
0.210128
-0.118514
-0.0408001
-0.0415031
0.0823032
0.278699
0.109097
-0.193375
0.0280653
0.0156617
0.0606591
-0.264093
0.175432
0.0886612
0.124478
-0.118945
-0.00553304
0.00295406
0.00228455
-0.00523861
0.0359627
0.097201
0.136404
-0.0395231
-0.00736599
0.00818404
-0.466283
0.455219
-0.171121
-0.0354689
0.450366
-0.277824
-0.172542
-0.126524
0.0487186
0.0778053
0.151268
-0.134657
-0.0378942
0.172551
-0.0183189
-0.00459214
0.022911
-0.14481
-0.105206
0.250015
-0.43003
0.237287
0.192742
0.129475
-0.00499744
-0.0774886
0.0617953
0.0156933
0.139846
-0.115714
-0.0241318
0.286716
-0.186247
0.0477327
0.0230768
-0.0708095
0.00864915
-0.00864915
-0.0289533
-0.0522227
0.081176
0.164867
-0.113297
-0.109192
-0.0168195
0.126012
0.0232527
-0.0227327
-0.000519988
0.134083
-0.115495
-0.0185886
0.021024
-0.0203567
-0.000667287
-0.17467
-0.294711
-0.0899657
0.0209066
0.0690592
-0.197288
0.0626312
-0.0617342
-0.0329645
-0.0430649
0.0760294
0.0106701
-0.129381
0.118711
-0.0829203
0.0600853
0.0963401
-0.24115
-0.0186227
0.109199
0.0250864
-0.00183377
0.0714681
-0.0237354
-0.439663
0.282257
0.157406
0.333563
0.263452
0.324849
0.36758
0.460559
-0.348963
-0.00558127
-0.0392531
0.0448344
-0.106441
0.118742
0.0594748
-0.127926
0.0684515
-0.0265984
-0.253471
-0.28645
-0.297692
0.153648
0.235764
-0.184376
-0.0513887
-0.0578976
0.0249331
0.0805579
-0.0647743
-0.0157836
0.110523
-0.0127215
-0.0978016
-0.139725
0.123869
0.0158565
0.00742502
-0.00447096
-0.209276
-0.0501443
-0.0213744
0.00305554
-0.164169
0.196221
-0.0320523
0.19408
-0.360671
0.166591
-0.0104237
0.00092603
0.00949762
0.206239
-0.580357
0.565752
0.0146049
-0.230395
0.0942658
-0.0479859
-0.0474076
0.0953935
-0.155745
0.142401
0.139191
-0.380814
0.0108881
-0.00302715
-0.115856
0.00478936
0.0112145
-0.00817414
-0.00304032
0.283644
-0.476364
0.19272
-0.121047
-0.0162983
0.137345
0.0160718
-0.291373
0.131028
0.160345
0.133607
0.137941
-0.271548
-0.00975289
-0.0837655
0.0180682
-0.0780299
0.0599617
0.0251019
-0.137348
-0.0966391
-0.0099314
0.106571
-0.12054
0.0725539
-0.362631
0.534493
-0.171863
-0.00279885
-0.00146392
0.00426277
0.119615
-0.102122
-0.0174926
0.00595792
-0.00242507
-0.00353285
0.123484
-0.215098
0.00243768
0.00717351
-0.0096112
0.0105775
-0.0105775
-0.0114874
0.133228
-0.12174
-0.00402893
-0.116511
-0.15664
0.147052
0.145195
-0.386088
0.397515
-0.226694
-0.170821
0.0750217
-0.0980338
0.023012
0.0067534
0.00235964
-0.00911304
0.164034
-0.0514754
-0.112559
-0.069007
0.24596
0.15916
-0.174425
0.0152652
0.170871
0.245206
-0.0975388
0.0567387
-0.204024
0.222205
-0.0181814
-0.0573147
-0.0253799
0.0826947
-0.387129
0.325185
0.0619446
-0.000350478
0.0945923
0.0340937
-0.0162087
0.0383693
-0.0221606
0.073904
-0.0121086
-0.305034
0.43145
-0.126416
0.202987
0.324648
-0.527634
0.0614647
-0.237343
0.175878
-0.431682
-0.139669
0.0664017
-0.183947
-0.223009
0.413535
-0.119348
0.147463
-0.0281154
0.001135
-0.0115587
0.0276756
0.373738
-0.0900938
-0.174205
-0.0947503
0.268955
-0.340036
-0.218604
-0.0798517
0.245061
-0.165209
0.148829
-0.104872
-0.0439574
-0.00456037
0.00176152
0.152699
-0.133031
-0.0196679
-0.3341
0.100259
0.233841
-0.0187804
0.0144592
0.00432116
0.326167
-0.688798
-0.227066
0.0619896
-0.199787
0.0455142
-0.0408773
-0.00463689
0.202129
0.271521
-0.0384949
-0.145204
0.183699
0.00279944
0.0760438
-0.0788432
-0.00493043
0.00493043
-0.0234646
0.121086
-0.0976214
0.309709
0.287306
-0.000721472
-0.0130401
-0.594263
0.340681
0.253582
0.206022
-0.42903
-0.464085
0.306195
0.15789
-0.290329
0.0247616
0.265568
-0.123603
0.25721
-0.338865
-0.12522
0.229275
-0.517182
0.485589
-0.297559
0.0713363
0.135278
-0.218687
-0.115414
-0.25435
0.203542
0.167851
-0.380402
-0.0251062
-0.155482
-0.00976582
-0.280564
-0.0872491
0.0979192
-0.475159
0.288251
0.186908
-0.0779531
-0.0508638
-0.128985
-0.162388
-0.0291424
-0.0457901
0.0749325
0.0135284
0.126317
-0.0448607
0.254303
0.168051
-0.206546
0.135841
-0.265903
0.130062
0.142457
-0.364865
0.222408
0.166391
-0.352762
0.186371
0.131694
-0.330668
0.198974
0.307558
-0.175864
0.00355699
-0.00394429
0.000387304
0.0344409
0.00433904
-0.03878
0.0266324
0.235061
-0.108283
0.298237
-0.189954
0.112485
0.0462294
-0.158714
0.0161835
-0.0775508
0.0613673
-0.114576
-0.0173029
0.131879
0.00128578
-0.0874488
0.086163
-0.266162
-0.173502
-0.2607
-0.095792
-0.291337
0.00962552
-0.00287211
0.124655
-0.101539
-0.490952
0.150111
0.340842
0.14154
0.00382838
0.00176953
-0.00283973
0.00107021
-0.00634414
0.0378114
-0.506431
0.291216
0.215214
-0.0496768
0.0334681
0.039209
0.109282
-0.157266
0.0816557
0.0756104
-0.648197
0.226701
-0.287899
-0.203053
0.0910653
0.160055
-0.25112
-0.135936
0.12887
0.00706632
-0.0076946
0.000328609
0.0288235
-0.109181
0.080357
-0.15329
0.182645
-0.0293547
-0.226616
-0.229051
0.455666
0.494207
-0.254247
0.0396235
-0.0293583
-0.0102653
-0.1264
0.262241
-0.261476
0.602157
-0.740979
0.562042
0.178937
-0.0143515
0.00259444
-0.140473
0.334949
-0.194476
-0.428827
0.19817
0.031964
0.190467
-0.105733
0.0163859
0.0893467
0.0940974
-0.0805046
-0.0135928
0.00192505
0.326249
-0.171391
-0.154858
-0.177531
0.160442
0.0170894
-0.118455
0.0447072
0.0737476
-0.0117404
0.00144599
0.0102944
0.0978434
0.00586969
0.113533
-0.0891653
-0.0243673
-0.0133101
-0.0696103
0.277567
0.365451
-0.137274
0.0044313
-0.651555
0.252632
0.398922
-0.115105
0.0620033
0.0531016
-0.251084
0.171233
0.0605057
0.103529
-0.0396398
-0.0340722
0.073712
0.111192
-0.0112396
-0.0999522
0.0309527
-0.0967233
0.0657706
0.332395
-0.189938
-0.121411
-0.10514
0.226551
0.19367
-0.155625
-0.038045
0.0826588
0.0308738
-0.0207538
0.029653
-0.00889917
-0.127968
-0.00796861
0.420497
-0.638731
0.218233
0.0459968
-0.000482621
-0.0346979
0.0441259
-0.00942808
-0.158349
-0.0649271
-0.0736965
-0.201283
-0.129175
0.330458
0.132452
-0.125882
-0.00656962
0.0915069
-0.0944857
0.00297889
0.21927
-0.187306
-0.0570663
0.0751345
0.583864
-0.306828
-0.277037
0.0166242
-0.113263
0.0645245
-0.0300836
0.011771
-0.000830665
-0.0109403
-0.0717999
-0.0487722
-0.0971002
0.0961106
0.000989574
-0.325389
-0.26797
0.593359
0.102342
0.00818106
0.0142942
0.0666418
-0.086136
0.0278283
-0.149197
0.240262
0.144246
0.102992
-0.247237
-0.292731
0.137339
0.00667138
0.013388
-0.0200593
-0.0276272
-0.219745
-0.147635
0.24584
-0.0982044
-0.70122
0.301031
0.400189
0.0404002
-0.162903
0.191963
-0.0290594
-0.348703
-0.127661
0.289708
-0.540685
0.250977
-0.0683713
0.039418
-0.124177
0.106779
0.0173978
-0.0689833
0.0978069
0.0844782
-0.00945645
0.118862
0.0890845
-0.207946
0.0111201
0.069987
-0.0811071
0.212086
0.185429
0.00274426
0.00624909
-0.00899335
-0.00310962
0.139287
-0.136177
0.0191203
0.15962
-0.00283562
-0.156784
-0.0638428
0.024203
-0.271345
-0.235085
0.372676
0.277597
-0.650273
-0.301438
-0.399782
0.133329
0.0859414
0.00255864
-0.000789119
-0.177165
-0.0731853
-0.140992
0.0166665
-0.0813495
0.110722
-0.0293726
-0.00912975
-0.087721
0.0968507
-0.00173947
-0.0100009
-0.191565
0.00418225
0.0763757
-0.368105
0.55689
-0.188785
-0.098064
0.0889342
0.00401818
-0.00205454
-0.00196364
-0.34927
0.208796
-0.363327
0.162044
-0.0890225
0.115415
-0.0263921
0.134141
-0.149667
0.0155263
0.335148
-0.141068
0.106193
-0.253828
-0.178349
0.303131
-0.205972
-0.0971587
-0.453163
0.299318
0.153845
-0.0228143
0.00245759
-0.00517495
0.00761264
-0.0598952
-0.0585595
0.00710118
0.00288634
-0.00998751
0.0142656
0.00653656
-0.151998
0.17651
-0.024512
0.0109658
0.182704
0.145213
-0.266624
0.224366
0.078765
-0.306959
-0.253644
0.560603
-0.112535
0.134646
-0.0221108
-0.146968
-0.241781
0.133183
0.108598
-0.00379028
0.00136521
0.256123
-0.111878
0.00181752
-0.329438
0.221155
-0.135205
0.267568
-0.132363
0.0111109
-0.0741966
0.195041
-0.0269894
-0.0805529
0.0672429
0.15931
-0.273311
0.00461898
0.00715198
-0.101829
0.0814733
0.0203552
-0.0389415
-0.0761634
0.297845
-0.137024
-0.428052
-0.312927
0.665179
-0.349015
-0.316164
0.10448
0.159958
-0.264438
-0.255824
-0.174206
-0.00699616
0.00699616
-0.176379
0.0311751
0.0101845
-0.00308333
-0.129807
-0.027459
-0.0661254
0.00876889
0.0573565
0.0146975
0.119386
-0.265862
0.564115
-0.0113001
0.0679288
-0.0566287
0.0720344
-0.0609143
0.246308
-0.151564
-0.0947444
-0.0807169
-0.0211116
-0.197523
0.254327
-0.0568035
0.241736
0.0789003
-0.320637
-0.172331
0.40505
-0.232719
-0.161455
0.136349
-0.0480827
-0.193699
0.132192
-0.0218186
-0.110373
0.121801
0.185758
0.0540686
0.0149289
0.0652751
-0.113063
-0.023891
-0.117101
-0.0218683
-0.112026
0.133894
0.0141171
-0.275448
-0.0936706
-0.0566482
-0.00947718
-0.00433949
-0.0184748
0.011299
0.0152053
-0.0718839
0.0566787
0.0875599
0.00394697
-0.0876763
0.00067892
0.0869974
-0.0801421
0.0228274
-0.0104725
-0.00104763
-0.0987196
-0.0182632
0.060134
-0.183808
0.123674
-0.0244401
0.0108587
0.0135814
-0.00119938
-0.00125864
-0.0705313
0.0592312
-0.12214
0.0315151
0.0906246
-0.261448
0.112364
0.149084
-0.0107388
-0.00361267
0.133555
-0.105328
-0.028227
-0.111353
0.0878887
0.203008
-0.141544
0.217707
-0.390038
0.0283172
-0.188297
0.0503238
0.137973
0.000605027
0.000693152
-0.00129818
-0.0180172
-0.0505224
0.52061
-0.317624
0.401784
-0.0755001
-0.326284
-0.0520912
0.0682747
-0.143178
-0.11827
0.015339
-0.00866761
0.150861
-0.455895
-0.444166
0.268541
0.175625
0.327699
-0.217138
-0.110561
-0.0679857
0.0707851
-0.431201
0.204586
0.0747254
-0.10269
0.0279644
-0.00329772
-0.0211424
-0.297441
-0.354114
-0.153702
-0.101506
0.255209
-0.326839
0.152634
0.00583163
0.000924084
0.000981115
-0.186868
0.0645959
0.122272
-0.0690719
-0.0352763
0.104348
-0.235532
0.0863354
-0.0596993
0.090652
-0.00189977
0.0100004
-0.00810059
-0.158209
0.155596
0.0469189
-0.182999
0.13608
0.39204
0.181838
-0.573878
0.0555773
-0.00609487
0.0747054
-0.0667959
-0.00790947
0.215759
-0.152477
0.17755
-0.0250728
0.19141
-0.0387413
-0.152669
0.159393
0.0593925
-0.218785
0.017203
-0.169201
-0.0281474
-0.149384
0.0660648
-0.0117542
0.0687515
-0.0569973
-0.205287
-0.212741
0.0105311
-0.012315
0.00178393
-0.00104602
-0.189501
0.0213492
-0.0406402
-0.148861
-0.0541356
-0.0125768
0.0667123
-0.0814027
-0.0243299
0.00548355
-0.00388738
-0.00159618
-0.00864671
0.00674694
-0.234317
0.057152
-0.157453
0.154344
0.0226054
0.00704758
0.00409192
0.0082676
0.148677
0.455336
-0.604013
-0.158052
-0.195931
0.353983
0.189843
-0.033104
-0.156739
-0.238063
0.48175
-0.00954331
0.020402
-0.0735657
-0.0529582
-0.118607
-0.0682609
-0.172848
0.0042926
-0.0185617
-0.154286
0.142747
-0.329612
0.186865
-0.139761
-0.0532952
-0.0935357
0.096493
-0.00295729
-0.202989
-0.160338
-0.0751803
-0.0196805
0.215471
0.112228
-0.0871925
0.0533523
0.0338402
-0.00178507
0.00698839
-0.00520332
-0.043374
0.479313
-0.113312
0.0221886
0.0911235
-0.123816
-0.140277
0.363099
-0.196709
0.0645917
-0.049051
-0.0155407
-0.189672
-0.17274
0.362413
-0.0747392
0.0707103
0.482955
-0.27848
-0.204476
-0.220108
0.06886
0.151248
0.224544
0.337865
-0.562408
-0.172694
0.211491
-0.0387974
0.0893801
0.178106
-0.267486
0.0104561
0.213743
0.194238
-0.407981
0.149745
0.233204
-0.382949
-0.344481
0.250289
0.0941923
0.281566
-0.470479
0.188913
-0.00307736
0.00129229
0.121101
-0.0629171
-0.0581842
0.127641
-0.149509
0.0743577
0.0467436
0.196826
0.0494824
0.000184333
0.00846481
0.0431022
-0.0122902
-0.030812
-0.536242
0.136922
0.39932
0.130982
0.0178474
-0.0766974
0.350461
0.0513239
0.62951
-0.256834
0.168105
-0.0288183
0.0961385
-0.0214131
0.00420474
0.00315419
0.0340713
0.540717
0.104815
0.0132468
0.252402
0.30504
-0.557442
-0.0800228
-0.0170774
0.25809
-0.565049
0.000480374
-0.0343027
0.204715
-0.170413
0.486025
-0.245361
-0.240664
0.267761
-0.519933
0.252173
-0.383243
0.156549
0.0407227
-0.0463039
0.0497896
0.0525524
0.0189171
-0.0208253
-0.327878
0.00868687
-0.196983
-0.0972406
0.0868154
0.0104252
0.184933
-0.0634666
-0.17085
-0.01777
0.0176711
9.88427e-05
-0.0195367
-0.00115996
0.0206967
0.0125816
0.0870123
0.508555
-0.545438
0.036883
-0.082289
-0.00767672
0.104533
-0.125156
0.0206225
0.197529
-0.341382
0.143854
-0.266282
0.454441
-0.188158
-0.0932957
0.123108
-0.106602
-0.0165057
0.290859
-0.00110913
0.00257216
-0.00146303
0.00998285
0.000548224
-0.0414638
0.124244
0.244064
-0.262716
0.0186519
-0.211416
0.390086
-0.17867
0.365318
-0.215573
0.0206869
-0.0302302
0.137258
-0.0178789
-0.119379
0.467012
0.12591
-0.116484
-0.0128968
0.166965
-0.346577
0.179612
0.186916
0.00930516
0.198937
0.25143
-0.0214825
0.0394851
0.0142851
0.441051
-0.150713
-0.0493104
0.200023
0.155473
-0.0901979
-0.0223791
-0.0387471
0.0611262
-0.0275473
-0.00696078
-0.0911032
0.0327955
0.114668
-0.000579097
0.000649328
-0.00121823
0.022347
0.0254538
-0.0901091
-0.00457497
0.00665461
-0.00207964
-0.481324
0.209979
-0.000235917
0.00441841
0.00247036
0.146878
-0.149348
0.174752
-0.147106
-0.0276459
-0.0353115
-0.0729882
0.1083
0.140379
0.19457
-0.00745606
0.00343771
0.00401835
-0.155812
-0.424545
-0.0794499
0.111236
-0.0317864
-0.00138323
-0.00279926
0.324607
-0.195412
-0.129195
0.227962
-0.0406262
-0.187336
0.0736492
0.0337962
-0.107445
-0.200798
-0.1687
0.369498
0.0961103
-0.0206582
-0.0754521
-0.102281
0.00874555
-0.0132164
-0.0573149
-0.0686049
0.0953984
-0.0456088
-0.405485
0.162289
-0.154305
-0.00798413
-0.0780254
0.23808
0.315919
-0.147343
-0.168576
-0.00907721
0.0655041
-0.096284
0.293813
0.163766
-0.0249382
0.165728
-0.0766673
-0.550841
0.014599
0.268719
-0.130778
-0.182988
-0.147681
0.157379
-0.01573
-0.141649
-0.0192244
-0.0305561
0.0392771
-0.00872105
0.0894088
0.0260059
0.239111
0.0871385
0.142716
0.414174
-0.0977095
-0.00742558
-0.0418589
-0.0542678
0.259647
-0.155167
0.26659
0.219435
0.478052
-0.167019
-0.311033
-0.116137
-0.402625
0.24308
0.159545
0.0138819
-0.0629328
0.287603
-0.538993
0.25139
0.117112
0.00069893
-0.117811
0.000556742
-0.0811097
0.0466898
-0.0366358
-0.010054
0.275472
-0.603487
0.257237
0.225719
-0.243254
0.481922
-0.238668
0.120807
0.114957
0.0760098
-0.100456
0.0244461
-0.000438763
-0.0164809
0.0074136
0.0739776
-0.0922887
0.0183111
-0.11923
-0.00181697
0.0313463
0.0082772
0.307934
-0.165187
0.176484
0.0457217
0.0920516
-0.0804386
-0.0116129
-0.132762
-0.0873454
-0.306918
0.088231
0.12252
0.0274556
-0.149976
-0.0534509
0.0686562
-0.0875615
-0.163523
0.0702381
-0.0279516
-0.0422866
0.204125
-0.0447321
0.00175649
-0.00696912
0.00521263
-0.0743815
0.355487
-0.281106
0.000329355
0.000363796
-0.00555651
0.000981533
0.00487283
-0.0267826
0.0288359
-0.00205334
-0.0425259
-0.0451504
-0.111405
0.135037
-0.0236316
0.00132195
0.00043454
0.222228
0.162271
-0.115352
-0.397365
0.346467
0.0508973
0.111105
-0.0110243
-0.100081
0.483214
-0.193506
0.0451572
-0.0831587
0.0380015
0.0867284
-0.0494264
-0.037302
-0.164801
0.0966114
0.06819
-0.190224
-0.159046
-0.0650323
0.215113
-0.150081
0.0375027
-0.00615637
0.0365807
-0.220956
0.145725
-0.0855907
-0.230928
0.489093
-0.258165
-0.0693523
0.0572424
0.0121098
0.103383
-0.0197171
-0.0836655
-0.0806706
-0.0958648
0.119321
-0.0234562
0.00349878
-0.000499858
0.292064
-0.0765931
-0.00161334
0.000504203
-0.0820375
0.0395116
0.000773672
0.0746039
0.0313586
0.0336106
0.113505
0.102199
-0.215704
-0.093379
0.099616
-0.00623694
-0.173248
-0.423911
0.15947
0.0299934
0.0514784
0.206953
0.253183
-0.460136
0.0109765
0.0321257
0.00581253
-0.0131481
-0.0020378
0.0151859
0.00112814
0.0903969
0.00165464
-0.0527317
-0.0166758
0.0694075
0.259075
-0.139622
-0.119453
0.0110619
-0.0985107
0.450182
0.0583736
0.0565618
-0.0725961
0.0160343
0.105598
-0.0828917
-0.0227068
0.0400561
0.152366
0.0938369
-0.0235661
-0.0702707
-0.0903262
0.0381035
-0.102082
0.0950435
0.00703819
0.345902
-0.14739
-0.198512
0.100882
-0.0414068
0.000299948
-0.00137899
0.00107904
0.231383
0.22484
-0.0498497
-0.17499
0.240268
-0.525506
0.285238
-0.507046
0.115578
-0.331577
0.556121
-0.0387056
-0.00733566
0.0460412
-0.278622
0.531024
-0.2011
0.372045
-0.170945
0.0220265
0.489511
-0.261718
-0.227793
0.110914
-0.122401
-0.141504
-0.187934
0.099687
-0.134998
0.173159
-0.26072
0.0503416
-0.0713318
0.524722
-0.271932
-0.25279
0.0246698
-0.00627744
0.0170031
-0.0107256
0.0101286
-0.0794687
0.0946878
-0.0152191
-0.111771
0.0602954
-0.0488611
-0.0383314
-0.0280222
0.101671
0.0472125
-0.00964362
-0.0375688
-0.0850624
0.101687
-0.550562
0.210526
-0.0050255
-0.00411365
0.00913915
0.202589
-0.00458643
0.000699052
-0.0564987
-0.157599
0.0122195
0.0560555
0.0359686
-0.0920242
-0.0185425
0.0925201
0.581313
-0.317861
0.179908
-0.2109
0.030992
0.00205587
0.0242848
-0.0263406
0.0335653
0.191275
-0.0623929
-0.0090206
0.0714135
0.168717
-0.218094
0.0493777
0.0859299
-0.0680112
-0.0179187
0.0534741
0.0800812
-0.0032568
0.0902542
-0.0536906
0.566591
-0.244369
-0.322223
-0.0094653
-0.0301459
0.0396112
0.0784364
-0.0195702
-0.0588662
-0.451698
0.310096
0.141602
-0.109689
0.289345
-0.179656
0.0320368
-0.00943137
0.255514
0.0365504
0.120229
-0.104049
-0.0161804
-0.00156367
0.00186361
0.496
-0.228239
-0.0745328
0.0955255
-0.0209927
-0.0509984
-0.112065
0.163063
0.147714
-0.114919
-0.302013
0.192324
-0.261157
-0.190541
0.29937
0.297645
0.0073936
-0.0109475
-0.0295703
0.0405178
0.373664
-0.166456
-0.207208
0.43234
-0.225387
0.0992059
0.0641572
-0.163363
0.0885022
-0.0324466
-0.0247886
0.43325
-0.214826
-0.231754
0.319668
-0.105925
0.558344
-0.331314
-0.22703
-0.381688
0.178699
-0.0979824
-0.0668191
-0.161499
0.156796
0.00470243
0.0611889
0.0255395
-0.102272
0.0220875
0.0801846
-0.147078
0.130522
0.0165561
0.0982586
-0.085677
0.265723
-0.13117
-0.134554
0.511411
-0.0909137
-0.30461
0.241712
0.0628975
-0.0196387
0.0762005
-0.172059
0.0676833
-0.0932407
-0.0298643
-0.0741131
0.0608968
-0.587687
0.262298
0.00902339
-0.0237225
-0.132022
0.104637
-0.0791799
-0.0254572
-0.069873
-0.327492
0.0112418
0.0825951
-0.166744
-0.0448857
0.211629
0.389189
0.27599
-0.117126
0.250515
-0.133389
0.506709
0.0233363
-0.530045
-0.0335355
0.111341
0.15409
-0.134018
-0.0200726
0.0319823
-0.117045
0.235544
-0.567121
0.034752
-0.0442173
-0.338488
-0.00104398
-0.00388644
0.00196288
-0.383431
-0.0442883
0.42772
-0.00426498
0.0103394
-0.00607438
-0.630677
0.374436
0.256241
-0.383396
0.182597
-0.22156
0.156528
0.596004
-0.308698
-0.203162
-0.101448
-0.169955
-0.093762
0.263717
0.34131
-0.174345
0.253833
0.164373
0.200764
0.323474
-0.524238
-0.276509
0.0789859
0.0738945
0.0269871
0.0372058
-0.0481533
-0.388984
0.158287
0.230697
-0.0120267
0.00128786
0.325779
0.271236
0.133514
-0.0251578
-0.131482
0.122545
0.00828581
-0.00597349
-0.00231231
0.0416224
-0.0392691
-0.00235335
-0.00641459
-0.103243
0.255651
-0.152408
0.368216
-0.12648
0.0148527
0.0598527
0.141949
-0.557686
0.291897
0.265789
0.00929053
0.141619
-0.218879
0.134349
-0.0186772
0.00510441
0.0135728
0.121707
-0.0139863
-0.10772
0.483821
-0.207668
-0.276153
0.0227635
0.135428
-0.158192
-0.10259
0.0889498
0.0136402
0.500799
-0.243562
0.0729724
-0.0892703
0.0162979
-0.28001
0.226431
0.0535788
-0.00311086
0.016224
-0.0131131
-0.133607
-0.0246012
0.0689878
0.0991171
-0.0562176
-0.036071
-0.0480137
-0.0464721
0.165848
0.400744
-0.00307382
-0.156321
0.00535869
0.304737
-0.104107
-0.0117482
0.359381
0.23169
-0.59107
-0.236597
-0.243786
0.480383
0.0899043
-0.259859
-0.203843
0.541708
0.00291794
0.159371
0.00498175
0.027055
-0.358317
0.168644
-0.056249
0.0423155
0.0139335
-0.0121167
0.00900582
0.300634
0.200165
-0.0075464
0.00959592
0.0243997
-0.0339956
0.0437483
0.143168
0.0408945
0.00690525
0.00430921
-0.0403195
0.0974263
-0.0571068
-0.0168578
-0.000912181
0.0616257
0.0366328
-0.120715
0.280025
0.0993621
-0.0104123
-0.319958
-0.230604
-0.0067341
-0.0119431
0.00917963
-0.122883
0.0146858
0.00723247
-0.19978
-0.244387
-0.0164881
-0.00769496
0.0241831
-0.222102
-0.206725
-0.0350968
0.0459465
-0.0108497
-0.0719029
0.0805715
-0.0086686
0.0805981
0.0155121
0.197512
0.14839
-0.0215761
0.00203944
-0.105423
0.0376138
0.0678092
-0.200051
-0.106867
-0.0236315
0.000898855
-0.0852096
0.184415
0.103197
-0.0776599
-0.0255368
0.139494
-0.119631
-0.0198632
-0.0264023
-0.000380255
0.328034
-0.0170344
-0.122691
-0.226307
-0.255017
0.0977256
0.0193868
0.0301675
-0.18766
0.157492
-0.258456
-0.216703
0.0279399
0.0681707
-0.297561
0.076001
0.0929704
-0.0999312
0.0882406
0.0313742
0.442077
0.000891322
0.0096862
-0.109631
0.269589
0.26399
-0.18777
-0.0762202
0.00929001
-0.0237866
0.0144966
0.16853
0.172916
-0.341446
0.217941
-0.244312
0.026371
0.349491
-0.175185
-0.174307
-0.00737282
0.0405546
-0.0331818
0.176868
-0.302574
0.125706
-0.00265806
-0.127678
-0.249275
0.376953
-0.0879275
0.233141
0.474066
-0.274628
-0.199438
-0.16568
0.00418154
-0.559829
0.434678
0.125151
0.00726018
0.00397826
-0.0112384
-0.0128259
0.136695
0.113794
-0.0822785
0.178633
0.0907969
-0.26943
0.331137
0.163318
-0.494455
-0.562169
0.283547
0.064229
0.177483
-0.203795
-0.303251
0.126894
0.0322664
-0.00865877
-0.31568
0.495431
-0.179751
-0.159309
0.0376135
0.00614201
0.0202893
0.0232408
0.18576
-0.327263
-0.00949038
0.0186864
-0.175559
-0.10445
-0.0274529
0.00105061
0.29856
0.260896
-0.559457
-0.233159
-0.111322
0.00816963
-0.0103544
0.00218478
0.110264
-0.0363697
-0.16497
0.0941926
-0.127728
-0.208789
0.105546
-0.115029
0.135037
-0.0200077
-0.129758
0.124003
-0.43142
0.186059
-0.00905633
0.0489341
-0.00821145
0.00228931
0.00172888
-0.0492012
-0.125224
-0.18651
0.194557
-0.00804706
-0.00385703
0.0926324
-0.246335
-0.0533477
0.334914
0.0902898
0.00755359
0.471836
-0.140699
0.0814524
0.0231846
-0.0708379
0.0590838
-0.0767901
0.0957317
-0.0189416
0.0461536
-0.0487196
-0.257645
0.00530045
0.252344
-0.094028
-0.00809429
-0.0161704
0.186139
-0.169969
-0.0163374
-0.0694801
0.0858175
0.142251
0.142344
-0.284595
-0.0584026
0.532951
-0.272795
-0.260156
-0.428592
0.16243
-0.0352839
0.0059256
-0.477649
0.234396
-0.280656
-0.281512
-0.0166266
-0.101393
0.118019
0.034934
0.159736
-0.19467
0.217208
-0.0407245
-0.379937
0.168521
-0.0350215
-0.0277991
0.0628206
0.0136275
0.0513621
0.0239747
-0.0395055
-0.113363
0.0924788
0.0208842
-0.50329
0.119859
0.0474323
0.0484312
-0.0958635
0.149261
0.0048295
-0.146681
0.0691674
-0.0330066
0.0569814
0.0656756
-0.00399918
-0.0616764
0.631905
-0.520981
-0.110924
-0.042405
0.0875622
-0.045007
0.0924392
0.00994614
-0.0106676
0.467499
-0.23143
-0.236069
-0.0321941
0.0385272
-0.00633317
-0.407791
-0.152038
0.000517625
-0.232237
0.410842
-0.178605
0.520236
-0.261042
-0.259194
-0.00755565
0.00400049
0.00355516
-0.496292
0.259695
0.186356
0.240019
-0.426375
-0.259125
0.014027
0.00477406
0.00254484
-0.00731891
-0.0924974
-0.0208655
0.321428
0.308082
-0.0974342
0.0229014
-0.384428
0.144127
0.240301
0.00383559
-0.00292654
-0.000909057
-0.313068
0.547361
-0.234293
-0.210869
0.289769
-0.0977429
0.0415252
0.0610555
0.210973
-0.272028
-0.169351
-0.223924
0.393275
-0.0159614
0.119946
-0.103985
0.000416882
0.338051
-0.14095
0.445991
-0.152333
0.1825
-0.225833
0.0644766
0.161356
0.143941
-0.418081
0.186396
0.00344644
-0.391656
0.125374
-0.0898849
-0.207676
-0.210098
-0.0475474
0.145108
-0.196106
0.437188
-0.297998
-0.115516
-0.0140903
0.129606
-0.00398057
0.0184398
0.166385
0.108518
-0.274903
0.0268888
0.0286885
0.056773
0.272329
-0.0333619
-0.139038
0.1724
-0.492548
0.26162
-0.345025
0.186973
-0.152218
0.17603
-0.0238115
0.0433786
-0.00175612
0.0219365
0.113719
-0.135655
0.59699
0.309286
-0.303927
-0.0969401
-0.00533205
-0.00820683
0.0459653
-0.0377585
-0.130484
-0.212455
0.342939
0.0067551
0.0961818
-0.102937
0.221505
0.0287835
0.193123
-0.0244066
-0.0176585
0.00948438
-0.076273
-0.0894074
-0.0128802
0.0554585
-0.0425783
-0.167751
0.370208
-0.202457
0.463089
0.170826
-0.301309
0.284124
-0.544564
0.26044
-0.0243074
0.125125
0.125389
0.206543
-0.498478
0.291935
-0.310967
-0.236893
0.54786
0.531124
-0.289658
-0.241466
-0.223042
-0.208378
-0.0207582
-0.00287328
-0.36772
-0.262957
0.0119581
-0.00791543
-0.00404266
0.286119
-0.154599
-0.13152
0.00457808
0.0700661
-0.000423027
-0.069643
-0.336096
-0.237528
0.573624
-0.300417
-0.13728
0.0949662
-0.0722028
0.0753131
-0.0371193
-0.0381938
0.0607679
0.0123726
-0.0731404
-0.266022
-0.0349181
-0.0331038
0.0184729
-0.0979228
0.0639392
0.070705
-0.0870425
0.296161
0.300854
-0.261543
0.109979
0.145007
-0.244168
0.0217195
-0.0854548
0.0637353
0.0313674
0.183746
0.233925
-0.116851
0.0243536
-0.0156532
0.0183319
-0.00267868
0.300723
0.00316004
0.0216585
0.0485796
0.208538
-0.217285
0.00874737
0.159268
0.0690276
0.00940874
0.0107244
0.12877
0.269581
0.197918
0.0147204
-0.0674521
0.279479
0.144817
0.141302
0.168468
-0.170724
0.00225664
-0.195176
-0.0306569