/*--------------------------------*- C++ -*----------------------------------*\
| =========                 |                                                 |
| \\      /  F ield         | OpenFOAM: The Open Source CFD Toolbox           |
|  \\    /   O peration     | Version:  v2012                                 |
|   \\  /    A nd           | Website:  www.openfoam.com                      |
|    \\/     M anipulation  |                                                 |
\*---------------------------------------------------------------------------*/
FoamFile
{
    version     2.0;
    format      ascii;
    class       surfaceScalarField;
    location    "150";
    object      ddtCorrDdt0(phi);
}
// * * * * * * * * * * * * * * * * * * * * * * * * * * * * * * * * * * * * * //

dimensions      [0 3 -2 0 0 0 0];
oriented        oriented;


internalField   nonuniform List<scalar> 
20642
(
-0.000280207
0.000312701
-3.25318e-05
0.00345127
-0.00251654
-0.0009347
-0.00033865
-0.000147143
0.000485802
1.63412e-05
1.68048e-05
-3.3145e-05
0.00221783
-0.00161453
-0.000603306
0.000680016
0.00277125
3.55286e-05
-1.06546e-07
-3.54206e-05
0.0169683
-0.00983606
-0.00713227
1.76602e-05
-3.88761e-05
2.12166e-05
0.000121317
0.00077196
0.0075284
0.0094399
-2.10633e-05
-3.47697e-06
2.45411e-05
-1.09705e-05
1.09703e-05
-0.0188386
0.000309446
0.0185289
-0.000160591
0.00090795
-0.00074734
-0.000321704
4.14902e-05
-1.66193e-06
1.66672e-06
-4.71027e-09
-0.0120701
0.00716979
0.00490034
-0.000469375
0.000617512
-0.000148153
-0.000752282
0.000819723
-6.74818e-05
-9.22544e-05
0.000846493
-0.000754246
-9.43903e-06
4.497e-05
-3.55314e-05
-0.000249876
0.000178228
7.1652e-05
-4.50083e-05
3.55697e-05
-3.25724e-05
3.48488e-05
-2.27667e-06
-0.000181875
0.00104019
-0.000858325
0.00216526
-0.0119094
0.00974391
0.000121319
-0.0037761
0.0036545
0.000121574
-1.03244e-05
-1.57135e-05
2.60382e-05
0.000108326
1.29842e-05
-0.000246226
0.000160566
8.56602e-05
2.28786e-05
-3.64697e-05
1.35912e-05
3.06885e-05
0.000282108
-0.000312802
4.48809e-05
-7.81182e-05
3.32388e-05
0.00802982
-0.0178659
2.37509e-05
0.000111609
-0.000135357
-1.33399e-05
1.4879e-06
1.18514e-05
-1.26519e-06
3.67945e-05
-0.000167928
0.000740065
-0.000572135
2.92484e-06
-2.03069e-06
-8.94619e-07
0.000141428
-0.000266143
0.000124714
3.5314e-05
-2.4315e-05
-1.09993e-05
-0.00032183
-4.65601e-05
0.000368388
-0.000403601
8.17792e-05
-0.00628231
0.00449155
0.00179077
-0.000734351
0.000642094
0.00402885
-0.0103005
0.00627172
0.0183162
-0.00996812
-0.00834789
-1.84327e-05
6.33144e-05
-2.29958e-05
1.93255e-06
0.00204197
-0.00155567
-0.000486291
0.000170469
-1.07918e-05
-0.000159672
3.52371e-06
9.07477e-06
-1.2597e-05
-1.81634e-05
-1.85485e-06
2.00191e-05
0.0014886
0.000553345
0.000108328
-0.000235813
-1.40619e-05
0.000162298
-2.087e-05
-0.00564747
-0.000634805
-0.0125399
0.00357977
0.00896066
-0.00278924
0.00369058
-0.000901332
4.30879e-06
-5.56964e-06
1.26112e-06
7.99178e-06
-4.05643e-05
-0.00108269
0.000557234
0.000525448
-0.0028136
-0.00171355
0.00452714
0.00471271
-0.00543191
0.000719181
0.015181
-0.00715124
-0.00454171
-4.1544e-05
0.000227726
-0.000186196
-0.00075306
-3.06835e-05
0.000783736
0.000234324
-0.000203638
-8.60243e-06
1.71314e-05
-8.53054e-06
0.00010476
5.75351e-05
0.000335281
0.000511206
-3.07017e-05
5.46461e-05
-2.3945e-05
0.000540027
-0.000688929
0.000148898
9.76478e-05
7.11138e-06
2.39309e-05
-5.46332e-05
-2.40097e-06
2.52796e-05
2.33539e-05
1.28751e-05
-3.62306e-05
4.24841e-06
-4.51396e-06
2.65437e-07
8.92555e-06
-1.75296e-05
0.000403998
5.30229e-05
-0.000457032
2.69716e-06
1.00645e-05
-1.27611e-05
0.000624338
0.0158315
-0.016456
-4.50447e-05
-0.00020118
1.61384e-05
-1.5136e-05
-1.00237e-06
-0.000634287
0.000466361
-1.65255e-06
-9.50661e-09
2.3197e-06
-3.19214e-06
8.72682e-07
7.43332e-06
0.00909527
0.00922098
3.18337e-05
-3.39564e-05
2.12457e-06
1.06967e-05
1.399e-05
-2.46868e-05
0.000936605
0.0133275
-0.0183323
0.00500487
-6.4173e-06
5.97196e-06
4.45221e-07
4.79361e-06
1.13447e-05
-0.000375522
-0.00788631
0.00826188
3.20647e-07
-3.33727e-07
1.30434e-08
-1.41743e-07
4.62627e-07
4.1679e-05
-1.83269e-05
-9.73013e-06
9.81231e-06
-8.2052e-08
0.000450204
8.98198e-05
-0.000216727
0.000162759
5.39627e-05
0.00216782
-0.00245294
0.00028505
-0.00269104
-9.81998e-05
-8.48638e-05
-0.000181282
0.0137665
-0.0116014
-4.26423e-06
4.20202e-07
-0.000105764
0.000387869
0.00241927
0.00123523
-0.000401111
-0.000681575
-9.94381e-05
7.44352e-05
2.50022e-05
-0.000565995
9.66087e-05
4.61407e-07
-1.97019e-07
-2.64885e-07
0.000380322
0.00016733
-0.000547647
8.80424e-06
-3.77077e-07
-8.42911e-06
-5.96665e-07
4.84496e-06
-6.67485e-05
3.53123e-05
3.14367e-05
-0.00532327
-0.000108627
0.000893037
-0.000777102
-0.00011593
-0.000151752
-1.97448e-05
0.000171498
0.000387334
1.66619e-05
2.54812e-05
9.77862e-06
-3.52592e-05
-0.000797553
0.00113283
-1.36455e-05
-1.54792e-05
2.91254e-05
0.000423129
0.000469911
-2.3204e-05
-4.88674e-05
7.20721e-05
0.00232962
0.00322332
-0.00555291
-6.98615e-05
-0.000122266
0.000192134
-2.51402e-05
-7.42988e-05
-0.000192674
-3.43134e-05
0.000226986
0.00168244
0.012084
0.0109734
0.00353276
-0.0145057
0.000145314
-0.000139908
-5.40668e-06
-0.000449652
0.00137159
-0.000921949
-1.33405e-05
-0.0604932
0.0431811
0.0173122
2.97767e-05
6.78707e-05
-0.000121175
-9.55531e-05
1.16014e-05
8.82912e-06
-2.04306e-05
-1.23608e-05
2.13763e-05
-9.0164e-06
-0.00133555
0.000434239
0.000901295
-0.000785524
3.24558e-05
0.0563346
0.00810611
-0.00601181
-0.00209439
1.76566e-05
-1.41313e-05
0.000288022
-0.000540769
0.00025275
-6.3561e-07
1.11258e-06
-4.76813e-07
-1.99483e-05
7.58793e-06
-0.00872786
0.0220554
-4.52249e-05
-8.30468e-05
0.000128274
-8.01568e-06
-1.7142e-06
0.000111539
-0.000164122
5.25827e-05
1.18044e-06
-8.42273e-07
-3.38391e-07
3.07476e-07
1.53944e-07
5.83123e-07
1.50786e-05
-1.56611e-05
-0.000241207
-0.00226741
0.0025086
-0.00044363
0.000160325
0.000283312
-0.0163748
0.00340822
0.00505897
-0.00846752
0.00970437
-0.0105527
0.000848362
0.000170469
-0.00407253
-0.0110024
0.0150735
-6.27535e-06
4.82265e-07
5.79469e-06
-0.00192137
0.00147171
7.99574e-05
-4.99505e-05
-3.00056e-05
0.000222883
-0.000250423
2.75399e-05
-2.09867e-05
-0.00471936
0.0119507
-0.00723139
-0.000331088
0.000933198
-0.000602065
1.80422e-07
-1.16482e-06
9.84498e-07
2.70108e-05
-1.06696e-05
0.00262702
-0.00163367
-0.000993333
5.16372e-05
-7.48411e-05
-0.000268367
-0.000175259
3.34204e-05
-1.24808e-05
-2.09392e-05
3.49495e-05
-1.64363e-05
-6.55917e-06
-0.00263642
0.000686695
0.00194971
-0.000173889
0.000554221
0.00726687
-0.00493723
6.02187e-06
-2.24578e-05
-0.000245998
-0.00239043
-2.65098e-05
1.61838e-05
-0.0118023
0.0124266
0.000947597
-0.00127864
-0.000382243
-2.13576e-05
0.000439285
0.00109028
-0.00152959
-0.000330947
0.000100418
0.000230501
1.0069e-05
2.17642e-05
0.000189894
-3.11076e-05
-0.000158779
-3.41005e-05
5.29497e-05
-1.885e-05
0.000118592
-0.000188455
-3.9359e-05
-3.87584e-05
4.38409e-05
-8.90637e-05
-0.000424205
0.000516711
-9.25054e-05
0.000212631
-0.000216163
3.52927e-06
0.000151909
-6.59973e-06
0.000108896
-8.68889e-05
-2.20039e-05
0.00784405
0.000254289
-0.0080983
-0.000645403
-0.000843584
0.001489
-0.000346265
-3.69721e-05
0.00107136
-3.99542e-05
5.28281e-05
-7.12911e-06
1.68993e-05
-9.76281e-06
-0.00319105
0.00387532
-0.00068428
0.00173713
-0.00492818
-0.00219447
-0.000226341
3.36683e-05
0.00118971
-0.00094845
0.00174196
-0.000793467
-1.2316e-05
5.57088e-06
6.74508e-06
-4.301e-06
1.13702e-05
-7.06933e-06
5.71382e-06
-1.00152e-05
-0.0151811
0.00107281
0.0011523
-0.00222513
0.0029207
-0.000179983
-0.00274074
-1.57957e-05
6.10827e-06
9.6878e-06
4.66942e-06
-3.60188e-07
-0.0156314
0.0173138
0.000179102
-1.15398e-05
6.00995e-06
5.52908e-06
-4.68844e-06
-6.85199e-06
1.39124e-06
1.53343e-06
-6.49085e-06
1.22049e-05
3.66386e-06
-1.01551e-05
-8.84006e-05
0.000322723
-0.003356
0.00773669
-0.00438074
-6.07363e-06
-2.49637e-05
3.10365e-05
3.23323e-06
5.65174e-06
-8.88592e-06
0.000192633
-0.000914342
0.00072168
-0.000242558
4.65601e-05
0.000195987
-1.23695e-06
1.62897e-06
-3.91812e-07
-1.0343e-05
-5.45268e-06
0.009735
-0.00189101
0.000178026
-0.00011052
-6.75093e-05
0.00175949
-0.00129516
0.00034674
0.00130171
0.00101024
-0.00231202
2.02369e-05
-8.63541e-06
-0.00781195
-0.00319079
0.000886677
-0.000694048
0.0025988
-0.000179538
-0.000264571
-0.000111806
0.000376378
6.74608e-05
4.14379e-05
-0.00555051
9.87337e-06
-9.75951e-06
-1.16241e-07
0.000314928
7.15227e-05
-0.000386445
-0.00108607
0.000642635
0.000443461
-5.77346e-06
3.7058e-05
-3.12833e-05
-2.03083e-06
3.34731e-05
-0.000673872
-0.000774258
0.00144811
5.82647e-05
5.89531e-05
-0.000117216
-3.66844e-05
0.000176483
-0.000139798
-0.0644876
0.0383118
0.0261759
8.29314e-06
2.71687e-05
-3.54636e-05
3.19387e-06
-7.88299e-06
-0.000136562
5.35164e-05
6.04932e-06
-2.85557e-06
9.49567e-06
5.71771e-07
-1.15423e-05
0.00015679
-6.48383e-05
-9.19504e-05
-5.66446e-05
6.49381e-05
1.1969e-05
0.000122757
0.00283605
-0.000668275
-1.67589e-05
2.31162e-05
-6.35851e-06
0.000433043
0.000244347
-0.000677391
0.008131
-0.00150957
-0.00662137
-9.90946e-07
-7.88589e-06
8.87723e-06
0.00179814
0.00287624
-0.00467433
0.000139678
-0.000176363
1.09219e-05
-1.19125e-05
0.0001714
-0.000212951
-1.82961e-05
7.65594e-05
-0.00305843
0.00281722
-1.2846e-07
3.08977e-07
0.000159722
0.000357093
-0.000516812
-4.7554e-05
4.17822e-05
-6.23166e-06
-1.20353e-05
1.82677e-05
-1.35668e-05
-0.000690191
0.000703769
-1.07756e-05
1.13306e-05
-5.54957e-07
0.0126071
-0.00290272
-0.000117634
0.000130783
-1.31486e-05
-0.000146761
-0.00118881
-0.00978497
0.00788106
0.00190394
0.000140316
-5.08473e-08
-1.18607e-06
-0.00017447
-0.000140593
0.000315065
-0.00154697
0.00172423
-0.000177269
0.000114015
-3.48012e-05
-7.92135e-05
0.00168467
0.000533154
-2.28918e-05
4.6823e-05
3.74304e-05
-5.63862e-05
1.89589e-05
-2.739e-06
-8.0372e-06
-0.00059505
-0.00207124
0.00266626
0.00583855
-0.011494
0.00565542
-0.000145085
0.000460014
2.24284e-05
-4.53212e-05
1.39061e-05
-3.00861e-06
-1.08976e-05
0.00017528
-6.37413e-05
0.000256103
-4.3471e-05
-1.57563e-05
-6.22876e-06
2.19861e-05
-0.000428545
0.00164846
-0.00121992
8.88744e-05
-0.0196925
0.0315711
-0.0118786
-0.000152013
0.000225185
-7.31671e-05
0.000609848
-0.00159464
0.00098473
0.00563727
-0.0103567
0.00102357
0.00466449
-0.00568807
-0.0028752
0.00609852
-0.000244981
0.000678024
-0.000426882
0.000479908
0.0119277
-0.0316203
0.000107637
-0.000446278
4.51797e-06
6.45214e-06
-0.000658468
0.000497882
-0.00217439
4.06021e-05
5.05358e-05
-9.1138e-05
-0.0027238
0.000207237
-0.000361272
-2.09679e-05
3.14322e-06
-3.37369e-06
2.30789e-07
-3.63086e-06
0.000226507
7.17136e-06
8.27865e-06
-1.545e-05
-7.5752e-05
7.53531e-05
8.05176e-06
1.94546e-06
-9.9978e-06
-0.00079781
4.55262e-05
2.28135e-06
-1.24977e-05
1.02162e-05
-0.000165424
0.00029873
-0.000133305
-0.00183263
0.00118724
-0.0027455
0.00376908
-6.66571e-08
3.21033e-06
-0.000143683
0.000345598
-0.000201914
-6.70294e-05
-0.000130908
0.000197938
2.01029e-05
-2.74843e-05
7.3826e-06
-3.07511e-05
7.13534e-05
-0.00037465
0.000268885
-5.27506e-05
0.000169329
-0.000116581
-0.0054416
-0.00103946
0.00648088
0.0147831
-0.0336219
-1.33008e-06
1.22519e-05
1.62385e-05
-2.96534e-05
1.3415e-05
0.000159617
-0.000109238
-5.038e-05
0.00201322
-0.00488843
-1.53825e-05
1.40523e-05
0.00013769
2.45358e-05
-3.57141e-07
-2.41798e-05
-0.00249503
7.33905e-05
0.00242162
-0.000310508
2.74817e-05
0.00105082
-0.00107831
-0.00281018
0.00279261
1.75672e-05
-0.00358772
0.00538594
-5.41715e-06
-6.71562e-05
7.25751e-05
0.000362496
-1.96624e-05
-0.000342865
-3.25794e-05
1.89342e-05
-1.08824e-05
3.09862e-05
0.000445218
-0.00205977
-0.000644061
-0.000237426
0.000881489
-3.05407e-06
6.43532e-07
2.4102e-06
-1.8251e-05
7.22849e-05
-7.77005e-05
-0.0148639
0.0635957
-1.85379e-05
3.75362e-07
0.00420083
-0.00473698
0.000536133
0.000543826
-0.000972375
-0.0269594
0.00177088
0.0251886
0.000178965
-0.00025474
7.5772e-05
0.00267471
0.00248354
-0.00239531
0.000562693
-2.41326e-05
7.37387e-06
-0.000724385
-0.000438357
0.00116276
-4.4853e-05
1.73228e-05
2.75294e-05
-0.00718709
0.0105948
0.00159158
-7.23586e-06
0.000186199
-0.0178641
0.00011161
-8.24377e-05
-2.91709e-05
-0.0151115
0.0126503
0.0024612
-2.09781e-05
1.24605e-05
8.51721e-06
0.000278359
0.000541344
-0.0217781
0.00666667
5.92064e-05
-9.7755e-05
3.85461e-05
-0.00418493
-0.0114466
0.00396824
0.000187101
-0.00415522
-8.35017e-05
3.27232e-05
5.07811e-05
-0.00234139
0.00829574
-0.00595463
0.000101105
4.81618e-05
-2.19238e-05
-4.47353e-05
6.66607e-05
0.000892569
-0.000906135
2.61556e-05
-1.66971e-05
-9.45869e-06
-0.00244122
0.00640946
-0.000521578
0.000374443
1.19651e-05
4.3345e-05
-1.53183e-05
-2.80268e-05
-1.7878e-05
4.0307e-05
1.90475e-05
-2.64502e-06
-1.64032e-05
-2.92118e-06
-5.83634e-06
8.7587e-06
-3.08939e-05
2.2423e-05
8.47216e-06
-0.00737509
-0.00317753
-9.72494e-06
-1.37629e-05
2.34875e-05
2.7644e-05
1.33705e-05
-4.10142e-05
2.27193e-05
2.2738e-05
-4.54559e-05
-4.27341e-05
0.000389167
-0.000346426
-0.0165855
-0.00183202
0.0184175
-1.36315e-06
9.01454e-06
-7.65142e-06
-7.05272e-06
7.7833e-07
0.000113465
-0.000265476
0.00332782
0.000872996
1.07795e-05
-1.7012e-05
7.75028e-05
-1.82972e-05
-0.013467
0.00760585
0.00586123
-0.00767978
0.0291122
-0.0214323
0.0034441
-0.0062577
0.000413846
0.000203661
-1.36441e-06
-0.00042551
-7.14325e-06
3.37837e-05
-2.66414e-05
7.16597e-06
-1.75101e-06
-5.41523e-06
0.000205228
0.000523641
-0.000728867
6.70043e-06
-9.62116e-06
5.80265e-06
3.09848e-05
6.01093e-07
-2.35236e-06
-1.60521e-05
8.90873e-06
-0.00795598
-0.00211302
0.0100687
2.09053e-05
5.25221e-06
-0.000559992
0.00080945
-0.000249457
-1.88607e-05
0.00014162
0.000199864
-0.000374327
1.09987e-05
-1.81268e-05
-7.5859e-06
-1.23624e-05
-0.00583074
0.00348937
-0.000456979
3.27711e-05
-0.000169169
1.74157e-05
7.77947e-06
1.09349e-06
-8.87376e-06
-1.99824e-05
1.43969e-05
5.58935e-06
2.12412e-05
-6.60941e-05
-8.03781e-06
1.17014e-05
-8.05103e-05
0.000104265
0.00014473
-0.00012723
-1.74976e-05
-0.000463821
-0.0130032
-0.000122496
0.00134488
-0.00122239
5.68505e-05
-1.11308e-05
-8.85057e-06
-2.51459e-05
9.27615e-05
-6.76134e-05
-0.00159709
0.00238493
-0.000787834
-3.35299e-05
-6.4253e-06
-0.000499736
0.00180141
-0.00847799
0.0030363
2.20197e-06
2.23342e-05
-0.0272573
0.00697753
0.0202798
1.09136e-05
-2.12936e-05
1.03812e-05
1.3333e-05
-3.35575e-06
-9.97654e-06
-1.28243e-05
3.55451e-05
7.02542e-05
4.13568e-05
2.0583e-06
9.05282e-06
-1.11081e-05
-1.31487e-05
1.82402e-05
-5.09137e-06
5.30126e-05
-0.000589085
-7.40272e-06
9.46013e-06
-0.0045643
-0.00522062
-0.000270646
0.000135377
0.000135277
-6.26301e-06
-6.42917e-07
6.90607e-06
-0.000173261
-0.000288652
0.000461919
3.52624e-05
-0.000116684
0.0068288
-0.00651126
-0.00031758
3.98067e-05
-4.75486e-05
7.74299e-06
0.000110009
0.0386358
-0.0334534
-0.00518249
0.0139088
0.0247271
6.22923e-05
0.00295095
0.00188811
-0.00348521
-1.60398e-05
0.00362912
-0.0045698
0.000940677
2.77411e-06
-4.54093e-07
-6.44216e-06
1.55188e-05
-1.67877e-05
-2.43988e-05
3.78663e-05
-1.34667e-05
-0.000306447
-0.000329388
0.000635838
-0.000550291
0.000494391
5.58941e-05
-0.000161941
-4.99461e-05
0.000211894
-0.00111038
0.000249556
0.000860826
0.00107646
-0.000832113
0.00772893
-0.000559089
0.000316066
-0.00116
0.000843928
8.42359e-06
-1.81479e-05
0.0139825
-0.0136731
6.32766e-05
6.46533e-05
-0.000127928
-9.64324e-05
-2.12012e-05
0.010359
-0.00184571
-0.00851408
1.09759e-05
0.00135246
-0.0010364
-0.00301114
0.00137748
-3.25415e-06
-8.20365e-06
1.14581e-05
-0.000169687
0.000151747
1.7936e-05
6.38958e-06
6.94368e-06
-2.32389e-06
-5.71409e-06
-0.000369856
0.000327128
-7.00585e-06
1.47853e-05
-8.87192e-06
-3.44407e-06
-0.00273244
0.00213737
3.24968e-05
0.000110758
-0.0103075
-0.00995233
0.0202598
-1.28826e-05
1.34661e-05
-1.06676e-05
-1.21389e-05
2.28065e-05
-0.000103263
-0.000547993
0.000651249
-0.00376098
0.00525894
-0.00149796
0.000629747
-0.00996508
0.00933532
2.67188e-06
1.01143e-05
-1.27841e-05
1.58023e-05
-1.58755e-06
-1.2243e-05
1.38316e-05
-0.000912849
0.000449386
0.00046347
0.0328472
0.00464313
-0.0374903
1.10795e-05
2.12461e-05
-3.23263e-05
-1.74447e-06
-1.30929e-06
7.76527e-05
-3.38104e-05
2.72174e-06
1.63267e-05
-4.12076e-05
-0.000975989
0.0010172
-1.90674e-05
4.11765e-05
-2.21082e-05
-3.25877e-06
5.48729e-05
-0.000216811
7.7726e-06
-1.10267e-05
1.58417e-05
-4.96036e-05
3.37625e-05
-3.99641e-05
2.20855e-05
-0.000213571
0.000917609
-0.000704033
6.94421e-06
-2.42076e-06
-4.523e-06
-1.7424e-05
2.55e-05
-8.07566e-06
7.77481e-05
-1.87949e-05
-9.27149e-05
6.75705e-05
-0.000299557
0.000651109
-0.00035153
0.00423367
-0.000379319
-0.00385439
-0.000152857
-0.00775061
7.11007e-06
3.81684e-05
-4.52819e-05
0.00240565
-7.8644e-05
0.000197241
0.000852969
-0.00880893
0.00012669
-0.000145553
-1.58083e-06
-2.35061e-06
3.93332e-06
-2.13181e-05
-5.8713e-06
2.71908e-05
0.000109251
-0.00121964
-1.76511e-05
4.10792e-06
1.35441e-05
0.000924707
-0.000645741
-0.000278963
3.28227e-06
-1.11677e-05
-0.019888
-0.00396017
0.023848
-3.74528e-05
3.35278e-06
0.000138752
-0.000261164
0.000122406
-0.00501006
9.10565e-06
0.00258558
-0.000885875
-0.0016997
-3.07378e-06
-4.32926e-06
-6.49004e-05
-5.47652e-05
0.000119668
-4.16268e-06
-2.25446e-06
2.97484e-06
-0.000308644
0.000305674
-7.81102e-05
0.000216863
4.76794e-06
-1.17737e-05
-0.000344969
0.000182763
0.000162202
2.83078e-06
-3.05166e-06
2.20883e-07
-7.42224e-06
1.15911e-06
-3.4142e-05
-0.000469756
-8.05396e-05
-0.00147225
0.00143105
-2.43831e-06
5.46039e-07
1.89303e-06
0.000373345
-0.000277011
-9.63315e-05
-0.000433447
0.000260196
-0.0430932
-0.0206775
-0.00066637
-0.000119164
-0.000179931
0.000105387
7.45383e-05
0.00536239
0.0014663
5.43214e-06
1.51235e-06
0.000234044
-0.000156312
-7.77378e-05
3.71691e-06
-2.47549e-07
-3.46837e-06
0.01075
-0.00721732
0.0303853
0.0259495
0.000588346
-0.000585373
0.00173403
-0.00112374
-0.000610305
-2.54574e-07
1.13244e-07
0.00010438
-4.11015e-05
1.36822e-05
-2.61632e-05
1.37824e-05
8.52771e-07
5.11942e-06
1.92355e-05
-7.61076e-06
-1.1624e-05
-5.53444e-05
-0.000611048
7.18914e-06
-1.47419e-05
7.55338e-06
0.00018262
-0.000186008
3.39398e-06
6.55724e-06
-1.29979e-05
2.56549e-08
-2.46386e-06
2.70595e-07
9.09667e-07
0.0020592
0.00243235
-0.00274702
0.00273281
1.42044e-05
0.00183251
0.000753129
-0.000438427
0.000173854
-3.44043e-05
1.53377e-05
-0.00191311
0.00101392
0.000899176
-7.32406e-05
-0.000169316
-9.56676e-06
-1.14124e-05
0.000324339
0.005559
-0.00588342
1.05135e-05
8.72153e-06
7.81748e-05
-0.000149534
7.13601e-05
-6.99377e-06
-1.06563e-05
-0.00105112
0.000326734
1.65139e-05
-1.37924e-05
-0.00203623
0.00106025
1.03495e-05
1.10258e-05
-0.041698
-2.94222e-05
-0.000107359
0.000136782
-0.00102932
0.000263944
0.000765359
1.17075e-06
7.5276e-08
-1.24593e-06
5.97653e-05
9.70261e-05
3.38362e-05
-8.20955e-06
-2.56274e-05
-4.27898e-07
1.73436e-07
-9.3658e-06
0.00037186
-0.00991745
-0.00187132
0.0117889
-5.59025e-05
1.58755e-05
4.00275e-05
0.00126918
-0.00124172
3.56308e-06
0.000273971
-0.000133748
-0.000140223
2.11849e-07
-8.46688e-07
0.000416353
-0.00042574
-6.82705e-06
1.40161e-05
0.00105035
-1.51253e-06
4.79494e-06
-3.76452e-05
-1.82589e-05
0.000132302
-0.000776359
7.14546e-07
3.97745e-07
-0.000897207
-0.000163116
0.00106033
5.71663e-06
-5.59414e-06
-1.22478e-07
1.46647e-05
-6.15513e-06
-8.5091e-06
0.0143306
0.000137576
-1.14593e-05
0.000115615
-4.97643e-06
-0.000110643
-0.000222058
-0.000122911
-0.0144991
0.0167369
-0.00223772
-0.00112777
-0.00188336
-6.17119e-06
3.09535e-06
0.000971471
-6.35174e-05
-0.000720848
0.000507255
-7.97272e-05
0.000178926
-9.91969e-05
0.000534399
-0.000329174
0.000108552
3.05586e-06
-0.000705639
-0.00133059
2.32024e-06
3.39648e-06
-2.1011e-05
1.69472e-05
4.06414e-06
-0.00724612
0.00155804
-0.000319873
0.000704022
-0.000384122
-5.58e-05
6.40852e-05
-8.28528e-06
0.00418104
0.00617702
-0.000159126
0.000129705
-0.0196948
0.0198748
-0.000179973
0.0106461
-0.0100163
-0.0019157
0.00775418
-0.000169622
0.000219292
-4.96668e-05
-0.000317412
0.00140768
0.000217959
3.47418e-06
-0.00412617
0.00262926
0.00149689
-0.00474317
-0.00250296
7.96174e-06
6.70336e-06
3.68448e-06
-4.28119e-06
-1.67766e-06
8.35419e-07
-0.000938283
0.000835017
-9.6505e-06
1.55406e-05
-5.89076e-06
9.39377e-05
0.000140096
-1.79594e-05
-5.32816e-05
7.12421e-05
9.13708e-06
-7.69957e-06
-1.43772e-06
-0.000372092
1.08198e-05
-2.68291e-07
1.43906e-06
0.00155589
-0.000946067
-9.11349e-05
7.28386e-05
-3.19534e-05
1.64741e-05
-0.000112321
0.00014482
0.000519934
-0.000259857
-0.00026006
0.0185483
0.0125093
2.43339e-05
-1.39758e-05
-1.03586e-05
-0.000301707
0.000207792
9.39105e-05
3.11376e-07
6.19508e-06
-6.50746e-06
-2.35627e-05
1.15375e-05
1.20253e-05
-2.58749e-05
-1.22665e-05
3.81419e-05
2.97237e-06
-7.85659e-06
4.88425e-06
-1.67267e-05
0.000138408
-0.000121684
-0.000150551
0.000156591
-6.03848e-06
-0.0104495
0.017365
-0.00691556
-0.0173709
0.0359192
-0.000263297
-0.0038629
-0.000123211
-5.67201e-05
1.25716e-05
-2.3239e-05
1.09607e-05
-5.12947e-06
-5.83143e-06
-3.80895e-06
-5.03563e-05
0.000190033
-0.0144925
3.7181e-05
1.57693e-05
-0.000121994
-4.71763e-05
-0.0238804
0.0270885
-0.00320812
1.3636e-05
-1.13551e-05
-2.59612e-05
1.02048e-05
6.30136e-05
-0.000143519
0.000102301
0.0201839
-0.0122236
-0.00796026
-0.000172197
-1.34113e-05
-1.0151e-05
-2.34417e-05
6.01805e-06
0.000119025
-0.000468389
0.000223407
0.00110502
-5.42171e-05
-7.0134e-05
5.21762e-05
-2.63529e-06
1.66249e-05
-2.18448e-05
1.94439e-05
6.25028e-06
4.71018e-06
-4.60692e-05
2.01946e-05
0.000302198
0.000139136
0.000139138
-4.11564e-05
-9.79805e-05
0.0014964
-0.000742064
-0.000754337
0.000131883
4.15162e-06
-0.000136037
-1.6608e-05
-0.000167431
0.000184041
0.00240721
-0.0262877
9.76508e-05
1.09008e-05
-0.000879936
0.00171026
-0.00083033
1.60936e-05
-5.20534e-06
-1.08874e-05
-0.000182167
0.00010244
-2.39054e-06
-2.12337e-06
0.000130377
-3.04631e-05
-9.9913e-05
-0.000404574
-0.00234243
0.0372288
-0.033807
-0.00342182
-1.12052e-06
1.79919e-05
-1.68706e-05
0.000104336
-1.24691e-05
2.81881e-06
-9.6119e-07
-1.16426e-05
1.2602e-05
9.6386e-06
7.1801e-06
-1.68197e-05
-0.00301189
0.000715993
0.00229587
0.00226244
0.00366406
-0.00160485
0.000207817
7.2448e-06
-5.79477e-06
-1.45204e-06
-9.79326e-05
0.000153124
-5.51902e-05
-2.86018e-05
-1.02738e-05
-3.75917e-05
1.31932e-05
0.000951772
-2.11414e-05
3.738e-05
-0.000128757
6.38563e-05
-0.0115289
-0.00680337
2.47467e-06
-4.96828e-06
2.49367e-06
0.000340542
0.000179398
-0.00109238
-0.000491524
0.00158394
-2.21422e-05
-4.79905e-05
-1.27671e-05
1.33358e-05
-5.67061e-07
4.82786e-06
1.20773e-05
-1.46231e-05
-6.38756e-06
1.15634e-05
-1.48203e-05
-2.16493e-05
-2.55485e-05
0.000108495
-8.29486e-05
-1.09284e-06
-7.46563e-05
9.70044e-06
-6.72793e-06
1.34926e-05
7.37278e-06
-2.08655e-05
0.000447736
0.00104087
0.00107824
0.00224215
-0.00539645
0.00315424
0.0220759
-0.0297557
-0.00263245
0.00013741
0.000139762
-4.46792e-07
1.00838e-05
-0.000142619
-0.000546314
0.00143115
-0.00051317
-0.000917987
0.000298263
0.000290083
0.00560886
0.000298738
-0.00590759
1.24275e-06
1.96762e-06
-5.8838e-06
5.13261e-06
7.51154e-07
-2.97313e-05
9.95347e-06
1.97781e-05
0.000165662
-0.000101622
-6.40405e-05
0.00147084
0.00276281
-1.65733e-05
3.80677e-06
-0.00241359
-0.00662833
0.00904193
4.97747e-05
-6.84859e-05
1.8711e-05
0.00672634
0.0236593
-1.04625e-07
4.31878e-05
-3.38087e-06
9.1451e-06
-0.000374257
0.000262453
-0.000498739
0.00288301
0.00140275
-0.00428566
-0.00387851
0.00612062
1.99785e-06
-7.55063e-07
-0.00059381
-0.00100083
-1.38734e-05
-1.26798e-05
2.65543e-05
0.000145377
1.22713e-05
-2.52177e-05
0.0123609
0.00279395
-0.015155
1.919e-05
0.000260804
-0.000279991
-4.04066e-06
1.32759e-05
-9.23512e-06
1.43659e-05
-1.54865e-05
-9.00497e-06
-0.000187995
0.000196994
1.58022e-05
-3.95525e-05
2.37506e-05
0.00299663
-0.0174957
0.00044646
0.0286656
1.10708e-05
-1.20321e-05
4.7681e-05
-6.98226e-05
9.64849e-06
-6.41529e-06
0.00129712
-0.00174687
0.000449757
-0.0293393
0.0551728
-0.0258335
1.00689e-05
-4.41759e-06
-0.00992508
-2.00784e-05
-5.34211e-06
2.54213e-05
0.00147358
0.0108873
-0.000168684
-0.000397323
-0.0166656
-0.00137954
0.0180452
1.14712e-05
5.41976e-06
-1.689e-05
-3.78101e-06
4.77562e-06
-9.94337e-07
7.45091e-05
-0.00288469
1.07329e-06
8.37947e-06
-1.09314e-05
2.55377e-06
-3.47326e-05
-2.13242e-05
5.6059e-05
-1.48919e-05
-1.56563e-07
1.50482e-05
7.11929e-05
-2.10958e-07
1.16822e-05
-0.00350575
0.0125249
-0.00901914
7.07891e-06
-9.7129e-06
0.000284784
-2.1913e-05
-0.000262879
-0.000159543
-0.0227749
0.0192494
0.00352544
4.90959e-05
-0.0126468
-0.0146104
-3.69261e-05
0.0229199
0.00865121
-4.03272e-07
-8.40093e-06
8.80327e-06
0.000159408
1.84485e-05
-0.000177858
-1.88761e-05
-7.9896e-06
2.68654e-05
3.57071e-06
3.29732e-05
-3.65437e-05
-1.44702e-05
-3.02663e-05
1.5732e-05
-1.72421e-05
1.50972e-06
0.00101384
-0.0175994
-4.21663e-06
0.000465545
-0.000429702
-3.58328e-05
-3.25256e-05
1.7706e-05
-4.02322e-05
6.54821e-05
-2.5248e-05
-0.0031451
0.00150651
0.00163857
-4.28475e-08
-1.33282e-05
1.33721e-05
-0.000163957
0.000904023
-2.88548e-05
1.49825e-05
0.000145932
0.000304966
-0.000450896
-1.14561e-06
6.16963e-06
-5.02421e-06
-4.2497e-05
5.9819e-05
-2.77827e-05
0.000154334
-0.000807715
0.000487852
0.00681604
-0.00065629
-0.00615975
-1.57871e-05
9.55884e-06
4.05268e-07
-5.4222e-06
-1.10809e-05
6.16169e-05
-5.33794e-05
0.000103155
-0.00903278
-1.58996e-06
-9.62181e-06
1.12108e-05
-0.00906906
1.05996e-06
1.54553e-05
0.0522507
-0.0183871
-0.0338637
-0.000136697
0.000645377
-0.00050868
-1.71117e-05
-1.37499e-06
1.84867e-05
7.56117e-05
0.000700012
0.00299057
-1.30196e-05
1.14288e-05
0.0380507
0.00395343
0.000148369
-0.000149539
1.16807e-06
0.000232697
5.76715e-06
-1.23278e-05
6.55993e-06
-0.000807148
-1.13208e-05
-0.000144555
0.000155874
7.2323e-06
-6.06103e-05
-0.000270475
0.000250797
-4.75592e-06
9.75003e-07
2.88121e-05
-1.20072e-05
-0.000291401
-8.0687e-05
-0.000303013
0.000275176
-0.000286499
-0.0362012
0.00304718
0.0331541
0.0008383
0.000592856
7.30447e-05
-0.000272943
0.000199891
-0.000289407
0.000172881
0.000116527
-2.07629e-05
0.000464181
-2.28958e-06
6.84389e-06
-4.55406e-06
0.000220295
0.00015305
-2.36767e-05
1.45301e-05
9.14688e-06
-0.000123567
-4.61212e-05
-0.000339723
0.000696818
0.00631892
-0.0189958
0.0126767
-3.25052e-06
-7.83094e-06
6.85959e-06
9.7033e-07
-0.0171125
-0.00466559
2.96678e-06
-1.61147e-05
-0.000139457
0.000122847
0.000111495
-0.000190141
6.42631e-05
-5.19853e-05
-1.22749e-05
1.23095e-05
-8.24978e-07
-1.14843e-05
0.0242011
-0.013292
-0.0109091
-0.000181698
0.000310762
-0.000151357
0.000404469
-6.72192e-05
4.5296e-05
0.000523597
-0.000605936
4.5944e-05
9.26412e-05
-0.000135644
4.30057e-05
-0.00319901
-1.05613e-05
-1.28802e-05
-4.36938e-05
0.00014845
-0.000104757
1.12273e-06
-1.82494e-05
1.71253e-05
0.000391258
2.1228e-05
-1.15043e-05
-9.72172e-06
-0.000143134
2.70671e-05
0.000116066
0.0187973
-2.26196e-05
1.09047e-05
1.17145e-05
3.5001e-05
-0.000179556
0.000153793
-0.000289848
0.000136059
-6.35516e-05
9.85518e-05
1.72277e-05
-8.94327e-07
-1.63353e-05
-1.39955e-05
4.94053e-05
-3.54118e-05
5.23248e-06
-1.81382e-05
1.29047e-05
-6.25733e-05
7.62946e-06
5.49442e-05
-1.60607e-06
4.0807e-06
1.24654e-05
5.17985e-05
-0.000190672
0.000264402
-7.37276e-05
-0.00901536
0.00486612
0.00414906
-0.00194301
0.00482601
-0.000367284
7.58861e-05
-6.1031e-05
0.00933449
-0.026447
-1.54768e-05
1.69471e-05
-1.4685e-06
-0.00121607
0.000702899
-0.00796648
0.0408137
0.000115616
1.28184e-05
-6.56471e-07
-1.21626e-05
-1.00256e-05
9.82117e-07
-1.31161e-05
1.2134e-05
2.21449e-05
-1.17396e-05
-1.04078e-05
1.05979e-05
2.22009e-06
-9.56391e-06
3.08056e-05
1.10972e-05
2.7179e-06
-1.38154e-05
-0.000244577
7.49552e-05
1.99616e-06
1.03143e-05
0.00136637
0.00025176
-0.00161806
0.0361288
1.36971e-05
-1.08356e-05
-2.86147e-06
-0.000224498
0.000215489
1.22065e-05
9.02007e-06
1.92958e-06
2.04938e-05
0.000439571
-0.0031306
-5.47257e-05
0.000471081
8.29476e-05
0.00126951
6.29699e-07
-2.6646e-06
2.03488e-06
0.00460873
4.70073e-05
-2.68663e-05
-2.01413e-05
-1.9209e-05
-0.000107386
0.000153124
-4.57369e-05
0.000292418
-0.014376
-0.0130968
0.027473
1.25449e-05
1.62683e-05
0.0216383
-0.0201648
2.19144e-05
-5.35863e-05
3.62972e-05
1.72907e-05
0.000380666
0.000136044
-0.00260943
-0.0140562
-1.88022e-05
2.59106e-05
0.000184793
-0.000258042
-0.00320492
-0.000606129
0.00381104
9.05844e-06
-7.57107e-06
-0.000120521
-0.000168887
4.23582e-06
-6.96645e-06
2.73022e-06
1.38817e-05
0.000219414
-9.77529e-05
-0.000121662
5.6323e-05
-6.56942e-05
-8.44474e-06
-4.7355e-05
-0.000189657
0.000139294
0.0002711
0.00109536
-0.0114128
0.00880344
9.95352e-05
0.000119881
4.9378e-05
-2.22103e-05
2.92326e-05
0.000132418
-0.000161656
4.97654e-06
3.03366e-05
-0.0150654
0.00235926
0.012706
-0.000270207
8.95231e-06
3.43928e-05
4.06903e-05
-3.67483e-05
-3.94278e-06
0.0144972
0.00889381
-0.0233908
8.13658e-05
-0.000152896
7.15306e-05
-0.000407567
0.000519928
-0.000112364
0.00432579
0.00862523
-0.000106048
1.5992e-05
-2.6044e-07
-1.27726e-05
2.09027e-06
4.98947e-06
-5.79877e-06
-1.7877e-05
-0.00702243
0.00392452
0.0030979
-0.000219877
-1.531e-06
0.00022141
-4.86105e-05
-1.78519e-05
-0.000228108
5.87816e-05
3.63936e-06
-8.08526e-07
-1.46899e-05
1.08497e-06
1.36045e-05
0.0332527
0.00082041
-0.00207817
0.00125774
-2.52874e-05
2.88597e-05
1.75854e-06
1.95924e-06
2.011e-05
-2.02156e-05
2.27423e-05
-1.44754e-05
-8.26646e-06
-2.08739e-05
-0.00121329
-0.00179863
0.000276019
-7.85055e-05
-0.000197511
-2.88855e-05
1.00092e-05
0.0193187
-0.000193968
-0.000213601
-0.00666132
0.00465712
0.00200418
-0.0373058
-0.00261841
-0.000586524
-0.000150501
1.99193e-05
0.000130579
1.06536e-05
1.36803e-05
-1.13603e-05
-2.11639e-05
0.000567152
0.00432542
-0.00489261
0.000351202
0.00515253
0.00749772
0.00227785
0.00070158
-0.000177943
1.50145e-05
-6.07361e-06
-8.94105e-06
-1.40641e-05
2.66091e-05
0.000219392
5.57829e-05
-0.00442808
0.000631286
0.000865115
-8.14943e-05
-6.95538e-06
8.84511e-05
8.64434e-05
9.94515e-05
-0.000185891
1.39479e-05
-1.6593e-05
0.00241275
0.034816
0.000474551
-0.00010862
-0.000365932
-0.000153089
-0.000117553
-0.00011611
8.56499e-05
0.00321941
0.000273894
-0.00349331
-0.00842905
0.0286129
-0.00918126
0.00871756
0.000177641