/*--------------------------------*- C++ -*----------------------------------*\
| =========                 |                                                 |
| \\      /  F ield         | OpenFOAM: The Open Source CFD Toolbox           |
|  \\    /   O peration     | Version:  v2012                                 |
|   \\  /    A nd           | Website:  www.openfoam.com                      |
|    \\/     M anipulation  |                                                 |
\*---------------------------------------------------------------------------*/
FoamFile
{
    version     2.0;
    format      ascii;
    class       volVectorField;
    location    "150";
    object      ddtCorrDdt0(U);
}
// * * * * * * * * * * * * * * * * * * * * * * * * * * * * * * * * * * * * * //

dimensions      [0 1 -2 0 0 0 0];


internalField   nonuniform List<vector> 
13917
(
(0.00609557 -0.00028205 0)
(0.00863774 -0.00493141 -6.80348e-22)
(0.00167026 0.00521557 1.21037e-22)
(-5.94306e-05 8.90831e-05 -1.50184e-21)
(0.00341035 -0.00331925 -2.12205e-22)
(0.00887004 -0.00319301 0)
(-0.000168302 -2.63434e-05 -2.1839e-21)
(0.00315938 -0.0466266 0)
(-0.000132653 0.000119046 1.79764e-21)
(0.00947703 -0.00997883 -1.65935e-23)
(0.00161565 -0.0399239 1.65941e-25)
(-6.80297e-05 1.647e-05 0)
(-1.65476e-05 1.36677e-06 0)
(-0.0784107 -0.00998433 -5.72211e-21)
(0.00166305 0.00192252 0)
(0.00603211 -9.41977e-05 0)
(-3.22295e-06 5.18122e-08 -3.39042e-22)
(-0.00746418 -0.0276188 -1.416e-21)
(-0.00278615 0.00425031 0)
(0.00576106 -0.0108746 0)
(-0.00300868 0.00123753 0)
(-3.59469e-05 -0.000115741 0)
(-0.00134571 -0.00010954 9.59781e-24)
(-2.58659e-05 -0.000112831 0)
(-8.52731e-05 0.000120256 0)
(-0.00460254 0.000247066 0)
(0.0610286 0.00956784 0)
(0.00744941 -0.00409875 0)
(-0.010085 -0.00798234 4.84979e-21)
(2.29304e-05 -4.51775e-05 0)
(0.00397164 -0.00104602 -1.97957e-21)
(-0.000822926 0.00139689 0)
(-7.87594e-05 7.81237e-05 -1.80291e-21)
(0.00558067 0.000984869 0)
(-7.88197e-05 0.000107214 2.03998e-22)
(0.0111034 -0.0577243 0)
(-0.000272348 -0.000337298 -9.93318e-22)
(-2.50695e-05 -9.33994e-07 -2.62525e-22)
(-0.000184634 -2.53009e-05 0)
(0.00156057 0.00284346 5.143e-21)
(-4.1887e-06 -1.73977e-07 0)
(-4.01646e-05 -0.000387497 -9.07736e-25)
(-8.76813e-05 8.43007e-05 -3.21683e-21)
(-0.00100434 0.00335992 0)
(-0.00125718 0.00333894 7.98453e-22)
(-0.0309409 -0.0233945 0)
(-0.00245675 0.000971469 0)
(0.121402 0.0708231 6.6052e-21)
(0.0415806 0.00735104 0)
(-5.42644e-05 0.000120577 -2.06648e-22)
(-6.64836e-05 1.27266e-05 8.1033e-22)
(-0.0121744 -0.00730156 3.51603e-21)
(0.0040772 0.000100515 0)
(-3.19341e-05 -1.48836e-05 0)
(-3.95216e-05 -4.06618e-05 9.15458e-22)
(-0.0120939 -0.00565223 -8.94068e-21)
(-0.00227433 -0.00297564 1.69374e-21)
(-0.00133738 -0.000209153 5.49348e-23)
(3.85786e-05 -0.000331741 4.07886e-22)
(-0.0308032 -0.027932 -5.73145e-21)
(-0.0298489 0.10423 -6.8631e-21)
(-0.00529604 0.00297746 0)
(9.62003e-06 -6.28728e-07 0)
(-8.61699e-05 0.000111253 0)
(0.00832738 0.00833483 -2.37153e-22)
(-0.00780778 -0.00306011 -1.6825e-22)
(-0.0103841 -0.0125424 0)
(0.0217836 -0.0551314 0)
(-0.0101182 -0.0345697 2.95526e-21)
(0.0047383 0.000341901 2.14044e-22)
(0.00583837 0.00792374 3.10864e-22)
(0.00546147 0.000794946 0)
(-2.83888e-05 3.95532e-05 -7.3488e-22)
(-6.48846e-06 -0.000227327 -6.14589e-22)
(-0.00300367 0.00179581 0)
(-0.000177461 0.000109782 0)
(0.000308569 -0.00136154 6.17844e-22)
(4.07121e-05 -0.000192576 3.90715e-22)
(-0.000168848 9.33852e-05 0)
(-7.90532e-05 7.88485e-05 -1.53203e-21)
(2.63056e-06 0.000104154 0)
(-7.70525e-06 -1.26e-06 0)
(-2.76879e-05 3.61976e-05 0)
(0.00406623 0.00402078 -2.13404e-23)
(-2.42796e-05 5.58536e-06 4.83663e-24)
(-0.0682333 -0.00177822 1.96542e-20)
(-0.000864229 0.00130198 0)
(-2.57658e-05 3.29096e-06 6.11617e-23)
(0.00108561 0.00286415 -2.4611e-21)
(-2.84966e-06 3.20069e-07 3.9318e-22)
(-5.13991e-06 2.67658e-06 -1.83646e-22)
(-8.94404e-05 8.83717e-05 3.88201e-21)
(0.0469768 0.0230626 -9.85619e-21)
(-4.58636e-05 -3.68175e-05 -7.73644e-23)
(-7.63492e-06 -6.32732e-05 0)
(-0.0122492 -0.00922769 -5.07005e-21)
(0.0656511 0.0536941 -3.13797e-21)
(-1.09817e-05 -1.19271e-06 0)
(-2.40157e-05 2.98501e-06 -3.09855e-22)
(0.0232678 0.0271353 0)
(4.19342e-07 1.56567e-07 -1.99324e-22)
(1.92612e-07 6.83357e-07 0)
(2.17943e-05 0.000102786 -2.59665e-22)
(-1.66359e-05 -2.24611e-06 1.61022e-22)
(0.0005163 -0.00117241 -2.93536e-23)
(0.00212383 0.000845934 0)
(0.0326104 -0.000180482 0)
(-0.00663439 0.00150206 0)
(-5.45552e-05 -0.000554505 2.20911e-22)
(0.0676706 0.00265599 1.20308e-22)
(-7.33452e-06 1.34191e-06 2.08506e-22)
(0.00587793 0.00111847 -1.83618e-22)
(-0.0105985 -0.00512913 3.2013e-23)
(0.160121 0.0612117 -2.11288e-20)
(0.00781191 0.00804442 9.21624e-23)
(-0.000259496 0.000115153 3.35028e-22)
(-0.00275955 0.00384342 -1.74702e-21)
(5.23701e-07 -7.38609e-07 -1.60005e-22)
(0.000501984 0.00538499 3.41553e-22)
(-1.75527e-05 1.53608e-05 1.97897e-21)
(-8.10821e-06 -1.80862e-06 7.38829e-23)
(-1.83234e-05 -8.70536e-05 -1.92624e-22)
(-0.0129835 -0.0152239 -5.1172e-21)
(-0.00606739 0.00123698 -2.45974e-21)
(0.00342251 0.000158599 7.50689e-23)
(0.0043318 0.00394557 3.48866e-23)
(-8.08277e-05 0.000107009 2.25121e-21)
(-0.00354354 0.00228018 6.63416e-21)
(-2.08149e-05 -5.5245e-05 -1.77838e-22)
(-0.00585253 0.00166164 0)
(-0.000398173 0.000224572 -2.77053e-24)
(0.0212098 -0.031506 0)
(0.0028501 0.000626762 0)
(-0.000285606 8.62164e-05 1.65623e-21)
(-0.000844088 0.00188078 1.69825e-21)
(0.078868 0.00762256 2.1964e-21)
(-0.0783552 0.0765929 0)
(0.00293145 5.48276e-05 1.27643e-23)
(-0.00596399 -0.000583838 9.10598e-22)
(-1.87869e-05 6.54804e-08 1.21237e-22)
(-0.0582992 -0.119095 -2.29843e-20)
(2.59921e-05 -0.000140599 -1.95212e-22)
(0.00204662 0.000831796 1.57981e-22)
(-2.99311e-05 -3.9331e-05 -1.6564e-23)
(-2.76125e-05 4.52587e-05 0)
(0.000771054 -0.0019827 -2.86499e-22)
(0.00558902 0.00732416 -1.57142e-22)
(-0.00265073 -0.109959 4.69656e-21)
(0.0978117 0.0353132 0)
(-3.35029e-05 -2.36337e-05 -1.94529e-22)
(0.000489064 0.00232844 0)
(-1.48737e-06 -2.38191e-07 2.39e-24)
(-2.52688e-05 4.06149e-05 0)
(-1.62516e-05 1.49754e-05 -5.47515e-24)
(0.0818219 0.0502456 -2.21149e-21)
(0.000258813 5.4198e-05 2.65853e-23)
(-1.63147e-05 -4.14123e-06 -2.24002e-22)
(0.00275811 0.000414337 -8.31985e-22)
(-1.8768e-06 6.79344e-07 8.74742e-24)
(5.47686e-07 -2.55122e-07 0)
(-3.20878e-05 8.06838e-06 0)
(0.00960746 0.0353772 -2.95353e-21)
(7.57122e-05 -0.00105292 5.88096e-22)
(-0.0423722 -0.141195 1.18929e-20)
(-0.0101398 0.0903605 3.07101e-21)
(0.0326464 0.0356672 1.5778e-21)
(0.00279814 9.91971e-05 0)
(0.101907 0.0995925 -9.49792e-21)
(1.0135e-05 5.17962e-06 0)
(-0.00718243 -0.000548151 9.44942e-22)
(-6.21377e-06 -0.000139734 3.69404e-22)
(0.00339145 0.00116576 -3.98084e-22)
(-0.000123178 0.000122802 -1.52727e-21)
(-0.0775731 0.0655663 4.02606e-20)
(-0.000517043 -0.00701482 0)
(-5.71963e-07 -1.61925e-06 1.25692e-22)
(-5.67322e-05 8.74661e-05 0)
(-0.0145389 -0.0100538 1.51952e-20)
(-0.000373256 0.000210847 -4.30728e-21)
(0.000100146 -0.00133172 -6.62379e-22)
(-9.01275e-05 7.38501e-05 1.1817e-21)
(-3.56846e-06 -0.000124559 0)
(-6.68751e-05 3.09166e-06 -4.91161e-22)
(-0.0190912 0.00531618 -2.34099e-21)
(0.000440092 0.00580935 0)
(0.0247486 -0.0306231 0)
(-6.45295e-05 -2.68051e-06 0)
(-0.0209504 0.00394504 -2.05358e-21)
(6.92005e-06 -4.74371e-05 -4.19504e-23)
(-0.057625 -0.00533082 2.23323e-20)
(0.000259676 -0.00755776 -5.17016e-21)
(-0.00135472 0.00304293 -8.04545e-22)
(-0.0130647 0.00320304 -3.8924e-21)
(0.00609395 -0.00109453 -2.5943e-22)
(-5.24748e-05 -1.78689e-05 4.77401e-22)
(0.00356936 0.000212088 3.81462e-22)
(8.95812e-05 0.000182076 1.93151e-21)
(0.00277888 0.000677754 6.57937e-22)
(-7.65881e-05 7.85957e-05 -8.21125e-23)
(0.000187972 2.29375e-05 -8.26786e-22)
(-0.00168997 0.000680533 -3.25889e-21)
(0.0049828 0.000325831 0)
(0.00298863 5.53605e-05 8.46952e-22)
(-6.88982e-06 -0.000334651 0)
(0.0475369 -0.0067622 -2.85083e-21)
(-0.00175079 -0.00555421 4.70252e-22)
(0.000847118 0.00235811 0)
(-2.02115e-05 -0.000125034 -2.53973e-24)
(-0.0141217 -0.00768287 -1.85242e-22)
(-1.40555e-05 0.000116703 -1.25958e-22)
(-1.42233e-05 -2.72197e-05 -2.96646e-23)
(0.00902049 -0.00480335 4.4585e-21)
(0.0111367 -0.00652181 -8.59629e-22)
(0.0949072 0.0560389 -5.95518e-21)
(-0.000830995 0.00176795 -7.98e-22)
(-0.00546865 0.000525015 -2.17526e-21)
(0.0160608 0.012378 2.45171e-21)
(-1.95379e-05 -2.19444e-06 0)
(-6.38728e-06 2.11126e-05 -4.01645e-22)
(-7.54711e-06 2.02734e-05 0)
(0.131007 0.101593 9.94513e-21)
(-0.0162599 0.00384785 -5.31926e-21)
(-0.025219 0.00403528 -4.84009e-21)
(-1.81264e-05 1.66535e-05 0)
(8.32744e-06 -4.83396e-07 -2.00923e-23)
(0.0863199 -7.07812e-05 -5.21245e-21)
(0.00374666 0.000185292 3.40528e-22)
(-3.95081e-06 1.68657e-05 2.30957e-22)
(-4.35885e-06 1.65532e-05 -2.07074e-22)
(-3.72053e-06 1.37952e-07 0)
(-9.24583e-06 2.06788e-05 0)
(-9.83973e-06 1.75455e-05 -4.11491e-22)
(0.00554134 0.00067176 -1.06446e-23)
(0.0645492 0.0638987 0)
(-9.30743e-05 2.14677e-06 4.39041e-23)
(1.41799e-05 6.62053e-06 -1.49667e-23)
(-0.00471051 -0.00371818 0)
(0.00468235 0.000669698 0)
(-1.6662e-06 -1.4966e-06 2.1574e-23)
(-1.85964e-05 1.54045e-05 0)
(0.0513483 -0.00492263 1.97677e-21)
(0.00194628 0.000620355 0)
(-0.0172591 0.00468437 2.49669e-21)
(0.0157396 0.0101777 0)
(-0.00243259 -0.0135823 0)
(-3.00634e-05 -4.00585e-05 7.07912e-23)
(0.0427613 0.0978055 5.84997e-21)
(-0.00531441 -0.00339725 -1.33721e-21)
(-0.00864745 -0.00437469 -6.05454e-21)
(-0.00257674 0.00161438 -9.36042e-22)
(-1.99686e-05 -0.000281714 0)
(0.0745679 0.0554586 7.16319e-21)
(-2.05671e-05 1.93391e-05 -8.10951e-22)
(0.0022548 -0.000851735 2.63598e-21)
(-0.000124614 -0.00569273 0)
(-0.000116326 -1.77106e-05 8.91377e-23)
(-2.60488e-06 -2.19123e-07 0)
(-7.95676e-05 0.000112217 0)
(0.00298675 0.00128651 -5.73209e-22)
(-4.16756e-05 -0.000184272 0)
(0.00339106 0.00029445 -3.66794e-22)
(-0.0836171 -0.189855 7.22258e-22)
(-7.04334e-05 3.47102e-05 -1.87526e-22)
(-3.82212e-06 1.4618e-05 0)
(0.000317299 1.62927e-06 -6.8636e-22)
(-2.95577e-06 1.20083e-05 0)
(-1.90384e-05 1.84039e-05 -1.42531e-21)
(-2.41974e-05 2.11563e-06 5.41026e-22)
(-0.000277484 -0.000862185 2.12613e-21)
(-0.000101675 3.76688e-05 -1.90769e-22)
(0.00286884 1.41636e-05 -8.95227e-23)
(0.0330897 0.00578459 0)
(-4.80402e-05 -2.50362e-05 4.3273e-22)
(0.0017431 1.42436e-06 0)
(-0.0387915 -0.0377285 9.17183e-21)
(3.73505e-06 -2.08497e-05 -9.81934e-23)
(0.0148418 0.0224503 -2.10052e-22)
(0.00336349 0.000365383 2.33052e-23)
(3.02461e-06 -2.56648e-05 1.0108e-22)
(0.00461013 0.000466282 -1.85405e-22)
(-1.02444e-05 -0.000162981 0)
(0.00637714 0.0371151 0)
(-1.76835e-07 -1.04197e-06 1.77706e-24)
(0.000649583 0.00147522 2.53529e-22)
(-0.000134029 -1.682e-05 -1.80503e-23)
(-2.06056e-05 -2.77526e-05 1.01173e-23)
(-0.00568759 0.00703396 0)
(-2.05375e-05 -8.28587e-07 2.26995e-22)
(0.0376122 0.0385372 8.27425e-22)
(0.000332836 0.000439507 0)
(-0.077943 -0.192537 6.93861e-22)
(0.00073468 -0.00256936 0)
(0.0406206 -0.00770474 0)
(0.00292076 1.55029e-05 9.35668e-23)
(-1.46791e-06 -2.40091e-06 -4.19893e-22)
(-0.0019397 -0.00107917 2.90621e-21)
(0.00362595 -0.000273 -6.49629e-22)
(-0.000358944 7.8316e-05 2.14568e-21)
(0.00355096 -0.00230126 5.63376e-23)
(-0.000145924 0.000105387 3.40895e-21)
(-3.98158e-05 -7.81185e-05 -1.78154e-22)
(-1.85386e-05 -2.22406e-06 -1.12876e-22)
(-0.0126936 -0.014156 -6.55154e-21)
(-0.00324917 -0.0196164 0)
(0.00209318 -0.00069446 -4.41078e-21)
(-0.000139754 9.42644e-05 -1.11299e-21)
(-2.07132e-05 1.40037e-05 4.04543e-22)
(0.00276017 0.00048871 8.13309e-22)
(0.00524707 0.000257858 0)
(-5.67853e-06 -4.11698e-05 7.3285e-23)
(-0.000542872 0.00240006 3.48499e-24)
(-0.00032794 0.000116923 0)
(0.0683796 0.0163209 0)
(0.000617234 0.00222365 3.18369e-21)
(0.0230345 0.00148255 -5.04398e-22)
(-0.086963 0.0583398 -3.22729e-20)
(-0.00596146 -0.00698076 5.41985e-24)
(0.0194931 -0.0265431 -9.89585e-21)
(0.00145224 0.000301015 5.26669e-22)
(0.00407976 0.00446368 1.06487e-22)
(0.0754802 0.00245406 1.32019e-21)
(0.00166576 0.00485284 0)
(-1.93492e-05 1.42346e-06 0)
(0.00122607 0.0019389 0)
(0.0534457 0.00524347 0)
(8.16105e-05 -0.000166092 -4.2723e-23)
(0.010234 -0.00629075 3.22407e-22)
(-0.0015926 0.0029805 -8.75038e-22)
(-6.08628e-06 7.05313e-07 -4.70513e-22)
(0.00348162 0.00129877 -1.13208e-23)
(-2.57826e-05 3.51643e-06 0)
(-0.000283101 0.000531624 0)
(-6.50975e-06 -6.03398e-06 -6.13547e-22)
(-0.00411638 -0.0109017 -3.77539e-21)
(-2.11557e-05 -1.49974e-05 -8.34431e-23)
(0.00159074 -0.000632749 6.11267e-22)
(-0.00270554 -0.00571365 6.35657e-22)
(-0.00393934 -0.0069882 -6.37014e-24)
(-5.36446e-06 1.09134e-06 2.9727e-22)
(-0.00215822 0.00176483 -1.58485e-21)
(0.00231087 0.00137046 -2.00352e-22)
(-2.86466e-05 -6.76461e-05 -5.25405e-22)
(0.000113963 -0.000132468 5.7662e-22)
(0.00599163 0.00142771 -1.05898e-22)
(0.00213974 0.00110511 0)
(-0.0430167 0.0438254 1.64303e-20)
(-0.0971933 -0.0496947 0)
(8.41785e-07 -2.57557e-05 4.71458e-23)
(-6.09748e-05 4.73715e-05 8.80024e-23)
(0.00187441 0.00045977 0)
(0.0155785 -0.0277407 1.29873e-20)
(-3.13105e-07 -2.8757e-05 -4.01024e-22)
(0.00425216 -0.00114427 -6.04927e-22)
(-5.77644e-05 -4.29099e-05 -7.65674e-22)
(-0.00668285 0.00984494 0)
(0.00173526 -0.000789812 2.13487e-21)
(-0.0097365 0.000910638 -9.32739e-22)
(0.00819203 -0.0133697 -3.8172e-21)
(0.0119443 0.0240465 -1.78114e-23)
(-0.000402315 0.000507327 -2.6241e-21)
(0.00683723 -0.000122781 0)
(-2.5338e-05 -5.56009e-05 3.39773e-22)
(-3.74128e-05 -7.57595e-05 0)
(0.00436714 -0.00414858 -1.00109e-21)
(-0.0026049 0.00831103 7.40243e-22)
(-4.70601e-06 -9.30952e-07 1.62531e-22)
(0.0059683 -0.000565937 3.05526e-22)
(-0.000378221 0.000496863 1.89331e-21)
(0.00290979 -0.106468 -1.87419e-21)
(-3.85131e-05 -4.31168e-05 -1.26496e-21)
(0.0115714 -0.0218862 0)
(0.00046095 0.00213238 -1.44337e-24)
(0.063045 0.0588805 0)
(0.00036784 -0.000245198 -2.43541e-22)
(-0.022613 0.00591372 5.2937e-21)
(-0.0382068 -0.0308209 -7.30036e-21)
(-0.00352788 -0.00691024 5.42366e-22)
(-4.96724e-05 -2.70228e-05 1.45842e-21)
(0.00329465 0.013053 0)
(2.57498e-05 -7.60209e-05 0)
(-0.0102465 0.0956054 -2.81721e-21)
(-0.0141346 0.00421997 4.39702e-21)
(0.00043959 -0.000126656 -2.57046e-22)
(0.058818 0.0381076 8.02859e-21)
(-0.000229778 -7.08079e-05 3.83184e-22)
(0.00834236 -0.030782 7.23013e-22)
(-8.53777e-06 -3.56938e-05 1.55481e-22)
(0.00974094 -0.0115456 0)
(0.0136956 -0.0331854 -7.66878e-22)
(-0.000255812 -0.000161896 5.09243e-23)
(0.0801777 -0.0116478 3.02048e-21)
(0.00649505 0.0207543 0)
(-1.72948e-06 -0.000204907 -1.65437e-21)
(-0.021102 0.0661984 1.7668e-21)
(0.00141689 0.000915365 5.80885e-22)
(-0.00020323 -0.000101931 3.86212e-22)
(-0.00642209 0.00752996 -1.32284e-21)
(-3.91712e-05 4.98038e-05 -1.77311e-22)
(0.00445305 0.0243915 3.84973e-21)
(0.00129638 0.00540483 -1.07679e-21)
(-2.43506e-05 2.67576e-06 0)
(-0.000193104 4.65758e-05 2.27521e-21)
(-0.000124394 0.000103148 -1.33419e-21)
(-2.32737e-05 -3.23696e-05 -8.81871e-24)
(-1.92886e-05 2.41339e-07 -7.79913e-24)
(-3.73606e-05 -4.22851e-05 -3.87758e-22)
(-0.0629792 0.0942471 0)
(0.0342411 0.0279609 -1.61152e-21)
(-3.76891e-05 -5.73581e-05 -6.68829e-22)
(-3.35271e-05 -6.69763e-05 -2.3571e-22)
(-2.41769e-05 -8.6797e-05 -9.06075e-23)
(-0.0013014 -0.00207391 6.4374e-21)
(0.0579887 -0.0327171 0)
(1.25162e-07 2.01192e-05 0)
(1.0284e-05 4.3999e-06 0)
(0.000486727 0.00228453 -2.12595e-21)
(0.0138105 -0.0194518 0)
(-2.23623e-05 -3.33027e-05 4.03876e-23)
(-0.000229704 -0.000150898 -4.23317e-23)
(-0.0974319 0.0202293 0)
(0.0877949 0.0882535 1.15271e-20)
(-0.00980753 -0.00324399 0)
(-0.00242004 0.00451218 0)
(0.00378255 0.00460072 -3.76132e-23)
(-5.79058e-05 -8.79931e-06 7.19288e-22)
(2.15853e-06 1.19187e-05 -3.83117e-22)
(-0.00243864 -0.000242067 -4.49283e-21)
(-1.90042e-05 1.83156e-06 -7.55857e-24)
(4.34568e-07 1.62639e-05 3.89422e-22)
(-0.000107722 9.81767e-06 -9.42252e-23)
(2.59184e-06 5.49423e-06 -7.13195e-24)
(-4.08923e-05 -9.79684e-06 0)
(0.0489005 0.0980795 -7.21535e-22)
(-3.34618e-05 5.45972e-05 2.20185e-23)
(0.00261476 0.00231606 0)
(0.00285623 2.72803e-05 0)
(-0.00181675 -0.00121002 0)
(-1.53095e-05 -3.07577e-05 5.25974e-23)
(-2.60866e-05 4.28106e-05 0)
(-0.0135403 0.0603193 0)
(-0.00195204 0.000433832 1.41941e-21)
(0.00344995 9.16957e-05 -5.18039e-22)
(-1.04168e-05 1.39193e-05 0)
(-3.23027e-05 1.79181e-05 8.18719e-22)
(8.48531e-06 -9.58295e-05 0)
(-1.15542e-05 1.49309e-05 4.38083e-22)
(-0.000213986 -0.000330822 -1.28346e-21)
(-0.000277788 -0.000163905 -4.00503e-22)
(-0.099748 0.00610478 0)
(0.00221913 0.00231991 0)
(0.00203407 0.000655708 -9.44187e-23)
(-3.46478e-05 1.44089e-05 0)
(-0.000611239 9.4919e-05 2.00606e-21)
(0.0040942 0.000973455 -2.39252e-22)
(-2.94965e-05 0.000103998 0)
(-0.00357851 -0.0120355 0)
(-0.0504404 0.0426178 -3.29225e-21)
(-5.62036e-05 -3.94368e-05 7.52176e-22)
(0.0935152 0.0790682 3.91799e-21)
(-1.94251e-05 -3.49758e-05 6.28216e-24)
(-2.29654e-05 1.60518e-06 -1.7381e-22)
(-1.74781e-05 -7.80493e-05 -9.03508e-23)
(-0.000225978 -2.05622e-05 -2.39863e-22)
(-1.34645e-05 -1.66877e-05 -1.87196e-24)
(-3.14694e-05 3.56369e-07 0)
(0.0028355 0.00053361 -9.20348e-23)
(-0.0409463 0.0895043 -2.54542e-20)
(-1.38516e-05 -1.18324e-05 0)
(0.0379602 -0.0139541 1.06703e-21)
(0.000332573 0.00253561 0)
(-1.33509e-05 3.53059e-06 -9.0011e-22)
(-0.00241857 -0.00154562 3.18995e-21)
(-2.61188e-06 0.00101981 -6.81392e-22)
(-0.000435868 0.067134 3.48749e-21)
(-0.000227596 6.38573e-05 2.4588e-21)
(0.00216447 0.000987005 -3.0898e-22)
(0.00114282 -0.0732543 1.3157e-21)
(-0.00451397 -0.0613893 -8.99833e-22)
(-0.000288802 -9.8803e-05 -5.21731e-22)
(-0.00648586 -0.00428798 1.64835e-22)
(0.00610763 0.000839534 0)
(1.37629e-05 -0.000242965 2.42269e-23)
(-0.0255741 0.0260958 0)
(-4.15283e-06 2.54118e-06 -1.96443e-22)
(-3.39399e-05 -1.53933e-05 0)
(-2.05709e-05 -7.64008e-05 -1.37244e-21)
(-0.000170214 8.11663e-05 1.56973e-21)
(-0.00157432 0.0019287 -1.17195e-21)
(-0.000406476 0.0058031 8.7744e-22)
(-0.00156632 0.000525145 3.53267e-21)
(-0.00115712 -0.00147515 0)
(0.00232285 9.02814e-05 -1.16419e-21)
(-0.0130608 -0.0232287 0)
(0.00652442 0.0019638 4.95553e-21)
(-3.5595e-05 -4.90614e-05 6.64736e-22)
(-0.0588231 -0.00231332 -7.27016e-21)
(-0.000591204 -0.000560514 2.39617e-21)
(0.000341729 0.000357051 -2.31496e-21)
(-0.0241816 0.0937859 -2.5683e-21)
(-2.42952e-05 3.50382e-06 6.79625e-22)
(0.00749625 0.00188724 -6.07119e-21)
(-0.0174023 -0.010569 0)
(-2.35242e-05 -4.31434e-07 -4.74064e-24)
(0.00278244 0.000210418 5.73322e-23)
(-2.08385e-05 9.12261e-07 0)
(-1.15006e-05 9.58238e-06 0)
(-0.00160429 -0.00201558 -6.59579e-21)
(-1.50256e-05 1.93405e-05 0)
(-1.89423e-05 -2.09164e-06 1.02786e-22)
(-0.0104697 -0.0150644 0)
(0.00257456 0.000120694 0)
(0.0901975 -0.0159828 3.34998e-21)
(-3.20714e-05 7.82683e-06 -2.64262e-22)
(-5.57017e-05 6.61403e-05 -2.15777e-21)
(-0.00157504 0.000205207 2.64684e-22)
(-0.0365781 0.0165294 -7.40162e-21)
(-0.0393358 -0.0680288 1.28875e-20)
(-3.1883e-05 -3.16887e-05 -1.12749e-21)
(-3.71786e-05 -3.21096e-05 -6.50256e-22)
(-3.16546e-05 6.5042e-06 0)
(-0.000406342 -0.00443323 -7.18166e-21)
(0.0492883 0.065962 6.03819e-21)
(-3.3136e-06 -6.16118e-05 1.50211e-22)
(-3.54073e-06 -1.48595e-06 7.01683e-23)
(0.00015066 5.68212e-05 1.10525e-21)
(-2.40587e-05 -3.17201e-05 1.03027e-22)
(0.00172611 -0.00264074 0)
(0.000172751 -0.000116775 0)
(-5.61532e-06 2.00967e-06 3.53552e-22)
(-0.00169679 0.000475208 -3.66416e-21)
(-2.33909e-05 4.9633e-07 6.01326e-23)
(-4.11802e-05 -8.76211e-05 -4.52234e-22)
(-0.000118559 9.70901e-05 -6.00531e-22)
(0.0145866 -0.00131852 1.47816e-21)
(-1.05254e-05 -5.19851e-06 -3.95177e-22)
(-9.23132e-05 5.83901e-05 -7.44187e-22)
(-8.47724e-05 -0.000153677 0)
(-0.000567843 8.14038e-05 3.47663e-21)
(-0.00369653 -0.001121 1.81604e-21)
(-0.0152088 0.00626422 5.52985e-21)
(-0.000617361 -0.00622515 0)
(0.0297311 0.0252944 0)
(-0.000137683 4.96218e-05 0)
(-0.0098565 -0.0193153 2.30362e-21)
(0.00279758 0.000792069 -3.51291e-22)
(0.0371422 0.0942451 0)
(0.00283463 3.40828e-05 6.21109e-22)
(-4.26825e-06 -3.84169e-06 -8.61999e-24)
(-4.87205e-06 -5.92094e-05 0)
(-0.00155375 -0.00185553 -2.79544e-22)
(-4.30086e-05 2.81429e-06 0)
(0.00722296 0.0066653 2.73874e-22)
(4.96097e-06 -1.8544e-05 0)
(-0.00723227 -0.0589698 0)
(8.49084e-05 0.000152772 -2.78918e-21)
(0.00336976 0.00179802 -3.90719e-22)
(0.0192849 0.024081 -1.4326e-21)
(-9.24416e-05 8.03413e-05 -3.38362e-22)
(0.0253929 -0.0357059 -4.33571e-23)
(-1.17516e-05 -5.6094e-06 9.79063e-23)
(-0.00022131 0.00100379 -2.95377e-21)
(-9.40055e-06 -1.98061e-06 2.68581e-22)
(0.00067144 -0.000204508 1.00545e-21)
(0.00346036 0.00172314 -2.3454e-22)
(-7.92487e-06 2.30453e-05 9.64679e-23)
(0.00188327 0.00303578 -2.32697e-21)
(4.73877e-06 -1.27062e-06 6.50858e-23)
(-1.54942e-05 2.78332e-06 4.8682e-22)
(-7.17034e-06 -7.14095e-05 0)
(-0.000487161 0.0055231 -7.56551e-22)
(0.00254609 -0.00261922 5.30142e-22)
(-1.66786e-06 3.52831e-06 -2.43119e-22)
(-0.000615124 0.00311254 0)
(-0.00214982 -0.00169406 8.71685e-22)
(-0.0301977 0.133661 -1.21847e-21)
(0.00497356 0.00723169 0)
(0.00262797 0.000394151 -3.69335e-22)
(-0.00258469 0.0750826 -1.9859e-21)
(-1.05974e-05 -3.18288e-06 4.61836e-22)
(0.00404287 0.00021472 7.83361e-23)
(3.71207e-06 -4.68488e-06 5.91297e-23)
(-0.0712105 0.082164 0)
(-0.0266281 -0.106154 0)
(0.00105048 -0.000224913 -2.70911e-22)
(0.00265681 0.00191853 2.0745e-22)
(-3.81502e-07 2.2586e-07 2.32433e-22)
(-0.000505818 -0.000537344 0)
(-8.3098e-05 6.86373e-05 -1.28903e-21)
(-8.25796e-06 2.27541e-05 -9.92195e-23)
(-1.11068e-05 -1.98128e-06 0)
(-2.87887e-05 4.69691e-07 3.92338e-22)
(0.00443158 0.00730264 -1.09034e-22)
(-3.13934e-05 1.47011e-05 1.76478e-22)
(-0.000771322 0.0011424 -2.90443e-21)
(-3.28903e-05 -7.55496e-06 0)
(-1.87267e-06 5.91191e-06 5.83109e-22)
(-1.13257e-06 9.50243e-07 4.66924e-22)
(-0.0257175 -0.0210152 -2.25903e-22)
(-0.00328123 0.0318935 4.46952e-22)
(-0.00981434 -0.0392823 -1.41428e-21)
(-0.00247805 0.00139715 2.45459e-21)
(0.000123006 -0.000123376 0)
(-0.00444123 0.0174214 4.79484e-22)
(0.00453618 0.000716081 1.47679e-22)
(-6.99858e-06 -3.80814e-05 -1.6105e-22)
(-0.0348466 0.0328025 0)
(-2.56242e-05 7.22676e-08 -8.32198e-22)
(0.000356014 0.00125337 2.74228e-21)
(-4.31975e-05 -3.46623e-06 -1.5632e-21)
(0.00320435 0.0119667 -3.7238e-23)
(-2.28415e-05 -2.74819e-05 -3.11287e-23)
(0.00104908 -0.00328495 0)
(-2.80064e-05 4.37314e-05 0)
(-0.0341381 0.0956862 1.73065e-21)
(-0.000478169 -0.000755053 3.31823e-21)
(0.0102312 0.00995571 -6.8427e-22)
(-2.38408e-06 -4.53923e-07 2.36223e-24)
(-0.000232194 -0.000750172 2.14571e-21)
(4.07123e-05 4.19264e-05 0)
(-8.05569e-07 -2.03442e-07 -3.42528e-22)
(0.00741053 -0.000220742 -6.70889e-24)
(0.0231507 0.0449948 8.80712e-23)
(5.17811e-05 0.000119221 -1.4584e-23)
(-0.0108117 0.00159435 8.24367e-22)
(-1.96924e-05 1.59346e-05 -6.10682e-22)
(0.000425833 0.000225178 0)
(-1.25125e-06 -4.44692e-07 0)
(0.00781673 0.000360578 5.54903e-22)
(-3.02015e-05 1.46239e-05 -1.8433e-22)
(0.00374095 0.000850251 0)
(5.05435e-06 -1.1953e-05 2.5075e-22)
(3.68777e-05 9.04596e-05 -7.06233e-23)
(-0.00328832 0.0082627 0)
(-1.47972e-06 3.24308e-07 -7.33862e-23)
(-0.00809008 0.00278118 1.39216e-21)
(-1.02311e-05 9.6607e-08 4.08777e-24)
(-2.35475e-05 -9.51673e-06 0)
(-0.0423136 0.1067 -1.90352e-21)
(-0.000751407 0.00119952 0)
(-2.92924e-05 -2.30492e-05 6.675e-22)
(0.00304142 2.02201e-05 0)
(0.00176002 0.0029203 2.2151e-21)
(0.0510103 -0.00112083 2.28015e-22)
(-0.0180619 -0.0128949 0)
(-1.10033e-05 -1.95172e-06 -6.50436e-23)
(0.00201934 0.00249961 3.1594e-22)
(0.0138554 -0.0033136 -2.02979e-22)
(0.00182258 0.00157874 3.23278e-23)
(-0.00201161 -0.000229388 0)
(-0.000302022 -0.000285074 4.06252e-22)
(0.000604663 -0.00387847 6.12143e-21)
(-9.43621e-06 4.43069e-07 3.47001e-22)
(-3.6207e-05 9.73465e-06 0)
(-0.00767381 -0.0079214 4.03704e-23)
(-0.00440704 -0.00144057 0)
(-3.63016e-05 0.000238737 9.06772e-22)
(0.00793077 0.0983565 -2.80648e-21)
(-0.000587937 -0.000773699 -4.10205e-21)
(0.0703718 -0.0174529 2.4537e-21)
(-0.0500345 -0.0675648 1.41451e-20)
(-0.0102267 -0.0171847 0)
(0.000912335 -0.000793134 4.58977e-21)
(-0.0116088 0.00373856 0)
(0.00470198 0.000538917 -1.30941e-22)
(-5.39246e-05 -5.71234e-05 0)
(-0.00876635 -0.00175027 1.00583e-21)
(-0.00723592 -0.010901 0)
(-2.43375e-05 -6.27569e-06 0)
(-8.60971e-06 -2.45131e-06 3.04112e-22)
(-2.33651e-06 1.19363e-06 -1.38265e-22)
(-0.00196153 0.00015803 0)
(-2.62126e-05 -1.53174e-06 0)
(0.00412224 0.000245976 -8.64577e-23)
(-0.000306413 0.00035031 -1.5351e-21)
(-1.59559e-05 1.70966e-06 0)
(-0.00163635 0.00271295 9.07295e-22)
(-2.38661e-06 -1.32419e-06 6.54502e-22)
(0.0227265 0.00418656 -1.59473e-21)
(3.12067e-05 -0.000166487 0)
(-1.4641e-05 -5.73692e-05 0)
(0.00263503 0.000111342 0)
(-0.00310117 -0.00085621 -4.02291e-21)
(-0.0123767 -0.0474485 -1.46404e-21)
(-3.61585e-05 5.8295e-05 0)
(0.000481029 0.000174613 0)
(5.54677e-06 -1.72391e-05 9.30051e-24)
(-4.65922e-05 6.2827e-05 9.76465e-22)
(-0.000234045 -9.53051e-05 1.36515e-22)
(-1.53694e-05 -5.13711e-06 1.11257e-22)
(0.00311882 0.000104379 5.69156e-22)
(0.000639575 0.000512614 0)
(0.0220149 0.0153074 -1.41551e-20)
(-0.0135899 -0.0680067 -1.44963e-21)
(-0.00831448 -0.00355697 1.59012e-21)
(0.00258473 0.000344635 0)
(-5.64326e-05 7.00668e-05 0)
(-1.75366e-05 -1.27022e-06 2.28689e-22)
(5.64498e-05 5.55617e-05 -2.86628e-24)
(0.00342412 0.00044159 3.41169e-22)
(0.0830649 -0.0195863 0)
(0.000123924 0.000195289 2.27476e-21)
(0.00331419 0.000105066 0)
(0.0427807 0.0663189 -1.32941e-23)
(-2.16479e-05 -1.46376e-05 9.95438e-23)
(-6.57201e-06 -4.83832e-05 0)
(-0.000169815 -0.000377334 -2.42404e-21)
(0.00227617 0.00122453 0)
(-0.0363257 -0.00566745 0)
(-0.00041015 -0.000884246 1.14966e-21)
(-4.59876e-05 6.43434e-05 -8.21375e-22)
(-9.18323e-05 5.74145e-05 0)
(0.000390126 0.00119965 -2.87583e-21)
(0.00110651 0.000160126 -4.92268e-22)
(-0.00891167 0.00150297 -3.84318e-21)
(-0.000338351 0.000352674 0)
(-4.91928e-06 -4.51003e-05 7.83972e-22)
(-8.20823e-05 7.43004e-05 2.54419e-21)
(-1.66701e-05 -8.99652e-07 -2.1903e-22)
(-0.000212614 -9.40857e-05 0)
(0.00232837 0.000815641 1.15551e-21)
(0.00149189 0.000855643 2.14259e-21)
(-0.000459017 4.77391e-05 -1.07036e-21)
(0.000358947 0.00219455 2.38812e-22)
(0.00319183 0.000125822 7.15368e-22)
(-0.000283111 -0.000186156 0)
(0.0284345 0.0548308 -1.77824e-21)
(-0.000263178 -0.000237684 1.40269e-21)
(0.00455433 -0.0030147 2.9144e-22)
(4.84439e-05 6.87587e-05 1.20325e-21)
(0.00175225 0.00164416 -9.32269e-22)
(-6.36046e-06 -1.89786e-06 -3.00232e-22)
(-0.000220717 0.00091247 1.3257e-21)
(-0.00268763 0.0293616 -2.68099e-22)
(-0.00119236 -0.0629472 -2.89599e-22)
(-4.34387e-05 1.52486e-05 -4.92173e-22)
(-0.000419339 0.000103053 -2.30527e-21)
(-2.63318e-05 -4.35692e-07 -8.18092e-23)
(-3.6324e-05 -5.85753e-06 -8.94675e-22)
(-2.46515e-05 3.19642e-05 -2.02444e-22)
(-0.00720313 -0.00041531 0)
(0.00339404 0.00218243 0)
(-0.0213702 -0.0211337 -6.20584e-21)
(-0.00888224 0.00260465 0)
(-1.2173e-05 7.38832e-06 -9.49908e-23)
(0.00160179 0.000880804 6.36283e-22)
(-0.000137466 0.000109375 -3.24151e-21)
(-0.00017789 7.34027e-05 -2.52049e-21)
(-0.0106782 0.00285057 0)
(-6.64341e-05 5.71342e-05 9.26316e-23)
(-0.000264456 0.00101554 -1.49098e-21)
(0.0533165 0.0482741 2.60715e-21)
(-3.21228e-06 -8.73081e-06 -3.57991e-22)
(-0.00292604 -0.000524123 0)
(0.00101957 -0.0106687 -4.75176e-21)
(-0.000356389 0.000324972 0)
(-2.693e-05 -1.37696e-05 7.22764e-23)
(-1.48829e-05 -2.7558e-05 -1.37949e-23)
(-3.78463e-05 7.66128e-07 0)
(0.00496483 0.000266967 -8.52236e-25)
(-8.2175e-05 7.01467e-05 1.28487e-21)
(0.000115854 -0.000194698 -3.83337e-24)
(-0.000313707 0.000507832 0)
(-1.55979e-05 -1.13145e-05 -1.54078e-22)
(-1.58077e-05 -3.59466e-05 -2.52861e-23)
(-0.0110201 -0.00543534 6.33813e-22)
(0.0404902 0.0470412 -1.14623e-21)
(-0.0125106 -0.00725617 -5.24746e-22)
(0.094368 0.0791898 -6.55005e-21)
(-0.00612165 0.00818935 0)
(0.00181636 0.000333609 0)
(-2.18722e-05 2.82508e-05 2.18551e-21)
(0.000353244 -0.00162021 -4.05712e-22)
(-0.000724402 0.0140117 -4.74908e-22)
(0.00111207 0.000123668 -4.99035e-22)
(-0.0121194 0.00492987 7.43089e-24)
(-4.51569e-06 1.15835e-06 1.81319e-22)
(-9.99311e-06 -1.5042e-06 3.3467e-22)
(-4.05047e-05 6.83206e-05 -1.0122e-21)
(-0.000585622 -9.65705e-06 1.17578e-21)
(-0.015536 0.00904976 2.12483e-21)
(-2.73121e-05 -1.89625e-05 -7.91217e-24)
(-0.00563836 0.0153484 2.50113e-22)
(2.26341e-05 0.000163423 2.6322e-22)
(-0.033956 -0.0632323 0)
(-0.000280895 -0.000200131 0)
(-0.000218438 7.49234e-05 -2.61838e-21)
(-1.58177e-05 3.3164e-06 -4.57541e-22)
(-0.00281251 0.00164848 5.30341e-21)
(0.000992909 0.00152571 -1.35448e-22)
(-0.00892251 0.0476454 -4.58814e-22)
(-0.0156933 -0.0061191 -5.81691e-22)
(-4.29355e-06 4.70981e-07 9.77525e-23)
(0.0195973 -0.00128958 -1.40822e-21)
(-9.03202e-05 7.09421e-05 -1.02676e-21)
(0.00348873 0.000289155 3.65806e-22)
(-7.21751e-05 7.06714e-05 0)
(-0.0360089 -0.00805494 8.11277e-23)
(0.000788365 -0.000179916 -2.16901e-23)
(-1.27236e-05 2.31501e-05 -2.9354e-23)
(-4.19899e-05 1.59461e-05 1.96712e-23)
(0.00417201 0.00194237 0)
(-0.00016916 -0.000116751 1.73472e-21)
(0.0584639 -0.00731421 -7.64319e-22)
(0.0778024 0.107794 -2.68894e-20)
(-3.52092e-05 -4.23544e-06 0)
(-0.000382597 0.000327915 0)
(1.35646e-05 7.01193e-06 0)
(-0.00325581 -0.000615806 -6.72625e-22)
(0.0256404 0.0941427 7.93493e-22)
(1.48703e-05 7.41602e-06 -1.72583e-23)
(0.0242193 0.0989331 1.78481e-21)
(-9.69956e-05 5.80595e-05 0)
(-0.0380818 0.000490821 0)
(-0.0030861 0.00356487 -9.07182e-23)
(0.0353329 0.0351287 -1.20859e-21)
(-6.33968e-06 -2.42064e-05 0)
(-9.42612e-06 1.35611e-06 -4.53976e-22)
(0.00907196 -0.0156877 -3.85863e-21)
(-1.16814e-05 3.87853e-06 5.36915e-23)
(-2.92178e-05 2.78139e-06 -7.7025e-22)
(-0.000177322 -6.67593e-05 1.4824e-21)
(2.25644e-06 -3.28469e-05 1.18213e-22)
(-0.000346344 0.000519123 2.65545e-22)
(-5.09253e-06 -2.34498e-05 -1.15351e-22)
(-0.0452558 0.02157 3.49713e-21)
(5.28226e-06 -2.91567e-05 -7.8002e-22)
(0.00587854 5.82749e-05 -1.54411e-22)
(0.00334475 0.000233095 -5.2175e-23)
(0.0650574 -0.0186071 0)
(0.00195782 0.000500472 1.97551e-22)
(0.102174 0.0579316 -4.86493e-21)