/*--------------------------------*- C++ -*----------------------------------*\
| =========                 |                                                 |
| \\      /  F ield         | OpenFOAM: The Open Source CFD Toolbox           |
|  \\    /   O peration     | Version:  v2012                                 |
|   \\  /    A nd           | Website:  www.openfoam.com                      |
|    \\/     M anipulation  |                                                 |
\*---------------------------------------------------------------------------*/
FoamFile
{
    version     2.0;
    format      ascii;
    class       volScalarField;
    location    "150";
    object      p;
}
// * * * * * * * * * * * * * * * * * * * * * * * * * * * * * * * * * * * * * //

dimensions      [0 2 -2 0 0 0 0];


internalField   nonuniform List<scalar> 
13917
(
-0.116704
0.000803787
-0.0729499
-0.0185685
0.00197706
0.00125682
-0.029293
-0.00243319
-0.0361713
-0.1623
-0.000539031
-0.0124348
-0.0095462
-0.00238846
0.000660697
-0.113712
0.000473137
0.000755229
-0.0553169
-0.138682
-0.00365208
-0.00162008
-0.0395806
-0.00149954
-0.0161931
-0.00164306
0.00329206
-0.163211
0.0020543
0.000169666
-0.161479
-0.0543184
-0.0154497
-0.104459
0.000841
-0.00574141
-0.00688358
-0.00237721
-0.0301005
-0.00936088
0.0009597
0.00102584
-0.0322137
-0.0597917
-0.0587175
-0.0243807
-0.00441872
-0.108767
-0.00894595
0.000804637
-0.0122113
-0.0305506
-0.0914734
-0.00709975
-0.00784185
-0.0317953
-0.156475
-0.0386625
0.0010085
-0.023632
0.0171417
0.00200916
8.08357e-05
-0.0161512
-0.0886718
0.00106023
0.00211951
-0.00683123
0.000390407
-0.0972247
-0.0833629
-0.104126
-0.0171247
0.000986479
-0.00352729
-0.0129631
0.00108516
0.000970429
-0.0130462
-0.0156389
-0.0037388
0.000381941
-0.0168881
-0.085662
-0.00681825
0.0140407
-0.0535923
-0.00662886
-0.0087602
0.000476224
0.000577942
-0.0329693
-0.00313327
0.000697605
-0.00640606
0.00240373
0.021531
-0.000125368
-0.00676504
0.00839344
0.000350863
0.0003197
-0.00382625
-0.000338734
0.00102961
-0.0783956
-0.124992
0.00247889
0.00104843
0.00254401
-0.0096466
-0.105797
0.0020279
-0.121913
-0.0897028
-0.0115113
-0.0546394
0.000594469
-0.068418
-0.0160566
0.000400696
0.000913251
0.00245805
-0.0422645
-0.0876184
-0.0864481
-0.0165901
-0.00280279
-0.000205236
-0.0436156
-0.0419959
-0.0232972
-0.0840833
-0.0110402
-0.056696
0.00657737
0.0117261
-0.0818681
-0.000397937
-0.00238404
-0.018616
0.000945989
-0.079269
-0.0032329
-0.0158321
0.00107405
-0.0837037
-0.0137393
-0.133814
-0.00723384
-0.0091882
0.000332028
-0.0155963
-0.0161952
0.0234959
0.000237529
-0.000302255
-0.0841912
0.000510852
0.000568777
-0.0055682
-0.0612092
-0.00364831
-0.0166267
-0.017689
0.011366
-0.0925575
-0.0152342
4.27575e-05
0.000274513
-0.00115913
-0.0890341
-0.0362633
0.0177959
-0.0259399
0.000492996
-0.0190335
-0.0290647
-0.0415835
-0.00330162
-0.031244
-0.00129996
-0.0118733
-0.0336173
-0.0683798
-0.0226791
-0.0116435
-0.0314514
0.000209944
0.0119731
-0.0248751
-0.0576995
-0.0383452
-0.123357
0.000665619
-0.0894876
-0.0183504
-0.0837791
0.000790588
2.0887e-05
-0.00585645
-0.0999933
-0.0822657
-0.00561117
-0.00524023
-0.000606432
-0.00960414
0.000941385
-0.0301427
-0.00339512
-0.00060961
0.00199997
0.00183321
-0.115611
-0.0563458
-0.000956293
-0.09522
-0.00389999
0.00070793
0.000712707
-0.0275404
-0.0360724
-0.0277517
-0.0099981
-4.49708e-05
0.0066979
-0.0910409
0.000690908
0.000681133
0.000500896
0.000729095
0.000733769
-0.105811
-0.0894682
-0.00267689
7.09108e-05
-0.0330078
-0.0986537
0.000597878
-0.00988626
-0.00532006
-0.0794446
-0.0356445
-0.0992347
-0.0256979
-0.00336864
-0.0152082
-0.0338022
0.0014837
-0.0487501
-0.00592827
-0.105929
-0.0163328
-0.0188522
-0.0260925
-0.0022404
0.000856292
-0.0166515
0.00210321
0.000982001
-0.0884589
-0.0319399
0.000914131
0.000663187
0.000321336
0.000659373
-0.0164476
-0.00976164
-0.0292874
0.000949048
-0.080242
-0.117257
-0.00993222
0.00152115
-0.0245424
0.000728411
0.00606365
-0.0884077
0.000730395
-0.0975206
0.000939527
-0.0519495
0.000434039
0.0001413
-0.0020743
-0.00265793
-0.0517617
-0.0016293
0.0126972
-0.0159313
-0.0278196
0.000972161
-0.00871887
-0.0799932
0.000605682
-0.0359373
0.00201502
-0.0102982
0.00204881
-0.0136626
0.000787867
-0.0016272
-0.0277235
0.000990145
-0.0185673
-0.0137427
-0.00972301
-0.082975
-0.100281
-8.96699e-05
0.00111814
-0.0107988
-0.000593437
-0.0669786
-0.120989
0.0164092
0.000682393
-0.021376
0.00148351
-0.0854811
-0.00354491
-0.0730924
-0.00914466
0.000650288
-0.0014645
-0.000511512
0.000492314
-0.0565666
0.000441584
-0.0902765
-0.00668125
-0.0512452
0.000777122
-0.138177
-0.00153028
-0.0194736
-0.000395503
7.15101e-05
0.000589604
-0.0504401
-0.0814003
-0.00697376
-0.000387569
-0.104211
-0.0820111
-0.00907358
-0.00935419
0.00071278
-0.00344772
-0.0790555
-0.0224773
0.000711991
0.00204148
-0.0095989
0.00333581
-0.019562
-0.0390012
-0.0204545
0.00788888
-0.0492517
-0.115381
-0.000178448
-0.0073165
0.0018736
-0.0599719
0.000539717
-0.121184
-0.0491816
-0.0091473
-0.00772414
-0.0215784
0.00100511
0.0051454
0.00101785
-0.0303923
-0.023822
-0.000159141
-0.00994245
-0.0698486
0.000792547
-0.00964881
-0.0380739
0.00100653
0.000311467
-0.00124249
-0.00411664
0.000399784
-0.143085
-0.00311124
-0.00861223
0.000517482
0.00608641
-0.00604055
-0.0168712
-0.073951
-0.00952116
-0.0510671
-0.00424036
0.00836336
-0.0714706
-0.00680309
-0.032532
-0.0142902
-0.00300198
-0.00311454
-0.000223675
0.00781136
0.00795054
-0.00749592
-7.8721e-06
-0.00183888
-0.0312651
-0.00610704
0.000742669
4.29785e-05
-0.0662673
-0.0204156
-0.00264723
-0.00876209
-0.00302323
0.0300157
0.000819781
-0.0567149
-0.0834234
0.000871094
0.000725439
-0.00395212
-0.00313439
0.000746457
-0.00250754
0.000730765
0.000855367
-0.0352427
-0.00432932
-0.0106405
-0.0805202
-0.034858
-0.000610485
-0.0151923
-0.0234683
-0.00511366
-0.0863014
0.000762852
-0.0101301
0.00080565
0.000757185
-0.00682883
-0.000804533
-0.00480243
0.00125144
-0.079602
-0.00996332
-0.0398069
0.00118703
-0.00339119
-0.0265123
-0.00669287
-0.00971654
0.0190893
-0.000678596
-0.00289272
-0.00185499
-0.00142201
-0.000606032
-0.00551301
-0.0834664
0.0183777
-0.000605451
-0.0142278
-0.0656233
-0.00963109
-0.0350857
-0.0611855
-0.0316866
-0.0345476
-0.084305
-0.00768318
-0.00718745
-0.000956402
0.000722994
0.00091131
-0.00576136
-0.023836
0.000541706
-0.00727887
-0.00676963
-0.0340896
-0.00586062
-0.0655458
-0.0448329
0.0011613
0.00175303
0.00158426
-0.0108699
-0.00726017
-0.000892686
-0.0326357
-0.0166556
0.00162922
-0.00689082
-0.01063
-0.0284358
-0.00218311
-0.0826285
-0.00302009
0.00075688
-0.0321153
0.000760247
-0.00368222
-0.027433
-0.0805078
0.000232727
-0.00565919
-0.0222102
0.0013086
-0.0193001
-0.030669
-0.00712506
-0.00760511
-0.00559434
-0.026993
0.000364938
8.5299e-05
0.000531201
-4.75756e-05
-0.00317029
0.00120776
-0.0230272
0.000570361
-0.0443354
-0.00219582
-0.00207587
-0.014428
-0.121335
0.000406564
-0.0269474
0.000966753
-0.0392276
-0.0378877
0.0056276
-0.0265379
0.00583358
-0.0130566
0.00190381
-0.0837283
-0.0433476
-0.0806719
1.86195e-05
-0.00167803
0.0010848
-0.0105637
-0.0915176
0.000743896
-0.0151549
-0.0189555
-0.0872257
0.0058859
-0.0319159
-0.175558
-0.000518426
-0.0577053
-0.000134365
0.00122696
-0.0875303
0.000747428
-0.074029
0.000147877
-0.00964739
-0.00165748
-0.0649474
0.00130628
0.00060886
-0.0612347
-0.0342486
-0.0129132
-0.0830982
-0.0834334
-0.0256481
0.000383994
-0.0912489
0.000211159
0.0114794
-0.0172299
0.00130778
0.00102716
0.000475722
-0.0321516
-0.0308383
0.00074822
-8.8132e-05
-0.00796862
-0.0821569
-0.00620085
-0.0530815
-0.00708559
0.000604433
0.000568646
-0.0241734
-0.0411798
-0.172003
-0.0478684
-0.0236114
-0.0506156
-0.0973188
0.000445781
-0.0193128
-0.00903379
-0.0653886
-0.0103508
-0.0705846
-0.00311408
0.00136381
-0.0161985
-0.0111396
-0.030753
-0.0907653
0.000501836
-0.0291951
0.000607337
0.000406505
-0.116882
0.0164699
0.000821828
-0.0388575
-0.00983165
0.0012036
0.00026576
-0.114363
-0.00636166
0.00215705
0.000737882
0.000745841
-0.0582238
0.000241296
-0.0429933
0.000313207
-0.00174839
0.0130024
-0.0537957
-0.00703276
-0.0802191
-0.0734507
-0.000691449
-0.0274783
-0.000515432
0.00113644
-0.126112
-0.0744484
-0.00453988
-0.00729412
0.00129607
0.000356176
-0.000622745
0.000706181
-0.0372589
-0.015734
0.00516493
-0.0315305
-0.00882855
-0.0284033
0.00143707
-0.0220615
-0.0401672
-0.0986856
0.000771202
0.0020523
0.000422552
-0.00185464
0.000414053
0.000514469
0.0012895
-0.00439998
-0.0936882
-0.0463419
-0.000705423
-0.0556539
0.000494169
-0.114492
0.000958173
-0.000115569
-0.0811749
-0.0385444
-0.00846434
-0.0171952
0.000823193
0.000170054
-0.0203452
-0.0308912
-0.00217518
-0.0833586
-0.0158985
-0.00892555
-0.0093609
0.00164468
-0.0811939
-0.0219934
-0.000350752
0.000687154
-0.0889818
-0.0011279
-0.0182515
-0.0850639
-0.00397125
-0.00155826
-6.25795e-05
-0.00627631
-0.0808277
-0.00397833
-0.0300827
-0.0198939
-0.026711
-0.066008
0.00124283
-0.0405196
-0.0460625
-0.00630578
-0.0153982
-0.000465567
-0.0302452
0.00184984
-0.0745146
-0.00938834
0.00154074
-0.0843711
0.000496867
-0.00619181
-0.00762288
7.2808e-05
-0.0214362
-0.073973
0.000384653
-0.0572448
-0.0424718
-0.00302319
-0.0110603
-0.00992907
-0.00448107
-0.00974101
-0.0161128
0.00332089
0.00123263
-0.0256301
-0.0418663
-0.000428961
-0.0752938
-0.0355337
-0.0339888
-0.0403171
-0.0032483
-0.057245
0.0178913
0.000531716
-0.039317
-0.0240812
-0.0451293
-0.000848941
-0.000703087
-0.000556765
-0.0983615
-0.0149242
0.00102055
-0.0502704
-0.00218126
-0.000494968
-0.0324738
0.0161991
0.0037133
0.0286153
0.00192382
-0.0786002
-0.0164042
0.00119497
-0.0602377
0.00129008
0.00268909
0.000531968
0.000369722
-0.0163466
-0.00845913
0.00686405
-0.000802809
0.00167051
8.35904e-05
-0.0146799
-0.00804251
-0.0348771
0.000769869
-0.0484325
0.000199662
-0.0310518
0.00447034
0.000676927
-0.121745
-0.014936
-0.0892092
-0.0305841
0.00503964
0.000914173
0.0001132
-0.0109924
-0.0933865
-0.0291143
-0.003979
0.0301378
-0.00966029
-0.0450739
5.24166e-05
0.00172135
0.00241089
6.29041e-05
-0.0229534
-0.0280383
0.00670085
-0.0531563
0.00645935
0.000613386
0.000239045
-0.0207918
-0.000431417
-0.00658971
-0.0102222
-0.00151818
-0.0501092
0.000611274
0.0163137
-0.00591919
-0.109532
-0.0876907
-0.00383965
-0.0790835
0.0195228
-0.110906
0.00105853
-0.00109512
0.00118792
-0.0129926
-0.0125411
-0.00550153
-0.0298521
-0.00558058
-0.00713319
-0.00673373
-0.0807721
-0.0149314
-0.0439129
-0.0169623
0.0002461
-0.00879285
-0.0145826
0.00125128
-0.0248119
0.000786981
-0.0804633
-0.0374965
0.00133378
-1.03129e-05
-0.0120686
-0.000723632
0.000154027
-0.00395771
-0.00121836
0.0135387
-0.00323954
-0.0113049
0.000668816
-0.00399433
-0.0578788
0.00233733
-0.00124066
-0.0119382
-0.0215195
-0.0043534
-0.0500336
-0.000212509
0.0110503
0.000800915
2.82869e-05
-0.116923
0.00020504
-0.0187846
-0.0545139
-0.114465
0.000824299
0.00371808
-0.0614778
0.00102994
8.99094e-05
-0.00149741
-0.0824654
-0.0117274
-0.0622326
-0.0130258
-0.0815357
0.000511684
-0.0382762
-8.80918e-05
0.00067781
-0.0029369
-0.00558751
0.000378979
-0.0832745
-0.00781035
-0.00258083
-0.0122252
0.00101421
0.00120378
-0.0382136
-0.00921446
-0.0921064
-0.0111351
-0.0605625
-0.0272276
-0.0259795
-0.0838404
-0.00577263
-0.0387217
-0.010866
-0.0829176
-0.00965507
-0.0182035
0.00080984
0.0011712
-0.00737754
0.000785214
0.000853235
0.000922511
-0.0111137
-0.0217945
0.000531431
-0.00804602
-0.053255
-0.0326831
-0.0374444
-0.0535724
-0.000874237
-0.00347681
-0.00554126
-0.0622024
0.000448697
-0.0801967
0.000750347
-0.00111379
-0.00829025
-0.004829
0.000747255
0.000812273
-0.00739568
-0.022119
-0.00269953
-0.159473
-0.0053023
-0.00197092
-0.0927828
-0.0110622
-0.000298664
0.00203314
-0.114949
-0.00902158
0.000543206
-0.00662214
0.000630948
-5.23801e-05
-0.0762931
0.00122341
0.0300106
-0.019265
0.00468803
-0.000707771
0.000929838
-0.00620551
0.00550306
-0.0132648
-0.0971122
0.00299775
-0.00238835
0.00031672
-0.0123396
-0.000699805
-0.0611675
-0.046817
-0.0152895
-0.0887837
-0.157965
0.0059094
-0.0620527
0.000905275
-0.0841772
0.000914323
0.00399085
-0.0271735
-0.0332214
-0.0126573
-0.039888
-0.00175027
-0.0784572
0.000905674
-0.0109849
0.00080361
-0.00578903
-0.0475232
-0.00580644
-0.0127065
-0.0213821
-0.103432
0.000937151
-0.0400119
-0.0963162
0.000139871
0.000729583
-0.0206621
-0.0982008
-0.0126695
0.000182784
-0.0290024
-0.0146521
2.15522e-06
0.00342713
-0.00307545
-0.0128421
-0.0127524
0.000874699
0.00175965
0.00257509
0.00270499
-0.084562
-0.0176177
-0.0144933
0.000514613
-0.120819
-0.000376388
0.0010364
-0.00383285
-0.0210114
-0.0193823
0.000827009
-0.0258283
0.00162929
-2.39566e-05
-0.0457827
-0.00307862
-0.00257406
-0.0461947
-0.0647507
-0.0574183
-0.0243222
-0.00140516
-0.00724596
-0.094003
-0.00247706
-0.0258636
0.000740156
-0.0259176
-0.032008
-0.000589514
-0.0235168
0.00123789
-0.0196597
-0.0100527
-0.00647426
-0.0157879
-0.0266445
-0.0249232
0.00704475
0.000371328
-0.0648987
-0.0093398
-0.00492686
0.00195607
0.00132932
0.000714477
-0.000276081
-0.0130199
-0.0793684
-0.0023516
-0.00734678
-0.0311485
-0.00613187
-0.00910324
-0.0192386
-0.0597365
-0.000151446
4.18795e-05
0.0144229
2.97691e-05
0.000757421
-0.0838866
-0.016437
-0.0117102
0.00815357
0.00102331
-0.00709355
-0.0948228
-0.0840698
0.00226124
-0.0240919
-0.00449223
-0.0831323
0.0171553
-0.00651763
-0.0831096
5.1766e-05
-0.0350559
-0.0344745
-0.0699696
-0.00699979
0.0110513
0.000816616
-0.00204753
-0.00852229
-0.00917386
-0.00191026
-0.0746846
0.000326494
-0.0308044
0.000283335
-0.056717
-0.0323985
-0.00872785
-0.0153515
0.0234617
-0.0118366
-0.0611766
-0.0023054
-0.00921825
-0.0094117
-0.0825342
-0.0465422
-0.103179
-0.0116719
0.00240758
-0.0231852
0.000827641
-0.00470049
-0.0282626
0.000919815
-0.00387962
-0.0265301
-0.00961592
-0.00900579
-0.00225288
-0.00323635
-0.0214994
-0.0463972
-0.0370128
-0.00568038
-0.0258727
0.00692975
-0.00625838
-0.00524023
0.000894926
-0.0778295
-0.050343
0.000197375
-0.0432831
0.00125023
0.00516416
-0.0806292
-0.0125471
-0.00257402
0.000816412
-0.012334
-0.0050239
-0.00615751
-0.0781573
9.10473e-05
-0.0267427
0.0012812
0.00114114
-0.052387
-0.0904949
0.00796463
-0.0177968
-0.00159228
-0.00257742
-0.00782877
-0.0604364
-0.0802229
0.00110118
-0.0181975
-0.00515733
-0.0456234
-0.0299679
0.00142416
-0.00833809
-0.0600337
0.000589098
0.015291
0.00126121
0.000300865
-0.0175528
-0.101324
-0.0311503
0.000961909
-0.0250111
-0.0262964
9.63486e-05
-0.0274818
-0.00369328
-0.00794753
-0.0155121
-0.0153928
0.000626442
0.002293
-0.050778
-0.00935777
-0.0158911
0.000606801
-0.00534224
-0.00051214
-0.00970432
-0.0224958
-0.0124588
-0.0837226
-0.00980945
-0.0245421
-0.0394022
-0.0222431
8.70547e-05
-0.00504035
-0.028847
-0.0737619
-0.116546
-0.00537222
0.000642798
-0.0825227
-0.00267222
-0.000590692
-0.0179924
-0.00955249
-0.00957475
-0.00279843
-0.0774538
-0.0214466
-0.00455097
-0.011883
-0.0486373
-0.0768637
-0.0955548
-9.95662e-05
-0.00250768
0.00889218
0.000594234
0.000851487
-0.0150771
-0.00602356
-0.0127773
-0.0326548
-0.0158002
-0.0806454
-0.00849338
0.000156352
-0.0216752
0.000634744
-0.0734654
-0.00831963
-0.00051306
-0.0237753
-0.0527907
-0.0397718
-0.0728599
-0.00758206
-0.0325924
-0.000575873
0.000142669
0.000465814
-0.00830849
-0.00950974
-0.072769
-0.0122674
-0.0330291
0.00197872
0.000903639
-0.0150402
0.000897097
-0.000275105
-0.0810909
0.000722307
-0.00490819
-0.0525441
-0.00843922
-0.0462405
-0.0333081
-0.0325999
-0.00766732
0.00204871
-0.00158154
0.00034285
-0.00266616
0.000444883
0.00158122
-0.000245815
0.000663162
0.000884284
0.00358674
-0.00327888
-0.0942954
-0.0317376
0.000964429
-0.00943335
0.000440202
-0.030052
0.00205047
0.00998899
0.00271529
-0.00145864
0.00104168
-0.0249686
-0.00212315
-0.0469232
0.000311619
0.000710212
-0.0143581
0.000584748
0.000411286
-0.102647
-0.00454909
-0.000376108
-0.0170129
-0.0267237
-0.0841657
0.00195306
-0.0208362
-0.0174769
0.00178349
0.000852564
-0.050314
-0.0112466
0.000416551
-0.0347102
0.000437256
-0.103447
0.00188093
-0.00318299
-0.0111902
0.000859205
-0.082028
0.000666775
0.000622493
-0.0542515
-0.00764727
-0.000510091
0.000836714
0.000851012
-0.046694
-0.0152672
0.00113511
-0.000860233
-0.00403761
0.00517487
-0.000976027
-0.000994615
-0.0123455
-0.00918912
-0.0276863
-0.000305267
0.000932151
-0.0159167
-0.00643308
-0.00804574
-0.0102446
0.00358032
0.000461387
-0.0472529
-0.00164162
0.000467192
0.000234436
-0.00965714
-0.0025048
0.000738549
-0.00810726
0.000358487
-0.03337
-0.0418514
0.000867135
-0.0840213
-0.0989757
-0.0515878
-0.0794288
-0.00231427
-0.0102161
0.011092
-0.00213924
0.000906804
-0.0936346
0.000360261
-0.0661423
0.000264611
-0.0258131
-0.0438239
0.0163725
-0.0248542
0.000188467
-0.0472583
-0.00199212
-0.0011393
-0.0261796
-0.0956175
-0.145387
-0.0106222
0.0050886
-0.00641205
0.000501277
-0.0170278
-0.00131026
-0.0100243
-0.00356071
0.000347759
-0.0863235
0.00084782
-0.0402334
-0.00411822
0.00977859
-0.0266237
-0.00723315
0.000250958
-0.0794169
0.000179974
-0.011891
-0.0180813
-0.000280365
-0.0193773
0.002054
-0.0285515
-0.084737
-0.00989223
0.00451897
-0.0171311
-0.000102764
-0.0259065
-0.000787612
0.000270809
-0.0308077
0.000512821
-0.000281258
-0.0318833
-0.00748571
-0.0191763
-0.00941878
-0.000282109
-0.0059023
-0.00239612
-0.00322976
-0.00544473
-0.0116334
-0.0100249
-0.000758153
0.000173391
-0.00832423
0.000961266
-0.00667012
-0.0790649
0.000182886
0.0282549
-0.00849283
0.00123894
-0.0765113
-0.00613221
0.000500686
-0.0864598
-0.052326
-0.104992
0.00111067
-0.0860135
0.0321779
-0.0044649
-0.0934883
-0.00444326
-0.000386797
-0.000197464
-0.00276335
0.000209895
-0.112307
-0.00244147
-0.0460499
-0.0149401
-0.0801807
-0.0117054
-0.00484471
-0.0084988
-0.100512
-0.01201
-0.00972709
0.000848888
-0.0120584
0.000134251
0.000634979
-0.00922417
0.0109046
-0.00758431
-0.00569924
-0.0871091
-0.00374414
-0.0303751
-0.0310814
0.000285426
-0.0425915
0.0308395
-0.00422465
-0.0478807
0.000690207
-0.0368887
-0.102643
0.000219859
-0.0812557
-0.00956952
-0.0850684
-0.0207172
-0.0116555
0.000656839
-0.000820603
-0.0111449
-0.0115266
-0.0175017
-0.000214724
-0.00569803
-0.0878475
-0.0249473
-0.0767861
-0.000102656
-0.0177434
-0.101763
0.00173611
0.00613115
-0.0781267
-0.00692892
-0.0108536
-0.0715355
-0.00387312
-0.0349837
-0.0047098
-0.0726905
-0.00625783
0.00562679
-0.0912295
-0.0218925
-0.00210851
-0.00346358
-0.0367153
-0.0290558
-0.0231502
-0.00910965
-0.0351762
-0.0231667
0.0143115
-0.00537947
0.00103373
-0.0122281
-0.0862969
0.000728661
-0.0113263
-0.0114856
9.08067e-05
0.000308124
-0.0830824
-0.0168939
0.000979751
-0.0257865
0.000540672
-0.000879628
-0.0275409
-0.0318584
-0.00960061
-0.0809532
0.00158125
-0.0804573
0.00068957
-0.0981096
-0.0754376
-0.0718662
0.000733425
-0.0115758
-0.00236212
0.0215854
-0.025004
-0.0515223
-0.0905813
0.0261576
5.12128e-05
-0.0148812
0.00119194
-0.0442023
-0.0883028
0.000396933
-0.000748208
-0.0123268
-0.0288239
0.021514
0.000652957
-0.0114513
-0.02579
-0.00279904
0.00125893
-0.00569996
-0.0814437
0.0010646
-0.00677028
-0.0786753
-0.0277732
-0.00410241
-0.0555485
-0.0050051
0.00130874
-0.125103
-0.00832306
0.00845256
-0.0447851
-0.0515599
-0.00995302
-0.0864747
-0.0144302
-0.000167379
0.0273967
0.000413842
-0.0664972
-0.0368364
-0.0199547
-0.0216513
-0.0101883
-0.000579199
-0.0322724
-0.106235
-0.0133612
-0.0590823
1.13986e-05
-0.0169903
-0.0096119
-0.00168376
-0.077228
0.0178525
0.000715785
0.000640272
-0.0705155
-0.00490441
-0.00628914
-0.0907743
0.000156744
-0.00652313
-2.335e-05
-0.00552563
-0.0470377
-0.0116428
8.66094e-05
-0.0311822
-0.0320641
-0.00236339
-0.0221307
0.0039363
0.000637899
-0.0168395
-0.00930418
-0.00564455
0.000702601
0.000555844
-0.0850263
-0.0641659
-0.00564876
0.0109619
-4.29491e-05
-0.00364909
-0.00192818
0.000330421
0.000933896
-0.0055703
-0.0208538
-0.111139
-0.0383134
0.00832974
-0.0156896
-0.0109025
-0.00781232
-0.0780331
-0.000768839
-0.0602177
-0.036042
-0.00348213
-0.0290738
-0.0946012
-0.00453287
-0.00572665
0.000564683
-0.00944569
-0.00945071
-0.00020932
-0.0162782
-0.0016797
-0.00278213
-0.0724101
-0.00888898
-0.0190703
-0.00620574
-0.000763555
-0.0527453
-0.0265236
-0.000121706
-0.0453931
0.00257305
-0.0945883
0.00841574
-0.00496444
-0.00365315
-0.128143
-0.00872459
-0.0448742
-0.0163327
-0.0866938
0.000972644
-0.00025171
0.00204097
-0.0430288
-0.0108104
0.000315763
0.000320628
-0.0696989
-0.157367
-0.0275885
-0.0112707
-0.00243332
-0.00247999
-0.0829197
5.58855e-05
-0.0788744
-0.0518702
-0.000162038
-0.0252623
0.00021995
0.000551522
-0.0221471
0.000846503
-0.0161978
0.000208305
-0.0137901
-0.0156797
-0.00593324
0.00093138
-0.111942
-0.00339803
-0.00966436
-0.087957
-0.00803544
0.00163541
-0.0224178
-0.000147455
0.000856844
-0.0231017
-0.0294963
0.0173102
-0.00331323
0.000620646
0.0339211
-0.00992398
-0.0314369
-0.0176397
-0.0088178
0.000758959
0.000600692
-0.011432
0.00208403
-0.0485184
-0.0801634
-0.101281
-0.00160029
0.00141286
-0.00734076
-0.0803089
-0.0112124
-0.00162544
-0.0876697
-0.0862307
-0.000769083
-0.01707
-0.0144622
0.00348642
-0.0905569
0.000931889
-0.00976453
-0.0311521
-0.0104099
-0.0151061
-0.018037
-0.00429707
-0.0660726
-0.068733
0.000217952
-0.0369472
0.00175152
-0.0111269
-0.0149678
-0.0505902
0.0341336
0.0109414
-0.00586539
-0.000307763
-0.00929132
-0.00409028
-0.00545438
-0.000125272
-0.00159706
0.000921141
-0.0234273
-0.0750147
-0.0419795
-0.000204607
-0.024295
-0.0183504
0.0245335
0.000992042
-0.0121302
-0.00133212
-0.0834855
-0.000627453
-0.00171392
-0.0221331
-0.0586141
0.000656089
-0.085223
-0.011455
-0.00358888
-0.0265433
-0.00136126
0.00282356
0.000215995
0.000540179
-0.000719528
0.000343757
-0.0902826
0.000724536
-0.00504316
-0.043494
-0.032619
-0.00348936
-0.0597453
-0.00675742
-0.0114949
-0.00994446
-0.0093213
-0.00262385
-0.00284495
-0.0786364
0.00458881
0.00370303
-0.00682612
0.00206661
-0.0865471
-0.0462345
-0.0834815
-0.000900915
-0.00209931
-0.0116439
-0.00420289
0.000657222
0.00122389
-0.0723183
-0.0550189
-0.00204489
-0.00460792
-0.0109353
-0.0558777
-0.0150203
-0.0051443
-0.00586552
-0.0810695
-0.015026
-0.100221
-0.015358
-0.00353748
-0.00604584
-0.000166033
-0.0016199
-0.0464292
-0.00300635
-0.0359355
-0.108553
-0.00438008
-0.0836931
-0.0202699
-0.000807296
-0.0183843
-0.00434485
-0.0270502
0.000772226
0.000662852
0.000613731
-0.110954
0.000513518
0.00149869
0.00453396
-0.0356304
-0.00610315
-0.0226179
-0.0508558
-0.0827526
0.000844714
0.000253408
0.000754509
-0.0803753
-0.00916381
-0.0150583
0.0128004
-0.00354821
-0.0264141
-0.00750393
3.35487e-05
-0.00778263
-0.0129135
-0.0339635
-0.117327
-0.108759
-0.0230232
-0.00069989
-0.00658861
-0.0135297
-0.0222046
-0.00166052
-0.0655205
-0.0611537
-0.00546678
-0.00354487
0.000650326
-0.0181124
0.00255488
-0.0724158
-0.0219127
-0.0149464
-0.0853457
-0.0542978
-0.0652596
-0.0864737
-0.00800484
-0.0921153
-0.0131223
-0.0802328
-0.0775074
-0.0889658
-0.0895374
0.000384707
-0.0249959
0.000429666
-0.00092106
-0.109449
-0.00659546
-0.0117274
-0.0313765
-0.0160929
-0.0364881
-0.0755622
-0.078951
0.00855955
-0.0202157
-0.00436835
-0.00914435
0.000123879
-0.0163878
-0.0257296
-0.0550957
-0.00430216
-0.0170211
0.000734126
-0.000353564
-0.00168102
-0.0738945
-0.00481614
-0.000788449
-0.0137506
0.00516118
-0.0369232
0.000442378
0.00484184
-0.0882904
-0.0145188
-0.0369915
-0.011373
-0.0320812
-0.0274989
0.00300704
-0.000461254
0.000370729
-0.0103521
-0.0270782
-0.0017095
-0.031923
-0.107467
-0.00921035
-0.00507337
-0.00344824
-0.00805735
-0.00558051
-0.00294494
0.000746071
-0.0355712
-0.0595815
-0.000789725
-0.0154633
-0.082689
-0.0074556
0.00435058
-0.0249224
-0.0803258
-0.0145778
-0.0900453
-0.00492215
0.00214995
0.000938015
-0.0836352
-0.0315135
0.000581864
-0.0980567
-0.00848537
-0.00907996
0.0241978
-0.079448
0.00646185
-0.027242
-0.0302936
-0.0174437
-0.0793686
-0.00201151
-0.00734708
-0.0147803
-0.0282723
-0.0109458
-0.000111789
-0.0080576
0.000801931
-0.0808791
-0.017757
-0.100998
-0.00820716
-0.0982138
-0.08552
-0.0140787
-0.0148893
-0.0300176
0.0236479
-0.0725981
-0.0338935
-0.106912
-0.0410589
0.0294898
0.00142315
-0.07988
-0.132231
0.0022582
-0.0773107
-0.00581657
-0.00124985
-0.0149537
-0.00471002
-0.00781079
-0.0378793
-0.101734
0.00193205
-0.00187356
-0.081329
-0.0776771
0.00530181
-0.0935999
0.00177192
-0.0847618
-0.0404362
-0.0550493
-0.000643871
-0.00103513
-0.0494471
-0.0852655
0.000201192
-0.0317906
-0.0973745
-0.000753105
-0.0141333
0.00108058
-0.0086444
-0.00534674
-0.0351128
-0.10298
-0.000137352
-0.0100667
-0.000923679
-0.0132073
-0.0610456
-0.107453
-0.00190169
-0.0816921
-0.0257062
-0.00599168
-0.00561834
-0.0199168
0.000549417
-0.0783922
-0.0809687
-0.0110732
-0.0318364
-0.0922954
-0.00123459
-0.0831498
-0.100013
-0.0258979
-0.0847467
0.000584
-0.00664957
-0.0111835
-0.0266062
-0.0861821
-0.0319664
-0.014233
-0.0173431
-0.00269331
-0.094374
0.00133517
0.000981258
-0.08187
-0.0950658
-0.0165751
-0.00877811
-0.0303521
-0.00984487
-0.0109816
-0.0407849
-0.00469618
-0.0744862
-0.00474713
-0.0850053
-0.00295366
-0.00316759
-0.0542844
-0.00156518
0.00066808
-0.0476943
-0.0332643
0.000197193
0.00098017
-0.0325053
-0.0732771
-0.0864893
-0.0172294
-0.0137912
-0.00723686
-0.0058504
-0.0203566
-0.00633324
-0.0033619
0.000388932
0.000703977
-0.108813
-0.00614863
-0.0298239
-0.0239368
0.00212469
0.000252391
0.000594423
-0.0172804
-0.0175637
-0.012089
-0.0238128
-0.0192909
-0.0824727
-0.0162553
-0.0439976
-0.00527998
-0.0853216
-0.010503
0.000809865
-0.0245628
-0.0211484
-0.0134904
-0.0269154
-0.0122741
-0.017917
-0.0218254
-0.0874613
-0.0109077
-0.0573938
-0.0443597
-0.0593229
-0.0614083
-0.0182662
-0.0634478
-0.0655409
-0.0675968
-0.0696559
-0.0637741
-0.0430078
0.00172937
-0.00497599
-0.0306996
-0.0559286
-0.00354424
-0.0225874
-0.0841022
-0.0260796
-0.10367
0.000660558
0.000478366
0.00204509
-0.0807538
-0.0174847
-0.00514527
-0.0586146
0.00793914
0.0143773
-0.00719101
-0.00115536
-0.020286
-0.186384
-0.00526273
-0.029881
-0.0569471
-0.0961932
-0.0544839
-0.0920907
-0.0316513
-0.00127241
-0.0846099
5.32684e-05
-0.0822822
-0.0868928
-0.00847237
-0.0241262
-0.0241586
-7.10733e-05
0.000154
0.0227961
-0.0224173
0.000864101
0.000884169
-0.0122292
-0.0797286
-0.0241003
-0.0089139
-0.0747495
-0.0372777
-0.0970192
-0.0822018
-0.0139707
-0.0106125
-0.0170218
-0.00370639
-0.0912076
0.0123722
-0.0860223
-0.0554583
-0.0767263
-0.00421049
-0.00278189
-0.00352118
-0.0927642
0.000594912
-0.0863822
5.6058e-05
-0.0911953
-0.0177261
-0.00462276
0.00738414
-0.0036064
-0.0587081
0.000403561
-0.00965284
-0.00307614
-0.0178255
-0.0720407
-0.100909
-0.0255368
-0.0974627
-0.0037772
-0.00100926
-0.0293089
-0.0232008
-0.0804175
0.0133295
-0.0224894
-0.0734124
-0.0608369
-0.0791462
0.000290961
0.000665565
-0.000142696
-0.000665427
-0.0610215
-0.00109072
-0.00576502
-0.00540582
-0.0646048
-0.00231753
-0.0100604
0.0226147
-0.178424
-0.0111036
-0.0170299
0.000553277
-0.097555
0.000686198
-0.00965617
-0.0562339
-0.0595834
-0.0757559
0.000633717
-0.0368591
-0.0258751
-0.0646924
-0.0792792
-0.00847673
-0.0620085
-0.00359599
0.000764075
-0.00483871
0.00519855
-0.0315481
-0.00338123
-0.0213155
-0.0170619
0.00523762
-0.091825
-0.0881182
-0.0845623
-3.80727e-05
-0.0308214
-4.99771e-05
-0.063495
0.000683533
-0.0236264
-0.00139666
-0.0331947
-0.00479589
0.000324174
-0.00225124
0.0096991
-0.0879749
-0.0666322
-0.00188309
0.0255606
-0.0651703
-7.77781e-05
0.000834807
-0.0857057
-0.0217642
-0.0246767
-0.0756502
-0.00454029
-0.110575
-0.00101513
-0.082859
-0.111948
0.00856894
0.0196136
-0.0275318
-0.0573737
-0.0531112
-0.0885951
0.00530779
-0.0169185
-0.0791926
0.00680159
-0.0251223
-0.00792587
-0.00672478
-0.0294388
-0.0815431
-0.034914
-0.0260936
-0.0109472
-0.112861
-0.0262344
-0.0773317
-0.0837626
-0.00335256
0.000527849
-0.0953222
-0.0830118
0.0027023
-0.0156416
-0.00563281
0.00157886
-0.0847865
-0.00153085
-0.0857154
-0.0119248
-0.0837861
-0.0251869
-0.0068514
-0.0164461
-0.0266789
0.0119495
-0.00289078
-0.0603004
0.000658434
-0.022336
-0.0147122
-0.00748679
-0.00432764
-0.0154785
-0.0854771
-0.0834778
-0.000544471
-0.0820405
-0.0140003
-0.00118266
-0.008849
0.00028764
-0.0165638
-0.0790963
-0.0864569
0.000442073
0.0330295
-0.0510521
-0.0494068
-0.0663024
-0.0565724
-0.0128743
-0.0419396
-0.00932474
-0.00686538
-0.00115652
-0.080901
-0.0060741
-0.0852403
-0.0754396
-0.031074
-0.0784662
-0.0824026
-0.00142497
-0.0917056
-0.0297323
-0.0442213
0.00234684
-0.00235269
0.00440691
-0.0725073
-0.014157
-0.000676517
-0.00997427
-0.0858244
-0.066606
-0.0117802
-0.0716842
-0.0708124
-0.0860249
-0.00868106
0.000712915
-0.0512054
-0.0117083
-0.015152
-0.0155774
-0.00985779
-0.00213361
-0.00748685
-0.0115419
-0.00251767
-0.0118466
-0.00719052
-0.00637456
0.00431454
-0.0649643
-0.0119085
-0.0844853
-0.0132523
-0.00785101
-0.0585025
-0.0479253
-0.00409685
-0.00169342
0.0334275
-0.0297649
-0.0921278
-0.0296852
-0.0300732
-0.00941047
-0.000813392
0.0126366
-0.0832157
-0.0517263
-0.00297109
0.000677877
-0.095043
-0.0151172
-0.00674962
-0.0535546
-0.0250534
-0.0351005
-0.0892928
-0.0524441
0.0234332
-0.00686079
-0.102017
-0.00292159
-0.0120145
-0.0221361
-0.0067148
-0.0505331
-0.0296856
0.00458812
-0.00858168
-0.0116252
-0.0288491
-0.0740965
-0.0552835
-0.0145284
-0.0604442
-0.0636209
-0.0348625
-0.017176
-0.0158738
-0.0317087
-0.0309298
-0.0791198
-0.00317925
-0.00184355
-0.0458956
-0.0163604
-0.048297
-0.0158732
-0.00836807
-0.0344362
0.00131442
-0.029096
-0.0126109
-0.0136214
-0.00223724
-0.0086623
-0.0858867
-0.0725034
-0.00790339
0.0103913
-0.0625003
-0.0159393
-0.00187054
-0.0155287
-0.0832783
-0.0298619
-0.0873195
-0.0201605
-0.0405252
-0.0780609
-0.0645113
-0.0380904
-0.0108649
-0.0602637
-0.0128292
-0.0113008
-0.0642798
-0.0665527
-0.0106213
0.0334111
-0.0121703
0.0108174
-0.0104955
-0.0685422
-0.00228857
-0.0819082
-0.0314145
-0.00174328
0.000766682
-0.000500423
-0.00986593
-0.0113517
3.28282e-05
-0.0301979
-0.00829389
-0.00991775
-0.00612593
-0.0546811
-0.0180517
-0.0328687
-0.0145613
0.000940555
0.000607203
-0.0454727
0.00208311
-0.0827607
-0.0139771
-0.0148394
-0.0211276
-0.0272404
-0.0116761
-0.0113253
-0.0262698
-0.0289385
-0.0233005
-0.0327395
-0.000257305
-0.180209
-0.0290674
-0.0119084