/*--------------------------------*- C++ -*----------------------------------*\
| =========                 |                                                 |
| \\      /  F ield         | OpenFOAM: The Open Source CFD Toolbox           |
|  \\    /   O peration     | Version:  v2012                                 |
|   \\  /    A nd           | Website:  www.openfoam.com                      |
|    \\/     M anipulation  |                                                 |
\*---------------------------------------------------------------------------*/
FoamFile
{
    version     2.0;
    format      ascii;
    class       volVectorField;
    location    "150";
    object      U;
}
// * * * * * * * * * * * * * * * * * * * * * * * * * * * * * * * * * * * * * //

dimensions      [0 1 -1 0 0 0 0];


internalField   nonuniform List<vector> 
13917
(
(0.654916 0.0125785 0)
(1.0237 0.0247026 -1.93862e-22)
(1.08725 0.0443019 -3.21072e-21)
(1.03327 0.00796051 5.85496e-21)
(1.02117 0.0100375 7.59375e-23)
(1.02187 0.024336 0)
(1.04688 0.0173043 8.78572e-21)
(1.06444 0.0150927 0)
(1.05295 0.00794369 -1.14339e-20)
(0.0240757 -0.127486 4.35827e-22)
(1.05419 0.0178836 -3.22412e-22)
(1.02596 0.00748224 0)
(1.01099 4.35708e-05 0)
(0.706701 -0.144511 -5.09462e-22)
(1.01713 0.0138228 0)
(0.632452 0.00775484 0)
(1.00793 3.33726e-05 -1.69684e-22)
(1.04403 0.0114668 -8.46338e-23)
(1.0712 0.0429828 0)
(0.664867 0.0447962 0)
(1.02317 0.0195153 0)
(1.01689 0.0059009 0)
(1.05835 0.0297217 2.47093e-22)
(1.01676 0.0058019 0)
(1.03262 0.0138704 0)
(1.02258 0.017429 0)
(0.892198 0.12574 0)
(0.00958906 -0.0909536 0)
(1.02692 0.0110153 1.05793e-21)
(1.01452 -0.000604702 0)
(0.0351759 -0.105451 5.36844e-20)
(1.0711 0.0293118 0)
(1.03044 0.00997413 5.91016e-21)
(0.686235 0.0223061 0)
(1.01478 0.00153776 2.22572e-22)
(1.07548 0.022972 0)
(1.02496 0.0146031 1.41599e-21)
(1.00864 0.000128831 1.62125e-21)
(1.04772 0.0172227 0)
(1.02661 0.0304715 -4.48219e-21)
(1.00568 -5.01883e-05 0)
(1.01646 0.000242625 6.57688e-24)
(1.04845 0.00551453 2.00113e-20)
(1.07521 0.0383579 0)
(1.07426 0.0386009 -6.93155e-21)
(1.04982 0.0409448 0)
(1.02389 0.0196275 0)
(0.443932 0.218478 1.41701e-20)
(0.955637 0.149632 0)
(1.01475 0.00162692 -2.6216e-22)
(1.02554 0.00727674 -2.80261e-21)
(1.05746 0.0455685 -5.41225e-21)
(0.547844 0.00147982 0)
(1.021 0.00797791 0)
(1.02201 0.00848676 -2.74567e-21)
(1.05763 0.045442 1.41322e-20)
(-0.0157572 -0.0237735 -4.58957e-20)
(1.05752 0.029766 1.54059e-22)
(1.01615 0.000317952 3.88644e-22)
(1.0498 0.0412809 3.6342e-21)
(0.358547 -0.0127873 -3.35837e-21)
(1.01519 -0.00420045 0)
(1.0089 -5.72955e-06 0)
(1.03241 0.0133846 0)
(0.87885 0.0617316 -5.71049e-21)
(1.01905 -0.0106644 -3.3455e-22)
(1.03093 0.00988541 0)
(1.07369 0.0323786 0)
(1.04896 0.00928986 -1.40672e-22)
(0.608678 0.00718896 -3.03829e-20)
(0.954755 0.0569749 2.25856e-20)
(0.67263 0.0195709 0)
(1.02968 0.00216418 3.39967e-21)
(1.01572 0.000312653 -5.66685e-22)
(1.0227 0.0202031 0)
(1.03001 0.0153065 0)
(1.01894 0.00701748 -1.87972e-22)
(1.01542 0.000343683 3.59202e-22)
(1.02995 0.0148285 0)
(1.03079 0.0102713 4.89518e-21)
(1.01971 0.00915226 0)
(1.00807 5.07572e-05 0)
(1.02925 0.00185601 0)
(0.959048 0.0441056 4.32123e-21)
(1.01513 0.00136938 -1.04059e-23)
(1.01799 -0.0450244 5.96048e-21)
(1.0704 0.0289104 0)
(1.01564 0.000708601 -2.80114e-22)
(1.0261 0.0292327 2.34458e-21)
(1.00864 3.0842e-05 1.96735e-22)
(1.0089 2.55862e-05 -1.08388e-22)
(1.04937 0.00555491 -2.43419e-20)
(0.936993 0.151747 -1.45319e-21)
(1.01393 0.00116087 -6.51328e-23)
(1.0222 0.0103743 0)
(1.02802 0.00891968 -1.42708e-21)
(0.905921 0.08167 -7.43722e-21)
(1.00855 8.16085e-05 0)
(1.01569 0.00078244 1.39776e-21)
(0.985803 0.0607693 0)
(1.00771 1.75212e-05 -1.22057e-22)
(1.00818 -1.80969e-05 0)
(1.01995 0.00947069 8.01013e-22)
(1.00987 0.000233461 -8.69577e-23)
(1.01872 0.00703746 8.2467e-24)
(0.952713 0.0314018 0)
(0.704146 0.105315 0)
(1.01701 -0.00556154 0)
(1.01696 0.000233172 2.23339e-22)
(0.843275 0.134317 1.57408e-21)
(1.01791 -0.000231963 -8.20584e-22)
(0.697202 0.0257781 -3.57086e-20)
(1.02462 0.0108451 -1.10216e-22)
(0.298357 0.217228 -4.75438e-20)
(0.888716 0.0598463 2.6601e-21)
(1.029 0.0160669 -4.69846e-22)
(1.0707 0.0419127 1.18438e-20)
(1.00893 1.45024e-05 -1.01794e-22)
(1.08173 0.0445785 -5.45614e-21)
(1.02778 -0.000369776 -9.37706e-21)
(1.00873 6.81435e-05 3.40799e-23)
(1.01457 0.000324852 -1.68971e-22)
(1.03287 0.00741809 -1.89173e-21)
(1.06185 0.0430577 8.18172e-21)
(0.582877 0.003101 -2.42849e-21)
(0.936279 0.0449212 -6.58689e-21)
(1.03262 0.0126506 -6.78803e-21)
(1.02179 0.0200785 -1.72814e-21)
(1.01381 0.00246498 -2.45286e-23)
(1.06281 0.0432617 0)
(1.05947 0.0173979 1.56395e-22)
(1.06234 0.0763632 0)
(0.773014 0.0254862 0)
(1.02855 0.0159804 -3.08861e-21)
(1.07298 0.0319725 -1.34638e-20)
(0.811162 0.137765 -1.45763e-21)
(0.359976 -0.0691174 0)
(0.555918 0.00489739 1.38263e-22)
(1.02246 0.0159426 -1.28253e-22)
(1.00549 5.60606e-05 -7.4484e-22)
(0.805339 -0.141072 8.04083e-21)
(1.01503 0.000332378 -1.73633e-22)
(0.963356 0.0306585 -4.36812e-21)
(1.01513 0.00416899 2.9603e-23)
(1.02787 0.0023426 0)
(1.01979 0.00119375 -2.88681e-22)
(0.958867 0.0561435 -8.05297e-21)
(0.837694 -0.137652 -7.39396e-21)
(0.506413 0.209891 0)
(1.02134 0.00826583 5.90252e-22)
(1.02686 0.0270947 0)
(1.00857 8.81029e-07 -5.37894e-24)
(1.02747 0.00198492 0)
(1.02794 -0.000680138 7.70793e-23)
(0.8664 0.090942 -4.30072e-21)
(1.01666 0.00546567 -1.89731e-23)
(1.00979 0.000253289 1.27266e-22)
(0.749203 0.0235602 2.88147e-20)
(1.00787 -2.76527e-07 5.01928e-24)
(1.00877 -2.34511e-05 0)
(1.01524 0.00297485 0)
(0.775996 0.0935061 -1.14532e-20)
(1.02352 0.015516 -5.57297e-22)
(0.794908 -0.132167 -4.04451e-21)
(0.574811 0.0927589 4.6375e-21)
(0.975618 0.0726511 2.79936e-21)
(0.370004 0.0033841 0)
(0.374924 0.130545 -7.59941e-21)
(1.00926 -0.000202489 0)
(1.02198 0.0149986 -5.76602e-24)
(1.01694 0.00582651 2.77871e-22)
(0.782121 0.0281851 2.36152e-20)
(1.05301 0.00723799 1.02207e-20)
(0.521363 -0.024941 1.06282e-20)
(1.05018 0.0447288 0)
(1.00835 1.56751e-05 8.64869e-23)
(1.03368 0.00766976 0)
(1.05804 0.0456363 -1.95629e-20)
(1.059 0.016711 2.61993e-20)
(1.02357 0.0157744 4.34463e-22)
(1.0474 0.00636582 -6.97517e-21)
(1.01678 0.00575928 0)
(1.02528 0.00745463 1.61168e-21)
(1.05716 0.048941 4.69995e-21)
(1.08192 0.0458474 0)
(1.05925 0.0818719 0)
(1.02488 0.00727719 0)
(1.05634 0.0477917 3.35661e-21)
(1.01449 -0.000615936 -7.26841e-23)
(1.02302 -0.035013 3.37164e-21)
(1.04934 0.0456092 8.90278e-21)
(1.07349 0.0376654 6.98875e-21)
(1.05922 0.0481827 8.9213e-21)
(0.665629 0.0190973 5.80938e-20)
(1.01391 0.00120547 4.0249e-22)
(0.589919 0.00474297 -2.13107e-20)
(1.03604 0.0196558 -4.80392e-21)
(0.797125 0.0268392 -2.46538e-20)
(1.01459 0.001458 -8.37184e-23)
(1.01657 0.00538106 -2.57751e-23)
(1.0251 0.0196134 2.20634e-21)
(0.612777 0.00774234 0)
(0.544601 0.00463575 -2.72755e-20)
(1.02345 0.0133897 0)
(0.927179 0.122716 -2.63877e-21)
(1.02615 0.0166822 -1.65058e-23)
(1.02722 0.0281644 0)
(1.01494 0.000311323 -6.68224e-24)
(1.05768 0.0456417 -2.65522e-22)
(1.01945 0.00898239 5.52865e-22)
(1.01206 0.00178619 -1.13e-22)
(1.02292 0.0157269 -1.42695e-21)
(1.0255 0.0168528 1.11456e-22)
(0.510621 0.207308 -1.47023e-20)
(1.07265 0.031354 7.11263e-21)
(1.0219 0.0169411 1.58024e-22)
(0.790595 0.081172 2.1946e-20)
(1.01289 0.000520161 0)
(1.01114 8.97249e-05 -2.62091e-22)
(1.01114 7.83893e-05 0)
(0.342976 0.155728 7.92486e-21)
(1.05808 0.0484766 1.15086e-20)
(1.04344 0.0463889 6.08044e-21)
(1.01827 0.000497821 0)
(1.00803 -9.14233e-05 5.43224e-25)
(0.757323 0.147552 3.60422e-21)
(0.58137 0.0049224 -2.28962e-20)
(1.01046 0.00010994 1.51151e-22)
(1.01025 9.66222e-05 -1.35521e-22)
(1.00518 -0.000161729 0)
(1.01145 6.44642e-05 0)
(1.01146 4.94463e-05 -2.77936e-22)
(0.666417 0.017824 1.3588e-20)
(0.573045 0.180058 0)
(1.01808 0.00715811 -5.70465e-23)
(1.01033 -0.000289248 -1.39413e-23)
(1.05571 0.0420708 0)
(0.64856 0.0137147 0)
(1.00823 2.58615e-05 1.36372e-23)
(1.01808 0.000500459 0)
(0.902425 0.128316 1.71927e-21)
(0.958263 0.0301052 0)
(1.0587 0.0491355 -5.15782e-21)
(0.785321 0.0790381 0)
(1.05441 0.0495363 0)
(1.01528 0.00422737 -1.09796e-21)
(0.460595 0.114176 3.49282e-21)
(1.05648 0.0422648 2.7198e-21)
(1.02432 0.012538 -9.57456e-22)
(1.06649 0.0366554 4.51383e-21)
(1.02352 0.0130827 0)
(0.576157 0.189113 1.7421e-20)
(1.02821 0.000270137 3.81847e-21)
(1.03822 0.0352763 -4.3768e-21)
(1.04926 0.0430088 0)
(1.01803 0.00714459 9.07303e-22)
(1.00332 -5.5323e-05 0)
(1.03284 0.0131155 0)
(1.0163 0.00856176 3.08501e-22)
(1.0153 0.00107108 0)
(0.609742 0.00795322 2.06236e-20)
(0.784758 0.0413126 -1.75941e-20)
(1.01433 0.000430474 -1.57686e-22)
(1.01006 0.000116152 0)
(1.01686 0.0056983 8.31689e-23)
(1.01009 0.000132076 0)
(1.02832 -1.10217e-05 6.78984e-21)
(1.01667 0.000132667 -2.34029e-21)
(1.04859 0.0292576 -6.11423e-21)
(1.01466 0.000388936 -1.69803e-22)
(0.563341 0.00550494 2.57479e-21)
(0.706722 0.108361 0)
(1.02211 0.00596679 -1.5586e-21)
(1.01748 0.00748937 0)
(1.01892 0.0378631 -5.55097e-21)
(1.01158 -2.58133e-05 -6.53922e-23)
(0.993984 0.0519093 -7.47341e-22)
(0.624714 0.0104605 1.68424e-22)
(1.01157 -2.37146e-05 6.73146e-23)
(0.624787 0.00907705 2.93197e-20)
(1.01502 0.0010663 0)
(0.780552 0.0903784 0)
(1.00769 -5.62702e-06 1.06794e-24)
(1.01771 0.0119931 -1.44788e-22)
(1.01807 0.007234 -1.08712e-22)
(1.01461 0.00384906 6.28271e-22)
(1.06763 0.0499881 0)
(1.01015 0.000221426 -1.11559e-21)
(0.973204 0.0797968 3.45895e-21)
(1.03411 0.0232998 0)
(0.740307 0.0348404 4.78576e-21)
(1.02059 0.000886959 0)
(0.988286 0.113898 0)
(0.546466 0.00377689 -2.69309e-21)
(1.00877 1.08813e-06 -2.61578e-22)
(1.05587 0.0346556 -9.764e-21)
(1.01798 0.00959912 2.62032e-22)
(1.02805 0.0164402 -3.51412e-21)
(1.02005 0.00985236 -2.92079e-23)
(1.03049 0.0147133 -8.06097e-21)
(1.0143 0.00110618 -1.43845e-22)
(1.01087 0.0002801 5.44638e-22)
(1.05861 0.0464498 7.95448e-21)
(1.03762 -0.00192966 0)
(1.03787 0.0344899 7.46508e-21)
(1.03042 0.0143148 2.6532e-21)
(1.01786 0.000582484 -1.67131e-21)
(0.765083 0.024941 -2.81593e-20)
(0.59954 0.00650409 0)
(1.01343 0.00216508 3.03492e-23)
(1.01427 -0.000473705 -1.17665e-23)
(1.02848 0.016555 0)
(1.02461 0.0776423 0)
(1.08187 0.0322732 -4.27195e-20)
(0.722442 0.0867515 -7.59538e-21)
(0.583654 -0.0235749 -7.97559e-21)
(1.02368 -0.00714532 5.96442e-23)
(1.05816 0.0722592 1.20557e-20)
(1.01708 0.00702503 -2.36145e-22)
(0.975261 0.0453856 -2.28596e-20)
(1.03788 0.0927992 3.84434e-22)
(1.0877 0.043094 0)
(1.01601 0.000152675 0)
(1.01705 0.013042 0)
(0.919519 0.123187 0)
(1.01696 0.00586075 4.40945e-23)
(1.02487 0.025972 1.11905e-22)
(1.07256 0.0378585 6.83198e-21)
(1.00784 -2.78454e-05 -2.46765e-22)
(0.78939 0.0288919 -1.22024e-22)
(1.01509 0.00104121 0)
(1.06823 0.0170149 0)
(1.01399 -0.000180065 -4.1334e-22)
(0.590539 0.0402584 8.58999e-20)
(1.01084 0.00118874 6.89815e-22)
(1.03876 0.032797 -1.09146e-21)
(1.02618 0.0161643 -7.80951e-23)
(1.02521 -0.00437957 -8.49968e-23)
(1.00882 8.70844e-05 1.5737e-22)
(1.06778 0.0356629 9.83332e-21)
(0.977884 0.0333085 6.92556e-21)
(1.02245 0.0100831 1.39668e-21)
(1.01687 0.00575724 7.9983e-23)
(0.71351 0.0293142 -1.77157e-20)
(0.973527 0.0327706 0)
(0.775124 0.045176 -7.00182e-21)
(0.754444 -0.131554 0)
(1.01127 -1.31989e-05 3.09705e-23)
(1.01858 0.00754282 -6.23162e-22)
(0.9524 0.0296869 0)
(1.0599 0.0684691 -1.52286e-20)
(1.01128 -1.29588e-05 -2.67143e-22)
(1.01894 0.0103864 2.43451e-22)
(1.02319 0.0078774 2.38002e-21)
(1.01093 0.0200459 0)
(1.03895 0.0335989 -3.64083e-21)
(1.0601 0.0458817 1.73458e-21)
(1.04746 0.0569117 4.80011e-21)
(0.992087 0.0476442 -5.18284e-22)
(1.06639 0.0189025 1.97937e-20)
(0.687298 0.027942 0)
(1.014 0.00255749 8.76456e-23)
(1.02275 0.0101312 0)
(1.02208 0.010676 2.94431e-22)
(1.07438 0.0518626 -9.48437e-21)
(1.00758 -1.85895e-05 1.03689e-22)
(0.650527 0.0124175 -6.85855e-20)
(1.06641 0.0183639 -1.42778e-20)
(0.88302 -0.0268287 -1.17141e-21)
(1.02212 0.00874919 3.60139e-21)
(1.05362 0.0636777 0)
(1.01451 0.000400158 -1.5731e-24)
(0.928114 0.132365 0)
(1.01631 0.00062389 -2.25857e-22)
(1.04669 0.0484974 -6.65086e-21)
(1.02341 0.0378202 4.28584e-21)
(1.02695 0.0154897 -2.294e-23)
(1.02231 0.00624248 -5.09673e-21)
(1.00583 0.0646504 0)
(1.0149 -0.000196101 0)
(0.547528 0.0827897 -4.27794e-21)
(1.0585 0.0489168 -9.71419e-21)
(1.01629 0.000688147 -2.26983e-22)
(0.947461 0.13654 2.04435e-22)
(1.01807 0.00732715 3.92089e-22)
(1.03953 0.0168288 -1.55057e-21)
(1.01167 0.000819512 8.01401e-23)
(0.683792 0.0512859 0)
(1.03427 0.0246263 9.44917e-22)
(1.02606 0.0141908 -9.05728e-23)
(0.738938 0.15205 -1.1783e-21)
(0.996954 0.03934 0)
(1.0232 0.0123926 2.97048e-21)
(0.680342 0.0730868 -1.78617e-21)
(1.08962 0.0273921 -1.06481e-20)
(1.02645 0.0135092 -7.48887e-22)
(1.06684 0.0507948 7.13295e-21)
(1.01891 0.00758494 8.02899e-22)
(0.992554 0.0358303 2.18737e-21)
(1.08617 0.0447927 2.42879e-20)
(1.01529 0.000905789 0)
(1.04972 0.0137497 -1.12155e-20)
(1.0309 0.0141815 3.34007e-21)
(1.01462 0.00379836 6.19272e-22)
(1.01229 0.0017101 2.19814e-23)
(1.0142 0.0027431 -1.092e-22)
(0.274274 -0.0832972 0)
(0.984513 0.0758355 -2.85714e-21)
(1.02244 0.00945767 1.81308e-21)
(1.01444 0.0026821 1.27337e-23)
(1.01649 0.00549816 -2.66124e-22)
(1.05192 0.0358196 -1.71525e-20)
(1.06087 0.0697443 0)
(1.01264 -9.29583e-05 0)
(1.00915 -0.000184284 0)
(1.08116 0.0325662 2.85745e-20)
(1.05049 0.0645915 0)
(1.01481 0.00403047 6.92214e-22)
(1.02606 0.013954 7.52892e-23)
(0.738676 -0.0101079 0)
(0.706512 0.0859297 7.12446e-21)
(1.01901 -0.0137204 0)
(1.07236 0.0431901 0)
(1.0012 0.0458021 4.83838e-21)
(1.01419 -1.51596e-05 5.15048e-22)
(1.01224 -6.26929e-05 -2.53689e-22)
(1.02431 0.0180103 2.1577e-21)
(1.01218 0.00163245 1.26147e-23)
(1.01262 -8.43345e-05 2.57842e-22)
(1.01814 0.00727435 -1.03973e-21)
(1.01224 -5.38438e-05 -4.69674e-24)
(1.01394 -3.27809e-05 0)
(0.480198 0.142663 -8.51497e-22)
(1.01917 0.00786113 -4.99881e-23)
(1.02805 0.0331148 0)
(0.574878 0.00692382 0)
(1.05491 0.0345872 0)
(1.01225 0.00187345 3.26934e-22)
(1.02693 0.00207316 0)
(0.699836 0.0798517 0)
(1.02472 0.0190638 -1.09068e-21)
(0.566976 0.00125664 2.54269e-20)
(1.01353 -0.000157105 0)
(1.01951 0.00208266 -3.34665e-21)
(1.01523 -0.000205491 0)
(1.01178 4.31669e-05 2.99563e-22)
(1.02474 0.0142109 1.96259e-21)
(1.01806 0.00718417 -1.52e-22)
(0.76715 -0.00903533 0)
(1.01515 0.00313075 0)
(0.945772 0.0306473 2.65704e-21)
(1.01932 0.00213058 0)
(1.05778 0.0220357 -1.01404e-20)
(1.01648 0.00460418 -2.42051e-22)
(1.01926 0.00863817 0)
(1.05444 0.04822 0)
(0.768212 0.0366249 9.0345e-22)
(1.0231 0.0076108 -2.42808e-21)
(0.597017 0.139044 5.00986e-21)
(1.01247 0.00202522 1.92444e-23)
(1.01211 0.000593295 1.14546e-21)
(1.01627 0.00530573 -2.72948e-22)
(1.01817 0.00749555 -5.62053e-22)
(1.0117 0.00161308 6.59988e-23)
(1.01499 0.000572584 0)
(0.75772 0.0245606 3.4017e-21)
(0.444762 -0.0132815 -8.48051e-21)
(1.01151 0.00152947 0)
(0.983367 0.115608 -5.90929e-21)
(1.08042 0.0338308 0)
(1.0185 0.000170005 3.70744e-21)
(1.05565 0.0364093 -9.35436e-21)
(1.07728 0.0229798 7.31313e-21)
(0.653679 0.0955839 1.09737e-20)
(1.05184 0.0142003 -1.27553e-20)
(0.954293 0.0312417 9.87891e-21)
(0.9968 -0.016337 -1.87617e-21)
(1.01095 -0.0234525 1.41384e-21)
(1.01812 0.00733767 -4.95926e-22)
(1.02114 -0.00827564 3.27794e-22)
(1.01707 0.00584577 0)
(1.02318 0.012715 -9.1191e-23)
(0.904528 0.0537796 0)
(1.00893 3.09826e-05 -1.06354e-22)
(1.02092 0.00767128 0)
(1.0225 0.0104306 3.30258e-21)
(1.05106 0.0113416 -8.6514e-21)
(1.02434 0.0219905 6.93423e-22)
(1.0789 0.0457849 -1.1396e-20)
(1.06296 0.0305953 -1.77604e-20)
(1.01913 -0.00100192 0)
(1.01747 0.00804891 5.37574e-22)
(1.03989 0.00699024 0)
(1.02787 0.0424186 -4.84093e-21)
(1.02216 0.00932911 -1.79542e-21)
(0.652485 -0.159427 1.54346e-22)
(1.05162 0.0274165 -8.51549e-21)
(1.03484 0.0232358 4.58765e-21)
(0.546095 0.0563267 -9.22549e-22)
(1.01516 0.00121268 -3.0734e-21)
(1.02748 0.0440876 5.07814e-21)
(1.05808 0.0452534 0)
(1.01103 0.00107351 1.61235e-23)
(0.690792 0.0193465 -1.84005e-21)
(1.01222 0.000601769 0)
(1.01177 3.20184e-05 0)
(1.05287 0.0360153 1.75799e-20)
(1.01348 -0.000145347 0)
(1.01308 0.000542332 -6.15649e-22)
(1.05843 0.0473371 0)
(0.731953 0.0224311 0)
(0.64664 0.167857 -1.30824e-21)
(1.01519 0.00279513 1.2878e-21)
(1.03716 0.00655978 9.97337e-21)
(1.01718 -0.001066 3.18614e-22)
(0.924599 0.0431634 4.92462e-21)
(0.953659 0.0352606 -1.06237e-20)
(1.02171 0.00882575 3.27555e-21)
(1.02163 0.00825096 1.941e-21)
(1.01486 0.00250438 0)
(1.04931 0.0409112 1.39567e-20)
(0.885919 0.089559 4.60128e-22)
(1.01408 0.00237231 -3.22481e-23)
(1.00827 -1.18924e-05 3.88061e-23)
(1.01639 0.00515743 7.08779e-24)
(1.0145 0.00363368 -1.95193e-21)
(1.02024 0.00412638 0)
(1.0413 0.0230337 0)
(1.00895 6.17317e-05 2.08718e-22)
(1.06261 0.031315 1.8422e-20)
(1.01092 0.00101029 -4.57648e-22)
(1.0168 0.00577145 -1.69512e-21)
(1.03087 0.0138128 1.57395e-21)
(0.723693 0.0646423 4.17248e-20)
(1.00861 0.00013905 -1.77488e-22)
(1.04327 0.0100736 3.49561e-21)
(1.01521 0.00107465 0)
(1.05716 0.0214628 -1.74317e-20)
(1.05833 0.0387268 -5.43915e-21)
(1.01309 0.00935261 1.91644e-21)
(1.05013 0.0437419 0)
(0.987735 0.0693281 0)
(1.02933 0.0131043 0)
(1.03651 0.00984216 7.44968e-22)
(0.813439 0.0280785 1.25623e-20)
(0.518299 0.147598 0)
(0.590609 0.00896192 -1.8242e-20)
(1.01306 0.00186949 -6.13787e-24)
(1.01597 0.00502366 0)
(1.01957 -0.00141353 -2.80486e-22)
(1.02148 0.00413303 0)
(0.883893 0.0561915 1.0397e-20)
(1.0119 -2.51945e-05 0)
(0.883871 0.170347 0)
(1.03664 0.0194736 7.01823e-21)
(0.864086 0.0339703 2.26059e-20)
(0.992006 0.0568099 -7.03555e-22)
(1.0482 0.00631881 2.0533e-21)
(0.150266 -0.0108369 2.53564e-20)
(1.0115 0.00149132 -2.99843e-22)
(1.07423 0.0231239 2.83604e-20)
(1.00928 0.000108551 -4.37095e-23)
(1.0168 0.00161027 1.01319e-21)
(0.843549 0.0327188 1.6672e-20)
(1.01307 -0.000122631 6.37619e-23)
(1.08852 0.0366115 4.86619e-20)
(1.0077 -4.15494e-05 3.54541e-23)
(1.01794 5.745e-05 -1.99477e-21)
(1.01618 0.00521429 0)
(1.07848 0.0450178 1.10599e-20)
(1.0203 0.00489089 -2.03889e-22)
(1.00949 0.000135186 -1.47536e-22)
(1.07643 0.0370012 0)
(1.05478 0.0362711 -2.10364e-21)
(0.807362 -0.127563 2.69461e-21)
(0.982842 0.0539406 0)
(0.7769 0.0249879 1.21269e-20)
(0.629674 0.0978562 -6.41795e-21)
(1.0086 0.000146089 2.06194e-22)
(0.594319 0.00220987 -7.00956e-21)
(1.00924 -5.93198e-05 3.95639e-23)
(0.391902 -0.0486121 0)
(0.857917 -0.13575 0)
(1.01715 0.00192197 -2.79947e-22)
(1.01492 0.00198694 1.69041e-22)
(1.00819 2.71094e-05 1.91107e-22)
(1.051 0.0271168 0)
(1.04687 0.00563447 7.60865e-21)
(1.01304 -0.000110933 -6.55806e-23)
(1.00924 0.000122604 0)
(1.01528 0.00031674 -1.57271e-21)
(1.00403 0.0539484 -1.54919e-20)
(1.01608 0.00330314 -8.21444e-22)
(1.07004 0.0273694 2.15696e-20)
(1.02057 0.00744457 0)
(1.00937 0.000122474 3.52214e-22)
(1.00853 1.99545e-05 3.041e-22)
(1.0622 0.0426651 -1.25664e-22)
(0.858087 0.0760713 -6.85239e-21)
(0.326032 0.0373616 -3.97176e-20)
(1.06575 0.0359552 -1.23825e-20)
(1.04183 0.022597 0)
(1.01358 0.0631033 -4.09407e-21)
(0.651864 0.0142783 -2.88267e-20)
(1.01192 0.000837314 -9.465e-23)
(0.845934 0.0482815 0)
(1.01443 0.000103821 3.41353e-21)
(1.08094 0.0256224 -3.49453e-20)
(1.02133 0.0042756 6.02433e-21)
(1.01788 0.0625719 7.04906e-21)
(1.01427 0.00347426 7.5956e-22)
(1.02086 0.00353831 0)
(1.0284 0.00231041 0)
(0.81161 -0.150355 -6.92282e-22)
(1.04999 0.0287047 -1.07165e-20)
(0.851714 0.0678794 -1.10386e-20)
(1.00898 6.00174e-05 1.92094e-24)
(1.04832 0.0282142 -6.55997e-21)
(1.01464 0.00207398 0)
(1.00701 -0.000106132 -2.62362e-22)
(0.697657 0.0332361 -7.40377e-22)
(0.964573 0.0576457 2.95698e-22)
(1.01503 0.00202407 -5.43907e-23)
(1.05992 0.0466896 -2.12628e-21)
(1.01804 0.000611695 2.51949e-21)
(1.01603 0.00126779 0)
(1.00774 -3.03904e-05 0)
(0.709804 0.0369193 4.46548e-20)
(1.01618 0.00325577 8.33078e-22)
(1.01683 0.00951051 0)
(1.01189 -2.66948e-05 1.67035e-22)
(1.01484 0.00199683 -3.59616e-22)
(1.07267 0.0517879 0)
(1.00822 1.3165e-05 -4.33503e-23)
(1.06225 0.0460267 -5.1338e-21)
(1.00805 4.7451e-05 -1.55588e-23)
(1.01095 0.00120793 0)
(0.326799 -0.0339391 -6.15973e-22)
(1.07063 0.0277606 0)
(1.0214 0.00852702 -1.924e-21)
(0.497489 0.0025528 0)
(1.08733 0.0361744 -4.49566e-20)
(1.02639 0.0652963 -5.17143e-23)
(1.05898 0.0451162 0)
(1.01133 0.00140771 2.17922e-22)
(1.01636 0.0143192 -5.64822e-22)
(0.714319 0.0623094 -3.21456e-22)
(1.09085 0.0309214 1.77577e-22)
(1.02466 0.0180687 0)
(1.02527 0.0146707 -6.00815e-22)
(1.02177 0.00336916 -4.11984e-22)
(1.00864 6.70616e-05 1.40891e-22)
(1.01423 0.00307052 0)
(1.02437 -0.00935985 6.45073e-23)
(1.05821 0.0401999 0)
(1.03322 0.0180854 -2.0831e-21)
(0.480427 0.0624826 -1.33323e-21)
(1.05087 0.0289016 1.31077e-20)
(1.05309 0.0955033 2.96015e-21)
(0.931284 0.0263617 -9.50742e-21)
(1.03523 -0.00675606 0)
(1.0414 0.0310302 -9.71943e-21)
(1.06022 0.0483237 0)
(0.635492 0.0111476 2.66768e-20)
(1.01424 0.00113993 0)
(1.01997 -0.00567654 7.56547e-22)
(1.02682 -0.0084757 0)
(1.01101 0.00121714 0)
(1.00915 8.75588e-05 1.40287e-22)
(1.0086 -1.90056e-06 -8.21047e-23)
(1.0175 -0.00167899 0)
(1.01389 0.000490605 0)
(0.600667 0.00279618 7.62271e-21)
(1.06357 0.0154569 1.14453e-20)
(1.01007 0.000295298 0)
(1.07185 0.0370531 -7.08406e-21)
(1.00902 6.04579e-05 3.47807e-22)
(0.730863 0.0883389 -1.62505e-20)
(1.01508 0.00106607 0)
(1.01382 0.00240239 0)
(0.710878 0.0207869 0)
(1.05849 0.0371956 1.31871e-20)
(0.877101 -0.121639 1.55804e-21)
(1.03018 0.00371609 0)
(1.01596 9.11891e-05 0)
(1.01369 0.0020704 1.95771e-23)
(1.03458 0.00523135 -4.42071e-21)
(1.04882 0.0196973 -5.59188e-22)
(1.01432 0.00366117 8.18196e-22)
(0.562504 0.00473044 -2.17387e-20)
(1.03414 0.0256683 0)
(0.907882 0.162387 -7.42824e-21)
(0.897341 -0.104658 2.20233e-21)
(1.02146 -0.00507016 -6.2113e-22)
(0.777789 0.0253287 0)
(1.03699 0.0069887 0)
(1.00987 0.000216526 -1.80593e-22)
(1.01481 0.00209637 3.73294e-22)
(0.635998 0.0122125 -1.92662e-20)
(0.690623 0.158589 0)
(1.03602 0.0203045 -5.40109e-21)
(0.574017 0.00233647 0)
(0.877124 0.156592 -7.07935e-22)
(1.01098 0.0012797 -8.38521e-22)
(1.01363 0.00225416 0)
(1.02434 0.014154 3.53444e-21)
(0.962008 0.032931 0)
(0.936239 -0.10307 0)
(1.04947 0.0295093 -3.54266e-21)
(1.03403 0.00521912 3.71002e-21)
(1.04305 0.0105261 0)
(1.08157 0.0254032 3.65106e-20)
(1.01717 0.00668567 1.78843e-22)
(1.06086 0.0457604 1.0697e-20)
(1.06335 0.0161555 0)
(1.02189 0.0100108 -2.00085e-21)
(1.03064 0.0104523 -8.17521e-21)
(1.0097 0.000219886 1.84944e-22)
(1.04816 0.0195498 0)
(1.01671 0.00785289 -5.33565e-22)
(1.09164 0.0274798 -4.15937e-20)
(1.02746 0.0167363 1.57102e-21)
(1.0154 0.000984246 3.5724e-22)
(0.565264 0.00432448 -2.94907e-20)
(1.01759 -0.00133288 0)
(0.893395 0.168885 -1.93195e-21)
(1.02536 0.0143201 -2.27932e-21)
(1.02263 0.0201194 3.78633e-23)
(1.039 0.0187932 -3.44026e-21)
(1.08948 0.0309901 1.85723e-20)
(1.00882 5.41251e-05 -1.27518e-22)
(1.07378 0.0219775 -1.2599e-20)
(0.881196 0.0726089 1.55744e-20)
(0.919983 -0.0408668 9.54965e-22)
(1.02208 0.00405171 1.92447e-21)
(1.02789 0.0168698 3.77556e-21)
(1.01272 0.000225635 4.70315e-22)
(1.01978 0.00322882 3.56525e-21)
(1.02815 0.00149302 9.58917e-22)
(1.01804 0.00129684 0)
(1.0149 0.0042201 0)
(1.06532 0.0433981 4.97479e-21)
(1.06162 0.0463451 0)
(1.01114 0.00128395 1.77657e-22)
(1.09236 0.0280829 -1.28651e-20)
(1.05232 0.0082281 2.05079e-20)
(1.05098 0.0118101 1.39321e-20)
(1.06057 0.0473014 0)
(1.01863 0.00772136 -6.00131e-22)
(1.07379 0.0234968 1.38793e-20)
(0.938869 0.0854219 6.62713e-21)
(1.00887 0.000137323 -1.98854e-22)
(1.05904 0.0367283 0)
(1.05041 0.0491445 6.48267e-21)
(1.06249 0.0163923 0)
(1.01327 0.00256657 1.4821e-22)
(1.01189 0.00173892 -5.87626e-22)
(1.01416 0.00299981 0)
(0.598135 0.00679618 1.20437e-22)
(1.02982 0.00979269 -4.21237e-21)
(1.0155 0.00110802 -6.12902e-24)
(1.06736 0.0173354 0)
(1.01452 0.00383185 -1.08499e-21)
(1.01261 0.00201466 -5.70821e-23)
(1.05775 0.0453016 -1.11582e-21)
(0.95859 0.07636 -5.95271e-21)
(1.02467 -0.00426127 4.12848e-22)
(0.684303 0.106492 -7.20532e-21)
(1.01358 0.020096 0)
(0.948387 0.0290202 0)
(1.02842 0.00116988 -1.01914e-20)
(1.01929 0.00704405 1.39288e-22)
(1.0405 0.0624656 1.07345e-20)
(1.01687 0.00195066 -5.68184e-22)
(1.01516 -0.0106179 4.37896e-22)
(1.00854 9.64331e-05 1.04292e-22)
(1.00909 6.88898e-05 1.39395e-22)
(1.02929 0.00446611 4.25014e-21)
(1.02686 0.0169574 -1.63336e-21)
(1.00999 0.00953464 8.43157e-22)
(1.01318 0.00250439 2.09001e-23)
(1.0045 -0.0103575 3.20659e-22)
(1.01592 0.00437906 -1.90531e-23)
(0.861534 -0.154002 0)
(1.02575 0.0144244 0)
(1.05207 0.013551 1.43291e-20)
(1.01392 -0.000171072 -3.04708e-22)
(1.06618 0.0372471 -2.84358e-20)
(1.01772 0.0127232 8.09451e-23)
(0.760882 0.0793677 -1.12774e-20)
(1.02357 -0.0070877 5.34913e-22)
(1.00789 0.000109702 6.05704e-23)
(0.722516 0.0777263 -2.73423e-20)
(1.03035 0.0110415 3.14946e-21)
(0.605705 0.00737648 -2.06059e-20)
(1.04651 0.0044638 0)
(1.02426 -0.025434 -1.14648e-21)
(1.01746 0.0065444 2.51043e-23)
(1.01271 0.00157382 -2.24221e-23)
(1.02181 0.00378962 -7.42398e-23)
(0.797851 0.03156 0)
(1.04703 0.0201032 -6.40798e-21)
(1.03703 0.0713032 -8.58581e-23)
(0.66517 0.0749359 -1.56195e-20)
(1.01954 0.00312006 0)
(1.06242 0.0171046 0)
(1.0102 -0.000283754 0)
(1.01837 -0.00219218 -4.24478e-22)
(0.856313 0.0255812 -6.16963e-22)
(1.01055 -0.000308701 -1.5901e-23)
(0.501781 0.121994 2.08949e-21)
(1.04434 0.00956814 0)
(1.01896 -0.0296666 0)
(1.06958 0.041777 -2.79437e-22)
(0.978587 0.038291 2.18744e-21)
(1.01052 0.000247658 0)
(1.00937 0.000140138 -1.24074e-22)
(1.04924 0.0587449 4.7055e-21)
(1.01132 0.00136457 -8.12087e-23)
(1.02041 0.00772268 2.48998e-21)
(1.02681 0.0131051 -3.1879e-21)
(1.01567 0.00474225 1.94218e-22)
(1.0672 0.0179398 -2.10228e-21)
(1.01037 0.000231492 -7.13688e-23)
(0.995098 -0.0197719 2.2462e-21)
(1.02158 0.00996095 1.94979e-21)
(0.638354 0.0109606 6.20336e-20)
(0.598764 0.00623903 2.64216e-21)
(1.05744 0.066082 0)
(0.93992 0.0297783 -5.32413e-21)
(0.631051 0.144741 -6.02937e-21)
(0.626646 0.00965792 -6.29399e-20)
(1.00588 0.0757441 0)
(1.01047 0.00104984 4.83438e-22)
(1.01577 0.000981472 -2.64457e-22)
(1.02486 0.00448478 4.88257e-21)
(1.02815 0.0114832 -4.15603e-21)
(1.01493 0.00265847 0)
(1.04781 0.0202277 1.43945e-21)
(1.01642 0.00416966 -8.51814e-22)
(1.07052 0.0610564 -2.06106e-21)
(1.02073 0.00797612 -3.85027e-21)
(1.03704 0.0464924 -1.84274e-20)
(1.02959 0.00924874 0)
(1.06104 0.0124398 2.03758e-20)
(1.04081 0.0589011 0)
(1.01334 0.00175898 1.01801e-22)
(1.02578 0.0315698 2.4545e-21)
(1.03006 0.0111834 8.09607e-22)
(1.01741 0.00137088 5.05843e-24)
(1.04235 0.0181213 -8.46674e-21)
(1.01498 -0.000176661 0)
(0.779314 0.0248098 0)
(1.05858 0.041034 0)
(1.01568 -0.0182502 0)
(1.01344 0.00210489 0)
(1.02162 -0.00073786 0)
(1.01682 0.00574927 -1.98583e-22)
(1.01607 0.00457961 0)
(0.57307 0.067668 0)
(1.01066 0.00114597 2.54024e-22)
(0.972462 0.0628621 0)
(1.01416 0.00334466 3.78681e-22)
(0.957136 -0.0315635 0)
(1.01717 0.0100903 5.05807e-23)
(1.01555 0.0042399 1.74539e-21)
(1.07431 0.0223789 6.93431e-22)
(1.01398 -0.00400831 0)
(1.01081 0.00122785 -1.26893e-22)
(0.894416 -0.07626 -7.2944e-21)
(0.870555 0.053529 0)
(1.02263 0.0135547 0)
(1.06745 0.0364091 1.12603e-20)
(1.01132 0.0012333 -3.64498e-23)
(0.978466 0.0565154 0)
(1.01601 1.38136e-05 1.44379e-22)
(1.01613 0.00477116 0)
(0.676456 0.0238952 2.84148e-20)
(1.00912 7.25246e-05 9.9689e-23)
(1.03363 0.00848815 0)
(1.07094 0.0371556 1.35025e-20)
(0.665172 0.0184045 -5.40026e-20)
(1.01649 0.000159765 -1.4834e-22)
(0.971152 0.0867827 0)
(1.01794 0.0648784 0)
(1.0167 0.000494798 0)
(1.01807 0.0067057 -3.40757e-23)
(1.01588 0.0049263 1.94922e-22)
(1.01469 0.0469312 0)
(1.02105 -0.000271014 8.0297e-22)
(1.07723 0.0376758 -1.93159e-20)
(1.02588 0.00619801 7.13131e-23)
(0.69731 0.0201781 0)
(1.01724 0.0114119 -4.29386e-24)
(0.891904 0.0399818 -2.08275e-20)
(1.01442 0.00275174 0)
(1.01256 -0.000244058 -1.18491e-22)
(1.02937 0.0237195 6.01619e-22)
(1.01414 0.000298145 9.45797e-22)
(1.01735 -0.00123428 -6.48532e-24)
(0.838969 0.029204 -2.43554e-20)
(1.02458 0.0125239 1.07654e-21)
(1.0121 0.00185094 -1.1308e-21)
(1.02716 0.126237 2.32601e-21)
(1.01672 0.000637407 0)
(1.0158 0.000803946 2.61613e-22)
(1.05876 0.039629 -6.87194e-21)
(1.02604 0.0131898 -1.4348e-21)
(0.874134 0.0578199 0)
(1.02869 0.03193 2.65905e-22)
(1.07668 0.0240114 1.45681e-20)
(1.05894 0.0460495 0)
(1.0423 0.0106387 3.55438e-21)
(0.706784 0.0202053 9.21898e-23)
(1.02189 0.0105972 2.61449e-21)
(1.05885 0.0381235 0)
(1.02038 0.00189017 3.41218e-21)
(0.59091 0.00818171 -2.14362e-20)
(0.976909 -0.0361048 1.81295e-21)
(1.03143 0.00327203 5.61581e-21)
(1.016 -3.77237e-05 1.45163e-22)
(1.01656 0.00126385 7.46339e-22)
(1.02196 0.00886935 0)
(1.01548 -0.000101871 5.42881e-25)
(1.01362 0.000262942 1.72631e-22)
(1.01433 0.000581818 -5.81462e-22)
(1.02169 0.00337558 7.54032e-21)
(1.04015 0.0239078 0)
(1.00876 0.000125245 2.22093e-22)
(1.02455 0.0121721 1.06321e-21)
(1.07009 0.0321968 1.4617e-21)
(0.575766 0.119034 0)
(0.746444 0.0852187 1.25993e-20)
(1.07025 0.0363057 1.15444e-20)
(1.01693 0.00585296 -2.27434e-23)
(1.02879 0.0124124 0)
(1.01587 0.0036522 0)
(1.05063 0.0608443 -3.33252e-20)
(0.865897 0.0736823 0)
(0.335128 0.0014073 0)
(1.01184 -4.61466e-06 -5.35676e-22)
(1.01061 0.00112759 -4.36521e-22)
(1.01723 0.000603833 -1.49295e-21)
(1.0187 0.00699841 -8.87128e-22)
(1.01166 -7.62286e-06 5.06569e-22)
(1.01511 -0.000222767 1.5505e-22)
(1.01747 0.00366739 3.90037e-21)
(1.04162 0.0319655 -5.20285e-21)
(1.0122 0.00188058 0)
(0.591961 0.0687565 -4.0682e-20)
(1.02368 0.115796 6.26844e-22)
(1.01253 0.00231978 -4.50563e-22)
(0.814109 0.0339024 1.51896e-20)
(1.0207 0.0019144 -4.03051e-21)
(1.01424 0.00282104 7.86626e-23)
(1.01807 -0.00453579 -2.46557e-22)
(0.719417 0.0420709 -2.18684e-20)
(1.02481 0.0450157 -5.39104e-21)
(1.00866 -2.50386e-05 -1.12959e-22)
(0.877427 -0.131796 -1.57791e-21)
(1.0142 0.00160829 0)
(1.01425 0.00258541 0)
(1.08697 0.0288916 1.88561e-20)
(1.01597 0.00115039 1.34861e-22)
(0.819801 0.0768567 -4.57251e-22)
(1.03429 0.0086641 8.96574e-21)