/*--------------------------------*- C++ -*----------------------------------*\
| =========                 |                                                 |
| \\      /  F ield         | OpenFOAM: The Open Source CFD Toolbox           |
|  \\    /   O peration     | Version:  v2012                                 |
|   \\  /    A nd           | Website:  www.openfoam.com                      |
|    \\/     M anipulation  |                                                 |
\*---------------------------------------------------------------------------*/
FoamFile
{
    version     2.0;
    format      ascii;
    class       surfaceScalarField;
    location    "100";
    object      ddtCorrDdt0(phi);
}
// * * * * * * * * * * * * * * * * * * * * * * * * * * * * * * * * * * * * * //

dimensions      [0 3 -2 0 0 0 0];
oriented        oriented;


internalField   nonuniform List<scalar> 
21485
(
0.0229693
-0.000235899
-0.0227334
0.00924735
-0.00416641
-0.00508095
-0.000649824
-0.000216329
0.000866167
-1.04938e-05
-0.000155783
0.00016627
0.0105334
0.00183703
-0.0123704
0.000582183
-0.000498588
-8.3601e-05
-0.00181054
0.00121746
0.000593076
-0.00460455
0.00763471
-0.0030303
0.00259273
-0.000672821
-0.00191999
0.000792509
-1.47092e-05
-0.000777785
0.00123032
0.000607793
-0.00183812
-0.000995189
-0.00191346
-0.00832316
0.0102366
0.0566665
-0.0262893
-0.0303772
-0.0152784
0.00129038
0.013988
-0.000713379
0.000189346
0.000524035
-0.000763392
-0.00104714
0.0200421
-0.00352124
-0.0165208
-0.00114076
0.0010957
4.50557e-05
0.00579754
-0.0029622
-0.00283533
0.00256108
-0.00376353
0.00120247
0.00845349
0.00207989
-0.0115968
0.00701438
0.00458239
-0.00105889
0.0158654
-0.0148065
-0.000289463
0.00151977
-0.00109339
0.000247485
0.000845883
0.000834448
-0.00140876
0.00057433
0.00285906
-0.00104422
-0.00181488
-0.00164138
0.00090476
0.000736612
-0.000339972
0.00117443
-0.000788319
0.000138489
0.0187452
-0.0198041
0.00653884
-0.00374103
-0.00279783
0.00339259
0.00314626
-0.000139438
0.000973825
-0.000834394
0.00345774
0.00509283
-0.0085506
-0.0012952
0.00190299
2.46589e-05
0.000176778
-0.000201433
-0.00316418
0.000707484
0.00245669
-0.00592526
-0.000475925
0.00640119
-0.000229347
-0.000484057
-0.000911431
-0.00040682
0.00131824
0.0011498
-0.00562037
0.00447057
0.00451617
-0.00336636
0.000164716
-0.00145992
0.000362501
0.000219682
0.00091177
-0.000470827
-0.000440952
0.0333978
-0.0973037
0.063906
0.00474235
0.00577815
-0.0105205
0.00031926
-0.00123071
-0.000854325
0.000344586
0.000509735
0.0012362
0.00162287
0.00136073
-0.00121581
-0.000144924
-0.000699009
-0.000155322
-0.00835139
-0.00324539
0.00194986
-0.000124122
-0.00182573
0.0101718
-0.0067141
-0.0008063
-0.000826642
0.00163294
-0.0170133
0.000641923
0.0163714
-0.00143417
0.000627869
-0.000942965
-0.000570045
0.00151301
-0.000598019
-0.00121785
0.00181589
0.0409538
-0.03791
-0.00304381
5.06414e-05
0.0007102
-0.000760855
-0.0020964
0.000845947
0.00125044
0.00294398
-0.00855105
0.00560704
0.120612
-0.0872144
0.00588935
-0.0429428
0.0370535
0.00110767
0.000253058
-0.000854798
-0.000786583
0.0381843
-0.00622835
-0.031956
-0.000705005
0.000670238
3.4762e-05
0.000847752
-0.000982903
0.000135155
-0.00623399
0.000308713
-0.00011405
0.00144089
-0.00132683
0.000667571
0.000244193
0.00197824
-0.0033594
0.00138117
-0.00465784
0.0456116
0.00036564
0.000466347
-0.000831993
0.0157572
-0.0392946
0.0235374
-0.00123518
9.44226e-05
-0.0153766
0.002282
0.0130947
0.0185372
-0.0297085
0.000955667
-0.00026054
-0.000695126
-0.00207312
0.00486391
-0.00279078
-0.000552563
-0.000749974
0.00130252
3.50448e-05
0.000743126
-0.000778179
-0.000878943
-0.00871376
0.00410929
0.00246907
-0.00161664
-0.000852436
0.0015485
0.0339691
-0.05354
0.019571
-0.0189946
-0.00800942
0.0270041
-0.000795985
0.000846612
-0.00602037
-0.00341558
0.00943595
8.6823e-05
-0.000791817
-0.000380199
0.000745839
-0.00031449
-0.000221948
0.00053644
-0.000622582
0.000167661
0.000454905
0.0520412
-0.0311674
-0.0208738
-0.0250008
0.0364308
-0.0114299
-0.000421841
0.000262508
0.000159326
-0.000715377
0.000426897
0.000288482
0.000637818
-0.000777258
-0.00930801
0.0417082
-0.0324002
0.00040826
0.00546835
-0.00587652
-0.0305651
0.00663924
0.0239258
-0.00143791
0.00483051
0.000624733
-0.000659254
3.45241e-05
0.0258356
0.0262056
-0.0163637
-0.0142014
-0.00997337
-0.00530503
-0.00468196
0.00460842
7.354e-05
0.00304706
-0.00213718
-0.000909835
-0.000367685
-0.00159846
0.00196616
0.000509508
0.000732689
-0.00124222
-0.000513112
0.000156774
0.000356329
0.0180142
0.0240298
-0.042044
-0.000580667
0.000580662
0.00119504
-0.00221928
0.00102425
0.0421806
0.00236684
-0.0445475
-0.0002229
-0.00049247
-0.000252187
-0.0003704
-0.0089295
-0.000393982
0.00932347
-0.000110196
-0.00457177
0.00194105
0.000528028
0.0292043
0.00898004
-0.00171312
-0.00287532
0.00458843
-0.00465977
0.00780711
-0.00314736
-0.0120071
0.0111657
0.000841309
0.000390171
-0.00011615
-0.000274022
0.000638279
-1.35495e-05
-0.0277131
-0.0101716
0.0378845
0.00581868
0.00193265
-0.00775135
-0.00237464
-0.00126063
0.00363529
-0.0168108
0.00582878
0.0109819
-0.0134224
-0.00195418
0.0635842
-0.0406149
-0.000664834
0.000758564
-9.3719e-05
-0.0132194
0.00917173
0.00404767
0.0253479
0.00183609
-0.027184
0.00186912
-0.00251801
0.000648896
-0.00285809
-0.0103613
-0.000303924
-0.000931256
0.00119624
0.00462242
0.00120896
0.024139
0.00272035
-0.00092252
-0.00179782
-0.0114173
-0.000589785
0.0158824
-0.00600353
-0.00987889
0.0157472
0.00644728
-0.0221945
-0.00105391
0.000299621
0.000754283
-0.0164737
0.0187495
-0.0022758
0.00272354
-0.000976657
-0.00174685
2.58734e-05
-0.00111928
0.0020579
-0.000188789
0.0147505
0.022497
-0.0372474
0.00338469
-0.00664201
0.00325733
0.0473986
-0.021563
0.000400057
-0.00277469
0.0094511
-0.00284468
-0.00660645
0.00137593
-0.000569119
-0.000806845
-0.00086015
-0.000193757
-0.00107309
0.00653579
-0.0054627
-0.0010062
-0.0160072
-0.00221935
0.000119835
0.0020995
0.000454396
-0.0010059
0.000551494
0.00893357
-0.00467517
-0.00425841
-0.000645381
-0.000302198
0.000947599
0.0243626
0.023036
0.028837
-0.00698666
-0.0218504
-0.000502571
0.00121706
-0.000714531
0.000108315
7.52572e-05
-0.00018357
0.00853343
-0.0104469
-0.000407357
0.000506006
-9.8662e-05
0.00310185
0.0026957
-0.0029582
0.0044882
-0.00152999
0.000346415
0.000183379
-0.000529797
0.00722743
-0.00429632
-0.00293111
-0.011554
-0.0321979
0.0437518
0.00124073
-0.000731085
-0.00309753
0.00220912
0.000888413
0.0254991
0.00482522
-0.00214129
-0.00268394
0.00329592
-0.00567446
0.00237855
-0.0032349
0.000324549
0.00291034
-0.000885185
0.000220348
-0.000676603
-0.00488796
0.00556455
0.000514633
-0.00141347
0.000898852
-0.000344632
9.87079e-05
0.000245878
-0.0213406
0.0146698
0.00667084
-0.00171505
-0.0108628
0.0125779
0.0145256
-0.0115816
-0.000504197
0.0205462
-7.26101e-05
9.72777e-05
-0.00163633
0.00113373
0.000131109
0.0018117
-0.00194282
0.00489179
0.00233564
-0.00272423
0.00234787
0.000376379
-0.00111049
0.000250349
0.00890738
0.00697505
-0.000817596
0.00029407
0.000523521
0.00250117
-0.000522926
0.000995242
-0.000540848
-0.00343958
-0.00243502
0.00587462
-0.00174956
1.96502e-05
0.0017299
-0.00348308
0.00184689
0.00163619
0.000694746
-0.000800554
0.00010581
-0.00172269
0.00113445
0.000588242
-0.006551
0.00311141
-1.75753e-05
0.00196747
0.00149799
-0.000119551
-0.00137844
0.00301412
-0.00544915
-0.00191031
0.00492441
-0.00405674
0.00262003
0.0014367
0.0412288
0.00527175
-0.0465005
-0.0820753
0.0206348
0.0614405
-0.00255557
0.00690611
-0.00435054
0.00268396
0.0385448
-0.0025212
0.00726354
0.0227205
0.00393881
-0.0266594
-0.000449041
0.0011189
-0.0025087
0.00138981
0.00283767
0.00198756
-0.000335378
-9.28508e-06
7.35763e-05
0.00053932
-0.000612902
-0.0311215
0.000731203
-5.80462e-05
-0.000673153
-0.00112855
0.00126305
-0.000134524
-0.00145552
0.00308969
-0.00163414
0.00128478
0.000703992
-0.00198876
-0.00347947
0.00202394
0.00157643
-0.00162699
5.05542e-05
-0.00145673
0.00315157
-0.00169483
-0.000448589
0.000134107
-0.00693
0.0245668
-0.0176369
-0.00273751
0.00358987
-0.000852356
0.00655149
-0.00501904
-0.0015324
0.00589407
-0.00657067
0.00100781
8.78883e-05
-0.000504367
-0.000745165
0.00124953
-0.000892761
-0.000217727
-0.00299031
0.000371505
0.00261879
-0.00086854
0.000905109
-3.65714e-05
-0.000199781
-0.00303512
0.00254481
0.013378
-0.0159228
0.000618896
-0.0569039
0.056285
-0.0261931
0.00991061
0.0162825
-0.00186527
0.00126724
-0.00114726
0.000480869
0.000666361
0.00414726
-0.0101676
-0.00338526
-0.00187022
0.00525545
-0.00441276
0.00285787
0.00155491
-9.86398e-05
0.000891132
0.00138503
0.0001914
-0.000365863
0.000243023
0.000122825
-0.00287907
-0.00230208
0.00518114
-0.00120519
-0.000517505
0.0017158
-0.00391437
0.00219857
0.00096229
-0.00011331
-0.000848979
1.15193e-05
0.000719679
-0.000903895
0.000399533
0.000988155
-0.000353389
0.000509085
-0.000155704
-0.000262126
0.000765707
-0.000503583
0.00214686
-0.00385998
-0.00946138
0.0083883
-0.000899775
-0.0535305
0.0541495
0.000477642
0.0038984
-0.00437612
0.000340716
-0.00146931
-1.04589e-05
-0.00173908
0.00513716
0.0370435
-0.00294392
0.00853947
-0.00559545
0.0163953
-0.00624117
-0.0101541
0.00552724
0.00102426
0.00175355
-0.00030363
-0.00144992
0.000782188
0.00226483
0.00340864
-0.0021719
-0.00123674
-0.0140452
0.00258994
0.0114553
0.000712955
-0.00063938
0.00243053
-0.000489502
-0.00254323
0.00125324
0.00129
0.00609073
-0.00351343
-0.00257728
-0.0052273
0.00315412
-0.000125844
-0.00131824
0.00144408
0.000120479
0.000835188
-0.00131291
-0.000593579
0.00190656
-0.0442346
0.0391557
0.00507889
0.000725695
-0.00166444
0.000938793
-0.00173717
0.00162312
0.00332373
-0.00160792
0.00109674
-0.0100262
0.0027416
-0.00236282
-0.000378771
-0.00965799
-0.0295693
0.0157311
0.0138383
0.0025411
-0.00104129
-0.00149981
-0.00383254
0.0058654
-0.00203281
0.00555494
0.0108404
-0.0123623
-0.00897829
0.0401868
-0.00621771
-0.00058793
0.0003258
-0.00130427
0.00164626
-0.000342003
0.000118434
-0.0014533
0.00133491
-0.0323348
-0.00518039
0.037515
0.000975775
0.000400141
0.0399188
-0.0107145
0.00129275
-0.000158302
-0.00242251
0.00205485
-0.000601691
0.000492162
0.000109519
0.0272306
0.0126882
0.00152613
-0.00185649
0.00033039
0.00218748
0.000532889
0.00168933
-0.00157085
-0.000631047
0.000295685
-0.0138938
0.0121788
0.000592134
-0.00206477
0.00147262
0.00248682
-0.000797504
-0.000219568
-0.000432823
0.00065237
0.01679
0.00599839
-0.0227884
-0.00430098
0.00131068
-0.120142
0.089388
0.030754
0.00757925
0.003183
-0.0107623
-0.00123509
0.00145466
-0.000219583
-0.0220524
0.0151224
0.00532328
-0.00245435
-0.0028689
0.00594429
0.00330306
0.00202977
-0.0103529
0.00204852
0.00136013
0.0138977
-0.00688336
-0.00144081
0.00157191
0.00308336
0.000240373
0.000471914
-0.00110971
4.40685e-05
0.000105352
-0.000149416
0.000432227
0.00199832
-0.0311501
-0.0398878
0.0710378
-0.00227988
0.00442672
4.09291e-06
0.00215799
-0.000962932
0.00087565
-0.00144318
0.00056754
-0.00258994
-0.00574422
0.00833416
0.0010094
0.000283358
-0.00171288
0.000840589
0.00087225
0.0124535
-0.00689858
-0.00171626
0.00159216
0.0172782
-0.0273601
0.0100819
0.00121151
0.0012753
0.000888136
0.000275586
-0.00116376
-0.0088546
0.00629903
0.000519066
0.000231016
-0.000750085
0.0161747
-0.0204447
0.00426997
0.000147716
0.000700031
-0.0227932
0.00379879
0.00357971
0.00258703
-0.00616673
-0.036122
0.00378716
-0.00240163
-0.00165514
-0.000440881
-0.000112587
0.000553464
-0.00138282
0.000147733
-0.000210145
-0.000230778
-0.00265259
0.000409137
0.00224343
0.00971823
0.002116
-0.0118342
-0.000474991
-0.000156075
-0.0301681
0.0120981
0.01807
0.0018693
-0.000343183
0.000235582
-0.00288818
-0.00284187
0.00133108
0.00151079
-0.000486198
0.000486183
0.00100379
-0.000132998
-0.000870716
-0.00163052
-0.00121135
-0.000118894
0.000108394
-0.0021919
-0.000972273
-0.000242155
-0.00017969
-0.0117631
-0.0176413
-0.00575172
0.0061599
0.000528336
-0.00174619
-0.00342336
-0.00529046
-0.00207048
0.00207618
-5.72298e-06
-0.00229804
0.00142355
0.000874488
-0.000320396
-0.00113288
0.00478352
0.00415005
-0.000369351
0.000888417
-0.000236487
-0.00058111
0.000578428
-0.000492422
-8.59873e-05
-0.00434964
0.00291172
-0.0133876
0.00957869
0.00380898
0.00143349
6.45015e-05
0.00645608
-0.0111159
-0.000707135
0.00453676
-0.00382963
0.00664892
-0.0100723
0.0127312
0.00344346
-0.00198483
0.000191326
0.00179351
-0.0392672
0.00569223
0.00676128
0.00188322
0.00502291
0.000145942
-0.0010145
0.0271755
0.0104515
-0.0376271
-0.0198944
0.00838227
0.0115121
0.00278039
0.0033103
-0.00174132
0.00244693
-0.000705483
-0.00325522
0.00362673
0.00197199
-0.00580456
-0.00278953
-0.00862773
-0.00910272
0.00458114
0.00452154
0.00215777
-0.00282534
0.000667585
-0.00260452
0.0111379
-0.00238939
0.00206894
-0.000638317
0.00230237
-0.00100975
-0.00129254
0.00401955
-0.00818597
-0.00271188
0.00859058
-0.00587856
0.002939
-0.00581432
-0.010987
0.000144064
-0.00137536
0.00123129
0.0035165
-0.0206601
0.0171436
0.00160751
-0.000897759
-0.000709778
-0.00152855
-0.00103637
0.0025649
0.000130782
0.000259412
-0.00746747
0.0100123
0.000981912
0.00353428
-0.00586443
-0.00243379
0.00829819
-0.0028494
-0.0105382
0.0143931
-0.0108766
-0.0299828
0.0219734
0.00113642
0.00140467
-0.000412897
-0.00157193
0.00123129
-0.00351116
-0.00232447
0.00110204
0.00122244
-0.00124567
0.00141038
-0.000875899
0.000890293
-1.44078e-05
0.00460708
-0.00188766
-0.00271954
0.0314434
0.0290566
-0.0604999
0.0306389
-0.0148917
0.00518641
-0.00180175
-0.0013155
-0.000397353
0.000538121
-0.00640255
0.00616307
-0.0145145
0.000902495
0.000101315
-0.000507174
0.0152361
0.0151645
-0.0304005
0.000548356
0.000958755
-0.0024155
0.0333665
-0.0309997
0.000257024
-0.00156129
-0.000501533
0.000148137
-0.00270491
0.00129353
0.0014114
0.041926
0.00564702
-0.00206729
-0.000598734
0.00105173
-0.000452999
-0.00231055
0.00138803
-0.00118678
0.00171512
0.00664665
-0.00569338
-0.000953269
0.00303765
-0.000566687
-0.00247095
0.0070176
-0.000370962
0.00155301
-0.00329441
0.000511693
-0.000629367
0.000635563
-6.20656e-06
-0.00964782
-0.010025
0.0196728
8.91008e-06
0.00310777
-0.00971876
0.00661121
0.00120356
0.00040394
0.000330886
-0.00120025
0.000869347
-0.0045736
0.00226635
0.00230721
0.00309545
0.0193472
-0.0224426
-0.000241918
0.000588332
0.000787549
0.00381953
0.00060584
-2.7391e-05
-0.0180701
0.0333062
-0.00151999
0.000949932
-0.000716427
0.000727944
0.000154929
0.000797991
-0.000952877
0.0007362
-4.14492e-05
0.00089098
-0.00100612
0.000115133
-0.0659183
0.0207575
0.0451608
-0.00503034
0.0207875
-0.00761908
-0.0332944
-0.0640093
-0.000791205
0.00335222
0.000316328
-0.000598214
0.00028188
0.000357093
0.00353953
-0.00389661
-0.00306323
0.00815605
0.00374715
0.00612406
-0.00987122
-0.0140805
0.017176
-0.00644364
0.00455593
8.47151e-05
-0.000639568
0.000554854
-0.00184283
-0.00125472
0.000850355
-0.000815316
0.0315218
0.0890904
0.0153817
-0.0136889
-0.00169275
0.00102264
-1.32477e-05
0.000348526
-0.000568102
-0.00593294
0.00904077
-0.00011705
-0.00123571
0.00135276
0.000700996
-0.000518931
-0.000182076
-0.000984763
0.000386019
-0.000173195
-0.000192666
0.00217157
-0.0189824
0.000376739
-0.00259608
0.000480878
0.006079
-0.00655979
-0.00567901
-0.000631059
0.00631004
0.0173288
0.0312575
-0.0083652
-0.0228923
-0.00414802
-0.00495468
0.0144235
0.0101434
0.00100767
-0.0010224
0.000617506
-0.00636904
0.0638594
0.00493618
-0.0687954
0.0108632
-0.0115844
0.000721251
0.000982131
-9.11516e-05
-0.000164731
-0.000711174
0.00149559
-0.00340756
0.00191196
-0.000880491
-0.00166274
0.000413916
-0.00283645
-0.00101041
0.00152504
0.0265451
-0.00926686
-0.00179398
0.000385257
-0.00166518
-0.071001
-0.049141
-0.000867935
0.00022255
-0.0311945
-0.0347238
0.00582866
4.38924e-05
-0.000760321
-0.00478939
-0.000460339
-0.000524424
0.00105145
-0.00430669
-0.000150309
-0.000430361
-0.00194204
-0.0188988
0.00890139
0.00999737
0.000449678
0.000251318
-0.0145748
-0.00747761
-4.7714e-05
0.000653552
0.00189833
0.00184333
-0.00374169
0.000890335
0.000132311
-0.000326643
0.000748185
-0.000421543
0.0018032
-0.0023895
0.000586289
0.00403426
-0.00443179
0.000397573
-0.0020424
0.00102596
0.00101644
-0.00225742
-0.00150603
-0.00219066
-0.00238298
-0.00204777
0.000734878
-0.0394067
0.0300987
0.000815276
0.00212376
0.000828572
-0.000347706
-0.0120737
0.0378645
-0.0257907
0.000256139
-0.00232661
0.00485244
0.00295469
0.0946833
-0.0387528
-0.0559305
-0.0287386
-0.00142942
0.00863101
-0.0113455
0.00271452
0.00305247
0.000508538
-0.00356102
-0.00721683
0.0078344
0.0102301
-0.0313232
0.021093
0.000475188
0.000105472
-0.00176513
0.00258043
-0.00219134
-0.00342905
0.00671569
-0.0317165
0.000485015
0.000755656
0.000513377
-0.000197052
-0.022952
-0.00661721
-3.19909e-05
-0.000569699
-0.00116162
-0.000164308
8.52018e-06
-0.00981264
-0.00634347
0.0161561
-0.00362643
0.00221375
0.00141266
0.000499155
-0.000116052
0.000224366
-0.00336407
-0.000119014
0.00376549
-0.00328788
-0.0002466
0.00282954
-0.00258293
-0.0015756
0.00487153
-0.00308801
2.35109e-05
0.00306451
0.00388815
-0.00338142
-0.00050674
-0.0027293
0.00106696
0.00166235
0.00371142
0.00215397
0.000705473
-0.000212817
-0.000673859
0.000886665
0.000146835
-0.00167538
-0.00992871
-0.0103273
0.00735966
-0.0164242
0.0090645
-0.00111093
-0.00197706
-0.00016533
0.00206366
-0.00846922
-0.00112914
0.000379154
-0.0018379
0.000210902
0.0017218
-0.00112968
0.000230384
-0.00651212
0.00628173
-0.0051927
0.0127719
-0.00153115
0.00169099
-0.000159823
-0.0028589
-0.000448977
0.00330782
-0.000743154
0.000643259
9.9907e-05
-0.0119351
0.020224
-0.00828895
0.000752135
-0.00394436
0.00319223
-0.0322234
0.0426749
-0.00934593
-0.000263459
-0.000305214
0.000568677
-0.0489994
0.0939075
-0.0449082
5.10527e-05
0.00857996
0.000670616
0.000458301
-0.00112893
-0.00421883
-4.3723e-05
0.000118979
6.40387e-05
0.00352583
0.00055617
0.00216738
-0.00124249
0.0011166
0.000892136
0.00278434
-0.000894216
-0.00188997
0.00460165
-0.00889579
0.00429416
0.00586354
-0.00678145
0.00157131
0.00521015
8.90261e-05
0.000728002
-0.000817108
0.000151956
-0.000268119
0.00326305
-0.00318629
-7.67555e-05
0.00315068
0.0021726
-0.063157
-0.000733072
0.000272728
-0.000730868
8.42303e-05
0.000646676
-0.00055382
-0.00149843
-0.0149753
0.0102032
-0.0162844
-0.0279502
0.000610709
-0.0039563
0.00334549
-0.0148966
0.00524876
-0.00126831
0.00114876
-0.00235062
0.00222058
0.000130037
0.00940064
-0.0126324
0.00323176
-0.020563
0.00862795
-0.00183774
0.000861088
0.00236038
-0.00166814
-0.000692222
0.00335479
-0.0029357
-0.000419101
-0.000479443
7.20858e-05
-0.000610761
0.000118362
0.00117936
0.00155039
-0.00272976
0.00328883
-0.0028797
0.0102771
-0.00872123
-0.00155589
0.000237627
-0.00082314
0.000585575
0.000795463
-0.00012789
0.00045197
0.0019084
-0.00138536
0.00378515
-0.00506
0.00127483
0.00394909
0.0599106
0.00822734
0.011363
-0.0195903
0.0184636
0.0179672
-0.0148578
0.0114109
0.00344694
-0.00286133
0.00361348
-0.00101813
0.00117312
-0.0039584
0.00181274
0.00214561
-0.00110558
-0.000110234
0.00149437
-0.00121981
0.00379393
-0.00261457
-0.0128563
-0.0125232
0.0253796
-0.00050338
-0.0143543
0.00333952
7.97084e-05
-0.00341923
-0.000352883
8.98695e-08
0.000352789
0.000698015
0.0023396
0.00988215
0.000394982
-0.000934494
-0.0332954
0.0231239
0.0128725
-0.0201521
0.0072796
-0.0183407
0.0442923
-0.0259516
-0.000307177
0.000109175
0.000197993
-0.00188202
0.00112318
0.000758825
-0.00583161
0.00337724
0.000657043
-0.000419385
-0.000993398
-0.00189146
0.00187397
0.000435711
-0.000252336
-0.00683501
0.0034451
0.00338994
0.0034841
0.000550197
0.000209643
0.0020318
-0.00224145
0.000743781
0.000146543
0.000317319
-0.000488396
0.000171075
0.000764666
0.000767144
-0.00153181
-0.000367841
-0.000947602
0.000711031
-0.00177109
0.00105997
-0.00018405
0.00198725
0.045684
0.00203549
-0.000196913
-0.00183857
0.00386334
-0.00170557
0.00229761
-0.00153226
0.0048203
-0.00328809
-0.00598771
0.000518681
0.00546903
-0.00181605
0.00202568
0.0440974
-0.00238925
0.00142516
0.00186364
-0.0147875
-0.0212332
0.0360207
0.00247254
-0.0113451
0.00887251
-0.00803685
0.00270355
0.00533328
-0.00743179
0.00222731
0.00520466
0.00255379
-0.00138492
-0.00116888
-0.00244594
0.00394152
0.002604
-0.0220165
0.031591
-0.00957441
-0.00297431
0.00130242
0.00167191
0.000410648
0.00108371
3.06571e-05
-0.00173199
0.00170133
-0.00171987
-0.000985051
-0.00211549
0.00545501
0.000419773
1.5067e-05
-0.000434854
-0.0022366
-0.00307764
0.00531423
0.000147359
0.00172194
0.00131685
-0.000552187
0.00136822
-0.00088314
-0.00217544
0.00485552
-0.00268007
-0.0140384
0.021398
-0.0518073
0.0334667
-0.0461485
0.0458316
0.00031688
0.0226157
-0.00974323
-0.00199188
-0.0100751
0.012067
0.0144817
-0.0236499
0.00916819
-0.0104255
0.0135407
-0.0031152
-0.000566794
0.00168571
-0.0015751
-0.00336768
0.00404002
-0.000672347
0.0113385
0.000857288
-0.0121958
0.00398166
-0.000718605
0.000652281
-0.000503383
-0.000148903
-0.000550499
0.000639532
-0.000202638
-0.00248462
0.00268721
-0.00179335
-0.000564402
0.00235774
0.00267534
-0.001467
-0.00120842
-0.00316829
-0.00281943
0.00852286
-0.0407209
-0.00560554
-0.00182631
0.0366899
-0.00945928
5.34229e-05
-0.000603904
0.00683074
-0.00660036
0.000789314
-4.55265e-05
-0.00120145
0.00120635
-4.90235e-06
-0.00622715
0.0144545
-0.00153172
0.00132909
-0.00347262
-0.000170585
0.000487906
0.00321709
0.00141817
0.0012572
-0.00475651
-0.00372126
0.00847773
0.0122871
-0.014279
-0.00152768
0.000803551
0.000724244
0.000412218
-0.000813515
0.000401292
0.00180102
-0.000846133
-0.000954862
0.000243298
-0.00156154
-0.000435568
0.000847787
-0.00109165
-0.0111457
0.0425891
-0.00163819
0.000465617
0.00117247
0.000109111
-0.000181726
-0.0256477
0.0241965
0.00145127
-0.00926563
0.00230037
-0.000264881
-0.00249281
-0.00113359
0.0227475
-0.0128369
0.00551954
-0.0017344
-0.00954136
0.00669664
0.000176725
0.000551254
-0.00377622
-0.0782991
-0.00054824
0.00143633
-0.00372402
0.00451155
-0.0022522
0.00363723
0.00110065
-0.00448591
0.0193125
-0.0125056
-0.00680677
0.00110353
-0.0154173
-0.00339509
0.00155227
-0.0208324
0.0110844
0.00974798
0.0417688
-0.0315388
-0.00205179
-0.00250496
0.0045567
-0.000271093
-0.000517223
0.00174133
-0.000774511
-0.000966828
0.00425583
-0.00649244
-0.00342343
0.00168956
0.00173389
0.000244462
0.000407819
-0.00190831
0.00193898
-0.00050396
-0.000229112
0.0278091
0.00888084
0.0177433
-0.013909
0.0502643
-0.0363549
0.000557952
-0.00105724
0.000499287
-0.0321421
0.0176442
0.0144981
-0.000133822
-0.00147668
0.00302703
-0.00220024
0.0135634
0.00110718
-0.000362584
-0.0007446
0.0366903
-0.0148875
-0.0218028
0.00198498
0.000317492
-0.00781975
0.0138355
-0.00583966
-0.00799583
9.1103e-06
-0.000507701
0.0125922
0.0032128
-0.00474504
-0.00178365
0.00549504
-0.000325041
0.00234796
-0.00202294
0.00232543
-0.0153367
0.0130113
0.00391859
-0.0295663
-0.046801
0.0247844
-0.00184228
0.00219938
0.0111984
-0.00536944
0.000199823
0.000306184
-0.018043
0.0135134
0.00452968
0.00154063
0.00101319
0.0019177
0.000158651
0.000716644
0.00117695
-0.00189369
-0.00129769
0.000929808
0.047759
-0.000157147
-8.00133e-05
0.000237155
-0.00323247
0.00121001
0.00202248
-0.00179478
-0.000555846
0.0175814
-0.0287212
0.0111398
0.00262759
-0.00166884
-0.00517834
-0.00603457
-0.000388141
0.00100065
-0.000612528
-0.0031136
0.00187944
0.00123415
-0.00164706
-0.00132727
0.00756634
-0.00804232
0.0119476
-0.00734595
-0.00701369
0.013328
-0.00631429
-0.00164382
0.000734656
0.000730852
0.00101047
-0.000946452
-0.004728
0.000826453
-0.000780152
-4.63047e-05
-0.00349134
-0.00101389
-3.73635e-05
0.00105136
-0.00531569
0.00314026
-0.00564554
-0.00233604
0.00798158
-0.00267075
-0.000132299
0.00280311
0.000199409
-0.0553566
0.0759914
-0.000648078
0.00188425
-0.000733884
-0.0011481
-0.000647404
-0.000331279
0.000978661
0.00138058
0.00347495
0.00485715
-0.0163948
0.0176038
-0.000144159
0.000869908
-0.000427226
0.039583
0.000317036
0.0155448
0.00124527
-0.00832101
0.00899535
-0.000674463
-0.00125546
-0.00441896
0.00502962
-0.000927188
-0.00105672
-0.000470871
-0.0464866
0.0516237
-0.000636476
-1.28314e-05
0.000649308
0.000917915
-0.000558102
-0.000359825
0.0255851
-0.00497047
-0.0206146
-0.00109807
0.00248789
0.00347834
-0.00129581
-0.00218252
-0.00163315
-0.00148046
-0.00152856
-0.00491113
0.00643969
0.0108485
0.00327903
-0.0141276
-0.000768545
-0.0010254
-0.000755705
0.000135828
0.000619866
0.0176519
0.0111851
-0.0104884
-0.00841038
-1.78654e-06
-0.000305398
-0.00117973
-0.000484731
-0.00156475
0.00311394
-0.00154918
-0.0349419
0.0161146
0.00129541
-0.0096163
-0.00434791
0.00358506
0.000762873
-7.04061e-05
-0.000650553
0.000720963
-0.00286329
-0.00116126
0.000232252
-0.000305126
7.28574e-05
-0.00113041
-0.000480094
3.10513e-05
-0.0183766
0.000333521
0.0046152
-0.00434233
-0.000272885
-0.00039932
0.00285924
-0.00245989
-0.00117073
9.86642e-05
-5.45974e-05
-0.00864858
0.00604408
-0.00265911
0.00241252
-0.00268561
0.00136012
0.00132549
-0.00169205
-0.00400215
0.0010265
-0.000579748
0.00260595
-0.0020262
-0.000215588
0.00111775
-0.000902154
0.00661648
-0.0206548
0.00682181
0.0075389
-0.00660654
0.000927511
0.100427
-0.0755268
-0.0249002
-0.00141386
0.00098723
-0.000696001
0.00184862
-0.00252145
0.00100284
-0.000204829
0.0318106
-0.0457194
0.00123665
0.000196843
-0.0217594
0.00939719
0.000671612
0.00312705
-0.00391827
0.00194169
-0.00115041
-0.000791282
0.0168812
-0.0343565
0.0174753
0.00141765
-0.0019974
0.000256459
-0.000519911
0.000392747
0.000512353
-0.00138318
-0.00373123
-0.00196215
0.00642849
0.0061387
-0.0125672
0.00870023
0.0361918
-0.0448918
-0.00369112
0.0415556
-0.00285815
0.00641727
-0.00355912
-0.00076075
0.00108
-0.000796795
0.000145727
0.000651064
-0.000860171
-0.000177369
0.00103754
-0.0013548
0.00121934
0.000135456
0.000422003
-2.24387e-06
-0.00295087
-0.00236482
0.0226019
-0.0279885
0.00538664
0.0222771
0.00446741
-0.0267445
0.000558284
2.2997e-05
-0.000581279
0.00182718
-0.00468628
0.00709298
0.00297234
-0.0100653
6.53988e-05
-0.00231249
0.00336399
0.0861633
0.0217387
-0.107902
-0.000796791
-0.000319501
0.000162352
0.00158035
-0.0480669
0.000330918
-0.00406214
-0.028588
0.0047229
0.023865
0.00785143
-0.0112223
0.00337089
9.05596e-05
-0.00144537
0.000267066
-0.00127919
0.00101211
-0.00102447
0.00649286
-0.000842229
9.70639e-05
0.000403947
0.000476925
-0.000880858
0.00888532
0.0104273
0.000439548
-0.00210839
0.000784019
4.24251e-05
0.0145163
0.0110687
0.00167268
-0.00410647
0.000319343
-0.0071008
0.0866216
0.0138054
-0.00165192
0.00107245
0.000579507
-0.00462009
-0.00455603
0.00917611
-0.0181289
-0.0140131
-0.0637359
0.0325857
0.000907646
0.0213694
-0.0212804
0.0163099
-0.00234352
0.00401618
-0.0135814
0.00531596
0.00801203
-0.0229974
0.0248335
0.000777869
-0.000848278
0.00859661
0.0023975
0.00277993
-0.00183238
-0.00094758
-0.00116779
-0.00221364
0.0033814
0.000300114
0.00048919
-0.0212008
0.0111758
-0.011473
-0.00935934
0.0180611
-0.0157356
0.00195564
0.000682275
-0.000382172
-0.000334773
0.00100538
-0.0117778
0.00119582
-0.000147314
-0.0010485
-0.00125292
-0.00180151
-0.00159358
-0.000669147
-0.000190658
-0.00187408
0.000458035
-9.55406e-05
-0.00435388
-0.000364455
-0.000121737
0.00357021
-0.00194845
-0.00162174
-0.00530108
0.00235022
0.00420966
-0.000452433
0.00101038
0.00226045
0.000524
-0.0305433
0.0262395
0.00430381
0.000573035
-0.00210412
-0.00257104
0.00158415
0.000986972
-0.000477529
-0.0300658
0.0022781
-0.00792366
0.000581303
-0.000613141
3.18462e-05
-0.00108779
0.00180379
-0.000716
0.010695
0.00203622
0.00124752
-3.73873e-05
-0.00069352
0.0220995
-0.015483
0.0171104
0.0034345
-0.0022787
-0.00743995
-0.000183656
-0.00170786
-0.00898198
0.0171942
-0.00821203
-0.000764697
0.00869748
-0.000106886
-0.0023367
-0.00227661
0.00461329
0.0029379
-0.00500207
0.00206424
-0.00107316
0.000212991
-0.000477082
-0.0015707
0.000172692
-6.73429e-05
-0.00234417
0.000812473
-0.00405461
0.00394441
0.00259785
0.00940711
-0.000330925
-0.00254052
0.00287145
-0.0100731
-0.0116863
0.0122398
-0.0316448
0.019405
0.00761344
0.00108411
0.00102247
0.000178434
-0.001201
-0.00103555
-0.0100361
0.000943186
0.00141331
-0.00235651
0.108577
-0.0224141
0.000487473
-0.00170633
0.000692317
0.00101398
-0.000598921
0.000683152
-9.77755e-05
0.000998262
-0.00200807
-0.00045532
0.000102412
0.00113632
0.000805376
-0.000212745
0.00237659
-0.000436564
-0.00194008
0.00169235
-0.000486863
-0.00120551
-0.005981
-0.0141711
-0.0314229
0.0399457
-0.00283391
0.00260986
0.000224056
0.000566569
-0.0032373
0.00802504
-0.00609239
0.00131295
-0.000322593
-0.00372277
0.000570899
0.00315191
0.00366344
-0.0131364
0.009473
0.000479113
0.00116714
-0.00104588
0.00192028
-0.00087441
0.000486547
0.010852
0.0204939
0.0103804
-0.0308743
0.00188588
0.00120382
0.00683522
-0.0062971
-0.00549985
0.00772231
-0.00222253
0.00339413
-0.0138197
-0.000631958
0.000203075
0.00042888
-0.000525229
-0.000488595
0.000249448
0.00273737
-0.00823719
0.00337894
-0.0071002
-0.00127265
0.00111134
0.0001613
0.00909525
-0.00371211
-0.00538314
0.00223337
-0.00256428
-0.00643099
-0.000240188
0.0066712
0.000136222
0.000349958
0.00528801
-0.00480712
0.00331648
-0.000540887
0.000490028
5.08197e-05
-0.00096692
-0.0104531
-0.0224442
0.0328973
-0.00210223
0.00101444
-0.000841369
-0.00120103
-0.000186828
-0.000445133
0.00424063
0.000579654
-0.000862002
0.000427271
-0.000195009
-0.00160004
0.000746827
0.000125365
-0.000872203
-0.00034169
-0.00103367
0.0201314
0.0301331
-0.00136918
0.0162268
-0.00734137
0.00420388
-0.00112052
-0.000206538
-0.00275086
0.0012742
0.00905619
0.000430636
-0.00948683
0.0204802
0.0143483
-0.0178696
0.0456063
0.00330406
-0.000177048
0.00521579
-0.00168698
0.000974835
-0.00336503
0.00180028
-0.000306272
-0.000415635
0.000721898
-0.0171262
0.0111452
-0.000706782
-0.00233569
0.00304248
0.0470806
-0.0420753
-0.00500536
0.021176
0.0368633
-0.0580393
0.00118123
0.013772
-0.012829
-0.000942974
-0.00158761
0.000282002
0.00130559
0.000381687
0.000814124
0.0138584
-0.00702321
0.00226252
-0.00030595
0.00620001
0.00108873
0.00245081
-0.00505453
0.00154113
0.0129915
-0.00429645
-0.00869501
2.69342e-05
-0.00161456
0.00166231
-0.00206162
0.00286332
-0.0013039
-0.00155943
0.011493
3.41419e-05
0.000709255
-0.000743389
-0.0359145
-0.000127215
-0.000478502
0.000605696
-0.00511035
-0.000207977