/*--------------------------------*- C++ -*----------------------------------*\
| =========                 |                                                 |
| \\      /  F ield         | OpenFOAM: The Open Source CFD Toolbox           |
|  \\    /   O peration     | Version:  v2012                                 |
|   \\  /    A nd           | Website:  www.openfoam.com                      |
|    \\/     M anipulation  |                                                 |
\*---------------------------------------------------------------------------*/
FoamFile
{
    version     2.0;
    format      ascii;
    class       volScalarField;
    location    "100";
    object      k;
}
// * * * * * * * * * * * * * * * * * * * * * * * * * * * * * * * * * * * * * //

dimensions      [0 2 -2 0 0 0 0];


internalField   nonuniform List<scalar> 
14479
(
0.00642947
0.000677018
0.000875458
0.000145292
0.00018313
0.000151603
0.000147844
0.000203545
0.000195329
0.00021702
0.000144368
0.000167081
0.000186159
0.0130335
0.00602428
0.00016185
0.000148255
0.00251242
0.000144931
0.000163157
0.00018392
0.000192728
0.000350152
0.120916
0.000144197
0.000145074
5.28756e-05
0.000193818
0.000148427
7.7042e-05
0.000680567
0.119255
0.000172765
0.00016951
0.000996667
0.0001865
0.000145287
0.000154712
0.00354088
0.000183242
0.000165874
0.000143115
2.63007e-05
6.51506e-05
0.000145457
0.000154548
0.000143268
0.0295315
0.000208794
0.000143219
0.0050651
0.000193666
0.000144451
0.00520431
0.000301663
0.000168935
0.000189103
0.000151894
0.00299858
0.000151699
0.000146869
0.000149201
0.0105344
0.00014371
0.000147806
0.00490286
0.0313686
0.0312396
0.000144391
0.000148613
0.000330629
0.000143713
0.00426995
0.000184876
0.000149304
0.000142783
0.000154795
0.0121338
0.000142698
0.0138899
0.000145205
0.00020645
0.00514811
0.000583188
0.00358293
0.000150423
0.000149297
0.000148357
0.000203166
0.000153036
0.000195076
0.016956
0.0615273
0.000143638
0.000251794
0.00014419
0.000142911
0.000144595
0.000140443
0.0135421
0.000328659
0.00016456
0.00511556
0.00172178
0.0284545
0.000214234
0.000292508
0.000171374
0.000311559
0.0134445
0.000269105
0.00771409
0.000167884
0.000170427
0.000197482
0.000184188
0.000146224
0.000426411
0.00016667
0.000150478
0.000147176
0.0210464
0.00518301
0.000140402
0.000253854
0.000167224
0.000152669
0.000333133
0.000169655
0.00025138
8.00083e-05
0.0319587
0.000160359
0.000161127
0.000373141
0.000172934
0.000220045
0.000207418
0.0025026
0.000147341
0.00514946
0.105788
0.000156483
0.0048913
0.000145266
0.00121285
0.111234
0.000150407
0.000154875
0.00019962
0.00958211
0.000143049
0.00289361
0.000158089
0.000145175
0.000155239
0.0205165
0.0680808
0.0135986
0.00017349
0.000186728
0.000141052
0.000143109
0.000172961
0.00287877
0.000156046
0.000143494
0.000197897
0.000193985
0.0132278
0.00156551
0.000174045
0.000161238
0.00018398
0.000139754
0.000166505
0.000173639
0.000141005
0.000170595
0.000886289
0.000183603
0.000261726
0.0131377
0.000170315
0.00096214
0.000253593
0.000141047
0.0727771
0.000150925
0.00999496
0.122245
0.000214852
0.00342954
0.00164782
0.000167368
0.000173886
0.000147775
0.000166745
0.000168583
0.000143009
0.000200533
0.000149935
0.000154955
0.000143657
0.000171429
0.000176761
0.00133703
0.000175893
0.000146046
0.000172879
0.000168201
0.000147927
0.000170408
0.000169351
0.000550347
0.012331
0.0311927
0.000221339
0.0123679
0.000209716
0.0111817
0.00471173
0.000155116
0.000176078
0.0066428
0.000152457
0.030723
0.000141876
0.000190303
0.000185859
0.000149821
0.000185356
0.0049544
0.000150889
0.000148255
0.12359
0.000155685
0.000197631
0.0789662
0.000144903
0.000147242
0.000143093
0.00019374
0.000150357
0.000271164
0.00021358
0.0391192
0.0101059
0.000149574
0.000145158
0.000175773
0.000177032
0.000188771
0.000220652
0.0026877
0.000140048
0.000167773
0.000146888
0.000158524
0.00014503
0.000141811
0.000147643
0.000144957
0.000141177
0.000141293
0.000169387
0.000176226
0.000145258
0.0383036
0.000181031
0.000190014
0.000173868
0.0283842
0.000173534
0.000199069
0.000310394
0.000197443
0.000149051
0.000169508
0.000156719
0.00020781
0.000162798
0.000152794
0.000155897
0.000200071
0.002332
0.000189617
0.000591617
0.000171932
0.000275634
0.000223195
0.000148944
0.000157382
0.000135587
0.000153709
0.00331017
0.107501
0.000151432
0.000178658
0.000317918
0.122655
0.0143194
0.000141202
0.000147911
0.000176165
0.00953769
0.000139795
0.000348381
0.000145484
0.000197177
0.000165539
0.000356429
0.000155921
0.000151424
0.000176336
0.0053592
0.000214176
0.000161014
0.000175738
0.000141202
0.123389
0.000194128
0.0250431
0.000225129
0.000147278
0.121324
0.063915
0.00123932
0.000184864
0.000156727
0.000315171
0.000146575
0.000158513
0.000184877
0.000152607
0.000152419
0.0303305
0.000167865
0.00015443
0.000150946
0.000147638
0.000177661
0.000144653
0.000179454
0.000310518
0.00016909
0.000214983
0.000175332
0.000191655
0.000230088
0.000144754
0.000131407
0.00467465
0.0532851
0.00016694
0.0174464
0.000300637
0.0379962
0.000147229
0.0276915
0.000162733
0.000204605
0.00508822
0.000784902
0.000155645
0.00016403
0.000151628
0.000182245
0.000187563
0.000150956
0.000154246
0.00203784
0.000159579
0.000208947
0.00317146
0.00022339
0.000148708
0.000204483
0.000167835
0.000150674
0.000176758
0.000196031
0.000144686
0.000150849
0.00517831
0.000175825
0.106615
0.000147957
0.000238921
0.000165017
0.000204602
0.000163341
0.000156535
0.000508245
0.000311213
0.000213495
0.000151419
0.0225174
0.000205784
0.000200029
0.00018509
0.000193594
0.000178725
0.000118567
0.000186011
0.000157547
0.000185896
0.000176687
0.00456875
0.000182378
0.00044994
0.00101096
0.000170717
0.000205121
0.000146913
0.000591165
0.000148763
0.000153091
0.0282345
0.000211417
6.6773e-05
0.000494486
0.105565
0.000778226
0.0649352
0.000151286
0.000157012
0.000167642
0.000152986
0.000146273
0.000147498
0.000183488
0.0328784
0.0122788
0.0634026
0.000179621
0.000517367
0.000313551
0.000187346
0.000147439
0.00725752
0.000147648
0.000149689
0.0174396
0.00014786
0.000140812
0.000157661
0.0217927
0.000165929
0.000148597
0.000149048
0.000148368
0.000187266
0.000165863
0.000191491
0.000185019
0.000147224
0.000233678
0.000216184
0.000365811
0.000218013
0.000148522
0.000152113
0.000170746
0.00100196
0.000141057
0.000181839
0.0051974
0.00399427
0.000146526
0.000141694
0.000194575
0.000169248
0.000153537
0.0183242
0.00993813
0.000199587
0.0273741
0.000182622
0.000147031
6.88912e-05
0.000184994
0.000223173
0.000656749
0.00018437
0.000153703
0.000254413
0.00015008
0.0327184
0.000468508
0.000144192
0.000140936
0.000211128
0.000147263
0.000167791
0.000148451
0.000140131
0.000220669
0.000159105
0.000200861
0.000177588
0.000208252
0.00343504
0.000186784
0.123858
0.000206154
0.00020082
0.0387722
0.000198372
0.000151244
0.000147158
0.000156002
0.00015651
0.000197273
0.000150676
0.000287088
6.96325e-05
0.000156339
0.0230304
0.000194125
0.0205731
0.000167567
0.000141688
0.000168701
0.000147802
0.00019351
0.000164118
0.000169262
0.00326042
0.00016671
0.120194
0.00512578
0.000162367
0.000143573
0.00014464
0.00016276
0.000162093
0.000150276
0.000184449
0.000171651
0.000172698
0.0255568
0.000170682
0.000145263
0.0205134
0.00016832
0.000283377
0.0336338
0.000528228
0.000189169
0.000158782
2.9709e-05
0.00962875
0.000164674
0.000170855
0.000106114
0.00033736
0.000183039
0.000153306
0.106391
0.000176004
0.000150837
0.000148173
0.123597
0.000195364
0.000149673
0.000158477
0.00115826
0.000180738
0.000182549
0.00111762
0.000159569
0.000156837
0.000166813
0.000177212
0.000202468
0.0334041
0.000153479
0.000539759
0.0110919
0.103298
0.000159539
0.000162413
0.108829
0.000150296
0.00573409
0.000160845
0.000175005
0.00023022
0.000156419
0.000179043
0.0001489
0.118587
0.000265845
0.000166311
0.0224774
0.000167499
0.000140208
0.0264362
0.000183217
0.000147445
0.000173666
0.000170585
0.000156385
0.000157523
0.00019046
0.0163039
0.000184811
0.000197882
0.000176064
0.000173368
0.0026469
0.0319872
0.000160164
0.0636137
0.000563768
0.000147692
0.000442623
0.000151308
0.00261506
0.000241736
0.00030025
0.000176074
0.000213959
0.000147609
0.000190783
0.00145514
0.000262375
0.000158343
0.00016374
0.000158576
0.000140755
0.00512638
0.00015532
0.000164218
0.000309341
0.000149413
0.000191361
0.0192653
0.000143897
0.000163366
0.000147603
0.0661206
0.0395187
0.000227382
0.000367919
0.000209224
0.0001681
0.00019373
0.000169244
0.00014466
0.000149599
0.000156134
0.0987411
0.000207766
0.000159319
0.00788682
0.000165503
0.000259826
0.000150286
0.000247228
0.00035234
0.0113816
0.00015101
0.000181144
0.0685806
0.000191504
0.000152667
0.000168112
0.000141148
0.000171801
0.000161499
0.000150568
0.000143157
0.000141295
0.000150287
0.000179865
0.000174481
0.000160241
0.0329481
0.000152176
0.000157078
0.000172617
8.11854e-05
0.0533896
0.000149545
0.0321598
0.00016202
0.0152396
0.000185068
0.000181729
0.000203258
0.000155953
0.000156989
0.00016811
0.08862
0.000159639
0.000149431
0.000148893
0.00015804
0.00016167
0.000164836
0.00017953
0.000155246
0.000149586
0.000182414
0.00016434
0.112497
0.0134563
0.0118469
0.000387659
8.19458e-05
0.123632
0.000132778
0.000154701
0.000179007
0.00018844
0.000148885
0.000161027
0.000141339
0.00390731
0.00164205
0.00015188
0.000162161
0.0547543
0.00666942
0.000205361
0.000365673
0.00402626
0.000173051
0.000142636
0.00014514
0.000227217
0.00352744
0.0116105
0.000141262
0.000184876
0.000161405
0.000181
3.93495e-05
0.000181753
0.000142803
0.000150214
0.00018929
0.00014294
0.000147218
0.0298977
0.000174214
0.000164019
0.0948577
0.00181555
0.000152246
0.000196105
0.010593
0.0701788
0.000188249
0.00247859
0.0287635
0.000191947
0.000181239
0.00186258
0.000177212
0.0117409
0.122437
0.000230873
0.00447268
0.0207459
0.000165917
0.000539078
0.000150123
0.000180728
0.000158244
0.000141419
0.000149617
0.000147158
0.000379221
0.00307647
0.0635219
0.000146883
0.112728
0.000159778
0.000154745
0.000222446
0.00014309
0.0172542
0.000182003
0.000182623
1.8295e-05
0.000158348
0.000303644
0.000171261
0.000176926
0.000155674
0.000227434
0.0898706
0.0905461
0.000111943
0.000220313
0.000140111
0.00362316
0.000155612
0.000167252
0.000157537
0.000179447
0.0221217
0.000177832
0.000203654
0.00019076
0.00209216
0.000148457
0.000207744
0.0094368
0.000147119
0.000176829
0.000158365
0.000181552
0.000199186
0.000120249
0.000155318
0.000149892
0.000113573
0.000143872
0.0684549
0.0421035
0.000167479
0.0906542
0.000177194
0.000143777
0.0338584
0.000192738
0.000181789
0.000146918
0.000165771
0.122821
0.115352
0.000233178
0.000376573
0.000148082
0.122192
0.000205397
0.000155581
0.000175314
0.000174668
0.000181715
0.0330455
0.000159933
0.000142428
0.000243341
0.000155248
0.000157368
0.000173496
0.0745498
0.000205133
6.99069e-05
0.00022608
0.00197277
0.00299211
0.000148821
0.000216648
0.000158665
0.00652045
0.000207253
0.0374954
0.000144008
1.86323e-05
0.000149404
0.000152685
0.00297009
0.00455814
0.00471321
0.000198735
0.000159293
0.000174382
0.000156243
0.00018349
0.000174537
0.000162923
0.000170001
0.000271518
0.000150016
0.000153638
0.000151187
0.116994
0.000163836
0.00103523
0.000176969
0.0237175
0.000180492
0.000144721
0.000196425
0.000194806
0.0621121
0.000147745
0.120651
0.000143047
0.000182327
0.000150255
0.00349816
0.000152467
0.000140425
0.000150614
0.000161839
0.000177877
0.00019701
0.0842898
0.0210867
0.00286194
0.000143617
0.000199143
0.000144
0.00014446
0.000175517
0.00016602
0.000310983
0.000279951
0.000145951
0.000179848
0.000192953
0.000169888
0.000192867
0.0160305
0.000186676
0.000174304
0.0308513
0.000178081
0.000413115
0.000247092
0.000144189
0.00014609
0.00020997
0.000146618
0.000191604
0.00249362
0.000147057
0.000143818
0.000241459
0.000453906
0.000174184
0.0256763
0.000158402
0.000201977
0.112466
0.0296044
0.000278614
0.000238832
0.000485763
0.00855171
0.00014572
0.0996955
0.000144106
0.000230422
0.000200425
0.000163419
0.000164409
0.000142273
0.000210559
0.00537367
0.000222005
0.000461747
0.000141846
0.000147326
0.000207111
0.000146887
0.000146489
0.000227311
0.000184133
0.000161753
0.000144958
0.000167135
0.000179849
0.000156049
0.000169096
0.0322352
0.000146738
0.000184252
0.0066171
0.000156719
0.000182404
0.00879708
0.0874464
0.000147708
0.000149634
0.000200423
0.000195965
0.000230706
0.121127
0.00646805
0.000159861
0.000213006
0.000168618
0.000216761
9.008e-05
0.000964376
0.00016329
0.000194646
0.000143999
0.000173112
0.000144446
0.00408887
0.000168077
0.000157166
0.00167018
0.000157837
0.121036
0.0221172
0.000862863
0.000194023
0.00014714
0.117359
0.000148804
0.015854
0.000214452
0.000148426
0.00087028
0.000144649
0.000182017
0.00494992
0.000150084
0.01186
0.000163164
0.000148291
0.000313951
0.00468376
0.000175278
0.000178123
0.000666011
0.000162608
0.00014731
0.000160667
0.120865
0.000148471
0.000150325
0.000114442
0.0511077
0.000191235
0.00087878
0.000190338
0.000104005
0.000140959
0.0447283
0.000141576
0.000190927
0.000179222
0.000149337
0.000185773
0.000156555
0.000212156
0.000179125
0.000202476
0.00017938
0.000144379
0.000190948
0.0058783
0.000149603
0.000149865
0.000140884
3.81756e-05
0.000149499
0.00014977
0.000180354
0.000145393
0.000146948
0.0655457
0.000165048
0.000240748
0.000161653
0.000147742
0.000153988
0.116412
0.124182
0.00376122
0.0255584
0.00018098
0.00143723
0.0013219
0.000169773
0.000159455
0.000142905
0.000301519
0.000199352
0.00429607
0.0313235
0.000151167
0.102289
0.000154807
0.000146826
0.000872009
0.000197157
0.083384
2.02478e-05
0.000197905
0.00219458
0.000155855
0.000159104
0.000239092
0.00245209
4.90952e-05
0.0222729
0.00489651
0.00409228
0.000148648
0.000161279
0.000184451
0.000146761
0.000171708
0.000151803
0.00019363
0.000191775
0.00018183
0.00018719
0.0806465
0.000149499
0.000156261
0.000246461
0.000146397
0.00018001
0.00016531
0.0940399
0.012546
0.000232002
0.000160563
0.00247413
0.00883636
0.000219838
0.000123907
0.000148335
0.00505609
0.0806304
0.000187117
0.000140711
0.0998568
0.0126714
0.0409293
0.00511788
0.000216812
0.000149713
0.000215135
0.000221809
0.000203077
0.000158
0.000210794
0.000188969
0.002733
0.000146302
0.119334
0.000202233
0.000167146
0.000165279
0.000141372
0.000177394
0.000152697
0.000149405
0.000182597
0.00457235
0.000210685
0.00017932
0.0273915
0.000239448
0.000165355
0.000231035
0.000180981
0.000143292
0.000173154
0.00157281
0.000194524
0.000149734
0.00319594
0.000177142
0.000434656
0.000172041
0.000162418
5.63037e-05
0.000208878
0.000167347
0.0278729
0.000152831
8.64305e-05
0.000287728
0.000142758
0.00385216
0.0472073
0.000155709
0.000219099
0.000158859
0.000156893
0.000182269
0.000179861
0.00104102
0.000149241
0.000146604
0.000199819
0.000177524
0.00450396
0.000179383
0.000168724
0.000179173
0.000150167
0.000378902
0.000304612
0.000210313
0.00519006
0.00044181
0.000193777
0.000180427
0.00544102
0.000174857
0.000151049
0.000186404
0.000181175
0.000123336
0.000166732
0.00795743
0.000177865
0.000266868
0.00014825
0.0590115
0.000169278
0.000200565
0.00014554
0.000203353
0.000157039
0.000151341
0.000149222
0.000202088
0.00015458
0.000185182
0.000154011
4.57704e-05
0.000207886
0.0248855
0.000747048
2.19019e-05
0.0501026
0.000210904
0.0189608
0.000160932
0.000155841
0.00015275
0.000155782
0.00014408
0.000200849
0.0122316
0.000231677
0.000141687
0.0398566
0.0159463
0.000196428
0.000166771
0.000216008
0.0643383
0.0306884
0.000212064
0.000196707
0.0123345
0.000193494
0.000167554
0.000171515
5.46576e-05
0.000166694
0.000143401
0.000216993
0.000144011
0.000178026
0.00015028
0.000342652
0.0107379
0.000226513
0.000188606
0.0514146
0.0174052
0.000175046
0.000183115
0.0784689
0.0669088
0.000145754
0.000373154
0.00032451
0.000170119
0.000338083
0.0283561
0.000160219
0.000146933
0.000155865
0.00243029
0.000194602
0.0980865
0.000255916
0.000190401
0.000167545
0.00017951
0.000162065
0.000166809
0.122988
0.0002067
0.000212126
0.000161757
0.000179888
0.000148798
0.000213652
0.000162575
0.000201371
0.000208013
0.000169088
0.0390546
0.000200799
0.106733
0.000163289
0.000147951
0.000167541
0.000166738
0.000325185
0.000148587
0.00923533
0.00019688
0.000183453
0.000220288
0.000141141
0.000257997
0.00015126
0.000141225
0.000171879
0.0001427
0.000210109
0.000161682
0.000151968
0.000171383
0.0574682
0.000180393
0.000177546
0.000145158
0.000177425
0.000177559
0.000143509
0.000167609
0.00512849
0.049837
0.000145151
0.000170138
0.000155764
0.000190129
0.000143569
0.000481791
0.0593466
0.000509307
0.000148329
0.12352
0.000142674
0.000212387
0.000242638
0.000315749
0.000167584
0.000164656
0.000386542
0.000216934
0.0623986
0.000157464
0.000159282
0.000187861
0.000178612
0.000142699
0.000149039
0.000243586
0.000443074
0.000168231
0.000199226
0.000189037
0.00258725
0.00016169
0.000146424
0.000154481
0.000144671
0.0645358
0.00018757
0.000297183
0.000146727
0.000194974
0.000145887
0.000167031
0.000146176
0.000234462
0.00535469
0.000199651
0.000142698
0.000367539
0.0017404
0.000144862
0.000217236
0.000162746
0.00304952
0.099908
0.00016423
0.000482229
0.000169735
0.000213821
0.0318707
0.00014897
0.000148722
0.00018824
0.000569483
0.0126321
0.000168986
0.000141121
0.0303212
0.000462948
0.000151151
0.000157587
0.00189192
0.000180495
0.000148344
0.000379689
0.000142667
0.000157442
0.00014326
0.000142947
0.000266622
0.00170752
0.000218478
0.00412675
0.000198533
0.00014365
0.000147968
0.000142899
0.000153856
0.000201141
0.00249264
0.000194406
0.000178372
0.000193473
0.0214708
0.000189097
0.000155033
0.000398499
0.00019377
0.00449074
0.000150952
0.0205191
0.000216857
0.0893976
0.0458289
0.000192263
0.00015267
0.088978
0.000143556
6.67733e-05
0.00020766
0.000189148
0.0025889
0.00149033
0.00522859
0.000189051
0.0195547
0.00017176
0.000492188
0.0235494
0.121147
0.000143305
0.00133332
0.000145312
0.000171803
0.000168519
0.00017909
0.000206862
0.000157598
0.000177293
0.020891
0.000192781
0.000189905
0.0121537
9.20478e-05
0.0036413
0.00677985
0.0148318
0.000140483
0.000142307
0.068431
0.00014533
0.000140548
0.000156663
0.000158336
0.000259974
0.000186117
0.000151763
0.00016633
0.000189486
0.0127356
0.105891
0.000215516
0.000206867
0.000163709
0.000233751
0.00019621
0.000144938
0.00308478
0.000489489
0.000177737
0.0970936
0.00293226
0.000161147
0.0395213
0.000224954
0.000200572
0.000149795
0.000169881
0.00179446
0.000181927
0.00718448
0.000184662
0.000208011
0.121914
0.000154367
0.000142819
0.000197244
0.0191065
0.00513876
0.000158452
0.000272533
0.000208254
0.00266076
0.000168508
0.00452036
0.000178693
0.0884381
0.00015919
0.000166632
0.00249964
0.000116893
0.000214862
0.0276718
0.00014573
0.00025419
0.000196648
0.00120188
3.19641e-05
0.000190609
0.000146783
0.000148442
0.000198569
0.000166388
0.000164868
0.000180689
0.000142166
0.00113597
0.000215399
0.000193966
0.00219745
0.00135914
0.000142881
0.0296134
0.0812405
0.000186745
0.000854656
0.0198758
0.000179009
0.000540166
0.000208681
0.000171023
0.0100527
0.000146657
0.122563
0.000171767
0.047785
0.0212241
0.0789384
0.00014328
0.000320232
0.000196748
0.000893812
0.000159875
0.0278989
0.000773823
0.000181662
0.000183843
0.000156095
0.000147093
0.000193262
0.000196231
0.00037719
0.0112107
0.00484647
0.000147069
0.000220079
0.000168186
0.00114085
0.0270511
0.000201478
0.122555
0.000194428
0.000173798
0.000172147
0.000146203
0.00014557
0.000161844
0.029366
0.000172221
0.000143296
0.000168249
0.000146542
0.000157062
0.000260134
0.000143182
0.000194817
0.000163931
0.104736
0.0362063
0.000185574
0.00233503
0.0155218
0.000179804
0.0930169
0.000168743
0.00014048
0.000141716
0.000183575
0.0295708
0.000177986
0.00018216
0.000194839
0.000206556
0.000209021
0.0527161
4.55547e-05
0.000147857
0.000214051
0.000157062
0.000181094
0.0449803
0.000398432
0.00014747
0.0003019
0.000142481
0.000157321
0.100302
0.000142932
0.000259256
0.000277271
0.000198485
0.000148364
0.0171136
0.000190169
0.000265482
0.000194261
0.000200086
0.00018609
0.11512
0.000145743
0.00149364
0.00015172
0.0394541
0.0281155
0.000468318
0.00019753
0.000163755
0.000158938
0.000176257
0.00015945
0.000210768
0.000375235
0.000157911
0.000240002
2.02266e-05
0.000141582
0.000142938
0.112238
0.000317416
0.000195677
0.000866377
0.000142447
0.000178728
0.00016957
0.115991
0.121752
0.000178273
0.000189491
3.24878e-05
0.000170236
0.00403601
0.000144736
0.000167322
0.0293079
0.0685176
0.000474698
0.000146081
0.000161844
0.000142806
0.000152174
0.0317598
0.031453
0.000167934
0.000189492
0.00014806
9.68238e-05
0.000166768
0.000217875
0.0223024
0.000203746
0.000162124
0.00425552
0.00673673
0.000879185
0.000148251
0.00193141
0.00561774
0.000262986
0.000299646
0.00548261
0.000142067
0.000186561
0.000168926
0.000182973
0.000187751
0.000142949
0.000197403
0.000146302
0.000213276
0.0301345
0.000175051
0.000171885
0.0346543
0.000146323
0.0319505
0.000162855
0.00015386
0.000192167
0.000185853
0.000162904
0.000179494
0.000194169
0.000142164
0.000275736
0.000158245
0.000210809
0.000155125
0.000148002
0.000185453
0.000155408
0.000166066
0.000175999
0.000170246
0.0204703
0.000146625
0.000160062
0.00421699
0.000136421
0.000163367
0.000170872
0.000189349
0.00017667
0.000195084
0.000142499
0.00302848
0.000187025
0.00521443
0.00389146
0.000175172
0.00125069
0.00323566
0.000167679
0.000173637
0.000164327
0.000118725
0.105806
0.000164955
0.000199946
0.000144946
0.000178867
0.000146545
0.000166299
0.000160455
0.000144961
0.000198735
0.00120214
0.000149796
0.000194253
0.000141895
0.0737081
0.00225294
0.000141622
0.000213679
0.000418262
0.000193899
0.000151808
0.00651515
0.0628415
0.000291102
0.000189417
0.000155454
0.000192112
0.000197446
0.000186966
0.000201783
0.000151423
0.000193441
0.000152657
0.0351061
0.086706
0.114877
0.000192766
0.000171391
0.000177355
0.123775
0.000177887
0.000160246
0.000151861
0.000194884
0.000216532
0.000193427
0.000152531
0.000146013
0.000204491
0.000151557
0.00115578
0.000179876
0.0680923
0.00016535
0.00014497
0.000180888
0.000243018
0.00025689
0.000146047
0.000187719
0.0614759
0.000153017
0.000146298
0.000191374
0.0291583
0.000598224
0.000174465
0.000174501
0.012346
0.00430352
0.000209705
0.000170771
0.000166674
0.0206867
0.000189766
0.000142227
0.000144494
0.000214832
0.000174177
0.0570887
0.000149278
0.00016907
0.000166012
0.000149981
0.0869042
0.000162818
0.000191908
0.000202475
0.00379744
0.0913578
0.00710321
0.109769
0.0001653
0.000150069
0.000286979
0.000149797
0.000417362
0.097267
0.124279
0.000142855
0.000151124
0.0001603
0.000144087
0.000162198
0.000179151
0.000345294
0.000211054
0.000191164
0.000145499
0.00018131
0.000181586
8.37195e-06
0.000145093
0.000171308
0.000108602
0.105743
0.00164253
0.000386631
0.000208431
0.000308355
0.00014459
0.000181304
0.0856156
0.000164207
0.0172485
0.000180101
0.000248912
0.000197381
0.000149907
0.00019483
0.000156495
0.000152367
0.00203652
0.000166517
0.0885735
0.000154503
0.000157432
0.00015239
0.000179443
0.0345178
0.000142056
0.000142931
0.000140573
0.0377817
0.000182183
0.000181082
0.00163252
0.0666846
0.078919
0.000166319
0.000154284
0.00519069
0.0233762
0.000148801
0.000170284
0.000156313
0.000158067
0.000186509
0.000152295
0.000155786
0.0863719
0.000143691
0.000148078
0.000141219
0.0214001
0.000214367
0.0652143
0.000148801
0.000141064
0.000142449
0.000170732
0.000146267
9.59025e-05
0.000157408
0.000145392
0.000161507
0.000159102
0.000146284
0.0709261
0.00655666
0.0930481
0.114327
0.00021486
0.000141357
7.35027e-05
0.000179731
0.000198074
0.000154956
0.000146325
0.000148225
0.00021404
0.000176918
0.000273598
0.00691805
0.000989763
0.000164355
0.000167641
0.000162741
0.000169339
0.000216291
0.00015232
0.000141159
0.0958861
0.000175967
0.00727265
0.00401557
0.000180327
0.094612
0.000155207
0.00016448
0.000182326
0.000185993
0.000177848
0.000138128
0.000191339
0.000197482
0.0001427
0.0001538
0.000873335
0.0402462
0.000188425
0.000192931
0.00018275
0.000242731
0.000163305
0.000152205
0.000157495
0.0326015
0.000193279
0.00019481
0.000187887
0.000188785
0.00238675
0.000218468
0.000197726
0.000187018
0.0568389
0.00112563
0.000153055
0.0111458
0.000160273
0.0799834
0.000163434
0.000164582
0.014352
0.00323926
0.000191307
0.000160801
0.00020619
0.000269604
0.0257689
0.000187818
0.0393917
0.00016788
0.000155804
0.000216972
0.000179315
0.000156461
0.000145696
0.00241176
0.0313164
0.000149367
0.000167325
0.000197827
0.000629261
0.000185186
0.0001927
0.000203521
0.000397429
0.0434038
0.000179502
0.00015553
0.000189847
0.000144631
0.000141033
0.000140716
0.0905837
0.0332181
0.000185969
0.000174904
6.00056e-05
0.0268644
0.000148537
0.000188344
0.123023
0.000142241
0.0197592
0.00014994
0.000214874
0.000153365
0.0375251
0.0656374
0.000157571
0.0718416
0.0345269
0.000167244
0.000169832
0.0933873
0.000159798
0.0357091
0.120717
0.000149259
0.000185546
0.00551566
0.000147337
0.000142653
0.000210572
0.000187422
0.000143252
0.00988524
0.0594825
0.000156769
0.0704386
0.0766848
0.000176308
0.00014404
0.0777934
0.000144967
0.000142325
0.000151505
0.000153227
0.0330187
0.0588193
0.0124489
0.000194657
0.0638666
0.000159828
0.0491891
0.00444244
0.000147496
0.000142865
0.000207011
0.000181538
0.000141011
0.00453416
0.0450659
0.000200826
0.000140699
0.0650659
0.000209394
0.000166983
0.000826311
0.000148101
0.000151136
0.000184784
0.000240746
0.0300851
0.0939561
0.000204599
0.000153056
0.0220189
0.000205086
0.000153662
5.25704e-05
0.000186143
0.000143239
0.000144585
0.025479
0.000162446
0.000273305
0.072355
0.000191456
0.00017785
0.000153891
0.000306242
0.0674626
0.0784969
0.00014471
0.00171495
0.000213811
0.0553054
0.000157103
0.000539911
0.00015262
0.000149964
0.000208357
0.00493571
0.000364266
0.00792777
0.000183167
0.000210803
0.000166272
0.000159098
0.000142918
0.00461793
0.00015596
0.000259987
0.000216867
0.000154226
0.00652017
0.000190628
0.0827706
0.000224529
0.000150766
0.000183856
0.000128351
0.000147853
0.00073554
0.00010347
0.000224638
0.0579116
0.000162275
0.000154409
0.000160141
0.000190644
0.000210205
0.000200088
0.000215136
6.39252e-05
0.0204075
0.0167383
0.000144914
0.000150638
0.000166912
0.000878685
0.000159688
0.000146155
0.09972
0.000148262
0.000146532
0.000141175
0.123187
0.004151
0.000141188
0.000196515
0.000146077
0.00108091
0.000267032
0.0552463
0.00215775
0.000205307
0.000149297
0.0338987
0.0022428
0.00254276
0.000404779
0.00976395
0.00014662
0.000140636
0.018751
0.000142535
0.000118756
0.000210597
0.000150508
0.00014426
0.000167681
0.000142756
0.000243625
0.000166162
0.000178137
0.000151314
0.07675
0.00014227
0.00017514
0.000192227
0.000335693
0.000156256
0.0835854
0.000229013
8.77422e-05
0.0009994
0.000185056
0.000146862
0.000218055
0.0927152
0.000184951
0.000191221
0.000141907
3.89344e-05
0.000151662
0.000197133
0.000170627
0.000154367
0.093045
0.000190906
0.0447483
0.000192311
0.000141032
0.000204489
0.000140972
0.00014998
0.000168619
0.00317239
0.000162692
0.106222
0.0204362
0.00047157
0.000181314
0.000158898
0.000163752
0.0422393
0.0383598
0.000239432
0.000148047
0.000190985
0.000193887
0.000155248
0.0115147
0.000151836
0.000148583
0.000171736
0.000148315
0.000151131
0.0002101
0.000193291
0.000173578
0.000144218
0.000145175
0.0459944
0.000161773
0.000172547
0.000167004
0.000235237
0.000155779
0.00121516
0.000838051
0.000187351
0.000214524
0.000358397
0.000211878
0.0351816
0.000215654
0.000224716
0.000214824
0.000146331
0.000178896
0.000189998
0.000263955
0.0595625
0.000237465
0.000161362
0.000154377
0.000154338
0.0458243
0.000221185
0.00267444
0.000314781
0.0387785
0.000203551
0.00442963
0.000185123
0.0121199
0.0425033
0.000203703
0.000183557
0.000147301
0.000184899
6.23197e-05
0.000151202
0.00064202
0.000171214
0.000180274
0.00020132
0.000153777
0.000148188
0.000370854
0.000287961
0.000184531
0.000140649
0.00019251
0.000225257
0.000189919
0.00101297
0.000156729
0.000227937
0.000149519
0.000207513
0.000172506
0.000182764
0.000182527
0.062095
0.0027773
0.000145826
0.000444387
0.0312266
0.000148126
0.000148266
0.000190065
0.000148915
0.000177992
0.00014021
0.000228945
0.000176603
0.031676
0.0638705
0.000188259
0.00213887
0.000154278
0.00015988
0.0695655
6.66047e-05
0.000193607
0.000194213
0.000144422
0.000145739
0.000189612
0.000186963
0.000146422
0.000383826
0.000197049
0.0805006
0.000805196
0.000197883
0.000150826
0.000149735
0.000420696
0.000144695
0.000147588
0.000195596
0.00014371
0.00612871
0.000183008
0.000180567
0.000177486
0.000166831
0.000212947
0.101726
0.000178635
0.00018732
0.0046137
0.000146613
0.000565626
0.000169514
0.000807623
0.001283
0.000242803
0.000150021
0.000162174
0.000167892
0.000219905
0.00378456
0.000185988
0.00135742
0.000148458
0.000162438
0.000197158
0.0887632
0.000289311
0.00019749
0.000195856
0.00016829
0.00118433
0.0203045
0.000171709
5.15695e-05
0.000147845
9.19114e-05
0.000172324
0.00549796
0.000197682
0.000172123
0.000179393
0.000189047
0.000164995
0.000194558
0.000211379
0.0671568
0.00319897
0.00014489
0.0463306
0.00017041
0.0122848
0.000145415
0.000149844
7.7693e-05
0.000148655
0.000194552
0.000187392
0.000142764
0.0110011
4.23614e-05
0.0497915
0.000300414
0.00019562
0.000187667
0.00026865
0.000148444
0.000142636
0.100823
0.000172485
0.000184758
0.000315483
0.000142634
0.000190448
0.000168726
0.00018593
0.000223941
0.000193142
0.000165445
0.000172692
6.86343e-05
0.00932417
0.000225442
0.0757868
0.000219214
0.000143224
0.000305341
0.00480678
0.000202316
0.000194047
0.000200789
0.000141931
0.000154041
0.100482
0.0001918
0.00237208
0.000157423
0.000934199
0.000194808
0.000276849
0.000146734
0.000184142
0.000266795
0.000144873
0.000147027
0.00344743
0.000191492
0.0579029
0.000193828
0.000280171
0.000234501
0.000204318
0.000196895
0.000142686
0.000160533
0.000288453
0.00375777
0.00351896
0.000159377
0.000193543
0.000828598
0.00038816
0.0710286
0.0319877
0.000199517
0.000231231
0.000180094
0.0508051
0.000218681
0.000227828
0.00161072
0.00016554
0.000179549
0.000196675
3.65892e-05
0.000153651
0.00021897
0.00017807
0.00026793
0.000199411
0.0003391
0.000168843
0.000148468
0.000179421
0.00312016
0.000201915
0.00352062
0.00377428
6.88405e-05
0.000163884
0.000234378
0.000163203
0.000155722
0.000186462
0.000142612
0.000146579
0.000191979
0.000159256
0.000197832
0.000186722
0.0716556
0.000156345
0.000143517
0.0151141
0.000187193
0.000148639
0.000318359
0.000186675
0.037298