/*--------------------------------*- C++ -*----------------------------------*\
| =========                 |                                                 |
| \\      /  F ield         | OpenFOAM: The Open Source CFD Toolbox           |
|  \\    /   O peration     | Version:  v2012                                 |
|   \\  /    A nd           | Website:  www.openfoam.com                      |
|    \\/     M anipulation  |                                                 |
\*---------------------------------------------------------------------------*/
FoamFile
{
    version     2.0;
    format      ascii;
    class       volScalarField;
    location    "100";
    object      nut;
}
// * * * * * * * * * * * * * * * * * * * * * * * * * * * * * * * * * * * * * //

dimensions      [0 2 -1 0 0 0 0];


internalField   nonuniform List<scalar> 
14479
(
0.0042353
0.00555031
0.000530559
0.00668716
0.00183636
0.00654213
0.00698026
0.000311131
0.000913782
0.00067524
0.00684903
0.00082562
0.000794503
0.0317794
0.0162054
0.00645801
0.00699248
0.0100393
0.00676225
0.00704156
0.000465004
0.00224337
0.00758115
0.0399543
0.00684273
0.00675864
0.00010469
0.00103794
0.0039801
0.000173222
0.000489748
0.0397394
0.00752752
0.00739743
0.000566774
0.000455147
0.00687087
0.00642551
0.0136792
0.000389666
0.00640816
0.00681143
0.00170782
0.0040107
0.00687632
0.00646559
0.00672795
0.0290907
0.00730603
0.00681553
0.00110744
0.000767239
0.0067549
0.000871772
0.00677676
0.000935649
0.00115522
0.00255069
0.0197894
0.00238487
0.00595253
0.00466268
0.0124467
0.00673382
0.00697579
0.00746574
0.0307162
0.0272159
0.00675468
0.00379628
0.00165249
0.00672462
0.00157542
0.000478722
0.00552507
0.0067276
0.00672059
0.0141142
0.00675483
0.0158749
0.00676811
0.000322576
0.0161459
0.000422376
0.00163515
0.00688077
0.00686315
0.00699145
0.000300281
0.00196875
0.000720786
0.0182508
0.0167318
0.00673133
0.00961763
0.00674981
0.00675919
0.00672692
0.00673603
0.0328126
0.00187894
0.00641044
0.000812844
0.000721293
0.0237278
0.000419505
0.00203279
0.00728534
0.000279841
0.0324083
0.00153106
0.0194788
0.00659656
0.000863775
0.00145745
0.000681531
0.00677837
0.00065844
0.00248419
0.00430192
0.00673903
0.0186117
0.00124412
0.00673616
0.00552709
0.00676795
0.00214652
0.00174927
0.000755373
0.00920797
0.0028339
0.00815639
0.000165189
0.000118019
0.00289303
0.000604844
0.000210251
0.000347113
0.00276921
0.000157482
0.0124705
0.0251296
0.00721522
0.012056
0.00676841
0.0060757
0.0275763
0.00698557
0.00530869
0.000658752
0.0279852
0.00674039
0.0191376
0.00117623
0.00676004
0.00718804
0.0494117
0.0175127
0.0324496
0.000721759
0.000354932
0.00663882
0.00674057
0.00263408
0.0194975
0.00735243
0.00675335
0.000307751
0.000564498
0.0313094
0.00370519
0.00103976
0.00634017
0.00104186
0.00676583
0.00700836
0.000599408
0.00672563
0.00756632
0.00137271
0.000716189
0.00884463
0.0319697
0.00681687
0.00633461
0.00417369
0.000231774
0.0219601
0.00252299
0.000114584
0.0392269
0.00124788
0.00600058
0.00852174
0.00636637
0.000860546
0.00694854
0.00739609
0.000819437
0.00673732
0.000669014
0.00680903
0.00671914
0.00675708
0.000601812
0.00754395
0.00941423
0.00618404
0.00694764
0.000707405
0.000969477
0.00460283
0.00079729
0.000672036
0.000431226
0.0295891
0.0298876
0.00722371
0.0295172
0.00710375
0.026975
4.02528e-05
0.00163534
0.00664397
0.000218902
0.00652809
0.0268373
0.00671433
0.000704397
0.00771051
0.00398645
0.00767296
0.0163068
0.00700383
0.00663121
0.0303137
0.00308102
0.000513808
0.0257903
0.00676292
0.00683731
0.00673807
0.00081397
0.00684037
0.00497021
0.000311208
0.0205852
0.0243389
0.00366319
0.00676271
0.00709339
0.00756405
0.00855495
0.000555318
0.011461
0.0067379
0.00076546
0.00697035
0.00674019
0.00675436
0.00671422
0.00683475
0.00675384
0.00672811
0.00672879
0.000797754
0.00201313
0.00676425
0.0209223
0.00065439
0.000721181
0.0075181
0.0234108
0.000937807
0.000336083
0.00772133
0.000345716
0.00702958
0.000790635
0.00152021
0.000403112
0.00618478
0.00232685
0.00151308
0.00027265
0.0016439
0.00066823
0.000448151
0.000970882
0.0012611
0.000640733
0.00525725
0.00677467
0.0053171
0.00353865
0.0105307
0.0280946
0.00289996
0.00054047
0.00764147
0.0403809
0.0161087
0.00672767
0.00640032
0.000796654
0.00507407
0.00666224
0.00172304
0.00693027
0.000686838
0.00713666
0.00179631
0.00159004
0.00700334
0.000804207
0.000382832
0.00120118
0.0015716
0.000646616
0.00680562
0.032995
0.000507509
0.0253211
0.00605527
0.00624664
0.029688
0.00879167
0.00646151
0.000908232
0.00148462
0.00620836
0.00691926
0.00679401
0.00067924
0.00643446
0.00214257
0.0264717
0.000794735
0.00286168
0.00272937
0.00508659
0.00236701
0.0069079
0.000773983
0.00775991
0.000799397
0.00031352
0.000664983
0.000735834
0.00692482
0.00674667
0.0017744
0.00179879
0.0172249
0.000846378
0.00794442
0.000263491
0.000783571
0.00640477
0.00235226
0.00733117
0.00139568
0.000730845
0.00349355
0.00161837
0.00736063
0.00715694
0.00447774
0.000582103
0.00713645
0.00642924
0.00901001
0.00648333
0.000322251
0.0108187
0.000272275
0.00453377
0.000318816
0.000907741
0.00264367
0.000853664
0.000239437
0.00674441
0.00679706
0.00116731
0.00717146
0.0441501
0.00486577
0.00458118
0.00267456
0.000256066
0.000697996
0.00150982
0.000609873
0.00750526
0.00805547
0.00683538
0.0515666
0.000667087
0.000368139
0.000863923
0.000584339
0.000589591
0.00360342
0.000455944
0.00165851
0.00101872
0.000790761
0.00124469
0.000682751
0.00338289
0.00140845
0.000522201
0.00079696
0.00628288
0.00428431
0.00362673
0.00176447
0.00665586
0.000317883
0.00254653
0.00225021
0.0427752
0.00448988
0.0184755
0.00264813
0.0014267
0.000905019
0.00718441
0.00689627
0.00685613
0.000530428
0.0298322
0.033795
0.0152567
0.000648726
0.00244074
0.00838376
0.000629336
0.00491769
0.00465222
0.00699297
0.00697844
0.0161077
0.0068207
0.00672916
0.00137271
0.0508917
0.00110685
0.00686668
0.00695609
0.00525161
0.00655752
0.000788187
0.00644029
0.000525001
0.00613507
0.000230471
0.00135428
0.000312541
0.000231968
0.00398763
0.00686854
0.000640082
0.00748311
0.00671841
0.000460898
0.000659053
0.00312665
0.00655693
0.00671595
0.000591835
0.00627364
0.00642645
0.0159322
0.0123007
0.000304859
0.0270371
0.00068866
0.00666521
0.000210125
0.000588834
0.00387484
0.00687659
0.000444895
0.00672992
0.0088861
0.00686358
0.0318864
0.00269488
0.00689308
0.00680722
0.000225357
0.00502985
0.00679866
0.00686185
0.00674264
0.000220275
0.00740908
0.000349989
0.000683919
0.00558341
0.00589398
0.000454152
0.0309594
0.000628091
0.000280199
0.0194283
0.00144223
0.00643728
0.00685104
0.00164819
0.00128907
0.00135882
0.0027365
0.000651528
0.000165937
0.00173879
0.0232426
0.000564082
0.0179729
0.00232928
0.00671597
0.000810697
0.00685479
0.000590979
0.00622252
0.000768675
0.0195493
0.00677848
0.0274097
0.00103647
0.00103908
0.00687611
0.00674132
0.00735355
0.00111435
0.00681841
0.000465524
0.000642915
0.000883305
0.0218996
0.000698963
0.00676617
0.0456453
0.000760718
0.00770453
0.0317123
0.00285967
0.00257267
0.00175435
5.81241e-05
0.0033298
0.0061558
0.000699671
0.0058307
0.00201451
0.000715387
0.00651218
0.0260687
0.00732323
0.0029764
0.00659719
0.0426647
0.000696508
0.00687781
0.00639363
0.00803608
0.000503092
0.00807863
0.00636918
0.00102051
0.00242647
0.00741021
0.000516536
0.000608738
0.00110868
0.00199527
0.000839075
0.00598767
0.0242882
0.00135091
0.00141779
0.0410669
0.00687649
0.0187727
0.00112181
0.00058896
0.00596385
0.00155364
0.000569648
0.00662854
0.0423004
0.00144742
0.00703005
0.050495
7.09889e-05
0.00680565
0.0256487
0.00445411
0.00580632
0.000657033
0.00615579
0.00262419
0.000988187
0.000724087
0.0178316
0.000805031
0.00061894
0.00138755
0.000663497
0.00119278
0.00818488
0.00243644
0.0108814
0.000988509
0.00685152
0.000355169
0.00658575
0.0180361
0.00828166
0.00104899
0.000622816
0.0015078
0.00509596
0.000740285
0.00659044
0.00171939
0.00152257
0.000700355
0.00691198
0.00674778
0.000607072
0.00174131
0.00735595
0.0120674
0.00686826
0.000826214
0.0433456
0.00672819
0.000919544
0.00518155
0.0201143
0.019278
0.000304637
0.00210191
0.000731572
0.00704962
0.000591287
0.000749196
0.00675913
0.00318447
0.00173865
0.0229601
0.000553137
0.00695733
0.000454382
0.000801075
0.0109421
0.00329065
0.000896124
0.00453129
0.0134101
0.00651158
0.000673786
0.0111583
0.000676567
0.00717492
0.000846403
0.00672946
0.00669031
0.00105562
0.00710983
0.00686235
0.00673443
0.00704703
0.000878888
0.000682165
0.00730397
0.0306516
0.00241124
0.00152697
0.000620585
0.000319047
0.00574979
0.00708811
0.0264187
0.00730958
0.0395458
0.00324093
0.00397769
0.000330739
0.00151918
0.00148588
0.000928777
0.0300455
0.00731625
0.00320379
0.00692335
0.00145575
0.00698963
0.00622368
0.000522695
0.00160515
0.00702995
0.000756541
0.00716132
0.0270473
0.0148736
0.0142044
0.00430871
0.00239912
0.0342152
0.00177096
0.00132241
0.00748369
0.0076068
0.00504965
0.00133361
0.00673232
0.00153787
0.000232288
0.00398565
0.00125728
0.00700975
0.00458328
0.000254333
0.00175749
0.00170011
0.000620446
0.00684792
0.00677068
0.000284098
0.000643518
0.028014
0.00673523
0.000455952
0.00102507
0.000770642
0.00235251
0.00074978
0.0067429
0.00284751
0.000733741
0.00674555
0.00622842
0.0274913
0.000775987
0.00641449
0.0234451
0.00195733
0.00230644
0.00066889
0.0256102
0.0219143
0.000387342
0.0011249
0.0281901
0.000729302
0.000477675
0.00892395
0.00756729
0.00364317
0.046924
0.00895057
0.0134442
0.00587654
0.000867036
0.000407205
0.00276726
0.000479747
0.00252164
0.00673467
0.00694016
0.00684608
0.00183739
0.0198103
0.0237053
0.005679
0.0331621
0.00116227
0.00213801
0.000271923
0.00674661
0.0436295
0.00071118
0.000586267
0.000220195
0.00636395
0.00237944
0.000440016
0.000549322
0.00155474
0.000797113
0.0218974
0.0304814
0.0006243
0.000316022
0.00676006
0.00962797
0.0016821
0.00094096
0.00161257
0.00118824
0.0214134
0.00724691
0.00796978
0.000773315
0.00601863
0.00694745
0.00138193
0.0230263
0.00541467
0.00755767
0.0072808
0.000416559
0.000536844
0.00137024
0.00141959
0.00362796
0.00137977
0.00673313
0.0153928
0.0101504
0.00720698
0.0357699
0.000652864
0.00674617
0.031952
0.000647712
0.000791208
0.00583867
0.00714326
0.0404048
0.0281919
0.000470866
0.00129959
0.00693656
0.033883
0.000274763
0.00158878
0.000593544
0.000974023
0.000813061
0.0265014
0.00628035
0.0067752
0.000515714
0.00175966
0.000999093
0.00749564
0.0154369
0.00130926
0.000185134
0.000207136
0.00428635
0.0194886
0.00653081
0.000885169
0.00117163
0.0223423
0.00026069
0.00419774
0.00673344
0.000123555
0.00403519
0.00683248
0.0114603
0.000272776
0.0118867
0.00768429
0.00122206
0.000965599
0.00633771
0.00105424
0.00789332
0.00736018
0.000760755
0.00779832
0.00278423
0.00715738
0.00237499
0.029407
0.00201462
0.00247424
0.000600064
0.0232217
0.000868176
0.00674362
0.000882738
0.000636006
0.0234705
0.00509415
0.0391423
0.00674635
0.000528418
0.00286116
0.00561996
0.00713832
0.00680671
0.00685159
0.00733438
0.00664139
0.000454766
0.0290462
0.046746
0.0119575
0.00682601
0.00676936
0.00674604
0.006869
0.00616982
0.00721224
0.00205251
0.00156449
0.00683263
0.000533
0.000534094
0.00614964
0.000648357
0.0167715
0.00630857
0.00720668
0.0252569
0.00662528
0.00192969
0.00886231
0.00686343
0.00680016
0.000288807
0.00683726
0.000758356
0.00118437
0.00691898
0.00673304
0.000597432
0.00242659
0.000606502
0.0256204
0.00137514
0.0062745
0.0336235
0.0257978
0.00199438
0.00048811
0.00242702
0.0110923
0.00520422
0.0221158
0.0067363
0.0064028
0.00640804
0.000906691
0.000949344
0.00683569
0.00132
0.0153567
0.000657972
0.0043331
0.0068238
0.0049093
0.000952676
0.00652349
0.00680943
0.00897376
0.000767605
0.00104274
0.00662843
0.000778755
0.00612086
0.0034664
0.00725088
0.0270073
0.00658991
0.000532678
0.0175355
0.00159239
0.000642691
0.0215625
0.0336799
0.0068273
0.00547534
0.00242476
0.00765413
0.000250754
0.0281135
0.00896992
0.00692875
0.000287502
0.00108424
0.000267694
0.000128502
0.00107838
0.000965888
0.000423143
0.0067453
0.000826272
0.00665501
0.000846493
0.00678704
0.00128446
0.00346512
0.00682972
0.0356504
0.0191006
0.00104531
0.000672584
0.00542544
0.0548284
0.00690769
0.0169125
0.000275227
0.00387618
0.000550359
0.00675746
0.000615362
0.000474085
0.00282071
0.000354914
0.00080144
0.00684056
0.00457826
0.0034481
0.00760577
0.000636319
0.00538794
0.000888442
0.0068311
0.00129836
0.0551646
0.00679906
0.00498329
0.004678
0.0106878
0.0078083
0.00324916
0.000375227
0.00118449
0.00673569
0.00974358
0.00681491
0.000327844
0.000612422
0.00343636
0.00155847
0.00684736
0.00765038
0.0060816
0.000399153
0.000526437
0.00674491
0.000684434
0.0211955
0.00470004
0.00680852
0.0067343
0.000126317
0.00321946
0.00680989
0.00758227
0.00683099
0.00680518
0.0231534
0.00736944
0.000595176
0.0062083
0.00561058
0.00193332
0.0536652
0.0343815
0.0122278
0.021439
0.000527442
0.00716696
0.00210749
0.00090706
0.00112605
0.00676408
0.00473932
0.000667633
0.00831161
0.0258316
0.00687194
0.0261047
0.00715149
0.00678015
0.0028633
0.0010111
0.0277578
3.35645e-05
0.000383889
0.0163472
0.00717792
0.00164253
0.00823632
0.0176681
5.8151e-05
0.049554
0.00126156
0.0149413
0.00682327
0.00701938
0.000576835
0.00631379
0.000778037
0.00685929
0.00101531
0.000722697
0.000775063
0.000862716
0.0281878
0.006923
0.00154604
0.00825234
0.00692616
0.00058294
0.00111397
0.0312121
0.0304421
0.00114332
0.00121346
0.0110073
0.00283664
0.000243993
0.000362502
0.00695925
0.0142476
0.0170038
0.000694175
0.00673203
0.02633
0.0307639
0.0130691
0.00111699
0.000248702
0.00679707
0.000378128
0.00306193
0.000246102
0.00208974
0.000250408
0.00147623
0.012416
0.0069225
0.0544283
0.00138636
0.000882573
0.00108917
0.0067313
0.000591349
0.00647739
0.00698233
0.000571915
0.00705301
0.000550114
0.00432957
0.00344462
0.00155327
0.000867878
0.0011033
0.000501516
0.00675042
0.00057268
0.0067356
0.00032569
0.00682892
0.00174504
0.000764597
0.00032909
0.000755767
0.00102036
0.000117005
0.000234234
0.0062154
0.0275721
0.00378339
0.000216575
0.00890724
0.0067234
0.0156138
0.0161339
0.00170188
0.000738227
0.00134169
0.00280042
0.00210907
0.000602316
0.00675052
0.00681724
0.00625324
0.000387441
0.00116655
0.00827964
0.00680522
0.000848831
0.000962079
0.00357512
0.0017925
0.00904138
0.000758122
0.000628862
0.000336747
0.00060944
0.000462805
0.000272799
0.000895266
0.00423797
0.00071289
0.00071131
0.000158304
0.000965537
0.019945
0.000595789
0.00853159
0.00686503
0.0187466
0.000855863
0.00025961
0.00683495
0.00774671
0.00299245
0.00230606
0.00680517
0.000395135
0.00174975
0.000454366
0.00716532
0.000182176
0.00114072
0.0204927
0.00158816
6.57325e-05
0.0138683
0.000795833
0.0469054
0.00127591
0.00172289
0.00714101
0.00154303
0.00673366
0.000293759
0.00628108
0.000298019
0.00676113
0.0148454
0.0173018
0.000307167
0.000898962
0.000932414
0.0108897
0.0306028
0.00141018
0.000336028
0.0337364
0.000620891
0.00697618
0.000774591
0.00224697
0.000834207
0.00674917
0.00824798
0.00673142
0.000484906
0.00510339
0.00937267
0.0268982
0.00129885
0.000430384
0.0212675
0.0436718
0.00618082
0.000608627
0.0188904
0.0234414
0.00683045
0.00973274
0.00260152
0.000850059
0.00939225
0.0280949
0.000948291
0.00614986
0.00254685
0.0105971
0.000510386
0.0278879
0.00844452
0.000129461
0.000748613
0.000540162
0.00103102
0.00632711
0.031485
0.00120841
0.000312928
0.00114111
0.000775538
0.00684994
0.00101225
0.00618829
0.000316435
0.00132924
0.00102967
0.0204002
0.000315147
0.0411403
0.00123098
0.00501444
0.000848806
0.000777502
0.00202642
0.0039377
0.0105375
0.00784568
0.00772094
0.00137038
0.00672541
0.00534296
0.00475607
0.00674475
0.00747956
0.00682094
0.000615577
0.00718653
0.00233647
0.000737574
0.00670037
0.00626984
0.000637352
0.00683059
0.000716735
0.000683971
0.00672395
0.00724928
0.00123444
0.0217229
0.0067697
0.000861808
0.00169995
0.00127099
0.00684658
0.0104649
0.0091037
0.0112249
0.00682812
0.0328313
0.00675604
0.00742703
0.000606319
0.00915909
0.000852401
0.00684449
0.00575387
0.00827494
0.012943
0.00152534
0.00122364
0.000399519
0.00117449
0.0067235
0.00353551
0.00115633
0.00997184
0.000998782
0.00168396
0.000475502
0.0120184
0.00137303
0.00683354
0.00230751
0.00673639
0.0207567
0.000913083
0.00274229
0.00694089
0.00155798
0.00683058
0.000791053
0.00683611
0.00235512
0.00102322
0.000499351
0.00678224
0.00212112
0.00797937
0.00675421
0.000609642
0.00735688
0.013201
0.0326894
0.000884842
0.00268828
0.00692181
0.00131338
0.0651861
0.00702346
0.00464327
0.000796249
0.00732412
0.000378707
0.00717667
0.00672241
0.0245042
0.00954967
0.00656288
0.00178315
0.00872595
0.000515216
0.00685404
0.00148253
0.006759
0.00634775
0.00671629
0.00675867
0.00839787
0.00798185
0.000694638
0.0127737
0.00028772
0.00672058
0.00542202
0.00672158
0.00682463
0.00030901
0.0110054
0.000392143
0.00735464
0.000680014
0.00300418
0.000749815
0.00166265
0.00964933
0.000657937
0.00342924
0.00435895
0.0200133
0.000391952
0.0208283
0.0148874
0.00078419
0.00684115
0.0317631
0.00654505
0.000263839
0.00141557
0.000403853
0.000620367
0.00520513
0.00119665
0.000581493
0.00515433
0.00072247
0.0121671
0.0237675
0.0545473
0.00674949
0.00360847
0.0068347
0.000741147
0.00710545
0.000612759
0.00027302
0.00741052
0.000765758
0.0464422
0.000436568
0.000704379
0.0123415
0.000173211
0.00134115
0.00436249
0.0391119
0.00680181
0.00673345
0.00928488
0.00682426
0.00680464
0.00215783
0.00146911
0.00494152
0.000803855
0.0024858
0.000833258
0.000659657
0.0310196
0.0388213
0.000573933
0.000258614
0.00682853
0.000367004
0.000448588
0.00676654
0.0131264
0.0125309
0.000668176
0.0266878
0.00523539
0.00105322
0.00522373
0.000330339
0.000425466
0.00323073
0.0074128
0.0086671
0.000590854
0.0223085
0.000394717
0.00585872
0.0303392
0.00270246
0.00673109
0.0010176
0.046902
0.00140825
0.00407071
0.000702461
0.000275637
0.0049259
0.000802334
0.00146665
0.00441415
0.0234687
0.000989955
0.00706045
0.000589417
0.000320911
0.000567689
0.0275922
0.00683371
0.00117209
0.000665384
0.00724779
9.79392e-05
0.000437414
0.00670554
0.00474655
0.000517876
0.000949977
0.00637187
0.000832825
0.00671545
0.000635327
0.000904782
0.000597334
0.0178942
0.00962056
0.00672326
0.0293249
0.0269341
0.000453903
0.000548818
0.0197373
0.000528728
0.000606384
0.00431463
0.000821779
0.0108709
0.00684264
0.0518778
0.00190106
0.0206889
0.00553644
0.0270463
0.0067198
0.00481565
0.00167432
0.00472111
0.00223665
0.0608066
0.00638423
0.000703435
0.000599864
0.00351384
0.00684339
0.000365126
0.000543759
0.000325956
0.0278202
0.0011903
0.00660104
0.000719392
0.00637327
0.00477694
0.0592484
0.000357425
0.0530381
0.00150649
0.00677257
0.00074356
0.00683655
0.00683009
0.0010035
0.00424261
0.00092333
0.0067207
0.000744392
0.00654952
0.00187964
0.000691149
0.00683424
0.000653099
0.0013758
0.0261939
0.0712876
0.000472479
0.00105512
0.0170039
0.000572648
0.0370805
0.000777195
0.0067515
0.00676325
0.000503594
0.0629585
0.00090204
0.000575134
0.000545393
0.000259958
0.000214152
0.016842
9.29749e-05
0.0066435
0.000934547
0.00170325
0.000573077
0.0148655
0.00052044
0.00567714
0.00180245
0.00676696
0.00148208
0.0264647
0.0067745
0.000624364
0.00497761
0.000612389
0.00528467
0.0164186
0.000410809
0.00833146
0.000631902
0.000279263
0.00075424
0.0286327
0.00678984
0.000776013
0.00429694
0.0199518
0.0605277
0.0065591
0.00109605
0.000144613
0.00680878
0.000584678
0.00122395
0.000227104
0.00682719
0.00706857
0.000521151
3.51375e-05
0.0067612
0.00673306
0.0356417
0.00127321
0.000224336
0.000543853
0.00672673
0.000610314
0.00726402
0.0532331
0.0414626
0.00080963
0.000525314
0.00309878
0.00111619
0.00127159
0.00675037
0.000759453
0.00683985
0.0202392
0.00421938
0.00679827
0.000996176
0.00672537
0.00220052
0.0263629
0.0266126
0.00725536
0.00761721
0.00493306
0.00293668
0.00145023
0.00116258
0.0223833
0.00088801
0.00108838
0.00147454
0.00966509
0.00152594
0.00451698
0.00892899
0.0152227
0.00023194
0.00122986
0.020348
0.00671475
0.00758645
0.00114794
0.000767649
0.00146005
0.00672333
0.000833334
0.00679291
0.00142282
0.0633373
0.00195558
0.00067232
0.0328358
0.00678975
0.0661963
0.00100038
0.0018795
0.00785566
0.000434892
0.00100136
0.000621638
0.000675915
0.0067324
0.00161357
0.001503
0.00821027
0.00396544
0.00477425
0.000577904
0.00166654
0.000991831
0.000686556
0.00733238
0.0209419
0.00683906
0.00312904
0.00644821
0.00910024
0.000949877
0.000780503
0.00779478
0.00125175
0.000309378
0.00674897
0.00975876
0.00813758
0.000685156
0.00562085
0.00730767
0.000626456
0.0131466
0.00619596
0.000760562
0.000449337
0.000542288
0.0336194
0.00622226
0.000312924
0.00681759
0.00630298
0.00613597
0.00102655
0.00131151
0.0068306
0.000272038
0.00112216
0.00423036
0.000674355
0.00677299
0.0158278
0.010355
0.00676382
0.000230096
0.00421891
0.00057844
0.00236303
0.0151665
0.0168337
0.00931081
0.000384078
0.00222273
0.000777396
0.000355633
0.000823699
0.000691917
0.00701132
0.000498958
0.00387732
0.0149706
0.0169421
0.0369617
0.000670756
0.000737307
0.000804498
0.0383064
0.000851357
0.0013426
0.00247009
0.000771224
0.000825879
0.000590722
0.00235049
0.00678611
0.000601829
0.00254482
0.00778831
0.000454216
0.0220421
0.000961428
0.00690243
0.000802396
0.00138497
0.00103221
0.00678279
0.000763671
0.00598078
0.00649831
0.00668286
0.000366103
0.00503161
0.000409694
0.000947809
0.00164472
0.0140597
0.00142318
0.0079437
0.000818508
0.000904205
0.00598967
0.000396668
0.00671547
0.00689114
0.00788808
0.000608137
0.0170905
0.00682545
0.000744573
0.000761003
0.00313773
0.0207616
0.00718989
0.000716368
0.000334421
0.0157914
0.0231019
0.0166277
0.0260154
0.000909988
0.0068177
0.0048336
0.00685372
0.00456773
0.0399502
0.0388849
0.000656486
0.00710381
0.00104385
0.00673168
0.00108909
0.000546454
0.00196582
0.00820872
0.000761629
0.00682311
0.0004422
0.000756291
1.47485e-05
0.00676348
0.000798157
0.00402744
0.0323774
0.000800195
0.00456916
0.000254485
0.00181816
0.00674769
0.000828216
0.0139588
0.000928748
0.00296939
0.000776301
0.00170388
0.000295719
0.00609741
0.000429373
0.00172145
0.00724122
0.00487385
0.00481952
0.0269467
0.00180859
0.00639844
0.00215131
0.006314
0.00431676
0.00675676
0.00672509
0.00676289
0.0207039
0.00766679
0.0067246
0.00482143
0.0215264
0.0189075
0.00110298
0.00481508
0.00107142
0.00369198
0.00686377
0.00073003
0.00150942
0.00128439
0.000555207
0.00281956
0.00674107
0.023965
0.00673098
0.00427807
0.00671576
0.00148351
0.000179821
0.00780221
0.00683457
0.00672722
0.00675611
0.000818563
0.00683725
0.00325761
0.00178845
0.00665219
0.00106151
0.00640255
0.00689989
0.01125
0.00818941
0.0220051
0.0288849
0.000685749
0.00671448
0.000141365
0.000793493
0.000343094
0.00170576
0.00678577
0.00687468
0.0011627
0.000605585
0.000236599
0.00871153
0.00608152
0.00723792
0.000810423
0.000980415
0.000922732
0.00268585
0.00427373
0.0067285
0.0341239
0.000807137
0.0168436
0.00861529
0.00074716
0.0317953
0.00164128
0.00131012
0.000654106
0.000799039
0.000593564
0.000276457
0.00064307
0.00116287
0.00677138
0.00429068
0.00407664
0.00399711
0.000363698
0.000623938
0.000475885
0.000290489
0.000964794
0.00502991
0.00136497
0.00347457
0.000621882
0.000535706
0.000396802
0.000388469
0.0179373
0.000614887
0.000682243
0.000667473
0.00492869
0.000661075
0.00713653
0.0282502
0.00106345
0.0168942
0.000960378
0.00154621
0.0145512
0.00138857
0.00761544
0.00109252
0.00206603
0.0015455
0.0234449
0.000613208
0.0030866
0.00711104
0.00161852
0.000939282
0.000722985
0.00207768
0.0069417
0.0182742
0.0644245
0.0070661
0.000864804
0.000944138
0.00467619
0.000851303
0.000335657
0.000649695
0.00231233
0.0202219
0.000750699
0.00597113
0.000640163
0.00673471
0.00673425
0.00672875
0.0232443
0.00222115
0.00063994
0.00595672
0.00108518
0.0235162
0.00426521
0.000538614
0.0511154
0.00676038
0.0175212
0.00679591
0.00755393
0.00649329
0.00161535
0.0194949
0.00151203
0.0212218
0.0691055
0.000925171
0.000742926
0.0262523
0.00127771
0.0711252
0.0292261
0.00703142
0.000697734
0.00746711
0.00686686
0.00676023
0.000361824
0.000451555
0.00673134
0.0267209
0.00567344
0.00187958
0.0218956
0.0238523
0.00599815
0.00672997
0.022681
0.00692347
0.00674561
0.00540137
0.00198892
0.0316942
0.011702
0.0143892
0.000438562
0.0195827
0.00729505
0.0113333
0.00179689
0.00698456
0.00672314
0.00776932
0.000800382
0.00672514
0.00088373
0.02102
0.000353624
0.00674834
0.0208608
0.000747449
0.000911435
0.000505412
0.0070092
0.00658882
0.000416768
0.00120116
0.0264338
0.0200049
0.00757134
0.0042251
0.0493496
0.00740975
0.00714226
0.000112167
0.00058746
0.00678264
0.00675112
0.0583159
0.00120177
0.0100509
0.00927745
0.000781175
0.00626291
0.00186878
0.00104506
0.0222418
0.0229174
0.00673506
0.00814905
0.00106592
0.00449958
0.0014704
0.00427013
0.00210983
0.00654179
0.000699871
0.00358263
0.000316739
0.022582
0.000740776
0.00128432
0.000985643
0.00706913
0.00676286
0.00171737
0.0063957
0.00797628
0.000206546
0.00715758
0.010089
0.000716957
0.0256164
0.00023734
0.00707834
0.000187398
0.00359679
0.00464759
0.00166933
0.000235311
0.00826957
0.0228855
0.00284327
0.00709502
0.00117553
0.000483589
0.000593098
0.000629876
0.00067202
0.000144536
0.0453667
0.0404885
0.00674177
0.00655693
0.000709014
0.00278895
0.00267935
0.00683393
0.032212
0.00462368
0.00678453
0.00672439
0.050229
0.00606495
0.00671403
0.000533866
0.00677956
0.00185724
0.0083511
0.0042965
0.0100438
0.0014023
0.00439051
0.00842163
0.0177752
0.0191073
0.00451438
0.0116551
0.00682302
0.00672764
0.0191283
0.00682104
0.00566867
0.00450838
0.00554254
0.000548098
0.000859423
0.00673103
0.000365507
0.000900238
0.000840829
0.00313043
0.0202877
0.00673423
0.00772659
0.000508644
0.000311767
0.00171204
0.0239866
0.00149125
0.00018104
0.00364294
0.00058894
0.00697351
0.000984303
0.0211958
0.000446224
0.000766953
0.00678186
8.73658e-05
0.00250174
0.000503425
0.00724109
0.00190341
0.0339173
0.000604552
0.020173
0.000385282
0.0067353
0.000648186
0.0068239
0.00556211
0.000804716
0.0179821
0.0010876
0.0339878
0.00900255
0.000336513
0.00054902
0.00134636
0.00605128
0.0193793
0.0210392
0.0064403
0.00549633
0.000730252
0.000659712
0.00365103
0.00421659
0.00222699
0.00682451
0.000582545
0.0038891
0.00658515
0.000379096
0.000632578
0.000710023
0.00681907
0.00684102
0.00915826
0.000308909
0.000767387
0.000847666
0.000292921
0.00678881
0.00457566
0.0061191
0.000478429
0.000994261
0.000336704
0.000558965
0.00856882
0.000220832
0.000315295
0.000281585
0.0067795
0.000758763
0.000641789
0.00748797
0.0182405
0.00126104
0.00156306
0.00179749
0.0017447
0.0206479
0.000595572
0.00124632
0.000893533
0.0205281
0.000827214
0.0015215
0.0010067
0.0295704
0.0204044
0.0079419
0.000527691
0.00670612
0.000693741
0.000137665
0.00709541
0.000448271
0.00731747
0.000544409
0.0002812
0.00180475
0.00703758
0.00959304
0.0080076
0.000464825
0.000624269
0.0019815
0.00706423
0.000425857
0.00722503
0.00136373
0.00150954
0.00705297
0.00116677
0.00748859
0.000502222
0.00116307
0.0238666
0.00147241
0.00692572
0.00439851
0.0304885
0.00483936
0.00420518
0.00055304
0.00505018
0.00103612
0.00678672
0.000732778
0.00736861
0.00673411
0.0146454
0.000723609
0.00245884
0.00167462
0.00709767
0.0189602
0.000295121
0.000489829
0.000622035
0.00674797
0.00679244
0.000406795
0.000945827
0.00692168
0.00752024
0.000557497
0.0275915
0.00604783
0.00120527
0.00389445
0.00546078
0.0105745
0.00673377
0.00695813
0.000388809
0.00686971
0.00771313
0.000718082
0.00662818
0.000563598
0.00076876
0.000240553
0.0306362
0.000892314
0.000661742
0.00137135
0.00650441
0.000505169
0.000737457
0.00461668
0.00835099
0.000676443
0.00707903
0.00637001
0.000799877
0.000747883
0.00143108
0.000746198
0.000766087
0.0041826
0.00107773
0.000305447
0.022564
0.00986258
0.000999582
0.00034524
0.00617461
0.00636326
0.0493634
0.00102611
0.000117407
0.00694114
0.00264047
0.000783207
0.000346981
0.000438098
0.00627898
0.000878492
0.000574519
0.0012152
0.000418419
0.00105894
0.0155371
0.000959118
0.00683345
0.0126915
0.000220304
0.0298941
0.0070543
0.00678978
0.00017567
0.00689486
0.000624543
0.000653668
0.00673377
0.0274677
0.000108331
0.00981634
0.0099093
0.000427541
0.000616121
0.000262092
0.0053375
0.00671882
0.0313683
0.000881006
0.000661632
0.00486419
0.00673143
0.000739362
0.000715238
0.000726016
0.00686323
0.000596391
0.000961116
0.000869819
0.000123695
0.0117272
0.000841687
0.0271611
0.005242
0.00671884
0.00957851
0.00136964
0.000938603
0.000674185
0.000635312
0.00678572
0.00155819
0.0215732
0.000681195
0.000997772
0.000190857
0.00056517
0.000545882
0.000352756
0.00670207
0.000883775
0.0018121
0.00703601
0.00697996
0.00145181
0.000836747
0.014655
0.000561467
0.000239901
0.000863462
0.000357978
0.000972967
0.0067694
0.00625352
0.00497441
0.00128964
0.00145572
0.00637734
0.000524833
0.000531664
0.00273932
0.0122772
0.0319235
0.00789088
0.000524597
0.000733873
0.00999929
0.000180013
0.000594852
0.00413962
0.000912599
0.00073698
0.000580917
0.000107372
0.00196286
0.000258535
0.000528522
0.00770492
0.000897143
0.00235785
0.00618171
0.00702747
0.00637193
0.00127137
0.000270942
0.0070514
0.00154404
0.000158461
0.00151819
0.00672424
0.00710255
0.00164226
0.000673123
0.00671745
0.00683773
0.000915474
0.00727979
0.00067771
0.00074429
0.0240874
0.00161098
0.00673634
0.00426928
0.000385307
0.00698341
0.00989362
0.000675053
0.0198724
0.00665441
0.0184779
0.000882386
0.00108134
0.000701355
0.000541266
0.00682475
0.00462564
0.0007425
0.00683073
0.00783818
0.000575423
0.00045795
0.00656004
0.000440006
0.000994046
0.0226732
0.0115009
0.000598229
0.00881918
0.00126113
0.00643828
0.00157278
0.0250825
0.00689842
0.000899062
0.00569
0.000457515
0.000753592
0.000865057
0.0253222
0.00217357
0.00270968
0.00678436
0.00611967
0.000784457
0.017301
0.00337811
0.000258425
0.0501256
0.000228524
0.000255205
0.000334916
0.0013012
0.000943155
0.00135313
0.00672859
0.000686969
0.000629727
0.0254278
0.0141632
0.000844707
0.0357605
0.00574424
8.38183e-05
0.000656319
0.000811103
0.00157859
0.00103196
0.00678147
0.00169035
0.0270912
0.00254302
0.0203934
0.0275339
0.000938089
0.000994113
0.0067254
0.00153368
7.65738e-05
0.00675621
0.000677399
0.00780198
0.00672396
0.000247247
0.00139151
0.0302667
0.00149332
0.00153256
0.0067214
0.00681874
0.00802215
0.000662773
0.00570013
0.00229687
0.00708654
0.00151832
0.000757812
0.0026641
0.000567557
0.000995909
0.0383738
0.00103209
0.00100613
0.00683801
0.00152712
0.00113943
0.00682307