/*--------------------------------*- C++ -*----------------------------------*\
| =========                 |                                                 |
| \\      /  F ield         | OpenFOAM: The Open Source CFD Toolbox           |
|  \\    /   O peration     | Version:  v2012                                 |
|   \\  /    A nd           | Website:  www.openfoam.com                      |
|    \\/     M anipulation  |                                                 |
\*---------------------------------------------------------------------------*/
FoamFile
{
    version     2.0;
    format      ascii;
    class       volScalarField;
    location    "100";
    object      omega;
}
// * * * * * * * * * * * * * * * * * * * * * * * * * * * * * * * * * * * * * //

dimensions      [0 0 -1 0 0 0 0];


internalField   nonuniform List<scalar> 
14479
(
1.51807
0.121978
1.65007
0.0217271
0.0356597
0.0231733
0.0211804
0.0873865
0.0779093
0.175102
0.0210786
0.03099
0.0434165
0.410124
0.371745
0.025062
0.021202
0.250258
0.0214323
0.0231706
0.0480581
0.0369774
0.0461872
2.27
0.0210731
0.0214649
0.505069
0.0730576
0.0218072
0.444759
1.38963
2.25987
0.0229511
0.0229147
1.75849
0.0498956
0.0211453
0.0240778
0.25885
0.0484148
0.0258849
0.021011
0.0154002
0.0162442
0.0211534
0.0239031
0.0212945
1.01515
0.0275729
0.0210136
4.57369
0.0730757
0.0213846
4.11908
0.0445144
0.0324643
0.0524688
0.0225869
0.151525
0.0225387
0.0215354
0.0217741
0.846356
0.0213416
0.0211885
0.656715
1.02124
1.14784
0.0213765
0.0218377
0.194529
0.0213712
2.71036
0.0502263
0.0217409
0.0212234
0.023033
0.859689
0.0211253
0.874958
0.0214543
0.0859099
0.31885
1.38073
2.1912
0.0218613
0.0217534
0.0212197
0.0858244
0.0228797
0.0772516
0.929058
2.30559
0.0213387
0.0261805
0.0213621
0.0211433
0.021495
0.0208496
0.412711
0.174917
0.0256706
4.29202
2.00523
1.19921
0.142982
0.121335
0.0235231
1.11334
0.414847
0.115675
0.396025
0.0254503
0.033744
0.111375
0.0512703
0.0215722
0.647608
0.0271406
0.0220191
0.0218394
1.13082
3.58944
0.020843
0.0189529
0.0247082
0.0227699
0.190441
0.0333044
0.0237037
0.0202266
3.91824
0.970763
0.0813606
0.128979
0.0361303
0.127756
0.0878111
0.903724
0.935604
0.412931
2.85228
0.0216878
0.405716
0.0214623
0.199623
2.8408
0.0215311
0.0291738
0.0637531
0.342399
0.0212226
0.1512
0.0251952
0.0214754
0.0215969
0.415216
3.8875
0.419069
0.0366683
0.0528725
0.0212465
0.0212311
0.0283773
0.147649
0.0212238
0.0212478
0.0709405
0.118291
0.422488
0.422517
0.0372332
0.0254312
0.0413022
0.0206559
0.0237581
0.0370552
0.0209653
0.0225466
0.645649
0.0501495
0.0295915
0.410942
0.0249844
0.151886
0.0607599
0.608554
3.31406
0.0223191
32.3466
2.56163
0.0663904
0.571534
0.193366
0.0262893
0.0370366
0.021267
0.022545
0.0321301
0.0212264
0.0646947
0.0220201
0.0230618
0.0212602
0.0345657
0.0234309
0.142023
0.028443
0.0210209
0.0359787
0.0317908
0.0216824
0.0335794
0.0325977
1.27624
0.41674
1.04367
0.0306406
0.419006
0.0295219
0.414521
20.7743
0.0236741
0.026502
30.346
0.023354
1.14479
0.0211303
0.067274
0.0241046
0.0218994
0.0241571
0.303824
0.0215437
0.0223572
2.97283
0.0229968
0.0708301
3.06185
0.021426
0.0215351
0.0212365
0.0678027
0.0219808
0.0545579
0.0998608
1.90036
0.415215
0.0218381
0.0214644
0.0247798
0.0234044
0.0220658
0.179619
0.234508
0.0207851
0.031355
0.0210733
0.0235193
0.0214721
0.021121
0.0216019
0.021463
0.0209831
0.0209983
0.0330924
0.0298627
0.0214744
1.83075
0.0447809
0.0659648
0.0231266
1.21244
0.0367483
0.0730274
0.0401995
0.0709492
0.0212033
0.0328648
0.0241099
0.0874272
0.0263223
0.0227955
0.0239963
0.102049
1.41858
0.0635854
1.32013
0.0349609
0.218567
0.174101
0.0216889
0.0232309
0.0205735
0.0224886
0.314336
2.64981
0.0224273
0.0424147
0.0416042
2.59782
0.888923
0.0209882
0.0215581
0.0390887
1.87969
0.0209832
0.20219
0.0209925
0.0925748
0.0231956
0.198422
0.0240958
0.0216217
0.039262
9.16337
0.0648411
0.0269322
0.0387028
0.0207479
2.83422
0.07044
0.989023
0.0371791
0.0215794
3.17153
7.26995
0.1918
0.0426365
0.0241006
0.0507657
0.0211836
0.0233313
0.056131
0.0237171
0.0226819
1.14577
0.0316611
0.0226737
0.0221227
0.0216261
0.0309749
0.0209402
0.0440319
0.0400157
0.0326367
0.132549
0.0382366
0.0723143
0.0332265
0.0214556
0.0427653
2.59878
2.22398
0.0301362
2.19605
1.14098
29.5377
0.0215796
10.6806
0.0221974
0.0568528
6.96211
0.224672
0.0239631
0.0222847
0.0211862
0.0276291
0.0644729
0.0211528
0.0239913
0.226175
0.0246137
0.0904488
0.293146
0.134575
0.0217019
0.0898355
0.0315297
0.0222286
0.0396337
0.0673692
0.0214528
0.0221933
4.43611
0.0245174
2.41482
0.0216818
0.0187737
0.0255258
0.0897801
0.0206413
0.0243637
0.833362
0.041466
0.0265031
0.0221523
0.436666
0.07005
0.101468
0.0500349
0.0660469
0.0424488
0.0198251
0.0514411
0.0243811
0.0422677
0.0395756
2.33983
0.0469894
0.133005
0.717778
0.0343698
0.07001
0.0215849
0.137984
0.0218484
0.0229437
4.24204
0.0957734
0.0068959
0.219751
2.46791
0.173329
2.36636
0.0223859
0.0246175
0.0315242
0.0212942
0.0212105
0.0215133
0.0482874
1.10211
0.363332
4.15572
0.0441881
0.211971
0.0373998
0.062821
0.0216031
1.56001
0.0211138
0.0214503
1.08269
0.0215619
0.0209257
0.0248157
0.428217
0.0293932
0.0216403
0.021427
0.0216556
0.0285574
0.0302417
0.0297332
0.05001
0.021566
1.01392
0.0648705
1.17044
0.158422
0.0218083
0.0221463
0.0343006
0.133897
0.0209957
0.0461555
6.48445
1.27749
0.0215108
0.0210982
0.109749
0.0269776
0.0238914
1.15013
0.807932
0.0741612
1.01246
0.0463911
0.0220594
0.327858
0.0478261
0.017582
0.0955051
0.0494811
0.0228387
0.0286305
0.0218662
1.02609
0.173851
0.0209184
0.0207038
0.127722
0.0216138
0.02468
0.0216343
0.0207828
0.149248
0.0214744
0.0968865
0.0405581
0.0307545
0.582805
0.0524065
2.88689
0.163426
0.133491
1.96613
0.0464335
0.023495
0.0214796
0.0237117
0.0242881
0.0890004
0.0222555
0.221526
0.419633
0.0242836
0.990873
0.107383
1.14467
0.0264093
0.0210972
0.0320842
0.0215618
0.0652601
0.0263748
0.0326701
0.16678
0.0245941
3.28312
4.94541
0.0276259
0.02088
0.0214557
0.0221336
0.0271858
0.0220398
0.0487813
0.0350937
0.0357933
1.167
0.0343401
0.0214689
0.449408
0.0319264
0.0367805
1.06059
0.144212
0.0340859
0.0246246
0.0984134
2.89169
0.0267511
0.0342982
0.0181991
0.167465
0.0496363
0.0235414
2.71106
0.0240337
0.0222713
0.02246
2.46521
0.0772932
0.0217618
0.0247868
0.144132
0.0443424
0.0225966
0.175473
0.0256915
0.0234078
0.0225112
0.040851
0.15288
27.5546
0.0230539
0.40925
1.85246
4.25301
0.0256827
0.0276222
2.65005
0.0218565
0.305448
0.0267826
0.0370776
0.0386025
0.0243584
0.042282
0.0224635
2.20746
0.115353
0.0236572
0.445142
0.03437
0.0206018
1.0307
0.0321707
0.0216827
0.0369557
0.0277113
0.0232119
0.0249047
0.0673293
0.914328
0.0499434
0.0663074
0.0316628
0.0360698
2.2191
3.90808
0.0251699
5.84613
0.570321
0.0215561
1.24623
0.0229751
0.144991
0.0233235
0.286227
0.0395013
0.0631479
0.0216439
0.0630577
0.220796
0.110123
0.0253123
0.028749
0.0229422
0.0208595
6.04401
0.023527
0.0223245
0.0256343
0.0217541
0.091346
0.444458
0.0213871
0.0284435
0.0216505
3.28724
2.04994
0.135506
0.17504
0.0803033
0.0238453
0.0918259
0.0330616
0.0214022
0.0220524
0.023837
2.45965
0.079514
0.0228994
17.3573
0.0300188
0.0237456
0.0219929
0.27117
0.0777571
0.848728
0.023191
0.0460076
6.14613
0.0947714
0.0212778
0.0317596
0.0209747
0.0247461
0.0267654
0.0211775
0.0208613
0.0209811
0.0213263
0.0444606
0.0374631
0.0219389
1.07492
0.0226358
0.0242
0.0360832
0.227944
9.28548
0.021098
1.21731
0.0221654
0.385366
0.0151873
0.0291146
0.0831259
0.0239916
0.0241606
0.0317741
2.94952
0.0218197
0.0220148
0.0215059
0.0250315
0.02313
0.0264852
0.0435727
0.0237947
0.0212783
0.0486481
0.0229483
3.73226
0.904711
0.834028
0.089971
0.0341567
2.73282
0.0749751
0.0235148
0.0239196
0.0247725
0.0294842
0.0255382
0.0209941
2.54073
7.06903
0.022119
0.0275482
7.81116
1.45516
0.0881769
0.208065
2.29999
0.0352601
0.0208291
0.0214366
0.131676
5.48149
0.414452
0.0209736
0.0502299
0.0270232
0.0432228
0.0162047
0.046214
0.0211783
0.02218
0.0622943
0.0211902
0.0216125
1.08754
0.0373211
0.0255701
4.04596
0.364547
0.0226429
0.0787605
0.413622
3.20242
0.0552235
2.20339
1.02034
0.0751394
0.0453963
0.208716
0.0234181
3.22271
2.1334
0.0257943
0.332685
3.53029
0.0299002
1.32385
0.0221574
0.04507
0.0237209
0.0209987
0.0215582
0.0214953
0.206391
0.155296
2.67965
0.0216058
3.39929
0.0250902
0.0233065
0.129561
0.0212092
0.395472
0.0465016
0.0449003
0.0830853
0.0248821
0.127611
0.0866718
0.0405627
0.0237146
0.10169
4.10417
2.97053
0.0739084
0.130257
0.0207263
0.376316
0.0238409
0.031187
0.024918
0.0437844
1.03307
0.024539
0.0255533
0.0625812
0.347613
0.0213685
0.0578582
0.409828
0.0216547
0.0233973
0.021751
0.0460863
0.0680124
0.0119791
0.0238889
0.0220978
0.0823133
0.0213678
4.44722
4.14796
0.0232385
2.53437
0.0401166
0.0213124
1.05966
0.0686785
0.0467306
0.0216384
0.0232067
2.49918
2.88812
0.154241
0.289764
0.0213481
2.85184
0.085963
0.0238588
0.0387788
0.037703
0.0461426
1.24693
0.0254657
0.0210219
0.146942
0.0237057
0.0246865
0.0231462
4.82931
0.0539161
0.168925
1.09145
0.460244
0.153531
0.0227875
0.167928
0.0253036
0.291843
0.0898795
8.93229
0.0213869
0.150802
0.0218213
0.0223469
0.259164
16.7102
0.396513
0.0258625
0.0258135
0.0375184
0.0246529
0.0401598
0.0221119
0.0221357
0.0335982
0.0348175
0.0221339
0.0214657
0.0224441
3.47649
0.0813236
0.418405
0.0400894
1.02135
0.045704
0.0214604
0.0811922
0.121733
2.64639
0.0216489
2.70385
0.0212036
0.0459429
0.0221583
0.622453
0.021359
0.0206304
0.0219823
0.0220658
0.0267831
0.0666549
2.90192
0.451092
0.239343
0.0210397
0.0294183
0.0213459
0.0210307
0.0284477
0.0230191
0.151513
0.103994
0.0213609
0.0432542
0.0604987
0.0276258
0.0628451
0.955814
0.0295909
0.0241865
1.2215
0.026879
0.214084
0.0278812
0.0210083
0.0214834
0.145376
0.0214439
0.086839
2.10543
0.0212541
0.02136
0.140348
0.187055
0.036841
1.00218
0.0253207
0.0316212
3.34487
1.14755
0.111143
0.140851
0.200148
0.770956
0.0243913
2.79489
0.0213924
0.0219859
0.031277
0.0284714
0.0287935
0.0208132
0.0614566
0.349923
0.0948521
0.106563
0.020787
0.0216741
0.0596057
0.0215989
0.0215127
0.0253307
0.0546685
0.0274477
0.0218691
0.0308942
0.029383
0.0230074
0.0233208
1.19357
0.0215937
0.049355
0.377354
0.0245291
0.0467649
0.40798
2.5964
0.0216349
0.021761
0.0351327
0.0256026
0.920051
3.2271
0.721083
0.0230721
0.146788
0.0321382
0.111481
0.700999
0.894281
0.0281769
0.0642021
0.021348
0.0361089
0.0217048
1.69487
0.0247644
0.0246033
0.481997
0.0231103
2.76491
1.15794
0.825459
0.105556
0.0216611
2.14047
0.0215418
0.937415
0.779184
0.0217909
1.5813
0.0214058
0.0464109
7.37794
0.0221162
33.4165
0.0283377
0.0216782
0.0685744
1.35836
0.0230454
0.0411489
0.123611
0.0278527
0.0215646
0.0263106
2.19099
0.0216188
0.0218607
0.0244639
4.78189
0.0244913
0.270464
0.0584673
0.0878061
0.0209272
4.59054
0.0207745
0.0592909
0.0415155
0.021988
0.0377522
0.0228636
0.0277314
0.0294536
0.0907918
0.042692
0.0214056
0.0688917
0.277337
0.0217717
0.0220114
0.0209204
0.302219
0.022025
0.021993
0.0237863
0.0212843
0.0215935
2.83093
0.0223963
0.404499
0.0238952
0.0216468
0.0230389
2.16923
2.73905
0.307597
1.19214
0.044075
0.200536
0.627242
0.0332765
0.0257848
0.021127
0.0636207
0.10991
0.516876
1.2126
0.0219977
3.71743
0.0216468
0.0215897
0.304547
0.0846066
3.00398
0.603252
0.0817342
0.134248
0.0217131
0.0257116
0.0290289
0.138787
0.844271
0.449468
2.99587
0.273891
0.0217854
0.0229763
0.0491741
0.0216296
0.0347269
0.022131
0.052801
0.0903283
0.0479941
0.0603099
2.86105
0.0215945
0.0239465
0.0298656
0.0211369
0.0440929
0.0278074
3.01293
0.412127
0.0921143
0.0263003
0.224772
3.11507
0.14194
0.0987308
0.0213149
0.354873
2.59977
0.0594027
0.0209017
3.79251
0.411892
2.10518
3.82485
0.112442
0.0220261
0.0994314
0.0437727
0.0840568
0.0237694
0.107954
0.0402103
0.22012
0.0211343
2.19249
0.0498947
0.0310267
0.0286677
0.0210022
0.0403436
0.0235739
0.0213976
0.0468615
0.648284
0.171796
0.0287424
7.95196
0.0965109
0.0294623
0.0914032
0.0453081
0.0212271
0.0365188
0.233508
0.0647712
0.0219265
1.83145
0.0399863
1.32078
0.03501
0.0277722
0.481208
0.101177
0.0269246
1.01091
0.0222936
0.399079
0.0323027
0.021233
0.246715
2.17347
0.023619
0.094943
0.0255586
0.0232964
0.0332344
0.0426676
0.154214
0.0218917
0.0215559
0.0768031
0.035497
0.543981
0.0263596
0.0313707
0.0369788
0.0219508
0.211382
0.0336908
0.0743306
7.23345
1.31199
0.115331
0.0447394
19.9452
0.0377796
0.0219753
0.0603708
0.0467611
0.779106
0.0306181
0.398969
0.0408826
0.0312799
0.0215949
3.14784
0.0322621
0.0793497
0.0212935
0.0262502
0.0232915
0.0224812
0.0219278
0.104143
0.0235165
0.050122
0.021494
0.172382
0.0568436
1.21436
0.342366
0.333197
3.61275
0.0741629
0.404235
0.0267254
0.0241362
0.0213905
0.0239359
0.021397
0.0766049
1.94737
0.141141
0.0209561
2.06298
0.921657
0.0682441
0.030842
0.158955
5.90818
1.0028
0.150381
0.0687057
0.365614
0.0887563
0.0240179
0.0342333
0.024325
0.0308055
0.0212472
0.0263086
0.0213938
0.0416071
0.0218673
0.0365586
0.399206
0.0630463
0.0548653
2.41753
0.398545
0.0252057
0.0461101
4.1539
2.8543
0.0213388
0.0383401
0.124739
0.031666
0.0359959
1.0093
0.0263383
0.021644
0.0231008
0.229334
0.0646012
3.02805
0.0303056
0.119602
0.0316506
0.0429479
0.0273667
0.0263641
2.93969
0.171051
0.0970899
0.0268542
0.0433763
0.0217225
0.0759837
0.0262714
0.0767019
0.15649
0.0308707
1.91443
0.0757479
2.59436
0.0284427
0.0216565
0.0304692
0.110423
0.160472
0.0218153
0.876423
0.025094
0.0237604
0.160749
0.0209862
0.024253
0.021999
0.0209385
0.0229798
0.0209208
0.163405
0.022498
0.0226161
0.0345701
8.57686
0.0287716
0.0412197
0.0212512
0.0393568
0.0403889
0.021343
0.0231207
3.38755
2.29421
0.0214413
0.0335579
0.0238854
0.149591
0.0209695
0.0460386
6.51895
0.045373
0.0217233
2.79317
0.0211179
0.0285964
0.142347
0.0344739
0.031313
0.0240567
0.0671795
0.0262158
4.82104
0.0248253
0.0258043
0.0546165
0.035888
0.0212239
0.0217967
0.101015
0.0444325
0.0312724
0.118308
0.0555761
0.215274
0.0260094
0.0214273
0.0229178
0.021476
3.10915
0.0633413
0.10837
0.0211395
0.0436586
0.0213579
0.0307076
0.021383
0.0459217
2.07099
0.150241
0.02104
0.173276
0.218113
0.0214477
0.166848
0.0221216
0.231006
3.05272
0.0287768
0.179382
0.0245217
0.160923
0.488919
0.0212104
0.0217465
0.059161
0.0777545
33.3558
0.0235466
0.0209926
1.23739
0.0484779
0.0230312
0.0242237
0.216815
0.0442042
0.0216433
0.256108
0.0211076
0.0248028
0.0213303
0.0211501
0.0317488
0.213925
0.174604
0.323067
0.0723547
0.0213746
0.0216087
0.0212598
0.0225442
0.0769098
0.226493
0.0624985
0.024253
0.0854532
7.14696
0.0560003
0.0237089
0.0412981
0.0877335
1.30954
0.021972
1.02527
0.102874
2.79558
3.07838
0.0511075
0.0223165
2.8013
0.0219336
0.212826
0.0552669
0.0554395
4.17319
0.28632
4.24212
0.055737
3.79384
0.0340808
0.0404523
0.990822
2.22095
0.021232
0.369497
0.0212609
0.0349589
0.0237169
0.0419902
0.100521
0.0212667
0.0401599
0.449828
0.0623508
0.0569671
0.98478
0.42406
2.4672
1.55413
0.379214
0.0206538
0.0211343
7.31132
0.0212961
0.0206548
0.0235252
0.0252929
0.0241987
0.0602969
0.0223693
0.0304074
0.0559637
0.410565
2.72765
0.0898751
0.0943564
0.0239743
0.165517
0.0730697
0.0214198
0.235005
0.0390626
0.0405947
3.63812
0.560085
0.0264759
7.56572
0.155371
0.0842086
0.0220672
0.0229172
0.207042
0.0456167
0.322052
0.0500461
0.0355045
3.15414
0.0229107
0.0212178
0.11121
0.40737
3.03282
0.0235491
0.354908
0.187671
0.540156
0.0320904
2.69639
0.0294391
3.76835
0.0868147
0.0236007
4.24086
0.13543
0.188743
1.00288
0.0213251
0.130499
0.154307
0.165828
0.171672
0.057596
0.0218898
0.0216963
0.068224
0.0299232
0.0258743
0.0444406
0.0211699
1.78801
0.0767795
0.10199
0.122803
0.141275
0.0212517
1.00984
3.01627
0.0530045
1.55727
1.00702
0.112617
0.890797
0.0169109
0.0342802
0.924739
0.0214329
2.22325
0.0286156
2.3097
3.83353
2.91864
0.021322
0.0664982
0.0434385
0.189322
0.0242102
0.458814
0.121209
0.0463517
0.04818
0.0229832
0.0214942
0.0617628
0.0712508
1.15718
0.40297
2.89514
0.0215269
0.174627
0.0263893
0.238824
0.45657
0.086601
2.09876
0.0425814
0.0256621
0.0352544
0.0213854
0.021313
0.0270944
6.92169
0.0351609
0.0213216
0.0321113
0.021594
0.0245904
0.163484
0.0209507
0.0701298
0.0269927
2.59825
0.50789
0.0505403
2.21305
0.912834
0.0430644
2.50851
0.0322237
0.0208073
0.0209539
0.0480568
0.469688
0.0369116
0.0453674
0.0721103
0.0965282
0.145458
2.18199
0.0975073
0.0222559
0.165678
0.0240042
0.0445972
2.12343
0.313995
0.021565
0.152704
0.0210553
0.0248148
2.50319
0.0210985
0.158684
0.0557036
0.148885
0.0216152
1.04233
0.0575603
0.0318651
0.0919513
0.0757239
0.0591775
3.55903
0.0214649
1.92476
0.0221052
1.97747
0.464506
0.0713997
0.0997605
1.13236
0.0233431
0.0390612
0.0259121
0.105488
0.0549619
0.0223399
0.145522
0.57564
0.0209404
0.0212294
2.25513
0.249304
0.124551
1.59304
0.0211763
0.0418866
0.0233438
2.17893
2.23331
0.0423257
0.0559955
0.0104841
0.0335616
2.36607
0.0214412
0.0307283
4.28488
3.38538
0.112504
0.021488
0.0272529
0.0212339
0.0225916
1.20472
1.18188
0.0231462
0.0248769
0.0216478
0.0329705
0.0109699
0.0672091
0.996386
0.139364
0.0268755
2.47361
0.697017
0.576161
0.0217547
0.216308
0.369036
1.13385
0.243642
0.269443
0.0211574
0.0245914
0.0323759
0.0516546
0.0385925
0.0212617
0.133913
0.0215374
0.0586496
0.475777
0.029599
0.0352219
1.05538
0.0215506
0.482663
0.0273623
0.0230231
0.0244622
0.0516975
0.0279088
0.042808
0.0887553
0.0211163
0.095759
0.0252365
0.0256763
0.0227395
0.0217225
0.0488245
0.0237338
0.0303122
0.0380573
0.0232184
0.977481
0.0214394
0.0240043
0.653978
0.0120905
0.0284806
0.0337205
0.0242917
0.034356
0.0648583
0.0211142
0.310335
0.0229828
5.7045
0.692327
0.023971
1.82976
0.246122
0.0270626
0.0365478
0.36571
0.218933
3.14719
0.0265104
0.0757358
0.0212605
0.0283781
0.0215825
0.0294321
0.0264628
0.0212223
0.073098
1.07128
0.0218171
0.0838876
0.0209501
4.65687
0.217569
0.0209381
0.123424
0.0991399
0.0901901
0.0225803
0.429577
3.73308
0.031265
0.0570421
0.0231768
0.0672093
0.0698195
0.0564794
0.120014
0.0215969
0.0616649
0.0222814
1.9717
5.11779
2.25743
0.0556014
0.0344
0.041099
2.45243
0.0414199
0.0263366
0.0225203
0.144726
0.0804022
0.0830184
0.0227004
0.0215164
0.15771
0.022432
0.1484
0.0439317
3.08919
0.0297839
0.0210027
0.046335
0.0849622
0.131479
0.021532
0.0581475
10.2789
0.0235471
0.0215318
0.0592674
5.79502
1.46017
0.0341168
0.0299686
0.878116
2.97289
0.0263989
0.034002
0.0306267
3.45373
0.0568869
0.021179
0.0209681
0.027235
0.037081
3.34037
0.0218707
0.0324652
0.0299914
0.0221128
2.65884
0.0226454
0.0821232
0.0848497
0.240476
2.74105
0.427192
3.91207
0.0294006
0.0220116
0.0593716
0.0218563
0.0913718
2.43471
2.44261
0.180979
0.0212737
0.0263475
0.0214043
0.0276896
0.0428108
0.124028
0.0257109
0.0861472
0.0213244
0.0455413
0.0450464
0.567646
0.0214525
0.0343736
0.0269656
3.26594
2.05266
0.0846176
0.103732
0.11787
0.0214281
0.0448513
5.78545
0.0280846
5.80876
0.0445829
0.0901422
0.070379
0.0217751
0.0639949
0.0243067
0.0210417
0.417846
0.0260061
3.28699
0.0234736
0.0246047
0.0227375
0.0284198
7.99622
0.0210243
0.0212534
0.020786
1.82485
0.0237626
0.0269283
0.338596
3.09781
4.17394
0.0303249
0.0225256
3.31851
6.33164
0.0216792
0.0336412
0.0242477
0.0249388
0.0520373
0.0225092
0.02311
3.60408
0.0213478
0.0217441
0.0210281
14.4254
0.135669
8.35844
0.0217719
0.0209691
0.0210844
0.0337868
0.0213927
0.0189672
0.024096
0.0218562
0.0272169
0.0248497
0.0212009
6.30453
0.800627
4.22848
3.63388
0.172922
0.0210526
0.372502
0.0429809
0.070738
0.0236645
0.0215635
0.021561
0.0712083
0.0403202
1.15638
0.794126
0.162749
0.0227075
0.0317115
0.0277823
0.0327901
0.0409299
0.0224349
0.0209793
2.80994
0.0353802
0.431775
0.466099
0.0436375
2.97566
0.0238186
0.0283605
0.046363
0.0570168
0.0413751
0.126997
0.0967591
0.0896562
0.021074
0.022482
0.214229
10.0688
0.0556001
0.0815532
0.0475862
0.180112
0.0274868
0.0221433
0.0243872
9.38288
0.0854713
0.116762
0.0547657
0.0561083
0.133061
0.176449
0.0809556
0.0527953
11.5322
1.70272
0.0214467
0.394537
0.0264011
4.73436
0.0279492
0.0268542
0.986308
2.3328
0.0251209
0.026628
0.0520721
0.0870591
1.09913
0.0677739
12.7182
0.0236084
0.024017
0.13915
0.0427585
0.0235051
0.0209884
0.131976
0.486094
0.0211385
0.0314584
0.0559258
0.134567
0.0561676
0.0613976
0.150517
0.120181
2.14638
0.0430034
0.023203
0.063002
0.0214755
0.0209426
0.0209126
3.89703
14.9553
0.0513289
0.0293624
0.0552956
1.14238
0.0217897
0.0543292
2.12894
0.0210404
1.12773
0.0220633
0.0284453
0.023619
19.9428
3.36689
0.024937
3.38527
0.499625
0.0310406
0.0332378
3.55731
0.0260983
0.502059
3.17405
0.0212274
0.0505948
0.738661
0.0214563
0.0211017
0.134992
0.0527553
0.0212814
0.369944
10.4844
0.0238246
3.21702
3.21499
0.0293937
0.0214028
3.4299
0.0209384
0.0210989
0.0220118
0.0228315
1.04179
5.02642
0.865153
0.0619877
3.26139
0.0219091
4.34023
2.47229
0.0211175
0.0212497
0.0266447
0.0457788
0.0209677
4.17905
2.14395
0.0782579
0.0208494
3.11905
0.0683466
0.0309736
1.63493
0.0211295
0.0229382
0.0500436
0.0950795
1.13813
2.6325
0.0270228
0.0223142
0.446181
0.0276779
0.0215144
0.318333
0.0490045
0.0211184
0.0214164
0.436913
0.0262342
0.0260264
7.79902
0.09555
0.0283974
0.0232635
0.207037
3.03314
3.42521
0.0214861
0.210448
0.130333
12.2913
0.0246618
0.126439
0.0228072
0.022924
0.168714
1.37768
1.15005
0.351066
0.0524383
0.164136
0.030448
0.0225061
0.0211328
2.68895
0.0243851
0.0325951
0.140677
0.0215473
0.646267
0.106954
3.23116
0.140412
0.0212996
0.981102
0.00783839
0.0217149
0.440619
0.0977365
0.0233634
2.53049
0.0246426
0.021763
0.0258646
0.0584364
0.130886
0.140236
0.175454
0.222264
0.449833
0.413408
0.0214949
0.0229739
0.0302914
0.315059
0.0242017
0.0213866
3.09574
0.0217488
0.021598
0.0209945
2.19334
0.684426
0.0210288
0.1206
0.0215467
0.581998
0.0319756
12.8584
0.214834
0.146407
0.0217772
4.02519
0.126176
0.133078
0.0896643
0.837738
0.0214891
0.0209041
0.980278
0.0208964
0.00991937
0.0169291
0.0218667
0.0992891
0.0314405
0.0212086
0.172644
0.0303434
0.0423639
0.0221904
3.78308
0.0211264
0.0226671
0.0618526
1.07674
0.0238338
3.48466
0.0767048
0.108783
0.274339
0.0497554
0.02106
0.174332
2.4416
0.0502672
0.0596884
0.0209245
0.113704
0.0224489
0.077029
0.0235636
0.0234506
2.74329
0.113568
2.21823
0.0604627
0.0209393
0.157609
0.0206586
0.0217766
0.0325034
0.17642
0.0274154
3.1253
2.27004
1.40134
0.0447019
0.025595
0.0270608
2.1796
1.82325
0.0371772
0.0216074
0.0831462
0.111175
0.0227412
2.7308
0.0225867
0.021772
0.0346475
0.0217085
0.0229504
0.0908483
0.0665536
0.0362486
0.0211492
0.0212213
5.02217
0.119999
0.0352142
0.0310132
0.126695
0.0229464
0.26557
0.136956
0.0649746
0.145527
1.06443
0.182028
4.10577
0.165822
0.197191
0.105863
0.0215843
0.0423469
0.0641848
0.0352505
3.2654
0.0907066
0.0256521
0.023287
0.023419
2.21931
0.180924
1.6106
0.352288
1.88905
0.0666655
2.61679
0.0409614
0.409866
2.08304
0.0256492
0.0481353
0.0219651
0.0472861
0.0853082
0.0213098
1.43221
0.023398
0.0437821
0.0799151
0.0232473
0.0210567
0.0386587
0.035961
0.0497836
0.106912
0.04049
0.031887
0.109118
0.140202
0.024508
0.0718489
0.0211995
0.0656767
0.0230358
0.0470266
0.0386746
2.60176
1.88622
0.0210557
0.101031
1.02421
0.0217635
0.0217707
0.0568141
0.0217175
0.0364554
0.0206595
0.160603
0.023967
4.70382
4.36114
0.0653263
0.869871
0.0231994
0.0225257
2.24703
0.225686
0.0603779
0.0932028
0.0214023
0.0214561
0.0565129
0.0632763
0.0211541
0.051039
0.0784209
2.91758
0.133138
0.105202
0.0220712
0.0217668
0.039784
0.0214879
0.0212109
0.0686269
0.0209194
0.794582
0.0470837
0.0272423
0.0409815
0.0310198
0.111589
3.32047
0.042946
0.0586138
2.56228
0.0215514
1.11968
0.0330491
0.174936
0.153634
0.171
0.0211923
0.025459
0.0319314
0.0911633
2.3393
0.0586748
1.77189
0.0218061
0.0269685
0.0690977
3.93385
0.0293342
0.0881702
0.0666545
0.0272551
0.18612
0.411327
0.0347597
0.0889238
0.0212998
0.0165198
0.0354001
8.92005
0.0748094
0.0274125
0.0439865
0.0555673
0.0277596
0.067581
0.0679316
4.32234
1.74644
0.0212031
3.65053
0.773521
0.410944
0.0206136
0.0220691
0.128865
0.0215602
0.0943786
0.0530512
0.0212013
0.400511
0.145178
5.07231
0.0303163
0.0657587
0.0536447
1.02502
0.0216544
0.0212294
3.21416
0.0355549
0.0548591
0.0648584
0.0211892
0.0583291
0.0326476
0.0509699
0.0326291
0.0818998
0.0299494
0.0356632
0.554869
0.795089
0.0874518
2.79027
0.0391259
0.0213167
0.0318777
2.91899
0.136492
0.100085
0.140506
0.0209161
0.023353
2.71838
0.0600818
2.37738
0.82482
1.65295
0.102177
0.784816
0.0218939
0.0509538
0.117919
0.0205902
0.0210642
2.37457
0.0611663
3.95106
0.105658
1.16786
0.104686
0.111017
0.0827991
0.0210782
0.0256709
0.0579874
2.85338
2.41732
0.0249911
0.0639183
1.5585
0.113562
5.7854
1.00201
0.0252844
0.125378
0.043301
5.08088
0.145319
0.382999
0.389097
0.0294689
0.043518
0.12647
0.326932
0.0229849
0.846963
0.0419513
0.0347739
0.0566066
0.123824
0.0273133
0.0211268
0.028158
2.45416
0.0781086
0.49928
2.26788
0.434433
0.0266722
0.0348556
0.0229781
0.0240352
0.0558864
0.0212301
0.0214368
0.0660528
0.0218764
0.145663
0.0554497
2.97482
0.0242821
0.0213049
3.54019
0.485828
0.0212845
0.0321782
0.0569059
1.87688
0.0215255
0.139913
0.060518
0.0393124
0.0356612
0.1239
0.0255774
0.0217204
0.0374507
0.021337
0.0233707
0.116823
0.0568357
0.0228819
0.0549431
0.0277404
4.47554
4.44047
0.0878877
0.0275757
0.150179
0.0238873
0.0237464
2.90155
0.020884
0.0287186
7.97472
0.0592347
0.0558683
0.462992
2.92222
0.0225848
2.44614
0.0215202
0.324129
0.0319938
4.24207
0.00876499
0.111704
2.31299
0.14957
0.0992717
1.41688
0.35836
0.104247
0.0246529
0.0211406
0.0337953
0.060521
2.98785
3.71191
0.155227
2.61063
0.037316
0.513088
0.0661128
0.0561274
0.0235526
0.0346054
0.0215371
0.0243689
3.26785
15.1925
2.08866
3.12592
0.0302946
0.0448137
0.0219945
0.024401
0.679977
0.0214281
0.0801242
0.0264907
0.0209586
0.132084
2.18288
1.03099
2.29048
2.6086
0.0213342
0.0212575
0.0258211
0.0594358
0.0223115
13.59
0.0212059
2.26096
0.0378504
0.0230119
0.0893522
0.0296131
2.62308
0.0299455
0.0305844
0.0211907
0.0331657
0.0270498
0.021178
0.0446371
0.0308727
0.354518
0.0257961
0.155504
0.472462
0.0233586
3.78935
0.121848
0.165731
0.777431
0.021479
2.54653
0.956822
0.0526748
0.0532349
0.0377291
0.0216326
0.156714
2.8418
2.69451
1.92498
2.16111
0.101586
0.0254372
0.0217446
0.0213145
0.0233121
0.0318687
0.0925334
0.0211466
0.0214208
0.126162
0.0211899
0.0656315
9.74762
0.0214969
4.26574
0.0247126
0.0867639
0.029445
0.0459994
0.18156
0.0214411
0.0390486
0.0362146
0.0216198
0.0552687
0.0788738
0.0445521
0.0823581
0.0587929
0.116096
0.053335
0.0211438
0.0276124
0.0547154
2.74453
0.0238566
0.0227329
2.72349
0.061578
2.91996
0.0218875
0.781023
0.0407018
0.0337013
0.0845476
0.0411224
0.628168
0.992268
0.0226748
0.0272252
0.0863242
0.0231175
0.187968
0.295054
0.0216842
0.0376015
0.0820614
0.0224917
0.0262252
0.0210289
0.035941
2.29159
0.212456
0.0431435
0.0217654
4.36721
0.0624365
0.0260811
0.031806
0.0325771
0.0798014
0.0214656
2.31176
2.50292
0.0215803
0.0885665
0.0232163
0.0241326
0.0254826
0.0359107
2.03173
5.80974
0.0525154
0.0890038
0.0210122
3.04677
1.03151
0.0211525
0.0308163
0.0492318
0.0215754
0.0293383
0.0250359
0.978451
0.025902
0.0377642
0.021748
0.0263574
0.828018
0.0406126
0.0266884
0.0240922
0.0418817
0.0300936
0.0264736
0.0793797
0.0667666
0.0408466
0.0271623
0.0528816
0.0214184
1.94717
0.0210727
0.0855187
0.0215642
0.024891
1.10736
0.0239437
0.0294077
0.0244186
0.0259797
0.0366794
0.0297648
0.052937
0.0778775
0.0217604
0.0589264
0.0349445
0.109629
0.0246782
0.0226563
0.0348214
0.0342821
2.51707
0.0234702
0.0447184
0.0215488
0.0455704
0.0288334
0.031886
0.0218839
0.0420287
0.0221284
0.253715
3.27518
0.11438
0.0310889
0.0275334
0.03426
0.0215223
3.37889
0.0476724
0.0388301
0.0271585
0.112868
0.0209999
1.23119
4.49659
2.28062
0.0233901
0.0235697
0.0674309
0.0231882
0.0541137
0.0363399
0.777101
0.0236365
0.0551347
0.0280305
0.0357459
0.0691304
0.764171
0.0215888
0.0215935
0.943813
0.0257357
0.0268715
0.0214985
0.0217198
0.0516387
0.0411358
0.0818265
0.0228238
0.0238013
3.18077
0.0287782
0.0510553
0.0208665
0.141976
5.32572
0.0626633
0.0270858
0.0891892
0.032827
0.0220718
0.0525925
0.0396473
0.0245869
0.0687159
0.0268747
0.0486168
0.103478
0.021605
0.0638046
0.0430238
0.0215038
0.0212072
0.0236139
0.0460149
0.0313199
0.0341105
0.0213968
0.0380111
6.19776
0.0227158
0.232768
0.0361312
0.0336701
0.0241848
0.031351
0.0795245
2.84443
0.0609782
6.98646
0.0209144
0.174963
0.0321985
3.21382
0.0873378
0.0541237
0.0214472
0.080059
0.0234318
2.99207
0.162717
0.0351047
0.0831943
0.0250874
0.0513611
0.0210907
2.35321
3.67616
0.0214552
0.0254237
0.43585
0.0283201
0.107555
0.0214502
0.037874
0.0479343
0.0416636
3.09357
0.126671
0.393009
0.028548
2.58714
0.0237804
0.0286867
0.0533091
6.18732
0.0284749
0.0212244
0.0841327
3.36926
0.0526433
0.0255459
0.0268958
0.0213035
0.0215885
0.0219968
0.0809926
0.0246516
0.079915
5.43277
0.0782003
4.77101
0.0241364
0.0216797
0.0495974
0.0300396
0.0209313
0.0542361
0.0234552
0.0221502
0.0339091
0.0237472
0.0496023
0.0262942
0.0515494
0.0253798
0.0230048
0.0299827
0.0244465
0.0223462
0.0210696
0.15482
0.148408
2.48483
0.025982
0.0445524
0.0508491
6.17927
0.0337057
0.0335409
4.74178
2.3233
0.0254289
0.0249119
0.0215749
0.0794902
0.0460227
0.0213009
0.0222537
0.0241631
0.0330767
0.0553577
0.0237453
0.0524201
0.0231894
0.146727
0.0214357
0.0595675
2.25013
0.0215311
0.0306163
0.023751
0.0144009
0.125813
0.0233433
2.31461
4.26839
0.0235504
0.0462849
0.0652299
3.66445
0.136615
0.142141
0.0332955
0.0212996
0.0217648
0.0242584
0.0299135
0.0212383
0.0487989
2.12681
0.0235712
0.0290767
0.0208039
0.0214596
0.233089
0.0440053
0.186229
0.030166
0.0216053
0.0263947
0.0240384
0.0294743
0.946631
0.0290955
0.02231
0.0273718
0.0215591
0.041301
0.0270361
0.0574322
0.0384798
0.0211298
2.19425
0.0394125
0.260689
0.0229597
0.0798411
0.0303678
0.0920885
0.441241
0.021234
0.023016
0.0305321
0.0830628
0.0656429
0.150198
0.0984893
0.0219344
0.379318
0.0289306
0.0278834
0.149643
0.0498073
0.421675
0.398267
0.0952813
0.0284673
0.0458598
0.0232846
0.0606125
0.0226131
0.0247198
0.0232533
0.0390427
0.0243825
0.0227372
0.0760375
0.0213749
0.0475419
0.0531371
0.0234441
0.0214443
0.023361
2.50725
0.0212111
0.0209105
0.505957
0.0215011
0.0238624
0.0717637
0.0339085
2.27501
0.0228625
3.11275
0.0213856
0.0352712
2.25391
0.0214341
0.220595
0.0474362
0.0233904
0.047814
0.0353183
0.0509366
0.0303872
0.0565932
2.74879
0.0216333
0.0238453
0.0210767
0.0214462
0.215559
0.108879
0.0229945
0.021099
0.0241287