/*--------------------------------*- C++ -*----------------------------------*\
| =========                 |                                                 |
| \\      /  F ield         | OpenFOAM: The Open Source CFD Toolbox           |
|  \\    /   O peration     | Version:  v2012                                 |
|   \\  /    A nd           | Website:  www.openfoam.com                      |
|    \\/     M anipulation  |                                                 |
\*---------------------------------------------------------------------------*/
FoamFile
{
    version     2.0;
    format      ascii;
    class       volVectorField;
    location    "100";
    object      U;
}
// * * * * * * * * * * * * * * * * * * * * * * * * * * * * * * * * * * * * * //

dimensions      [0 1 -1 0 0 0 0];


internalField   nonuniform List<vector> 
14479
(
(0.840443 -0.927791 -7.64962e-20)
(1.0388 -0.127245 0)
(1.14025 0.176772 0)
(1.02811 2.99366e-08 0)
(1.02889 0.0419364 0)
(1.03304 0.00077161 7.79141e-21)
(1.0495 0.0101368 -2.01385e-21)
(1.23633 0.11175 6.45255e-21)
(1.17019 0.127547 -8.02458e-21)
(1.1583 0.152375 -3.53051e-21)
(1.03035 0.0119974 1.11392e-21)
(1.10376 0.0779076 -5.03614e-22)
(0.962189 -0.0894719 7.58994e-21)
(1.13089 0.136248 0)
(1.04729 -0.210072 0)
(1.03894 -0.00110127 0)
(1.05045 0.0094491 0)
(1.081 -0.183131 -3.71792e-22)
(1.04064 -0.00264897 4.37155e-21)
(1.01094 0.0105427 6.46432e-21)
(1.17422 0.0744327 -2.94021e-20)
(1.02137 0.0483746 0)
(1.00434 0.0655914 5.89126e-21)
(0.0374467 0.394718 9.19862e-21)
(1.02971 0.0105876 -1.28863e-20)
(1.04124 0.00126251 -9.60074e-21)
(1.17805 0.142004 0)
(1.16749 0.125133 0)
(1.0526 0.00488178 7.55622e-21)
(1.17832 0.14342 -8.35859e-22)
(1.14369 0.175447 -6.4315e-21)
(0.0400694 0.427363 0)
(1.04902 -0.0420244 0)
(1.04696 -0.0405713 0)
(1.11071 0.178869 2.18243e-21)
(1.08309 -0.144318 -2.67721e-21)
(1.03036 0.0127412 1.25251e-21)
(1.0405 6.20281e-05 0)
(0.992235 -0.0508066 -9.27805e-21)
(1.16666 -0.0739991 0)
(1.03862 -0.00111778 6.80137e-21)
(1.02872 0.00809725 9.97183e-21)
(1.00677 -0.0547977 9.04623e-21)
(1.00653 -0.0531597 0)
(1.03102 0.0131119 4.66331e-21)
(1.03243 0.000958031 -4.03603e-21)
(1.03318 -0.000565463 7.7396e-21)
(0.790295 0.149665 0)
(1.01151 0.0474229 0)
(1.02905 0.00929015 1.78956e-20)
(0.974404 0.166632 -3.31861e-21)
(1.16514 0.124749 8.55297e-21)
(1.03886 -0.00407391 7.64901e-21)
(0.973099 0.166341 5.46726e-21)
(1.0098 0.0630674 -1.13584e-20)
(1.11725 0.071308 -6.43389e-22)
(1.07923 -0.155512 5.11291e-21)
(1.06709 0.00268072 -4.52186e-21)
(0.768317 0.0962447 0)
(1.06712 0.00346102 -4.20627e-21)
(1.03965 -0.0118155 0)
(1.03189 -0.0198627 0)
(0.812115 -0.145342 2.80847e-21)
(1.03667 -0.00181735 0)
(1.04812 0.0109943 4.53961e-21)
(0.582159 0.413524 -9.27876e-22)
(0.861219 0.0668685 -1.69602e-20)
(0.494234 -0.422811 3.81998e-20)
(1.03859 -0.00480118 -8.04234e-21)
(1.05338 0.00638981 -4.16617e-21)
(0.891763 -0.557554 0)
(1.03332 -0.000385998 -1.59778e-20)
(1.02733 0.171992 0)
(1.17614 -0.0780044 0)
(1.02492 -0.0167859 0)
(1.03321 -0.000577676 1.86551e-20)
(1.02655 -0.00340497 7.43091e-21)
(0.843023 -0.163767 2.72695e-21)
(1.02626 -0.00292658 1.00154e-20)
(0.66672 0.380256 -1.76862e-21)
(1.04153 -0.00226979 -8.81325e-21)
(1.26292 -0.105449 0)
(0.961394 -0.137668 -3.2854e-21)
(1.16016 0.170562 0)
(1.09341 0.141707 -4.86235e-21)
(1.01789 -7.43864e-05 -8.82452e-21)
(1.02029 0.00131516 8.57842e-21)
(1.04923 0.0102831 6.72067e-21)
(1.23896 0.122303 0)
(1.06436 -0.0150751 0)
(1.16791 0.125176 8.67961e-21)
(0.629226 0.359389 1.4295e-20)
(0.306173 0.742002 -6.12513e-20)
(1.03647 -0.00120582 0)
(1.12338 -0.0420446 5.42188e-21)
(1.03321 -0.000104983 6.52046e-21)
(1.0261 -0.00339296 -2.1903e-20)
(1.03913 0.00116118 0)
(1.03049 0.00283575 7.5077e-21)
(1.16143 0.109319 -1.91536e-21)
(0.779032 -0.487579 5.85483e-21)
(1.03818 0.000512074 7.72977e-21)
(0.973283 0.165078 -1.27062e-20)
(1.09429 0.177547 0)
(0.522539 -0.378903 1.83071e-21)
(1.20754 0.154865 3.03531e-20)
(0.790464 -0.27183 5.46752e-21)
(1.04356 -0.0440531 -3.63785e-21)
(1.1449 0.173276 2.47338e-20)
(1.16103 0.108985 -2.22028e-21)
(0.809442 -0.285203 -7.61893e-21)
(1.05264 -0.207987 0)
(1.0272 -0.0485279 9.1641e-21)
(1.13277 0.0571918 0)
(1.16982 0.134591 0)
(1.12757 0.125496 2.35487e-21)
(1.0312 0.000839409 -6.43654e-21)
(1.4869 -0.331217 5.93014e-20)
(1.02464 -0.000197768 0)
(1.03289 -0.0226852 6.65822e-22)
(1.03081 0.00102579 -2.29371e-21)
(0.61831 -0.0898459 0)
(0.977881 0.165985 6.90601e-21)
(1.03066 0.00282428 0)
(1.12821 -0.0229173 8.8423e-21)
(1.02863 -0.0479733 -9.18843e-21)
(1.06265 -0.0160471 3.99531e-22)
(0.861031 -0.55479 0)
(1.12371 -0.039392 -4.04819e-21)
(1.12037 0.0203769 6.67906e-21)
(1.01806 0.0867293 -1.51702e-20)
(-0.0417904 0.0500184 -7.73849e-20)
(1.14429 0.176238 -9.76554e-21)
(1.40918 -0.400734 9.63223e-20)
(1.03702 -0.115991 4.9688e-21)
(1.15325 0.0134458 5.79894e-21)
(1.33824 0.0671055 4.25626e-20)
(1.26987 -0.0927622 3.2624e-21)
(0.870488 -0.860179 1.05378e-19)
(1.15618 0.171147 2.01775e-20)
(0.97826 0.128846 -1.62432e-23)
(0.476417 0.452558 3.13332e-20)
(1.06169 0.00141639 0)
(0.982259 0.125796 0)
(1.04179 -0.00186099 -3.69924e-22)
(1.03524 -0.117322 1.9639e-21)
(0.447585 0.42037 -2.87467e-20)
(1.03042 0.0177515 0)
(1.02378 0.0828705 1.31426e-20)
(1.05633 -0.185978 0)
(1.05036 -0.106597 -3.41612e-21)
(1.03162 -0.00587965 0)
(0.781833 0.0618657 0)
(1.09411 0.0108597 0)
(1.04121 0.00128911 -1.0468e-20)
(1.06084 -0.00038861 4.10079e-21)
(1.13358 -0.0418182 -3.96684e-21)
(0.0299317 0.0384808 -1.19389e-20)
(1.17283 0.08599 -1.82148e-21)
(1.15547 0.0181214 0)
(1.18812 -0.0700308 -9.85706e-21)
(1.03115 -0.00343119 -7.43498e-21)
(1.032 -0.00616577 -8.98661e-21)
(1.0262 0.028672 -2.10206e-20)
(0.777181 0.0859132 3.2056e-21)
(1.05498 0.0115037 -7.38886e-22)
(1.03068 -0.00721124 4.57802e-21)
(1.24927 0.045831 -2.49599e-20)
(1.15241 0.149114 0)
(1.17043 0.0848511 3.71356e-21)
(0.560042 0.389262 -2.43005e-22)
(1.11403 0.100856 -6.78364e-22)
(1.03998 -0.00025504 -3.8969e-21)
(0.961138 -0.0860286 -4.24604e-21)
(1.03319 0.00187818 -9.47208e-21)
(1.0084 0.0110459 -6.2157e-21)
(1.15499 0.00618834 1.25652e-20)
(1.02917 -0.000947824 0)
(1.03784 -0.0509308 8.94726e-22)
(1.42406 -0.489269 2.91698e-20)
(1.12609 0.123102 2.02811e-21)
(1.03612 0.039717 4.9929e-22)
(1.14203 0.136007 0)
(1.02365 -0.0459061 9.9574e-21)
(0.995447 -0.0576024 -7.73157e-21)
(1.03074 0.0518519 1.89179e-21)
(1.1569 0.170076 -9.85335e-21)
(0.000276488 0.0818209 1.18618e-22)
(1.06297 -0.00166012 -1.77097e-21)
(0.798935 0.142233 0)
(0.162364 0.218969 0)
(0.900351 -0.127197 0)
(0.585101 0.404148 -3.41952e-21)
(1.07397 -0.170068 0)
(1.03882 4.47664e-05 0)
(1.11413 0.100204 7.60229e-22)
(1.03714 0.0162225 1.06002e-20)
(1.03538 -0.0509557 -1.04285e-21)
(1.12811 0.0471781 0)
(1.03223 -0.00549337 1.68474e-20)
(1.04564 -0.193787 -1.25148e-20)
(1.02431 0.00275686 0)
(1.02649 -0.00390804 -1.08934e-20)
(1.03087 -0.00769014 0)
(1.10201 -0.0739149 5.43257e-21)
(1.03713 0.0029968 3.74367e-21)
(0.843352 0.0413597 5.48101e-21)
(1.03503 -0.00143635 -4.83836e-22)
(1.0508 0.00398959 -7.47642e-21)
(1.10181 -0.0834595 -2.0606e-21)
(1.1156 0.0690186 0)
(1.04684 -0.00854882 0)
(1.10373 -0.0712835 4.2956e-21)
(1.10182 -0.066509 3.30218e-21)
(1.15698 0.135352 -4.49296e-21)
(1.1882 -0.0817307 9.76401e-22)
(0.915356 0.244732 1.28622e-20)
(1.10133 0.0190342 3.93248e-21)
(1.19297 -0.0684816 -1.15225e-21)
(1.00838 0.0432035 1.20153e-20)
(1.0482 -0.203319 2.93393e-21)
(0.766602 0.134361 6.82751e-21)
(1.07901 -0.00729936 4.43259e-23)
(1.02143 -0.0442903 0)
(0.778577 0.126995 2.05025e-20)
(1.03056 -0.000408745 1.17577e-20)
(0.50662 -0.449884 -3.30756e-20)
(1.03116 -0.00207868 -2.22998e-20)
(1.14108 0.137562 0)
(1.00845 -0.027278 -8.67228e-21)
(1.03529 -0.0207497 -5.49106e-21)
(1.00866 -0.0277643 8.62373e-21)
(0.994979 -0.05234 0)
(1.03321 0.019297 9.21316e-21)
(1.03882 0.00110188 2.24009e-21)
(0.392948 0.265745 -4.91069e-20)
(1.00624 -0.00674469 -1.10081e-20)
(1.21994 0.102027 1.41919e-20)
(-0.00281984 0.0843962 3.7082e-20)
(1.04036 -0.00331956 5.51929e-21)
(1.02312 0.00124173 0)
(1.0326 -0.00575977 -2.27824e-21)
(1.18167 0.11603 0)
(1.02208 0.00329638 0)
(1.03224 0.0525917 -1.88745e-21)
(1.29869 -0.0876543 5.24893e-20)
(0.860703 -0.389597 3.25352e-19)
(1.09352 -0.194963 0)
(1.03271 -0.0198685 2.65006e-21)
(1.04156 0.000145791 6.58627e-21)
(1.12986 -0.0448228 -2.86881e-21)
(1.0546 -0.0397056 0)
(1.01635 -0.0464081 8.74731e-21)
(1.15773 0.153237 0)
(0.989524 -0.0481455 2.07359e-22)
(1.03014 0.00142283 0)
(1.10039 -0.0590667 2.11877e-21)
(1.0518 0.00431076 -7.57629e-21)
(1.02286 -0.00653951 0)
(1.04054 0.00235835 0)
(1.03108 -0.00196929 9.9365e-21)
(1.02316 0.00109264 0)
(1.04052 0.00229103 -1.05607e-20)
(1.02875 -0.000564284 -1.03631e-20)
(1.02764 -0.000471486 1.16632e-20)
(1.12387 -0.0400405 0)
(1.02476 0.0294853 1.8682e-20)
(1.04156 0.000155776 1.1426e-22)
(0.829321 -0.323667 -1.95346e-19)
(1.17741 0.0401288 1.16757e-20)
(1.14181 0.136005 0)
(1.03908 0.00266925 -3.98144e-21)
(0.596931 -0.0749517 -4.42442e-22)
(1.11131 0.10132 -2.26639e-24)
(1.25486 0.0317834 -5.65196e-21)
(1.08372 -0.107634 0)
(1.21582 0.104529 0)
(1.05444 0.00422655 0)
(1.13048 0.0532407 0)
(1.05708 -0.0397034 5.87828e-21)
(1.25224 -0.130604 -4.53056e-20)
(1.029 -0.000426659 0)
(1.06211 -0.0174205 -3.43406e-21)
(1.08229 -0.00853468 1.45974e-21)
(1.1968 0.138602 0)
(1.13365 0.143164 7.15298e-21)
(1.14353 0.131926 0)
(1.15626 0.170472 -2.30186e-20)
(1.12195 0.0842539 0)
(0.863297 -0.741471 -6.03217e-20)
(1.16593 0.143888 -7.54095e-21)
(1.0245 -0.0163875 0)
(1.02163 -0.00668938 8.27746e-21)
(1.13653 -0.0274198 -8.63863e-21)
(1.01034 -0.00681098 1.1542e-20)
(0.920069 -0.167701 -3.80315e-21)
(0.308201 0.472315 -7.66958e-20)
(1.0626 -0.00774544 -1.94947e-22)
(1.1735 -0.00841473 8.43556e-21)
(1.07792 -0.10939 2.19247e-21)
(0.18099 0.221976 0)
(0.63559 0.380307 0)
(1.02776 -0.000187724 0)
(1.02495 -0.012777 0)
(1.13601 0.0871348 4.39575e-21)
(1.3341 -0.64747 -1.26363e-19)
(1.03097 -0.00356479 0)
(0.842304 -0.569776 6.02622e-20)
(1.04991 0.00470909 0)
(1.16882 0.133102 0)
(1.02571 0.00152033 0)
(0.811943 -0.570125 -5.32778e-20)
(1.08459 0.0184429 -5.82291e-21)
(1.0295 0.0191822 0)
(1.13587 0.0880599 -4.84824e-21)
(1.02346 0.130208 5.79447e-21)
(0.894523 -0.116765 5.99848e-21)
(1.09648 0.0474604 6.19161e-21)
(1.13273 0.0894921 0)
(1.04285 0.00328043 3.97766e-21)
(0.293695 0.237822 9.6064e-21)
(1.18359 0.117905 -1.44931e-20)
(0.829677 -0.0491022 2.61915e-20)
(0.978176 0.00845316 -5.11421e-21)
(1.04151 -0.0114691 -8.3802e-21)
(0.429172 0.230239 1.00133e-20)
(0.135751 -0.00249874 7.35082e-21)
(1.03613 -0.12604 -4.45616e-21)
(0.967589 -0.102678 7.34635e-21)
(1.05489 -0.0397537 6.16947e-21)
(0.999133 0.058173 1.20409e-20)
(1.03676 0.0143029 -2.44378e-20)
(1.01984 -0.00504283 -1.59504e-20)
(1.11541 0.138082 -4.61105e-21)
(1.02816 0.000322981 0)
(1.06057 -0.017838 0)
(0.466912 -0.345298 0)
(1.12102 -0.0330586 -4.49946e-21)
(1.00883 -0.0098121 -1.25072e-20)
(1.03245 -0.0237643 -8.46502e-22)
(1.04356 -0.0109939 0)
(1.01459 0.0347496 1.19575e-20)
(1.04888 0.00424789 -3.39648e-23)
(1.11947 0.115299 -4.12249e-21)
(1.07142 -0.0996118 -5.03226e-21)
(1.11588 0.0735985 8.7253e-22)
(1.39931 -0.321416 -4.77946e-20)
(1.13046 0.0905926 -1.19165e-21)
(1.14809 0.135344 4.03742e-21)
(1.10256 0.0247175 0)
(1.03874 0.00284886 0)
(1.08716 0.00648855 0)
(1.01946 0.171153 4.43017e-22)
(0.289661 0.782051 1.42977e-19)
(1.0415 -0.0725343 0)
(1.31121 -0.660046 0)
(1.15684 0.136355 -5.24041e-21)
(0.16313 -0.00425968 2.19063e-20)
(1.04161 -0.0111216 9.42285e-21)
(-0.0985313 0.0721603 -1.06918e-20)
(1.06522 0.0103971 -5.06763e-21)
(0.907472 -0.0946415 -2.42744e-20)
(1.02324 0.130752 0)
(0.617311 -0.477677 -6.93465e-21)
(1.08378 0.01574 3.96502e-21)
(1.06626 0.00972765 0)
(1.02909 -0.0149768 0)
(1.02927 0.000298929 0)
(1.1229 0.140825 5.5777e-21)
(1.03031 -0.0157513 5.26972e-21)
(1.0272 0.000112116 -4.53986e-21)
(0.989791 -0.0510787 0)
(1.03844 0.000281191 -5.46837e-21)
(1.26267 -0.118794 4.72192e-20)
(0.949814 -0.152879 1.28146e-21)
(1.20199 0.152274 4.63375e-22)
(1.03288 -0.0176594 0)
(1.2499 0.109994 0)
(1.12187 0.0564337 8.71077e-22)
(1.05892 -0.00794097 9.50489e-21)
(1.1392 0.0852034 -5.05072e-23)
(1.2403 0.0412635 2.91124e-20)
(1.03828 0.00273918 1.0644e-22)
(1.02518 0.00360362 -8.8976e-21)
(1.00373 0.171482 1.27546e-20)
(1.04512 -0.0467436 0)
(0.0535181 0.133126 3.57151e-20)
(1.04655 -0.00903043 -1.39392e-20)
(1.12119 0.0285311 -6.85248e-21)
(1.02553 0.0206567 -5.60423e-21)
(1.2514 0.117437 1.71502e-20)
(1.07395 0.0185406 -6.7052e-21)
(1.08777 0.0164799 -7.75334e-21)
(1.43719 -0.442743 1.22399e-19)
(1.06851 -0.101712 5.03906e-21)
(1.09706 0.0198013 -1.20737e-20)
(1.02259 0.00471813 0)
(1.18327 -0.0108118 -1.375e-21)
(1.02869 -0.200828 -2.17165e-21)
(1.19292 0.138358 1.942e-20)
(1.16156 0.097683 1.47418e-20)
(1.1824 0.115625 -1.26357e-20)
(1.17406 -0.00419066 -7.96811e-21)
(1.03097 0.0847673 -2.55878e-21)
(1.14463 -0.109522 2.17076e-20)
(1.04736 -0.0448971 0)
(0.955665 -0.0787301 4.5267e-21)
(1.13917 0.0848076 0)
(1.02784 0.172321 0)
(1.14236 0.107713 0)
(1.03897 -0.123067 0)
(1.19977 0.182273 -1.43518e-20)
(1.12634 -0.0448357 5.53521e-21)
(1.04027 -0.204309 7.77767e-21)
(1.04596 -0.00362805 -2.22836e-20)
(0.914969 -0.122281 -4.05897e-21)
(1.05388 0.00242701 7.78995e-21)
(1.07112 -0.000978442 6.88173e-21)
(-0.034126 0.0441238 6.32228e-20)
(1.29396 -0.0757166 0)
(1.0044 -0.050525 0)
(0.953487 0.163388 2.76742e-22)
(0.0650475 0.128541 -3.49004e-20)
(0.915227 -0.1292 0)
(0.34294 0.710049 -5.59368e-20)
(1.06154 -0.0091452 0)
(1.08959 0.0161882 7.71888e-21)
(1.12128 -0.0331164 0)
(1.02732 -0.0159738 0)
(1.03101 0.0146174 -1.8598e-20)
(1.02065 -0.00215523 1.44009e-20)
(1.19536 -0.00811568 1.42986e-20)
(0.916717 0.268041 0)
(1.06013 -0.0950687 0)
(0.0170666 0.0316313 2.74501e-20)
(1.12148 0.114523 7.62494e-21)
(0.954014 0.163797 0)
(1.01492 0.069242 1.08667e-20)
(1.12062 0.142679 -7.05081e-21)
(1.04278 -0.0107232 0)
(0.987774 -0.887632 -1.16161e-19)
(1.05278 0.00333169 0)
(1.03359 0.018265 -5.22239e-21)
(0.616222 -0.122254 -4.71329e-22)
(1.02571 -0.0141641 1.01268e-20)
(1.02888 -0.000692656 -4.68289e-21)
(1.08619 -0.0155918 0)
(1.15648 -0.0210093 1.17931e-21)
(1.03844 -0.0763764 -2.12932e-21)
(1.01955 -0.00103471 -1.61457e-20)
(1.03049 0.0171404 -6.86453e-21)
(1.03212 -0.0174206 0)
(0.995423 -0.00377265 9.01072e-21)
(1.12097 0.0366487 1.45814e-21)
(0.993877 -0.00706262 2.86167e-21)
(1.16229 0.0975066 -2.10224e-20)
(1.04035 -0.0122363 -3.06309e-21)
(1.13888 0.176867 -8.60771e-21)
(0.88022 -0.0857059 1.41147e-20)
(1.13952 0.175192 4.26949e-21)
(1.25691 0.160494 -2.38462e-20)
(1.05312 0.000897465 0)
(1.0193 0.00399559 -9.42865e-21)
(1.14376 0.00800324 -1.41138e-20)
(1.08936 -0.147345 0)
(1.02912 -0.00103407 0)
(1.18755 -0.00693543 -2.16253e-20)
(0.985207 0.164851 -3.56165e-22)
(1.02123 -0.862215 9.48418e-20)
(1.03972 -0.0105414 -9.21116e-21)
(1.03099 -0.00171683 -3.18619e-21)
(1.13999 0.152808 2.44222e-21)
(1.03525 -0.001412 1.92303e-21)
(1.03471 -0.00247135 0)
(0.577367 0.144948 1.09802e-20)
(0.619471 0.399051 4.45032e-21)
(1.25476 0.0321615 0)
(0.741285 0.133799 1.02396e-20)
(1.17165 0.0714792 6.24774e-22)
(1.0292 -0.000563969 0)
(1.16944 0.13576 0)
(1.07083 -0.140304 6.95621e-21)
(1.11971 0.0369597 0)
(1.08633 -0.143806 0)
(1.1977 -0.0105355 2.02772e-20)
(1.02409 0.000354941 7.32881e-22)
(1.03912 0.0388427 0)
(1.02031 0.00235506 -8.77685e-21)
(0.917027 0.0668876 -8.13031e-21)
(1.03841 0.0977977 4.59331e-21)
(1.04806 0.00473981 2.00574e-20)
(1.04294 0.003132 0)
(1.25886 0.135548 1.97238e-20)
(1.0463 -0.00515689 5.86646e-21)
(1.02172 -9.40771e-05 -4.41498e-22)
(1.02012 -0.000410774 -7.70388e-21)
(1.03016 0.00143275 -1.31208e-21)
(1.35032 0.0939466 -4.71017e-20)
(1.05637 0.011641 2.25284e-22)
(1.20729 0.141973 1.60521e-20)
(1.09704 -0.104123 -7.91494e-21)
(1.01088 0.078099 0)
(0.595464 0.37609 -5.69788e-23)
(1.1527 -0.112407 -1.52184e-20)
(0.348326 0.268889 2.63651e-20)
(1.15672 0.149739 0)
(1.20428 0.16952 0)
(0.735256 0.51233 -2.86845e-19)
(0.927978 0.00115172 0)
(1.03439 -0.00260507 2.63365e-21)
(1.0212 -0.0016726 -1.57358e-20)
(1.04097 -0.0393732 2.88275e-21)
(1.08425 -0.00565999 -1.61746e-21)
(1.17018 0.129356 1.43369e-20)
(1.06194 0.000303081 0)
(1.38942 -0.278206 0)
(1.17769 0.139668 -9.82521e-21)
(1.08654 0.0175526 0)
(0.779397 -0.0357965 -3.14741e-20)
(1.15317 0.148021 0)
(0.597453 0.154264 0)
(1.02324 0.0219792 6.05588e-21)
(1.03107 -0.00150147 7.9175e-22)
(1.10379 -0.0614599 -3.24579e-21)
(1.02094 -0.000335381 -1.91934e-21)
(1.18428 0.110415 1.11468e-20)
(1.02632 -0.00021452 6.27771e-21)
(1.13033 0.0525937 0)
(0.750725 0.138366 1.74371e-21)
(1.02207 -3.01315e-05 8.00873e-21)
(0.480374 0.22971 0)
(0.989635 0.167891 0)
(1.10703 -0.0126117 0)
(1.04709 0.00426046 -1.22965e-20)
(1.03753 0.00337697 -5.80403e-21)
(1.06635 -0.00686154 -4.74126e-21)
(1.07592 -0.0515526 -1.18426e-21)
(1.02304 -0.000160398 0)
(1.17737 0.0763568 1.56284e-20)
(1.14763 0.0095871 -5.56357e-21)
(1.12322 0.0843354 0)
(0.52628 -0.411761 6.95993e-21)
(1.12405 -0.050302 0)
(1.04198 -0.000490147 -6.34918e-21)
(1.29745 0.0426396 2.49884e-21)
(1.12506 0.0516291 -3.34207e-21)
(1.11122 0.0229318 -7.05905e-21)
(1.04908 0.0986371 0)
(0.64773 -0.473556 -8.62246e-21)
(1.05114 0.00709435 -7.52094e-21)
(1.01806 -0.0424832 0)
(1.20244 0.165445 0)
(1.49332 0.0172493 1.19498e-21)
(1.02613 -0.000233653 1.15429e-21)
(1.12424 -0.0524339 0)
(1.00994 -0.0574016 0)
(0.800719 -0.472234 -8.82072e-21)
(1.12294 0.124271 -1.73908e-21)
(1.02815 -0.000377976 -6.56592e-21)
(0.358192 0.470984 4.08613e-20)
(1.02441 0.0015465 -1.16669e-21)
(1.06011 -0.00722023 -1.35138e-20)
(1.02781 -2.0512e-05 0)
(0.119138 0.241363 4.55439e-22)
(1.18098 0.123351 -8.45651e-21)
(1.01839 -0.00109606 2.5285e-21)
(1.04043 -0.000342894 4.17666e-21)
(0.850954 0.0369749 0)
(1.17867 0.0408508 6.97315e-22)
(1.0549 0.0252347 0)
(0.99362 -0.0564709 8.42653e-21)
(1.0767 -0.038914 -6.49601e-22)
(1.00381 -0.0149179 6.38433e-21)
(1.01782 -0.0222162 2.32578e-21)
(1.16719 -0.0086457 1.7463e-20)
(1.15382 0.152531 -1.13738e-20)
(0.329918 0.0215614 -4.33145e-20)
(1.07333 -0.00309986 -7.35719e-21)
(1.21124 0.182795 0)
(0.820843 -0.926359 1.12282e-19)
(0.656597 0.181569 0)
(1.07894 -0.0373095 7.59659e-22)
(1.10707 -0.013021 0)
(-0.0883677 0.0513095 0)
(1.01858 0.000482694 0)
(0.998162 -0.0512461 -1.06313e-20)
(1.09733 0.0480357 -5.86989e-21)
(1.05464 -0.107706 -1.52464e-22)
(0.975998 -0.000327994 6.87924e-21)
(1.08454 0.0302858 2.32321e-21)
(1.17499 0.0323272 -7.50801e-21)
(1.04032 -0.00165889 3.52816e-21)
(0.0177835 0.44489 0)
(0.851468 -0.292859 1.3759e-21)
(1.00943 0.0166193 6.23038e-21)
(1.20821 0.0124315 -3.37583e-22)
(1.43794 -0.292721 6.28428e-20)
(1.041 0.00222628 0)
(1.12126 0.0479791 -5.60679e-21)
(1.05154 0.00432805 1.46917e-20)
(1.04791 0.0076416 0)
(1.15549 0.0105278 -1.05713e-20)
(1.03869 -0.000231623 1.1841e-21)
(1.00466 -0.00954648 1.5255e-20)
(1.09105 0.0086533 2.65275e-21)
(1.14493 0.133543 3.20469e-21)
(0.665789 0.382953 -1.57503e-20)
(1.15673 0.100529 -1.42211e-20)
(1.14239 -0.170766 1.46584e-20)
(1.01547 0.0404256 -2.85919e-22)
(1.08319 -0.0912475 9.22516e-22)
(1.14248 0.1537 2.14175e-21)
(-0.0504483 0.0501422 2.93035e-20)
(1.01195 -0.0455657 0)
(0.0756239 0.0104457 4.67792e-21)
(0.772322 -0.84583 -8.49227e-20)
(1.02128 0.000227176 1.06172e-20)
(1.1653 0.165612 0)
(1.04015 -0.00172245 7.17827e-21)
(0.792594 0.0673211 2.46607e-21)
(1.12006 0.0313726 0)
(0.904916 -0.757447 4.99521e-20)
(1.16077 -0.0230465 -7.97106e-21)
(0.8846 -0.0917057 0)
(1.04641 -0.00705289 6.14033e-21)
(1.15797 0.122456 1.42536e-20)
(0.997493 0.0514452 3.15957e-21)
(0.851276 -0.282821 -4.532e-21)
(1.09445 0.00548518 0)
(1.11197 0.0372724 0)
(1.01288 0.0013464 -1.17881e-20)
(1.03315 0.00182146 1.6228e-23)
(0.987743 0.160719 5.34815e-21)
(1.04814 -0.037014 -2.98313e-21)
(1.06575 0.0121471 0)
(1.05564 -0.09794 -3.6902e-21)
(1.01962 0.000339342 9.07064e-21)
(1.12039 0.154017 0)
(1.32167 0.0694585 4.9023e-21)
(1.03286 -0.000562099 -1.20723e-20)
(1.10941 0.0376609 0)
(1.04676 -0.00666468 -1.23039e-20)
(0.00503428 0.084471 0)
(0.727682 0.542412 -1.52471e-19)
(1.37661 -0.0145427 0)
(0.757441 -0.479533 -1.92713e-20)
(1.11618 -0.223207 -1.78491e-20)
(1.00926 0.0174397 6.63204e-21)
(1.13873 0.150325 7.98912e-21)
(1.13771 0.0106809 0)
(1.0395 -0.00400195 -9.65771e-21)
(1.05564 0.0176252 0)
(1.04793 -0.0408709 -2.40989e-21)
(0.212782 0.58146 4.68473e-21)
(1.12811 -0.216072 2.93534e-20)
(1.01212 0.00345906 1.02958e-20)
(0.890539 0.0928874 4.59443e-20)
(1.11934 0.0328766 6.52731e-22)
(1.05243 -0.0980141 0)
(1.03492 -0.0228047 -6.17987e-21)
(1.41821 -0.373855 -1.27461e-19)
(0.947625 -0.0999839 2.28826e-21)
(0.575449 0.377688 1.09347e-20)
(1.02959 0.000649506 -8.9803e-21)
(1.12779 0.113065 0)
(0.12849 0.00759592 -1.43891e-20)
(1.11973 0.155575 -2.84599e-21)
(1.02827 -0.0170455 0)
(1.11646 0.0677637 -5.56764e-22)
(1.02902 -0.000741268 0)
(1.00464 0.00782984 2.5242e-24)
(1.07246 -0.0506794 1.65443e-21)
(1.03709 -0.0166111 0)
(1.04637 0.00465998 4.0852e-21)
(1.02735 0.000529702 -5.90141e-21)
(1.05318 0.00997105 5.9741e-21)
(1.12404 0.113172 -3.99971e-21)
(1.1213 0.0966564 0)
(1.0645 -0.00552373 4.82937e-21)
(1.08194 0.100038 0)
(1.06474 -0.010432 -4.3424e-21)
(1.04531 -0.0454527 0)
(1.15026 0.0048104 5.54659e-21)
(1.17176 0.141267 0)
(-0.0106058 0.0454557 0)
(1.0377 -0.0151562 -5.03827e-21)
(0.490868 -0.367042 1.9128e-21)
(1.06384 0.0126714 3.36381e-22)
(1.07389 -0.0780294 0)
(1.11679 0.0474554 1.57454e-21)
(1.01641 -0.0239221 3.27537e-21)
(1.25408 0.0956053 -8.81099e-21)
(1.07978 -0.012745 -2.8392e-21)
(1.03947 -0.0448224 0)
(1.12521 0.0521843 1.75099e-21)
(0.905911 0.408273 1.24103e-19)
(1.02373 -0.019776 6.31418e-21)
(1.0553 0.0161683 -9.97099e-21)
(1.0223 0.011987 0)
(1.08822 -0.0140298 4.12389e-22)
(1.01115 0.00518232 0)
(1.03924 -0.000863886 0)
(1.17505 -0.0199449 -9.89151e-21)
(1.08168 0.0160668 0)
(1.05257 0.00936747 0)
(1.12279 0.121136 4.98187e-21)
(1.02126 0.0250833 0)
(0.589498 0.202911 3.31683e-20)
(0.586336 0.334366 -1.27228e-20)
(1.14302 0.016097 -2.36159e-22)
(0.943107 -0.113512 2.08246e-21)
(1.1437 0.00545782 0)
(0.281056 0.301542 -1.01456e-20)
(1.14301 0.0394655 5.91315e-21)
(1.0777 -0.00544055 -2.38013e-21)
(1.01865 -0.0486467 0)
(1.07388 0.0263896 4.2982e-21)
(1.04646 0.0832119 4.76875e-21)
(1.01131 -0.0459304 -3.47051e-22)
(1.0274 -0.000161373 7.39478e-21)
(1.11081 0.149877 4.62352e-21)
(1.03512 0.0935249 -2.97711e-20)
(1.01437 -0.0115744 1.09265e-20)
(1.10865 0.026795 -4.60143e-22)
(-0.00997445 0.0501473 -3.81788e-20)
(1.4212 -0.507037 -1.72524e-19)
(1.26512 0.082325 2.60937e-20)
(0.789872 -0.583957 5.47437e-20)
(1.11323 0.150566 -2.73107e-20)
(1.05813 -0.0940984 1.56187e-22)
(1.0456 0.00423549 4.18434e-21)
(1.04069 -0.00433397 9.9105e-21)
(1.37077 -0.0250947 -1.04936e-20)
(1.03025 0.0949762 3.30416e-20)
(1.07765 -0.193856 0)
(1.02736 0.000587965 6.05388e-21)
(1.18031 -0.0679149 -2.7281e-21)
(1.10588 0.0245638 0)
(1.06607 -0.127846 -3.53562e-21)
(1.14344 0.0044712 0)
(1.13606 0.108501 -1.0051e-20)
(1.02903 -0.00540799 0)
(1.05995 0.0120504 0)
(1.14419 0.129155 0)
(1.02921 -0.00585593 0)
(1.04666 -0.00456768 1.29449e-20)
(0.864175 0.287839 4.43675e-21)
(1.11763 0.0986403 3.15522e-22)
(1.03985 -6.58273e-05 8.66719e-21)
(0.922176 0.213935 0)
(1.48014 -0.352394 -8.56253e-20)
(1.06407 -0.0117851 0)
(1.18444 0.125607 -1.65992e-20)
(1.11788 -0.180621 -5.28204e-22)
(0.00442686 0.0854728 -3.0471e-20)
(1.18951 -0.0803207 -9.92938e-23)
(1.14043 0.156633 -2.44812e-21)
(0.86717 0.258026 1.5294e-21)
(1.14757 0.136905 0)
(1.18526 -0.00328786 0)
(0.986503 -0.0508178 -1.216e-20)
(1.05608 -0.0362833 -2.17531e-21)
(1.27682 0.201771 -6.31625e-20)
(-0.0296281 0.339494 5.00387e-20)
(1.04055 0.0369092 -1.32111e-21)
(1.00855 0.200365 4.63188e-22)
(1.45664 0.0539067 1.07272e-20)
(1.09923 -0.0512245 0)
(1.14669 0.175923 3.76458e-21)
(1.05941 0.00948335 5.36328e-21)
(1.17748 -0.0245271 -1.05909e-20)
(1.00171 -0.00459764 0)
(1.02728 -2.85295e-05 6.70325e-21)
(1.02253 0.0130432 6.74314e-21)
(1.02187 0.000316384 0)
(0.7623 -0.577562 -2.16661e-20)
(0.772359 0.0698291 -5.36695e-21)
(1.28922 -0.259701 -1.36816e-19)
(1.04648 0.00217921 -6.86378e-21)
(0.832519 0.27163 3.43773e-20)
(1.01567 -0.0463832 -8.79386e-21)
(1.04607 -0.0365806 8.34084e-21)
(1.37036 0.00281357 3.2012e-20)
(1.02983 -0.00624811 -8.40632e-21)
(1.09314 -0.0658096 -3.13492e-21)
(1.14075 0.106869 6.72581e-21)
(1.07201 -0.128363 0)
(1.07708 0.0838922 1.25361e-20)
(1.03265 0.000802226 0)
(1.02838 0.0922288 -9.67368e-21)
(1.17294 0.147622 0)
(1.16592 -0.0145572 -1.76556e-20)
(1.06177 -0.0330768 0)
(1.09127 -0.288279 1.77169e-21)
(0.971544 0.202346 0)
(0.961862 0.370556 -9.24034e-20)
(1.17049 0.134951 0)
(1.34175 0.0664397 -5.42756e-20)
(1.03266 0.00199235 0)
(0.996394 0.139455 5.26395e-21)
(1.07804 -0.0142591 3.66149e-21)
(1.12036 0.0513261 2.01507e-22)
(1.09012 0.0266658 3.97487e-21)
(1.1244 0.113157 3.83403e-21)
(1.13176 0.0482965 3.41304e-21)
(1.02126 0.000874787 1.37759e-21)
(1.0025 -0.026095 -1.43411e-20)
(1.15876 0.122289 -2.55457e-20)
(1.12251 0.00540655 0)
(1.03189 0.016618 -1.43302e-21)
(0.901397 -0.0922157 0)
(1.0371 -0.214169 -3.25106e-21)
(1.04597 0.00907585 0)
(1.01267 -0.0265099 0)
(1.02509 -0.0210192 2.11627e-21)
(1.16683 -0.0649829 0)
(1.14332 -0.169878 -9.43084e-21)
(1.06699 0.0743822 -4.78384e-21)
(1.07702 0.0371717 0)
(1.05872 0.00826551 -1.06573e-21)
(0.998397 -0.0567737 -8.68136e-23)
(1.03692 -0.000435838 -1.77633e-20)
(0.0526077 0.029315 0)
(-0.0540535 0.0404448 -4.10609e-20)
(1.02266 0.0286712 0)
(0.0169577 0.103125 -1.33551e-20)
(1.16198 0.0501582 -2.48527e-21)
(1.03304 -0.000464544 0)
(0.975169 0.199856 -1.13396e-20)
(1.16474 0.123221 1.17841e-21)
(1.12981 0.113296 7.9364e-21)
(1.04465 0.0100774 -2.22224e-20)
(1.01895 0.0250916 5.76888e-21)
(0.133296 0.228626 1.33053e-20)
(0.464091 0.389768 -7.954e-21)
(1.16828 0.145949 0)
(0.818944 -0.764327 1.06397e-20)
(1.03128 0.0164665 5.91292e-21)
(0.281883 0.214469 0)
(1.27332 0.0615005 -1.59122e-20)
(1.0812 -0.00477649 0)
(1.15824 -0.0200547 -7.63164e-21)
(1.12073 0.0966343 0)
(1.13757 0.108034 3.08872e-21)
(0.583108 -0.0348124 0)
(1.03077 -0.000144009 0)
(1.0259 0.00298388 -6.81237e-21)
(1.31242 -0.267147 -1.02847e-19)
(1.079 -0.00851903 2.79321e-21)
(1.08654 -0.00907601 0)
(1.01455 -0.0284224 0)
(-0.01929 0.0496847 0)
(0.90316 -0.0527827 -6.14793e-21)
(1.17661 0.136003 1.7144e-20)
(1.13464 0.177486 -1.48071e-20)
(0.54095 0.392517 -7.56282e-21)
(0.76004 0.138317 -1.99257e-21)
(1.03004 0.000604948 7.32493e-21)
(1.16577 0.143421 6.46475e-21)
(1.08407 -0.0250006 -1.70574e-21)
(0.679531 0.201447 -2.68224e-21)
(1.28259 0.0484351 1.55277e-20)
(0.00128045 0.0533554 4.01035e-20)
(1.03694 0.000811552 9.83217e-21)
(1.10584 0.0243425 0)
(1.03429 -0.0206848 8.14456e-21)
(1.02466 0.00127725 -5.92857e-21)
(0.98967 -0.0507969 0)
(0.832715 0.144685 -6.32423e-21)
(1.0035 0.132108 -6.6955e-21)
(1.08068 0.0268262 -8.73605e-21)
(1.09686 -0.000668094 -8.91895e-22)
(1.11726 0.0989725 -4.37547e-22)
(1.02762 0.000279197 0)
(0.954961 -0.0729472 1.45758e-20)
(1.05421 0.0220639 0)
(1.02087 -0.0211456 -2.30069e-21)
(1.14099 0.0124411 4.74591e-21)
(1.10861 0.0257728 0)
(1.05913 0.0108272 -4.86082e-21)
(1.04361 -0.0192618 -4.68556e-21)
(1.06277 0.0202981 6.23013e-21)
(0.588167 0.229924 0)
(1.06754 0.0879816 0)
(0.568833 0.407169 5.5239e-21)
(1.10182 -0.0993775 2.78567e-21)
(0.427676 -0.12548 4.91051e-21)
(1.11415 0.121659 1.49939e-21)
(1.03804 0.00343116 -1.29083e-20)
(1.17049 0.12671 9.27105e-21)
(1.13923 0.154282 -5.83598e-21)
(1.28303 -0.287282 6.18018e-20)
(1.04501 -0.00973416 -1.02075e-22)
(0.212289 0.196338 2.07523e-20)
(1.0297 -0.00623258 1.37389e-20)
(1.17313 0.0727355 -6.3326e-21)
(1.06059 0.00316397 4.05875e-21)
(0.731596 -0.00602898 -9.75027e-21)
(1.04365 -0.0180408 1.12032e-23)
(1.04094 0.00201369 -4.14268e-21)
(1.02124 0.00368632 0)
(1.02223 -0.0223599 -7.05895e-21)
(1.00015 -0.00672678 -8.63749e-21)
(1.15891 -0.161275 9.7161e-21)
(1.0491 0.313555 -8.37143e-21)
(1.2655 0.0447818 -1.61487e-21)
(0.990365 -0.0571479 1.28892e-20)
(1.02903 0.0095721 -1.66893e-20)
(1.01454 -0.000174677 6.61673e-21)
(1.03753 -0.00426334 1.29729e-21)
(1.03776 0.0115912 0)
(1.03654 -0.000750112 0)
(1.02482 0.0278433 2.89165e-21)
(0.813984 -0.428065 -7.51844e-21)
(0.807873 -0.213725 0)
(1.02362 0.0015471 1.06906e-20)
(1.17926 0.0264344 0)
(1.16181 -0.135028 8.97769e-21)
(1.03782 -0.000103271 -1.06374e-20)
(1.1846 0.111049 0)
(0.411671 0.123479 -5.23843e-21)
(1.00985 -0.000359861 -1.40895e-20)
(1.02178 0.000878767 0)
(0.610868 -0.0101867 0)
(1.00112 -0.00548363 -1.12449e-20)
(0.713912 -0.576938 0)
(1.05024 0.0695888 4.88034e-21)
(1.03826 0.0112262 0)
(1.04013 -0.00893112 1.04572e-20)
(1.20191 0.146474 -2.99139e-20)
(1.02323 0.00155791 1.39394e-20)
(1.12307 0.15286 0)
(1.28392 0.200988 0)
(1.03252 0.0155383 1.38852e-20)
(1.03693 -0.000519913 2.1184e-20)
(1.29141 -0.280957 1.17386e-19)
(0.962642 0.171382 -4.56803e-21)
(1.08867 -0.0936236 3.73014e-22)
(0.437522 -0.0887059 0)
(1.08736 0.0435068 -4.79814e-21)
(0.986233 -0.00435461 3.58895e-22)
(0.853493 0.280189 0)
(0.450975 -0.30352 -1.0391e-20)
(0.796356 -0.196266 7.19387e-21)
(1.31631 -0.243836 1.17058e-19)
(0.96169 0.172289 -2.3095e-21)
(0.601764 0.406375 1.66662e-21)
(1.05811 0.0800468 9.92335e-21)
(0.44971 0.493038 -7.12543e-22)
(1.03738 0.000271191 -2.38718e-20)
(1.11749 0.0432215 -1.03402e-20)
(0.988072 -0.00607503 -4.28387e-22)
(1.11387 0.0250591 2.17729e-22)
(1.09802 -0.0444924 -1.80317e-21)
(1.04478 0.00440958 1.66476e-20)
(0.881606 -0.06563 -1.37673e-20)
(1.02062 0.201407 -2.95847e-22)
(1.09533 -0.271266 -2.85449e-20)
(0.92573 -0.105972 -1.92802e-21)
(1.04414 0.00364839 -8.25602e-21)
(1.0471 0.00795452 -8.54321e-21)
(0.909911 -0.104214 2.23679e-20)
(1.04628 -0.000344565 7.35138e-21)
(1.04044 -0.0100044 0)
(1.04237 0.035287 6.98188e-22)
(1.11487 0.136303 0)
(1.09771 0.0490011 0)
(1.03314 0.00102778 -7.54192e-21)
(1.10292 -0.0535849 3.02146e-21)
(1.03257 5.49814e-05 7.50697e-21)
(1.00737 -0.000162601 1.4692e-21)