/*--------------------------------*- C++ -*----------------------------------*\
| =========                 |                                                 |
| \\      /  F ield         | OpenFOAM: The Open Source CFD Toolbox           |
|  \\    /   O peration     | Version:  v2012                                 |
|   \\  /    A nd           | Website:  www.openfoam.com                      |
|    \\/     M anipulation  |                                                 |
\*---------------------------------------------------------------------------*/
FoamFile
{
    version     2.0;
    format      ascii;
    class       surfaceScalarField;
    location    "350";
    object      ddtCorrDdt0(phi);
}
// * * * * * * * * * * * * * * * * * * * * * * * * * * * * * * * * * * * * * //

dimensions      [0 3 -2 0 0 0 0];
oriented        oriented;


internalField   nonuniform List<scalar> 
20386
(
5.62099e-06
4.45468e-05
-5.01517e-05
0.000138419
-6.40052e-05
-7.44197e-05
9.94963e-05
-1.00428e-06
-9.84925e-05
-0.000136622
0.000143103
-6.48404e-06
9.06913e-06
-7.28343e-06
-1.78411e-06
1.86793e-06
-0.000214321
0.00021238
-0.00591792
0.00504965
0.000868435
-4.81769e-06
2.99253e-05
-2.51111e-05
-8.75389e-05
0.000508462
-0.000420938
7.61059e-05
9.13432e-05
-0.000167444
3.84147e-06
-0.000298473
0.000294622
0.000256062
-0.000371533
0.000115315
0.0010014
-0.000381477
-0.000619918
7.50813e-05
-2.59261e-05
-4.91942e-05
-0.000954547
0.00150245
-0.000547883
2.10964e-05
-6.69744e-05
4.58569e-05
-5.57889e-05
0.000432818
-0.000377014
0.00014647
6.68813e-05
-0.000213266
0.000209885
-0.000206064
-1.41589e-05
0.000109011
-9.47936e-05
-0.000379708
0.000538393
-0.000158795
3.19103e-05
7.99672e-06
-3.98791e-05
-4.16399e-05
7.46639e-05
-3.30251e-05
0.000719694
0.000426711
-0.00114653
0.000683198
-0.00106127
0.000378119
0.000113109
0.000196797
-0.000309927
-0.000267627
1.74744e-05
0.000250252
-0.000376796
0.000109194
1.09441e-05
-8.53791e-06
-2.40027e-06
2.21698e-05
6.65186e-05
-8.86835e-05
-8.37311e-06
3.56713e-06
-3.81157e-05
0.000124216
-8.61439e-05
5.55745e-06
5.2387e-05
-5.79603e-05
3.76181e-05
-6.85394e-05
3.08744e-05
-1.67492e-05
2.93793e-05
-1.26115e-05
-0.000395967
0.0010792
1.13071e-06
7.9391e-06
-2.0477e-06
2.06568e-05
-1.85749e-05
-0.000504351
0.000416908
-4.67368e-06
6.10597e-05
-5.63492e-05
0.000103124
-8.09844e-05
7.6173e-05
-5.94813e-05
-1.66326e-05
8.32266e-06
-2.54455e-05
1.71305e-05
-2.32447e-06
-7.24967e-06
9.59412e-06
0.000169014
-0.000110631
-5.83758e-05
-1.39477e-05
4.96778e-06
8.97784e-06
7.69054e-05
6.15119e-05
-0.000201124
0.000188515
1.25935e-05
8.70312e-05
-2.72828e-05
-5.97235e-05
-0.000436088
-7.60503e-06
0.00044369
-5.90114e-05
5.67379e-05
2.25309e-06
0.000343642
0.000657744
2.1801e-05
-1.08545e-05
-5.05916e-05
5.61965e-05
7.13233e-05
-7.48452e-05
3.48705e-06
-7.94692e-06
-9.62778e-06
1.75756e-05
-1.71657e-05
1.51032e-05
4.93447e-06
2.69755e-05
1.86429e-05
2.5382e-05
-4.40016e-05
4.99441e-06
3.94864e-06
-8.95552e-06
-3.55352e-06
7.29475e-06
-3.73905e-06
-3.72069e-06
6.259e-06
-2.53663e-06
1.18518e-05
-8.36673e-05
7.17232e-05
-0.000185849
0.000905642
0.00451488
-0.00633528
0.00182031
-5.27262e-05
1.10738e-05
-2.2751e-06
2.43392e-06
-1.64478e-07
-0.000253559
0.000111015
0.000142658
-6.68873e-05
0.000104515
0.000243227
-0.000156173
-1.62847e-06
-5.14334e-06
6.7741e-06
-1.37324e-05
0.000113225
1.5759e-05
-0.000451837
0.000273513
-0.000575099
0.00030158
-2.38926e-05
3.48243e-05
-1.09135e-05
0.000428369
-0.000244589
-0.00018376
2.61589e-05
2.36739e-05
-4.98168e-05
-0.000717079
0.000362559
0.000354511
-0.000889978
-6.45565e-05
-0.00114865
0.00098026
0.000168485
-0.000212606
-0.00026518
0.000477763
0.000104053
-8.72196e-05
-1.68372e-05
-0.000124562
5.07923e-05
7.37413e-05
-0.000181342
0.000103256
7.8111e-05
-5.12546e-05
-3.83008e-05
8.95473e-05
-3.70551e-05
0.000231361
-0.000194293
0.000174823
-2.6958e-05
3.25271e-05
1.76121e-05
6.81408e-05
-8.5771e-05
3.37141e-05
6.83117e-05
-0.000102009
-0.000226765
-7.1553e-05
0.000298316
-0.000266459
4.13077e-05
0.000225151
9.16149e-05
-9.37288e-05
2.11791e-06
1.3188e-05
2.98952e-05
-4.30322e-05
-1.39015e-05
1.06177e-05
3.26378e-06
3.64274e-05
-2.36779e-05
-1.27705e-05
0.000107414
-0.000373878
0.000331281
-0.000264872
9.86331e-06
-4.81785e-05
3.83239e-05
0.00273492
-0.0024521
-0.000282749
-0.000150213
0.000162017
0.000200137
-0.000124023
-2.13278e-05
-7.00426e-06
-3.49277e-05
4.19219e-05
0.000114666
-3.84815e-05
-9.57302e-05
-6.68362e-05
0.000162514
9.52427e-05
-9.33779e-05
3.59976e-06
9.62087e-06
3.45639e-06
-1.03376e-06
-2.40963e-06
7.32654e-05
-5.21741e-05
-4.80468e-06
1.01921e-05
-5.41615e-06
-6.96273e-05
0.000238624
-1.49214e-05
-8.55648e-06
2.34708e-05
3.06195e-05
4.44557e-05
8.78576e-05
-0.000101981
-0.000413762
0.000794046
-0.000380298
-3.41097e-06
1.10718e-06
2.29998e-06
-3.22205e-05
-5.25714e-05
8.47867e-05
-0.000495724
0.000186864
0.000308844
-0.00426932
-0.00164855
0.00231872
-0.00269841
0.0074526
-0.00240314
-7.27357e-05
1.37151e-05
6.58808e-06
-3.04822e-05
-6.80819e-06
7.94606e-06
-5.5671e-06
2.01021e-06
0.000156148
5.84735e-05
-0.000214598
-6.11044e-06
-1.18244e-05
1.79143e-05
-6.95053e-05
-5.50411e-05
0.000630258
-0.000842883
1.30976e-05
-2.21737e-05
9.06721e-06
-8.33903e-05
0.000100981
-9.85401e-06
-1.10264e-05
2.08834e-05
0.000132956
1.44865e-05
-0.000147498
1.14653e-05
2.35009e-05
-3.49941e-05
8.28803e-06
0.00257974
-0.00303744
0.000457696
-0.000125298
0.000281419
1.88772e-06
3.46651e-05
-3.6539e-05
-2.68516e-05
3.1319e-05
-4.42955e-06
-4.71308e-05
-6.31975e-06
5.34486e-05
-9.07963e-06
6.75758e-06
3.27792e-05
0.000320441
-0.000353241
-8.65856e-05
-9.47823e-05
-8.08937e-05
1.10828e-05
6.98219e-05
-7.65798e-05
-0.000167587
0.000244126
7.71778e-05
-8.16277e-05
4.46616e-06
8.59906e-05
1.77043e-05
-0.000103728
0.00122345
0.00329142
4.87714e-05
-3.1278e-06
-4.56297e-05
0.00114894
-0.000818911
-0.000330034
-1.65017e-06
-1.32646e-05
-8.00908e-05
-0.000577767
0.00065799
0.000619332
-0.000586511
-1.3286e-06
-7.75541e-06
-0.00240894
0.000269447
0.00213946
0.00155368
-0.000855084
-0.000698615
4.26569e-05
4.89587e-05
-0.00101708
0.00093696
0.0001847
-0.000115828
-6.88803e-05
-3.36346e-05
6.73464e-05
-0.00014082
0.000102719
0.000122669
0.000228757
-0.000351496
-0.000140172
0.00025327
-2.0466e-06
1.51036e-05
-1.30818e-05
0.000108244
-0.000101178
-7.07917e-06
1.37505e-05
-7.73915e-06
-6.00844e-06
2.42346e-05
-2.95858e-05
5.33783e-06
0.000242548
0.000781
-0.0010235
3.68565e-06
-1.09735e-05
3.27973e-05
-2.12308e-05
-1.16166e-05
2.70771e-05
-8.94487e-06
-1.81994e-05
4.57278e-05
5.3878e-05
-9.96175e-05
8.77418e-05
-1.64941e-05
-5.33385e-05
9.68192e-06
4.37004e-05
1.89444e-05
1.85379e-05
-3.74489e-05
0.000170913
-0.000175595
0.0021699
-0.0030364
0.000866573
-0.000257411
-4.81086e-06
0.00026224
-4.62119e-05
4.00965e-05
2.48865e-05
0.000306463
-0.000545541
0.00169446
9.52262e-05
7.19798e-07
-9.5944e-05
8.69231e-05
-0.000119143
-0.000190716
-2.00977e-05
0.000210827
-0.000112497
3.30603e-05
7.94745e-05
-1.70357e-05
1.51002e-05
1.89904e-06
0.000307139
-0.000118986
-0.000188211
-0.000309669
0.000323567
-1.38911e-05
0.000119044
-4.54013e-05
-7.36401e-05
1.84184e-05
1.23776e-05
-3.07949e-05
8.96786e-06
3.66279e-05
-4.56024e-05
1.74402e-05
-4.7513e-06
-1.27051e-05
-1.23843e-05
9.51084e-06
2.89687e-06
0.00032186
7.66413e-05
-0.00039857
0.00063344
0.000920219
3.21989e-05
1.65497e-05
-0.000188485
4.53252e-05
0.000143143
0.000147927
5.75111e-06
-0.000153741
-5.79393e-06
-8.99953e-05
-0.000509061
0.000264482
-8.80663e-06
-1.33766e-05
4.71032e-05
-2.09398e-05
-0.000146806
0.0001605
-1.37011e-05
6.35991e-06
2.2188e-05
-2.84999e-05
-0.000239994
9.31859e-05
-0.000138855
5.54528e-05
0.00184976
0.000885142
6.18801e-05
-2.70099e-05
-3.48551e-05
-0.000380795
0.000702628
8.92016e-06
9.71581e-06
-0.00012685
-9.77587e-06
5.23508e-05
-5.4384e-05
-0.000137853
0.000106638
3.11871e-05
1.30873e-05
7.3558e-06
-2.04685e-05
-0.000166915
8.60216e-05
-5.36601e-05
3.03144e-05
2.33736e-05
9.09287e-07
-4.80201e-05
0.000235719
0.000135571
-0.000371265
-8.87067e-05
-6.08067e-05
0.00014949
1.22516e-05
-3.04951e-05
1.82613e-05
2.89293e-05
3.88832e-06
-0.00120097
0.000184007
-2.4024e-05
9.28824e-05
-6.89329e-05
-0.000267476
0.000276713
-9.24437e-06
0.000367143
-0.000348163
-3.40323e-05
2.75275e-05
6.49265e-06
-2.06542e-05
0.00014328
-2.10732e-05
2.29377e-05
8.11859e-05
-0.000446949
0.000365742
4.71493e-05
-0.00013096
8.3803e-05
-0.000212618
-9.92453e-05
0.000311874
-0.000237381
-0.000100688
0.000338042
-0.000250901
3.8278e-05
7.16367e-05
-0.000971572
0.000899949
0.000145727
0.000785111
-0.000930766
-7.47654e-07
1.43349e-06
-6.89289e-07
-0.00151682
-0.000305003
0.00182187
0.000106201
1.28687e-05
0.000282736
-0.000291156
8.38774e-06
-4.70837e-06
8.93685e-06
-4.19102e-06
-2.2877e-06
-3.06544e-05
3.2946e-05
-1.87595e-05
2.31061e-05
-4.31804e-06
0.000539831
-0.00168845
0.000270647
0.000165263
-0.000435934
-0.00459739
0.00435436
0.000243018
7.09683e-08
-5.36977e-05
5.81792e-06
-1.54609e-05
9.63484e-06
1.28363e-05
-4.67329e-05
3.3886e-05
-0.000134682
-4.58051e-05
-9.95515e-06
-5.23245e-05
-0.000136158
2.19325e-07
0.000103025
1.49835e-05
2.22002e-06
-3.85799e-06
0.00133065
-0.00119229
-0.0001382
1.402e-05
-1.3017e-05
-1.01111e-06
1.13801e-05
7.02059e-06
-0.000186544
-4.16761e-06
4.36084e-05
1.82767e-05
7.55904e-05
0.00019226
1.44502e-05
-1.26619e-05
-1.77518e-06
-2.42174e-05
2.78093e-05
-1.47956e-05
1.56969e-05
-2.08731e-05
1.10266e-05
-0.000279595
4.63764e-05
0.000233201
0.00015581
-0.000134302
-2.15234e-05
-0.000123351
9.82858e-05
2.50582e-05
-0.000140946
0.000221798
-8.08671e-05
-0.000935497
0.000430686
0.000504782
-1.33838e-06
-0.000139629
-2.16002e-05
2.84363e-06
2.36579e-05
-0.000959158
3.71138e-05
-2.7275e-05
8.24607e-05
-5.29795e-06
3.73161e-05
7.0918e-05
-0.00579692
8.68129e-05
0.000116162
-0.000202925
-4.10416e-05
-9.78068e-05
0.000360394
-0.00011777
1.7606e-06
-9.67822e-06
-4.97954e-05
1.57828e-05
4.63103e-05
-0.000385663
-0.000352875
0.00073852
-0.000367445
0.00208658
-0.00171921
8.4695e-05
-6.05896e-05
-2.41439e-05
0.000420836
-0.00193766
-0.000108945
6.96117e-05
3.93443e-05
0.00053141
-0.00029569
0.000205961
-5.94072e-05
0.000715607
2.64557e-06
-0.000718245
-4.32018e-05
8.29197e-05
-3.97676e-05
-0.000520616
-5.69163e-05
0.000577639
7.01883e-05
-5.07989e-05
3.40709e-05
-6.66379e-05
1.64461e-06
6.49641e-05
-2.44849e-06
1.71663e-07
0.00112982
-0.00022635
-0.00090349
-0.00015193
2.66227e-05
-0.000170133
-8.42055e-05
0.00025433
2.78856e-05
1.81832e-05
-4.60991e-05
-0.000101955
-1.0991e-05
0.00011291
-6.55413e-05
-1.27335e-05
7.82671e-05
7.96882e-05
-0.000317087
0.000226768
-0.000228168
2.45523e-05
-3.10027e-05
6.4556e-06
-8.91724e-06
7.58407e-06
-3.53257e-06
-1.22886e-05
1.58113e-05
-0.000173393
5.59736e-05
0.00011747
7.66097e-07
-1.18943e-05
1.11327e-05
-0.000268152
4.79883e-05
0.000220061
0.000225411
3.38462e-05
-0.000259313
0.00031232
-0.000235687
0.00015098
0.000149864
-0.000300839
6.41588e-05
3.98932e-05
-0.000109481
0.000156629
1.08401e-05
-0.000105926
9.51075e-05
-0.000203975
-2.50796e-05
1.11762e-05
-0.000226197
5.606e-05
-4.79556e-05
5.42965e-05
-6.31375e-06
-0.000282192
0.00010874
-0.000206999
0.000224762
-1.77696e-05
-7.39037e-05
-3.50795e-05
1.97895e-05
-3.37361e-05
-0.000230991
4.20886e-06
0.000199513
-0.000123938
0.000288554
1.21233e-05
-0.000114076
-3.01391e-05
5.48932e-05
-2.47362e-05
4.50634e-05
-6.92222e-05
7.36106e-05
-8.71519e-06
-6.49288e-05
-6.65479e-05
-9.68681e-08
-5.67858e-05
1.29306e-05
4.37881e-05
-0.00278628
0.000377304
-7.4317e-06
2.02743e-05
2.66252e-06
0.00025249
0.000466887
-0.000395236
0.00014898
-0.000224582
7.56034e-05
-0.000185305
0.000187877
-2.58436e-06
-2.11723e-05
-0.00992593
0.00102974
0.00889631
1.60312e-05
-6.42206e-05
-2.18693e-05
1.9557e-05
-0.000953291
0.00211327
-0.00115995
-2.82821e-06
1.11795e-05
-8.36447e-06
-0.000100885
-0.000178713
2.87992e-05
2.46614e-05
3.28164e-05
-8.60783e-06
6.241e-07
4.35244e-06
-1.74105e-05
0.000112621
0.000211695
9.6586e-05
-0.000308266
-2.67472e-05
1.65761e-05
1.01872e-05
-5.97558e-05
-0.00019772
1.49682e-05
-6.57511e-05
0.000131589
-5.03844e-05
8.8788e-05
0.000421264
-0.000510052
-6.42184e-05
-0.000245456
-0.000129658
4.47834e-05
8.48775e-05
-1.635e-05
7.81029e-06
-1.37493e-05
0.000159177
4.92735e-05
-0.000208416
-0.000128677
-3.85283e-05
0.000167119
9.19636e-06
3.90032e-06
-4.4621e-06
1.08452e-05
-6.70155e-05
-5.9737e-05
0.000126766
0.000456175
-0.000193928
-0.000262325
-0.000133805
-0.000376289
0.000510169
-0.000680749
0.000302191
0.000378574
0.000194158
-0.000106318
7.00203e-06
-5.23245e-05
4.53142e-05
-9.86975e-05
0.000254512
3.93417e-05
-1.14779e-05
-9.83913e-05
-8.69015e-05
0.000106462
0.00012885
-0.00023533
2.53912e-05
-2.88684e-06
-2.25025e-05
0.00041199
0.000918678
-6.43272e-05
7.13348e-05
-0.000271332
0.000262435
8.89944e-06
-0.000813714
9.68164e-05
2.33845e-05
-0.000120215
-2.98803e-05
3.73694e-05
-7.49929e-06
1.69467e-05
-0.000334995
0.000608491
7.56982e-05
1.19909e-05
0.000157105
-0.000272686
0.000115533
0.000309882
2.36365e-06
-0.000154998
0.000247876
-1.0136e-05
1.57296e-06
-1.54919e-05
2.18982e-05
-6.4591e-06
4.53022e-06
-0.000350704
0.000683438
-0.000332721
-3.93421e-05
1.85264e-05
2.08611e-05
-1.03417e-05
2.53196e-05
0.000159967
0.0010805
-0.00124038
0.000577375
-0.000343594
-0.000233813
0.00300313
-0.00101931
-0.0019836
-0.000120087
4.51326e-05
1.83915e-06
-4.69804e-05
0.000298044
4.49665e-06
9.4415e-06
-1.39643e-05
-5.04289e-05
-8.64344e-05
0.000134168
-4.76965e-05
5.34325e-05
3.33917e-05
-0.00100198
0.00116111
-0.000390137
0.000197807
0.000192322
-0.000131681
0.000186784
-5.51466e-05
-4.38984e-05
5.224e-05
-0.000596676
0.000355047
0.000241714
0.000176597
4.86709e-05
-0.00022529
6.01386e-05
-4.92847e-05
0.00369192
-0.00828932
0.000130672
6.31157e-05
-0.000193802
-0.00173554
-0.000168135
0.00190351
-5.48076e-05
6.21414e-05
0.00113614
-6.29425e-06
2.77326e-05
-1.0306e-05
-0.000145317
0.000356939
4.64203e-05
-6.48387e-05
1.84165e-05
-9.04496e-05
-2.61891e-05
0.000116587
-0.00015256
7.24684e-05
8.01091e-05
5.26808e-06
-1.21867e-05
7.46598e-06
-0.00114524
6.91049e-05
0.00107614
2.40748e-05
2.41215e-05
-4.81752e-05
-0.000662667
0.000918982
-0.000256306
-0.00018242
-0.000321984
-0.000277979
0.000154149
0.000123635
3.60446e-06
2.28365e-06
-5.88292e-06
0.00207952
0.000129836
-0.0022093
-2.32901e-05
1.95584e-05
-2.19681e-05
6.03176e-05
-3.83998e-05
-1.68202e-06
4.90389e-06
-3.24593e-06
0.000174499
-2.55233e-05
-5.96609e-06
2.23516e-05
-1.63914e-05
1.18327e-05
-2.49826e-06
-9.34403e-06
3.87017e-05
5.84598e-06
0.000132366
-0.000337517
0.000336208
1.32403e-06
4.52223e-05
-2.11361e-05
0.0008171
-0.000798578
-3.52823e-05
4.98467e-05
-1.45768e-05
5.53024e-05
-7.40329e-05
1.87085e-05
0.000142288
-0.00063805
-3.89606e-05
-0.000112944
-8.73398e-05
-0.000113805
3.4375e-05
0.00024833
-6.91509e-05
0.000137129
-6.7971e-05
1.11589e-05
2.5271e-05
9.0068e-05
-0.00028732
0.000197304
0.000532022
-0.00111243
0.000580353
0.00100324
0.00116671
-6.27237e-05
-0.000319495
0.000373269
0.000243026
-0.000616308
0.000272494
-0.00015919
-0.000113345
-4.27968e-05
-0.000234122
0.000276909
0.000130402
-8.52703e-05
-5.55715e-05
1.23838e-05
1.22402e-05
2.10257e-06
-1.43444e-05
-4.30658e-06
2.61325e-06
-0.000731219
7.8809e-05
0.000652489
-0.000410676
0.000228381
0.000224098
-0.000574914
-8.74293e-05
-7.79313e-05
0.000165376
-9.12495e-06
-7.82703e-07
9.91689e-06
-0.000444079
-4.18192e-06
0.000448409
-5.7249e-06
6.69481e-06
-9.67133e-07
-3.77781e-05
-0.000233576
-1.50781e-05
-1.16684e-05
9.19822e-06
-1.15691e-05
2.36018e-06
7.90502e-05
-4.19327e-05
-0.000184558
0.00029386
-0.000109316
-0.000809718
-0.000326917
-1.50674e-06
0.000328477
0.0001097
0.000263587
0.000363911
-0.000433531
0.000123817
-2.04079e-05
-0.000103416
-3.28518e-05
7.42462e-06
-8.06988e-06
-2.7736e-05
3.5796e-05
1.46217e-05
-2.5693e-05
1.10737e-05
0.000140128
0.000167064
-0.000107213
-0.000170754
-0.000401976
0.00036258
3.94209e-05
9.06407e-05
-1.36124e-05
-7.7021e-05
-1.07955e-05
3.61922e-05
0.000191475
-0.000278881
-0.00119561
0.00557515
-0.0043794
-0.000446683
0.000535513
-8.39913e-05
0.000280789
-6.52839e-07
1.76579e-05
-1.69619e-05
0.000447215
-0.000536424
1.57792e-05
0.000399124
-0.00126039
0.000861163
0.000199239
-5.69453e-05
0.000464435
-0.00033259
-0.000131828
3.69417e-06
-2.45518e-05
-1.33892e-05
2.10242e-06
1.13013e-05
-0.000467492
6.55127e-05
-0.00252484
0.00018476
0.00234011
-0.00304528
0.00426878
-0.000272146
0.000138295
6.57366e-05
-0.00010469
2.11562e-05
-0.000225882
-2.38278e-05
0.000249698
0.000112454
-0.000378356
0.000265847
-5.64674e-06
-0.000132223
3.93542e-05
-4.26348e-06
-3.5082e-05
-0.000205381
5.6171e-05
0.000149186
0.000131552
-8.07626e-05
-9.69479e-05
1.26219e-05
8.43209e-05
-1.13683e-06
1.68392e-06
-5.53667e-07
-2.827e-06
1.20248e-05
3.49433e-05
-4.45697e-05
-1.01499e-05
-7.62777e-05
-1.08581e-06
-5.17099e-08
1.42986e-05
-4.38788e-05
-5.59108e-05
7.01631e-05
-1.42342e-05
-6.51463e-05
6.68925e-05
0.000166731
-1.19573e-05
3.87597e-06
-0.000166822
0.000273281
-9.9013e-07
-2.34659e-05
-1.32492e-05
-7.54775e-05
-4.81781e-05
-5.61519e-06
5.3844e-05
0.000169517
0.0002633
0.00139574
-0.00259127
-0.000412176
0.000184396
0.000227818
-0.000253361
-0.000427408
7.13456e-05
-1.827e-06
-4.79826e-05
5.7857e-05
-3.50212e-05
-0.000232461
0.000217057
-6.28832e-05
-0.00023914
1.62992e-05
-6.7751e-06
-9.51465e-06
-3.78749e-06
1.0547e-06
-3.8937e-06
-0.000242013
0.00015543
-0.000258311
-4.016e-05
-0.000195421
-1.89537e-05
-0.00010196
0.000187966
-8.60279e-05
5.40722e-06
1.09003e-05
-7.58413e-06
1.32491e-05
-5.66823e-06
2.61295e-06
-7.8628e-06
5.19183e-06
0.000153981
-2.10287e-05
0.000458627
-0.000320109
-0.000138522
-1.68298e-05
-0.000209059
0.000239112
-3.09512e-05
-0.000208198
-0.00241538
-0.000109451
-8.29337e-05
8.10166e-06
5.22022e-05
-5.52139e-05
3.0178e-06
0.000102956
8.49321e-05
6.12479e-05
-0.000535341
0.00072221
-8.93941e-05
-0.000115981
-2.70313e-05
2.35134e-05
-5.65985e-05
5.40683e-05
-3.32979e-05
0.000115485
-8.21728e-05
-4.92772e-05
3.2219e-05
0.000575634
-0.000445004
8.07996e-06
0.000180433
0.00117796
0.000901629
-0.00054081
-0.000176224
2.37394e-05
-2.33277e-05
-0.000124412
0.000147779
-0.000123089
5.60697e-05
-2.61822e-05
-2.97551e-05
0.000151513
-0.000117644
-0.00709277
-0.0028331
-0.000186031
8.76934e-05
9.83197e-05
-0.000221961
6.94342e-05
6.11979e-05
-8.98171e-06
-0.00218248
1.20382e-05
-4.58746e-05
3.38192e-05
1.13999e-05
2.76189e-05
-3.90106e-05
5.09299e-06
7.15902e-06
1.34309e-05
-1.50734e-05
6.2981e-06
-2.68001e-06
-7.06433e-05
1.40336e-05
2.20205e-05
6.48965e-05
-3.29075e-05
-6.40729e-05
-0.000131726
4.49582e-05
8.67777e-05
9.68076e-06
-3.30389e-05
2.33505e-05
-2.86717e-06
-5.46321e-07
0.00010268
-5.68306e-05
-4.5896e-05
-0.00025701
-0.000474208
0.000380598
-0.00017581
4.83158e-05
0.00012755
-0.000259109
-0.00033756
0.000109663
-6.90323e-05
-4.06632e-05
0.000577185
-0.000235154
-0.000342026
-0.000116606
0.000242921
-0.000126263
-0.000332758
-0.000868349
0.00011819
-8.61838e-05
-3.20354e-05
0.000419248
-0.000131175
-0.000287992
0.000157693
-2.32811e-05
-0.000134418
2.90314e-05
1.06188e-06
-3.00556e-05
0.000200184
-0.000132738
-6.7447e-05
-1.34251e-06
0.000249697
-0.000131524
-5.8289e-06
1.97573e-05
0.000113947
-5.28809e-05
0.000971617
-0.000555775
-0.000415773
-1.35344e-05
-5.1583e-05
-0.00014574
-9.46687e-06
0.00015519
7.10862e-07
-2.07398e-05
2.00141e-05
-0.000183338
0.000156602
2.68309e-05
-0.000232302
0.000115694
7.67609e-06
-8.4398e-06
7.62492e-07
6.96051e-05
-5.16751e-05
-1.79339e-05
4.90735e-06
-1.83119e-05
1.33598e-05
0.000168834
-0.000184467
1.56165e-05
4.41004e-06
1.19772e-06
-5.622e-06
-2.96553e-05
0.00154243
-3.99795e-05
-1.52212e-05
7.34829e-06
7.86993e-06
1.36099e-05
8.60762e-06
2.52917e-06
-6.93524e-05
8.23357e-05
-2.52682e-05
9.70139e-05
0.000982214
-8.94483e-05
0.000666802
0.000297051
-0.000230116
0.000114292
-6.854e-05
-2.37155e-06
7.75942e-06
-5.3894e-06
5.72776e-05
1.63469e-05
3.54802e-05
-9.49519e-05
-0.000154983
0.000305066
-0.000150097
-0.000198926
3.9042e-06
0.000195016
-0.00014242
-6.47864e-06
-1.12009e-06
-4.23216e-05
-9.36854e-05
0.000135997
-7.66933e-06
-8.91742e-05
0.000192145
6.63468e-06
-3.25524e-07
2.85551e-05
-3.55691e-05
0.00025695
-8.03465e-05
2.20002e-05
-2.12815e-05
7.53059e-05
-5.69107e-06
-1.84034e-05
1.16759e-06
1.72414e-05
-3.68178e-05
4.17864e-05
1.22331e-06
-0.00135563
0.000487628
0.000868019
1.79748e-05
-2.99414e-05
2.55619e-05
5.91258e-05
0.000788524
0.000378413
-0.00116682
-4.52704e-05
-5.34725e-06
1.87584e-06
2.96028e-06
-4.85117e-06
-3.10956e-05
3.3207e-05
3.12658e-05
-0.000177028
0.000165681
0.000253578
-0.000103426
-0.000503732
0.00060708
0.000328152
0.000249026
2.39745e-05
-2.46061e-05
-0.000585538
0.000164804
0.000420736
-0.000254324
6.97663e-05
0.00016998
-9.40227e-05
0.000175934
-8.19807e-05
1.10137e-06
0.000238019
-0.000462616
-0.000171
0.00063353
-3.86799e-06
-3.31421e-07
4.17962e-06
1.02104e-05
3.52973e-06
1.12071e-05
-2.30451e-05
0.00064965
-0.000287105
8.3482e-06
-0.000171969
0.00275168
-4.07863e-05
1.89332e-05
0.000110494
8.96722e-05
1.48682e-05
4.42666e-06
-1.92604e-05
-0.000300685
0.000216667
0.000864089
0.000107593
-0.000168888
0.000155632
-0.000151749
-9.02455e-05
-1.47598e-05
4.43672e-06
1.02897e-05
4.92509e-05
-5.23782e-05
1.97357e-06
0.00251004
0.00494286
-1.34618e-06
5.94859e-05
-5.80975e-05
-0.000265847
-0.000396828
0.000187608
-0.000545896
0.000358318
-3.06332e-06
-0.00303442
-0.000247166
2.80256e-05
0.000219111
3.77246e-05
4.48697e-06
-4.21839e-05
0.00317081
0.00276589
-0.00593662
-2.60366e-05
4.11245e-05
-0.000484218
-4.10811e-05
-3.72575e-05
7.83475e-05
0.000842111
-0.00388732
-4.38494e-05
1.27457e-05
0.000248874
-0.00051408
-9.76552e-07
3.3077e-05
-3.20937e-05
7.29244e-05
-5.93579e-05
-1.35586e-05
1.34139e-05
-1.2371e-05
-2.4957e-06
-1.3832e-06
3.69788e-05
8.24227e-05
-0.000119387
2.32367e-05
1.48178e-05
-3.80512e-05
-0.000499912
0.000114396
0.000385525
3.10712e-05
-0.00122335
-0.00240431
0.00525096
-0.00284654
-1.97525e-06
-1.62992e-05
1.8323e-05
0.000237993
-0.000241912
3.94183e-06
-0.000368452
0.000405434
0.000197301
0.000175399
-0.000414471
0.000239073
-0.000108939
1.43043e-05
6.49778e-05
-7.9293e-05
5.1472e-05
-5.65191e-05
5.07758e-06
-0.000401478
0.000100146
0.000301358
-2.68305e-05
3.11889e-05
-4.32959e-06
-8.58584e-06
-1.84305e-05
-5.24777e-05
7.10257e-05
0.000155438
-0.000318873
0.000163463
-2.11558e-05
4.16622e-07
0.000445563
-0.000485954
4.03834e-05
2.18958e-06
1.28206e-06
1.29565e-05
-4.0703e-05
-8.91646e-06
3.07289e-05
-3.81384e-05
-7.53751e-06
4.56721e-05
0.000341438
-0.000156675
-9.64782e-05
0.000242226
0.000353694
-8.11477e-05
-5.32794e-05
-2.4685e-05
7.79315e-05
1.96019e-05
-2.15451e-05
5.59939e-05
-0.000108449
-2.13386e-06
5.66761e-05
-5.45264e-05
-0.000221551
3.54947e-05
-0.000198531
-0.00070201
0.000448677
0.000130906
-9.80175e-05
-3.28597e-05
8.89442e-05
4.1957e-05
-4.06493e-05
-1.4749e-07
0.000394868
-0.000550602
0.000155815
-0.00122357
-0.00304575
-0.000155729
7.12738e-05
8.44478e-05
-1.31087e-05
-0.000118074
-0.000834846
0.0031535
-7.21365e-05
-2.16818e-05
-0.00037391
0.000221863
0.000152033
-5.74076e-05
6.662e-05
-9.22621e-06
1.84764e-05
3.16903e-05
-5.01993e-05
-6.86597e-05
6.4584e-05
4.09931e-06
-0.000424949
0.000194587
-0.000752518
0.00144767
-0.000695157
-0.000622658
4.75662e-05
-0.00233226
0.00249218
5.43004e-06
2.25689e-06
8.32936e-05
-0.000100711
2.52125e-05
-1.96858e-06
-1.60429e-06
8.51203e-07
3.51368e-05
2.39513e-06
-3.75142e-05
1.13595e-05
7.82732e-06
-4.55282e-06
-3.27188e-06
-0.000304928
-9.65493e-05
-6.33072e-05
8.17724e-05
2.20096e-05
7.77028e-07
-2.48268e-05
2.40516e-05
3.33933e-06
5.86161e-08
-3.38533e-06
-7.21006e-05
0.000439215
0.000100899
-0.000115666
-0.000113938
-1.81831e-06
0.000115751
-1.16686e-05
-5.2002e-05
6.36655e-05
-5.18678e-05
-1.67725e-05
1.39849e-05
-2.16842e-07
-5.91179e-06
6.13789e-06
-7.79354e-05
1.02376e-05
6.77548e-05
0.000175228
-7.52947e-05
-9.99559e-05
5.09867e-06
4.09338e-06
-0.000317365
0.00047603
-0.000158677
-0.000112298
-5.86718e-06
4.90315e-06
-5.75406e-05
4.89916e-05
3.28576e-06
-5.4046e-05
-0.000101662
-0.000183602
-1.53167e-05
0.000234399
-2.83728e-05
-1.02645e-05
-8.30569e-05
9.32865e-05
-7.61896e-05
-9.26831e-05
2.87175e-05
-3.18649e-05
3.1669e-06
-1.32742e-05
6.19886e-05
-4.87207e-05
0.000115094
0.000215301
-0.00033042
1.9403e-05
1.3418e-05
-0.000834473
0.000865606
-0.000436542
0.000663097
-7.5176e-05
6.81325e-06
6.83703e-05
-4.00591e-05
1.4343e-05
6.30587e-06
-1.21381e-05
0.000905742
0.00209737
0.000140211
-0.00018252
-5.11674e-06
-7.24528e-06
1.23485e-05
2.57288e-05
4.96003e-05
-1.19044e-05
5.2254e-05
-4.03586e-05
-0.000244121
-0.000265005
-0.00103307
0.00150862
-0.000475494
0.000198781
0.000303203
-0.000502042
0.000975587
0.000160537
2.65971e-05
-3.54867e-05
2.86976e-05
4.51131e-05
-1.38095e-05
-0.00028335
-2.19142e-05
-1.05199e-05
3.24352e-05
-1.32465e-05
1.81477e-05
-0.000103874
-0.000929229
-0.000120174
0.000191148
-7.11174e-05
-3.6917e-06
-0.00907296
0.00252006
0.00655299
-1.7986e-05
-4.09624e-07
-2.08913e-05
1.49138e-05
-0.000138888
1.87332e-05
-0.00020435
1.85033e-05
0.000127328
6.68478e-05
-0.000308009
3.95236e-05
0.000268489
-0.000200846
5.40855e-05
0.000146751
-1.57466e-05
-6.21769e-05
-2.96338e-05
-7.15411e-05
5.46302e-05
6.91977e-05
-1.28267e-05
3.71429e-05
-2.42995e-05
1.7015e-05
-1.70356e-05
2.78513e-08
-9.95569e-07
1.84635e-05
-1.74829e-05
3.04048e-05
-1.40735e-05
-1.63615e-05
0.000612744
0.000175761
2.11205e-05
-1.89955e-06
-1.92077e-05
0.000103916
-8.96385e-05
-4.62414e-06
-0.000127058
-8.47517e-05
-3.01127e-05
0.000114861
-0.000678359
-1.58115e-05
-0.0004792
-0.000474058
2.45939e-05
-1.32361e-05
-1.15389e-05
5.30599e-05
-4.15632e-05
-4.25751e-05
2.41415e-05
1.84182e-05
-1.66312e-05
4.7415e-06
2.37341e-07
-4.78113e-06
4.54237e-06
1.59778e-06
-1.67779e-07
-6.00331e-05
5.00361e-05
-2.25676e-05
-2.74654e-05
3.43854e-05
1.23321e-05
-4.67098e-05
7.2191e-07
-1.75673e-06
0.00023495
-0.000420629
0.00018572
2.15855e-05
6.75579e-06
4.32751e-05
0.000373899
-5.34696e-05
6.36595e-05
0.000177983
-0.000241657
2.16979e-05
-3.28611e-05
1.11723e-05
0.000168
-0.000199834
3.17955e-05
-0.000676852
0.000688051
-1.11932e-05
1.27501e-06
0.000197498
-1.64936e-05
1.67195e-05
0.000244367
-4.5155e-05
0.00135318
-0.00082121
9.6048e-05
-8.40293e-05
0.000304656
-0.000690367
-6.7859e-05
-1.68889e-05
-0.000103727
-0.000358896
-5.28984e-07
4.9594e-06
-2.81558e-06
4.05357e-05
-0.00108574
-0.00195062
-7.63569e-05
9.79655e-05
-2.16003e-05
0.000335795
0.000122845
5.64473e-06
-5.4098e-06
-1.07789e-05
1.5867e-05
0.00059941
-0.0019549
0.000115368
1.30156e-06
8.13819e-06
-5.08689e-06
-5.69777e-06
0.000232797
0.000289599
-0.000522388
6.21886e-05
-7.54767e-05
-0.000177567
7.32158e-05
0.000104331
-1.19603e-05
-7.43764e-05
0.000262013
-1.59169e-05
-0.000299062
0.000314973
7.26287e-05
9.70825e-06
0.00111361
-0.0014214
0.000307813
2.33159e-05
-0.000120685
9.73734e-05
-1.56329e-05
2.53202e-05
-0.000107271
-2.60358e-05
4.75188e-05
-2.15178e-05
-5.48386e-05
1.93372e-05
4.04435e-05
0.000194527
-6.8961e-05
9.22576e-05
1.09705e-05
6.23504e-06
-1.72274e-05
0.000125329
2.28882e-05
-0.000148235
4.2453e-05
-0.000106129
6.36593e-05
6.24255e-05
-4.93097e-05
-1.30862e-05
-0.000578043
9.46478e-05
0.00048338
2.14994e-05
-1.04973e-05
-0.000384194
0.000411759
-2.75773e-05
0.000277979
0.00069759
-4.57704e-05
3.53107e-05
1.04679e-05
0.00010331
-5.35838e-06
-9.79397e-05
2.4315e-05
-3.11102e-05
6.80161e-06
-1.66334e-06
-5.48331e-05
-2.54312e-05
3.48905e-05
-9.46258e-06
1.38059e-05
-7.15853e-06
1.77016e-05
9.67199e-06
-8.38927e-06
-0.000116674
-0.000145918
0.000262605
1.69318e-05
1.35096e-05
-5.03805e-05
1.09491e-06
-0.000257443
1.26777e-06
0.000256152
8.28619e-06
-7.23344e-05
-0.000128547
9.99149e-05
-0.000218927
5.79301e-06
-2.26699e-05
1.68489e-05
0.000283041
-0.000192932
-9.93542e-05
0.000163003
-5.08173e-06
1.62343e-05
-7.13779e-06
-0.000199891
1.46766e-06
-1.44978e-05
1.30205e-05
-2.37763e-05
2.37943e-05
-0.000156073
2.43609e-05
0.00230644
-0.00203697
1.72373e-05
-2.07191e-05
-0.000149878
0.000176971
-2.71166e-05
0.000186984
-2.92971e-05
5.83289e-06
-3.59463e-06
-2.28485e-06
-2.70219e-06
-4.85609e-05
5.12189e-05
-1.20905e-05
4.23008e-07
0.000141786
-6.87195e-06
-0.000134973
2.95304e-05
-8.86783e-06
-6.94924e-05
-0.000187955
-1.58721e-05
2.76436e-06
1.31035e-05
0.00017478
6.50793e-05
-0.000239862
2.60504e-06
4.44419e-06
-7.02716e-06
8.41707e-07
-5.96871e-06
5.16746e-06
-7.02814e-05
5.36221e-05
1.66382e-05
-8.86465e-07
7.01277e-07
1.82202e-07
3.77851e-06
2.05221e-06
1.51663e-06
-2.84885e-05
2.69773e-05
1.02362e-05
6.78586e-06
-8.91613e-05
0.000134489
9.77272e-05
-0.000118108
9.954e-06
0.000158894
-1.76351e-06
6.70576e-05
-3.84988e-05
-2.85813e-05
2.71779e-06
2.85013e-05
0.000325253
0.000424262
-4.73771e-07
-8.54031e-05
-3.79417e-05
1.25604e-05
-1.17992e-05
0.00161674
-0.000831658
-6.45124e-05
2.35419e-05
4.09356e-05
8.57117e-05
0.000142895
-0.000228617
0.000154201
-0.000270035
-0.00011073
0.000252484
-0.000132902
-0.000251298
0.000269487
0.000513479
-0.000782924
-0.000101351
7.32179e-06
9.40125e-05
-2.15113e-05
4.35041e-06
-4.72043e-05
7.08759e-05
-0.000650796
0.000238634
-0.000132215
-0.000155085
0.000231082
-0.00036325
7.02926e-06
-5.4228e-05
3.78136e-05
1.20229e-05
6.94727e-05
-0.000177952
0.00010846
0.000232881
-0.000477083
2.72041e-05
-8.15557e-07
-1.76698e-05
1.84869e-05
-0.000144018
0.000827612
-0.000958444
0.000130899
-8.65545e-06
-8.40859e-06
1.70302e-05
-5.88562e-06
-1.72124e-05
2.30973e-05
-6.18558e-05
4.12142e-07
2.38515e-05
3.86014e-05
6.35891e-07
-1.54825e-05
1.48103e-05
8.95874e-05
-0.000164793
0.000156724
0.000408908
-0.000565598
-4.08148e-05
0.000169573
-0.000128768
1.65605e-05
-5.96678e-06
-6.06034e-05
1.03563e-05
5.02429e-05
7.36431e-06
-7.57819e-06
-0.000239087
0.00018931
2.94452e-06
1.24872e-05
4.74978e-06
-0.000407758
0.000521283
-0.000113633
2.40461e-05
6.3979e-06
-3.04849e-05
1.90749e-05
1.46169e-06
-2.04703e-05
0.00606192
-0.00271732
-0.00334456
4.00276e-05
2.94186e-05
2.38385e-06
-1.75743e-06
-1.14559e-05
-1.72872e-06
-4.28317e-06
6.0007e-06
-6.34316e-05
-0.00015193
0.000416619
-0.000264698
-5.00708e-05
3.61881e-05
1.38825e-05
1.3939e-05
6.89441e-05