/*--------------------------------*- C++ -*----------------------------------*\
| =========                 |                                                 |
| \\      /  F ield         | OpenFOAM: The Open Source CFD Toolbox           |
|  \\    /   O peration     | Version:  v2012                                 |
|   \\  /    A nd           | Website:  www.openfoam.com                      |
|    \\/     M anipulation  |                                                 |
\*---------------------------------------------------------------------------*/
FoamFile
{
    version     2.0;
    format      ascii;
    class       surfaceScalarField;
    location    "250";
    object      ddtCorrDdt0(phi);
}
// * * * * * * * * * * * * * * * * * * * * * * * * * * * * * * * * * * * * * //

dimensions      [0 3 -2 0 0 0 0];
oriented        oriented;


internalField   nonuniform List<scalar> 
21222
(
-0.00058472
-0.00115456
0.00173929
-4.7609e-06
7.37556e-05
-6.89928e-05
0.000642967
-0.00283113
0.00218826
-0.00214617
-0.00191797
0.00406397
-0.0124523
0.00919839
0.00325386
9.67479e-05
-0.000161229
6.44744e-05
1.16437e-05
1.52852e-06
-1.31667e-05
0.000729399
-0.000676877
-5.25649e-05
-0.00515478
0.00259446
0.00256035
0.000225238
-0.000658722
0.000433547
-0.00251603
0.00844691
-0.00593089
-4.10728e-06
-2.56212e-07
4.37029e-06
-0.000205941
-0.000378757
-7.65982e-06
1.897e-06
5.77956e-06
-1.62896e-05
1.62898e-05
-2.16818e-08
-5.23082e-06
-7.83268e-07
6.02256e-06
0.00110974
-0.000380367
-6.11879e-05
-1.50378e-05
7.62758e-05
-0.000207264
0.000730918
-0.00052364
0.00359502
-0.00380237
0.000410236
-0.000292114
-0.000118034
0.00011937
0.000111441
-0.000230808
-0.00236505
0.00016577
0.00219933
-6.12324e-06
2.00336e-06
-0.00250025
0.0032299
-0.000729655
4.63144e-05
-5.10737e-05
1.38467e-05
4.66109e-05
-6.04137e-05
1.78147e-05
-6.16744e-06
0.000507212
-0.000527223
2.0003e-05
0.000878044
-7.50095e-05
-0.000802974
0.000304738
-0.000191284
-0.000113478
6.45973e-05
-3.04109e-05
-3.41852e-05
2.16066e-05
2.13781e-05
-4.29533e-05
-0.00019456
0.000511237
-0.000316691
-2.00326e-05
-4.34417e-05
6.34683e-05
-0.000226374
0.000156166
7.01872e-05
0.000842004
-0.00117086
0.000328782
-0.000159166
-0.000505271
0.000664243
-0.000718471
0.000995039
-0.000276583
-0.00725396
0.0162464
-0.0089926
7.41338e-06
-7.37742e-06
-3.13766e-05
0.000466031
-0.000434789
-0.000396646
0.000127918
0.000268675
2.31951e-07
-1.38581e-06
1.20332e-06
-0.00123733
0.00129478
-5.74185e-05
-0.00779783
0.00529755
0.00101382
0.000624393
-0.00163806
6.05499e-05
2.09596e-06
-6.26205e-05
4.01056e-05
2.04268e-05
5.61879e-05
-0.000117376
-4.99529e-05
2.17151e-05
2.82284e-05
-0.00798655
0.00584031
-2.89989e-06
1.64619e-05
-1.36229e-05
1.31853e-05
-6.44217e-06
-6.71894e-06
0.000819686
-0.00100749
0.000187803
-9.67757e-05
-0.000129591
0.000500795
-0.00295465
0.00245375
-0.00176682
0.00291553
-0.00114886
-4.58748e-05
0.000131619
-8.56893e-05
0.00179959
-0.00115656
-0.00292682
0.000526712
0.00240007
-0.000248829
0.000167162
8.16777e-05
0.00023505
-2.90594e-05
-0.000205958
2.38729e-05
-7.79733e-05
5.40943e-05
0.000589206
-0.000119449
-0.000469746
0.00182447
-0.00424327
0.00241879
-3.84819e-06
0.000731372
-0.000727518
-6.79449e-05
0.000108694
-4.07554e-05
-3.43791e-05
5.82555e-05
0.000250101
0.000569591
8.44868e-06
4.73104e-06
0.00220133
-0.0023005
9.93084e-05
7.01782e-05
-9.02354e-05
0.000690012
-0.000248808
-0.000441199
-4.62662e-05
4.04767e-05
5.80011e-06
0.000555931
-0.000145602
-0.000410332
0.00166215
-0.000509065
-0.00115302
0.000410961
-0.000334416
-7.66077e-05
0.000223649
-0.00146096
8.89682e-05
-0.000145362
4.55538e-05
-6.31235e-05
1.75489e-05
0.000430736
-0.000230106
0.00196685
0.000234438
0.000215527
0.00019546
0.000202654
-0.000143767
-5.89609e-05
0.000318554
-0.000322844
4.30438e-06
-0.000771238
0.00132716
-6.69065e-06
7.38501e-06
-6.91114e-07
-1.72252e-05
9.36422e-07
-0.00630817
0.00379213
-0.00013834
-5.10776e-05
0.000189434
-0.0031352
0.00209339
0.00104178
6.93568e-06
3.86284e-05
-0.00010669
-0.000112529
0.000219217
1.5496e-05
-1.92092e-05
3.69726e-06
-3.29957e-05
2.59169e-05
7.07946e-06
-0.000228731
-0.000167953
-3.61227e-07
4.22457e-06
-3.84621e-06
2.26547e-06
-1.13722e-05
9.10542e-06
4.5118e-05
0.00124108
-0.00128634
3.28839e-05
-0.000100861
6.32798e-05
-2.72348e-05
-3.60065e-05
0.000138268
2.23245e-05
-3.69019e-06
-1.86325e-05
0.00135441
-0.00130911
0.000153863
-0.000872289
0.000162261
1.33387e-05
-0.000175653
-1.81524e-05
-2.80455e-06
2.09597e-05
3.85145e-05
0.000577437
-0.000615947
-0.00270787
0.00167298
0.0010349
-3.84725e-06
-2.91459e-05
-2.77892e-05
-1.1202e-05
3.89923e-05
0.000143971
1.82576e-05
6.53423e-05
2.57992e-05
-9.12303e-05
0.000880645
-0.000682038
-0.000198568
-4.77333e-06
-3.24574e-07
5.09891e-06
4.36225e-05
2.16713e-05
-1.55402e-05
1.62105e-05
-7.016e-07
9.37081e-05
0.000155721
-0.000249419
3.00973e-06
-3.0105e-06
0.000510491
-6.5255e-05
-0.000445222
0.000641313
7.19141e-05
-0.000713214
1.81175e-05
-1.50456e-05
-3.05424e-06
1.90874e-05
-2.0991e-05
1.90934e-06
-0.00034644
0.000853509
-9.08558e-07
1.15626e-06
-6.22823e-05
0.000391252
-0.000329037
8.00434e-05
-3.76852e-05
-4.23364e-05
1.49869e-05
-0.00011694
0.000101943
0.000201479
-0.0033368
1.20873e-05
-1.85815e-05
6.49789e-06
2.14022e-05
-5.30271e-05
3.15923e-05
0.00351786
0.00204617
-0.00556403
-3.79446e-06
-3.20395e-06
7.00857e-06
0.000193715
0.000684339
5.34176e-05
-4.17923e-05
-1.14342e-05
9.32562e-05
-0.000176764
8.34313e-05
-2.02272e-05
6.68866e-05
-4.66587e-05
0.000184748
-0.00021006
2.53071e-05
-5.31385e-06
-4.09287e-05
-5.11233e-05
3.08931e-05
1.34078e-05
-1.46142e-05
1.21644e-06
-0.000100152
7.23917e-05
-3.9983e-06
3.6187e-06
-0.00155381
-0.00115402
1.96041e-05
-2.62831e-05
6.68122e-06
0.000431609
-0.00143582
0.00100421
0.000148053
0.00010683
-0.000254854
0.000103517
-5.61072e-05
-4.74319e-05
0.00296075
-0.00158426
-0.00137654
-0.000933928
0.000531574
0.000402342
1.30958e-05
-1.31032e-05
3.71599e-05
0.000108455
-0.000145614
-1.52198e-05
0.000118705
-0.00550861
-0.00694366
-1.64133e-05
8.60249e-07
-3.13235e-05
6.12667e-05
-3.00118e-05
2.79415e-06
-8.02377e-06
-0.000662013
0.000758698
-5.40097e-05
-4.04579e-06
5.80586e-05
0.000302513
-0.00034833
2.05496e-05
-7.05248e-05
-0.000119647
0.000254259
-0.000134626
1.96166e-05
-1.59424e-05
-3.6559e-06
-0.00080221
0.00146471
-0.000662483
1.23343e-05
-3.05043e-05
-1.69204e-05
1.75196e-05
-5.96831e-07
-0.00310406
0.00174573
0.00135839
0.000437328
0.000252679
-1.02846e-05
3.16888e-05
6.53792e-07
-0.000138867
0.000138216
4.88447e-07
-1.39164e-06
8.95349e-07
-7.11824e-06
4.30983e-07
0.000768554
-0.000543282
-0.000860114
-0.000539266
0.00139931
0.000647849
0.000194147
2.84981e-05
1.88893e-05
-4.73562e-05
0.000178187
5.23989e-05
-0.000230564
-4.1048e-05
-8.57588e-05
0.000126833
1.61857e-05
-4.09639e-06
-0.000122912
0.00189694
-0.00177413
0.00105364
0.000608534
3.51984e-06
1.46194e-05
-0.000235649
-5.86255e-06
0.0002415
0.000251529
-0.000903682
0.000652115
-9.45978e-05
-0.000422362
0.000516721
0.0103128
-0.0175668
0.00122595
-0.00113223
-9.36955e-05
-2.08117e-05
8.60235e-05
-6.51807e-05
0.000281384
-0.000112868
-0.000168502
-0.000499673
-0.00186535
0.00248087
0.00132146
-0.00380236
8.89653e-06
-6.98097e-06
-1.9174e-06
-0.00228967
0.00225827
3.08061e-05
-2.83813e-05
-2.4368e-06
-3.46053e-05
-0.00027557
0.000310188
-0.00126978
-0.00165702
0.000242678
3.30173e-05
-0.000275691
-0.00012075
0.000112042
8.67947e-06
0.000778664
-0.0035404
0.00276169
-1.87585e-05
1.48104e-05
3.94262e-06
-0.00154794
0.000138667
0.00140924
2.04705e-05
-8.43217e-07
3.31287e-06
5.57772e-06
-9.15828e-05
-0.000175252
0.000266874
-0.000301803
0.000222116
7.96927e-05
0.000650604
-6.14247e-05
0.00093841
-0.00201873
0.00108027
2.45234e-05
-3.03412e-06
-2.14751e-05
-6.80052e-06
1.36523e-05
-6.84096e-06
0.000260956
2.36168e-05
-0.000284566
-0.000109327
-0.000163842
0.000273132
1.37437e-05
-3.33039e-07
-2.19681e-06
0.00140336
-0.00140118
-7.85936e-06
7.17041e-06
6.97188e-07
0.000243923
8.59826e-05
-0.000329946
-0.000154226
-0.000180018
0.000334259
-1.01858e-05
1.24558e-05
4.05793e-07
-8.26108e-06
-0.00111597
0.00127776
-0.000161774
-0.000765933
-0.000781943
0.000915373
-0.000876849
-0.000399345
-6.34915e-05
0.000462819
0.00055672
-0.00119918
0.00064249
-0.000280248
3.14291e-05
-0.00260137
0.00010643
0.00249495
-1.12786e-05
1.12929e-05
-0.000164175
-7.14628e-05
4.93803e-05
0.00304667
-0.0045392
0.00149254
-9.57483e-06
-1.70204e-06
-0.000584618
-0.000217648
0.00320872
-0.000248072
2.24752e-07
-5.92875e-07
3.59687e-07
2.84985e-05
-0.000877156
-0.000112678
0.000989826
-0.000352209
-6.91005e-05
0.00042133
-0.000439054
0.00137756
0.000101447
-2.41283e-06
-9.90979e-05
-7.28001e-05
1.57912e-05
5.70086e-05
-7.60155e-05
-3.0695e-05
-0.000718174
-0.000290292
0.00100844
-0.00126959
0.00469943
-0.00342983
9.09514e-06
-4.06819e-07
-8.69917e-06
-0.00162883
0.00174468
-0.000115907
-0.00139007
-0.00171404
-0.000187096
-4.26398e-05
0.000229726
4.26716e-07
-1.72923e-06
1.31224e-06
-4.8967e-05
-2.38265e-05
-0.000497524
0.000956169
-0.000458624
-1.20607e-05
5.63254e-06
6.43468e-06
7.28446e-06
0.000184174
2.5097e-05
-0.000209326
0.000620685
-0.00217706
0.00155635
-8.04913e-05
-0.000137004
0.000217518
2.19636e-05
3.95855e-06
-2.59144e-05
-1.87619e-05
-0.000822792
0.000841459
0.00017133
-0.00047313
-3.78948e-06
8.98939e-05
-8.61124e-05
5.4168e-05
-0.000422904
0.00293615
0.000581718
8.76473e-06
0.000632506
1.8635e-05
4.68547e-07
0.000304131
-0.000801629
-0.000117516
0.000709099
-0.000591583
-0.000452384
0.000433605
0.00394992
-0.000147246
-0.00380265
-0.000194304
-0.000523856
0.000700483
-0.000381927
-2.87976e-05
3.04029e-05
-1.6481e-06
4.28464e-05
3.01179e-05
-7.29612e-05
0.000741691
-0.000138663
-0.000602998
0.00015754
0.000123866
-5.25754e-06
4.86243e-07
-0.00198439
0.00101137
0.000972877
-3.15708e-05
-5.44341e-05
8.60081e-05
1.39444e-06
1.61883e-06
-0.000128547
3.27365e-05
-4.75452e-05
1.48199e-05
-0.00966607
0.00437837
0.0052877
-0.000143206
0.000447984
0.000369074
0.000277751
-0.00064679
-5.69687e-05
4.81312e-05
8.84835e-06
0.000218302
0.00105871
-0.00017813
1.57463e-05
-3.1642e-06
-1.25844e-05
0.000149124
-0.000148704
0.000102993
4.5719e-05
4.06556e-07
-4.19483e-06
6.97922e-06
-6.00639e-05
-0.000917684
5.75601e-05
-7.23551e-05
0.000203166
-0.000130837
-3.59785e-06
7.74313e-06
-4.12812e-06
-5.33425e-05
8.60675e-05
-0.000974769
0.000855308
0.00037261
-0.000566709
0.000194049
-5.13772e-06
1.74685e-05
-0.00016183
0.000159619
-0.000113955
-8.61352e-06
0.000122482
-9.2204e-05
-2.85293e-05
1.51174e-05
-0.000153443
8.28727e-05
-0.00015524
0.000375226
-0.000227157
3.15092e-05
1.86202e-05
-5.01261e-05
-0.000413654
0.000318946
0.000252092
-4.94933e-05
1.64292e-05
-2.1141e-05
4.71312e-06
0.000171774
4.03657e-05
-6.81595e-05
2.77783e-05
4.34582e-06
1.7611e-05
-2.19622e-05
-2.65324e-05
0.000146768
-0.000120268
-3.73328e-05
2.67211e-05
1.05952e-05
7.43485e-05
0.000169554
2.86146e-05
-3.03843e-05
1.79479e-06
0.0057666
-0.00874965
0.00298299
0.000818533
0.000407466
9.30251e-05
-7.80273e-05
-0.000390215
-6.21983e-05
-0.00124992
0.00166267
-0.000412713
1.31288e-06
-8.38897e-07
-3.26119e-06
0.00167098
-0.00091542
-0.000755545
-1.41064e-05
7.29874e-06
-0.000620405
9.05524e-05
0.00052986
0.00168097
0.00118754
-0.00286854
5.36323e-05
-2.28392e-05
2.11181e-05
-2.62535e-05
5.79024e-05
9.60092e-05
-0.00552952
-7.70539e-06
1.54236e-06
-0.000391756
-7.49774e-06
8.37544e-06
-8.75268e-07
-2.14307e-05
3.76194e-05
-1.62017e-05
5.79959e-05
0.000421299
-0.000455904
6.13869e-05
0.000124823
-0.000186228
-9.5221e-06
5.92138e-06
-0.000122205
0.000306375
0.000344983
-0.000108054
-0.000237017
5.40799e-06
-2.28723e-05
1.74791e-05
0.000505925
-0.000263263
6.58658e-05
-1.03632e-05
-5.54853e-05
-1.07159e-05
5.71027e-06
5.00742e-06
1.45033e-06
-1.02384e-06
0.000391015
-0.000496794
0.000105769
1.52444e-06
-3.34819e-06
1.81029e-06
1.17211e-05
-6.09593e-06
0.00252103
-0.000119318
-0.00240169
0.000314814
0.000116794
-2.72079e-05
1.85796e-05
8.62454e-06
1.7128e-05
0.000142523
-0.000159729
0.000145256
-5.20631e-05
-2.48206e-05
2.31203e-05
1.70298e-06
3.62014e-06
-3.00078e-06
-6.11746e-07
-0.000937951
-0.00234469
0.00328266
-4.04245e-05
0.000106082
-6.55733e-05
6.39286e-05
-0.000155502
4.2782e-05
-4.27672e-05
0.000129433
4.71195e-05
-0.000176515
-2.57983e-05
-2.98825e-06
0.0036154
-0.00260158
-0.000597384
0.00047987
0.000172694
0.000281151
0.00042795
-0.000105769
-0.000288576
0.000394343
-4.74441e-06
6.21493e-05
1.78965e-05
7.69807e-06
1.40724e-06
-2.37724e-06
-5.45939e-05
-3.73617e-05
-0.000153931
0.00099081
-0.000687775
-0.000302962
-0.000268663
0.000305824
9.07727e-05
-6.66416e-05
-2.411e-05
0.000137324
-0.0001689
-8.06075e-06
5.63858e-07
0.00345086
0.000499001
-0.00238251
0.00113258
-1.82299e-05
7.96087e-05
-8.776e-05
4.72901e-05
-0.000170553
0.000360268
-0.000189754
2.52862e-06
-3.42379e-07
-2.18541e-06
0.00189017
7.67423e-05
4.91929e-06
-3.42008e-06
-0.000490416
0.00049104
0.000456265
0.00946125
-0.0099176
3.27584e-05
-2.52138e-06
-3.02399e-05
0.000515794
-0.000915143
1.09203e-05
1.10421e-05
-1.07478e-05
4.35198e-05
0.000773774
-0.000396876
-0.000376893
-0.00059904
0.00206375
-2.03185e-07
0.000370085
0.000125871
-0.000320434
-1.32691e-06
2.9948e-05
9.83677e-06
-2.10366e-05
1.11993e-05
0.00142843
-0.000718284
-0.000710293
-9.51914e-05
0.000112313
0.00104772
-0.000470295
2.71544e-05
-1.2392e-05
0.00106363
-0.000210472
-0.00020704
0.00041748
-0.000273648
0.000165796
0.000107835
1.63069e-05
4.69678e-05
1.96979e-05
-3.04334e-05
8.71657e-05
0.00015855
-0.000245711
5.52629e-06
5.20506e-06
-1.07034e-05
0.000127479
0.00154353
-0.000515508
-8.18722e-05
-0.00157994
0.00051743
0.00106257
-4.34189e-05
-4.2015e-06
4.76143e-05
-5.77361e-06
-4.28403e-06
1.00447e-05
-1.70924e-05
1.42012e-05
-0.000241911
0.00061452
-2.30562e-05
-7.75426e-05
0.000100605
-3.41698e-05
-3.17641e-06
-0.000713888
-0.000721931
-2.22718e-05
-1.88774e-05
4.1172e-05
3.36266e-05
6.7263e-06
0.000378985
-0.00200779
0.000194996
0.000546758
0.000495292
0.000265423
-0.000760756
-0.00132439
0.00138229
-0.000613966
0.000403479
-8.79452e-07
-2.05521e-05
3.37632e-07
-4.36678e-06
0.00017968
0.00472289
-0.000238437
-0.00448454
0.000221709
-0.000773909
0.000552278
0.000438957
6.12387e-05
-9.99444e-05
1.13301e-05
8.86254e-05
1.28755e-05
-4.4252e-06
-0.00212299
-0.00303182
0.000144632
0.00062915
0.000359141
-6.47688e-05
-0.000294382
0.00210858
-0.000274629
-0.00183398
-1.62712e-05
1.06379e-05
5.65037e-06
0.0020782
0.0036318
-0.00570997
9.29162e-05
-0.000206853
0.00159787
-0.000977181
-1.09593e-05
1.164e-05
-7.64112e-07
-7.06302e-06
7.57795e-06
-5.12886e-07
0.000375849
-0.000117757
-4.15293e-05
-0.000343205
0.00042362
-8.04156e-05
0.00764305
-0.0071868
-6.95145e-06
7.28104e-06
1.40276e-05
-3.88902e-05
2.48331e-05
0.000512945
4.36768e-05
0.0023492
0.00017187
-8.11696e-06
1.17111e-05
-3.57946e-06
-3.75122e-06
6.1053e-05
-5.73851e-05
-0.000921807
-0.000265745
0.00118756
0.000504636
-0.000135585
-1.86484e-05
-5.89664e-07
1.92424e-05
0.000776421
-0.000369858
-0.00040666
-5.60741e-06
5.20176e-06
4.60512e-07
3.58079e-06
-9.36583e-06
-0.00221506
0.000661265
3.56453e-05
2.64232e-06
-3.83655e-05
-7.77378e-06
0.000135988
-0.000128209
-1.39963e-05
-3.25945e-06
0.000393109
0.00171546
-2.26721e-05
4.23726e-05
-0.000691517
0.000178992
0.000512519
-5.02482e-07
3.04235e-06
0.000407104
-0.00262215
-0.000908241
-1.35696e-05
-2.15156e-06
0.000327608
-0.000154886
-0.000172729
0.00205734
8.26025e-05
-0.00213994
-2.40226e-05
-3.19138e-06
0.000662223
0.000208775
-0.000870924
1.56897e-05
-8.77189e-07
-0.00185789
0.00279729
-0.00093926
2.27062e-05
-1.26707e-05
-1.00299e-05
0.000341625
-0.000573769
0.000232227
-3.20773e-05
8.0577e-06
5.63011e-06
-0.000298122
0.00120729
-0.000909159
-7.53429e-05
6.17838e-05
1.36688e-05
0.00163383
0.00042351
1.02007e-05
-1.06591e-05
4.61416e-07
-2.69425e-05
4.64308e-06
2.2643e-05
-0.000145552
-2.00169e-05
3.65008e-06
1.6342e-05
2.16292e-05
-1.6218e-05
-2.92729e-05
0.000345384
-0.00031619
-0.00054525
-0.000570637
-2.9867e-05
-1.35605e-05
0.00112912
-0.000352718
0.000489568
-0.000887133
0.000397516
-0.0010127
0.00677922
-0.000534713
6.10477e-06
0.000528612
-4.06412e-06
2.367e-05
2.30872e-05
-2.3959e-05
8.34919e-07
0.000449129
-0.00104826
0.000598945
-0.000129169
5.38757e-05
-8.01828e-05
2.90546e-05
0.0042266
5.0951e-05
-0.000326518
-1.9802e-05
2.11016e-05
-1.31398e-06
-0.000807152
0.000222474
7.13044e-05
7.25911e-05
-9.56775e-05
-0.000435193
0.000127048
0.000308139
-0.00135017
0.00162564
-0.000275386
-0.00141856
-0.000565819
-0.00018062
8.52428e-05
-9.30151e-05
-0.000626496
-3.22094e-05
-0.000225359
7.70473e-05
0.00014829
0.00040117
-0.000237992
-0.000163227
0.000309284
6.79039e-05
-9.44552e-05
-0.0015845
-0.000495395
0.00207992
-1.30276e-05
0.00052593
-0.000134916
-0.00318919
0.00186956
0.00131964
-1.63663e-05
-3.4273e-06
8.89449e-05
0.000270205
4.08308e-05
-0.000105622
-0.00106546
0.00071907
0.00403929
-0.00624835
0.002209
-6.16451e-06
0.000793335
-2.4794e-05
-5.96221e-06
2.90329e-05
0.00111307
0.000985678
-0.00209873
0.00031459
-0.000129855
-1.65764e-05
5.65118e-06
-0.00128308
0.000984995
-0.000105725
8.31002e-05
2.26316e-05
1.91159e-05
-2.20545e-05
2.93918e-06
0.000576221
-4.67448e-05
-0.000529454
2.21868e-06
0.000106338
-0.000186846
4.11767e-06
-0.00348509
0.000531755
0.00295333
-0.00013125
-4.24449e-05
0.000173691
-5.7125e-05
0.000371805
-0.000282863
-6.61626e-06
-4.70807e-07
7.07528e-06
-0.000560884
0.000230527
0.000330372
0.000329618
-0.000554956
0.000310355
-0.000312599
2.2326e-06
5.30214e-05
0.000365214
-0.000418338
-0.00168987
0.00158711
0.000102755
-0.000420977
0.0051438
1.59049e-06
2.02954e-06
-0.00014955
0.000226559
-0.000758151
-4.90169e-05
2.39205e-05
-7.40857e-06
-1.65091e-05
0.000105736
-0.000276232
-5.93096e-05
-2.0873e-05
-0.000629256
0.000277715
0.000351468
0.000629176
-0.00169475
-4.96232e-05
9.86601e-05
-4.90583e-05
-0.000226949
0.000166905
5.99744e-05
0.00145108
1.3134e-06
2.89291e-05
-6.64381e-05
3.75304e-05
-1.79865e-05
-3.152e-06
0.00119437
-0.00254456
-0.00407891
-0.00558732
-0.000642137
0.00060051
4.16346e-05
2.05118e-06
1.17587e-05
-2.42964e-06
-0.000128823
-0.000449143
-0.000157769
0.000606926
-0.000333271
-0.000254971
0.000588256
0.000430089
-0.000726348
0.000296236
-7.06488e-05
7.74891e-05
-6.82435e-06
9.2512e-07
2.01824e-05
-0.000343596
0.000812118
-0.000468533
-2.7941e-05
2.57471e-05
2.14907e-06
-2.53273e-06
2.52816e-06
-0.0008369
-0.000316196
0.00115309
6.02927e-05
4.33113e-06
-0.052967
0.0248372
0.0281297
1.6951e-06
-9.35964e-06
0.00012868
2.6424e-05
-0.000155105
-0.00013759
-0.00173337
0.00187091
-3.25875e-05
7.92533e-05
0.000179612
-8.88807e-06
-0.000170706
6.12604e-05
0.000362888
-0.000309903
3.95729e-06
-4.41695e-06
4.77395e-07
0.000455256
0.00100946
0.00235814
-0.00336773
0.000275297
0.00134436
-0.00161971
1.03021e-05
-9.98011e-08
-0.00042143
0.000129274
-0.00025851
-0.00143137
0.000499433
-0.000116128
-0.000383306
6.71488e-05
0.000954218
-0.0010214
2.00231e-05
2.70704e-05
0.000413934
9.72933e-05
-0.00095642
0.000537032
0.000419316
7.43546e-05
3.48139e-06
5.43746e-07
-4.02336e-06
-0.000185886
0.000328976
-0.000143083
-0.00028379
-1.48169e-05
0.000298616
-0.000140966
6.50901e-05
7.58984e-05
0.00178597
0.00126071
4.11567e-05
-0.000190713
-4.49529e-05
2.0972e-05
0.000325959
9.53613e-05
-0.000383004
3.29055e-05
0.000350044
6.81291e-05
0.00353752
-0.00360559
-0.0170546
-0.0192875
0.0363421
-1.6518e-05
-3.99404e-07
-0.000169161
0.000451129
-0.000281988
1.4984e-06
-8.46582e-06
6.96967e-06
-1.42205e-05
1.61141e-05
0.0103103
-0.00142699
-0.00888345
0.000508999
-0.00027943
-0.000229597
-0.000191371
0.000368316
-0.00233656
0.00196818
-1.10201e-05
7.24446e-06
-2.90367e-05
4.62092e-05
-1.72127e-05
0.000708026
-0.00105163
0.000419508
0.000817731
-2.43615e-05
-0.000362758
-0.000279378
-1.44457e-05
1.1961e-05
2.48769e-06
-3.0049e-05
-4.32895e-05
3.91118e-05
-0.000103707
6.46129e-05
3.2502e-05
-7.09462e-06
-2.53902e-05
0.000383449
-1.51805e-05
8.11778e-06
-1.57157e-05
7.60682e-06
-4.07552e-06
1.62353e-05
-1.21733e-05
0.000103969
0.000301551
-0.000405594
1.83272e-05
-5.22813e-05
3.3981e-05
-2.24489e-05
4.40743e-05
-2.20495e-05
-5.17206e-05
6.75419e-06
-3.76812e-06
-2.25133e-05
0.000152625
-0.000201799
9.6055e-05
0.000889423
-0.000383353
4.9735e-05
-3.90875e-05
-1.06934e-05
8.61868e-05
0.00022418
-5.87427e-05
-0.000561641
-5.1558e-05
9.17715e-05
-4.02321e-05
-0.000124372
5.84386e-05
6.59377e-05
-1.72301e-05
7.13958e-07
-0.00183415
0.00090026
-0.000311764
0.000419546
-0.000107729
9.01265e-05
-6.65314e-05
-2.35052e-05
0.000192368
-0.000229737
-0.000323292
0.00214777
0.000483748
1.50865e-05
3.74306e-06
-1.88079e-05
0.000280172
0.000219269
-0.00105709
0.00154621
-0.00216868
0.000622447
-6.87653e-05
0.000320275
0.000365908
0.00031001
-0.000675958
-0.0003921
-0.00309299
2.16949e-05
2.22612e-06
8.55909e-05
-0.000418866
-0.000199078
0.000564939
8.93562e-05
-0.000373155
-0.000205773
0.00016945
3.63067e-05
-0.000257357
0.0002007
5.66587e-05
-9.15149e-05
0.000586796
-5.57819e-06
4.15568e-06
1.41302e-06
0.00237765
-0.00177601
-0.000601614
-2.61862e-06
1.55265e-05
-4.69096e-05
3.46539e-08
-5.13138e-05
9.04395e-05
0.00220381
0.000338995
-0.000566013
-0.00137618
-4.86333e-05
-6.06907e-05
-0.00398685
0.00306472
0.000922115
7.31342e-05
-3.20041e-05
-4.11186e-05
3.08006e-05
-4.30292e-05
1.22394e-05
-0.0100923
-0.0428748
6.84701e-05
-3.76699e-05
-1.05458e-05
2.9475e-05
-0.00426443
0.00600908
-1.37698e-06
-0.000495152
0.000556954
-6.17927e-05
2.90712e-05
-7.88437e-06
-2.11702e-05
-0.000416259
-9.93512e-05
-0.000356342
0.000455685
-0.00199676
0.00249753
-7.40536e-05
2.44457e-05
4.96035e-05
0.000350136
-0.000578901
7.13721e-06
-0.000496563
4.61666e-05
0.000450382
-9.74679e-05
-8.84058e-05
0.000150229
-0.000646789
0.00175338
-7.24232e-05
0.000212978
-7.12265e-05
-0.000141769
-0.000117444
0.00116269
-0.00104517
-0.00143395
0.00104422
0.000389708
-0.000110037
-0.000272918
-0.000169719
-0.000124468
0.000294195
-1.14113e-05
-1.34086e-05
5.48931e-06
-2.03536e-05
1.48854e-05
-0.00363774
0.00350014
-0.000134512
-0.0016738
-7.90395e-06
1.40354e-06
6.50787e-06
-0.000266355
0.00044236
-0.000175985
0.00105531
-0.00158643
0.000531119
4.78718e-06
2.77051e-05
0.00308501
-0.00417763
0.00109243
-2.09005e-07
7.62402e-06
-0.000367962
0.00396301
2.30785e-05
-2.31609e-05
4.15001e-05
-0.000108838
3.28332e-05
7.59493e-05
-0.001094
-0.000672902
0.000830224
-0.000488565
0.000402474
-0.000372962
-2.94803e-05
0.000286776
7.60935e-05
-0.00138517
0.00376297
6.17475e-05
1.98486e-06
-6.37542e-05
1.69074e-05
-2.09763e-05
-0.00120742
-0.000650426
0.00479342
0.00162159
-0.00641503
-0.000314469
0.000201956
-0.00165917
0.00402019
-0.00236119
0.00346387
-0.00218611
3.25114e-05
0.000211266
-0.00024381
0.0227586
-0.0398132
1.04475e-05
1.93317e-05
4.51696e-06
-2.38773e-05
2.58852e-05
-4.7374e-05
8.38222e-05
-3.64341e-05
-1.0686e-06
-1.33754e-05
-0.000208526
-0.000962369
1.61089e-05
3.73275e-05
-3.99152e-06
5.26557e-05
-0.000433792
0.000381114
-1.25395e-06
1.74255e-05
-0.00129337
0.00215391
-0.000860539
-1.81263e-06
3.8079e-07
1.43514e-06
2.508e-05
-5.54963e-05
-3.30317e-05
-0.000354259
0.00038728
-4.19487e-06
-9.59397e-06
1.02474e-05
-6.51673e-07
0.000296332
7.06753e-05
-0.00036717
-0.00420558
0.00293597
-0.00195131
0.000752089
6.61027e-05
0.00202846
-0.00103769
-0.00575585
0.00256665
-0.000314261
0.000848786
-0.000534518
5.17088e-05
-1.16307e-05
-0.000146561
0.000576649
2.45912e-06
0.000202541
-9.34909e-05
-2.4507e-05
0.000118001
0.000509151
-0.000150503
-0.000358686
-3.79773e-05
-1.37864e-05
-6.24672e-06
3.98717e-07
7.39166e-06
-7.78697e-06
-1.55952e-06
4.03679e-06
-2.50335e-06
0.00443061
-0.00405169
0.000311228
-0.000465436
-1.52072e-05
-8.26939e-06
2.34872e-05
-4.59302e-06
-2.77341e-06
8.3837e-05
-7.50845e-05
-0.000345624
0.0016506
-0.00563743
-5.64486e-05
3.81517e-05
1.82971e-05
-0.00197032
-0.000631078
6.0214e-05
-0.000170181
0.000271645
-0.00185159
-1.13482e-06
-4.72262e-07
1.61683e-06
0.00292696
0.00112632
-1.64028e-06
-9.03719e-06
-0.0022404
0.0026589
-0.000418498
2.00752e-05
-7.59489e-05
5.58038e-05
-1.02652e-05
3.0319e-05
-2.6289e-06
0.000241171
-0.000238544
0.000106591
0.000180156
-0.00518123
-0.000203294
2.89953e-05
0.000174319
-4.25345e-05
1.81589e-05
2.43814e-05
-0.000577501
-0.000408052
0.000314847
-0.00144227
0.00149497
3.54964e-05
-1.63734e-05
0.00142583
-1.90349e-05
5.83026e-05
-3.92253e-05
0.00135299
0.00179313
-0.00314618
-0.000466524
0.000209167
0.000280815
-0.000323472
-6.22901e-05
-4.06134e-05
0.000102919
-0.000118402
0.000179622
-0.000246361
-0.000248819
0.000224568
-7.78031e-05
-0.000927704
0.000241907
0.000576622
-5.11909e-06
-5.626e-07
-5.70431e-07
-8.49589e-05
8.69121e-05
-1.93891e-06
-2.23976e-05
2.02794e-05
2.13778e-06
-1.90208e-05
3.83581e-05
7.04774e-05
-0.000178687
0.000108286
-0.000585452
0.00114243
-0.00152863
-0.000378229
0.00190713
4.20896e-05
9.61088e-06
4.11631e-05
-1.66405e-05
2.30563e-05
9.25647e-06
-3.23159e-05
0.000355593
-0.00130261
0.000946997
6.10721e-05
2.83791e-05
-8.9463e-05
-0.00114348
0.00250383
0.0051392
-2.98738e-06
1.78806e-05
-1.48902e-05
-0.00018524
0.0011045
-0.000919286
0.000250635
-0.000144942
-5.33538e-05
4.23265e-05
0.000176239
-0.000142208
-0.000132317
0.000641417
0.00150618
8.29674e-05
0.0001052
-0.000188171
-7.15663e-05
-3.72865e-05
0.00154724
-0.000194268
0.000524624
-0.000238807
-0.000285828
-0.000283116
0.000548494
3.05779e-05
-0.000200298
0.000174897
0.000314709
0.000130399
1.77581e-05
-0.000148155
4.60303e-06
1.01694e-06
-5.61262e-06
-8.8142e-05
0.000149881
0.00115538
-0.00230052
0.00114518
0.000489086
0.00183414
-0.00232319
1.93532e-05
0.000661504
-7.72475e-06
-2.13214e-05
-8.5496e-07
-1.63758e-05
-0.000310903
-0.000797379
0.00110828
-5.32838e-06
2.59656e-05
-2.06412e-05
-7.45361e-06
2.25391e-05
-5.98499e-06
0.000547565
-0.000573141
2.55326e-05
3.19192e-05
-8.50471e-06
-2.34206e-05
0.000543596
0.00127983
-0.00182342
-0.000558646
0.000554777
3.84916e-05
-4.87816e-05
-0.000852317
-0.00332524
-6.29834e-05
3.84145e-05
2.46046e-05
-0.000122446
0.000136678
-1.42337e-05
0.000144697
-0.000281532
0.000136879
7.42434e-05
-0.000435863
0.000360839
1.95871e-05
-4.68457e-05
-0.00208564
0.00103752
-0.000183118
8.67829e-05
9.63393e-05
-0.000348478
0.000286166
0.000290833
0.000608628
-0.000899424
0.00133203
-0.000600637
0.00287706
0.000331579
6.27956e-06
-2.66214e-06
-3.60622e-06
0.000699492
-0.00101041
-0.000376354
-0.000639668
0.001016
-0.00144006
6.08008e-06
-1.97314e-07
4.18599e-07
-8.29985e-05
0.000382526
-0.000299527
-0.000757531
-0.000588501
0.00134607
0.0014811
-0.000970605
0.000615031
-0.000368315
0.000330812
3.74842e-05
8.62184e-05
-2.59692e-05
-0.000254196
0.000154836
2.52505e-05
-1.76373e-05
-7.71842e-06
1.58523e-06
-5.99908e-06
4.6196e-05
-2.15081e-06
-4.40601e-05
-0.000190521
0.000107534
-0.000479643
0.000449168
3.05057e-05
0.00157307
-0.000144613
-0.000139813
-0.000309318
4.35706e-06
-1.49914e-05
1.06532e-05
-0.000565333
0.00059789
-7.05506e-05
-9.50822e-08
0.000402754
-0.00108482
-0.00119999
0.000851501
0.000345702
-0.000484837
0.00013912
3.26835e-05
-4.23287e-05
-2.8073e-05
7.03779e-05
-3.20712e-05
5.06907e-05
7.45121e-05
-3.85568e-05
-3.59561e-05
-5.00841e-06
-3.45964e-06
5.49168e-06
-5.28592e-06
-2.05793e-07
-3.44513e-07
1.47589e-07
-0.00270634
-0.00183287
0.00011536
8.75216e-05
0.000122367
-0.000209899
-8.32141e-06
-0.000375157
0.000194155
0.000180972
5.36725e-05
0.000596938
-0.000153174
0.000434324
4.8375e-06
6.55215e-07
3.04888e-05
7.97425e-06
-3.8449e-05
0.00108179
0.000143853
-0.000209131
0.00103215
-0.000756887
0.000206329
2.58392e-06
-0.000208846
-9.26667e-07
-1.57676e-06
8.90352e-06
-4.53503e-06
3.21465e-05
-2.79433e-05
-4.20482e-06
1.17221e-05
5.80082e-06
0.00150038
-0.000172067
-0.000243534
0.000415569
8.93535e-05
0.000205921
-0.00025456
-2.48005e-05
1.16779e-05
-0.000108946
0.000107729
0.000156584
-0.000232615
-7.81814e-06
6.97939e-06
8.38253e-07
0.000737264
0.00114879
-0.00188606
2.06915e-05
4.49182e-06
0.00476064
-0.00380988
-0.000950748
-0.000223165
5.51941e-06
0.000217645
-0.00049715
0.000120761
5.80162e-05
1.14768e-05
-6.95138e-05
2.55449e-05
-3.4272e-05
0.000186432
-3.15365e-05
-3.14212e-05
7.01432e-05
-0.000189795
-0.00027759
0.00572329
-0.01128
-0.000237902
-3.31192e-07
-2.0549e-08
-7.1888e-05
-0.0001314
0.00027213
-0.000396372
0.000124235
-0.000348797
-0.000180889
0.000529697
0.00159087
-5.32278e-05
-0.00153771
-7.09511e-05
6.52089e-05
5.75845e-06
-0.000544204
0.000935448
-0.000453623
0.00027658
0.000177036
-0.000161385
6.14185e-05
-0.000469116
0.000120317
-3.15399e-05
0.000106051
0.00029885
-0.000452027
0.000828201
-0.000296776
-0.000531578
8.20742e-05
4.15501e-06
-0.000248332
0.000631605
-0.000383276
-0.000848711
0.000491176
0.000357538
2.41766e-05
7.73515e-07
-3.72221e-06
2.95128e-06
0.000799317
-0.000223078
-0.00116464
0.00154718
0.00364553
-0.00129633
-0.0001981
-7.68854e-06
-7.0028e-06
1.4205e-05
-7.17428e-06
-0.000490491
-0.000501956
-0.00232602
0.00282802
-0.000836123
0.0013677
2.35409e-05
-3.1349e-05
7.81403e-06
-9.93705e-05
-2.31027e-05
0.001989
-0.000434374
-0.00155459
-4.8991e-05
4.89865e-05
-6.32906e-05
-0.000119833
2.34805e-05
-3.98799e-05
-5.61232e-05
9.60021e-05
0.000471362
-0.000162604
-0.000308748
-2.73625e-06
-4.76906e-05
5.04318e-05
-5.05708e-05
-0.000334793
0.000385382
0.00161538
-0.0041631
0.00198594
-0.00116362
0.00196644
-0.000802798
-2.27007e-05
0.000707694
-0.000684998
-0.00014812
5.4635e-05
0.000267336
-1.30826e-05
-7.08109e-06
2.75548e-05
-2.04814e-05
-0.000172154
8.64014e-05
-1.57603e-05
0.000138598
-0.000136558
-2.02085e-06
-0.000284614
5.50234e-05
-0.00385799
-0.000805139
0.00466319
-0.000138427
7.29747e-05
6.54663e-05
1.72082e-05
-1.1496e-05
-7.08302e-05
0.000206326
-0.000135505
-5.53434e-07
3.10492e-05
0.00022322
-1.68385e-05
-0.000452643
-6.55145e-05
0.000518118
2.97903e-05
-1.80995e-05
-1.16948e-05
0.000822797
-0.000629057
8.00624e-05
-0.000150989
5.86477e-05
9.05003e-07
-7.98464e-06
7.0832e-06
5.2873e-06
-6.84332e-06
-4.96901e-05
1.60274e-05
3.36506e-05
2.02525e-05
-0.00627056
0.0077064
-0.00143583
8.41936e-05
-0.00030736
-4.27436e-06
0.00239789
0.00791486
-0.00126286
0.00116011
0.000102774
-5.60055e-06
5.10878e-06
-0.00358865
0.000775185