/*--------------------------------*- C++ -*----------------------------------*\
| =========                 |                                                 |
| \\      /  F ield         | OpenFOAM: The Open Source CFD Toolbox           |
|  \\    /   O peration     | Version:  v2012                                 |
|   \\  /    A nd           | Website:  www.openfoam.com                      |
|    \\/     M anipulation  |                                                 |
\*---------------------------------------------------------------------------*/
FoamFile
{
    version     2.0;
    format      ascii;
    class       volScalarField;
    location    "250";
    object      nut;
}
// * * * * * * * * * * * * * * * * * * * * * * * * * * * * * * * * * * * * * //

dimensions      [0 2 -1 0 0 0 0];


internalField   nonuniform List<scalar> 
14315
(
0.00166597
0.0272031
0.000984347
0.00020948
0.000159542
0.00156027
0.0309323
0.000408767
0.000504565
0.00169009
6.30383e-05
0.0025378
0.00232185
0.00678184
0.00354803
0.00672657
0.000645402
0.0067393
0.000291205
0.00027534
0.00653387
0.0152828
0.00061031
0.00298313
0.000179729
0.0309746
0.00612661
0.0309607
0.000132975
0.000485872
0.00133729
0.00592768
0.00679703
0.0173136
0.0211078
0.0171345
3.94747e-05
0.000576479
0.000668453
0.000315844
0.000147543
3.83811e-05
0.000929741
0.00676532
0.000795299
0.000183088
0.000142191
0.0017083
0.00259021
0.00673894
0.00127989
0.000203497
0.00340966
0.0025482
0.00140079
0.0132179
3.70543e-05
0.000436548
0.0048571
0.000649453
0.000380524
0.0205318
0.0141588
0.00601455
0.000380894
2.49364e-05
0.0021992
0.00672743
0.00577623
0.0013779
0.00297466
0.00054106
0.0210108
0.000453616
0.00636405
0.00210718
0.00091883
0.0127839
0.000700183
0.0042746
0.00675614
0.00441687
0.000518915
0.0118939
0.00674375
0.00227647
0.00206755
0.00250295
0.00244128
0.000118366
0.000812628
0.000113357
0.00675988
0.0022457
0.00407158
0.0155849
0.000799697
0.0116295
0.0264684
8.34554e-05
0.00672685
0.00226109
0.0176945
0.00677068
5.09032e-05
0.000628441
0.00879648
0.0159382
0.00109149
0.00164633
0.0145445
0.00305486
0.00904639
0.00605647
0.00331708
0.00255387
0.00566813
0.0023402
0.00699989
0.000188645
0.000748058
0.00136364
0.00661168
0.00199684
0.000133635
0.00677279
3.80562e-05
0.00674662
0.00383673
0.000136563
0.0184121
0.015013
3.04177e-05
0.0184621
0.000400672
0.00401274
0.001964
0.0260431
0.00338827
0.0026366
0.0294665
0.00233544
0.00144194
0.0124957
0.000526451
0.0207762
0.000765425
0.0107624
0.0013982
0.000216626
0.00103332
9.71507e-05
0.0011917
0.00139146
0.000217454
0.00302287
0.0007343
0.00672771
0.00104718
0.0255784
0.00480328
0.00242653
0.0117295
0.00325924
0.00120935
0.016869
0.00445839
7.33449e-05
0.000537463
0.0154885
0.00648077
0.00672445
0.00448495
0.00133107
0.000649594
3.91535e-05
0.00672665
0.014746
0.0209633
0.0171926
0.000159981
0.000801808
0.00676485
0.00300721
0.000568739
0.000795126
0.000185721
0.000948237
0.0203621
0.00417075
0.000549473
9.36072e-05
0.0157046
3.71259e-05
0.00683832
0.00451565
0.000476745
0.00406567
0.00570543
6.66616e-05
0.00367376
0.000805312
0.00185185
0.0171274
0.00257617
0.000236406
0.000393805
0.000500759
0.00673005
0.0154703
0.000710201
0.00351018
0.0038505
0.000560694
0.0290891
0.00652443
0.0114839
0.0271389
0.0280652
0.00062203
0.000657049
0.000919268
0.000793593
0.000901741
0.0209584
0.00136527
0.00212881
0.00259815
0.0205619
0.000948248
0.00680192
0.00163021
0.000178418
0.00672488
0.00672664
7.92403e-05
0.000694757
0.000421662
0.0214766
0.0228718
0.00253944
0.000976591
3.61189e-05
0.002346
0.000110107
9.00417e-05
0.0174444
0.0067238
0.023113
0.00264795
0.00682234
0.00677055
0.00989398
2.88929e-05
0.00077326
0.0258789
0.000666962
0.00110553
0.010644
0.00135665
3.52802e-05
0.00140618
0.00365235
0.00192195
0.0171974
0.000701953
0.000343914
0.000931179
0.00238011
0.0140071
0.0263887
0.00124804
0.00584076
0.0042907
0.000290988
0.0183277
0.000441592
0.00062972
0.010533
0.000118851
0.00112835
0.00143676
0.0235439
0.00438839
0.00280645
0.00356443
0.0178534
0.0095018
0.0169528
0.0031793
0.000750854
0.00201796
0.0161247
0.0109004
0.000375242
0.000694093
0.015915
0.000623199
0.00453015
0.00676538
0.00105937
0.0011683
0.0121602
0.0302574
0.000537489
0.00674617
0.0178081
0.018068
0.00673858
0.00558609
0.0108285
0.00676707
0.00627403
0.0158701
0.000199542
0.000817465
0.00387728
0.000809077
0.00100619
0.00672442
0.00269327
0.000159037
0.0168419
0.000905057
0.000388232
0.00684461
0.0167279
0.000540485
0.000102486
0.00619494
0.000719087
0.0158083
0.00672728
0.0212886
0.00429959
0.00673568
0.0175362
0.00916101
0.00928184
0.0287985
0.00255488
0.00926822
0.00674034
0.0067239
0.014856
0.00672525
0.00682299
1.81985e-05
0.000901279
0.0152308
0.00672586
0.00082827
0.014467
0.00242358
3.94529e-05
0.00287324
0.00193066
0.00672648
0.0067387
0.014874
0.000119293
0.0189233
0.0107812
0.0184966
0.016553
0.00913795
0.00674752
0.00370042
0.0231313
0.00106239
0.000549573
0.00160374
0.00672595
0.0186471
0.0170527
0.000494214
0.00122849
0.00673399
0.00325028
4.50663e-05
0.00144211
0.00076826
0.0067245
0.0070347
0.000112714
0.0288167
0.000947258
0.0271905
0.0283238
0.00454748
0.000820455
0.00242152
0.00796413
0.0184669
0.0146861
0.0285835
0.00023649
0.00672597
0.000862254
0.0277859
0.00138937
0.000558358
0.00408682
0.00139065
0.0291248
0.000416782
0.0180502
0.000280015
0.0181261
3.37308e-05
0.00674898
0.0246849
0.0053819
0.000687792
0.00447551
0.00676431
0.00102146
0.0115499
0.00673594
7.1713e-05
0.00130151
0.00553212
0.000614843
0.000401979
0.00672671
0.0118032
0.0066643
0.000336421
0.000772441
0.00126443
0.00600408
0.0297378
0.0067259
0.000423891
0.00317502
0.00159492
0.000632438
0.0166013
0.000188112
0.00519381
3.8447e-05
0.00300352
0.0177115
0.00674765
0.000476627
0.0011743
0.000150242
0.0125815
0.00673204
0.000699129
2.4046e-05
0.00177225
0.00672772
0.000744724
0.00104512
0.00705143
0.000102878
0.0122551
0.0252057
0.00110255
0.00227741
0.0236306
0.00341455
0.000550734
0.0281392
0.0132916
0.0023247
0.000806505
0.000885299
0.0167882
0.00105785
0.00108638
0.0140735
0.00085372
0.00215505
0.000734706
0.00678556
0.00141467
0.0153145
0.00295663
0.000798879
0.00233606
0.00081747
0.00213973
0.0109291
0.000278396
0.00672659
0.0288178
0.000698232
0.000576859
0.00674822
0.00031627
0.00168824
0.000224144
0.00152025
0.0198388
0.00672656
0.000664986
0.00289376
0.0252656
8.13901e-05
0.00462542
0.00205414
0.0011279
0.00672658
0.00309969
0.00312195
0.000279975
0.000567729
0.00408495
0.0247713
0.00184811
0.00168024
0.00149212
0.000879405
0.0146786
9.63062e-05
0.0286439
0.0155535
0.000290426
0.00345385
0.00139911
0.00151255
0.000150937
0.000152876
0.0142536
0.00139178
0.00672639
0.000696133
0.00358159
0.00286399
0.000761585
0.00673648
0.00653973
0.00325938
0.00195193
0.00129198
0.00226258
0.000584351
0.00672672
0.0103556
0.00185345
0.0192935
0.00258274
0.00179671
0.000885052
0.000949326
0.000502637
0.00037468
0.00411326
0.00172401
0.00138615
0.0319405
5.00923e-05
0.0252625
0.00602578
0.000146275
0.00362088
0.00224251
0.000575786
0.0159871
0.0189027
0.0160942
0.000338783
0.000182287
0.00096193
0.00501139
0.00672663
0.000959049
0.0023185
0.0135101
0.00674959
0.00301393
0.00113102
0.0148863
0.00139258
0.000705261
0.0051523
3.03871e-05
0.00678646
0.0184098
0.000367135
0.00673526
0.00291503
0.00673826
0.0014312
0.00658836
0.00132906
0.000333384
0.00113424
0.00369446
0.00674571
0.000455839
0.000677275
0.000455397
0.0060286
0.0168116
0.000391304
0.030352
0.0143026
0.00114783
0.0048373
0.0099387
0.000445268
0.0014878
0.0067259
0.00377226
0.00133647
0.000751577
1.17286e-05
0.00268992
0.00111819
0.0193621
0.00678202
3.44782e-05
0.000340765
0.000592964
4.69957e-05
0.00672766
0.00674551
0.00106322
0.000758971
0.00136117
0.000858104
0.0170207
0.00636944
0.00415009
0.0278079
5.81675e-05
0.0171175
0.00680105
0.000399676
0.00674112
0.00679763
0.0171932
0.00672573
0.0191265
0.000687251
0.0179693
0.00284107
0.00240057
0.00107669
0.00104895
0.00868272
0.0193911
0.00435764
0.000967051
0.000857796
0.00672616
0.00121566
3.21523e-05
0.00353224
0.0289032
0.000760911
0.00104116
0.00281389
0.000582643
0.00107395
0.000504642
0.032115
0.00237075
0.00120682
0.00336866
0.0121284
0.00112121
0.00549793
0.00673799
0.000710775
0.0154415
0.00104683
0.00195334
0.00435227
0.000263814
0.00288562
0.00070368
0.00395939
2.82609e-05
0.0228987
0.00672778
2.43675e-05
0.00672783
0.00672671
0.000106737
0.0114404
0.000947504
0.0148555
0.00398673
0.00245549
3.69368e-05
0.00323482
0.00109042
0.00666774
0.00248098
0.00127526
0.00281127
0.000708507
0.0177798
0.000828025
0.00111719
0.0019042
0.00347253
0.0146659
0.00675423
0.000275884
0.000383128
0.000473196
0.00394836
8.15073e-05
0.00103733
0.0280805
0.000394798
0.000527425
0.000326661
0.00679211
0.00642766
0.00188459
0.000393824
0.00134025
0.000769128
0.00111056
0.000935509
0.000780587
0.00680607
0.000752517
0.000279682
0.00212128
0.000425031
0.00061108
0.00133999
9.09828e-06
0.00676182
0.00672545
0.0190352
0.0197417
0.015329
3.0924e-05
0.0036924
0.0167617
0.000256185
0.00469421
0.00156945
0.00672219
0.00674704
0.000933701
0.00673434
0.00449471
0.000922767
2.48037e-05
0.000946312
0.0186219
0.000483448
0.000303475
0.000490308
0.00152869
0.0145623
0.0139221
0.00254011
0.0118817
0.000265097
0.00951777
0.00672673
0.0167422
0.00410856
6.72848e-05
0.00978826
0.00672847
0.000310083
0.00121567
0.00108326
3.13644e-05
0.0236546
0.00117357
0.00180342
3.77432e-05
0.00343355
0.000379318
0.00673926
0.000314704
0.0137116
0.014252
0.0155822
0.000906434
5.24045e-05
0.02038
0.0238179
0.000751975
0.0038764
0.000270374
0.00664449
0.000302172
0.0067328
0.000400722
0.00104382
0.0182194
0.00673288
0.000810868
0.000902131
0.00983723
0.000123618
0.000521528
0.000859568
0.018293
0.0020069
0.00180969
0.0240212
0.00672575
0.00137397
0.00098237
5.77966e-05
0.00260787
0.00673176
0.0169164
0.00115715
0.0218196
4.19495e-05
0.000189389
0.0302559
0.000367641
5.81332e-05
0.00672733
0.00216136
0.000254386
0.000658876
0.00183822
0.00182332
0.000555645
0.000733753
0.0045978
0.00327234
0.00241906
0.020207
0.00855037
0.00130316
8.25719e-05
0.000888617
0.0164086
0.00157135
0.00674542
0.00251371
0.000542298
0.0165462
0.0290388
0.0159318
0.00329553
0.0298643
0.000936863
0.00156392
0.0146698
0.00042484
0.00672687
0.00674081
5.7214e-05
0.0227032
0.000429969
0.0016591
0.00044854
0.00186711
2.95059e-05
0.00120966
0.00235562
0.000173647
0.011333
0.000367046
0.000895861
0.00113712
0.006725
0.0010959
0.00102298
0.000795287
0.000523007
0.00672673
0.00179716
0.00254944
0.00370269
0.00667676
0.00673126
0.00112511
0.00116582
0.000186317
0.00112765
0.00265798
0.00122867
0.00675107
0.00189751
6.1928e-05
0.00238622
0.000404473
0.00672835
0.0314382
0.00553453
0.0182241
0.00235845
0.00672541
0.000781744
0.0264083
0.017408
0.0232269
0.000855684
0.000372335
0.0175403
0.00423214
0.00680233
0.000804348
0.000673858
0.00120156
0.0030413
0.00648453
0.00163373
0.0159734
0.0043673
0.000491705
0.0167491
0.0203666
0.00405747
0.000363106
0.00439909
0.0022807
0.0181982
6.25266e-05
0.00332917
0.000205866
0.0210886
0.000733467
0.0224219
0.00448369
0.00117067
0.00672685
0.0116652
0.0154599
5.76289e-05
0.00344877
0.00672562
0.0206505
0.00109397
0.00322128
0.000367078
0.00444067
6.49694e-05
0.00171397
0.00636984
0.00199243
0.00590897
0.016286
0.00138748
0.00148065
0.011256
0.00901848
0.0227232
0.0146343
0.00411736
0.000903474
5.85003e-05
0.0132889
0.00130256
0.00113181
5.32636e-05
0.00148866
0.00675409
0.00674152
0.000667835
0.000101542
0.00108865
0.00672607
0.0225651
0.00845422
0.00672729
0.0141028
0.000390366
2.87405e-05
9.71296e-05
0.000885887
0.0148625
0.0104567
0.00672599
0.0185808
0.00672752
0.00105736
0.000907175
0.00325448
4.4065e-05
0.00124334
0.00674311
0.0165064
0.00679833
0.00211779
0.00182425
0.0163114
0.00040177
0.00463985
0.0216062
0.00573685
0.00252359
0.00258048
0.0158826
7.75629e-05
0.0198
0.00159816
0.000215873
0.000563951
0.00284437
0.000509
0.00226664
0.000407872
0.00178879
0.0193531
0.000318983
0.0167793
0.00672668
0.000569592
0.00669535
0.00816335
0.0140312
0.000620827
0.0148524
7.82158e-05
8.58289e-05
3.68819e-05
0.0148621
0.00022282
0.00071247
0.0010521
0.00673559
0.000397915
0.00650546
0.0289159
0.00664617
0.0187254
0.012613
0.0058417
0.000552419
0.0051462
0.00673621
0.00363924
0.0171375
0.00680489
0.00249502
0.00539176
0.000532721
0.000255036
0.0270038
0.00673086
0.0153112
0.000705119
0.00673341
0.00672644
0.000691596
0.00023617
0.00673309
0.00226404
0.00995329
0.000993001
6.67731e-05
0.0169751
0.00202938
0.00633842
0.000108686
0.00365249
0.000682436
0.00385144
0.000877409
0.000508317
0.0296476
0.00673425
6.99783e-05
0.0237439
0.000148958
0.00672682
0.000766207
2.09545e-05
0.00678446
0.000910784
0.00307527
0.0160115
0.000183273
0.00749002
0.0201786
0.0234094
0.00056266
0.0129338
5.98243e-05
0.0173313
2.78687e-05
0.00175785
0.019365
0.000847536
0.000513672
0.000859206
2.55867e-05
0.000562219
0.0015798
0.000104071
0.00396156
0.0011049
0.00672602
0.000183158
0.000196639
0.0226746
0.000315713
0.0193663
0.00353591
0.00314256
0.00217969
0.004978
0.0122165
0.000838013
3.90475e-05
0.00261046
0.00109562
0.0252015
0.0151019
0.00413148
0.00391657
0.00422674
0.0141206
0.00174586
0.000402336
0.0037969
0.0013036
0.00123909
0.000393447
0.00014516
4.39005e-05
0.00074108
3.48163e-05
0.00158706
0.000703342
0.000242586
0.000766679
0.000837798
0.00175165
0.000866366
0.0105532
0.00132149
0.000805267
4.16239e-05
0.000870706
0.0164649
0.00326012
0.000890345
0.00769446
5.13256e-05
0.00185594
0.0262371
0.00972205
0.000225901
0.00629058
0.000202751
6.35684e-05
0.00672635
0.000551578
0.0161584
0.00249973
4.044e-05
0.0067258
0.0190976
5.90723e-05
0.00675033
0.0077915
0.000595771
0.00675706
0.000983098
0.00620635
0.000105103
0.0012947
0.00103092
0.0263535
0.0012652
0.000146883
0.000394375
0.00676335
0.00673193
0.00334545
0.00315855
0.00187036
0.0162049
0.0028661
0.00017156
0.000655287
0.0193773
0.000644224
0.00090313
0.00673217
0.00113894
0.000143885
0.00234743
0.00358896
0.0153824
0.000418353
0.00639619
0.0105966
0.0126199
0.00372756
0.00202284
0.00672534
0.0215691
0.0119124
0.000754399
0.00318958
0.0107794
0.0020583
5.04958e-05
0.00270397
0.000101826
0.000201313
0.00678664
0.000130652
0.000804694
0.00672817
0.0290507
0.00944742
0.0307974
0.00101309
6.13194e-05
0.00569615
0.0041725
0.001054
0.0295289
9.92249e-05
0.00190434
0.000244299
0.0322211
0.00249941
0.0176337
0.0263259
0.00333028
3.10847e-05
0.00250139
0.000382666
0.00676022
0.000849957
2.89857e-05
0.00103657
0.00134828
0.00447157
0.0160832
0.00134953
0.0284857
0.000245858
0.00445872
0.0283815
0.000542605
0.0260115
0.000766173
0.00146912
0.00130562
0.0162693
0.028898
5.63203e-05
0.0234822
0.00673703
0.00118472
0.00673778
0.000293944
0.00100636
0.0133118
0.00672681
0.0203186
0.000301901
3.47183e-05
0.0161274
0.000775232
0.00318174
0.00151079
0.00672549
2.75531e-05
0.000946856
0.00289941
0.00591429
0.0124826
0.000618803
0.000288891
0.000339473
0.000370694
0.0255228
0.00674425
0.000897136
0.00142331
0.0232954
0.00167519
0.000409355
0.00741906
0.0152788
0.0247917
0.0163479
6.50194e-05
0.000632155
0.000110929
9.55172e-05
0.000948372
0.000161209
0.00672564
0.00108933
0.00675905
0.000478346
0.00672578
0.00375207
0.00804591
0.000414957
0.000573053
0.0067533
0.00180095
0.0156999
0.0239612
0.00672994
0.00672511
3.38913e-05
0.000375647
0.00675673
3.15728e-05
0.000337828
0.00117026
0.0044103
0.000367652
0.00678192
0.0035538
0.000226979
0.000636051
0.00672959
0.000427501
0.0260038
4.27094e-05
0.000132765
0.00675398
0.00675582
0.000265395
0.000996634
0.00112477
0.000144943
0.00672392
0.00103506
0.000640711
0.00347077
0.0002219
0.00674606
0.00672754
0.00672564
0.0024757
0.0252195
0.00363953
0.00400789
0.0317195
0.00465605
0.000746299
0.000346832
0.0067253
0.000898093
0.00095007
0.00100375
0.000480743
0.00171188
0.000491771
0.00123358
0.000802069
0.00360608
0.00120485
9.12314e-05
0.00413042
0.00740942
0.0246277
0.00675258
0.0010766
0.00116626
0.00672685
0.0115843
0.00939822
0.0157192
0.000686001
0.000126267
0.0312703
0.00172683
0.00158213
2.69e-05
0.000423456
0.0067423
0.000403581
0.00153956
0.000753929
0.0305994
0.00295969
0.00471914
0.00383968
0.0280529
0.00672666
0.00672409
0.0145402
0.000600239
0.00672656
0.0129705
0.00704395
0.00672477
0.00651323
0.000543745
0.00377365
2.90987e-05
0.000624905
0.000358727
0.000984116
0.000127487
0.000439014
0.000465322
0.00672363
0.000177729
0.000331305
0.00393157
0.000122886
0.00117551
4.27835e-05
0.00908803
0.00672381
0.0214479
0.000315919
0.0019011
4.45352e-05
0.00672522
0.00228207
0.00281572
0.0143577
0.00149365
0.0033898
0.0318069
0.0148848
0.000490665
0.000665352
0.00119982
0.00674103
4.44066e-05
0.00192099
0.00133173
0.021445
0.00433979
0.000621306
0.000264201
0.0067257
0.000962216
0.000497008
0.0164383
0.000845494
0.00680058
0.00673203
0.0229088
0.000155533
0.00174184
0.000581256
0.0246436
0.000812231
0.00234929
0.0225604
0.00677793
0.0166845
0.00140939
0.00675289
0.000830595
0.00120912
0.00135716
0.028977
0.0284505
0.0153241
0.00727094
0.000498942
0.00937896
0.00109565
0.0233711
0.00474016
0.00121205
0.000615517
0.000613479
0.000351664
0.00378001
0.000563988
0.00674711
0.0234115
0.0150512
0.0279015
0.00445657
0.00676281
0.000530198
0.00960867
0.0103582
0.00320348
0.027757
0.00672896
0.0046864
0.000180074
0.000255195
0.00673141
0.00455994
8.16785e-05
0.00672682
0.000234507
0.00352628
0.000737674
0.00672505
0.00158095
0.000721425
0.0122803
0.00532666
5.74537e-05
0.00381904
3.24741e-05
0.00146284
0.00651319
0.0250925
0.000939729
0.000988888
0.00687021
0.014044
0.00675342
0.00672588
0.0146987
0.00672607
0.0152202
0.00552634
0.00251358
9.15445e-05
0.000475447
0.00672622
5.69487e-05
0.0068216
0.00672525
0.000334857
0.000236153
0.00114708
0.00604235
8.44815e-05
0.0157463
0.000436571
0.000284486
0.000465891
0.00137033
0.0187875
0.000606116
0.000239654
0.0097706
0.000738716
0.0171702
0.0147423
0.00576039
9.84432e-05
0.00165612
1.44383e-05
0.00560222
0.0068154
0.00675524
0.0281186
3.83282e-05
0.029161
0.000263152
0.00144938
0.00674922
0.0316491
0.0024203
0.00277002
0.0025945
0.00859885
0.00263998
0.00230337
0.0019341
0.000993344
0.00184229
0.00211656
0.027905
0.0250347
0.00254934
0.006727
0.000886395
4.72684e-05
0.00106278
0.00307849
0.01128
0.00099464
0.00673579
0.00059394
0.00680399
0.00150626
7.1728e-05
0.00346783
0.000220992
0.0174274
0.00680077
0.000870493
0.00148769
0.000234943
0.00149179
0.00393685
0.000649479
0.00101245
0.000209393
0.00260559
0.0176727
0.00392931
0.000152347
0.00672664
0.0252911
0.0201532
0.000761853
0.000427825
0.0251308
0.00835908
0.00705273
0.022377
0.0205855
0.00137788
0.00248665
0.00538116
2.57412e-05
0.000604843
3.17425e-05
0.0283181
5.16089e-05
0.00250044
0.010519
0.0191655
0.00672472
0.000733597
0.00173252
0.00426294
0.00673576
0.00865308
0.00147264
0.0311979
0.00674361
0.0181123
0.0020344
0.000771355
0.00507543
0.020593
0.0042956
0.000305153
0.0251066
0.00673035
0.00229806
0.00108406
0.00672784
3.00252e-05
0.00680362
0.00270098
0.00345042
0.0117321
0.00955965
0.000562102
5.46648e-05
0.00129662
0.000239179
0.0273332
0.00116474
0.018579
3.87498e-05
0.0238096
7.5102e-05
0.000723469
0.0180832
0.00673521
0.000761914
0.00679434
0.00672594
0.00081019
0.0179809
0.0137819
0.00633657
0.00673099
0.00034688
0.0221509
0.00072988
0.00667165
0.031789
0.00123224
0.00114885
0.00273855
0.000150055
0.00672641
0.000557389
0.00589014
5.792e-05
0.000292138
0.00323012
0.00674357
0.00165513
0.000912279
0.000574494
0.0282673
0.0047068
0.00672695
0.0141083
0.00792013
0.00672633
0.000147606
0.0259704
0.0003587
0.026959
0.00550158
4.11362e-05
0.000229685
0.0181874
0.00674103
0.000452601
0.000342514
0.000682547
0.00672616
0.0171534
0.000374131
0.0155301
0.00672368
0.00360966
0.0155185
0.0110451
0.00275944
0.000886143
0.00133182
0.011809
0.00036384
0.00153678
0.00123592
0.011786
0.00645018
0.0149528
0.000960993
0.00054062
0.0322262
0.00827673
0.000605652
0.001337
0.00672581
0.00157922
0.00673924
0.00663186
0.00096554
0.000570473
0.0067541
0.0161348
0.00771141
0.000345747
0.00238528
0.00260087
0.0237013
0.00671503
0.000472715
0.0240977
0.0195484
0.00680598
0.0265952
0.00274957
4.87984e-05
0.0307753
0.0010408
0.0316875
0.000244413
0.000107814
0.0002737
0.000685329
2.38231e-05
0.0152899
0.00169627
0.000458269
0.00232554
0.0155669
0.000109826
0.00672726
2.36034e-05
0.00183266
0.00128712
0.00101658
0.000331829
0.0144414
0.00321405
0.000580939
0.00166811
0.0285159
0.000404201
0.0013836
0.000540542
0.000592472
0.00597342
0.0154623
0.000328722
0.00672858
0.00173625
0.00523385
0.000317078
0.00327325
1.76266e-05
0.00228385
0.00672661
0.00675207
0.00050677
0.000678846
0.024545
0.0193751
0.00672896
7.87219e-05
0.000304647
0.000518526
0.0049578
0.00673685
0.0275262
0.000773896
0.000960691
0.000919869
0.00673082
0.000962216
0.000144492
0.000484327
0.00809419
2.2022e-05
0.0288709
0.00384847
0.00073684
0.00155193
0.00265222
0.00676881
0.0060373
0.000165662
0.00672803
0.000861765
3.79037e-05
0.00155235
0.00681612
0.00342223
0.027858
0.0131422
0.00139604
0.000490546
0.00216421
0.00674807
0.000327157
0.0025
0.00130393
0.00929605
0.0168976
0.00441145
0.0242248
0.0113493
0.00117132
0.0033772
0.000444178
0.00772354
0.00481392
0.000233531
0.0202657
0.00166235
0.000386757
0.00374896
0.00673099
0.0067256
0.00288215
0.0124212
0.00392162
0.00672498
0.000155923
0.000557098
0.0185742
0.000643455
0.00677375
0.00116
0.00329186
0.011731
0.00267708
0.00471224
0.00060802
0.0111201
0.00649272
0.000454768
0.00270078
0.00108321
0.000128144
0.000219378
0.00687495
0.00323837
0.00676705
0.00314768
0.000551403
0.0003234
7.7564e-05
0.0067237
0.0127425
0.000557629
0.0186047
0.000514458
0.000791234
0.00656001
0.000263629
0.000680221
3.48147e-05
0.0187003
0.00222705
0.0164038
0.000579926
0.00410806
0.00184994
0.000417258
0.00674273
0.0134857
0.0202429
0.000398576
0.0226391
0.00124845
0.00224093
0.00262439
0.000110814
8.56978e-05
0.000443116
0.000574408
0.000328708
0.000292639
0.001568
0.000381692
0.0180655
0.0039129
0.017075
0.00393888
0.0154723
0.00672656
0.00301988
0.0242922
0.00673585
0.00196219
0.00672476
0.00097745
0.0181352
0.000912136
0.000395846
0.00544008
0.00661215
0.0171422
0.000323144
0.000399004
0.000505136
0.0143295
0.000695276
0.000303022
0.00680445
0.000405759
0.000894091
0.00111662
2.43427e-05
0.0023409
0.0068087
0.00430198
0.00806801
0.00131505
0.000158228
0.00525204
0.00370717
0.00621871
0.00120857
0.00236269
0.000471644
0.00137224
0.0100856
0.00672675
0.00173763
0.000784128
0.0139451
0.000335177
0.0146939
0.000667498
0.00677309
0.00126642
0.00672635
0.00674772
4.27004e-05
0.000493453
0.00941745
0.0213505
2.86213e-05
0.00103794
0.000486214
0.00675651
0.00436128
0.0026394
0.000662992
0.0224397
0.000289935
0.0147533
0.00181171
0.00220758
0.0122325
0.00091938
0.00047234
0.000607848
0.0132112
0.000445888
0.00109101
0.000413801
0.00290908
0.00692872
0.00608124
0.000271407
0.00686327
5.60641e-05
0.00677294
0.0318646
0.029857
0.000861464
0.000931415
0.00678551
0.00302557
0.0124392
0.000704529
0.0209447
0.00195005
0.00039944
0.016355
0.00130248
0.0271839
2.89143e-05
0.00479095
0.000628997
0.00232871
7.77467e-05
0.00989606
0.000288691
0.00106252
0.00103124
0.00020115
0.00601386
0.00116465
0.01794
7.15348e-05
0.00138046
0.00418009
0.00111031
0.00672701
0.00212701
0.00672395
0.00100548
0.000758227
0.0263683
0.0118101
0.00672788
0.00279389
0.0202374
0.00255829
0.000757056
0.00142918
0.000521581
0.022735
0.0308877
5.54594e-05
0.0106539
0.000647226
0.000825747
2.6512e-05
0.000588138
0.00156479
0.00672549
0.0263783
0.000302315
0.013726
6.41249e-05
9.56063e-05
3.37679e-05
0.0302106
0.0301101
0.000451584
0.00153978
0.0258839
0.0119387
0.0275216
0.0051375
0.00108669
0.00429534
0.0148345
0.0151623
0.000505629
2.90912e-05
0.00136937
0.000807351
2.8095e-05
0.0189394
0.00674939
0.00147933
3.43397e-05
0.000925616
0.00179059
0.0116549
0.00244092
0.000970588
0.00484932
0.0217408
0.0178034
0.018458
0.00672525
0.0111221
0.00873363
0.0185241
0.0251833
0.0213307
0.000715113
0.0137519
0.0150053
0.00036608
0.000603376
0.00134613
0.000209463
0.000509177
0.0232427
0.032511
0.0181317
0.000382754
0.0238866
0.000576129
0.00202474
0.008251
0.000896267
0.00434316
0.00265007
0.000272713
0.0279147
0.00157087
0.00261571
0.00128564
0.00673509
0.000826219
0.000251274
2.72908e-05
0.000834948
0.000553779
0.0181669
0.000270267
0.0023722
0.0019634
0.0131465
7.69019e-05
0.000243975
0.0179434
0.000551195
0.000118936
0.000896578
0.0237932
0.0073124
2.50156e-05
0.00013798
0.000434995
2.43975e-05
0.000397991
0.00441934
0.00192961
0.0130949
0.00672425
0.0277051
0.0129976
0.00108824
0.000366514
0.00107297
0.00673247
0.00941879
0.00673447
0.00127491
0.0241314
0.000477496
0.0229857
0.000831868
0.0187457
0.000107969
0.000767769
0.0177513
0.00672429
0.000837943
0.000859234
0.00428193
0.00336491
0.0119141
0.000348463
0.00677026
0.00103657
0.000254167
0.0016778
0.00508072
8.87314e-05
0.00336093
0.00163844
0.00139462
0.0187187
0.000370269
0.00924545
0.0162122
0.000412409
0.000923495
2.33443e-05
0.0186163
0.00572993
0.00148629
0.00347243
0.00191417
0.00370107
0.00046943
0.0186603
0.00183251
8.18042e-05
0.00182012
0.000977575
0.0140158
0.00113503
5.32895e-05
0.000991982
0.00143678
0.00568744
0.000929341
0.00879911
2.9965e-05
0.000500172
0.00182138
0.0203111
0.000610509
0.00679904
0.0225208
0.00673309
0.000135237
0.00675807
0.00209858
0.0194337
0.00673975
0.00041544
0.00546996
0.020591
0.00211466
0.000464713
0.00178901
0.000156408
2.94731e-05
0.000934572
0.00117007
6.74477e-05
0.000741943
0.000652461
0.00061508
0.000246736
3.76993e-05
0.000968269
7.17533e-05
0.000278314
0.000918731
0.016403
0.0212166
0.00672488
0.000902443
0.0259646
6.99051e-05
3.70191e-05
0.000428206
7.83748e-05
0.000653584
0.00672677
0.00124398
0.0221372
0.0240184
0.0279804
0.00127329
0.000179826
0.0163249
0.000127121
0.0252072
0.00238313
0.0200071
0.000857029
0.0176366
0.000890918
3.93249e-05
0.0225513
0.00673156
0.000956307
0.00214082
0.00136981
0.00052549
0.0314859
0.0274093
0.000975174
0.00673128
0.00525659
5.46517e-05
0.00227789
0.0232064
0.0269296
7.0295e-05
0.000561926
0.0160329
0.000323778
0.00676732
0.0294362
0.00398099
0.008278
0.0208585
0.00918104
0.000172322
0.0063901
0.00127203
0.0067273
0.000440904
0.00068646
0.000988521
0.0245016
0.0192539
0.00119375
4.36913e-05
0.00562415
0.0170959
0.0180859
0.0175031
0.02666
0.000619358
0.00787084
0.0307652
0.00211205
0.000103717
0.0011034
0.0179988
0.00686005
0.00673949
0.000904032
0.00671899
0.0014881
0.00294388
0.00196821
0.00673194
0.0251466
0.00194449
0.0260695
0.00672663
4.55027e-05
0.000468491
0.000391281
0.0150928
0.0263475
0.00674413
0.000665607
0.00693204
0.00607098
0.00755287
0.0300794
3.54112e-05
0.00042779
0.000513135
4.26956e-05
0.000706074
0.00672713
0.00672653
0.00103684
4.82394e-05
0.028842
0.000607383
0.000273903
0.00243395
0.0270177
0.000244054
0.00052189
0.0173866
0.000182868
0.00426382
0.00474867
0.000806129
0.000570977
0.000908117
0.00117747
0.00673417
0.00216272
0.000730383
0.000204745
3.81098e-05
0.000234021
0.00482807
0.00054324
0.000895911
0.00506058
0.000847729
0.00282365
0.0071358
0.00189319
0.00672362
0.000362625
3.25398e-05
0.000662261
0.00675628
0.000548487
5.92351e-05
0.0316561
0.000319433
0.000331591
0.00194738
0.0154995
0.00129337
0.00122736
0.0247622
0.00190285
0.000605595
0.00096197
0.0171934
0.00678632
0.00459383
0.0218894
0.0208163
0.0114463
0.00125917
0.0229251
0.0067471
0.00673131
0.0020998
0.00145903
0.0253601
0.0195764
0.00133993
0.00173833
0.00205503
0.00922231
3.53755e-05
0.0121017
0.000801091
0.000186602
0.00181989
0.00286517
0.00673525
0.000227678
0.0208328
3.38335e-05
0.00328614
0.00151241
4.11328e-05
0.0201423
7.11384e-05
0.00674681
0.00250263
0.000320936
3.44449e-05
0.00047255
0.0056244
0.000611659
0.016774
0.00151777
0.00614714
0.0242578
0.00658334
0.000430796
3.42451e-05
0.00231491
0.00451662
0.00672678
0.000144299
0.00672381
0.00271455
0.0212972
8.30438e-05
0.0154234
0.00170172
0.00035901
0.00673652
0.00674164
0.000167097
6.76684e-05
0.0248348
0.00305238
0.00649019
0.00169413
0.000109039
0.00672465
0.00138323
0.0154162
0.0201516
0.000271061
7.72514e-05
0.0208862
0.00229944
0.0010564
0.00178289
9.46191e-05
0.00103154
0.00672675
0.00415497
3.45056e-05
2.73992e-05
0.000487238
0.000932432
0.00123095
0.00224129
0.000581074
0.000852445
0.000659951
0.00673872
0.00232332
0.00147424
0.028958
0.026458
0.000371109
0.00672568
0.000528771
0.0175743
0.000636756
0.000855452
0.000101543
0.00672839
0.0108953
0.00540131
0.00013706
0.00327385
0.000811994
0.00124275
0.00121309
0.000337754
0.00120901
0.000675368
0.00606934
0.000237777
0.000881802
0.000436279
3.96956e-05
0.0141024
0.018712
0.00683082
0.00122227
0.000991617
0.000732305
0.000491053
0.00480576
0.0067964
6.19623e-05
0.0271842
0.00354867
0.000846306
0.00457259
0.000784087
0.000307436
0.00814195
0.0065677
0.000185079
0.028266
0.0244995
0.000154114
0.000747438
0.0246203
4.44356e-05
0.00186215
4.9289e-05
0.00119101
0.00204356
0.02307
0.0067756
9.80436e-05
0.00490272
0.0193289
0.000886909
0.00673875
0.00352092
0.0183099
6.79281e-05
0.0142067
0.00280118
0.000139487
0.000531778
5.44752e-05
0.031725
0.00248626
4.24251e-05
0.00480954
0.00283698
0.00675361
3.25312e-05
0.0195983
0.00419965
0.000122675
0.000821865
0.0203885
0.000345468
0.00472229
0.00269023
0.0190779
0.0040051
9.80811e-05
8.57606e-05
0.0205165
0.00672585
3.47077e-05
0.000998591
0.00104497
9.2221e-05
0.00249264
0.0156125
0.0275949
3.07029e-05
0.00234018
0.000112748
0.0126786
0.000143722
0.0258913
7.60586e-05
0.0158678
0.00203429
0.0160488
0.00179269
0.00173889
0.00170284
0.00682589
0.000167948
0.00675107
0.0027508
7.50156e-05
4.85292e-05
0.000941456
0.00310638
0.000128593
0.00175135
0.00287942
6.71435e-05
0.00115324
0.000150125
0.000476602
0.00674626
0.0186442
0.000670125
0.00231759
0.000131757
0.00673108
4.48129e-05
0.00676654
0.000415095
0.000164305
0.0110356
0.000373528
0.0209186
5.62998e-05
0.00672625
0.000510074
0.00118604
0.0230281
0.000173272
4.83058e-05
0.000368196
0.00288099
0.000237373
0.000236227
0.0124178
0.00381679
4.29656e-05
0.0184887
0.00673197
0.001956
0.00113985
0.000242831
0.00369699
0.00672628
0.00819069
3.98704e-05
0.00134749
0.000125879
0.0273352
0.000432347