/*--------------------------------*- C++ -*----------------------------------*\
| =========                 |                                                 |
| \\      /  F ield         | OpenFOAM: The Open Source CFD Toolbox           |
|  \\    /   O peration     | Version:  v2012                                 |
|   \\  /    A nd           | Website:  www.openfoam.com                      |
|    \\/     M anipulation  |                                                 |
\*---------------------------------------------------------------------------*/
FoamFile
{
    version     2.0;
    format      ascii;
    class       volVectorField;
    location    "250";
    object      U_0;
}
// * * * * * * * * * * * * * * * * * * * * * * * * * * * * * * * * * * * * * //

dimensions      [0 1 -1 0 0 0 0];


internalField   nonuniform List<vector> 
14315
(
(0.998077 -0.357986 2.40309e-19)
(0.196612 0.0400296 0)
(1.01318 -0.11772 6.43768e-22)
(1.07162 -0.241467 2.62168e-20)
(1.0817 -0.296563 2.59525e-20)
(1.11175 -0.0515763 -5.16921e-20)
(-0.0298362 0.008849 1.17392e-19)
(0.913251 -0.0746774 0)
(1.07352 -0.168219 -3.14307e-20)
(1.01755 -0.0771765 7.088e-22)
(0.665637 -0.104232 -1.09695e-19)
(-0.28002 -0.025498 -6.14605e-20)
(0.89302 -0.310185 -1.44797e-19)
(1.03876 -0.00760766 9.70724e-21)
(-0.269453 -0.0256393 -2.09733e-19)
(1.01014 -0.00270655 5.29193e-21)
(0.915921 -0.0847058 -3.47992e-20)
(1.00343 -0.0239098 6.78347e-21)
(1.10851 -0.189744 0)
(1.10074 -0.186249 0)
(1.00646 -0.0258976 1.72789e-22)
(0.166649 -0.0125053 0)
(1.15489 -0.121771 -1.11285e-20)
(-0.279364 -0.0247683 6.26984e-20)
(1.01441 -0.285797 -1.34877e-20)
(0.171392 0.0410527 2.23983e-20)
(0.993015 -0.016589 0)
(-0.0208121 0.00944243 -1.16802e-19)
(0.77392 -0.0708581 9.78897e-20)
(1.2323 -0.158711 1.65769e-19)
(1.14494 -0.00824064 3.96122e-20)
(1.00292 -0.0275463 -9.13523e-21)
(1.04164 -0.0080442 2.13402e-20)
(0.600218 0.00131008 1.1562e-19)
(-0.0758014 -0.014953 -1.85363e-19)
(0.18613 -0.0176729 -1.88808e-19)
(0.337456 -0.187691 -1.80771e-19)
(0.945951 -0.106656 2.71386e-20)
(1.25895 -0.121136 1.93669e-19)
(0.939995 -0.3201 -1.39648e-21)
(-0.296419 -0.0279483 -1.68302e-19)
(0.213817 0.12212 -2.38837e-19)
(0.954111 -0.0605311 2.30834e-22)
(1.02329 -0.00240287 1.48717e-20)
(1.16177 -0.083593 7.96417e-21)
(1.01128 -0.278286 9.06693e-21)
(0.773179 0.08401 -6.2623e-20)
(-0.232863 -0.0256894 0)
(-0.229763 -0.0249339 0)
(1.00349 -0.0223019 -4.9316e-21)
(-0.208207 -0.0247255 -1.27377e-19)
(1.08317 -0.239412 -1.53512e-20)
(-0.274729 -0.0249912 0)
(-0.269395 -0.0254747 0)
(1.13452 0.00395131 8.69593e-22)
(0.217505 -0.0163128 2.5211e-19)
(0.128474 -0.478574 -2.56418e-19)
(1.08834 -0.169922 9.06181e-21)
(1.00494 -0.0339643 1.94793e-21)
(1.01234 -0.10889 -3.82035e-21)
(1.24241 -0.17561 1.30515e-19)
(0.579611 0.0404995 -9.17217e-20)
(0.197757 -0.0153959 0)
(1.00779 -0.0302635 -1.54432e-21)
(1.23208 -0.175105 9.51845e-22)
(0.362226 -0.343338 -1.44558e-19)
(0.777225 -0.301138 3.12635e-20)
(1.00127 -0.00832878 2.50499e-21)
(1.00782 -0.0278387 -8.08981e-22)
(1.13552 0.00776106 -1.65267e-20)
(-0.268263 -0.0248903 1.36756e-19)
(1.09188 -0.161895 0)
(-0.0587691 -0.015771 1.85559e-19)
(-0.0750245 -0.0471911 1.27347e-19)
(1.00167 -0.0422053 0)
(0.0393813 -0.0486145 0)
(1.10312 -0.0953927 3.13104e-20)
(0.307244 -0.0429379 -2.10786e-20)
(1.15865 -0.0878726 7.32194e-21)
(1.06743 -0.00191687 -2.67422e-20)
(1.02516 -0.0137099 0)
(-0.146538 -0.0279733 -6.30965e-20)
(1.09184 -0.1536 -3.5142e-20)
(0.335693 -0.0439789 -1.84074e-20)
(1.00823 -0.0252467 0)
(1.09126 -0.00331651 -2.47788e-20)
(0.138572 -0.0884823 0)
(-0.261988 -0.0214657 0)
(-0.276212 -0.0256745 2.21415e-19)
(0.670143 -0.127747 3.16294e-21)
(1.15438 -0.0448633 -5.40816e-20)
(0.876818 -0.265125 3.56509e-20)
(1.026 -0.0148636 0)
(1.09162 -0.012964 1.45266e-20)
(-0.28008 -0.0244822 1.41713e-19)
(-0.216928 -0.0201283 5.7301e-20)
(0.958192 -0.0633958 0)
(-0.194709 -0.0247548 0)
(-0.113646 -0.00662185 4.5385e-20)
(0.708208 0.202898 -9.11096e-20)
(1.00094 -0.0070739 -2.61841e-21)
(-0.211379 -0.0255315 0)
(0.173384 -0.0150732 -8.88349e-20)
(1.02953 -0.0176183 -6.54068e-21)
(0.708414 0.210671 0)
(1.25527 -0.123812 -2.04003e-19)
(-0.131391 -0.0325367 0)
(-0.199779 -0.0201136 3.71757e-21)
(1.15718 -0.0206558 0)
(1.22699 -0.013104 1.89585e-20)
(-0.222437 -0.020951 -3.15999e-20)
(0.970711 -0.0237919 -5.69359e-22)
(-0.124358 -0.0325724 0)
(0.991335 -0.0204688 -7.1632e-21)
(1.01596 -0.0526556 0)
(-0.270499 -0.022374 -1.62008e-19)
(0.991196 -0.0198526 9.29792e-21)
(-0.279133 -0.0254275 -2.21427e-19)
(-0.124497 -0.0328064 -1.07283e-19)
(-0.283808 -0.0265074 -9.05647e-20)
(1.27712 -0.112546 -4.5605e-22)
(1.13131 -0.0136071 0)
(1.02901 -0.0159216 -4.65383e-21)
(-0.287475 -0.0250896 0)
(0.785826 -0.0673657 -4.52688e-20)
(1.02281 -0.00193925 -8.41836e-21)
(0.489334 -0.0226484 -2.30451e-19)
(1.02137 -0.00966832 -5.88547e-21)
(1.06082 -0.020818 -2.30651e-20)
(0.868361 -0.265389 5.6193e-20)
(-0.182808 -0.00577406 2.15247e-20)
(-0.0341622 -0.0247482 5.53293e-20)
(0.707089 -0.504944 -1.27363e-19)
(-0.203733 -0.0137056 0)
(1.23764 -0.149794 -1.12582e-19)
(1.00157 -0.0378938 -6.3928e-21)
(0.960672 -0.0151631 -1.31587e-20)
(0.236896 0.0368703 -2.11534e-20)
(1.06991 -0.0031007 2.27363e-22)
(1.00169 -0.0403994 0)
(0.216849 0.0359205 -1.17398e-20)
(-0.287245 -0.0248347 2.2643e-19)
(0.970819 -0.0211979 0)
(-0.187819 -0.0243025 3.43847e-20)
(1.2256 -0.0239449 0)
(-0.166908 -0.00191961 -8.01959e-20)
(1.23763 -0.012808 -1.01646e-19)
(0.813582 -0.054564 1.86601e-19)
(1.12051 -0.0283304 5.55504e-20)
(0.794694 0.0392038 0)
(1.02084 -0.104792 -1.97937e-21)
(-0.227844 -0.0225513 -1.4896e-20)
(0.995175 -0.0713494 -3.85529e-21)
(1.1189 -0.032848 -7.19636e-20)
(1.08308 -0.290726 4.13567e-22)
(-0.275059 -0.0247744 2.06307e-19)
(0.948565 -0.0597829 3.76408e-20)
(1.01013 -0.00296409 0)
(1.11143 -0.0529513 4.82505e-20)
(0.228184 0.0362312 -4.33271e-20)
(1.00568 -0.0356176 4.12562e-22)
(-0.202022 -0.0246951 1.11632e-19)
(0.706718 -0.0531326 0)
(-0.280847 -0.0251477 1.39957e-19)
(1.03954 -0.0875989 0)
(-0.193057 -0.019384 0)
(-0.232637 -0.0166355 1.12171e-19)
(0.777139 -0.234998 0)
(-0.0997879 -0.0212316 1.4132e-19)
(-0.0650795 -0.0246688 0)
(1.01389 -0.0964709 7.23428e-20)
(1.00737 -0.00209519 -1.17628e-22)
(-0.255267 -0.0200113 1.86651e-20)
(1.01617 -0.0770758 3.92713e-22)
(1.16609 -0.0758112 -6.3058e-20)
(0.334177 -0.17586 1.7765e-19)
(1.00004 -0.00145802 1.82664e-21)
(0.180406 -0.013803 0)
(0.0510101 -0.0104229 4.47888e-20)
(-0.188329 -0.00713149 -6.40498e-21)
(1.18645 -0.290627 4.22647e-20)
(1.10132 -0.0903593 0)
(1.02784 -0.0161916 8.25165e-21)
(1.23671 -0.0708944 5.87112e-20)
(1.14468 -0.109616 -7.81193e-21)
(0.94564 -0.0988315 -3.75166e-21)
(0.943076 -0.309354 7.52532e-21)
(1.26503 -0.0876051 -8.29507e-20)
(-0.0516968 -0.0159189 -2.30708e-20)
(1.18529 -0.0201529 0)
(1.14949 -0.125075 -2.77902e-20)
(0.797439 -0.260083 -5.84551e-20)
(-0.221064 -0.0169067 1.45753e-19)
(0.22384 0.169885 2.61234e-19)
(1.04886 -0.00563865 7.79526e-21)
(-0.122478 -0.0288387 0)
(1.24648 -0.183127 -7.19872e-20)
(1.03671 -0.0467669 1.23354e-20)
(1.02375 -0.0256449 4.25646e-21)
(0.673964 -0.102897 -1.05526e-19)
(-0.280647 -0.0245435 4.6061e-20)
(1.06856 -0.118518 2.22473e-20)
(-0.288676 -0.0251439 -2.59184e-19)
(-0.213911 -0.015356 -1.21889e-19)
(1.05777 -0.0402849 6.44703e-21)
(1.22084 0.0546266 -9.92204e-21)
(1.22699 -0.166002 0)
(1.08778 -0.138454 0)
(1.01098 -0.00812113 2.12057e-21)
(-0.221906 -0.0181519 1.13957e-19)
(1.22699 0.046977 -1.57882e-19)
(1.06409 -0.0220158 1.15371e-20)
(-0.282237 -0.0239961 -1.89159e-19)
(1.20456 -0.101171 9.25877e-20)
(-0.102293 0.00499926 0)
(-0.117236 -0.0329492 0)
(0.417501 -0.0589523 1.28511e-20)
(-0.0942607 -0.00491928 0)
(-0.116932 0.00293517 -7.15843e-20)
(1.21545 -0.0967972 9.45644e-20)
(1.07084 -0.118518 -2.67697e-20)
(1.15505 -0.0194197 4.89993e-20)
(1.19454 0.0148144 -3.95612e-20)
(0.98195 -0.105837 -2.98601e-21)
(0.536634 0.0412387 7.63528e-20)
(1.02244 -0.0967036 3.2671e-22)
(1.01741 -0.00131217 0)
(1.23879 -0.0671354 -5.69154e-20)
(-0.0689068 -0.0161115 -3.17641e-20)
(0.467628 -0.340377 1.63045e-19)
(1.01714 -0.000813073 0)
(1.0388 -0.0857986 9.98424e-21)
(0.803797 0.0313395 8.15778e-20)
(1.00029 -0.000390561 2.49574e-21)
(1.00002 -0.000577199 0)
(0.53956 -0.0452177 -2.2126e-20)
(1.15322 -0.0929429 7.58713e-21)
(1.08974 -0.148518 0)
(-0.068278 -0.0146957 -9.03304e-20)
(-0.111986 -0.0136008 0)
(1.08958 -0.00952419 -2.04795e-20)
(1.13317 -0.0639002 1.10721e-20)
(0.344466 -0.570007 1.04449e-19)
(-0.284878 -0.0244767 1.30029e-20)
(1.03068 -0.538083 -5.74069e-21)
(0.751003 -0.248744 1.69233e-21)
(0.418245 0.0100295 1.23425e-19)
(1.00112 -0.000980338 2.68244e-21)
(-0.0996775 -0.0140356 0)
(1.1931 -0.180918 7.25652e-20)
(1.04531 -0.0152516 0)
(1.02978 -0.0178187 6.43634e-21)
(0.0160259 -0.0366478 -1.77078e-19)
(0.360628 0.13073 -1.08226e-19)
(0.959285 -0.0410756 -3.0404e-20)
(0.0467829 0.00409796 0)
(1.13249 -0.0814941 5.57062e-20)
(1.21814 0.0566987 -1.78526e-22)
(-0.146699 -0.0285984 -3.98585e-20)
(1.20841 0.0503907 9.1373e-20)
(0.712862 -0.444323 4.60044e-20)
(1.13297 -0.0114873 -1.78016e-20)
(-0.280519 -0.0241234 3.00926e-21)
(1.22441 -0.183248 0)
(0.844885 0.0579366 -1.36589e-19)
(1.12847 -0.0815477 -7.66825e-20)
(1.02948 -0.219081 -1.04203e-20)
(1.13651 -0.0588421 1.16422e-20)
(1.09247 -0.00367144 2.8173e-20)
(-0.199523 -0.0221123 0)
(0.215139 0.0375269 -4.3832e-20)
(1.09497 -0.0657986 0)
(1.13759 -0.0114169 0)
(-0.264271 -0.0214671 1.91305e-19)
(0.964203 -0.170559 0)
(0.329999 0.0154975 0)
(-0.286025 -0.0244247 9.14868e-20)
(1.15715 -0.0882146 0)
(-0.163737 -0.0271126 0)
(1.14544 -0.3376 3.00207e-20)
(1.14553 -0.00661669 3.36134e-20)
(1.1075 -0.0391982 -4.30806e-20)
(-0.109945 -0.0144131 0)
(-0.135787 -0.0256658 -6.45673e-20)
(1.01604 -0.0513357 0)
(-0.279776 -0.0251728 0)
(0.154742 -0.0140333 0)
(-0.130027 -0.0308285 -8.73994e-24)
(-0.212139 -0.0145743 0)
(-0.128362 -0.0254948 0)
(1.167 -0.0766423 4.47823e-20)
(-0.164889 -0.0233508 -1.10818e-19)
(-0.218968 -0.0161228 1.32603e-19)
(-0.153243 -0.028068 -1.63321e-20)
(1.23783 -0.167194 8.26574e-22)
(1.19628 -0.0347081 2.80982e-20)
(-0.202449 -0.0201463 -3.34653e-20)
(1.20587 -0.102457 -8.16373e-20)
(0.992406 -0.0277637 -2.05449e-20)
(1.02324 -0.0253742 0)
(1.1568 -0.0396407 -1.74317e-20)
(-0.176253 -0.0217231 -7.40997e-20)
(0.736475 -0.0468094 -1.63333e-19)
(0.149205 0.0329953 -2.51108e-20)
(0.948517 -0.0920227 1.14418e-20)
(1.00837 -0.0254571 -8.92572e-23)
(-0.183911 -0.00579402 0)
(0.142208 -0.0124371 1.14958e-20)
(1.00906 -0.0206473 1.59002e-21)
(1.04762 -0.0139614 1.52624e-22)
(0.14977 -0.0289147 0)
(1.03006 -0.0131986 0)
(-0.12524 -0.0317167 8.72339e-20)
(-0.211516 -0.0201609 3.63262e-20)
(1.05679 -0.261941 8.61932e-21)
(1.26886 -0.085835 -5.96386e-20)
(1.05955 -0.0189945 -1.09275e-20)
(1.12725 -0.0865514 3.09591e-23)
(1.03182 -0.0913047 0)
(1.00677 -0.00237494 0)
(-0.285977 -0.0252345 -2.31916e-19)
(1.27538 -0.246764 7.20002e-21)
(-0.214118 -0.0179231 -1.03519e-19)
(1.13804 -0.0738874 -5.97465e-20)
(1.18175 -0.46779 1.07849e-19)
(1.04973 -0.00664713 -1.63942e-20)
(-0.19597 -0.0196525 5.78958e-20)
(1.25535 -0.128049 0)
(0.665724 -0.0915788 -4.09862e-21)
(1.04625 -0.0138153 -1.43602e-20)
(1.12392 -0.0864031 -1.84835e-20)
(-0.20917 -0.012836 -1.25527e-20)
(0.99985 -0.0054268 1.62341e-20)
(-0.0788626 -0.0153836 9.85517e-20)
(-0.0990972 -0.0307749 0)
(1.00332 -0.0203421 0)
(-0.211368 -0.0157843 -9.61069e-20)
(0.0321891 -0.0374296 1.18934e-19)
(0.0298394 -0.0380042 8.05297e-21)
(-0.0245123 0.0031394 7.22038e-20)
(1.03716 -0.0462847 1.14961e-20)
(0.879696 -0.0664417 -3.43654e-20)
(1.01487 -0.0173474 6.80195e-21)
(1.00096 -0.000836416 -1.66127e-21)
(0.605686 -0.0117167 1.40134e-19)
(1.00739 -0.00384704 4.01831e-21)
(1.0449 -0.0147108 7.76981e-21)
(0.516003 -1.12242 0)
(1.23565 -0.0168398 5.24562e-20)
(-0.220906 -0.0197878 -6.47341e-20)
(0.999881 -0.00090721 -1.65583e-20)
(0.959191 -0.016444 -8.09979e-21)
(-0.192076 -0.00710445 0)
(-0.279989 -0.0238126 -9.50106e-20)
(0.341603 -0.363704 -2.05167e-19)
(0.989938 -0.0374884 0)
(1.06019 -0.0389495 0)
(1.00001 -0.000531981 0)
(1.00896 -0.0221116 4.58641e-22)
(-0.193405 -0.0215585 3.21775e-20)
(0.777043 0.088835 5.37699e-20)
(0.797516 0.0571563 0)
(0.79894 -0.0567959 2.50933e-22)
(0.80625 0.0558406 1.83188e-19)
(0.444482 -0.00432023 3.47131e-20)
(-0.138931 -0.030974 -8.1595e-20)
(1.02146 -0.0103277 -6.04934e-21)
(-0.279197 -0.0235226 2.20379e-20)
(-0.118584 -0.0155269 4.72075e-20)
(1.14675 -0.0104876 -7.93441e-24)
(1.2535 -0.22214 1.0113e-19)
(0.995827 -0.0718456 0)
(0.999948 -0.00135543 1.35101e-20)
(0.370415 0.0124663 0)
(-0.203691 -0.0117126 -2.42301e-20)
(1.02765 -0.224738 9.88354e-22)
(1.02861 -0.093431 0)
(1.00324 -0.0193731 0)
(0.990022 -0.0374843 0)
(0.0915745 -0.103583 1.04151e-19)
(-0.264917 -0.0246307 -1.27553e-19)
(1.09524 -0.153468 0)
(1.00755 -0.00415795 -4.29168e-21)
(0.984813 -0.0966064 -1.12762e-19)
(0.903874 -0.291303 0)
(0.0291481 0.0102599 0)
(1.19744 0.0191691 -7.55122e-20)
(0.0322756 0.00243013 4.78699e-21)
(0.0489913 0.0104326 -2.65854e-20)
(1.1794 0.0214614 -5.05426e-20)
(1.0361 -0.0880676 4.11141e-21)
(-0.286037 -0.0256249 0)
(0.0531895 -0.0385155 -1.51023e-20)
(0.573549 0.00104922 -1.26473e-19)
(-0.219553 -0.0201868 1.59275e-20)
(-0.0195436 0.00266492 -7.26021e-20)
(0.873426 -0.149421 1.88046e-20)
(0.999888 -0.00160595 9.78878e-21)
(1.1567 -0.0233131 1.15702e-19)
(-0.116016 0.00784712 3.59354e-20)
(1.03307 -0.0881056 -1.02061e-20)
(0.899163 -0.0741581 4.41503e-20)
(1.05865 -0.0166742 -1.13322e-20)
(-0.221241 -0.024912 -3.66289e-21)
(0.0376568 0.00983372 -1.25997e-19)
(1.22386 0.0510544 0)
(-0.208087 -0.0154939 3.03675e-20)
(1.27398 -0.24727 0)
(0.821857 0.0581511 0)
(0.312583 0.0480069 0)
(1.01751 -0.020962 -5.12115e-21)
(-0.142993 -0.00986518 -5.89564e-23)
(-0.262364 -0.0243536 -2.09211e-19)
(1.20032 -0.0396428 -3.31562e-20)
(1.05784 -0.0221413 0)
(1.0299 -0.0124626 0)
(1.24039 -0.0117592 1.11293e-19)
(-0.162393 -0.0276511 -7.25295e-20)
(1.00843 -0.0189003 0)
(1.00178 -0.529471 2.76515e-20)
(1.0961 -0.0657548 0)
(0.247944 -0.0842457 3.53923e-20)
(1.25166 -0.133039 0)
(0.897104 -0.0713335 -5.94521e-20)
(0.999837 -0.00477603 -4.56131e-23)
(-0.197465 -0.0244911 1.18844e-19)
(-0.132119 -0.0319023 9.15765e-20)
(1.18335 -0.133592 1.01909e-19)
(1.1487 -0.0966831 -5.63237e-20)
(1.13265 0.0108875 4.82913e-20)
(-0.164829 -0.0291274 1.13048e-19)
(0.2094 0.0348872 0)
(0.999752 -0.00144659 -1.30713e-20)
(1.07427 -0.162604 -2.80263e-20)
(1.20961 0.0188821 0)
(1.10473 -0.0165212 -2.69512e-20)
(1.2215 -0.0573763 4.23581e-20)
(-0.216724 -0.0175968 -8.32291e-20)
(1.0895 -0.28646 3.12379e-20)
(0.992495 -0.0276014 2.21937e-20)
(0.357641 0.111361 1.84015e-19)
(0.992271 -0.0374334 0)
(-0.200895 -0.0118415 0)
(1.00679 -0.0277521 8.91176e-22)
(0.952627 -0.102495 4.74433e-20)
(1.24575 -0.013329 1.82202e-19)
(0.907192 -0.271278 0)
(-0.190813 -0.0242489 -1.36515e-19)
(1.00243 -0.0178921 0)
(0.985211 -0.0983718 2.55869e-21)
(0.546205 -1.01186 0)
(-0.290851 -0.0248146 5.73183e-20)
(0.9993 -0.00823781 -1.31442e-22)
(1.17646 -0.0484464 -5.41695e-20)
(1.10937 -0.042613 5.24329e-20)
(-0.266403 -0.022987 -1.60105e-19)
(1.25474 -0.325169 0)
(-0.183565 -0.025037 0)
(-0.133155 -0.00916547 2.49821e-20)
(1.22861 -0.0222256 0)
(0.992738 -0.0512472 -8.87767e-21)
(0.353547 0.0463842 -1.30489e-19)
(-0.271609 -0.0252759 -5.15212e-20)
(1.21883 -0.064585 -3.92424e-20)
(0.0550463 0.0109451 1.65655e-19)
(0.847651 -0.0101359 -5.8834e-20)
(-0.256877 -0.0252796 0)
(1.22707 -0.0277359 2.06322e-20)
(1.17795 -0.0396797 9.16589e-20)
(-0.189211 -0.00702116 0)
(1.1257 -0.0194067 -3.03817e-20)
(1.22579 -0.00394193 0)
(-0.227607 -0.0203452 7.26535e-20)
(1.17251 -0.0584967 4.3784e-20)
(-0.287564 -0.0250898 2.74218e-20)
(0.972936 -0.101068 -1.4549e-20)
(1.03852 -0.00919311 0)
(1.07006 -0.0740726 1.2843e-20)
(-0.219638 -0.0198304 -6.03956e-20)
(-0.28393 -0.024807 0)
(1.20637 -0.0313848 -3.92925e-20)
(-0.200898 -0.0145152 1.14264e-19)
(1.22502 -0.00860201 0)
(-0.246544 -0.0186043 2.45483e-20)
(-0.169012 -0.028005 0)
(1.18566 -0.276576 -1.00882e-19)
(1.00011 -0.00128794 0)
(-0.039646 0.00220483 -9.55511e-20)
(0.929368 -0.0600427 -6.75506e-20)
(1.21111 -0.0934213 0)
(1.0171 -0.0204042 -1.02257e-22)
(1.24822 -0.335749 -3.72656e-20)
(1.03093 -0.0697194 5.10147e-21)
(1.05494 -0.255734 0)
(1.22631 0.0443533 0)
(-0.172498 -0.00325495 2.10723e-20)
(1.00136 -0.00709671 -9.65772e-22)
(1.06905 -0.15157 0)
(-0.183428 -0.0144909 0)
(0.227762 0.036468 0)
(0.777601 -0.272344 1.50688e-20)
(-0.13414 -0.0275432 2.32739e-20)
(-0.288167 -0.0251553 1.7329e-19)
(1.04214 -0.0850255 -1.45592e-20)
(0.999998 -0.00113474 1.05133e-21)
(1.05892 -0.0237734 0)
(-0.057984 -0.0351761 0)
(1.20701 -0.218533 9.50788e-22)
(0.963256 -0.16457 0)
(1.05987 -0.0183587 3.59054e-20)
(0.2966 0.0425722 -8.82709e-20)
(1.01733 -0.0727544 0)
(1.08212 -0.0416028 1.45777e-20)
(1.07376 -0.0602253 0)
(1.22221 0.0527685 1.19111e-20)
(0.119992 -0.0237425 1.57208e-20)
(0.748484 -0.216289 0)
(-0.0360047 0.00174661 7.6523e-20)
(0.694742 -0.0162853 -5.89561e-20)
(1.1538 -0.218066 1.66469e-19)
(-0.281586 -0.0245443 6.36788e-20)
(1.10444 -0.0193869 -1.07914e-20)
(1.10655 -0.0158334 3.9702e-20)
(0.795235 -0.0609569 -4.20145e-20)
(1.14687 -0.459646 6.75946e-20)
(-0.225938 -0.0204121 -6.63219e-20)
(1.01644 -0.0821965 -4.09394e-22)
(1.00127 -0.0075675 4.24707e-22)
(1.21679 -0.0705007 0)
(1.06885 -0.00426918 0)
(0.992884 -0.0405141 -4.31469e-21)
(1.20417 -0.0294124 0)
(1.0074 -0.0201897 -3.50594e-22)
(1.04787 -0.0121113 2.29698e-20)
(1.20751 -0.0918225 -9.62816e-20)
(-0.280437 -0.0250793 -3.26094e-20)
(0.95623 -0.0395129 2.49605e-20)
(-0.286393 -0.0255691 1.30489e-20)
(1.21584 -0.12727 -5.78033e-20)
(1.00046 -0.00506158 -4.91832e-21)
(-0.159489 -0.0279315 0)
(1.10215 -0.021084 -8.46825e-21)
(-0.19933 -0.0134838 -5.49354e-20)
(1.22593 0.0130516 2.0875e-20)
(1.07994 -0.0411864 -3.74393e-20)
(1.18141 0.0078434 -6.18744e-20)
(1.06389 -0.0938685 1.90388e-20)
(1.23676 -0.0988027 0)
(1.17816 -0.135834 -5.70659e-20)
(-0.273602 -0.0225687 -1.05055e-19)
(1.08329 -0.0393068 -2.49785e-20)
(1.04216 -0.0819059 -7.35396e-21)
(-0.0191235 0.0171146 0)
(0.124538 -0.102359 -2.69716e-19)
(0.258971 0.035286 0)
(1.07515 -0.0842237 0)
(0.807025 -0.0603164 -6.37258e-20)
(0.982018 -0.0255938 2.91997e-20)
(0.993251 -0.0483274 0)
(1.09621 -0.148162 -4.03905e-20)
(-0.208393 -0.012609 0)
(-0.0675137 -0.0185488 9.51615e-20)
(-0.190168 -0.00704827 0)
(1.20661 -0.217724 5.99427e-20)
(1.14609 -0.325994 -5.77678e-20)
(1.25061 -0.0314778 1.67697e-20)
(0.9919 -0.0164179 -3.94874e-21)
(1.00043 -0.00448706 0)
(1.16207 0.00409235 -1.45015e-20)
(1.07148 -0.0301827 0)
(0.689039 -0.0359703 -1.46715e-19)
(1.02389 -0.00896485 -1.34134e-20)
(-0.282464 -0.0250724 -1.88601e-19)
(1.24435 0.00300269 0)
(-0.188369 -0.0222302 4.03086e-21)
(1.03156 -0.00073275 -2.02986e-22)
(1.16867 -0.0685371 4.49059e-20)
(1.00202 -0.0281525 0)
(0.557084 1.02274 5.66726e-20)
(1.03972 -0.00705338 0)
(0.343195 0.0153161 -1.79887e-19)
(1.11595 -0.223395 0)
(0.993371 -0.0150477 0)
(1.17938 -0.169344 -1.40099e-19)
(1.00863 -0.0205655 -6.77328e-22)
(1.0626 -0.0909386 -3.0076e-20)
(1.03631 -0.000349755 1.51766e-20)
(1.13004 0.0104935 1.57144e-20)
(1.19837 -0.228276 1.26038e-19)
(1.02368 -0.0843931 2.03523e-21)
(-0.241168 -0.0180943 4.35297e-20)
(1.00695 -0.0260271 5.38314e-22)
(1.23275 -0.103414 -4.90891e-20)
(1.203 0.00654967 1.6226e-20)
(1.23043 -0.110466 -6.81855e-21)
(1.01007 -0.021964 0)
(0.68322 -0.00122445 -5.64129e-20)
(0.872283 -0.0113832 2.05467e-20)
(0.187429 0.0361565 0)
(-0.226811 -0.0167004 6.3864e-20)
(1.1763 0.0203167 -3.68964e-20)
(1.17084 0.00368976 0)
(-0.135262 -0.0299431 8.03821e-20)
(-0.0419068 -0.068464 0)
(1.08562 -0.0388033 -1.4613e-20)
(1.00114 -0.00700827 -7.86233e-22)
(-0.0757984 -0.0339311 -8.84459e-20)
(0.978105 -0.0547816 1.48946e-20)
(1.02539 -0.15868 -1.50612e-21)
(0.184533 0.686015 4.275e-20)
(-0.236967 -0.0183108 -1.29302e-19)
(1.24485 -0.00700335 -5.53555e-20)
(-0.199079 -0.0135763 5.19172e-20)
(1.03836 -0.00761884 1.06289e-20)
(0.646129 -0.233559 4.03305e-20)
(0.89025 -0.0587342 -3.65752e-20)
(1.22956 -0.107008 -6.73983e-21)
(0.550639 -0.156119 1.68081e-19)
(0.999379 -0.00791636 -1.47241e-20)
(1.01748 -0.0175368 -4.6352e-21)
(1.24155 0.00699936 -5.53754e-20)
(1.22515 0.048951 7.80644e-20)
(1.01499 -0.0820432 1.50552e-21)
(1.24945 -0.0360344 -2.92112e-20)
(-0.194288 -0.00859113 -2.80453e-21)
(1.05716 -0.00212583 3.35941e-20)
(1.06557 -0.00998823 3.45554e-21)
(0.0598396 0.0100749 0)
(0.550365 -0.126594 0)
(-0.211916 -0.0178751 0)
(1.04336 -0.0050829 1.14678e-20)
(1.19067 -0.126019 -8.65423e-20)
(1.00153 -0.024583 -1.21085e-20)
(1.04207 -0.00770614 9.51146e-22)
(-0.184639 -0.0058633 2.26994e-20)
(1.001 -0.00637041 1.78158e-21)
(-0.174256 -0.00318488 7.45198e-20)
(1.15247 -0.093505 6.89134e-20)
(0.391137 -0.00167804 3.6474e-20)
(1.03572 -0.0430148 -1.33412e-20)
(0.975559 -0.0244744 -3.04722e-20)
(1.18181 0.0116506 1.0728e-19)
(1.13542 -0.0684214 5.81906e-20)
(-0.175031 -0.0277859 0)
(0.335269 0.0408941 -1.37482e-20)
(-0.230559 -0.0164972 -5.47568e-20)
(1.01772 -0.109049 -9.95313e-22)
(1.17459 -0.0541656 9.93124e-21)
(0.999917 -0.00147212 0)
(1.1448 -0.0138911 -4.32593e-20)
(0.440697 -0.353518 -1.1742e-19)
(1.14327 -0.165022 0)
(-0.0485434 0.00254624 0)
(1.19934 0.0103593 1.4617e-20)
(1.24282 -0.0142013 0)
(0.884933 -0.274588 1.03422e-19)
(1.13981 -0.113663 0)
(1.13214 -0.0468445 0)
(1.21168 -0.132531 5.24863e-20)
(0.00105584 0.0190137 5.34272e-20)
(1.06957 -0.029729 0)
(1.13333 -0.0478132 -6.06404e-21)
(1.20229 0.00124723 -5.16525e-20)
(0.287123 -0.0255426 0)
(1.23138 0.0359518 -1.65832e-19)
(0.217272 -0.0780344 1.15496e-19)
(1.01331 -0.00191797 -1.52278e-20)
(1.00027 -0.12761 0)
(-0.222598 -0.0184684 -3.29981e-20)
(0.948872 -0.0641999 -6.59777e-20)
(-0.280862 -0.0258262 0)
(1.06567 -0.0105162 1.27907e-20)
(1.19842 -0.228295 -1.79677e-19)
(0.992417 -0.0463477 0)
(1.16957 -0.0697628 1.09534e-20)
(1.064 -0.0219656 -2.7698e-20)
(0.466524 -0.418837 1.01974e-19)
(-0.0948783 -0.0138826 -2.27084e-20)
(1.0028 -0.0120617 -1.55387e-21)
(0.662064 0.817346 -4.03944e-20)
(1.00303 -0.0125035 2.37735e-21)
(1.00005 -0.0013633 0)
(1.02708 -0.549713 6.64888e-21)
(-0.193511 -0.0244888 0)
(1.15633 -0.0546163 7.71582e-20)
(-0.195681 -0.0214349 -7.24545e-20)
(1.19603 0.0156416 2.19633e-20)
(-0.0275629 -0.0432193 3.88335e-20)
(0.200355 -0.507377 2.50682e-19)
(1.06631 -0.0201567 -4.06573e-20)
(0.959973 -0.0583714 -1.41412e-20)
(1.03694 -0.000188781 0)
(1.07578 -0.0264041 5.58801e-20)
(1.17379 0.0178773 -3.70776e-20)
(1.0759 -0.0265408 -5.93515e-20)
(1.15534 -0.479949 -1.09344e-19)
(0.396829 0.0118254 -1.23281e-19)
(1.14452 -0.101839 0)
(1.12984 -0.0677775 0)
(0.97881 -0.0584374 0)
(1.07009 -0.0168657 -1.65492e-20)
(-0.190317 -0.00641611 -2.75288e-20)
(1.01568 -0.00192927 -8.10014e-21)
(1.11107 -0.227491 0)
(1.18526 -0.12672 9.67511e-20)
(1.06783 -0.156063 0)
(-0.278527 -0.0235687 -1.97134e-19)
(0.565145 0.0135364 9.12006e-20)
(1.21984 0.0253668 -8.02882e-20)
(0.0951719 0.0123698 -6.90155e-20)
(0.992581 -0.159807 -5.66498e-21)
(-0.297482 -0.0270249 -6.23317e-20)
(1.0925 -0.185814 -3.1952e-20)
(1.04046 -0.00828024 -1.49288e-20)
(1.00125 -0.0233238 1.17893e-20)
(0.975853 -0.0471036 -2.05853e-20)
(1.08278 -0.171852 1.81674e-22)
(1.0682 -0.0741041 0)
(1.17826 -0.0614816 4.70411e-20)
(1.0597 -0.0915208 -2.35874e-20)
(1.00471 -0.124957 1.05962e-21)
(-0.165292 -0.0217988 0)
(1.04398 -0.00594543 -3.80877e-20)
(0.973091 -0.0993493 0)
(1.14894 -0.23639 1.09265e-19)
(1.09323 -0.00987588 0)
(0.981065 -0.15353 2.82309e-21)
(1.21589 -0.0974216 9.49998e-20)
(0.961575 -0.0663675 1.75151e-20)
(0.666002 0.61582 0)
(1.02714 -0.0144449 0)
(0.999744 -0.00156386 -7.28158e-21)
(0.372577 0.0105188 -1.04007e-19)
(-0.0429851 -0.0155906 2.6315e-20)
(-0.200476 -0.00956259 1.20796e-20)
(0.399016 -0.170763 1.54566e-19)
(1.00279 -0.0370369 0)
(-0.21608 -0.0162285 -1.69512e-20)
(0.832119 -0.0662735 0)
(1.00295 -0.0358813 5.55648e-21)
(0.120824 -0.0978743 0)
(1.00435 -0.00124098 2.05273e-21)
(1.00299 -0.0270921 5.83962e-21)
(1.18262 0.00316328 -2.00367e-20)
(1.00257 -0.0192321 -3.19633e-21)
(-0.242959 -0.0184727 -4.01117e-20)
(1.06877 -0.094656 -7.38264e-21)
(0.273112 -0.534724 -1.39418e-19)
(0.979633 -0.101146 0)
(0.351639 0.0117947 1.74498e-19)
(1.24526 -0.225718 -9.08341e-20)
(1.1493 -0.222426 -3.44781e-20)
(0.959231 -0.149505 0)
(-0.238651 -0.0247853 -1.53665e-20)
(0.631014 -0.0309854 2.12254e-19)
(-0.198293 -0.0219373 -3.33574e-20)
(0.99224 -0.0499399 5.05475e-21)
(0.98012 0.0463877 -2.03483e-20)
(0.850777 -0.115302 1.60389e-20)
(-0.143214 -0.0297639 2.14298e-20)
(1.00013 -0.00156619 0)
(-0.203629 -0.0118027 -7.21589e-20)
(-0.248499 -0.0251122 -1.3381e-20)
(1.01326 -0.498903 0)
(0.489176 -0.0645533 5.65766e-20)
(1.0041 -0.0127536 -3.47396e-22)
(-0.298027 -0.0254741 6.8157e-20)
(1.13216 -0.010258 0)
(1.18281 0.00603225 0)
(0.464341 -0.433445 1.82545e-21)
(-0.11464 -0.0138188 -2.48108e-22)
(1.02247 -0.0911003 1.63482e-21)
(0.980921 -0.055996 -1.41242e-20)
(0.341591 0.0238985 0)
(-0.273235 -0.0226202 -7.04261e-20)
(0.991095 0.577106 0)
(1.01456 -0.0173194 -1.89347e-21)
(1.23466 -0.343168 -1.58694e-19)
(-0.0391109 -0.0263084 -1.15187e-19)
(-0.0585445 -0.0256417 1.00128e-19)
(0.880031 0.051138 1.91439e-20)
(1.0577 -0.0910295 3.24538e-20)
(0.324335 -0.370403 1.87961e-19)
(0.498029 0.0358527 5.63175e-20)
(-0.122639 -0.0131568 -7.87506e-20)
(1.17721 -0.0476021 -1.10054e-20)
(-0.1624 -0.0198741 -3.88545e-20)
(0.835003 -0.0701168 0)
(1.04893 -0.0134092 -8.21942e-21)
(0.98815 -0.150901 -1.92618e-20)
(0.994843 -0.0159858 4.73453e-21)
(1.03921 -0.161418 -1.33927e-20)
(1.22774 0.0368782 1.07874e-19)
(0.496612 0.00971143 -6.41578e-20)
(0.994498 -0.0138116 7.81343e-21)
(0.944191 -0.0583637 0)
(1.1528 -0.0506138 -1.49511e-20)
(0.211073 -0.0324455 1.40533e-19)
(0.77692 0.105267 -1.91502e-20)
(0.946273 -0.0987238 -2.93848e-20)
(1.27274 -0.0919351 -3.62111e-20)
(-0.205743 -0.0143887 -7.36439e-20)
(-0.279341 -0.0229827 0)
(1.09022 -0.0352648 4.90665e-20)
(0.0664028 0.00187552 5.86679e-22)
(0.999837 -0.00105368 6.697e-21)
(1.12173 -0.0371567 0)
(1.15902 -0.048455 -5.54978e-20)
(0.647753 0.183708 0)
(-0.232852 -0.0250201 0)
(1.01182 -0.00793033 8.12757e-22)
(-0.189026 -0.019871 0)
(1.24406 -0.00250742 0)
(-0.0725051 -0.0143995 -1.01868e-19)
(0.54144 -0.0153598 2.5017e-20)
(0.918795 -0.269283 1.62854e-20)
(0.0152419 0.0140076 -6.41612e-20)
(0.922275 -0.192129 6.63809e-21)
(0.126323 -0.10393 1.41344e-19)
(0.999406 -0.00653031 -4.74113e-21)
(1.09673 0.000903057 -1.52375e-20)
(0.849266 -0.10057 -1.7677e-20)
(1.21951 -0.0665284 4.15085e-20)
(1.10762 0.00252412 0)
(0.975796 -0.0448237 1.72294e-20)
(1.03534 -0.167637 1.51741e-20)
(1.18002 -0.0274968 8.59794e-20)
(0.15472 -0.0733829 -4.80472e-20)
(1.06822 -0.0182736 -1.53245e-22)
(1.03209 -0.071064 6.51896e-22)
(0.107298 -0.00911387 0)
(-0.246769 -0.0190017 0)
(-0.162589 -0.0223154 0)
(0.753465 0.0533285 -7.36273e-20)
(1.01614 -0.0984964 9.70292e-22)
(-0.185617 -0.00579935 0)
(1.0671 -0.0926075 7.63395e-21)
(1.01745 -0.0171775 0)
(-0.235404 -0.0179403 -2.13334e-20)
(0.883396 -0.0397857 0)
(-0.199094 -0.0195704 0)
(-0.0468528 0.00215823 -8.76283e-20)
(-0.219914 -0.018432 -4.14568e-21)
(1.19421 -0.133904 6.06669e-20)
(0.0334879 0.0114095 6.57862e-20)
(1.2495 -0.0411227 0)
(0.967275 -0.38831 0)
(-0.0511184 -0.0258476 -1.1428e-19)
(0.993762 -0.152732 -4.44362e-21)
(0.996926 -0.00643881 0)
(1.00883 -0.0234927 -9.00733e-23)
(0.599108 0.0718078 -1.89432e-19)
(0.316768 0.0148328 1.23852e-19)
(1.23292 -0.156124 -5.52345e-20)
(-0.215435 -0.0244146 0)
(1.07377 -0.151 0)
(-0.145446 -0.0250401 1.13745e-19)
(0.489745 -0.111731 -4.28185e-21)
(1.13319 -0.0435284 3.77133e-20)
(0.743788 -0.284536 0)
(0.811977 0.0510093 -8.84818e-20)
(-0.235443 -0.017586 1.25932e-19)
(0.880549 -0.044866 -5.00269e-20)
(0.960471 -0.0970356 0)
(1.12731 -0.0640327 0)
(1.00024 -0.000298344 -3.42224e-21)
(1.24799 -0.0227777 -1.84581e-19)
(1.01972 -0.126017 1.18865e-21)
(1.27705 -0.11385 -1.41131e-19)
(1.08819 -0.163152 2.44672e-20)
(1.00012 -0.00309578 2.66366e-22)
(0.981655 -0.0543687 0)
(-0.0460169 -0.0456267 0)
(0.98269 -0.0114223 -2.31939e-20)
(1.03638 -0.000395674 -1.75388e-20)
(1.01353 -0.00416693 5.51314e-21)
(1.2467 -0.0194897 3.03747e-20)
(1.12973 -0.0228795 0)
(0.881936 -0.159783 -1.16113e-19)
(1.16422 0.00202888 3.20995e-20)
(-0.24812 -0.0250936 -1.3453e-19)
(0.962626 -0.0639918 -3.21888e-20)
(1.02385 -0.00944144 -6.96272e-21)
(1.01795 -0.0519197 -9.97705e-22)
(0.521645 -0.102014 -1.05547e-19)
(1.08613 -0.0150242 -1.42208e-22)
(-0.230257 -0.0228708 0)
(0.994783 -0.0085925 -2.65925e-21)
(0.126453 0.0320091 7.79573e-20)
(1.03377 -0.0244457 -1.93087e-20)
(-0.205812 -0.0145358 3.22236e-20)
(-0.270316 -0.022059 -2.24029e-20)
(1.00016 -0.000177201 9.49176e-22)
(0.748509 -0.492218 -1.5721e-19)
(0.263131 0.041214 1.32524e-19)
(0.770953 0.0224431 9.6733e-20)
(-0.123662 -0.014745 9.99702e-20)
(1.13489 -0.0778488 2.25962e-20)
(1.22064 -0.173832 0)
(0.827369 0.0547623 -2.07174e-20)
(-0.264006 -0.0214294 -8.22435e-20)
(1.04295 -0.00630856 1.49384e-20)
(1.17518 -0.0529359 -9.05596e-20)
(1.27323 -0.117109 0)
(1.0208 -0.084936 -2.84721e-21)
(-0.184965 -0.0167061 -1.06358e-19)
(1.03156 -0.000452348 -1.31612e-20)
(-0.255811 -0.0249536 1.36739e-19)
(-0.209119 -0.0200341 0)
(-0.235986 -0.0164444 -5.25959e-20)
(1.07823 -0.169549 3.25011e-20)
(0.447011 -0.00587987 1.49281e-19)
(0.0622055 -0.0101743 -1.48669e-19)
(1.06204 -0.0230533 -2.6445e-20)
(-0.225959 -0.0223587 1.03405e-19)
(1.0038 -0.0353755 -2.38459e-22)
(1.08784 -0.013059 0)
(-0.199379 -0.0115071 -1.18703e-20)
(0.102536 -0.333734 1.53096e-19)
(0.981679 -0.0115507 3.12454e-20)
(1.12691 -0.226767 -2.79718e-20)
(0.735688 0.0599634 8.76111e-20)
(0.960767 -0.0965147 1.92718e-20)
(-0.0833084 -0.0137557 -5.14673e-20)
(0.991607 -0.0298502 1.40072e-20)
(1.24538 -0.0056978 0)
(0.997408 -0.00657742 2.66149e-21)
(0.728633 -0.0529758 3.89406e-20)
(0.747006 -0.00580659 5.72394e-20)
(0.877448 0.662945 1.55368e-20)